A-SYNC WITH LIG-47 in water
35301
  121NASP     N    1   1.634   1.312   2.499  0.1907 -0.4140 -0.9558
  121NASP    H1    2   1.566   1.238   2.501  0.9467 -1.1261 -0.7244
  121NASP    H2    3   1.645   1.358   2.589  0.3474 -0.3596 -1.0022
  121NASP    H3    4   1.724   1.279   2.468  1.1224 -0.2746  1.3457
  121NASP    CA    5   1.585   1.419   2.405  0.4303  0.6568  0.4355
  121NASP    HA    6   1.492   1.462   2.444 -1.0025 -1.0655 -0.9080
  121NASP    CB    7   1.685   1.538   2.385 -0.2103 -0.2013 -0.1176
  121NASP   HB1    8   1.662   1.609   2.465  0.0955 -1.8097  1.4585
  121NASP   HB2    9   1.653   1.581   2.290 -1.8335 -2.1122 -0.5195
  121NASP    CG   10   1.832   1.493   2.377  0.5382  0.4468 -0.1653
  121NASP   OD1   11   1.872   1.379   2.403  0.4579  0.8776  0.2627
  121NASP   OD2   12   1.914   1.579   2.343  0.0338  0.0066  0.3683
  121NASP     C   13   1.543   1.361   2.267 -0.8676  0.2844 -0.0836
  121NASP     O   14   1.607   1.273   2.214 -0.2513 -0.3997 -0.0638
  122ASN      N   15   1.431   1.399   2.218  0.0769  0.1817 -0.0190
  122ASN      H   16   1.368   1.461   2.267 -1.9562  1.0571 -3.3969
  122ASN     CA   17   1.390   1.362   2.085  0.6230  0.6625  0.6048
  122ASN     HA   18   1.396   1.255   2.063 -4.4676  0.8858 -3.8929
  122ASN     CB   19   1.241   1.407   2.074 -0.4228 -0.1385 -0.6250
  122ASN    HB1   20   1.223   1.514   2.087 -0.5707 -0.2306 -0.0433
  122ASN    HB2   21   1.192   1.347   2.151 -0.7280  2.1333  1.0327
  122ASN     CG   22   1.173   1.371   1.946 -0.1733  0.3951  0.1133
  122ASN    OD1   23   1.235   1.321   1.853 -0.0649 -0.4311  0.3924
  122ASN    ND2   24   1.045   1.396   1.934 -0.8364 -0.1977  0.3585
  122ASN   HD21   25   1.006   1.382   1.842  2.0270 -2.1690 -0.7135
  122ASN   HD22   26   0.995   1.451   2.002 -2.8153 -0.0204 -1.1557
  122ASN      C   27   1.477   1.443   1.992  0.3636  0.3690 -0.1940
  122ASN      O   28   1.491   1.565   2.004  0.0179 -0.4647 -0.5300
  123GLU      N   29   1.536   1.371   1.900  0.4805 -0.2762  0.6537
  123GLU      H   30   1.528   1.271   1.884  0.1929 -0.3554  1.2614
  123GLU     CA   31   1.630   1.429   1.803 -0.1223 -0.0902 -0.9986
  123GLU     HA   32   1.706   1.487   1.856 -0.7203 -0.1361 -0.0501
  123GLU     CB   33   1.714   1.316   1.737  0.8808 -0.2935  0.7493
  123GLU    HB1   34   1.754   1.242   1.806 -0.2330  0.6360  2.4631
  123GLU    HB2   35   1.801   1.363   1.690 -0.2333  0.0223 -1.1303
  123GLU     CG   36   1.641   1.243   1.627 -0.1590  0.5736  0.1368
  123GLU    HG1   37   1.596   1.317   1.561  1.0088  0.6989 -0.5477
  123GLU    HG2   38   1.560   1.196   1.683  0.3043 -1.3100 -0.6896
  123GLU     CD   39   1.727   1.150   1.536 -0.2689 -0.6016  0.5606
  123GLU    OE1   40   1.693   1.133   1.419  0.6764  0.3626  0.3477
  123GLU    OE2   41   1.835   1.099   1.576 -0.3191 -0.0285 -0.6655
  123GLU      C   42   1.562   1.517   1.703 -0.1527  0.0136 -0.4697
  123GLU      O   43   1.624   1.570   1.611 -0.2402 -0.6807 -0.3757
  124ALA      N   44   1.432   1.516   1.708  0.8904 -0.1320 -0.0598
  124ALA      H   45   1.378   1.473   1.782 -0.6562  0.9358 -0.5132
  124ALA     CA   46   1.342   1.587   1.614 -0.2941 -0.0218  0.8619
  124ALA     HA   47   1.396   1.671   1.571 -0.3506 -0.8101 -0.8029
  124ALA     CB   48   1.315   1.493   1.494 -0.3980  0.0309 -0.3182
  124ALA    HB1   49   1.405   1.451   1.449 -0.4112 -0.6880  0.2959
  124ALA    HB2   50   1.262   1.542   1.413  2.1853 -0.9268 -2.7362
  124ALA    HB3   51   1.248   1.417   1.535  1.3736 -2.4953 -1.8619
  124ALA      C   52   1.211   1.635   1.689 -0.3818 -0.3523  0.2709
  124ALA      O   53   1.100   1.612   1.647  0.7834  0.2005  0.0876
  125TYR      N   54   1.229   1.701   1.803  0.1347  0.3333  0.0643
  125TYR      H   55   1.324   1.693   1.837 -0.5707 -1.4367  1.8344
  125TYR     CA   56   1.133   1.795   1.860 -0.0657 -0.3055  0.3036
  125TYR     HA   57   1.035   1.749   1.872 -0.8021  0.0607 -3.2554
  125TYR     CB   58   1.178   1.837   2.000 -0.5449  0.1651  0.1908
  125TYR    HB1   59   1.286   1.851   1.993 -0.2204 -2.4941 -1.5625
  125TYR    HB2   60   1.165   1.748   2.061 -1.9283  1.3431  1.7056
  125TYR     CG   61   1.113   1.964   2.058 -0.6440  0.5773  0.0823
  125TYR    CD1   62   1.169   2.092   2.037 -0.3366 -0.0218 -0.1323
  125TYR    HD1   63   1.263   2.102   1.983 -0.8381 -0.3147 -1.0724
  125TYR    CE1   64   1.098   2.204   2.098  0.8296  0.0399 -0.2236
  125TYR    HE1   65   1.147   2.298   2.079 -1.4013  0.9395 -1.9614
  125TYR     CZ   66   0.976   2.176   2.165  0.2915 -0.1598 -0.9080
  125TYR     OH   67   0.909   2.279   2.229  0.1275 -0.0315  0.5785
  125TYR     HH   68   0.952   2.365   2.228  0.6682 -0.2597  1.9566
  125TYR    CE2   69   0.933   2.052   2.194  0.1579  0.7386  0.5879
  125TYR    HE2   70   0.850   2.037   2.262 -1.2251  0.6815 -1.0528
  125TYR    CD2   71   1.002   1.943   2.138  0.1393  0.0263 -0.2896
  125TYR    HD2   72   0.967   1.845   2.167  1.1281  0.3968  2.4326
  125TYR      C   73   1.101   1.918   1.759 -0.7632 -0.4827  0.6694
  125TYR      O   74   1.192   1.975   1.694  0.3392  0.2389 -0.5024
  126GLU      N   75   0.973   1.955   1.743 -0.0658 -0.3672  0.7341
  126GLU      H   76   0.895   1.902   1.779 -1.1920  0.9514  0.3518
  126GLU     CA   77   0.936   2.079   1.678 -0.4119 -0.1700 -0.4486
  126GLU     HA   78   1.002   2.119   1.600  1.7494 -1.0160  0.8389
  126GLU     CB   79   0.797   2.056   1.612 -0.2432  0.4405  0.4928
  126GLU    HB1   80   0.775   2.141   1.546 -1.0836 -0.4195 -0.3658
  126GLU    HB2   81   0.723   2.036   1.690 -1.2784 -1.0438 -0.8198
  126GLU     CG   82   0.794   1.946   1.504  0.5209  1.2326  0.4685
  126GLU    HG1   83   0.829   1.854   1.552  4.2625  2.7305  0.9741
  126GLU    HG2   84   0.862   1.974   1.423 -0.2011  0.3367 -0.4641
  126GLU     CD   85   0.661   1.938   1.422 -0.4166 -0.7994 -0.0080
  126GLU    OE1   86   0.563   2.000   1.471  0.6842 -0.0345  0.2634
  126GLU    OE2   87   0.666   1.865   1.318 -0.6807 -1.0280  0.4230
  126GLU      C   88   0.925   2.182   1.786  0.3906 -0.8317  0.2935
  126GLU      O   89   0.832   2.173   1.861  0.2367 -0.4953  0.2163
  127MET      N   90   1.001   2.291   1.776  0.2543 -0.4457 -0.0446
  127MET      H   91   1.071   2.289   1.704 -0.4356  1.8718 -0.8799
  127MET     CA   92   0.972   2.414   1.859 -0.6648  0.9477  0.2858
  127MET     HA   93   0.949   2.376   1.959 -0.1399  1.8440  0.7612
  127MET     CB   94   1.083   2.518   1.881  0.0454 -0.7093 -0.2862
  127MET    HB1   95   1.172   2.466   1.917  0.1553  0.3080  0.9929
  127MET    HB2   96   1.041   2.595   1.945  1.9196  1.1382 -1.1785
  127MET     CG   97   1.120   2.593   1.748 -0.2198 -0.6074 -0.1203
  127MET    HG1   98   1.175   2.678   1.787 -1.5713 -0.2239  1.0420
  127MET    HG2   99   1.034   2.637   1.697  1.3906  1.8379 -0.9152
  127MET     SD  100   1.211   2.503   1.624 -0.0935  0.2859  0.4407
  127MET     CE  101   1.174   2.613   1.490  0.2495 -0.1838 -0.1066
  127MET    HE1  102   1.234   2.574   1.409  0.7613 -1.2303  0.7419
  127MET    HE2  103   1.210   2.715   1.505  1.5219 -0.7734  1.0692
  127MET    HE3  104   1.069   2.604   1.460 -0.5809 -3.7917  3.0068
  127MET      C  105   0.846   2.484   1.811 -1.0595  0.5945  0.5843
  127MET      O  106   0.819   2.487   1.694  0.4718  0.3649  0.3053
  128PRO      N  107   0.762   2.536   1.902  0.0522  0.2402 -0.7367
  128PRO     CD  108   0.770   2.536   2.047 -0.3808 -0.3710 -0.1433
  128PRO    HD1  109   0.835   2.617   2.078  0.8279 -1.8468  1.4010
  128PRO    HD2  110   0.807   2.443   2.091 -1.7297  0.0053  1.9201
  128PRO     CG  111   0.635   2.571   2.109  0.4311  0.6679 -0.7075
  128PRO    HG1  112   0.647   2.618   2.207  0.7250  1.4233 -1.0992
  128PRO    HG2  113   0.580   2.477   2.116 -0.0627  0.8094 -2.3855
  128PRO     CB  114   0.571   2.657   1.999  0.1145  0.0041  0.7065
  128PRO    HB1  115   0.463   2.648   1.995  0.2037 -1.2053  0.9264
  128PRO    HB2  116   0.608   2.759   2.014  0.0611  0.1033  0.2085
  128PRO     CA  117   0.630   2.595   1.866  0.5249  0.1905 -0.0219
  128PRO     HA  118   0.554   2.519   1.849 -0.0561  0.8575 -0.4591
  128PRO      C  119   0.626   2.706   1.759 -0.8522  0.7880  0.1580
  128PRO      O  120   0.731   2.761   1.727  0.3624  0.5332  0.3781
  129SER      N  121   0.508   2.743   1.724  0.0612  0.9886 -0.1348
  129SER      H  122   0.427   2.700   1.766  0.1042  0.9069 -0.1367
  129SER     CA  123   0.476   2.841   1.622  0.6006 -0.0137  0.0476
  129SER     HA  124   0.516   2.804   1.528  0.7041  0.2271 -0.0027
  129SER     CB  125   0.322   2.853   1.600  0.0499 -0.3794 -0.0534
  129SER    HB1  126   0.284   2.759   1.560 -1.5040  0.2505 -0.1523
  129SER    HB2  127   0.296   2.937   1.535 -1.3650  0.3282  1.3689
  129SER     OG  128   0.247   2.880   1.719  0.1332  0.6843  0.4711
  129SER    HG1  129   0.159   2.903   1.689 -0.9414  0.1798  2.9863
  129SER      C  130   0.525   2.983   1.646 -0.1812 -0.6744  0.0823
  129SER      O  131   0.614   3.031   1.570  0.4234  0.3765  0.6216
  130GLU      N  132   0.492   3.057   1.757 -0.1640  0.8282 -0.2672
  130GLU      H  133   0.418   3.015   1.812 -0.7722  2.6764  0.3867
  130GLU     CA  134   0.551   3.187   1.799 -1.0830 -0.1644 -0.2769
  130GLU     HA  135   0.531   3.263   1.724  1.9304 -1.6939 -2.8741
  130GLU     CB  136   0.492   3.225   1.941 -0.4801  0.4085  0.2339
  130GLU    HB1  137   0.524   3.324   1.972 -0.3534  1.3103 -2.4978
  130GLU    HB2  138   0.527   3.142   2.003 -0.9862 -1.2077 -1.5342
  130GLU     CG  139   0.339   3.233   1.937 -0.0616 -0.8226 -0.1137
  130GLU    HG1  140   0.308   3.130   1.956 -1.6667 -0.8133 -2.3748
  130GLU    HG2  141   0.318   3.281   1.842  1.6625 -0.4881 -0.3546
  130GLU     CD  142   0.289   3.324   2.049  0.2148  0.4633 -0.1401
  130GLU    OE1  143   0.346   3.331   2.166  0.2570  0.4854  0.4755
  130GLU    OE2  144   0.187   3.384   2.017  0.5831  0.8150  0.9487
  130GLU      C  145   0.704   3.181   1.815 -0.0492 -0.5508  0.4888
  130GLU      O  146   0.759   3.291   1.815  0.1600  0.5832 -0.2336
  131GLU      N  147   0.770   3.068   1.838  0.4508 -0.0919 -0.2589
  131GLU      H  148   0.721   2.981   1.853 -0.3774  0.4862  0.5032
  131GLU     CA  149   0.914   3.050   1.869  0.4773 -0.0638  1.1071
  131GLU     HA  150   0.955   3.140   1.916  0.2604  0.1409  0.9059
  131GLU     CB  151   0.948   2.928   1.955  0.0478  0.1491 -0.5569
  131GLU    HB1  152   0.925   2.830   1.914 -0.4498 -0.5155  1.2341
  131GLU    HB2  153   0.893   2.935   2.049 -0.2114  0.8651 -0.7527
  131GLU     CG  154   1.097   2.922   1.981  0.0499  0.1145 -0.1601
  131GLU    HG1  155   1.134   3.025   1.988 -3.2814  1.5383 -1.2591
  131GLU    HG2  156   1.149   2.875   1.898 -0.9974 -4.3869  1.4377
  131GLU     CD  157   1.132   2.845   2.109 -0.0371  0.1082  0.0043
  131GLU    OE1  158   1.240   2.885   2.166  0.2754  0.0072 -0.2217
  131GLU    OE2  159   1.055   2.765   2.165  0.1458 -0.1166  0.6020
  131GLU      C  160   0.991   3.049   1.732 -0.4409 -0.4081 -0.0512
  131GLU      O  161   1.115   3.080   1.725 -0.2692  0.2974  0.8445
  132GLY      N  162   0.926   3.023   1.616 -0.1455  1.0399 -0.3793
  132GLY      H  163   0.831   2.995   1.638 -0.1734  0.1802 -1.4756
  132GLY     CA  164   0.981   2.997   1.486 -0.0608 -0.3221  0.1080
  132GLY    HA1  165   0.901   2.957   1.423 -0.1192 -0.7648  0.4512
  132GLY    HA2  166   1.055   2.917   1.491  1.1796  0.7405 -0.7454
  132GLY      C  167   1.052   3.113   1.422  0.2211 -0.0572  0.0318
  132GLY      O  168   1.156   3.099   1.361 -0.2118  0.8548  0.8561
  133TYR      N  169   0.997   3.230   1.424  0.1840  0.0082  0.6073
  133TYR      H  170   0.906   3.240   1.465 -0.7345  1.2649 -1.5928
  133TYR     CA  171   1.055   3.350   1.356  0.2403  0.0735  1.1442
  133TYR     HA  172   1.078   3.322   1.253  0.8727 -0.3699  1.4033
  133TYR     CB  173   0.944   3.457   1.330  0.0809 -0.4823 -0.3320
  133TYR    HB1  174   0.910   3.485   1.429  1.4766 -1.6206  0.5193
  133TYR    HB2  175   0.863   3.406   1.278 -0.8018  0.3315  0.2130
  133TYR     CG  176   0.998   3.572   1.249 -0.8379  0.0182 -0.6232
  133TYR    CD1  177   1.028   3.698   1.304  0.3924  0.2554  0.1331
  133TYR    HD1  178   1.019   3.716   1.410 -0.4044  2.2178 -0.2220
  133TYR    CE1  179   1.071   3.806   1.224 -0.2172  0.3979  0.2333
  133TYR    HE1  180   1.083   3.903   1.270  0.6585  0.2188  0.4073
  133TYR     CZ  181   1.086   3.784   1.084 -0.6274  0.1778 -1.0758
  133TYR     OH  182   1.128   3.892   1.011 -0.4348  0.0306  0.0287
  133TYR     HH  183   1.158   3.873   0.922  0.3657  1.1635  0.0352
  133TYR    CE2  184   1.065   3.653   1.025 -0.0236 -0.7298 -0.4377
  133TYR    HE2  185   1.092   3.638   0.922  2.8376  1.9002 -0.2368
  133TYR    CD2  186   1.021   3.547   1.111  0.3048 -0.7118 -0.2276
  133TYR    HD2  187   1.012   3.448   1.068  2.0289 -2.1081  2.3400
  133TYR      C  188   1.180   3.406   1.420 -0.1168 -0.0874 -0.4843
  133TYR      O  189   1.183   3.421   1.542 -0.3146  0.0816  0.1549
  134GLN      N  190   1.282   3.442   1.343  0.1802 -0.4611 -0.1159
  134GLN      H  191   1.271   3.416   1.245 -0.6429 -0.3541 -0.0594
  134GLN     CA  192   1.402   3.505   1.384  0.2390  0.3084 -0.1310
  134GLN     HA  193   1.396   3.510   1.493  1.2669 -1.1504  0.0200
  134GLN     CB  194   1.525   3.422   1.351 -0.0835  0.3135 -0.5621
  134GLN    HB1  195   1.611   3.488   1.362 -1.1434  1.8030 -0.7819
  134GLN    HB2  196   1.508   3.411   1.244  0.2606  4.7560 -1.2955
  134GLN     CG  197   1.544   3.293   1.426 -0.2221  0.1849 -0.1485
  134GLN    HG1  198   1.461   3.224   1.417 -0.0010 -0.3079  1.2666
  134GLN    HG2  199   1.557   3.316   1.532  0.9365 -0.4404 -0.1278
  134GLN     CD  200   1.675   3.226   1.388 -0.0073 -0.1519 -0.0217
  134GLN    OE1  201   1.679   3.121   1.324  0.6174  0.0107 -0.1610
  134GLN    NE2  202   1.787   3.282   1.434 -0.4183  0.0305  0.3471
  134GLN   HE21  203   1.870   3.225   1.423 -2.0452 -2.0494 -2.6824
  134GLN   HE22  204   1.776   3.360   1.497  0.6011  0.1595  0.3811
  134GLN      C  205   1.404   3.641   1.309 -0.6721 -0.4877  0.9003
  134GLN      O  206   1.388   3.650   1.185 -0.7301 -0.0263  0.0895
  135ASP      N  207   1.428   3.750   1.381  0.5063 -0.0455 -0.5773
  135ASP      H  208   1.451   3.743   1.479  2.4024 -1.4294 -1.0756
  135ASP     CA  209   1.393   3.888   1.332 -0.0238  0.0390 -0.0077
  135ASP     HA  210   1.327   3.886   1.246  0.3481  0.7768 -0.3186
  135ASP     CB  211   1.312   3.955   1.448 -0.6534 -0.5816 -0.1199
  135ASP    HB1  212   1.211   3.914   1.439 -1.3139  1.0188 -0.2153
  135ASP    HB2  213   1.293   4.061   1.432  0.8235  0.2502  2.8557
  135ASP     CG  214   1.351   3.934   1.597  0.5824 -0.5046 -0.2191
  135ASP    OD1  215   1.452   3.870   1.630  0.5480 -0.2624 -0.5555
  135ASP    OD2  216   1.275   3.973   1.686 -0.8040 -0.5207  0.4567
  135ASP      C  217   1.514   3.973   1.294 -0.1921  0.0643 -0.9917
  135ASP      O  218   1.539   4.083   1.340  0.1364  0.0877 -0.6733
  136TYR      N  219   1.586   3.929   1.195  0.5010 -0.1348 -0.7092
  136TYR      H  220   1.554   3.840   1.160  2.2623 -0.8050 -0.7238
  136TYR     CA  221   1.682   4.013   1.111  0.2782 -1.0737 -0.2640
  136TYR     HA  222   1.768   4.037   1.173  0.2302  1.4184 -1.0716
  136TYR     CB  223   1.729   3.937   0.992  0.1171  0.1039 -0.5917
  136TYR    HB1  224   1.808   3.996   0.946  1.8873 -1.7542 -0.0825
  136TYR    HB2  225   1.644   3.930   0.925 -2.0450  1.1515  1.8547
  136TYR     CG  226   1.792   3.804   1.036  0.0910  0.1041 -0.3820
  136TYR    CD1  227   1.915   3.804   1.108  1.0286  0.3588 -0.1748
  136TYR    HD1  228   1.970   3.895   1.126  0.4789  0.9413 -1.3043
  136TYR    CE1  229   1.975   3.681   1.142  0.6829  0.3540  0.1199
  136TYR    HE1  230   2.077   3.677   1.177  0.6570 -1.2428  0.1276
  136TYR     CZ  231   1.906   3.559   1.122  0.7647 -0.0123 -0.5447
  136TYR     OH  232   1.951   3.446   1.175  0.5641  0.2067 -0.1912
  136TYR     HH  233   2.031   3.460   1.227 -0.7010 -1.6188  2.5260
  136TYR    CE2  234   1.781   3.564   1.054 -0.1811  0.4583 -0.0702
  136TYR    HE2  235   1.728   3.472   1.034  0.5855  0.4269 -2.1343
  136TYR    CD2  236   1.729   3.685   1.005 -0.7133  0.5983 -0.3455
  136TYR    HD2  237   1.631   3.682   0.960 -0.8018 -1.5267 -0.0664
  136TYR      C  238   1.613   4.143   1.063 -0.1379  0.3505  0.1487
  136TYR      O  239   1.492   4.138   1.024 -0.4647 -0.5339 -0.0775
  137GLU      N  240   1.694   4.255   1.049  0.2855 -0.2244 -0.1938
  137GLU      H  241   1.790   4.250   1.080  0.5415  3.9411  0.2903
  137GLU     CA  242   1.648   4.396   1.019  0.6444  0.9629 -0.6056
  137GLU     HA  243   1.562   4.376   0.954  0.7784  2.9856 -1.4821
  137GLU     CB  244   1.595   4.468   1.149 -0.0430 -0.1818  0.0565
  137GLU    HB1  245   1.529   4.399   1.203 -0.9782  0.7001  0.0869
  137GLU    HB2  246   1.528   4.547   1.116 -1.3158 -0.7781  1.1007
  137GLU     CG  247   1.708   4.512   1.241 -0.3955 -0.4171  0.0397
  137GLU    HG1  248   1.751   4.596   1.186 -0.0964 -1.2233 -0.9968
  137GLU    HG2  249   1.792   4.443   1.255  0.8214  1.2895  1.7203
  137GLU     CD  250   1.675   4.568   1.382 -0.0369 -0.4660  0.2665
  137GLU    OE1  251   1.764   4.630   1.441  0.0791  0.4367 -0.2125
  137GLU    OE2  252   1.566   4.548   1.445  0.0836 -0.0749  0.3543
  137GLU      C  253   1.752   4.478   0.933  0.4049 -0.2976 -0.0508
  137GLU      O  254   1.872   4.456   0.949  0.4578 -0.2787  0.0441
  138PRO      N  255   1.699   4.566   0.853 -0.5936  0.1372  0.8274
  138PRO     CD  256   1.559   4.598   0.829  0.3399  0.0747 -0.4984
  138PRO    HD1  257   1.502   4.599   0.921  0.4847  1.4343 -0.4048
  138PRO    HD2  258   1.516   4.524   0.762 -1.0929 -0.7158  1.2266
  138PRO     CG  259   1.563   4.728   0.751  0.4433 -0.3810 -0.5845
  138PRO    HG1  260   1.570   4.801   0.832 -0.1013 -0.4132 -0.5057
  138PRO    HG2  261   1.466   4.734   0.702 -2.4338 -1.9176  4.1718
  138PRO     CB  262   1.697   4.711   0.665  0.0120  0.1800 -0.0007
  138PRO    HB1  263   1.684   4.635   0.587  1.9937 -1.0892  0.8247
  138PRO    HB2  264   1.730   4.805   0.621 -2.6189  1.3025  0.2240
  138PRO     CA  265   1.792   4.649   0.765 -0.0711  0.2882 -0.7801
  138PRO     HA  266   1.864   4.585   0.713  2.4192  2.3635 -0.1014
  138PRO      C  267   1.868   4.760   0.837 -1.2181 -0.2051  0.1881
  138PRO      O  268   1.824   4.817   0.935 -0.3967 -0.0408 -0.1686
  139GLU      N  269   1.983   4.798   0.778  0.3859 -0.2335  0.0334
  139GLU      H  270   2.022   4.742   0.703 -1.2490  0.5570 -1.4700
  139GLU     CA  271   2.054   4.927   0.807  0.2969  0.1453 -0.5831
  139GLU     HA  272   2.063   4.953   0.912 -0.1433  1.8545 -0.9335
  139GLU     CB  273   2.196   4.915   0.767 -0.7631 -0.0763  0.3676
  139GLU    HB1  274   2.233   5.016   0.782 -1.1728  0.1337 -0.0109
  139GLU    HB2  275   2.201   4.890   0.661  2.6734 -0.3962  0.4870
  139GLU     CG  276   2.270   4.814   0.849 -0.1777 -0.1368  0.2004
  139GLU    HG1  277   2.205   4.733   0.883  0.1522 -0.0954  0.9535
  139GLU    HG2  278   2.284   4.861   0.947 -3.7242  0.9340  0.3274
  139GLU     CD  279   2.383   4.737   0.780  0.2408 -0.3136 -0.1779
  139GLU    OE1  280   2.441   4.644   0.842  0.8761  0.4943  0.1646
  139GLU    OE2  281   2.405   4.751   0.662 -0.0730 -0.5445  0.6437
  139GLU      C  282   1.976   5.043   0.744  0.2379 -0.7089 -0.6448
  139GLU      O  283   1.907   5.032   0.644 -0.3049 -0.5144 -0.4681
  140CALA     N  284   1.995   5.165   0.800  0.2317  0.1646 -0.3768
  140CALA     H  285   2.063   5.178   0.874  0.9170 -0.9694 -0.7668
  140CALA    CA  286   1.926   5.294   0.766 -0.4765  0.0962  0.1081
  140CALA    HA  287   1.894   5.282   0.663 -1.2927 -2.7184  0.5821
  140CALA    CB  288   1.803   5.320   0.853 -0.0463  0.3067 -0.1039
  140CALA   HB1  289   1.785   5.428   0.859  0.6131  0.3410  1.8935
  140CALA   HB2  290   1.827   5.288   0.954  0.3311 -1.1154 -0.6312
  140CALA   HB3  291   1.707   5.293   0.808 -0.6032  0.5659  0.8985
  140CALA     C  292   2.023   5.412   0.774 -0.5837  0.0702  0.5927
  140CALA   OC1  293   2.100   5.420   0.872  0.5154 -0.0827 -0.1607
  140CALA   OC2  294   2.027   5.494   0.679 -0.3136 -0.1597 -0.1792
  141L47      C  295   2.092   3.414   0.785 -0.2470 -0.2843  0.2943
  141L47      H  296   2.037   3.322   0.761 -0.1774 -0.6332  1.4281
  141L47     H1  297   2.107   3.415   0.893  2.9847  1.2026 -0.0313
  141L47     H2  298   2.190   3.419   0.734 -0.2378 -0.1279  0.3264
  141L47     C1  299   2.000   3.530   0.743 -0.3102  0.3071 -0.3689
  141L47      O  300   1.886   3.504   0.698  0.3338 -0.1265  0.7452
  141L47      N  301   2.046   3.663   0.753  0.4728 -0.4004 -0.5243
  141L47     C2  302   2.165   3.690   0.825 -0.4697 -0.3863  0.1004
  141L47     H3  303   2.252   3.640   0.779  0.3222  2.7057 -2.0949
  141L47     H4  304   2.147   3.654   0.927  0.4747 -0.8908  0.1001
  141L47     C3  305   2.176   3.851   0.823 -0.1927  0.0748 -0.0926
  141L47     H5  306   2.265   3.880   0.766 -0.8686  0.7038 -0.8544
  141L47     H6  307   2.187   3.880   0.928 -0.9757 -1.3586  0.4186
  141L47     C4  308   2.047   3.891   0.758 -0.4118  0.4220 -0.0928
  141L47     C5  309   1.975   3.777   0.725 -0.7351  0.1443  0.2135
  141L47     C6  310   1.851   3.799   0.664  0.7244  0.0475  0.1120
  141L47     H7  311   1.788   3.715   0.635 -1.4859  1.3531  0.9251
  141L47     C7  312   1.799   3.932   0.645 -0.4402  0.1899  1.2871
  141L47     H8  313   1.713   3.952   0.583  1.9288  0.6002 -2.1885
  141L47     C8  314   1.878   4.037   0.683 -0.3043 -0.7417 -0.2010
  141L47     C9  315   2.004   4.022   0.737 -0.5802  0.0363 -0.5113
  141L47     H9  316   2.076   4.098   0.763 -0.3846 -1.2802  3.3617
  141L47      S  317   1.817   4.202   0.647 -0.1242  0.0609 -0.0584
  141L47     O1  318   1.914   4.314   0.675  0.0185  0.0193  0.3806
  141L47     O2  319   1.693   4.208   0.715  0.5801 -0.1972 -0.3833
  141L47     N1  320   1.775   4.197   0.484  0.3261 -0.0470  0.1297
  141L47    C10  321   1.881   4.158   0.383 -0.9315  0.1781 -0.0877
  141L47    H10  322   1.972   4.126   0.437 -0.9962  1.8862  1.1112
  141L47    H11  323   1.899   4.244   0.318  0.0605  0.1716  0.1593
  141L47    C11  324   1.834   4.042   0.301  0.0638  0.0808  0.1073
  141L47    H12  325   1.802   3.961   0.368 -1.5039  0.1379 -0.5264
  141L47    H13  326   1.921   4.005   0.245  0.6306 -1.3870  1.8632
  141L47    C12  327   1.719   4.062   0.203  0.5604  0.2480 -0.4287
  141L47    H14  328   1.697   3.977   0.140 -0.6565  1.5939 -1.9074
  141L47    H15  329   1.750   4.123   0.117 -1.9042  2.0129 -0.1655
  141L47     N2  330   1.596   4.117   0.265  0.7364 -0.2293 -0.5053
  141L47    H16  331   1.508   4.113   0.213  0.4642  0.5443 -0.1256
  141L47    H17  332   1.579   4.068   0.354  1.9532  2.0161  1.0798
  141L47    C13  333   1.617   4.264   0.306 -0.2223 -0.2167  0.4110
  141L47    H18  334   1.526   4.322   0.294  0.5847  1.2782  1.2274
  141L47    H19  335   1.680   4.303   0.226 -1.7767  0.7760 -0.3684
  141L47    C14  336   1.670   4.292   0.444  0.3074 -0.6130  0.2938
  141L47    H20  337   1.709   4.394   0.446  1.5293 -1.0800  0.7189
  141L47    H21  338   1.586   4.303   0.515  0.5764 -1.1571  0.6986
  142SOL     OW  339   3.583   0.342   5.974 -0.2543 -0.0452 -0.0382
  142SOL    HW2  340   3.626   0.265   6.013  0.9914  0.0239 -1.2125
  142SOL    HW3  341   3.644   0.414   5.990 -1.3209  0.6995  0.8688
  142SOL    MW4  342   3.597   0.341   5.982 -0.2307  0.0622 -0.0734
  143SOL     OW  343   4.917   3.422   3.201 -0.7943 -0.1578 -0.2147
  143SOL    HW2  344   4.890   3.337   3.236 -2.5770  0.6375  0.4521
  143SOL    HW3  345   4.896   3.418   3.108 -3.7203  0.5386  0.3297
  143SOL    MW4  346   4.911   3.410   3.194 -1.4155  0.0390 -0.0549
  144SOL     OW  347   1.948   0.267   3.684 -0.1522 -0.4526  0.1471
  144SOL    HW2  348   1.893   0.243   3.758 -0.3951  0.9570  0.4482
  144SOL    HW3  349   2.036   0.278   3.721 -0.6657  2.4875  0.7634
  144SOL    MW4  350   1.953   0.265   3.699 -0.2520  0.1213  0.2682
  145SOL     OW  351   4.581   2.229   0.235 -0.1228  0.4703  0.3569
  145SOL    HW2  352   4.592   2.181   0.153 -0.4323 -0.4426  0.8426
  145SOL    HW3  353   4.532   2.308   0.210 -2.1673 -0.8475 -0.0130
  145SOL    MW4  354   4.576   2.233   0.220 -0.4334  0.1760  0.3722
  146SOL     OW  355   0.573   5.395   4.784  0.0497 -0.4759 -0.2251
  146SOL    HW2  356   0.549   5.469   4.839  1.9179  0.7110 -0.9132
  146SOL    HW3  357   0.525   5.321   4.821  1.7640  0.0696  3.4606
  146SOL    MW4  358   0.563   5.395   4.796  0.5224 -0.2473  0.1704
  147SOL     OW  359   0.284   2.211   2.820  0.4354 -0.2027 -0.1033
  147SOL    HW2  360   0.217   2.153   2.856  1.4890 -1.9621 -0.8030
  147SOL    HW3  361   0.235   2.276   2.770 -0.9277  0.9720  2.5702
  147SOL    MW4  362   0.269   2.212   2.818  0.3946 -0.2798  0.1571
  148SOL     OW  363   1.560   3.874   2.785 -0.2896  0.4063 -0.3402
  148SOL    HW2  364   1.646   3.908   2.814  0.7984 -1.5489 -1.1127
  148SOL    HW3  365   1.524   3.833   2.864 -0.7888  1.6844  0.1236
  148SOL    MW4  366   1.567   3.873   2.799 -0.2119  0.3170 -0.3809
  149SOL     OW  367   1.648   5.103   0.608 -0.5539  0.5083  0.2148
  149SOL    HW2  368   1.640   5.170   0.540  0.6895 -1.7269 -2.3161
  149SOL    HW3  369   1.741   5.083   0.612 -0.9903 -1.8388  0.0327
  149SOL    MW4  370   1.659   5.110   0.600 -0.4474 -0.0963 -0.1432
  150SOL     OW  371   0.860   2.887   4.934  0.4716  0.1016 -0.5313
  150SOL    HW2  372   0.768   2.909   4.948  0.4233  0.4726 -1.3952
  150SOL    HW3  373   0.870   2.800   4.971 -0.3047 -0.0637 -0.7036
  150SOL    MW4  374   0.850   2.879   4.941  0.3628  0.1287 -0.6680
  151SOL     OW  375   3.402   4.955   0.418 -0.1801  0.3691  0.3860
  151SOL    HW2  376   3.324   4.953   0.363 -0.8857 -0.4277  1.3999
  151SOL    HW3  377   3.474   4.933   0.358 -0.8134  0.3782 -0.3952
  151SOL    MW4  378   3.401   4.952   0.403 -0.3567  0.2651  0.4167
  152SOL     OW  379   2.256   2.687   5.322 -0.0742  0.5995 -0.3117
  152SOL    HW2  380   2.161   2.676   5.319 -0.0304  0.4435 -1.4181
  152SOL    HW3  381   2.276   2.748   5.252  0.7836 -0.4593 -1.0247
  152SOL    MW4  382   2.246   2.693   5.313  0.0448  0.4392 -0.5518
  153SOL     OW  383   1.700   0.138   6.013 -0.1954 -0.1405  0.6701
  153SOL    HW2  384   1.619   0.097   6.044  0.7158 -0.0698  3.4253
  153SOL    HW3  385   1.683   0.232   6.022 -0.1248 -0.0950  0.3390
  153SOL    MW4  386   1.687   0.145   6.019 -0.0659 -0.1252  0.9899
  154SOL     OW  387   4.856   0.595   1.015  0.2693 -0.0783  0.4832
  154SOL    HW2  388   4.887   0.540   0.942  0.0111 -1.0746  1.1044
  154SOL    HW3  389   4.769   0.624   0.987  0.2697 -0.2557  0.2886
  154SOL    MW4  390   4.848   0.591   1.001  0.2353 -0.2332  0.5395
  155SOL     OW  391   3.074   3.545   6.177  0.1888  0.0096  0.4418
  155SOL    HW2  392   3.038   3.467   6.136 -0.4552  1.0719 -1.1015
  155SOL    HW3  393   3.073   3.526   6.271  1.0907 -2.2379  0.0377
  155SOL    MW4  394   3.069   3.532   6.184  0.2228 -0.1468  0.1849
  156SOL     OW  395   0.518   4.166   5.915 -0.3555  0.4510  0.9456
  156SOL    HW2  396   0.529   4.099   5.982 -0.0920 -0.6984 -0.1993
  156SOL    HW3  397   0.535   4.120   5.832 -2.4808  1.3453 -0.0659
  156SOL    MW4  398   0.521   4.151   5.913 -0.6011  0.4173  0.6611
  157SOL     OW  399   3.166   1.559   4.869  0.2102  0.2664  0.4477
  157SOL    HW2  400   3.236   1.590   4.926  0.4178  0.4776  0.0791
  157SOL    HW3  401   3.173   1.613   4.790 -0.5422  0.4788  0.5176
  157SOL    MW4  402   3.176   1.570   4.866  0.1384  0.3223  0.4083
  158SOL     OW  403   4.978   1.464   0.928  0.4745 -0.4775 -0.3343
  158SOL    HW2  404   4.890   1.481   0.894  0.0978 -0.0486  0.7923
  158SOL    HW3  405   5.036   1.478   0.853 -0.1475  2.2158 -0.4196
  158SOL    MW4  406   4.974   1.468   0.914  0.3428 -0.0655 -0.1969
  159SOL     OW  407   3.676   3.222   2.662 -0.0649 -0.1856 -0.4000
  159SOL    HW2  408   3.613   3.291   2.640 -0.8050 -0.3371  1.1003
  159SOL    HW3  409   3.679   3.167   2.584  0.2319  1.2827 -1.4875
  159SOL    MW4  410   3.668   3.224   2.649 -0.1234 -0.0118 -0.3455
  160SOL     OW  411   5.068   5.672   4.647 -0.0421 -0.5454  0.2068
  160SOL    HW2  412   5.015   5.729   4.591 -0.1772 -0.9855 -0.1257
  160SOL    HW3  413   5.065   5.712   4.734  0.0754  0.0846 -0.0784
  160SOL    MW4  414   5.061   5.685   4.651 -0.0444 -0.5203  0.1253
  161SOL     OW  415   2.963   0.296   3.818  0.1618 -0.5373 -0.3897
  161SOL    HW2  416   2.885   0.278   3.871  1.1288  1.6525  1.9895
  161SOL    HW3  417   3.031   0.242   3.858  0.4730 -0.4081 -0.7428
  161SOL    MW4  418   2.961   0.286   3.830  0.3304 -0.2314 -0.1224
  162SOL     OW  419   2.359   0.395   2.632  0.9677 -0.3467 -0.1061
  162SOL    HW2  420   2.432   0.376   2.575  0.6607 -0.6810 -0.3944
  162SOL    HW3  421   2.324   0.478   2.600  0.7419 -0.5774 -0.4618
  162SOL    MW4  422   2.364   0.403   2.621  0.8974 -0.4213 -0.1911
  163SOL     OW  423   2.783   4.417   5.455  0.9735  0.2498 -0.9539
  163SOL    HW2  424   2.726   4.491   5.475  1.0481 -0.1218  0.7581
  163SOL    HW3  425   2.871   4.448   5.477  1.0858 -0.1372 -0.8591
  163SOL    MW4  426   2.787   4.431   5.461  0.9982  0.1497 -0.7155
  164SOL     OW  427   4.993   1.503   5.753 -0.2493  0.1368 -0.6264
  164SOL    HW2  428   5.055   1.468   5.688  0.3346  0.2146 -0.1253
  164SOL    HW3  429   4.928   1.434   5.764  1.0897 -0.9947  0.6137
  164SOL    MW4  430   4.993   1.489   5.746  0.0044 -0.0022 -0.3967
  165SOL     OW  431   4.830   2.118   3.245  0.2147 -0.1601  0.3639
  165SOL    HW2  432   4.738   2.131   3.225  0.5423  0.5214 -0.8293
  165SOL    HW3  433   4.846   2.025   3.227  0.0017 -0.0367 -0.5248
  165SOL    MW4  434   4.820   2.107   3.240  0.2298 -0.0539  0.0892
  166SOL     OW  435   4.732   0.550   2.650 -0.5740  0.2281  0.0074
  166SOL    HW2  436   4.787   0.596   2.587 -0.4494  0.2427  0.1253
  166SOL    HW3  437   4.792   0.522   2.719 -1.1049  2.6702  1.5554
  166SOL    MW4  438   4.747   0.552   2.651 -0.6276  0.5523  0.2272
  167SOL     OW  439   0.372   2.744   5.483  0.2747 -0.1470  0.1691
  167SOL    HW2  440   0.443   2.740   5.419 -2.5160 -0.9539 -3.2543
  167SOL    HW3  441   0.372   2.657   5.524  1.5772  0.0672  0.6522
  167SOL    MW4  442   0.381   2.732   5.480  0.0783 -0.2252 -0.2189
  168SOL     OW  443   2.952   2.509   4.076 -0.5158 -0.3476  0.3739
  168SOL    HW2  444   2.954   2.454   3.998 -1.2375  0.4550 -0.2321
  168SOL    HW3  445   3.003   2.587   4.052 -0.5856 -0.1786  0.7658
  168SOL    MW4  446   2.959   2.512   4.063 -0.6203 -0.2194  0.3456
  169SOL     OW  447   4.704   0.749   4.075 -0.0962  0.2872 -0.2855
  169SOL    HW2  448   4.739   0.703   4.151 -1.6074 -1.4350 -0.5590
  169SOL    HW3  449   4.610   0.751   4.090 -0.1407  2.9508 -0.5448
  169SOL    MW4  450   4.696   0.743   4.087 -0.3014  0.4114 -0.3558
  170SOL     OW  451   5.867   2.629   5.714 -0.1343  0.0974 -0.2376
  170SOL    HW2  452   5.810   2.686   5.765 -0.9590 -0.1382 -0.8708
  170SOL    HW3  453   5.857   2.542   5.754 -0.2173  0.0556 -0.3496
  170SOL    MW4  454   5.858   2.625   5.726 -0.2541  0.0608 -0.3359
  171SOL     OW  455   3.782   2.544   4.413  0.4813 -0.0928 -0.1743
  171SOL    HW2  456   3.751   2.499   4.491  2.9703  2.8860  2.8526
  171SOL    HW3  457   3.734   2.626   4.411  1.6182  0.5870 -0.7842
  171SOL    MW4  458   3.772   2.549   4.423  0.9597  0.3899  0.1446
  172SOL     OW  459   0.251   1.894   3.620  0.0599  0.1659  0.4045
  172SOL    HW2  460   0.233   1.806   3.587  0.0377  0.3991 -0.2040
  172SOL    HW3  461   0.316   1.880   3.689  1.2222 -0.1822 -0.7351
  172SOL    MW4  462   0.257   1.880   3.625  0.2104  0.1507  0.1738
  173SOL     OW  463   0.625   4.196   0.682 -0.0959 -0.0322  0.6451
  173SOL    HW2  464   0.663   4.132   0.621 -1.3158  0.0678 -0.2430
  173SOL    HW3  465   0.699   4.249   0.710  0.3886  0.4050 -1.3427
  173SOL    MW4  466   0.640   4.194   0.677 -0.1929  0.0386  0.2656
  174SOL     OW  467   0.512   3.801   4.811 -0.1978 -0.3305 -0.4204
  174SOL    HW2  468   0.590   3.766   4.768  0.3696  1.8598 -1.2678
  174SOL    HW3  469   0.544   3.868   4.871 -1.4497  1.9277 -2.1064
  174SOL    MW4  470   0.526   3.805   4.814 -0.2881  0.2564 -0.7547
  175SOL     OW  471   3.873   5.431   0.449 -0.0877  0.0333 -0.4938
  175SOL    HW2  472   3.827   5.347   0.453  1.0800 -0.7453 -2.2129
  175SOL    HW3  473   3.889   5.454   0.541 -0.1222 -1.7907  0.0099
  175SOL    MW4  474   3.869   5.423   0.462  0.0618 -0.3101 -0.6542
  176SOL     OW  475   3.770   2.692   1.719  0.3333 -0.7637  0.4784
  176SOL    HW2  476   3.807   2.665   1.634 -1.7297  0.5786 -0.9417
  176SOL    HW3  477   3.760   2.787   1.711 -1.8704 -0.8683  1.3700
  176SOL    MW4  478   3.774   2.701   1.706 -0.2297 -0.6004  0.4086
  177SOL     OW  479   0.569   3.981   5.699 -0.3245  0.0379 -0.4778
  177SOL    HW2  480   0.657   3.989   5.661 -0.4454  0.5399 -0.6671
  177SOL    HW3  481   0.541   3.893   5.677  0.5460 -0.5139  0.4839
  177SOL    MW4  482   0.577   3.971   5.691 -0.2256  0.0313 -0.3759
  178SOL     OW  483   2.017   1.066   3.951  0.7132 -0.5071 -0.1785
  178SOL    HW2  484   2.020   1.056   3.856 -0.3144  0.5259 -0.3516
  178SOL    HW3  485   2.052   0.984   3.985  2.8362 -0.1991 -1.4390
  178SOL    MW4  486   2.022   1.054   3.943  0.8577 -0.3302 -0.3676
  179SOL     OW  487   4.603   4.977   1.823 -0.3753 -0.1695  0.0561
  179SOL    HW2  488   4.588   4.983   1.729  0.0769  1.5970  0.0780
  179SOL    HW3  489   4.535   4.916   1.854  0.9243 -2.7000 -1.6965
  179SOL    MW4  490   4.592   4.970   1.815 -0.1442 -0.2703 -0.1723
  180SOL     OW  491   4.710   0.883   4.817  0.1008  0.3219  0.4045
  180SOL    HW2  492   4.741   0.805   4.862 -1.6314 -1.1194 -0.7614
  180SOL    HW3  493   4.707   0.951   4.885  3.9527  0.1479  0.9272
  180SOL    MW4  494   4.713   0.882   4.832  0.3804  0.1088  0.3196
  181SOL     OW  495   4.905   4.605   4.861  0.0119 -0.3944 -0.0480
  181SOL    HW2  496   4.993   4.570   4.878  0.4383  0.5434 -0.2922
  181SOL    HW3  497   4.847   4.530   4.874  0.6040 -0.5285  2.4225
  181SOL    MW4  498   4.909   4.590   4.865  0.1463 -0.2884  0.2457
  182SOL     OW  499   5.540   1.440   4.918  0.2697 -0.0107  0.2244
  182SOL    HW2  500   5.520   1.470   5.007 -1.1732  2.1598 -0.7532
  182SOL    HW3  501   5.458   1.450   4.870  0.9880 -1.2444 -1.3677
  182SOL    MW4  502   5.527   1.445   4.923  0.1741  0.1129 -0.1146
  183SOL     OW  503   5.599   0.519   0.805  0.2823 -0.1313 -0.2626
  183SOL    HW2  504   5.598   0.544   0.898 -0.2663 -0.8484 -0.0626
  183SOL    HW3  505   5.508   0.526   0.777  0.1226 -1.7474 -0.2230
  183SOL    MW4  506   5.587   0.523   0.814  0.1888 -0.4391 -0.2310
  184SOL     OW  507   2.751   5.206   1.947  0.2189  0.6644  0.1268
  184SOL    HW2  508   2.811   5.132   1.954  0.7498  1.1141  0.4257
  184SOL    HW3  509   2.787   5.261   1.878  0.2621  1.0344  0.4370
  184SOL    MW4  510   2.763   5.203   1.939  0.2947  0.7725  0.2072
  185SOL     OW  511   0.374   2.696   3.450  0.3413  0.0345 -0.0870
  185SOL    HW2  512   0.385   2.679   3.356 -0.3689 -1.1662  0.0202
  185SOL    HW3  513   0.283   2.725   3.458  0.3980  0.1222  0.2330
  185SOL    MW4  514   0.363   2.698   3.438  0.2551 -0.1123 -0.0307
  186SOL     OW  515   3.123   3.484   5.585 -0.0729  0.4478  0.1118
  186SOL    HW2  516   3.181   3.434   5.528  1.5854  0.6396  1.5325
  186SOL    HW3  517   3.155   3.574   5.579  0.7479  0.3295  1.9869
  186SOL    MW4  518   3.135   3.489   5.577  0.2542  0.4575  0.5467
  187SOL     OW  519   3.841   4.630   4.738 -0.4307  0.1282 -0.1298
  187SOL    HW2  520   3.904   4.695   4.771  2.6045 -1.5276 -2.1875
  187SOL    HW3  521   3.867   4.548   4.781 -0.8023 -0.7080 -1.4563
  187SOL    MW4  522   3.853   4.628   4.748 -0.0793 -0.2006 -0.5763
  188SOL     OW  523   0.400   3.590   2.275 -0.1115  0.1761  0.5065
  188SOL    HW2  524   0.493   3.594   2.253 -0.3606  0.5062 -0.5331
  188SOL    HW3  525   0.373   3.501   2.250 -0.2818  0.3863 -0.0666
  188SOL    MW4  526   0.408   3.579   2.269 -0.1668  0.2474  0.2937
  189SOL     OW  527   2.635   0.552   5.333  0.3781  0.0311  0.4595
  189SOL    HW2  528   2.713   0.599   5.303 -0.1368  0.0445 -0.9072
  189SOL    HW3  529   2.593   0.612   5.394  0.6455  0.6450  0.0513
  189SOL    MW4  530   2.640   0.566   5.337  0.3455  0.1138  0.2253
  190SOL     OW  531   2.499   5.021   4.138  0.2430 -0.1240 -0.0774
  190SOL    HW2  532   2.537   4.999   4.053  1.8153  0.9115  0.3267
  190SOL    HW3  533   2.456   4.941   4.166 -0.3818 -0.4688 -1.8721
  190SOL    MW4  534   2.498   5.008   4.130  0.3680 -0.0329 -0.2609
  191SOL     OW  535   2.051   2.207   1.044  0.3927  0.0884  0.5300
  191SOL    HW2  536   1.993   2.141   1.082  1.0422 -1.0900 -0.4666
  191SOL    HW3  537   2.139   2.179   1.070  0.6838  0.4557 -0.0451
  191SOL    MW4  538   2.055   2.194   1.053  0.5168 -0.0186  0.3226
  192SOL     OW  539   3.336   3.804   3.813 -0.2294 -0.0512  0.2659
  192SOL    HW2  540   3.419   3.846   3.835  0.0599 -0.8494  0.7379
  192SOL    HW3  541   3.297   3.861   3.747 -0.6785  1.9284  2.1225
  192SOL    MW4  542   3.342   3.817   3.807 -0.2505  0.1047  0.5731
  193SOL     OW  543   5.891   3.437   0.519 -0.3174 -0.0463  0.5724
  193SOL    HW2  544   5.915   3.388   0.598  1.9125  1.2916  0.8268
  193SOL    HW3  545   5.848   3.516   0.552 -0.0905  0.1433  0.4159
  193SOL    MW4  546   5.889   3.441   0.534  0.0067  0.1552  0.5853
  194SOL     OW  547   3.756   2.556   2.540 -0.5090  0.0506  0.1365
  194SOL    HW2  548   3.840   2.553   2.495 -0.7808 -0.9514 -0.3248
  194SOL    HW3  549   3.779   2.562   2.633  0.1110 -1.3969  0.1126
  194SOL    MW4  550   3.770   2.556   2.546 -0.4631 -0.2726  0.0725
  195SOL     OW  551   5.339   2.897   1.068 -0.0316  0.5693 -0.3592
  195SOL    HW2  552   5.282   2.870   1.140 -0.7537  2.6296 -0.0830
  195SOL    HW3  553   5.286   2.887   0.989 -0.8611  2.4850 -0.1024
  195SOL    MW4  554   5.325   2.892   1.067 -0.2363  1.0939 -0.2889
  196SOL     OW  555   2.473   1.115   5.762  0.1702 -0.6982 -0.2944
  196SOL    HW2  556   2.425   1.079   5.688 -0.4034  0.3708 -0.4578
  196SOL    HW3  557   2.552   1.061   5.768 -0.1860 -1.3339 -1.1426
  196SOL    MW4  558   2.477   1.103   5.753  0.0475 -0.6410 -0.4279
  197SOL     OW  559   0.059   5.804   0.024  0.4729  0.1559  0.2216
  197SOL    HW2  560   0.107   5.878  -0.014  0.2228 -0.3871 -1.2285
  197SOL    HW3  561  -0.008   5.783  -0.041 -0.6591 -0.1761  1.4497
  197SOL    MW4  562   0.056   5.811   0.010  0.2905  0.0405  0.1923
  198SOL     OW  563   5.833   3.206   4.592 -0.2053  0.4078  0.0016
  198SOL    HW2  564   5.830   3.271   4.662  0.3370 -1.5695  1.9547
  198SOL    HW3  565   5.817   3.257   4.512  0.9058  3.0476  1.3271
  198SOL    MW4  566   5.831   3.222   4.591  0.0128  0.4952  0.4342
  199SOL     OW  567   2.954   3.504   3.479 -0.6878 -0.4134 -0.0870
  199SOL    HW2  568   3.009   3.575   3.512 -0.4518 -0.9406  0.6737
  199SOL    HW3  569   2.865   3.529   3.503 -0.5004 -0.8876  1.1641
  199SOL    MW4  570   2.949   3.517   3.486 -0.6320 -0.5455  0.1784
  200SOL     OW  571   5.714   5.705   2.446  0.8622  0.1323 -0.4407
  200SOL    HW2  572   5.782   5.654   2.402 -0.7068 -1.4501 -1.1629
  200SOL    HW3  573   5.636   5.694   2.391 -0.0593  1.6721  0.4885
  200SOL    MW4  574   5.712   5.696   2.433  0.5336  0.1267 -0.4134
  201SOL     OW  575   3.150   1.291   2.839 -0.0055  0.6537  0.7509
  201SOL    HW2  576   3.163   1.314   2.747  0.7368  0.1615  0.7285
  201SOL    HW3  577   3.115   1.202   2.837  0.0879  0.6110  0.9454
  201SOL    MW4  578   3.147   1.282   2.827  0.1048  0.5831  0.7736
  202SOL     OW  579   4.802   3.463   5.118 -0.0232 -0.0955  0.8383
  202SOL    HW2  580   4.860   3.407   5.169  1.9851 -1.6246 -2.7919
  202SOL    HW3  581   4.859   3.530   5.080 -1.1206  0.0884 -0.5695
  202SOL    MW4  582   4.817   3.464   5.120  0.0970 -0.2730  0.1736
  203SOL     OW  583   0.033   3.600   1.982 -0.1477  0.6252  0.0259
  203SOL    HW2  584   0.057   3.648   2.061 -0.4266 -1.5201  1.5048
  203SOL    HW3  585   0.089   3.522   1.984 -0.6457  0.2055 -1.5304
  203SOL    MW4  586   0.043   3.596   1.993 -0.2502  0.2868  0.0157
  204SOL     OW  587   2.885   2.918   4.508  0.6667  0.1887 -0.5530
  204SOL    HW2  588   2.868   2.946   4.418  0.4967  3.1274  0.2997
  204SOL    HW3  589   2.800   2.889   4.540  0.8606 -1.5859 -1.4826
  204SOL    MW4  590   2.871   2.918   4.500  0.6699  0.3423 -0.5631
  205SOL     OW  591   0.401   3.079   4.116 -0.4743  0.2000 -0.6088
  205SOL    HW2  592   0.418   2.987   4.098 -0.4808 -0.4215  2.0708
  205SOL    HW3  593   0.489   3.117   4.128 -0.5000 -0.1577  1.0107
  205SOL    MW4  594   0.415   3.072   4.115 -0.4785  0.0708 -0.0416
  206SOL     OW  595   4.005   5.999   6.249 -0.9842 -0.0105 -0.0355
  206SOL    HW2  596   3.976   5.915   6.284 -3.4946  0.5275 -0.6236
  206SOL    HW3  597   3.974   6.064   6.313 -0.3771  0.5776 -0.3192
  206SOL    MW4  598   3.997   5.997   6.262 -1.2353  0.1381 -0.1505
  207SOL     OW  599   2.562   3.847   3.230 -0.6805  0.2105 -0.5527
  207SOL    HW2  600   2.521   3.882   3.151  0.9292  0.8966 -1.1344
  207SOL    HW3  601   2.600   3.764   3.202 -2.2500 -0.7771  0.1647
  207SOL    MW4  602   2.561   3.841   3.216 -0.6752  0.1707 -0.5348
  208SOL     OW  603   1.241   1.080   6.207  0.3636  0.4327  0.7353
  208SOL    HW2  604   1.147   1.083   6.186  1.0068  0.0230 -2.6086
  208SOL    HW3  605   1.272   1.169   6.187  0.6751  0.6862  2.2192
  208SOL    MW4  606   1.233   1.092   6.202  0.4896  0.4121  0.4899
  209SOL     OW  607   5.172   2.089   1.754 -0.3855  0.2080 -0.0813
  209SOL    HW2  608   5.258   2.123   1.730 -0.3650 -0.8547 -1.6409
  209SOL    HW3  609   5.111   2.149   1.710 -0.3995 -0.1787 -0.5931
  209SOL    MW4  610   5.175   2.102   1.745 -0.3847  0.0168 -0.3546
  210SOL     OW  611   3.219   4.735   2.540 -0.2413 -0.5679  0.4675
  210SOL    HW2  612   3.268   4.807   2.500 -1.2002 -0.1138  0.0680
  210SOL    HW3  613   3.262   4.656   2.509 -0.1413 -0.1888 -0.3896
  210SOL    MW4  614   3.231   4.734   2.530 -0.3546 -0.4580  0.3017
  211SOL     OW  615   2.545   4.744   4.970 -0.3990  0.4184  0.2933
  211SOL    HW2  616   2.572   4.704   5.053 -0.9821 -0.1168  0.2273
  211SOL    HW3  617   2.599   4.701   4.904  0.5912  1.3576  0.4510
  211SOL    MW4  618   2.556   4.733   4.972 -0.3453  0.4717  0.3054
  212SOL     OW  619   2.922   4.998   1.990 -0.6424  0.2748  0.3888
  212SOL    HW2  620   2.856   4.930   2.001 -0.9732  0.1072 -2.0913
  212SOL    HW3  621   2.958   4.983   1.903  2.1605  0.8556  1.3511
  212SOL    MW4  622   2.918   4.987   1.980 -0.3163  0.3293  0.1885
  213SOL     OW  623   0.027   4.572   3.815  0.3764  0.5300  0.3881
  213SOL    HW2  624   0.059   4.608   3.733  0.0002  0.2151  0.1006
  213SOL    HW3  625   0.039   4.478   3.806  0.0004  0.4653  0.5473
  213SOL    MW4  626   0.033   4.565   3.803  0.2771  0.4799  0.3712
  214SOL     OW  627   3.976   3.419   5.509 -0.0448  0.0937 -0.7218
  214SOL    HW2  628   3.960   3.446   5.599 -0.5218 -0.8886 -0.5071
  214SOL    HW3  629   3.893   3.381   5.479  0.5366 -0.9131 -1.0917
  214SOL    MW4  630   3.963   3.418   5.517 -0.0310 -0.1688 -0.7423
  215SOL     OW  631   2.012   0.382   4.122  0.6820 -0.6093  0.3582
  215SOL    HW2  632   2.033   0.418   4.207 -4.4527  2.6927  0.6735
  215SOL    HW3  633   1.986   0.291   4.140 -0.2901  0.0170  2.4104
  215SOL    MW4  634   2.011   0.375   4.135 -0.1237 -0.0910  0.6706
  216SOL     OW  635   3.445   2.305   3.546  0.2876  0.9816  0.4881
  216SOL    HW2  636   3.538   2.326   3.541  0.5942  0.5319  2.8518
  216SOL    HW3  637   3.440   2.211   3.534  0.5327  0.5778  2.9502
  216SOL    MW4  638   3.456   2.296   3.544  0.3604  0.8690  1.1248
  217SOL     OW  639   2.488   5.948   3.013 -0.0591 -0.1589 -0.6894
  217SOL    HW2  640   2.572   5.902   3.018  0.3266  0.5598 -0.3745
  217SOL    HW3  641   2.480   5.992   3.098 -0.3514  0.4676 -1.0394
  217SOL    MW4  642   2.498   5.948   3.025 -0.0468  0.0186 -0.6940
  218SOL     OW  643   2.758   0.524   1.447  0.6781 -0.4521 -0.0869
  218SOL    HW2  644   2.742   0.501   1.356  0.0326  2.8854 -0.9468
  218SOL    HW3  645   2.694   0.474   1.497 -0.3657 -0.7577 -1.6816
  218SOL    MW4  646   2.747   0.514   1.442  0.4552 -0.0521 -0.4108
  219SOL     OW  647   3.042   3.250   6.143 -0.3686  0.2117 -0.1350
  219SOL    HW2  648   3.037   3.196   6.065 -0.7508  0.3185 -0.1860
  219SOL    HW3  649   2.951   3.274   6.162 -0.3176 -0.0757  0.5249
  219SOL    MW4  650   3.029   3.246   6.135 -0.4123  0.1879 -0.0547
  220SOL     OW  651   3.384   2.212   4.221 -0.2092  0.5310 -0.1857
  220SOL    HW2  652   3.386   2.171   4.308  0.3798 -0.5071 -0.6669
  220SOL    HW3  653   3.353   2.301   4.237 -1.1825  0.0187  0.9517
  220SOL    MW4  654   3.380   2.218   4.234 -0.2599  0.3264 -0.0991
  221SOL     OW  655   6.238   5.212   5.521  0.2917  0.0784  0.0926
  221SOL    HW2  656   6.199   5.125   5.516 -0.7905  0.6055 -1.1595
  221SOL    HW3  657   6.266   5.220   5.612  0.2445 -1.5001  0.2725
  221SOL    MW4  658   6.237   5.202   5.533  0.1427 -0.0603 -0.0489
  222SOL     OW  659   1.007   6.023   2.372 -0.0056  0.4872 -0.0393
  222SOL    HW2  660   0.984   5.935   2.341  1.4541  0.5106 -1.3000
  222SOL    HW3  661   1.083   6.048   2.319  1.0315  1.5903  1.8705
  222SOL    MW4  662   1.014   6.014   2.361  0.3239  0.6358  0.0463
  223SOL     OW  663   4.385   5.043   3.412  0.1475  0.3410  0.0469
  223SOL    HW2  664   4.475   5.017   3.392 -0.3840 -0.2740 -1.7748
  223SOL    HW3  665   4.353   5.084   3.331 -1.6669 -0.7879  0.1245
  223SOL    MW4  666   4.393   5.045   3.399 -0.1620  0.1109 -0.1832
  224SOL     OW  667   1.944   5.639   5.162 -0.2486  0.1385  0.1109
  224SOL    HW2  668   1.902   5.598   5.087 -0.8175 -0.5405  0.7767
  224SOL    HW3  669   1.971   5.725   5.131 -0.9474  0.0697 -0.7208
  224SOL    MW4  670   1.942   5.645   5.148 -0.4159  0.0398  0.0890
  225SOL     OW  671   2.777   1.800   4.564  0.2886 -0.3913 -0.3792
  225SOL    HW2  672   2.685   1.790   4.540  0.1934 -1.5206  0.3346
  225SOL    HW3  673   2.823   1.815   4.482 -0.4673 -0.3933 -0.8052
  225SOL    MW4  674   2.771   1.800   4.550  0.1763 -0.5405 -0.3413
  226SOL     OW  675   3.506   3.836   0.993  0.3543 -0.1319 -0.4557
  226SOL    HW2  676   3.454   3.788   1.057  1.4959  1.2587  1.6553
  226SOL    HW3  677   3.447   3.851   0.920 -0.9267 -2.0597  0.1082
  226SOL    MW4  678   3.492   3.831   0.992  0.3359 -0.2028 -0.1028
  227SOL     OW  679   4.102   3.688   2.014 -0.1268  0.7536 -0.0751
  227SOL    HW2  680   4.086   3.613   1.956  0.8587 -0.8538  1.5899
  227SOL    HW3  681   4.103   3.764   1.956  0.5711 -0.7230 -2.1201
  227SOL    MW4  682   4.100   3.688   1.999  0.0953  0.3467 -0.1253
  228SOL     OW  683   3.391   5.290   4.910 -0.0062  0.9344 -0.2263
  228SOL    HW2  684   3.402   5.210   4.960  1.2665  0.3145 -1.4393
  228SOL    HW3  685   3.301   5.287   4.878  0.2289 -0.3637 -0.8206
  228SOL    MW4  686   3.381   5.279   4.912  0.1928  0.6813 -0.4647
  229SOL     OW  687   4.348   0.767   0.260  0.1695 -0.0068  0.0494
  229SOL    HW2  688   4.394   0.769   0.343  0.5972 -1.3063 -0.1434
  229SOL    HW3  689   4.381   0.689   0.215 -1.0268 -0.0744 -0.7745
  229SOL    MW4  690   4.359   0.757   0.265  0.0681 -0.1872 -0.0848
  230SOL     OW  691   4.765   0.133   1.669  0.1408  0.5156 -0.3836
  230SOL    HW2  692   4.704   0.092   1.608  0.1081 -0.8714  0.5434
  230SOL    HW3  693   4.840   0.158   1.615  0.5411 -1.5571 -0.8765
  230SOL    MW4  694   4.767   0.131   1.654  0.1893  0.0591 -0.3263
  231SOL     OW  695   4.631   5.655   0.280  0.1986 -0.5371 -0.0992
  231SOL    HW2  696   4.692   5.726   0.259  0.6525 -0.3517  1.6753
  231SOL    HW3  697   4.551   5.700   0.307  0.5028 -0.6591  1.0720
  231SOL    MW4  698   4.629   5.671   0.281  0.2986 -0.5287  0.2894
  232SOL     OW  699   2.330   6.295   1.266 -0.1609  0.1190 -0.1103
  232SOL    HW2  700   2.345   6.201   1.270  1.2185  0.3436  0.4026
  232SOL    HW3  701   2.396   6.328   1.204 -1.5915  0.5795 -1.4512
  232SOL    MW4  702   2.341   6.287   1.259 -0.1677  0.2094 -0.2195
  233SOL     OW  703   3.090   1.373   1.494  0.4095 -0.0933  0.5461
  233SOL    HW2  704   3.185   1.360   1.491  0.6418  1.5430 -0.7142
  233SOL    HW3  705   3.053   1.285   1.500  1.9980 -0.7642  0.7604
  233SOL    MW4  706   3.097   1.360   1.494  0.6498  0.0341  0.4081
  234SOL     OW  707   2.690   1.737   2.348 -0.0107  0.1631  0.0331
  234SOL    HW2  708   2.732   1.751   2.433  1.7808 -0.4144 -0.7286
  234SOL    HW3  709   2.624   1.806   2.343  2.8233  3.0849  0.0177
  234SOL    MW4  710   2.687   1.748   2.359  0.5995  0.4724 -0.0694
  235SOL     OW  711   2.553   3.023   2.823  0.1694  0.0356 -0.1193
  235SOL    HW2  712   2.559   3.115   2.848  0.6843 -0.0944  0.2440
  235SOL    HW3  713   2.544   3.024   2.727 -1.6030  0.5290  0.0205
  235SOL    MW4  714   2.552   3.035   2.813  0.0035  0.0836 -0.0529
  236SOL     OW  715   5.069   3.227   2.669 -0.2169  0.1084 -0.4216
  236SOL    HW2  716   5.142   3.184   2.625  0.2322 -0.0522  0.4639
  236SOL    HW3  717   4.996   3.166   2.659 -0.2059  0.2218 -1.2203
  236SOL    MW4  718   5.069   3.213   2.662 -0.1562  0.1022 -0.4102
  237SOL     OW  719   5.485   5.760   1.772 -0.4127 -0.0648  0.3227
  237SOL    HW2  720   5.509   5.846   1.807 -1.2362 -0.0807  0.9812
  237SOL    HW3  721   5.409   5.734   1.824  0.0141 -1.3371  0.3478
  237SOL    MW4  722   5.478   5.768   1.784 -0.4650 -0.2348  0.4129
  238SOL     OW  723   2.990   3.266   0.427  0.3733 -0.0966 -0.3424
  238SOL    HW2  724   2.949   3.342   0.468 -2.1434 -0.3736 -2.1028
  238SOL    HW3  725   2.984   3.283   0.333 -2.0707 -3.2111 -0.9280
  238SOL    MW4  726   2.984   3.278   0.420 -0.2812 -0.5440 -0.6519
  239SOL     OW  727   2.568   2.167   5.813  0.2565 -0.1798  0.0940
  239SOL    HW2  728   2.635   2.154   5.746  0.3039 -0.1404  0.1336
  239SOL    HW3  729   2.519   2.084   5.815  0.9953 -0.6066  0.8367
  239SOL    MW4  730   2.570   2.154   5.804  0.3602 -0.2309  0.1972
  240SOL     OW  731   4.788   3.945   5.804  0.1426  0.1421  0.6254
  240SOL    HW2  732   4.710   3.994   5.777  0.0346 -1.2487 -1.9235
  240SOL    HW3  733   4.827   3.915   5.722  1.8667 -1.4936  1.9473
  240SOL    MW4  734   4.783   3.948   5.789  0.3559 -0.2572  0.4635
  241SOL     OW  735   4.781   1.751   6.385  0.7672  0.1566  0.3022
  241SOL    HW2  736   4.755   1.813   6.317 -1.7815  1.1959  2.0493
  241SOL    HW3  737   4.742   1.668   6.358  0.2107  0.4350  0.2425
  241SOL    MW4  738   4.772   1.748   6.372  0.3575  0.3304  0.5248
  242SOL     OW  739   6.067   2.413   6.010 -0.0270 -0.6818 -0.0117
  242SOL    HW2  740   6.084   2.331   6.057  0.3460 -1.4359 -1.3942
  242SOL    HW3  741   6.050   2.477   6.079  0.7725 -1.6707  1.1568
  242SOL    MW4  742   6.067   2.411   6.025  0.1277 -0.9118 -0.0399
  243SOL     OW  743   3.688   5.008   0.947 -0.0401 -0.1794  0.1096
  243SOL    HW2  744   3.701   4.998   1.041 -0.4378 -0.1929  0.1671
  243SOL    HW3  745   3.594   4.994   0.935 -0.2850  1.4178 -0.0672
  243SOL    MW4  746   3.677   5.005   0.958 -0.1249  0.0296  0.0939
  244SOL     OW  747   0.858   4.455   3.458 -0.2470 -0.2623  0.1557
  244SOL    HW2  748   0.770   4.466   3.420 -0.9579 -0.2475  1.7240
  244SOL    HW3  749   0.876   4.539   3.501  0.2422 -0.5059  0.4327
  244SOL    MW4  750   0.848   4.468   3.459 -0.2762 -0.2925  0.3992
  245SOL     OW  751   0.713   1.560   0.397  0.0793  0.2781 -0.1491
  245SOL    HW2  752   0.669   1.599   0.322 -0.0582 -0.2370 -0.3385
  245SOL    HW3  753   0.681   1.470   0.400 -0.1939  0.3967  0.7486
  245SOL    MW4  754   0.703   1.554   0.388  0.0251  0.2258 -0.0556
  246SOL     OW  755   0.863   5.746   0.572  0.1870  0.4053 -0.0635
  246SOL    HW2  756   0.797   5.785   0.629 -2.8397 -1.7114 -1.8290
  246SOL    HW3  757   0.920   5.697   0.631 -0.4452  1.3998  1.4367
  246SOL    MW4  758   0.862   5.744   0.588 -0.2958  0.2573 -0.0985
  247SOL     OW  759   4.640   5.139   0.889  0.6834 -0.3347 -0.1396
  247SOL    HW2  760   4.710   5.090   0.932  1.4887 -0.0625 -1.1157
  247SOL    HW3  761   4.685   5.205   0.837 -0.3455  0.7046  0.2385
  247SOL    MW4  762   4.655   5.141   0.888  0.6539 -0.1616 -0.2185
  248SOL     OW  763   5.220   4.341   3.277 -1.0497  0.1421 -0.0309
  248SOL    HW2  764   5.152   4.278   3.302  1.3425 -1.9750  1.7197
  248SOL    HW3  765   5.285   4.289   3.230  1.1560  1.1675  1.6908
  248SOL    MW4  766   5.220   4.326   3.274 -0.4430 -0.0020  0.4272
  249SOL     OW  767   1.536   2.898   1.935  0.3369  0.0576  0.2407
  249SOL    HW2  768   1.476   2.860   1.999 -1.2658 -1.0299 -1.7789
  249SOL    HW3  769   1.500   2.985   1.917 -0.6566 -0.5388 -0.8622
  249SOL    MW4  770   1.523   2.905   1.941 -0.0056 -0.1646 -0.1713
  250SOL     OW  771   2.441   5.362   4.477 -0.2337  0.3044  0.5080
  250SOL    HW2  772   2.379   5.351   4.404  1.4702  1.5280 -1.2084
  250SOL    HW3  773   2.444   5.456   4.492 -0.1401  0.1093  1.8419
  250SOL    MW4  774   2.433   5.373   4.470  0.0035  0.4401  0.4576
  251SOL     OW  775   2.131   2.533   6.365  0.0490  0.0791  0.7241
  251SOL    HW2  776   2.172   2.619   6.370 -1.6211  0.9764 -0.3380
  251SOL    HW3  777   2.103   2.524   6.274 -0.6949 -1.1516  1.0467
  251SOL    MW4  778   2.133   2.543   6.354 -0.2695  0.0351  0.6266
  252SOL     OW  779   6.103   1.017   4.303  0.1115  0.0604  0.4905
  252SOL    HW2  780   6.115   1.098   4.254  0.5103 -0.1362  0.2599
  252SOL    HW3  781   6.156   1.029   4.382  0.9184 -0.3363  0.0252
  252SOL    MW4  782   6.111   1.029   4.307  0.2705 -0.0179  0.3986
  253SOL     OW  783   3.361   5.292   2.603 -0.4687  0.5293  0.4006
  253SOL    HW2  784   3.413   5.316   2.679 -1.9521  1.1145  1.2879
  253SOL    HW3  785   3.271   5.316   2.627 -0.9818  0.8022 -1.5593
  253SOL    MW4  786   3.356   5.299   2.616 -0.7321  0.6425  0.2591
  254SOL     OW  787   4.708   2.168   5.881  0.5962 -0.4770  0.0213
  254SOL    HW2  788   4.731   2.189   5.971  2.4327 -1.3184 -0.2086
  254SOL    HW3  789   4.734   2.077   5.870 -0.3157 -0.6241 -1.1511
  254SOL    MW4  790   4.714   2.159   5.891  0.7182 -0.6074 -0.1637
  255SOL     OW  791   3.895   5.845   2.817 -0.3096  0.2363  0.0075
  255SOL    HW2  792   3.891   5.916   2.752  0.6423  0.2251 -0.0711
  255SOL    HW3  793   3.970   5.868   2.872  0.2518 -0.9074 -0.2576
  255SOL    MW4  794   3.904   5.858   2.816 -0.1099  0.0839 -0.0378
  256SOL     OW  795   3.717   1.029   0.040  0.1629 -0.3699  0.6240
  256SOL    HW2  796   3.795   1.055  -0.009 -0.3612  0.6763  0.3021
  256SOL    HW3  797   3.724   1.075   0.124 -0.9002  1.1467 -0.0505
  256SOL    MW4  798   3.728   1.039   0.044 -0.0466 -0.0318  0.4926
  257SOL     OW  799   3.407   2.769   6.167 -0.2494  0.0977  0.0320
  257SOL    HW2  800   3.384   2.810   6.084 -1.1461 -1.1650 -0.3820
  257SOL    HW3  801   3.416   2.842   6.228  2.2363  1.2126 -1.5390
  257SOL    MW4  802   3.405   2.784   6.164 -0.0398  0.0782 -0.2299
  258SOL     OW  803   2.496   1.035   0.054  0.2912 -0.3457  0.3400
  258SOL    HW2  804   2.508   0.964  -0.010  1.8609 -0.4439  0.6944
  258SOL    HW3  805   2.514   0.994   0.139  0.8104  0.3801  0.5909
  258SOL    MW4  806   2.500   1.020   0.057  0.5668 -0.2629  0.4198
  259SOL     OW  807   2.603   1.537   1.925 -0.5116 -0.0312 -0.0225
  259SOL    HW2  808   2.583   1.631   1.914  1.2707  0.4246  0.3549
  259SOL    HW3  809   2.611   1.526   2.019  1.7830  0.0228 -0.1768
  259SOL    MW4  810   2.601   1.548   1.936  0.0263  0.0361  0.0069
  260SOL     OW  811   2.039   0.352   5.883  0.3985 -0.1816 -0.3865
  260SOL    HW2  812   2.041   0.323   5.975  0.6362 -0.5978 -0.5214
  260SOL    HW3  813   2.126   0.387   5.866 -0.2651  1.9204  0.1720
  260SOL    MW4  814   2.050   0.353   5.893  0.3423  0.0408 -0.3306
  261SOL     OW  815   4.935   3.361   1.501  0.2201  0.7092  0.2206
  261SOL    HW2  816   4.926   3.379   1.594 -0.0698 -0.5037  0.4460
  261SOL    HW3  817   4.944   3.448   1.460 -1.1841  1.3581  1.2026
  261SOL    MW4  818   4.935   3.375   1.508 -0.0034  0.6348  0.3799
  262SOL     OW  819   4.179   3.714   3.496 -0.2851 -0.4697 -0.5207
  262SOL    HW2  820   4.259   3.737   3.448 -0.1478 -0.4102 -0.2654
  262SOL    HW3  821   4.194   3.623   3.523  0.2775 -0.0493  0.6738
  262SOL    MW4  822   4.192   3.705   3.493 -0.1927 -0.4064 -0.3294
  263SOL     OW  823   0.470   5.790   6.058 -0.7107 -0.2795 -0.2121
  263SOL    HW2  824   0.516   5.706   6.052 -1.5091 -0.6550 -1.9614
  263SOL    HW3  825   0.513   5.836   6.130 -0.1166 -2.0971  0.6626
  263SOL    MW4  826   0.482   5.785   6.066 -0.7376 -0.5689 -0.3275
  264SOL     OW  827   0.131   3.697   2.226  0.1309 -0.3481  0.1406
  264SOL    HW2  828   0.105   3.788   2.244 -0.1276 -0.3489 -0.2256
  264SOL    HW3  829   0.227   3.698   2.236  0.1505  0.0080 -0.0517
  264SOL    MW4  830   0.140   3.709   2.230  0.0994 -0.3012  0.0670
  265SOL     OW  831   0.339   0.674   5.813  0.1550  0.0351 -0.0133
  265SOL    HW2  832   0.329   0.583   5.841 -1.6438  0.4941  0.9741
  265SOL    HW3  833   0.383   0.717   5.886 -0.5392  0.2955  0.2632
  265SOL    MW4  834   0.343   0.668   5.826 -0.1739  0.1300  0.1535
  266SOL     OW  835   2.892   2.199   4.522 -0.2703  0.6671 -0.1491
  266SOL    HW2  836   2.927   2.238   4.442 -0.8332 -0.2897 -0.8799
  266SOL    HW3  837   2.958   2.219   4.589  2.2708 -1.8713 -1.6468
  266SOL    MW4  838   2.905   2.207   4.520 -0.0093  0.2059 -0.4431
  267SOL     OW  839   2.687   3.585   4.317  0.2030  0.0039  0.1568
  267SOL    HW2  840   2.632   3.571   4.394 -0.7996  0.5440 -0.4495
  267SOL    HW3  841   2.777   3.580   4.351 -0.2115  1.3465  1.5855
  267SOL    MW4  842   2.692   3.583   4.332  0.0160  0.2523  0.2653
  268SOL     OW  843   1.996   4.138   3.558 -0.1559 -0.0840 -0.8032
  268SOL    HW2  844   2.065   4.073   3.546 -2.6694 -3.4263  1.2271
  268SOL    HW3  845   1.957   4.148   3.471  2.0170  1.0324 -1.7403
  268SOL    MW4  846   2.000   4.131   3.545 -0.2008 -0.3777 -0.6590
  269SOL     OW  847   4.238   0.859   5.382  0.2914  0.1134  0.6292
  269SOL    HW2  848   4.222   0.802   5.307  0.6320 -1.7991  1.9469
  269SOL    HW3  849   4.295   0.928   5.348  1.4346 -1.3679 -0.6180
  269SOL    MW4  850   4.243   0.860   5.368  0.4872 -0.3344  0.6385
  270SOL     OW  851   5.171   4.443   1.834 -0.1432  0.5580  0.1543
  270SOL    HW2  852   5.204   4.530   1.857 -2.0654  2.0791 -2.3449
  270SOL    HW3  853   5.241   4.404   1.782  0.3086  1.0275  0.3959
  270SOL    MW4  854   5.185   4.449   1.830 -0.3372  0.8206 -0.1435
  271SOL     OW  855   3.399   0.408   2.250 -0.6218  0.5040 -0.1241
  271SOL    HW2  856   3.484   0.376   2.220 -1.9378 -0.9297 -2.7190
  271SOL    HW3  857   3.401   0.502   2.230  0.9736  0.8915  1.6164
  271SOL    MW4  858   3.410   0.416   2.243 -0.5850  0.3660 -0.2368
  272SOL     OW  859   4.816   5.462   2.520 -0.3080 -0.0977 -0.0272
  272SOL    HW2  860   4.871   5.388   2.493  0.4024 -0.0741  1.2723
  272SOL    HW3  861   4.870   5.511   2.581 -2.1428 -0.7127  2.2296
  272SOL    MW4  862   4.830   5.458   2.524 -0.4564 -0.1757  0.4420
  273SOL     OW  863   0.077   2.140   1.106  0.1021 -0.2543  0.5516
  273SOL    HW2  864   0.150   2.148   1.167  0.6622 -0.2017 -0.1122
  273SOL    HW3  865   0.106   2.073   1.043 -0.1335  0.2551 -0.1108
  273SOL    MW4  866   0.091   2.132   1.105  0.1449 -0.1802  0.3766
  274SOL     OW  867   2.627   3.215   3.438  0.0273  0.1227  0.2110
  274SOL    HW2  868   2.646   3.253   3.525 -0.2156 -0.9467  0.7437
  274SOL    HW3  869   2.541   3.175   3.448 -0.0380  0.0567 -0.5642
  274SOL    MW4  870   2.618   3.215   3.451 -0.0134 -0.0271  0.1790
  275SOL     OW  871   0.166   1.496   1.649 -0.7544 -0.0324  0.0354
  275SOL    HW2  872   0.081   1.499   1.693 -1.5987  1.0016 -1.5562
  275SOL    HW3  873   0.166   1.572   1.592  1.7644  0.6683  0.8325
  275SOL    MW4  874   0.155   1.506   1.647 -0.5334  0.1965 -0.0694
  276SOL     OW  875   5.855   1.140   4.450 -0.8704  0.4624  0.0899
  276SOL    HW2  876   5.785   1.089   4.411 -0.3566 -1.0331  1.0365
  276SOL    HW3  877   5.933   1.117   4.400 -0.8357  1.2885 -0.2623
  276SOL    MW4  878   5.856   1.131   4.438 -0.7981  0.3741  0.1684
  277SOL     OW  879   3.862   2.911   5.426  0.3684 -0.0824 -0.6486
  277SOL    HW2  880   3.955   2.887   5.429 -0.3791 -3.4002  2.4660
  277SOL    HW3  881   3.846   2.954   5.510 -1.2550 -1.1850 -0.3526
  277SOL    MW4  882   3.872   2.914   5.438  0.0556 -0.6656 -0.1986
  278SOL     OW  883   2.231   5.813   5.895  0.5436 -0.1117  0.4748
  278SOL    HW2  884   2.178   5.763   5.958  0.2679  0.2610  0.5418
  278SOL    HW3  885   2.189   5.797   5.810 -0.3087  0.9929  0.6585
  278SOL    MW4  886   2.218   5.804   5.892  0.3948  0.0832  0.5079
  279SOL     OW  887   1.208   2.964   5.494 -0.3225  0.4005  0.5145
  279SOL    HW2  888   1.115   2.948   5.481 -0.3195  1.2001 -0.6904
  279SOL    HW3  889   1.234   2.903   5.563 -1.6662 -0.0414  0.6557
  279SOL    MW4  890   1.199   2.954   5.501 -0.4994  0.4477  0.3742
  280SOL     OW  891   3.583   0.516   1.867  0.1216  0.1758  0.0333
  280SOL    HW2  892   3.605   0.600   1.907 -1.7301  0.5636  0.3179
  280SOL    HW3  893   3.652   0.502   1.802  1.3353  1.1237  1.0683
  280SOL    MW4  894   3.595   0.525   1.863  0.0374  0.3520  0.2074
  281SOL     OW  895   3.814   2.879   3.065  0.5634  0.3626 -0.2152
  281SOL    HW2  896   3.730   2.877   3.110  1.0728 -0.8547  0.7610
  281SOL    HW3  897   3.792   2.881   2.972 -0.6012 -2.0383 -0.0560
  281SOL    MW4  898   3.800   2.879   3.059  0.4769 -0.1148 -0.0654
  282SOL     OW  899   0.474   5.331   4.155 -0.0103 -1.0402 -0.1355
  282SOL    HW2  900   0.467   5.281   4.073 -0.1492 -0.6372 -0.3759
  282SOL    HW3  901   0.492   5.266   4.222  2.7416 -1.1575 -0.8578
  282SOL    MW4  902   0.476   5.316   4.153  0.3345 -1.0025 -0.2625
  283SOL     OW  903   2.594   5.843   1.483  0.1897  0.9690  0.0404
  283SOL    HW2  904   2.644   5.924   1.488  1.4973  0.2623 -0.7251
  283SOL    HW3  905   2.562   5.828   1.572 -0.5034  2.5542  0.0839
  283SOL    MW4  906   2.596   5.852   1.495  0.2708  1.0849 -0.0549
  284SOL     OW  907   0.628   3.734   1.949  0.3101  0.4935 -0.0072
  284SOL    HW2  908   0.586   3.786   2.018  0.0794 -0.7326  0.8003
  284SOL    HW3  909   0.699   3.790   1.917  0.2164  1.2069  0.9897
  284SOL    MW4  910   0.632   3.748   1.954  0.2673  0.4259  0.2309
  285SOL     OW  911   4.654   5.371   5.728  0.7567 -0.7177  0.1795
  285SOL    HW2  912   4.705   5.317   5.667 -1.8403 -1.6490 -1.3195
  285SOL    HW3  913   4.628   5.448   5.676  0.2837 -0.4735  0.7691
  285SOL    MW4  914   4.658   5.374   5.713  0.3516 -0.8084  0.0595
  286SOL     OW  915   4.354   0.957   0.882 -0.2866 -0.1421 -0.2264
  286SOL    HW2  916   4.347   0.999   0.967 -1.6741 -0.4901 -0.1453
  286SOL    HW3  917   4.416   1.011   0.833 -0.7528  1.0325  0.4400
  286SOL    MW4  918   4.361   0.970   0.887 -0.5312 -0.0330 -0.1278
  287SOL     OW  919   2.779   3.280   6.144 -0.4297 -0.3006 -0.1350
  287SOL    HW2  920   2.768   3.374   6.162  0.4786 -0.3783  0.8678
  287SOL    HW3  921   2.739   3.237   6.219 -0.0951 -0.7062 -0.1886
  287SOL    MW4  922   2.772   3.287   6.156 -0.2657 -0.3644 -0.0097
  288SOL     OW  923   5.393   0.143   5.962  0.3808  0.3044  0.3828
  288SOL    HW2  924   5.475   0.115   5.921  1.6086  0.5188  2.5119
  288SOL    HW3  925   5.381   0.081   6.035 -0.6239  1.0923  0.9098
  288SOL    MW4  926   5.402   0.131   5.966  0.4102  0.4367  0.7333
  289SOL     OW  927   2.724   1.247   6.159 -0.0144 -0.1259 -0.4996
  289SOL    HW2  928   2.797   1.308   6.151  0.0102 -0.1765 -0.6732
  289SOL    HW3  929   2.720   1.226   6.253 -1.6131  2.0714 -0.0101
  289SOL    MW4  930   2.733   1.252   6.171 -0.2221  0.1574 -0.4579
  290SOL     OW  931   4.009   3.084   1.435  0.5151 -0.2704  0.2284
  290SOL    HW2  932   3.972   3.133   1.509 -0.2554 -0.3931 -0.0674
  290SOL    HW3  933   4.046   3.151   1.378 -1.4241  0.0981 -0.6739
  290SOL    MW4  934   4.009   3.100   1.438  0.1576 -0.2380  0.0704
  291SOL     OW  935   0.027   0.462   2.727  0.3597  0.1819 -0.2802
  291SOL    HW2  936  -0.017   0.404   2.790 -0.5130 -0.0977 -1.1196
  291SOL    HW3  937   0.099   0.409   2.693  1.2875  0.5946  1.0082
  291SOL    MW4  938   0.030   0.447   2.731  0.3670  0.1995 -0.2210
  292SOL     OW  939   0.694   3.841   0.152 -0.3780 -0.3902  0.3641
  292SOL    HW2  940   0.645   3.880   0.224 -0.0104  1.5565 -0.3825
  292SOL    HW3  941   0.717   3.753   0.183 -0.1148  0.4294  2.6417
  292SOL    MW4  942   0.691   3.834   0.166 -0.2948 -0.0252  0.5661
  293SOL     OW  943   2.535   2.246   3.001  0.0359  0.0752  0.1478
  293SOL    HW2  944   2.473   2.319   3.006 -0.1285  0.1672 -2.1645
  293SOL    HW3  945   2.620   2.285   3.023 -0.0770  0.9733 -0.8987
  293SOL    MW4  946   2.538   2.261   3.004 -0.0007  0.2058 -0.2954
  294SOL     OW  947   2.197   2.535   4.245 -0.0166  0.1573  1.1857
  294SOL    HW2  948   2.240   2.591   4.180 -2.4869  0.2399 -0.5166
  294SOL    HW3  949   2.210   2.580   4.328  1.0935  1.3918  0.3747
  294SOL    MW4  950   2.204   2.548   4.248 -0.1961  0.3311  0.8541
  295SOL     OW  951   0.563   0.500   3.250  0.5158  0.1335  0.0838
  295SOL    HW2  952   0.523   0.414   3.239  2.4638 -0.7873 -0.1446
  295SOL    HW3  953   0.588   0.503   3.342  0.1138  0.6308  0.1819
  295SOL    MW4  954   0.561   0.489   3.261  0.7198  0.0777  0.0666
  296SOL     OW  955   1.576   0.632   3.837  0.1085 -0.1986 -0.6507
  296SOL    HW2  956   1.605   0.561   3.780  4.8529  0.6824  0.2703
  296SOL    HW3  957   1.656   0.666   3.877 -2.2898  3.2283  1.9019
  296SOL    MW4  958   1.590   0.627   3.835  0.4180  0.3697 -0.1924
  297SOL     OW  959   1.408   1.563   0.628 -0.2628 -0.2728  0.2753
  297SOL    HW2  960   1.367   1.535   0.710  0.4645 -1.0892  0.3712
  297SOL    HW3  961   1.464   1.637   0.653  1.2723 -1.5695  0.8581
  297SOL    MW4  962   1.410   1.569   0.642  0.0357 -0.5516  0.3649
  298SOL     OW  963   2.796   4.754   6.126 -0.4836 -0.2652  0.5566
  298SOL    HW2  964   2.718   4.759   6.070 -0.0793  0.2280  0.0283
  298SOL    HW3  965   2.761   4.738   6.214 -1.3658  2.4981  0.8050
  298SOL    MW4  966   2.781   4.752   6.130 -0.5467  0.1645  0.5197
  299SOL     OW  967   0.673   5.899   3.499 -0.3945 -0.0097  0.3685
  299SOL    HW2  968   0.620   5.978   3.493 -1.3532 -0.6924 -0.4216
  299SOL    HW3  969   0.758   5.929   3.531 -1.1294  1.1601  1.3069
  299SOL    MW4  970   0.677   5.913   3.503 -0.6179  0.0546  0.3881
  300SOL     OW  971   3.911   1.414   3.527 -0.0736  0.1561 -0.0455
  300SOL    HW2  972   3.925   1.346   3.594 -1.4429  0.1752  0.2833
  300SOL    HW3  973   3.855   1.372   3.462 -0.5990  0.8415 -0.0417
  300SOL    MW4  974   3.906   1.400   3.527 -0.3236  0.2491 -0.0016
  301SOL     OW  975   2.372   4.375   5.133 -0.1293  0.3945  0.1171
  301SOL    HW2  976   2.432   4.314   5.175 -0.5187  0.1345  0.2941
  301SOL    HW3  977   2.294   4.324   5.113 -0.2312  0.6893 -0.2723
  301SOL    MW4  978   2.370   4.360   5.136 -0.1941  0.3991  0.0891
  302SOL     OW  979   5.833   5.815   4.703 -0.6525 -0.1517  0.4885
  302SOL    HW2  980   5.892   5.743   4.682 -0.8469 -0.9114  2.3319
  302SOL    HW3  981   5.873   5.857   4.779 -0.0843  2.2744 -1.0624
  302SOL    MW4  982   5.846   5.811   4.710 -0.6032  0.0682  0.5271
  303SOL     OW  983   2.237   5.646   0.943  0.0960  0.2930  0.8144
  303SOL    HW2  984   2.324   5.650   0.905 -0.5149  2.3804 -0.5430
  303SOL    HW3  985   2.192   5.577   0.894  0.4415  0.4206  0.3213
  303SOL    MW4  986   2.242   5.637   0.932  0.0610  0.5852  0.5703
  304SOL     OW  987   0.973   5.175   3.802  0.3798  0.8425  0.0869
  304SOL    HW2  988   0.939   5.167   3.713  2.3203  1.3066 -0.7396
  304SOL    HW3  989   1.068   5.164   3.793  0.7885  2.3907  1.8912
  304SOL    MW4  990   0.981   5.172   3.789  0.6897  1.1080  0.2159
  305SOL     OW  991   2.090   3.655   1.501  0.0478  0.0781 -0.0648
  305SOL    HW2  992   2.064   3.718   1.568  0.7440 -3.0327  3.4827
  305SOL    HW3  993   2.025   3.584   1.509  0.2260 -0.4747 -2.7047
  305SOL    MW4  994   2.078   3.654   1.511  0.1632 -0.4052  0.0550
  306SOL     OW  995   2.680   1.135   4.473  0.0894  0.2383  0.3716
  306SOL    HW2  996   2.737   1.065   4.506 -0.6522 -0.8250 -0.5304
  306SOL    HW3  997   2.600   1.127   4.525  0.0804  0.5539  0.4061
  306SOL    MW4  998   2.677   1.125   4.484 -0.0096  0.1397  0.2572
  307SOL     OW  999   4.007   0.282   0.233  0.1292 -0.6605  0.0391
  307SOL    HW2 1000   4.062   0.358   0.251 -0.2560 -0.2471 -0.4952
  307SOL    HW3 1001   3.956   0.307   0.156 -1.8837 -0.4210  1.3659
  307SOL    MW4 1002   4.007   0.296   0.225 -0.1872 -0.5743  0.1437
  308SOL     OW 1003   2.896   4.781   3.611  0.1055  0.7063  0.3757
  308SOL    HW2 1004   2.920   4.738   3.529  0.8494 -0.3273  1.1060
  308SOL    HW3 1005   2.831   4.723   3.651 -1.2979  1.8940 -0.0973
  308SOL    MW4 1006   2.891   4.768   3.606  0.0185  0.7266  0.4097
  309SOL     OW 1007   5.344   2.736   4.109  0.3510  0.2586  0.2701
  309SOL    HW2 1008   5.386   2.692   4.035 -1.7362 -0.1493 -0.7456
  309SOL    HW3 1009   5.352   2.829   4.090 -1.0038  0.1438 -1.0157
  309SOL    MW4 1010   5.351   2.742   4.097 -0.1031  0.1897 -0.0336
  310SOL     OW 1011   3.804   4.185   2.302 -0.3308 -0.1738  0.2661
  310SOL    HW2 1012   3.793   4.113   2.239  0.9540 -1.0931  1.0243
  310SOL    HW3 1013   3.804   4.264   2.248  1.7014 -0.9866 -1.0902
  310SOL    MW4 1014   3.803   4.186   2.287  0.1069 -0.4023  0.1872
  311SOL     OW 1015   5.688   0.796   4.696  0.1128 -0.2750 -0.9003
  311SOL    HW2 1016   5.717   0.885   4.717 -1.7308 -0.1555  1.6107
  311SOL    HW3 1017   5.755   0.763   4.636  2.1010  1.9862 -0.1165
  311SOL    MW4 1018   5.701   0.804   4.690  0.1319  0.0391 -0.4656
  312SOL     OW 1019  -0.002   6.023   3.405  0.2333  0.0933 -0.2812
  312SOL    HW2 1020  -0.043   5.951   3.453  1.7707  0.5190  1.8083
  312SOL    HW3 1021  -0.067   6.094   3.408 -0.0545 -0.1941  0.3666
  312SOL    MW4 1022  -0.016   6.023   3.412  0.3982  0.1116  0.0800
  313SOL     OW 1023   3.518   5.300   4.486 -0.4577  0.5419  0.2768
  313SOL    HW2 1024   3.424   5.312   4.500 -0.5306 -1.0385  1.4335
  313SOL    HW3 1025   3.527   5.209   4.458  0.8159  0.3033  1.3383
  313SOL    MW4 1026   3.507   5.290   4.485 -0.2993  0.3019  0.5695
  314SOL     OW 1027   6.001   5.877   3.697 -0.4041 -0.0706  0.3436
  314SOL    HW2 1028   5.912   5.840   3.700 -0.6913  0.5341 -0.1959
  314SOL    HW3 1029   5.991   5.964   3.736  0.1420 -0.3389  1.0894
  314SOL    MW4 1030   5.988   5.884   3.702 -0.3700 -0.0262  0.3708
  315SOL     OW 1031   1.083   4.674   4.997  0.5111  0.0626  0.2042
  315SOL    HW2 1032   1.111   4.642   5.082 -2.7632 -0.3454  1.2500
  315SOL    HW3 1033   1.066   4.595   4.946 -1.6662  0.1494  0.7067
  315SOL    MW4 1034   1.084   4.659   5.001 -0.2081  0.0202  0.4085
  316SOL     OW 1035   3.268   2.942   4.362 -0.1795 -0.1026 -0.7000
  316SOL    HW2 1036   3.297   2.956   4.272  0.5156  1.0389 -0.3092
  316SOL    HW3 1037   3.202   2.873   4.354 -0.9814  0.7720 -2.2313
  316SOL    MW4 1038   3.263   2.934   4.349 -0.1936  0.1634 -0.8504
  317SOL     OW 1039   6.382   0.990   2.700  0.1717 -0.1948  0.0738
  317SOL    HW2 1040   6.300   0.989   2.650 -0.3126 -0.1954  0.8473
  317SOL    HW3 1041   6.450   0.970   2.635 -0.2825  1.1316 -0.8672
  317SOL    MW4 1042   6.380   0.988   2.685  0.0479 -0.0199  0.0517
  318SOL     OW 1043   4.114   3.310   5.822  0.4779  0.5493  0.5059
  318SOL    HW2 1044   4.206   3.293   5.802  0.1826  0.3689 -0.7830
  318SOL    HW3 1045   4.069   3.230   5.793 -0.0713  0.5639  1.2918
  318SOL    MW4 1046   4.120   3.297   5.816  0.3665  0.5274  0.4395
  319SOL     OW 1047   1.535   6.343   5.638 -0.0838 -0.1817  0.0155
  319SOL    HW2 1048   1.591   6.327   5.562 -0.7622 -0.0866 -0.5086
  319SOL    HW3 1049   1.485   6.262   5.648 -0.4061  0.0142  0.0085
  319SOL    MW4 1050   1.536   6.330   5.629 -0.2158 -0.1433 -0.0545
  320SOL     OW 1051   2.861   0.197   5.495  0.0172  0.5116  0.2302
  320SOL    HW2 1052   2.815   0.180   5.413  0.8852 -1.3803  0.0854
  320SOL    HW3 1053   2.937   0.249   5.469  0.8289 -0.9020 -0.3788
  320SOL    MW4 1054   2.865   0.202   5.481  0.2388  0.0755  0.1308
  321SOL     OW 1055   6.354   1.267   4.553  0.0839 -0.1266  0.2740
  321SOL    HW2 1056   6.289   1.277   4.622  0.0188  0.6797  0.1110
  321SOL    HW3 1057   6.305   1.283   4.472  0.5301  0.7486  0.1664
  321SOL    MW4 1058   6.339   1.270   4.551  0.1342  0.0953  0.2383
  322SOL     OW 1059   3.898   6.307   5.466 -0.8060  0.2223  0.1088
  322SOL    HW2 1060   3.954   6.282   5.539  0.8986 -0.7224 -1.4590
  322SOL    HW3 1061   3.838   6.233   5.455  0.8569 -0.9943 -1.2451
  322SOL    MW4 1062   3.897   6.294   5.474 -0.3617 -0.0628 -0.2767
  323SOL     OW 1063   2.396   6.135   5.456 -0.1611 -0.4717 -0.4008
  323SOL    HW2 1064   2.314   6.103   5.495  0.6004  0.0419  1.7354
  323SOL    HW3 1065   2.412   6.219   5.499  0.7974  0.0921 -1.8034
  323SOL    MW4 1066   2.387   6.141   5.467  0.0659 -0.3296 -0.3040
  324SOL     OW 1067   2.295   5.374   4.246  0.5061 -0.3872 -0.2442
  324SOL    HW2 1068   2.215   5.409   4.284 -0.1777 -0.1125 -1.8455
  324SOL    HW3 1069   2.267   5.294   4.200  0.9277  0.2322 -1.6479
  324SOL    MW4 1070   2.281   5.368   4.245  0.4715 -0.2693 -0.6406
  325SOL     OW 1071   5.526   0.368   3.322 -0.4025 -0.2140  0.0386
  325SOL    HW2 1072   5.483   0.430   3.381  0.8511  0.4034  0.3426
  325SOL    HW3 1073   5.598   0.418   3.283  1.5086 -1.7839  1.3055
  325SOL    MW4 1074   5.530   0.383   3.325  0.0151 -0.3397  0.2459
  326SOL     OW 1075   4.224   4.283   4.307 -0.4047  0.1768  0.6358
  326SOL    HW2 1076   4.245   4.221   4.236  0.6547  0.6376  0.5218
  326SOL    HW3 1077   4.222   4.230   4.386 -1.4052 -0.3130  0.2981
  326SOL    MW4 1078   4.227   4.268   4.308 -0.3970  0.1730  0.5762
  327SOL     OW 1079   0.701   4.772   1.542 -0.1965 -0.7864 -0.2383
  327SOL    HW2 1080   0.787   4.741   1.570  0.0627  0.5650  0.5398
  327SOL    HW3 1081   0.675   4.711   1.473  0.2226 -2.7784  1.2708
  327SOL    MW4 1082   0.709   4.760   1.536 -0.1070 -0.8710  0.0635
  328SOL     OW 1083   3.475   3.050   0.219 -0.1183 -0.1482 -0.1944
  328SOL    HW2 1084   3.431   3.047   0.304 -0.9521  1.3874 -0.5373
  328SOL    HW3 1085   3.559   3.094   0.238 -0.9638  1.6440 -0.3795
  328SOL    MW4 1086   3.481   3.056   0.233 -0.3398  0.2909 -0.2641
  329SOL     OW 1087   6.119   5.156   1.782  0.3691  0.0951 -0.0980
  329SOL    HW2 1088   6.116   5.246   1.814 -0.1410  0.1401 -0.2670
  329SOL    HW3 1089   6.213   5.137   1.776  0.4973 -0.0957  1.8619
  329SOL    MW4 1090   6.131   5.166   1.785  0.3187  0.0759  0.1383
  330SOL     OW 1091   6.286   3.361   2.416  0.5150 -0.0958  0.1867
  330SOL    HW2 1092   6.371   3.361   2.373  1.9727 -0.5799  2.8395
  330SOL    HW3 1093   6.298   3.415   2.494 -1.4789 -0.5028  0.8392
  330SOL    MW4 1094   6.298   3.368   2.421  0.4443 -0.2134  0.6228
  331SOL     OW 1095   1.937   1.618   2.867 -0.0516 -0.1562 -0.7452
  331SOL    HW2 1096   1.926   1.709   2.894  3.9682  0.5099 -0.7137
  331SOL    HW3 1097   1.970   1.573   2.946  1.1388 -0.8157 -1.5840
  331SOL    MW4 1098   1.940   1.624   2.881  0.6359 -0.1554 -0.8517
  332SOL     OW 1099   1.209   4.306   0.936 -0.2246 -0.4801 -0.1746
  332SOL    HW2 1100   1.184   4.387   0.980  0.7357 -0.3894  0.2334
  332SOL    HW3 1101   1.223   4.243   1.007 -1.0138 -1.0308 -0.4903
  332SOL    MW4 1102   1.208   4.308   0.951 -0.2020 -0.5408 -0.1624
  333SOL     OW 1103   4.908   1.567   0.591  0.9409 -0.1631  0.3619
  333SOL    HW2 1104   5.000   1.560   0.618  2.0779 -1.7291 -3.2907
  333SOL    HW3 1105   4.865   1.491   0.630  1.2738  0.3160  1.7035
  333SOL    MW4 1106   4.915   1.556   0.599  1.1348 -0.3065  0.0570
  334SOL     OW 1107   5.238   1.282   0.048  0.1503 -0.5532  0.0299
  334SOL    HW2 1108   5.306   1.215   0.046 -0.1482 -1.0577 -4.7210
  334SOL    HW3 1109   5.157   1.233   0.059  0.2325 -0.2980  2.1290
  334SOL    MW4 1110   5.236   1.267   0.049  0.1218 -0.5861 -0.3200
  335SOL     OW 1111   0.199   0.669   2.645 -0.6278  0.2871  0.0272
  335SOL    HW2 1112   0.205   0.612   2.569 -0.1980 -1.2504  1.1796
  335SOL    HW3 1113   0.131   0.629   2.699 -1.5399  1.8379  0.1045
  335SOL    MW4 1114   0.191   0.656   2.642 -0.6914  0.2888  0.1895
  336SOL     OW 1115   0.461   3.158   2.857  0.0159  0.6551  0.1666
  336SOL    HW2 1116   0.441   3.112   2.939  0.1180  2.1686  1.0923
  336SOL    HW3 1117   0.385   3.213   2.841 -0.1828  0.0711 -1.0112
  336SOL    MW4 1118   0.448   3.160   2.866  0.0031  0.7778  0.1334
  337SOL     OW 1119   1.676   0.437   1.992  0.3505  0.5691 -0.4368
  337SOL    HW2 1120   1.769   0.420   2.008  0.0630 -1.2491 -0.5125
  337SOL    HW3 1121   1.631   0.388   2.060 -0.5674  2.0551  0.0756
  337SOL    MW4 1122   1.682   0.428   2.003  0.1914  0.5253 -0.3792
  338SOL     OW 1123   0.220   5.916   0.580  0.6297 -0.5124  0.7328
  338SOL    HW2 1124   0.141   5.881   0.539 -0.3667  2.4062 -0.0955
  338SOL    HW3 1125   0.188   5.965   0.656  1.3673  1.9489 -0.4337
  338SOL    MW4 1126   0.206   5.918   0.585  0.5955  0.1974  0.4696
  339SOL     OW 1127   2.503   1.514   4.353 -0.2464  0.9375 -0.3376
  339SOL    HW2 1128   2.486   1.433   4.401 -1.1296  0.2332 -1.7883
  339SOL    HW3 1129   2.537   1.574   4.420  2.3941 -1.1892  0.4363
  339SOL    MW4 1130   2.506   1.511   4.368 -0.0146  0.5640 -0.4269
  340SOL     OW 1131   4.062   4.533   3.955  0.3075 -0.3602 -0.1650
  340SOL    HW2 1132   4.000   4.512   4.024  0.5034  0.7744  0.3697
  340SOL    HW3 1133   4.049   4.626   3.937  0.4572 -0.5669 -1.4615
  340SOL    MW4 1134   4.052   4.542   3.961  0.3531 -0.2378 -0.2655
  341SOL     OW 1135   1.866   2.890   4.273 -0.1803 -0.5785 -0.2071
  341SOL    HW2 1136   1.802   2.850   4.214  0.2676 -0.4831 -0.7728
  341SOL    HW3 1137   1.903   2.817   4.322  2.6652 -1.3969 -3.1788
  341SOL    MW4 1138   1.863   2.875   4.272  0.2542 -0.6739 -0.6738
  342SOL     OW 1139   0.166   5.434   3.777  0.0393  0.3062 -0.2750
  342SOL    HW2 1140   0.072   5.424   3.791  0.0848 -0.5543 -0.5328
  342SOL    HW3 1141   0.188   5.516   3.820 -0.6191 -0.0732  0.8190
  342SOL    MW4 1142   0.157   5.443   3.785 -0.0416  0.1426 -0.1647
  343SOL     OW 1143   5.415   5.869   1.530  0.3804  0.1015  0.1558
  343SOL    HW2 1144   5.488   5.865   1.591  0.7717  1.8044 -0.1543
  343SOL    HW3 1145   5.341   5.832   1.578  1.0080  0.0666  1.1206
  343SOL    MW4 1146   5.415   5.863   1.544  0.5148  0.3216  0.2422
  344SOL     OW 1147   1.496   5.319   1.066 -0.2950 -0.1860 -0.3619
  344SOL    HW2 1148   1.564   5.252   1.067 -0.3205 -0.2667 -2.0912
  344SOL    HW3 1149   1.414   5.270   1.065 -0.3239 -0.1348 -0.9332
  344SOL    MW4 1150   1.494   5.304   1.066 -0.3022 -0.1899 -0.6654
  345SOL     OW 1151   6.191   1.424   2.808  0.2349  0.1832 -0.2332
  345SOL    HW2 1152   6.254   1.354   2.788  2.2698  1.7417  0.4011
  345SOL    HW3 1153   6.246   1.498   2.833 -1.9368  1.0999  2.0967
  345SOL    MW4 1154   6.207   1.424   2.808  0.2168  0.5098  0.1579
  346SOL     OW 1155   6.246   6.189   5.761 -0.0830 -0.0892  0.2643
  346SOL    HW2 1156   6.267   6.119   5.699  1.2445 -0.8004  1.4563
  346SOL    HW3 1157   6.230   6.266   5.705  1.6816 -0.5464 -0.9606
  346SOL    MW4 1158   6.247   6.190   5.745  0.3249 -0.2434  0.2599
  347SOL     OW 1159   5.860   1.932   4.537 -0.4951  0.8824  0.1139
  347SOL    HW2 1160   5.859   1.988   4.615  1.7287  2.8060 -1.0949
  347SOL    HW3 1161   5.946   1.891   4.540 -1.1071 -0.4749 -0.4114
  347SOL    MW4 1162   5.871   1.934   4.548 -0.2824  0.9571 -0.1149
  348SOL     OW 1163   6.342   3.832   2.701 -0.6644  0.1931  0.0019
  348SOL    HW2 1164   6.426   3.871   2.678 -1.1896  0.5957 -1.3603
  348SOL    HW3 1165   6.359   3.738   2.705  0.1446  0.3695  1.1907
  348SOL    MW4 1166   6.355   3.825   2.699 -0.6270  0.2695 -0.0210
  349SOL     OW 1167   4.857   2.405   0.144 -0.0554 -0.7135 -0.3073
  349SOL    HW2 1168   4.950   2.421   0.156  0.8588 -2.1540 -3.9512
  349SOL    HW3 1169   4.846   2.313   0.168 -0.4827 -0.6277 -0.1680
  349SOL    MW4 1170   4.867   2.395   0.149  0.0088 -0.8923 -0.7697
  350SOL     OW 1171   2.257   1.662   4.799 -0.0042 -0.4496 -0.0138
  350SOL    HW2 1172   2.204   1.591   4.762  0.7597 -1.3057  0.5117
  350SOL    HW3 1173   2.219   1.677   4.886  0.0234 -0.4183 -0.0073
  350SOL    MW4 1174   2.245   1.655   4.805  0.1002 -0.5584  0.0564
  351SOL     OW 1175   2.398   6.042   0.925 -0.1259  0.5413  0.2961
  351SOL    HW2 1176   2.435   6.126   0.897 -1.0849  1.2520  1.0961
  351SOL    HW3 1177   2.392   5.991   0.845  0.7090  1.1370 -0.1700
  351SOL    MW4 1178   2.402   6.047   0.911 -0.1423  0.7137  0.3402
  352SOL     OW 1179   2.477   4.033   5.954  0.1966 -0.1007  0.1961
  352SOL    HW2 1180   2.567   4.034   5.920 -0.3879 -0.9946 -1.4983
  352SOL    HW3 1181   2.450   4.124   5.954  1.3152  0.2571  1.3692
  352SOL    MW4 1182   2.486   4.045   5.950  0.2670 -0.1715  0.1273
  353SOL     OW 1183   4.953   1.938   4.489 -0.2434  0.3161  0.4471
  353SOL    HW2 1184   5.032   1.963   4.441 -1.0517  1.2708 -0.4391
  353SOL    HW3 1185   4.954   1.842   4.489  0.2874  0.3045 -0.6356
  353SOL    MW4 1186   4.964   1.928   4.482 -0.2800  0.4406  0.1873
  354SOL     OW 1187   2.572   1.996   3.896  0.3378  0.0635  0.0324
  354SOL    HW2 1188   2.665   1.986   3.917  0.1966 -0.8804  0.2356
  354SOL    HW3 1189   2.537   2.049   3.968  0.5488 -0.2920  0.4018
  354SOL    MW4 1190   2.580   2.002   3.908  0.3470 -0.1079  0.1080
  355SOL     OW 1191   4.636   3.760   2.876 -0.0910  0.1070  0.0802
  355SOL    HW2 1192   4.596   3.673   2.866 -0.6362  0.2901  0.5967
  355SOL    HW3 1193   4.610   3.807   2.797 -1.0465  0.2695  0.4691
  355SOL    MW4 1194   4.627   3.755   2.864 -0.2890  0.1526  0.1996
  356SOL     OW 1195   5.899   3.210   5.714 -0.4458  0.3681  0.0126
  356SOL    HW2 1196   5.934   3.284   5.764 -1.0562  0.5095  0.2405
  356SOL    HW3 1197   5.808   3.234   5.697 -1.4469 -1.4771  2.3242
  356SOL    MW4 1198   5.892   3.223   5.718 -0.6584  0.1433  0.3477
  357SOL     OW 1199   1.371   4.971   4.367  0.0331 -0.4078  0.0427
  357SOL    HW2 1200   1.417   4.910   4.310 -0.2015 -0.2794 -0.2860
  357SOL    HW3 1201   1.280   4.970   4.335  0.1736  0.6633 -0.4383
  357SOL    MW4 1202   1.365   4.962   4.355  0.0207 -0.2495 -0.0641
  358SOL     OW 1203   2.447   3.080   5.002  0.0401 -0.0286 -0.3789
  358SOL    HW2 1204   2.529   3.047   5.040 -0.8460 -1.9530 -0.0462
  358SOL    HW3 1205   2.473   3.161   4.958  1.5793  0.9826  2.1625
  358SOL    MW4 1206   2.462   3.087   5.001  0.1263 -0.1491  0.0003
  359SOL     OW 1207   5.401   1.349   1.009 -0.8206  0.5162 -0.0214
  359SOL    HW2 1208   5.378   1.441   1.004 -0.4599  0.8281  2.4617
  359SOL    HW3 1209   5.349   1.315   1.083 -0.0715 -0.9630 -0.1231
  359SOL    MW4 1210   5.391   1.356   1.018 -0.6742  0.3622  0.2928
  360SOL     OW 1211   4.745   2.139   4.916  0.5223 -0.6202  0.5885
  360SOL    HW2 1212   4.670   2.199   4.920 -1.1648 -2.6064  0.6874
  360SOL    HW3 1213   4.783   2.143   5.004  1.1490  1.1053  0.2674
  360SOL    MW4 1214   4.740   2.147   4.929  0.3824 -0.6546  0.5591
  361SOL     OW 1215   4.888   3.524   5.947  0.4317  0.1166 -0.4693
  361SOL    HW2 1216   4.963   3.500   5.892  0.4459  1.4191 -1.0601
  361SOL    HW3 1217   4.899   3.618   5.961 -0.2589  0.0283  0.7430
  361SOL    MW4 1218   4.899   3.533   5.941  0.3424  0.2768 -0.3873
  362SOL     OW 1219   4.977   0.599   2.171  0.4051  0.2614  0.2312
  362SOL    HW2 1220   4.894   0.565   2.205  0.9178 -0.0015  1.2600
  362SOL    HW3 1221   4.951   0.667   2.108 -0.6663 -2.1161 -2.0635
  362SOL    MW4 1222   4.962   0.604   2.167  0.3314 -0.0870  0.0642
  363SOL     OW 1223   3.250   2.523   2.121  0.0457 -0.7071  0.4566
  363SOL    HW2 1224   3.225   2.433   2.143 -0.4700 -0.7049 -0.0840
  363SOL    HW3 1225   3.175   2.558   2.073  0.5623 -0.2472 -0.0359
  363SOL    MW4 1226   3.237   2.516   2.117  0.0458 -0.6461  0.3203
  364SOL     OW 1227   5.410   3.199   3.390  0.6723 -0.2412  0.2354
  364SOL    HW2 1228   5.364   3.158   3.463  0.8339  0.9218  1.0146
  364SOL    HW3 1229   5.371   3.160   3.312  1.3840 -2.5009  0.9120
  364SOL    MW4 1230   5.399   3.188   3.389  0.7875 -0.3859  0.4275
  365SOL     OW 1231   3.091   2.356   3.439  0.1556 -0.8533 -0.1501
  365SOL    HW2 1232   3.002   2.386   3.461 -0.0370  0.6279 -2.6227
  365SOL    HW3 1233   3.113   2.295   3.509 -1.6306  0.9757  2.1663
  365SOL    MW4 1234   3.082   2.352   3.451 -0.1055 -0.4166 -0.1707
  366SOL     OW 1235   1.816   5.605   6.091  0.0386 -0.2152 -0.3993
  366SOL    HW2 1236   1.755   5.647   6.152  0.4867 -0.7698  0.4536
  366SOL    HW3 1237   1.897   5.655   6.101  0.1460 -0.3781 -0.4560
  366SOL    MW4 1238   1.818   5.617   6.100  0.1119 -0.3099 -0.2942
  367SOL     OW 1239   4.947   1.861   2.176  0.5761 -0.4341 -0.4769
  367SOL    HW2 1240   4.857   1.884   2.155  0.4190 -1.2751 -0.7813
  367SOL    HW3 1241   4.974   1.925   2.242  0.5251  1.2700 -2.0134
  367SOL    MW4 1242   4.939   1.873   2.182  0.5486 -0.3202 -0.7198
  368SOL     OW 1243   5.912   4.952   1.656 -0.6320 -0.6174 -0.6487
  368SOL    HW2 1244   5.996   4.980   1.691 -0.1694 -2.4564 -0.1508
  368SOL    HW3 1245   5.853   5.026   1.672  0.4909  0.0627  0.5332
  368SOL    MW4 1246   5.915   4.965   1.663 -0.4228 -0.7703 -0.4271
  369SOL     OW 1247   0.112   2.189   5.741  0.0294 -0.0426 -0.5089
  369SOL    HW2 1248   0.059   2.268   5.733  0.1847  0.0010 -1.1795
  369SOL    HW3 1249   0.142   2.171   5.652  1.2252  0.0036 -0.1364
  369SOL    MW4 1250   0.109   2.197   5.728  0.2077 -0.0308 -0.5482
  370SOL     OW 1251   6.392   3.768   0.767  0.5901 -0.4164  0.3014
  370SOL    HW2 1252   6.337   3.746   0.842  0.8950 -1.5599  0.1999
  370SOL    HW3 1253   6.477   3.789   0.805  1.1304 -2.2880  0.2213
  370SOL    MW4 1254   6.396   3.768   0.782  0.7016 -0.8142  0.2774
  371SOL     OW 1255   0.726   5.951   5.637  0.4682 -0.1405 -0.2042
  371SOL    HW2 1256   0.751   5.956   5.730  1.8419 -1.2534 -0.4693
  371SOL    HW3 1257   0.791   6.005   5.592 -0.3489  0.6048 -0.5150
  371SOL    MW4 1258   0.738   5.959   5.644  0.5416 -0.1890 -0.2802
  372SOL     OW 1259   3.630   1.535   5.997 -0.1554 -0.2273  0.4427
  372SOL    HW2 1260   3.563   1.580   6.048 -0.1898  0.4115 -0.1589
  372SOL    HW3 1261   3.685   1.492   6.063 -0.8720 -0.3687  0.9591
  372SOL    MW4 1262   3.629   1.535   6.013 -0.2545 -0.1617  0.4314
  373SOL     OW 1263   4.113   3.468   4.828  0.6396  0.3374  0.1128
  373SOL    HW2 1264   4.184   3.412   4.796  0.4638  0.3266 -0.2749
  373SOL    HW3 1265   4.034   3.415   4.817  0.4555  0.7030 -0.3809
  373SOL    MW4 1266   4.112   3.454   4.822  0.5921  0.3842 -0.0035
  374SOL     OW 1267   5.442   6.084   0.796 -0.3209 -0.3798 -0.2678
  374SOL    HW2 1268   5.509   6.078   0.728  1.6322 -0.4995  1.5799
  374SOL    HW3 1269   5.417   6.177   0.797 -1.2075 -0.5583 -1.8323
  374SOL    MW4 1270   5.447   6.096   0.787 -0.1802 -0.4191 -0.2305
  375SOL     OW 1271   3.212   3.971   6.333  0.2329  0.1946  0.1707
  375SOL    HW2 1272   3.230   3.962   6.426  1.4949 -0.3744 -0.1045
  375SOL    HW3 1273   3.116   3.975   6.327  0.1535  0.6798  1.5132
  375SOL    MW4 1274   3.201   3.970   6.344  0.3889  0.1835  0.3115
  376SOL     OW 1275   2.056   4.967   4.230  0.0355  0.3111  0.2669
  376SOL    HW2 1276   1.965   4.946   4.249 -0.8032  2.8384 -0.5832
  376SOL    HW3 1277   2.088   5.007   4.311 -0.8443  2.8930 -0.5550
  376SOL    MW4 1278   2.048   4.969   4.243 -0.1912  0.9852  0.0463
  377SOL     OW 1279   6.043   5.614   4.273  0.6705 -0.1546 -0.2304
  377SOL    HW2 1280   6.105   5.686   4.261  0.2803  0.4621  1.2110
  377SOL    HW3 1281   6.013   5.623   4.364 -2.3315  0.2243 -1.1294
  377SOL    MW4 1282   6.047   5.625   4.284  0.2229 -0.0232 -0.1588
  378SOL     OW 1283   1.976   2.838   4.988  0.9099  0.1635 -0.0446
  378SOL    HW2 1284   1.968   2.872   4.899  0.9096  0.1643 -0.0444
  378SOL    HW3 1285   2.046   2.773   4.982  1.0232  0.2821 -0.0099
  378SOL    MW4 1286   1.984   2.834   4.976  0.9248  0.1792 -0.0400
  379SOL     OW 1287   1.730   0.909   1.887  0.6045 -0.4876 -0.3892
  379SOL    HW2 1288   1.745   0.905   1.981 -0.3101  1.9547 -0.0574
  379SOL    HW3 1289   1.809   0.951   1.852  0.0546  0.5873 -0.3826
  379SOL    MW4 1290   1.743   0.914   1.894  0.4113 -0.0236 -0.3445
  380SOL     OW 1291   0.899   3.518   4.856 -0.3674  0.7363 -0.4415
  380SOL    HW2 1292   0.982   3.487   4.820 -0.8409 -0.9070 -0.2146
  380SOL    HW3 1293   0.908   3.505   4.951 -0.9781  0.2996 -0.4429
  380SOL    MW4 1294   0.911   3.512   4.864 -0.5104  0.4619 -0.4117
  381SOL     OW 1295   1.968   4.530   4.077  0.3126 -0.1290  0.2783
  381SOL    HW2 1296   1.965   4.540   4.172  0.5698 -1.8947  0.5013
  381SOL    HW3 1297   1.877   4.516   4.051  0.0791  1.5239  0.0800
  381SOL    MW4 1298   1.956   4.530   4.086  0.3157 -0.1439  0.2815
  382SOL     OW 1299   5.713   0.916   2.263 -0.2100  0.3818 -0.2866
  382SOL    HW2 1300   5.737   0.825   2.247  4.0067  1.5866 -2.0074
  382SOL    HW3 1301   5.699   0.953   2.175  2.8221  2.3437 -0.0872
  382SOL    MW4 1302   5.714   0.909   2.249  0.7464  0.7996 -0.4873
  383SOL     OW 1303   4.315   0.467   5.984 -0.0387 -0.0822  0.3804
  383SOL    HW2 1304   4.306   0.561   5.998  0.8973  0.1950 -0.7226
  383SOL    HW3 1305   4.226   0.433   5.992 -0.3478  0.8386  1.0807
  383SOL    MW4 1306   4.302   0.474   5.987  0.0440  0.0759  0.3273
  384SOL     OW 1307   2.530   1.481   2.567  0.1231 -0.1217  0.1160
  384SOL    HW2 1308   2.465   1.550   2.556 -1.5988 -1.3912  1.5572
  384SOL    HW3 1309   2.554   1.456   2.478  0.3990  1.9234 -0.4340
  384SOL    MW4 1310   2.524   1.486   2.554 -0.0677 -0.0194  0.2336
  385SOL     OW 1311   0.234   4.426   0.204  0.0496  0.3778 -0.3096
  385SOL    HW2 1312   0.153   4.375   0.196 -0.6308  1.3391  0.2317
  385SOL    HW3 1313   0.204   4.515   0.218  1.2048  0.6313  0.7020
  385SOL    MW4 1314   0.219   4.431   0.205  0.1122  0.5381 -0.1047
  386SOL     OW 1315   5.158   0.516   3.436 -0.4398 -0.0653 -0.0564
  386SOL    HW2 1316   5.134   0.525   3.344  1.7227  1.3010 -0.5540
  386SOL    HW3 1317   5.124   0.430   3.461  0.3351 -1.2265 -2.6333
  386SOL    MW4 1318   5.150   0.506   3.427 -0.0523 -0.0383 -0.4621
  387SOL     OW 1319   1.459   4.308   2.155 -0.4538  0.0944  0.3019
  387SOL    HW2 1320   1.545   4.267   2.170  0.4068  1.1263 -1.4097
  387SOL    HW3 1321   1.414   4.248   2.096  0.8032  1.4340 -2.1990
  387SOL    MW4 1322   1.465   4.295   2.149 -0.1744  0.4073 -0.2538
  388SOL     OW 1323   1.506   5.075   1.436 -0.3404  0.4271  0.5966
  388SOL    HW2 1324   1.581   5.129   1.409 -1.1812  2.0809  1.4024
  388SOL    HW3 1325   1.527   5.049   1.526 -0.1236 -0.2437  0.3517
  388SOL    MW4 1326   1.519   5.079   1.444 -0.4228  0.5568  0.6706
  389SOL     OW 1327   3.042   3.265   4.602 -0.3636 -0.1819  0.0120
  389SOL    HW2 1328   3.060   3.233   4.514 -2.0792  0.8066 -0.7430
  389SOL    HW3 1329   3.101   3.340   4.613  0.1441 -0.5560 -0.1162
  389SOL    MW4 1330   3.052   3.271   4.592 -0.5229 -0.1008 -0.1046
  390SOL     OW 1331   1.267   5.809   5.934  0.2159 -0.8255  1.0515
  390SOL    HW2 1332   1.208   5.775   6.002  0.3451 -1.1232  1.0183
  390SOL    HW3 1333   1.225   5.889   5.903  0.0212 -0.8312  1.2958
  390SOL    MW4 1334   1.254   5.815   5.939  0.2073 -0.8656  1.0794
  391SOL     OW 1335   5.130   3.181   1.049  0.4122  0.6543 -0.4306
  391SOL    HW2 1336   5.081   3.117   1.100 -0.7164  0.4478 -1.7079
  391SOL    HW3 1337   5.141   3.255   1.108  0.8889 -0.3271  0.7441
  391SOL    MW4 1338   5.125   3.183   1.063  0.3262  0.4976 -0.4442
  392SOL     OW 1339   6.353   2.304   3.930 -0.0379  0.7489 -0.0271
  392SOL    HW2 1340   6.395   2.348   3.857  0.4164  1.0322  0.3945
  392SOL    HW3 1341   6.425   2.272   3.984 -0.3463  1.3938  0.7992
  392SOL    MW4 1342   6.368   2.306   3.928 -0.0187  0.8713  0.1376
  393SOL     OW 1343   2.785   6.035   1.531 -0.4656  1.1227  0.0219
  393SOL    HW2 1344   2.824   6.040   1.444 -1.3908 -1.7916 -0.6790
  393SOL    HW3 1345   2.837   5.968   1.577 -2.7949 -0.8230  0.0027
  393SOL    MW4 1346   2.797   6.026   1.526 -0.8950  0.4815 -0.0731
  394SOL     OW 1347   0.328   0.637   5.527  0.0013 -0.4652  0.2079
  394SOL    HW2 1348   0.233   0.621   5.524  0.2055 -1.7551  0.0532
  394SOL    HW3 1349   0.348   0.648   5.620 -0.6902  2.6164  0.0978
  394SOL    MW4 1350   0.318   0.637   5.539 -0.0630 -0.2288  0.1730
  395SOL     OW 1351   4.621   4.337   0.578 -0.0413  0.3569  0.2144
  395SOL    HW2 1352   4.653   4.426   0.563  0.2249  0.2816  0.3207
  395SOL    HW3 1353   4.657   4.313   0.664  0.3773 -0.0660 -0.0723
  395SOL    MW4 1354   4.630   4.345   0.588  0.0491  0.2912  0.1906
  396SOL     OW 1355   1.918   6.193   0.306  0.1542 -0.2845  0.5125
  396SOL    HW2 1356   1.956   6.185   0.394 -0.0793 -2.5497  0.4599
  396SOL    HW3 1357   1.886   6.283   0.302 -0.9959 -0.4955  3.2332
  396SOL    MW4 1358   1.919   6.204   0.317 -0.0284 -0.6112  0.8645
  397SOL     OW 1359   3.310   0.537   5.418  0.4546 -0.1837 -0.2351
  397SOL    HW2 1360   3.387   0.567   5.467  1.2816 -1.8616 -0.4093
  397SOL    HW3 1361   3.343   0.525   5.328  0.4064 -2.1796 -0.0464
  397SOL    MW4 1362   3.325   0.539   5.412  0.5574 -0.6684 -0.2332
  398SOL     OW 1363   2.572   2.659   3.031 -0.1058  0.1125 -0.4201
  398SOL    HW2 1364   2.621   2.690   2.955  0.0775 -0.0935 -0.3866
  398SOL    HW3 1365   2.524   2.583   3.000 -2.2214  1.6080 -1.0749
  398SOL    MW4 1366   2.572   2.653   3.017 -0.3608  0.2826 -0.5021
  399SOL     OW 1367   4.825   3.380   2.951  0.3791 -0.6477 -0.2296
  399SOL    HW2 1368   4.908   3.388   2.905  0.6821 -2.8726 -0.1916
  399SOL    HW3 1369   4.807   3.285   2.953 -0.6559 -0.4951  2.3409
  399SOL    MW4 1370   4.833   3.368   2.945  0.2825 -0.9211  0.1145
  400SOL     OW 1371   2.631   5.638   0.255  0.1548  0.2657  0.7881
  400SOL    HW2 1372   2.638   5.664   0.163  1.8513  0.7510  1.0057
  400SOL    HW3 1373   2.643   5.720   0.304 -0.0239 -0.0903  1.4385
  400SOL    MW4 1374   2.634   5.652   0.250  0.3551  0.2828  0.9026
  401SOL     OW 1375   2.010   4.175   2.226  0.0028 -0.0940  0.7165
  401SOL    HW2 1376   2.047   4.245   2.174  1.0245  0.2347  1.8494
  401SOL    HW3 1377   1.992   4.215   2.312  0.1055 -1.0768  1.2139
  401SOL    MW4 1378   2.012   4.189   2.231  0.1511 -0.1803  0.9316
  402SOL     OW 1379   2.871   2.828   1.253 -0.1807 -0.2482  0.3793
  402SOL    HW2 1380   2.937   2.795   1.192  0.0442 -0.2678  0.6323
  402SOL    HW3 1381   2.839   2.908   1.211  0.7073  0.3020  0.7085
  402SOL    MW4 1382   2.876   2.834   1.239 -0.0338 -0.1782  0.4561
  403SOL     OW 1383   5.279   3.661   2.466 -0.1143 -0.0867 -0.1737
  403SOL    HW2 1384   5.296   3.570   2.492 -2.7377 -0.9823 -1.2477
  403SOL    HW3 1385   5.334   3.675   2.390  0.8998 -0.4948  0.4696
  403SOL    MW4 1386   5.288   3.651   2.460 -0.3266 -0.2587 -0.2305
  404SOL     OW 1387   3.096   1.935   4.781  0.4529  0.1740 -0.7032
  404SOL    HW2 1388   3.007   1.923   4.813  1.1249 -1.1885  0.8467
  404SOL    HW3 1389   3.110   1.864   4.719  0.4913  0.3432 -0.8909
  404SOL    MW4 1390   3.086   1.924   4.777  0.5467  0.0165 -0.5235
  405SOL     OW 1391   0.454   3.714   5.715 -0.6001 -0.3268 -0.1881
  405SOL    HW2 1392   0.420   3.635   5.671 -0.9225 -0.6841  0.6876
  405SOL    HW3 1393   0.536   3.685   5.756  1.0818  0.6245 -2.6340
  405SOL    MW4 1394   0.461   3.700   5.714 -0.4207 -0.2484 -0.3953
  406SOL     OW 1395   3.199   5.380   0.110  0.1289 -0.4674 -0.4446
  406SOL    HW2 1396   3.268   5.349   0.051  1.1906 -0.2086  0.6146
  406SOL    HW3 1397   3.203   5.476   0.103  0.0527 -0.4433 -0.1879
  406SOL    MW4 1398   3.209   5.389   0.101  0.2589 -0.4301 -0.2710
  407SOL     OW 1399   5.795   6.107   0.887  0.0250  0.2906  0.1300
  407SOL    HW2 1400   5.822   6.094   0.978  1.2503 -0.1200 -0.2812
  407SOL    HW3 1401   5.876   6.103   0.836 -0.5617  1.1419 -0.9290
  407SOL    MW4 1402   5.809   6.105   0.892  0.1092  0.3487 -0.0640
  408SOL     OW 1403   2.761   5.963   6.258  0.5476  0.3524  0.0237
  408SOL    HW2 1404   2.817   6.032   6.294 -0.6026  2.2343 -1.5435
  408SOL    HW3 1405   2.682   6.009   6.230 -0.5386 -1.7293 -0.5536
  408SOL    MW4 1406   2.758   5.978   6.259  0.2526  0.3260 -0.2592
  409SOL     OW 1407   0.644   5.751   2.808 -0.8095 -0.0889  0.6756
  409SOL    HW2 1408   0.607   5.786   2.890 -1.7855  1.9601 -0.5664
  409SOL    HW3 1409   0.734   5.784   2.807 -1.2813  1.2547  0.2065
  409SOL    MW4 1410   0.651   5.760   2.819 -1.0005  0.3587  0.4498
  410SOL     OW 1411   4.008   4.429   2.856  0.2528  0.7679  0.5754
  410SOL    HW2 1412   3.951   4.435   2.779  0.3262  2.9090  0.6298
  410SOL    HW3 1413   4.009   4.336   2.878  0.5312  0.0031 -2.2273
  410SOL    MW4 1414   4.001   4.417   2.848  0.2992  0.9495  0.2128
  411SOL     OW 1415   6.159   2.854   0.808 -0.3486  0.3453  0.2623
  411SOL    HW2 1416   6.066   2.871   0.826 -0.0756  3.0269 -0.3374
  411SOL    HW3 1417   6.201   2.939   0.818  1.8546 -0.5478 -0.7016
  411SOL    MW4 1418   6.152   2.868   0.812 -0.0219  0.5813  0.0560
  412SOL     OW 1419   2.439   0.476   2.887  0.2219  0.1258 -0.4808
  412SOL    HW2 1420   2.408   0.461   2.798 -1.2102  0.3463 -0.0411
  412SOL    HW3 1421   2.401   0.560   2.912  0.0967 -0.2243  0.5549
  412SOL    MW4 1422   2.430   0.485   2.878  0.0164  0.1087 -0.2861
  413SOL     OW 1423   3.408   3.294   5.857 -0.0612  0.5481  0.5134
  413SOL    HW2 1424   3.378   3.362   5.918 -1.6787  1.9211 -1.6606
  413SOL    HW3 1425   3.328   3.262   5.815  1.0322  0.5421 -1.7345
  413SOL    MW4 1426   3.394   3.299   5.859 -0.1303  0.7285 -0.0700
  414SOL     OW 1427   2.208   3.959   0.154 -0.0390 -0.2159 -0.5594
  414SOL    HW2 1428   2.131   3.963   0.097 -0.1096  1.1372 -0.4195
  414SOL    HW3 1429   2.232   4.051   0.167  0.8765 -0.5695  0.3799
  414SOL    MW4 1430   2.201   3.972   0.148  0.0725 -0.0841 -0.4170
  415SOL     OW 1431   2.403   5.465   1.877  0.1085  0.0508 -0.3589
  415SOL    HW2 1432   2.423   5.375   1.903  0.3295  0.0887 -0.4017
  415SOL    HW3 1433   2.471   5.488   1.814  0.4108  0.4572  0.1012
  415SOL    MW4 1434   2.415   5.456   1.872  0.1775  0.1094 -0.3038
  416SOL     OW 1435   0.372   4.589   0.716 -0.1260  0.2169  0.1541
  416SOL    HW2 1436   0.428   4.517   0.745  2.0668  0.8192 -2.2556
  416SOL    HW3 1437   0.390   4.660   0.777 -0.2990 -0.4201  0.9611
  416SOL    MW4 1438   0.382   4.589   0.728  0.1405  0.2124 -0.0574
  417SOL     OW 1439   3.125   2.537   5.058 -0.3808  0.6208  0.3185
  417SOL    HW2 1440   3.065   2.538   5.133 -0.4106  0.8779  0.2926
  417SOL    HW3 1441   3.072   2.565   4.984 -0.4922 -0.1951  0.0894
  417SOL    MW4 1442   3.110   2.541   5.058 -0.3995  0.5471  0.2849
  418SOL     OW 1443   2.619   5.365   6.341 -0.4147  0.4934  0.6310
  418SOL    HW2 1444   2.713   5.353   6.327 -0.5391 -0.4976  0.6093
  418SOL    HW3 1445   2.590   5.416   6.265 -0.2795 -1.0917 -0.5433
  418SOL    MW4 1446   2.628   5.370   6.329 -0.4133  0.1535  0.4732
  419SOL     OW 1447   0.436   1.766   1.561  0.1154 -0.0258  0.4078
  419SOL    HW2 1448   0.474   1.847   1.528  0.2350 -0.2297  0.0398
  419SOL    HW3 1449   0.344   1.786   1.575 -0.3878 -0.4652 -1.8908
  419SOL    MW4 1450   0.429   1.779   1.559  0.0648 -0.1107  0.0560
  420SOL     OW 1451   3.941   2.071   1.020 -0.0757 -0.0905  0.1396
  420SOL    HW2 1452   3.995   1.994   1.037 -0.3679 -0.2486  0.3576
  420SOL    HW3 1453   3.978   2.139   1.076 -1.2787 -0.7110  1.7737
  420SOL    MW4 1454   3.953   2.070   1.029 -0.2729 -0.1932  0.3840
  421SOL     OW 1455   3.266   5.069   1.397 -0.3847 -0.6934 -1.0484
  421SOL    HW2 1456   3.224   5.008   1.336 -1.2734  0.1821 -1.3416
  421SOL    HW3 1457   3.196   5.129   1.423  0.6383  0.7252 -1.4185
  421SOL    MW4 1458   3.251   5.069   1.392 -0.3670 -0.3907 -1.1359
  422SOL     OW 1459   3.912   0.058   4.930 -0.0652 -0.0852  0.3693
  422SOL    HW2 1460   3.849  -0.011   4.909  0.4499 -0.4514 -0.0105
  422SOL    HW3 1461   3.983   0.012   4.976  1.3334 -0.2221 -1.8097
  422SOL    MW4 1462   3.913   0.043   4.934  0.1873 -0.1515  0.0317
  423SOL     OW 1463   5.265   5.750   2.402  0.4830 -0.7094  0.3342
  423SOL    HW2 1464   5.170   5.757   2.403  0.4217 -1.3775 -0.2166
  423SOL    HW3 1465   5.294   5.806   2.475 -0.3712 -1.1284  1.0142
  423SOL    MW4 1466   5.256   5.758   2.412  0.3622 -0.8528  0.3512
  424SOL     OW 1467   0.888   0.166   1.634  0.0918 -0.0004 -0.1870
  424SOL    HW2 1468   0.831   0.216   1.575  0.6233  0.0580 -0.6601
  424SOL    HW3 1469   0.839   0.085   1.651  0.6620 -0.8118 -2.1371
  424SOL    MW4 1470   0.874   0.162   1.628  0.2372 -0.0998 -0.5067
  425SOL     OW 1471   0.306   0.679   0.633 -0.3624 -0.2518 -0.1529
  425SOL    HW2 1472   0.294   0.604   0.576 -0.4666 -0.9239  0.7341
  425SOL    HW3 1473   0.399   0.678   0.656 -0.1128  0.5862 -1.0686
  425SOL    MW4 1474   0.317   0.669   0.629 -0.3432 -0.2299 -0.1567
  426SOL     OW 1475   2.917   6.288   1.895  0.6955 -0.6713 -0.0083
  426SOL    HW2 1476   2.823   6.308   1.892  0.7184 -0.5423  0.0977
  426SOL    HW3 1477   2.952   6.323   1.813  0.4700 -1.6839 -0.5558
  426SOL    MW4 1478   2.909   6.295   1.884  0.6688 -0.7878 -0.0666
  427SOL     OW 1479   4.905   3.727   2.371  0.5005 -0.0656  0.2053
  427SOL    HW2 1480   4.966   3.728   2.297  2.0599 -0.4340  1.4387
  427SOL    HW3 1481   4.956   3.760   2.445 -1.4992  1.9141  0.8220
  427SOL    MW4 1482   4.919   3.731   2.371  0.4424  0.1470  0.4494
  428SOL     OW 1483   3.301   2.158   5.614  0.0675  0.3149  0.1343
  428SOL    HW2 1484   3.313   2.139   5.707  1.2963 -0.1348 -0.0964
  428SOL    HW3 1485   3.338   2.246   5.603 -0.9257  0.7663  0.2227
  428SOL    MW4 1486   3.307   2.167   5.625  0.0986  0.3151  0.1155
  429SOL     OW 1487   4.940   0.646   0.180  0.0780 -0.2543  0.1324
  429SOL    HW2 1488   5.032   0.641   0.154 -0.4300 -3.9014 -1.6145
  429SOL    HW3 1489   4.892   0.646   0.097 -1.4862 -2.0321  0.9637
  429SOL    MW4 1490   4.946   0.645   0.166 -0.1954 -0.9700  0.0116
  430SOL     OW 1491   2.760   0.380   2.639  0.1827 -0.2433  0.4949
  430SOL    HW2 1492   2.749   0.457   2.695  0.0720 -0.6812  1.0845
  430SOL    HW3 1493   2.854   0.376   2.622 -0.1231  2.4614 -3.0703
  430SOL    MW4 1494   2.771   0.390   2.644  0.1278  0.0557  0.1023
  431SOL     OW 1495   5.596   6.421   3.642  0.4382  0.0193  0.6719
  431SOL    HW2 1496   5.563   6.510   3.656  1.2139  0.2556  1.0099
  431SOL    HW3 1497   5.688   6.432   3.619 -0.0396 -0.5141 -1.9000
  431SOL    MW4 1498   5.604   6.434   3.641  0.4775 -0.0199  0.3771
  432SOL     OW 1499   3.681   3.553   6.000 -0.3505  0.6826 -0.8881
  432SOL    HW2 1500   3.763   3.508   6.018 -0.7172 -0.1296 -1.2141
  432SOL    HW3 1501   3.704   3.621   5.936 -0.2437 -0.6888 -2.3438
  432SOL    MW4 1502   3.694   3.556   5.994 -0.3848  0.3945 -1.1232
  433SOL     OW 1503   5.533   4.397   1.933  0.6585  0.3278  0.4410
  433SOL    HW2 1504   5.532   4.386   1.838  0.5535 -1.0887  0.5895
  433SOL    HW3 1505   5.543   4.309   1.968 -0.8959  0.6392  1.8026
  433SOL    MW4 1506   5.534   4.384   1.925  0.4396  0.1820  0.6402
  434SOL     OW 1507   3.870   3.607   4.516  0.1451  0.0552 -0.5312
  434SOL    HW2 1508   3.792   3.572   4.561  0.5107  1.5591  1.4136
  434SOL    HW3 1509   3.867   3.701   4.533  1.5271  0.3716 -1.8427
  434SOL    MW4 1510   3.859   3.614   4.524  0.3756  0.2954 -0.4476
  435SOL     OW 1511   1.150   5.413   4.250  0.0721 -0.5368  0.2486
  435SOL    HW2 1512   1.145   5.493   4.303 -1.5946 -0.0555 -0.5650
  435SOL    HW3 1513   1.241   5.410   4.220  0.4902  0.3470  1.3530
  435SOL    MW4 1514   1.161   5.423   4.253 -0.0927 -0.3567  0.2870
  436SOL     OW 1515   3.582   2.469   4.642  0.0385 -0.1153 -0.3647
  436SOL    HW2 1516   3.561   2.391   4.693 -0.4343  0.2384 -0.0044
  436SOL    HW3 1517   3.508   2.480   4.583 -0.7537  1.0471  0.8016
  436SOL    MW4 1518   3.570   2.460   4.641 -0.1284  0.0847 -0.1633
  437SOL     OW 1519   3.310   5.107   3.376 -0.1263  0.2917 -0.3711
  437SOL    HW2 1520   3.307   5.074   3.466  1.1293 -0.4777 -0.5801
  437SOL    HW3 1521   3.307   5.202   3.385  0.4313  0.2393  0.5237
  437SOL    MW4 1522   3.309   5.115   3.389  0.1129  0.1833 -0.2806
  438SOL     OW 1523   3.360   3.241   4.998  0.2883  0.0668 -0.3320
  438SOL    HW2 1524   3.295   3.181   4.961  1.8815 -1.8096 -0.2443
  438SOL    HW3 1525   3.373   3.210   5.088  1.7067  0.0449 -0.5270
  438SOL    MW4 1526   3.353   3.229   5.005  0.6856 -0.1837 -0.3461
  439SOL     OW 1527   1.097   5.645   3.332  0.5260  0.4554 -0.3689
  439SOL    HW2 1528   1.053   5.662   3.248  1.6175 -1.8813 -1.5325
  439SOL    HW3 1529   1.131   5.556   3.322  0.3823 -0.0351  2.7404
  439SOL    MW4 1530   1.095   5.635   3.319  0.6510  0.0824 -0.1122
  440SOL     OW 1531   4.684   3.110   0.438  0.0103 -0.2853  0.7028
  440SOL    HW2 1532   4.764   3.125   0.487 -1.1268  1.0874  2.2705
  440SOL    HW3 1533   4.704   3.037   0.380  1.8076 -1.1912  2.3599
  440SOL    MW4 1534   4.697   3.103   0.437  0.0974 -0.2237  1.1283
  441SOL     OW 1535   1.001   4.022   6.137 -0.2136  0.2784 -0.7250
  441SOL    HW2 1536   0.962   4.108   6.149 -0.1110  0.0726  1.5906
  441SOL    HW3 1537   1.094   4.040   6.121 -0.5498  0.6353 -2.4157
  441SOL    MW4 1538   1.008   4.036   6.137 -0.2444  0.2983 -0.6426
  442SOL     OW 1539   2.305   1.668   1.022  0.0777  0.4066  0.9654
  442SOL    HW2 1540   2.331   1.760   1.024  1.4915  0.0169  1.7603
  442SOL    HW3 1541   2.289   1.650   0.929 -0.0086  1.3880  0.7776
  442SOL    MW4 1542   2.306   1.678   1.010  0.2528  0.4847  1.0455
  443SOL     OW 1543   2.832   3.232   5.221  0.4065 -0.1052  0.0948
  443SOL    HW2 1544   2.773   3.159   5.239 -0.1899  0.6491  1.3113
  443SOL    HW3 1545   2.860   3.263   5.307  1.8426  0.1677 -0.4271
  443SOL    MW4 1546   2.828   3.226   5.235  0.5173  0.0303  0.1865
  444SOL     OW 1547   2.714   1.101   1.326  0.4813  0.7726 -0.1724
  444SOL    HW2 1548   2.684   1.178   1.278 -0.6779  2.3515  2.8144
  444SOL    HW3 1549   2.795   1.129   1.368  0.3000  0.2130  0.5675
  444SOL    MW4 1550   2.720   1.114   1.325  0.3045  0.9071  0.3193
  445SOL     OW 1551   2.682   3.290   5.861 -0.2769  0.0752 -0.4196
  445SOL    HW2 1552   2.703   3.241   5.940 -0.2334 -0.4598 -0.7510
  445SOL    HW3 1553   2.702   3.229   5.790 -1.0174  0.2761 -0.8137
  445SOL    MW4 1554   2.687   3.275   5.862 -0.3689  0.0311 -0.5153
  446SOL     OW 1555   4.883   1.962   1.756  0.0023 -0.5464  0.2167
  446SOL    HW2 1556   4.830   2.041   1.742 -1.5795 -1.2340  1.9903
  446SOL    HW3 1557   4.919   1.942   1.669 -0.6379  1.3396 -0.5413
  446SOL    MW4 1558   4.881   1.970   1.742 -0.2909 -0.3883  0.3507
  447SOL     OW 1559   3.389   3.563   2.971 -0.4039 -0.2386 -0.1785
  447SOL    HW2 1560   3.477   3.526   2.978  0.6333  1.8311 -1.1979
  447SOL    HW3 1561   3.347   3.514   2.901 -0.1819 -1.4085  0.4777
  447SOL    MW4 1562   3.395   3.552   2.963 -0.2378 -0.1199 -0.2264
  448SOL     OW 1563   5.643   1.849   4.374 -0.4750  0.1702 -0.6416
  448SOL    HW2 1564   5.686   1.879   4.454  0.1640 -0.7413 -0.6215
  448SOL    HW3 1565   5.662   1.916   4.309  0.2098  0.2327 -0.3868
  448SOL    MW4 1566   5.651   1.862   4.376 -0.3004  0.0582 -0.6054
  449SOL     OW 1567   5.210   6.065   4.817  0.3844  0.3926 -0.4334
  449SOL    HW2 1568   5.214   6.040   4.725 -1.4309 -1.8727  0.0180
  449SOL    HW3 1569   5.149   6.139   4.819 -0.4530 -0.2758 -0.9328
  449SOL    MW4 1570   5.203   6.071   4.805  0.0344  0.0055 -0.4397
  450SOL     OW 1571   5.081   4.118   4.491 -0.2180 -0.5059  0.1361
  450SOL    HW2 1572   5.107   4.187   4.553 -1.2276  1.3157 -1.3689
  450SOL    HW3 1573   5.118   4.147   4.407 -1.6060 -1.2280 -0.7474
  450SOL    MW4 1574   5.089   4.131   4.488 -0.5343 -0.3609 -0.1790
  451SOL     OW 1575   5.111   2.772   0.897  0.0673  0.0561  0.0163
  451SOL    HW2 1576   5.142   2.852   0.854 -2.3235  1.0171 -0.0902
  451SOL    HW3 1577   5.157   2.701   0.852  1.0704  1.2770 -0.9667
  451SOL    MW4 1578   5.121   2.773   0.885 -0.1158  0.3440 -0.1275
  452SOL     OW 1579   0.197   2.779   3.071 -0.3487 -0.1749  0.2828
  452SOL    HW2 1580   0.213   2.847   3.006 -1.7777 -0.1105 -0.0352
  452SOL    HW3 1581   0.112   2.743   3.047 -0.2135 -1.1821  1.2363
  452SOL    MW4 1582   0.188   2.783   3.059 -0.5194 -0.2993  0.3666
  453SOL     OW 1583   4.731   4.251   0.810 -0.0211 -0.2876 -0.4622
  453SOL    HW2 1584   4.709   4.170   0.856 -2.2848  1.2603  1.3974
  453SOL    HW3 1585   4.747   4.315   0.880  3.2099  0.6096 -1.8514
  453SOL    MW4 1586   4.730   4.249   0.825  0.1065  0.0350 -0.4001
  454SOL     OW 1587   2.856   2.940   6.271  0.7068 -0.0688 -0.1439
  454SOL    HW2 1588   2.942   2.899   6.278  0.9343 -0.7942 -4.5260
  454SOL    HW3 1589   2.873   3.031   6.249  0.2798  0.2405  0.7374
  454SOL    MW4 1590   2.869   2.946   6.269  0.6805 -0.1237 -0.6057
  455SOL     OW 1591   2.112   1.220   3.296 -0.1985  0.1083  0.0657
  455SOL    HW2 1592   2.159   1.147   3.334 -1.8121 -0.5175  0.9854
  455SOL    HW3 1593   2.165   1.248   3.222  1.8184 -0.2246  1.3106
  455SOL    MW4 1594   2.125   1.214   3.291 -0.1453 -0.0182  0.3513
  456SOL     OW 1595   5.574   5.276   0.952  0.7068 -0.0245  0.6795
  456SOL    HW2 1596   5.612   5.353   0.994  0.4819  0.0185  0.8035
  456SOL    HW3 1597   5.545   5.220   1.025  2.2261 -0.9263  0.6463
  456SOL    MW4 1598   5.575   5.279   0.967  0.8776 -0.1378  0.6915
  457SOL     OW 1599   3.519   0.994   3.972 -0.4098 -0.1837  0.4895
  457SOL    HW2 1600   3.485   1.002   4.061 -0.8097 -0.7658  0.3936
  457SOL    HW3 1601   3.547   0.903   3.964 -0.4561 -0.1610 -0.0050
  457SOL    MW4 1602   3.518   0.983   3.982 -0.4687 -0.2575  0.4116
  458SOL     OW 1603   2.779   4.512   3.685 -0.4125 -0.0391  0.7074
  458SOL    HW2 1604   2.717   4.495   3.614  0.2870  0.3492 -0.0158
  458SOL    HW3 1605   2.737   4.476   3.763 -0.3140 -2.3603 -0.2223
  458SOL    MW4 1606   2.765   4.505   3.686 -0.3072 -0.2941  0.4893
  459SOL     OW 1607   5.798   4.170   0.069 -0.2246 -0.2187 -0.3665
  459SOL    HW2 1608   5.790   4.188   0.163  0.9219  2.7893 -0.7198
  459SOL    HW3 1609   5.891   4.182   0.049 -0.6274  0.4899 -2.0574
  459SOL    MW4 1610   5.809   4.174   0.079 -0.1265  0.2716 -0.6362
  460SOL     OW 1611   1.890   4.445   1.594  0.3789 -0.3956 -0.1423
  460SOL    HW2 1612   1.850   4.516   1.543  0.5748  0.2389  0.5626
  460SOL    HW3 1613   1.857   4.365   1.554  0.8949  0.0683 -1.5581
  460SOL    MW4 1614   1.880   4.444   1.582  0.4728 -0.2506 -0.2361
  461SOL     OW 1615   4.537   4.155   1.572 -0.0522  0.0774  0.5173
  461SOL    HW2 1616   4.454   4.120   1.605  0.1841 -1.4904 -0.4672
  461SOL    HW3 1617   4.598   4.082   1.576  1.1939  1.0856  0.7939
  461SOL    MW4 1618   4.534   4.141   1.577  0.1434  0.0035  0.4239
  462SOL     OW 1619   3.385   5.005   3.974 -0.4186  0.1002  0.4535
  462SOL    HW2 1620   3.443   5.074   4.008 -1.4414  0.7319  0.9881
  462SOL    HW3 1621   3.320   5.052   3.922  0.6217 -0.7737 -1.7815
  462SOL    MW4 1622   3.384   5.021   3.972 -0.4162  0.0683  0.2291
  463SOL     OW 1623   2.771   0.818   1.210  0.1040  0.1447  0.2813
  463SOL    HW2 1624   2.747   0.909   1.228  1.0725  0.6746 -1.0407
  463SOL    HW3 1625   2.807   0.786   1.293 -2.6202  0.1016  1.5790
  463SOL    MW4 1626   2.772   0.826   1.224 -0.1277  0.2089  0.2781
  464SOL     OW 1627   4.767   6.369   3.606 -0.3965 -0.1562 -0.4791
  464SOL    HW2 1628   4.853   6.327   3.609 -1.1361 -1.6549  0.7787
  464SOL    HW3 1629   4.786   6.461   3.589  1.5965 -0.0930  1.7087
  464SOL    MW4 1630   4.781   6.376   3.604 -0.2312 -0.3456 -0.0245
  465SOL     OW 1631   1.202   0.821   4.910  0.0380 -0.4638  0.0571
  465SOL    HW2 1632   1.244   0.778   4.985 -2.2144 -0.7110  1.2595
  465SOL    HW3 1633   1.245   0.907   4.905  1.6064 -1.1871  0.3255
  465SOL    MW4 1634   1.213   0.827   4.919 -0.0522 -0.5919  0.2511
  466SOL     OW 1635   1.124   3.969   0.003 -0.2946 -0.6305  0.1456
  466SOL    HW2 1636   1.069   3.962   0.081 -0.2747 -0.2144  0.1972
  466SOL    HW3 1637   1.074   3.924  -0.065 -1.6767  1.5011 -0.3354
  466SOL    MW4 1638   1.110   3.962   0.004 -0.4743 -0.2944  0.0890
  467SOL     OW 1639   0.065   3.179   6.244 -0.5317 -0.0169  0.2613
  467SOL    HW2 1640   0.031   3.265   6.221 -0.2975  0.0085  0.0042
  467SOL    HW3 1641  -0.011   3.122   6.244 -1.1303  0.6377  2.7985
  467SOL    MW4 1642   0.050   3.183   6.241 -0.5798  0.0728  0.5621
  468SOL     OW 1643   4.834   4.940   5.327  0.0736  0.3234 -0.6140
  468SOL    HW2 1644   4.921   4.908   5.304 -1.0345 -2.1392 -1.6804
  468SOL    HW3 1645   4.801   4.981   5.247 -0.6271 -0.8838 -0.9637
  468SOL    MW4 1646   4.841   4.941   5.314 -0.1651 -0.1608 -0.8008
  469SOL     OW 1647   6.052   1.027   4.765 -0.3898  0.9511 -0.3818
  469SOL    HW2 1648   5.958   1.018   4.748 -0.0070 -0.0290 -2.3344
  469SOL    HW3 1649   6.077   0.943   4.805  0.3965 -0.9923 -4.3312
  469SOL    MW4 1650   6.043   1.015   4.768 -0.2355  0.5653 -1.1605
  470SOL     OW 1651   0.637   5.570   2.363 -0.0141  0.1133 -0.0549
  470SOL    HW2 1652   0.572   5.640   2.373  0.9393  0.9142  0.6914
  470SOL    HW3 1653   0.633   5.522   2.446 -0.9765 -1.0196 -0.7275
  470SOL    MW4 1654   0.628   5.573   2.375 -0.0153  0.0695 -0.0451
  471SOL     OW 1655   6.152   0.971   2.541  0.2022 -0.1158 -0.5484
  471SOL    HW2 1656   6.075   0.978   2.598  1.2675  0.6840  0.8621
  471SOL    HW3 1657   6.116   0.964   2.453 -1.4950 -0.2700  0.1134
  471SOL    MW4 1658   6.137   0.971   2.537  0.1188 -0.0306 -0.2750
  472SOL     OW 1659   1.654   5.221   2.257 -0.1848  0.2364 -0.7417
  472SOL    HW2 1660   1.629   5.307   2.290 -0.0577  0.1356 -0.3837
  472SOL    HW3 1661   1.647   5.230   2.162  1.8977  1.3311 -0.8733
  472SOL    MW4 1662   1.650   5.234   2.248  0.1067  0.3675 -0.7118
  473SOL     OW 1663   0.052   0.369   1.903  0.0993 -0.3386  0.2398
  473SOL    HW2 1664  -0.011   0.393   1.836  1.0842  2.1588  0.1002
  473SOL    HW3 1665   0.060   0.274   1.895 -1.3641 -0.3636 -1.7410
  473SOL    MW4 1666   0.045   0.359   1.893  0.0362 -0.0124 -0.0400
  474SOL     OW 1667   0.626   1.218   1.266 -0.0795  0.7313 -0.5707
  474SOL    HW2 1668   0.633   1.294   1.324  1.0604  0.7542 -0.7012
  474SOL    HW3 1669   0.714   1.179   1.268 -0.8649 -1.1179  0.1852
  474SOL    MW4 1670   0.639   1.223   1.274 -0.0327  0.4904 -0.4882
  475SOL     OW 1671   0.762   0.444   2.942  0.1124 -0.6237  0.2342
  475SOL    HW2 1672   0.839   0.414   2.894 -0.7203 -0.9324 -0.9625
  475SOL    HW3 1673   0.695   0.377   2.924 -1.1717  0.8686 -0.7767
  475SOL    MW4 1674   0.763   0.431   2.933 -0.1669 -0.4676 -0.0570
  476SOL     OW 1675   1.257   2.321   0.990  0.0092 -0.2749  0.1624
  476SOL    HW2 1676   1.261   2.383   0.917 -0.4698 -0.8748 -0.3737
  476SOL    HW3 1677   1.295   2.370   1.064 -0.8282  0.8484 -0.1133
  476SOL    MW4 1678   1.263   2.336   0.990 -0.1645 -0.2058  0.0553
  477SOL     OW 1679   3.398   1.354   1.503 -0.3361 -0.2505 -0.3340
  477SOL    HW2 1680   3.391   1.362   1.408  0.8754  1.3248 -0.3345
  477SOL    HW3 1681   3.405   1.444   1.535  1.1907 -0.8065  1.0554
  477SOL    MW4 1682   3.398   1.367   1.495  0.0252 -0.1160 -0.1507
  478SOL     OW 1683   4.489   4.585   1.827 -0.2291  0.0825  0.6304
  478SOL    HW2 1684   4.472   4.668   1.871  0.8240 -0.2508  1.6984
  478SOL    HW3 1685   4.539   4.610   1.749  0.0777  0.4626  0.9414
  478SOL    MW4 1686   4.493   4.600   1.822 -0.0497  0.0887  0.8123
  479SOL     OW 1687   6.127   3.795   4.256 -0.1044  0.1538  0.1171
  479SOL    HW2 1688   6.032   3.786   4.247 -0.1507 -0.5594  1.0565
  479SOL    HW3 1689   6.138   3.869   4.316 -0.0467  0.4865 -0.2999
  479SOL    MW4 1690   6.116   3.803   4.263 -0.1029  0.1036  0.1860
  480SOL     OW 1691   6.009   5.662   3.300  0.6541 -0.4517  0.1546
  480SOL    HW2 1692   5.957   5.621   3.369  0.8091 -1.6945 -0.4572
  480SOL    HW3 1693   5.958   5.740   3.276 -0.6943 -1.3778 -0.1054
  480SOL    MW4 1694   5.995   5.667   3.306  0.4967 -0.7379  0.0396
  481SOL     OW 1695   3.078   5.253   2.036 -0.0766 -0.3756 -1.1974
  481SOL    HW2 1696   3.030   5.259   2.119 -1.1295 -0.3089 -1.7950
  481SOL    HW3 1697   3.074   5.160   2.013 -1.7111 -0.0847 -2.2502
  481SOL    MW4 1698   3.071   5.242   2.044 -0.4312 -0.3285 -1.4151
  482SOL     OW 1699   3.099   0.575   4.570 -0.6724 -0.0618  0.5281
  482SOL    HW2 1700   3.163   0.596   4.501  1.4878  0.2582  2.5006
  482SOL    HW3 1701   3.085   0.480   4.561 -0.3522 -0.0443 -0.2743
  482SOL    MW4 1702   3.106   0.565   4.559 -0.3451 -0.0173  0.6825
  483SOL     OW 1703   1.441   3.135   3.019  0.5382 -0.1648 -1.0937
  483SOL    HW2 1704   1.433   3.230   3.025 -0.2516  0.0889 -4.2865
  483SOL    HW3 1705   1.387   3.101   3.090  0.4615  1.7661 -0.1885
  483SOL    MW4 1706   1.433   3.143   3.029  0.4239  0.1234 -1.3955
  484SOL     OW 1707   2.436   1.967   0.627  0.4107  1.1412 -0.1437
  484SOL    HW2 1708   2.354   1.919   0.632  0.2975  1.0751 -2.0877
  484SOL    HW3 1709   2.478   1.937   0.546  1.6104  2.3143 -0.0084
  484SOL    MW4 1710   2.431   1.957   0.617  0.5541  1.2873 -0.3824
  485SOL     OW 1711   6.047   0.940   0.170 -0.1996  0.0346 -0.0822
  485SOL    HW2 1712   6.127   0.888   0.181 -0.7154 -0.5866  0.8445
  485SOL    HW3 1713   6.070   1.005   0.104  1.0332 -0.2251  0.0641
  485SOL    MW4 1714   6.061   0.942   0.163 -0.1050 -0.0816  0.0594
  486SOL     OW 1715   3.458   5.331   1.922 -0.5045 -0.5352  0.0736
  486SOL    HW2 1716   3.523   5.382   1.970 -0.0710 -0.1849 -0.8509
  486SOL    HW3 1717   3.410   5.283   1.989  1.5315 -1.7892  0.7161
  486SOL    MW4 1718   3.460   5.332   1.937 -0.1787 -0.6545  0.0364
  487SOL     OW 1719   4.421   6.389   5.663 -0.0906 -0.4711 -0.1284
  487SOL    HW2 1720   4.384   6.320   5.609 -0.1559  1.2802 -2.4956
  487SOL    HW3 1721   4.346   6.425   5.711 -0.2232 -1.3312  0.3242
  487SOL    MW4 1722   4.406   6.385   5.662 -0.1167 -0.3535 -0.3810
  488SOL     OW 1723   5.731   5.200   2.006  0.2887  0.2099  0.3007
  488SOL    HW2 1724   5.755   5.243   1.924 -1.2437  1.6602  0.5650
  488SOL    HW3 1725   5.642   5.169   1.992  0.9359 -1.8974  0.5470
  488SOL    MW4 1726   5.723   5.202   1.994  0.1719  0.1232  0.3680
  489SOL     OW 1727   3.024   0.351   2.637  0.0868  0.1989  0.1642
  489SOL    HW2 1728   3.074   0.307   2.568  1.1774  0.8394  0.5210
  489SOL    HW3 1729   3.061   0.316   2.719  0.9073  1.6675  0.4505
  489SOL    MW4 1730   3.036   0.340   2.639  0.3389  0.4772  0.2491
  490SOL     OW 1731   1.176   4.246   0.458  0.0457 -0.3630  0.8946
  490SOL    HW2 1732   1.143   4.238   0.548 -0.1478  0.9557  0.9610
  490SOL    HW3 1733   1.232   4.324   0.460 -0.9953  0.4505 -0.4242
  490SOL    MW4 1734   1.179   4.255   0.471 -0.1171 -0.0817  0.7294
  491SOL     OW 1735   1.693   0.529   1.582  0.5972  0.7614 -0.3917
  491SOL    HW2 1736   1.607   0.498   1.612 -0.2041  1.7512 -1.5561
  491SOL    HW3 1737   1.728   0.577   1.657  0.8741 -0.9782  0.6505
  491SOL    MW4 1738   1.686   0.532   1.596  0.5280  0.6625 -0.4078
  492SOL     OW 1739   4.641   0.170   2.262 -0.3188 -0.0413 -0.6188
  492SOL    HW2 1740   4.658   0.261   2.239 -1.7904  0.6857  0.9943
  492SOL    HW3 1741   4.728   0.129   2.266  0.3419  1.2299 -1.5315
  492SOL    MW4 1742   4.654   0.176   2.259 -0.4258  0.2223 -0.5264
  493SOL     OW 1743   3.249   3.741   5.582 -0.2820 -0.2285 -0.1182
  493SOL    HW2 1744   3.325   3.696   5.620 -0.7045 -0.7023  0.1799
  493SOL    HW3 1745   3.205   3.781   5.656 -1.9606 -2.4190  0.1834
  493SOL    MW4 1746   3.254   3.740   5.597 -0.5592 -0.5800 -0.0391
  494SOL     OW 1747   5.410   0.095   1.801  0.0494 -0.6444 -0.3942
  494SOL    HW2 1748   5.480   0.144   1.758 -1.1678  0.8569 -0.7556
  494SOL    HW3 1749   5.416   0.120   1.893  0.8001 -1.5701 -0.1715
  494SOL    MW4 1750   5.420   0.105   1.807 -0.0121 -0.5684 -0.4125
  495SOL     OW 1751   5.095   3.666   6.354 -0.2052  0.0979 -0.2437
  495SOL    HW2 1752   5.121   3.588   6.402 -0.2945 -0.3410 -0.8970
  495SOL    HW3 1753   5.036   3.712   6.413 -0.9463 -0.8395 -0.2226
  495SOL    MW4 1754   5.091   3.662   6.368 -0.3147 -0.0837 -0.3271
  496SOL     OW 1755   6.362   1.904   5.288 -0.2137  0.4768 -0.0371
  496SOL    HW2 1756   6.383   1.810   5.292 -1.2587  0.1982 -0.8327
  496SOL    HW3 1757   6.281   1.909   5.239  0.1473  1.8711 -0.5458
  496SOL    MW4 1758   6.354   1.892   5.282 -0.3040  0.6240 -0.2092
  497SOL     OW 1759   0.043   4.760   0.041  0.4254 -0.3599  0.2195
  497SOL    HW2 1760   0.085   4.725   0.119  1.2151  1.3573  0.6256
  497SOL    HW3 1761   0.115   4.795  -0.011 -0.1112 -1.3127 -1.2050
  497SOL    MW4 1762   0.058   4.760   0.044  0.4588 -0.2590  0.0851
  498SOL     OW 1763   3.690   1.907   4.868 -0.0772 -0.9753 -0.3084
  498SOL    HW2 1764   3.625   1.873   4.930 -2.4534  2.3218 -0.7525
  498SOL    HW3 1765   3.748   1.961   4.921 -0.9749  0.3430 -0.6416
  498SOL    MW4 1766   3.689   1.909   4.883 -0.5091 -0.3664 -0.4109
  499SOL     OW 1767   0.325   4.569   2.029  0.0845  0.1594 -0.2187
  499SOL    HW2 1768   0.346   4.508   1.958  0.7443 -1.1689  1.0689
  499SOL    HW3 1769   0.399   4.563   2.089 -0.9584  0.4067  1.1364
  499SOL    MW4 1770   0.337   4.560   2.027  0.0340  0.0168  0.1300
  500SOL     OW 1771   5.010   3.617   3.627  0.4126 -0.4150  0.0078
  500SOL    HW2 1772   5.049   3.702   3.606  2.4611 -1.1862  0.4307
  500SOL    HW3 1773   5.080   3.570   3.673 -1.0930 -1.8746  0.8936
  500SOL    MW4 1774   5.025   3.622   3.631  0.4842 -0.7094  0.1804
  501SOL     OW 1775   4.209   1.303   3.293  0.0545 -0.1474 -0.0223
  501SOL    HW2 1776   4.217   1.332   3.202 -1.5435  1.7438  0.3679
  501SOL    HW3 1777   4.266   1.362   3.342  1.9781 -2.0254  0.1200
  501SOL    MW4 1778   4.218   1.315   3.288  0.0975 -0.1456  0.0479
  502SOL     OW 1779   3.221   3.469   1.219  0.1595  0.1142  0.2058
  502SOL    HW2 1780   3.264   3.554   1.220 -0.4816  0.4607 -0.3486
  502SOL    HW3 1781   3.186   3.459   1.307  0.1124  0.4939  0.2329
  502SOL    MW4 1782   3.222   3.479   1.230  0.0687  0.2100  0.1363
  503SOL     OW 1783   3.815   1.293   1.343  0.4020  0.5500 -0.4088
  503SOL    HW2 1784   3.727   1.263   1.367  0.2772  2.1288  1.4002
  503SOL    HW3 1785   3.800   1.371   1.290  0.7331 -0.1758 -1.6014
  503SOL    MW4 1786   3.801   1.299   1.339  0.4292  0.6625 -0.3275
  504SOL     OW 1787   1.315   5.174   3.180 -0.1307  0.4457  0.4455
  504SOL    HW2 1788   1.239   5.119   3.201  0.6386 -1.0061 -0.4169
  504SOL    HW3 1789   1.291   5.261   3.212 -2.4670  0.2021 -0.4481
  504SOL    MW4 1790   1.302   5.179   3.187 -0.3374  0.2220  0.2138
  505SOL     OW 1791   0.935   6.229   3.321  0.1726  0.9352  0.7492
  505SOL    HW2 1792   0.891   6.146   3.301 -1.0207  1.9495 -1.0548
  505SOL    HW3 1793   1.023   6.202   3.349  0.5402 -0.8961 -1.7659
  505SOL    MW4 1794   0.941   6.214   3.322  0.0636  0.8274  0.1793
  506SOL     OW 1795   4.752   6.240   4.040  0.1052 -0.7187 -0.1481
  506SOL    HW2 1796   4.765   6.147   4.062  0.9917 -0.8774 -1.1944
  506SOL    HW3 1797   4.679   6.268   4.094 -0.8930 -2.3293 -0.5854
  506SOL    MW4 1798   4.744   6.231   4.050  0.0904 -0.9521 -0.3438
  507SOL     OW 1799   0.794   1.449   3.399  0.0998  0.3394  0.6842
  507SOL    HW2 1800   0.801   1.399   3.318  1.1335 -2.3144  2.2851
  507SOL    HW3 1801   0.859   1.518   3.390  0.9357 -0.5439 -0.3517
  507SOL    MW4 1802   0.803   1.452   3.387  0.3465 -0.1272  0.7587
  508SOL     OW 1803   5.105   2.184   5.270  0.1857  0.4519  0.0134
  508SOL    HW2 1804   5.101   2.184   5.366  0.3840 -0.6462  0.0401
  508SOL    HW3 1805   5.147   2.266   5.247 -3.9509  3.0720  0.6475
  508SOL    MW4 1806   5.110   2.195   5.280 -0.3339  0.6527  0.1006
  509SOL     OW 1807   3.463   2.392   5.588 -0.0932  0.4631 -0.3579
  509SOL    HW2 1808   3.494   2.469   5.635  1.1012  0.4530 -1.0895
  509SOL    HW3 1809   3.543   2.344   5.565 -0.8395 -1.8170  1.3928
  509SOL    MW4 1810   3.478   2.395   5.591 -0.0341  0.1609 -0.2235
  510SOL     OW 1811   5.629   5.317   5.200 -0.6012 -0.5705 -0.2408
  510SOL    HW2 1812   5.648   5.280   5.285 -0.7581  1.6443  0.8360
  510SOL    HW3 1813   5.716   5.331   5.160 -0.1908  2.0357  1.2932
  510SOL    MW4 1814   5.643   5.314   5.206 -0.5677  0.0656  0.1037
  511SOL     OW 1815   4.069   0.484   3.532 -0.1933  0.4502 -0.2264
  511SOL    HW2 1816   3.994   0.445   3.576 -0.1344  2.7114  2.1326
  511SOL    HW3 1817   4.032   0.546   3.469 -0.3711  1.5703  0.9421
  511SOL    MW4 1818   4.054   0.487   3.530 -0.2090  0.8963  0.2390
  512SOL     OW 1819   1.229   1.664   3.176  0.3508 -0.6285  0.5373
  512SOL    HW2 1820   1.300   1.712   3.134  0.3587 -0.0732  1.1647
  512SOL    HW3 1821   1.155   1.724   3.175  0.1827 -0.8274  0.7989
  512SOL    MW4 1822   1.228   1.678   3.170  0.3297 -0.5815  0.6546
  513SOL     OW 1823   6.337   4.448   0.958  0.3613  0.1379 -0.4290
  513SOL    HW2 1824   6.389   4.472   0.882  0.9216  1.0421  0.2163
  513SOL    HW3 1825   6.320   4.531   1.003  1.5549 -0.5123  1.3655
  513SOL    MW4 1826   6.342   4.462   0.954  0.5927  0.1714 -0.1071
  514SOL     OW 1827   3.301   5.038   4.330 -0.4767  0.5573 -0.1533
  514SOL    HW2 1828   3.394   5.039   4.305 -0.2498 -0.1698  0.6090
  514SOL    HW3 1829   3.299   4.988   4.412 -1.5824  0.2946 -0.3236
  514SOL    MW4 1830   3.313   5.031   4.338 -0.5926  0.4267 -0.0752
  515SOL     OW 1831   5.103   3.506   3.388  0.0434 -0.6689 -0.3010
  515SOL    HW2 1832   5.059   3.563   3.450  0.2401  0.4775 -1.1780
  515SOL    HW3 1833   5.032   3.465   3.338 -0.0710 -0.2622 -0.4712
  515SOL    MW4 1834   5.088   3.508   3.389  0.0543 -0.4640 -0.4392
  516SOL     OW 1835   3.001   2.861   4.751 -0.4571 -0.2047  0.2872
  516SOL    HW2 1836   2.927   2.891   4.803 -0.8762  1.2640 -1.0706
  516SOL    HW3 1837   2.974   2.876   4.660  1.2553 -0.2535 -0.2682
  516SOL    MW4 1838   2.987   2.867   4.746 -0.2864 -0.0173  0.0348
  517SOL     OW 1839   4.700   3.469   1.215 -0.0333  0.2389  0.1365
  517SOL    HW2 1840   4.648   3.542   1.182  1.3864  0.9905 -0.5733
  517SOL    HW3 1841   4.723   3.494   1.304  1.3145  1.2283 -0.4357
  517SOL    MW4 1842   4.696   3.482   1.222  0.3318  0.4686 -0.0327
  518SOL     OW 1843   2.472   2.803   2.190 -0.2801  0.3218  0.3731
  518SOL    HW2 1844   2.410   2.743   2.231  0.6006 -0.5868  0.4234
  518SOL    HW3 1845   2.479   2.773   2.099  1.4431 -0.7577  0.8213
  518SOL    MW4 1846   2.465   2.791   2.183  0.0635  0.0595  0.4389
  519SOL     OW 1847   1.414   4.928   0.495 -0.1825  0.0039 -0.8763
  519SOL    HW2 1848   1.469   4.868   0.443  0.7587  0.4888 -0.4587
  519SOL    HW3 1849   1.473   5.000   0.519 -0.4905 -0.3561  1.1317
  519SOL    MW4 1850   1.429   4.929   0.491 -0.0989  0.0204 -0.5563
  520SOL     OW 1851   3.930   6.422   0.729 -0.2043 -0.0327 -0.2081
  520SOL    HW2 1852   3.907   6.402   0.638  1.6625 -1.7365 -0.3706
  520SOL    HW3 1853   3.880   6.360   0.781 -0.8653  0.5927 -0.0740
  520SOL    MW4 1854   3.920   6.411   0.724 -0.0452 -0.1750 -0.2119
  521SOL     OW 1855   2.346   2.944   0.915 -0.6849  0.0086  0.3624
  521SOL    HW2 1856   2.375   2.867   0.866 -2.1154  0.1445 -0.7585
  521SOL    HW3 1857   2.251   2.946   0.903 -0.5670  2.6121 -0.6364
  521SOL    MW4 1858   2.337   2.934   0.907 -0.8580  0.3701  0.0827
  522SOL     OW 1859   4.545   4.831   2.276  0.4908 -0.7937 -0.2729
  522SOL    HW2 1860   4.548   4.785   2.360  1.1473 -2.5115 -1.1849
  522SOL    HW3 1861   4.451   4.836   2.256  0.2589  0.5412  1.0021
  522SOL    MW4 1862   4.533   4.825   2.284  0.5468 -0.8443 -0.2250
  523SOL     OW 1863   4.959   5.304   6.007 -0.2588  0.1080 -0.3615
  523SOL    HW2 1864   4.957   5.346   5.921  0.4200  0.4260 -0.2271
  523SOL    HW3 1865   5.049   5.314   6.037 -0.2876 -0.7290  0.0330
  523SOL    MW4 1866   4.971   5.311   6.000 -0.1730  0.0395 -0.2917
  524SOL     OW 1867   0.252   1.974   6.158 -0.5545 -0.6156 -0.5084
  524SOL    HW2 1868   0.274   2.054   6.112  0.9469  0.9609  2.6455
  524SOL    HW3 1869   0.172   1.995   6.206 -1.2681 -1.7209 -1.1661
  524SOL    MW4 1870   0.244   1.987   6.158 -0.4506 -0.5534 -0.1791
  525SOL     OW 1871   3.001   4.381   0.130  0.0278 -0.1885  0.2467
  525SOL    HW2 1872   2.933   4.417   0.186 -0.9418 -0.7470 -0.5360
  525SOL    HW3 1873   2.961   4.304   0.089  0.9127 -0.1642 -0.7240
  525SOL    MW4 1874   2.987   4.375   0.132  0.0166 -0.2590  0.0154
  526SOL     OW 1875   2.122   4.329   6.393  0.6502  0.2861 -0.0271
  526SOL    HW2 1876   2.042   4.368   6.427 -0.5396  0.1490 -2.4889
  526SOL    HW3 1877   2.131   4.363   6.304  1.9850 -1.5705 -0.6826
  526SOL    MW4 1878   2.113   4.338   6.386  0.6693  0.0231 -0.4384
  527SOL     OW 1879   4.330   3.921   1.460  0.2623  0.1487 -0.1452
  527SOL    HW2 1880   4.345   3.889   1.549  2.1449 -1.3286 -0.9118
  527SOL    HW3 1881   4.235   3.933   1.454  0.0033 -0.5999  1.7708
  527SOL    MW4 1882   4.319   3.918   1.471  0.4765 -0.1450  0.0064
  528SOL     OW 1883   4.798   2.664   5.729  0.0835  0.1885 -0.0613
  528SOL    HW2 1884   4.848   2.739   5.761 -0.3345  1.2910 -1.8640
  528SOL    HW3 1885   4.862   2.613   5.678  1.0041 -2.0812  3.0111
  528SOL    MW4 1886   4.813   2.667   5.726  0.1498  0.0345  0.1062
  529SOL     OW 1887   3.695   0.261   2.773 -0.1611  0.1143  0.1480
  529SOL    HW2 1888   3.729   0.335   2.722  1.4057  1.3492  2.7843
  529SOL    HW3 1889   3.771   0.205   2.788 -1.0060 -1.2495 -0.4585
  529SOL    MW4 1890   3.709   0.263   2.768 -0.0658  0.0973  0.4158
  530SOL     OW 1891   4.408   1.042   5.017 -0.1879 -0.4422 -0.6498
  530SOL    HW2 1892   4.498   1.010   5.009 -0.0417 -0.4467  0.8225
  530SOL    HW3 1893   4.355   0.973   4.977  0.3900 -0.8546 -0.7194
  530SOL    MW4 1894   4.413   1.028   5.011 -0.0924 -0.4972 -0.4647
  531SOL     OW 1895   0.837   2.724   0.116 -0.4095  0.0787 -0.4494
  531SOL    HW2 1896   0.783   2.648   0.138  0.6514  0.1890  3.1345
  531SOL    HW3 1897   0.919   2.688   0.086  0.1522 -0.3085  1.4014
  531SOL    MW4 1898   0.840   2.709   0.115 -0.1954  0.0421  0.2676
  532SOL     OW 1899   5.921   2.894   5.130 -0.3403  0.3904 -0.3440
  532SOL    HW2 1900   5.895   2.812   5.088  1.0476  0.8923 -2.3333
  532SOL    HW3 1901   5.988   2.867   5.194  0.0064 -0.0701 -0.8865
  532SOL    MW4 1902   5.927   2.880   5.133 -0.1115  0.3959 -0.6780
  533SOL     OW 1903   0.388   0.884   2.166 -0.3998 -0.1516 -0.4030
  533SOL    HW2 1904   0.298   0.890   2.195 -1.2633  0.2290 -2.9030
  533SOL    HW3 1905   0.385   0.831   2.087  1.2732  1.2926 -1.5193
  533SOL    MW4 1906   0.376   0.878   2.159 -0.2930  0.0892 -0.8801
  534SOL     OW 1907   1.013   5.756   2.241 -0.2162 -0.1081 -0.0896
  534SOL    HW2 1908   1.069   5.736   2.315 -1.8674 -0.2864  1.1675
  534SOL    HW3 1909   1.070   5.748   2.164  1.4294 -0.2995  1.1176
  534SOL    MW4 1910   1.028   5.752   2.240 -0.2170 -0.1569  0.2355
  535SOL     OW 1911   2.621   2.530   2.430 -0.7260 -0.3495 -0.2035
  535SOL    HW2 1912   2.714   2.510   2.439 -0.5676 -1.4154 -3.2096
  535SOL    HW3 1913   2.585   2.514   2.517  1.8271 -0.0535  1.0213
  535SOL    MW4 1914   2.629   2.525   2.442 -0.3682 -0.4510 -0.4386
  536SOL     OW 1915   0.933   2.463   0.961  0.5438 -0.2611 -0.0757
  536SOL    HW2 1916   0.963   2.493   1.047 -0.6513  0.0018  0.2685
  536SOL    HW3 1917   0.885   2.382   0.978  1.0072 -0.6544 -0.6020
  536SOL    MW4 1918   0.930   2.456   0.974  0.4472 -0.2783 -0.0997
  537SOL     OW 1919   3.120   4.249   3.989 -0.5002 -0.4924 -0.1678
  537SOL    HW2 1920   3.205   4.292   3.994 -0.6045 -0.2513 -0.4785
  537SOL    HW3 1921   3.090   4.245   4.080  0.1235 -1.1509  0.0220
  537SOL    MW4 1922   3.127   4.254   4.002 -0.4317 -0.5475 -0.1837
  538SOL     OW 1923   1.680   2.539   2.313  0.3322 -0.3511 -0.0183
  538SOL    HW2 1924   1.590   2.565   2.332 -0.9023 -3.8396 -0.3088
  538SOL    HW3 1925   1.702   2.584   2.232  0.1878  3.0951  1.6806
  538SOL    MW4 1926   1.671   2.548   2.305  0.1503 -0.3567  0.1675
  539SOL     OW 1927   5.919   1.261   2.723 -0.2673 -0.2339  0.2102
  539SOL    HW2 1928   5.901   1.170   2.699  0.6809 -0.6428  0.9930
  539SOL    HW3 1929   5.833   1.296   2.748 -0.8431 -0.5519 -1.1860
  539SOL    MW4 1930   5.905   1.254   2.723 -0.2182 -0.3298  0.1293
  540SOL     OW 1931   3.301   3.963   0.833 -0.2477  0.4212  0.1805
  540SOL    HW2 1932   3.312   4.056   0.853  1.0729  0.3673 -0.2670
  540SOL    HW3 1933   3.312   3.957   0.738 -1.3671 -0.0599  0.0686
  540SOL    MW4 1934   3.304   3.974   0.823 -0.2211  0.3506  0.1067
  541SOL     OW 1935   2.288   2.325   5.750 -0.5806  0.1310 -0.2239
  541SOL    HW2 1936   2.268   2.244   5.796  0.4020 -0.6329 -1.0755
  541SOL    HW3 1937   2.208   2.346   5.702 -1.0622  0.0344  0.5329
  541SOL    MW4 1938   2.275   2.317   5.750 -0.5145  0.0175 -0.2364
  542SOL     OW 1939   2.730   0.501   3.184  0.0087 -0.3357  0.3452
  542SOL    HW2 1940   2.789   0.434   3.149 -0.1568 -1.0749  1.4236
  542SOL    HW3 1941   2.754   0.508   3.277 -0.3475  0.7081  0.3652
  542SOL    MW4 1942   2.741   0.493   3.192 -0.0601 -0.2955  0.4901
  543SOL     OW 1943   2.238   5.537   0.121 -0.4154  0.2391  0.1373
  543SOL    HW2 1944   2.180   5.462   0.134  1.6793 -1.5697 -0.4392
  543SOL    HW3 1945   2.293   5.539   0.200 -1.9685  2.7316  1.2953
  543SOL    MW4 1946   2.238   5.527   0.133 -0.3439  0.3293  0.2140
  544SOL     OW 1947   5.511   3.741   5.208 -0.7379  0.4600 -0.0850
  544SOL    HW2 1948   5.442   3.678   5.226 -1.9994  1.8625  0.1437
  544SOL    HW3 1949   5.545   3.766   5.294  0.4298 -0.5773 -0.2113
  544SOL    MW4 1950   5.507   3.736   5.222 -0.7503  0.5082 -0.0715
  545SOL     OW 1951   0.678   0.674   2.191 -0.2029 -0.5567  0.0161
  545SOL    HW2 1952   0.601   0.686   2.247 -2.0713  1.4591 -2.7091
  545SOL    HW3 1953   0.647   0.620   2.118  0.2328  1.9061 -2.1589
  545SOL    MW4 1954   0.663   0.669   2.189 -0.3919  0.0342 -0.6305
  546SOL     OW 1955   3.162   0.242   4.738  0.1893 -0.3349  0.2204
  546SOL    HW2 1956   3.201   0.161   4.771 -0.5847 -1.5079 -1.5903
  546SOL    HW3 1957   3.194   0.249   4.648 -0.6383  0.7839 -0.0043
  546SOL    MW4 1958   3.171   0.232   4.731 -0.0220 -0.3421 -0.0482
  547SOL     OW 1959   4.862   5.484   4.131  0.6542  0.8859  0.2376
  547SOL    HW2 1960   4.866   5.436   4.048 -0.9497  1.8232 -0.4310
  547SOL    HW3 1961   4.930   5.551   4.123  0.7439  0.7521 -0.1715
  547SOL    MW4 1962   4.871   5.487   4.119  0.4544  0.9919  0.0954
  548SOL     OW 1963   2.231   0.790   4.523 -0.1379  0.0481 -0.1735
  548SOL    HW2 1964   2.235   0.708   4.572  1.9963  0.4783  0.4798
  548SOL    HW3 1965   2.303   0.785   4.460 -1.2178  0.6123 -1.5368
  548SOL    MW4 1966   2.241   0.779   4.521  0.0012  0.1793 -0.2672
  549SOL     OW 1967   6.006   3.694   4.746  0.6434  0.2747  0.4240
  549SOL    HW2 1968   5.984   3.733   4.662  0.9210 -0.7053 -0.1176
  549SOL    HW3 1969   5.922   3.681   4.789  0.5740  2.3241  1.0506
  549SOL    MW4 1970   5.992   3.698   4.741  0.6709  0.4158  0.4352
  550SOL     OW 1971   4.036   6.073   3.376  0.0660 -0.0485  0.2557
  550SOL    HW2 1972   4.129   6.097   3.374 -0.0900  0.5752  0.2637
  550SOL    HW3 1973   4.035   5.982   3.408  0.7337 -0.4024 -0.6999
  550SOL    MW4 1974   4.048   6.064   3.380  0.1335 -0.0129  0.1307
  551SOL     OW 1975   1.022   2.538   3.536 -0.3725  0.0646  0.2928
  551SOL    HW2 1976   1.057   2.567   3.621  1.6468  1.7184 -1.0133
  551SOL    HW3 1977   1.073   2.460   3.515  2.8390  2.3959 -1.5467
  551SOL    MW4 1978   1.033   2.532   3.545  0.3176  0.5904 -0.1222
  552SOL     OW 1979   5.713   2.031   5.007  0.3059  0.1572  0.2066
  552SOL    HW2 1980   5.754   2.030   4.920  1.2818 -1.2659  0.6389
  552SOL    HW3 1981   5.652   2.105   5.004  0.4885  0.2866 -1.5988
  552SOL    MW4 1982   5.711   2.041   4.995  0.4587 -0.0135  0.0254
  553SOL     OW 1983   5.644   3.894   1.133 -0.1627  0.1348 -0.5576
  553SOL    HW2 1984   5.682   3.819   1.088  0.5826 -0.1992  0.5791
  553SOL    HW3 1985   5.639   3.963   1.067 -0.0100 -0.6312 -1.3807
  553SOL    MW4 1986   5.648   3.893   1.119 -0.0442 -0.0104 -0.5162
  554SOL     OW 1987   3.635   3.286   4.875  0.3761 -0.4176 -0.4996
  554SOL    HW2 1988   3.672   3.348   4.938  0.2474 -0.4589 -0.3842
  554SOL    HW3 1989   3.542   3.282   4.896  0.2522 -0.1185 -0.9517
  554SOL    MW4 1990   3.628   3.294   4.886  0.3428 -0.3836 -0.5440
  555SOL     OW 1991   4.490   2.311   5.787 -0.1427 -0.7700  0.1315
  555SOL    HW2 1992   4.419   2.252   5.762 -0.0803 -0.7802 -0.0193
  555SOL    HW3 1993   4.569   2.257   5.786  0.3130 -0.1871 -2.3193
  555SOL    MW4 1994   4.491   2.296   5.783 -0.0743 -0.6944 -0.2118
  556SOL     OW 1995   4.685   4.488   1.269 -0.1885 -0.2020 -0.5651
  556SOL    HW2 1996   4.703   4.480   1.175  0.2098 -0.6054 -0.4612
  556SOL    HW3 1997   4.704   4.579   1.289  0.9554 -0.4125 -0.6339
  556SOL    MW4 1998   4.690   4.499   1.259  0.0150 -0.2830 -0.5605
  557SOL     OW 1999   0.583   2.535   5.027 -0.2369  0.3372  0.1118
  557SOL    HW2 2000   0.516   2.468   5.045  0.4287  0.0704  1.7895
  557SOL    HW3 2001   0.588   2.538   4.931 -1.5472 -0.7391 -0.0284
  557SOL    MW4 2002   0.574   2.526   5.017 -0.3219  0.1600  0.3147
  558SOL     OW 2003   4.952   4.786   5.887  0.3360  1.1962 -0.3089
  558SOL    HW2 2004   5.020   4.819   5.828  0.3791 -1.2704 -1.7901
  558SOL    HW3 2005   4.872   4.788   5.835  0.3639 -0.9812 -0.5360
  558SOL    MW4 2006   4.951   4.790   5.872  0.3454  0.5835 -0.5343
  559SOL     OW 2007   4.775   5.926   1.686 -0.4101 -0.0375  0.0490
  559SOL    HW2 2008   4.744   5.837   1.671 -1.1873 -0.0389  1.4930
  559SOL    HW3 2009   4.861   5.928   1.645 -0.0345 -1.7037  0.6485
  559SOL    MW4 2010   4.782   5.914   1.679 -0.4631 -0.2575  0.3186
  560SOL     OW 2011   2.658   3.621   4.053 -0.0174  0.5372 -0.6274
  560SOL    HW2 2012   2.674   3.592   4.143  0.4440 -2.6949 -1.5993
  560SOL    HW3 2013   2.679   3.714   4.053 -2.3950  1.2527  3.1076
  560SOL    MW4 2014   2.663   3.629   4.065 -0.2702  0.2051 -0.2628
  561SOL     OW 2015   0.375   2.342   4.296  0.2992  0.3118 -0.2648
  561SOL    HW2 2016   0.367   2.400   4.371 -1.0512  0.1643 -0.2764
  561SOL    HW3 2017   0.360   2.255   4.331 -0.1390  0.2227 -0.6643
  561SOL    MW4 2018   0.372   2.339   4.310  0.0632  0.2806 -0.3191
  562SOL     OW 2019   4.207   6.058   0.600 -0.3543  0.4152  0.1507
  562SOL    HW2 2020   4.208   6.086   0.691  1.7781 -1.0992  0.6550
  562SOL    HW3 2021   4.230   6.137   0.551  0.8802  0.7204  1.1546
  562SOL    MW4 2022   4.210   6.072   0.605  0.0899  0.2557  0.3497
  563SOL     OW 2023   4.228   5.427   6.022 -0.7970 -0.6290 -0.1960
  563SOL    HW2 2024   4.233   5.476   6.105 -0.8408 -0.4350 -0.3087
  563SOL    HW3 2025   4.288   5.353   6.035 -0.0784 -0.0798 -0.3435
  563SOL    MW4 2026   4.236   5.424   6.035 -0.7080 -0.5309 -0.2303
  564SOL     OW 2027   2.278   3.711   4.797 -0.3888  0.1725 -0.6862
  564SOL    HW2 2028   2.224   3.633   4.810 -0.5427  0.6754  2.2646
  564SOL    HW3 2029   2.363   3.689   4.834 -0.6662  1.6120  0.9155
  564SOL    MW4 2030   2.282   3.698   4.803 -0.4457  0.4288 -0.0856
  565SOL     OW 2031   6.132   2.573   4.362  0.0550  0.0233 -0.1626
  565SOL    HW2 2032   6.049   2.596   4.319 -0.1242  1.3149  0.7853
  565SOL    HW3 2033   6.106   2.520   4.437  0.3278 -1.8183 -1.3240
  565SOL    MW4 2034   6.118   2.569   4.366  0.0673 -0.0493 -0.1908
  566SOL     OW 2035   5.691   4.584   5.096  0.0042  0.3358  0.0106
  566SOL    HW2 2036   5.734   4.640   5.161 -0.3621  0.3039  0.2772
  566SOL    HW3 2037   5.639   4.522   5.147  1.1010 -0.8322 -0.2530
  566SOL    MW4 2038   5.690   4.583   5.111  0.1006  0.1775  0.0110
  567SOL     OW 2039   5.895   0.990   2.696 -0.2623  0.2292 -0.2618
  567SOL    HW2 2040   5.874   0.908   2.651  2.9608 -0.8265 -0.0489
  567SOL    HW3 2041   5.923   0.964   2.783  0.5408  1.5669 -0.0908
  567SOL    MW4 2042   5.896   0.976   2.701  0.2689  0.2664 -0.2112
  568SOL     OW 2043   3.628   1.280   2.983 -0.3050 -0.6819  0.9678
  568SOL    HW2 2044   3.699   1.343   2.993 -0.9908 -0.0139  1.8669
  568SOL    HW3 2045   3.567   1.302   3.054 -1.2323 -1.4638  0.4338
  568SOL    MW4 2046   3.629   1.291   2.994 -0.5179 -0.6969  1.0160
  569SOL     OW 2047   4.024   2.382   5.865  0.3325 -0.5052  0.1433
  569SOL    HW2 2048   4.048   2.413   5.777  2.8572 -0.5091  0.7606
  569SOL    HW3 2049   4.034   2.459   5.921  1.7697 -1.1841  0.8797
  569SOL    MW4 2050   4.028   2.396   5.860  0.8552 -0.5953  0.3219
  570SOL     OW 2051   2.403   0.401   6.389 -0.3958 -0.0760  0.2450
  570SOL    HW2 2052   2.473   0.406   6.454  0.4818 -1.9285 -0.4771
  570SOL    HW3 2053   2.371   0.311   6.396 -0.3233 -0.3066 -1.8127
  570SOL    MW4 2054   2.408   0.390   6.399 -0.2704 -0.3509 -0.1217
  571SOL     OW 2055   1.682   1.861   6.342  0.0435  0.0161  0.4651
  571SOL    HW2 2056   1.672   1.899   6.255  1.8478  0.8167  0.5622
  571SOL    HW3 2057   1.647   1.772   6.333 -0.2320  0.2404 -0.9427
  571SOL    MW4 2058   1.676   1.854   6.329  0.2452  0.1513  0.2922
  572SOL     OW 2059   0.014   0.806   3.824 -0.4930  0.5788  0.4800
  572SOL    HW2 2060  -0.039   0.794   3.745  1.0555 -0.5584 -0.4528
  572SOL    HW3 2061  -0.025   0.747   3.888 -2.3833  2.2509  0.9541
  572SOL    MW4 2062   0.002   0.796   3.822 -0.5381  0.6494  0.4195
  573SOL     OW 2063   2.803   3.787   5.933 -0.2980 -0.4827 -0.2461
  573SOL    HW2 2064   2.833   3.835   5.856  0.2043 -1.1196 -0.4571
  573SOL    HW3 2065   2.813   3.695   5.910  0.3138 -0.6849  0.7494
  573SOL    MW4 2066   2.808   3.781   5.920 -0.1510 -0.5934 -0.1426
  574SOL     OW 2067   5.832   2.814   0.582  0.0512 -0.1110 -0.0241
  574SOL    HW2 2068   5.908   2.810   0.523  0.7763  0.8173  0.8299
  574SOL    HW3 2069   5.774   2.878   0.541  0.6654  0.7183  0.3737
  574SOL    MW4 2070   5.835   2.822   0.569  0.2279  0.1209  0.1411
  575SOL     OW 2071   3.066   0.339   5.396  0.0633 -0.1754 -0.8849
  575SOL    HW2 2072   3.074   0.372   5.307  0.8630  1.3285 -0.2915
  575SOL    HW3 2073   3.142   0.375   5.442 -1.2616  0.5878  0.8419
  575SOL    MW4 2074   3.077   0.348   5.390 -0.0060  0.1237 -0.5788
  576SOL     OW 2075   1.311   4.960   3.563 -0.3521 -0.2184 -0.2115
  576SOL    HW2 2076   1.399   4.935   3.590 -0.0809  0.2056 -0.7000
  576SOL    HW3 2077   1.261   4.878   3.566 -1.3152  0.2317  5.0535
  576SOL    MW4 2078   1.316   4.946   3.567 -0.4434 -0.1030  0.4187
  577SOL     OW 2079   5.319   0.187   4.397 -0.1958 -0.1650 -0.1641
  577SOL    HW2 2080   5.282   0.271   4.368  0.6942  0.1731 -0.3382
  577SOL    HW3 2081   5.380   0.210   4.466  0.2549 -0.6466 -0.3945
  577SOL    MW4 2082   5.322   0.201   4.402 -0.0189 -0.1840 -0.2175
  578SOL     OW 2083   0.533   0.407   1.150  0.4699 -0.2883 -0.0556
  578SOL    HW2 2084   0.544   0.478   1.213 -1.7581 -1.0790  1.3316
  578SOL    HW3 2085   0.469   0.441   1.087  0.1929 -0.6792  0.0116
  578SOL    MW4 2086   0.526   0.421   1.150  0.1394 -0.4442  0.1363
  579SOL     OW 2087   0.976   6.248   0.411 -0.4243 -0.0051  0.0858
  579SOL    HW2 2088   0.991   6.154   0.407 -2.2810 -0.3408  0.4511
  579SOL    HW3 2089   1.004   6.273   0.499  4.0291  0.6247 -1.2317
  579SOL    MW4 2090   0.982   6.239   0.422 -0.0817  0.0337 -0.0398
  580SOL     OW 2091   0.798   1.632   1.341  0.4316 -0.5042 -0.1396
  580SOL    HW2 2092   0.745   1.711   1.331  0.3453 -0.2772  1.7390
  580SOL    HW3 2093   0.819   1.605   1.251  1.3198  2.2100 -0.8383
  580SOL    MW4 2094   0.794   1.639   1.327  0.5374 -0.1162  0.0161
  581SOL     OW 2095   3.961   0.803   4.507  0.0866  0.0281  0.8631
  581SOL    HW2 2096   3.996   0.887   4.476 -1.5489  0.3734 -0.1769
  581SOL    HW3 2097   4.032   0.764   4.558  1.4729  1.2727 -0.0600
  581SOL    MW4 2098   3.975   0.809   4.510  0.0537  0.2378  0.6041
  582SOL     OW 2099   3.551   0.723   2.880  0.0175 -0.5074  0.0749
  582SOL    HW2 2100   3.607   0.661   2.927 -2.5096 -0.3877  3.5649
  582SOL    HW3 2101   3.509   0.670   2.812 -1.1934 -2.4853  2.2241
  582SOL    MW4 2102   3.553   0.707   2.877 -0.4757 -0.7526  0.8189
  583SOL     OW 2103   1.109   4.024   3.914  0.1968  0.4804 -0.2036
  583SOL    HW2 2104   1.135   3.981   3.995  0.1599  0.9223  0.0507
  583SOL    HW3 2105   1.016   4.004   3.905  0.3086  0.0385 -0.3886
  583SOL    MW4 2106   1.100   4.016   3.924  0.2067  0.4804 -0.1945
  584SOL     OW 2107   3.491   3.660   0.142 -0.3040  0.3086 -0.1869
  584SOL    HW2 2108   3.572   3.621   0.177  0.1665  1.1695 -0.2929
  584SOL    HW3 2109   3.518   3.702   0.060 -0.5363  1.8485  0.4841
  584SOL    MW4 2110   3.505   3.660   0.136 -0.2726  0.6254 -0.1123
  585SOL     OW 2111   6.073   1.416   3.901 -0.0715 -0.4238 -0.5816
  585SOL    HW2 2112   6.058   1.504   3.937 -1.7845 -0.8796 -0.0531
  585SOL    HW3 2113   6.104   1.431   3.812 -1.2191  0.7437 -0.8250
  585SOL    MW4 2114   6.075   1.430   3.894 -0.4489 -0.3299 -0.5440
  586SOL     OW 2115   3.076   5.374   2.961  0.3460  0.2750  0.4967
  586SOL    HW2 2116   3.059   5.363   3.055  1.9888  1.7676  1.0211
  586SOL    HW3 2117   3.004   5.327   2.918 -1.1727  0.6521  2.4859
  586SOL    MW4 2118   3.064   5.366   2.968  0.3624  0.5217  0.8283
  587SOL     OW 2119   5.703   1.854   3.535  0.6372 -0.8384  0.6340
  587SOL    HW2 2120   5.690   1.760   3.547  1.8844 -1.1918 -0.4961
  587SOL    HW3 2121   5.637   1.880   3.470  1.0646 -1.1883  0.0533
  587SOL    MW4 2122   5.693   1.845   3.528  0.8582 -0.9312  0.4082
  588SOL     OW 2123   3.354   1.970   3.571  0.0163 -0.3139 -0.1457
  588SOL    HW2 2124   3.440   1.989   3.533  0.3156  1.8372  1.4067
  588SOL    HW3 2125   3.367   1.977   3.665 -2.0011  0.8615  0.1133
  588SOL    MW4 2126   3.367   1.974   3.578 -0.2104  0.1250  0.0933
  589SOL     OW 2127   1.867   5.545   4.632 -0.0125  0.0801  0.0384
  589SOL    HW2 2128   1.809   5.480   4.592  0.3908 -0.3430  0.1303
  589SOL    HW3 2129   1.893   5.507   4.716  0.8302  0.0096 -0.2387
  589SOL    MW4 2130   1.863   5.531   4.638  0.1519  0.0149  0.0140
  590SOL     OW 2131   2.530   0.051   3.266 -0.0046  0.0832 -0.0463
  590SOL    HW2 2132   2.439   0.026   3.250 -0.3690  1.0867  0.3385
  590SOL    HW3 2133   2.529   0.147   3.264  0.6744  0.1719  1.8526
  590SOL    MW4 2134   2.518   0.060   3.264  0.0369  0.2273  0.2550
  591SOL     OW 2135   0.460   6.135   2.790 -0.3274  0.1623 -0.1244
  591SOL    HW2 2136   0.398   6.072   2.827 -0.3694  0.5354  0.4569
  591SOL    HW3 2137   0.471   6.201   2.859  2.2595 -0.9320  0.6037
  591SOL    MW4 2138   0.453   6.136   2.804  0.0083  0.0672  0.0484
  592SOL     OW 2139   5.972   5.899   4.937 -0.3232 -0.6436 -0.0017
  592SOL    HW2 2140   5.923   5.911   5.019 -0.8314 -0.7972 -0.2818
  592SOL    HW3 2141   6.036   5.970   4.938 -0.9138 -0.1014  0.1064
  592SOL    MW4 2142   5.974   5.910   4.948 -0.4682 -0.5923 -0.0244
  593SOL     OW 2143   2.888   0.332   3.046  0.3577  0.1446 -0.0566
  593SOL    HW2 2144   2.840   0.281   2.981 -1.9229  1.3270  0.5794
  593SOL    HW3 2145   2.934   0.267   3.099 -1.9512 -1.2345  0.3616
  593SOL    MW4 2146   2.888   0.317   3.044 -0.2478  0.1187  0.0825
  594SOL     OW 2147   1.751   4.114   4.047 -0.1844  0.0112  0.2321
  594SOL    HW2 2148   1.663   4.103   4.011 -0.0850 -0.2429  0.0681
  594SOL    HW3 2149   1.809   4.072   3.984  0.1077  0.6265  0.0857
  594SOL    MW4 2150   1.747   4.107   4.034 -0.1327  0.0588  0.1912
  595SOL     OW 2151   2.449   1.184   5.101  0.1892  0.3092  0.2255
  595SOL    HW2 2152   2.542   1.160   5.093  0.3368  0.6494  0.9093
  595SOL    HW3 2153   2.415   1.126   5.169  0.4097  1.6182  1.4815
  595SOL    MW4 2154   2.457   1.173   5.109  0.2378  0.5268  0.4814
  596SOL     OW 2155   4.946   5.614   2.720 -0.1568  0.4947  0.4644
  596SOL    HW2 2156   4.870   5.604   2.778  1.6641 -1.1585  2.7293
  596SOL    HW3 2157   4.946   5.707   2.697 -1.9820  0.8399  1.6297
  596SOL    MW4 2158   4.936   5.625   2.725 -0.1574  0.3221  0.9169
  597SOL     OW 2159   2.792   3.206   3.058  0.2069  0.7117 -0.0745
  597SOL    HW2 2160   2.845   3.262   3.000 -2.5077  2.5112 -0.9977
  597SOL    HW3 2161   2.790   3.121   3.015  1.6042  0.8227 -0.4250
  597SOL    MW4 2162   2.799   3.202   3.045  0.0331  0.9638 -0.2425
  598SOL     OW 2163   4.404   1.108   3.233  0.3739  0.3830  0.1406
  598SOL    HW2 2164   4.335   1.168   3.261  0.1320  0.7298 -1.1493
  598SOL    HW3 2165   4.369   1.065   3.155  0.9836 -0.6354  0.3971
  598SOL    MW4 2166   4.391   1.110   3.227  0.4224  0.2944  0.0042
  599SOL     OW 2167   0.936   2.365   6.337 -0.1315  0.0794  0.0212
  599SOL    HW2 2168   0.977   2.420   6.403  0.2594  1.0691 -1.0108
  599SOL    HW3 2169   0.920   2.423   6.263 -1.1736 -0.8436 -0.5190
  599SOL    MW4 2170   0.940   2.380   6.336 -0.2174  0.0882 -0.1863
  600SOL     OW 2171   2.061   5.000   6.130  0.4534 -0.4482 -0.2747
  600SOL    HW2 2172   2.018   5.028   6.049 -2.3300 -1.9583  0.5205
  600SOL    HW3 2173   2.154   5.001   6.110  0.0350  1.7474 -2.6334
  600SOL    MW4 2174   2.067   5.004   6.117  0.0309 -0.3578 -0.4810
  601SOL     OW 2175   4.308   5.098   4.258  0.2270 -0.0382  0.2229
  601SOL    HW2 2176   4.357   5.151   4.195 -3.2390  2.7176 -0.5391
  601SOL    HW3 2177   4.320   5.143   4.341  1.8088 -1.5117  0.8444
  601SOL    MW4 2178   4.316   5.111   4.260 -0.0216  0.1310  0.2044
  602SOL     OW 2179   2.910   1.368   3.438  0.1770 -0.2345 -0.4268
  602SOL    HW2 2180   2.829   1.411   3.466 -1.7191 -1.6005 -3.2871
  602SOL    HW3 2181   2.974   1.439   3.433 -1.2894  1.2163  0.3199
  602SOL    MW4 2182   2.908   1.383   3.441 -0.2666 -0.2233 -0.7057
  603SOL     OW 2183   3.957   2.179   5.624 -0.3450 -0.2695  0.4000
  603SOL    HW2 2184   3.923   2.090   5.631  1.5661 -0.9591  1.6216
  603SOL    HW3 2185   4.006   2.180   5.542 -0.0600 -0.4591  0.5677
  603SOL    MW4 2186   3.959   2.168   5.614 -0.0552 -0.3855  0.5833
  604SOL     OW 2187   3.342   2.248   1.892  0.0485  0.3434  0.2365
  604SOL    HW2 2188   3.260   2.251   1.842 -0.4549 -1.1450  0.9195
  604SOL    HW3 2189   3.317   2.209   1.976  1.6083 -0.9119  0.1520
  604SOL    MW4 2190   3.328   2.243   1.897  0.1879 -0.0186  0.3154
  605SOL     OW 2191   4.413   4.236   2.143 -0.1315  0.1588 -0.4290
  605SOL    HW2 2192   4.436   4.310   2.199  2.3324  0.0827 -1.1982
  605SOL    HW3 2193   4.429   4.268   2.054  1.4818 -1.3673 -0.7573
  605SOL    MW4 2194   4.418   4.250   2.138  0.4064 -0.0526 -0.5738
  606SOL     OW 2195   1.006   1.654   0.207  0.5449 -0.0332 -0.3647
  606SOL    HW2 2196   1.101   1.665   0.205  0.4386  0.9992 -0.2952
  606SOL    HW3 2197   0.974   1.732   0.252 -0.4315  0.3108 -1.5952
  606SOL    MW4 2198   1.015   1.666   0.213  0.4021  0.1484 -0.5179
  607SOL     OW 2199   1.318   2.765   6.073  0.3407 -0.0473 -0.6650
  607SOL    HW2 2200   1.351   2.853   6.056  0.5004 -0.2774 -1.5910
  607SOL    HW3 2201   1.397   2.711   6.085  0.2423 -0.0345  0.1121
  607SOL    MW4 2202   1.333   2.769   6.072  0.3488 -0.0760 -0.6846
  608SOL     OW 2203   0.727   3.667   4.688 -0.0172  0.1128  0.7245
  608SOL    HW2 2204   0.775   3.620   4.757 -1.5170 -0.0299  1.7277
  608SOL    HW3 2205   0.788   3.734   4.658  1.5339 -1.3205  0.5070
  608SOL    MW4 2206   0.741   3.670   4.693 -0.0104 -0.0951  0.8282
  609SOL     OW 2207   2.466   0.250   4.218  0.1224 -0.1866  0.1094
  609SOL    HW2 2208   2.487   0.324   4.275  1.8740 -0.3078 -0.3237
  609SOL    HW3 2209   2.403   0.285   4.155  0.4935  0.7828  0.2671
  609SOL    MW4 2210   2.461   0.264   4.217  0.4025 -0.0747  0.0730
  610SOL     OW 2211   5.569   6.397   3.380  0.1649  0.0087 -0.6418
  610SOL    HW2 2212   5.630   6.469   3.391 -1.7173  1.8474 -1.4702
  610SOL    HW3 2213   5.534   6.381   3.467  0.8479 -0.1416 -0.3945
  610SOL    MW4 2214   5.572   6.404   3.393  0.0067  0.2315 -0.7185
  611SOL     OW 2215   1.437   1.029   3.688 -0.0903 -0.2001 -0.1255
  611SOL    HW2 2216   1.438   1.030   3.783  0.9721  1.0736 -0.1246
  611SOL    HW3 2217   1.498   0.959   3.664 -0.7459 -0.8623  0.1153
  611SOL    MW4 2218   1.445   1.020   3.697 -0.0366 -0.1194 -0.0936
  612SOL     OW 2219   2.720   5.828   0.430 -0.1739 -0.3951  0.0421
  612SOL    HW2 2220   2.816   5.821   0.431 -0.1000 -0.4031 -2.1506
  612SOL    HW3 2221   2.695   5.829   0.523  2.0204  0.7242  0.6897
  612SOL    MW4 2222   2.730   5.827   0.443  0.1254 -0.2485 -0.1618
  613SOL     OW 2223   5.608   4.738   1.422  0.2467 -0.0322  0.1922
  613SOL    HW2 2224   5.701   4.760   1.433  0.3323  0.1835 -0.8243
  613SOL    HW3 2225   5.584   4.780   1.339 -0.3630 -1.3253 -0.3113
  613SOL    MW4 2226   5.617   4.746   1.412  0.1775 -0.1743 -0.0083
  614SOL     OW 2227   3.851   1.923   3.502 -0.0189 -0.5739 -0.3303
  614SOL    HW2 2228   3.897   1.955   3.579 -0.9776 -1.9864  0.8899
  614SOL    HW3 2229   3.908   1.946   3.428  0.0885  2.3985  0.5729
  614SOL    MW4 2230   3.864   1.930   3.502 -0.1312 -0.3681 -0.0502
  615SOL     OW 2231   2.947   2.703   2.254 -0.2429  0.4868 -0.1712
  615SOL    HW2 2232   2.936   2.652   2.173  1.7055  1.3500 -1.0516
  615SOL    HW3 2233   2.864   2.750   2.265 -1.2735 -1.1668 -0.5337
  615SOL    MW4 2234   2.935   2.702   2.245 -0.1218  0.3826 -0.3352
  616SOL     OW 2235   4.214   3.537   5.988  0.5062  0.4610  0.1539
  616SOL    HW2 2236   4.124   3.570   5.994  0.3959  0.0417  0.8727
  616SOL    HW3 2237   4.205   3.444   5.970  0.7520  0.0621  1.8975
  616SOL    MW4 2238   4.201   3.529   5.986  0.5241  0.3531  0.4788
  617SOL     OW 2239   0.354   3.634   0.285  0.0967  0.6170 -0.0884
  617SOL    HW2 2240   0.424   3.590   0.334 -0.0898  1.1219  0.6433
  617SOL    HW3 2241   0.380   3.625   0.193  0.6592  0.0109  0.1219
  617SOL    MW4 2242   0.366   3.627   0.279  0.1463  0.6037  0.0359
  618SOL     OW 2243   1.801   3.152   0.794  0.2117  0.2414  0.1166
  618SOL    HW2 2244   1.723   3.099   0.775 -0.6723  1.4968  0.1437
  618SOL    HW3 2245   1.803   3.157   0.889 -0.2352  0.9945  0.0945
  618SOL    MW4 2246   1.791   3.146   0.804  0.0361  0.5064  0.1172
  619SOL     OW 2247   0.591   4.355   1.398 -0.6185 -0.5395  0.0451
  619SOL    HW2 2248   0.632   4.291   1.457  0.7356 -1.1393 -1.4550
  619SOL    HW3 2249   0.568   4.304   1.320 -2.7594  0.1437  0.1875
  619SOL    MW4 2250   0.593   4.340   1.395 -0.7223 -0.5285 -0.1340
  620SOL     OW 2251   1.245   1.438   4.455  0.2812 -0.3681  0.2544
  620SOL    HW2 2252   1.299   1.361   4.439  0.4365 -0.0058 -1.0854
  620SOL    HW3 2253   1.277   1.503   4.392  0.8115  1.1424  1.9839
  620SOL    MW4 2254   1.257   1.436   4.445  0.3716 -0.1210  0.3059
  621SOL     OW 2255   1.906   3.183   3.758 -0.0311  0.4322  0.0154
  621SOL    HW2 2256   1.980   3.123   3.768  0.0525  0.6565  0.8345
  621SOL    HW3 2257   1.835   3.141   3.808 -0.8339 -0.3727 -1.7288
  621SOL    MW4 2258   1.906   3.169   3.766 -0.1260  0.3556 -0.1067
  622SOL     OW 2259   2.099   1.294   2.518 -0.6977 -0.2385 -0.6974
  622SOL    HW2 2260   2.160   1.289   2.444 -2.2208  1.3955 -2.1997
  622SOL    HW3 2261   2.020   1.334   2.480 -1.8561 -0.1288  1.6561
  622SOL    MW4 2262   2.097   1.299   2.503 -1.0515 -0.0084 -0.5851
  623SOL     OW 2263   3.101   1.965   0.130  0.0039 -0.0732  0.0269
  623SOL    HW2 2264   3.136   1.970   0.041 -1.8947 -0.0709 -0.7440
  623SOL    HW3 2265   3.065   1.877   0.137 -2.0285  0.7148 -0.0672
  623SOL    MW4 2266   3.101   1.954   0.119 -0.5147  0.0310 -0.0872
  624SOL     OW 2267   1.760   4.250   2.680 -0.4501 -0.3634 -0.0076
  624SOL    HW2 2268   1.835   4.233   2.623 -1.2639  0.4103 -1.3531
  624SOL    HW3 2269   1.689   4.197   2.644 -0.9843  0.1511  0.2671
  624SOL    MW4 2270   1.760   4.241   2.668 -0.6280 -0.1935 -0.1489
  625SOL     OW 2271   0.993   4.661   1.948  0.3482 -0.0200 -0.4580
  625SOL    HW2 2272   0.997   4.702   2.035  2.7898 -0.3614 -0.3408
  625SOL    HW3 2273   1.030   4.574   1.961 -0.7789 -0.6989 -1.5611
  625SOL    MW4 2274   0.998   4.655   1.961  0.5216 -0.1547 -0.5881
  626SOL     OW 2275   5.649   0.585   2.499  0.4452  0.1377  0.0442
  626SOL    HW2 2276   5.555   0.598   2.502  0.5272  0.7065  0.2558
  626SOL    HW3 2277   5.672   0.598   2.407 -0.0958 -3.1292 -0.6676
  626SOL    MW4 2278   5.640   0.589   2.487  0.3847 -0.2183 -0.0218
  627SOL     OW 2279   4.686   5.375   4.695  0.0049  0.2224  0.1883
  627SOL    HW2 2280   4.770   5.409   4.664  0.2033  0.5034  1.0235
  627SOL    HW3 2281   4.651   5.445   4.750  0.0997 -0.6413  1.3854
  627SOL    MW4 2282   4.693   5.389   4.698  0.0436  0.1455  0.4565
  628SOL     OW 2283   2.498   1.311   3.459 -0.6155 -0.2265  0.1235
  628SOL    HW2 2284   2.502   1.275   3.547  0.6293  0.3908  0.3489
  628SOL    HW3 2285   2.576   1.366   3.452 -1.9395  1.7026 -0.4990
  628SOL    MW4 2286   2.509   1.314   3.469 -0.6259  0.1094  0.0711
  629SOL     OW 2287   2.915   1.893   2.233  0.5103  0.7504 -0.1110
  629SOL    HW2 2288   3.009   1.894   2.249  0.0348  2.5476  3.9050
  629SOL    HW3 2289   2.886   1.807   2.264  0.6816  0.6450 -0.2411
  629SOL    MW4 2290   2.923   1.882   2.239  0.4701  0.9736  0.4017
  630SOL     OW 2291   3.763   4.150   3.025 -0.1671 -0.0787 -0.5267
  630SOL    HW2 2292   3.729   4.210   3.091  0.2118 -1.1408  0.6924
  630SOL    HW3 2293   3.707   4.163   2.949 -1.8984 -0.1910  0.6646
  630SOL    MW4 2294   3.751   4.159   3.024 -0.3456 -0.2337 -0.2086
  631SOL     OW 2295   1.505   2.178   2.690  0.3602  0.8761 -0.1351
  631SOL    HW2 2296   1.452   2.121   2.746  0.3180  2.0940  1.1159
  631SOL    HW3 2297   1.589   2.134   2.684  1.5498  2.1840  3.6897
  631SOL    MW4 2298   1.509   2.165   2.697  0.5116  1.2094  0.5345
  632SOL     OW 2299   1.062   3.343   2.729 -0.5467 -0.4346 -0.7038
  632SOL    HW2 2300   1.099   3.408   2.670 -0.0547  1.2166  1.3157
  632SOL    HW3 2301   1.110   3.262   2.707  0.2186  0.3115 -1.9555
  632SOL    MW4 2302   1.073   3.341   2.718 -0.3808 -0.1183 -0.6025
  633SOL     OW 2303   2.858   4.708   4.296  0.3311  0.5775  1.4270
  633SOL    HW2 2304   2.895   4.718   4.208  0.8358  0.4764  1.6230
  633SOL    HW3 2305   2.770   4.674   4.282  0.1467  1.2309  0.9278
  633SOL    MW4 2306   2.851   4.705   4.283  0.3734  0.6504  1.3870
  634SOL     OW 2307   5.184   4.307   4.655 -0.4747 -0.1176  0.1999
  634SOL    HW2 2308   5.237   4.264   4.722 -1.7899 -0.4204  1.0831
  634SOL    HW3 2309   5.241   4.312   4.578  1.3070  0.8629  1.5354
  634SOL    MW4 2310   5.198   4.302   4.653 -0.4132 -0.0282  0.4926
  635SOL     OW 2311   2.266   6.159   6.177 -0.3342  0.7557  0.2207
  635SOL    HW2 2312   2.225   6.245   6.178  1.2727  1.6312 -1.7106
  635SOL    HW3 2313   2.340   6.167   6.237  0.6622  1.2406 -1.0208
  635SOL    MW4 2314   2.270   6.171   6.185  0.0093  0.9352 -0.1979
  636SOL     OW 2315   3.668   0.044   6.384 -0.0807 -0.4679  0.1297
  636SOL    HW2 2316   3.692  -0.017   6.314 -1.2129 -1.6795  0.7641
  636SOL    HW3 2317   3.706   0.007   6.463  1.1321  0.8632  0.2143
  636SOL    MW4 2318   3.676   0.031   6.385 -0.0701 -0.4521  0.2246
  637SOL     OW 2319   3.559   1.689   4.131 -0.1232 -0.4610  0.3058
  637SOL    HW2 2320   3.571   1.692   4.036  0.2795  2.2127  0.3725
  637SOL    HW3 2321   3.471   1.652   4.143 -0.7063  0.3612 -1.1799
  637SOL    MW4 2322   3.549   1.685   4.120 -0.1470  0.0002  0.1186
  638SOL     OW 2323   4.693   3.635   1.641 -0.4126 -0.0672 -0.3418
  638SOL    HW2 2324   4.621   3.573   1.651 -0.5253  0.0562 -0.3895
  638SOL    HW3 2325   4.759   3.605   1.704 -0.6947  0.0936  0.0286
  638SOL    MW4 2326   4.693   3.623   1.650 -0.4647 -0.0297 -0.2992
  639SOL     OW 2327   1.547   5.895   4.075  0.2974  0.0819  0.0433
  639SOL    HW2 2328   1.588   5.810   4.061  0.2881 -0.2201  1.5922
  639SOL    HW3 2329   1.591   5.954   4.014  1.4765 -0.6925  0.1094
  639SOL    MW4 2330   1.558   5.892   4.065  0.4517 -0.0601  0.2564
  640SOL     OW 2331   0.660   3.476   6.403 -0.8501  0.1669 -0.4932
  640SOL    HW2 2332   0.697   3.518   6.325 -3.2457  0.4745 -1.5314
  640SOL    HW3 2333   0.580   3.434   6.373 -1.1314 -0.8946  1.5489
  640SOL    MW4 2334   0.655   3.476   6.389 -1.2033  0.0674 -0.3607
  641SOL     OW 2335   3.228   6.163   1.543 -0.3893  0.2835  0.0907
  641SOL    HW2 2336   3.299   6.104   1.566  0.9094  2.2207  1.4039
  641SOL    HW3 2337   3.239   6.178   1.449  2.5580  2.3804  0.6425
  641SOL    MW4 2338   3.239   6.158   1.533  0.1709  0.8158  0.3368
  642SOL     OW 2339   4.834   0.593   3.238 -0.0262 -0.6034 -0.4994
  642SOL    HW2 2340   4.807   0.571   3.327  0.9587 -0.8626 -0.2607
  642SOL    HW3 2341   4.876   0.679   3.247  1.0321 -1.1136 -0.5373
  642SOL    MW4 2342   4.836   0.602   3.251  0.2434 -0.7049 -0.4729
  643SOL     OW 2343   2.763   3.728   1.013  0.3535 -0.3374  0.0788
  643SOL    HW2 2344   2.831   3.711   0.948  0.2403  0.0447 -0.1437
  643SOL    HW3 2345   2.770   3.822   1.030  0.3133 -0.4189  0.5424
  643SOL    MW4 2346   2.773   3.738   1.006  0.3333 -0.2977  0.1106
  644SOL     OW 2347   3.119   1.301   5.153 -0.1042  0.4430  0.1538
  644SOL    HW2 2348   3.025   1.309   5.168 -0.1582 -0.0064  0.0746
  644SOL    HW3 2349   3.137   1.208   5.163  0.5372  0.6781  1.3359
  644SOL    MW4 2350   3.109   1.290   5.156 -0.0267  0.4147  0.2993
  645SOL     OW 2351   5.526   0.060   0.848  0.0182 -0.2416 -0.2620
  645SOL    HW2 2352   5.487   0.140   0.882 -1.5404 -0.4312 -1.4839
  645SOL    HW3 2353   5.606   0.089   0.804  0.5230  0.3590  1.0047
  645SOL    MW4 2354   5.531   0.074   0.847 -0.1208 -0.1874 -0.2561
  646SOL     OW 2355   4.197   5.524   1.245 -0.2980 -0.2242  0.1199
  646SOL    HW2 2356   4.143   5.498   1.320 -0.1349 -2.0823 -0.3558
  646SOL    HW3 2357   4.139   5.511   1.169  0.3307 -0.8040 -0.2701
  646SOL    MW4 2358   4.182   5.519   1.245 -0.1935 -0.5458  0.0056
  647SOL     OW 2359   2.996   0.560   2.433 -0.1290  0.5066 -0.8828
  647SOL    HW2 2360   3.074   0.563   2.378  0.0391  0.2158 -0.6672
  647SOL    HW3 2361   2.960   0.472   2.418 -0.9410  0.9667 -1.6888
  647SOL    MW4 2362   3.002   0.548   2.424 -0.2139  0.5289 -0.9607
  648SOL     OW 2363   1.034   0.807   2.521  0.0106  0.4615 -0.0594
  648SOL    HW2 2364   1.024   0.858   2.440 -1.8246 -1.0701 -0.8957
  648SOL    HW3 2365   1.122   0.827   2.552 -0.2586  3.2879 -0.8708
  648SOL    MW4 2366   1.044   0.817   2.514 -0.2671  0.6323 -0.2768
  649SOL     OW 2367   3.685   2.129   0.396  0.2652 -0.3040  0.0641
  649SOL    HW2 2368   3.711   2.210   0.440 -0.4238 -0.4039  0.6840
  649SOL    HW3 2369   3.593   2.143   0.374  0.8455  0.1887 -2.3874
  649SOL    MW4 2370   3.676   2.142   0.399  0.2508 -0.2522 -0.1776
  650SOL     OW 2371   4.366   1.107   4.732  0.7021 -0.1721  0.3011
  650SOL    HW2 2372   4.362   1.202   4.736 -0.7825 -0.2051  0.2369
  650SOL    HW3 2373   4.370   1.080   4.824  0.4613 -0.0546  0.3489
  650SOL    MW4 2374   4.366   1.116   4.745  0.4744 -0.1609  0.2989
  651SOL     OW 2375   3.900   1.629   5.008  0.7823 -0.6267  0.2324
  651SOL    HW2 2376   3.940   1.565   5.067  0.0266 -2.4106 -1.1130
  651SOL    HW3 2377   3.973   1.680   4.975  1.4256 -0.8761  1.2247
  651SOL    MW4 2378   3.915   1.627   5.012  0.7675 -0.8950  0.1858
  652SOL     OW 2379   1.661   5.831   6.196  0.2359  1.0520 -0.4804
  652SOL    HW2 2380   1.580   5.881   6.206  0.3992  0.8370  3.0696
  652SOL    HW3 2381   1.714   5.855   6.271  2.3138 -0.9523 -1.1851
  652SOL    MW4 2382   1.657   5.841   6.207  0.5316  0.7592 -0.1050
  653SOL     OW 2383   3.279   4.081   6.085  0.2409  0.4098  0.7803
  653SOL    HW2 2384   3.195   4.121   6.107 -0.0825 -0.8527  1.9884
  653SOL    HW3 2385   3.305   4.035   6.165  1.3488 -0.4609 -0.0540
  653SOL    MW4 2386   3.272   4.080   6.098  0.3444  0.1284  0.8296
  654SOL     OW 2387   6.048   1.954   3.750 -0.0396 -0.3299  0.1912
  654SOL    HW2 2388   6.041   1.860   3.769  0.8339 -0.4107  0.1788
  654SOL    HW3 2389   6.138   1.977   3.775 -0.5006  0.6943  0.9683
  654SOL    MW4 2390   6.059   1.944   3.756  0.0148 -0.2055  0.2921
  655SOL     OW 2391   0.003   3.691   5.336 -0.3949  0.2446  0.0223
  655SOL    HW2 2392  -0.089   3.695   5.361 -0.3426  0.8849  0.1218
  655SOL    HW3 2393   0.001   3.689   5.240 -0.5044  0.6191  0.0144
  655SOL    MW4 2394  -0.009   3.691   5.327 -0.4024  0.3785  0.0344
  656SOL     OW 2395   2.523   3.974   6.211 -0.1267 -0.1527 -0.1360
  656SOL    HW2 2396   2.546   4.063   6.235 -0.0803  0.1243 -1.1604
  656SOL    HW3 2397   2.490   3.981   6.121  0.7422 -1.2862 -0.5728
  656SOL    MW4 2398   2.522   3.986   6.202 -0.0059 -0.2657 -0.3288
  657SOL     OW 2399   6.405   0.535   3.984 -0.2692  0.3398  0.0568
  657SOL    HW2 2400   6.467   0.486   3.930 -1.2291  1.7271 -2.4677
  657SOL    HW3 2401   6.395   0.481   4.062  2.8188 -0.7462 -0.1299
  657SOL    MW4 2402   6.412   0.521   3.987  0.0116  0.3796 -0.3009
  658SOL     OW 2403   1.486   0.992   2.233 -0.3457  0.3751 -0.6018
  658SOL    HW2 2404   1.423   1.059   2.262  2.4800  2.8798  0.1930
  658SOL    HW3 2405   1.570   1.022   2.267  1.0452 -4.1291  0.6019
  658SOL    MW4 2406   1.489   1.005   2.241  0.2106  0.1113 -0.3381
  659SOL     OW 2407   4.188   5.324   2.547 -0.3700 -0.6363 -0.0499
  659SOL    HW2 2408   4.177   5.275   2.628  0.6617 -0.6755  0.0832
  659SOL    HW3 2409   4.105   5.371   2.536 -0.4165 -0.3786  1.1913
  659SOL    MW4 2410   4.175   5.324   2.556 -0.2400 -0.6075  0.1314
  660SOL     OW 2411   5.112   1.862   3.172  0.3857 -0.4870 -0.5206
  660SOL    HW2 2412   5.022   1.859   3.139 -0.9554  1.1044  2.5633
  660SOL    HW3 2413   5.124   1.777   3.215 -0.7758  0.2754  1.4540
  660SOL    MW4 2414   5.101   1.850   3.173  0.0555 -0.1764  0.1468
  661SOL     OW 2415   0.669   3.932   5.355  0.0240 -0.1811 -0.2826
  661SOL    HW2 2416   0.603   4.000   5.349  0.1175 -0.1778 -1.5424
  661SOL    HW3 2417   0.728   3.961   5.425 -0.1693  0.8299 -0.5235
  661SOL    MW4 2418   0.668   3.945   5.363  0.0109 -0.0473 -0.4806
  662SOL     OW 2419   6.262   0.875   3.218  0.4199  0.1262 -0.6067
  662SOL    HW2 2420   6.270   0.885   3.123  0.4530 -0.8102 -0.7133
  662SOL    HW3 2421   6.294   0.786   3.235  1.6752  0.7548  0.4446
  662SOL    MW4 2422   6.267   0.864   3.207  0.5899  0.0856 -0.4821
  663SOL     OW 2423   0.894   5.645   1.433 -0.1233 -0.2122 -0.5897
  663SOL    HW2 2424   0.925   5.556   1.446 -0.6415 -0.3272 -0.0935
  663SOL    HW3 2425   0.895   5.684   1.520  1.3620  0.7064 -0.9827
  663SOL    MW4 2426   0.898   5.639   1.446  0.0043 -0.1062 -0.5761
  664SOL     OW 2427   5.649   1.443   6.325  0.0156  0.3969  0.2362
  664SOL    HW2 2428   5.583   1.509   6.303  1.2799  1.6353  0.0028
  664SOL    HW3 2429   5.619   1.363   6.282 -1.6025  0.7683  0.5950
  664SOL    MW4 2430   5.636   1.441   6.316 -0.0311  0.6093  0.2527
  665SOL     OW 2431   3.745   3.062   0.417 -0.2246  0.1236  0.2975
  665SOL    HW2 2432   3.751   3.141   0.365 -0.3727 -1.3288 -2.0832
  665SOL    HW3 2433   3.833   3.025   0.417 -0.0394  0.4926  1.8111
  665SOL    MW4 2434   3.757   3.067   0.410 -0.2197 -0.0194  0.1831
  666SOL     OW 2435   2.894   6.344   4.723 -0.5596 -0.1766  0.2015
  666SOL    HW2 2436   2.900   6.249   4.737  1.7405 -0.0198  0.6803
  666SOL    HW3 2437   2.968   6.364   4.666 -0.1888  1.5268  1.2149
  666SOL    MW4 2438   2.905   6.334   4.717 -0.2072  0.0688  0.3984
  667SOL     OW 2439   4.957   0.349   3.797  0.2364  0.6073  0.3613
  667SOL    HW2 2440   4.968   0.312   3.885 -1.1505 -0.7311  0.0314
  667SOL    HW3 2441   4.922   0.437   3.813 -2.2978 -0.4404  1.2332
  667SOL    MW4 2442   4.954   0.356   3.811 -0.2809  0.2925  0.4329
  668SOL     OW 2443   4.904   1.305   0.399 -0.0993 -0.0956 -0.2702
  668SOL    HW2 2444   4.848   1.249   0.345 -0.6690 -0.2576  0.4605
  668SOL    HW3 2445   4.977   1.329   0.342 -0.4022 -0.7033 -0.9320
  668SOL    MW4 2446   4.906   1.300   0.385 -0.2144 -0.1972 -0.2611
  669SOL     OW 2447   0.952   5.800   0.070 -0.8864  0.1692  0.2845
  669SOL    HW2 2448   0.903   5.862   0.123  0.3685 -0.2166  2.0043
  669SOL    HW3 2449   0.967   5.725   0.129  1.2449  0.0527 -0.3155
  669SOL    MW4 2450   0.948   5.798   0.085 -0.4397  0.1029  0.4323
  670SOL     OW 2451   0.868   4.287   4.609 -0.0693  0.0029  0.0715
  670SOL    HW2 2452   0.842   4.272   4.700  0.0482 -0.1562  0.0803
  670SOL    HW3 2453   0.963   4.288   4.611 -0.0310  3.1354  0.4436
  670SOL    MW4 2454   0.877   4.285   4.622 -0.0488  0.3952  0.1218
  671SOL     OW 2455   4.131   0.516   0.196 -0.4485  0.4334  0.1647
  671SOL    HW2 2456   4.197   0.525   0.128  0.0072 -0.2454  0.5116
  671SOL    HW3 2457   4.084   0.600   0.194  1.4305  1.5839  0.9728
  671SOL    MW4 2458   4.134   0.528   0.187 -0.1405  0.4956  0.3171
  672SOL     OW 2459   1.658   2.825   2.230  0.8017 -0.0282 -0.0458
  672SOL    HW2 2460   1.629   2.910   2.264 -1.6608 -0.4082 -0.9900
  672SOL    HW3 2461   1.717   2.846   2.158  1.8691  0.8157  1.0316
  672SOL    MW4 2462   1.662   2.839   2.225  0.6176  0.0330 -0.0282
  673SOL     OW 2463   3.122   4.152   3.024 -0.3985  0.9938 -0.5263
  673SOL    HW2 2464   3.125   4.160   3.120  2.0284  3.3492 -0.6634
  673SOL    HW3 2465   3.041   4.105   3.006 -0.2884 -0.7358  2.7297
  673SOL    MW4 2466   3.112   4.147   3.035 -0.0637  1.0764 -0.1148
  674SOL     OW 2467   3.252   1.392   5.377  1.0409 -0.1281 -0.3401
  674SOL    HW2 2468   3.187   1.429   5.437  1.4311  0.0953 -0.0581
  674SOL    HW3 2469   3.202   1.374   5.297  0.8404  1.0262 -0.4939
  674SOL    MW4 2470   3.237   1.394   5.374  1.0659  0.0537 -0.3232
  675SOL     OW 2471   5.012   4.024   1.963 -0.1898 -0.0230  0.5573
  675SOL    HW2 2472   5.034   4.068   1.881  0.9170  0.4660  1.0975
  675SOL    HW3 2473   4.919   4.004   1.955  0.0012 -0.4054 -1.0070
  675SOL    MW4 2474   5.003   4.027   1.951 -0.0186 -0.0089  0.4222
  676SOL     OW 2475   1.364   4.077   0.077 -0.1189 -0.0901  0.6921
  676SOL    HW2 2476   1.410   4.075  -0.006  0.2149  1.8641  0.7790
  676SOL    HW3 2477   1.281   4.033   0.060  0.9211 -1.8858  0.0107
  676SOL    MW4 2478   1.359   4.071   0.064  0.0623 -0.0692  0.6137
  677SOL     OW 2479   0.723   3.704   2.767  0.6746  0.0584 -0.5129
  677SOL    HW2 2480   0.761   3.617   2.775 -0.9838 -0.8775 -2.0247
  677SOL    HW3 2481   0.718   3.737   2.857 -0.4068 -2.1950  0.3150
  677SOL    MW4 2482   0.728   3.697   2.780  0.3131 -0.3624 -0.6031
  678SOL     OW 2483   6.049   3.092   4.094 -0.2115  0.5504 -0.2410
  678SOL    HW2 2484   6.095   3.022   4.141 -0.7825 -0.0601 -0.5657
  678SOL    HW3 2485   6.103   3.170   4.107  0.9754 -0.1701 -0.7237
  678SOL    MW4 2486   6.062   3.093   4.102 -0.1303  0.3748 -0.3475
  679SOL     OW 2487   6.211   0.538   6.131  0.1598 -0.8942  0.6047
  679SOL    HW2 2488   6.209   0.469   6.065  2.9805  0.5885 -1.2069
  679SOL    HW3 2489   6.293   0.523   6.179  1.7153  1.9947 -0.9244
  679SOL    MW4 2490   6.222   0.527   6.129  0.7371 -0.3174  0.1640
  680SOL     OW 2491   4.472   6.006   2.050 -0.2460  0.4195 -0.2441
  680SOL    HW2 2492   4.386   5.986   2.085 -0.0830  0.4995  0.2086
  680SOL    HW3 2493   4.461   6.092   2.007 -0.4503  0.3086 -0.4174
  680SOL    MW4 2494   4.459   6.015   2.049 -0.2515  0.4154 -0.2073
  681SOL     OW 2495   5.305   1.905   6.354 -0.7810 -0.4865  0.5198
  681SOL    HW2 2496   5.288   1.999   6.352 -0.8120 -0.4988  0.1725
  681SOL    HW3 2497   5.222   1.865   6.329 -0.2849 -0.5486 -1.1057
  681SOL    MW4 2498   5.291   1.912   6.351 -0.7197 -0.4963  0.2595
  682SOL     OW 2499   5.401   3.545   4.632 -0.1556  0.2059  0.1255
  682SOL    HW2 2500   5.459   3.485   4.585  0.0589 -1.4480  2.3582
  682SOL    HW3 2501   5.321   3.547   4.579  0.0225 -1.6709 -0.2878
  682SOL    MW4 2502   5.398   3.537   4.619 -0.1038 -0.2599  0.3656
  683SOL     OW 2503   1.473   3.503   4.407 -0.2034  0.0044 -0.5315
  683SOL    HW2 2504   1.482   3.599   4.410  1.7101 -0.1515  0.3371
  683SOL    HW3 2505   1.552   3.473   4.362  0.2604 -1.2630  1.0379
  683SOL    MW4 2506   1.485   3.512   4.402  0.1102 -0.1834 -0.2098
  684SOL     OW 2507   3.963   1.422   5.173 -0.5054  0.0485  0.1204
  684SOL    HW2 2508   3.998   1.471   5.248 -1.9208  0.5871  0.4570
  684SOL    HW3 2509   3.875   1.397   5.201 -0.0063 -2.3049 -0.2234
  684SOL    MW4 2510   3.956   1.425   5.187 -0.6263 -0.1909  0.1195
  685SOL     OW 2511   4.161   0.734   4.671  0.3195 -0.4607 -0.1927
  685SOL    HW2 2512   4.205   0.651   4.689  0.6993 -0.4501 -1.0514
  685SOL    HW3 2513   4.222   0.783   4.618  0.0089  0.2970  0.1344
  685SOL    MW4 2514   4.175   0.730   4.667  0.3286 -0.3594 -0.2628
  686SOL     OW 2515   1.508   0.735   3.350 -0.5634  0.0254 -0.2681
  686SOL    HW2 2516   1.507   0.830   3.340  0.1401 -0.0350 -1.0045
  686SOL    HW3 2517   1.419   0.708   3.328 -1.2036  0.6339  1.4078
  686SOL    MW4 2518   1.496   0.744   3.346 -0.5551  0.0977 -0.1442
  687SOL     OW 2519   5.126   2.808   5.585 -0.0862  0.1817  0.1150
  687SOL    HW2 2520   5.115   2.764   5.501  0.7398 -0.0561  0.1202
  687SOL    HW3 2521   5.047   2.861   5.595 -0.2774  0.0681 -0.7182
  687SOL    MW4 2522   5.114   2.809   5.575 -0.0024  0.1353  0.0058
  688SOL     OW 2523   4.426   2.247   3.474 -0.4018 -0.6811 -0.4717
  688SOL    HW2 2524   4.488   2.266   3.403  1.2495  0.2890  1.1493
  688SOL    HW3 2525   4.467   2.283   3.553 -1.5698 -2.8174  1.2271
  688SOL    MW4 2526   4.439   2.254   3.475 -0.3380 -0.8350 -0.0337
  689SOL     OW 2527   5.237   3.371   2.005  0.0754  0.6725 -0.4142
  689SOL    HW2 2528   5.242   3.290   2.056  1.9374  1.5912  0.9199
  689SOL    HW3 2529   5.226   3.340   1.914 -2.0646 -0.9917  0.3018
  689SOL    MW4 2530   5.236   3.356   2.000  0.0387  0.5742 -0.1437
  690SOL     OW 2531   3.858   0.871   3.265 -0.1197  0.4321  0.0158
  690SOL    HW2 2532   3.782   0.899   3.213  0.6167 -1.6117 -2.3198
  690SOL    HW3 2533   3.928   0.930   3.238  0.2989 -0.7139 -1.5371
  690SOL    MW4 2534   3.857   0.882   3.254  0.0327  0.0113 -0.4972
  691SOL     OW 2535   4.011   4.138   1.823 -0.2555 -0.1999  0.8761
  691SOL    HW2 2536   3.916   4.151   1.820 -0.2492 -0.1109  1.0236
  691SOL    HW3 2537   4.040   4.190   1.899 -0.0240  0.1692  0.5388
  691SOL    MW4 2538   4.002   4.147   1.833 -0.2241 -0.1395  0.8511
  692SOL     OW 2539   3.117   0.411   0.317 -0.3803 -0.0857  0.4533
  692SOL    HW2 2540   3.027   0.393   0.345 -0.8660  1.6647  0.1427
  692SOL    HW3 2541   3.149   0.328   0.284 -1.6472 -0.9103  1.2280
  692SOL    MW4 2542   3.109   0.398   0.316 -0.6116  0.0364  0.5145
  693SOL     OW 2543   5.610   0.567   1.073 -0.3455  0.0044 -0.2141
  693SOL    HW2 2544   5.647   0.654   1.063 -2.5060  0.9964 -0.2282
  693SOL    HW3 2545   5.666   0.523   1.137 -0.0865  1.9537  0.9475
  693SOL    MW4 2546   5.622   0.572   1.080 -0.5964  0.3925 -0.0627
  694SOL     OW 2547   2.734   2.481   5.234 -0.2705  0.0269  0.0675
  694SOL    HW2 2548   2.653   2.519   5.268  0.0754 -0.1930  1.1701
  694SOL    HW3 2549   2.719   2.387   5.235  0.2898 -0.0621  1.0752
  694SOL    MW4 2550   2.721   2.474   5.239 -0.1510 -0.0138  0.3460
  695SOL     OW 2551   5.701   2.461   1.491  0.2385 -0.4599  0.5209
  695SOL    HW2 2552   5.752   2.385   1.465 -1.6241 -1.7553  0.4933
  695SOL    HW3 2553   5.655   2.434   1.570 -2.0607 -0.1435 -0.6184
  695SOL    MW4 2554   5.701   2.448   1.498 -0.3106 -0.5891  0.3670
  696SOL     OW 2555   3.210   4.532   1.665  0.2986 -0.8837  0.3940
  696SOL    HW2 2556   3.287   4.586   1.644  1.1892 -2.3123 -0.1605
  696SOL    HW3 2557   3.228   4.499   1.753  0.3486 -1.2860  0.2313
  696SOL    MW4 2558   3.223   4.535   1.674  0.4227 -1.1252  0.2994
  697SOL     OW 2559   1.988   3.691   2.341 -0.3455 -0.0475 -0.4059
  697SOL    HW2 2560   1.902   3.733   2.340 -0.5689 -0.4828 -2.1440
  697SOL    HW3 2561   1.977   3.617   2.401 -1.5960 -0.8790 -1.5947
  697SOL    MW4 2562   1.975   3.687   2.349 -0.5400 -0.2146 -0.7921
  698SOL     OW 2563   4.218   4.750   5.889  0.4805 -0.2527  0.3580
  698SOL    HW2 2564   4.126   4.774   5.894  0.2333 -0.6017 -1.5442
  698SOL    HW3 2565   4.265   4.833   5.898 -0.0495  0.0116  0.7072
  698SOL    MW4 2566   4.212   4.764   5.891  0.3780 -0.2639  0.1531
  699SOL     OW 2567   5.976   0.231   5.198  0.3805 -0.6041  0.4037
  699SOL    HW2 2568   5.931   0.304   5.157  2.6666  0.7475  0.1129
  699SOL    HW3 2569   5.960   0.156   5.141 -0.6575  0.0505 -0.1750
  699SOL    MW4 2570   5.968   0.231   5.185  0.5452 -0.3394  0.2890
  700SOL     OW 2571   6.241   1.066   1.975 -0.0605  0.0974 -0.7828
  700SOL    HW2 2572   6.289   0.987   1.950  1.6077  0.9648 -0.4304
  700SOL    HW3 2573   6.306   1.136   1.973 -1.3662  1.3726 -0.4904
  700SOL    MW4 2574   6.256   1.065   1.971 -0.0127  0.3801 -0.6977
  701SOL     OW 2575   0.609   1.115   2.373  0.2395  0.5610 -0.2856
  701SOL    HW2 2576   0.539   1.139   2.313  0.5620 -2.3232 -2.0129
  701SOL    HW3 2577   0.564   1.083   2.451 -0.3193  0.5783 -0.5933
  701SOL    MW4 2578   0.594   1.114   2.376  0.2083  0.1827 -0.5541
  702SOL     OW 2579   0.116   5.907   5.258  0.1096 -0.5091  0.7900
  702SOL    HW2 2580   0.054   5.854   5.307 -0.0773 -0.8023  0.2537
  702SOL    HW3 2581   0.097   5.997   5.284 -1.3638 -0.4777 -0.2217
  702SOL    MW4 2582   0.105   5.912   5.268 -0.1094 -0.5437  0.5858
  703SOL     OW 2583   3.753   3.750   0.911  0.0900  0.4344 -0.3133
  703SOL    HW2 2584   3.659   3.768   0.906  0.0227  0.0287 -0.5525
  703SOL    HW3 2585   3.790   3.829   0.951 -0.4638  0.2396  0.6438
  703SOL    MW4 2586   3.745   3.763   0.916  0.0081  0.3552 -0.2186
  704SOL     OW 2587   0.849   0.326   3.184  0.6936 -0.5742 -0.0930
  704SOL    HW2 2588   0.941   0.350   3.186  0.3552  0.8104  0.2995
  704SOL    HW3 2589   0.814   0.371   3.106  0.3019 -0.9127 -0.1185
  704SOL    MW4 2590   0.856   0.335   3.174  0.5973 -0.4361 -0.0446
  705SOL     OW 2591   4.824   0.529   0.431 -0.2436  0.2851 -0.0514
  705SOL    HW2 2592   4.848   0.574   0.350 -0.0550 -0.0055 -0.1578
  705SOL    HW3 2593   4.907   0.518   0.478 -0.4551  1.1626  0.5471
  705SOL    MW4 2594   4.838   0.533   0.427 -0.2466  0.3626  0.0135
  706SOL     OW 2595   1.810   2.553   3.973  0.0682  0.6922 -0.7109
  706SOL    HW2 2596   1.768   2.512   4.049 -1.5993  0.2366 -1.8327
  706SOL    HW3 2597   1.877   2.490   3.946  0.3059  0.6118  0.0330
  706SOL    MW4 2598   1.813   2.540   3.979 -0.1205  0.6215 -0.7607
  707SOL     OW 2599   1.548   4.517   4.294  0.6562  0.0425  0.0669
  707SOL    HW2 2600   1.530   4.528   4.387  0.1925  0.0688 -0.0235
  707SOL    HW3 2601   1.609   4.444   4.290 -0.0076 -0.5321  0.3325
  707SOL    MW4 2602   1.554   4.509   4.306  0.5074 -0.0299  0.0900
  708SOL     OW 2603   5.626   4.042   4.193 -1.0004  0.0106 -0.3923
  708SOL    HW2 2604   5.547   3.998   4.226 -1.2569  2.0925  2.0029
  708SOL    HW3 2605   5.594   4.122   4.151 -0.2666 -0.2022 -1.4205
  708SOL    MW4 2606   5.611   4.046   4.192 -0.9374  0.2572 -0.2120
  709SOL     OW 2607   2.414   0.758   1.799  0.6197 -0.4274 -0.1379
  709SOL    HW2 2608   2.400   0.697   1.726  1.9090 -0.4579 -0.3799
  709SOL    HW3 2609   2.326   0.781   1.828 -0.0432  1.1499 -2.9776
  709SOL    MW4 2610   2.401   0.753   1.793  0.7024 -0.2233 -0.5445
  710SOL     OW 2611   1.415   3.669   2.352 -0.0789 -0.0404 -0.5003
  710SOL    HW2 2612   1.353   3.598   2.337 -1.1877  0.7250  0.2675
  710SOL    HW3 2613   1.494   3.626   2.384 -0.7726 -0.9306  0.0696
  710SOL    MW4 2614   1.417   3.654   2.354 -0.3167 -0.0569 -0.3238
  711SOL     OW 2615   4.688   0.947   5.813  0.2723  0.6202 -0.6976
  711SOL    HW2 2616   4.687   0.858   5.847 -3.8982  0.7337 -0.0004
  711SOL    HW3 2617   4.667   0.937   5.720  0.4366  0.8170 -0.7546
  711SOL    MW4 2618   4.685   0.934   5.805 -0.2562  0.6611 -0.6131
  712SOL     OW 2619   2.103   4.506   0.739  0.7631  0.3475  0.1510
  712SOL    HW2 2620   2.041   4.433   0.737 -0.4479  1.3379  0.3129
  712SOL    HW3 2621   2.186   4.468   0.709  0.7314 -1.5942  2.2297
  712SOL    MW4 2622   2.106   4.492   0.734  0.5992  0.2220  0.4466
  713SOL     OW 2623   3.335   0.052   4.866 -0.1578  0.1987 -0.3972
  713SOL    HW2 2624   3.349  -0.040   4.890  0.8925  0.1598 -1.1092
  713SOL    HW3 2625   3.298   0.092   4.945  2.7410 -0.0084  1.1815
  713SOL    MW4 2626   3.332   0.045   4.879  0.3633  0.1662 -0.2829
  714SOL     OW 2627   6.240   5.468   2.722  0.2445  0.2196  0.2865
  714SOL    HW2 2628   6.159   5.417   2.711  0.7305 -0.7236  0.9308
  714SOL    HW3 2629   6.308   5.402   2.734  1.0375  1.0191  0.2258
  714SOL    MW4 2630   6.238   5.453   2.722  0.4132  0.2006  0.3635
  715SOL     OW 2631   4.933   1.790   2.772 -0.2270 -0.0632 -0.3895
  715SOL    HW2 2632   5.001   1.761   2.710  0.9664  0.4949  0.6086
  715SOL    HW3 2633   4.927   1.720   2.836 -0.7743 -0.2190 -0.6102
  715SOL    MW4 2634   4.941   1.777   2.772 -0.1418 -0.0101 -0.2869
  716SOL     OW 2635   2.196   3.686   4.372 -0.1571 -0.4720 -0.7486
  716SOL    HW2 2636   2.150   3.643   4.444  1.3072 -0.3487  0.3067
  716SOL    HW3 2637   2.165   3.641   4.293 -0.6917 -1.6157  0.0883
  716SOL    MW4 2638   2.186   3.675   4.371 -0.0344 -0.6066 -0.4990
  717SOL     OW 2639   2.542   1.078   2.681  0.2326  0.4347  0.0879
  717SOL    HW2 2640   2.506   1.081   2.593  1.7393 -0.3451 -0.5936
  717SOL    HW3 2641   2.563   0.985   2.695 -1.7937  0.1733  2.0654
  717SOL    MW4 2642   2.540   1.066   2.671  0.1641  0.2973  0.2589
  718SOL     OW 2643   3.739   6.242   4.876  0.1012  0.2921 -0.2958
  718SOL    HW2 2644   3.756   6.152   4.849  1.5541  0.5134 -0.1688
  718SOL    HW3 2645   3.687   6.279   4.804 -1.2765 -0.8693  0.0435
  718SOL    MW4 2646   3.734   6.235   4.863  0.1111  0.1681 -0.2343
  719SOL     OW 2647   3.003   2.726   3.444  0.1021 -0.3976  0.6377
  719SOL    HW2 2648   3.082   2.780   3.437  1.1884 -1.9493  0.2813
  719SOL    HW3 2649   3.024   2.663   3.514 -1.3203 -0.0658  1.4029
  719SOL    MW4 2650   3.017   2.725   3.453  0.0578 -0.5585  0.6916
  720SOL     OW 2651   1.551   0.877   4.814  0.4343 -0.1246 -0.7103
  720SOL    HW2 2652   1.578   0.863   4.905 -1.0732 -4.2110 -0.6512
  720SOL    HW3 2653   1.632   0.870   4.764  0.9763 -0.3388  0.1709
  720SOL    MW4 2654   1.565   0.874   4.820  0.3069 -0.6920 -0.5863
  721SOL     OW 2655   5.170   5.747   1.630 -0.0146  0.1247  0.4590
  721SOL    HW2 2656   5.147   5.709   1.715  0.7717  0.8155  0.9978
  721SOL    HW3 2657   5.098   5.807   1.610 -0.9519 -1.1527 -0.1011
  721SOL    MW4 2658   5.158   5.750   1.639 -0.0345  0.0473  0.4562
  722SOL     OW 2659   4.250   1.696   4.579 -0.6490 -0.3992  0.0181
  722SOL    HW2 2660   4.159   1.667   4.588 -0.9815  0.3439 -0.8111
  722SOL    HW3 2661   4.270   1.681   4.487 -0.5844  1.2794 -0.2613
  722SOL    MW4 2662   4.240   1.690   4.568 -0.6843 -0.0797 -0.1282
  723SOL     OW 2663   1.209   4.702   2.402 -0.1092  0.0911 -0.5296
  723SOL    HW2 2664   1.206   4.782   2.350 -2.4683  0.0854 -0.5315
  723SOL    HW3 2665   1.250   4.637   2.346 -3.0042 -0.0508 -2.7042
  723SOL    MW4 2666   1.214   4.704   2.388 -0.8025  0.0717 -0.8168
  724SOL     OW 2667   6.209   2.898   3.150  0.5540 -0.3770 -0.0284
  724SOL    HW2 2668   6.262   2.968   3.114 -0.5193  0.0038 -0.9195
  724SOL    HW3 2669   6.233   2.894   3.243  1.4733  0.3679 -0.2289
  724SOL    MW4 2670   6.219   2.907   3.158  0.5337 -0.2285 -0.1724
  725SOL     OW 2671   2.418   4.467   4.858 -0.2527  0.0201  0.0740
  725SOL    HW2 2672   2.421   4.446   4.951  1.5582 -1.1607 -0.1993
  725SOL    HW3 2673   2.330   4.444   4.830  0.2137 -3.0235  0.8006
  725SOL    MW4 2674   2.407   4.461   4.866  0.0478 -0.5372  0.1338
  726SOL     OW 2675   5.492   1.136   4.398 -0.0395  0.5590  0.0198
  726SOL    HW2 2676   5.402   1.138   4.433 -0.6072 -1.0540 -1.1942
  726SOL    HW3 2677   5.545   1.175   4.467 -1.8178  2.8255  0.2389
  726SOL    MW4 2678   5.487   1.142   4.412 -0.3490  0.6452 -0.1115
  727SOL     OW 2679   0.877   4.259   3.638  0.0718  0.3114 -0.0423
  727SOL    HW2 2680   0.872   4.333   3.578  0.3332 -0.0080 -0.4637
  727SOL    HW3 2681   0.959   4.214   3.616  0.0831  0.0831  0.4282
  727SOL    MW4 2682   0.887   4.263   3.627  0.1078  0.2391 -0.0358
  728SOL     OW 2683   0.362   1.104   5.107  0.3283  0.0561  0.2681
  728SOL    HW2 2684   0.288   1.149   5.066  0.1490 -1.0784 -0.7110
  728SOL    HW3 2685   0.343   1.107   5.201 -1.8464 -1.5940 -0.0181
  728SOL    MW4 2686   0.349   1.110   5.114  0.0177 -0.3113  0.1011
  729SOL     OW 2687   3.944   1.659   2.635  0.1035 -0.0890 -0.2278
  729SOL    HW2 2688   3.961   1.565   2.625  0.6385 -0.0609  0.3535
  729SOL    HW3 2689   3.871   1.677   2.576  0.0516 -0.8568 -0.4026
  729SOL    MW4 2690   3.936   1.649   2.626  0.1672 -0.1866 -0.1742
  730SOL     OW 2691   3.615   1.166   1.496  0.1907 -0.0357  0.0128
  730SOL    HW2 2692   3.541   1.225   1.485 -0.1730 -0.4748  0.0871
  730SOL    HW3 2693   3.627   1.161   1.591 -1.4714 -2.1274  0.1924
  730SOL    MW4 2694   3.607   1.174   1.507 -0.0766 -0.3696  0.0463
  731SOL     OW 2695   5.946   6.239   4.865 -0.2734 -0.1093  0.2077
  731SOL    HW2 2696   5.867   6.192   4.889  0.6017 -1.1049  1.2329
  731SOL    HW3 2697   6.012   6.171   4.851  0.6651  0.7375  0.3580
  731SOL    MW4 2698   5.944   6.224   4.866 -0.0341 -0.1289  0.3628
  732SOL     OW 2699   2.283   2.666   5.613 -0.1387 -0.8067 -0.4192
  732SOL    HW2 2700   2.277   2.659   5.518  0.9349  2.5664 -0.8975
  732SOL    HW3 2701   2.249   2.754   5.632  0.4261 -1.0746  2.2025
  732SOL    MW4 2702   2.278   2.677   5.603  0.0775 -0.3970 -0.1364
  733SOL     OW 2703   0.296   2.393   1.163  0.0124  0.6676  0.1604
  733SOL    HW2 2704   0.379   2.439   1.151  0.8457 -1.0394 -0.9675
  733SOL    HW3 2705   0.274   2.405   1.255  2.0260  0.2991  0.7198
  733SOL    MW4 2706   0.304   2.401   1.173  0.3880  0.3938  0.0854
  734SOL     OW 2707   0.359   1.252   3.809 -0.0829 -0.4171 -0.1406
  734SOL    HW2 2708   0.387   1.164   3.835  0.2481 -0.3579 -0.2940
  734SOL    HW3 2709   0.368   1.253   3.713 -0.9221 -0.5056 -0.2246
  734SOL    MW4 2710   0.364   1.241   3.800 -0.1499 -0.4210 -0.1719
  735SOL     OW 2711   2.619   6.338   4.602  0.2609  0.2756 -0.8327
  735SOL    HW2 2712   2.632   6.301   4.514 -0.6167 -1.5540 -0.2588
  735SOL    HW3 2713   2.707   6.354   4.635  0.7922 -2.2613 -0.7920
  735SOL    MW4 2714   2.632   6.335   4.594  0.2152 -0.3005 -0.7516
  736SOL     OW 2715   5.621   2.305   3.408 -0.3296 -0.8269  0.6250
  736SOL    HW2 2716   5.658   2.351   3.483 -1.6865 -1.5913  1.8243
  736SOL    HW3 2717   5.696   2.263   3.366  0.2450 -2.4554  3.0622
  736SOL    MW4 2718   5.636   2.305   3.412 -0.4328 -1.1426  1.1048
  737SOL     OW 2719   4.826   0.225   3.563  0.1574 -0.2523  0.2563
  737SOL    HW2 2720   4.869   0.230   3.649 -0.3076  1.1640  0.4292
  737SOL    HW3 2721   4.896   0.243   3.500 -0.0409  1.6990  0.5193
  737SOL    MW4 2722   4.841   0.228   3.566  0.0699  0.1920  0.3138
  738SOL     OW 2723   2.061   2.090   6.406 -0.0694  0.0135  0.1662
  738SOL    HW2 2724   2.019   2.131   6.330 -0.3495  1.4611  1.0640
  738SOL    HW3 2725   2.135   2.042   6.369 -1.1670 -0.7088 -1.1898
  738SOL    MW4 2726   2.065   2.089   6.391 -0.2512  0.1092  0.1057
  739SOL     OW 2727   1.143   3.612   6.110  0.1105 -0.6090  0.0467
  739SOL    HW2 2728   1.194   3.685   6.074  0.3024 -1.6971 -2.0294
  739SOL    HW3 2729   1.084   3.653   6.173  0.0687  1.3828 -1.2036
  739SOL    MW4 2730   1.142   3.627   6.114  0.1303 -0.4898 -0.3922
  740SOL     OW 2731   5.175   0.112   2.249  0.3708 -0.0188 -0.0010
  740SOL    HW2 2732   5.116   0.123   2.175 -0.4031 -0.4524  0.5353
  740SOL    HW3 2733   5.260   0.092   2.210  0.1487  0.5367 -0.7808
  740SOL    MW4 2734   5.178   0.111   2.234  0.2394 -0.0027 -0.0331
  741SOL     OW 2735   6.015   5.679   1.235 -0.3008 -0.5301 -0.2672
  741SOL    HW2 2736   6.015   5.626   1.156 -0.8651 -1.0158  0.0429
  741SOL    HW3 2737   6.054   5.622   1.302  1.9146  0.5348 -0.5884
  741SOL    MW4 2738   6.020   5.664   1.234 -0.0829 -0.4537 -0.2687
  742SOL     OW 2739   3.458   0.366   3.034  0.6389 -0.4401  0.2349
  742SOL    HW2 2740   3.525   0.435   3.026 -0.8690  1.3155  1.7130
  742SOL    HW3 2741   3.393   0.388   2.967  0.6559 -1.0911 -0.0049
  742SOL    MW4 2742   3.458   0.378   3.024  0.4422 -0.2944  0.3983
  743SOL     OW 2743   5.861   3.790   5.988  0.5531  0.0762 -0.0964
  743SOL    HW2 2744   5.815   3.714   5.953  2.9188 -1.2395 -0.5844
  743SOL    HW3 2745   5.811   3.816   6.065 -1.2030 -0.9589 -0.8454
  743SOL    MW4 2746   5.848   3.784   5.994  0.6335 -0.2340 -0.2596
  744SOL     OW 2747   0.641   1.401   2.709 -0.0166 -0.0298  0.3403
  744SOL    HW2 2748   0.672   1.386   2.620 -1.1701 -2.0863  0.2484
  744SOL    HW3 2749   0.631   1.496   2.715  0.9194  0.2177 -1.4099
  744SOL    MW4 2750   0.644   1.412   2.698 -0.0453 -0.2685  0.0973
  745SOL     OW 2751   1.256   4.533   2.699 -0.3518  0.4582 -0.7821
  745SOL    HW2 2752   1.343   4.497   2.679 -0.2298  0.2614  0.0545
  745SOL    HW3 2753   1.217   4.550   2.613  0.7336  1.0920 -1.1802
  745SOL    MW4 2754   1.263   4.531   2.685 -0.1925  0.5158 -0.7242
  746SOL     OW 2755   5.915   1.454   0.321 -0.4221  0.3321 -0.4041
  746SOL    HW2 2756   5.832   1.418   0.291  0.7432 -2.9988 -0.0832
  746SOL    HW3 2757   5.977   1.431   0.252  0.5267  1.4466  0.0418
  746SOL    MW4 2758   5.913   1.446   0.308 -0.1432  0.0396 -0.3029
  747SOL     OW 2759   4.215   0.804   1.733  0.0793 -0.0479 -0.2893
  747SOL    HW2 2760   4.179   0.833   1.650  1.6846  0.6598 -0.7842
  747SOL    HW3 2761   4.154   0.737   1.764 -0.9463  0.2147 -1.6559
  747SOL    MW4 2762   4.202   0.799   1.726  0.1558  0.0801 -0.5349
  748SOL     OW 2763   0.285   4.106   0.928  0.0925 -0.3541 -0.5050
  748SOL    HW2 2764   0.313   4.174   0.868  0.5364 -0.5104 -0.4791
  748SOL    HW3 2765   0.190   4.098   0.913 -0.3960  1.7831  1.0269
  748SOL    MW4 2766   0.276   4.114   0.918  0.0866 -0.0928 -0.2995
  749SOL     OW 2767   2.826   0.522   6.275  0.1488 -0.2064 -0.8654
  749SOL    HW2 2768   2.846   0.567   6.193  0.2075  0.7647 -0.3343
  749SOL    HW3 2769   2.760   0.457   6.251  0.3191 -0.0760 -1.7177
  749SOL    MW4 2770   2.820   0.519   6.261  0.1790 -0.0611 -0.9078
  750SOL     OW 2771   4.181   1.968   4.510 -0.4709  0.6142  0.1778
  750SOL    HW2 2772   4.093   1.956   4.548  0.1741  1.3418  2.0070
  750SOL    HW3 2773   4.224   1.883   4.523 -0.8490  0.2829 -0.6452
  750SOL    MW4 2774   4.175   1.955   4.517 -0.4357  0.6665  0.3106
  751SOL     OW 2775   1.893   5.068   2.258  0.0714 -0.2240 -0.7683
  751SOL    HW2 2776   1.869   4.989   2.210  1.4490 -1.8371  1.0399
  751SOL    HW3 2777   1.815   5.124   2.254 -1.4738 -2.2782 -0.8605
  751SOL    MW4 2778   1.880   5.065   2.251  0.0493 -0.7079 -0.5419
  752SOL     OW 2779   4.625   4.745   5.054 -0.1720 -0.6492  0.1050
  752SOL    HW2 2780   4.659   4.724   5.141  1.9985  0.4554 -0.4040
  752SOL    HW3 2781   4.621   4.840   5.052 -4.8783 -0.6204  0.5863
  752SOL    MW4 2782   4.629   4.755   5.065 -0.5066 -0.4997  0.1014
  753SOL     OW 2783   4.878   5.125   1.767 -0.2894  0.0889  0.0666
  753SOL    HW2 2784   4.807   5.164   1.819 -1.1407 -0.1416 -0.8896
  753SOL    HW3 2785   4.955   5.178   1.788 -0.5009 -0.2337  1.8557
  753SOL    MW4 2786   4.878   5.137   1.777 -0.4296  0.0159  0.1765
  754SOL     OW 2787   2.674   1.562   3.443 -0.3120  0.0403  0.3865
  754SOL    HW2 2788   2.659   1.617   3.366 -0.8180  1.4007  1.4145
  754SOL    HW3 2789   2.639   1.613   3.516  1.1685 -0.7173  1.6768
  754SOL    MW4 2790   2.667   1.576   3.442 -0.1834  0.1199  0.6924
  755SOL     OW 2791   5.461   5.321   0.581 -0.0093 -0.0429  0.0436
  755SOL    HW2 2792   5.366   5.313   0.573  0.2385 -2.5781 -1.2822
  755SOL    HW3 2793   5.475   5.415   0.594 -2.5517  0.7447 -1.8862
  755SOL    MW4 2794   5.450   5.332   0.582 -0.3120 -0.2735 -0.3860
  756SOL     OW 2795   4.469   3.654   4.613 -0.2033  0.0784  0.5006
  756SOL    HW2 2796   4.489   3.621   4.700  0.2292  1.7515  1.0728
  756SOL    HW3 2797   4.517   3.737   4.607 -0.0224 -0.1248 -1.4265
  756SOL    MW4 2798   4.478   3.661   4.624 -0.1224  0.2723  0.3219
  757SOL     OW 2799   0.447   5.566   5.333  0.4806  0.0650  0.3182
  757SOL    HW2 2800   0.385   5.529   5.271 -1.4548 -1.0817  2.7869
  757SOL    HW3 2801   0.491   5.636   5.283 -1.4887 -0.2508 -2.0716
  757SOL    MW4 2802   0.445   5.571   5.318 -0.0346 -0.1279  0.3286
  758SOL     OW 2803   3.799   0.445   2.599  0.5083  0.2396 -0.1043
  758SOL    HW2 2804   3.822   0.382   2.530  0.5901 -1.3458  1.2906
  758SOL    HW3 2805   3.742   0.508   2.556 -0.0345 -1.1062 -1.4723
  758SOL    MW4 2806   3.795   0.445   2.584  0.4475 -0.1472 -0.1008
  759SOL     OW 2807   2.807   0.716   3.032  0.4208 -0.3970  0.4110
  759SOL    HW2 2808   2.758   0.712   2.950 -1.5063  2.4325  1.2759
  759SOL    HW3 2809   2.759   0.657   3.091  1.0112 -1.3762 -0.0518
  759SOL    MW4 2810   2.794   0.708   3.029  0.2445 -0.1529  0.4640
  760SOL     OW 2811   3.280   2.929   5.981  0.1732  0.0343  0.4869
  760SOL    HW2 2812   3.332   2.933   5.900  0.0774 -2.3297  0.2509
  760SOL    HW3 2813   3.289   3.016   6.019  1.1358  0.8716 -1.5031
  760SOL    MW4 2814   3.288   2.941   5.975  0.2875 -0.1671  0.1932
  761SOL     OW 2815   3.394   0.976   5.694 -0.3527  0.1776 -0.7817
  761SOL    HW2 2816   3.332   0.905   5.681  0.1705 -0.1550 -1.5864
  761SOL    HW3 2817   3.345   1.055   5.672 -0.8468  0.0393 -0.1895
  761SOL    MW4 2818   3.380   0.977   5.689 -0.3489  0.1155 -0.8098
  762SOL     OW 2819   6.216   3.055   2.760  0.3198  0.5414 -0.1803
  762SOL    HW2 2820   6.269   2.976   2.767  0.8657  0.7265 -1.8300
  762SOL    HW3 2821   6.266   3.122   2.807  0.5961  0.2621 -0.0762
  762SOL    MW4 2822   6.229   3.054   2.767  0.4283  0.5290 -0.3842
  763SOL     OW 2823   3.618   2.098   5.997  0.0333 -0.2621 -0.6194
  763SOL    HW2 2824   3.675   2.121   5.923  0.1258  0.4603 -0.3358
  763SOL    HW3 2825   3.677   2.093   6.072 -0.4160  1.8654 -0.0516
  763SOL    MW4 2826   3.633   2.101   5.997 -0.0138  0.1139 -0.5070
  764SOL     OW 2827   5.910   2.428   1.171  0.0844 -0.1514 -0.2003
  764SOL    HW2 2828   5.889   2.368   1.243  1.9124 -0.8038 -0.1432
  764SOL    HW3 2829   5.952   2.503   1.213  2.6007 -1.2242 -0.6063
  764SOL    MW4 2830   5.913   2.430   1.186  0.6576 -0.3790 -0.2463
  765SOL     OW 2831   0.080   4.149   5.406  0.1166  0.0809 -0.0349
  765SOL    HW2 2832   0.106   4.058   5.417  0.1752  0.2902  1.8838
  765SOL    HW3 2833  -0.016   4.147   5.416 -0.0275  0.0747 -1.3004
  765SOL    MW4 2834   0.071   4.137   5.409  0.1053  0.1077  0.0513
  766SOL     OW 2835   1.573   1.587   6.228  0.0830 -0.5623  0.1295
  766SOL    HW2 2836   1.513   1.634   6.170  0.1589  0.5471  0.9082
  766SOL    HW3 2837   1.652   1.575   6.176  0.0533  0.1727 -0.0925
  766SOL    MW4 2838   1.575   1.592   6.213  0.0891 -0.3189  0.2030
  767SOL     OW 2839   5.774   5.601   2.834  0.0013  0.4121  0.3818
  767SOL    HW2 2840   5.818   5.552   2.764  0.5094 -0.1311  1.0679
  767SOL    HW3 2841   5.790   5.549   2.913 -3.0799 -0.6178  0.4666
  767SOL    MW4 2842   5.782   5.588   2.835 -0.3382  0.2046  0.4835
  768SOL     OW 2843   1.053   0.147   5.707  0.0913 -0.2754  0.1534
  768SOL    HW2 2844   1.140   0.160   5.744 -0.3692  1.3074  0.7271
  768SOL    HW3 2845   0.992   0.163   5.779 -0.7476  0.7350 -0.7364
  768SOL    MW4 2846   1.056   0.151   5.721 -0.0802  0.0667  0.1117
  769SOL     OW 2847   2.771   1.453   2.709 -0.1535 -0.0951 -0.3191
  769SOL    HW2 2848   2.684   1.472   2.676  0.4523  1.6848 -1.0414
  769SOL    HW3 2849   2.767   1.363   2.740 -2.2589 -0.0066 -0.2458
  769SOL    MW4 2850   2.759   1.444   2.709 -0.3514  0.1514 -0.4047
  770SOL     OW 2851   5.619   3.137   2.095  0.1942 -0.0068 -0.2492
  770SOL    HW2 2852   5.577   3.209   2.142 -0.6074 -0.1517 -0.7235
  770SOL    HW3 2853   5.666   3.088   2.162  2.4107  2.0225 -0.1477
  770SOL    MW4 2854   5.620   3.140   2.110  0.3809  0.2418 -0.2984
  771SOL     OW 2855   4.654   0.050   0.236 -0.1278  0.1858 -0.7017
  771SOL    HW2 2856   4.746   0.049   0.260 -0.0667 -0.5127 -0.9417
  771SOL    HW3 2857   4.630  -0.042   0.228 -0.7491  0.3682 -1.0199
  771SOL    MW4 2858   4.663   0.038   0.238 -0.2017  0.1177 -0.7754
  772SOL     OW 2859   4.347   0.798   3.079  0.4487  0.0101  0.8880
  772SOL    HW2 2860   4.391   0.802   3.164  1.2065  2.3158  0.4572
  772SOL    HW3 2861   4.283   0.870   3.082 -0.3749 -0.6597 -0.0399
  772SOL    MW4 2862   4.344   0.808   3.091  0.4400  0.2259  0.7088
  773SOL     OW 2863   3.600   3.895   3.463  0.2815 -0.2682  0.1769
  773SOL    HW2 2864   3.571   3.806   3.481  0.6563 -0.6116 -0.8630
  773SOL    HW3 2865   3.630   3.928   3.548 -2.0844 -0.2705  1.0932
  773SOL    MW4 2866   3.600   3.888   3.477  0.0188 -0.3138  0.1606
  774SOL     OW 2867   4.083   0.680   0.917 -0.2712  0.5403 -0.5578
  774SOL    HW2 2868   4.146   0.685   0.845 -0.3604  0.7197 -0.6224
  774SOL    HW3 2869   4.126   0.726   0.989  0.7377 -1.4147  0.1812
  774SOL    MW4 2870   4.097   0.687   0.917 -0.1498  0.3060 -0.4688
  775SOL     OW 2871   5.228   0.251   5.019  0.4618  0.2413  0.1981
  775SOL    HW2 2872   5.278   0.170   5.027 -0.7383 -0.4440  1.2075
  775SOL    HW3 2873   5.182   0.243   4.935 -1.6270 -1.3518  1.4046
  775SOL    MW4 2874   5.229   0.239   5.009  0.0279 -0.0593  0.4904
  776SOL     OW 2875   5.926   1.853   4.221 -0.0580 -0.5827  0.3721
  776SOL    HW2 2876   5.861   1.921   4.240  0.7463  0.0099  1.0504
  776SOL    HW3 2877   6.007   1.901   4.204  1.0069 -1.4103  2.7668
  776SOL    MW4 2878   5.928   1.869   4.221  0.1886 -0.6137  0.7775
  777SOL     OW 2879   0.162   2.758   1.348 -0.2737  0.0571  0.5835
  777SOL    HW2 2880   0.194   2.669   1.361  0.0773 -0.0249 -0.6679
  777SOL    HW3 2881   0.090   2.767   1.410 -1.2124 -1.5724 -0.1967
  777SOL    MW4 2882   0.157   2.747   1.358 -0.3513 -0.1687  0.3155
  778SOL     OW 2883   5.806   4.640   4.850  0.0251  0.0696 -0.4583
  778SOL    HW2 2884   5.772   4.648   4.939 -2.4485 -0.5034 -1.2643
  778SOL    HW3 2885   5.859   4.718   4.837 -1.0556  1.0755  0.9110
  778SOL    MW4 2886   5.808   4.651   4.860 -0.4438  0.1267 -0.3840
  779SOL     OW 2887   5.624   0.691   5.671 -0.0071 -0.2351 -0.4179
  779SOL    HW2 2888   5.649   0.632   5.600 -0.2983 -0.4910 -0.3101
  779SOL    HW3 2889   5.665   0.653   5.749  1.9527  1.1095 -0.7355
  779SOL    MW4 2890   5.632   0.678   5.672  0.2130 -0.0915 -0.4456
  780SOL     OW 2891   1.409   2.824   3.804 -0.2076  0.1686 -0.0599
  780SOL    HW2 2892   1.488   2.779   3.776 -0.2972  0.4712 -0.8139
  780SOL    HW3 2893   1.339   2.784   3.753 -0.5288  0.0080  0.4905
  780SOL    MW4 2894   1.410   2.813   3.794 -0.2618  0.1874 -0.0868
  781SOL     OW 2895   5.846   0.806   5.029  0.0167  0.0219 -0.0339
  781SOL    HW2 2896   5.783   0.742   5.063  1.7454 -1.3517  0.7131
  781SOL    HW3 2897   5.863   0.864   5.103 -2.9835  2.7016 -1.2116
  781SOL    MW4 2898   5.840   0.805   5.043 -0.1511  0.1943 -0.0907
  782SOL     OW 2899   5.058   4.876   1.723 -0.4378  0.1307  0.3674
  782SOL    HW2 2900   5.062   4.955   1.669 -0.5637 -0.3506 -0.3591
  782SOL    HW3 2901   4.998   4.898   1.793 -0.0115  0.8817  0.5117
  782SOL    MW4 2902   5.051   4.890   1.725 -0.3981  0.1663  0.2906
  783SOL     OW 2903   4.941   5.249   2.403  0.3120  0.1771 -0.7961
  783SOL    HW2 2904   4.913   5.276   2.316  0.1022  1.6226 -0.3174
  783SOL    HW3 2905   5.036   5.259   2.403  0.3040  0.2529 -0.8413
  783SOL    MW4 2906   4.950   5.254   2.392  0.2833  0.3779 -0.7389
  784SOL     OW 2907   3.140   0.032   6.088  0.0905 -0.3795  0.2215
  784SOL    HW2 2908   3.204   0.020   6.018  1.0986  0.6708  0.9117
  784SOL    HW3 2909   3.081   0.100   6.056  0.0553 -0.4841  0.0665
  784SOL    MW4 2910   3.141   0.040   6.075  0.2188 -0.2547  0.2921
  785SOL     OW 2911   5.382   4.408   1.162  0.2288 -0.4243 -0.3078
  785SOL    HW2 2912   5.424   4.395   1.077 -0.0836 -0.7021 -0.4208
  785SOL    HW3 2913   5.391   4.502   1.179  0.5197 -0.4112 -0.5276
  785SOL    MW4 2914   5.389   4.419   1.153  0.2260 -0.4592 -0.3517
  786SOL     OW 2915   0.845   2.432   4.895  0.1556 -0.2289 -0.1677
  786SOL    HW2 2916   0.806   2.386   4.820 -1.3040  0.5262  0.0789
  786SOL    HW3 2917   0.852   2.365   4.963 -0.0470 -0.5444 -0.4507
  786SOL    MW4 2918   0.841   2.417   4.894 -0.0637 -0.1709 -0.1725
  787SOL     OW 2919   5.995   6.317   6.392 -0.1289 -0.2730  0.1075
  787SOL    HW2 2920   5.940   6.341   6.467  0.1173  1.8828 -0.3313
  787SOL    HW3 2921   6.081   6.353   6.413 -0.0811  0.4658 -1.2218
  787SOL    MW4 2922   5.999   6.325   6.404 -0.0901  0.1089 -0.1258
  788SOL     OW 2923   3.112   0.870   3.655 -0.0913  0.1024 -0.4250
  788SOL    HW2 2924   3.048   0.836   3.593 -0.6578  0.0207  0.1962
  788SOL    HW3 2925   3.071   0.949   3.690 -0.4881 -0.7252  1.0318
  788SOL    MW4 2926   3.098   0.876   3.651 -0.2184 -0.0176 -0.1508
  789SOL     OW 2927   3.695   3.558   1.615 -0.6236  0.0091  0.2341
  789SOL    HW2 2928   3.630   3.557   1.685 -2.1614  1.2598 -1.1226
  789SOL    HW3 2929   3.653   3.603   1.542  1.5884  0.4352 -0.8876
  789SOL    MW4 2930   3.681   3.564   1.615 -0.5347  0.2303 -0.0929
  790SOL     OW 2931   0.239   2.976   6.313 -0.0081  0.1995 -0.0198
  790SOL    HW2 2932   0.171   3.044   6.309 -0.1645  0.0386 -0.1090
  790SOL    HW3 2933   0.218   2.924   6.390 -0.4585 -0.3417 -0.4976
  790SOL    MW4 2934   0.228   2.978   6.322 -0.0881  0.1068 -0.0946
  791SOL     OW 2935   0.471   3.868   0.569  0.0773  0.3890  0.5437
  791SOL    HW2 2936   0.505   3.922   0.498  2.1853  0.3505  1.4330
  791SOL    HW3 2937   0.518   3.898   0.647 -0.6811 -0.9123  1.5608
  791SOL    MW4 2938   0.482   3.879   0.570  0.2553  0.2122  0.7952
  792SOL     OW 2939   1.405   0.856   6.341  0.1679  0.2969 -0.5388
  792SOL    HW2 2940   1.496   0.837   6.321 -0.1852  0.3892 -2.4640
  792SOL    HW3 2941   1.357   0.779   6.311 -0.4123  0.2264  0.5020
  792SOL    MW4 2942   1.410   0.843   6.334  0.0448  0.2998 -0.6555
  793SOL     OW 2943   3.865   6.043   2.643 -0.0554  0.4036  0.4957
  793SOL    HW2 2944   3.850   6.040   2.549 -1.3081  1.0602  0.6590
  793SOL    HW3 2945   3.817   6.120   2.674 -0.3604 -0.2648  1.7859
  793SOL    MW4 2946   3.857   6.053   2.635 -0.2609  0.4020  0.6875
  794SOL     OW 2947   4.871   4.213   4.803 -0.1111  0.4593  0.4105
  794SOL    HW2 2948   4.861   4.231   4.897  0.5770 -0.3124  0.6434
  794SOL    HW3 2949   4.782   4.194   4.773 -0.1868 -0.5838  1.2022
  794SOL    MW4 2950   4.858   4.213   4.812 -0.0303  0.2198  0.5457
  795SOL     OW 2951   3.857   0.311   0.483 -0.3362 -0.0736 -0.3304
  795SOL    HW2 2952   3.879   0.298   0.391 -0.3601 -0.8670 -0.2360
  795SOL    HW3 2953   3.779   0.368   0.481  0.1569  0.5972 -0.7573
  795SOL    MW4 2954   3.849   0.317   0.470 -0.2743 -0.0898 -0.3743
  796SOL     OW 2955   4.585   2.860   3.200 -0.2465  0.9037  0.1874
  796SOL    HW2 2956   4.583   2.956   3.193  0.1787  0.8801 -0.3822
  796SOL    HW3 2957   4.577   2.830   3.109  0.3512  0.4179  0.2919
  796SOL    MW4 2958   4.584   2.869   3.187 -0.1115  0.8365  0.1260
  797SOL     OW 2959   2.055   2.837   2.193  0.3293  0.4623 -0.1354
  797SOL    HW2 2960   2.018   2.915   2.234  1.8477  1.0057  0.2428
  797SOL    HW3 2961   2.075   2.864   2.104  0.3887  0.3479 -0.1564
  797SOL    MW4 2962   2.053   2.851   2.187  0.5375  0.5189 -0.0883
  798SOL     OW 2963   6.013   5.088   4.536 -0.4397 -0.2980  0.3997
  798SOL    HW2 2964   6.037   5.102   4.444  0.2192  4.7324  1.0660
  798SOL    HW3 2965   6.093   5.056   4.577  0.4986  1.2508 -0.1450
  798SOL    MW4 2966   6.027   5.085   4.529 -0.2290  0.5701  0.4158
  799SOL     OW 2967   6.004   3.199   0.114  0.2943  0.0519 -0.2659
  799SOL    HW2 2968   6.077   3.139   0.102 -0.4092 -0.7397 -0.6644
  799SOL    HW3 2969   5.989   3.200   0.208  1.1122  0.5937 -0.1258
  799SOL    MW4 2970   6.012   3.191   0.125  0.3094  0.0189 -0.3000
  800SOL     OW 2971   4.188   0.858   6.311  0.3816  0.2761  0.0670
  800SOL    HW2 2972   4.122   0.927   6.320  1.7643  1.7140 -0.3123
  800SOL    HW3 2973   4.263   0.890   6.361  0.4265 -1.8844  1.5400
  800SOL    MW4 2974   4.189   0.871   6.319  0.5700  0.1808  0.2113
  801SOL     OW 2975   5.859   3.729   4.179 -0.4868 -0.0846  0.3265
  801SOL    HW2 2976   5.786   3.769   4.132 -1.6843 -1.1695  1.1869
  801SOL    HW3 2977   5.818   3.681   4.251  0.8304 -2.6042 -0.4696
  801SOL    MW4 2978   5.844   3.728   4.182 -0.4710 -0.5602  0.3350
  802SOL     OW 2979   1.208   4.571   5.230  0.0350  0.3740 -0.5089
  802SOL    HW2 2980   1.144   4.502   5.214  1.0625 -0.6792 -0.2281
  802SOL    HW3 2981   1.174   4.620   5.305 -0.0098 -0.7324  0.2095
  802SOL    MW4 2982   1.195   4.569   5.238  0.1647  0.0891 -0.3771
  803SOL     OW 2983   2.481   4.854   1.573  0.3350  0.3467  0.0187
  803SOL    HW2 2984   2.447   4.913   1.640  0.9336 -0.1434  0.7667
  803SOL    HW3 2985   2.555   4.902   1.534 -0.1237  0.7050 -0.4274
  803SOL    MW4 2986   2.486   4.868   1.576  0.3535  0.3293  0.0585
  804SOL     OW 2987   6.363   4.216   3.610 -0.1730  0.4098  0.5955
  804SOL    HW2 2988   6.447   4.247   3.643 -0.5042  0.6215  1.2615
  804SOL    HW3 2989   6.349   4.265   3.530  1.2246 -0.9949 -0.5723
  804SOL    MW4 2990   6.372   4.226   3.604 -0.0323  0.2524  0.5293
  805SOL     OW 2991   5.367   0.218   5.318  0.1139  0.4351 -0.1130
  805SOL    HW2 2992   5.276   0.189   5.314 -0.2031  1.4330 -0.5197
  805SOL    HW3 2993   5.417   0.138   5.331 -0.6749 -0.3566 -1.6188
  805SOL    MW4 2994   5.361   0.204   5.319 -0.0320  0.4623 -0.3653
  806SOL     OW 2995   6.278   2.065   3.584 -0.1517 -1.0135  0.5009
  806SOL    HW2 2996   6.220   2.140   3.586 -0.6293 -1.2575 -1.6023
  806SOL    HW3 2997   6.363   2.100   3.556 -0.2510 -1.1510  0.0003
  806SOL    MW4 2998   6.282   2.079   3.580 -0.2278 -1.0638  0.1574
  807SOL     OW 2999   3.283   5.751   5.600 -0.0503  0.5349 -0.0013
  807SOL    HW2 3000   3.373   5.719   5.612 -0.9237 -1.7448  1.1296
  807SOL    HW3 3001   3.286   5.842   5.630  1.3417 -0.2909  2.7405
  807SOL    MW4 3002   3.295   5.758   5.606  0.0181  0.1252  0.5097
  808SOL     OW 3003   0.825   1.146   3.424  0.3959 -0.0583 -0.0536
  808SOL    HW2 3004   0.753   1.101   3.468 -2.1324  1.3807 -2.4278
  808SOL    HW3 3005   0.797   1.237   3.421  0.9015  0.1023 -3.5126
  808SOL    MW4 3006   0.812   1.152   3.430  0.1290  0.1527 -0.8232
  809SOL     OW 3007   0.791   1.707   5.546 -0.3925  0.2062 -0.5062
  809SOL    HW2 3008   0.777   1.789   5.593 -0.5491  0.6016 -1.2250
  809SOL    HW3 3009   0.717   1.700   5.487  0.9910  0.9754 -2.4452
  809SOL    MW4 3010   0.780   1.717   5.544 -0.2306  0.3598 -0.8569
  810SOL     OW 3011   0.220   4.126   3.396 -0.0427  0.4671 -0.3379
  810SOL    HW2 3012   0.300   4.167   3.363 -0.2716 -1.3613 -3.5366
  810SOL    HW3 3013   0.251   4.056   3.454  0.4709  1.8846  1.1920
  810SOL    MW4 3014   0.235   4.122   3.400 -0.0051  0.4129 -0.5581
  811SOL     OW 3015   1.849   2.268   2.967 -0.3426  0.3502  0.2556
  811SOL    HW2 3016   1.923   2.279   3.026 -0.3860  2.4688 -0.0162
  811SOL    HW3 3017   1.773   2.259   3.026 -0.0981 -0.0276  0.5183
  811SOL    MW4 3018   1.848   2.268   2.983 -0.3161  0.5799  0.2544
  812SOL     OW 3019   0.629   4.632   1.306 -0.6452  0.0086 -0.5262
  812SOL    HW2 3020   0.538   4.659   1.294 -0.4827  0.2673 -1.2482
  812SOL    HW3 3021   0.623   4.542   1.338 -1.1594  0.2848  0.1849
  812SOL    MW4 3022   0.616   4.623   1.308 -0.6916  0.0792 -0.5276
  813SOL     OW 3023   5.307   3.367   0.415  0.1622 -0.0836  0.1462
  813SOL    HW2 3024   5.312   3.453   0.375  1.2198  0.2844  1.0414
  813SOL    HW3 3025   5.284   3.308   0.342 -2.2772  1.1400 -0.1829
  813SOL    MW4 3026   5.304   3.370   0.400 -0.0201  0.1264  0.2209
  814SOL     OW 3027   3.790   2.039   5.088  0.0780 -0.4152  0.0433
  814SOL    HW2 3028   3.802   1.966   5.148 -0.4707 -0.3604  0.2335
  814SOL    HW3 3029   3.734   2.100   5.137  1.9790  0.9822  0.6144
  814SOL    MW4 3030   3.784   2.038   5.103  0.2564 -0.2236  0.1437
  815SOL     OW 3031   0.128   4.563   4.520  0.3726 -0.0175  0.6125
  815SOL    HW2 3032   0.182   4.538   4.445  0.5025 -0.6324  0.8984
  815SOL    HW3 3033   0.187   4.558   4.595 -0.3594 -2.0596  1.1305
  815SOL    MW4 3034   0.143   4.559   4.520  0.2931 -0.3680  0.7186
  816SOL     OW 3035   0.396   1.848   3.025  0.0673 -0.2997  0.3898
  816SOL    HW2 3036   0.459   1.801   3.080 -0.6564 -0.6753  0.9245
  816SOL    HW3 3037   0.347   1.903   3.087 -0.5604 -0.4998  0.0784
  816SOL    MW4 3038   0.398   1.849   3.041 -0.1110 -0.3756  0.4193
  817SOL     OW 3039   4.614   4.665   3.442  0.2385 -0.3944 -0.3044
  817SOL    HW2 3040   4.628   4.608   3.367  1.0618  0.9760 -1.2224
  817SOL    HW3 3041   4.526   4.644   3.472  0.8981 -2.8814  0.0636
  817SOL    MW4 3042   4.604   4.655   3.436  0.4342 -0.5417 -0.3770
  818SOL     OW 3043   2.212   1.789   2.041 -0.4340  0.4694  0.1889
  818SOL    HW2 3044   2.178   1.864   2.090 -1.0247  0.2717  0.0819
  818SOL    HW3 3045   2.205   1.715   2.102 -0.4247  0.3767  0.0775
  818SOL    MW4 3046   2.207   1.789   2.056 -0.5107  0.4311  0.1601
  819SOL     OW 3047   1.457   5.160   6.284  0.2574 -0.2408  0.1496
  819SOL    HW2 3048   1.550   5.141   6.296 -0.0156 -2.1687 -0.4698
  819SOL    HW3 3049   1.412   5.088   6.329 -0.8854 -0.6699 -1.5940
  819SOL    MW4 3050   1.463   5.148   6.292  0.0706 -0.5518 -0.1622
  820SOL     OW 3051   4.404   2.547   1.389  0.2658  0.5541  0.4015
  820SOL    HW2 3052   4.462   2.589   1.453  0.8892 -1.5699  1.3207
  820SOL    HW3 3053   4.318   2.588   1.404  0.9712  1.9382  0.7731
  820SOL    MW4 3054   4.400   2.558   1.400  0.4411  0.4564  0.5718
  821SOL     OW 3055   5.882   0.442   4.498  0.2014  0.2769  0.1954
  821SOL    HW2 3056   5.911   0.532   4.512  1.0327  0.0182  0.1670
  821SOL    HW3 3057   5.820   0.448   4.426 -2.1230  1.2595  2.1056
  821SOL    MW4 3058   5.878   0.455   4.491  0.0044  0.3724  0.4437
  822SOL     OW 3059   2.086   0.750   5.258 -0.1911 -0.3009  0.3819
  822SOL    HW2 3060   2.139   0.804   5.199 -1.9594 -0.2398 -1.2514
  822SOL    HW3 3061   2.118   0.661   5.242 -0.8692 -0.3336 -1.0139
  822SOL    MW4 3062   2.097   0.745   5.248 -0.5138 -0.2971 -0.0177
  823SOL     OW 3063   1.972   2.082   4.096  0.2107 -0.4019  0.8860
  823SOL    HW2 3064   1.988   2.174   4.118  0.9703 -0.6714  1.5205
  823SOL    HW3 3065   1.997   2.074   4.004 -0.4415  0.1606  0.6588
  823SOL    MW4 3066   1.978   2.093   4.087  0.2249 -0.3632  0.9398
  824SOL     OW 3067   1.808   1.649   5.553  0.1056  0.4139  0.2419
  824SOL    HW2 3068   1.740   1.713   5.536 -0.8303 -0.7565 -0.6001
  824SOL    HW3 3069   1.890   1.697   5.541 -0.5591  1.4815 -0.1676
  824SOL    MW4 3070   1.810   1.664   5.549 -0.1056  0.4004  0.0768
  825SOL     OW 3071   0.187   4.336   2.774  0.4171 -0.0230 -0.3265
  825SOL    HW2 3072   0.261   4.395   2.760  0.7751 -0.5905 -0.9045
  825SOL    HW3 3073   0.128   4.354   2.700  1.1011 -1.2281 -1.1926
  825SOL    MW4 3074   0.189   4.346   2.762  0.5545 -0.2569 -0.5170
  826SOL     OW 3075   5.021   0.187   1.996  0.1753  0.3168  0.3108
  826SOL    HW2 3076   4.945   0.247   1.993 -0.7074 -0.7931 -0.2502
  826SOL    HW3 3077   5.026   0.150   1.908 -0.0418 -1.3164  0.9503
  826SOL    MW4 3078   5.011   0.190   1.984  0.0302 -0.0451  0.3211
  827SOL     OW 3079   3.228   2.546   6.274 -0.2347  0.6363  0.8996
  827SOL    HW2 3080   3.156   2.609   6.268  0.3299  1.2425  0.2757
  827SOL    HW3 3081   3.301   2.589   6.230 -0.7914 -1.8562 -2.9419
  827SOL    MW4 3082   3.228   2.560   6.268 -0.2336  0.3874  0.3104
  828SOL     OW 3083   1.073   2.058   1.334  0.4976  0.0372 -0.2575
  828SOL    HW2 3084   1.057   1.979   1.385  0.1712 -0.5380 -1.2165
  828SOL    HW3 3085   0.991   2.107   1.338  0.7006  0.3311  0.3392
  828SOL    MW4 3086   1.060   2.054   1.341  0.4813  0.0000 -0.3053
  829SOL     OW 3087   1.724   0.593   0.025  0.7169 -0.0061  0.6435
  829SOL    HW2 3088   1.802   0.640  -0.005  1.2771 -1.2257  0.1310
  829SOL    HW3 3089   1.750   0.555   0.109  0.3350  0.4128  0.9555
  829SOL    MW4 3090   1.738   0.594   0.032  0.7404 -0.1117  0.6170
  830SOL     OW 3091   3.647   6.153   2.182 -0.0278  0.4690  0.5664
  830SOL    HW2 3092   3.589   6.185   2.112  0.3746  1.1813  0.5437
  830SOL    HW3 3093   3.727   6.205   2.172  0.8874 -0.9432  0.1845
  830SOL    MW4 3094   3.650   6.164   2.171  0.1460  0.3767  0.5130
  831SOL     OW 3095   3.702   3.353   4.107 -0.0928 -0.2708  0.3286
  831SOL    HW2 3096   3.679   3.318   4.193  0.1720 -0.7668  0.2012
  831SOL    HW3 3097   3.643   3.427   4.094 -0.5033 -0.5302  0.7041
  831SOL    MW4 3098   3.691   3.358   4.116 -0.1120 -0.3705  0.3614
  832SOL     OW 3099   6.175   4.560   2.305 -0.2140 -0.4769 -0.2122
  832SOL    HW2 3100   6.129   4.489   2.350 -2.9419  0.6451 -1.0778
  832SOL    HW3 3101   6.176   4.535   2.213 -1.3926  0.6468 -0.5595
  832SOL    MW4 3102   6.169   4.547   2.299 -0.7294 -0.1806 -0.3722
  833SOL     OW 3103   3.301   0.799   3.288  0.0923  0.4268  0.4357
  833SOL    HW2 3104   3.268   0.880   3.327  0.8348  0.2904  1.3885
  833SOL    HW3 3105   3.225   0.761   3.244 -0.2769  1.5976  0.0342
  833SOL    MW4 3106   3.286   0.805   3.288  0.1415  0.5632  0.5084
  834SOL     OW 3107   3.896   2.173   1.975 -0.1623 -0.0606  0.2550
  834SOL    HW2 3108   3.901   2.146   1.884  2.6944  0.4139  0.1709
  834SOL    HW3 3109   3.908   2.092   2.025 -3.2020 -0.5583  0.3280
  834SOL    MW4 3110   3.898   2.159   1.970 -0.1865 -0.0636  0.2535
  835SOL     OW 3111   6.018   0.628   5.831 -0.8526  0.6371 -0.2730
  835SOL    HW2 3112   6.105   0.657   5.858 -0.7472  0.5810 -0.5510
  835SOL    HW3 3113   6.031   0.588   5.745 -1.3070  1.5888 -0.8121
  835SOL    MW4 3114   6.031   0.627   5.823 -0.8986  0.7552 -0.3808
  836SOL     OW 3115   3.911   1.244   1.824 -0.3670 -0.1496 -0.3743
  836SOL    HW2 3116   3.909   1.265   1.730 -0.3570 -0.7589 -0.5173
  836SOL    HW3 3117   3.997   1.204   1.838  0.6215  2.0949  0.4007
  836SOL    MW4 3118   3.922   1.241   1.813 -0.2353  0.0662 -0.2909
  837SOL     OW 3119   3.485   3.982   1.878  0.6430 -0.3077 -0.5219
  837SOL    HW2 3120   3.523   3.941   1.956  1.1508  0.3059 -0.4470
  837SOL    HW3 3121   3.461   3.908   1.822 -3.2717 -1.0186  1.7645
  837SOL    MW4 3122   3.487   3.967   1.881  0.1935 -0.3205 -0.2103
  838SOL     OW 3123   4.219   2.375   3.328 -0.7793 -0.6317 -0.1341
  838SOL    HW2 3124   4.260   2.454   3.295 -0.1444 -0.4454  1.0568
  838SOL    HW3 3125   4.289   2.329   3.375 -1.8544 -0.3779  1.8244
  838SOL    MW4 3126   4.234   2.379   3.330 -0.8374 -0.5736  0.2814
  839SOL     OW 3127   3.732   5.629   1.064  0.6661 -0.1587  0.5600
  839SOL    HW2 3128   3.825   5.610   1.074  0.5299  0.3529  4.5611
  839SOL    HW3 3129   3.688   5.556   1.106 -0.7393  0.0087 -0.5581
  839SOL    MW4 3130   3.739   5.617   1.071  0.4627 -0.0691  0.9404
  840SOL     OW 3131   4.348   5.929   5.575 -0.1027  0.2145 -0.1761
  840SOL    HW2 3132   4.417   5.947   5.638 -0.6225 -0.5952  0.6448
  840SOL    HW3 3133   4.390   5.873   5.509  0.1852  0.2563 -0.0288
  840SOL    MW4 3134   4.363   5.924   5.574 -0.1333  0.1132 -0.0484
  841SOL     OW 3135   5.030   1.273   2.657  0.6715  1.2191 -0.0155
  841SOL    HW2 3136   5.060   1.285   2.747  1.7416 -1.4311  0.0889
  841SOL    HW3 3137   4.958   1.210   2.665  1.0779  0.6004 -1.0294
  841SOL    MW4 3138   5.024   1.266   2.670  0.8663  0.7878 -0.1355
  842SOL     OW 3139   5.004   1.845   0.183  0.3291  0.3749 -0.3453
  842SOL    HW2 3140   4.909   1.849   0.199  0.1901 -1.6896 -0.3800
  842SOL    HW3 3141   5.012   1.832   0.088  0.5410 -1.1915 -0.1364
  842SOL    MW4 3142   4.992   1.844   0.172  0.3387 -0.1042 -0.3223
  843SOL     OW 3143   5.385   1.571   0.196 -0.1164  0.2735 -0.3356
  843SOL    HW2 3144   5.394   1.666   0.187  2.5638  0.4657  2.8768
  843SOL    HW3 3145   5.468   1.536   0.164  0.7522 -0.5312  2.5438
  843SOL    MW4 3146   5.397   1.579   0.190  0.3518  0.1927  0.4681
  844SOL     OW 3147   1.729   5.468   3.811  0.1540 -0.5286  0.1525
  844SOL    HW2 3148   1.733   5.433   3.722  0.8206  1.9269 -0.8541
  844SOL    HW3 3149   1.808   5.434   3.853 -0.0146 -1.4740 -0.2588
  844SOL    MW4 3150   1.740   5.459   3.805  0.2197 -0.3294 -0.0346
  845SOL     OW 3151   6.250   6.352   0.743 -0.0162 -0.8209 -0.4285
  845SOL    HW2 3152   6.274   6.297   0.668  1.2216  0.0370 -0.7085
  845SOL    HW3 3153   6.334   6.371   0.785 -0.3203  1.2560 -0.6552
  845SOL    MW4 3154   6.264   6.348   0.738  0.1070 -0.4337 -0.4954
  846SOL     OW 3155   0.333   1.263   0.153 -0.3455 -0.6673  0.2722
  846SOL    HW2 3156   0.308   1.328   0.219 -1.8412 -0.7719 -0.1381
  846SOL    HW3 3157   0.294   1.181   0.184 -0.7295 -0.7977 -0.5210
  846SOL    MW4 3158   0.324   1.261   0.166 -0.5935 -0.6983  0.1134
  847SOL     OW 3159   2.878   2.609   0.388 -0.1112 -0.0852 -0.1802
  847SOL    HW2 3160   2.925   2.635   0.467 -0.1575  2.1079 -0.8208
  847SOL    HW3 3161   2.800   2.563   0.421 -0.4990  1.4112  1.0892
  847SOL    MW4 3162   2.874   2.606   0.403 -0.1685  0.4016 -0.0972
  848SOL     OW 3163   0.107   4.988   4.270  0.2400 -0.3531  0.3621
  848SOL    HW2 3164   0.122   4.946   4.355  0.7055  0.0933  0.5010
  848SOL    HW3 3165   0.020   4.957   4.244 -0.3225  0.2292  1.4363
  848SOL    MW4 3166   0.098   4.978   4.278  0.2272 -0.2174  0.5222
  849SOL     OW 3167   0.517   6.267   2.033 -0.4565 -0.4604  0.9575
  849SOL    HW2 3168   0.547   6.357   2.030 -1.5239 -0.1160 -0.9749
  849SOL    HW3 3169   0.572   6.225   2.100  2.1359  0.8586 -0.2037
  849SOL    MW4 3170   0.528   6.273   2.041 -0.2553 -0.2409  0.5493
  850SOL     OW 3171   4.254   0.641   0.688 -1.0029  0.3781 -0.3005
  850SOL    HW2 3172   4.208   0.581   0.628  0.2242 -0.1581 -0.7476
  850SOL    HW3 3173   4.314   0.689   0.631  1.1130 -1.0210  0.5893
  850SOL    MW4 3174   4.256   0.639   0.672 -0.5618  0.1227 -0.2421
  851SOL     OW 3175   0.590   3.719   5.221  0.2535 -0.1682 -0.0364
  851SOL    HW2 3176   0.613   3.793   5.278  1.1437 -0.6929  0.3138
  851SOL    HW3 3177   0.497   3.729   5.204  0.4539  1.3341 -0.4179
  851SOL    MW4 3178   0.581   3.730   5.226  0.3974 -0.0392 -0.0405
  852SOL     OW 3179   2.267   4.577   1.996 -0.1162  0.1052  0.7351
  852SOL    HW2 3180   2.225   4.492   2.005 -2.0283  0.7620 -1.2187
  852SOL    HW3 3181   2.360   4.557   1.985 -0.8230 -2.0581 -2.7917
  852SOL    MW4 3182   2.274   4.563   1.996 -0.4618 -0.0936  0.0120
  853SOL     OW 3183   4.049   1.584   3.025  0.1644  0.6855 -0.6350
  853SOL    HW2 3184   4.054   1.659   2.966  1.2560  1.3602  0.2721
  853SOL    HW3 3185   4.035   1.622   3.112 -1.3598 -0.2846 -0.4121
  853SOL    MW4 3186   4.047   1.599   3.029  0.1074  0.6465 -0.4859
  854SOL     OW 3187   3.937   3.441   6.108 -0.1406 -0.5934 -0.2386
  854SOL    HW2 3188   3.935   3.459   6.202  0.1890 -1.2121 -0.1048
  854SOL    HW3 3189   3.964   3.349   6.102  0.0033 -0.5107 -0.9423
  854SOL    MW4 3190   3.941   3.431   6.120 -0.0781 -0.6641 -0.3138
  855SOL     OW 3191   2.253   4.084   4.602  0.5142  0.0248  0.5699
  855SOL    HW2 3192   2.319   4.029   4.559  1.8869  1.1464  1.1587
  855SOL    HW3 3193   2.256   4.167   4.554  0.3402  0.4778  1.3241
  855SOL    MW4 3194   2.262   4.088   4.590  0.6724  0.2326  0.7471
  856SOL     OW 3195   2.470   0.827   4.319  0.5291  0.0224  0.3940
  856SOL    HW2 3196   2.448   0.913   4.283 -1.5124 -0.5285  0.2134
  856SOL    HW3 3197   2.532   0.846   4.389  0.4679  1.5927  0.0691
  856SOL    MW4 3198   2.476   0.841   4.323  0.2517  0.1569  0.3273
  857SOL     OW 3199   4.146   3.200   2.446 -0.6882  0.0766  0.0914
  857SOL    HW2 3200   4.219   3.262   2.434  0.4488 -0.7814  2.1127
  857SOL    HW3 3201   4.162   3.133   2.380 -1.6140  1.5674 -1.7432
  857SOL    MW4 3202   4.158   3.200   2.436 -0.6604  0.1601  0.1160
  858SOL     OW 3203   5.952   4.399   2.815  0.2296  0.7760  0.1706
  858SOL    HW2 3204   5.997   4.476   2.780  1.1529 -0.5055 -1.6254
  858SOL    HW3 3205   6.010   4.326   2.795 -1.3479 -0.5929  0.3492
  858SOL    MW4 3206   5.966   4.400   2.808  0.1433  0.4263 -0.0428
  859SOL     OW 3207   2.176   0.831   4.029  0.6587  0.0436 -0.5506
  859SOL    HW2 3208   2.261   0.875   4.021  0.2792  0.6117 -1.7476
  859SOL    HW3 3209   2.167   0.811   4.122  0.5886  3.0042  0.1595
  859SOL    MW4 3210   2.186   0.834   4.040  0.5994  0.5091 -0.6148
  860SOL     OW 3211   4.598   0.051   5.097 -0.7487  0.6569 -0.1288
  860SOL    HW2 3212   4.598   0.052   5.193 -0.2352  1.8374 -0.1255
  860SOL    HW3 3213   4.525   0.108   5.073  0.1481  1.7206 -0.4186
  860SOL    MW4 3214   4.588   0.059   5.107 -0.5626  0.9530 -0.1666
  861SOL     OW 3215   2.761   0.651   4.286 -0.4206 -0.0471 -0.2628
  861SOL    HW2 3216   2.818   0.710   4.336 -0.6307 -0.3907  0.4045
  861SOL    HW3 3217   2.820   0.604   4.227 -0.1784  0.4494 -0.4168
  861SOL    MW4 3218   2.776   0.653   4.285 -0.4164 -0.0269 -0.1951
  862SOL     OW 3219   3.153   4.036   2.667  0.0938 -0.0892 -0.0658
  862SOL    HW2 3220   3.245   4.057   2.686  1.0664 -2.4083 -1.6947
  862SOL    HW3 3221   3.150   3.940   2.671 -1.9865 -0.1121 -1.2057
  862SOL    MW4 3222   3.165   4.026   2.670 -0.0523 -0.3982 -0.4311
  863SOL     OW 3223   2.718   4.066   3.291  1.1615 -0.1024 -0.3876
  863SOL    HW2 3224   2.654   4.137   3.290  1.6482  0.3766  0.7761
  863SOL    HW3 3225   2.666   3.986   3.283  0.4043  0.2757  0.5673
  863SOL    MW4 3226   2.703   4.065   3.290  1.1258  0.0107 -0.1081
  864SOL     OW 3227   5.081   1.488   5.004  0.4937 -0.9541  0.3569
  864SOL    HW2 3228   5.162   1.452   4.968  1.4624  1.3791  0.0785
  864SOL    HW3 3229   5.106   1.524   5.089 -0.6500 -1.6510  1.0202
  864SOL    MW4 3230   5.095   1.488   5.010  0.4706 -0.7382  0.4077
  865SOL     OW 3231   0.549   1.174   5.453  0.4189 -0.0031  0.4002
  865SOL    HW2 3232   0.457   1.182   5.430 -0.2589 -1.1570  2.4572
  865SOL    HW3 3233   0.566   1.246   5.514  0.3518 -0.8443  1.4447
  865SOL    MW4 3234   0.539   1.184   5.458  0.3206 -0.2663  0.8094
  866SOL     OW 3235   3.667   4.127   2.537 -0.5775  0.0669  0.2729
  866SOL    HW2 3236   3.643   4.035   2.528 -0.1542 -0.0951  0.7479
  866SOL    HW3 3237   3.683   4.157   2.447 -3.1794  0.3735 -0.1599
  866SOL    MW4 3238   3.666   4.119   2.524 -0.8649  0.0860  0.2785
  867SOL     OW 3239   3.394   1.317   2.499 -0.4556 -0.3661 -0.5341
  867SOL    HW2 3240   3.398   1.327   2.594 -0.7082  0.7337 -0.6284
  867SOL    HW3 3241   3.304   1.341   2.476 -0.1696  0.1698 -1.1354
  867SOL    MW4 3242   3.382   1.322   2.508 -0.4512 -0.1503 -0.6259
  868SOL     OW 3243   4.646   2.799   5.516 -0.0230  0.2971  0.0043
  868SOL    HW2 3244   4.689   2.789   5.431 -0.0253 -1.3346  0.1714
  868SOL    HW3 3245   4.644   2.711   5.553 -1.4769  0.7126  1.0069
  868SOL    MW4 3246   4.651   2.786   5.510 -0.2151  0.1366  0.1586
  869SOL     OW 3247   5.502   2.393   0.053 -0.2178 -0.2640  0.1414
  869SOL    HW2 3248   5.528   2.469   0.105 -2.0457  0.3480  0.2453
  869SOL    HW3 3249   5.551   2.401  -0.029 -0.5527  1.1797  0.0519
  869SOL    MW4 3250   5.512   2.404   0.049 -0.5031  0.0072  0.1433
  870SOL     OW 3251   5.814   2.615   0.004 -0.3946  0.4886 -0.4744
  870SOL    HW2 3252   5.890   2.655   0.046 -1.5219  1.1533  1.0623
  870SOL    HW3 3253   5.767   2.689  -0.036 -1.9382  0.6579  1.4801
  870SOL    MW4 3254   5.818   2.630   0.005 -0.7470  0.5986 -0.0138
  871SOL     OW 3255   3.791   2.060   6.193 -0.1871  0.0572 -0.1354
  871SOL    HW2 3256   3.740   2.004   6.251 -1.2282  0.7133 -0.3968
  871SOL    HW3 3257   3.838   1.998   6.136 -1.6569 -0.5862 -0.7151
  871SOL    MW4 3258   3.790   2.044   6.193 -0.5184  0.0589 -0.2464
  872SOL     OW 3259   5.864   0.461   5.116  0.0896  0.9843  0.2038
  872SOL    HW2 3260   5.889   0.471   5.024  0.9221  0.6127  0.3723
  872SOL    HW3 3261   5.771   0.480   5.118 -0.0441  0.5331 -0.8044
  872SOL    MW4 3262   5.855   0.465   5.104  0.1818  0.8758  0.0930
  873SOL     OW 3263   3.688   4.833   4.211  0.1569 -0.3636 -0.2958
  873SOL    HW2 3264   3.616   4.804   4.154 -0.3115 -0.6332  0.4282
  873SOL    HW3 3265   3.712   4.756   4.261  0.8471 -0.2277 -0.4050
  873SOL    MW4 3266   3.682   4.819   4.210  0.1862 -0.3812 -0.2147
  874SOL     OW 3267   1.931   5.791   2.584 -0.0334 -0.7287 -0.4184
  874SOL    HW2 3268   1.849   5.837   2.570  0.2488 -0.3688 -0.8868
  874SOL    HW3 3269   1.994   5.833   2.526 -0.0577 -2.5181 -1.8488
  874SOL    MW4 3270   1.929   5.802   2.575  0.0006 -0.9173 -0.6689
  875SOL     OW 3271   2.994   1.362   4.166  0.0159  0.0460  0.0660
  875SOL    HW2 3272   2.972   1.270   4.181  0.6531 -0.5913 -2.3753
  875SOL    HW3 3273   2.921   1.411   4.204 -1.4505 -1.5895 -0.4973
  875SOL    MW4 3274   2.981   1.356   4.173 -0.0935 -0.2539 -0.3304
  876SOL     OW 3275   2.140   6.102   5.307 -0.2285  0.1539  1.2053
  876SOL    HW2 3276   2.187   6.143   5.234 -0.1332  0.0648  1.2154
  876SOL    HW3 3277   2.049   6.099   5.278  0.1290 -1.9856  0.0921
  876SOL    MW4 3278   2.134   6.107   5.294 -0.1688 -0.1402  1.0598
  877SOL     OW 3279   1.127   1.226   5.889 -0.8035  0.0784 -0.1288
  877SOL    HW2 3280   1.140   1.320   5.906 -2.6010  0.2611  0.4118
  877SOL    HW3 3281   1.068   1.197   5.958  0.5860 -1.7391  0.3826
  877SOL    MW4 3282   1.121   1.235   5.900 -0.8574 -0.1373  0.0100
  878SOL     OW 3283   2.388   2.110   5.252 -0.5430 -0.2380  0.6178
  878SOL    HW2 3284   2.382   2.078   5.162  0.0269 -0.7011  0.7407
  878SOL    HW3 3285   2.444   2.047   5.296  0.9160  1.1267  0.7766
  878SOL    MW4 3286   2.394   2.097   5.246 -0.2753 -0.1190  0.6549
  879SOL     OW 3287   1.948   2.443   0.906 -0.4158  0.2776 -0.0498
  879SOL    HW2 3288   1.993   2.360   0.925 -1.4321 -0.5111 -0.9582
  879SOL    HW3 3289   1.982   2.468   0.820 -1.0777  0.1057 -0.3667
  879SOL    MW4 3290   1.958   2.435   0.897 -0.6372  0.1509 -0.2114
  880SOL     OW 3291   0.446   5.626   4.933  0.0980 -0.2620 -0.0146
  880SOL    HW2 3292   0.419   5.551   4.985  2.0812 -1.1985 -0.2370
  880SOL    HW3 3293   0.372   5.687   4.938 -1.4378 -2.0581  0.4454
  880SOL    MW4 3294   0.433   5.624   4.940  0.1570 -0.6226  0.0167
  881SOL     OW 3295   0.042   4.420   5.248 -0.2766  0.4122  0.0458
  881SOL    HW2 3296   0.039   4.363   5.171 -1.8473  0.4203  0.0778
  881SOL    HW3 3297   0.028   4.361   5.322 -2.7577  0.8827  0.0253
  881SOL    MW4 3298   0.040   4.405   5.248 -0.8111  0.4754  0.0473
  882SOL     OW 3299   2.065   5.879   5.089  0.1915  0.5281 -0.2321
  882SOL    HW2 3300   1.995   5.919   5.037  0.9232  0.4636 -1.2845
  882SOL    HW3 3301   2.138   5.939   5.081  0.9864 -0.5027 -1.0137
  882SOL    MW4 3302   2.065   5.892   5.081  0.3929  0.3836 -0.4740
  883SOL     OW 3303   1.760   5.218   4.751  0.2031  0.0639  0.5444
  883SOL    HW2 3304   1.705   5.255   4.820 -1.7840 -1.8624  0.1171
  883SOL    HW3 3305   1.733   5.263   4.671 -0.0415 -0.1793  0.4890
  883SOL    MW4 3306   1.749   5.229   4.749 -0.0914 -0.2224  0.4807
  884SOL     OW 3307   5.807   4.823   2.964  0.7818  0.1640 -0.2154
  884SOL    HW2 3308   5.741   4.773   2.916 -0.3314  0.7336  0.6680
  884SOL    HW3 3309   5.831   4.767   3.038  0.3196  0.4761  0.1798
  884SOL    MW4 3310   5.802   4.809   2.967  0.5740  0.2803 -0.0467
  885SOL     OW 3311   5.005   1.487   3.531 -0.3853  0.3733 -0.0829
  885SOL    HW2 3312   5.023   1.407   3.579  0.4924  0.7175  0.1754
  885SOL    HW3 3313   4.971   1.458   3.447  1.3236 -0.3140 -0.5677
  885SOL    MW4 3314   5.003   1.473   3.526 -0.0441  0.3280 -0.1128
  886SOL     OW 3315   1.965   3.941   3.939 -0.2763 -0.1346 -0.0663
  886SOL    HW2 3316   1.914   3.907   3.866 -0.8348 -0.0062  0.2604
  886SOL    HW3 3317   2.046   3.972   3.899  0.7910 -2.8847 -0.2658
  886SOL    MW4 3318   1.969   3.940   3.924 -0.2092 -0.4805 -0.0495
  887SOL     OW 3319   0.611   5.070   3.674 -0.2369  0.1940 -0.4764
  887SOL    HW2 3320   0.523   5.094   3.643 -1.4779 -1.3770  1.5616
  887SOL    HW3 3321   0.608   4.975   3.684  1.7849  0.0881 -0.5036
  887SOL    MW4 3322   0.599   5.061   3.671 -0.1339 -0.0273 -0.2111
  888SOL     OW 3323   0.894   0.358   5.247 -0.5497  0.0179 -0.0308
  888SOL    HW2 3324   0.952   0.433   5.261  0.3519 -0.4944 -0.8775
  888SOL    HW3 3325   0.860   0.370   5.158 -0.4756 -0.5141 -0.1349
  888SOL    MW4 3326   0.897   0.369   5.237 -0.4210 -0.1199 -0.1562
  889SOL     OW 3327   0.694   4.909   6.253  0.1738  0.0105  0.5907
  889SOL    HW2 3328   0.780   4.935   6.218  0.4601 -0.0429  1.2512
  889SOL    HW3 3329   0.669   4.980   6.312  0.5539 -0.7607  1.7110
  889SOL    MW4 3330   0.702   4.922   6.256  0.2617 -0.0983  0.8256
  890SOL     OW 3331   3.889   4.167   0.455 -0.4285 -0.6151  0.1092
  890SOL    HW2 3332   3.867   4.250   0.414  0.4286  0.9989  2.6789
  890SOL    HW3 3333   3.840   4.166   0.537 -0.8940 -2.9688 -0.1155
  890SOL    MW4 3334   3.880   4.178   0.460 -0.3768 -0.7127  0.4186
  891SOL     OW 3335   3.720   4.636   4.449  0.0695  0.4088  0.5149
  891SOL    HW2 3336   3.780   4.642   4.524  0.5116 -2.3663  0.5096
  891SOL    HW3 3337   3.726   4.544   4.422 -1.4329  0.9320 -1.8275
  891SOL    MW4 3338   3.729   4.624   4.455 -0.0704  0.1117  0.2052
  892SOL     OW 3339   4.064   4.450   0.093  0.4022 -0.3867  0.0094
  892SOL    HW2 3340   4.081   4.357   0.103 -0.9245 -0.7356 -0.6694
  892SOL    HW3 3341   4.149   4.492   0.108  0.8781 -1.6334  0.9968
  892SOL    MW4 3342   4.077   4.443   0.096  0.2900 -0.5972  0.0501
  893SOL     OW 3343   4.181   0.129   5.497 -0.3488  0.4871 -0.2637
  893SOL    HW2 3344   4.220   0.064   5.555 -0.2691  0.5843 -0.2059
  893SOL    HW3 3345   4.217   0.213   5.529 -2.9487  0.9694  1.7938
  893SOL    MW4 3346   4.191   0.132   5.509 -0.6813  0.5635  0.0154
  894SOL     OW 3347   0.054   5.534   0.465  0.7820  0.5987  0.7111
  894SOL    HW2 3348  -0.036   5.506   0.446  1.5413 -2.7160  1.2700
  894SOL    HW3 3349   0.091   5.555   0.379  0.4009 -1.4724 -0.0334
  894SOL    MW4 3350   0.047   5.533   0.451  0.8319 -0.1119  0.6866
  895SOL     OW 3351   5.566   2.032   4.665 -0.0430  0.6248 -0.7832
  895SOL    HW2 3352   5.524   2.040   4.580 -0.5628 -1.9171 -0.8176
  895SOL    HW3 3353   5.501   1.991   4.721  1.4174 -0.8256 -0.0833
  895SOL    MW4 3354   5.552   2.028   4.661  0.0811  0.0980 -0.6954
  896SOL     OW 3355   1.650   2.802   2.640 -0.1126  0.2204 -0.2264
  896SOL    HW2 3356   1.718   2.789   2.574 -1.4441 -0.6682 -1.4766
  896SOL    HW3 3357   1.691   2.860   2.705  1.4625  0.5677 -1.4551
  896SOL    MW4 3358   1.665   2.808   2.640 -0.0805  0.1489 -0.5534
  897SOL     OW 3359   6.029   1.687   5.824 -0.6267 -0.0559  0.6518
  897SOL    HW2 3360   5.941   1.665   5.856 -1.3678  0.4348 -0.9243
  897SOL    HW3 3361   6.013   1.729   5.739  1.1577 -0.2663  0.1803
  897SOL    MW4 3362   6.015   1.689   5.817 -0.4890 -0.0189  0.3816
  898SOL     OW 3363   4.465   0.267   4.961  0.0486  0.2003 -0.0569
  898SOL    HW2 3364   4.372   0.262   4.941 -0.3213 -0.7634  1.7471
  898SOL    HW3 3365   4.475   0.351   5.007 -0.5369 -0.9765  2.3844
  898SOL    MW4 3366   4.454   0.278   4.964 -0.0775 -0.0821  0.5032
  899SOL     OW 3367   1.646   2.930   5.359  0.2516 -0.3365  0.3531
  899SOL    HW2 3368   1.735   2.937   5.324  0.4085  0.7591  0.9185
  899SOL    HW3 3369   1.651   2.975   5.444 -0.6795 -0.8762  0.7023
  899SOL    MW4 3370   1.659   2.937   5.366  0.1495 -0.2632  0.4738
  900SOL     OW 3371   0.188   5.700   3.140  0.3387  0.2389 -0.1470
  900SOL    HW2 3372   0.111   5.646   3.125  0.9977 -0.7202 -0.1377
  900SOL    HW3 3373   0.153   5.783   3.172 -0.7621  0.2978 -1.4235
  900SOL    MW4 3374   0.173   5.704   3.142  0.2804  0.1201 -0.3142
  901SOL     OW 3375   5.364   6.224   2.983  0.4734  0.0955  0.0454
  901SOL    HW2 3376   5.426   6.251   2.915  0.3474  1.1493  0.3300
  901SOL    HW3 3377   5.416   6.222   3.063  0.6536 -1.2773 -0.0814
  901SOL    MW4 3378   5.379   6.227   2.985  0.4805  0.0534  0.0662
  902SOL     OW 3379   5.789   0.111   0.423  0.4434 -0.1210  0.2220
  902SOL    HW2 3380   5.798   0.206   0.428 -2.1579  0.1428  1.8871
  902SOL    HW3 3381   5.839   0.078   0.497 -2.1176  0.3897  2.3233
  902SOL    MW4 3382   5.797   0.119   0.433 -0.2377 -0.0188  0.7189
  903SOL     OW 3383   3.453   0.692   1.221  0.6707  0.5683  0.2877
  903SOL    HW2 3384   3.450   0.626   1.290  1.5334 -0.1012 -0.2938
  903SOL    HW3 3385   3.375   0.746   1.235 -2.4016 -2.9698 -1.6125
  903SOL    MW4 3386   3.443   0.691   1.232  0.3791  0.0132 -0.0398
  904SOL     OW 3387   4.650   6.272   1.151 -0.1300  0.3920  0.0821
  904SOL    HW2 3388   4.677   6.357   1.118 -0.6835  1.3721  1.9872
  904SOL    HW3 3389   4.723   6.213   1.130  0.6222  1.5122 -0.5163
  904SOL    MW4 3390   4.663   6.275   1.144 -0.1038  0.6691  0.2545
  905SOL     OW 3391   4.124   4.185   0.130 -0.7714 -0.4437  0.2682
  905SOL    HW2 3392   4.127   4.141   0.045 -1.4020  0.6296 -0.3453
  905SOL    HW3 3393   4.094   4.118   0.191  0.3812 -1.4212 -0.2145
  905SOL    MW4 3394   4.120   4.171   0.126 -0.7025 -0.4311  0.1236
  906SOL     OW 3395   6.308   3.079   4.425  0.1387 -0.4877  0.2239
  906SOL    HW2 3396   6.310   2.986   4.447 -0.5224 -1.0996 -1.9934
  906SOL    HW3 3397   6.254   3.119   4.493 -0.3856 -1.8982  0.6656
  906SOL    MW4 3398   6.301   3.072   4.437 -0.0177 -0.7545 -0.0103
  907SOL     OW 3399   2.468   1.466   5.148  0.5352 -0.3560  0.0367
  907SOL    HW2 3400   2.399   1.489   5.086 -0.2224 -0.0397  0.9724
  907SOL    HW3 3401   2.466   1.370   5.151 -0.0966 -0.3381  0.3091
  907SOL    MW4 3402   2.458   1.456   5.140  0.3519 -0.3119  0.1961
  908SOL     OW 3403   0.962   5.719   1.704 -0.1434  0.1862 -0.0260
  908SOL    HW2 3404   0.998   5.634   1.731 -0.7430  0.1861  0.8212
  908SOL    HW3 3405   1.037   5.768   1.670  0.0773 -0.9604 -1.2652
  908SOL    MW4 3406   0.976   5.714   1.703 -0.1934  0.0349 -0.0777
  909SOL     OW 3407   5.936   2.666   3.770 -0.5024  0.5796  0.1636
  909SOL    HW2 3408   5.922   2.673   3.676 -1.2350 -3.0628 -0.1739
  909SOL    HW3 3409   5.860   2.616   3.801  1.1461 -0.8428  2.1538
  909SOL    MW4 3410   5.924   2.660   3.762 -0.3816 -0.0886  0.3816
  910SOL     OW 3411   4.305   0.397   2.498 -0.2543  0.0144 -0.4716
  910SOL    HW2 3412   4.351   0.438   2.571 -1.2833  0.8780 -0.2730
  910SOL    HW3 3413   4.271   0.471   2.447 -0.7022 -0.5875 -1.0677
  910SOL    MW4 3414   4.306   0.412   2.501 -0.4491  0.0489 -0.5241
  911SOL     OW 3415   0.043   0.434   4.230 -0.5821  0.1452 -0.4206
  911SOL    HW2 3416   0.036   0.345   4.266  0.8281  0.2784  0.2678
  911SOL    HW3 3417  -0.011   0.488   4.288 -0.9339 -0.1689 -0.4584
  911SOL    MW4 3418   0.035   0.429   4.242 -0.4424  0.1213 -0.3347
  912SOL     OW 3419   5.491   0.227   2.171  0.3326  0.2520  0.4332
  912SOL    HW2 3420   5.433   0.289   2.216  1.0248  2.0179 -1.0226
  912SOL    HW3 3421   5.529   0.277   2.099 -1.7194 -2.7234 -3.0693
  912SOL    MW4 3422   5.488   0.242   2.168  0.1532  0.0924 -0.2210
  913SOL     OW 3423   1.074   6.087   4.850  0.0883 -0.2089  0.1185
  913SOL    HW2 3424   1.038   6.171   4.822  0.6716 -0.5869 -1.9040
  913SOL    HW3 3425   1.158   6.108   4.889 -0.8955  0.3655  2.0341
  913SOL    MW4 3426   1.080   6.100   4.851  0.0355 -0.1830  0.1044
  914SOL     OW 3427   5.444   0.888   4.774  0.1424 -0.3337  0.1310
  914SOL    HW2 3428   5.383   0.947   4.728 -0.4870 -0.8048  0.3388
  914SOL    HW3 3429   5.522   0.886   4.719 -0.0767  0.1813 -0.2101
  914SOL    MW4 3430   5.446   0.896   4.761  0.0304 -0.3279  0.1134
  915SOL     OW 3431   5.598   3.011   1.034 -0.0811 -0.4176  0.1598
  915SOL    HW2 3432   5.510   2.997   1.071 -0.3514  0.3776 -0.1538
  915SOL    HW3 3433   5.636   3.079   1.090 -0.6453  1.0891 -1.2149
  915SOL    MW4 3434   5.591   3.018   1.047 -0.1912 -0.1139 -0.0630
  916SOL     OW 3435   2.202   5.123   4.426 -0.3989  0.0095 -0.1300
  916SOL    HW2 3436   2.296   5.108   4.434 -0.2195  0.9621 -0.3297
  916SOL    HW3 3437   2.180   5.178   4.501 -0.7670 -0.0685 -0.1788
  916SOL    MW4 3438   2.212   5.128   4.437 -0.4238  0.1249 -0.1628
  917SOL     OW 3439   3.819   0.423   3.667 -0.2837  0.0518 -0.1873
  917SOL    HW2 3440   3.812   0.344   3.720  2.9090 -0.4666 -0.3364
  917SOL    HW3 3441   3.817   0.495   3.731  1.1263 -0.4384  0.4479
  917SOL    MW4 3442   3.818   0.422   3.683  0.3236 -0.0813 -0.1231
  918SOL     OW 3443   1.555   3.596   5.194 -0.1359 -0.2885 -0.4456
  918SOL    HW2 3444   1.531   3.645   5.272 -0.2879  1.3472 -1.4594
  918SOL    HW3 3445   1.480   3.538   5.178 -0.0526 -0.7231  0.6541
  918SOL    MW4 3446   1.542   3.595   5.202 -0.1450 -0.1300 -0.4343
  919SOL     OW 3447   4.727   4.873   2.970 -0.1317  0.0924 -0.2203
  919SOL    HW2 3448   4.684   4.790   2.987  0.1663  0.1416  0.8002
  919SOL    HW3 3449   4.766   4.862   2.883 -0.8660 -0.4935 -0.4941
  919SOL    MW4 3450   4.726   4.861   2.961 -0.1893  0.0216 -0.1218
  920SOL     OW 3451   4.215   0.005   5.839  0.4207  0.2260 -0.3017
  920SOL    HW2 3452   4.177   0.073   5.895 -1.0639 -0.3011 -0.6236
  920SOL    HW3 3453   4.216  -0.073   5.893  0.4964  0.0903 -0.4978
  920SOL    MW4 3454   4.210   0.004   5.853  0.2348  0.1385 -0.3701
  921SOL     OW 3455   0.328   0.399   1.963 -0.0433  0.0084  0.2215
  921SOL    HW2 3456   0.337   0.375   2.056 -1.8170 -0.6326  0.2776
  921SOL    HW3 3457   0.234   0.390   1.946  0.0906  1.2438 -1.3519
  921SOL    MW4 3458   0.317   0.395   1.973 -0.2596  0.0868  0.0213
  922SOL     OW 3459   2.356   1.317   4.509 -0.2365 -0.0009  0.2740
  922SOL    HW2 3460   2.297   1.360   4.570 -0.6629 -0.8149  0.4500
  922SOL    HW3 3461   2.393   1.244   4.559 -0.3485 -0.4838 -0.3367
  922SOL    MW4 3462   2.353   1.313   4.524 -0.3075 -0.1720  0.2167
  923SOL     OW 3463   5.765   5.305   4.361 -0.6908  0.1364  0.0275
  923SOL    HW2 3464   5.754   5.211   4.373  1.1999 -0.2365 -0.9112
  923SOL    HW3 3465   5.817   5.333   4.436 -2.6519  0.7956  1.2187
  923SOL    MW4 3466   5.770   5.296   4.372 -0.7001  0.1742  0.0608
  924SOL     OW 3467   4.464   5.232   3.807  0.3708  0.0268  0.7799
  924SOL    HW2 3468   4.437   5.261   3.719  1.2406 -0.1678  0.4396
  924SOL    HW3 3469   4.549   5.190   3.793  0.1915 -0.6359  1.6140
  924SOL    MW4 3470   4.471   5.230   3.793  0.4619 -0.0863  0.8450
  925SOL     OW 3471   3.374   1.811   2.487 -0.1815  0.4660  0.2342
  925SOL    HW2 3472   3.357   1.749   2.557  2.3901  0.1442  0.6761
  925SOL    HW3 3473   3.365   1.897   2.528 -1.3619  0.3694  0.2221
  925SOL    MW4 3474   3.371   1.814   2.502  0.0020  0.4108  0.2909
  926SOL     OW 3475   4.282   6.292   1.302  0.1128  0.1591 -0.1168
  926SOL    HW2 3476   4.365   6.248   1.285 -0.0443  0.3783 -1.6342
  926SOL    HW3 3477   4.299   6.347   1.379  0.6397 -1.6099  1.0817
  926SOL    MW4 3478   4.295   6.294   1.310  0.1616 -0.0454 -0.1589
  927SOL     OW 3479   2.256   0.812   6.253  0.0870  0.1266  0.0572
  927SOL    HW2 3480   2.338   0.861   6.248  0.0381  0.1325 -0.7080
  927SOL    HW3 3481   2.283   0.720   6.241  0.0562  0.0605  0.4709
  927SOL    MW4 3482   2.271   0.806   6.251  0.0765  0.1186  0.0108
  928SOL     OW 3483   4.613   2.103   1.559  0.2724 -0.3018 -0.0925
  928SOL    HW2 3484   4.549   2.167   1.528  2.0102  2.1711  1.0210
  928SOL    HW3 3485   4.664   2.081   1.481 -1.7724 -2.2603 -0.9751
  928SOL    MW4 3486   4.612   2.108   1.545  0.2319 -0.2339 -0.0621
  929SOL     OW 3487   4.763   3.825   5.294  0.5852  0.1784 -0.5804
  929SOL    HW2 3488   4.720   3.739   5.293  0.1286  0.4056 -0.8645
  929SOL    HW3 3489   4.704   3.881   5.245  1.1556  0.5277 -0.8742
  929SOL    MW4 3490   4.749   3.821   5.287  0.6002  0.2544 -0.6566
  930SOL     OW 3491   2.759   2.217   3.719 -0.3835  0.1323 -0.1471
  930SOL    HW2 3492   2.810   2.280   3.668  0.1642  1.0793  1.4948
  930SOL    HW3 3493   2.694   2.184   3.658  0.4747  0.9355 -1.5550
  930SOL    MW4 3494   2.757   2.221   3.704 -0.1980  0.3632 -0.1162
  931SOL     OW 3495   1.493   3.772   3.044 -0.0170  0.0214 -0.0430
  931SOL    HW2 3496   1.536   3.855   3.066 -1.1723  0.5325  0.3385
  931SOL    HW3 3497   1.502   3.719   3.123  0.0063  0.0924  0.0025
  931SOL    MW4 3498   1.500   3.776   3.057 -0.1663  0.0982  0.0134
  932SOL     OW 3499   0.953   0.132   4.828 -0.3913 -0.4979 -0.5869
  932SOL    HW2 3500   1.036   0.146   4.783  0.2187  2.0103  1.0694
  932SOL    HW3 3501   0.889   0.119   4.758  1.3730 -2.8912 -1.9020
  932SOL    MW4 3502   0.956   0.132   4.813 -0.0780 -0.4827 -0.5418
  933SOL     OW 3503   4.168   4.095   5.124  0.2695 -0.6781 -0.0991
  933SOL    HW2 3504   4.169   4.185   5.157  1.5810 -0.7619  0.1441
  933SOL    HW3 3505   4.119   4.100   5.042 -0.9182 -0.0145  0.6308
  933SOL    MW4 3506   4.162   4.108   5.118  0.2858 -0.6016  0.0293
  934SOL     OW 3507   2.282   6.031   5.017  0.2764  0.7325 -0.5086
  934SOL    HW2 3508   2.320   6.015   4.931  1.6870  2.3013 -0.2135
  934SOL    HW3 3509   2.357   6.032   5.077 -0.7704 -1.6314  1.0068
  934SOL    MW4 3510   2.297   6.029   5.014  0.3244  0.6276 -0.2698
  935SOL     OW 3511   1.912   2.168   2.183 -0.5008  0.0665  0.4722
  935SOL    HW2 3512   1.889   2.192   2.273  0.2863  0.4148  0.5913
  935SOL    HW3 3513   1.949   2.249   2.147  0.6338 -0.5020  0.3356
  935SOL    MW4 3514   1.914   2.182   2.190 -0.2473  0.0375  0.4699
  936SOL     OW 3515   0.263   4.170   2.402 -0.1105  0.6007 -0.0226
  936SOL    HW2 3516   0.211   4.240   2.440 -0.6204  0.6537 -0.7824
  936SOL    HW3 3517   0.323   4.215   2.342 -1.0818  0.3510 -1.2384
  936SOL    MW4 3518   0.264   4.185   2.399 -0.3059  0.5747 -0.2833
  937SOL     OW 3519   0.575   6.169   2.293  0.0853  0.0116 -0.0273
  937SOL    HW2 3520   0.558   6.145   2.384 -0.6140 -0.1917 -0.2057
  937SOL    HW3 3521   0.663   6.207   2.294  1.6992 -3.3125  0.1503
  937SOL    MW4 3522   0.584   6.170   2.305  0.2060 -0.4538 -0.0274
  938SOL     OW 3523   6.166   0.678   1.755 -0.1990  0.0189  0.3914
  938SOL    HW2 3524   6.105   0.719   1.694  0.6273 -1.6940 -1.7185
  938SOL    HW3 3525   6.154   0.584   1.740  1.0904 -0.4063  1.8407
  938SOL    MW4 3526   6.156   0.671   1.745  0.0801 -0.2632  0.3042
  939SOL     OW 3527   5.099   4.626   4.441  0.0759  0.3568 -0.6066
  939SOL    HW2 3528   5.133   4.689   4.504  0.0787 -1.0214  0.8472
  939SOL    HW3 3529   5.043   4.568   4.493  1.3615 -1.8357 -1.5026
  939SOL    MW4 3530   5.096   4.626   4.456  0.2458 -0.1143 -0.5330
  940SOL     OW 3531  -0.004   3.007   3.615 -0.4203 -0.2410  0.6395
  940SOL    HW2 3532  -0.081   3.018   3.559  0.5253 -0.6428 -0.8082
  940SOL    HW3 3533   0.025   3.096   3.634 -0.0764 -0.0912 -0.5133
  940SOL    MW4 3534  -0.010   3.020   3.610 -0.2502 -0.2742  0.2964
  941SOL     OW 3535   0.578   2.735   5.321 -0.0807  0.2334 -0.3743
  941SOL    HW2 3536   0.613   2.707   5.236  0.6242  0.1203 -0.0543
  941SOL    HW3 3537   0.654   2.735   5.379 -0.6116  0.0156  0.3325
  941SOL    MW4 3538   0.593   2.731   5.317 -0.0578  0.1897 -0.2388
  942SOL     OW 3539   1.825   3.919   4.231 -0.1696  0.0068  0.4135
  942SOL    HW2 3540   1.921   3.918   4.228 -0.1652 -1.5726 -1.9901
  942SOL    HW3 3541   1.801   3.998   4.183 -0.0457 -0.3039 -0.1726
  942SOL    MW4 3542   1.835   3.929   4.224 -0.1527 -0.2426  0.0191
  943SOL     OW 3543   2.534   1.731   1.485 -0.1306 -0.5134 -0.0875
  943SOL    HW2 3544   2.483   1.812   1.490 -0.4940 -0.7822  0.8424
  943SOL    HW3 3545   2.559   1.724   1.393 -2.4717 -0.8098 -0.7746
  943SOL    MW4 3546   2.530   1.741   1.474 -0.4874 -0.5880 -0.0555
  944SOL     OW 3547   0.614   4.530   2.918 -0.2615  0.0609 -0.2180
  944SOL    HW2 3548   0.540   4.510   2.974  1.0355 -0.7074  1.3013
  944SOL    HW3 3549   0.666   4.450   2.917  1.2639  1.0025 -0.0721
  944SOL    MW4 3550   0.611   4.517   2.925  0.1108  0.0838  0.0017
  945SOL     OW 3551   2.013   2.345   4.183  0.3499 -0.0126  0.2324
  945SOL    HW2 3552   2.073   2.418   4.199  0.1716  0.0712  0.5432
  945SOL    HW3 3553   1.929   2.376   4.216  0.1373 -0.1304 -0.2043
  945SOL    MW4 3554   2.010   2.358   4.190  0.2983 -0.0170  0.2158
  946SOL     OW 3555   4.093   4.600   3.490  0.2591  0.0126  0.4831
  946SOL    HW2 3556   4.066   4.691   3.506 -0.0643  0.2116 -1.0676
  946SOL    HW3 3557   4.187   4.600   3.507  0.1206  0.4284  1.3219
  946SOL    MW4 3558   4.101   4.612   3.494  0.1981  0.0937  0.3892
  947SOL     OW 3559   4.580   3.263   0.095 -0.1505  0.1329 -0.0900
  947SOL    HW2 3560   4.580   3.223   0.008  0.0764 -0.0344 -0.0128
  947SOL    HW3 3561   4.656   3.320   0.096 -0.4800  0.5787 -0.2035
  947SOL    MW4 3562   4.590   3.265   0.084 -0.1640  0.1696 -0.0948
  948SOL     OW 3563   3.781   4.534   6.261 -0.7850  0.1242  0.0533
  948SOL    HW2 3564   3.776   4.546   6.356 -0.9510  2.0391 -0.1613
  948SOL    HW3 3565   3.857   4.585   6.233 -0.9132 -0.1655 -0.8815
  948SOL    MW4 3566   3.790   4.543   6.270 -0.8238  0.3386 -0.0983
  949SOL     OW 3567   4.540   3.026   3.587 -0.2471  0.6403 -0.2405
  949SOL    HW2 3568   4.521   2.932   3.595 -2.8637  1.1928  1.0190
  949SOL    HW3 3569   4.534   3.043   3.493  0.9799 -0.5441 -0.5705
  949SOL    MW4 3570   4.537   3.016   3.576 -0.4305  0.5569 -0.1179
  950SOL     OW 3571   1.854   2.408   0.228 -0.3408 -0.4214 -0.0376
  950SOL    HW2 3572   1.888   2.323   0.201 -0.1463  0.1513 -1.6687
  950SOL    HW3 3573   1.778   2.387   0.284  0.0481 -1.6524  0.0536
  950SOL    MW4 3574   1.848   2.394   0.232 -0.2639 -0.5082 -0.2408
  951SOL     OW 3575   4.385   1.737   1.436  0.2589 -0.4189  0.5283
  951SOL    HW2 3576   4.434   1.791   1.499 -0.3218 -0.6956  1.2327
  951SOL    HW3 3577   4.293   1.752   1.459  0.0789 -1.3314  0.4136
  951SOL    MW4 3578   4.379   1.746   1.448  0.1585 -0.5758  0.6061
  952SOL     OW 3579   0.297   0.148   4.912 -0.5756 -0.7070 -0.0767
  952SOL    HW2 3580   0.291   0.140   4.816 -0.1375 -1.3699 -0.0577
  952SOL    HW3 3581   0.286   0.058   4.944  0.7492 -0.7160  0.4060
  952SOL    MW4 3582   0.295   0.135   4.903 -0.3430 -0.7956 -0.0105
  953SOL     OW 3583   2.758   2.928   1.603 -0.0931 -0.9975  0.8204
  953SOL    HW2 3584   2.688   2.959   1.660  0.2743  0.7574  0.3985
  953SOL    HW3 3585   2.731   2.841   1.575 -2.9592  0.2588 -0.6935
  953SOL    MW4 3586   2.745   2.921   1.607 -0.4228 -0.6002  0.5650
  954SOL     OW 3587   0.006   4.297   0.125 -0.3509  0.9041 -0.5354
  954SOL    HW2 3588  -0.039   4.275   0.207 -1.1747  0.3882 -1.1181
  954SOL    HW3 3589  -0.036   4.378   0.096  0.5201  1.5605 -0.0320
  954SOL    MW4 3590  -0.005   4.305   0.132 -0.3447  0.9226 -0.5459
  955SOL     OW 3591   0.020   1.833   3.772 -0.0419 -0.1867 -0.0175
  955SOL    HW2 3592   0.104   1.860   3.735 -0.2617 -0.1364 -0.4861
  955SOL    HW3 3593  -0.028   1.796   3.697 -0.4256 -0.2376  0.2524
  955SOL    MW4 3594   0.025   1.831   3.757 -0.1215 -0.1868 -0.0437
  956SOL     OW 3595   1.092   4.162   1.741  0.9739  0.2705  0.7133
  956SOL    HW2 3596   1.159   4.095   1.724  0.8104  0.0260  1.0339
  956SOL    HW3 3597   1.111   4.230   1.677  1.2985  0.0316  0.5488
  956SOL    MW4 3598   1.104   4.162   1.730  0.9951  0.2067  0.7339
  957SOL     OW 3599   2.486   5.590   3.125 -0.5043  0.2894 -0.0061
  957SOL    HW2 3600   2.407   5.600   3.074 -0.3206 -0.9043 -0.5503
  957SOL    HW3 3601   2.550   5.648   3.083 -0.4035 -0.5525 -1.0358
  957SOL    MW4 3602   2.484   5.599   3.113 -0.4668  0.0208 -0.2138
  958SOL     OW 3603   0.272   0.446   0.476 -0.5702 -0.2594 -0.0529
  958SOL    HW2 3604   0.331   0.372   0.488  0.1946  0.2582 -0.5458
  958SOL    HW3 3605   0.184   0.407   0.474 -0.2056 -1.0971  0.1179
  958SOL    MW4 3606   0.268   0.431   0.477 -0.4212 -0.3016 -0.0954
  959SOL     OW 3607   2.111   1.836   3.120 -0.5468  0.2668  0.3020
  959SOL    HW2 3608   2.078   1.875   3.040 -0.2149 -0.5468 -0.2464
  959SOL    HW3 3609   2.072   1.748   3.123 -0.3331  0.1808  0.8763
  959SOL    MW4 3610   2.102   1.829   3.110 -0.4749  0.1481  0.3054
  960SOL     OW 3611   5.077   3.446   5.763  0.2765 -0.2752  0.4743
  960SOL    HW2 3612   5.087   3.353   5.782 -0.8004  0.0018  2.7275
  960SOL    HW3 3613   5.148   3.489   5.811  0.3227  0.1252  0.0576
  960SOL    MW4 3614   5.088   3.440   5.772  0.1405 -0.1858  0.7166
  961SOL     OW 3615   4.855   0.123   5.858  0.1455  0.2885 -0.1536
  961SOL    HW2 3616   4.840   0.217   5.855  0.6203  0.3623 -0.4200
  961SOL    HW3 3617   4.916   0.110   5.931  0.1723  0.2034 -0.1900
  961SOL    MW4 3618   4.861   0.134   5.867  0.2117  0.2870 -0.1935
  962SOL     OW 3619   5.033   5.299   2.936  0.6719 -0.2969  1.0185
  962SOL    HW2 3620   5.053   5.356   2.862 -0.4158 -0.5443  0.5337
  962SOL    HW3 3621   5.042   5.210   2.902 -0.3276 -0.4105  1.0450
  962SOL    MW4 3622   5.037   5.295   2.922  0.3965 -0.3446  0.9580
  963SOL     OW 3623   3.788   4.761   0.888 -0.8453  0.1507  0.3388
  963SOL    HW2 3624   3.757   4.852   0.884 -1.6267 -0.1178  0.2061
  963SOL    HW3 3625   3.750   4.719   0.812 -2.3276 -0.8418  1.5735
  963SOL    MW4 3626   3.779   4.768   0.877 -1.1440 -0.0157  0.4842
  964SOL     OW 3627   2.962   1.521   2.020 -0.4247  0.5342  0.0561
  964SOL    HW2 3628   3.015   1.483   2.089 -0.7214 -0.3847 -0.2056
  964SOL    HW3 3629   2.976   1.463   1.945 -1.3434  0.6032 -0.1780
  964SOL    MW4 3630   2.971   1.508   2.019 -0.5851  0.4221 -0.0094
  965SOL     OW 3631   3.988   1.145   1.535 -0.3094 -0.2543 -0.0268
  965SOL    HW2 3632   3.938   1.203   1.477  1.1229  1.7383  0.6117
  965SOL    HW3 3633   4.076   1.183   1.537  0.2816 -1.5817  1.6766
  965SOL    MW4 3634   3.993   1.158   1.528 -0.0424 -0.1665  0.2822
  966SOL     OW 3635   5.318   5.537   5.281  0.2660 -0.0390 -0.0449
  966SOL    HW2 3636   5.266   5.530   5.201  0.2156 -0.7454  0.0470
  966SOL    HW3 3637   5.306   5.453   5.325 -0.3069  0.6085  1.0756
  966SOL    MW4 3638   5.310   5.525   5.276  0.1837 -0.0468  0.1151
  967SOL     OW 3639   4.943   2.262   5.808  0.6088 -0.3054 -0.1490
  967SOL    HW2 3640   4.969   2.313   5.884  1.0316 -1.5120  0.5547
  967SOL    HW3 3641   4.852   2.237   5.825 -0.7586  2.8080 -1.9946
  967SOL    MW4 3642   4.934   2.265   5.820  0.4841 -0.0539 -0.2996
  968SOL     OW 3643   0.136   5.075   2.267 -0.0079 -0.7784 -0.0740
  968SOL    HW2 3644   0.134   5.036   2.180 -0.2212 -0.2945 -0.2902
  968SOL    HW3 3645   0.044   5.084   2.292 -0.0321  0.8074 -0.5983
  968SOL    MW4 3646   0.123   5.071   2.259 -0.0392 -0.5053 -0.1717
  969SOL     OW 3647   2.623   4.831   5.892  0.2480 -0.2113 -0.0944
  969SOL    HW2 3648   2.532   4.860   5.890  0.3601  0.3046  1.2638
  969SOL    HW3 3649   2.673   4.912   5.905  1.0252 -0.3043 -2.1459
  969SOL    MW4 3650   2.618   4.846   5.893  0.3653 -0.1555 -0.1859
  970SOL     OW 3651   1.068   4.222   4.274 -0.2444  0.1888 -0.0717
  970SOL    HW2 3652   1.124   4.272   4.333  0.6677 -0.6835 -0.1829
  970SOL    HW3 3653   1.128   4.177   4.216 -0.9554 -2.1548  0.9028
  970SOL    MW4 3654   1.083   4.223   4.274 -0.2178 -0.2355  0.0422
  971SOL     OW 3655   3.557   2.475   1.474  0.1270 -0.0037 -0.2870
  971SOL    HW2 3656   3.471   2.467   1.515 -0.5149 -0.1206 -1.5890
  971SOL    HW3 3657   3.556   2.410   1.404  0.5681  1.2275 -1.4831
  971SOL    MW4 3658   3.546   2.465   1.470  0.1005  0.1433 -0.6166
  972SOL     OW 3659   1.582   3.037   4.558 -0.8431  0.1849 -0.4245
  972SOL    HW2 3660   1.634   3.113   4.584 -0.6222  0.2762 -1.0934
  972SOL    HW3 3661   1.531   3.014   4.636  0.3499 -0.0364  0.3047
  972SOL    MW4 3662   1.582   3.044   4.571 -0.6566  0.1677 -0.4165
  973SOL     OW 3663   4.143   4.788   2.874 -0.2960  0.1457 -0.5676
  973SOL    HW2 3664   4.196   4.862   2.844 -0.4181  0.4109 -0.1326
  973SOL    HW3 3665   4.195   4.711   2.851  0.5132  0.4118  0.2778
  973SOL    MW4 3666   4.157   4.788   2.867 -0.2053  0.2158 -0.3986
  974SOL     OW 3667   6.359   5.999   5.579  0.1395 -0.2783  0.3288
  974SOL    HW2 3668   6.274   5.956   5.569 -0.6527  1.2782 -0.0683
  974SOL    HW3 3669   6.420   5.929   5.598 -1.0598 -1.5711 -0.4263
  974SOL    MW4 3670   6.356   5.984   5.580 -0.1233 -0.2435  0.1768
  975SOL     OW 3671   2.845   4.342   5.194 -0.1442 -0.5509  0.0184
  975SOL    HW2 3672   2.819   4.251   5.179  1.9428 -1.3015  0.6255
  975SOL    HW3 3673   2.812   4.362   5.282 -3.3233  0.4027 -1.2566
  975SOL    MW4 3674   2.837   4.333   5.204 -0.2883 -0.5241 -0.0697
  976SOL     OW 3675   4.871   2.934   6.139 -0.6324  0.3393 -0.0783
  976SOL    HW2 3676   4.964   2.938   6.121 -0.6914 -0.3874 -0.5773
  976SOL    HW3 3677   4.861   2.859   6.198 -0.8097  0.9023  0.6278
  976SOL    MW4 3678   4.882   2.924   6.144 -0.6635  0.3177 -0.0510
  977SOL     OW 3679   0.550   4.406   5.024  0.1359 -0.1320 -0.0886
  977SOL    HW2 3680   0.466   4.431   5.062  0.4998  1.0338 -0.0093
  977SOL    HW3 3681   0.550   4.311   5.026 -1.1449 -0.1457 -0.0120
  977SOL    MW4 3682   0.539   4.397   5.030  0.0149  0.0200 -0.0681
  978SOL     OW 3683   3.492   1.494   1.803 -0.2722  0.0996 -0.8447
  978SOL    HW2 3684   3.559   1.560   1.780  1.5216 -0.2344  2.7996
  978SOL    HW3 3685   3.536   1.410   1.789 -1.8710 -0.4403 -3.4674
  978SOL    MW4 3686   3.507   1.492   1.798 -0.2465 -0.0157 -0.7099
  979SOL     OW 3687   5.067   0.248   3.423  0.1515 -0.6063 -0.3106
  979SOL    HW2 3688   5.103   0.225   3.337  1.6364  1.7114 -0.4166
  979SOL    HW3 3689   5.117   0.195   3.485 -1.4398 -2.8585 -0.8196
  979SOL    MW4 3690   5.079   0.238   3.420  0.1375 -0.5977 -0.3918
  980SOL     OW 3691   2.915   2.924   5.495  0.0804 -0.1483  0.0822
  980SOL    HW2 3692   2.970   2.866   5.547 -0.5147 -0.3921  0.4563
  980SOL    HW3 3693   2.866   2.866   5.437 -0.6101 -0.0476  0.5475
  980SOL    MW4 3694   2.916   2.909   5.494 -0.0892 -0.1672  0.1930
  981SOL     OW 3695   6.135   4.505   5.107  0.0414  0.5309 -0.1566
  981SOL    HW2 3696   6.212   4.471   5.062 -0.5885  1.1643 -1.8138
  981SOL    HW3 3697   6.061   4.467   5.059 -0.6798  0.7478  0.7569
  981SOL    MW4 3698   6.135   4.495   5.095 -0.1368  0.6431 -0.2548
  982SOL     OW 3699   5.318   2.012   2.721 -0.4520  0.2184 -0.5378
  982SOL    HW2 3700   5.226   2.038   2.710 -0.7508 -0.1663  0.8757
  982SOL    HW3 3701   5.323   1.978   2.810  1.1854  0.7042 -0.4097
  982SOL    MW4 3702   5.306   2.011   2.731 -0.2754  0.2318 -0.3344
  983SOL     OW 3703   3.088   2.136   3.619 -0.9321  0.4821  0.2595
  983SOL    HW2 3704   3.168   2.084   3.613 -1.2471 -0.0545  0.6429
  983SOL    HW3 3705   3.023   2.085   3.571 -0.6933  1.6551 -1.4104
  983SOL    MW4 3706   3.090   2.122   3.612 -0.9422  0.5661  0.0898
  984SOL     OW 3707   3.388   2.576   4.927  0.1275 -0.5298  0.1969
  984SOL    HW2 3708   3.320   2.560   4.992  0.4895 -0.3559  0.6209
  984SOL    HW3 3709   3.420   2.488   4.903 -1.8379 -0.7969 -1.7528
  984SOL    MW4 3710   3.384   2.562   4.932 -0.0841 -0.5421 -0.0044
  985SOL     OW 3711   6.242   0.360   5.876  0.2128 -0.2287 -0.0872
  985SOL    HW2 3712   6.163   0.306   5.872  0.3356 -0.5514  1.3024
  985SOL    HW3 3713   6.282   0.350   5.790 -1.2773 -0.0101 -0.8485
  985SOL    MW4 3714   6.237   0.351   5.864  0.0324 -0.2424 -0.0043
  986SOL     OW 3715   0.214   2.368   2.153  0.0257  0.2792 -0.0219
  986SOL    HW2 3716   0.236   2.285   2.197  0.0203  0.2051 -0.1586
  986SOL    HW3 3717   0.274   2.373   2.079 -0.0554  0.3397 -0.0832
  986SOL    MW4 3718   0.225   2.357   2.149  0.0143  0.2774 -0.0480
  987SOL     OW 3719   1.151   0.520   6.092 -0.4668 -1.3703 -0.1491
  987SOL    HW2 3720   1.122   0.506   6.182  0.4901 -1.3714  0.1702
  987SOL    HW3 3721   1.234   0.566   6.100 -1.2918  0.3728 -1.0912
  987SOL    MW4 3722   1.158   0.524   6.105 -0.4494 -1.1404 -0.2312
  988SOL     OW 3723   4.867   5.717   0.665  0.3199 -0.0105  0.2915
  988SOL    HW2 3724   4.835   5.792   0.714  0.5291 -0.1177  0.6006
  988SOL    HW3 3725   4.952   5.697   0.706 -1.1178 -2.4237  2.4071
  988SOL    MW4 3726   4.874   5.724   0.677  0.1578 -0.3430  0.6114
  989SOL     OW 3727   3.684   3.159   2.227 -0.0251 -0.1827 -0.3467
  989SOL    HW2 3728   3.704   3.120   2.312 -0.5474 -2.1818 -1.0847
  989SOL    HW3 3729   3.591   3.183   2.232 -0.1307 -0.5693 -0.4490
  989SOL    MW4 3730   3.674   3.157   2.239 -0.1080 -0.4975 -0.4576
  990SOL     OW 3731   1.578   0.699   3.060 -0.4312 -0.3410  0.7675
  990SOL    HW2 3732   1.570   0.716   3.154 -2.2840 -1.5752  0.8770
  990SOL    HW3 3733   1.570   0.604   3.052 -2.4640 -0.1022 -0.7719
  990SOL    MW4 3734   1.575   0.689   3.071 -0.9438 -0.4723  0.5789
  991SOL     OW 3735   5.214   2.065   0.756 -0.3758  0.1469  0.0223
  991SOL    HW2 3736   5.230   2.159   0.745 -0.4584  0.2657  0.8460
  991SOL    HW3 3737   5.118   2.058   0.759 -0.4062 -0.0983 -1.0713
  991SOL    MW4 3738   5.203   2.077   0.755 -0.3907  0.1302 -0.0133
  992SOL     OW 3739   4.572   3.595   6.293  0.1680 -0.1792 -0.1240
  992SOL    HW2 3740   4.595   3.556   6.377  1.5041 -0.1590 -0.4499
  992SOL    HW3 3741   4.570   3.522   6.231 -0.9235 -0.2108 -0.0694
  992SOL    MW4 3742   4.575   3.581   6.296  0.2003 -0.1807 -0.1598
  993SOL     OW 3743   4.428   2.411   0.061 -0.1828  0.1974  0.2830
  993SOL    HW2 3744   4.377   2.330   0.062  0.0130  0.0556 -0.4045
  993SOL    HW3 3745   4.364   2.480   0.077 -0.5945  0.0136 -0.4996
  993SOL    MW4 3746   4.413   2.409   0.063 -0.2113  0.1544  0.0890
  994SOL     OW 3747   5.259   1.606   5.215 -0.4464  0.1515 -0.1918
  994SOL    HW2 3748   5.176   1.639   5.249 -0.3688 -0.9839  1.2001
  994SOL    HW3 3749   5.294   1.677   5.162 -1.5015  1.2715  0.5754
  994SOL    MW4 3750   5.253   1.620   5.212 -0.5753  0.1495  0.0931
  995SOL     OW 3751   3.654   0.922   5.775 -0.2311  0.3613  0.1482
  995SOL    HW2 3752   3.568   0.951   5.744 -0.7953 -2.0863 -0.8584
  995SOL    HW3 3753   3.647   0.922   5.870 -1.8106 -0.8637  0.0860
  995SOL    MW4 3754   3.642   0.926   5.783 -0.5139 -0.1233  0.0072
  996SOL     OW 3755   5.908   1.528   2.239  0.0108 -0.0125  0.4009
  996SOL    HW2 3756   5.925   1.598   2.302  1.5947  0.4083 -0.4361
  996SOL    HW3 3757   5.902   1.449   2.293  0.7769  0.4142  1.1510
  996SOL    MW4 3758   5.910   1.527   2.255  0.3209  0.0993  0.3894
  997SOL     OW 3759   6.102   1.319   3.626  0.4700 -0.3959 -0.0835
  997SOL    HW2 3760   6.008   1.316   3.615  0.5791 -1.0641 -0.8870
  997SOL    HW3 3761   6.123   1.240   3.677  0.3241  1.0682  2.4213
  997SOL    MW4 3762   6.093   1.308   3.632  0.4651 -0.2909  0.1410
  998SOL     OW 3763   4.347   2.015   0.391  0.3595  0.0853 -0.1144
  998SOL    HW2 3764   4.392   1.999   0.308  2.9225 -0.1760  1.1963
  998SOL    HW3 3765   4.256   2.031   0.367  0.8993 -0.4852 -2.9024
  998SOL    MW4 3766   4.341   2.015   0.377  0.7689 -0.0244 -0.3093
  999SOL     OW 3767   5.915   4.015   2.178 -0.2899 -0.2340 -0.6436
  999SOL    HW2 3768   5.880   3.930   2.203  0.9675 -0.9409 -1.1693
  999SOL    HW3 3769   5.843   4.059   2.132 -1.0211 -0.9130 -0.1583
  999SOL    MW4 3770   5.901   4.010   2.175 -0.2205 -0.4168 -0.6489
 1000SOL     OW 3771   3.439   0.951   0.770  0.4396 -0.4347  0.1011
 1000SOL    HW2 3772   3.503   0.891   0.807  1.2510  0.5572  0.3258
 1000SOL    HW3 3773   3.463   0.958   0.677 -0.2280 -1.1688 -0.1402
 1000SOL    MW4 3774   3.450   0.944   0.762  0.4586 -0.4007  0.0989
 1001SOL     OW 3775   2.731   0.073   1.804 -0.3408  0.1605 -0.0245
 1001SOL    HW2 3776   2.812   0.123   1.811 -0.4576  0.3109  0.2915
 1001SOL    HW3 3777   2.718   0.059   1.710 -1.1949  2.1634 -0.2488
 1001SOL    MW4 3778   2.740   0.078   1.793 -0.4689  0.4446 -0.0124
 1002SOL     OW 3779   3.750   3.473   5.069 -0.2833  0.1938  0.4598
 1002SOL    HW2 3780   3.835   3.514   5.057 -1.3976  2.1073 -1.5075
 1002SOL    HW3 3781   3.741   3.464   5.164  0.8154  2.9029  0.8972
 1002SOL    MW4 3782   3.760   3.477   5.080 -0.2854  0.8037  0.2580
 1003SOL     OW 3783   3.657   3.279   0.218 -0.5034  0.2381 -0.8327
 1003SOL    HW2 3784   3.645   3.300   0.126 -1.1122  0.3600 -0.7281
 1003SOL    HW3 3785   3.671   3.363   0.261 -1.7874  0.3444 -0.5878
 1003SOL    MW4 3786   3.657   3.293   0.212 -0.7531  0.2682 -0.7866
 1004SOL     OW 3787   6.301   2.535   1.916 -0.3370  0.0830  0.3016
 1004SOL    HW2 3788   6.338   2.574   1.837 -0.9116 -0.4924 -0.2680
 1004SOL    HW3 3789   6.217   2.498   1.887 -0.4570 -0.3204  1.1375
 1004SOL    MW4 3790   6.295   2.535   1.902 -0.4287 -0.0461  0.3368
 1005SOL     OW 3791   2.556   3.608   1.631 -0.3489  0.0971  0.4895
 1005SOL    HW2 3792   2.495   3.605   1.557 -2.0018  1.0012  1.7143
 1005SOL    HW3 3793   2.598   3.523   1.632 -0.2463  0.0917 -1.5078
 1005SOL    MW4 3794   2.553   3.596   1.622 -0.5534  0.2157  0.3876
 1006SOL     OW 3795   0.207   3.238   3.703  0.1455  0.5318 -0.0519
 1006SOL    HW2 3796   0.251   3.217   3.621  0.4154  1.1941 -0.0850
 1006SOL    HW3 3797   0.272   3.288   3.753 -0.0044  0.1114  0.5767
 1006SOL    MW4 3798   0.222   3.242   3.699  0.1613  0.5637  0.0266
 1007SOL     OW 3799   2.243   6.082   0.562 -0.3116 -0.0566 -0.0951
 1007SOL    HW2 3800   2.166   6.137   0.572 -0.7748 -0.8430  0.7582
 1007SOL    HW3 3801   2.241   6.054   0.470 -2.8218 -2.5732  0.5868
 1007SOL    MW4 3802   2.233   6.085   0.551 -0.7039 -0.4924  0.1074
 1008SOL     OW 3803   0.471   0.465   1.585 -0.0249 -0.0522  0.0121
 1008SOL    HW2 3804   0.535   0.394   1.586  0.2175  0.1292 -1.4934
 1008SOL    HW3 3805   0.523   0.545   1.593 -0.3057 -0.0020  1.8524
 1008SOL    MW4 3806   0.486   0.466   1.586 -0.0300 -0.0216  0.0563
 1009SOL     OW 3807   5.377   5.768   4.030  0.4525  0.2570 -0.4775
 1009SOL    HW2 3808   5.356   5.680   3.997 -2.1813  1.3159 -1.9368
 1009SOL    HW3 3809   5.467   5.782   4.002 -0.0576 -0.8529 -3.0429
 1009SOL    MW4 3810   5.386   5.758   4.022  0.0377  0.2503 -1.0085
 1010SOL     OW 3811   5.885   6.123   3.531  0.4082  0.3538 -0.4244
 1010SOL    HW2 3812   5.902   6.113   3.625  0.2535  1.9709 -0.2080
 1010SOL    HW3 3813   5.971   6.115   3.490  0.4081 -0.9577 -0.2328
 1010SOL    MW4 3814   5.899   6.121   3.538  0.3877  0.3941 -0.3706
 1011SOL     OW 3815   5.011   4.733   1.338  0.6580  0.6701 -0.3003
 1011SOL    HW2 3816   4.961   4.651   1.342  1.2251  0.1894 -2.0227
 1011SOL    HW3 3817   4.951   4.799   1.373 -0.0454 -0.3754  0.5247
 1011SOL    MW4 3818   4.996   4.731   1.343  0.6401  0.4687 -0.4187
 1012SOL     OW 3819   5.171   3.178   0.596 -0.9795 -0.4315 -0.4653
 1012SOL    HW2 3820   5.204   3.230   0.523 -2.0455  2.9029  1.1996
 1012SOL    HW3 3821   5.076   3.183   0.588 -1.2399  2.1273  2.2684
 1012SOL    MW4 3822   5.163   3.185   0.585 -1.1545  0.3460  0.1150
 1013SOL     OW 3823   4.906   6.296   4.569  0.5436 -0.1260 -0.6250
 1013SOL    HW2 3824   4.818   6.274   4.538  1.2863 -0.0742 -2.9923
 1013SOL    HW3 3825   4.916   6.389   4.549  0.9203  0.0149  0.1895
 1013SOL    MW4 3826   4.896   6.305   4.562  0.6913 -0.1006 -0.8299
 1014SOL     OW 3827   3.087   3.104   0.875 -0.0465  0.3658  0.3360
 1014SOL    HW2 3828   3.081   3.160   0.952 -0.2791 -0.7217  1.1361
 1014SOL    HW3 3829   3.161   3.046   0.892 -0.0467  0.1682 -0.2934
 1014SOL    MW4 3830   3.096   3.103   0.887 -0.0772  0.1963  0.3585
 1015SOL     OW 3831   5.764   5.458   5.557 -0.3913  0.4863 -0.3393
 1015SOL    HW2 3832   5.771   5.480   5.465 -1.1382 -0.0199 -0.5302
 1015SOL    HW3 3833   5.814   5.526   5.603  2.1565 -0.6577 -1.2528
 1015SOL    MW4 3834   5.771   5.470   5.551 -0.1537  0.2686 -0.4850
 1016SOL     OW 3835   4.865   1.967   3.921  0.1345 -0.4250 -0.3507
 1016SOL    HW2 3836   4.889   1.876   3.902  0.3947 -0.4586  0.1295
 1016SOL    HW3 3837   4.807   1.991   3.849 -0.3985 -1.1562 -0.1826
 1016SOL    MW4 3838   4.861   1.958   3.909  0.0985 -0.5259 -0.2652
 1017SOL     OW 3839   5.426   4.198   3.150  0.3850  0.4143 -0.1957
 1017SOL    HW2 3840   5.492   4.209   3.081  0.0348  2.5851 -0.2755
 1017SOL    HW3 3841   5.476   4.193   3.231  0.9125 -3.8455 -0.5876
 1017SOL    MW4 3842   5.441   4.199   3.151  0.4084  0.1387 -0.2580
 1018SOL     OW 3843   0.766   2.506   2.976  0.6526  0.6430  0.2083
 1018SOL    HW2 3844   0.685   2.461   2.951 -0.3191  1.9873  0.8062
 1018SOL    HW3 3845   0.765   2.505   3.071  0.2617  2.4548  0.2582
 1018SOL    MW4 3846   0.755   2.500   2.985  0.4728  1.0594  0.2938
 1019SOL     OW 3847   0.265   6.228   5.447 -0.4002 -0.3883 -0.2626
 1019SOL    HW2 3848   0.286   6.318   5.470 -1.8355  0.2674 -1.3506
 1019SOL    HW3 3849   0.349   6.188   5.425  0.3476  0.4395  0.9608
 1019SOL    MW4 3850   0.279   6.234   5.448 -0.4909 -0.1926 -0.2448
 1020SOL     OW 3851   2.441   0.154   4.640  0.2976  0.0806 -0.0672
 1020SOL    HW2 3852   2.518   0.097   4.639  0.4693  0.3122 -0.4921
 1020SOL    HW3 3853   2.367   0.094   4.647  0.5345 -0.1152  0.9122
 1020SOL    MW4 3854   2.441   0.138   4.640  0.3515  0.0853  0.0060
 1021SOL     OW 3855   2.246   0.280   3.739 -0.4983 -0.2491  0.4224
 1021SOL    HW2 3856   2.266   0.366   3.702 -3.0256  0.6144  0.8979
 1021SOL    HW3 3857   2.254   0.219   3.665  1.1947  0.3707  0.0596
 1021SOL    MW4 3858   2.250   0.283   3.725 -0.6084 -0.0534  0.4373
 1022SOL     OW 3859   2.925   4.018   4.927 -0.2752 -0.0117 -0.1231
 1022SOL    HW2 3860   3.016   3.990   4.937 -0.7806 -2.1551 -0.9828
 1022SOL    HW3 3861   2.913   4.029   4.833 -1.3576 -1.5687 -0.2033
 1022SOL    MW4 3862   2.935   4.016   4.916 -0.4847 -0.4999 -0.2471
 1023SOL     OW 3863   5.867   3.821   4.533  0.0065 -0.2430  0.0604
 1023SOL    HW2 3864   5.834   3.742   4.490 -1.6595  1.0353 -1.1587
 1023SOL    HW3 3865   5.795   3.850   4.589  1.2540 -0.5167  1.8904
 1023SOL    MW4 3866   5.853   3.814   4.535 -0.0487 -0.1104  0.1410
 1024SOL     OW 3867   0.428   3.992   0.335 -0.6208  0.1973  0.4648
 1024SOL    HW2 3868   0.351   3.944   0.304  0.7520 -0.8710 -1.5348
 1024SOL    HW3 3869   0.429   4.072   0.283  0.3906 -0.5019 -0.6591
 1024SOL    MW4 3870   0.418   3.996   0.324 -0.3063 -0.0359  0.0527
 1025SOL     OW 3871   3.373   4.764   3.496 -0.5388  0.1303 -0.1755
 1025SOL    HW2 3872   3.376   4.716   3.414 -1.3739 -0.9960  0.4283
 1025SOL    HW3 3873   3.462   4.797   3.508 -0.3895  0.2389 -1.4782
 1025SOL    MW4 3874   3.385   4.762   3.487 -0.6293 -0.0040 -0.2677
 1026SOL     OW 3875   2.079   4.298   3.989 -0.0724  0.3586  0.3580
 1026SOL    HW2 3876   2.041   4.383   4.009  2.1765  1.1989  1.4489
 1026SOL    HW3 3877   2.052   4.241   4.061  1.4259  1.2079  1.6517
 1026SOL    MW4 3878   2.071   4.302   4.001  0.4220  0.5815  0.6726
 1027SOL     OW 3879   6.303   0.601   3.244 -0.3302 -0.6925  0.4208
 1027SOL    HW2 3880   6.396   0.610   3.266  0.3041 -2.0087 -1.4743
 1027SOL    HW3 3881   6.265   0.557   3.320  0.2304  1.1916  1.8734
 1027SOL    MW4 3882   6.311   0.596   3.257 -0.1726 -0.6175  0.3624
 1028SOL     OW 3883   3.374   4.186   3.609 -0.1412  0.3735  0.3005
 1028SOL    HW2 3884   3.465   4.172   3.633 -0.3393 -1.3127  0.2130
 1028SOL    HW3 3885   3.360   4.280   3.619  0.9398  0.3588  2.6657
 1028SOL    MW4 3886   3.384   4.197   3.613 -0.0247  0.1491  0.6010
 1029SOL     OW 3887   5.311   4.247   5.158 -0.0756  0.5671 -0.4464
 1029SOL    HW2 3888   5.226   4.284   5.180 -1.2654 -1.2471 -1.7802
 1029SOL    HW3 3889   5.327   4.182   5.226  1.0506  1.9472  0.7002
 1029SOL    MW4 3890   5.302   4.244   5.170 -0.0840  0.5098 -0.4711
 1030SOL     OW 3891   6.045   1.284   3.088 -0.1564  0.1587  0.6642
 1030SOL    HW2 3892   6.128   1.326   3.065 -0.4752 -0.0311 -0.9344
 1030SOL    HW3 3893   5.988   1.302   3.013 -1.6002  0.3607  1.7726
 1030SOL    MW4 3894   6.049   1.292   3.075 -0.3889  0.1603  0.5995
 1031SOL     OW 3895   0.936   3.123   4.844 -0.1145  0.0121  0.0486
 1031SOL    HW2 3896   0.970   3.179   4.914 -0.6053  1.4972 -0.8513
 1031SOL    HW3 3897   0.928   3.037   4.884 -0.7301  0.8949  1.9381
 1031SOL    MW4 3898   0.940   3.119   4.858 -0.2605  0.3245  0.1792
 1032SOL     OW 3899   3.289   4.101   5.637 -0.1590 -0.2707  0.0391
 1032SOL    HW2 3900   3.349   4.046   5.587 -2.0252 -3.3516  0.9718
 1032SOL    HW3 3901   3.274   4.177   5.581  1.5141 -1.2976 -1.9263
 1032SOL    MW4 3902   3.295   4.104   5.623 -0.1845 -0.8127 -0.0972
 1033SOL     OW 3903   0.103   5.695   4.743  0.3888 -0.3316 -0.2263
 1033SOL    HW2 3904   0.038   5.763   4.726  0.0586 -0.5043  0.3290
 1033SOL    HW3 3905   0.066   5.616   4.702 -0.0413 -0.5690  0.6061
 1033SOL    MW4 3906   0.090   5.694   4.735  0.2885 -0.3857 -0.0433
 1034SOL     OW 3907   3.915   3.269   4.498  0.3859  0.1804 -0.2225
 1034SOL    HW2 3908   3.936   3.188   4.544  0.4566  0.9220  1.1125
 1034SOL    HW3 3909   3.935   3.338   4.561  1.6089  1.3276 -1.7861
 1034SOL    MW4 3910   3.920   3.267   4.512  0.5566  0.4296 -0.2527
 1035SOL     OW 3911   1.208   1.601   6.263  0.9795 -0.6553 -0.0175
 1035SOL    HW2 3912   1.224   1.663   6.191  0.0582 -0.2692  0.0993
 1035SOL    HW3 3913   1.113   1.595   6.268  0.9917  0.0854  1.8073
 1035SOL    MW4 3914   1.197   1.609   6.254  0.8596 -0.5067  0.2387
 1036SOL     OW 3915   4.568   1.078   3.491  0.6883  0.0036 -0.5377
 1036SOL    HW2 3916   4.531   1.104   3.575  2.5747  3.9468 -0.7190
 1036SOL    HW3 3917   4.498   1.094   3.428  0.3343  0.2222 -0.0981
 1036SOL    MW4 3918   4.554   1.084   3.494  0.8905  0.5527 -0.5036
 1037SOL     OW 3919   4.524   5.621   6.382 -0.3182 -0.0438  0.1608
 1037SOL    HW2 3920   4.526   5.555   6.451 -2.7758 -1.1086 -0.6809
 1037SOL    HW3 3921   4.569   5.697   6.420  1.1405 -1.6026  1.7539
 1037SOL    MW4 3922   4.530   5.622   6.396 -0.4500 -0.3900  0.2599
 1038SOL     OW 3923   3.035   4.854   5.097 -0.4976 -0.0521 -0.0256
 1038SOL    HW2 3924   3.035   4.768   5.055  1.0082 -0.7175  1.2271
 1038SOL    HW3 3925   3.035   4.916   5.024 -2.1600 -1.0612 -0.9528
 1038SOL    MW4 3926   3.035   4.851   5.082 -0.5183 -0.2731  0.0173
 1039SOL     OW 3927   2.978   3.339   2.875 -0.0993  0.9348  0.2172
 1039SOL    HW2 3928   3.029   3.268   2.836 -0.7174  0.8027 -0.3667
 1039SOL    HW3 3929   2.959   3.398   2.803 -1.0977  0.7824  0.3347
 1039SOL    MW4 3930   2.982   3.337   2.861 -0.3125  0.8973  0.1556
 1040SOL     OW 3931   2.533   4.356   2.687 -0.1866  0.9554  0.1325
 1040SOL    HW2 3932   2.514   4.287   2.624  2.8441  1.5555 -1.6628
 1040SOL    HW3 3933   2.562   4.310   2.766 -2.7792  0.2235  0.7565
 1040SOL    MW4 3934   2.535   4.341   2.689 -0.1288  0.9381 -0.0221
 1041SOL     OW 3935   2.839   1.843   0.340 -0.1175  0.1330  0.2025
 1041SOL    HW2 3936   2.888   1.788   0.279 -2.9865 -2.1973 -0.1986
 1041SOL    HW3 3937   2.840   1.795   0.423 -0.2114  0.9689  0.7106
 1041SOL    MW4 3938   2.845   1.830   0.343 -0.5084 -0.0641  0.2167
 1042SOL     OW 3939   2.310   1.625   6.286  0.1853  0.2323  0.5540
 1042SOL    HW2 3940   2.279   1.645   6.375 -0.0273 -1.4109  0.8737
 1042SOL    HW3 3941   2.257   1.550   6.259 -0.8059  1.6253 -1.5664
 1042SOL    MW4 3942   2.299   1.618   6.295  0.0265  0.1993  0.3164
 1043SOL     OW 3943   1.408   1.111   0.644 -0.2963 -0.5603  0.6207
 1043SOL    HW2 3944   1.432   1.120   0.552  0.9051  0.5901  1.0246
 1043SOL    HW3 3945   1.327   1.060   0.642 -0.2887 -0.5709 -1.0639
 1043SOL    MW4 3946   1.400   1.106   0.631 -0.1368 -0.4099  0.4517
 1044SOL     OW 3947   4.438   2.072   4.063 -0.1422  0.4471  0.2375
 1044SOL    HW2 3948   4.479   1.986   4.062 -0.0793  0.4801 -0.0269
 1044SOL    HW3 3949   4.429   2.093   4.156 -0.8168 -0.1575  0.3193
 1044SOL    MW4 3950   4.442   2.063   4.075 -0.2229  0.3717  0.2134
 1045SOL     OW 3951   6.092   0.018   1.011  0.0890 -0.2779 -0.2134
 1045SOL    HW2 3952   6.067  -0.026   1.092 -0.2592 -1.0977 -0.7552
 1045SOL    HW3 3953   6.171  -0.028   0.982 -1.3118 -1.8336 -1.7585
 1045SOL    MW4 3954   6.099   0.006   1.018 -0.1417 -0.5913 -0.4888
 1046SOL     OW 3955   5.676   0.370   2.010  0.0254  0.1451 -0.6628
 1046SOL    HW2 3956   5.757   0.372   1.958  1.1920  2.2370  1.0563
 1046SOL    HW3 3957   5.608   0.398   1.948  1.1075  1.0997 -1.4851
 1046SOL    MW4 3958   5.678   0.374   1.995  0.3221  0.5471 -0.5445
 1047SOL     OW 3959   2.423   2.475   5.286  0.3432  0.4953  0.0792
 1047SOL    HW2 3960   2.353   2.540   5.296  0.5822  0.7307  0.2510
 1047SOL    HW3 3961   2.420   2.424   5.367  0.8005  0.9361  0.3816
 1047SOL    MW4 3962   2.413   2.477   5.298  0.4350  0.5846  0.1417
 1048SOL     OW 3963   2.933   6.236   2.386  0.0081  0.1449  0.2476
 1048SOL    HW2 3964   2.939   6.288   2.306 -0.8940  1.2942  0.8970
 1048SOL    HW3 3965   2.923   6.146   2.356 -0.0691  0.5349 -0.9235
 1048SOL    MW4 3966   2.932   6.231   2.372 -0.1211  0.3480  0.1788
 1049SOL     OW 3967   2.944   4.476   1.063  0.1400 -0.3143 -0.2497
 1049SOL    HW2 3968   2.850   4.463   1.060  0.3893 -2.4950 -2.8151
 1049SOL    HW3 3969   2.966   4.511   0.976  1.6526  0.8022  0.5260
 1049SOL    MW4 3970   2.935   4.479   1.051  0.3725 -0.4547 -0.4858
 1050SOL     OW 3971   4.507   2.546   5.567 -0.8400 -0.8767  0.2551
 1050SOL    HW2 3972   4.578   2.482   5.566  1.0089  1.0832  0.0056
 1050SOL    HW3 3973   4.486   2.558   5.659 -0.5225 -1.1050  0.3576
 1050SOL    MW4 3974   4.514   2.539   5.579 -0.5542 -0.6482  0.2357
 1051SOL     OW 3975   3.224   0.747   4.103  0.3404  0.2059 -0.0934
 1051SOL    HW2 3976   3.250   0.657   4.123  1.0166  0.3345 -0.3512
 1051SOL    HW3 3977   3.234   0.794   4.186  0.6522  0.1881 -0.1191
 1051SOL    MW4 3978   3.229   0.741   4.116  0.4708  0.2205 -0.1308
 1052SOL     OW 3979   1.462   4.273   2.910 -0.0550 -0.1787  0.6221
 1052SOL    HW2 3980   1.387   4.223   2.880  0.6216 -1.1183  0.4247
 1052SOL    HW3 3981   1.484   4.331   2.837 -2.2000  2.1144  1.6448
 1052SOL    MW4 3982   1.455   4.274   2.897 -0.2487 -0.0001  0.7310
 1053SOL     OW 3983   4.557   0.530   0.468  0.6136 -0.2472 -0.6077
 1053SOL    HW2 3984   4.512   0.470   0.527 -0.3281  0.8850 -0.1359
 1053SOL    HW3 3985   4.648   0.500   0.469  0.6116 -0.3206  1.3633
 1053SOL    MW4 3986   4.563   0.518   0.476  0.4891 -0.1075 -0.2854
 1054SOL     OW 3987   2.450   1.924   5.769  0.1651  0.2369  0.2558
 1054SOL    HW2 3988   2.388   1.951   5.701  1.1494  2.1879  0.0408
 1054SOL    HW3 3989   2.433   1.831   5.783 -0.6849  0.0117 -1.9879
 1054SOL    MW4 3990   2.439   1.916   5.762  0.1828  0.4646 -0.0686
 1055SOL     OW 3991   3.394   6.176   4.577 -1.2234 -0.2963 -0.0406
 1055SOL    HW2 3992   3.321   6.130   4.535 -0.9162 -1.4631  0.6706
 1055SOL    HW3 3993   3.391   6.147   4.668 -0.1724  0.0525  0.1116
 1055SOL    MW4 3994   3.384   6.166   4.584 -1.0442 -0.4042  0.0733
 1056SOL     OW 3995   2.255   4.776   3.577  1.3031  0.3550 -0.3713
 1056SOL    HW2 3996   2.246   4.708   3.510 -1.3884  1.9844 -1.8372
 1056SOL    HW3 3997   2.289   4.852   3.529 -0.6161  1.5340  0.0281
 1056SOL    MW4 3998   2.259   4.777   3.562  0.6948  0.7256 -0.5120
 1057SOL     OW 3999   2.803   1.442   0.533  0.0719  0.6889  0.3643
 1057SOL    HW2 4000   2.872   1.409   0.477 -0.9188  0.2614 -0.6452
 1057SOL    HW3 4001   2.775   1.366   0.584 -2.1553 -0.1571 -1.9040
 1057SOL    MW4 4002   2.808   1.427   0.533 -0.3527  0.5209 -0.0681
 1058SOL     OW 4003   2.257   2.902   1.733  0.1416  0.1487  0.0102
 1058SOL    HW2 4004   2.301   2.817   1.729 -0.2717 -0.0897  0.4466
 1058SOL    HW3 4005   2.180   2.891   1.678  0.8539  0.7129 -1.1394
 1058SOL    MW4 4006   2.253   2.889   1.725  0.1810  0.1917 -0.0839
 1059SOL     OW 4007   4.202   1.247   5.192  0.4369  0.0102 -0.4707
 1059SOL    HW2 4008   4.274   1.292   5.147  0.1143  0.5949 -0.4089
 1059SOL    HW3 4009   4.133   1.312   5.198 -0.7474 -1.0384 -1.9911
 1059SOL    MW4 4010   4.203   1.261   5.187  0.2380 -0.0510 -0.6632
 1060SOL     OW 4011   5.368   2.945   5.517 -0.4255  0.0962 -0.3705
 1060SOL    HW2 4012   5.298   2.889   5.548 -0.8972  0.6734 -0.3697
 1060SOL    HW3 4013   5.324   3.012   5.465  0.0810  0.7125 -0.0221
 1060SOL    MW4 4014   5.353   2.947   5.514 -0.4209  0.2537 -0.3244
 1061SOL     OW 4015   6.265   0.499   1.162  0.0555  0.0466  0.0277
 1061SOL    HW2 4016   6.259   0.589   1.132 -0.9370 -0.7635 -2.4195
 1061SOL    HW3 4017   6.359   0.479   1.158  0.2327  0.8301  0.1545
 1061SOL    MW4 4018   6.277   0.508   1.158 -0.0521  0.0431 -0.2785
 1062SOL     OW 4019   6.014   0.715   3.835 -0.1616 -0.0446  0.1631
 1062SOL    HW2 4020   6.011   0.677   3.747  1.5205 -0.6121  0.2993
 1062SOL    HW3 4021   5.945   0.670   3.883 -2.1710  1.3905 -1.2420
 1062SOL    MW4 4022   6.005   0.704   3.830 -0.2048  0.0698 -0.0043
 1063SOL     OW 4023   0.866   4.764   0.444 -0.2297  0.5872 -0.0625
 1063SOL    HW2 4024   0.811   4.829   0.401  1.3522  0.9982 -1.5497
 1063SOL    HW3 4025   0.917   4.725   0.374  0.9839 -0.1878  1.1969
 1063SOL    MW4 4026   0.865   4.767   0.429  0.1391  0.5392 -0.0925
 1064SOL     OW 4027   4.469   2.491   0.396 -0.4034  0.0122 -0.1930
 1064SOL    HW2 4028   4.458   2.405   0.437  0.0613 -0.4642 -1.0522
 1064SOL    HW3 4029   4.380   2.522   0.383 -0.5748 -0.2955  0.2081
 1064SOL    MW4 4030   4.456   2.484   0.400 -0.3647 -0.0913 -0.2534
 1065SOL     OW 4031   3.690   3.074   5.072  0.5181  0.1660  0.6637
 1065SOL    HW2 4032   3.730   2.990   5.051 -1.0557 -0.4714  0.0614
 1065SOL    HW3 4033   3.689   3.122   4.989 -0.9145 -0.2633  0.4096
 1065SOL    MW4 4034   3.695   3.069   5.059  0.1214  0.0253  0.5507
 1066SOL     OW 4035   3.606   6.368   4.228  0.3416  0.4794  0.0633
 1066SOL    HW2 4036   3.512   6.369   4.211  0.6818  0.3933 -2.0451
 1066SOL    HW3 4037   3.629   6.460   4.241  0.2017  0.6898 -1.0440
 1066SOL    MW4 4038   3.597   6.380   4.227  0.3680  0.4958 -0.3610
 1067SOL     OW 4039   5.529   2.620   1.836  0.3049 -0.2895 -0.6708
 1067SOL    HW2 4040   5.547   2.687   1.902  2.3962  0.6795 -2.0760
 1067SOL    HW3 4041   5.457   2.655   1.785 -0.2048 -0.2524  0.0651
 1067SOL    MW4 4042   5.522   2.634   1.838  0.5135 -0.1568 -0.7591
 1068SOL     OW 4043   6.150   6.310   0.287 -0.0032  0.2882  0.1285
 1068SOL    HW2 4044   6.178   6.281   0.373 -2.8472  0.3182  1.1668
 1068SOL    HW3 4045   6.087   6.244   0.259 -0.6781  1.3701 -0.9925
 1068SOL    MW4 4046   6.145   6.297   0.294 -0.4675  0.4349  0.1176
 1069SOL     OW 4047   1.391   2.282   3.578 -0.0421  0.1486  0.4216
 1069SOL    HW2 4048   1.437   2.200   3.565  0.2507 -0.2830  3.4847
 1069SOL    HW3 4049   1.459   2.346   3.597 -0.4672  0.2122  1.8429
 1069SOL    MW4 4050   1.406   2.280   3.579 -0.0596  0.1001  1.0133
 1070SOL     OW 4051   0.989   6.118   1.059 -0.4141  0.3501 -0.2030
 1070SOL    HW2 4052   0.985   6.038   1.007 -0.8975 -0.2454  0.7253
 1070SOL    HW3 4053   1.083   6.139   1.063  0.1062 -1.8808  2.0320
 1070SOL    MW4 4054   1.001   6.111   1.053 -0.4092 -0.0228  0.2144
 1071SOL     OW 4055   1.431   3.233   4.030  0.0870 -0.0642 -0.0001
 1071SOL    HW2 4056   1.465   3.322   4.041  0.1502  0.3022 -2.5714
 1071SOL    HW3 4057   1.353   3.230   4.086  0.5502  1.3146  0.7689
 1071SOL    MW4 4058   1.425   3.245   4.039  0.1565  0.1660 -0.2379
 1072SOL     OW 4059   1.100   2.969   0.720 -0.4083  0.3111 -0.2785
 1072SOL    HW2 4060   1.138   3.022   0.790  0.7782 -1.0045  0.1043
 1072SOL    HW3 4061   1.027   3.023   0.687 -1.1458  0.8942  2.0594
 1072SOL    MW4 4062   1.095   2.983   0.725 -0.3490  0.2145  0.0804
 1073SOL     OW 4063   2.280   1.785   5.374  0.3444  0.2236 -0.1548
 1073SOL    HW2 4064   2.325   1.701   5.383  0.6965  0.5439  1.2996
 1073SOL    HW3 4065   2.284   1.804   5.280  1.0482 -0.9479 -0.3863
 1073SOL    MW4 4066   2.287   1.776   5.363  0.4837  0.1113  0.0065
 1074SOL     OW 4067   4.646   2.230   2.962 -0.7389 -0.5722  0.3448
 1074SOL    HW2 4068   4.731   2.199   2.931 -0.6218  0.4123 -0.3656
 1074SOL    HW3 4069   4.604   2.269   2.885 -1.6289 -0.5937  0.7942
 1074SOL    MW4 4070   4.651   2.231   2.948 -0.8409 -0.4452  0.3104
 1075SOL     OW 4071   4.042   4.703   4.220  0.0488  0.0173 -0.7456
 1075SOL    HW2 4072   4.014   4.792   4.238  0.7889 -0.2161  2.1667
 1075SOL    HW3 4073   3.961   4.653   4.211 -0.3773  0.7649 -1.0913
 1075SOL    MW4 4074   4.028   4.708   4.221  0.0902  0.0851 -0.4070
 1076SOL     OW 4075   5.516   3.769   6.017  0.5744 -0.3362  0.0648
 1076SOL    HW2 4076   5.527   3.858   5.984  0.9703  0.0853  1.2771
 1076SOL    HW3 4077   5.424   3.763   6.042  0.4184 -0.4602 -0.5142
 1076SOL    MW4 4078   5.506   3.780   6.016  0.6061 -0.2970  0.1484
 1077SOL     OW 4079   1.564   3.105   5.146  0.1234 -0.1094  0.0699
 1077SOL    HW2 4080   1.647   3.153   5.151 -0.9983  2.0016 -0.2278
 1077SOL    HW3 4081   1.565   3.047   5.222  1.1592  1.1374  1.0606
 1077SOL    MW4 4082   1.575   3.104   5.157  0.1120  0.3337  0.1613
 1078SOL     OW 4083   6.319   4.743   5.731  0.0399 -0.2482 -0.0972
 1078SOL    HW2 4084   6.396   4.800   5.740  0.1999 -0.6621  1.4167
 1078SOL    HW3 4085   6.345   4.678   5.666  0.4409  0.4545 -0.6502
 1078SOL    MW4 4086   6.333   4.742   5.724  0.1139 -0.2101  0.0296
 1079SOL     OW 4087   2.768   2.887   3.469 -0.2198  0.1068 -0.0235
 1079SOL    HW2 4088   2.805   2.963   3.425 -0.2135 -1.0290 -2.0805
 1079SOL    HW3 4089   2.833   2.818   3.457  0.6705  0.1713  3.4561
 1079SOL    MW4 4090   2.781   2.888   3.462 -0.1015 -0.0345  0.1642
 1080SOL     OW 4091   3.481   5.308   3.162  0.1778  0.1339  0.4038
 1080SOL    HW2 4092   3.555   5.350   3.207  0.0664  0.8939 -0.1106
 1080SOL    HW3 4093   3.447   5.376   3.104 -0.0408 -0.6615 -0.4078
 1080SOL    MW4 4094   3.487   5.322   3.160  0.1342  0.1293  0.2289
 1081SOL     OW 4095   3.147   4.152   3.328  0.5202 -0.2116  0.4765
 1081SOL    HW2 4096   3.083   4.084   3.349  1.1472 -1.3443 -1.0902
 1081SOL    HW3 4097   3.231   4.107   3.332  0.8982  0.2891 -1.1460
 1081SOL    MW4 4098   3.149   4.137   3.331  0.6528 -0.2950  0.0557
 1082SOL     OW 4099   5.718   6.190   2.983  0.7102 -0.1246 -0.2356
 1082SOL    HW2 4100   5.668   6.245   2.923  0.3269  1.8026  1.7525
 1082SOL    HW3 4101   5.653   6.153   3.043  1.4288  0.9839  1.2827
 1082SOL    MW4 4102   5.703   6.192   2.983  0.7544  0.2759  0.2270
 1083SOL     OW 4103   5.864   0.831   5.511  0.1884 -0.3886 -0.4346
 1083SOL    HW2 4104   5.884   0.837   5.604  0.4506 -1.3660 -0.4116
 1083SOL    HW3 4105   5.795   0.895   5.497 -0.1700 -0.5485  0.5311
 1083SOL    MW4 4106   5.857   0.840   5.521  0.1757 -0.5386 -0.3042
 1084SOL     OW 4107   4.413   0.799   4.062  0.3130  0.0164  0.6342
 1084SOL    HW2 4108   4.322   0.788   4.088 -0.0235  0.1692 -0.4438
 1084SOL    HW3 4109   4.439   0.882   4.103 -0.2445  0.3275  0.3689
 1084SOL    MW4 4110   4.404   0.809   4.071  0.1951  0.0776  0.4570
 1085SOL     OW 4111   4.607   3.168   2.076 -0.6888  0.8165 -0.0758
 1085SOL    HW2 4112   4.584   3.157   2.169 -0.6195  0.6313 -0.0792
 1085SOL    HW3 4113   4.522   3.171   2.031 -0.7240  0.9697  0.0003
 1085SOL    MW4 4114   4.592   3.167   2.082 -0.6843  0.8123 -0.0662
 1086SOL     OW 4115   5.510   3.541   4.226  0.3644  0.0096 -0.1919
 1086SOL    HW2 4116   5.558   3.515   4.147  0.8221 -1.1379  0.4427
 1086SOL    HW3 4117   5.456   3.615   4.198 -0.4374 -1.1695 -1.9027
 1086SOL    MW4 4118   5.509   3.547   4.212  0.3190 -0.2974 -0.3339
 1087SOL     OW 4119   4.948   3.012   5.629 -0.6816  0.1638  0.8919
 1087SOL    HW2 4120   4.994   3.057   5.700 -0.5896 -1.1781  1.7259
 1087SOL    HW3 4121   4.856   3.014   5.654 -0.7290  0.2798  0.7087
 1087SOL    MW4 4122   4.942   3.018   5.642 -0.6757  0.0021  0.9777
 1088SOL     OW 4123   6.038   2.073   5.422  0.2535 -0.0448  0.3839
 1088SOL    HW2 4124   6.048   2.096   5.330  1.4066 -0.0779  0.4949
 1088SOL    HW3 4125   6.118   2.103   5.464 -0.8400  1.2832  1.6599
 1088SOL    MW4 4126   6.050   2.080   5.415  0.2614  0.1261  0.5669
 1089SOL     OW 4127   5.470   4.314   6.293  0.6053 -0.2098  0.8525
 1089SOL    HW2 4128   5.427   4.269   6.220  2.5223  1.3823 -1.4199
 1089SOL    HW3 4129   5.400   4.364   6.335 -0.3717 -0.3361 -0.5677
 1089SOL    MW4 4130   5.455   4.314   6.289  0.7293 -0.0164  0.3653
 1090SOL     OW 4131   0.439   0.221   0.508 -0.5428  0.6672  0.3270
 1090SOL    HW2 4132   0.421   0.183   0.594 -0.1010 -0.5565 -0.1020
 1090SOL    HW3 4133   0.527   0.190   0.486 -0.7868  0.6881 -0.7120
 1090SOL    MW4 4134   0.448   0.212   0.516 -0.5167  0.5085  0.1333
 1091SOL     OW 4135   0.753   2.433   4.143 -0.4971 -0.1152 -0.3192
 1091SOL    HW2 4136   0.789   2.430   4.232 -1.3710  2.0705  0.1927
 1091SOL    HW3 4137   0.791   2.357   4.099  1.1713 -0.4125  1.4683
 1091SOL    MW4 4138   0.763   2.423   4.149 -0.3923  0.1339 -0.0158
 1092SOL     OW 4139   3.221   2.777   2.546 -0.2672 -0.0163 -0.3632
 1092SOL    HW2 4140   3.243   2.845   2.482 -2.6289  1.4638  0.2748
 1092SOL    HW3 4141   3.284   2.789   2.617  0.7376  0.0061 -1.2320
 1092SOL    MW4 4142   3.232   2.787   2.547 -0.4462  0.1820 -0.3937
 1093SOL     OW 4143   5.848   0.231   6.359  0.0487 -0.2903  0.3005
 1093SOL    HW2 4144   5.764   0.244   6.316  0.5791  0.1809 -0.6258
 1093SOL    HW3 4145   5.843   0.143   6.396 -0.9594 -0.1509  0.5230
 1093SOL    MW4 4146   5.836   0.221   6.359 -0.0143 -0.2098  0.2076
 1094SOL     OW 4147   1.216   4.755   1.607 -0.1579 -0.1723 -0.0257
 1094SOL    HW2 4148   1.255   4.772   1.521  2.3295  0.3258  1.1128
 1094SOL    HW3 4149   1.162   4.832   1.625  0.4762  0.4061 -0.5349
 1094SOL    MW4 4150   1.214   4.767   1.598  0.2540 -0.0303  0.0573
 1095SOL     OW 4151   4.459   3.171   5.369 -0.5538 -0.0620 -0.5658
 1095SOL    HW2 4152   4.384   3.153   5.426  1.1813 -2.2679  1.2098
 1095SOL    HW3 4153   4.529   3.197   5.428  1.1199 -1.6957 -1.7281
 1095SOL    MW4 4154   4.458   3.172   5.384 -0.1040 -0.5686 -0.4849
 1096SOL     OW 4155   0.841   4.417   1.760 -0.0612  1.0099 -0.5122
 1096SOL    HW2 4156   0.887   4.350   1.811  0.5921  0.3074 -1.9688
 1096SOL    HW3 4157   0.785   4.461   1.824  0.7815  0.2212  0.8158
 1096SOL    MW4 4158   0.840   4.414   1.775  0.1362  0.8131 -0.5291
 1097SOL     OW 4159   3.644   5.743   3.491  0.0931  0.2851  0.2959
 1097SOL    HW2 4160   3.695   5.664   3.508 -1.4818 -0.6439  0.8747
 1097SOL    HW3 4161   3.554   5.719   3.512 -0.8969  1.3224 -2.2874
 1097SOL    MW4 4162   3.639   5.729   3.496 -0.2453  0.2994  0.0315
 1098SOL     OW 4163   5.166   5.128   1.604  0.3888 -0.1454  0.6849
 1098SOL    HW2 4164   5.239   5.183   1.577  2.1432 -1.5806  2.2010
 1098SOL    HW3 4165   5.088   5.174   1.574  1.8699  1.8097 -0.3719
 1098SOL    MW4 4166   5.165   5.141   1.597  0.8157 -0.0768  0.7455
 1099SOL     OW 4167   6.327   2.428   1.485  0.5110 -0.1009  0.2567
 1099SOL    HW2 4168   6.241   2.421   1.526  0.4162  1.3082  0.3361
 1099SOL    HW3 4169   6.341   2.342   1.445 -1.0683 -0.2652 -0.0125
 1099SOL    MW4 4170   6.318   2.416   1.485  0.2901  0.0633  0.2316
 1100SOL     OW 4171   4.321   4.452   4.036  0.2984 -0.0525 -0.6016
 1100SOL    HW2 4172   4.234   4.489   4.020 -0.4399 -1.8614 -1.1159
 1100SOL    HW3 4173   4.381   4.506   3.985 -0.4714  1.3877 -0.0272
 1100SOL    MW4 4174   4.317   4.464   4.027  0.0995 -0.1011 -0.5937
 1101SOL     OW 4175   0.284   5.222   6.024 -0.1211 -0.8096 -0.0167
 1101SOL    HW2 4176   0.380   5.229   6.024 -0.2319  1.8348  0.2027
 1101SOL    HW3 4177   0.260   5.234   6.116 -0.7087  0.4226 -0.3140
 1101SOL    MW4 4178   0.294   5.225   6.036 -0.2133 -0.2982 -0.0270
 1102SOL     OW 4179   1.506   3.546   5.919 -0.7860  0.4167  0.0090
 1102SOL    HW2 4180   1.477   3.456   5.903  0.5231  0.2085 -1.4279
 1102SOL    HW3 4181   1.511   3.585   5.831 -1.9801  2.1297  0.6399
 1102SOL    MW4 4182   1.503   3.539   5.905 -0.7708  0.6152 -0.0973
 1103SOL     OW 4183   4.072   3.024   2.763 -0.1933  0.0175 -0.9299
 1103SOL    HW2 4184   4.029   3.103   2.797  0.0747 -0.2628  0.0964
 1103SOL    HW3 4185   4.140   3.004   2.828 -1.5472 -2.2117 -0.0820
 1103SOL    MW4 4186   4.075   3.032   2.776 -0.3366 -0.3136 -0.6826
 1104SOL     OW 4187   1.312   2.552   5.570 -0.5599 -0.1862  0.0487
 1104SOL    HW2 4188   1.357   2.525   5.650  1.3966  0.6469 -0.7014
 1104SOL    HW3 4189   1.370   2.523   5.500 -1.1508  1.0020 -0.9656
 1104SOL    MW4 4190   1.326   2.545   5.571 -0.3797  0.0805 -0.1841
 1105SOL     OW 4191   0.504   1.139   2.089  1.2517  0.3712  0.4992
 1105SOL    HW2 4192   0.462   1.053   2.091  0.1179  0.7841 -1.7278
 1105SOL    HW3 4193   0.598   1.120   2.087  1.0167 -0.9970 -2.2412
 1105SOL    MW4 4194   0.511   1.125   2.089  1.0711  0.2452 -0.1562
 1106SOL     OW 4195   3.824   3.017   2.033 -0.0716 -0.0977  0.0987
 1106SOL    HW2 4196   3.828   2.931   2.075  1.4906 -0.3345 -0.4559
 1106SOL    HW3 4197   3.760   3.066   2.084  0.6542 -0.8692  1.8348
 1106SOL    MW4 4198   3.816   3.012   2.046  0.2303 -0.2307  0.2546
 1107SOL     OW 4199   4.642   4.646   1.552 -0.5920  0.0917  1.1422
 1107SOL    HW2 4200   4.587   4.571   1.532 -0.9589 -0.2883  3.2955
 1107SOL    HW3 4201   4.703   4.614   1.619 -0.8345  1.6952  2.2012
 1107SOL    MW4 4202   4.643   4.632   1.559 -0.6724  0.2531  1.5661
 1108SOL     OW 4203   1.299   0.680   5.117  0.1928  0.4615 -0.2840
 1108SOL    HW2 4204   1.291   0.718   5.204  3.1435 -0.4344  0.4935
 1108SOL    HW3 4205   1.246   0.601   5.120  0.5607  0.2429  0.8459
 1108SOL    MW4 4206   1.291   0.675   5.129  0.6307  0.3145 -0.0323
 1109SOL     OW 4207   3.549   2.826   2.132 -0.2611 -0.7100 -0.1782
 1109SOL    HW2 4208   3.493   2.863   2.063 -0.2491 -1.4934 -0.6254
 1109SOL    HW3 4209   3.489   2.772   2.185 -0.7202  1.5564  1.7540
 1109SOL    MW4 4210   3.533   2.823   2.130 -0.3201 -0.5143  0.0177
 1110SOL     OW 4211   5.109   6.136   5.642  0.5066  0.0000 -0.4245
 1110SOL    HW2 4212   5.108   6.203   5.710 -0.4573  0.6773 -1.0911
 1110SOL    HW3 4213   5.197   6.098   5.648  0.5381  0.2171  1.0175
 1110SOL    MW4 4214   5.120   6.139   5.652  0.3835  0.1180 -0.3222
 1111SOL     OW 4215   1.524   4.543   4.565 -0.0348 -0.1124 -0.3402
 1111SOL    HW2 4216   1.532   4.638   4.573 -0.3299  0.2916 -3.4500
 1111SOL    HW3 4217   1.610   4.509   4.591  0.0389  0.9757  0.8971
 1111SOL    MW4 4218   1.537   4.551   4.569 -0.0640  0.0844 -0.5872
 1112SOL     OW 4219   1.366   3.729   0.930 -0.4163  0.2220  0.2628
 1112SOL    HW2 4220   1.320   3.656   0.887 -2.6025  1.3475  0.5274
 1112SOL    HW3 4221   1.371   3.702   1.022  2.6114 -1.3721 -0.2434
 1112SOL    MW4 4222   1.360   3.716   0.937 -0.3052  0.1602  0.2309
 1113SOL     OW 4223   2.674   4.376   1.015  0.8440  0.0307 -0.4512
 1113SOL    HW2 4224   2.579   4.370   1.002  0.9493 -0.8060 -0.8694
 1113SOL    HW3 4225   2.711   4.312   0.955  1.6155 -0.4863  0.5491
 1113SOL    MW4 4226   2.666   4.367   1.006  0.9597 -0.1479 -0.3744
 1114SOL     OW 4227   4.987   2.497   5.574  0.4066  0.3102 -0.4697
 1114SOL    HW2 4228   5.017   2.572   5.522  2.0864  0.3033  0.4575
 1114SOL    HW3 4229   5.063   2.441   5.583 -0.7333 -1.3845 -0.8431
 1114SOL    MW4 4230   5.001   2.500   5.568  0.4778  0.0856 -0.3966
 1115SOL     OW 4231   1.035   6.379   2.747 -0.5923  0.2592 -0.1212
 1115SOL    HW2 4232   0.993   6.434   2.814 -0.2991 -0.6878  0.8827
 1115SOL    HW3 4233   1.123   6.415   2.739  0.1208 -0.9151  1.6589
 1115SOL    MW4 4234   1.041   6.391   2.755 -0.4596 -0.0207  0.2461
 1116SOL     OW 4235   3.657   2.823   3.548 -0.2276  0.0402 -0.1323
 1116SOL    HW2 4236   3.688   2.911   3.525  1.6508 -0.0745  1.6426
 1116SOL    HW3 4237   3.588   2.838   3.612 -0.3059  0.2230 -0.2577
 1116SOL    MW4 4238   3.652   2.837   3.553  0.0099  0.0492  0.0853
 1117SOL     OW 4239   3.247   0.406   2.868  0.1095 -0.0476 -0.0180
 1117SOL    HW2 4240   3.169   0.452   2.901  0.7242 -0.1698  1.6941
 1117SOL    HW3 4241   3.282   0.464   2.800  0.1333  1.4189  1.1872
 1117SOL    MW4 4242   3.241   0.420   2.863  0.1937  0.1298  0.3669
 1118SOL     OW 4243   4.357   1.764   5.029 -0.1299 -0.9264 -0.5617
 1118SOL    HW2 4244   4.395   1.851   5.016  1.3658 -1.5555 -0.5466
 1118SOL    HW3 4245   4.312   1.770   5.114 -0.2926 -0.0852 -0.7027
 1118SOL    MW4 4246   4.356   1.776   5.039  0.0460 -0.8984 -0.5783
 1119SOL     OW 4247   3.082   5.985   5.823  0.5751 -0.1051  0.1617
 1119SOL    HW2 4248   3.100   5.891   5.824  2.4819  0.2064  2.1315
 1119SOL    HW3 4249   2.998   5.994   5.869  1.2881 -0.7410  1.6557
 1119SOL    MW4 4250   3.073   5.974   5.829  0.9207 -0.1479  0.6187
 1120SOL     OW 4251   0.614   5.150   1.701  0.2229 -0.2642 -0.5450
 1120SOL    HW2 4252   0.600   5.100   1.621 -0.0814  0.2577 -0.8295
 1120SOL    HW3 4253   0.562   5.105   1.767 -0.5160 -0.0038 -0.9327
 1120SOL    MW4 4254   0.605   5.138   1.699  0.0853 -0.1610 -0.6337
 1121SOL     OW 4255   2.684   1.214   3.976 -0.2531  0.2987  0.2105
 1121SOL    HW2 4256   2.695   1.237   4.068  1.7766 -0.2710  0.1547
 1121SOL    HW3 4257   2.669   1.298   3.931 -0.2199  0.6797  0.9076
 1121SOL    MW4 4258   2.683   1.228   3.982  0.0191  0.2738  0.2951
 1122SOL     OW 4259   5.296   5.184   2.735  0.3665  0.4790  0.2136
 1122SOL    HW2 4260   5.319   5.277   2.732  2.0359  0.0595 -0.8995
 1122SOL    HW3 4261   5.361   5.145   2.793 -1.3244  0.2145  2.0438
 1122SOL    MW4 4262   5.307   5.191   2.742  0.3637  0.3887  0.3082
 1123SOL     OW 4263   5.391   1.048   3.484  0.0926  0.0790  0.0670
 1123SOL    HW2 4264   5.476   1.009   3.463  0.4880  1.2415 -0.5826
 1123SOL    HW3 4265   5.327   0.997   3.434  0.4121 -0.7309  0.4743
 1123SOL    MW4 4266   5.394   1.036   3.475  0.1869  0.1256  0.0351
 1124SOL     OW 4267   6.368   5.249   6.004  0.1126  1.0497 -0.3956
 1124SOL    HW2 4268   6.327   5.233   5.919  0.1990  1.4095 -0.5073
 1124SOL    HW3 4269   6.452   5.291   5.983 -0.2350  1.9105 -0.1050
 1124SOL    MW4 4270   6.374   5.252   5.990  0.0781  1.2107 -0.3720
 1125SOL     OW 4271   2.700   6.145   0.506  0.2325  0.1793 -0.2684
 1125SOL    HW2 4272   2.717   6.138   0.600  0.8389  0.5082 -0.3525
 1125SOL    HW3 4273   2.705   6.055   0.474  0.3420  0.1034 -0.0387
 1125SOL    MW4 4274   2.703   6.132   0.514  0.3269  0.2127 -0.2492
 1126SOL     OW 4275   4.117   5.924   3.786  0.4515  0.0868  0.3125
 1126SOL    HW2 4276   4.095   5.875   3.707  0.4571 -0.5146  0.6777
 1126SOL    HW3 4277   4.034   5.931   3.834  0.2680  1.1869 -0.1355
 1126SOL    MW4 4278   4.103   5.918   3.782  0.4281  0.1526  0.3016
 1127SOL     OW 4279   5.696   3.895   0.056  0.3866  0.1100 -0.2363
 1127SOL    HW2 4280   5.736   3.982   0.056 -1.5630  1.0480 -0.6309
 1127SOL    HW3 4281   5.704   3.865  -0.035  2.3429 -0.8207  0.1660
 1127SOL    MW4 4282   5.703   3.902   0.044  0.3875  0.1110 -0.2353
 1128SOL     OW 4283   2.024   3.790   5.852 -0.2100 -0.1426 -0.5743
 1128SOL    HW2 4284   2.043   3.855   5.784  0.6445 -1.1838 -1.3806
 1128SOL    HW3 4285   2.096   3.799   5.914  1.0429 -1.6141 -1.7273
 1128SOL    MW4 4286   2.036   3.799   5.851  0.0680 -0.4742 -0.8328
 1129SOL     OW 4287   3.740   4.204   1.278 -0.5698 -0.1229 -0.7246
 1129SOL    HW2 4288   3.682   4.162   1.214 -1.6185  0.9938 -0.5351
 1129SOL    HW3 4289   3.826   4.205   1.236 -1.6279  2.5373 -3.1054
 1129SOL    MW4 4290   3.744   4.198   1.264 -0.8478  0.3754 -1.0137
 1130SOL     OW 4291   3.786   3.495   3.453 -0.2782 -0.1029 -0.2061
 1130SOL    HW2 4292   3.881   3.498   3.461 -0.2892  0.8884 -0.3991
 1130SOL    HW3 4293   3.762   3.575   3.406 -1.2409 -0.1256  0.2080
 1130SOL    MW4 4294   3.795   3.506   3.448 -0.4067  0.0249 -0.1770
 1131SOL     OW 4295   5.861   3.495   3.846  0.0474  0.0780 -0.2855
 1131SOL    HW2 4296   5.854   3.409   3.803  0.4179  0.3064 -0.8110
 1131SOL    HW3 4297   5.861   3.558   3.774  0.3624  0.4853  0.0632
 1131SOL    MW4 4298   5.860   3.492   3.830  0.1378  0.1619 -0.3088
 1132SOL     OW 4299   0.514   3.564   0.528 -0.3260 -0.4848  0.4993
 1132SOL    HW2 4300   0.499   3.658   0.531 -0.6340 -0.5190 -0.0023
 1132SOL    HW3 4301   0.606   3.554   0.554  0.4401  0.1563 -1.7559
 1132SOL    MW4 4302   0.524   3.575   0.532 -0.2655 -0.4047  0.1356
 1133SOL     OW 4303   5.323   4.540   3.440  0.1160 -0.1660 -0.4747
 1133SOL    HW2 4304   5.291   4.530   3.529  2.3386 -0.1813  0.3794
 1133SOL    HW3 4305   5.261   4.491   3.386 -0.6491 -1.0765  1.1756
 1133SOL    MW4 4306   5.311   4.533   3.445  0.3083 -0.2881 -0.1443
 1134SOL     OW 4307   4.607   6.109   0.484  0.3466  0.5541  0.0632
 1134SOL    HW2 4308   4.552   6.044   0.529  0.2241  1.4245  1.2169
 1134SOL    HW3 4309   4.651   6.156   0.554  1.5988  0.7333 -0.8130
 1134SOL    MW4 4310   4.605   6.107   0.499  0.4957  0.6926  0.0998
 1135SOL     OW 4311   1.935   2.636   0.400 -0.4177  0.4045 -0.6011
 1135SOL    HW2 4312   2.014   2.680   0.369  0.0751 -0.4582 -0.5983
 1135SOL    HW3 4313   1.924   2.562   0.340 -2.0752  1.3500 -1.5433
 1135SOL    MW4 4314   1.944   2.632   0.388 -0.5714  0.4154 -0.7251
 1136SOL     OW 4315   0.665   3.006   4.552  0.7028  0.5537 -0.2276
 1136SOL    HW2 4316   0.614   2.986   4.474  2.7263 -0.2092 -1.4073
 1136SOL    HW3 4317   0.656   2.928   4.607  0.8590  0.2982 -0.5650
 1136SOL    MW4 4318   0.657   2.993   4.549  0.9904  0.4193 -0.4278
 1137SOL     OW 4319   1.832   0.423   0.242 -0.1224 -0.2762  0.2966
 1137SOL    HW2 4320   1.873   0.346   0.281 -2.8207 -1.1790  1.6285
 1137SOL    HW3 4321   1.796   0.471   0.317 -0.5465  0.9993 -0.7032
 1137SOL    MW4 4322   1.832   0.419   0.257 -0.5343 -0.2270  0.3404
 1138SOL     OW 4323   1.867   3.433   4.883  0.3083  0.0722 -1.1010
 1138SOL    HW2 4324   1.953   3.428   4.926  0.0634  0.8422 -0.4804
 1138SOL    HW3 4325   1.876   3.505   4.820  0.0758  0.2892 -0.8942
 1138SOL    MW4 4326   1.880   3.442   4.881  0.2453  0.2024 -0.9918
 1139SOL     OW 4327   3.301   1.088   1.315  0.0429  0.0369 -0.0321
 1139SOL    HW2 4328   3.253   1.113   1.236 -0.1869  3.3617  0.9980
 1139SOL    HW3 4329   3.391   1.076   1.285 -0.3969 -0.7571 -1.0870
 1139SOL    MW4 4330   3.307   1.090   1.301 -0.0455  0.3708 -0.0354
 1140SOL     OW 4331   2.583   3.308   5.449 -0.1183 -0.0409 -0.5630
 1140SOL    HW2 4332   2.530   3.358   5.511 -0.3857 -0.0588 -0.7731
 1140SOL    HW3 4333   2.536   3.225   5.439 -0.8733  0.5002 -1.8771
 1140SOL    MW4 4334   2.570   3.303   5.455 -0.2532  0.0282 -0.7641
 1141SOL     OW 4335   3.572   1.732   3.854 -0.4541 -0.4683  0.1399
 1141SOL    HW2 4336   3.609   1.814   3.888 -0.1715  0.0616 -1.3479
 1141SOL    HW3 4337   3.618   1.718   3.771 -1.3076 -1.5337 -0.1713
 1141SOL    MW4 4338   3.583   1.741   3.847 -0.5295 -0.5390 -0.0975
 1142SOL     OW 4339   4.811   4.336   4.281 -0.7590 -0.2119 -0.0220
 1142SOL    HW2 4340   4.752   4.288   4.223  0.7343  2.5508 -4.2928
 1142SOL    HW3 4341   4.777   4.425   4.281  0.7904  0.4154  1.2749
 1142SOL    MW4 4342   4.799   4.341   4.273 -0.3576  0.2354 -0.4144
 1143SOL     OW 4343   3.958   0.024   1.634  0.7477  0.0184  0.2061
 1143SOL    HW2 4344   3.936   0.022   1.727  0.1643  1.8529  0.1452
 1143SOL    HW3 4345   4.051   0.046   1.632  0.9485 -0.7881  0.3535
 1143SOL    MW4 4346   3.967   0.027   1.646  0.6972  0.1540  0.2175
 1144SOL     OW 4347   1.463   1.909   1.723 -0.2896  0.4765  0.3647
 1144SOL    HW2 4348   1.488   1.888   1.633  0.3034  1.0744  0.3837
 1144SOL    HW3 4349   1.371   1.934   1.718 -0.9965 -1.8942  0.3084
 1144SOL    MW4 4350   1.454   1.909   1.711 -0.3047  0.2426  0.3597
 1145SOL     OW 4351   3.778   4.675   3.169  0.7825 -0.1900  0.2401
 1145SOL    HW2 4352   3.859   4.634   3.140  0.8521 -0.3198  0.6108
 1145SOL    HW3 4353   3.778   4.761   3.125  0.8373 -0.4147 -0.2054
 1145SOL    MW4 4354   3.789   4.681   3.159  0.7989 -0.2368  0.2302
 1146SOL     OW 4355   1.343   3.164   2.751 -0.6261  0.4605  0.6518
 1146SOL    HW2 4356   1.365   3.092   2.691 -1.8698  0.7094 -0.1506
 1146SOL    HW3 4357   1.377   3.136   2.836  0.6758 -0.1668 -0.0424
 1146SOL    MW4 4358   1.351   3.151   2.754 -0.6185  0.4106  0.4544
 1147SOL     OW 4359   1.350   0.291   5.965 -0.4266  0.4605  0.1204
 1147SOL    HW2 4360   1.361   0.261   5.874 -0.6693  0.4294  0.0992
 1147SOL    HW3 4361   1.267   0.339   5.963 -2.7518 -3.0529  1.1912
 1147SOL    MW4 4362   1.340   0.293   5.953 -0.7654 -0.0071  0.2589
 1148SOL     OW 4363   3.077   3.143   5.473 -0.1284 -0.4896 -0.4030
 1148SOL    HW2 4364   3.027   3.062   5.464 -0.7515 -0.5352  2.6393
 1148SOL    HW3 4365   3.012   3.213   5.467 -0.1973 -0.4242  0.9323
 1148SOL    MW4 4366   3.062   3.141   5.471 -0.2197 -0.4870  0.1745
 1149SOL     OW 4367   5.868   5.383   5.058 -1.1377 -0.1076 -0.0755
 1149SOL    HW2 4368   5.882   5.473   5.031 -1.2307  0.3043  1.1972
 1149SOL    HW3 4369   5.952   5.340   5.043 -0.1711  0.9270  2.0279
 1149SOL    MW4 4370   5.881   5.389   5.052 -1.0225  0.0832  0.3699
 1150SOL     OW 4371   1.308   5.868   1.916 -0.3190  0.6516  0.2651
 1150SOL    HW2 4372   1.295   5.775   1.935  0.1094  0.7134  0.9111
 1150SOL    HW3 4373   1.374   5.869   1.846  2.5246  0.4938  2.7261
 1150SOL    MW4 4374   1.315   5.856   1.909  0.1127  0.6390  0.6750
 1151SOL     OW 4375   1.763   1.430   6.081 -0.7684  0.8490  0.0036
 1151SOL    HW2 4376   1.856   1.443   6.065 -0.6040 -0.8740 -0.6496
 1151SOL    HW3 4377   1.726   1.410   5.995 -1.0826 -1.8777  0.6765
 1151SOL    MW4 4378   1.770   1.429   6.068 -0.7882  0.2619  0.0062
 1152SOL     OW 4379   2.603   3.546   2.355 -0.6108  0.3419  0.0298
 1152SOL    HW2 4380   2.594   3.508   2.268  3.6991 -0.8294 -0.1334
 1152SOL    HW3 4381   2.569   3.635   2.347 -0.1500  0.3223 -2.9248
 1152SOL    MW4 4382   2.597   3.552   2.343  0.0186  0.1848 -0.3816
 1153SOL     OW 4383   5.589   1.756   0.850  0.1795 -0.1638  0.0027
 1153SOL    HW2 4384   5.682   1.753   0.829  0.2640  0.7032  0.2347
 1153SOL    HW3 4385   5.565   1.847   0.840 -0.3654 -0.1628  1.1256
 1153SOL    MW4 4386   5.598   1.767   0.846  0.1188 -0.0493  0.1815
 1154SOL     OW 4387   0.141   2.383   0.206 -0.4918  0.6671  0.0443
 1154SOL    HW2 4388   0.071   2.374   0.271 -0.4685 -0.5277 -0.0901
 1154SOL    HW3 4389   0.159   2.294   0.176  1.1545  0.9189  0.1499
 1154SOL    MW4 4390   0.134   2.370   0.211 -0.2715  0.5427  0.0405
 1155SOL     OW 4391   1.675   2.808   6.284 -0.6525  0.5783 -0.4005
 1155SOL    HW2 4392   1.749   2.864   6.306 -0.7335  0.5487 -0.0457
 1155SOL    HW3 4393   1.672   2.743   6.354  0.3964 -0.8266 -1.5829
 1155SOL    MW4 4394   1.684   2.807   6.296 -0.5248  0.3891 -0.5097
 1156SOL     OW 4395   5.340   5.889   5.701 -0.6774 -0.1440 -0.2598
 1156SOL    HW2 4396   5.435   5.875   5.697 -0.6910 -0.5240  0.4701
 1156SOL    HW3 4397   5.305   5.835   5.630 -0.5000 -1.8179  0.8498
 1156SOL    MW4 4398   5.348   5.880   5.691 -0.6558 -0.4150 -0.0171
 1157SOL     OW 4399   1.543   3.798   4.289 -0.1551  0.0482 -0.3469
 1157SOL    HW2 4400   1.473   3.804   4.354  0.4636  2.2708  0.2036
 1157SOL    HW3 4401   1.561   3.889   4.265  2.3335 -0.4687 -0.6873
 1157SOL    MW4 4402   1.536   3.811   4.294  0.2549  0.2733 -0.3192
 1158SOL     OW 4403   2.886   2.163   6.207 -0.0028 -0.8708  0.5665
 1158SOL    HW2 4404   2.812   2.173   6.146  0.2727 -1.4744  0.1171
 1158SOL    HW3 4405   2.950   2.226   6.176  1.0119 -2.6308 -1.1533
 1158SOL    MW4 4406   2.885   2.173   6.195  0.1674 -1.1826  0.2803
 1159SOL     OW 4407   2.298   5.516   1.212  0.6097 -0.2479  0.1086
 1159SOL    HW2 4408   2.213   5.487   1.180 -0.0262  1.3904  0.2441
 1159SOL    HW3 4409   2.316   5.596   1.163  1.9842 -0.4484  0.2446
 1159SOL    MW4 4410   2.290   5.522   1.201  0.7071 -0.0582  0.1444
 1160SOL     OW 4411   4.173   1.122   4.171  0.5275  0.8397 -0.3902
 1160SOL    HW2 4412   4.209   1.109   4.083  1.5735 -1.2827  0.2675
 1160SOL    HW3 4413   4.239   1.175   4.216  0.7454  0.6091 -0.4376
 1160SOL    MW4 4414   4.187   1.127   4.165  0.6943  0.5293 -0.3097
 1161SOL     OW 4415   1.158   6.090   1.971  0.4730 -0.3128 -0.1832
 1161SOL    HW2 4416   1.236   6.145   1.968  0.3245 -0.1347 -1.5477
 1161SOL    HW3 4417   1.191   6.000   1.963  0.5197 -0.1911 -1.7047
 1161SOL    MW4 4418   1.173   6.085   1.969  0.4596 -0.2732 -0.5640
 1162SOL     OW 4419   1.417   6.067   5.692 -0.2504 -0.1023  0.4410
 1162SOL    HW2 4420   1.498   6.033   5.731 -0.0756  0.6014  0.7229
 1162SOL    HW3 4421   1.414   6.028   5.605  1.2402  1.0629 -0.1886
 1162SOL    MW4 4422   1.428   6.057   5.685 -0.0307  0.1443  0.3951
 1163SOL     OW 4423   2.903   3.677   2.051 -0.3983  0.3694  0.0639
 1163SOL    HW2 4424   2.830   3.725   2.090 -0.1525  0.5784  0.2687
 1163SOL    HW3 4425   2.886   3.677   1.957 -1.8574 -1.5130  0.2735
 1163SOL    MW4 4426   2.891   3.683   2.044 -0.5584  0.1486  0.1186
 1164SOL     OW 4427   2.574   3.742   5.369 -0.1515  1.2850  0.0201
 1164SOL    HW2 4428   2.529   3.664   5.337  0.7701  0.7309  0.0204
 1164SOL    HW3 4429   2.654   3.747   5.316 -0.1553  2.1814  0.0790
 1164SOL    MW4 4430   2.579   3.733   5.358 -0.0304  1.3302  0.0279
 1165SOL     OW 4431   1.202   2.348   2.549 -0.1420  0.5580  0.3428
 1165SOL    HW2 4432   1.194   2.258   2.520 -2.5098  1.1812 -1.2592
 1165SOL    HW3 4433   1.230   2.342   2.640 -1.4457 -1.8411  0.6627
 1165SOL    MW4 4434   1.205   2.336   2.557 -0.6264  0.3237  0.1737
 1166SOL     OW 4435   3.065   5.805   3.548 -0.9388 -0.4342  0.8067
 1166SOL    HW2 4436   3.123   5.749   3.496 -2.0663 -0.7535 -0.1784
 1166SOL    HW3 4437   3.088   5.894   3.523 -0.5554 -0.5391  0.7825
 1166SOL    MW4 4438   3.076   5.809   3.537 -1.0370 -0.4902  0.6735
 1167SOL     OW 4439   0.503   4.687   6.022 -0.3141  0.0842  0.3278
 1167SOL    HW2 4440   0.428   4.662   6.076  1.3751 -1.6062  2.0660
 1167SOL    HW3 4441   0.483   4.653   5.935 -1.5075 -0.4282  0.7876
 1167SOL    MW4 4442   0.490   4.679   6.018 -0.2487 -0.2064  0.6178
 1168SOL     OW 4443   3.246   3.225   1.713 -0.5614 -0.4928  0.2012
 1168SOL    HW2 4444   3.233   3.187   1.627  0.1303 -1.0661  0.3407
 1168SOL    HW3 4445   3.198   3.169   1.773  1.4212 -1.9301  0.5650
 1168SOL    MW4 4446   3.238   3.213   1.710 -0.2086 -0.7581  0.2676
 1169SOL     OW 4447   6.026   5.250   0.349 -0.2357 -0.5302 -0.2389
 1169SOL    HW2 4448   6.097   5.281   0.292 -0.5355  2.0942  0.6729
 1169SOL    HW3 4449   5.954   5.311   0.333 -0.5335 -0.0638  2.4573
 1169SOL    MW4 4450   6.026   5.262   0.339 -0.3146 -0.1224  0.2371
 1170SOL     OW 4451   2.832   1.252   3.068 -0.5848  0.4144 -0.2603
 1170SOL    HW2 4452   2.797   1.237   2.981  1.7281 -0.1094 -1.1782
 1170SOL    HW3 4453   2.880   1.335   3.060  0.8989 -0.3819  0.0525
 1170SOL    MW4 4454   2.834   1.261   3.056 -0.0839  0.2402 -0.3402
 1171SOL     OW 4455   5.059   3.427   2.852 -0.3246  0.6950 -0.4156
 1171SOL    HW2 4456   5.050   3.366   2.779 -2.1485  1.2787 -0.7275
 1171SOL    HW3 4457   5.078   3.511   2.810 -1.2310  1.0025 -0.2324
 1171SOL    MW4 4458   5.061   3.430   2.837 -0.6848  0.8126 -0.4326
 1172SOL     OW 4459   5.868   2.824   0.856  0.3168  0.6547 -0.6355
 1172SOL    HW2 4460   5.827   2.829   0.770 -0.5892 -0.4855 -0.2966
 1172SOL    HW3 4461   5.817   2.759   0.904  1.8086  0.0369  0.2125
 1172SOL    MW4 4462   5.856   2.816   0.851  0.3941  0.4228 -0.4789
 1173SOL     OW 4463   4.786   1.271   1.983 -0.3397 -0.2294 -0.5887
 1173SOL    HW2 4464   4.823   1.266   2.071 -0.9922  0.0283 -0.2994
 1173SOL    HW3 4465   4.749   1.358   1.977 -0.2971 -0.2467 -1.1222
 1173SOL    MW4 4466   4.786   1.282   1.994 -0.4202 -0.1977 -0.6209
 1174SOL     OW 4467   4.298   2.419   2.905  0.1108  0.2625 -0.2119
 1174SOL    HW2 4468   4.246   2.350   2.947 -0.0220  0.0107 -0.7734
 1174SOL    HW3 4469   4.269   2.500   2.947  1.1208 -0.1277  1.3036
 1174SOL    MW4 4470   4.287   2.420   2.916  0.2265  0.1778 -0.0860
 1175SOL     OW 4471   3.255   4.467   2.425  0.2776 -0.8724  0.1965
 1175SOL    HW2 4472   3.206   4.511   2.354  1.5366  0.0024 -0.1760
 1175SOL    HW3 4473   3.188   4.423   2.477 -0.6494 -2.1464 -1.9334
 1175SOL    MW4 4474   3.240   4.467   2.422  0.3214 -0.9251 -0.1336
 1176SOL     OW 4475   3.126   0.936   2.560 -0.4205  0.4267  0.0382
 1176SOL    HW2 4476   3.053   0.919   2.500 -0.1328 -0.9263  0.0297
 1176SOL    HW3 4477   3.117   0.869   2.628  1.2598 -0.3131 -0.4083
 1176SOL    MW4 4478   3.115   0.925   2.561 -0.1609  0.1506 -0.0218
 1177SOL     OW 4479   1.673   3.741   3.991 -0.1248 -0.0145  0.0527
 1177SOL    HW2 4480   1.754   3.748   4.041 -0.1158  1.6033 -0.1526
 1177SOL    HW3 4481   1.605   3.776   4.048 -0.3028  0.7463 -0.6011
 1177SOL    MW4 4482   1.675   3.746   4.005 -0.1471  0.2993 -0.0607
 1178SOL     OW 4483   4.954   2.159   4.719  0.1311  0.9416 -0.0189
 1178SOL    HW2 4484   4.890   2.151   4.789 -1.0276  1.2653 -1.0003
 1178SOL    HW3 4485   4.933   2.086   4.660  1.5697  0.2151  0.3116
 1178SOL    MW4 4486   4.943   2.148   4.720  0.1681  0.8884 -0.1048
 1179SOL     OW 4487   4.547   1.519   3.004 -0.3577  0.1107 -0.1086
 1179SOL    HW2 4488   4.545   1.449   3.069 -1.0383 -0.7934 -1.0642
 1179SOL    HW3 4489   4.472   1.500   2.947 -0.5995  1.6744 -0.3390
 1179SOL    MW4 4490   4.537   1.507   3.005 -0.4794  0.1977 -0.2651
 1180SOL     OW 4491   1.290   1.583   4.056  0.0240  0.0520  0.5716
 1180SOL    HW2 4492   1.353   1.610   3.989 -1.5241  2.6015 -0.0330
 1180SOL    HW3 4493   1.337   1.593   4.139  1.5017 -1.6861 -0.0115
 1180SOL    MW4 4494   1.304   1.588   4.058  0.0147  0.1591  0.4149
 1181SOL     OW 4495   0.534   4.255   2.560  0.5796 -0.3444 -0.5612
 1181SOL    HW2 4496   0.546   4.163   2.583  1.8808 -0.2164 -0.6309
 1181SOL    HW3 4497   0.510   4.298   2.642  3.7814 -0.1337  0.3784
 1181SOL    MW4 4498   0.532   4.249   2.574  1.1737 -0.2997 -0.4464
 1182SOL     OW 4499   5.561   4.382   1.371  0.4215 -0.2381 -0.1873
 1182SOL    HW2 4500   5.640   4.430   1.344  0.7705 -0.6694  0.0407
 1182SOL    HW3 4501   5.497   4.400   1.303  0.6377  0.3141 -0.2547
 1182SOL    MW4 4502   5.563   4.391   1.359  0.4961 -0.2222 -0.1661
 1183SOL     OW 4503   2.178   1.923   4.234  0.4200 -0.3352  0.0368
 1183SOL    HW2 4504   2.174   1.940   4.328  1.3593 -0.0662  0.0446
 1183SOL    HW3 4505   2.100   1.965   4.198  0.0604 -0.4277  0.6890
 1183SOL    MW4 4506   2.167   1.931   4.241  0.4965 -0.3119  0.1239
 1184SOL     OW 4507   1.617   5.040   1.036  0.1759  0.0354 -0.4835
 1184SOL    HW2 4508   1.544   5.010   1.091  0.1326 -0.3573 -0.7498
 1184SOL    HW3 4509   1.667   4.960   1.018  0.7718  0.3361 -0.1531
 1184SOL    MW4 4510   1.614   5.025   1.041  0.2488  0.0232 -0.4750
 1185SOL     OW 4511   4.103   2.496   3.979  0.0056 -1.1161 -0.0289
 1185SOL    HW2 4512   4.019   2.455   3.959 -1.1775 -0.0636  2.3717
 1185SOL    HW3 4513   4.082   2.565   4.042  2.3044  1.1898 -1.5542
 1185SOL    MW4 4514   4.089   2.500   3.985  0.1528 -0.6730  0.0866
 1186SOL     OW 4515   2.972   2.582   4.815 -0.1037  0.1888  0.1451
 1186SOL    HW2 4516   2.878   2.561   4.814 -0.5038  1.8157  0.7373
 1186SOL    HW3 4517   2.978   2.667   4.771  1.1020  0.1011  0.1042
 1186SOL    MW4 4518   2.960   2.590   4.809  0.0026  0.3919  0.2178
 1187SOL     OW 4519   2.745   4.007   1.054  0.6033 -0.3098 -0.3782
 1187SOL    HW2 4520   2.813   4.073   1.037  1.4130 -0.6632  1.2099
 1187SOL    HW3 4521   2.718   4.025   1.144 -1.2200 -0.3745 -0.8822
 1187SOL    MW4 4522   2.751   4.018   1.064  0.4696 -0.3650 -0.2352
 1188SOL     OW 4523   1.545   2.822   1.646 -0.6313  0.1226  0.2522
 1188SOL    HW2 4524   1.534   2.826   1.741 -0.0507  1.8536  0.2812
 1188SOL    HW3 4525   1.468   2.869   1.611  0.4546  1.8143  0.0076
 1188SOL    MW4 4526   1.533   2.829   1.654 -0.4114  0.5742  0.2237
 1189SOL     OW 4527   5.848   1.617   4.379 -1.0589  0.1902 -0.1404
 1189SOL    HW2 4528   5.941   1.599   4.362 -1.3967 -0.5691 -1.3159
 1189SOL    HW3 4529   5.836   1.708   4.352 -0.5577  0.4583  0.5051
 1189SOL    MW4 4530   5.859   1.626   4.373 -1.0373  0.1254 -0.2103
 1190SOL     OW 4531   2.207   1.028   2.198  0.0921  0.0801 -0.6030
 1190SOL    HW2 4532   2.123   1.066   2.222  0.3542  0.5181 -0.3575
 1190SOL    HW3 4533   2.215   1.043   2.104 -0.5554 -0.8729 -0.8164
 1190SOL    MW4 4534   2.197   1.035   2.189  0.0413  0.0121 -0.5987
 1191SOL     OW 4535   4.728   6.025   1.362  0.4152  0.5069  0.1625
 1191SOL    HW2 4536   4.666   6.056   1.428 -2.0285  2.6953 -2.8658
 1191SOL    HW3 4537   4.694   5.938   1.338  1.1528 -0.1779  1.5083
 1191SOL    MW4 4538   4.715   6.017   1.368  0.1901  0.7053 -0.0595
 1192SOL     OW 4539   1.712   4.771   4.820  0.6142 -0.5764 -0.0999
 1192SOL    HW2 4540   1.627   4.754   4.862  0.2925 -0.3996 -0.6635
 1192SOL    HW3 4541   1.771   4.707   4.859 -0.1717 -1.8552 -0.9254
 1192SOL    MW4 4542   1.708   4.760   4.830  0.4680 -0.7218 -0.2832
 1193SOL     OW 4543   3.387   4.524   0.853  0.3832 -0.4069  0.4520
 1193SOL    HW2 4544   3.362   4.607   0.892 -0.2595 -0.9120  1.1506
 1193SOL    HW3 4545   3.412   4.545   0.763 -0.2906  0.4558  0.4636
 1193SOL    MW4 4546   3.387   4.537   0.846  0.2095 -0.3597  0.5457
 1194SOL     OW 4547   4.968   4.535   3.840  0.1625 -0.3781 -0.8535
 1194SOL    HW2 4548   5.064   4.543   3.842  0.1505 -0.1901  1.8451
 1194SOL    HW3 4549   4.952   4.444   3.863 -0.3286 -0.1131 -0.1471
 1194SOL    MW4 4550   4.979   4.524   3.843  0.0961 -0.3183 -0.4043
 1195SOL     OW 4551   0.958   0.958   3.846  0.0360 -0.3182 -0.0032
 1195SOL    HW2 4552   1.040   0.924   3.811  0.4150 -0.7708  1.2664
 1195SOL    HW3 4553   0.960   0.933   3.938 -0.6378  1.3663  0.4889
 1195SOL    MW4 4554   0.969   0.950   3.853 -0.0029 -0.1556  0.2293
 1196SOL     OW 4555   5.935   0.341   3.334 -0.0056 -0.6375  0.1598
 1196SOL    HW2 4556   5.961   0.270   3.277 -2.8605 -2.6015  1.0798
 1196SOL    HW3 4557   5.897   0.406   3.276  1.1691 -0.5238 -0.5275
 1196SOL    MW4 4558   5.934   0.340   3.319 -0.2273 -0.8816  0.1905
 1197SOL     OW 4559   2.549   0.322   2.448  0.2344 -0.1031  0.1312
 1197SOL    HW2 4560   2.636   0.345   2.482  0.9808 -1.3347 -0.8377
 1197SOL    HW3 4561   2.544   0.227   2.457 -0.9376 -0.0686 -0.0274
 1197SOL    MW4 4562   2.560   0.313   2.453  0.1783 -0.2610 -0.0175
 1198SOL     OW 4563   3.613   1.254   5.922  0.6992  0.1179  0.1334
 1198SOL    HW2 4564   3.693   1.215   5.886  0.7808  0.6190 -0.2274
 1198SOL    HW3 4565   3.626   1.348   5.913  0.3186  0.2185  0.6229
 1198SOL    MW4 4566   3.625   1.261   5.916  0.6597  0.1973  0.1504
 1199SOL     OW 4567   5.098   6.148   0.879  0.1397  0.2376  0.5680
 1199SOL    HW2 4568   5.115   6.159   0.972 -0.6116  1.2521  0.5949
 1199SOL    HW3 4569   5.102   6.236   0.843 -1.7525  0.1457  0.0233
 1199SOL    MW4 4570   5.101   6.161   0.886 -0.2091  0.3593  0.4997
 1200SOL     OW 4571   6.233   3.061   5.996  0.5818 -0.0212  0.0199
 1200SOL    HW2 4572   6.262   2.987   5.944  0.5044 -0.6636  0.8788
 1200SOL    HW3 4573   6.142   3.074   5.971  0.1010 -1.2566  1.0289
 1200SOL    MW4 4574   6.225   3.053   5.986  0.5082 -0.2689  0.2663
 1201SOL     OW 4575   3.646   2.748   5.351  0.6092  0.6499 -0.2064
 1201SOL    HW2 4576   3.720   2.804   5.377 -0.1094  2.6061 -2.0634
 1201SOL    HW3 4577   3.579   2.810   5.322 -1.2892 -1.1275  0.1660
 1201SOL    MW4 4578   3.647   2.764   5.351  0.2639  0.6735 -0.4023
 1202SOL     OW 4579   3.636   0.330   6.382  0.8809 -0.3194 -0.5447
 1202SOL    HW2 4580   3.599   0.348   6.468 -0.5897 -0.4124 -1.1289
 1202SOL    HW3 4581   3.630   0.235   6.372  0.3856 -0.2428 -1.0253
 1202SOL    MW4 4582   3.630   0.320   6.392  0.6215 -0.3216 -0.6852
 1203SOL     OW 4583   1.493   5.538   4.641 -0.5895  0.2950  0.4171
 1203SOL    HW2 4584   1.469   5.630   4.631  0.4352  0.5149 -0.2689
 1203SOL    HW3 4585   1.410   5.492   4.648 -1.1440  1.1983  0.0134
 1203SOL    MW4 4586   1.479   5.544   4.641 -0.5275  0.4432  0.2733
 1204SOL     OW 4587   2.831   5.332   1.694 -0.0100  0.0443 -0.1664
 1204SOL    HW2 4588   2.753   5.387   1.695  0.5362  0.8390  0.1776
 1204SOL    HW3 4589   2.899   5.388   1.656  0.7244 -0.1334  0.8466
 1204SOL    MW4 4590   2.830   5.347   1.689  0.1590  0.1257  0.0127
 1205SOL     OW 4591   3.182   0.119   0.966 -0.2007  0.0710  0.0404
 1205SOL    HW2 4592   3.254   0.169   1.005  0.2182 -0.5587  0.1046
 1205SOL    HW3 4593   3.112   0.183   0.953 -0.4913  0.2443  2.1578
 1205SOL    MW4 4594   3.182   0.134   0.969 -0.1838  0.0108  0.3283
 1206SOL     OW 4595   2.999   5.523   0.311  0.0703 -0.0533  0.2489
 1206SOL    HW2 4596   3.062   5.480   0.370  0.3701 -0.2130 -0.1838
 1206SOL    HW3 4597   2.989   5.610   0.348  0.6261  0.0077  0.2734
 1206SOL    MW4 4598   3.006   5.529   0.324  0.1832 -0.0663  0.1950
 1207SOL     OW 4599   5.460   3.962   5.028 -0.1890 -0.1834  0.2068
 1207SOL    HW2 4600   5.367   3.950   5.011  0.0490 -3.0679  0.3903
 1207SOL    HW3 4601   5.486   3.881   5.073  2.5019  0.3171 -0.2978
 1207SOL    MW4 4602   5.451   3.950   5.032  0.1974 -0.4980  0.1645
 1208SOL     OW 4603   2.803   4.081   2.401  0.4600 -0.2742 -0.7286
 1208SOL    HW2 4604   2.823   3.987   2.399  0.3182 -0.5125  2.6058
 1208SOL    HW3 4605   2.875   4.119   2.452 -1.0020  0.8815  0.5845
 1208SOL    MW4 4606   2.815   4.073   2.408  0.2484 -0.1532 -0.1154
 1209SOL     OW 4607   5.263   0.689   3.713 -0.1442 -0.2772 -0.8867
 1209SOL    HW2 4608   5.307   0.766   3.747  1.3372 -1.0405 -1.0082
 1209SOL    HW3 4609   5.184   0.723   3.671  0.3528  1.1354 -0.7258
 1209SOL    MW4 4610   5.258   0.703   3.712  0.1168 -0.1915 -0.8815
 1210SOL     OW 4611   5.928   2.572   2.301  0.5633 -0.1460 -0.0721
 1210SOL    HW2 4612   6.008   2.524   2.278  0.7244 -0.5412  1.2211
 1210SOL    HW3 4613   5.885   2.587   2.217  2.1935  0.4621 -0.8539
 1210SOL    MW4 4614   5.933   2.568   2.287  0.7996 -0.1179 -0.0047
 1211SOL     OW 4615   3.595   2.256   0.805 -0.5168  0.6806  0.4681
 1211SOL    HW2 4616   3.509   2.295   0.820 -0.2444  1.2479  0.5638
 1211SOL    HW3 4617   3.602   2.188   0.873 -0.7796  0.8088  0.6248
 1211SOL    MW4 4618   3.584   2.252   0.816 -0.5155  0.7724  0.5014
 1212SOL     OW 4619   5.361   3.192   5.844  0.6271 -0.4793 -0.6241
 1212SOL    HW2 4620   5.409   3.110   5.842  1.0450 -0.3826  2.0231
 1212SOL    HW3 4621   5.365   3.220   5.935 -0.3950  1.9660 -1.2478
 1212SOL    MW4 4622   5.368   3.185   5.856  0.5474 -0.1439 -0.3571
 1213SOL     OW 4623   4.009   1.121   3.298  0.2917 -0.3050 -0.0756
 1213SOL    HW2 4624   4.060   1.202   3.291  0.8014 -0.5845  0.4129
 1213SOL    HW3 4625   3.918   1.151   3.299  0.4815  0.2800  0.3047
 1213SOL    MW4 4626   4.004   1.136   3.297  0.3840 -0.2647  0.0390
 1214SOL     OW 4627   3.016   4.595   4.973  0.2810  0.3687 -0.3428
 1214SOL    HW2 4628   2.988   4.561   5.058  0.0920  0.5986 -0.3147
 1214SOL    HW3 4629   2.942   4.581   4.915  0.9049 -1.1113 -0.8413
 1214SOL    MW4 4630   3.003   4.588   4.976  0.3384  0.2038 -0.4049
 1215SOL     OW 4631   5.439   1.588   5.556  0.1391 -0.2452 -0.0882
 1215SOL    HW2 4632   5.404   1.501   5.576  1.9012 -0.8787  0.3985
 1215SOL    HW3 4633   5.423   1.639   5.636 -1.3598  0.0827 -0.5527
 1215SOL    MW4 4634   5.432   1.583   5.569  0.1738 -0.2855 -0.0853
 1216SOL     OW 4635   1.812   5.087   5.571 -0.1085  0.0522 -0.4484
 1216SOL    HW2 4636   1.775   5.126   5.650  1.3196  4.0186 -1.5406
 1216SOL    HW3 4637   1.740   5.089   5.508 -0.8713 -1.9408  0.2745
 1216SOL    MW4 4638   1.797   5.092   5.573 -0.0207  0.3126 -0.4971
 1217SOL     OW 4639   3.591   1.308   4.858 -0.0832 -0.0934 -0.1803
 1217SOL    HW2 4640   3.499   1.331   4.870  0.3830  1.6586  0.3402
 1217SOL    HW3 4641   3.594   1.213   4.871 -2.1391 -0.5433 -2.3458
 1217SOL    MW4 4642   3.579   1.299   4.861 -0.2929  0.0784 -0.3973
 1218SOL     OW 4643   3.402   6.038   0.885  0.1420 -0.0431 -0.2826
 1218SOL    HW2 4644   3.424   6.094   0.960  1.4032  0.4026 -0.9566
 1218SOL    HW3 4645   3.387   5.952   0.923 -0.1613  0.3724  0.5818
 1218SOL    MW4 4646   3.403   6.034   0.900  0.2684  0.0706 -0.2575
 1219SOL     OW 4647   0.977   5.957   0.419 -0.3214  0.1260 -0.4352
 1219SOL    HW2 4648   1.070   5.937   0.432 -0.6499 -1.0617  0.2653
 1219SOL    HW3 4649   0.931   5.893   0.474 -1.5322  1.3911  0.0706
 1219SOL    MW4 4650   0.983   5.946   0.428 -0.5245  0.1362 -0.2761
 1220SOL     OW 4651   5.049   2.046   2.685  0.0566  0.3883  0.4733
 1220SOL    HW2 4652   5.028   2.120   2.742  0.7238 -1.3428  3.1540
 1220SOL    HW3 4653   4.995   1.974   2.718  0.2991 -0.6721 -1.2935
 1220SOL    MW4 4654   5.039   2.046   2.697  0.1766  0.0200  0.5939
 1221SOL     OW 4655   1.194   4.992   4.019 -0.2524 -0.0307 -0.0700
 1221SOL    HW2 4656   1.109   4.997   4.063 -1.0709  0.7852 -1.6403
 1221SOL    HW3 4657   1.205   4.899   4.000  0.2908 -0.4549  2.0890
 1221SOL    MW4 4658   1.184   4.980   4.022 -0.2887  0.0210  0.0077
 1222SOL     OW 4659   2.609   0.755   1.500 -0.1912 -0.8789  0.2392
 1222SOL    HW2 4660   2.677   0.688   1.487  0.7062  0.3141 -1.5813
 1222SOL    HW3 4661   2.641   0.807   1.573  0.0478 -1.2925  0.4341
 1222SOL    MW4 4662   2.622   0.753   1.508 -0.0413 -0.7761  0.0247
 1223SOL     OW 4663   3.437   2.202   0.263  0.2741  0.1681  0.0706
 1223SOL    HW2 4664   3.410   2.128   0.208 -2.2719  0.0272  1.3588
 1223SOL    HW3 4665   3.390   2.277   0.226  0.8845  0.6680  0.2882
 1223SOL    MW4 4666   3.427   2.202   0.251  0.0187  0.2154  0.2693
 1224SOL     OW 4667   5.911   0.882   4.119 -0.0444 -0.2881 -0.0493
 1224SOL    HW2 4668   5.843   0.908   4.182 -0.2469 -0.7901 -0.0566
 1224SOL    HW3 4669   5.989   0.930   4.147 -0.4609  0.4872 -0.1813
 1224SOL    MW4 4670   5.912   0.892   4.131 -0.1260 -0.2521 -0.0677
 1225SOL     OW 4671   3.108   6.010   0.500  0.0505  0.5023 -0.6514
 1225SOL    HW2 4672   3.170   6.044   0.565  1.2792  0.6222 -1.8301
 1225SOL    HW3 4673   3.100   6.080   0.436 -2.2627  0.9518  0.0447
 1225SOL    MW4 4674   3.115   6.024   0.500 -0.0926  0.5774 -0.7151
 1226SOL     OW 4675   2.426   0.176   0.462  0.2886  0.0035 -0.5466
 1226SOL    HW2 4676   2.379   0.110   0.513  1.4791 -0.8343 -0.4680
 1226SOL    HW3 4677   2.481   0.221   0.526  0.2921  0.3190 -0.7708
 1226SOL    MW4 4678   2.427   0.173   0.477  0.4462 -0.0654 -0.5658
 1227SOL     OW 4679   1.163   1.304   0.421  0.1667 -0.3393 -0.5731
 1227SOL    HW2 4680   1.107   1.334   0.493  0.9375 -1.2469  0.4414
 1227SOL    HW3 4681   1.102   1.276   0.353 -0.6104 -0.4227  0.1367
 1227SOL    MW4 4682   1.148   1.304   0.422  0.1658 -0.4700 -0.3456
 1228SOL     OW 4683   2.984   2.761   3.104 -0.1131 -0.0665 -0.3863
 1228SOL    HW2 4684   3.053   2.705   3.066  1.1050  0.5351  0.8538
 1228SOL    HW3 4685   2.964   2.823   3.034  1.1676  0.2236 -0.5317
 1228SOL    MW4 4686   2.991   2.762   3.089  0.2166  0.0511 -0.2419
 1229SOL     OW 4687   5.455   2.871   0.311 -0.4176  0.1339  0.3269
 1229SOL    HW2 4688   5.486   2.788   0.275 -3.0876 -0.0058 -1.9620
 1229SOL    HW3 4689   5.419   2.848   0.396  0.3369 -0.7267  0.4347
 1229SOL    MW4 4690   5.454   2.857   0.317 -0.6703  0.0019  0.0392
 1230SOL     OW 4691   3.225   1.615   5.818 -0.4262 -0.4050  0.2116
 1230SOL    HW2 4692   3.173   1.649   5.745  0.6375 -0.7606 -0.7425
 1230SOL    HW3 4693   3.264   1.692   5.858  0.8594 -0.3395 -1.0799
 1230SOL    MW4 4694   3.224   1.629   5.814 -0.1163 -0.4433 -0.0847
 1231SOL     OW 4695   0.767   5.862   2.144 -0.3115 -0.0514 -0.7535
 1231SOL    HW2 4696   0.853   5.824   2.161 -0.5231 -0.1522  0.1549
 1231SOL    HW3 4697   0.786   5.939   2.091  0.3754  0.0844 -0.3386
 1231SOL    MW4 4698   0.781   5.867   2.139 -0.2488 -0.0467 -0.5789
 1232SOL     OW 4699   4.962   6.125   2.516  0.3949  0.4809 -0.1862
 1232SOL    HW2 4700   4.902   6.199   2.519  0.5012  0.6077 -0.9612
 1232SOL    HW3 4701   5.046   6.163   2.490  0.8115  0.3031  0.8739
 1232SOL    MW4 4702   4.966   6.140   2.513  0.4639  0.4742 -0.1486
 1233SOL     OW 4703   2.011   3.387   0.403  0.0826 -0.4130 -0.1015
 1233SOL    HW2 4704   2.015   3.337   0.321 -0.1424  0.0118 -0.3714
 1233SOL    HW3 4705   2.101   3.389   0.435 -0.0443 -1.8390  0.4226
 1233SOL    MW4 4706   2.024   3.380   0.397  0.0362 -0.5451 -0.0680
 1234SOL     OW 4707   0.431   4.465   3.138  0.1441 -0.0252  0.4096
 1234SOL    HW2 4708   0.344   4.504   3.146  0.1022 -0.0651  0.1564
 1234SOL    HW3 4709   0.418   4.372   3.159  0.1822  0.0248  0.6688
 1234SOL    MW4 4710   0.418   4.458   3.142  0.1436 -0.0238  0.4104
 1235SOL     OW 4711   0.645   4.266   4.411  0.0758 -0.0086  0.3923
 1235SOL    HW2 4712   0.715   4.215   4.450  0.6516  1.4194  1.3092
 1235SOL    HW3 4713   0.683   4.304   4.332  0.4728  1.0263  1.0595
 1235SOL    MW4 4714   0.659   4.265   4.406  0.2042  0.3164  0.6013
 1236SOL     OW 4715   0.551   1.177   0.680  0.6636 -0.5709  0.6358
 1236SOL    HW2 4716   0.496   1.108   0.716 -0.3550 -0.5809 -0.8295
 1236SOL    HW3 4717   0.548   1.247   0.745 -0.7440 -0.7593  0.8138
 1236SOL    MW4 4718   0.543   1.177   0.693  0.3435 -0.5971  0.4659
 1237SOL     OW 4719   3.338   0.331   0.734  0.2113  0.5669 -0.2588
 1237SOL    HW2 4720   3.388   0.400   0.690 -1.9059  1.5777 -1.2015
 1237SOL    HW3 4721   3.305   0.276   0.663  0.1387 -0.2121  0.3598
 1237SOL    MW4 4722   3.341   0.333   0.719 -0.0776  0.5975 -0.3015
 1238SOL     OW 4723   5.196   0.086   3.610 -0.5623 -0.2915 -0.4465
 1238SOL    HW2 4724   5.226   0.009   3.562  0.2621 -0.1173 -0.2298
 1238SOL    HW3 4725   5.274   0.142   3.616 -1.2053  0.6858 -0.8441
 1238SOL    MW4 4726   5.210   0.083   3.604 -0.5384 -0.1396 -0.4704
 1239SOL     OW 4727   1.971   5.622   3.043 -0.1014 -0.3031 -0.1465
 1239SOL    HW2 4728   1.904   5.558   3.020 -3.1862  2.3550  0.5143
 1239SOL    HW3 4729   1.983   5.673   2.963 -0.5888  0.5617  0.3090
 1239SOL    MW4 4730   1.964   5.621   3.029 -0.5727  0.1617  0.0008
 1240SOL     OW 4731   0.356   6.122   3.807  0.1879  0.0386 -0.4521
 1240SOL    HW2 4732   0.402   6.065   3.869  0.9101  0.4413 -0.5998
 1240SOL    HW3 4733   0.353   6.207   3.851 -3.3717 -0.6798  0.9942
 1240SOL    MW4 4734   0.362   6.126   3.821 -0.1865 -0.0030 -0.2808
 1241SOL     OW 4735   5.849   3.151   5.171  0.3823  0.3103 -0.1278
 1241SOL    HW2 4736   5.887   3.206   5.102 -0.0909  0.6040 -0.1647
 1241SOL    HW3 4737   5.886   3.064   5.155  2.1911  0.8781  0.7506
 1241SOL    MW4 4738   5.859   3.147   5.160  0.5585  0.4239 -0.0168
 1242SOL     OW 4739   3.285   5.792   4.318  0.3436 -0.0292  0.5650
 1242SOL    HW2 4740   3.315   5.816   4.405  2.4542 -0.5268  0.0255
 1242SOL    HW3 4741   3.197   5.830   4.311  1.0172  1.9461  2.0693
 1242SOL    MW4 4742   3.277   5.800   4.328  0.7109  0.1658  0.6923
 1243SOL     OW 4743   5.047   5.723   3.374 -0.4318  0.1762  0.0648
 1243SOL    HW2 4744   5.075   5.646   3.423 -1.1788  0.3474  0.7839
 1243SOL    HW3 4745   5.097   5.719   3.293  0.6090 -0.2783  0.7061
 1243SOL    MW4 4746   5.057   5.712   3.370 -0.3931  0.1388  0.2443
 1244SOL     OW 4747   5.331   4.942   0.084 -0.0216 -0.2307 -0.0988
 1244SOL    HW2 4748   5.317   4.971   0.174  1.0063 -2.1484  0.7351
 1244SOL    HW3 4749   5.426   4.940   0.074 -0.0933  1.3977 -1.7814
 1244SOL    MW4 4750   5.342   4.946   0.094  0.1046 -0.2689 -0.2108
 1245SOL     OW 4751   5.574   3.285   2.528 -0.3327  0.2586 -0.3811
 1245SOL    HW2 4752   5.658   3.237   2.531 -1.0163 -1.0883 -1.4612
 1245SOL    HW3 4753   5.599   3.377   2.529  1.0640 -0.0620  1.4892
 1245SOL    MW4 4754   5.589   3.291   2.529 -0.2386  0.0386 -0.2768
 1246SOL     OW 4755   4.339   2.049   0.786  0.2339  0.0875  0.4667
 1246SOL    HW2 4756   4.305   1.984   0.724 -0.2168  0.0976  0.7036
 1246SOL    HW3 4757   4.424   2.075   0.749  1.1095 -1.6965  1.1111
 1246SOL    MW4 4758   4.346   2.044   0.773  0.2900 -0.1466  0.5830
 1247SOL     OW 4759   3.400   3.202   2.161 -0.1437 -0.1959  0.2294
 1247SOL    HW2 4760   3.379   3.295   2.166 -0.7521 -0.3647  0.9216
 1247SOL    HW3 4761   3.346   3.161   2.228  2.3427 -0.6754  2.0769
 1247SOL    MW4 4762   3.390   3.209   2.170  0.1041 -0.2814  0.5645
 1248SOL     OW 4763   1.910   0.568   3.213  0.1056 -0.1995  0.2242
 1248SOL    HW2 4764   1.862   0.601   3.289 -0.2914  0.1013 -0.1496
 1248SOL    HW3 4765   1.948   0.486   3.243 -1.3004 -0.8592  0.3099
 1248SOL    MW4 4766   1.908   0.562   3.227 -0.1323 -0.2468  0.1862
 1249SOL     OW 4767   1.102   0.592   0.342 -0.7183  0.3192 -0.5660
 1249SOL    HW2 4768   1.046   0.621   0.270 -1.0004  1.3046  0.0327
 1249SOL    HW3 4769   1.043   0.582   0.417 -0.1805  0.8784 -0.0591
 1249SOL    MW4 4770   1.087   0.594   0.342 -0.6845  0.5230 -0.4201
 1250SOL     OW 4771   1.898   5.975   0.490 -0.4173 -0.6702  0.5864
 1250SOL    HW2 4772   1.963   5.930   0.436  0.3461 -0.4239  1.2892
 1250SOL    HW3 4773   1.937   5.979   0.577 -1.4951 -0.7590  1.0898
 1250SOL    MW4 4774   1.912   5.970   0.494 -0.4588 -0.6494  0.7455
 1251SOL     OW 4775   4.752   2.565   6.108  0.6118 -0.1509  0.0289
 1251SOL    HW2 4776   4.723   2.498   6.170  0.6512 -0.8168 -0.6491
 1251SOL    HW3 4777   4.674   2.585   6.056  0.3743  0.9868  0.7901
 1251SOL    MW4 4778   4.738   2.559   6.110  0.5856 -0.0886  0.0399
 1252SOL     OW 4779   2.834   0.769   5.652  0.3004  0.0085  0.1155
 1252SOL    HW2 4780   2.866   0.694   5.702 -1.3659 -1.2841 -0.6756
 1252SOL    HW3 4781   2.857   0.749   5.561 -2.2665 -0.7973 -0.4359
 1252SOL    MW4 4782   2.841   0.756   5.647 -0.2581 -0.2684 -0.0616
 1253SOL     OW 4783   1.838   4.931   2.818 -0.1824  0.1257 -0.3105
 1253SOL    HW2 4784   1.885   4.886   2.889 -0.7491  0.0605  0.0363
 1253SOL    HW3 4785   1.906   4.965   2.761  0.3276  1.2070  0.9020
 1253SOL    MW4 4786   1.853   4.929   2.820 -0.1899  0.2598 -0.1048
 1254SOL     OW 4787   1.463   0.624   2.375 -0.2041  0.3643 -0.1771
 1254SOL    HW2 4788   1.407   0.694   2.342  0.5596  0.6219 -0.9741
 1254SOL    HW3 4789   1.410   0.581   2.442 -1.2992  0.6815 -0.8025
 1254SOL    MW4 4790   1.449   0.627   2.380 -0.2478  0.4401 -0.3648
 1255SOL     OW 4791   0.015   3.505   0.616 -0.7439 -0.0268  0.0047
 1255SOL    HW2 4792   0.021   3.524   0.522 -0.4161 -1.6958 -0.3349
 1255SOL    HW3 4793  -0.007   3.590   0.655  0.3025  0.9682 -1.4332
 1255SOL    MW4 4794   0.013   3.519   0.608 -0.5626 -0.1157 -0.2298
 1256SOL     OW 4795   6.054   2.435   0.074  0.0604 -0.1635  0.1645
 1256SOL    HW2 4796   6.051   2.524   0.108  1.8379  0.0868 -0.2475
 1256SOL    HW3 4797   6.060   2.380   0.153 -2.5301 -0.0821  0.4997
 1256SOL    MW4 4798   6.054   2.439   0.089 -0.0468 -0.1198  0.1543
 1257SOL     OW 4799   0.740   0.481   6.317 -0.1871 -0.5178 -0.2411
 1257SOL    HW2 4800   0.835   0.478   6.306  0.2935  0.0679  2.8668
 1257SOL    HW3 4801   0.712   0.554   6.262  1.4362  0.3927  0.0703
 1257SOL    MW4 4802   0.749   0.490   6.308  0.0905 -0.3204  0.2100
 1258SOL     OW 4803   5.805   2.236   5.454 -0.0080  0.5494 -0.0594
 1258SOL    HW2 4804   5.864   2.307   5.428  0.0613  0.7453  0.6308
 1258SOL    HW3 4805   5.860   2.158   5.455  0.0356  0.5760 -0.2884
 1258SOL    MW4 4806   5.820   2.235   5.450  0.0069  0.5787  0.0014
 1259SOL     OW 4807   3.436   2.836   3.709  0.2979  0.1732 -0.3438
 1259SOL    HW2 4808   3.414   2.929   3.708 -0.3481  0.0410  0.8627
 1259SOL    HW3 4809   3.373   2.796   3.650 -0.0737  0.3582 -0.0712
 1259SOL    MW4 4810   3.425   2.843   3.701  0.1637  0.1801 -0.1487
 1260SOL     OW 4811   1.419   2.325   1.880  0.0781  0.2600  0.0719
 1260SOL    HW2 4812   1.489   2.389   1.872 -0.1711  0.8515  2.0360
 1260SOL    HW3 4813   1.425   2.294   1.971 -2.2121  0.3690  0.3327
 1260SOL    MW4 4814   1.429   2.329   1.891 -0.2570  0.3524  0.3655
 1261SOL     OW 4815   1.197   2.080   3.329  0.0912  0.3677 -0.0431
 1261SOL    HW2 4816   1.211   2.037   3.413 -0.3338 -0.1125 -0.2129
 1261SOL    HW3 4817   1.284   2.080   3.288  0.1314 -0.1894  0.0293
 1261SOL    MW4 4818   1.210   2.074   3.334  0.0404  0.2309 -0.0559
 1262SOL     OW 4819   2.798   1.863   5.869 -0.1499  0.8891 -0.7218
 1262SOL    HW2 4820   2.743   1.906   5.934  1.2241 -1.0928  1.9723
 1262SOL    HW3 4821   2.886   1.899   5.883  0.1690  0.4748 -1.5300
 1262SOL    MW4 4822   2.803   1.873   5.879  0.0735  0.5730 -0.4730
 1263SOL     OW 4823   2.097   1.222   1.230 -0.0972  0.1458 -0.1545
 1263SOL    HW2 4824   2.143   1.145   1.263 -1.1687 -1.3258 -1.8464
 1263SOL    HW3 4825   2.054   1.191   1.150  0.4577  2.8447 -1.6222
 1263SOL    MW4 4826   2.097   1.208   1.224 -0.1654  0.3077 -0.5714
 1264SOL     OW 4827   5.517   1.885   4.045  0.0501  0.1509 -0.4444
 1264SOL    HW2 4828   5.607   1.886   4.076 -0.0318  0.7589 -0.2172
 1264SOL    HW3 4829   5.524   1.887   3.950  0.2736  1.7668 -0.4163
 1264SOL    MW4 4830   5.529   1.885   4.036  0.0688  0.4443 -0.4107
 1265SOL     OW 4831   0.137   0.681   1.743 -0.3051 -1.1043  0.2938
 1265SOL    HW2 4832   0.206   0.736   1.705 -1.3997  0.0605 -0.0582
 1265SOL    HW3 4833   0.151   0.595   1.702 -1.3569  0.0477 -2.7613
 1265SOL    MW4 4834   0.148   0.677   1.733 -0.5883 -0.7986 -0.1558
 1266SOL     OW 4835   6.250   6.258   2.033  0.3452  0.0108  0.7286
 1266SOL    HW2 4836   6.315   6.190   2.014  2.3936  2.4909 -2.0986
 1266SOL    HW3 4837   6.296   6.321   2.087 -1.2234 -0.2888  2.4958
 1266SOL    MW4 4838   6.264   6.257   2.037  0.4085  0.2985  0.5887
 1267SOL     OW 4839   3.687   4.629   0.414 -0.2070 -0.1168  0.0955
 1267SOL    HW2 4840   3.593   4.613   0.423 -0.2025 -0.6556 -0.6512
 1267SOL    HW3 4841   3.694   4.718   0.381 -0.4675 -0.1065  0.0672
 1267SOL    MW4 4842   3.675   4.638   0.411 -0.2408 -0.1865 -0.0067
 1268SOL     OW 4843   3.789   5.369   1.645 -0.2705 -0.3330 -0.1885
 1268SOL    HW2 4844   3.811   5.400   1.557 -2.4489 -0.3295 -0.7982
 1268SOL    HW3 4845   3.763   5.448   1.692 -0.0243 -0.4585  0.1570
 1268SOL    MW4 4846   3.788   5.384   1.639 -0.5255 -0.3491 -0.2233
 1269SOL     OW 4847   2.307   0.276   0.982 -0.3240  0.5023  0.3566
 1269SOL    HW2 4848   2.272   0.187   0.978 -0.1317  0.4123  0.6227
 1269SOL    HW3 4849   2.276   0.318   0.901 -1.4167  0.5710  0.8024
 1269SOL    MW4 4850   2.299   0.270   0.971 -0.4428  0.4995  0.4505
 1270SOL     OW 4851   6.083   2.151   2.188 -0.1619 -0.2762 -0.6232
 1270SOL    HW2 4852   6.136   2.104   2.252  2.8183  1.0723 -1.8711
 1270SOL    HW3 4853   5.999   2.164   2.230  1.5499  0.3412  2.9543
 1270SOL    MW4 4854   6.079   2.147   2.202  0.4571 -0.0169 -0.3158
 1271SOL     OW 4855   5.737   2.356   3.689 -0.0262  0.5797  0.3300
 1271SOL    HW2 4856   5.690   2.274   3.700  0.4012  0.1927 -0.6801
 1271SOL    HW3 4857   5.745   2.391   3.778 -1.7455  0.3997  0.5765
 1271SOL    MW4 4858   5.732   2.350   3.702 -0.1966  0.5049  0.2293
 1272SOL     OW 4859   1.957   2.426   1.433  0.5092  0.3011 -0.0485
 1272SOL    HW2 4860   1.925   2.336   1.437  2.7876 -0.5659  0.3518
 1272SOL    HW3 4861   1.962   2.453   1.524  0.2326  0.6816 -0.1469
 1272SOL    MW4 4862   1.953   2.417   1.445  0.7733  0.2369 -0.0087
 1273SOL     OW 4863   2.193   1.459   2.912  0.2793  0.4773  0.4543
 1273SOL    HW2 4864   2.251   1.530   2.938 -0.4477  2.4212 -2.6717
 1273SOL    HW3 4865   2.247   1.403   2.856  0.1626  0.0272  0.7862
 1273SOL    MW4 4866   2.208   1.461   2.908  0.1680  0.6744  0.0856
 1274SOL     OW 4867   1.108   1.369   3.966  0.0054  0.3106  0.0296
 1274SOL    HW2 4868   1.037   1.353   4.029 -2.0751 -0.3711 -2.3219
 1274SOL    HW3 4869   1.167   1.429   4.011 -2.6938  1.9050  1.7409
 1274SOL    MW4 4870   1.106   1.375   3.980 -0.6252  0.4310 -0.0549
 1275SOL     OW 4871   6.141   4.270   0.995  0.4517  0.0011  0.3767
 1275SOL    HW2 4872   6.212   4.334   0.988 -1.7473  2.5108 -0.2110
 1275SOL    HW3 4873   6.153   4.213   0.919  1.3688  0.8682 -0.1619
 1275SOL    MW4 4874   6.152   4.271   0.984  0.2826  0.4466  0.2281
 1276SOL     OW 4875   4.809   1.272   5.627  0.0903  1.0074 -0.1217
 1276SOL    HW2 4876   4.754   1.216   5.572 -0.4407  0.6682  0.7295
 1276SOL    HW3 4877   4.767   1.270   5.713  1.3100  0.9164  0.4976
 1276SOL    MW4 4878   4.796   1.264   5.631  0.1812  0.9507  0.0723
 1277SOL     OW 4879   6.272   3.300   0.733  0.1342  0.4953  1.0665
 1277SOL    HW2 4880   6.187   3.343   0.722  0.8271  1.8254  0.6165
 1277SOL    HW3 4881   6.333   3.356   0.684  0.9320 -1.6332 -0.5060
 1277SOL    MW4 4882   6.269   3.313   0.725  0.3309  0.3900  0.7996
 1278SOL     OW 4883   5.895   2.055   3.526 -0.8961  0.6392  0.2602
 1278SOL    HW2 4884   5.919   2.057   3.619 -0.7934 -0.6169  0.2721
 1278SOL    HW3 4885   5.810   2.011   3.524 -0.0130 -1.1547 -0.3851
 1278SOL    MW4 4886   5.887   2.049   3.538 -0.7661  0.2368  0.1767
 1279SOL     OW 4887   5.323   1.691   4.627 -0.1715 -0.0272  0.4460
 1279SOL    HW2 4888   5.262   1.684   4.554 -2.0194  0.3022  1.8839
 1279SOL    HW3 4889   5.407   1.664   4.591 -0.9228  0.5447 -1.8962
 1279SOL    MW4 4890   5.326   1.686   4.613 -0.5144  0.0917  0.3267
 1280SOL     OW 4891   4.256   4.829   2.219  0.7707  0.1093 -0.1184
 1280SOL    HW2 4892   4.231   4.814   2.310  0.7137  1.4057  0.0986
 1280SOL    HW3 4893   4.221   4.916   2.198  0.6256 -0.2377 -1.4404
 1280SOL    MW4 4894   4.248   4.838   2.228  0.7440  0.2345 -0.2642
 1281SOL     OW 4895   5.150   3.369   4.111  0.0810  0.0047  0.0000
 1281SOL    HW2 4896   5.131   3.312   4.036  0.0925  0.3168 -0.2431
 1281SOL    HW3 4897   5.207   3.317   4.167 -0.2850 -0.3949  0.0095
 1281SOL    MW4 4898   5.155   3.355   4.108  0.0343 -0.0068 -0.0308
 1282SOL     OW 4899   0.413   3.634   0.024  0.6021 -0.0734 -0.4966
 1282SOL    HW2 4900   0.407   3.721  -0.016 -0.4978 -0.4753 -1.2339
 1282SOL    HW3 4901   0.491   3.595  -0.017  1.2287  0.6234 -0.0045
 1282SOL    MW4 4902   0.423   3.640   0.013  0.5397 -0.0345 -0.5289
 1283SOL     OW 4903   1.195   3.868   3.387 -0.1183  0.2330  0.3390
 1283SOL    HW2 4904   1.145   3.921   3.449 -0.7200 -0.8135  0.7643
 1283SOL    HW3 4905   1.203   3.782   3.429 -0.7790 -0.5869 -1.1196
 1283SOL    MW4 4906   1.189   3.864   3.400 -0.2849 -0.0132  0.2026
 1284SOL     OW 4907   4.712   4.245   1.854 -0.0866 -0.1869 -0.2397
 1284SOL    HW2 4908   4.619   4.260   1.840 -0.0098 -0.5310 -1.1711
 1284SOL    HW3 4909   4.716   4.171   1.914 -0.4251  1.5594  2.1147
 1284SOL    MW4 4910   4.701   4.238   1.860 -0.1211 -0.0019 -0.0520
 1285SOL     OW 4911   5.544   2.544   3.586  0.7594 -0.2298 -0.5207
 1285SOL    HW2 4912   5.617   2.499   3.629 -0.9622 -0.7591  2.0415
 1285SOL    HW3 4913   5.467   2.491   3.606 -0.6409  1.3170 -1.5045
 1285SOL    MW4 4914   5.544   2.531   3.594  0.3475 -0.0955 -0.3125
 1286SOL     OW 4915   6.073   3.235   6.201  0.2034 -0.3080 -0.2327
 1286SOL    HW2 4916   6.062   3.170   6.132  1.7187 -0.3639 -0.4397
 1286SOL    HW3 4917   6.165   3.258   6.199 -0.5101  2.9406 -1.1249
 1286SOL    MW4 4918   6.083   3.230   6.192  0.3092  0.1132 -0.3778
 1287SOL     OW 4919   1.495   2.227   6.030 -0.2124 -0.2731 -0.0126
 1287SOL    HW2 4920   1.531   2.313   6.052  0.3779 -0.5359  0.0702
 1287SOL    HW3 4921   1.502   2.222   5.935 -1.3202  0.2312 -0.1353
 1287SOL    MW4 4922   1.500   2.237   6.020 -0.2806 -0.2413 -0.0179
 1288SOL     OW 4923   5.107   1.568   3.218 -0.1741  0.0976 -0.0150
 1288SOL    HW2 4924   5.196   1.559   3.184 -0.1343  0.8390 -0.1192
 1288SOL    HW3 4925   5.083   1.479   3.245  0.7193 -0.0461  0.3312
 1288SOL    MW4 4926   5.115   1.555   3.217 -0.0510  0.1765  0.0169
 1289SOL     OW 4927   1.834   1.125   0.707 -0.3933  0.0264 -0.4943
 1289SOL    HW2 4928   1.798   1.203   0.664  0.4545  0.2875 -0.7511
 1289SOL    HW3 4929   1.769   1.103   0.774 -1.8522 -0.5013 -2.0121
 1289SOL    MW4 4930   1.820   1.132   0.710 -0.4739 -0.0088 -0.7285
 1290SOL     OW 4931   1.224   4.703   3.495  0.0395 -0.2278 -0.0669
 1290SOL    HW2 4932   1.290   4.659   3.548 -0.9289 -3.7362 -1.4610
 1290SOL    HW3 4933   1.250   4.687   3.405 -1.7224 -0.1308 -0.6435
 1290SOL    MW4 4934   1.236   4.695   3.490 -0.3207 -0.6779 -0.3269
 1291SOL     OW 4935   1.767   1.538   3.520 -0.1986  0.2818 -0.1026
 1291SOL    HW2 4936   1.782   1.469   3.455  0.2905 -1.0968  1.4080
 1291SOL    HW3 4937   1.813   1.508   3.598 -1.1263  1.6741  1.0324
 1291SOL    MW4 4938   1.775   1.525   3.522 -0.2565  0.2836  0.2464
 1292SOL     OW 4939   5.242   1.962   1.417  0.8273 -0.2469 -0.0106
 1292SOL    HW2 4940   5.254   1.882   1.366 -0.6987 -2.1447  2.4295
 1292SOL    HW3 4941   5.321   1.968   1.471  1.6031  0.7568 -1.2038
 1292SOL    MW4 4942   5.254   1.952   1.417  0.7283 -0.3649  0.1539
 1293SOL     OW 4943   0.213   1.304   2.416 -0.0720 -0.0937 -0.2708
 1293SOL    HW2 4944   0.197   1.244   2.342 -0.4384 -0.4843  0.1167
 1293SOL    HW3 4945   0.127   1.337   2.439 -0.1521 -1.0327  0.8572
 1293SOL    MW4 4946   0.200   1.300   2.409 -0.1309 -0.2691 -0.0709
 1294SOL     OW 4947   4.444   5.611   3.163 -0.0784  0.0099 -0.5282
 1294SOL    HW2 4948   4.412   5.644   3.080 -0.9053  1.5462  0.3496
 1294SOL    HW3 4949   4.425   5.517   3.161 -0.0859  0.0326 -2.0473
 1294SOL    MW4 4950   4.437   5.603   3.152 -0.1885  0.2156 -0.6128
 1295SOL     OW 4951   1.480   3.750   5.417  0.1793 -0.1444 -0.1078
 1295SOL    HW2 4952   1.503   3.840   5.442  0.5302 -0.1999 -0.2129
 1295SOL    HW3 4953   1.388   3.741   5.439 -0.0356  0.4690 -0.7325
 1295SOL    MW4 4954   1.471   3.761   5.423  0.1972 -0.0708 -0.2041
 1296SOL     OW 4955   2.786   2.209   4.020  0.3034 -0.0739  0.3472
 1296SOL    HW2 4956   2.876   2.180   4.035  0.0949 -1.1312 -0.3346
 1296SOL    HW3 4957   2.779   2.220   3.925 -0.6806 -1.4349  0.2263
 1296SOL    MW4 4958   2.797   2.206   4.010  0.1461 -0.3930  0.2413
 1297SOL     OW 4959   3.078   5.821   2.626 -0.9136  0.3705  0.0643
 1297SOL    HW2 4960   3.096   5.895   2.684  0.3497  1.8077 -2.0602
 1297SOL    HW3 4961   3.116   5.845   2.542  1.5746 -3.5872 -0.2322
 1297SOL    MW4 4962   3.085   5.834   2.623 -0.4187  0.0379 -0.2551
 1298SOL     OW 4963   2.687   2.201   5.301 -0.5204 -0.6196  0.3010
 1298SOL    HW2 4964   2.691   2.169   5.212  0.7536 -0.9886  0.4601
 1298SOL    HW3 4965   2.595   2.219   5.317 -1.0184 -2.3079 -0.4630
 1298SOL    MW4 4966   2.676   2.199   5.292 -0.4180 -0.8911  0.2212
 1299SOL     OW 4967   0.648   0.561   2.592 -0.4853 -0.0470 -0.3535
 1299SOL    HW2 4968   0.578   0.602   2.541 -0.3018 -1.6662 -1.9879
 1299SOL    HW3 4969   0.704   0.634   2.617 -0.5425  0.8348 -2.5651
 1299SOL    MW4 4970   0.646   0.576   2.589 -0.4686 -0.1443 -0.8609
 1300SOL     OW 4971   3.238   4.889   6.410 -0.0655  0.1958 -0.0256
 1300SOL    HW2 4972   3.215   4.955   6.345  0.3794  0.4390  0.0605
 1300SOL    HW3 4973   3.225   4.932   6.494 -1.7552 -0.4835  0.0923
 1300SOL    MW4 4974   3.233   4.903   6.413 -0.2297  0.1382  0.0013
 1301SOL     OW 4975   4.077   1.548   1.940  0.2058 -0.0837 -0.4828
 1301SOL    HW2 4976   4.065   1.542   1.845 -1.5372 -0.0433 -0.2958
 1301SOL    HW3 4977   3.994   1.519   1.977  1.4728 -1.9653  1.1152
 1301SOL    MW4 4978   4.064   1.543   1.932  0.1430 -0.3266 -0.2473
 1302SOL     OW 4979   5.798   6.387   0.138  0.0095 -0.3800  0.1047
 1302SOL    HW2 4980   5.820   6.421   0.225 -0.9044 -1.4086  0.7608
 1302SOL    HW3 4981   5.735   6.318   0.155 -0.5007 -0.3137 -1.4229
 1302SOL    MW4 4982   5.793   6.383   0.152 -0.1784 -0.5070 -0.0103
 1303SOL     OW 4983   1.164   1.674   3.614 -0.5906 -0.1565  0.4195
 1303SOL    HW2 4984   1.248   1.637   3.585 -1.2710 -0.3419 -1.4360
 1303SOL    HW3 4985   1.174   1.768   3.600 -0.9177 -0.2457 -0.4637
 1303SOL    MW4 4986   1.177   1.682   3.608 -0.7235 -0.1928  0.0582
 1304SOL     OW 4987   5.175   2.091   1.188 -0.0699  0.1076 -0.4440
 1304SOL    HW2 4988   5.230   2.068   1.114 -0.2022  0.9196 -0.8088
 1304SOL    HW3 4989   5.212   2.041   1.262 -0.1027 -0.9044 -1.0957
 1304SOL    MW4 4990   5.187   2.082   1.188 -0.0917  0.0812 -0.5781
 1305SOL     OW 4991   5.170   2.726   3.823 -0.0185  0.1254  0.4354
 1305SOL    HW2 4992   5.113   2.702   3.750  0.1680 -0.2308  0.4049
 1305SOL    HW3 4993   5.258   2.730   3.785  0.0343  0.2669  0.5699
 1305SOL    MW4 4994   5.174   2.724   3.809  0.0131  0.0971  0.4491
 1306SOL     OW 4995   3.909   5.161   1.386 -0.3111  0.2302 -0.2743
 1306SOL    HW2 4996   3.873   5.103   1.319 -0.1565 -0.4708  0.2410
 1306SOL    HW3 4997   3.914   5.107   1.464  0.1635  0.8422  0.1263
 1306SOL    MW4 4998   3.905   5.147   1.387 -0.2281  0.2185 -0.1535
 1307SOL     OW 4999   4.425   3.140   0.507  0.2581  0.0311 -0.1538
 1307SOL    HW2 5000   4.520   3.136   0.497  0.2878 -2.6918  0.4777
 1307SOL    HW3 5001   4.410   3.210   0.571  2.0398 -0.9432  1.4216
 1307SOL    MW4 5002   4.436   3.149   0.514  0.4971 -0.4567  0.1373
 1308SOL     OW 5003   0.588   0.124   2.036 -0.2217  0.2749 -0.5042
 1308SOL    HW2 5004   0.521   0.163   2.093  1.3988  2.6243 -0.0749
 1308SOL    HW3 5005   0.566   0.155   1.949  0.5631  1.4963 -0.2874
 1308SOL    MW4 5006   0.576   0.133   2.032  0.0957  0.7460 -0.4190
 1309SOL     OW 5007   2.333   1.941   3.758 -0.1771  0.4518  0.0814
 1309SOL    HW2 5008   2.426   1.951   3.777  0.5743 -3.6574 -0.4924
 1309SOL    HW3 5009   2.327   1.951   3.663 -0.0633 -0.6245 -0.0436
 1309SOL    MW4 5010   2.344   1.944   3.748 -0.0630 -0.2324 -0.0108
 1310SOL     OW 5011   4.749   0.095   6.355 -0.3153  0.2003 -0.0223
 1310SOL    HW2 5012   4.825   0.152   6.368 -0.6141  0.7769 -0.7468
 1310SOL    HW3 5013   4.675   0.145   6.390 -0.6451  0.4495 -1.0391
 1310SOL    MW4 5014   4.749   0.109   6.361 -0.3982  0.3093 -0.2521
 1311SOL     OW 5015   5.866   5.114   2.984  0.2277 -0.0543  0.1478
 1311SOL    HW2 5016   5.833   5.174   2.917  0.4253  0.6758  0.6870
 1311SOL    HW3 5017   5.843   5.027   2.952  0.0693  0.2973 -0.7263
 1311SOL    MW4 5018   5.859   5.111   2.971  0.2329  0.0884  0.1036
 1312SOL     OW 5019   0.327   3.182   3.476  0.2932  0.1290  0.9439
 1312SOL    HW2 5020   0.375   3.108   3.513  0.1747  0.9463  2.8828
 1312SOL    HW3 5021   0.394   3.235   3.432  0.1989 -1.6758 -1.5253
 1312SOL    MW4 5022   0.342   3.179   3.475  0.2651 -0.0013  0.8739
 1313SOL     OW 5023   1.691   0.123   1.999 -0.1669  0.3788 -0.2381
 1313SOL    HW2 5024   1.725   0.034   1.985 -1.3905 -0.0648 -0.5100
 1313SOL    HW3 5025   1.765   0.180   1.976 -0.0956 -0.5079 -2.4934
 1313SOL    MW4 5026   1.705   0.119   1.994 -0.3189  0.2033 -0.5715
 1314SOL     OW 5027   2.673   4.317   5.706 -0.2758  0.3658  0.1388
 1314SOL    HW2 5028   2.725   4.348   5.631 -1.9550 -0.0630 -1.2880
 1314SOL    HW3 5029   2.668   4.392   5.765  1.5743  0.5350  0.1232
 1314SOL    MW4 5030   2.679   4.331   5.704 -0.2532  0.3315 -0.0515
 1315SOL     OW 5031   2.031   1.264   1.508 -0.4021 -0.8757  0.5283
 1315SOL    HW2 5032   2.059   1.251   1.418  0.3942 -0.1540  0.6673
 1315SOL    HW3 5033   1.958   1.202   1.519 -2.4851  1.0413 -1.4888
 1315SOL    MW4 5034   2.025   1.254   1.498 -0.5718 -0.5276  0.2805
 1316SOL     OW 5035   2.135   2.763   0.651 -0.3575 -0.1802  0.1408
 1316SOL    HW2 5036   2.049   2.803   0.643 -0.8214 -1.1321  0.2328
 1316SOL    HW3 5037   2.181   2.787   0.571 -1.0013 -0.3525 -0.2846
 1316SOL    MW4 5038   2.130   2.772   0.640 -0.5037 -0.3285  0.0968
 1317SOL     OW 5039   4.275   2.987   4.148  0.3487  0.3179 -0.6794
 1317SOL    HW2 5040   4.271   2.982   4.052  0.7965 -1.8462 -0.6300
 1317SOL    HW3 5041   4.317   2.905   4.175  1.5974  1.5255  1.3102
 1317SOL    MW4 5042   4.280   2.976   4.139  0.5726  0.1917 -0.4104
 1318SOL     OW 5043   0.012   0.183   4.331  0.2228  0.1411 -0.0745
 1318SOL    HW2 5044  -0.044   0.195   4.407 -0.3538  0.6560 -0.5642
 1318SOL    HW3 5045   0.097   0.158   4.367  0.1220  0.9562  0.7808
 1318SOL    MW4 5046   0.016   0.182   4.346  0.1334  0.3166 -0.0263
 1319SOL     OW 5047   1.109   0.430   3.231 -0.2070  0.6329  0.1049
 1319SOL    HW2 5048   1.141   0.511   3.270 -2.0317  0.6449  1.6974
 1319SOL    HW3 5049   1.155   0.360   3.277 -1.8929  0.6688  1.9652
 1319SOL    MW4 5050   1.119   0.431   3.242 -0.6702  0.6392  0.5604
 1320SOL     OW 5051   3.562   5.230   5.797 -0.6030  0.4951  0.2511
 1320SOL    HW2 5052   3.486   5.283   5.777 -0.2178  0.6192 -0.9273
 1320SOL    HW3 5053   3.548   5.148   5.749 -0.4856  0.1102  0.8604
 1320SOL    MW4 5054   3.550   5.226   5.788 -0.5367  0.4607  0.1760
 1321SOL     OW 5055   2.789   5.329   3.721  0.2778 -0.0266  0.0587
 1321SOL    HW2 5056   2.862   5.323   3.659  0.2763 -0.2148  0.0751
 1321SOL    HW3 5057   2.769   5.422   3.724 -1.5125 -0.2414 -2.3255
 1321SOL    MW4 5058   2.796   5.340   3.713  0.0414 -0.0798 -0.2537
 1322SOL     OW 5059   5.946   2.551   3.055 -0.2787  0.1543 -0.2174
 1322SOL    HW2 5060   6.015   2.494   3.021  1.0488  1.1387  0.7224
 1322SOL    HW3 5061   5.871   2.493   3.066  0.7251 -1.2061 -0.2153
 1322SOL    MW4 5062   5.945   2.536   3.052  0.0289  0.1047 -0.0931
 1323SOL     OW 5063   3.407   4.329   4.087  0.2728 -0.0024 -0.1577
 1323SOL    HW2 5064   3.416   4.368   4.174  3.2404 -0.6254 -0.0683
 1323SOL    HW3 5065   3.422   4.401   4.026 -0.0743  0.1108 -0.1062
 1323SOL    MW4 5066   3.410   4.343   4.091  0.6185 -0.0697 -0.1391
 1324SOL     OW 5067   4.228   3.148   4.468  0.0373  0.5001 -0.1254
 1324SOL    HW2 5068   4.305   3.201   4.448  0.5788 -0.2655 -0.1076
 1324SOL    HW3 5069   4.160   3.182   4.410  0.6395  0.5777 -0.8058
 1324SOL    MW4 5070   4.229   3.159   4.458  0.1882  0.4093 -0.2128
 1325SOL     OW 5071   5.849   3.537   1.199  0.0538 -0.6995 -0.2242
 1325SOL    HW2 5072   5.869   3.614   1.253  0.4698 -1.7888  1.2670
 1325SOL    HW3 5073   5.788   3.486   1.253 -1.2347 -0.8201 -1.7316
 1325SOL    MW4 5074   5.844   3.540   1.213 -0.0613 -0.8591 -0.2263
 1326SOL     OW 5075   1.052   4.282   1.336  0.1937 -0.2496  0.9634
 1326SOL    HW2 5076   1.121   4.233   1.291 -0.6138 -0.9003  0.3965
 1326SOL    HW3 5077   1.002   4.214   1.383 -0.1796  0.1925  1.2091
 1326SOL    MW4 5078   1.055   4.266   1.337  0.0379 -0.2771  0.9210
 1327SOL     OW 5079   6.246   5.661   2.258 -0.7019  0.4085 -0.0763
 1327SOL    HW2 5080   6.226   5.750   2.228  0.6609  0.9971  0.6612
 1327SOL    HW3 5081   6.253   5.668   2.353  1.0415 -0.1082 -0.1247
 1327SOL    MW4 5082   6.244   5.674   2.266 -0.2921  0.4180  0.0146
 1328SOL     OW 5083   3.356   4.751   2.819 -0.3412 -0.1024 -0.3864
 1328SOL    HW2 5084   3.393   4.695   2.750  0.6704  0.2588 -0.1632
 1328SOL    HW3 5085   3.382   4.840   2.794 -0.5240  0.0994  0.1238
 1328SOL    MW4 5086   3.364   4.755   2.807 -0.2318 -0.0281 -0.2896
 1329SOL     OW 5087   2.990   3.138   1.267  0.4484 -0.3602  0.2988
 1329SOL    HW2 5088   3.059   3.125   1.332  1.6065 -1.6916 -1.1231
 1329SOL    HW3 5089   2.982   3.054   1.223 -0.0910  0.5520 -1.4601
 1329SOL    MW4 5090   2.998   3.125   1.270  0.5300 -0.4155 -0.1209
 1330SOL     OW 5091   0.874   3.648   2.501  0.1364 -0.2649 -0.3719
 1330SOL    HW2 5092   0.929   3.711   2.548 -0.3917 -0.1971  0.1727
 1330SOL    HW3 5093   0.852   3.582   2.567 -2.5606  1.0410  0.1987
 1330SOL    MW4 5094   0.878   3.647   2.516 -0.2891 -0.0837 -0.2247
 1331SOL     OW 5095   2.415   5.100   6.027 -0.8936  0.0686  0.3145
 1331SOL    HW2 5096   2.431   5.074   6.118  0.7560  0.2230  0.0948
 1331SOL    HW3 5097   2.384   5.020   5.984 -1.0534 -0.1700  0.8649
 1331SOL    MW4 5098   2.413   5.086   6.034 -0.6971  0.0575  0.3581
 1332SOL     OW 5099   5.021   3.434   2.455 -0.1280  0.1073  0.0360
 1332SOL    HW2 5100   5.007   3.497   2.385 -0.7327 -0.5195 -0.4194
 1332SOL    HW3 5101   4.942   3.380   2.455  0.1537 -0.3226  0.7612
 1332SOL    MW4 5102   5.009   3.435   2.446 -0.1706 -0.0321  0.0716
 1333SOL     OW 5103   1.444   4.253   4.537  0.8165  0.0644  0.5508
 1333SOL    HW2 5104   1.440   4.168   4.580 -2.9152  0.8833  2.2470
 1333SOL    HW3 5105   1.477   4.313   4.605  1.7041  0.3055 -0.0700
 1333SOL    MW4 5106   1.448   4.250   4.552  0.4412  0.2043  0.6927
 1334SOL     OW 5107   2.179   2.882   4.068  0.1443 -0.0176  0.1925
 1334SOL    HW2 5108   2.163   2.862   4.160 -2.9910  0.5497 -0.1366
 1334SOL    HW3 5109   2.190   2.797   4.027 -0.5750 -0.3893  0.7536
 1334SOL    MW4 5110   2.178   2.869   4.075 -0.3643  0.0082  0.2232
 1335SOL     OW 5111   1.134   6.388   1.643 -0.8023 -0.1075  0.8903
 1335SOL    HW2 5112   1.092   6.302   1.640 -0.4049 -0.2829 -1.8935
 1335SOL    HW3 5113   1.063   6.450   1.630 -0.5888 -0.2836 -1.3983
 1335SOL    MW4 5114   1.119   6.385   1.641 -0.7217 -0.1539  0.2211
 1336SOL     OW 5115   3.854   4.080   3.977  0.4950  0.1173  0.1003
 1336SOL    HW2 5116   3.910   4.019   4.026 -0.5680 -1.9551 -1.1598
 1336SOL    HW3 5117   3.902   4.097   3.896 -1.0001 -2.5455 -1.4971
 1336SOL    MW4 5118   3.868   4.074   3.973  0.1575 -0.5074 -0.2767
 1337SOL     OW 5119   3.772   3.957   6.071  0.2590 -0.4768  0.0880
 1337SOL    HW2 5120   3.842   4.022   6.066  0.6926 -0.6026  3.0402
 1337SOL    HW3 5121   3.715   3.978   5.997  1.6508  1.7089 -0.4535
 1337SOL    MW4 5122   3.774   3.968   6.060  0.4998 -0.2050  0.4061
 1338SOL     OW 5123   0.727   4.072   4.134 -0.1168  0.7210  0.8647
 1338SOL    HW2 5124   0.739   4.167   4.131  0.3244  0.6953  1.5308
 1338SOL    HW3 5125   0.788   4.043   4.202  1.4555 -0.3009 -0.8911
 1338SOL    MW4 5126   0.737   4.081   4.142  0.1488  0.5828  0.7210
 1339SOL     OW 5127   0.010   4.990   5.174  0.3168  0.4141 -0.0231
 1339SOL    HW2 5128  -0.037   4.955   5.099  1.3499 -1.6056  0.2187
 1339SOL    HW3 5129   0.007   4.921   5.239  1.0271  1.4129  1.1082
 1339SOL    MW4 5130   0.004   4.977   5.172  0.5468  0.2794  0.1581
 1340SOL     OW 5131   0.135   1.461   4.558 -0.3926 -0.2025 -0.2435
 1340SOL    HW2 5132   0.063   1.401   4.575 -0.7135  0.0885 -0.5544
 1340SOL    HW3 5133   0.142   1.514   4.637 -0.1545 -0.5957  0.0038
 1340SOL    MW4 5134   0.127   1.460   4.570 -0.4035 -0.2160 -0.2519
 1341SOL     OW 5135   5.948   4.861   4.778 -0.1532 -0.0821 -0.1112
 1341SOL    HW2 5136   6.036   4.862   4.816 -0.1644  1.2026 -0.0588
 1341SOL    HW3 5137   5.962   4.837   4.686  0.1314 -0.8876  0.1361
 1341SOL    MW4 5138   5.962   4.858   4.771 -0.1171 -0.0189 -0.0717
 1342SOL     OW 5139   3.649   5.985   1.939  0.4046 -0.4932 -0.0475
 1342SOL    HW2 5140   3.736   5.973   1.976 -0.0086 -1.2729  0.6948
 1342SOL    HW3 5141   3.589   5.954   2.007 -0.4722  0.3721 -0.3960
 1342SOL    MW4 5142   3.652   5.980   1.953  0.2344 -0.4819  0.0045
 1343SOL     OW 5143   2.099   0.314   6.175 -0.5067  0.4407  0.1707
 1343SOL    HW2 5144   2.186   0.274   6.174 -1.2813 -1.3801  0.9003
 1343SOL    HW3 5145   2.073   0.311   6.267 -1.7913 -0.1189 -0.1912
 1343SOL    MW4 5146   2.107   0.308   6.187 -0.7784  0.1266  0.2192
 1344SOL     OW 5147   1.365   0.768   0.911 -0.3197  0.3294 -0.5475
 1344SOL    HW2 5148   1.334   0.686   0.874 -2.0574  0.5058  0.4183
 1344SOL    HW3 5149   1.446   0.745   0.956 -1.9372 -1.4352  1.7293
 1344SOL    MW4 5150   1.372   0.754   0.912 -0.7624  0.1199 -0.1197
 1345SOL     OW 5151   4.710   1.594   4.557 -0.6384 -0.1520  0.0811
 1345SOL    HW2 5152   4.644   1.622   4.620 -0.4687 -1.6170  0.9688
 1345SOL    HW3 5153   4.713   1.499   4.566  1.1515 -0.1866 -0.3599
 1345SOL    MW4 5154   4.702   1.585   4.566 -0.3799 -0.3499  0.1401
 1346SOL     OW 5155   6.417   5.958   2.871  0.3632  0.2285  0.1334
 1346SOL    HW2 5156   6.399   5.939   2.963 -0.4202 -0.5008 -0.1612
 1346SOL    HW3 5157   6.432   5.872   2.831  1.7802  0.6080 -0.2108
 1346SOL    MW4 5158   6.417   5.944   2.878  0.4468  0.1824  0.0491
 1347SOL     OW 5159   4.461   2.302   5.390 -0.5827 -0.3173  0.1577
 1347SOL    HW2 5160   4.422   2.375   5.438  0.8248 -0.5092  1.6870
 1347SOL    HW3 5161   4.507   2.344   5.317  0.5050  0.4217  1.2130
 1347SOL    MW4 5162   4.462   2.317   5.387 -0.2535 -0.2451  0.4987
 1348SOL     OW 5163   4.615   6.215   3.788 -0.3745 -0.2417  0.0593
 1348SOL    HW2 5164   4.676   6.261   3.731 -0.2076  0.3443  0.6914
 1348SOL    HW3 5165   4.657   6.217   3.874 -0.1565 -1.9743  0.0159
 1348SOL    MW4 5166   4.628   6.222   3.792 -0.3237 -0.3930  0.1370
 1349SOL     OW 5167   5.718   1.485   1.743 -0.4008  0.7321 -0.1009
 1349SOL    HW2 5168   5.655   1.489   1.671  2.3779  0.2131 -2.7458
 1349SOL    HW3 5169   5.703   1.566   1.793 -3.8488  0.0761  0.1473
 1349SOL    MW4 5170   5.708   1.497   1.740 -0.4891  0.5771 -0.4171
 1350SOL     OW 5171   4.151   5.123   1.262 -0.2439  0.9004 -0.3217
 1350SOL    HW2 5172   4.222   5.159   1.314 -0.1965 -1.5674  1.5158
 1350SOL    HW3 5173   4.077   5.118   1.323  0.0629 -2.8940 -0.0233
 1350SOL    MW4 5174   4.151   5.127   1.277 -0.1972  0.0741 -0.0399
 1351SOL     OW 5175   4.731   3.966   1.865 -0.3179 -0.7295  0.2957
 1351SOL    HW2 5176   4.734   3.957   1.770 -0.3320 -0.6191  0.2852
 1351SOL    HW3 5177   4.647   3.928   1.891 -0.7049  0.0375  0.1807
 1351SOL    MW4 5178   4.720   3.959   1.856 -0.3708 -0.6138  0.2791
 1352SOL     OW 5179   6.040   5.098   6.206  0.2624 -0.5113  0.1362
 1352SOL    HW2 5180   6.127   5.059   6.198 -0.2191 -1.3308 -1.5238
 1352SOL    HW3 5181   6.002   5.056   6.284  1.7144  0.7098  1.5975
 1352SOL    MW4 5182   6.046   5.087   6.216  0.3904 -0.4583  0.1100
 1353SOL     OW 5183   3.296   0.089   3.240  0.1537 -0.3612  0.0532
 1353SOL    HW2 5184   3.320   0.033   3.314  0.0779 -2.5223 -1.4525
 1353SOL    HW3 5185   3.329   0.176   3.264 -1.1305 -0.6028  3.2027
 1353SOL    MW4 5186   3.304   0.093   3.253 -0.0257 -0.6782  0.2701
 1354SOL     OW 5187   2.435   4.885   2.154  0.3161 -0.4448 -0.1507
 1354SOL    HW2 5188   2.382   4.956   2.119  1.2602  0.8619  0.9241
 1354SOL    HW3 5189   2.373   4.829   2.201 -0.4168 -0.2162 -0.8304
 1354SOL    MW4 5190   2.420   4.887   2.156  0.3440 -0.2422 -0.0986
 1355SOL     OW 5191   4.651   0.419   3.449 -0.3731 -0.0133  0.1318
 1355SOL    HW2 5192   4.711   0.367   3.502  0.8323  0.7466 -0.4431
 1355SOL    HW3 5193   4.564   0.383   3.469  0.2123 -0.8468  1.3137
 1355SOL    MW4 5194   4.647   0.407   3.458 -0.1369 -0.0230  0.2119
 1356SOL     OW 5195   5.322   4.225   1.704 -0.0429  0.1079  0.1911
 1356SOL    HW2 5196   5.366   4.176   1.773 -0.3922  1.2794  1.2750
 1356SOL    HW3 5197   5.358   4.190   1.623  1.7139 -0.0566  1.0054
 1356SOL    MW4 5198   5.332   4.214   1.702  0.1428  0.2408  0.4415
 1357SOL     OW 5199   4.072   2.164   4.048 -0.3388 -0.1735 -0.4713
 1357SOL    HW2 5200   4.060   2.194   4.138 -0.2946  0.9949 -0.8293
 1357SOL    HW3 5201   3.999   2.104   4.033 -1.1089  0.6285 -0.0667
 1357SOL    MW4 5202   4.061   2.160   4.058 -0.4345  0.0865 -0.4652
 1358SOL     OW 5203   4.947   4.664   5.597  0.0492 -0.4281  0.0682
 1358SOL    HW2 5204   5.002   4.645   5.521 -0.4436 -1.5815 -0.0267
 1358SOL    HW3 5205   4.952   4.759   5.608 -0.8244 -0.0596 -2.1723
 1358SOL    MW4 5206   4.955   4.674   5.588 -0.1311 -0.5317 -0.2400
 1359SOL     OW 5207   2.996   4.971   1.715 -0.1811  0.0299 -0.2264
 1359SOL    HW2 5208   3.081   5.015   1.711  0.3938 -1.0510 -0.2253
 1359SOL    HW3 5209   3.012   4.884   1.678 -0.8042 -0.9062  1.5712
 1359SOL    MW4 5210   3.010   4.966   1.709 -0.1875 -0.2362  0.0109
 1360SOL     OW 5211   5.627   0.157   4.994  0.1008  0.2917 -0.4461
 1360SOL    HW2 5212   5.575   0.076   4.993 -0.6563  0.6594  2.0535
 1360SOL    HW3 5213   5.618   0.192   4.905 -2.0071 -0.8833 -0.7711
 1360SOL    MW4 5214   5.619   0.151   4.982 -0.2772  0.1852 -0.1592
 1361SOL     OW 5215   0.765   3.339   3.531  0.4374  0.3459 -0.5795
 1361SOL    HW2 5216   0.760   3.246   3.552 -2.1911  0.4364 -0.4330
 1361SOL    HW3 5217   0.817   3.343   3.451 -0.7120 -1.4372 -1.4765
 1361SOL    MW4 5218   0.771   3.327   3.523 -0.0611  0.1226 -0.6785
 1362SOL     OW 5219   6.249   3.301   5.854  0.5999 -0.2718 -0.0788
 1362SOL    HW2 5220   6.245   3.216   5.900 -0.4603 -0.5406 -0.6298
 1362SOL    HW3 5221   6.274   3.279   5.765 -2.8239 -0.4631 -1.1427
 1362SOL    MW4 5222   6.252   3.287   5.849  0.0083 -0.3325 -0.2919
 1363SOL     OW 5223   0.090   2.977   4.641  0.1451  0.7727  0.2800
 1363SOL    HW2 5224   0.150   3.014   4.706 -0.5103  1.3239  0.5803
 1363SOL    HW3 5225   0.030   3.048   4.620 -1.1221 -0.0815  0.8539
 1363SOL    MW4 5226   0.090   2.991   4.647 -0.1086  0.7328  0.3953
 1364SOL     OW 5227   6.118   6.340   2.440  0.1068 -0.0504 -0.6136
 1364SOL    HW2 5228   6.027   6.312   2.452 -0.3936  1.6473 -0.2334
 1364SOL    HW3 5229   6.113   6.410   2.375  1.0282  0.6694  0.0751
 1364SOL    MW4 5230   6.105   6.346   2.433  0.1624  0.2686 -0.4726
 1365SOL     OW 5231   2.996   0.538   2.913  0.5458  0.3230 -0.5273
 1365SOL    HW2 5232   2.934   0.611   2.910  1.8478  1.4500 -1.2241
 1365SOL    HW3 5233   2.949   0.469   2.959 -0.4038  1.9411  1.0945
 1365SOL    MW4 5234   2.981   0.539   2.919  0.5923  0.6852 -0.4053
 1366SOL     OW 5235   0.525   3.264   0.736  0.4939 -0.0431 -0.6542
 1366SOL    HW2 5236   0.576   3.345   0.733  0.6698 -0.1632 -0.9895
 1366SOL    HW3 5237   0.434   3.292   0.742  0.6188  0.1744  0.5139
 1366SOL    MW4 5238   0.520   3.278   0.737  0.5336 -0.0302 -0.5443
 1367SOL     OW 5239   5.558   2.672   2.152 -0.4339 -0.2045 -0.2157
 1367SOL    HW2 5240   5.565   2.620   2.232 -2.5936 -2.3662 -1.2987
 1367SOL    HW3 5241   5.469   2.709   2.156  0.5290  2.3038 -0.1906
 1367SOL    MW4 5242   5.547   2.670   2.163 -0.5918 -0.1588 -0.3553
 1368SOL     OW 5243   0.377   2.482   0.743 -0.1001  0.0737 -0.1949
 1368SOL    HW2 5244   0.411   2.564   0.777  0.6889  0.3023 -1.4643
 1368SOL    HW3 5245   0.362   2.500   0.650 -2.7514 -0.3233  0.0683
 1368SOL    MW4 5246   0.379   2.495   0.735 -0.3458  0.0515 -0.3277
 1369SOL     OW 5247   4.521   1.012   4.246 -0.0698  0.7404  0.0301
 1369SOL    HW2 5248   4.615   1.009   4.263 -0.3589  0.2733  1.6474
 1369SOL    HW3 5249   4.485   1.063   4.318 -1.0477  1.0521 -0.6639
 1369SOL    MW4 5250   4.529   1.018   4.257 -0.2370  0.7199  0.1519
 1370SOL     OW 5251   0.197   5.073   4.727 -0.0245 -0.3802  0.2904
 1370SOL    HW2 5252   0.206   5.149   4.669 -0.5615  0.2122  0.9722
 1370SOL    HW3 5253   0.116   5.089   4.776 -1.6913 -2.6720 -1.4493
 1370SOL    MW4 5254   0.188   5.085   4.726 -0.3153 -0.6044  0.1508
 1371SOL     OW 5255   2.619   5.532   1.711  0.0188  0.0104 -0.2005
 1371SOL    HW2 5256   2.586   5.614   1.749 -0.7366 -1.1431  1.7366
 1371SOL    HW3 5257   2.617   5.548   1.616  0.7421  2.5327  0.1254
 1371SOL    MW4 5258   2.614   5.545   1.703  0.0146  0.1910  0.0980
 1372SOL     OW 5259   0.973   5.011   0.579 -0.3701  0.2891  0.2481
 1372SOL    HW2 5260   1.030   4.970   0.644 -0.2912 -0.6005 -0.3622
 1372SOL    HW3 5261   0.950   4.940   0.520  0.3154  1.2749 -1.2536
 1372SOL    MW4 5262   0.977   4.996   0.580 -0.2692  0.3018 -0.0305
 1373SOL     OW 5263   0.925   5.933   6.126  0.0633  0.0729  0.2564
 1373SOL    HW2 5264   0.875   5.999   6.172 -1.4945  0.3387 -1.6936
 1373SOL    HW3 5265   0.890   5.849   6.158 -1.5539  0.2543 -0.8996
 1373SOL    MW4 5266   0.914   5.930   6.136 -0.3556  0.1319 -0.1534
 1374SOL     OW 5267   0.883   3.173   6.288  0.7108 -0.3712  0.2902
 1374SOL    HW2 5268   0.835   3.158   6.370  0.2857 -1.0335 -0.0684
 1374SOL    HW3 5269   0.922   3.088   6.267 -0.4753 -0.6400 -0.9979
 1374SOL    MW4 5270   0.882   3.160   6.296  0.4982 -0.4941  0.0730
 1375SOL     OW 5271   3.073   2.765   6.291 -0.4878 -0.2396  0.8009
 1375SOL    HW2 5272   3.164   2.794   6.287 -0.3222 -0.7151  1.1690
 1375SOL    HW3 5273   3.064   2.723   6.376 -0.7464 -1.2188  0.3045
 1375SOL    MW4 5274   3.084   2.764   6.302 -0.5000 -0.4315  0.7840
 1376SOL     OW 5275   1.589   2.899   4.967  0.1484 -0.1377 -0.6432
 1376SOL    HW2 5276   1.555   2.961   5.032  0.0064  0.0199 -0.8676
 1376SOL    HW3 5277   1.548   2.925   4.885  1.9823  1.0324 -1.2503
 1376SOL    MW4 5278   1.579   2.911   4.965  0.3716  0.0375 -0.7529
 1377SOL     OW 5279   5.116   4.908   3.282 -0.2010 -0.1966 -0.4818
 1377SOL    HW2 5280   5.194   4.856   3.299  0.1064 -0.1651 -1.6727
 1377SOL    HW3 5281   5.097   4.892   3.189 -0.8637  0.7823 -0.5263
 1377SOL    MW4 5282   5.124   4.899   3.272 -0.2479 -0.0633 -0.6448
 1378SOL     OW 5283   2.800   3.679   1.779 -0.2230 -0.1981 -0.1541
 1378SOL    HW2 5284   2.865   3.676   1.708 -1.0393  0.1345 -0.9320
 1378SOL    HW3 5285   2.739   3.608   1.759  0.5678 -1.3247  1.2607
 1378SOL    MW4 5286   2.801   3.669   1.767 -0.2264 -0.3029 -0.0701
 1379SOL     OW 5287   4.613   1.841   0.717  0.3965  0.3000 -0.0324
 1379SOL    HW2 5288   4.584   1.760   0.675  0.4125  0.3792 -0.1956
 1379SOL    HW3 5289   4.620   1.818   0.810  1.6682 -0.2532 -0.2404
 1379SOL    MW4 5290   4.610   1.827   0.724  0.5664  0.2374 -0.0814
 1380SOL     OW 5291   4.345   3.413   1.256 -0.7385  0.4591  0.7343
 1380SOL    HW2 5292   4.261   3.377   1.285 -0.8856  0.6770  0.5831
 1380SOL    HW3 5293   4.343   3.505   1.284 -0.8764  0.6689  0.0625
 1380SOL    MW4 5294   4.333   3.421   1.263 -0.7761  0.5155  0.6257
 1381SOL     OW 5295   3.343   5.396   1.116  0.3478  0.3368  0.2761
 1381SOL    HW2 5296   3.297   5.433   1.041 -1.4063 -0.6233  0.8100
 1381SOL    HW3 5297   3.299   5.312   1.132  0.4998  0.6038  2.4730
 1381SOL    MW4 5298   3.331   5.390   1.108  0.1364  0.2453  0.6364
 1382SOL     OW 5299   2.396   3.827   4.543 -0.8908  0.4688 -0.1087
 1382SOL    HW2 5300   2.357   3.784   4.467 -0.3918 -0.5984  0.2340
 1382SOL    HW3 5301   2.359   3.781   4.619  0.0537  0.2722  0.2474
 1382SOL    MW4 5302   2.386   3.815   4.543 -0.7003  0.3021 -0.0165
 1383SOL     OW 5303   5.406   2.243   3.566 -0.7952  0.4778  0.5803
 1383SOL    HW2 5304   5.452   2.219   3.646 -1.3362  1.5642  1.2314
 1383SOL    HW3 5305   5.472   2.238   3.497 -0.7329 -2.4097  0.7030
 1383SOL    MW4 5306   5.421   2.239   3.567 -0.8583  0.2402  0.6824
 1384SOL     OW 5307   4.961   4.056   0.703 -0.4067  0.5791  0.2067
 1384SOL    HW2 5308   4.883   4.001   0.701 -0.6069  0.8570 -1.7668
 1384SOL    HW3 5309   4.963   4.092   0.792 -2.5876  0.6496  0.2699
 1384SOL    MW4 5310   4.951   4.054   0.714 -0.7209  0.6250 -0.0453
 1385SOL     OW 5311   3.599   5.155   4.052 -0.1440 -0.8009 -0.3845
 1385SOL    HW2 5312   3.677   5.120   4.008 -0.5325  0.3572 -2.0894
 1385SOL    HW3 5313   3.565   5.221   3.992  0.2164  2.1675  2.3684
 1385SOL    MW4 5314   3.605   5.159   4.038 -0.1477 -0.2564 -0.2462
 1386SOL     OW 5315   0.402   2.751   6.067  0.4758  0.4615 -0.1126
 1386SOL    HW2 5316   0.435   2.838   6.045  1.0466 -0.3740 -2.9729
 1386SOL    HW3 5317   0.364   2.718   5.985 -1.3392 -1.3154  1.3426
 1386SOL    MW4 5318   0.402   2.758   6.053  0.3116  0.1168 -0.2980
 1387SOL     OW 5319   2.213   4.086   3.209 -0.1869  0.4286  0.1855
 1387SOL    HW2 5320   2.230   4.156   3.272  1.2508  0.3679 -0.1085
 1387SOL    HW3 5321   2.222   4.128   3.124  1.1665 -0.2069  0.0003
 1387SOL    MW4 5322   2.216   4.101   3.206  0.1814  0.3368  0.1223
 1388SOL     OW 5323   0.088   5.346   2.095  0.1082  0.2887  0.6083
 1388SOL    HW2 5324   0.037   5.360   2.175 -1.7473 -1.7764 -0.1114
 1388SOL    HW3 5325   0.026   5.362   2.024  1.7173  2.0488 -0.4828
 1388SOL    MW4 5326   0.073   5.350   2.096  0.0757  0.2485  0.3694
 1389SOL     OW 5327   3.304   4.233   0.960  0.0091 -0.0607 -0.1095
 1389SOL    HW2 5328   3.211   4.231   0.981  0.4358 -0.2961  1.8598
 1389SOL    HW3 5329   3.312   4.305   0.897 -1.2536  1.0837  0.9875
 1389SOL    MW4 5330   3.293   4.242   0.954 -0.1012  0.0592  0.2951
 1390SOL     OW 5331   1.176   2.766   4.897  0.2135  0.0661 -0.3626
 1390SOL    HW2 5332   1.246   2.797   4.840 -0.1063  0.3489 -0.6040
 1390SOL    HW3 5333   1.221   2.731   4.974  0.6501 -0.3609 -0.8064
 1390SOL    MW4 5334   1.191   2.765   4.900  0.2289  0.0470 -0.4530
 1391SOL     OW 5335   3.721   1.730   1.983  0.0414 -0.2162 -0.1282
 1391SOL    HW2 5336   3.688   1.666   2.047  0.1509 -0.7109 -0.5630
 1391SOL    HW3 5337   3.713   1.686   1.899 -1.3879  0.9380 -0.6328
 1391SOL    MW4 5338   3.716   1.715   1.981 -0.1328 -0.1292 -0.2521
 1392SOL     OW 5339   5.332   5.694   5.985 -0.5489 -0.1169  0.2623
 1392SOL    HW2 5340   5.243   5.729   5.989 -0.4243  0.1911  0.4290
 1392SOL    HW3 5341   5.324   5.612   5.937 -0.7438  0.4924 -0.7770
 1392SOL    MW4 5342   5.320   5.688   5.979 -0.5582  0.0042  0.1472
 1393SOL     OW 5343   2.739   0.178   2.841 -0.0397 -0.3433  0.0786
 1393SOL    HW2 5344   2.655   0.192   2.886  0.5737  0.0913  1.1547
 1393SOL    HW3 5345   2.739   0.241   2.769 -0.5593 -0.2002  0.2027
 1393SOL    MW4 5346   2.728   0.188   2.838 -0.0273 -0.2671  0.2369
 1394SOL     OW 5347   3.833   1.575   1.285 -0.3165  0.0991 -0.0311
 1394SOL    HW2 5348   3.793   1.635   1.348  0.6471  0.8409 -0.1142
 1394SOL    HW3 5349   3.922   1.607   1.273 -0.2007 -0.5549 -1.1004
 1394SOL    MW4 5350   3.839   1.587   1.292 -0.1741  0.1107 -0.1832
 1395SOL     OW 5351   2.154   6.336   2.923 -0.1529  0.5603  0.1936
 1395SOL    HW2 5352   2.102   6.305   2.998  1.5519 -0.6690  0.9344
 1395SOL    HW3 5353   2.089   6.364   2.859 -1.7356 -0.6059  1.2016
 1395SOL    MW4 5354   2.138   6.335   2.925 -0.1368  0.2443  0.4243
 1396SOL     OW 5355   1.048   2.506   2.252  0.2864  0.2250 -0.1197
 1396SOL    HW2 5356   1.068   2.598   2.233  0.7271 -0.0051 -0.7902
 1396SOL    HW3 5357   1.132   2.468   2.277 -0.0773  0.2461  1.2517
 1396SOL    MW4 5358   1.061   2.513   2.253  0.2965  0.1975 -0.0272
 1397SOL     OW 5359   4.541   4.079   5.733 -0.6415  0.1996  0.0012
 1397SOL    HW2 5360   4.478   4.016   5.769 -0.5765  0.0310 -0.1723
 1397SOL    HW3 5361   4.556   4.048   5.644 -1.4359  1.0903 -0.4572
 1397SOL    MW4 5362   4.535   4.066   5.726 -0.7377  0.2949 -0.0822
 1398SOL     OW 5363   3.872   6.109   0.082  0.0883 -0.2839 -0.4855
 1398SOL    HW2 5364   3.805   6.058   0.127  0.9564 -1.7427 -0.7759
 1398SOL    HW3 5365   3.949   6.103   0.138  0.1365  1.0156 -0.3676
 1398SOL    MW4 5366   3.874   6.102   0.095  0.2092 -0.3049 -0.5082
 1399SOL     OW 5367   0.764   3.387   5.123  0.0133  0.0850 -0.8147
 1399SOL    HW2 5368   0.857   3.366   5.126 -0.3195 -1.4942  1.7613
 1399SOL    HW3 5369   0.747   3.434   5.205 -1.0781  2.5883 -2.3319
 1399SOL    MW4 5370   0.774   3.391   5.134 -0.1746  0.2069 -0.6750
 1400SOL     OW 5371   5.843   5.229   0.004  0.4150 -0.0255 -0.3295
 1400SOL    HW2 5372   5.789   5.266   0.074 -1.5584 -1.7688 -0.8065
 1400SOL    HW3 5373   5.804   5.263  -0.077  0.0482 -1.2204 -0.6793
 1400SOL    MW4 5374   5.831   5.239   0.003  0.1062 -0.4132 -0.4386
 1401SOL     OW 5375   5.422   1.486   1.327  0.5593 -0.2264  0.1277
 1401SOL    HW2 5376   5.469   1.498   1.245  0.6359 -1.5068 -0.0423
 1401SOL    HW3 5377   5.364   1.412   1.311  1.0111 -0.8944  1.3979
 1401SOL    MW4 5378   5.421   1.478   1.314  0.6290 -0.4835  0.2728
 1402SOL     OW 5379   0.468   4.112   4.734  0.1438 -0.3704 -0.1817
 1402SOL    HW2 5380   0.469   4.192   4.681  0.0736  0.0743  0.4704
 1402SOL    HW3 5381   0.439   4.044   4.674 -2.7838  0.6174 -0.0395
 1402SOL    MW4 5382   0.464   4.114   4.719 -0.2517 -0.1814 -0.0769
 1403SOL     OW 5383   5.946   0.333   0.681 -0.0957 -0.6093  0.5306
 1403SOL    HW2 5384   6.009   0.280   0.632 -0.6185 -1.1448  0.4362
 1403SOL    HW3 5385   5.995   0.362   0.758 -0.5704 -3.5931  2.0922
 1403SOL    MW4 5386   5.961   0.330   0.685 -0.2273 -1.0736  0.7242
 1404SOL     OW 5387   1.638   1.282   4.440 -0.5178 -0.3919  0.2557
 1404SOL    HW2 5388   1.718   1.279   4.388  0.4944 -0.5829  1.7518
 1404SOL    HW3 5389   1.570   1.251   4.382  0.1333  1.5251 -1.6588
 1404SOL    MW4 5390   1.640   1.278   4.426 -0.2983 -0.1642  0.2005
 1405SOL     OW 5391   0.304   2.750   0.382 -0.0689  0.1962 -0.1899
 1405SOL    HW2 5392   0.251   2.775   0.458  0.8509  1.3810  0.1003
 1405SOL    HW3 5393   0.346   2.668   0.408 -1.0921 -0.2982 -0.0889
 1405SOL    MW4 5394   0.303   2.743   0.396 -0.0825  0.2873 -0.1383
 1406SOL     OW 5395   4.683   5.490   6.157  0.0632 -0.6610  0.2423
 1406SOL    HW2 5396   4.628   5.514   6.082 -1.7919 -2.4481  0.9467
 1406SOL    HW3 5397   4.635   5.519   6.234 -0.4367 -3.0669  0.9221
 1406SOL    MW4 5398   4.670   5.497   6.157 -0.2475 -1.2142  0.4249
 1407SOL     OW 5399   2.482   3.521   5.640 -0.4144  0.0378 -0.2619
 1407SOL    HW2 5400   2.490   3.560   5.728 -1.2479 -0.2775 -0.0412
 1407SOL    HW3 5401   2.435   3.587   5.589  0.0748  0.2231 -0.4788
 1407SOL    MW4 5402   2.477   3.535   5.645 -0.4598  0.0206 -0.2614
 1408SOL     OW 5403   6.109   4.201   6.289 -0.1804  0.0680 -0.0102
 1408SOL    HW2 5404   6.046   4.272   6.276 -0.9045 -0.3496  1.0907
 1408SOL    HW3 5405   6.062   4.122   6.260 -0.1343 -0.2258  0.6931
 1408SOL    MW4 5406   6.094   4.200   6.283 -0.2698 -0.0258  0.2279
 1409SOL     OW 5407   2.829   1.973   4.855  0.1060  0.8552 -0.4590
 1409SOL    HW2 5408   2.784   1.889   4.847  3.0328 -0.7550 -1.5233
 1409SOL    HW3 5409   2.810   2.018   4.773  0.2073  0.3119 -0.7845
 1409SOL    MW4 5410   2.820   1.968   4.843  0.5055  0.5711 -0.6424
 1410SOL     OW 5411   0.725   3.748   3.548  0.0439 -0.0780  1.3383
 1410SOL    HW2 5412   0.714   3.839   3.575 -3.3296 -0.1541  0.7053
 1410SOL    HW3 5413   0.751   3.753   3.456 -2.2924  0.4038  0.6159
 1410SOL    MW4 5414   0.727   3.761   3.539 -0.7094 -0.0245  1.1595
 1411SOL     OW 5415   5.913   4.031   3.440  0.2146 -0.1750  0.7138
 1411SOL    HW2 5416   5.999   3.991   3.456  1.5224  2.1946 -0.0291
 1411SOL    HW3 5417   5.929   4.125   3.442 -1.6878  0.3749 -2.8056
 1411SOL    MW4 5418   5.926   4.038   3.443  0.1362  0.2102  0.1514
 1412SOL     OW 5419   0.190   4.599   3.093  0.4529 -0.0058  0.1312
 1412SOL    HW2 5420   0.160   4.631   3.007 -1.6363 -0.1872  0.7409
 1412SOL    HW3 5421   0.166   4.669   3.154  2.6578  0.4893  0.5292
 1412SOL    MW4 5422   0.183   4.612   3.089  0.4681  0.0356  0.2641
 1413SOL     OW 5423   1.451   3.420   4.669  0.4012  0.1909 -0.0928
 1413SOL    HW2 5424   1.461   3.424   4.574  0.8567  1.4206 -0.0199
 1413SOL    HW3 5425   1.357   3.413   4.683  0.2860  0.6114 -0.6302
 1413SOL    MW4 5426   1.440   3.420   4.659  0.4461  0.4086 -0.1541
 1414SOL     OW 5427   1.524   6.233   1.400 -0.4863 -0.1113  0.0431
 1414SOL    HW2 5428   1.600   6.175   1.395 -0.3698  0.1312 -1.4417
 1414SOL    HW3 5429   1.449   6.175   1.393 -0.3880 -0.1920 -0.3846
 1414SOL    MW4 5430   1.524   6.218   1.398 -0.4580 -0.0899 -0.2093
 1415SOL     OW 5431   1.214   0.569   2.527  0.0693  0.4752 -0.0375
 1415SOL    HW2 5432   1.240   0.612   2.608  1.0491 -0.7943  0.3623
 1415SOL    HW3 5433   1.175   0.638   2.474  0.7274  1.6245  0.9356
 1415SOL    MW4 5434   1.212   0.584   2.531  0.2854  0.4594  0.1437
 1416SOL     OW 5435   0.452   1.663   2.165  0.1833 -0.5520 -0.6313
 1416SOL    HW2 5436   0.544   1.686   2.161  0.0017  0.3459  0.0211
 1416SOL    HW3 5437   0.433   1.623   2.080  1.0551 -0.2978 -0.9491
 1416SOL    MW4 5438   0.461   1.660   2.153  0.2743 -0.4000 -0.5872
 1417SOL     OW 5439   5.234   2.640   4.725  0.1022  0.5687 -0.0762
 1417SOL    HW2 5440   5.165   2.574   4.714 -0.0871  0.6842  0.4013
 1417SOL    HW3 5441   5.192   2.711   4.773  0.1815  1.2472 -0.9781
 1417SOL    MW4 5442   5.220   2.641   4.730  0.0877  0.6735 -0.1322
 1418SOL     OW 5443   5.201   2.420   5.132  0.5494 -0.0525 -0.3554
 1418SOL    HW2 5444   5.222   2.436   5.224  2.6489 -0.3882 -0.7259
 1418SOL    HW3 5445   5.118   2.464   5.119  0.6212  0.7356  1.4921
 1418SOL    MW4 5446   5.193   2.428   5.143  0.8359  0.0072 -0.1605
 1419SOL     OW 5447   0.711   2.467   5.266  0.3888  0.3990  0.3048
 1419SOL    HW2 5448   0.801   2.499   5.265  0.5322  0.0552  1.3194
 1419SOL    HW3 5449   0.668   2.516   5.195  1.6719 -0.3915 -1.0867
 1419SOL    MW4 5450   0.717   2.478   5.256  0.5770  0.2493  0.2551
 1420SOL     OW 5451   1.368   0.903   1.317  0.0820  0.8815 -0.2672
 1420SOL    HW2 5452   1.371   0.993   1.349  0.9078  0.5797  0.5609
 1420SOL    HW3 5453   1.460   0.880   1.302  0.2235 -0.7810  2.4189
 1420SOL    MW4 5454   1.380   0.912   1.320  0.2097  0.6224  0.1965
 1421SOL     OW 5455   5.859   2.421   1.911 -0.3425  0.4192  0.1407
 1421SOL    HW2 5456   5.815   2.355   1.965  1.1742  0.6323  1.7050
 1421SOL    HW3 5457   5.852   2.502   1.961  0.3459  0.8112 -0.3787
 1421SOL    MW4 5458   5.852   2.423   1.925 -0.0516  0.4990  0.2786
 1422SOL     OW 5459   2.182   4.765   4.792 -0.5578  0.4026 -0.1777
 1422SOL    HW2 5460   2.138   4.803   4.716 -1.1062 -0.8976 -0.5418
 1422SOL    HW3 5461   2.254   4.825   4.811 -1.5109  1.7154 -0.5817
 1422SOL    MW4 5462   2.186   4.778   4.784 -0.7559  0.4043 -0.2790
 1423SOL     OW 5463   5.522   3.893   0.529 -0.0467 -0.0614 -0.2681
 1423SOL    HW2 5464   5.501   3.803   0.553  1.4854 -0.5557 -0.6763
 1423SOL    HW3 5465   5.517   3.941   0.611 -0.9436 -0.4919 -0.0567
 1423SOL    MW4 5466   5.519   3.888   0.543  0.0371 -0.1834 -0.2941
 1424SOL     OW 5467   5.145   3.100   4.978 -0.3000 -0.4252  0.0204
 1424SOL    HW2 5468   5.233   3.085   4.942 -0.7777 -2.6555 -0.3373
 1424SOL    HW3 5469   5.153   3.183   5.024  2.2509 -0.9830  0.7636
 1424SOL    MW4 5470   5.158   3.109   4.979 -0.0264 -0.7931  0.0713
 1425SOL     OW 5471   3.535   4.554   3.121  0.0898  0.5472 -0.5832
 1425SOL    HW2 5472   3.562   4.482   3.179  1.8439  0.7619 -1.0621
 1425SOL    HW3 5473   3.617   4.600   3.101 -0.4565  0.5134 -3.1655
 1425SOL    MW4 5474   3.549   4.550   3.126  0.2492  0.5711 -0.9871
 1426SOL     OW 5475   2.720   2.547   4.266 -0.0917  0.5946 -0.0840
 1426SOL    HW2 5476   2.810   2.523   4.244  0.6798  2.7056  0.5775
 1426SOL    HW3 5477   2.716   2.641   4.250 -1.6470  0.8642  1.6267
 1426SOL    MW4 5478   2.732   2.556   4.261 -0.1951  0.9087  0.2290
 1427SOL     OW 5479   6.286   1.350   3.428 -0.5463 -0.2323 -0.9363
 1427SOL    HW2 5480   6.219   1.341   3.496 -0.8521  3.4521 -0.5750
 1427SOL    HW3 5481   6.240   1.386   3.353  0.4503 -0.8632 -1.8849
 1427SOL    MW4 5482   6.271   1.354   3.427 -0.4552  0.1706 -1.0138
 1428SOL     OW 5483   4.601   4.904   6.051 -0.2033 -0.6622  0.5345
 1428SOL    HW2 5484   4.671   4.963   6.079  0.3985 -1.0602 -0.1022
 1428SOL    HW3 5485   4.524   4.933   6.100 -0.2507  1.4776 -0.7175
 1428SOL    MW4 5486   4.600   4.915   6.061 -0.1301 -0.4324  0.2853
 1429SOL     OW 5487   0.892   3.701   5.199 -0.5410  0.2842  0.2246
 1429SOL    HW2 5488   0.800   3.677   5.215 -0.6283  1.3067  1.4434
 1429SOL    HW3 5489   0.925   3.725   5.285  0.9768 -0.3294 -0.1536
 1429SOL    MW4 5490   0.884   3.701   5.212 -0.3522  0.3381  0.3355
 1430SOL     OW 5491   5.019   4.109   2.866 -0.0267 -0.1556  0.1143
 1430SOL    HW2 5492   4.974   4.025   2.868  1.1796 -0.8575 -1.0136
 1430SOL    HW3 5493   4.989   4.154   2.945 -1.7493 -1.0726  0.0177
 1430SOL    MW4 5494   5.009   4.104   2.876 -0.0948 -0.3692 -0.0473
 1431SOL     OW 5495   1.015   1.195   1.452 -0.0948  0.4857  0.2279
 1431SOL    HW2 5496   1.100   1.228   1.421  1.1477 -2.5463  0.0566
 1431SOL    HW3 5497   0.974   1.159   1.373  0.5522 -2.1274  0.9952
 1431SOL    MW4 5498   1.021   1.194   1.437  0.1545 -0.2591  0.3065
 1432SOL     OW 5499   1.039   0.743   3.517  0.0610 -0.7526  0.4147
 1432SOL    HW2 5500   1.036   0.665   3.573 -0.2610 -0.3402  0.9854
 1432SOL    HW3 5501   0.987   0.808   3.564 -0.1358 -0.3625 -0.3295
 1432SOL    MW4 5502   1.032   0.741   3.531 -0.0074 -0.6467  0.3918
 1433SOL     OW 5503   3.827   2.510   3.281  0.4153  0.0971 -0.1217
 1433SOL    HW2 5504   3.833   2.436   3.341  0.5394 -0.0559 -0.3202
 1433SOL    HW3 5505   3.739   2.545   3.294  0.2395 -0.2861 -0.2628
 1433SOL    MW4 5506   3.816   2.505   3.291  0.4085  0.0263 -0.1665
 1434SOL     OW 5507   4.715   5.826   5.600 -0.1439 -0.0964 -0.3851
 1434SOL    HW2 5508   4.680   5.899   5.549  0.0526  0.1088 -0.2293
 1434SOL    HW3 5509   4.647   5.760   5.596 -1.7798  1.2885  2.1713
 1434SOL    MW4 5510   4.701   5.827   5.593 -0.3338  0.1134 -0.0273
 1435SOL     OW 5511   0.241   4.621   5.810 -0.3952 -0.4894 -0.3333
 1435SOL    HW2 5512   0.204   4.576   5.735 -1.0389  1.2750 -1.1275
 1435SOL    HW3 5513   0.183   4.696   5.825  1.7614  1.3403 -0.4689
 1435SOL    MW4 5514   0.229   4.625   5.802 -0.1956 -0.0152 -0.4559
 1436SOL     OW 5515   1.242   1.826   5.428 -0.0180 -0.1094 -0.4369
 1436SOL    HW2 5516   1.278   1.898   5.375  1.1257 -2.1051 -2.5724
 1436SOL    HW3 5517   1.147   1.835   5.419  0.0830  1.3126 -0.3595
 1436SOL    MW4 5518   1.234   1.837   5.420  0.1462 -0.1851 -0.7085
 1437SOL     OW 5519   5.658   6.306   1.491 -0.2946 -0.1265 -0.2442
 1437SOL    HW2 5520   5.579   6.296   1.438 -1.5379  1.0438  1.2426
 1437SOL    HW3 5521   5.712   6.230   1.471 -1.7821 -0.9284 -1.3562
 1437SOL    MW4 5522   5.655   6.295   1.482 -0.6549 -0.0779 -0.1948
 1438SOL     OW 5523   4.924   3.834   2.860 -0.5910  0.5538 -0.5374
 1438SOL    HW2 5524   4.967   3.790   2.787  1.2230  0.0620  0.7399
 1438SOL    HW3 5525   4.832   3.806   2.854 -0.2632 -0.3215 -1.9799
 1438SOL    MW4 5526   4.917   3.824   2.850 -0.3084  0.3734 -0.5592
 1439SOL     OW 5527   2.063   1.161   4.812  0.0898  0.6681  0.1963
 1439SOL    HW2 5528   2.006   1.158   4.889  0.4807 -0.2669  0.4638
 1439SOL    HW3 5529   2.112   1.079   4.815  0.6366  0.9482 -0.6547
 1439SOL    MW4 5530   2.062   1.150   4.822  0.2135  0.5817  0.1193
 1440SOL     OW 5531   2.913   6.076   4.735 -0.0741  0.0831 -0.6459
 1440SOL    HW2 5532   2.956   6.003   4.689  2.9397 -1.0967  3.4694
 1440SOL    HW3 5533   2.838   6.036   4.778  0.5463 -0.2079  0.1783
 1440SOL    MW4 5534   2.909   6.061   4.734  0.4053 -0.1109  0.0058
 1441SOL     OW 5535   3.898   0.239   4.297 -0.2002 -0.4661 -0.3258
 1441SOL    HW2 5536   3.882   0.173   4.365 -1.0106 -0.5073 -0.5478
 1441SOL    HW3 5537   3.955   0.195   4.234 -1.1171 -1.1088 -0.7088
 1441SOL    MW4 5538   3.904   0.224   4.298 -0.4281 -0.5563 -0.4056
 1442SOL     OW 5539   0.248   2.623   5.237 -0.7911  0.4098  0.3164
 1442SOL    HW2 5540   0.290   2.666   5.311  2.5780 -2.5343  0.3908
 1442SOL    HW3 5541   0.166   2.590   5.272 -0.1460  0.6689  2.2169
 1442SOL    MW4 5542   0.243   2.625   5.251 -0.2615  0.0555  0.5769
 1443SOL     OW 5543   5.187   1.976   4.335  0.1213 -0.2178  0.2538
 1443SOL    HW2 5544   5.194   1.927   4.253 -0.2993  0.1400 -0.0010
 1443SOL    HW3 5545   5.132   2.052   4.313 -3.6501 -2.2276  1.8178
 1443SOL    MW4 5546   5.180   1.980   4.321 -0.4318 -0.4358  0.4265
 1444SOL     OW 5547   1.751   6.034   2.133  0.0517  0.0350 -0.2816
 1444SOL    HW2 5548   1.831   5.982   2.144 -1.2730 -2.2332 -0.6718
 1444SOL    HW3 5549   1.686   5.971   2.104 -2.0329  1.7081  0.5043
 1444SOL    MW4 5550   1.753   6.019   2.131 -0.3982 -0.0436 -0.2294
 1445SOL     OW 5551   4.027   1.834   2.863  0.3208  0.5569  0.2464
 1445SOL    HW2 5552   3.962   1.901   2.884 -1.2001 -1.3731  2.1871
 1445SOL    HW3 5553   3.988   1.782   2.793 -0.4576 -0.7532  1.5781
 1445SOL    MW4 5554   4.013   1.836   2.857  0.0175  0.1294  0.6782
 1446SOL     OW 5555   3.706   5.598   0.288  0.1209  0.7613 -0.0677
 1446SOL    HW2 5556   3.690   5.689   0.314  0.8641  1.0031 -0.4470
 1446SOL    HW3 5557   3.767   5.565   0.354 -0.8280  0.2577  0.5815
 1446SOL    MW4 5558   3.712   5.605   0.300  0.0938  0.7268 -0.0321
 1447SOL     OW 5559   5.504   0.225   3.934  0.0658 -0.5822 -0.3270
 1447SOL    HW2 5560   5.600   0.232   3.937  0.1167 -1.1076 -0.6960
 1447SOL    HW3 5561   5.485   0.142   3.978 -0.1342 -1.0905 -1.3367
 1447SOL    MW4 5562   5.515   0.215   3.940  0.0461 -0.7186 -0.5089
 1448SOL     OW 5563   5.923   4.953   5.131 -0.5702 -0.4412  0.1548
 1448SOL    HW2 5564   6.003   4.903   5.115 -0.9984 -0.7834 -1.0037
 1448SOL    HW3 5565   5.946   5.012   5.203  1.1404  0.3850 -0.9900
 1448SOL    MW4 5566   5.937   4.954   5.139 -0.4010 -0.3773 -0.1491
 1449SOL     OW 5567   0.762   4.738   0.709 -0.6210  0.2323  0.1481
 1449SOL    HW2 5568   0.825   4.737   0.637 -3.1767 -0.9072 -2.2819
 1449SOL    HW3 5569   0.684   4.780   0.672 -1.2965  1.7568  3.0574
 1449SOL    MW4 5570   0.760   4.743   0.695 -1.0473  0.2831  0.2114
 1450SOL     OW 5571   5.522   5.557   3.672  0.0412 -0.2947  0.0600
 1450SOL    HW2 5572   5.492   5.521   3.589 -1.4670 -1.2334  0.9605
 1450SOL    HW3 5573   5.516   5.652   3.661 -0.9718 -0.4252 -0.6365
 1450SOL    MW4 5574   5.517   5.565   3.660 -0.2914 -0.4357  0.0869
 1451SOL     OW 5575   6.271   0.558   1.435  1.1474  0.3126 -0.2718
 1451SOL    HW2 5576   6.266   0.473   1.478  1.1923  0.2814 -0.3293
 1451SOL    HW3 5577   6.284   0.538   1.343  3.8135  0.3585 -0.0056
 1451SOL    MW4 5578   6.272   0.544   1.429  1.5051  0.3146 -0.2442
 1452SOL     OW 5579   1.661   4.246   5.209  0.5614  0.3061  0.4454
 1452SOL    HW2 5580   1.594   4.308   5.237  0.4428  0.6812 -0.6374
 1452SOL    HW3 5581   1.611   4.171   5.176  0.7021 -0.0598  1.0377
 1452SOL    MW4 5582   1.645   4.244   5.208  0.5643  0.3073  0.3807
 1453SOL     OW 5583   3.393   2.596   4.459 -0.4909  0.0735  0.3646
 1453SOL    HW2 5584   3.342   2.633   4.532  0.6746  0.7970  0.8530
 1453SOL    HW3 5585   3.441   2.671   4.424 -1.5974 -0.1136 -1.6800
 1453SOL    MW4 5586   3.393   2.611   4.464 -0.4831  0.1442  0.1593
 1454SOL     OW 5587   4.168   4.437   4.654  0.6260 -0.3285 -0.6444
 1454SOL    HW2 5588   4.166   4.517   4.601  0.9956 -0.3252 -0.6569
 1454SOL    HW3 5589   4.156   4.366   4.591 -1.1937 -0.2216 -0.4603
 1454SOL    MW4 5590   4.166   4.438   4.639  0.4346 -0.3140 -0.6218
 1455SOL     OW 5591   3.426   5.826   4.077  0.6358 -0.2080 -0.4765
 1455SOL    HW2 5592   3.518   5.842   4.096  0.8584 -1.8741  0.0528
 1455SOL    HW3 5593   3.388   5.804   4.162 -0.0660 -0.3470 -0.8181
 1455SOL    MW4 5594   3.433   5.825   4.091  0.5726 -0.4462 -0.4517
 1456SOL     OW 5595   1.457   0.580   4.692 -0.7149 -0.4458 -0.1894
 1456SOL    HW2 5596   1.406   0.509   4.732 -0.6780  0.2112  1.0633
 1456SOL    HW3 5597   1.412   0.660   4.720  0.4934  0.1083  0.2186
 1456SOL    MW4 5598   1.444   0.581   4.701 -0.5506 -0.2860  0.0297
 1457SOL     OW 5599   4.519   2.393   3.696  0.0509 -0.1947  0.3532
 1457SOL    HW2 5600   4.586   2.459   3.679 -0.8315  0.2601 -1.5821
 1457SOL    HW3 5601   4.495   2.407   3.788  0.1619  1.9179  0.1061
 1457SOL    MW4 5602   4.525   2.403   3.706 -0.0509  0.1440  0.0652
 1458SOL     OW 5603   3.954   0.730   4.242 -0.1449 -0.3894  0.0770
 1458SOL    HW2 5604   3.941   0.637   4.225  1.2336 -0.7240  0.6862
 1458SOL    HW3 5605   3.929   0.741   4.334 -3.4162  0.5404 -0.8038
 1458SOL    MW4 5606   3.949   0.719   4.252 -0.3947 -0.3109  0.0411
 1459SOL     OW 5607   1.908   4.476   4.821  0.6391 -1.0670  0.7054
 1459SOL    HW2 5608   1.906   4.546   4.885  0.0977  0.3057 -0.7510
 1459SOL    HW3 5609   1.893   4.396   4.872  1.2468 -0.1433  2.3884
 1459SOL    MW4 5610   1.905   4.474   4.836  0.6478 -0.7640  0.7353
 1460SOL     OW 5611   3.390   1.005   0.132 -0.4094  0.4701 -0.1676
 1460SOL    HW2 5612   3.333   0.962   0.069 -0.6699  0.2426  0.2222
 1460SOL    HW3 5613   3.462   0.943   0.147 -1.1452 -0.1605  0.9297
 1460SOL    MW4 5614   3.392   0.991   0.126 -0.5409  0.3569  0.0286
 1461SOL     OW 5615   5.420   0.964   1.086 -0.3427 -0.0304  1.1618
 1461SOL    HW2 5616   5.478   1.036   1.110 -0.2647 -0.5943  2.7526
 1461SOL    HW3 5617   5.348   1.006   1.038  1.3448  0.6733 -0.8900
 1461SOL    MW4 5618   5.418   0.979   1.082 -0.1097 -0.0120  1.1010
 1462SOL     OW 5619   6.141   2.751   2.097 -0.2424  0.0262 -0.0500
 1462SOL    HW2 5620   6.051   2.718   2.109 -0.4379  0.5034 -0.1871
 1462SOL    HW3 5621   6.184   2.685   2.043 -0.5478 -0.1455 -0.0850
 1462SOL    MW4 5622   6.135   2.738   2.091 -0.3085  0.0665 -0.0727
 1463SOL     OW 5623   4.431   5.432   0.638  0.0029 -0.0827  0.0727
 1463SOL    HW2 5624   4.515   5.468   0.665 -0.4881  2.4409 -1.4066
 1463SOL    HW3 5625   4.377   5.509   0.619 -1.3683 -1.5707 -2.7790
 1463SOL    MW4 5626   4.435   5.447   0.639 -0.2428  0.0540 -0.4987
 1464SOL     OW 5627   0.124   0.390   3.432 -0.4708 -0.0364  0.4838
 1464SOL    HW2 5628   0.200   0.366   3.484  0.6168 -1.1886 -1.5134
 1464SOL    HW3 5629   0.049   0.371   3.488  0.6004 -2.0213  1.3474
 1464SOL    MW4 5630   0.124   0.385   3.446 -0.1860 -0.4503  0.3343
 1465SOL     OW 5631   0.713   0.959   0.241  0.6394  0.0329 -0.1331
 1465SOL    HW2 5632   0.687   1.051   0.240  0.0168 -0.0917 -2.5587
 1465SOL    HW3 5633   0.669   0.923   0.318  0.3033  1.5964  0.4588
 1465SOL    MW4 5634   0.704   0.967   0.251  0.5129  0.2228 -0.3750
 1466SOL     OW 5635   2.508   4.521   3.567 -0.4292  0.6641 -0.5096
 1466SOL    HW2 5636   2.445   4.513   3.638  0.8733  0.9631  0.7401
 1466SOL    HW3 5637   2.472   4.467   3.497 -3.0643  2.4513 -0.6529
 1466SOL    MW4 5638   2.495   4.513   3.567 -0.6050  0.9394 -0.3637
 1467SOL     OW 5639   0.841   3.002   3.074 -0.2888 -0.2089  0.1229
 1467SOL    HW2 5640   0.841   2.927   3.015  0.5670  1.4431 -2.1220
 1467SOL    HW3 5641   0.801   3.073   3.024  0.0132  1.1661  1.7177
 1467SOL    MW4 5642   0.836   3.002   3.060 -0.1360  0.1905  0.0371
 1468SOL     OW 5643   3.716   1.113   0.779 -0.0697  0.1817  0.1108
 1468SOL    HW2 5644   3.764   1.162   0.711  1.1710  0.1334  0.9234
 1468SOL    HW3 5645   3.637   1.082   0.734  0.1174  1.1974 -0.9749
 1468SOL    MW4 5646   3.712   1.115   0.764  0.1187  0.3093  0.0747
 1469SOL     OW 5647   4.330   2.032   2.210 -0.1232  0.0524  0.9189
 1469SOL    HW2 5648   4.398   2.048   2.145 -0.1055 -1.6064  0.4774
 1469SOL    HW3 5649   4.363   1.958   2.261 -1.9258 -1.3501  0.1524
 1469SOL    MW4 5650   4.343   2.024   2.208 -0.3587 -0.3515  0.7595
 1470SOL     OW 5651   3.741   4.587   0.672  0.2429 -0.0466 -0.1266
 1470SOL    HW2 5652   3.835   4.603   0.663 -0.1237  3.7949  1.3566
 1470SOL    HW3 5653   3.702   4.625   0.593 -0.2323  0.5297  0.3813
 1470SOL    MW4 5654   3.748   4.594   0.660  0.1318  0.5363  0.1361
 1471SOL     OW 5655   1.579   3.379   0.337 -0.3280 -0.5759  0.5054
 1471SOL    HW2 5656   1.638   3.337   0.400 -0.2828 -1.1288  0.0964
 1471SOL    HW3 5657   1.588   3.473   0.355  0.6533 -0.6508  0.4683
 1471SOL    MW4 5658   1.588   3.386   0.348 -0.1926 -0.6587  0.4465
 1472SOL     OW 5659   2.083   1.740   1.409 -0.2960  0.0923 -0.4074
 1472SOL    HW2 5660   2.032   1.762   1.331  0.8504 -1.3181 -1.6251
 1472SOL    HW3 5661   2.023   1.689   1.463 -0.3838 -1.0821 -1.5623
 1472SOL    MW4 5662   2.068   1.736   1.406 -0.1564 -0.2487 -0.7204
 1473SOL     OW 5663   3.517   2.294   2.126  0.4227 -0.2553 -0.0819
 1473SOL    HW2 5664   3.603   2.335   2.118  0.0596  0.3578 -0.9405
 1473SOL    HW3 5665   3.471   2.317   2.046 -0.9996  0.5019  0.9032
 1473SOL    MW4 5666   3.523   2.302   2.115  0.1871 -0.0745 -0.0652
 1474SOL     OW 5667   3.099   4.901   1.160 -0.3763 -0.1515 -0.1939
 1474SOL    HW2 5668   3.134   4.842   1.227 -1.3436 -2.1243 -1.3485
 1474SOL    HW3 5669   3.024   4.943   1.202 -0.3192 -0.5514  0.3204
 1474SOL    MW4 5670   3.094   4.899   1.174 -0.4964 -0.4646 -0.2783
 1475SOL     OW 5671   5.548   1.163   6.008 -0.4039  0.6450 -0.5770
 1475SOL    HW2 5672   5.629   1.208   5.985  0.1178  0.4385  0.7916
 1475SOL    HW3 5673   5.551   1.080   5.959 -0.6703  1.4048 -1.9368
 1475SOL    MW4 5674   5.559   1.158   5.998 -0.3702  0.7180 -0.5758
 1476SOL     OW 5675   2.997   6.125   0.873 -0.3359  0.0709  0.1945
 1476SOL    HW2 5676   3.068   6.134   0.809 -0.6124 -0.3310 -0.1676
 1476SOL    HW3 5677   3.031   6.168   0.952  0.7754 -1.1085  0.3898
 1476SOL    MW4 5678   3.011   6.132   0.875 -0.2258 -0.1378  0.1725
 1477SOL     OW 5679   1.301   4.275   3.587 -0.2918  0.0621 -0.3011
 1477SOL    HW2 5680   1.305   4.370   3.579 -0.0473  0.2008  1.0983
 1477SOL    HW3 5681   1.392   4.247   3.583 -0.4039 -0.1756 -1.2676
 1477SOL    MW4 5682   1.314   4.284   3.586 -0.2743  0.0491 -0.2440
 1478SOL     OW 5683   3.258   0.713   5.859 -0.2963 -0.0907 -0.1635
 1478SOL    HW2 5684   3.227   0.638   5.910 -0.4665  1.2623  1.7840
 1478SOL    HW3 5685   3.209   0.708   5.777 -2.6632 -0.3374  1.1916
 1478SOL    MW4 5686   3.248   0.702   5.855 -0.6311  0.0552  0.2722
 1479SOL     OW 5687   0.196   3.443   5.988 -0.1306  0.5685 -0.4375
 1479SOL    HW2 5688   0.175   3.484   6.072 -1.1550  1.1157 -0.9374
 1479SOL    HW3 5689   0.192   3.514   5.925 -1.0640 -0.1218 -1.1939
 1479SOL    MW4 5690   0.192   3.458   5.991 -0.3889  0.5496 -0.6033
 1480SOL     OW 5691   1.973   3.075   2.359  0.4768  0.3919 -0.0625
 1480SOL    HW2 5692   2.063   3.102   2.378 -0.3055  3.0398  0.4462
 1480SOL    HW3 5693   1.940   3.143   2.299 -0.8261 -1.2003 -1.2321
 1480SOL    MW4 5694   1.981   3.088   2.354  0.2017  0.5312 -0.1497
 1481SOL     OW 5695   0.207   2.942   2.818 -0.4669  0.9019  0.1369
 1481SOL    HW2 5696   0.251   2.891   2.751 -1.7870  1.2530 -1.0428
 1481SOL    HW3 5697   0.258   3.023   2.824 -0.0646  0.6671 -0.0921
 1481SOL    MW4 5698   0.219   2.946   2.810 -0.5880  0.9173 -0.0490
 1482SOL     OW 5699   1.866   6.180   6.207 -0.1276 -0.2476  0.0951
 1482SOL    HW2 5700   1.773   6.176   6.230  0.3492  1.9404  3.0287
 1482SOL    HW3 5701   1.889   6.273   6.215  1.8067 -0.2706 -3.2126
 1482SOL    MW4 5702   1.857   6.192   6.211  0.1905  0.0380  0.0457
 1483SOL     OW 5703   3.404   2.617   1.889  0.1028  0.5469 -0.1561
 1483SOL    HW2 5704   3.484   2.568   1.870 -0.7230 -0.6572 -0.6844
 1483SOL    HW3 5705   3.364   2.570   1.962 -0.9480  0.0791 -0.9847
 1483SOL    MW4 5706   3.409   2.604   1.896 -0.1448  0.3263 -0.3351
 1484SOL     OW 5707   1.592   3.092   2.285  0.2824 -0.3481  0.1880
 1484SOL    HW2 5708   1.506   3.084   2.326  1.2560 -0.0024  2.4617
 1484SOL    HW3 5709   1.581   3.163   2.221 -1.4328 -1.2347 -0.5534
 1484SOL    MW4 5710   1.580   3.100   2.282  0.1845 -0.4195  0.3902
 1485SOL     OW 5711   0.074   3.963   0.023  0.0295  0.5851  0.6851
 1485SOL    HW2 5712   0.005   3.898   0.014  2.3385 -1.7500 -1.9020
 1485SOL    HW3 5713   0.074   4.009  -0.062  1.5683  0.5855  0.6723
 1485SOL    MW4 5714   0.065   3.961   0.010  0.5372  0.2771  0.3421
 1486SOL     OW 5715   4.964   1.482   1.216 -0.0956 -0.0334  0.1359
 1486SOL    HW2 5716   5.006   1.487   1.130 -0.0954  1.3732  0.1983
 1486SOL    HW3 5717   4.895   1.418   1.205 -0.7215  0.8232 -1.2016
 1486SOL    MW4 5718   4.961   1.474   1.203 -0.1782  0.2652 -0.0323
 1487SOL     OW 5719   5.178   5.251   5.527  0.5948 -0.1933  0.3065
 1487SOL    HW2 5720   5.130   5.270   5.446  2.3100  0.6755 -0.5655
 1487SOL    HW3 5721   5.224   5.169   5.507  1.7199  0.4786  0.0266
 1487SOL    MW4 5722   5.178   5.242   5.513  0.9696  0.0100  0.1545
 1488SOL     OW 5723   2.702   0.288   3.951  0.4439 -0.0609  0.7593
 1488SOL    HW2 5724   2.660   0.267   3.867  0.7278  0.8194  0.3840
 1488SOL    HW3 5725   2.647   0.357   3.988  1.0851  0.5140  0.6555
 1488SOL    MW4 5726   2.689   0.294   3.945  0.5659  0.1311  0.6961
 1489SOL     OW 5727   1.897   0.113   2.947 -0.1478 -0.2447  0.0261
 1489SOL    HW2 5728   1.904   0.046   2.880 -2.5889 -0.7670  0.1832
 1489SOL    HW3 5729   1.860   0.067   3.023 -0.7351  1.0196  0.5346
 1489SOL    MW4 5730   1.893   0.098   2.948 -0.5473 -0.1468  0.1139
 1490SOL     OW 5731   5.990   2.723   1.206 -0.3224 -0.3355 -0.1007
 1490SOL    HW2 5732   6.046   2.683   1.139  0.3031 -0.8051  0.6984
 1490SOL    HW3 5733   6.004   2.817   1.195 -0.2607 -0.4062 -0.6620
 1490SOL    MW4 5734   5.999   2.730   1.195 -0.2318 -0.4068 -0.0693
 1491SOL     OW 5735   1.884   2.099   0.711 -0.3881 -0.0351 -0.4677
 1491SOL    HW2 5736   1.823   2.167   0.738  0.0758  0.2587 -0.1448
 1491SOL    HW3 5737   1.967   2.145   0.698 -0.3199 -0.3587 -1.2917
 1491SOL    MW4 5738   1.887   2.114   0.713 -0.3179 -0.0390 -0.5339
 1492SOL     OW 5739   5.274   2.571   0.837 -0.2264  0.1783  0.0670
 1492SOL    HW2 5740   5.308   2.580   0.925 -0.2837 -0.1217  0.1194
 1492SOL    HW3 5741   5.348   2.594   0.780  0.2195 -0.9400  0.1679
 1492SOL    MW4 5742   5.288   2.576   0.841 -0.1752 -0.0088  0.0872
 1493SOL     OW 5743   1.209   2.147   4.270  0.1158 -0.1344 -0.2234
 1493SOL    HW2 5744   1.158   2.183   4.343 -0.1807  0.0802 -0.5300
 1493SOL    HW3 5745   1.165   2.065   4.249 -0.5503  0.3867 -0.9460
 1493SOL    MW4 5746   1.196   2.141   4.277 -0.0112 -0.0373 -0.3592
 1494SOL     OW 5747   4.650   3.580   0.147 -0.4264  0.3399  0.3251
 1494SOL    HW2 5748   4.648   3.502   0.203  0.2031 -0.5223 -0.8106
 1494SOL    HW3 5749   4.581   3.637   0.182  0.2075  0.0125  2.2028
 1494SOL    MW4 5750   4.641   3.577   0.159 -0.2597  0.1830  0.4230
 1495SOL     OW 5751   5.261   2.256   5.956  0.0132 -0.0822  0.4613
 1495SOL    HW2 5752   5.176   2.219   5.978  0.4692 -1.4648  0.0201
 1495SOL    HW3 5753   5.293   2.201   5.885  0.3192  1.7878 -0.9075
 1495SOL    MW4 5754   5.254   2.244   5.950  0.1137 -0.0179  0.2225
 1496SOL     OW 5755   2.193   5.090   3.112 -0.7037  0.0663 -0.0070
 1496SOL    HW2 5756   2.270   5.139   3.082 -0.9565 -0.0794 -0.9213
 1496SOL    HW3 5757   2.140   5.155   3.158  0.1295  0.0880  0.9838
 1496SOL    MW4 5758   2.196   5.105   3.114 -0.6271  0.0500  0.0031
 1497SOL     OW 5759   1.577   1.593   1.032 -0.1784 -0.7223 -0.4151
 1497SOL    HW2 5760   1.498   1.567   1.080  0.6031  1.4545  2.2912
 1497SOL    HW3 5761   1.634   1.517   1.038 -1.7579 -2.1436 -1.9635
 1497SOL    MW4 5762   1.574   1.579   1.039 -0.2837 -0.6226 -0.2623
 1498SOL     OW 5763   4.805   6.241   6.362 -0.7022 -0.2279 -0.3620
 1498SOL    HW2 5764   4.753   6.218   6.439 -0.6961  0.3136 -0.1911
 1498SOL    HW3 5765   4.791   6.335   6.351  1.1572  0.1746  0.3725
 1498SOL    MW4 5766   4.796   6.250   6.371 -0.4561 -0.1034 -0.2425
 1499SOL     OW 5767   1.165   0.434   5.051 -0.0469 -0.1589  0.2270
 1499SOL    HW2 5768   1.167   0.393   5.138 -1.6472  3.1663  2.0466
 1499SOL    HW3 5769   1.074   0.424   5.023  0.2299 -0.3167 -0.6448
 1499SOL    MW4 5770   1.153   0.427   5.059 -0.2215  0.2590  0.3521
 1500SOL     OW 5771   4.249   2.205   0.088 -0.1776  0.0796  0.2555
 1500SOL    HW2 5772   4.250   2.196   0.183 -1.3554 -2.0621  0.1355
 1500SOL    HW3 5773   4.175   2.262   0.069 -1.8557 -1.8528  0.5779
 1500SOL    MW4 5774   4.239   2.211   0.098 -0.5544 -0.4579  0.2822
 1501SOL     OW 5775   2.592   0.873   2.383 -0.5667 -0.1555  0.1787
 1501SOL    HW2 5776   2.584   0.809   2.313  0.3875  0.6414 -0.6693
 1501SOL    HW3 5777   2.521   0.936   2.367 -1.7304 -1.1350  1.2137
 1501SOL    MW4 5778   2.581   0.873   2.372 -0.5944 -0.1796  0.2034
 1502SOL     OW 5779   5.251   2.297   3.285  0.6994 -0.0047  0.5852
 1502SOL    HW2 5780   5.167   2.342   3.292  0.3266 -0.5829 -0.0237
 1502SOL    HW3 5781   5.317   2.366   3.289  0.0976  0.9424 -2.8977
 1502SOL    MW4 5782   5.249   2.312   3.287  0.5708  0.0440  0.0454
 1503SOL     OW 5783   1.642   0.221   1.707 -0.2884  0.1824  0.0580
 1503SOL    HW2 5784   1.631   0.159   1.779 -2.1172  0.0901 -0.2520
 1503SOL    HW3 5785   1.617   0.305   1.743 -0.9996  0.1713 -0.3964
 1503SOL    MW4 5786   1.637   0.224   1.721 -0.6235  0.1687 -0.0429
 1504SOL     OW 5787   5.688   3.591   5.883  0.1593 -0.2587  0.4111
 1504SOL    HW2 5788   5.621   3.656   5.902  0.2220 -0.4537  1.3270
 1504SOL    HW3 5789   5.716   3.611   5.793 -1.1136 -0.1801  0.0168
 1504SOL    MW4 5790   5.683   3.602   5.874 -0.0004 -0.2741  0.4799
 1505SOL     OW 5791   4.165   4.856   6.295 -0.4728  0.0263  0.3861
 1505SOL    HW2 5792   4.123   4.939   6.274  1.8419  1.2800  0.4173
 1505SOL    HW3 5793   4.121   4.825   6.374 -2.6679  0.1992 -0.7069
 1505SOL    MW4 5794   4.154   4.863   6.303 -0.4570  0.2145  0.2460
 1506SOL     OW 5795   6.392   5.020   4.893 -0.3233 -0.1455  0.0404
 1506SOL    HW2 5796   6.329   5.014   4.820 -1.4000 -0.7567  0.9820
 1506SOL    HW3 5797   6.435   4.935   4.895  0.2929  0.1460 -0.3670
 1506SOL    MW4 5798   6.389   5.008   4.884 -0.3840 -0.1877  0.1108
 1507SOL     OW 5799   4.238   1.284   1.525 -0.2034 -0.7860  0.4973
 1507SOL    HW2 5800   4.320   1.238   1.540  0.8070  0.7452 -0.0342
 1507SOL    HW3 5801   4.250   1.327   1.440 -1.3645 -0.1545  0.6315
 1507SOL    MW4 5802   4.250   1.284   1.516 -0.2233 -0.5007  0.4449
 1508SOL     OW 5803   3.427   4.041   4.720 -0.0142  0.1836  0.3338
 1508SOL    HW2 5804   3.479   4.031   4.641 -0.0110  0.6391  0.2773
 1508SOL    HW3 5805   3.489   4.027   4.792  0.4475  1.8435  0.2878
 1508SOL    MW4 5806   3.442   4.038   4.719  0.0471  0.4627  0.3203
 1509SOL     OW 5807   3.529   4.864   6.401 -0.0447  0.7857  0.3936
 1509SOL    HW2 5808   3.548   4.798   6.334 -0.1791  1.0318  0.1135
 1509SOL    HW3 5809   3.434   4.867   6.406 -0.0296  0.1602  1.2004
 1509SOL    MW4 5810   3.519   4.856   6.393 -0.0604  0.7357  0.4631
 1510SOL     OW 5811   2.975   4.828   4.711  0.0023 -0.2302 -0.5072
 1510SOL    HW2 5812   2.942   4.870   4.631  1.6885  1.0525 -0.5686
 1510SOL    HW3 5813   3.027   4.754   4.678  0.4726  0.1364 -0.6007
 1510SOL    MW4 5814   2.977   4.824   4.696  0.2869 -0.0126 -0.5277
 1511SOL     OW 5815   5.330   2.580   6.377 -0.1352 -0.6002  0.9420
 1511SOL    HW2 5816   5.302   2.644   6.443  1.3118  0.8632  0.1988
 1511SOL    HW3 5817   5.373   2.511   6.428  0.8699  0.4508  1.5785
 1511SOL    MW4 5818   5.332   2.580   6.393  0.1883 -0.2684  0.9279
 1512SOL     OW 5819   3.780   0.494   4.288  0.0366  0.0990 -0.1067
 1512SOL    HW2 5820   3.772   0.498   4.383  2.8543  1.2727  0.1790
 1512SOL    HW3 5821   3.826   0.412   4.270  0.9921  0.6561 -0.2772
 1512SOL    MW4 5822   3.785   0.484   4.298  0.5344  0.3274 -0.0915
 1513SOL     OW 5823   2.704   6.257   0.147 -0.0400 -0.6300  0.3414
 1513SOL    HW2 5824   2.778   6.262   0.208 -0.0493 -1.2606  0.4087
 1513SOL    HW3 5825   2.642   6.323   0.180  0.8729  0.5699 -0.2544
 1513SOL    MW4 5826   2.706   6.267   0.160  0.0792 -0.5549  0.2717
 1514SOL     OW 5827   5.665   0.400   4.275  0.0068 -0.0209  0.0541
 1514SOL    HW2 5828   5.743   0.358   4.236  0.2167  0.2732  0.1529
 1514SOL    HW3 5829   5.624   0.331   4.326  0.6411  0.0220  0.6428
 1514SOL    MW4 5830   5.670   0.385   4.276  0.1182  0.0235  0.1448
 1515SOL     OW 5831   3.817   2.000   2.931 -0.2160 -0.2601 -0.4536
 1515SOL    HW2 5832   3.803   2.095   2.935  0.1907 -0.1634 -1.1429
 1515SOL    HW3 5833   3.812   1.971   3.022  2.4804  0.8335  0.1220
 1515SOL    MW4 5834   3.814   2.009   2.943  0.1934 -0.1031 -0.4686
 1516SOL     OW 5835   5.396   2.237   1.634 -0.4423 -0.0539  0.7173
 1516SOL    HW2 5836   5.343   2.309   1.598 -0.6052 -0.8248 -0.6718
 1516SOL    HW3 5837   5.468   2.281   1.679  0.3026  1.0372 -1.3653
 1516SOL    MW4 5838   5.398   2.253   1.635 -0.3655 -0.0116  0.2592
 1517SOL     OW 5839   6.064   2.728   0.136  0.1155 -0.0248 -0.0949
 1517SOL    HW2 5840   6.121   2.696   0.205  0.7907  2.0097  0.3504
 1517SOL    HW3 5841   6.106   2.808   0.104 -0.7355 -0.3218 -2.1377
 1517SOL    MW4 5842   6.077   2.734   0.141  0.0923  0.2045 -0.3057
 1518SOL     OW 5843   5.596   6.247   3.853 -0.2369 -0.4382 -0.3660
 1518SOL    HW2 5844   5.601   6.303   3.930  0.3875  0.4816 -1.0555
 1518SOL    HW3 5845   5.616   6.305   3.779 -1.9668 -1.0293 -1.3645
 1518SOL    MW4 5846   5.599   6.262   3.853 -0.3828 -0.3948 -0.5887
 1519SOL     OW 5847   5.197   4.849   5.742  0.0107 -0.4001  0.1733
 1519SOL    HW2 5848   5.230   4.771   5.786 -0.8331 -0.9395 -0.1391
 1519SOL    HW3 5849   5.242   4.922   5.786  0.9669 -1.0617  0.3193
 1519SOL    MW4 5850   5.207   4.849   5.753  0.0256 -0.5586  0.1514
 1520SOL     OW 5851   5.482   5.113   3.717  0.1388 -0.1620  0.7245
 1520SOL    HW2 5852   5.577   5.124   3.712 -0.0036  0.9410 -0.0552
 1520SOL    HW3 5853   5.470   5.026   3.754  1.4544 -0.5386  0.3463
 1520SOL    MW4 5854   5.493   5.103   3.721  0.2936 -0.0662  0.5717
 1521SOL     OW 5855   4.362   0.171   2.351  0.2263  0.3031 -0.8321
 1521SOL    HW2 5856   4.335   0.256   2.386  0.3348  0.5115 -1.2513
 1521SOL    HW3 5857   4.449   0.186   2.316 -0.4418  0.4771 -2.5153
 1521SOL    MW4 5858   4.370   0.184   2.351  0.1525  0.3536 -1.1095
 1522SOL     OW 5859   2.549   4.254   4.713 -0.1483  0.7392  0.0852
 1522SOL    HW2 5860   2.503   4.302   4.782 -1.3455 -1.9929  1.3684
 1522SOL    HW3 5861   2.535   4.162   4.736  3.5581 -0.2763 -1.1246
 1522SOL    MW4 5862   2.541   4.248   4.725  0.1827  0.2447  0.0949
 1523SOL     OW 5863   0.287   2.655   6.316 -0.1937  0.5085 -0.1115
 1523SOL    HW2 5864   0.337   2.687   6.391  1.1144 -1.7959  0.1153
 1523SOL    HW3 5865   0.342   2.675   6.240 -1.4645  2.7377 -0.5128
 1523SOL    MW4 5866   0.301   2.662   6.316 -0.1888  0.4986 -0.1345
 1524SOL     OW 5867   6.244   0.140   2.827 -0.2276 -0.3569  0.2918
 1524SOL    HW2 5868   6.271   0.135   2.735  1.6939 -0.7208  0.8351
 1524SOL    HW3 5869   6.205   0.055   2.845 -2.7728  0.4919 -0.7567
 1524SOL    MW4 5870   6.243   0.128   2.817 -0.3099 -0.2929  0.2251
 1525SOL     OW 5871   2.589   5.698   1.115  0.0638  0.1195  0.5471
 1525SOL    HW2 5872   2.567   5.639   1.043  0.2254 -1.0780  1.4349
 1525SOL    HW3 5873   2.684   5.690   1.124  0.1387  0.8368  0.4162
 1525SOL    MW4 5874   2.598   5.689   1.107  0.0950  0.0561  0.6469
 1526SOL     OW 5875   3.463   0.537   4.721 -0.5014  0.0455  0.1501
 1526SOL    HW2 5876   3.404   0.465   4.698  0.2406 -1.1046  1.6867
 1526SOL    HW3 5877   3.538   0.494   4.764  1.1143  1.5223 -1.0505
 1526SOL    MW4 5878   3.465   0.522   4.724 -0.1903  0.0886  0.1944
 1527SOL     OW 5879   0.341   2.125   1.252  0.1133 -0.4751 -0.1306
 1527SOL    HW2 5880   0.339   2.219   1.236  1.3485 -0.2708  0.7656
 1527SOL    HW3 5881   0.428   2.108   1.286 -0.1727 -1.9150 -0.0381
 1527SOL    MW4 5882   0.352   2.135   1.254  0.2385 -0.6381 -0.0002
 1528SOL     OW 5883   4.920   4.416   4.576 -0.1532  0.2252  0.0887
 1528SOL    HW2 5884   4.947   4.359   4.648 -2.7161 -1.8910 -0.4500
 1528SOL    HW3 5885   4.830   4.441   4.599  0.3734  2.8869 -0.4655
 1528SOL    MW4 5886   4.912   4.412   4.588 -0.4218  0.2972 -0.0555
 1529SOL     OW 5887   3.285   3.006   4.050  0.3192  0.4200 -0.4076
 1529SOL    HW2 5888   3.352   2.952   4.007 -0.0718  1.9993 -3.1634
 1529SOL    HW3 5889   3.203   2.959   4.035  0.4651 -0.3753  1.0466
 1529SOL    MW4 5890   3.283   2.992   4.042  0.2869  0.5234 -0.5793
 1530SOL     OW 5891   2.839   1.766   3.055  0.3986 -0.1046 -0.0682
 1530SOL    HW2 5892   2.856   1.673   3.040  1.6046 -0.2200  1.6996
 1530SOL    HW3 5893   2.754   1.768   3.100  1.7127 -0.6942  2.6499
 1530SOL    MW4 5894   2.830   1.754   3.059  0.7311 -0.1977  0.5237
 1531SOL     OW 5895   5.724   2.617   0.436 -0.4118 -0.1033 -0.2240
 1531SOL    HW2 5896   5.775   2.543   0.469 -0.6610  0.1544  0.7717
 1531SOL    HW3 5897   5.753   2.692   0.489 -1.2152  0.2158 -0.2247
 1531SOL    MW4 5898   5.735   2.617   0.448 -0.5507 -0.0272 -0.0928
 1532SOL     OW 5899   5.078   4.006   1.313 -0.1158  0.1521  0.4644
 1532SOL    HW2 5900   5.144   4.075   1.306  1.2941 -1.1063  0.6730
 1532SOL    HW3 5901   5.016   4.025   1.243  1.3758  0.4824 -0.8359
 1532SOL    MW4 5902   5.078   4.017   1.303  0.2670  0.0296  0.3203
 1533SOL     OW 5903   0.225   3.124   2.295 -0.1185  0.2614  0.6042
 1533SOL    HW2 5904   0.267   3.194   2.245 -3.1275  1.8239  0.0628
 1533SOL    HW3 5905   0.230   3.154   2.386  2.7835 -1.2066  1.0372
 1533SOL    MW4 5906   0.231   3.137   2.300 -0.1326  0.2739  0.5899
 1534SOL     OW 5907   3.876   2.330   6.185 -0.1034  0.0344  0.5639
 1534SOL    HW2 5908   3.796   2.378   6.169 -0.1587 -0.1945  0.1509
 1534SOL    HW3 5909   3.850   2.238   6.183  0.3190 -0.0795 -0.4766
 1534SOL    MW4 5910   3.862   2.324   6.183 -0.0550 -0.0108  0.3721
 1535SOL     OW 5911   4.680   4.656   0.805 -0.2053 -0.7722  1.0949
 1535SOL    HW2 5912   4.717   4.744   0.813  0.5866 -1.0854  1.0443
 1535SOL    HW3 5913   4.590   4.669   0.775 -0.8681  0.1183  3.2760
 1535SOL    MW4 5914   4.673   4.669   0.802 -0.1883 -0.6960  1.3760
 1536SOL     OW 5915   0.208   0.175   5.904  0.4135 -0.3111  0.0432
 1536SOL    HW2 5916   0.144   0.219   5.961  0.0562 -0.9403  0.1361
 1536SOL    HW3 5917   0.157   0.142   5.831  0.1483 -2.9240  1.2699
 1536SOL    MW4 5918   0.193   0.177   5.902  0.3314 -0.7389  0.2173
 1537SOL     OW 5919   2.281   5.246   1.347  0.2865 -0.1761 -0.4438
 1537SOL    HW2 5920   2.275   5.337   1.318 -1.2733 -0.0969  0.0401
 1537SOL    HW3 5921   2.363   5.242   1.396 -1.4489  2.0656  3.0480
 1537SOL    MW4 5922   2.291   5.258   1.350 -0.1483  0.1301  0.0807
 1538SOL     OW 5923   6.128   3.180   4.619  0.0411  0.1980  0.1680
 1538SOL    HW2 5924   6.148   3.272   4.636  0.5734  0.4199 -1.4898
 1538SOL    HW3 5925   6.034   3.173   4.633  0.1895  0.6511  1.6314
 1538SOL    MW4 5926   6.118   3.192   4.623  0.1309  0.2870  0.1424
 1539SOL     OW 5927   1.176   1.645   5.187 -0.4760 -0.0766 -0.0524
 1539SOL    HW2 5928   1.171   1.631   5.282 -1.7628 -2.1896 -0.3825
 1539SOL    HW3 5929   1.257   1.601   5.160 -0.7463 -0.5436 -0.1011
 1539SOL    MW4 5930   1.186   1.638   5.196 -0.6815 -0.4170 -0.1024
 1540SOL     OW 5931   4.027   1.979   2.144  0.5387 -0.2872 -0.5963
 1540SOL    HW2 5932   3.981   2.017   2.219  0.8731 -0.0337 -0.5184
 1540SOL    HW3 5933   4.120   1.987   2.166  0.6179 -2.3224  0.0083
 1540SOL    MW4 5934   4.033   1.985   2.157  0.5933 -0.5223 -0.5063
 1541SOL     OW 5935   1.682   6.303   4.976  0.7931 -0.1305 -0.3216
 1541SOL    HW2 5936   1.706   6.370   4.912  1.8778 -1.2450 -1.1321
 1541SOL    HW3 5937   1.708   6.340   5.060  1.4337  0.4547 -0.7628
 1541SOL    MW4 5938   1.689   6.317   4.978  1.0208 -0.2003 -0.4867
 1542SOL     OW 5939   4.295   5.488   4.240  0.0874  0.1902 -0.1243
 1542SOL    HW2 5940   4.277   5.446   4.156  0.2937  0.3993 -0.2763
 1542SOL    HW3 5941   4.379   5.531   4.227  1.0807 -1.4068  0.8209
 1542SOL    MW4 5942   4.303   5.488   4.227  0.2457  0.0071 -0.0196
 1543SOL     OW 5943   2.135   5.242   0.062 -0.4326  0.0296 -0.1585
 1543SOL    HW2 5944   2.221   5.206   0.085  0.2434  2.1948  0.9603
 1543SOL    HW3 5945   2.147   5.282  -0.023 -0.6715 -0.6426 -0.5202
 1543SOL    MW4 5946   2.148   5.242   0.054 -0.3749  0.2266 -0.0586
 1544SOL     OW 5947   5.761   1.591   2.657  0.8478 -0.5695 -0.3004
 1544SOL    HW2 5948   5.690   1.644   2.695  0.2656 -1.4836 -0.0936
 1544SOL    HW3 5949   5.822   1.578   2.730  1.2401  0.2166 -0.4782
 1544SOL    MW4 5950   5.760   1.596   2.672  0.8227 -0.5864 -0.2966
 1545SOL     OW 5951   4.085   5.900   2.984  0.2676  0.3879 -0.2364
 1545SOL    HW2 5952   4.032   5.844   3.041  0.8446 -0.3242 -0.3979
 1545SOL    HW3 5953   4.072   5.988   3.020 -1.3318  0.2916 -0.5110
 1545SOL    MW4 5954   4.076   5.904   2.996  0.1327  0.2812 -0.2939
 1546SOL     OW 5955   6.135   0.394   1.850 -0.2708 -0.1351  0.3489
 1546SOL    HW2 5956   6.165   0.347   1.772  0.6877  1.3275 -0.1973
 1546SOL    HW3 5957   6.044   0.419   1.829  0.1713  0.7749 -0.5856
 1546SOL    MW4 5958   6.127   0.391   1.837 -0.0860  0.1780  0.1535
 1547SOL     OW 5959   2.356   0.755   2.966  0.2799  0.1394 -0.5159
 1547SOL    HW2 5960   2.292   0.754   3.037  0.6582  0.7223 -0.1533
 1547SOL    HW3 5961   2.435   0.793   3.005  0.7887 -0.3804 -1.0084
 1547SOL    MW4 5962   2.358   0.760   2.981  0.3970  0.1477 -0.5330
 1548SOL     OW 5963   2.970   2.289   4.994  0.4860  0.5999 -0.6404
 1548SOL    HW2 5964   3.022   2.236   5.055 -0.7681  0.3566  0.2472
 1548SOL    HW3 5965   3.012   2.375   4.995 -0.0921  0.9161  1.3902
 1548SOL    MW4 5966   2.983   2.293   5.002  0.2443  0.6095 -0.2554
 1549SOL     OW 5967   2.985   5.285   0.999 -0.2652  0.2089 -0.1863
 1549SOL    HW2 5968   2.960   5.365   1.046 -0.1700 -0.7616  1.5591
 1549SOL    HW3 5969   2.905   5.232   0.999  0.2455 -0.5708  0.5183
 1549SOL    MW4 5970   2.971   5.289   1.005 -0.1852 -0.0220  0.1369
 1550SOL     OW 5971   1.916   4.986   1.141 -0.1721  0.2693 -0.5701
 1550SOL    HW2 5972   1.862   4.956   1.068 -0.6606  0.2524 -0.1996
 1550SOL    HW3 5973   1.945   4.906   1.184  0.8859  0.2369 -1.2833
 1550SOL    MW4 5974   1.913   4.972   1.137 -0.0969  0.2628 -0.6153
 1551SOL     OW 5975   6.400   2.321   5.328 -0.0659 -0.4919 -0.7095
 1551SOL    HW2 5976   6.431   2.398   5.375 -3.0558  0.4841 -0.0808
 1551SOL    HW3 5977   6.465   2.306   5.260  1.0883  2.0242 -0.2782
 1551SOL    MW4 5978   6.412   2.329   5.325 -0.3081 -0.0311 -0.5696
 1552SOL     OW 5979   5.008   2.991   5.209 -0.4120  0.5073 -0.3267
 1552SOL    HW2 5980   5.062   3.029   5.139  1.9058 -1.0901  0.4482
 1552SOL    HW3 5981   4.972   3.067   5.255  1.7136  1.7381 -0.5359
 1552SOL    MW4 5982   5.011   3.006   5.206  0.1742  0.4589 -0.2521
 1553SOL     OW 5983   5.632   1.777   0.495 -0.1931  0.0629 -0.3791
 1553SOL    HW2 5984   5.566   1.846   0.484  1.4166  1.7575  0.0945
 1553SOL    HW3 5985   5.685   1.807   0.569  1.2290 -1.1476 -0.8641
 1553SOL    MW4 5986   5.630   1.790   0.504  0.2069  0.1268 -0.3806
 1554SOL     OW 5987   5.025   0.126   1.493  0.3631  0.1856 -0.6374
 1554SOL    HW2 5988   5.054   0.110   1.583 -1.0336  2.2468  0.2648
 1554SOL    HW3 5989   5.087   0.191   1.460 -0.1527  0.7369 -0.5307
 1554SOL    MW4 5990   5.037   0.133   1.500  0.1108  0.5303 -0.5043
 1555SOL     OW 5991   0.918   2.770   0.512 -0.0475 -0.6122  1.0351
 1555SOL    HW2 5992   0.871   2.773   0.595  2.4801 -1.1771  2.6041
 1555SOL    HW3 5993   0.953   2.681   0.506  0.8752 -0.2115  0.0072
 1555SOL    MW4 5994   0.917   2.759   0.522  0.4078 -0.6338  1.1065
 1556SOL     OW 5995   3.228   0.878   4.366  0.8252 -0.2525 -0.0399
 1556SOL    HW2 5996   3.141   0.846   4.389  0.3574  1.6800  1.1002
 1556SOL    HW3 5997   3.283   0.855   4.441  1.0793 -0.6141 -0.3337
 1556SOL    MW4 5998   3.224   0.871   4.379  0.7970 -0.0452  0.0718
 1557SOL     OW 5999   5.304   4.677   2.856 -0.3613 -0.6044 -0.6861
 1557SOL    HW2 6000   5.305   4.624   2.935  1.0387 -1.8656 -1.5005
 1557SOL    HW3 6001   5.231   4.738   2.869  0.5084 -0.0174  2.0264
 1557SOL    MW4 6002   5.294   4.678   2.868 -0.0619 -0.6933 -0.4356
 1558SOL     OW 6003   3.006   2.213   3.205 -0.5966 -0.0299  0.1490
 1558SOL    HW2 6004   2.999   2.120   3.226  1.2933 -0.0649  0.8044
 1558SOL    HW3 6005   3.029   2.254   3.289 -1.6313  1.0852 -0.0817
 1558SOL    MW4 6006   3.008   2.206   3.219 -0.4838  0.1126  0.2050
 1559SOL     OW 6007   4.065   3.747   6.220 -0.0289  0.0115 -0.1597
 1559SOL    HW2 6008   4.079   3.842   6.216  0.0694 -0.0045 -0.1970
 1559SOL    HW3 6009   4.029   3.725   6.134 -0.8944  0.1513  0.1541
 1559SOL    MW4 6010   4.062   3.757   6.208 -0.1301  0.0278 -0.1232
 1560SOL     OW 6011   3.628   5.762   2.704 -0.6276  0.1277  0.9696
 1560SOL    HW2 6012   3.550   5.793   2.750 -0.5896  1.5415  0.1478
 1560SOL    HW3 6013   3.702   5.790   2.759 -0.6449  0.3029  0.9047
 1560SOL    MW4 6014   3.628   5.770   2.717 -0.6248  0.3374  0.8526
 1561SOL     OW 6015   5.205   0.591   4.041  0.1567  0.8157  0.2333
 1561SOL    HW2 6016   5.142   0.521   4.056  2.4981 -1.0789  1.9681
 1561SOL    HW3 6017   5.237   0.577   3.952 -1.4269  1.5241 -0.4933
 1561SOL    MW4 6018   5.201   0.580   4.032  0.2567  0.6592  0.3663
 1562SOL     OW 6019   6.181   2.068   0.108 -0.0631 -0.5570 -0.2800
 1562SOL    HW2 6020   6.251   2.130   0.128 -0.7809  1.0523 -2.3450
 1562SOL    HW3 6021   6.211   1.984   0.143  1.4946  0.6909  1.5418
 1562SOL    MW4 6022   6.194   2.065   0.115  0.0477 -0.1800 -0.3121
 1563SOL     OW 6023   3.018   5.051   3.697  0.4809 -0.1580  0.1441
 1563SOL    HW2 6024   2.978   4.965   3.686  0.6552 -0.1555 -0.5778
 1563SOL    HW3 6025   2.984   5.083   3.780 -1.1267 -0.1024 -0.5009
 1563SOL    MW4 6026   3.008   5.044   3.706  0.2918 -0.1503 -0.0363
 1564SOL     OW 6027   0.444   0.186   0.208 -0.0696  0.3334  0.2481
 1564SOL    HW2 6028   0.475   0.163   0.296 -1.8097 -0.9424  0.5840
 1564SOL    HW3 6029   0.452   0.105   0.157  0.3391  0.8966 -0.6069
 1564SOL    MW4 6030   0.449   0.172   0.213 -0.2453  0.2394  0.1796
 1565SOL     OW 6031   3.776   6.136   3.412  0.2402  0.9673 -0.7462
 1565SOL    HW2 6032   3.870   6.120   3.406 -0.2404 -1.8933 -2.2271
 1565SOL    HW3 6033   3.743   6.070   3.472 -1.0491  0.6921 -1.6942
 1565SOL    MW4 6034   3.784   6.125   3.419  0.0067  0.5535 -1.0667
 1566SOL     OW 6035   2.261   4.684   5.101 -0.8870 -0.2458  0.0506
 1566SOL    HW2 6036   2.301   4.768   5.123 -0.1589 -0.2674 -1.1007
 1566SOL    HW3 6037   2.335   4.625   5.088 -1.3618 -0.8195 -0.0918
 1566SOL    MW4 6038   2.276   4.687   5.102 -0.8536 -0.3244 -0.1201
 1567SOL     OW 6039   0.091   3.803   1.782  0.1740  0.3868  0.1510
 1567SOL    HW2 6040   0.168   3.770   1.736  1.7292  2.2330  1.2627
 1567SOL    HW3 6041   0.090   3.754   1.864 -1.3415 -1.3682 -0.8374
 1567SOL    MW4 6042   0.101   3.792   1.786  0.1793  0.3989  0.1672
 1568SOL     OW 6043   4.017   2.726   4.131 -0.2855  0.0420  0.2708
 1568SOL    HW2 6044   3.928   2.708   4.100  0.9787 -1.9572 -2.6106
 1568SOL    HW3 6045   4.059   2.773   4.059  1.2567  0.1745  1.2095
 1568SOL    MW4 6046   4.011   2.730   4.117  0.0848 -0.2043  0.0145
 1569SOL     OW 6047   0.340   5.858   1.521 -0.5148 -0.1625 -0.0406
 1569SOL    HW2 6048   0.402   5.908   1.574 -3.1270  2.0828  1.1739
 1569SOL    HW3 6049   0.394   5.806   1.462  2.4669  1.0637  1.4487
 1569SOL    MW4 6050   0.355   5.858   1.520 -0.4661  0.2955  0.3161
 1570SOL     OW 6051   2.877   2.580   5.566  0.0246  0.5134 -0.0425
 1570SOL    HW2 6052   2.964   2.615   5.582 -0.2989  1.0929  0.4999
 1570SOL    HW3 6053   2.888   2.485   5.572  0.3309  0.6158  1.6575
 1570SOL    MW4 6054   2.890   2.572   5.569  0.0223  0.6034  0.2534
 1571SOL     OW 6055   0.961   1.895   5.352  0.4925 -0.1160  0.5551
 1571SOL    HW2 6056   0.935   1.838   5.424  0.4215  0.4163  0.9625
 1571SOL    HW3 6057   0.906   1.868   5.279 -0.1678  0.0022  0.9889
 1571SOL    MW4 6058   0.950   1.884   5.352  0.3960 -0.0301  0.6661
 1572SOL     OW 6059   4.180   5.770   0.129  0.1936 -0.3072  1.0460
 1572SOL    HW2 6060   4.209   5.816   0.050  0.3066 -0.6430  0.8881
 1572SOL    HW3 6061   4.097   5.811   0.152 -0.5150 -1.0790 -0.0167
 1572SOL    MW4 6062   4.173   5.781   0.121  0.1150 -0.4534  0.8850
 1573SOL     OW 6063   0.358   6.329   4.710 -0.5514  0.0106  0.4696
 1573SOL    HW2 6064   0.328   6.263   4.647 -0.7839  1.4384 -0.9854
 1573SOL    HW3 6065   0.401   6.396   4.655 -0.6322  1.2394  1.8529
 1573SOL    MW4 6066   0.360   6.329   4.694 -0.5928  0.3611  0.4602
 1574SOL     OW 6067   1.332   5.525   0.112  0.0567  0.1849 -0.7362
 1574SOL    HW2 6068   1.304   5.506   0.023 -2.4123  0.8234 -0.1708
 1574SOL    HW3 6069   1.315   5.444   0.161 -1.3202  0.7327 -0.2849
 1574SOL    MW4 6070   1.326   5.512   0.107 -0.4507  0.3414 -0.6021
 1575SOL     OW 6071   3.599   3.318   6.377 -0.1043  0.0074 -0.0658
 1575SOL    HW2 6072   3.601   3.406   6.339 -0.4902 -0.5295 -1.3946
 1575SOL    HW3 6073   3.513   3.312   6.419 -0.0696  0.2659  0.0444
 1575SOL    MW4 6074   3.588   3.329   6.377 -0.1506 -0.0293 -0.2266
 1576SOL     OW 6075   0.109   3.441   3.933  0.4286  0.6301 -0.2252
 1576SOL    HW2 6076   0.094   3.361   3.983  0.0374 -0.3220 -1.8028
 1576SOL    HW3 6077   0.200   3.464   3.950  0.3680  0.1898  0.7154
 1576SOL    MW4 6078   0.119   3.433   3.942  0.3690  0.4464 -0.3092
 1577SOL     OW 6079   6.151   2.425   2.241 -0.0211 -0.3775 -0.6977
 1577SOL    HW2 6080   6.133   2.339   2.202  0.1922 -1.0519  0.6497
 1577SOL    HW3 6081   6.222   2.461   2.189  0.1290 -1.1748 -1.0553
 1577SOL    MW4 6082   6.158   2.418   2.229  0.0268 -0.5717 -0.5671
 1578SOL     OW 6083   3.915   3.380   2.432  0.2008  0.1560 -0.1969
 1578SOL    HW2 6084   3.898   3.443   2.502  1.1435 -0.4161  0.5932
 1578SOL    HW3 6085   3.975   3.317   2.472 -3.1554 -3.1603  0.1737
 1578SOL    MW4 6086   3.921   3.380   2.447 -0.1176 -0.3571 -0.0438
 1579SOL     OW 6087   2.657   4.676   0.626 -0.1477 -0.4832 -0.4057
 1579SOL    HW2 6088   2.712   4.728   0.684 -0.0191  3.2822 -3.4975
 1579SOL    HW3 6089   2.567   4.696   0.654 -0.0713 -0.8569  0.1263
 1579SOL    MW4 6090   2.652   4.685   0.637 -0.1206 -0.0357 -0.7434
 1580SOL     OW 6091   0.892   6.066   1.977 -0.3156  1.1158  0.2898
 1580SOL    HW2 6092   0.983   6.078   2.004 -0.9743  1.2236  2.6202
 1580SOL    HW3 6093   0.854   6.154   1.982 -0.8962  0.8450  0.7103
 1580SOL    MW4 6094   0.899   6.080   1.981 -0.4791  1.0943  0.6527
 1581SOL     OW 6095   3.050   0.122   3.138 -0.1916 -0.3312  0.5518
 1581SOL    HW2 6096   3.131   0.107   3.187  0.1026  0.2076  0.2368
 1581SOL    HW3 6097   2.982   0.080   3.192  0.3207 -1.0074  0.6921
 1581SOL    MW4 6098   3.051   0.114   3.152 -0.0852 -0.3493  0.5287
 1582SOL     OW 6099   0.561   2.515   2.437  0.2711 -0.6312 -0.2105
 1582SOL    HW2 6100   0.638   2.569   2.455  1.1052 -1.3968 -1.4087
 1582SOL    HW3 6101   0.525   2.496   2.524  0.3710  1.2057  0.2904
 1582SOL    MW4 6102   0.566   2.520   2.451  0.3943 -0.4898 -0.3025
 1583SOL     OW 6103   4.346   6.014   1.734  0.0037  0.6766  0.6328
 1583SOL    HW2 6104   4.350   6.083   1.800  0.5025  1.0821  0.1844
 1583SOL    HW3 6105   4.365   5.934   1.782 -0.8130  0.8074  1.2062
 1583SOL    MW4 6106   4.349   6.013   1.749 -0.0382  0.7474  0.6493
 1584SOL     OW 6107   3.481   3.710   4.433  0.1973 -0.1421  0.2077
 1584SOL    HW2 6108   3.499   3.800   4.460  0.0548 -0.0636  0.0423
 1584SOL    HW3 6109   3.397   3.715   4.388  0.1760 -0.3629  0.2221
 1584SOL    MW4 6110   3.472   3.722   4.431  0.1757 -0.1609  0.1878
 1585SOL     OW 6111   3.815   3.299   1.193  0.0657  0.1598 -0.1352
 1585SOL    HW2 6112   3.878   3.228   1.178 -0.3450 -0.2427  0.0231
 1585SOL    HW3 6113   3.767   3.306   1.111 -2.8365 -2.6913  1.1145
 1585SOL    MW4 6114   3.817   3.291   1.180 -0.3714 -0.2694  0.0505
 1586SOL     OW 6115   3.017   4.429   5.917 -0.2261 -0.7424  0.0237
 1586SOL    HW2 6116   3.110   4.408   5.918 -0.2658 -0.9191  0.4658
 1586SOL    HW3 6117   3.008   4.501   5.980 -0.4799 -1.1572  0.4704
 1586SOL    MW4 6118   3.028   4.436   5.926 -0.2649 -0.8205  0.1410
 1587SOL     OW 6119   3.253   5.150   5.982  0.4755  0.2283 -0.7303
 1587SOL    HW2 6120   3.333   5.098   5.974  0.1499 -0.5178  0.4965
 1587SOL    HW3 6121   3.219   5.127   6.068 -1.3161  0.1657 -1.4146
 1587SOL    MW4 6122   3.259   5.140   5.992  0.1961  0.1216 -0.6587
 1588SOL     OW 6123   5.239   5.456   5.810 -0.6636 -0.1509 -0.1886
 1588SOL    HW2 6124   5.210   5.416   5.892 -1.7323  1.5071  0.3019
 1588SOL    HW3 6125   5.160   5.462   5.756 -0.3096  0.2618 -0.6812
 1588SOL    MW4 6126   5.225   5.452   5.814 -0.7579  0.1223 -0.1889
 1589SOL     OW 6127   6.416   1.388   5.382 -0.1926 -0.2795  0.2240
 1589SOL    HW2 6128   6.482   1.372   5.450  1.9814  0.0613 -1.6632
 1589SOL    HW3 6129   6.336   1.406   5.430  1.6182  1.8446  2.7749
 1589SOL    MW4 6130   6.414   1.388   5.397  0.3331  0.0457  0.3116
 1590SOL     OW 6131   0.651   4.818   4.687  0.1666  0.0067 -0.0234
 1590SOL    HW2 6132   0.642   4.787   4.597  2.1617  0.4108 -0.4281
 1590SOL    HW3 6133   0.654   4.914   4.679  0.5012  0.0403  0.4476
 1590SOL    MW4 6134   0.650   4.827   4.674  0.4740  0.0645 -0.0147
 1591SOL     OW 6135   6.081   4.620   2.608 -0.0829 -0.1995 -0.2701
 1591SOL    HW2 6136   6.065   4.696   2.664 -0.0753 -0.6562  0.3608
 1591SOL    HW3 6137   6.027   4.636   2.530 -0.3487  0.2830  0.0074
 1591SOL    MW4 6138   6.072   4.632   2.605 -0.1169 -0.1961 -0.1503
 1592SOL     OW 6139   1.080   2.043   5.922 -0.3391 -0.3040 -0.2268
 1592SOL    HW2 6140   1.140   2.046   5.997 -0.5485  0.8943 -0.0757
 1592SOL    HW3 6141   1.133   2.011   5.849  0.4851  0.7039 -0.0853
 1592SOL    MW4 6142   1.095   2.039   5.922 -0.2580 -0.0129 -0.1882
 1593SOL     OW 6143   5.649   1.519   4.206  0.0425  0.1184  0.0225
 1593SOL    HW2 6144   5.728   1.553   4.247 -0.1946  0.0120  0.5760
 1593SOL    HW3 6145   5.657   1.544   4.114  2.2267 -2.5787 -0.6626
 1593SOL    MW4 6146   5.660   1.527   4.199  0.2994 -0.2515  0.0051
 1594SOL     OW 6147   2.104   5.323   5.914 -0.0770  0.8312 -0.1532
 1594SOL    HW2 6148   2.137   5.233   5.920  0.5521  1.0826  0.2947
 1594SOL    HW3 6149   2.011   5.313   5.894 -0.0613  0.0752  0.0981
 1594SOL    MW4 6150   2.096   5.309   5.912  0.0081  0.7646 -0.0610
 1595SOL     OW 6151   0.175   4.331   3.740  0.1666  0.5522 -0.2903
 1595SOL    HW2 6152   0.196   4.317   3.832 -2.5285 -0.0269  0.3226
 1595SOL    HW3 6153   0.259   4.322   3.694  1.5262  0.6253  2.0500
 1595SOL    MW4 6154   0.189   4.328   3.746 -0.0096  0.4854  0.0994
 1596SOL     OW 6155   1.277   5.760   1.180  0.1658  0.6917 -0.2265
 1596SOL    HW2 6156   1.284   5.744   1.274 -1.9334 -0.2980 -0.1838
 1596SOL    HW3 6157   1.188   5.794   1.168  0.7011  1.6500 -1.7638
 1596SOL    MW4 6158   1.266   5.763   1.190 -0.0406  0.6876 -0.4237
 1597SOL     OW 6159   5.216   4.339   5.710  0.2540 -0.0882  0.6575
 1597SOL    HW2 6160   5.287   4.276   5.697  0.5474 -0.0435  1.9761
 1597SOL    HW3 6161   5.138   4.285   5.719  0.2098 -0.1653 -0.0934
 1597SOL    MW4 6162   5.215   4.323   5.709  0.2869 -0.0925  0.7324
 1598SOL     OW 6163   6.003   3.858   2.925 -0.4359 -0.2759 -0.0513
 1598SOL    HW2 6164   6.098   3.845   2.922 -0.5456 -1.2557  0.3856
 1598SOL    HW3 6165   5.967   3.770   2.937 -1.4947 -0.1519 -1.9558
 1598SOL    MW4 6166   6.011   3.845   2.926 -0.5900 -0.3888 -0.2449
 1599SOL     OW 6167   5.331   4.205   4.875  0.0415 -0.6377 -0.1177
 1599SOL    HW2 6168   5.321   4.210   4.970 -1.6375 -2.7558 -0.0924
 1599SOL    HW3 6169   5.300   4.117   4.853  1.5632 -0.6413 -2.5134
 1599SOL    MW4 6170   5.325   4.194   4.885  0.0207 -0.9176 -0.4304
 1600SOL     OW 6171   1.312   3.139   2.175 -1.0087  0.2518 -0.2099
 1600SOL    HW2 6172   1.280   3.179   2.255  0.8884  0.8120  0.3020
 1600SOL    HW3 6173   1.294   3.046   2.186  0.0916  0.1900  1.3045
 1600SOL    MW4 6174   1.305   3.132   2.187 -0.6132  0.3176  0.0575
 1601SOL     OW 6175   0.157   0.397   5.409 -0.0248 -0.1160 -0.2380
 1601SOL    HW2 6176   0.105   0.403   5.488 -0.4796  1.7442 -0.6242
 1601SOL    HW3 6177   0.135   0.312   5.371  0.6825 -1.3150  1.9124
 1601SOL    MW4 6178   0.147   0.387   5.414  0.0085 -0.0288 -0.0053
 1602SOL     OW 6179   1.127   2.218   0.338 -0.2621  0.1302 -0.0128
 1602SOL    HW2 6180   1.108   2.279   0.409  0.0496  0.9379 -0.6013
 1602SOL    HW3 6181   1.128   2.132   0.379  1.5824  0.7261  1.3091
 1602SOL    MW4 6182   1.125   2.215   0.353  0.0224  0.3154  0.0840
 1603SOL     OW 6183   3.973   2.622   2.342  0.0427 -0.3481  0.1459
 1603SOL    HW2 6184   3.913   2.679   2.294  2.1002  0.9121 -1.0673
 1603SOL    HW3 6185   3.945   2.533   2.320  0.2843  0.1766 -2.6777
 1603SOL    MW4 6186   3.962   2.618   2.333  0.3461 -0.1126 -0.3867
 1604SOL     OW 6187   2.139   1.569   2.186 -0.7034  0.0122 -0.6875
 1604SOL    HW2 6188   2.160   1.477   2.170 -1.7476 -0.2076 -0.8140
 1604SOL    HW3 6189   2.063   1.567   2.244  0.1401  0.8063  0.5011
 1604SOL    MW4 6190   2.132   1.556   2.192 -0.7298  0.0880 -0.5474
 1605SOL     OW 6191   5.101   2.538   6.226 -0.5743 -0.1071 -0.0351
 1605SOL    HW2 6192   5.064   2.458   6.264 -0.7149 -0.2140 -0.3901
 1605SOL    HW3 6193   5.190   2.543   6.261 -0.3202 -0.7952 -0.5582
 1605SOL    MW4 6194   5.108   2.528   6.235 -0.5593 -0.2120 -0.1510
 1606SOL     OW 6195   4.816   2.476   4.551 -0.0087 -0.4720  0.3487
 1606SOL    HW2 6196   4.830   2.387   4.519  0.5045 -0.6281  0.9663
 1606SOL    HW3 6197   4.725   2.478   4.580  0.5461 -1.5024  2.3691
 1606SOL    MW4 6198   4.806   2.465   4.551  0.1322 -0.6286  0.6968
 1607SOL     OW 6199   5.182   1.778   1.003  0.3467 -0.2770  0.3770
 1607SOL    HW2 6200   5.233   1.710   0.959 -1.2237 -0.6796 -0.9271
 1607SOL    HW3 6201   5.197   1.763   1.096  3.3402  0.2499  0.0609
 1607SOL    MW4 6202   5.190   1.767   1.009  0.5345 -0.2606  0.1632
 1608SOL     OW 6203   0.507   3.669   3.900  0.2562 -0.2975  0.3528
 1608SOL    HW2 6204   0.565   3.602   3.863 -0.6127 -1.4779  1.0536
 1608SOL    HW3 6205   0.539   3.683   3.988  0.5533  0.3647  0.1426
 1608SOL    MW4 6206   0.519   3.662   3.907  0.1808 -0.3659  0.4176
 1609SOL     OW 6207   1.513   5.216   4.327  0.1446  0.0743 -0.3535
 1609SOL    HW2 6208   1.449   5.282   4.300  1.0306  0.7372 -0.8779
 1609SOL    HW3 6209   1.460   5.144   4.362 -0.8401  1.0044  0.1110
 1609SOL    MW4 6210   1.497   5.215   4.328  0.1316  0.2845 -0.3614
 1610SOL     OW 6211   3.482   2.918   5.223  0.0936 -0.8362  0.1319
 1610SOL    HW2 6212   3.567   2.953   5.194  1.0598 -0.9893  2.5724
 1610SOL    HW3 6213   3.436   2.897   5.142  1.5227  1.2631 -1.3149
 1610SOL    MW4 6214   3.487   2.920   5.208  0.4096 -0.5794  0.2630
 1611SOL     OW 6215   2.684   4.513   5.901  0.0510  0.0587  0.2528
 1611SOL    HW2 6216   2.681   4.604   5.871  0.2876 -0.1362 -0.3760
 1611SOL    HW3 6217   2.706   4.519   5.994  0.6567  0.6211  0.0813
 1611SOL    MW4 6218   2.687   4.526   5.910  0.1621  0.1072  0.1472
 1612SOL     OW 6219   3.828   5.551   3.603  0.2692  0.5471  0.3235
 1612SOL    HW2 6220   3.918   5.521   3.609 -0.1138 -0.6483  0.3206
 1612SOL    HW3 6221   3.813   5.597   3.686  0.9076  0.8501  0.2750
 1612SOL    MW4 6222   3.838   5.553   3.615  0.3029  0.4293  0.3167
 1613SOL     OW 6223   1.446   0.772   0.442  0.1389  0.0451  0.1831
 1613SOL    HW2 6224   1.490   0.809   0.519  1.1111  0.4514 -0.5641
 1613SOL    HW3 6225   1.515   0.759   0.378 -0.6693 -0.2760 -0.6421
 1613SOL    MW4 6226   1.461   0.775   0.444  0.1605  0.0563 -0.0243
 1614SOL     OW 6227   5.101   1.500   2.142 -0.0389  0.4743  0.4898
 1614SOL    HW2 6228   5.020   1.480   2.189  0.1248 -0.0333  0.5682
 1614SOL    HW3 6229   5.154   1.421   2.152  0.5152  0.8462  0.5377
 1614SOL    MW4 6230   5.097   1.487   2.150  0.0558  0.4564  0.5065
 1615SOL     OW 6231   5.702   3.941   4.715  0.6356 -0.0939 -0.3527
 1615SOL    HW2 6232   5.616   3.905   4.693  1.2132 -1.7860  0.0115
 1615SOL    HW3 6233   5.695   4.034   4.693 -1.0052 -0.3580 -1.1306
 1615SOL    MW4 6234   5.690   3.949   4.709  0.4953 -0.3520 -0.4073
 1616SOL     OW 6235   1.832   2.816   2.437 -0.6210 -0.1882 -0.1593
 1616SOL    HW2 6236   1.790   2.791   2.354 -0.1228 -1.4785 -0.0408
 1616SOL    HW3 6237   1.857   2.908   2.424 -0.8786 -0.2620 -1.3004
 1616SOL    MW4 6238   1.830   2.825   2.424 -0.5893 -0.3682 -0.2942
 1617SOL     OW 6239   3.975   2.279   0.024  0.1177  0.8740  0.4637
 1617SOL    HW2 6240   3.935   2.285  -0.063  1.3160 -0.2861 -0.1888
 1617SOL    HW3 6241   3.943   2.197   0.060  1.2674  0.3084  0.2420
 1617SOL    MW4 6242   3.965   2.269   0.017  0.4275  0.6463  0.3484
 1618SOL     OW 6243   5.291   5.138   5.801  0.5255  0.0235  0.2135
 1618SOL    HW2 6244   5.253   5.163   5.716  1.3994 -0.6242 -0.3927
 1618SOL    HW3 6245   5.378   5.179   5.801  2.2699 -3.2755 -1.0869
 1618SOL    MW4 6246   5.298   5.147   5.789  0.8710 -0.4972 -0.0381
 1619SOL     OW 6247   6.405   1.585   6.055 -0.1011  0.1764  0.0625
 1619SOL    HW2 6248   6.361   1.670   6.054 -0.8716 -0.2145  0.1293
 1619SOL    HW3 6249   6.358   1.535   6.121  0.4171 -0.2686  0.0947
 1619SOL    MW4 6250   6.393   1.590   6.063 -0.1344  0.0661  0.0756
 1620SOL     OW 6251   4.760   3.843   0.679  0.8524  0.2115 -0.3458
 1620SOL    HW2 6252   4.679   3.817   0.636  0.4548 -0.6551  0.8779
 1620SOL    HW3 6253   4.823   3.851   0.608 -0.8620  3.5203 -1.7136
 1620SOL    MW4 6254   4.758   3.841   0.664  0.5738  0.5337 -0.3648
 1621SOL     OW 6255   4.254   0.827   4.939  0.6445  0.1279  0.5701
 1621SOL    HW2 6256   4.186   0.883   4.976  0.4706 -0.7587  1.6565
 1621SOL    HW3 6257   4.213   0.786   4.863 -0.2888 -0.8882  1.5793
 1621SOL    MW4 6258   4.240   0.829   4.934  0.4984 -0.1231  0.8466
 1622SOL     OW 6259   5.050   0.353   4.108  1.0617 -0.1949 -0.1251
 1622SOL    HW2 6260   5.089   0.266   4.117 -0.3303 -0.6384  2.5603
 1622SOL    HW3 6261   4.958   0.341   4.131  0.4382  1.7158 -1.3696
 1622SOL    MW4 6262   5.043   0.340   4.112  0.7958 -0.0013  0.0650
 1623SOL     OW 6263   4.182   3.213   1.704  0.6927 -0.0983 -0.1937
 1623SOL    HW2 6264   4.089   3.192   1.698  0.9304 -1.8268  1.3152
 1623SOL    HW3 6265   4.184   3.305   1.730 -0.7647 -0.8077  2.9458
 1623SOL    MW4 6266   4.170   3.222   1.707  0.5318 -0.4199  0.4196
 1624SOL     OW 6267   5.226   3.781   0.656 -0.6776  0.6703 -0.1322
 1624SOL    HW2 6268   5.194   3.699   0.694  1.1348  0.3434  0.8092
 1624SOL    HW3 6269   5.200   3.848   0.720 -0.3830  0.5401  0.1288
 1624SOL    MW4 6270   5.218   3.779   0.670 -0.3996  0.6100  0.0264
 1625SOL     OW 6271   6.078   0.732   4.347 -0.1348  0.5510 -0.2564
 1625SOL    HW2 6272   6.098   0.817   4.308  0.6350  1.1564  1.3303
 1625SOL    HW3 6273   6.077   0.671   4.274  0.5997  1.7175 -1.2817
 1625SOL    MW4 6274   6.080   0.735   4.332  0.0637  0.7848 -0.1823
 1626SOL     OW 6275   3.274   3.291   0.448  0.5774  0.0505  0.2229
 1626SOL    HW2 6276   3.183   3.273   0.426  0.4978  0.6855  0.0073
 1626SOL    HW3 6277   3.282   3.266   0.540  0.7599 -2.0795 -0.3154
 1626SOL    MW4 6278   3.263   3.285   0.457  0.5910 -0.1467  0.1235
 1627SOL     OW 6279   5.292   0.568   0.832  0.2836  0.3010 -0.2615
 1627SOL    HW2 6280   5.277   0.647   0.884 -0.6483  0.4115 -0.6756
 1627SOL    HW3 6281   5.300   0.498   0.897 -2.0119  0.2474  0.0492
 1627SOL    MW4 6282   5.291   0.569   0.847 -0.1422  0.3085 -0.2751
 1628SOL     OW 6283   0.618   2.108   0.600  0.6888 -0.2571  0.1614
 1628SOL    HW2 6284   0.599   2.096   0.693  2.1121  0.3910  0.5595
 1628SOL    HW3 6285   0.640   2.020   0.569  2.2107 -0.1975  0.9500
 1628SOL    MW4 6286   0.619   2.094   0.608  1.0774 -0.1637  0.3180
 1629SOL     OW 6287   1.201   2.556   3.733  0.4980  0.5746  0.3238
 1629SOL    HW2 6288   1.263   2.565   3.661 -0.1345  0.4608 -0.2487
 1629SOL    HW3 6289   1.230   2.478   3.779  0.3711  0.1114 -0.3604
 1629SOL    MW4 6290   1.213   2.547   3.729  0.3978  0.4984  0.1580
 1630SOL     OW 6291   4.728   1.191   0.206  0.0673 -0.5357  0.3607
 1630SOL    HW2 6292   4.642   1.214   0.240  0.2376 -0.7501  0.9507
 1630SOL    HW3 6293   4.716   1.105   0.165 -0.2326 -0.0896 -0.5177
 1630SOL    MW4 6294   4.715   1.183   0.205  0.0502 -0.5051  0.3226
 1631SOL     OW 6295   2.908   1.492   1.296 -0.5577 -0.2729 -0.1611
 1631SOL    HW2 6296   2.976   1.454   1.351 -0.8401 -1.5196 -0.6536
 1631SOL    HW3 6297   2.954   1.519   1.216 -0.3966  0.2545  0.1024
 1631SOL    MW4 6298   2.923   1.491   1.293 -0.5737 -0.3678 -0.1913
 1632SOL     OW 6299   4.935   3.105   4.788  0.5715  0.1974 -0.1467
 1632SOL    HW2 6300   5.003   3.113   4.855 -0.6275 -1.3159  1.3340
 1632SOL    HW3 6301   4.907   3.195   4.771  3.2212  0.9176 -1.1826
 1632SOL    MW4 6302   4.940   3.118   4.795  0.7629  0.0928 -0.0880
 1633SOL     OW 6303   0.398   1.809   1.250 -0.8378  0.1344  0.5602
 1633SOL    HW2 6304   0.355   1.894   1.237 -1.0398 -0.0670 -0.1657
 1633SOL    HW3 6305   0.485   1.831   1.283 -0.1747  0.7413 -1.4097
 1633SOL    MW4 6306   0.403   1.823   1.252 -0.7770  0.1879  0.2045
 1634SOL     OW 6307   2.680   3.802   2.153 -0.3171  0.1157 -0.5129
 1634SOL    HW2 6308   2.590   3.779   2.175 -0.2493  0.6041  0.3433
 1634SOL    HW3 6309   2.673   3.887   2.110 -0.1814  0.7824  0.7247
 1634SOL    MW4 6310   2.667   3.810   2.150 -0.2902  0.2681 -0.2367
 1635SOL     OW 6311   0.067   6.232   6.333  0.9930 -0.3717  0.2870
 1635SOL    HW2 6312   0.104   6.262   6.250 -0.0395 -0.7990 -0.3373
 1635SOL    HW3 6313  -0.005   6.175   6.308 -0.5549  0.9869  1.4653
 1635SOL    MW4 6314   0.063   6.229   6.319  0.6525 -0.2489  0.3601
 1636SOL     OW 6315   5.100   4.128   0.126 -0.1008 -0.2152  0.0915
 1636SOL    HW2 6316   5.192   4.119   0.152  0.1601  0.7475 -0.4562
 1636SOL    HW3 6317   5.095   4.083   0.042  0.1200  0.6457 -0.3883
 1636SOL    MW4 6318   5.112   4.121   0.118 -0.0373  0.0254 -0.0440
 1637SOL     OW 6319   0.235   3.466   4.727  0.0833 -1.4147  0.0646
 1637SOL    HW2 6320   0.257   3.473   4.634 -3.1077  2.6553 -0.6610
 1637SOL    HW3 6321   0.249   3.553   4.762 -2.7459 -1.7010  2.3232
 1637SOL    MW4 6322   0.240   3.478   4.719 -0.7110 -0.9155  0.2668
 1638SOL     OW 6323   0.238   4.182   5.982 -0.1221  0.2940 -0.0617
 1638SOL    HW2 6324   0.208   4.221   5.900  0.9103  0.5803 -0.3052
 1638SOL    HW3 6325   0.333   4.184   5.977  0.0468  2.5146  2.1366
 1638SOL    MW4 6326   0.246   4.187   5.971  0.0364  0.6247  0.1962
 1639SOL     OW 6327   6.019   5.900   0.564 -0.8329  0.2978 -0.3160
 1639SOL    HW2 6328   6.054   5.854   0.488 -0.0590  0.3818 -0.0103
 1639SOL    HW3 6329   6.052   5.851   0.639 -1.9614 -0.0608 -0.0210
 1639SOL    MW4 6330   6.028   5.887   0.564 -0.8797  0.2616 -0.2367
 1640SOL     OW 6331   6.219   1.739   3.016  0.5405  0.1594  0.2805
 1640SOL    HW2 6332   6.219   1.661   3.072  0.7185  0.4047  0.6246
 1640SOL    HW3 6333   6.230   1.812   3.077 -0.5245  0.5235  0.0616
 1640SOL    MW4 6334   6.220   1.738   3.031  0.4235  0.2398  0.2970
 1641SOL     OW 6335   2.052   2.177   2.618  0.5201 -0.6990 -0.3951
 1641SOL    HW2 6336   1.960   2.154   2.628  0.9480 -1.9179  1.1396
 1641SOL    HW3 6337   2.055   2.230   2.537 -1.6280  0.1606  0.0109
 1641SOL    MW4 6338   2.040   2.181   2.608  0.2931 -0.7464 -0.1391
 1642SOL     OW 6339   5.246   0.702   1.322  0.3178 -0.0629  0.4590
 1642SOL    HW2 6340   5.312   0.760   1.360  0.6104 -0.0222 -0.0946
 1642SOL    HW3 6341   5.232   0.737   1.234 -0.3790 -0.1259  0.5380
 1642SOL    MW4 6342   5.253   0.714   1.315  0.2645 -0.0658  0.3964
 1643SOL     OW 6343   0.118   3.307   1.595 -0.1762  0.2236 -0.4130
 1643SOL    HW2 6344   0.093   3.299   1.687  2.0170  0.7544  0.3030
 1643SOL    HW3 6345   0.056   3.370   1.558  0.7176  2.3621  1.5256
 1643SOL    MW4 6346   0.107   3.314   1.602  0.2311  0.5758 -0.0627
 1644SOL     OW 6347   3.438   6.105   3.974 -0.2234 -0.0266 -0.2280
 1644SOL    HW2 6348   3.441   6.070   3.885  0.0636 -0.0958 -0.1934
 1644SOL    HW3 6349   3.468   6.033   4.030 -0.8435 -0.1303 -0.0270
 1644SOL    MW4 6350   3.442   6.091   3.970 -0.2673 -0.0494 -0.1969
 1645SOL     OW 6351   1.830   6.287   4.260  0.5357 -0.0397 -0.3612
 1645SOL    HW2 6352   1.885   6.320   4.189 -0.2462  1.8175 -0.1499
 1645SOL    HW3 6353   1.756   6.347   4.263 -0.2884 -1.0686  0.9518
 1645SOL    MW4 6354   1.827   6.299   4.251  0.3238  0.0696 -0.1601
 1646SOL     OW 6355   1.796   6.170   5.874  0.4362 -0.5768  0.4162
 1646SOL    HW2 6356   1.861   6.114   5.916 -0.2026  0.2483  2.6982
 1646SOL    HW3 6357   1.726   6.177   5.939  0.3926  2.6807  0.1871
 1646SOL    MW4 6358   1.795   6.164   5.889  0.3462 -0.0381  0.6871
 1647SOL     OW 6359   5.265   5.386   4.548  0.5122 -0.2599 -0.4007
 1647SOL    HW2 6360   5.351   5.423   4.529  0.5014 -0.3039 -0.5391
 1647SOL    HW3 6361   5.281   5.324   4.619  0.6765 -0.6124 -0.7387
 1647SOL    MW4 6362   5.279   5.382   4.555  0.5324 -0.3122 -0.4636
 1648SOL     OW 6363   2.660   3.058   4.635  0.3175  0.0573 -0.2004
 1648SOL    HW2 6364   2.619   3.084   4.553 -1.7729 -0.9967  0.4397
 1648SOL    HW3 6365   2.717   3.132   4.657 -0.6600  1.2806 -1.5515
 1648SOL    MW4 6366   2.662   3.071   4.627 -0.0873  0.0796 -0.2942
 1649SOL     OW 6367   1.904   6.366   5.715  0.2037 -0.6969 -0.0340
 1649SOL    HW2 6368   1.863   6.306   5.778  1.0547  0.2945  1.5517
 1649SOL    HW3 6369   1.845   6.442   5.714 -0.3006 -1.0828 -1.1998
 1649SOL    MW4 6370   1.891   6.368   5.723  0.2495 -0.6170  0.0214
 1650SOL     OW 6371   4.074   5.120   3.493  0.5659  0.2691 -0.9100
 1650SOL    HW2 6372   4.030   5.194   3.451  1.8109  0.2269 -2.3390
 1650SOL    HW3 6373   4.163   5.150   3.509  0.2308  0.1810  1.5245
 1650SOL    MW4 6374   4.080   5.134   3.490  0.6859  0.2519 -0.7773
 1651SOL     OW 6375   1.877   5.628   0.230  0.1108  0.3161 -0.3180
 1651SOL    HW2 6376   1.900   5.582   0.311 -1.3707  0.4365  0.2002
 1651SOL    HW3 6377   1.841   5.560   0.173 -1.5228  0.6740  0.2267
 1651SOL    MW4 6378   1.876   5.613   0.233 -0.3002  0.3792 -0.1777
 1652SOL     OW 6379   1.457   5.714   4.888 -0.1791 -0.2359 -0.2593
 1652SOL    HW2 6380   1.446   5.694   4.795  0.5911  0.6975 -0.5710
 1652SOL    HW3 6381   1.537   5.767   4.892 -0.1564 -0.3199  0.9471
 1652SOL    MW4 6382   1.466   5.719   4.876 -0.0745 -0.1238 -0.1412
 1653SOL     OW 6383   3.658   3.449   5.332  0.4234  0.0169  0.5705
 1653SOL    HW2 6384   3.581   3.489   5.291  0.4437  1.5965  1.9530
 1653SOL    HW3 6385   3.634   3.357   5.343 -1.0657  0.3651  0.4845
 1653SOL    MW4 6386   3.645   3.442   5.328  0.2296  0.2712  0.7415
 1654SOL     OW 6387   0.372   1.398   4.428 -0.1155 -0.4433  0.1136
 1654SOL    HW2 6388   0.284   1.404   4.465 -0.9771  1.2531 -1.9405
 1654SOL    HW3 6389   0.429   1.442   4.491 -1.3446  1.4299  0.0014
 1654SOL    MW4 6390   0.368   1.404   4.441 -0.3914  0.0277 -0.1722
 1655SOL     OW 6391   2.528   6.051   2.503  0.0522  0.2838  0.2295
 1655SOL    HW2 6392   2.607   6.089   2.540  0.5689 -1.1930  0.7089
 1655SOL    HW3 6393   2.510   5.974   2.558 -1.3600  0.2487 -0.2458
 1655SOL    MW4 6394   2.536   6.046   2.515 -0.0659  0.0843  0.2301
 1656SOL     OW 6395   0.502   0.951   1.239 -0.4689  0.1202  0.1603
 1656SOL    HW2 6396   0.415   0.959   1.199 -0.9293  1.4821  1.3572
 1656SOL    HW3 6397   0.543   1.036   1.224  0.7185 -0.5285 -0.4441
 1656SOL    MW4 6398   0.496   0.963   1.232 -0.3730  0.2143  0.2385
 1657SOL     OW 6399   0.022   0.247   0.559 -0.6282 -0.2697 -0.7899
 1657SOL    HW2 6400  -0.070   0.240   0.535 -0.6302 -0.2332 -0.7922
 1657SOL    HW3 6401   0.054   0.156   0.559 -0.8055 -0.3356 -0.2144
 1657SOL    MW4 6402   0.014   0.234   0.556 -0.6519 -0.2736 -0.7143
 1658SOL     OW 6403   3.257   0.216   5.086 -0.2101 -0.2759  0.3668
 1658SOL    HW2 6404   3.329   0.224   5.148 -0.9293 -0.6609  1.2775
 1658SOL    HW3 6405   3.191   0.164   5.132 -1.3347  0.6067 -0.1776
 1658SOL    MW4 6406   3.258   0.210   5.100 -0.4534 -0.2102  0.4151
 1659SOL     OW 6407   0.097   1.619   4.784 -0.3187 -0.4368 -0.0392
 1659SOL    HW2 6408   0.002   1.629   4.776 -0.1857  0.9751 -0.1396
 1659SOL    HW3 6409   0.133   1.703   4.754  0.9439 -0.8214  0.3192
 1659SOL    MW4 6410   0.089   1.632   4.779 -0.1346 -0.3013 -0.0052
 1660SOL     OW 6411   0.903   4.002   4.337  0.4117  0.6773 -0.3738
 1660SOL    HW2 6412   0.967   4.073   4.328 -1.2383  2.3419  0.3058
 1660SOL    HW3 6413   0.951   3.923   4.312  1.7934  2.2607 -3.3279
 1660SOL    MW4 6414   0.918   4.001   4.332  0.3763  1.1058 -0.6739
 1661SOL     OW 6415   2.202   3.216   4.008 -0.1843  0.2803  0.5242
 1661SOL    HW2 6416   2.116   3.210   4.050  0.0843 -2.0436  0.8902
 1661SOL    HW3 6417   2.258   3.161   4.062  0.9641 -0.1648 -1.0558
 1661SOL    MW4 6418   2.198   3.208   4.021  0.0027 -0.0851  0.3641
 1662SOL     OW 6419   1.015   0.976   4.664 -0.2658  0.9742  0.3550
 1662SOL    HW2 6420   0.998   0.926   4.744  0.6797  0.7040  0.3973
 1662SOL    HW3 6421   1.088   1.034   4.687  2.2886 -1.3876 -1.1922
 1662SOL    MW4 6422   1.022   0.977   4.678  0.1959  0.6269  0.1565
 1663SOL     OW 6423   0.544   5.107   6.367 -0.7352  0.5974  0.4832
 1663SOL    HW2 6424   0.454   5.073   6.357 -0.0272 -1.1499 -0.5188
 1663SOL    HW3 6425   0.563   5.148   6.283 -0.0232 -0.5754  0.0524
 1663SOL    MW4 6426   0.534   5.108   6.354 -0.5479  0.2121  0.2941
 1664SOL     OW 6427   4.248   1.734   3.165 -0.5743 -0.2163 -0.7017
 1664SOL    HW2 6428   4.245   1.668   3.096 -2.3552  1.1670 -2.0440
 1664SOL    HW3 6429   4.230   1.686   3.246  1.7702 -1.9059 -1.1069
 1664SOL    MW4 6430   4.245   1.719   3.167 -0.4999 -0.2567 -0.9323
 1665SOL     OW 6431   2.518   6.202   4.817  0.0304 -0.1909 -0.4125
 1665SOL    HW2 6432   2.560   6.238   4.739 -0.3868  0.7785 -0.1918
 1665SOL    HW3 6433   2.499   6.277   4.873  0.5748 -0.8826  0.7648
 1665SOL    MW4 6434   2.521   6.216   4.814  0.0472 -0.1543 -0.2280
 1666SOL     OW 6435   4.670   4.487   4.929  0.4976  0.7470 -0.9053
 1666SOL    HW2 6436   4.659   4.497   4.835 -1.0742  0.6819 -0.7588
 1666SOL    HW3 6437   4.662   4.576   4.964  1.9984  0.8967 -0.8918
 1666SOL    MW4 6438   4.667   4.500   4.921  0.4882  0.7582 -0.8842
 1667SOL     OW 6439   4.456   6.068   1.141 -0.1666  0.9172  0.4978
 1667SOL    HW2 6440   4.442   6.019   1.221  0.8237  1.3838  0.9746
 1667SOL    HW3 6441   4.520   6.135   1.164  2.0143 -0.4216 -1.2272
 1667SOL    MW4 6442   4.463   6.070   1.154  0.2518  0.8021  0.3331
 1668SOL     OW 6443   2.263   3.820   5.985 -0.3787  0.1121  0.1056
 1668SOL    HW2 6444   2.304   3.886   5.929  0.6460 -0.4622  0.1550
 1668SOL    HW3 6445   2.273   3.738   5.937  1.3512 -0.5523  1.5001
 1668SOL    MW4 6446   2.269   3.818   5.971 -0.0153 -0.0513  0.2961
 1669SOL     OW 6447   5.245   6.083   1.421 -0.2249 -0.5788  0.3340
 1669SOL    HW2 6448   5.312   6.140   1.382 -1.7232  0.0308 -1.5352
 1669SOL    HW3 6449   5.267   5.995   1.388  0.0655 -0.5028  0.3213
 1669SOL    MW4 6450   5.257   6.079   1.411 -0.3842 -0.4883  0.0857
 1670SOL     OW 6451   2.067   3.059   0.814 -0.0591  0.2386  0.1200
 1670SOL    HW2 6452   2.002   3.109   0.764 -0.2985  1.7505  1.8285
 1670SOL    HW3 6453   2.040   3.068   0.905  2.3054  0.5818  0.8674
 1670SOL    MW4 6454   2.055   3.067   0.819  0.2213  0.4834  0.4440
 1671SOL     OW 6455   2.203   1.720   4.049  0.2554  0.0975 -0.1345
 1671SOL    HW2 6456   2.189   1.781   4.121  0.3763 -0.3428  0.2647
 1671SOL    HW3 6457   2.225   1.637   4.091 -0.0801 -0.2719 -0.6624
 1671SOL    MW4 6458   2.204   1.717   4.064  0.2271 -0.0093 -0.1515
 1672SOL     OW 6459   1.646   0.808   0.967 -0.9543  0.7371  0.9990
 1672SOL    HW2 6460   1.630   0.733   1.024 -0.2822 -0.6167 -0.5385
 1672SOL    HW3 6461   1.740   0.826   0.976 -1.0287  1.1282  1.0250
 1672SOL    MW4 6462   1.656   0.801   0.976 -0.8754  0.6101  0.7996
 1673SOL     OW 6463   3.096   6.081   1.836 -0.0221 -0.6245  0.0681
 1673SOL    HW2 6464   3.043   6.161   1.836  0.3357 -0.3184  2.0943
 1673SOL    HW3 6465   3.049   6.021   1.778 -1.1948  0.4913 -0.1874
 1673SOL    MW4 6466   3.083   6.084   1.829 -0.1296 -0.4369  0.3017
 1674SOL     OW 6467   1.948   4.496   2.765  0.0100  0.3596 -0.8690
 1674SOL    HW2 6468   1.882   4.519   2.699  0.3346 -0.4509 -1.4823
 1674SOL    HW3 6469   1.897   4.463   2.840 -0.3663  1.4177 -0.6365
 1674SOL    MW4 6470   1.932   4.495   2.766  0.0032  0.3923 -0.9193
 1675SOL     OW 6471   0.244   0.009   2.578  0.1173  0.1849 -0.4283
 1675SOL    HW2 6472   0.334  -0.014   2.554  1.0746  0.8102  2.2232
 1675SOL    HW3 6473   0.235  -0.023   2.668 -1.7710  1.5768 -0.0702
 1675SOL    MW4 6474   0.255   0.001   2.587 -0.0055  0.4511 -0.0312
 1676SOL     OW 6475   6.213   2.673   3.519 -0.2217  0.1422  0.9762
 1676SOL    HW2 6476   6.224   2.597   3.576 -2.9730  0.4097  2.0112
 1676SOL    HW3 6477   6.122   2.668   3.490  0.0656  2.0505 -0.4410
 1676SOL    MW4 6478   6.203   2.662   3.523 -0.5468  0.4293  0.9258
 1677SOL     OW 6479   2.722   0.238   4.337 -0.0407 -0.0446  0.1318
 1677SOL    HW2 6480   2.786   0.169   4.321  0.4283  0.3352  0.3161
 1677SOL    HW3 6481   2.648   0.217   4.280  0.9935  0.5002 -1.5061
 1677SOL    MW4 6482   2.721   0.226   4.327  0.1576  0.0774 -0.0600
 1678SOL     OW 6483   3.966   3.281   4.027  0.1087 -0.1025  0.2217
 1678SOL    HW2 6484   3.975   3.225   3.950  1.2540  0.0312  0.2286
 1678SOL    HW3 6485   3.872   3.296   4.036 -0.2154 -1.9528  0.1773
 1678SOL    MW4 6486   3.955   3.276   4.018  0.2170 -0.3290  0.2167
 1679SOL     OW 6487   3.624   4.902   5.096 -0.1874 -0.0203  0.2282
 1679SOL    HW2 6488   3.579   4.876   5.176  2.7217 -0.8235  1.7583
 1679SOL    HW3 6489   3.632   4.821   5.046 -0.9019  0.2341 -0.3138
 1679SOL    MW4 6490   3.619   4.888   5.100  0.1022 -0.0927  0.3586
 1680SOL     OW 6491   3.678   1.987   3.885  0.4243 -0.0684 -0.1546
 1680SOL    HW2 6492   3.665   2.030   3.970  0.2045  1.9063 -1.1215
 1680SOL    HW3 6493   3.770   1.961   3.884  0.5481  0.3340  0.4919
 1680SOL    MW4 6494   3.688   1.989   3.896  0.4117  0.2452 -0.1969
 1681SOL     OW 6495   5.640   2.390   6.207  0.2634  0.1442  0.5417
 1681SOL    HW2 6496   5.730   2.364   6.229  0.5320  0.5658 -0.0267
 1681SOL    HW3 6497   5.650   2.446   6.130 -0.3674  1.2208  1.2243
 1681SOL    MW4 6498   5.653   2.394   6.200  0.2156  0.3418  0.5568
 1682SOL     OW 6499   0.415   0.943   3.749 -0.1811 -0.3955 -0.1437
 1682SOL    HW2 6500   0.442   0.861   3.709  0.6178 -0.9735  1.4773
 1682SOL    HW3 6501   0.366   0.916   3.828 -0.3667  0.6757  0.1219
 1682SOL    MW4 6502   0.412   0.928   3.754 -0.1002 -0.3304  0.1052
 1683SOL     OW 6503   0.406   2.298   3.515  0.0273 -0.3098 -0.1892
 1683SOL    HW2 6504   0.374   2.366   3.574 -1.5389  0.5718 -1.9428
 1683SOL    HW3 6505   0.469   2.248   3.567 -0.0525  1.4236  1.6774
 1683SOL    MW4 6506   0.410   2.300   3.529 -0.1899  0.0352 -0.1743
 1684SOL     OW 6507   5.285   1.888   2.110 -0.6997  0.1614 -0.0084
 1684SOL    HW2 6508   5.241   1.849   2.035 -0.2853 -1.1457  0.3986
 1684SOL    HW3 6509   5.252   1.839   2.185  1.8130 -1.2845  0.2656
 1684SOL    MW4 6510   5.275   1.876   2.110 -0.3135 -0.2018  0.0814
 1685SOL     OW 6511   6.158   5.356   0.805  0.1521 -0.4328  0.6473
 1685SOL    HW2 6512   6.125   5.382   0.891  1.8957 -1.1143  1.5765
 1685SOL    HW3 6513   6.253   5.351   0.817  0.5993  1.0129 -1.7568
 1685SOL    MW4 6514   6.166   5.359   0.818  0.4411 -0.3320  0.4527
 1686SOL     OW 6515   5.346   2.756   3.269  0.0642 -0.0497  0.0338
 1686SOL    HW2 6516   5.424   2.778   3.320  0.1315  2.2319 -0.9338
 1686SOL    HW3 6517   5.370   2.775   3.179 -0.3072 -3.3043 -0.8772
 1686SOL    MW4 6518   5.359   2.761   3.264  0.0241 -0.1780 -0.2141
 1687SOL     OW 6519   5.757   4.789   3.467 -0.1949 -0.0219 -0.3654
 1687SOL    HW2 6520   5.713   4.871   3.445 -0.4728 -0.1961 -0.4676
 1687SOL    HW3 6521   5.807   4.767   3.389  0.1956  0.2554 -0.1939
 1687SOL    MW4 6522   5.758   4.797   3.454 -0.1801 -0.0083 -0.3562
 1688SOL     OW 6523   5.093   4.605   1.635 -0.0660  0.3848 -0.1183
 1688SOL    HW2 6524   5.106   4.694   1.668  2.0636  0.3870 -0.8143
 1688SOL    HW3 6525   5.131   4.548   1.702 -0.7618  0.0160 -0.0208
 1688SOL    MW4 6526   5.099   4.609   1.648  0.1232  0.3364 -0.1973
 1689SOL     OW 6527   2.348   0.883   0.704  0.2620 -0.3483 -0.0539
 1689SOL    HW2 6528   2.395   0.868   0.786 -0.4312  1.6260  0.7464
 1689SOL    HW3 6529   2.415   0.913   0.643  0.3967  0.4464  0.4792
 1689SOL    MW4 6530   2.363   0.885   0.706  0.1883  0.0170  0.1220
 1690SOL     OW 6531   1.918   5.569   2.317  0.1794 -0.2038  0.0931
 1690SOL    HW2 6532   1.853   5.612   2.261  1.1092  0.4214 -0.5261
 1690SOL    HW3 6533   1.935   5.633   2.386 -0.8256 -0.9003  1.0143
 1690SOL    MW4 6534   1.912   5.583   2.319  0.1694 -0.2132  0.1329
 1691SOL     OW 6535   5.544   2.259   5.018  0.2091  0.1418  0.6486
 1691SOL    HW2 6536   5.455   2.274   4.985  0.3564  0.8257  0.5457
 1691SOL    HW3 6537   5.546   2.306   5.101  0.6669  0.6453  0.3565
 1691SOL    MW4 6538   5.532   2.267   5.025  0.2889  0.2985  0.5965
 1692SOL     OW 6539   2.268   3.458   2.179  0.1351  0.4144  0.0510
 1692SOL    HW2 6540   2.288   3.375   2.136  0.0456 -0.5822  1.8298
 1692SOL    HW3 6541   2.184   3.485   2.143  0.3409 -0.0803 -0.8152
 1692SOL    MW4 6542   2.260   3.450   2.169  0.1505  0.2176  0.1714
 1693SOL     OW 6543   1.043   3.285   5.062  0.3402  0.4582  0.1587
 1693SOL    HW2 6544   1.105   3.221   5.097  0.9439  1.6786  1.3964
 1693SOL    HW3 6545   1.098   3.356   5.029 -0.3583  1.8607  1.8668
 1693SOL    MW4 6546   1.059   3.286   5.062  0.3277  0.8042  0.5474
 1694SOL     OW 6547   3.514   6.278   3.312  0.7333  0.1216  0.1841
 1694SOL    HW2 6548   3.593   6.263   3.261  0.6255  1.0983 -0.3073
 1694SOL    HW3 6549   3.463   6.198   3.304  1.0898 -0.0323 -0.5760
 1694SOL    MW4 6550   3.518   6.266   3.304  0.7661  0.2302  0.0190
 1695SOL     OW 6551   0.950   1.170   6.094  0.3907  0.3945 -0.3752
 1695SOL    HW2 6552   0.947   1.085   6.136 -2.6348  0.5573 -0.0429
 1695SOL    HW3 6553   0.947   1.233   6.166  4.3044  0.9964 -0.4917
 1695SOL    MW4 6554   0.949   1.167   6.109  0.5079  0.4954 -0.3467
 1696SOL     OW 6555   0.650   2.676   6.157  0.2211 -0.1864  0.0383
 1696SOL    HW2 6556   0.559   2.693   6.132  0.7261  0.3298 -1.6076
 1696SOL    HW3 6557   0.660   2.581   6.148 -0.0156 -0.1823 -0.2819
 1696SOL    MW4 6558   0.640   2.666   6.152  0.2565 -0.1178 -0.2211
 1697SOL     OW 6559   1.140   1.785   4.927 -0.1513  0.0812  0.5454
 1697SOL    HW2 6560   1.177   1.720   4.867  0.3246  1.5936 -0.8788
 1697SOL    HW3 6561   1.165   1.754   5.014 -0.8792 -2.1891  0.0115
 1697SOL    MW4 6562   1.148   1.772   4.930 -0.1845 -0.0188  0.2870
 1698SOL     OW 6563   4.974   5.978   5.220 -0.5887  0.3434 -0.5779
 1698SOL    HW2 6564   4.886   5.970   5.183 -0.3261 -0.6916 -1.0336
 1698SOL    HW3 6565   4.972   6.059   5.270 -1.4957  0.8525 -1.4109
 1698SOL    MW4 6566   4.962   5.987   5.222 -0.6737  0.2740 -0.7479
 1699SOL     OW 6567   4.374   1.659   0.067  0.1587 -0.0523  0.0487
 1699SOL    HW2 6568   4.444   1.598   0.045  0.9353  0.9025 -0.1989
 1699SOL    HW3 6569   4.418   1.742   0.084 -0.8225  0.3171  0.9419
 1699SOL    MW4 6570   4.389   1.662   0.066  0.1317  0.1224  0.1339
 1700SOL     OW 6571   5.009   0.747   1.487  0.6306 -0.1508 -0.4326
 1700SOL    HW2 6572   5.029   0.715   1.575 -1.8102 -0.7030 -0.0057
 1700SOL    HW3 6573   5.093   0.746   1.441  1.8971 -0.2347  1.7480
 1700SOL    MW4 6574   5.023   0.743   1.493  0.4757 -0.2348 -0.0886
 1701SOL     OW 6575   5.306   5.900   6.328  0.1322 -0.0365 -0.6085
 1701SOL    HW2 6576   5.219   5.921   6.294 -1.8878 -1.6846  2.9711
 1701SOL    HW3 6577   5.322   5.968   6.393  0.1394 -1.3385  0.7903
 1701SOL    MW4 6578   5.296   5.912   6.332 -0.1333 -0.4257  0.0484
 1702SOL     OW 6579   1.996   0.571   1.488 -0.6697 -0.0417  0.7678
 1702SOL    HW2 6580   2.053   0.619   1.429 -0.7702 -0.8540  0.0017
 1702SOL    HW3 6581   1.913   0.620   1.486 -0.1607  0.9159  1.5879
 1702SOL    MW4 6582   1.993   0.584   1.480 -0.6158 -0.0225  0.7749
 1703SOL     OW 6583   5.447   0.977   2.342  0.6556 -0.3024  0.6196
 1703SOL    HW2 6584   5.541   0.976   2.323  0.4725  0.1265 -0.3733
 1703SOL    HW3 6585   5.423   0.885   2.351  1.1920 -0.4078  0.9969
 1703SOL    MW4 6586   5.456   0.965   2.340  0.7022 -0.2597  0.5384
 1704SOL     OW 6587   4.613   0.145   1.903 -0.2532  0.1859 -0.4382
 1704SOL    HW2 6588   4.674   0.143   1.829 -1.0654  2.2230 -1.2359
 1704SOL    HW3 6589   4.646   0.214   1.960 -0.8104  0.0645  0.0411
 1704SOL    MW4 6590   4.625   0.154   1.901 -0.4338  0.4387 -0.4802
 1705SOL     OW 6591   0.573   1.948   4.512  0.3185 -0.1818 -0.1563
 1705SOL    HW2 6592   0.654   1.996   4.493  0.6637 -1.5972 -2.8172
 1705SOL    HW3 6593   0.574   1.875   4.450 -2.3957 -1.0058  0.6301
 1705SOL    MW4 6594   0.584   1.944   4.502  0.0059 -0.4772 -0.4036
 1706SOL     OW 6595   0.693   3.059   0.459 -0.6614 -0.4405 -0.3408
 1706SOL    HW2 6596   0.681   3.153   0.469  3.7469  0.2714 -0.0616
 1706SOL    HW3 6597   0.623   3.021   0.512 -1.9540  2.6631  0.4043
 1706SOL    MW4 6598   0.682   3.066   0.468 -0.2503  0.0629 -0.2056
 1707SOL     OW 6599   4.887   1.198   0.992  0.2900 -0.0534 -0.1703
 1707SOL    HW2 6600   4.928   1.283   0.974 -0.5236  0.3208 -0.3040
 1707SOL    HW3 6601   4.794   1.218   1.001  0.1921 -0.8178  0.6106
 1707SOL    MW4 6602   4.880   1.212   0.991  0.1697 -0.1049 -0.0849
 1708SOL     OW 6603   4.649   2.089   0.983 -0.2489 -0.4525  0.8643
 1708SOL    HW2 6604   4.615   2.178   0.990  0.9185 -0.0948  2.5013
 1708SOL    HW3 6605   4.740   2.095   1.010 -0.0182 -2.0755  0.5718
 1708SOL    MW4 6606   4.656   2.101   0.988 -0.0644 -0.6194  1.0417
 1709SOL     OW 6607   3.340   0.514   4.174 -0.3659  0.8597  0.3936
 1709SOL    HW2 6608   3.411   0.566   4.211  2.0943 -0.8906 -1.4882
 1709SOL    HW3 6609   3.381   0.430   4.154 -2.8924 -0.0852 -1.2470
 1709SOL    MW4 6610   3.355   0.509   4.176 -0.3747  0.5041 -0.0711
 1710SOL     OW 6611   0.284   0.150   2.893 -0.8475  0.1188  0.1120
 1710SOL    HW2 6612   0.317   0.223   2.946  1.5009  1.6953 -3.1901
 1710SOL    HW3 6613   0.350   0.081   2.903 -0.3269  0.4715 -0.7820
 1710SOL    MW4 6614   0.297   0.151   2.902 -0.4690  0.3733 -0.4416
 1711SOL     OW 6615   0.969   5.287   3.097 -0.2328 -0.2039 -0.0926
 1711SOL    HW2 6616   0.985   5.194   3.114 -0.1470 -0.2376 -0.3553
 1711SOL    HW3 6617   1.056   5.324   3.085 -0.0278  0.4634  2.7542
 1711SOL    MW4 6618   0.982   5.279   3.098 -0.1944 -0.1203  0.2483
 1712SOL     OW 6619   1.900   1.831   2.237  0.2187 -0.6508  0.2293
 1712SOL    HW2 6620   1.838   1.881   2.290  0.1947 -0.2236 -0.2033
 1712SOL    HW3 6621   1.906   1.746   2.282  0.8276 -0.0247  1.3778
 1712SOL    MW4 6622   1.892   1.826   2.250  0.2959 -0.5119  0.3237
 1713SOL     OW 6623   5.745   5.566   5.279 -0.4984 -0.5908  0.0483
 1713SOL    HW2 6624   5.708   5.481   5.254 -0.4302 -0.1254 -1.8163
 1713SOL    HW3 6625   5.668   5.620   5.300 -0.4921 -1.4093  2.4885
 1713SOL    MW4 6626   5.730   5.562   5.278 -0.4886 -0.6374  0.1242
 1714SOL     OW 6627   4.290   0.018   2.577 -0.3116  0.1953  0.3218
 1714SOL    HW2 6628   4.289   0.081   2.505  0.4527 -1.4095 -1.1627
 1714SOL    HW3 6629   4.372   0.037   2.624 -0.5497  0.9021  0.4689
 1714SOL    MW4 6630   4.301   0.029   2.573 -0.2421  0.0768  0.1454
 1715SOL     OW 6631   5.754   0.224   5.348  0.2281 -0.5719 -0.0636
 1715SOL    HW2 6632   5.838   0.241   5.306 -0.2651  2.4985 -0.0303
 1715SOL    HW3 6633   5.692   0.279   5.301 -2.2661 -4.0585 -1.2910
 1715SOL    MW4 6634   5.757   0.233   5.336 -0.1661 -0.6268 -0.2211
 1716SOL     OW 6635   2.393   2.096   4.610 -0.1242 -0.1737  0.1134
 1716SOL    HW2 6636   2.486   2.079   4.624 -0.3284 -1.1049  0.4054
 1716SOL    HW3 6637   2.391   2.180   4.566  0.8408  0.0300  0.4246
 1716SOL    MW4 6638   2.405   2.105   4.606 -0.0238 -0.2697  0.1930
 1717SOL     OW 6639   0.532   5.937   1.740 -0.4234 -1.3859  0.4511
 1717SOL    HW2 6640   0.529   5.855   1.790  0.0807 -1.1002  0.9615
 1717SOL    HW3 6641   0.626   5.958   1.735 -0.6598  0.5166  2.5772
 1717SOL    MW4 6642   0.544   5.929   1.746 -0.3881 -1.0972  0.7989
 1718SOL     OW 6643   1.959   1.394   3.729  0.6932  0.4984 -0.2726
 1718SOL    HW2 6644   2.002   1.466   3.776 -0.3865  0.4039  0.9181
 1718SOL    HW3 6645   2.029   1.354   3.677  2.1153  0.2861  1.6851
 1718SOL    MW4 6646   1.974   1.398   3.729  0.7383  0.4579  0.1428
 1719SOL     OW 6647   4.405   0.359   3.530 -0.2227 -0.0775 -0.3081
 1719SOL    HW2 6648   4.383   0.270   3.558  0.1335  0.0069  0.2408
 1719SOL    HW3 6649   4.385   0.414   3.605  2.5278 -0.0795  0.5671
 1719SOL    MW4 6650   4.400   0.354   3.543  0.1872 -0.0666 -0.1202
 1720SOL     OW 6651   3.038   4.733   1.585 -0.2148 -0.1076 -0.3341
 1720SOL    HW2 6652   3.078   4.655   1.624 -0.5235 -0.4564 -0.7065
 1720SOL    HW3 6653   2.952   4.704   1.557 -0.8172  0.6778  0.6178
 1720SOL    MW4 6654   3.032   4.719   1.587 -0.3350 -0.0500 -0.2577
 1721SOL     OW 6655   0.326   2.463   0.420 -0.3476  0.1375 -0.8651
 1721SOL    HW2 6656   0.341   2.372   0.443 -0.4852  0.0673 -1.0495
 1721SOL    HW3 6657   0.232   2.468   0.400 -0.1652  0.1096 -1.7796
 1721SOL    MW4 6658   0.315   2.452   0.420 -0.3417  0.1246 -1.0101
 1722SOL     OW 6659   2.872   2.579   0.883  0.2870  0.2313 -0.1808
 1722SOL    HW2 6660   2.874   2.486   0.905  0.2864  0.3289  0.2288
 1722SOL    HW3 6661   2.784   2.595   0.850  0.0445  0.2545  0.4767
 1722SOL    MW4 6662   2.861   2.569   0.881  0.2550  0.2472 -0.0400
 1723SOL     OW 6663   5.182   3.936   4.985  0.5939  0.5354 -0.2613
 1723SOL    HW2 6664   5.138   3.948   4.901  0.9726 -0.3349 -0.5951
 1723SOL    HW3 6665   5.120   3.968   5.050 -0.0321  0.4549 -0.8128
 1723SOL    MW4 6666   5.168   3.942   4.982  0.5613  0.4100 -0.3781
 1724SOL     OW 6667   1.427   5.733   5.287 -0.1427  0.4026 -0.1553
 1724SOL    HW2 6668   1.508   5.765   5.246  0.8743 -1.6448  0.1148
 1724SOL    HW3 6669   1.413   5.791   5.361  0.3033  1.6289 -0.9969
 1724SOL    MW4 6670   1.436   5.745   5.291  0.0503  0.2943 -0.2307
 1725SOL     OW 6671   5.988   1.650   1.978  0.3245  0.3291  0.0711
 1725SOL    HW2 6672   5.955   1.738   2.000  1.1717  0.7225 -0.1904
 1725SOL    HW3 6673   5.979   1.601   2.059  0.9001  0.9907  0.5517
 1725SOL    MW4 6674   5.982   1.655   1.992  0.5122  0.4683  0.1000
 1726SOL     OW 6675   5.280   1.465   4.789 -0.3481  0.5015 -0.4484
 1726SOL    HW2 6676   5.278   1.536   4.724 -0.9269  0.3911 -0.5579
 1726SOL    HW3 6677   5.294   1.386   4.737 -0.5342  0.4436 -0.4097
 1726SOL    MW4 6678   5.281   1.464   4.773 -0.4490  0.4793 -0.4578
 1727SOL     OW 6679   3.755   5.290   2.507  0.6693  0.0401 -0.1590
 1727SOL    HW2 6680   3.721   5.362   2.560  2.0673  2.0647 -1.8045
 1727SOL    HW3 6681   3.693   5.283   2.434  0.2579 -0.8326  0.2550
 1727SOL    MW4 6682   3.742   5.299   2.504  0.7995  0.1921 -0.3215
 1728SOL     OW 6683   1.205   0.589   4.160  0.0020 -0.1648 -0.5506
 1728SOL    HW2 6684   1.262   0.617   4.088 -1.2472 -1.1413 -1.9667
 1728SOL    HW3 6685   1.231   0.498   4.176  0.3166  0.0653  0.3086
 1728SOL    MW4 6686   1.216   0.580   4.153 -0.1213 -0.2633 -0.6241
 1729SOL     OW 6687   2.295   4.867   3.837 -0.2878 -0.2669 -0.0836
 1729SOL    HW2 6688   2.257   4.812   3.905 -1.9228  0.7248 -0.1383
 1729SOL    HW3 6689   2.254   4.836   3.756 -1.0602  0.8461 -0.1381
 1729SOL    MW4 6690   2.284   4.856   3.835 -0.6054  0.0108 -0.0980
 1730SOL     OW 6691   3.584   0.708   1.619 -0.1172  0.2111 -0.0617
 1730SOL    HW2 6692   3.607   0.635   1.562 -0.2443 -0.7097  1.0206
 1730SOL    HW3 6693   3.490   0.719   1.609 -0.4741 -1.2222  1.3647
 1730SOL    MW4 6694   3.575   0.700   1.610 -0.1811 -0.0995  0.2693
 1731SOL     OW 6695   4.397   3.739   2.478 -0.0813 -0.0708  0.0874
 1731SOL    HW2 6696   4.313   3.770   2.444 -0.7487  0.1274  1.7837
 1731SOL    HW3 6697   4.454   3.733   2.401 -2.1010 -1.7652 -1.3778
 1731SOL    MW4 6698   4.393   3.742   2.464 -0.4359 -0.2682  0.1179
 1732SOL     OW 6699   3.688   4.296   4.680  0.0280  0.1863 -0.5316
 1732SOL    HW2 6700   3.760   4.338   4.727 -1.2104  0.9340  0.7971
 1732SOL    HW3 6701   3.663   4.223   4.737  0.6673 -1.0004 -1.7130
 1732SOL    MW4 6702   3.694   4.292   4.694 -0.0510  0.1283 -0.5122
 1733SOL     OW 6703   4.009   2.625   0.564  0.6799 -0.2383 -0.5105
 1733SOL    HW2 6704   3.931   2.574   0.543  0.0696  0.6764 -0.5229
 1733SOL    HW3 6705   4.038   2.590   0.649 -0.2079 -0.0670 -0.1242
 1733SOL    MW4 6706   4.002   2.614   0.573  0.4822 -0.0950 -0.4611
 1734SOL     OW 6707   4.085   1.574   5.982  0.1654  0.1004  0.3071
 1734SOL    HW2 6708   4.115   1.655   5.941 -1.5067  0.8940  0.5446
 1734SOL    HW3 6709   4.142   1.563   6.058  0.9273  0.6009 -0.1775
 1734SOL    MW4 6710   4.097   1.583   5.987  0.0453  0.2711  0.2745
 1735SOL     OW 6711   6.071   5.400   3.644 -0.3231  0.2127 -0.4923
 1735SOL    HW2 6712   6.001   5.449   3.601 -0.5101 -1.2254 -1.9340
 1735SOL    HW3 6713   6.059   5.310   3.614  0.6396 -0.5368  1.2336
 1735SOL    MW4 6714   6.061   5.395   3.634 -0.2208 -0.0759 -0.4548
 1736SOL     OW 6715   1.917   3.654   0.371  0.0559  0.2320 -0.1155
 1736SOL    HW2 6716   1.948   3.646   0.281  0.0360  0.9256 -0.1950
 1736SOL    HW3 6717   1.928   3.567   0.409  2.4686  0.5088 -0.0190
 1736SOL    MW4 6718   1.923   3.642   0.364  0.3716  0.3601 -0.1132
 1737SOL     OW 6719   1.153   4.539   1.068 -0.0673  0.2549  0.5134
 1737SOL    HW2 6720   1.086   4.565   1.005  0.4326  0.4095  0.0288
 1737SOL    HW3 6721   1.117   4.563   1.153 -1.3190 -1.1716  0.4132
 1737SOL    MW4 6722   1.140   4.546   1.071 -0.1665  0.0871  0.4362
 1738SOL     OW 6723   5.808   0.895   1.851  0.4393  0.6735  0.7229
 1738SOL    HW2 6724   5.877   0.917   1.913  1.0730 -1.7808  0.9818
 1738SOL    HW3 6725   5.852   0.885   1.767  0.0201  1.2803  0.4216
 1738SOL    MW4 6726   5.823   0.896   1.848  0.4676  0.4297  0.7173
 1739SOL     OW 6727   5.615   1.030   1.711  0.1136  0.4030 -0.5282
 1739SOL    HW2 6728   5.547   0.962   1.718 -0.4664  0.9645 -0.6533
 1739SOL    HW3 6729   5.688   0.996   1.764  0.7965 -1.4697 -2.5292
 1739SOL    MW4 6730   5.616   1.016   1.719  0.1272  0.2300 -0.8087
 1740SOL     OW 6731   3.751   4.844   2.780  0.6101 -0.1326  0.0284
 1740SOL    HW2 6732   3.835   4.812   2.748  1.5252  1.2922  0.8944
 1740SOL    HW3 6733   3.720   4.903   2.710  0.2102 -0.8223 -0.3857
 1740SOL    MW4 6734   3.758   4.848   2.766  0.6781 -0.0356  0.0880
 1741SOL     OW 6735   6.244   5.873   3.535 -0.2922 -0.1010  0.2014
 1741SOL    HW2 6736   6.166   5.855   3.588 -0.3797 -1.3304 -0.3082
 1741SOL    HW3 6737   6.239   5.810   3.463  0.7828  0.3154 -0.2590
 1741SOL    MW4 6738   6.233   5.862   3.532 -0.1619 -0.2083  0.0734
 1742SOL     OW 6739   4.185   5.773   5.898  0.2938  0.3563 -0.3161
 1742SOL    HW2 6740   4.133   5.840   5.855 -0.4953  0.4104  0.6944
 1742SOL    HW3 6741   4.251   5.821   5.948 -1.6026  0.5886  2.1892
 1742SOL    MW4 6742   4.187   5.788   5.899 -0.0605  0.3941  0.1477
 1743SOL     OW 6743   1.840   0.030   0.223  0.1278  0.2671  0.4174
 1743SOL    HW2 6744   1.763   0.005   0.273  0.4617 -2.3516 -0.2194
 1743SOL    HW3 6745   1.806   0.084   0.151 -0.7916  0.9702  1.3536
 1743SOL    MW4 6746   1.825   0.034   0.220  0.0505  0.0143  0.4569
 1744SOL     OW 6747   4.765   2.874   4.721 -0.3543 -0.2330 -0.2384
 1744SOL    HW2 6748   4.814   2.956   4.714  1.0699 -1.0727 -0.4011
 1744SOL    HW3 6749   4.758   2.842   4.631  0.7997 -1.2259 -0.0108
 1744SOL    MW4 6750   4.771   2.880   4.708 -0.0141 -0.4748 -0.2298
 1745SOL     OW 6751   5.108   6.149   3.932  0.1236 -0.0137 -0.1038
 1745SOL    HW2 6752   5.087   6.111   3.847  2.1364  2.6119 -1.9108
 1745SOL    HW3 6753   5.102   6.244   3.918 -0.8106  0.5070  3.0819
 1745SOL    MW4 6754   5.104   6.157   3.919  0.2659  0.4014  0.0781
 1746SOL     OW 6755   0.771   1.342   2.416 -0.0735  0.3183  0.0003
 1746SOL    HW2 6756   0.719   1.263   2.403 -0.9801  0.5114  2.0406
 1746SOL    HW3 6757   0.845   1.314   2.470  0.1064  0.7004 -0.0410
 1746SOL    MW4 6758   0.774   1.328   2.421 -0.1694  0.3942  0.2640
 1747SOL     OW 6759   1.783   5.723   4.402 -0.0638  0.1854 -0.0152
 1747SOL    HW2 6760   1.735   5.668   4.340 -2.3924  1.3264  0.6323
 1747SOL    HW3 6761   1.816   5.663   4.468 -1.8781 -0.5556  0.2637
 1747SOL    MW4 6762   1.781   5.708   4.403 -0.6104  0.2382  0.1070
 1748SOL     OW 6763   1.288   4.077   3.031  0.1048 -0.2510  0.3980
 1748SOL    HW2 6764   1.288   4.048   2.939  0.3671 -1.0613  0.6444
 1748SOL    HW3 6765   1.196   4.093   3.051 -0.0799 -1.1264  0.3053
 1748SOL    MW4 6766   1.276   4.075   3.021  0.1151 -0.4734  0.4183
 1749SOL     OW 6767   1.406   3.434   3.040 -0.2542 -0.3692  0.3023
 1749SOL    HW2 6768   1.314   3.450   3.021 -0.3953 -1.6030 -0.1865
 1749SOL    HW3 6769   1.454   3.483   2.973 -0.5657  0.0728  0.4051
 1749SOL    MW4 6770   1.400   3.443   3.029 -0.3139 -0.4737  0.2514
 1750SOL     OW 6771   0.638   5.646   3.389  0.4388 -0.4700 -0.2547
 1750SOL    HW2 6772   0.661   5.732   3.424 -1.0038 -0.4970  0.8616
 1750SOL    HW3 6773   0.683   5.641   3.305  0.9223  1.1721 -0.1190
 1750SOL    MW4 6774   0.647   5.656   3.383  0.3122 -0.2569 -0.0896
 1751SOL     OW 6775   4.361   6.325   4.932  0.1526 -0.0613  0.4267
 1751SOL    HW2 6776   4.394   6.387   4.866  0.9775  0.2231  1.0906
 1751SOL    HW3 6777   4.343   6.245   4.883  3.0945 -0.6831  0.1866
 1751SOL    MW4 6778   4.363   6.323   4.917  0.6496 -0.1058  0.4826
 1752SOL     OW 6779   5.097   2.853   1.672  1.1473  0.2075 -0.2496
 1752SOL    HW2 6780   5.179   2.809   1.689  0.7035  0.1034  1.7990
 1752SOL    HW3 6781   5.066   2.815   1.589  2.2461 -1.0727 -0.1042
 1752SOL    MW4 6782   5.103   2.843   1.663  1.2338  0.0249  0.0399
 1753SOL     OW 6783   0.958   5.504   4.557  0.1640  0.2635  0.1566
 1753SOL    HW2 6784   0.896   5.564   4.599  0.5776  0.8903 -0.1048
 1753SOL    HW3 6785   1.032   5.560   4.533  0.7192 -0.4278  0.2344
 1753SOL    MW4 6786   0.959   5.520   4.559  0.2918  0.2550  0.1324
 1754SOL     OW 6787   0.686   6.225   0.250  0.2566  0.5363  0.0409
 1754SOL    HW2 6788   0.768   6.249   0.207  0.1764 -0.1259 -0.4872
 1754SOL    HW3 6789   0.709   6.217   0.342  0.9760 -0.4343 -0.2085
 1754SOL    MW4 6790   0.700   6.227   0.256  0.3409  0.3209 -0.0617
 1755SOL     OW 6791   3.607   0.943   0.421  0.2349  0.4757 -0.0113
 1755SOL    HW2 6792   3.700   0.962   0.407  0.2305  1.3163  1.0131
 1755SOL    HW3 6793   3.572   1.023   0.459 -0.7630 -0.0867  0.2677
 1755SOL    MW4 6794   3.615   0.956   0.424  0.1026  0.5124  0.1607
 1756SOL     OW 6795   2.394   6.296   0.185 -0.0375 -0.6425  0.1751
 1756SOL    HW2 6796   2.402   6.314   0.279 -0.8249 -0.2841  0.1769
 1756SOL    HW3 6797   2.301   6.278   0.172 -0.0225 -0.1738 -0.6234
 1756SOL    MW4 6798   2.383   6.296   0.196 -0.1394 -0.5334  0.0700
 1757SOL     OW 6799   2.834   5.686   3.523 -0.4339  0.3374 -0.8845
 1757SOL    HW2 6800   2.869   5.620   3.463 -0.1218  0.5069 -0.8977
 1757SOL    HW3 6801   2.909   5.744   3.539 -0.5354  0.3292 -0.3798
 1757SOL    MW4 6802   2.849   5.685   3.517 -0.4061  0.3587 -0.8196
 1758SOL     OW 6803   1.490   0.407   2.979  0.6832 -0.7881  0.0320
 1758SOL    HW2 6804   1.582   0.384   2.990  0.3752 -2.1452 -0.0773
 1758SOL    HW3 6805   1.460   0.355   2.905  0.5306  1.8385 -1.8969
 1758SOL    MW4 6806   1.498   0.397   2.971  0.6224 -0.6206 -0.2369
 1759SOL     OW 6807   5.695   0.252   0.729 -0.9623  0.6371 -0.1887
 1759SOL    HW2 6808   5.655   0.334   0.757 -1.0658  0.3602  0.4858
 1759SOL    HW3 6809   5.787   0.273   0.715 -0.2989  0.2081  2.9775
 1759SOL    MW4 6810   5.702   0.266   0.731 -0.8884  0.5440  0.3180
 1760SOL     OW 6811   3.999   0.965   3.555  0.2936  0.3974  0.2651
 1760SOL    HW2 6812   4.090   0.942   3.571  0.4998  0.2459 -1.0256
 1760SOL    HW3 6813   4.000   1.013   3.473 -0.4771  2.6946  1.5074
 1760SOL    MW4 6814   4.011   0.968   3.547  0.2191  0.6805  0.2588
 1761SOL     OW 6815   2.421   5.777   4.946 -0.4094 -0.4104 -0.2881
 1761SOL    HW2 6816   2.445   5.685   4.949 -3.3464 -1.2522  0.2720
 1761SOL    HW3 6817   2.450   5.813   5.031 -0.3025 -1.1160 -0.0240
 1761SOL    MW4 6818   2.428   5.770   4.958 -0.7828 -0.6146 -0.1794
 1762SOL     OW 6819   4.217   1.182   0.485 -0.3780 -0.0504  0.4900
 1762SOL    HW2 6820   4.188   1.219   0.568 -1.7131 -1.3324  0.6205
 1762SOL    HW3 6821   4.229   1.089   0.503 -0.9106 -0.3866 -0.7929
 1762SOL    MW4 6822   4.215   1.175   0.498 -0.6244 -0.2639  0.3380
 1763SOL     OW 6823   6.306   5.432   1.209  0.1864 -0.1761 -0.3167
 1763SOL    HW2 6824   6.376   5.496   1.195 -0.3603  0.2190 -1.3089
 1763SOL    HW3 6825   6.351   5.356   1.245  1.6015 -0.8781 -3.2491
 1763SOL    MW4 6826   6.321   5.430   1.212  0.3010 -0.2166 -0.8345
 1764SOL     OW 6827   2.274   0.650   2.564 -0.1010 -0.3861  0.2968
 1764SOL    HW2 6828   2.281   0.669   2.470  1.3885 -0.9632  0.2731
 1764SOL    HW3 6829   2.196   0.697   2.591 -0.0939  0.4739 -1.0635
 1764SOL    MW4 6830   2.264   0.658   2.555  0.0964 -0.3488  0.1142
 1765SOL     OW 6831   1.970   2.589   5.336 -0.1360 -0.4360  0.1340
 1765SOL    HW2 6832   1.981   2.532   5.260 -0.4131 -0.3694  0.0423
 1765SOL    HW3 6833   1.876   2.606   5.340 -0.0116  0.3784 -0.1142
 1765SOL    MW4 6834   1.959   2.584   5.326 -0.1562 -0.3198  0.0892
 1766SOL     OW 6835   3.685   5.279   0.966  0.1404 -0.4126 -0.0873
 1766SOL    HW2 6836   3.609   5.291   0.909 -0.3321  0.2197  0.6515
 1766SOL    HW3 6837   3.695   5.184   0.974 -0.8834 -0.5086  0.2012
 1766SOL    MW4 6838   3.676   5.268   0.960 -0.0570 -0.3418  0.0482
 1767SOL     OW 6839   0.895   4.451   0.156  0.1028  0.3941 -0.0529
 1767SOL    HW2 6840   0.813   4.496   0.137  0.5565  1.5830  0.6711
 1767SOL    HW3 6841   0.885   4.422   0.247  1.2492  2.3889  0.7649
 1767SOL    MW4 6842   0.883   4.453   0.166  0.3139  0.8141  0.1505
 1768SOL     OW 6843   5.762   3.176   4.080 -0.5200  0.1200 -0.3586
 1768SOL    HW2 6844   5.850   3.147   4.054 -0.6188  1.6822 -2.6736
 1768SOL    HW3 6845   5.703   3.120   4.031 -0.8915 -0.8706  1.1332
 1768SOL    MW4 6846   5.766   3.165   4.070 -0.5820  0.1954 -0.4672
 1769SOL     OW 6847   6.103   4.445   4.496  0.1461 -0.1513  0.5666
 1769SOL    HW2 6848   6.165   4.493   4.441  2.4320 -1.3131  1.9752
 1769SOL    HW3 6849   6.040   4.409   4.434  1.1204  0.7074 -1.0099
 1769SOL    MW4 6850   6.103   4.447   4.480  0.5762 -0.1913  0.5444
 1770SOL     OW 6851   2.488   5.201   1.906  0.5905  0.5047 -0.7992
 1770SOL    HW2 6852   2.450   5.136   1.847 -1.4135  2.4032 -1.7316
 1770SOL    HW3 6853   2.580   5.175   1.914 -0.0779 -2.3038 -1.2280
 1770SOL    MW4 6854   2.495   5.189   1.899  0.2379  0.3847 -0.9788
 1771SOL     OW 6855   4.079   5.820   3.514 -0.2561  0.4244  0.1414
 1771SOL    HW2 6856   4.143   5.803   3.446  0.0337  0.6517  0.3568
 1771SOL    HW3 6857   4.042   5.734   3.535 -0.3540  0.3573 -0.3080
 1771SOL    MW4 6858   4.082   5.806   3.508 -0.2308  0.4455  0.1105
 1772SOL     OW 6859   3.513   4.773   4.776  0.2060 -0.9712 -0.3138
 1772SOL    HW2 6860   3.433   4.792   4.826  1.4602  1.3752  0.9697
 1772SOL    HW3 6861   3.510   4.679   4.761 -1.8512 -1.2528  1.3765
 1772SOL    MW4 6862   3.502   4.763   4.780  0.1001 -0.6988  0.0786
 1773SOL     OW 6863   0.563   0.784   0.696  0.0247 -0.2916  0.0544
 1773SOL    HW2 6864   0.534   0.862   0.744 -0.8507 -1.0254  0.7685
 1773SOL    HW3 6865   0.631   0.746   0.751 -0.4531 -0.7198  0.3661
 1773SOL    MW4 6866   0.568   0.790   0.710 -0.1538 -0.4449  0.1898
 1774SOL     OW 6867   6.127   3.784   0.406 -0.1550  0.4344  0.2808
 1774SOL    HW2 6868   6.208   3.805   0.453 -1.0218 -0.6369  2.4402
 1774SOL    HW3 6869   6.096   3.868   0.372  0.9255  1.1537  1.0083
 1774SOL    MW4 6870   6.133   3.798   0.408 -0.1268  0.3879  0.6617
 1775SOL     OW 6871   0.475   5.798   2.390 -0.0380  0.0312  0.3204
 1775SOL    HW2 6872   0.415   5.868   2.364  1.1521  0.9143 -0.1097
 1775SOL    HW3 6873   0.561   5.839   2.395  0.0981 -0.3303  4.5543
 1775SOL    MW4 6874   0.478   5.812   2.387  0.1370  0.1000  0.8222
 1776SOL     OW 6875   4.150   2.185   2.475 -0.2627 -0.4489  0.2294
 1776SOL    HW2 6876   4.126   2.252   2.540 -0.9472 -0.5887  0.1339
 1776SOL    HW3 6877   4.068   2.138   2.459  0.3155 -1.6219  0.6412
 1776SOL    MW4 6878   4.136   2.188   2.482 -0.2767 -0.6221  0.2711
 1777SOL     OW 6879   5.112   6.401   0.072 -0.6475  0.0736  0.3903
 1777SOL    HW2 6880   5.075   6.367  -0.009 -0.7236 -0.7758  0.7721
 1777SOL    HW3 6881   5.078   6.343   0.140  0.0207  0.3114  0.9413
 1777SOL    MW4 6882   5.103   6.389   0.070 -0.5693 -0.0071  0.5134
 1778SOL     OW 6883   2.031   5.244   4.934  0.4639 -0.1614  1.0369
 1778SOL    HW2 6884   2.116   5.283   4.957  2.0569 -3.1153  0.5989
 1778SOL    HW3 6885   2.022   5.169   4.993 -1.7676 -0.0879  0.8850
 1778SOL    MW4 6886   2.041   5.239   4.945  0.3797 -0.5414  0.9590
 1779SOL     OW 6887   1.012   5.407   5.023  0.5525 -0.2089 -0.0431
 1779SOL    HW2 6888   1.103   5.437   5.016  1.0569 -1.2973  1.3417
 1779SOL    HW3 6889   0.993   5.368   4.938  1.9450 -1.3613  0.1335
 1779SOL    MW4 6890   1.022   5.406   5.011  0.8028 -0.5046  0.1629
 1780SOL     OW 6891   5.506   4.938   0.768 -0.0661  0.4684 -0.3729
 1780SOL    HW2 6892   5.519   4.843   0.767  1.9741  0.7087 -1.2055
 1780SOL    HW3 6893   5.484   4.960   0.677  0.5164  0.9153 -0.4065
 1780SOL    MW4 6894   5.505   4.928   0.755  0.2799  0.5591 -0.4872
 1781SOL     OW 6895   1.989   4.635   4.359 -0.7135  0.1239  0.0649
 1781SOL    HW2 6896   2.076   4.634   4.398 -0.9878 -1.4810  0.7136
 1781SOL    HW3 6897   1.935   4.581   4.417 -1.5060 -1.0875 -1.6802
 1781SOL    MW4 6898   1.993   4.628   4.372 -0.8542 -0.2477 -0.0798
 1782SOL     OW 6899   5.759   5.084   4.075  0.2748 -0.3440 -0.1101
 1782SOL    HW2 6900   5.812   5.163   4.075  0.9567 -0.7919  0.9235
 1782SOL    HW3 6901   5.669   5.115   4.087  0.0502  0.5293 -3.1623
 1782SOL    MW4 6902   5.754   5.098   4.076  0.3351 -0.2879 -0.3764
 1783SOL     OW 6903   6.375   5.756   3.758 -0.1714 -0.2221  0.3150
 1783SOL    HW2 6904   6.336   5.794   3.679  0.1392 -1.9925 -0.7394
 1783SOL    HW3 6905   6.305   5.759   3.823 -1.7507 -2.2559 -1.1865
 1783SOL    MW4 6906   6.360   5.762   3.756 -0.3388 -0.7240 -0.0223
 1784SOL     OW 6907   1.378   1.325   6.186  0.2708  0.1623 -0.6940
 1784SOL    HW2 6908   1.439   1.359   6.121  0.1993 -0.0848 -0.8896
 1784SOL    HW3 6909   1.334   1.403   6.220  2.2264  0.6139  1.0288
 1784SOL    MW4 6910   1.380   1.340   6.182  0.5194  0.1893 -0.4925
 1785SOL     OW 6911   1.694   0.798   5.794 -0.0115 -0.1289 -0.5865
 1785SOL    HW2 6912   1.777   0.814   5.751  0.6327 -0.4591  0.4890
 1785SOL    HW3 6913   1.655   0.885   5.805 -0.0875 -0.0254 -1.6062
 1785SOL    MW4 6914   1.699   0.812   5.790  0.0635 -0.1588 -0.5792
 1786SOL     OW 6915   1.017   1.839   0.672  0.1151 -0.7733 -0.3776
 1786SOL    HW2 6916   1.062   1.782   0.734 -0.5543 -0.5446  0.3334
 1786SOL    HW3 6917   0.959   1.780   0.623  0.0237 -0.8349 -0.1988
 1786SOL    MW4 6918   1.015   1.824   0.674  0.0147 -0.7512 -0.2602
 1787SOL     OW 6919   0.107   1.765   0.248 -0.0578 -0.3499 -0.1729
 1787SOL    HW2 6920   0.149   1.838   0.293 -0.8921  0.5461 -0.8225
 1787SOL    HW3 6921   0.153   1.757   0.165 -1.6747  1.2154 -1.2804
 1787SOL    MW4 6922   0.118   1.773   0.243 -0.3812 -0.0252 -0.4048
 1788SOL     OW 6923   6.255   1.592   0.019  0.4655 -0.0024  0.7433
 1788SOL    HW2 6924   6.252   1.645  -0.061  2.0667 -2.0117 -0.7755
 1788SOL    HW3 6925   6.164   1.585   0.047 -0.1204  0.9675 -0.7666
 1788SOL    MW4 6926   6.243   1.598   0.012  0.5994 -0.1395  0.3437
 1789SOL     OW 6927   2.065   5.058   5.201 -0.5873  0.1898 -0.5168
 1789SOL    HW2 6928   1.998   4.994   5.180  1.3441 -1.5231 -1.9214
 1789SOL    HW3 6929   2.072   5.055   5.297 -1.8397 -0.2890 -0.4284
 1789SOL    MW4 6930   2.057   5.049   5.211 -0.4977 -0.0994 -0.6904
 1790SOL     OW 6931   4.649   5.220   3.495 -0.3676  0.4024  0.0455
 1790SOL    HW2 6932   4.704   5.297   3.506  0.1695  0.3810 -2.1080
 1790SOL    HW3 6933   4.705   5.146   3.517 -0.3355  0.5107  0.3343
 1790SOL    MW4 6934   4.663   5.220   3.499 -0.2925  0.4138 -0.2005
 1791SOL     OW 6935   3.954   0.397   3.145 -0.1388 -0.1618  0.3031
 1791SOL    HW2 6936   3.930   0.319   3.095 -0.1524 -0.4517  0.7535
 1791SOL    HW3 6937   3.892   0.399   3.218 -0.3833  0.4866  0.0927
 1791SOL    MW4 6938   3.943   0.387   3.148 -0.1729 -0.1145  0.3348
 1792SOL     OW 6939   6.209   0.789   4.017  0.0700  0.2772 -0.1849
 1792SOL    HW2 6940   6.153   0.781   3.940  1.1992 -1.6722 -0.8748
 1792SOL    HW3 6941   6.188   0.711   4.069 -0.1450  1.1933  1.1417
 1792SOL    MW4 6942   6.199   0.777   4.014  0.1906  0.1409 -0.1009
 1793SOL     OW 6943   5.751   4.001   5.011  0.6697  0.3964 -0.1644
 1793SOL    HW2 6944   5.656   4.001   5.018  0.7711 -1.5551  2.7411
 1793SOL    HW3 6945   5.768   3.971   4.922 -1.4316 -0.8067 -0.2211
 1793SOL    MW4 6946   5.741   3.997   5.000  0.4058 -0.0198  0.2115
 1794SOL     OW 6947   2.958   3.895   5.330  0.4676  0.3217  0.5018
 1794SOL    HW2 6948   2.913   3.819   5.293 -0.0019  0.2464  1.1947
 1794SOL    HW3 6949   3.046   3.891   5.295  0.2125 -0.0912 -0.1046
 1794SOL    MW4 6950   2.963   3.885   5.320  0.3720  0.2573  0.5132
 1795SOL     OW 6951   2.490   4.441   4.530  0.2684 -0.0161  0.4739
 1795SOL    HW2 6952   2.484   4.527   4.572  0.4308  1.0685 -1.5642
 1795SOL    HW3 6953   2.512   4.381   4.600  3.9376  2.1668  1.4274
 1795SOL    MW4 6954   2.492   4.445   4.545  0.7739  0.4150  0.3308
 1796SOL     OW 6955   1.363   5.388   3.932  0.4334 -0.6293  0.7959
 1796SOL    HW2 6956   1.336   5.297   3.922 -0.3370 -0.4602  1.2236
 1796SOL    HW3 6957   1.307   5.436   3.872  1.5813 -0.5393 -0.2448
 1796SOL    MW4 6958   1.352   5.383   3.923  0.4832 -0.5951  0.7150
 1797SOL     OW 6959   6.008   2.866   2.348 -0.4974  0.2093  0.0026
 1797SOL    HW2 6960   6.022   2.914   2.430  0.6430  0.4923 -0.3482
 1797SOL    HW3 6961   6.007   2.774   2.375  0.3519  0.2746  0.2873
 1797SOL    MW4 6962   6.009   2.860   2.363 -0.2349  0.2553 -0.0061
 1798SOL     OW 6963   2.231   0.661   1.272 -0.1499  0.7593  0.0827
 1798SOL    HW2 6964   2.224   0.756   1.278 -2.2493  0.6285  0.5164
 1798SOL    HW3 6965   2.230   0.643   1.178  0.8107  1.1793 -0.0187
 1798SOL    MW4 6966   2.230   0.671   1.260 -0.3002  0.7975  0.1265
 1799SOL     OW 6967   1.330   6.337   4.727 -0.1567 -0.4881 -0.6030
 1799SOL    HW2 6968   1.401   6.385   4.686  2.2322 -1.6856  1.7700
 1799SOL    HW3 6969   1.302   6.393   4.800  0.3994 -1.2353  0.2070
 1799SOL    MW4 6970   1.336   6.351   4.731  0.2319 -0.7447 -0.1830
 1800SOL     OW 6971   1.922   3.315   6.095 -0.4168  0.0114 -0.1333
 1800SOL    HW2 6972   1.874   3.381   6.045 -0.9190 -1.1367 -1.2338
 1800SOL    HW3 6973   2.010   3.351   6.105 -0.8073  1.0384 -0.3119
 1800SOL    MW4 6974   1.927   3.328   6.089 -0.5346 -0.0046 -0.3021
 1801SOL     OW 6975   3.833   0.215   1.479 -0.1248  1.0248 -0.0711
 1801SOL    HW2 6976   3.769   0.160   1.434  1.2616  0.8870 -2.0111
 1801SOL    HW3 6977   3.869   0.158   1.547 -1.0795  0.6599  0.1404
 1801SOL    MW4 6978   3.829   0.200   1.482 -0.0678  0.9585 -0.2992
 1802SOL     OW 6979   1.312   1.489   1.129  0.2193  0.5563  0.4355
 1802SOL    HW2 6980   1.267   1.419   1.177  0.5317  1.4705  2.1343
 1802SOL    HW3 6981   1.254   1.564   1.136  0.4194  0.7962 -0.3800
 1802SOL    MW4 6982   1.298   1.490   1.136  0.2869  0.7086  0.5521
 1803SOL     OW 6983   0.768   6.208   3.054 -0.0951  0.0047 -0.7176
 1803SOL    HW2 6984   0.751   6.123   3.094  0.8034  0.1500  0.0074
 1803SOL    HW3 6985   0.696   6.220   2.992 -0.2739 -1.2483 -0.7840
 1803SOL    MW4 6986   0.756   6.198   3.051 -0.0001 -0.1415 -0.6307
 1804SOL     OW 6987   0.045   5.089   1.136 -0.1975 -0.4281 -0.1297
 1804SOL    HW2 6988   0.122   5.033   1.144  1.7247  1.8634 -1.0607
 1804SOL    HW3 6989   0.032   5.125   1.223  0.0550 -0.5227 -0.0513
 1804SOL    MW4 6990   0.053   5.087   1.148  0.0894 -0.1383 -0.2422
 1805SOL     OW 6991   4.722   5.672   2.378  0.1579 -0.0588  0.3476
 1805SOL    HW2 6992   4.806   5.705   2.347  1.0595 -1.6451  0.9522
 1805SOL    HW3 6993   4.744   5.592   2.426 -1.6358 -0.1633  1.0941
 1805SOL    MW4 6994   4.736   5.666   2.381  0.0402 -0.2819  0.5259
 1806SOL     OW 6995   1.947   3.437   2.466  0.2062 -0.4199 -0.0233
 1806SOL    HW2 6996   1.981   3.407   2.550  0.2229 -1.6250 -0.4439
 1806SOL    HW3 6997   1.855   3.411   2.467  0.2514 -0.6018 -0.4483
 1806SOL    MW4 6998   1.940   3.430   2.477  0.2144 -0.6029 -0.1349
 1807SOL     OW 6999   1.958   4.657   5.024  0.4270 -0.1149 -0.0716
 1807SOL    HW2 7000   1.951   4.598   5.099 -1.7482  0.0091 -0.1021
 1807SOL    HW3 7001   2.052   4.673   5.014  0.8812 -1.5065  1.5317
 1807SOL    MW4 7002   1.969   4.652   5.033  0.2000 -0.2821  0.1359
 1808SOL     OW 7003   0.383   1.320   2.735  0.6008 -0.9754 -0.0140
 1808SOL    HW2 7004   0.364   1.245   2.679  1.5783 -1.7963  0.7051
 1808SOL    HW3 7005   0.478   1.331   2.729  0.3925  0.7940 -0.7949
 1808SOL    MW4 7006   0.393   1.312   2.727  0.7023 -0.8502 -0.0221
 1809SOL     OW 7007   3.284   4.986   3.628  0.2680 -0.3815  0.4188
 1809SOL    HW2 7008   3.190   4.984   3.614  0.4264 -2.2166 -0.6555
 1809SOL    HW3 7009   3.318   4.910   3.580  2.3584  0.5619  0.2713
 1809SOL    MW4 7010   3.276   4.976   3.620  0.5647 -0.4991  0.2576
 1810SOL     OW 7011   0.597   0.884   2.778  0.4497 -0.1263 -0.2287
 1810SOL    HW2 7012   0.539   0.811   2.798 -0.6383  0.6568 -0.3896
 1810SOL    HW3 7013   0.678   0.844   2.747 -0.4540 -1.2532 -1.2003
 1810SOL    MW4 7014   0.600   0.869   2.777  0.1869 -0.1716 -0.3782
 1811SOL     OW 7015   3.361   5.652   5.260  0.4825  0.1655  0.1902
 1811SOL    HW2 7016   3.384   5.610   5.343  2.5797  1.2345  0.2111
 1811SOL    HW3 7017   3.389   5.590   5.193 -0.3440 -0.2886  0.2573
 1811SOL    MW4 7018   3.368   5.639   5.262  0.6502  0.2467  0.2018
 1812SOL     OW 7019   4.615   2.938   0.825  0.1944  0.1231 -0.2667
 1812SOL    HW2 7020   4.576   3.025   0.826 -0.6759 -0.2676  0.0092
 1812SOL    HW3 7021   4.681   2.941   0.894  1.2401  1.0352 -1.2522
 1812SOL    MW4 7022   4.619   2.950   0.834  0.2175  0.1919 -0.3603
 1813SOL     OW 7023   1.287   6.343   2.606  0.5228 -0.1662 -0.0997
 1813SOL    HW2 7024   1.309   6.293   2.528  2.7170  0.7899 -0.1773
 1813SOL    HW3 7025   1.281   6.434   2.576 -2.0716 -0.1315  0.2785
 1813SOL    MW4 7026   1.289   6.349   2.592  0.4700 -0.0355 -0.0600
 1814SOL     OW 7027   3.900   2.190   3.135  0.1798  0.3759 -0.3811
 1814SOL    HW2 7028   3.851   2.110   3.151  1.2564 -0.2099  0.0301
 1814SOL    HW3 7029   3.846   2.238   3.071 -1.5408  0.3339  0.9775
 1814SOL    MW4 7030   3.887   2.186   3.128  0.0948  0.2931 -0.1476
 1815SOL     OW 7031   1.402   1.859   2.581  0.7226 -0.4957 -0.1848
 1815SOL    HW2 7032   1.476   1.800   2.593  0.1930 -1.6377 -1.9789
 1815SOL    HW3 7033   1.366   1.834   2.495 -0.7560  1.1012 -0.0836
 1815SOL    MW4 7034   1.407   1.848   2.571  0.4576 -0.4357 -0.4082
 1816SOL     OW 7035   3.071   1.928   5.892 -0.1650  0.2051  0.7788
 1816SOL    HW2 7036   3.071   1.877   5.972 -0.5153  1.5066  1.6356
 1816SOL    HW3 7037   3.111   2.011   5.916 -0.4076  0.6742 -0.3542
 1816SOL    MW4 7038   3.076   1.932   5.905 -0.2432  0.4387  0.7424
 1817SOL     OW 7039   5.930   2.645   4.144  0.6426 -0.1635  0.1166
 1817SOL    HW2 7040   5.933   2.719   4.083  0.6073  1.5165  2.0510
 1817SOL    HW3 7041   5.851   2.598   4.120  1.4269 -0.5030 -2.1171
 1817SOL    MW4 7042   5.920   2.649   4.133  0.7414  0.0133  0.0771
 1818SOL     OW 7043   4.521   0.082   3.329 -0.5384  0.1233  0.1538
 1818SOL    HW2 7044   4.509   0.108   3.421  2.6040 -0.5509  0.8743
 1818SOL    HW3 7045   4.551   0.161   3.285  1.4493 -0.3522  0.5792
 1818SOL    MW4 7046   4.523   0.096   3.336  0.1384 -0.0284  0.3050
 1819SOL     OW 7047   5.235   2.509   2.219 -0.6327  0.4485  0.1095
 1819SOL    HW2 7048   5.270   2.598   2.220  0.5206  0.0240 -0.1418
 1819SOL    HW3 7049   5.290   2.463   2.156 -1.0932 -0.4928  0.3785
 1819SOL    MW4 7050   5.247   2.515   2.211 -0.5413  0.2683  0.1119
 1820SOL     OW 7051   2.848   6.300   3.888  0.5435  0.1681 -0.3180
 1820SOL    HW2 7052   2.885   6.361   3.951 -2.3016  1.7692 -0.0503
 1820SOL    HW3 7053   2.834   6.353   3.809  1.7820 -1.2100 -1.5396
 1820SOL    MW4 7054   2.851   6.315   3.886  0.3316  0.1975 -0.4438
 1821SOL     OW 7055   0.061   2.743   6.143  0.4378  0.7026  0.0559
 1821SOL    HW2 7056   0.094   2.782   6.062  0.0955 -0.3470 -0.6018
 1821SOL    HW3 7057   0.117   2.781   6.211 -1.1319  3.9205 -0.2470
 1821SOL    MW4 7058   0.073   2.753   6.141  0.1856  0.9887 -0.0708
 1822SOL     OW 7059   0.529   0.257   1.794 -0.0733  0.2636 -0.6068
 1822SOL    HW2 7060   0.465   0.313   1.837  1.6972  0.7038  1.6399
 1822SOL    HW3 7061   0.612   0.305   1.800  1.5843 -2.5651  1.6716
 1822SOL    MW4 7062   0.532   0.270   1.800  0.3790 -0.0515 -0.0097
 1823SOL     OW 7063   3.565   2.236   1.684 -0.1091  0.0377 -0.2390
 1823SOL    HW2 7064   3.571   2.331   1.673  0.5427  0.0145 -0.1310
 1823SOL    HW3 7065   3.531   2.225   1.773  1.1451  0.1704  0.2799
 1823SOL    MW4 7066   3.562   2.247   1.695  0.1424  0.0521 -0.1563
 1824SOL     OW 7067   1.188   5.365   2.788  0.3146 -0.3389  0.1668
 1824SOL    HW2 7068   1.219   5.377   2.698 -0.2913 -1.2688 -0.1768
 1824SOL    HW3 7069   1.260   5.320   2.832  0.9295  0.8142  0.3702
 1824SOL    MW4 7070   1.202   5.360   2.782  0.3158 -0.3095  0.1483
 1825SOL     OW 7071   1.885   0.031   6.204  0.3635  0.0139  0.2606
 1825SOL    HW2 7072   1.818   0.043   6.136 -1.1225  0.9461  1.8071
 1825SOL    HW3 7073   1.853   0.082   6.278  2.6532  0.2044  1.1949
 1825SOL    MW4 7074   1.872   0.039   6.205  0.4695  0.1621  0.5879
 1826SOL     OW 7075   1.349   0.347   4.818 -0.1277  0.0300  0.2037
 1826SOL    HW2 7076   1.412   0.285   4.852 -0.1770 -0.9661 -1.4059
 1826SOL    HW3 7077   1.292   0.368   4.892  2.5919  1.7142  1.9758
 1826SOL    MW4 7078   1.350   0.342   4.832  0.2246  0.1208  0.2251
 1827SOL     OW 7079   2.103   3.655   1.870 -0.2506 -0.6482  0.1944
 1827SOL    HW2 7080   2.152   3.725   1.914  0.1984 -1.0137  0.2789
 1827SOL    HW3 7081   2.026   3.700   1.834 -0.9949 -0.4451  1.9153
 1827SOL    MW4 7082   2.099   3.670   1.871 -0.2895 -0.6696  0.4326
 1828SOL     OW 7083   0.706   3.126   5.230 -0.3380  0.0504 -0.4033
 1828SOL    HW2 7084   0.675   3.072   5.157 -2.5068  2.8761 -1.7459
 1828SOL    HW3 7085   0.728   3.210   5.190 -3.0134  2.2327  2.2128
 1828SOL    MW4 7086   0.705   3.130   5.215 -0.9771  0.7111 -0.2353
 1829SOL     OW 7087   2.040   3.392   2.731 -0.1430  0.6453  0.7334
 1829SOL    HW2 7088   2.110   3.326   2.722 -1.2557 -0.3193 -2.8552
 1829SOL    HW3 7089   1.960   3.341   2.734 -0.8731  1.8064  1.6406
 1829SOL    MW4 7090   2.039   3.376   2.730 -0.3861  0.6712  0.3796
 1830SOL     OW 7091   2.331   5.592   2.162  0.9714  0.2459  0.3743
 1830SOL    HW2 7092   2.331   5.565   2.070 -0.3586  0.2687  0.3517
 1830SOL    HW3 7093   2.389   5.668   2.165  0.8916  0.3438 -0.4773
 1830SOL    MW4 7094   2.339   5.598   2.150  0.7854  0.2618  0.2590
 1831SOL     OW 7095   5.384   3.947   4.251  0.2462  0.2395 -0.2657
 1831SOL    HW2 7096   5.345   3.882   4.309 -1.0689  0.6072 -0.6997
 1831SOL    HW3 7097   5.329   4.024   4.261  1.6466  1.2296  0.0632
 1831SOL    MW4 7098   5.372   3.949   4.260  0.2575  0.4186 -0.2796
 1832SOL     OW 7099   3.567   3.651   4.857 -0.5554  0.1324 -0.1773
 1832SOL    HW2 7100   3.602   3.615   4.775  0.9921  4.6375 -1.8114
 1832SOL    HW3 7101   3.645   3.669   4.910 -1.3594 -0.4256  1.2281
 1832SOL    MW4 7102   3.582   3.649   4.853 -0.4573  0.6532 -0.2074
 1833SOL     OW 7103   2.246   1.235   3.055  0.4741  0.2282 -0.0445
 1833SOL    HW2 7104   2.266   1.188   2.974 -1.0020 -0.5428 -0.0004
 1833SOL    HW3 7105   2.223   1.323   3.027  0.5421  0.1309 -0.4147
 1833SOL    MW4 7106   2.246   1.240   3.041  0.2883  0.1136 -0.0875
 1834SOL     OW 7107   0.653   2.816   2.714 -0.7547 -0.5056 -0.3945
 1834SOL    HW2 7108   0.679   2.772   2.633 -0.4870  0.1561 -0.6860
 1834SOL    HW3 7109   0.635   2.906   2.686 -0.4229 -0.2121  0.3199
 1834SOL    MW4 7110   0.654   2.822   2.700 -0.6756 -0.3796 -0.3387
 1835SOL     OW 7111   0.528   5.316   2.897  0.0094 -0.1060  0.1248
 1835SOL    HW2 7112   0.518   5.332   2.991 -0.9633  0.4233 -0.0545
 1835SOL    HW3 7113   0.621   5.333   2.880  0.6077 -1.9360  1.2896
 1835SOL    MW4 7114   0.539   5.321   2.907 -0.0400 -0.2776  0.2548
 1836SOL     OW 7115   5.748   5.843   6.054 -0.4485  0.0579  0.0467
 1836SOL    HW2 7116   5.701   5.783   5.996 -1.7030  0.6280  0.4502
 1836SOL    HW3 7117   5.703   5.836   6.138  0.4512  0.3193  0.5657
 1836SOL    MW4 7118   5.736   5.834   6.058 -0.4953  0.1676  0.1684
 1837SOL     OW 7119   6.186   1.444   5.580  0.0842  0.0382 -0.1136
 1837SOL    HW2 7120   6.255   1.504   5.610  0.9349 -0.5009 -0.9470
 1837SOL    HW3 7121   6.135   1.425   5.659  1.2004  0.0445  0.6346
 1837SOL    MW4 7122   6.188   1.450   5.595  0.3437 -0.0321 -0.1248
 1838SOL     OW 7123   1.852   1.337   3.340  0.4667  0.3054  0.4634
 1838SOL    HW2 7124   1.940   1.300   3.333  0.1837 -0.5928  1.4025
 1838SOL    HW3 7125   1.815   1.328   3.252  0.6321 -1.1035  0.5136
 1838SOL    MW4 7126   1.859   1.331   3.327  0.4512  0.0010  0.5939
 1839SOL     OW 7127   5.030   5.054   4.038 -0.3891  0.2198 -0.1898
 1839SOL    HW2 7128   4.940   5.057   4.070 -0.5622 -2.2907 -0.2450
 1839SOL    HW3 7129   5.027   5.099   3.953 -1.6268  0.0704 -0.2358
 1839SOL    MW4 7130   5.018   5.060   4.031 -0.5752 -0.1311 -0.2032
 1840SOL     OW 7131   3.946   2.021   2.412 -0.1102 -0.5418 -0.1496
 1840SOL    HW2 7132   3.859   1.982   2.421 -0.3651  0.0566  0.0747
 1840SOL    HW3 7133   4.007   1.949   2.425 -0.5800 -1.0709 -0.8325
 1840SOL    MW4 7134   3.942   2.006   2.415 -0.2058 -0.5327 -0.2101
 1841SOL     OW 7135   4.294   3.853   5.227 -0.9604  0.7395  0.9738
 1841SOL    HW2 7136   4.315   3.788   5.160  0.0240  1.5120  0.4975
 1841SOL    HW3 7137   4.234   3.914   5.185 -0.3030  1.2533  0.7585
 1841SOL    MW4 7138   4.289   3.852   5.213 -0.7438  0.9092  0.8826
 1842SOL     OW 7139   6.035   1.118   5.780  0.3591  0.1047 -0.1080
 1842SOL    HW2 7140   6.102   1.123   5.712  0.2611 -0.8134 -0.2833
 1842SOL    HW3 7141   6.005   1.208   5.791  1.5634  0.5137 -0.0825
 1842SOL    MW4 7142   6.039   1.130   5.773  0.5051  0.0375 -0.1278
 1843SOL     OW 7143   3.056   1.348   3.849  0.0347  0.5658 -0.1654
 1843SOL    HW2 7144   3.012   1.311   3.925  0.5011  0.1710 -0.0762
 1843SOL    HW3 7145   3.022   1.298   3.775 -0.0325  0.5957 -0.1549
 1843SOL    MW4 7146   3.046   1.337   3.849  0.0873  0.5177 -0.1523
 1844SOL     OW 7147   0.866   4.855   0.062  0.1546 -0.8272  0.1616
 1844SOL    HW2 7148   0.812   4.829  -0.013 -0.1998 -1.5358  0.6551
 1844SOL    HW3 7149   0.803   4.882   0.129  0.4437 -0.8120  0.4315
 1844SOL    MW4 7150   0.850   4.855   0.061  0.1459 -0.9187  0.2623
 1845SOL     OW 7151   5.875   1.261   5.322 -0.0767  0.0314 -0.4305
 1845SOL    HW2 7152   5.889   1.307   5.240 -0.5768  1.1600  0.0870
 1845SOL    HW3 7153   5.884   1.329   5.389 -1.6491 -0.4460  0.3159
 1845SOL    MW4 7154   5.878   1.276   5.320 -0.3501  0.1173 -0.2638
 1846SOL     OW 7155   4.849   1.719   3.604 -0.1839 -0.9054 -0.5197
 1846SOL    HW2 7156   4.892   1.800   3.577 -1.8961  0.5107  0.7894
 1846SOL    HW3 7157   4.911   1.650   3.579  0.6772  0.6415 -3.0254
 1846SOL    MW4 7158   4.863   1.721   3.598 -0.2962 -0.5145 -0.6776
 1847SOL     OW 7159   3.165   0.163   1.344 -0.0385  0.1320  0.1731
 1847SOL    HW2 7160   3.206   0.127   1.423 -2.2222  2.0725  2.3749
 1847SOL    HW3 7161   3.095   0.101   1.323 -0.3821  0.3220  0.7089
 1847SOL    MW4 7162   3.161   0.151   1.352 -0.3719  0.4131  0.5342
 1848SOL     OW 7163   6.193   1.509   1.408 -0.2962 -0.4143  0.1772
 1848SOL    HW2 7164   6.199   1.494   1.502 -2.6375  1.0399  0.6351
 1848SOL    HW3 7165   6.223   1.599   1.396 -0.0772 -0.5687 -0.4858
 1848SOL    MW4 7166   6.198   1.519   1.419 -0.5762 -0.2428  0.1501
 1849SOL     OW 7167   0.231   5.547   4.159  0.3266 -0.4296 -0.2356
 1849SOL    HW2 7168   0.213   5.456   4.184 -0.1406 -0.8764 -2.0745
 1849SOL    HW3 7169   0.326   5.553   4.158  0.4437 -1.5575 -2.1124
 1849SOL    MW4 7170   0.241   5.535   4.162  0.2804 -0.6374 -0.7259
 1850SOL     OW 7171   1.516   5.856   2.096  0.5041 -0.2250 -0.0660
 1850SOL    HW2 7172   1.444   5.868   2.034  1.0371  1.6489 -0.3597
 1850SOL    HW3 7173   1.476   5.867   2.182 -0.1406 -2.3592 -0.0214
 1850SOL    MW4 7174   1.501   5.859   2.099  0.4894 -0.2594 -0.0989
 1851SOL     OW 7175   2.539   0.443   3.564  0.0063  0.0023 -0.2043
 1851SOL    HW2 7176   2.548   0.355   3.600 -0.1202  0.0135 -0.1428
 1851SOL    HW3 7177   2.455   0.442   3.519 -1.3791  0.8900  2.1616
 1851SOL    MW4 7178   2.529   0.432   3.563 -0.1932  0.1209  0.1160
 1852SOL     OW 7179   5.758   6.037   5.801  0.6478 -0.7991  0.7915
 1852SOL    HW2 7180   5.728   6.107   5.858 -0.2199 -0.7717  0.3191
 1852SOL    HW3 7181   5.798   5.973   5.860  0.8571 -0.2167  1.2886
 1852SOL    MW4 7182   5.760   6.037   5.816  0.5610 -0.7187  0.7948
 1853SOL     OW 7183   5.883   5.561   0.545 -0.2683 -0.1387 -0.0095
 1853SOL    HW2 7184   5.883   5.558   0.449 -0.0725  0.9766 -0.0662
 1853SOL    HW3 7185   5.968   5.598   0.567 -0.6957  0.5314  0.5477
 1853SOL    MW4 7186   5.894   5.566   0.535 -0.2989  0.0969  0.0565
 1854SOL     OW 7187   5.914   2.864   3.984 -0.6539 -0.3030 -0.0179
 1854SOL    HW2 7188   5.957   2.941   4.020 -1.4066  0.0761  0.0938
 1854SOL    HW3 7189   5.967   2.839   3.908  1.6769 -1.8535  2.0007
 1854SOL    MW4 7190   5.926   2.871   3.978 -0.4457 -0.4576  0.2631
 1855SOL     OW 7191   0.194   0.481   1.548  0.4402  0.0923  0.2445
 1855SOL    HW2 7192   0.182   0.466   1.454  1.0656 -1.0083  0.3222
 1855SOL    HW3 7193   0.288   0.469   1.562  0.1177 -1.4740  1.2789
 1855SOL    MW4 7194   0.205   0.477   1.537  0.4802 -0.2595  0.3912
 1856SOL     OW 7195   4.739   1.993   1.327  0.2462  0.5664  0.2686
 1856SOL    HW2 7196   4.668   1.965   1.269  0.0259  0.8455  0.4015
 1856SOL    HW3 7197   4.811   1.933   1.307 -0.1152  0.1015  0.3348
 1856SOL    MW4 7198   4.739   1.981   1.316  0.1694  0.5418  0.2949
 1857SOL     OW 7199   4.407   5.321   0.339 -0.2749  0.1705 -0.6502
 1857SOL    HW2 7200   4.432   5.327   0.431  1.1524  2.0153 -1.1049
 1857SOL    HW3 7201   4.342   5.390   0.327 -1.4136 -0.8855 -0.7852
 1857SOL    MW4 7202   4.402   5.331   0.350 -0.2368  0.2746 -0.7280
 1858SOL     OW 7203   4.192   6.066   2.658  0.5817 -0.1062  0.0025
 1858SOL    HW2 7204   4.164   6.144   2.707 -2.0688 -1.3665  0.6634
 1858SOL    HW3 7205   4.266   6.033   2.708  1.0414  1.3423  0.3425
 1858SOL    MW4 7206   4.198   6.072   2.671  0.2927 -0.0813  0.1346
 1859SOL     OW 7207   4.021   4.596   0.720 -0.5595 -0.3266  0.1656
 1859SOL    HW2 7208   4.067   4.514   0.705 -0.0983  0.0284 -0.4036
 1859SOL    HW3 7209   3.968   4.580   0.799 -0.2776 -1.0764  0.2100
 1859SOL    MW4 7210   4.020   4.583   0.729 -0.4614 -0.3787  0.0964
 1860SOL     OW 7211   2.173   3.573   6.349 -0.0787  0.4866  0.1283
 1860SOL    HW2 7212   2.261   3.561   6.383 -0.3344  0.7528  0.9095
 1860SOL    HW3 7213   2.165   3.508   6.279  1.4713  1.9004 -1.4226
 1860SOL    MW4 7214   2.183   3.563   6.344  0.0920  0.7083  0.0267
 1861SOL     OW 7215   0.264   4.724   5.420  0.2604 -0.5037 -0.1494
 1861SOL    HW2 7216   0.258   4.734   5.325 -1.1046 -2.2812 -0.3198
 1861SOL    HW3 7217   0.204   4.790   5.455  0.0728 -0.4504 -0.5681
 1861SOL    MW4 7218   0.255   4.734   5.413  0.0555 -0.7312 -0.2272
 1862SOL     OW 7219   5.775   2.034   3.074 -0.0330 -0.1144 -0.5805
 1862SOL    HW2 7220   5.691   2.011   3.113  0.3053  1.7250  1.4040
 1862SOL    HW3 7221   5.773   1.994   2.987 -3.3846  0.7643 -1.0241
 1862SOL    MW4 7222   5.764   2.025   3.068 -0.4306  0.2443 -0.3772
 1863SOL     OW 7223   1.647   0.892   1.334  0.4327  0.2034 -0.5890
 1863SOL    HW2 7224   1.669   0.982   1.360  0.6061  0.0408 -0.1551
 1863SOL    HW3 7225   1.704   0.837   1.389  0.2905 -0.1728 -0.8146
 1863SOL    MW4 7226   1.658   0.897   1.345  0.4368  0.1323 -0.5615
 1864SOL     OW 7227   4.788   0.905   2.302 -0.1185  0.1445  0.3013
 1864SOL    HW2 7228   4.853   0.972   2.322  0.2852 -0.5738  1.4432
 1864SOL    HW3 7229   4.705   0.953   2.297  0.3790  0.9543 -0.4472
 1864SOL    MW4 7230   4.786   0.920   2.304  0.0004  0.1566  0.3532
 1865SOL     OW 7231   3.157   3.695   3.568 -0.0117  0.3775  0.2457
 1865SOL    HW2 7232   3.196   3.686   3.480 -0.8520 -0.4905 -0.0529
 1865SOL    HW3 7233   3.161   3.789   3.586 -1.5390  0.8410 -1.5385
 1865SOL    MW4 7234   3.163   3.706   3.558 -0.3241  0.3242 -0.0291
 1866SOL     OW 7235   1.866   3.888   2.921  0.5547  0.1974 -0.3094
 1866SOL    HW2 7236   1.836   3.972   2.955  0.2513  0.0860 -0.2972
 1866SOL    HW3 7237   1.902   3.908   2.835 -0.7022  0.1615 -0.8724
 1866SOL    MW4 7238   1.866   3.902   2.914  0.3488  0.1780 -0.3820
 1867SOL     OW 7239   0.927   5.822   0.928  0.0856 -0.1564 -0.4394
 1867SOL    HW2 7240   1.001   5.762   0.935 -0.9928 -1.4913 -0.1603
 1867SOL    HW3 7241   0.947   5.875   0.851  0.4768 -1.7383 -1.4818
 1867SOL    MW4 7242   0.939   5.821   0.919 -0.0051 -0.5412 -0.5401
 1868SOL     OW 7243   4.530   0.596   4.893 -0.4697 -0.0290 -0.1652
 1868SOL    HW2 7244   4.576   0.677   4.917  0.1422 -0.7271  1.1689
 1868SOL    HW3 7245   4.592   0.548   4.838 -0.9408  0.5087 -1.1922
 1868SOL    MW4 7246   4.545   0.600   4.889 -0.4511 -0.0501 -0.1247
 1869SOL     OW 7247   5.622   1.130   0.265 -0.0024  0.3516  0.0350
 1869SOL    HW2 7248   5.696   1.070   0.260 -1.2777 -1.1654 -2.0583
 1869SOL    HW3 7249   5.579   1.109   0.348  0.0407 -1.1146 -0.2890
 1869SOL    MW4 7250   5.626   1.119   0.275 -0.1650 -0.0420 -0.2839
 1870SOL     OW 7251   4.948   2.953   4.091 -0.0090  0.0828  0.2088
 1870SOL    HW2 7252   4.991   2.957   4.005 -0.9759  0.5869 -0.2611
 1870SOL    HW3 7253   5.016   2.980   4.153  0.5168  0.3311 -0.4618
 1870SOL    MW4 7254   4.963   2.957   4.088 -0.0672  0.1820  0.0583
 1871SOL     OW 7255   1.587   0.306   2.436 -0.4561  0.5109  0.4107
 1871SOL    HW2 7256   1.604   0.371   2.503 -2.3608  2.5704 -0.9371
 1871SOL    HW3 7257   1.505   0.265   2.463 -0.3751  0.1850  0.1676
 1871SOL    MW4 7258   1.578   0.309   2.448 -0.6967  0.7396  0.2008
 1872SOL     OW 7259   3.622   2.741   0.462 -0.0930  0.1364  0.2070
 1872SOL    HW2 7260   3.574   2.823   0.450  1.4468  1.1672  0.6800
 1872SOL    HW3 7261   3.694   2.747   0.398  0.7265 -0.2765  1.0701
 1872SOL    MW4 7262   3.625   2.753   0.452  0.2183  0.2179  0.3833
 1873SOL     OW 7263   1.304   6.043   3.676 -0.3357 -0.2243  0.1393
 1873SOL    HW2 7264   1.392   6.079   3.678 -0.6067  0.4257  2.4445
 1873SOL    HW3 7265   1.269   6.071   3.591  0.4772  2.4977  0.6089
 1873SOL    MW4 7266   1.311   6.051   3.665 -0.2642  0.2206  0.5054
 1874SOL     OW 7267   4.931   2.093   1.024  0.0265  0.0044 -0.3492
 1874SOL    HW2 7268   4.992   2.094   1.098 -2.5382  1.1635  1.8983
 1874SOL    HW3 7269   4.939   2.005   0.988  0.7941 -0.8863  1.8345
 1874SOL    MW4 7270   4.940   2.082   1.029 -0.2106  0.0398  0.2354
 1875SOL     OW 7271   0.908   2.332   2.779 -0.6199  0.0084  0.2802
 1875SOL    HW2 7272   0.988   2.377   2.751  0.9118 -1.6257  1.7992
 1875SOL    HW3 7273   0.877   2.384   2.854 -0.8384  0.4789 -0.1288
 1875SOL    MW4 7274   0.915   2.345   2.785 -0.4467 -0.1451  0.4267
 1876SOL     OW 7275   4.036   2.383   4.527  0.7799  0.1446  0.3326
 1876SOL    HW2 7276   4.081   2.432   4.596  2.5024 -1.3011  0.3081
 1876SOL    HW3 7277   3.977   2.324   4.573  1.5433 -0.4459  0.5905
 1876SOL    MW4 7278   4.034   2.382   4.542  1.1079 -0.1241  0.3634
 1877SOL     OW 7279   2.225   1.349   2.058  0.2896  0.3520  0.2186
 1877SOL    HW2 7280   2.265   1.401   1.989 -1.1898 -0.5772 -1.4152
 1877SOL    HW3 7281   2.147   1.311   2.018  0.2791 -1.5919  1.8912
 1877SOL    MW4 7282   2.220   1.351   2.044  0.0930 -0.0270  0.2237
 1878SOL     OW 7283   1.172   3.109   4.661 -0.4263  0.7313  0.5649
 1878SOL    HW2 7284   1.138   3.060   4.587  0.3687 -0.1772  0.7748
 1878SOL    HW3 7285   1.103   3.104   4.728 -1.1432  1.5547 -0.0967
 1878SOL    MW4 7286   1.159   3.102   4.660 -0.4160  0.7201  0.5053
 1879SOL     OW 7287   6.073   1.514   4.880 -0.1221 -0.3866  0.4195
 1879SOL    HW2 7288   6.106   1.553   4.960  0.9017  1.7357 -0.9433
 1879SOL    HW3 7289   5.981   1.541   4.875  0.6937  2.5329 -0.7624
 1879SOL    MW4 7290   6.065   1.523   4.890  0.1206  0.2786  0.0838
 1880SOL     OW 7291   0.769   4.989   1.044 -0.0752 -0.0234  0.5073
 1880SOL    HW2 7292   0.758   4.894   1.040  1.7904 -0.2745  0.3263
 1880SOL    HW3 7293   0.793   5.014   0.955  0.7021  0.4249  0.8330
 1880SOL    MW4 7294   0.770   4.980   1.032  0.2735  0.0026  0.5264
 1881SOL     OW 7295   2.122   0.483   5.177 -0.2121 -0.0860  0.3432
 1881SOL    HW2 7296   2.155   0.444   5.096  0.0912  1.4869 -0.3286
 1881SOL    HW3 7297   2.027   0.467   5.175 -0.5118  1.5641 -1.3126
 1881SOL    MW4 7298   2.114   0.476   5.166 -0.2116  0.3393  0.0361
 1882SOL     OW 7299   3.427   3.539   5.649 -0.1505 -0.5912 -0.0084
 1882SOL    HW2 7300   3.411   3.475   5.719  0.0226 -0.9138 -0.2583
 1882SOL    HW3 7301   3.513   3.575   5.670  1.6535 -3.3212 -1.9884
 1882SOL    MW4 7302   3.436   3.535   5.661  0.1104 -0.9939 -0.3026
 1883SOL     OW 7303   1.986   1.594   1.896 -0.5115 -0.1063  0.8328
 1883SOL    HW2 7304   1.933   1.673   1.900  0.7528  0.9706 -1.5398
 1883SOL    HW3 7305   2.051   1.606   1.965  1.3912  2.3965 -1.1787
 1883SOL    MW4 7306   1.988   1.606   1.906 -0.0937  0.3660  0.2544
 1884SOL     OW 7307   1.691   5.518   4.266  0.0354 -0.3184  0.3286
 1884SOL    HW2 7308   1.732   5.432   4.273 -1.3110 -1.1181 -1.0050
 1884SOL    HW3 7309   1.598   5.499   4.253 -0.5814  1.3975  1.7640
 1884SOL    MW4 7310   1.684   5.504   4.266 -0.2236 -0.1975  0.3420
 1885SOL     OW 7311   0.273   4.915   1.166 -0.1566  0.1269  0.1105
 1885SOL    HW2 7312   0.275   4.839   1.224  2.2044 -1.3461 -1.7142
 1885SOL    HW3 7313   0.359   4.956   1.176  0.4775 -0.3800 -2.4678
 1885SOL    MW4 7314   0.285   4.911   1.175  0.2386 -0.1343 -0.4704
 1886SOL     OW 7315   0.083   6.289   4.040 -0.0808 -0.0491  0.6007
 1886SOL    HW2 7316   0.044   6.204   4.058  0.7470 -0.9515 -1.6229
 1886SOL    HW3 7317   0.089   6.294   3.945 -1.5849  3.2033  0.5369
 1886SOL    MW4 7318   0.079   6.279   4.030 -0.1700  0.2610  0.2989
 1887SOL     OW 7319   4.936   4.296   3.984  0.5791 -0.4652  0.7434
 1887SOL    HW2 7320   5.012   4.281   3.927  0.0619  2.8870 -1.0917
 1887SOL    HW3 7321   4.876   4.225   3.963  0.4080  0.5871 -3.1484
 1887SOL    MW4 7322   4.938   4.285   3.974  0.4883  0.1159 -0.0122
 1888SOL     OW 7323   0.313   2.356   6.339  0.0104  0.5662 -0.3376
 1888SOL    HW2 7324   0.374   2.318   6.275 -0.3426 -0.1041 -0.2876
 1888SOL    HW3 7325   0.304   2.447   6.312  0.8499  0.6170 -0.4896
 1888SOL    MW4 7326   0.320   2.363   6.327  0.0746  0.4845 -0.3510
 1889SOL     OW 7327   1.971   5.399   3.915  0.0878  0.2332  0.0140
 1889SOL    HW2 7328   1.928   5.315   3.933 -1.1819  0.7098 -0.6284
 1889SOL    HW3 7329   2.060   5.377   3.888 -0.2761 -0.9106 -0.2775
 1889SOL    MW4 7330   1.977   5.385   3.914 -0.1277  0.1452 -0.1092
 1890SOL     OW 7331   5.247   6.138   2.004  0.4063  0.6732 -0.2380
 1890SOL    HW2 7332   5.257   6.064   2.063  1.2507  2.2581  1.7129
 1890SOL    HW3 7333   5.274   6.104   1.919 -0.7219 -1.6514  0.2374
 1890SOL    MW4 7334   5.252   6.124   2.000  0.3689  0.5756  0.0822
 1891SOL     OW 7335   4.575   3.912   4.577  0.4865  0.3750 -0.0785
 1891SOL    HW2 7336   4.626   3.942   4.653  1.4714 -0.7222 -0.2750
 1891SOL    HW3 7337   4.640   3.900   4.508 -0.0982 -0.6219 -0.4748
 1891SOL    MW4 7338   4.590   3.914   4.578  0.5393  0.0987 -0.1567
 1892SOL     OW 7339   3.620   1.200   3.752  0.1535  0.1579 -0.0889
 1892SOL    HW2 7340   3.541   1.195   3.699  1.1943 -0.1996 -1.6920
 1892SOL    HW3 7341   3.612   1.128   3.814 -1.9540  1.7115  1.5955
 1892SOL    MW4 7342   3.609   1.190   3.753  0.0128  0.3157 -0.0782
 1893SOL     OW 7343   4.935   5.195   3.254 -0.1534 -0.2734  0.2597
 1893SOL    HW2 7344   4.980   5.266   3.209  1.8137 -1.0912  0.7929
 1893SOL    HW3 7345   4.943   5.217   3.347 -0.0060 -0.9032  0.4010
 1893SOL    MW4 7346   4.942   5.207   3.260  0.1256 -0.4644  0.3487
 1894SOL     OW 7347   2.229   0.045   4.002  0.0353  0.2927 -0.4895
 1894SOL    HW2 7348   2.246   0.033   4.095 -1.1122  1.2795 -0.1295
 1894SOL    HW3 7349   2.232   0.139   3.989 -0.5134  0.2087 -1.3010
 1894SOL    MW4 7350   2.232   0.056   4.013 -0.1885  0.4118 -0.5490
 1895SOL     OW 7351   6.007   3.261   4.934  0.1232 -0.4389 -0.7104
 1895SOL    HW2 7352   5.988   3.175   4.896 -0.1381 -1.0938  0.8518
 1895SOL    HW3 7353   5.934   3.316   4.905 -0.9667 -1.3598  0.1661
 1895SOL    MW4 7354   5.995   3.257   4.925 -0.0551 -0.6468 -0.3887
 1896SOL     OW 7355   0.982   0.725   5.060 -0.3272  0.6981 -0.1396
 1896SOL    HW2 7356   1.050   0.749   4.998  0.4567  3.2250  1.5431
 1896SOL    HW3 7357   0.912   0.789   5.045 -0.5714  0.6879  0.8621
 1896SOL    MW4 7358   0.981   0.736   5.050 -0.2560  1.0301  0.2146
 1897SOL     OW 7359   2.651   2.714   4.599 -0.0119  0.6595  0.2510
 1897SOL    HW2 7360   2.578   2.722   4.538  0.0486  0.0561  0.0933
 1897SOL    HW3 7361   2.671   2.621   4.600 -0.2864  0.5887  1.5144
 1897SOL    MW4 7362   2.644   2.703   4.591 -0.0401  0.5705  0.3969
 1898SOL     OW 7363   1.236   5.188   1.093 -0.6447 -0.4060  0.2917
 1898SOL    HW2 7364   1.184   5.207   1.015 -0.3797  0.0072  0.2155
 1898SOL    HW3 7365   1.182   5.126   1.143 -1.3724  0.2937  0.3882
 1898SOL    MW4 7366   1.222   5.182   1.090 -0.7058 -0.2592  0.2944
 1899SOL     OW 7367   5.878   3.143   1.918 -0.1617 -0.1037 -0.1201
 1899SOL    HW2 7368   5.800   3.133   1.973  0.4476 -2.4568  0.4298
 1899SOL    HW3 7369   5.936   3.200   1.968 -0.8562  0.3182  0.2219
 1899SOL    MW4 7370   5.875   3.149   1.932 -0.1730 -0.3585 -0.0024
 1900SOL     OW 7371   2.858   3.401   0.883 -0.0285 -0.8862  0.1671
 1900SOL    HW2 7372   2.899   3.485   0.905 -0.2294 -1.0415  1.2254
 1900SOL    HW3 7373   2.892   3.340   0.948 -0.7404 -1.3674  0.1052
 1900SOL    MW4 7374   2.868   3.404   0.895 -0.1490 -0.9702  0.2985
 1901SOL     OW 7375   3.815   5.216   0.012 -0.0498  0.1006  0.1555
 1901SOL    HW2 7376   3.787   5.307   0.006  0.5701  0.2709 -0.2295
 1901SOL    HW3 7377   3.753   5.168  -0.042 -0.2352  0.3204  0.1675
 1901SOL    MW4 7378   3.803   5.222   0.004  0.0075  0.1521  0.1063
 1902SOL     OW 7379   1.595   5.116   5.394  0.1445 -0.3246  0.5334
 1902SOL    HW2 7380   1.653   5.120   5.317  1.7955 -0.7020  1.6964
 1902SOL    HW3 7381   1.549   5.200   5.393 -0.0113 -0.4021 -0.9661
 1902SOL    MW4 7382   1.597   5.128   5.384  0.3417 -0.3846  0.4890
 1903SOL     OW 7383   0.058   4.429   1.263 -0.6319 -0.0765  0.1816
 1903SOL    HW2 7384   0.054   4.342   1.223 -2.3257  1.1934 -2.7772
 1903SOL    HW3 7385  -0.025   4.437   1.310  0.0178 -0.4427  1.4119
 1903SOL    MW4 7386   0.046   4.418   1.264 -0.7696  0.0427 -0.0465
 1904SOL     OW 7387   1.879   5.001   0.360  0.2816 -0.2678 -0.5220
 1904SOL    HW2 7388   1.931   5.079   0.339 -2.7696  2.6832  1.7295
 1904SOL    HW3 7389   1.887   4.993   0.455 -0.6818 -1.8313 -0.5511
 1904SOL    MW4 7390   1.887   5.010   0.370 -0.2480 -0.0847 -0.2288
 1905SOL     OW 7391   4.056   5.127   5.805  0.0394 -0.2472  0.0608
 1905SOL    HW2 7392   4.029   5.078   5.727  0.1569 -0.1825 -0.0207
 1905SOL    HW3 7393   4.134   5.082   5.836 -1.6467 -2.1073  1.8750
 1905SOL    MW4 7394   4.062   5.115   5.799 -0.1675 -0.4841  0.2894
 1906SOL     OW 7395   3.651   2.029   0.951  0.2797  0.1071  0.0919
 1906SOL    HW2 7396   3.661   1.938   0.923 -0.1202 -0.7957  2.6077
 1906SOL    HW3 7397   3.737   2.053   0.986 -0.0007  0.1654  0.7707
 1906SOL    MW4 7398   3.664   2.020   0.952  0.1900 -0.0043  0.5134
 1907SOL     OW 7399   4.451   2.870   5.027  0.1208 -0.4947  0.0354
 1907SOL    HW2 7400   4.369   2.840   4.989 -0.8600  1.5965  0.3429
 1907SOL    HW3 7401   4.455   2.828   5.113 -0.9006 -0.2268  0.2203
 1907SOL    MW4 7402   4.441   2.860   5.034 -0.1433 -0.1834  0.1004
 1908SOL     OW 7403   6.171   3.342   3.227  0.2455  0.5254  0.5091
 1908SOL    HW2 7404   6.207   3.428   3.208 -1.2716  1.0338 -0.1509
 1908SOL    HW3 7405   6.137   3.349   3.316 -0.8260  0.9485  0.0770
 1908SOL    MW4 7406   6.171   3.354   3.236 -0.0960  0.6483  0.3650
 1909SOL     OW 7407   5.912   4.797   2.046  0.0619 -0.3296 -0.2370
 1909SOL    HW2 7408   5.862   4.743   1.985  1.7330 -1.8193 -0.4032
 1909SOL    HW3 7409   5.935   4.875   1.996 -1.3047 -0.0255 -0.4296
 1909SOL    MW4 7410   5.909   4.800   2.032  0.1021 -0.4860 -0.2843
 1910SOL     OW 7411   6.351   3.630   6.388 -0.3078 -0.5184  0.1393
 1910SOL    HW2 7412   6.305   3.551   6.416  0.5201 -0.9608  0.2709
 1910SOL    HW3 7413   6.420   3.599   6.330  0.0497  0.1127  0.2139
 1910SOL    MW4 7414   6.354   3.616   6.384 -0.1514 -0.4935  0.1665
 1911SOL     OW 7415   0.848   2.233   1.308  0.5462  0.3814 -0.1944
 1911SOL    HW2 7416   0.791   2.221   1.232  0.7988 -2.1481 -0.0826
 1911SOL    HW3 7417   0.903   2.308   1.286 -1.7873  1.9676 -0.9155
 1911SOL    MW4 7418   0.848   2.241   1.295  0.2716  0.2569 -0.2748
 1912SOL     OW 7419   2.129   2.234   3.077 -0.3958  0.4208 -0.2304
 1912SOL    HW2 7420   2.151   2.161   3.020  1.8805 -1.2923  2.5534
 1912SOL    HW3 7421   2.165   2.311   3.034 -0.3943 -0.4963 -1.9326
 1912SOL    MW4 7422   2.137   2.234   3.064 -0.0953  0.0738 -0.0877
 1913SOL     OW 7423   4.090   6.107   1.398  0.3620 -0.0710 -0.1970
 1913SOL    HW2 7424   4.130   6.190   1.370 -0.6162  0.4984  0.0442
 1913SOL    HW3 7425   4.163   6.056   1.432  0.6763  1.7647  2.2015
 1913SOL    MW4 7426   4.105   6.111   1.399  0.2744  0.2463  0.1513
 1914SOL     OW 7427   2.410   3.897   2.999 -0.7699  0.2120 -0.4921
 1914SOL    HW2 7428   2.319   3.910   3.026 -0.9182  1.6588 -1.5297
 1914SOL    HW3 7429   2.417   3.947   2.918  0.7268 -0.6188 -0.9014
 1914SOL    MW4 7430   2.399   3.906   2.992 -0.5920  0.2932 -0.6830
 1915SOL     OW 7431   3.278   4.253   1.613  0.1812  0.6355  0.0563
 1915SOL    HW2 7432   3.254   4.342   1.639 -0.9304  0.0970  0.9459
 1915SOL    HW3 7433   3.243   4.243   1.524 -1.5650  0.4093  0.7360
 1915SOL    MW4 7434   3.271   4.263   1.604 -0.1958  0.5346  0.2634
 1916SOL     OW 7435   6.413   3.417   4.857  0.2202 -0.3290 -0.8991
 1916SOL    HW2 7436   6.361   3.445   4.781  1.2258  0.7376 -1.2225
 1916SOL    HW3 7437   6.504   3.428   4.829  0.6719  2.3701  1.2219
 1916SOL    MW4 7438   6.419   3.422   4.843  0.4125  0.1678 -0.6619
 1917SOL     OW 7439   5.792   0.212   3.931 -0.1496 -0.9383  0.0594
 1917SOL    HW2 7440   5.813   0.270   3.858 -1.6063 -0.4821 -0.0219
 1917SOL    HW3 7441   5.823   0.258   4.009  1.3612 -1.4022 -0.2368
 1917SOL    MW4 7442   5.799   0.226   3.932 -0.1425 -0.9393  0.0096
 1918SOL     OW 7443   4.487   4.182   5.008 -0.3432 -0.0368  0.7933
 1918SOL    HW2 7444   4.407   4.184   4.957  0.7446  3.4832 -1.0796
 1918SOL    HW3 7445   4.474   4.246   5.078  0.9445  1.0326  0.1148
 1918SOL    MW4 7446   4.475   4.191   5.010 -0.0298  0.5688  0.4567
 1919SOL     OW 7447   4.824   4.913   0.786 -0.1912 -0.0373 -0.2134
 1919SOL    HW2 7448   4.902   4.964   0.810  0.0359 -0.1331 -0.7270
 1919SOL    HW3 7449   4.769   4.975   0.738 -1.2249  0.5146  1.5726
 1919SOL    MW4 7450   4.827   4.928   0.783 -0.2976  0.0229 -0.0455
 1920SOL     OW 7451   2.029   6.386   3.745  0.2379 -0.3755  0.6200
 1920SOL    HW2 7452   1.959   6.414   3.804 -3.1936 -1.2193 -2.6037
 1920SOL    HW3 7453   2.037   6.292   3.760  0.9994 -0.2198  1.2393
 1920SOL    MW4 7454   2.021   6.377   3.755 -0.1143 -0.4663  0.2764
 1921SOL     OW 7455   5.683   4.017   1.372  0.5365  0.0390  0.2636
 1921SOL    HW2 7456   5.673   3.987   1.282 -1.4012 -0.6942  0.6815
 1921SOL    HW3 7457   5.597   4.052   1.397  1.0530  0.3276  1.7886
 1921SOL    MW4 7458   5.670   4.017   1.364  0.3490 -0.0196  0.5199
 1922SOL     OW 7459   3.042   3.122   2.427  0.3915  0.3233 -0.0027
 1922SOL    HW2 7460   3.101   3.185   2.468  1.2827  0.9513 -2.1052
 1922SOL    HW3 7461   3.099   3.066   2.375 -0.7681  0.4382 -1.4636
 1922SOL    MW4 7462   3.057   3.123   2.426  0.3561  0.4213 -0.4728
 1923SOL     OW 7463   3.257   3.388   3.190  0.0879 -0.1164  0.6257
 1923SOL    HW2 7464   3.287   3.436   3.267 -1.6269  2.1549 -0.0164
 1923SOL    HW3 7465   3.289   3.439   3.115  0.8647 -1.7263 -0.1842
 1923SOL    MW4 7466   3.265   3.401   3.190 -0.0358 -0.0291  0.4341
 1924SOL     OW 7467   4.065   4.387   3.338 -0.5605 -0.2223 -1.0269
 1924SOL    HW2 7468   4.075   4.453   3.407 -2.9877  0.6421 -1.4082
 1924SOL    HW3 7469   4.081   4.434   3.256  0.6726 -0.8604 -1.1835
 1924SOL    MW4 7470   4.069   4.402   3.336 -0.7181 -0.1924 -1.0978
 1925SOL     OW 7471   0.356   2.838   5.072  0.3288  0.2275 -0.7287
 1925SOL    HW2 7472   0.335   2.776   5.141 -0.2490  0.7917 -0.3956
 1925SOL    HW3 7473   0.288   2.905   5.077  0.5028  0.4861 -1.5843
 1925SOL    MW4 7474   0.344   2.838   5.081  0.2755  0.3360 -0.7976
 1926SOL     OW 7475   5.347   1.989   1.024 -0.3995 -0.3137  0.0709
 1926SOL    HW2 7476   5.279   1.926   1.004 -0.3313 -0.0294 -1.1683
 1926SOL    HW3 7477   5.345   2.051   0.950 -1.2181  1.7955  1.7516
 1926SOL    MW4 7478   5.338   1.989   1.011 -0.4985  0.0021  0.1291
 1927SOL     OW 7479   4.921   1.063   5.958 -0.2526  0.2782  0.3036
 1927SOL    HW2 7480   4.989   1.094   5.897  0.3648  0.2336  0.9538
 1927SOL    HW3 7481   4.852   1.030   5.901 -1.4986  3.8180 -0.5186
 1927SOL    MW4 7482   4.921   1.063   5.942 -0.3355  0.7394  0.2809
 1928SOL     OW 7483   0.764   0.709   5.928 -0.4938 -0.3785  0.0055
 1928SOL    HW2 7484   0.767   0.800   5.899  0.3971 -0.2628  0.4136
 1928SOL    HW3 7485   0.844   0.670   5.893 -1.7985 -1.5385 -1.8159
 1928SOL    MW4 7486   0.775   0.716   5.920 -0.5484 -0.5163 -0.1809
 1929SOL     OW 7487   1.497   2.832   0.169 -0.2037  0.0037  0.4752
 1929SOL    HW2 7488   1.591   2.841   0.186 -0.3111  0.7863  0.6961
 1929SOL    HW3 7489   1.477   2.901   0.106 -0.3452 -1.1335 -0.7719
 1929SOL    MW4 7490   1.507   2.843   0.163 -0.2365 -0.0430  0.3398
 1930SOL     OW 7491   2.562   2.747   4.929  0.1041 -0.3590 -0.4870
 1930SOL    HW2 7492   2.561   2.778   4.839 -3.4211 -0.7485 -0.7041
 1930SOL    HW3 7493   2.605   2.661   4.924 -0.4236 -0.5719 -1.8801
 1930SOL    MW4 7494   2.568   2.740   4.917 -0.4306 -0.4385 -0.6995
 1931SOL     OW 7495   6.211   1.865   2.749 -0.2640 -0.0761 -0.1528
 1931SOL    HW2 7496   6.187   1.825   2.833  1.1795  1.8045  1.2382
 1931SOL    HW3 7497   6.307   1.859   2.746 -0.3358 -1.3100 -2.3567
 1931SOL    MW4 7498   6.221   1.859   2.760 -0.0830  0.0092 -0.2600
 1932SOL     OW 7499   1.153   4.965   1.280 -0.1763 -0.2026 -0.3732
 1932SOL    HW2 7500   1.240   4.938   1.253  0.1133  0.9116 -0.5985
 1932SOL    HW3 7501   1.158   4.971   1.375 -0.0260 -0.2062 -0.3809
 1932SOL    MW4 7502   1.165   4.962   1.289 -0.1183 -0.0561 -0.4040
 1933SOL     OW 7503   4.528   5.515   5.932 -0.0193 -0.2038  0.5165
 1933SOL    HW2 7504   4.433   5.517   5.917  0.1797  1.2934 -0.8512
 1933SOL    HW3 7505   4.559   5.443   5.877 -0.1859  0.4064 -0.3962
 1933SOL    MW4 7506   4.519   5.506   5.923 -0.0150  0.0742  0.2156
 1934SOL     OW 7507   6.057   0.754   0.389 -0.0016 -0.1090 -0.1265
 1934SOL    HW2 7508   6.131   0.781   0.442  1.4820 -0.8975 -1.6927
 1934SOL    HW3 7509   6.018   0.836   0.358 -0.2083  0.3245  1.2041
 1934SOL    MW4 7510   6.061   0.768   0.392  0.1668 -0.1558 -0.1576
 1935SOL     OW 7511   0.114   2.655   2.537  0.0965  0.6499  0.2659
 1935SOL    HW2 7512   0.190   2.700   2.575  0.6115  2.1544 -2.2796
 1935SOL    HW3 7513   0.145   2.625   2.452 -0.9528 -2.6851  0.9255
 1935SOL    MW4 7514   0.128   2.657   2.531  0.0260  0.4084  0.0171
 1936SOL     OW 7515   3.903   1.933   4.345  0.0710 -0.0364 -0.0724
 1936SOL    HW2 7516   3.896   1.891   4.260  2.0793 -0.5231 -0.0419
 1936SOL    HW3 7517   3.883   1.863   4.408  0.0402 -0.0569 -0.1051
 1936SOL    MW4 7518   3.899   1.918   4.342  0.3319 -0.1033 -0.0727
 1937SOL     OW 7519   2.829   0.016   3.245  0.1115 -0.2793  0.0670
 1937SOL    HW2 7520   2.734   0.028   3.252  0.2918  0.5620  1.4217
 1937SOL    HW3 7521   2.840  -0.056   3.183 -1.4402 -1.0039  0.5877
 1937SOL    MW4 7522   2.818   0.008   3.238 -0.0694 -0.2639  0.3144
 1938SOL     OW 7523   6.151   1.211   4.077 -0.0930  0.7690 -0.2801
 1938SOL    HW2 7524   6.232   1.173   4.041  0.1796  1.0330  0.0450
 1938SOL    HW3 7525   6.140   1.293   4.030 -1.2735 -0.1864 -1.7621
 1938SOL    MW4 7526   6.160   1.217   4.066 -0.2128  0.6777 -0.4328
 1939SOL     OW 7527   5.478   0.881   1.369  0.0911 -0.2564 -0.4214
 1939SOL    HW2 7528   5.470   0.946   1.438 -0.4366 -1.7803  1.0308
 1939SOL    HW3 7529   5.554   0.908   1.318  1.1864  0.3227  1.4489
 1939SOL    MW4 7530   5.487   0.893   1.371  0.1660 -0.3810  0.0169
 1940SOL     OW 7531   0.611   0.387   4.638 -0.2883  0.3116  0.2863
 1940SOL    HW2 7532   0.634   0.467   4.685  2.4438  0.2796 -0.8542
 1940SOL    HW3 7533   0.621   0.409   4.546  0.5743 -1.3279 -0.0479
 1940SOL    MW4 7534   0.615   0.400   4.632  0.1860  0.0911  0.0917
 1941SOL     OW 7535   2.443   6.427   5.526 -0.8508  0.1665  0.8233
 1941SOL    HW2 7536   2.444   6.463   5.437 -1.9394 -0.2948  0.6098
 1941SOL    HW3 7537   2.535   6.424   5.551 -0.5352  0.4339 -0.2363
 1941SOL    MW4 7538   2.456   6.432   5.517 -0.9528  0.1409  0.6554
 1942SOL     OW 7539   1.800   2.209   5.151  0.2106 -0.3553  0.0080
 1942SOL    HW2 7540   1.808   2.305   5.149 -1.1500 -0.2228 -0.5508
 1942SOL    HW3 7541   1.720   2.191   5.100  0.9403 -1.8564 -0.6691
 1942SOL    MW4 7542   1.791   2.220   5.144  0.1274 -0.5359 -0.1551
 1943SOL     OW 7543   6.124   4.103   0.527 -0.1444  0.2122  0.0917
 1943SOL    HW2 7544   6.135   4.086   0.621 -1.2190  1.8918  0.5641
 1943SOL    HW3 7545   6.090   4.193   0.523 -0.1228  0.1655 -1.9146
 1943SOL    MW4 7546   6.121   4.113   0.539 -0.2833  0.4277 -0.1106
 1944SOL     OW 7547   6.021   1.429   0.701 -0.3324  0.0103  0.0867
 1944SOL    HW2 7548   6.089   1.476   0.749  0.3924  0.0094 -0.9007
 1944SOL    HW3 7549   6.007   1.348   0.751 -0.1045  0.3224  0.6629
 1944SOL    MW4 7550   6.028   1.424   0.714 -0.2067  0.0514  0.0324
 1945SOL     OW 7551   6.274   1.918   4.893  0.1743  0.0237  0.2729
 1945SOL    HW2 7552   6.253   1.839   4.845  1.9033 -0.0812 -0.3910
 1945SOL    HW3 7553   6.245   1.990   4.837 -0.5049 -0.1104  0.4404
 1945SOL    MW4 7554   6.268   1.917   4.879  0.3128 -0.0078  0.2074
 1946SOL     OW 7555   2.750   1.501   1.531  0.8612 -0.0660 -0.3205
 1946SOL    HW2 7556   2.790   1.486   1.445 -1.2663  0.4239 -1.4712
 1946SOL    HW3 7557   2.660   1.471   1.521  0.4920  0.2399  1.6813
 1946SOL    MW4 7558   2.744   1.495   1.518  0.5318  0.0390 -0.2082
 1947SOL     OW 7559   3.119   1.744   1.443  0.8768  0.0817  0.3422
 1947SOL    HW2 7560   3.184   1.679   1.415  0.3304  0.2297 -1.4319
 1947SOL    HW3 7561   3.070   1.700   1.512  0.8616 -1.2361 -0.4548
 1947SOL    MW4 7562   3.121   1.729   1.448  0.8027 -0.0727  0.0030
 1948SOL     OW 7563   1.037   4.244   0.725  0.2512  0.2270 -0.1271
 1948SOL    HW2 7564   0.958   4.298   0.728  0.8269  1.1268 -0.6264
 1948SOL    HW3 7565   1.089   4.273   0.801  1.8914  2.5580 -1.9749
 1948SOL    MW4 7566   1.034   4.255   0.735  0.5436  0.6533 -0.4368
 1949SOL     OW 7567   4.706   1.783   1.890  0.4910 -0.2401 -0.0264
 1949SOL    HW2 7568   4.775   1.843   1.862  0.2357 -0.0926 -0.3505
 1949SOL    HW3 7569   4.634   1.800   1.830  0.4839 -1.0105 -0.2498
 1949SOL    MW4 7570   4.706   1.793   1.878  0.4564 -0.3223 -0.0986
 1950SOL     OW 7571   4.481   0.583   4.402 -0.6696  0.0567 -0.3717
 1950SOL    HW2 7572   4.423   0.638   4.455 -0.4017  0.0832 -0.1029
 1950SOL    HW3 7573   4.442   0.584   4.315 -0.8885  0.3479 -0.2721
 1950SOL    MW4 7574   4.468   0.591   4.397 -0.6631  0.0986 -0.3231
 1951SOL     OW 7575   5.475   2.585   3.923  0.1636  0.2728 -0.0144
 1951SOL    HW2 7576   5.459   2.666   3.873  0.0513  0.6537  0.6316
 1951SOL    HW3 7577   5.414   2.522   3.884  0.3817  0.4400 -0.6506
 1951SOL    MW4 7578   5.465   2.588   3.911  0.1775  0.3451 -0.0131
 1952SOL     OW 7579   2.904   5.242   5.510 -0.3816 -0.3090 -0.5175
 1952SOL    HW2 7580   2.945   5.281   5.432 -1.0551 -1.5049 -1.5051
 1952SOL    HW3 7581   2.888   5.151   5.485 -0.0839 -0.8702  1.2470
 1952SOL    MW4 7582   2.907   5.236   5.496 -0.4312 -0.5408 -0.4150
 1953SOL     OW 7583   0.901   3.867   4.566 -0.3519 -0.0009  0.1635
 1953SOL    HW2 7584   0.895   3.925   4.490  2.8242  0.3270 -0.0044
 1953SOL    HW3 7585   0.910   3.927   4.640  2.1675 -0.1521  0.0713
 1953SOL    MW4 7586   0.902   3.883   4.566  0.3996  0.0224  0.1292
 1954SOL     OW 7587   4.416   2.098   3.023 -0.1379  0.4598  0.3349
 1954SOL    HW2 7588   4.488   2.156   2.996 -1.3583  1.6093 -0.5442
 1954SOL    HW3 7589   4.348   2.156   3.056 -1.4292 -0.4505 -0.6217
 1954SOL    MW4 7590   4.417   2.113   3.024 -0.4693  0.4913  0.0927
 1955SOL     OW 7591   2.759   0.959   6.128  0.3161  0.3099  0.1506
 1955SOL    HW2 7592   2.730   1.050   6.125 -0.0218  0.2327  0.7578
 1955SOL    HW3 7593   2.842   0.962   6.174  1.6534  0.6070 -2.1564
 1955SOL    MW4 7594   2.766   0.971   6.134  0.4480  0.3389 -0.0736
 1956SOL     OW 7595   3.019   2.215   5.940  0.5322 -0.1309  0.5634
 1956SOL    HW2 7596   3.085   2.273   5.978  0.3596 -0.2613  1.0680
 1956SOL    HW3 7597   2.939   2.267   5.937  1.0194  0.5979 -1.5994
 1956SOL    MW4 7598   3.017   2.229   5.945  0.5737 -0.0519  0.3446
 1957SOL     OW 7599   3.347   2.461   3.758 -0.2936 -0.2801 -0.1237
 1957SOL    HW2 7600   3.390   2.427   3.679 -0.0310  1.8995 -0.9690
 1957SOL    HW3 7601   3.348   2.387   3.819  1.2420 -1.4356 -1.4625
 1957SOL    MW4 7602   3.353   2.447   3.756 -0.0564 -0.1450 -0.4119
 1958SOL     OW 7603   4.665   2.745   3.476  0.1015 -0.1203 -0.3490
 1958SOL    HW2 7604   4.642   2.808   3.408  0.8619  1.8128  1.0623
 1958SOL    HW3 7605   4.584   2.732   3.525  0.0345  0.0938 -0.4022
 1958SOL    MW4 7606   4.651   2.752   3.474  0.1930  0.1630 -0.1698
 1959SOL     OW 7607   6.394   6.364   1.408 -0.5697  0.4557  0.0472
 1959SOL    HW2 7608   6.380   6.372   1.502 -0.9134 -0.0605  0.0461
 1959SOL    HW3 7609   6.351   6.281   1.384  1.1117 -0.3659 -0.2527
 1959SOL    MW4 7610   6.386   6.354   1.417 -0.3932  0.2792  0.0075
 1960SOL     OW 7611   5.944   3.751   5.230  0.1409  0.1722  0.3037
 1960SOL    HW2 7612   5.998   3.757   5.151  1.2830  0.8881  1.1044
 1960SOL    HW3 7613   6.002   3.714   5.296 -1.1321 -1.5003  0.5560
 1960SOL    MW4 7614   5.959   3.747   5.228  0.1237  0.0460  0.4427
 1961SOL     OW 7615   2.243   1.219   4.011 -0.3054 -0.0552  0.5640
 1961SOL    HW2 7616   2.226   1.306   4.045  1.5189  0.5742 -0.0073
 1961SOL    HW3 7617   2.157   1.177   4.007 -0.9174  0.8094  3.2138
 1961SOL    MW4 7618   2.229   1.225   4.015 -0.1455  0.1419  0.8382
 1962SOL     OW 7619   1.981   3.940   4.640  0.3142  0.1152  0.0436
 1962SOL    HW2 7620   1.911   3.896   4.591  1.6137 -2.5482  0.4074
 1962SOL    HW3 7621   2.043   3.968   4.572  0.7533 -1.0635 -0.0730
 1962SOL    MW4 7622   1.980   3.938   4.624  0.5436 -0.3917  0.0762
 1963SOL     OW 7623   4.737   0.345   5.178  0.3088 -0.6730  0.2407
 1963SOL    HW2 7624   4.764   0.338   5.269  0.9667 -0.5287  0.0643
 1963SOL    HW3 7625   4.662   0.405   5.179  0.6443 -0.2572  0.6239
 1963SOL    MW4 7626   4.730   0.352   5.190  0.4398 -0.5991  0.2680
 1964SOL     OW 7627   1.295   3.401   3.756 -0.5947  0.7851  0.1361
 1964SOL    HW2 7628   1.260   3.312   3.750 -0.0486  0.6408 -1.4847
 1964SOL    HW3 7629   1.243   3.452   3.694  0.0124  1.2633  0.0035
 1964SOL    MW4 7630   1.284   3.396   3.747 -0.4425  0.8291 -0.0952
 1965SOL     OW 7631   5.264   5.331   4.255 -0.1898  0.1300 -0.8994
 1965SOL    HW2 7632   5.237   5.240   4.266  0.6374 -0.4483 -3.0674
 1965SOL    HW3 7633   5.259   5.369   4.342 -2.8699 -1.3322 -0.2985
 1965SOL    MW4 7634   5.259   5.324   4.268 -0.4343 -0.1392 -1.1062
 1966SOL     OW 7635   3.436   1.278   2.753 -0.1864 -1.1376  0.3310
 1966SOL    HW2 7636   3.517   1.290   2.803  0.5221 -0.2687 -0.9642
 1966SOL    HW3 7637   3.369   1.260   2.819  0.3610  1.6242  1.7802
 1966SOL    MW4 7638   3.438   1.278   2.769 -0.0207 -0.6586  0.3513
 1967SOL     OW 7639   1.626   5.315   0.451 -0.0599  0.1437 -0.3014
 1967SOL    HW2 7640   1.704   5.370   0.447  0.0534  0.0774  0.8187
 1967SOL    HW3 7641   1.563   5.367   0.502  0.0714 -0.7713  0.8326
 1967SOL    MW4 7642   1.628   5.329   0.457 -0.0276  0.0143 -0.0040
 1968SOL     OW 7643   5.994   0.958   2.034  0.3002  0.1239  0.3003
 1968SOL    HW2 7644   5.957   1.037   2.072 -0.7319  1.0763 -2.4074
 1968SOL    HW3 7645   6.078   0.986   1.997  1.3001 -0.7755  1.8057
 1968SOL    MW4 7646   6.000   0.972   2.034  0.2960  0.1309  0.1416
 1969SOL     OW 7647   5.428   6.264   1.331 -0.6201  0.4223 -0.4200
 1969SOL    HW2 7648   5.434   6.358   1.311 -1.2807  0.3256 -1.0841
 1969SOL    HW3 7649   5.469   6.221   1.256 -0.1323  0.1794 -0.0207
 1969SOL    MW4 7650   5.435   6.271   1.319 -0.6429  0.3775 -0.4550
 1970SOL     OW 7651   1.154   1.205   5.184 -0.2982 -0.0817  0.0906
 1970SOL    HW2 7652   1.161   1.110   5.191  0.0548  0.0340  1.7364
 1970SOL    HW3 7653   1.214   1.238   5.251  1.1942  1.3588 -1.8129
 1970SOL    MW4 7654   1.163   1.197   5.194 -0.0548  0.1236  0.0566
 1971SOL     OW 7655   2.889   6.066   3.713 -0.4602 -0.1964  0.0413
 1971SOL    HW2 7656   2.984   6.074   3.722 -0.5674  0.4051  0.7382
 1971SOL    HW3 7657   2.854   6.111   3.790 -1.2933 -1.4146  0.4070
 1971SOL    MW4 7658   2.897   6.073   3.725 -0.5843 -0.2778  0.1815
 1972SOL     OW 7659   4.505   2.827   1.663  0.4504 -0.3399  0.3444
 1972SOL    HW2 7660   4.468   2.887   1.599  1.6026 -1.0647 -1.0678
 1972SOL    HW3 7661   4.578   2.875   1.701 -0.5494  0.2859  1.5527
 1972SOL    MW4 7662   4.510   2.841   1.660  0.4705 -0.3529  0.3175
 1973SOL     OW 7663   1.195   6.388   4.222  0.1081  0.0384 -0.4109
 1973SOL    HW2 7664   1.171   6.432   4.140 -2.1802  2.7499  1.5200
 1973SOL    HW3 7665   1.197   6.458   4.287  2.4293 -1.9178  1.8231
 1973SOL    MW4 7666   1.192   6.403   4.219  0.1125  0.1380  0.1386
 1974SOL     OW 7667   3.754   5.472   4.832 -0.1133 -0.2535  0.4528
 1974SOL    HW2 7668   3.728   5.390   4.790 -0.7733  0.6280 -0.9357
 1974SOL    HW3 7669   3.673   5.505   4.872 -0.5446  1.0754 -1.4115
 1974SOL    MW4 7670   3.740   5.465   4.832 -0.2573  0.0382  0.0237
 1975SOL     OW 7671   6.319   2.976   1.129 -0.1723  0.0156 -0.4275
 1975SOL    HW2 7672   6.361   2.891   1.124 -0.1034  0.1005 -1.6887
 1975SOL    HW3 7673   6.317   3.007   1.038 -1.0681  0.9266 -0.1166
 1975SOL    MW4 7674   6.324   2.969   1.116 -0.2814  0.1470 -0.5529
 1976SOL     OW 7675   2.127   2.222   0.622  0.3102 -0.0627  0.0168
 1976SOL    HW2 7676   2.110   2.315   0.603  1.2580  0.4102  1.3096
 1976SOL    HW3 7677   2.149   2.184   0.537 -1.1094  0.6430 -0.6987
 1976SOL    MW4 7678   2.128   2.230   0.608  0.2479  0.0928  0.0930
 1977SOL     OW 7679   4.528   2.653   2.086 -0.6514  0.2111 -0.0999
 1977SOL    HW2 7680   4.455   2.673   2.027 -0.6381  3.1549  0.6855
 1977SOL    HW3 7681   4.559   2.739   2.115  1.3096 -1.0297  1.8162
 1977SOL    MW4 7682   4.522   2.667   2.082 -0.3909  0.4358  0.2566
 1978SOL     OW 7683   1.815   1.325   1.268  0.4700  0.1414 -0.0988
 1978SOL    HW2 7684   1.791   1.247   1.318 -0.4758 -0.2524 -1.1326
 1978SOL    HW3 7685   1.910   1.328   1.273  0.4159  0.1585  1.7699
 1978SOL    MW4 7686   1.824   1.315   1.275  0.3380  0.0917  0.0113
 1979SOL     OW 7687   0.620   0.549   4.906  0.2919  0.5340 -0.0716
 1979SOL    HW2 7688   0.636   0.551   5.001 -0.3119 -0.6214  0.0751
 1979SOL    HW3 7689   0.525   0.555   4.898  0.2644 -0.4118 -0.5500
 1979SOL    MW4 7690   0.610   0.550   4.918  0.2086  0.2568 -0.1153
 1980SOL     OW 7691   5.485   4.149   1.499  0.4883 -0.0962  0.0470
 1980SOL    HW2 7692   5.544   4.151   1.574  1.8079 -0.6786 -0.9295
 1980SOL    HW3 7693   5.514   4.222   1.444 -0.3502  0.2197  0.0120
 1980SOL    MW4 7694   5.496   4.159   1.501  0.5518 -0.1313 -0.0865
 1981SOL     OW 7695   4.721   6.342   3.281 -0.6902  0.3762 -0.1398
 1981SOL    HW2 7696   4.659   6.404   3.319 -0.7873  0.9602 -1.2088
 1981SOL    HW3 7697   4.774   6.395   3.221 -2.7608 -0.9978 -3.4541
 1981SOL    MW4 7698   4.720   6.357   3.278 -0.9762  0.2719 -0.7181
 1982SOL     OW 7699   0.567   1.195   6.244 -0.0783  0.3096  0.4760
 1982SOL    HW2 7700   0.598   1.206   6.154 -0.4306 -2.2955 -0.0520
 1982SOL    HW3 7701   0.481   1.236   6.245  0.4242  1.4146 -0.0147
 1982SOL    MW4 7702   0.560   1.202   6.232 -0.0585  0.1117  0.3416
 1983SOL     OW 7703   1.786   1.327   3.075  0.8184  0.1931  0.3232
 1983SOL    HW2 7704   1.737   1.410   3.078 -0.9934 -0.8467  0.5836
 1983SOL    HW3 7705   1.734   1.270   3.020  1.8823 -0.9004  0.4167
 1983SOL    MW4 7706   1.773   1.331   3.068  0.7197 -0.0884  0.3699
 1984SOL     OW 7707   3.476   3.668   2.713 -0.2837 -0.1334 -0.4397
 1984SOL    HW2 7708   3.456   3.592   2.658 -3.4602  0.2571 -0.0631
 1984SOL    HW3 7709   3.498   3.630   2.799  1.5846 -0.6586 -1.1148
 1984SOL    MW4 7710   3.476   3.653   2.717 -0.4563 -0.1512 -0.4791
 1985SOL     OW 7711   2.305   3.616   2.407  0.1235 -0.6204 -0.3901
 1985SOL    HW2 7712   2.287   3.549   2.341 -0.0614 -1.3749  0.3954
 1985SOL    HW3 7713   2.355   3.569   2.474  1.3091  0.4049 -0.5216
 1985SOL    MW4 7714   2.310   3.601   2.407  0.2556 -0.5847 -0.3038
 1986SOL     OW 7715   0.474   3.666   3.429  0.2179 -0.0905  0.5403
 1986SOL    HW2 7716   0.565   3.665   3.458  0.3806 -0.0977  0.0484
 1986SOL    HW3 7717   0.433   3.593   3.474  0.1692  0.5950  1.6471
 1986SOL    MW4 7718   0.480   3.656   3.438  0.2329 -0.0010  0.6214
 1987SOL     OW 7719   2.030   3.103   1.092 -0.1422 -0.7716 -0.0326
 1987SOL    HW2 7720   2.119   3.116   1.125 -0.3301 -1.3690  0.7214
 1987SOL    HW3 7721   1.989   3.044   1.155 -1.6055  0.7814  0.5676
 1987SOL    MW4 7722   2.036   3.097   1.105 -0.3600 -0.6455  0.1460
 1988SOL     OW 7723   0.198   1.536   0.592 -0.0374  0.3646 -0.2934
 1988SOL    HW2 7724   0.230   1.626   0.585 -0.7731  0.5413 -1.5544
 1988SOL    HW3 7725   0.103   1.545   0.603  0.1981 -0.1391  3.5985
 1988SOL    MW4 7726   0.190   1.549   0.593 -0.1034  0.3214  0.0537
 1989SOL     OW 7727   3.427   4.306   5.468  0.3211 -1.0482  0.0342
 1989SOL    HW2 7728   3.461   4.391   5.497 -0.2861 -1.0696  0.8609
 1989SOL    HW3 7729   3.440   4.306   5.374  0.9514 -0.3188  0.1040
 1989SOL    MW4 7730   3.434   4.318   5.460  0.3242 -0.9548  0.1525
 1990SOL     OW 7731   2.610   3.927   1.748  0.3888  0.9937  0.2987
 1990SOL    HW2 7732   2.665   3.989   1.701 -1.1071  1.3022 -1.1910
 1990SOL    HW3 7733   2.664   3.848   1.757  1.5962  1.8093  0.3586
 1990SOL    MW4 7734   2.624   3.925   1.743  0.3508  1.1420  0.1101
 1991SOL     OW 7735   1.490   5.767   0.805  0.1789 -0.4483 -0.2247
 1991SOL    HW2 7736   1.499   5.719   0.723 -1.4547 -0.1929 -0.5913
 1991SOL    HW3 7737   1.450   5.704   0.866 -0.7874  0.0295 -0.3367
 1991SOL    MW4 7738   1.486   5.753   0.803 -0.1641 -0.3516 -0.2878
 1992SOL     OW 7739   2.766   6.418   0.473 -0.1362 -0.1007 -0.5565
 1992SOL    HW2 7740   2.754   6.325   0.495  1.9827 -0.0805  1.0058
 1992SOL    HW3 7741   2.708   6.433   0.399 -1.2542 -2.4321 -0.2437
 1992SOL    MW4 7742   2.757   6.408   0.466 -0.0042 -0.4057 -0.3091
 1993SOL     OW 7743   4.806   1.080   0.738 -0.0005 -0.1279  0.0227
 1993SOL    HW2 7744   4.845   1.091   0.824  0.4480  0.3177 -0.2243
 1993SOL    HW3 7745   4.879   1.096   0.677 -0.7589  1.7315 -0.4681
 1993SOL    MW4 7746   4.821   1.084   0.741 -0.0414  0.1762 -0.0747
 1994SOL     OW 7747   3.187   4.216   4.690  0.0061 -0.5961 -0.0037
 1994SOL    HW2 7748   3.191   4.283   4.758 -1.6627 -0.3929 -0.0681
 1994SOL    HW3 7749   3.272   4.171   4.696  0.8385  0.9638  0.5798
 1994SOL    MW4 7750   3.199   4.219   4.700 -0.1042 -0.3635  0.0648
 1995SOL     OW 7751   0.571   2.095   0.872  0.1439 -0.5220  0.5806
 1995SOL    HW2 7752   0.492   2.136   0.906 -1.0323 -0.6602 -1.8158
 1995SOL    HW3 7753   0.577   2.012   0.920 -0.9196 -0.3128  1.1065
 1995SOL    MW4 7754   0.561   2.089   0.883 -0.1516 -0.5126  0.3338
 1996SOL     OW 7755   4.980   3.622   5.579 -0.0133  0.2678 -0.0035
 1996SOL    HW2 7756   5.011   3.551   5.635  0.1681  0.7213  0.4797
 1996SOL    HW3 7757   4.982   3.585   5.490 -0.0329 -0.3636  0.2501
 1996SOL    MW4 7758   4.984   3.608   5.574  0.0080  0.2443  0.0937
 1997SOL     OW 7759   4.695   5.150   3.052 -0.3615  0.4695  0.4025
 1997SOL    HW2 7760   4.776   5.160   3.101 -0.4562  0.2507  0.6031
 1997SOL    HW3 7761   4.693   5.058   3.027  0.9220  1.0517 -2.1649
 1997SOL    MW4 7762   4.705   5.140   3.055 -0.2047  0.5175  0.0902
 1998SOL     OW 7763   4.024   1.654   5.352  0.4778  0.0211 -0.4622
 1998SOL    HW2 7764   4.094   1.718   5.341 -0.3363  1.0019 -0.1554
 1998SOL    HW3 7765   4.062   1.587   5.409  0.6103  1.5005  1.3188
 1998SOL    MW4 7766   4.038   1.654   5.358  0.3879  0.3457 -0.1867
 1999SOL     OW 7767   4.621   0.752   2.884 -0.2128  0.0694 -0.5996
 1999SOL    HW2 7768   4.542   0.739   2.832 -0.7803  3.8244 -0.9248
 1999SOL    HW3 7769   4.634   0.668   2.929 -3.9889 -0.9138 -1.0041
 1999SOL    MW4 7770   4.612   0.739   2.883 -0.7859  0.4351 -0.6958
 2000SOL     OW 7771   5.326   5.487   1.172 -0.4477  0.4238  0.2170
 2000SOL    HW2 7772   5.240   5.529   1.165  0.4077  1.8692 -3.2229
 2000SOL    HW3 7773   5.379   5.550   1.221 -0.3278  1.3921 -1.1242
 2000SOL    MW4 7774   5.322   5.501   1.178 -0.3190  0.7423 -0.4138
 2001SOL     OW 7775   0.509   3.183   4.816 -0.3087  0.5882  0.4824
 2001SOL    HW2 7776   0.505   3.268   4.858  1.2889  0.5886  0.6775
 2001SOL    HW3 7777   0.581   3.189   4.754 -2.5097  0.5666 -2.2939
 2001SOL    MW4 7778   0.518   3.195   4.813 -0.3883  0.5854  0.1418
 2002SOL     OW 7779   0.489   6.376   2.912 -0.0883  0.2383  0.1959
 2002SOL    HW2 7780   0.539   6.401   2.989 -0.6567  0.2975  0.5522
 2002SOL    HW3 7781   0.523   6.432   2.842 -0.8824  1.5736  0.8315
 2002SOL    MW4 7782   0.500   6.387   2.913 -0.2680  0.4223  0.3267
 2003SOL     OW 7783   5.726   0.476   5.497  0.3236 -0.4377  0.1879
 2003SOL    HW2 7784   5.806   0.464   5.549 -0.3225  0.5105  1.4822
 2003SOL    HW3 7785   5.700   0.387   5.472 -0.4028 -1.2420  3.2573
 2003SOL    MW4 7786   5.733   0.463   5.501  0.1425 -0.4187  0.7637
 2004SOL     OW 7787   2.668   4.608   5.181 -1.2191 -0.3359  0.8094
 2004SOL    HW2 7788   2.727   4.533   5.174 -0.8796  0.0391 -0.6424
 2004SOL    HW3 7789   2.658   4.622   5.275  0.7552 -0.6072  1.1005
 2004SOL    MW4 7790   2.675   4.600   5.192 -0.9138 -0.3222  0.6563
 2005SOL     OW 7791   1.927   5.645   5.620 -0.2199 -0.0966  0.0769
 2005SOL    HW2 7792   1.916   5.581   5.690 -1.8197 -0.2289 -0.2576
 2005SOL    HW3 7793   1.917   5.594   5.540  2.2185 -0.0684 -0.3262
 2005SOL    MW4 7794   1.925   5.630   5.619 -0.1092 -0.1103 -0.0204
 2006SOL     OW 7795   2.380   2.365   4.091 -0.5084 -0.1308  0.2411
 2006SOL    HW2 7796   2.350   2.414   4.168 -0.5045  0.4791 -0.1391
 2006SOL    HW3 7797   2.450   2.420   4.054 -0.8365 -0.1859 -0.4700
 2006SOL    MW4 7798   2.385   2.379   4.097 -0.5512 -0.0576  0.0971
 2007SOL     OW 7799   5.180   2.140   2.048 -0.0426 -0.2162  0.5608
 2007SOL    HW2 7800   5.161   2.121   1.956 -1.3468  0.0196  0.7601
 2007SOL    HW3 7801   5.229   2.064   2.078  0.8116 -0.0843 -0.4446
 2007SOL    MW4 7802   5.184   2.128   2.040 -0.1020 -0.1677  0.4545
 2008SOL     OW 7803   2.535   3.295   4.844  0.5600  0.2812 -0.0571
 2008SOL    HW2 7804   2.603   3.297   4.776  0.5324  1.2601 -0.0638
 2008SOL    HW3 7805   2.453   3.288   4.796  0.2799  3.8778 -0.3720
 2008SOL    MW4 7806   2.533   3.294   4.829  0.5194  0.8849 -0.0995
 2009SOL     OW 7807   6.015   0.179   1.984 -0.4618  0.3814 -0.3884
 2009SOL    HW2 7808   6.050   0.169   2.073 -1.0221 -0.6635 -0.2779
 2009SOL    HW3 7809   6.057   0.259   1.951 -1.4423  1.6792  1.3808
 2009SOL    MW4 7810   6.025   0.188   1.991 -0.6651  0.4148 -0.1404
 2010SOL     OW 7811   3.056   4.208   0.758  0.1000  0.1865  0.2763
 2010SOL    HW2 7812   3.084   4.296   0.733  2.4581 -0.4413  0.4498
 2010SOL    HW3 7813   3.061   4.158   0.676 -0.4996  0.0397  0.3276
 2010SOL    MW4 7814   3.061   4.213   0.744  0.3320  0.0843  0.3060
 2011SOL     OW 7815   5.733   4.847   6.279 -0.4115 -0.1904  0.1812
 2011SOL    HW2 7816   5.649   4.803   6.289 -0.1561 -0.5704  0.7002
 2011SOL    HW3 7817   5.750   4.884   6.366 -2.1028  3.6723 -0.8912
 2011SOL    MW4 7818   5.724   4.846   6.292 -0.6009  0.2691  0.1082
 2012SOL     OW 7819   5.392   5.633   4.274  0.6512 -0.4312 -0.0987
 2012SOL    HW2 7820   5.372   5.683   4.195 -0.1052 -2.5651 -1.3378
 2012SOL    HW3 7821   5.457   5.569   4.246 -0.1830 -1.7227  0.8003
 2012SOL    MW4 7822   5.398   5.631   4.260  0.4413 -0.8832 -0.1436
 2013SOL     OW 7823   2.893   6.040   1.286  0.0965 -0.3689 -0.5444
 2013SOL    HW2 7824   2.971   6.002   1.326  0.7780  0.3666 -1.1339
 2013SOL    HW3 7825   2.854   5.967   1.237 -0.4005 -1.1063  0.9051
 2013SOL    MW4 7826   2.898   6.025   1.285  0.1208 -0.3692 -0.4309
 2014SOL     OW 7827   1.485   2.995   6.163  0.0043  0.4951 -0.0222
 2014SOL    HW2 7828   1.533   3.076   6.145 -0.3238  0.3581 -1.6919
 2014SOL    HW3 7829   1.552   2.930   6.182  0.4182  0.6361 -0.9403
 2014SOL    MW4 7830   1.500   2.997   6.163  0.0156  0.4956 -0.3636
 2015SOL     OW 7831   4.153   0.637   1.263 -0.1862  0.3196 -0.5028
 2015SOL    HW2 7832   4.158   0.727   1.234  0.4381  0.1568 -0.9078
 2015SOL    HW3 7833   4.236   0.598   1.236 -1.5317 -1.1276 -2.8458
 2015SOL    MW4 7834   4.165   0.643   1.256 -0.2813  0.1072 -0.8653
 2016SOL     OW 7835   0.196   0.934   4.381 -0.5956 -0.2856  0.4964
 2016SOL    HW2 7836   0.243   0.865   4.427 -1.1305 -1.3949 -0.5480
 2016SOL    HW3 7837   0.265   0.986   4.340 -0.1967 -0.6349  0.7054
 2016SOL    MW4 7838   0.211   0.931   4.382 -0.6136 -0.4780  0.3862
 2017SOL     OW 7839   2.639   2.814   4.187 -0.3100 -0.0294  0.8791
 2017SOL    HW2 7840   2.607   2.825   4.098  1.8559 -2.0755 -0.2678
 2017SOL    HW3 7841   2.560   2.808   4.241 -1.6774  0.5672 -0.9808
 2017SOL    MW4 7842   2.625   2.815   4.183 -0.2047 -0.2207  0.4824
 2018SOL     OW 7843   2.175   2.046   0.828  0.9666  0.1410 -0.6251
 2018SOL    HW2 7844   2.107   2.076   0.888  0.9492 -0.5761 -0.2767
 2018SOL    HW3 7845   2.195   2.122   0.773  1.2569  0.9199  0.5393
 2018SOL    MW4 7846   2.169   2.060   0.828  1.0026  0.1492 -0.4255
 2019SOL     OW 7847   3.211   3.931   4.998  0.4839 -0.2203 -0.5883
 2019SOL    HW2 7848   3.231   3.901   5.087  1.1189 -1.3779 -1.1099
 2019SOL    HW3 7849   3.276   3.889   4.942 -0.1117  0.2316 -1.6586
 2019SOL    MW4 7850   3.222   3.922   5.002  0.4891 -0.3134 -0.7984
 2020SOL     OW 7851   1.888   4.406   5.189  0.3006  0.0412  0.2507
 2020SOL    HW2 7852   1.804   4.363   5.172  0.3387  0.7665 -2.2196
 2020SOL    HW3 7853   1.950   4.361   5.131  1.1824  0.7953  0.5849
 2020SOL    MW4 7854   1.885   4.394   5.179  0.4220  0.2364 -0.0311
 2021SOL     OW 7855   6.201   2.991   0.083 -0.2407 -0.7241 -0.1733
 2021SOL    HW2 7856   6.249   2.989  -0.000 -0.0162  1.1942 -0.1383
 2021SOL    HW3 7857   6.265   3.022   0.147 -0.7614 -0.9130  0.4448
 2021SOL    MW4 7858   6.216   2.995   0.080 -0.2798 -0.4959 -0.0871
 2022SOL     OW 7859   1.082   2.374   5.777 -0.2354 -0.1143 -0.6229
 2022SOL    HW2 7860   1.008   2.332   5.819  0.3089 -0.4923 -0.0157
 2022SOL    HW3 7861   1.102   2.449   5.834  1.3833 -1.4200  0.6410
 2022SOL    MW4 7862   1.075   2.379   5.790  0.0500 -0.3365 -0.3761
 2023SOL     OW 7863   5.013   2.628   3.605  0.3938  0.6644 -0.2719
 2023SOL    HW2 7864   5.033   2.534   3.600  0.3295  0.4938  1.8217
 2023SOL    HW3 7865   5.039   2.662   3.519  0.6927 -1.1966 -0.9863
 2023SOL    MW4 7866   5.019   2.620   3.593  0.4248  0.3964 -0.0899
 2024SOL     OW 7867   5.720   4.308   5.786 -0.1871 -0.4801  0.1616
 2024SOL    HW2 7868   5.656   4.238   5.797 -0.9917  0.1627 -0.3116
 2024SOL    HW3 7869   5.687   4.379   5.840 -1.1990  0.7106 -1.9033
 2024SOL    MW4 7870   5.707   4.308   5.794 -0.4268 -0.2382 -0.1733
 2025SOL     OW 7871   2.746   4.887   2.721  0.5492  0.2649 -0.1773
 2025SOL    HW2 7872   2.732   4.899   2.815  1.5667  2.7577 -0.2505
 2025SOL    HW3 7873   2.831   4.844   2.715  0.6420  0.4109  0.0647
 2025SOL    MW4 7874   2.756   4.883   2.733  0.6957  0.6130 -0.1550
 2026SOL     OW 7875   4.789   5.973   4.088  0.3739 -0.4022  0.1217
 2026SOL    HW2 7876   4.711   5.944   4.135 -0.1809  0.9090  0.0544
 2026SOL    HW3 7877   4.852   5.992   4.158  0.4934 -1.0625  0.1970
 2026SOL    MW4 7878   4.787   5.972   4.104  0.3165 -0.3163  0.1227
 2027SOL     OW 7879   3.341   0.873   1.951 -0.3079 -0.0437 -0.5375
 2027SOL    HW2 7880   3.364   0.781   1.963 -1.7282 -0.3793 -0.1818
 2027SOL    HW3 7881   3.414   0.910   1.902 -0.0122 -1.5185 -1.2742
 2027SOL    MW4 7882   3.353   0.866   1.946 -0.4563 -0.2825 -0.5878
 2028SOL     OW 7883   2.599   5.597   6.161  0.0282  0.2133  0.6271
 2028SOL    HW2 7884   2.666   5.632   6.102 -0.4321 -0.2681 -0.2140
 2028SOL    HW3 7885   2.516   5.627   6.123 -0.2328  2.1124  2.5018
 2028SOL    MW4 7886   2.597   5.606   6.148 -0.0670  0.4004  0.7634
 2029SOL     OW 7887   0.741   1.297   0.944 -0.0265  0.4746 -0.3330
 2029SOL    HW2 7888   0.692   1.242   1.005 -0.6165  0.0327 -1.1703
 2029SOL    HW3 7889   0.830   1.264   0.947 -0.4249 -0.7394 -1.0181
 2029SOL    MW4 7890   0.746   1.286   0.952 -0.1569  0.2561 -0.5339
 2030SOL     OW 7891   0.407   1.064   5.943 -0.1689 -0.3655  0.3273
 2030SOL    HW2 7892   0.474   1.130   5.927 -0.6134  0.4136  1.5789
 2030SOL    HW3 7893   0.368   1.049   5.856  0.5778  0.3009 -0.1405
 2030SOL    MW4 7894   0.410   1.071   5.929 -0.1290 -0.1748  0.4307
 2031SOL     OW 7895   6.393   2.555   4.571 -0.0240  0.1960 -0.1318
 2031SOL    HW2 7896   6.440   2.615   4.630 -1.3808  1.7893 -0.6046
 2031SOL    HW3 7897   6.345   2.613   4.512 -1.0255 -1.3820 -0.9104
 2031SOL    MW4 7898   6.393   2.571   4.571 -0.3352  0.1980 -0.2969
 2032SOL     OW 7899   5.676   2.045   0.287  0.4813 -0.1989  0.6634
 2032SOL    HW2 7900   5.681   1.949   0.281  0.1463 -0.2141  0.5906
 2032SOL    HW3 7901   5.680   2.064   0.380 -0.2573 -0.3353  0.7278
 2032SOL    MW4 7902   5.677   2.035   0.298  0.3396 -0.2189  0.6623
 2033SOL     OW 7903   2.474   5.082   6.299  0.0635  0.2832  0.2891
 2033SOL    HW2 7904   2.466   5.166   6.345  0.1589 -0.1329  1.0701
 2033SOL    HW3 7905   2.418   5.022   6.347  1.5439 -0.6120  0.9679
 2033SOL    MW4 7906   2.466   5.085   6.311  0.2714  0.1102  0.4817
 2034SOL     OW 7907   0.491   1.809   0.305 -0.2662 -0.4339 -0.1015
 2034SOL    HW2 7908   0.539   1.755   0.241 -0.1708 -1.0403  0.4685
 2034SOL    HW3 7909   0.559   1.846   0.361 -0.3820 -0.3044 -0.0472
 2034SOL    MW4 7910   0.507   1.806   0.304 -0.2689 -0.4968 -0.0191
 2035SOL     OW 7911   3.342   2.585   5.827  0.2885  0.0731  0.2987
 2035SOL    HW2 7912   3.364   2.678   5.827 -1.3383  0.4800 -0.5761
 2035SOL    HW3 7913   3.266   2.578   5.884 -0.2558 -0.5431 -0.4870
 2035SOL    MW4 7914   3.335   2.596   5.835  0.0021  0.0455  0.0796
 2036SOL     OW 7915   2.223   6.157   4.188 -0.0719 -1.0430  0.8910
 2036SOL    HW2 7916   2.249   6.248   4.203 -1.9841 -0.1605 -0.7069
 2036SOL    HW3 7917   2.164   6.137   4.261  0.1048 -0.9017  1.0758
 2036SOL    MW4 7918   2.219   6.167   4.200 -0.3009 -0.9079  0.7045
 2037SOL     OW 7919   2.350   3.678   1.156  0.2715  0.1531 -0.4619
 2037SOL    HW2 7920   2.417   3.698   1.090  0.7337  0.4543  0.0879
 2037SOL    HW3 7921   2.304   3.760   1.169 -0.0522  0.0052 -0.6631
 2037SOL    MW4 7922   2.353   3.691   1.149  0.2898  0.1733 -0.4159
 2038SOL     OW 7923   5.757   1.057   3.135 -0.0688  0.7113 -0.1811
 2038SOL    HW2 7924   5.764   1.065   3.230  0.3187 -0.9090 -0.0476
 2038SOL    HW3 7925   5.670   1.089   3.114 -0.1796  1.0257  0.7149
 2038SOL    MW4 7926   5.747   1.063   3.144 -0.0323  0.5390 -0.0453
 2039SOL     OW 7927   4.128   0.939   0.316  0.5447 -0.6102  0.2442
 2039SOL    HW2 7928   4.196   0.871   0.313  0.2975 -1.0792  3.0457
 2039SOL    HW3 7929   4.159   1.005   0.254  2.3413 -1.8885 -0.3289
 2039SOL    MW4 7930   4.141   0.938   0.307  0.7491 -0.8408  0.5382
 2040SOL     OW 7931   2.308   6.029   1.573  0.6088  0.2705 -0.0174
 2040SOL    HW2 7932   2.221   6.059   1.544 -0.1905  0.6267  2.4662
 2040SOL    HW3 7933   2.360   6.026   1.493 -0.6102  3.7705 -1.1615
 2040SOL    MW4 7934   2.303   6.033   1.559  0.3425  0.7793  0.1594
 2041SOL     OW 7935   1.287   0.153   4.400 -0.4342 -0.3576  0.0598
 2041SOL    HW2 7936   1.250   0.175   4.486 -0.9185 -0.8026 -0.0331
 2041SOL    HW3 7937   1.377   0.186   4.404 -0.5720 -0.0339  0.5983
 2041SOL    MW4 7938   1.294   0.160   4.412 -0.5163 -0.3736  0.1186
 2042SOL     OW 7939   3.149   2.240   2.951  0.6215 -0.1703 -0.3299
 2042SOL    HW2 7940   3.098   2.244   3.033  0.3429 -1.2060 -0.4349
 2042SOL    HW3 7941   3.173   2.331   2.934 -1.4211  0.4215 -0.4079
 2042SOL    MW4 7942   3.145   2.253   2.960  0.3153 -0.2289 -0.3540
 2043SOL     OW 7943   4.771   4.578   2.322 -0.2234  0.9195 -0.3068
 2043SOL    HW2 7944   4.779   4.491   2.361  1.6307  0.4540 -1.5924
 2043SOL    HW3 7945   4.745   4.562   2.231 -0.2010  1.7215 -0.4652
 2043SOL    MW4 7946   4.768   4.565   2.315  0.0242  0.9639 -0.4973
 2044SOL     OW 7947   2.865   4.521   4.558  0.2622 -0.2391 -0.3371
 2044SOL    HW2 7948   2.958   4.534   4.575  0.5286 -1.5012 -0.7425
 2044SOL    HW3 7949   2.839   4.596   4.505  0.8540  0.5296  0.4366
 2044SOL    MW4 7950   2.874   4.533   4.554  0.3754 -0.3042 -0.2885
 2045SOL     OW 7951   0.822   3.356   6.063  0.4996  0.3210  0.0863
 2045SOL    HW2 7952   0.768   3.301   6.006 -1.0814  0.0853  1.7183
 2045SOL    HW3 7953   0.849   3.298   6.134  0.9520  1.0322  0.5104
 2045SOL    MW4 7954   0.819   3.341   6.065  0.3507  0.3838  0.3576
 2046SOL     OW 7955   5.780   0.061   1.311  0.0442 -0.1280 -0.1173
 2046SOL    HW2 7956   5.720   0.005   1.360 -0.0227 -1.5664 -1.7588
 2046SOL    HW3 7957   5.810   0.126   1.375 -2.4924  0.0620  0.9811
 2046SOL    MW4 7958   5.776   0.062   1.326 -0.2993 -0.2927 -0.1890
 2047SOL     OW 7959   5.502   3.739   4.799  0.9439 -0.2252  0.1215
 2047SOL    HW2 7960   5.434   3.720   4.864  0.1829  2.2239  0.1778
 2047SOL    HW3 7961   5.499   3.666   4.738  0.1179 -1.4830  1.6053
 2047SOL    MW4 7962   5.492   3.727   4.800  0.7345 -0.0680  0.3247
 2048SOL     OW 7963   0.371   1.119   1.437  0.4173 -0.1067  0.5145
 2048SOL    HW2 7964   0.452   1.141   1.482  1.9079  0.9434 -2.4619
 2048SOL    HW3 7965   0.398   1.066   1.362 -1.6381  0.2842 -0.5819
 2048SOL    MW4 7966   0.385   1.115   1.433  0.3428  0.0834 -0.0229
 2049SOL     OW 7967   0.471   5.982   5.043  0.0068  0.2362 -0.3231
 2049SOL    HW2 7968   0.536   5.998   4.975  2.1015  1.8225  1.8899
 2049SOL    HW3 7969   0.435   6.069   5.062 -1.4317 -0.3559 -0.2042
 2049SOL    MW4 7970   0.475   5.996   5.037  0.0934  0.3674 -0.0154
 2050SOL     OW 7971   1.215   3.256   2.419 -0.0018 -0.1896 -0.5699
 2050SOL    HW2 7972   1.208   3.342   2.376  0.2466  0.7260  1.1115
 2050SOL    HW3 7973   1.127   3.219   2.412 -0.7302  1.2081  0.6038
 2050SOL    MW4 7974   1.203   3.263   2.412 -0.0651  0.1156 -0.1932
 2051SOL     OW 7975   5.874   5.682   5.666  0.2236  0.3441  0.5018
 2051SOL    HW2 7976   5.793   5.733   5.664 -0.2038 -0.2545  1.5747
 2051SOL    HW3 7977   5.939   5.743   5.701  0.3141  0.9108 -0.6198
 2051SOL    MW4 7978   5.872   5.697   5.670  0.1792  0.3399  0.4953
 2052SOL     OW 7979   0.153   5.929   2.491  0.2356  0.0033 -0.4071
 2052SOL    HW2 7980   0.059   5.941   2.499  0.5901  2.1160  1.2889
 2052SOL    HW3 7981   0.172   5.852   2.545 -0.2846  0.7609  0.8801
 2052SOL    MW4 7982   0.143   5.920   2.499  0.2137  0.3820 -0.0135
 2053SOL     OW 7983   3.462   1.494   5.240 -0.2798 -0.1848 -0.0611
 2053SOL    HW2 7984   3.396   1.444   5.288 -0.1775 -0.2771 -0.0157
 2053SOL    HW3 7985   3.414   1.533   5.167 -1.0478  2.2061  1.6065
 2053SOL    MW4 7986   3.447   1.493   5.236 -0.3677  0.1185  0.1649
 2054SOL     OW 7987   3.494   6.330   5.582  0.0701  0.2953 -0.0281
 2054SOL    HW2 7988   3.542   6.372   5.511  0.1935  1.0441  0.4867
 2054SOL    HW3 7989   3.464   6.247   5.545  1.4578 -0.0355 -0.4646
 2054SOL    MW4 7990   3.496   6.325   5.568  0.2695  0.3505 -0.0178
 2055SOL     OW 7991   3.125   2.913   5.153 -0.5121  0.3812 -0.1404
 2055SOL    HW2 7992   3.080   2.982   5.104 -0.1599  1.2562  0.7426
 2055SOL    HW3 7993   3.194   2.883   5.094  0.9031  2.4982  0.3459
 2055SOL    MW4 7994   3.128   2.918   5.139 -0.2789  0.7760  0.0403
 2056SOL     OW 7995   3.335   0.006   4.188 -0.2138 -0.0857  0.0141
 2056SOL    HW2 7996   3.365   0.088   4.149  0.5599 -0.5170 -0.3250
 2056SOL    HW3 7997   3.304  -0.046   4.114  0.4247 -0.5642  0.0781
 2056SOL    MW4 7998   3.335   0.010   4.173 -0.0275 -0.2057 -0.0222
 2057SOL     OW 7999   6.199   3.932   2.469 -0.2074  0.4008 -0.2004
 2057SOL    HW2 8000   6.104   3.930   2.479 -0.4253  1.7791 -1.6288
 2057SOL    HW3 8001   6.233   3.889   2.548 -1.9895  0.3702  0.5827
 2057SOL    MW4 8002   6.191   3.926   2.481 -0.4712  0.5786 -0.2856
 2058SOL     OW 8003   0.257   0.392   5.007  0.8422 -0.3058 -0.1188
 2058SOL    HW2 8004   0.170   0.425   4.983  1.1970  1.2923  0.6598
 2058SOL    HW3 8005   0.258   0.301   4.976 -0.4364  0.2017 -1.7729
 2058SOL    MW4 8006   0.246   0.384   5.000  0.7203 -0.0280 -0.2343
 2059SOL     OW 8007   5.127   2.687   1.925 -0.4720 -0.1285  0.3960
 2059SOL    HW2 8008   5.051   2.664   1.977 -0.4545 -1.3439 -0.0824
 2059SOL    HW3 8009   5.096   2.755   1.865 -0.7050  0.6601  1.3962
 2059SOL    MW4 8010   5.113   2.693   1.924 -0.5004 -0.1848  0.4649
 2060SOL     OW 8011   0.839   5.361   2.820  0.0131  0.3041 -0.1065
 2060SOL    HW2 8012   0.879   5.350   2.906  0.7952  0.8258 -0.3956
 2060SOL    HW3 8013   0.885   5.300   2.763 -0.6202 -0.1646 -0.1224
 2060SOL    MW4 8014   0.850   5.352   2.824  0.0328  0.3111 -0.1467
 2061SOL     OW 8015   6.183   1.980   3.183  0.1883  0.2106  0.4046
 2061SOL    HW2 8016   6.259   2.038   3.181  0.1261  0.2720 -0.8237
 2061SOL    HW3 8017   6.122   2.019   3.120 -0.1186 -0.8311  0.0506
 2061SOL    MW4 8018   6.185   1.993   3.174  0.1396  0.0813  0.1958
 2062SOL     OW 8019   0.377   2.887   1.253 -0.4788 -0.5323 -0.8372
 2062SOL    HW2 8020   0.359   2.977   1.281  0.6921 -0.9339  1.4795
 2062SOL    HW3 8021   0.306   2.836   1.291 -0.9012 -0.6647 -1.7808
 2062SOL    MW4 8022   0.366   2.892   1.262 -0.3800 -0.6027 -0.6560
 2063SOL     OW 8023   5.741   2.701   4.767 -0.3288 -0.6397 -0.1788
 2063SOL    HW2 8024   5.822   2.740   4.734 -2.2727  3.5944 -0.7098
 2063SOL    HW3 8025   5.692   2.678   4.689 -0.7392 -0.5250  0.0430
 2063SOL    MW4 8026   5.745   2.703   4.753 -0.6394 -0.0659 -0.2196
 2064SOL     OW 8027   0.572   1.014   1.817 -0.7783  0.1807  0.6251
 2064SOL    HW2 8028   0.534   0.931   1.847  0.1961  0.2338  2.1378
 2064SOL    HW3 8029   0.597   0.997   1.726 -1.2290 -0.9633  0.6991
 2064SOL    MW4 8030   0.571   1.001   1.809 -0.7092  0.0368  0.8345
 2065SOL     OW 8031   3.626   0.473   0.448  0.0371 -0.2782  0.0225
 2065SOL    HW2 8032   3.557   0.487   0.513 -0.6153 -0.6650 -0.5699
 2065SOL    HW3 8033   3.687   0.545   0.461  0.1178 -0.5598  1.3183
 2065SOL    MW4 8034   3.625   0.484   0.458 -0.0383 -0.3664  0.1153
 2066SOL     OW 8035   2.354   5.873   0.721 -0.0017  0.5421  0.0783
 2066SOL    HW2 8036   2.327   5.789   0.683  0.8772  0.5691 -0.6312
 2066SOL    HW3 8037   2.325   5.939   0.657  0.0551  0.7151  0.2280
 2066SOL    MW4 8038   2.346   5.871   0.707  0.1218  0.5685  0.0044
 2067SOL     OW 8039   1.268   2.233   6.310  0.1517  0.0489  0.3392
 2067SOL    HW2 8040   1.198   2.221   6.376 -0.6108  0.2897 -0.4120
 2067SOL    HW3 8041   1.346   2.195   6.352 -0.6773 -1.2870  0.7523
 2067SOL    MW4 8042   1.269   2.226   6.324 -0.0583 -0.0956  0.2946
 2068SOL     OW 8043   2.338   4.579   5.966  0.0730 -0.0087  0.1446
 2068SOL    HW2 8044   2.265   4.527   5.999  0.3949 -0.5952 -0.0454
 2068SOL    HW3 8045   2.334   4.569   5.871  2.1556 -2.5980  0.1817
 2068SOL    MW4 8046   2.328   4.570   5.958  0.3903 -0.4277  0.1244
 2069SOL     OW 8047   3.794   5.957   4.868  0.1660  0.1673 -0.4094
 2069SOL    HW2 8048   3.864   5.923   4.812  0.2125 -0.5561  0.0793
 2069SOL    HW3 8049   3.724   5.893   4.861  0.4958 -0.3713  1.0147
 2069SOL    MW4 8050   3.794   5.944   4.860  0.2156  0.0008 -0.1570
 2070SOL     OW 8051   6.034   0.113   2.257 -0.0720  0.0817  0.4601
 2070SOL    HW2 8052   5.944   0.111   2.226 -0.0595  0.9863  0.3560
 2070SOL    HW3 8053   6.041   0.194   2.307  0.6033 -0.1264  0.7192
 2070SOL    MW4 8054   6.023   0.123   2.260  0.0188  0.1736  0.4805
 2071SOL     OW 8055   1.867   2.833   0.690 -0.1709  0.1886  0.0279
 2071SOL    HW2 8056   1.792   2.776   0.708  0.1062 -0.0016  0.5881
 2071SOL    HW3 8057   1.873   2.889   0.767 -0.5791  1.1442 -0.6151
 2071SOL    MW4 8058   1.858   2.833   0.702 -0.1882  0.2896  0.0170
 2072SOL     OW 8059   2.471   3.511   0.662 -0.7811  0.1555 -0.1349
 2072SOL    HW2 8060   2.531   3.581   0.637 -1.2505  0.9613  0.9104
 2072SOL    HW3 8061   2.506   3.477   0.744 -1.1225 -0.1455 -0.1101
 2072SOL    MW4 8062   2.484   3.515   0.670 -0.8881  0.2221  0.0063
 2073SOL     OW 8063   0.492   0.951   0.061  0.2234 -0.1646  0.2127
 2073SOL    HW2 8064   0.570   0.942   0.116  1.2190 -2.7031 -1.3976
 2073SOL    HW3 8065   0.525   0.990  -0.020 -0.6841  0.9599  0.3640
 2073SOL    MW4 8066   0.507   0.955   0.057  0.2350 -0.3511  0.0202
 2074SOL     OW 8067   2.436   5.262   5.324  0.3038  0.1868  0.7319
 2074SOL    HW2 8068   2.508   5.315   5.292  1.8655 -1.2696  1.6614
 2074SOL    HW3 8069   2.477   5.183   5.358 -1.8131 -1.0947  0.5242
 2074SOL    MW4 8070   2.451   5.258   5.324  0.2306 -0.1744  0.8271
 2075SOL     OW 8071   4.506   1.710   4.759  0.1443  0.3162 -0.0488
 2075SOL    HW2 8072   4.414   1.686   4.746  0.6332 -0.8027 -1.8512
 2075SOL    HW3 8073   4.507   1.805   4.751 -0.8851  0.3841  0.3612
 2075SOL    MW4 8074   4.494   1.720   4.756  0.0730  0.1776 -0.2325
 2076SOL     OW 8075   0.060   4.889   5.476  0.4887  0.3246  0.4164
 2076SOL    HW2 8076   0.075   4.984   5.483  0.7346  0.5957 -2.5755
 2076SOL    HW3 8077  -0.035   4.880   5.474  0.4409  0.8242 -1.7186
 2076SOL    MW4 8078   0.049   4.900   5.477  0.5148  0.4263 -0.2600
 2077SOL     OW 8079   0.742   5.866   2.421  0.4306 -0.2543 -0.0151
 2077SOL    HW2 8080   0.732   5.878   2.327  0.2333  0.3463  0.0810
 2077SOL    HW3 8081   0.753   5.954   2.456  2.0991 -0.5796  0.3494
 2077SOL    MW4 8082   0.742   5.879   2.414  0.6247 -0.2180  0.0457
 2078SOL     OW 8083   1.607   2.520   1.904  0.2789  0.1451  0.5422
 2078SOL    HW2 8084   1.698   2.520   1.933  0.6756  2.5788 -0.4331
 2078SOL    HW3 8085   1.586   2.613   1.890 -2.5418 -0.2943  1.2516
 2078SOL    MW4 8086   1.616   2.533   1.906 -0.0409  0.4082  0.5071
 2079SOL     OW 8087   4.571   0.736   0.901 -0.8829 -0.3172 -0.0406
 2079SOL    HW2 8088   4.620   0.736   0.820 -0.3262 -1.5288  0.2820
 2079SOL    HW3 8089   4.506   0.806   0.889  0.8527  1.3213 -0.4768
 2079SOL    MW4 8090   4.569   0.746   0.889 -0.5805 -0.2609 -0.0556
 2080SOL     OW 8091   2.275   4.551   5.698 -0.8541  0.1904  0.2969
 2080SOL    HW2 8092   2.280   4.629   5.643 -0.7299  0.3281  0.5026
 2080SOL    HW3 8093   2.282   4.478   5.637 -2.2473  0.3190 -0.0421
 2080SOL    MW4 8094   2.277   4.552   5.683 -1.0215  0.2256  0.2793
 2081SOL     OW 8095   0.400   3.766   4.313  0.4512 -0.2734  0.0968
 2081SOL    HW2 8096   0.421   3.824   4.387  0.4279  0.1275 -0.2109
 2081SOL    HW3 8097   0.445   3.805   4.238 -0.7438  0.1769 -0.4164
 2081SOL    MW4 8098   0.409   3.779   4.313  0.2905 -0.1611 -0.0115
 2082SOL     OW 8099   4.845   6.219   5.852  1.0448  0.0263 -0.3380
 2082SOL    HW2 8100   4.941   6.216   5.858  1.0634  0.3185 -0.5100
 2082SOL    HW3 8101   4.816   6.175   5.932  1.3226 -2.2993 -1.4197
 2082SOL    MW4 8102   4.854   6.213   5.864  1.0839 -0.2420 -0.5034
 2083SOL     OW 8103   5.398   3.294   6.340  0.0603  0.2428  0.0899
 2083SOL    HW2 8104   5.430   3.382   6.360  1.4475 -0.0848 -0.5620
 2083SOL    HW3 8105   5.476   3.246   6.310 -1.0352 -0.5882 -1.6056
 2083SOL    MW4 8106   5.413   3.299   6.339  0.0988  0.0899 -0.2198
 2084SOL     OW 8107   4.453   4.377   4.474  0.0003 -0.0390  0.0136
 2084SOL    HW2 8108   4.405   4.434   4.413 -0.3320  1.8293  1.8864
 2084SOL    HW3 8109   4.385   4.334   4.525  0.1492  1.8774  2.0202
 2084SOL    MW4 8110   4.438   4.379   4.473 -0.0239  0.4603  0.5254
 2085SOL     OW 8111   4.499   2.387   4.639  0.3406  0.4105 -0.0389
 2085SOL    HW2 8112   4.468   2.449   4.573 -0.3802  0.8624  0.7050
 2085SOL    HW3 8113   4.443   2.310   4.628  1.6081 -0.3762 -1.3444
 2085SOL    MW4 8114   4.488   2.385   4.629  0.4127  0.3663 -0.1130
 2086SOL     OW 8115   3.851   1.423   1.587  0.2250  0.6521 -0.4170
 2086SOL    HW2 8116   3.812   1.401   1.503 -1.0984  0.7038  0.1523
 2086SOL    HW3 8117   3.935   1.463   1.566  0.7455 -0.9794 -1.6344
 2086SOL    MW4 8118   3.857   1.425   1.573  0.1191  0.4437 -0.5025
 2087SOL     OW 8119   3.552   5.871   5.631  0.1519  0.3672 -0.3755
 2087SOL    HW2 8120   3.566   5.924   5.709  0.4356 -2.7793  1.9012
 2087SOL    HW3 8121   3.621   5.804   5.634 -1.2797 -1.2938 -1.9662
 2087SOL    MW4 8122   3.563   5.869   5.642  0.0005 -0.2671 -0.2850
 2088SOL     OW 8123   5.853   0.995   0.345 -0.2554  0.1710  0.0932
 2088SOL    HW2 8124   5.925   0.996   0.281 -1.1480 -0.0890 -0.9574
 2088SOL    HW3 8125   5.853   1.082   0.383  0.0744  0.4577 -0.5442
 2088SOL    MW4 8126   5.862   1.006   0.341 -0.3297  0.1746 -0.1295
 2089SOL     OW 8127   0.649   2.820   1.217 -0.3497  0.4297  0.1956
 2089SOL    HW2 8128   0.562   2.859   1.204 -0.8987 -0.9782 -0.6257
 2089SOL    HW3 8129   0.660   2.818   1.312 -2.2921 -1.4782  0.4842
 2089SOL    MW4 8130   0.639   2.825   1.228 -0.6784 -0.0078  0.1253
 2090SOL     OW 8131   3.940   2.907   4.316 -0.1413 -0.5172 -0.1714
 2090SOL    HW2 8132   3.993   2.853   4.257 -0.2025 -0.3747 -0.3603
 2090SOL    HW3 8133   3.975   2.996   4.304 -1.4906 -0.1172 -1.5610
 2090SOL    MW4 8134   3.952   2.912   4.306 -0.3274 -0.4456 -0.3797
 2091SOL     OW 8135   0.395   4.099   1.999 -0.4703  0.3561  0.1467
 2091SOL    HW2 8136   0.450   4.096   1.921  1.1648  1.1657  1.2029
 2091SOL    HW3 8137   0.306   4.088   1.967  0.0390  1.9037 -1.9850
 2091SOL    MW4 8138   0.391   4.097   1.985 -0.1873  0.6671  0.0048
 2092SOL     OW 8139   3.127   0.515   0.788 -0.2793 -0.1360 -0.2818
 2092SOL    HW2 8140   3.127   0.508   0.693  2.2699  1.0939 -0.4652
 2092SOL    HW3 8141   3.160   0.430   0.818 -0.3066 -0.2436 -0.5540
 2092SOL    MW4 8142   3.131   0.503   0.779  0.0535  0.0121 -0.3420
 2093SOL     OW 8143   6.324   5.987   0.827 -0.8477 -0.2022 -0.0141
 2093SOL    HW2 8144   6.312   5.920   0.759 -2.9718 -0.4962  0.5788
 2093SOL    HW3 8145   6.359   5.939   0.902  1.8931  0.1893 -0.9229
 2093SOL    MW4 8146   6.327   5.972   0.828 -0.7663 -0.1894 -0.0558
 2094SOL     OW 8147   4.568   0.179   3.820  0.5325 -0.1779 -0.1043
 2094SOL    HW2 8148   4.642   0.130   3.856 -0.6601 -0.6971  1.7415
 2094SOL    HW3 8149   4.495   0.161   3.879 -0.7346  1.4545 -1.0697
 2094SOL    MW4 8150   4.568   0.170   3.832  0.2080 -0.0310  0.0119
 2095SOL     OW 8151   5.210   1.528   0.669 -0.0343  0.2380  0.2251
 2095SOL    HW2 8152   5.283   1.484   0.625  1.2721  0.1907  2.3099
 2095SOL    HW3 8153   5.223   1.621   0.651 -0.3643  0.1183 -0.6732
 2095SOL    MW4 8154   5.221   1.535   0.661  0.0946  0.2160  0.3816
 2096SOL     OW 8155   1.897   5.465   0.444 -0.0829  0.2724 -0.0958
 2096SOL    HW2 8156   1.953   5.463   0.522  0.0396  0.7875 -0.1691
 2096SOL    HW3 8157   1.931   5.394   0.390  1.4742  1.4746 -0.7928
 2096SOL    MW4 8158   1.909   5.455   0.447  0.1387  0.4990 -0.1974
 2097SOL     OW 8159   0.804   1.805   5.126  0.2408  0.4175 -0.0962
 2097SOL    HW2 8160   0.776   1.839   5.041  0.0080  0.9357  0.1833
 2097SOL    HW3 8161   0.862   1.732   5.105 -0.1728  0.2525 -0.6996
 2097SOL    MW4 8162   0.808   1.800   5.112  0.1555  0.4641 -0.1389
 2098SOL     OW 8163   0.932   0.604   0.543  0.2803  0.5435 -0.0243
 2098SOL    HW2 8164   0.885   0.687   0.536  1.7256  1.5616  1.6647
 2098SOL    HW3 8165   1.002   0.621   0.606  0.6925 -1.9322  0.2781
 2098SOL    MW4 8166   0.935   0.617   0.550  0.5254  0.3512  0.2384
 2099SOL     OW 8167   3.150   1.736   4.595  0.3525  0.4504 -0.1784
 2099SOL    HW2 8168   3.090   1.771   4.529  0.0398  0.1248 -0.0739
 2099SOL    HW3 8169   3.217   1.690   4.546  0.7438  1.1498 -0.3165
 2099SOL    MW4 8170   3.151   1.735   4.580  0.3629  0.4997 -0.1828
 2100SOL     OW 8171   3.237   5.657   3.386 -0.1246  0.1797 -0.0408
 2100SOL    HW2 8172   3.287   5.576   3.393  3.5249  2.1527 -0.9493
 2100SOL    HW3 8173   3.267   5.697   3.304 -4.0585  1.1344 -1.2326
 2100SOL    MW4 8174   3.247   5.652   3.376 -0.1621  0.5660 -0.3179
 2101SOL     OW 8175   3.759   5.708   4.321  0.1917 -0.4044  0.3841
 2101SOL    HW2 8176   3.849   5.676   4.334 -0.3965 -1.1653  3.3051
 2101SOL    HW3 8177   3.712   5.634   4.283 -0.1140 -1.5572  2.8503
 2101SOL    MW4 8178   3.765   5.694   4.318  0.0738 -0.6569  1.0949
 2102SOL     OW 8179   3.082   2.590   0.116  0.2814 -0.3473 -0.1477
 2102SOL    HW2 8180   2.991   2.561   0.112  0.5730 -1.3073 -0.1812
 2102SOL    HW3 8181   3.096   2.610   0.209  0.7698 -2.8005  0.3763
 2102SOL    MW4 8182   3.072   2.589   0.128  0.3843 -0.7976 -0.0830
 2103SOL     OW 8183   4.867   2.298   3.819 -1.0617 -0.3089  0.0559
 2103SOL    HW2 8184   4.942   2.308   3.878 -1.8486  0.2039  0.9919
 2103SOL    HW3 8185   4.894   2.228   3.759  0.4465  0.3620 -0.0962
 2103SOL    MW4 8186   4.881   2.290   3.819 -0.9666 -0.1527  0.1593
 2104SOL     OW 8187   3.919   2.602   1.924 -0.3250 -0.5584 -0.1259
 2104SOL    HW2 8188   3.960   2.537   1.866 -1.0011 -0.3504 -0.8616
 2104SOL    HW3 8189   3.860   2.651   1.866 -0.0892  0.4764  0.4922
 2104SOL    MW4 8190   3.916   2.600   1.908 -0.3831 -0.3944 -0.1414
 2105SOL     OW 8191   3.730   4.028   1.519 -0.1572  0.0413  0.2482
 2105SOL    HW2 8192   3.674   4.077   1.580 -0.4660  2.0694 -1.5097
 2105SOL    HW3 8193   3.742   4.088   1.445  1.3841 -1.7427 -1.0457
 2105SOL    MW4 8194   3.724   4.042   1.517  0.0054  0.0735 -0.1545
 2106SOL     OW 8195   2.005   1.800   5.438  0.3296  0.5071 -0.0234
 2106SOL    HW2 8196   2.094   1.786   5.405 -0.0074 -1.1105 -0.3331
 2106SOL    HW3 8197   2.007   1.887   5.477  1.6274  1.1357 -1.3924
 2106SOL    MW4 8198   2.017   1.809   5.439  0.4564  0.3766 -0.2449
 2107SOL     OW 8199   1.880   0.837   5.094  0.0118  0.1247 -0.0974
 2107SOL    HW2 8200   1.932   0.802   5.166 -1.0046  0.1012  0.6499
 2107SOL    HW3 8201   1.790   0.810   5.114 -0.5880  1.8457 -0.3065
 2107SOL    MW4 8202   1.875   0.829   5.106 -0.2014  0.3486 -0.0264
 2108SOL     OW 8203   3.303   3.660   3.335 -0.7064 -0.3562 -0.2251
 2108SOL    HW2 8204   3.228   3.691   3.284 -0.2302  0.6303 -0.3521
 2108SOL    HW3 8205   3.379   3.696   3.289 -0.2658  0.5365  1.1470
 2108SOL    MW4 8206   3.303   3.669   3.322 -0.5854 -0.1083 -0.0609
 2109SOL     OW 8207   4.157   6.153   0.839  0.1114 -0.2061 -0.7406
 2109SOL    HW2 8208   4.137   6.204   0.918 -0.3819 -1.0968 -0.2819
 2109SOL    HW3 8209   4.078   6.101   0.823  1.5620 -2.9715  0.4425
 2109SOL    MW4 8210   4.144   6.153   0.847  0.2377 -0.6885 -0.5240
 2110SOL     OW 8211   1.086   1.586   2.312  0.1875  0.3969  0.2191
 2110SOL    HW2 8212   1.042   1.586   2.397 -0.0946 -2.5037  0.1727
 2110SOL    HW3 8213   1.022   1.547   2.253  1.3577 -0.0986 -0.7433
 2110SOL    MW4 8214   1.072   1.581   2.316  0.3046 -0.0512  0.0860
 2111SOL     OW 8215   3.744   5.508   5.482 -0.4345 -0.5355  0.0939
 2111SOL    HW2 8216   3.794   5.576   5.526  0.1893 -1.3082  0.6201
 2111SOL    HW3 8217   3.808   5.462   5.428 -0.8152 -0.7932 -0.1433
 2111SOL    MW4 8218   3.759   5.511   5.481 -0.4025 -0.6715  0.1320
 2112SOL     OW 8219   2.634   0.820   4.559 -0.0746  0.2385 -0.3384
 2112SOL    HW2 8220   2.551   0.790   4.595 -0.7738  2.6609  0.2594
 2112SOL    HW3 8221   2.684   0.851   4.634  1.2495 -0.7870 -0.7431
 2112SOL    MW4 8222   2.630   0.820   4.574  0.0079  0.4228 -0.3129
 2113SOL     OW 8223   3.214   1.567   0.034  0.3494 -0.3728 -0.4456
 2113SOL    HW2 8224   3.309   1.574   0.048  0.2927  0.0823 -0.2921
 2113SOL    HW3 8225   3.205   1.558  -0.061  0.3560  3.2383 -0.9231
 2113SOL    MW4 8226   3.225   1.567   0.024  0.3428  0.1637 -0.4884
 2114SOL     OW 8227   2.415   4.519   2.439 -0.0108  0.7509  0.1672
 2114SOL    HW2 8228   2.490   4.550   2.491  1.0277  0.3496 -1.0251
 2114SOL    HW3 8229   2.355   4.481   2.504  1.0044  0.7162  1.1246
 2114SOL    MW4 8230   2.417   4.518   2.455  0.2602  0.6933  0.1362
 2115SOL     OW 8231   4.889   3.167   0.599 -0.1650  0.1409  0.4391
 2115SOL    HW2 8232   4.885   3.263   0.594 -0.6121  0.1144  0.2510
 2115SOL    HW3 8233   4.869   3.147   0.690  0.8344  0.2674  0.6982
 2115SOL    MW4 8234   4.886   3.177   0.610 -0.0921  0.1541  0.4485
 2116SOL     OW 8235   0.918   0.122   6.193  0.4171  0.0975 -0.1049
 2116SOL    HW2 8236   0.959   0.137   6.278  0.5623 -0.4764 -0.0728
 2116SOL    HW3 8237   0.849   0.058   6.210  1.4728 -1.2383 -0.6908
 2116SOL    MW4 8238   0.914   0.116   6.207  0.5755 -0.1544 -0.1780
 2117SOL     OW 8239   4.520   5.063   1.261  0.5885  0.4260 -0.4218
 2117SOL    HW2 8240   4.599   5.045   1.209 -1.6628 -1.8222 -3.4027
 2117SOL    HW3 8241   4.464   4.987   1.247 -2.0678  1.8219  1.7596
 2117SOL    MW4 8242   4.523   5.051   1.252 -0.0590  0.3136 -0.5273
 2118SOL     OW 8243   1.852   3.032   3.217  0.0400 -0.6037 -0.2736
 2118SOL    HW2 8244   1.835   3.069   3.304  1.6700 -0.2113 -0.0804
 2118SOL    HW3 8245   1.768   2.996   3.189 -0.8207  0.3902  0.9230
 2118SOL    MW4 8246   1.839   3.032   3.225  0.1415 -0.4208 -0.0902
 2119SOL     OW 8247   6.151   4.393   0.667 -0.7775 -0.1208  0.9560
 2119SOL    HW2 8248   6.150   4.468   0.607  1.4262 -0.7077  0.0817
 2119SOL    HW3 8249   6.089   4.417   0.736 -0.3745  2.3887  0.5630
 2119SOL    MW4 8250   6.143   4.406   0.668 -0.4336  0.1329  0.7888
 2120SOL     OW 8251   0.384   0.226   4.618 -0.0589  0.2119 -0.1306
 2120SOL    HW2 8252   0.408   0.188   4.534 -1.6642 -0.4316 -0.3526
 2120SOL    HW3 8253   0.450   0.293   4.635  0.6202 -0.0460 -1.6123
 2120SOL    MW4 8254   0.396   0.230   4.609 -0.1811  0.0930 -0.3554
 2121SOL     OW 8255   5.740   2.529   3.905  0.2040 -0.3962 -0.3784
 2121SOL    HW2 8256   5.645   2.537   3.902  0.2978  0.5255 -1.4810
 2121SOL    HW3 8257   5.757   2.462   3.972 -1.2275 -0.8842 -0.4881
 2121SOL    MW4 8258   5.730   2.521   3.913  0.0275 -0.3390 -0.5383
 2122SOL     OW 8259   2.989   0.240   6.012  0.3422 -0.2529 -0.4460
 2122SOL    HW2 8260   2.899   0.211   5.997 -0.0147  0.6857 -0.1894
 2122SOL    HW3 8261   3.030   0.238   5.925 -0.4954  1.1477 -0.9013
 2122SOL    MW4 8262   2.983   0.236   5.998  0.1846  0.0557 -0.4722
 2123SOL     OW 8263   3.394   0.582   6.399 -0.1208  0.1049 -0.5471
 2123SOL    HW2 8264   3.345   0.663   6.383 -2.9267 -1.4655 -0.3333
 2123SOL    HW3 8265   3.391   0.535   6.316 -0.4808 -0.7652 -0.0540
 2123SOL    MW4 8266   3.387   0.587   6.386 -0.5385 -0.2171 -0.4538
 2124SOL     OW 8267   0.651   4.439   5.581 -0.0121 -0.4852  0.0032
 2124SOL    HW2 8268   0.610   4.399   5.505 -0.1690 -0.0863 -0.1290
 2124SOL    HW3 8269   0.587   4.504   5.611  0.4486  0.0246 -0.0990
 2124SOL    MW4 8270   0.637   4.443   5.575  0.0280 -0.3653 -0.0277
 2125SOL     OW 8271   4.333   1.745   3.864  0.2484 -0.2373  0.5597
 2125SOL    HW2 8272   4.290   1.824   3.831 -1.1783 -0.7720  1.0459
 2125SOL    HW3 8273   4.403   1.778   3.920  0.4459  0.6712 -0.1870
 2125SOL    MW4 8274   4.337   1.760   3.867  0.0862 -0.1880  0.5254
 2126SOL     OW 8275   6.157   2.596   2.641 -0.3417 -0.1013 -0.1870
 2126SOL    HW2 8276   6.084   2.537   2.658  0.4883 -0.8991  0.6629
 2126SOL    HW3 8277   6.171   2.643   2.723  0.3606 -0.2459 -0.2168
 2126SOL    MW4 8278   6.149   2.595   2.654 -0.1395 -0.2256 -0.0788
 2127SOL     OW 8279   4.646   4.485   4.640  0.3401 -0.4343  0.1166
 2127SOL    HW2 8280   4.575   4.471   4.578  0.0043  1.5396 -0.0090
 2127SOL    HW3 8281   4.675   4.575   4.624  1.8429 -0.6743  1.2137
 2127SOL    MW4 8282   4.640   4.495   4.630  0.4941 -0.2055  0.2448
 2128SOL     OW 8283   0.090   3.871   1.023  0.1693 -0.0073  0.6833
 2128SOL    HW2 8284   0.082   3.830   1.109 -1.0215  1.5736  1.3825
 2128SOL    HW3 8285   0.000   3.884   0.994  0.4213  2.5820  0.7975
 2128SOL    MW4 8286   0.077   3.867   1.031  0.0455  0.5429  0.7906
 2129SOL     OW 8287   6.011   3.900   1.749  0.0355  0.7562 -0.1586
 2129SOL    HW2 8288   6.093   3.920   1.703  0.9216 -0.0690  0.9917
 2129SOL    HW3 8289   6.025   3.933   1.837  0.3390 -1.9675  0.9082
 2129SOL    MW4 8290   6.024   3.907   1.754  0.1924  0.2880  0.1339
 2130SOL     OW 8291   0.779   4.983   2.921  0.3957  0.1562  0.2923
 2130SOL    HW2 8292   0.849   5.039   2.888  0.5024 -0.2203 -0.1290
 2130SOL    HW3 8293   0.802   4.895   2.892 -0.9535  0.2124 -1.0488
 2130SOL    MW4 8294   0.791   4.978   2.913  0.2318  0.1140  0.0598
 2131SOL     OW 8295   2.101   3.860   3.302  0.6834 -0.5111  0.1196
 2131SOL    HW2 8296   2.135   3.937   3.257  1.4113 -0.4132  0.8082
 2131SOL    HW3 8297   2.061   3.807   3.233  0.4623  0.3185 -0.4100
 2131SOL    MW4 8298   2.100   3.863   3.287  0.7503 -0.3887  0.1406
 2132SOL     OW 8299   4.739   5.083   5.813 -0.4070  0.3352 -0.1512
 2132SOL    HW2 8300   4.658   5.095   5.763 -1.9588 -1.4722  1.7884
 2132SOL    HW3 8301   4.725   5.133   5.893 -1.0775 -2.5354  1.6672
 2132SOL    MW4 8302   4.727   5.091   5.817 -0.7002 -0.2820  0.3446
 2133SOL     OW 8303   3.405   1.877   0.463  0.4324  0.2503  0.3910
 2133SOL    HW2 8304   3.399   1.782   0.470  1.0014  0.0635 -1.1310
 2133SOL    HW3 8305   3.473   1.902   0.526  2.5241 -0.7658 -1.3282
 2133SOL    MW4 8306   3.413   1.868   0.472  0.7834  0.0916 -0.0366
 2134SOL     OW 8307   3.630   2.168   4.756  0.2343  0.0601 -0.0420
 2134SOL    HW2 8308   3.667   2.162   4.668  1.6517  1.5295  0.4016
 2134SOL    HW3 8309   3.638   2.079   4.791  2.3168  0.0414 -0.4108
 2134SOL    MW4 8310   3.636   2.156   4.749  0.6961  0.2515 -0.0321
 2135SOL     OW 8311   0.100   1.958   5.065 -0.1798 -0.0451  0.1042
 2135SOL    HW2 8312   0.033   1.934   5.001 -0.7741  1.7675 -0.0215
 2135SOL    HW3 8313   0.065   1.932   5.149 -0.7204  0.1931 -0.0422
 2135SOL    MW4 8314   0.087   1.952   5.067 -0.3295  0.2254  0.0683
 2136SOL     OW 8315   0.859   1.579   6.129 -0.3564 -0.4900  0.0379
 2136SOL    HW2 8316   0.820   1.628   6.056  0.6937 -0.8296 -0.7834
 2136SOL    HW3 8317   0.801   1.596   6.203 -0.5854  1.1871 -0.4698
 2136SOL    MW4 8318   0.846   1.588   6.129 -0.2481 -0.3135 -0.1375
 2137SOL     OW 8319   1.936   3.827   1.704 -0.0711 -0.2150 -0.1087
 2137SOL    HW2 8320   1.989   3.907   1.708  0.2520 -0.3806 -0.8718
 2137SOL    HW3 8321   1.846   3.857   1.713 -0.0283  0.3623 -1.3280
 2137SOL    MW4 8322   1.931   3.841   1.706 -0.0228 -0.1607 -0.3703
 2138SOL     OW 8323   0.749   1.805   1.890 -0.0738  0.1010  0.1535
 2138SOL    HW2 8324   0.689   1.733   1.872 -1.3945  1.4234 -0.9972
 2138SOL    HW3 8325   0.787   1.784   1.976 -0.8451 -1.6468  0.1060
 2138SOL    MW4 8326   0.746   1.793   1.899 -0.3498  0.0449 -0.0046
 2139SOL     OW 8327   0.739   5.587   3.142 -0.4637  0.1137 -0.0014
 2139SOL    HW2 8328   0.831   5.597   3.117 -0.6513 -0.6492 -1.0669
 2139SOL    HW3 8329   0.731   5.495   3.168 -1.1537 -0.1236 -0.9886
 2139SOL    MW4 8330   0.750   5.576   3.142 -0.5795 -0.0182 -0.2722
 2140SOL     OW 8331   3.833   2.032   0.172 -0.0867 -0.6093  0.0639
 2140SOL    HW2 8332   3.812   1.940   0.159  0.0755 -0.6123 -0.1715
 2140SOL    HW3 8333   3.776   2.059   0.245  0.3338 -1.0599  0.5660
 2140SOL    MW4 8334   3.823   2.023   0.180 -0.0098 -0.6691  0.0991
 2141SOL     OW 8335   3.940   5.051   5.577  0.1011 -0.1759 -0.4268
 2141SOL    HW2 8336   3.881   5.122   5.604 -0.1638 -0.2330 -0.8395
 2141SOL    HW3 8337   3.904   4.973   5.619  1.1019  0.1083  1.0441
 2141SOL    MW4 8338   3.927   5.050   5.586  0.1982 -0.1459 -0.2872
 2142SOL     OW 8339   5.478   1.837   0.170 -0.7058 -0.4695 -0.7286
 2142SOL    HW2 8340   5.430   1.878   0.098 -1.7516  1.1045  0.7843
 2142SOL    HW3 8341   5.461   1.893   0.245  1.4770 -1.2958  0.4668
 2142SOL    MW4 8342   5.469   1.850   0.170 -0.5558 -0.3709 -0.3713
 2143SOL     OW 8343   4.851   0.775   6.187  0.2212 -1.0023  0.0911
 2143SOL    HW2 8344   4.920   0.841   6.193  0.0744 -0.8252 -0.1380
 2143SOL    HW3 8345   4.770   0.824   6.200  0.1310 -1.1964  0.2767
 2143SOL    MW4 8346   4.849   0.790   6.190  0.1899 -1.0046  0.0853
 2144SOL     OW 8347   2.885   3.931   4.269 -0.2481 -0.1454 -0.0728
 2144SOL    HW2 8348   2.943   3.872   4.221 -0.0088  0.1105 -0.1021
 2144SOL    HW3 8349   2.923   4.018   4.254  1.5227 -0.2652  2.8920
 2144SOL    MW4 8350   2.898   3.935   4.260  0.0171 -0.1274  0.3145
 2145SOL     OW 8351   5.546   6.045   4.452  0.1144  0.0667  0.1055
 2145SOL    HW2 8352   5.611   6.091   4.505  0.1544 -1.1639  1.1725
 2145SOL    HW3 8353   5.465   6.051   4.502 -0.2899  0.4502 -0.5814
 2145SOL    MW4 8354   5.544   6.052   4.465  0.0663 -0.0451  0.1557
 2146SOL     OW 8355   0.749   3.930   6.290  0.1880 -0.3153  0.3795
 2146SOL    HW2 8356   0.739   3.883   6.373  0.5819  1.0646  1.2513
 2146SOL    HW3 8357   0.837   3.908   6.260 -0.0005 -0.9155  0.2538
 2146SOL    MW4 8358   0.759   3.921   6.297  0.2151 -0.2125  0.4779
 2147SOL     OW 8359   4.330   3.611   0.558 -0.2157 -0.0585 -0.5594
 2147SOL    HW2 8360   4.328   3.515   0.559 -0.7499 -0.0454  0.0075
 2147SOL    HW3 8361   4.278   3.635   0.481  0.4320 -0.2291 -1.0600
 2147SOL    MW4 8362   4.323   3.601   0.548 -0.2007 -0.0793 -0.5506
 2148SOL     OW 8363   6.182   3.233   3.666 -0.2148  0.8246 -0.3621
 2148SOL    HW2 8364   6.138   3.300   3.718 -0.5092  2.2718 -2.3917
 2148SOL    HW3 8365   6.258   3.277   3.628  0.5615 -0.4687 -0.3703
 2148SOL    MW4 8366   6.186   3.247   3.668 -0.1512  0.8449 -0.6310
 2149SOL     OW 8367   5.345   3.828   3.892  0.1489  0.3554 -0.0481
 2149SOL    HW2 8368   5.310   3.791   3.973  0.1503 -0.1191 -0.2619
 2149SOL    HW3 8369   5.270   3.871   3.851 -0.2086 -0.7237 -0.5418
 2149SOL    MW4 8370   5.331   3.829   3.897  0.1019  0.1504 -0.1414
 2150SOL     OW 8371   2.747   3.596   4.701  0.3040 -0.0731 -0.0815
 2150SOL    HW2 8372   2.793   3.656   4.642  0.5538  0.4923  0.6778
 2150SOL    HW3 8373   2.788   3.610   4.786 -2.6423  2.0628  1.1554
 2150SOL    MW4 8374   2.758   3.606   4.704 -0.0518  0.2833  0.1818
 2151SOL     OW 8375   1.004   1.005   0.389  0.1565  0.4101 -0.1194
 2151SOL    HW2 8376   0.952   1.033   0.314  0.2026  0.3677 -0.1671
 2151SOL    HW3 8377   0.956   0.930   0.424  0.7037 -0.2541 -0.7576
 2151SOL    MW4 8378   0.991   0.998   0.384  0.2348  0.3169 -0.2098
 2152SOL     OW 8379   1.787   2.127   2.675  0.2288  0.4246 -0.0901
 2152SOL    HW2 8380   1.773   2.033   2.686 -0.6851  0.6380  0.8251
 2152SOL    HW3 8381   1.814   2.157   2.762 -0.1084  1.0973 -0.2087
 2152SOL    MW4 8382   1.789   2.119   2.688  0.0638  0.5415  0.0150
 2153SOL     OW 8383   2.967   0.791   4.431 -0.4700  0.5520 -0.1585
 2153SOL    HW2 8384   3.001   0.715   4.478  0.9046  1.5799  0.5698
 2153SOL    HW3 8385   2.950   0.856   4.499 -1.5586  0.9453 -0.7793
 2153SOL    MW4 8386   2.969   0.790   4.446 -0.4323  0.7395 -0.1443
 2154SOL     OW 8387   2.682   1.761   4.177  0.1743 -0.1720 -0.3756
 2154SOL    HW2 8388   2.603   1.749   4.126 -0.4863 -0.0113  0.5844
 2154SOL    HW3 8389   2.656   1.818   4.250  1.1363 -0.2079  0.0222
 2154SOL    MW4 8390   2.668   1.767   4.180  0.2140 -0.1555 -0.1965
 2155SOL     OW 8391   0.043   3.641   5.066  0.2169  0.0629  0.8367
 2155SOL    HW2 8392   0.026   3.567   5.007  0.2787 -0.6874  1.7324
 2155SOL    HW3 8393   0.003   3.716   5.022  1.6439 -0.1474 -0.9405
 2155SOL    MW4 8394   0.035   3.641   5.052  0.4133 -0.0638  0.7204
 2156SOL     OW 8395   1.397   3.775   6.041  0.2562  0.9825 -0.5771
 2156SOL    HW2 8396   1.416   3.767   6.134  0.4638  0.0314 -0.6967
 2156SOL    HW3 8397   1.421   3.691   6.003 -2.5046  0.2726 -1.0323
 2156SOL    MW4 8398   1.402   3.763   6.048 -0.0807  0.7634 -0.6529
 2157SOL     OW 8399   1.804   3.501   5.930 -0.0574  0.0936  0.3159
 2157SOL    HW2 8400   1.837   3.586   5.959  0.1473 -0.3484  1.4175
 2157SOL    HW3 8401   1.709   3.509   5.939 -0.0635  0.3435  0.0339
 2157SOL    MW4 8402   1.796   3.514   5.935 -0.0312  0.0683  0.4241
 2158SOL     OW 8403   6.036   2.977   4.889  0.3283  0.1722 -0.0037
 2158SOL    HW2 8404   6.128   2.956   4.878  0.2089 -0.8900  0.8297
 2158SOL    HW3 8405   6.021   2.974   4.983 -0.7479 -0.5884 -0.1712
 2158SOL    MW4 8406   6.046   2.974   4.900  0.1705 -0.0683  0.0842
 2159SOL     OW 8407   1.000   0.383   2.051 -0.2051 -0.0957 -0.1463
 2159SOL    HW2 8408   1.095   0.378   2.055 -0.1362  0.8574 -0.4299
 2159SOL    HW3 8409   0.973   0.407   2.139 -0.1074  0.6230 -0.3070
 2159SOL    MW4 8410   1.009   0.386   2.063 -0.1831  0.1249 -0.2050
 2160SOL     OW 8411   5.874   4.785   4.506  0.2465  0.0552 -0.2400
 2160SOL    HW2 8412   5.892   4.776   4.413 -0.3148  0.4166 -0.3885
 2160SOL    HW3 8413   5.804   4.721   4.523  0.5114 -0.1796 -0.0126
 2160SOL    MW4 8414   5.867   4.775   4.496  0.2074  0.0719 -0.2296
 2161SOL     OW 8415   1.839   3.656   4.731  0.0031 -0.3312 -0.3510
 2161SOL    HW2 8416   1.745   3.670   4.722 -0.1586 -1.6052 -0.7609
 2161SOL    HW3 8417   1.870   3.736   4.775 -1.2808  0.0380 -0.0556
 2161SOL    MW4 8418   1.830   3.669   4.736 -0.1877 -0.4506 -0.3661
 2162SOL     OW 8419   6.299   1.809   6.253  0.2709 -0.5053  0.0416
 2162SOL    HW2 8420   6.326   1.901   6.254  1.4267 -0.8145 -0.5523
 2162SOL    HW3 8421   6.220   1.807   6.199  1.1664 -0.0740 -1.3412
 2162SOL    MW4 8422   6.292   1.821   6.246  0.5416 -0.4892 -0.2192
 2163SOL     OW 8423   2.312   0.727   5.659 -0.0792  0.1345 -0.0766
 2163SOL    HW2 8424   2.285   0.738   5.750 -0.4400  0.2195 -0.1932
 2163SOL    HW3 8425   2.234   0.695   5.614  0.0305  0.3156 -0.4026
 2163SOL    MW4 8426   2.298   0.725   5.665 -0.1123  0.1696 -0.1350
 2164SOL     OW 8427   0.576   5.503   1.920 -0.4228 -0.4232  0.4011
 2164SOL    HW2 8428   0.527   5.484   1.840  1.3119 -1.1138 -0.5448
 2164SOL    HW3 8429   0.561   5.597   1.935 -1.9999 -0.6101  0.1562
 2164SOL    MW4 8430   0.568   5.513   1.911 -0.4020 -0.5389  0.2440
 2165SOL     OW 8431   5.479   2.225   5.381  0.5316  0.2877 -0.0203
 2165SOL    HW2 8432   5.460   2.145   5.331 -2.6991  0.2551  1.0850
 2165SOL    HW3 8433   5.566   2.209   5.419  0.6183 -2.0456 -1.0218
 2165SOL    MW4 8434   5.488   2.212   5.379  0.1168 -0.0244 -0.0066
 2166SOL     OW 8435   2.364   2.252   2.563  0.9333 -0.3310 -0.6053
 2166SOL    HW2 8436   2.450   2.235   2.524  0.9927 -0.5826 -0.3638
 2166SOL    HW3 8437   2.381   2.322   2.627  1.1304 -0.9918  0.0807
 2166SOL    MW4 8438   2.378   2.259   2.566  0.9671 -0.4514 -0.4829
 2167SOL     OW 8439   4.477   0.512   0.182 -0.0253  0.0524  0.2993
 2167SOL    HW2 8440   4.503   0.490   0.271 -3.1573 -1.7427  0.9436
 2167SOL    HW3 8441   4.484   0.429   0.134 -0.0685  0.5930 -0.6778
 2167SOL    MW4 8442   4.481   0.498   0.187 -0.4443 -0.1131  0.2554
 2168SOL     OW 8443   0.398   2.209   3.984  0.0269  0.2966 -0.3979
 2168SOL    HW2 8444   0.447   2.291   3.986  0.4902  0.0751 -1.5409
 2168SOL    HW3 8445   0.310   2.232   4.014  0.6724  0.8011  1.2037
 2168SOL    MW4 8446   0.393   2.223   3.988  0.1732  0.3339 -0.3374
 2169SOL     OW 8447   0.411   2.728   2.349 -0.4678 -0.5876 -0.4282
 2169SOL    HW2 8448   0.332   2.681   2.320 -1.2506 -1.2917  2.5241
 2169SOL    HW3 8449   0.474   2.658   2.368 -0.4032 -0.2504  0.6305
 2169SOL    MW4 8450   0.408   2.712   2.348 -0.5626 -0.6360  0.1010
 2170SOL     OW 8451   6.071   6.078   3.222  1.0784  0.2025 -0.0495
 2170SOL    HW2 8452   6.058   6.157   3.170  1.5857  0.0756 -0.3863
 2170SOL    HW3 8453   5.996   6.022   3.200  1.3750  0.0804 -0.7916
 2170SOL    MW4 8454   6.060   6.081   3.212  1.1845  0.1696 -0.1918
 2171SOL     OW 8455   5.223   1.262   4.450 -0.4036  0.0910 -0.2583
 2171SOL    HW2 8456   5.223   1.348   4.408  2.2500 -0.2835 -1.1761
 2171SOL    HW3 8457   5.133   1.251   4.482 -0.9608  2.9235 -0.6285
 2171SOL    MW4 8458   5.211   1.272   4.449 -0.1270  0.4153 -0.4282
 2172SOL     OW 8459   5.374   1.898   4.812 -0.1341  0.0730 -0.8807
 2172SOL    HW2 8460   5.300   1.958   4.820  0.5215  1.1316 -2.2486
 2172SOL    HW3 8461   5.350   1.841   4.739  0.3645  0.3878 -1.2966
 2172SOL    MW4 8462   5.361   1.898   4.803  0.0182  0.2542 -1.1160
 2173SOL     OW 8463   5.739   3.564   5.137  0.2289  0.2357  0.5764
 2173SOL    HW2 8464   5.818   3.612   5.162 -0.2642  0.2300  2.3445
 2173SOL    HW3 8465   5.667   3.623   5.160 -0.3095 -0.2454  0.1504
 2173SOL    MW4 8466   5.740   3.578   5.144  0.0928  0.1715  0.7534
 2174SOL     OW 8467   4.281   5.486   4.804  0.6473 -0.0052 -0.1019
 2174SOL    HW2 8468   4.337   5.414   4.775  1.0748 -0.0317  0.7636
 2174SOL    HW3 8469   4.324   5.520   4.883 -0.3372  0.2391  0.3410
 2174SOL    MW4 8470   4.294   5.481   4.811  0.5738  0.0236  0.0708
 2175SOL     OW 8471   3.923   1.175   3.703  0.3788  0.6684  0.4502
 2175SOL    HW2 8472   3.829   1.185   3.720  0.5802  1.5973  1.1668
 2175SOL    HW3 8473   3.930   1.098   3.648 -0.9754  1.6515 -1.2056
 2175SOL    MW4 8474   3.912   1.166   3.698  0.2267  0.9207  0.3263
 2176SOL     OW 8475   0.685   3.098   4.174  0.5661  0.3099  0.6868
 2176SOL    HW2 8476   0.754   3.093   4.109  1.2975  0.6240  1.4247
 2176SOL    HW3 8477   0.668   3.007   4.199  0.1549  0.1715 -0.0523
 2176SOL    MW4 8478   0.692   3.085   4.169  0.6083  0.3331  0.6866
 2177SOL     OW 8479   0.182   4.849   0.571 -0.2660  0.3320 -0.3548
 2177SOL    HW2 8480   0.089   4.829   0.578  0.0940 -0.9660  1.6077
 2177SOL    HW3 8481   0.219   4.780   0.516 -0.3035  0.2607 -0.2897
 2177SOL    MW4 8482   0.175   4.837   0.565 -0.2234  0.1514 -0.0873
 2178SOL     OW 8483   1.603   5.640   0.567  0.0425 -0.5590 -0.2382
 2178SOL    HW2 8484   1.608   5.654   0.472 -1.0300 -1.8379 -0.5025
 2178SOL    HW3 8485   1.688   5.670   0.599 -0.0088  1.0237 -1.4382
 2178SOL    MW4 8486   1.615   5.646   0.558 -0.1058 -0.5189 -0.4314
 2179SOL     OW 8487   0.329   0.042   1.719  0.3287  0.0227 -0.2000
 2179SOL    HW2 8488   0.384   0.118   1.702 -0.5026  0.3432 -1.6855
 2179SOL    HW3 8489   0.248   0.079   1.755  0.4711 -0.3010  0.4674
 2179SOL    MW4 8490   0.325   0.057   1.721  0.2378  0.0223 -0.3080
 2180SOL     OW 8491   6.105   3.596   3.547  0.0560  0.0744 -0.2124
 2180SOL    HW2 8492   6.140   3.669   3.496  1.0743 -1.0228 -1.1249
 2180SOL    HW3 8493   6.158   3.595   3.627  0.1558  0.2184 -0.2772
 2180SOL    MW4 8494   6.117   3.605   3.551  0.2035 -0.0513 -0.3413
 2181SOL     OW 8495   0.026   4.497   6.190 -0.1677 -0.0936 -0.2529
 2181SOL    HW2 8496  -0.025   4.551   6.130 -1.0314 -0.8054 -0.1953
 2181SOL    HW3 8497   0.113   4.536   6.191  0.1704 -0.5970 -2.7185
 2181SOL    MW4 8498   0.031   4.509   6.182 -0.2371 -0.2539 -0.5706
 2182SOL     OW 8499   4.326   5.586   5.725 -0.1168 -0.6245 -0.2157
 2182SOL    HW2 8500   4.296   5.652   5.787  1.0273  0.4217 -0.7367
 2182SOL    HW3 8501   4.269   5.510   5.740  0.5623 -0.6602  2.5587
 2182SOL    MW4 8502   4.314   5.585   5.735  0.1237 -0.4911  0.0816
 2183SOL     OW 8503   4.639   1.499   1.939 -0.2108 -0.5325  0.3797
 2183SOL    HW2 8504   4.681   1.582   1.920 -0.3826 -0.0584  1.9651
 2183SOL    HW3 8505   4.548   1.511   1.911 -0.1223 -0.3747  0.1526
 2183SOL    MW4 8506   4.633   1.511   1.932 -0.2218 -0.4492  0.5589
 2184SOL     OW 8507   2.459   5.949   6.297  0.5541 -0.3353  0.2245
 2184SOL    HW2 8508   2.413   5.888   6.355 -2.0688 -0.2685 -1.5887
 2184SOL    HW3 8509   2.442   5.914   6.209  1.1298  1.6351 -0.7124
 2184SOL    MW4 8510   2.451   5.936   6.293  0.2840 -0.0665 -0.1383
 2185SOL     OW 8511   0.671   0.291   1.490 -0.3637  0.3337  0.4066
 2185SOL    HW2 8512   0.646   0.218   1.433  0.9456 -0.9722  1.4118
 2185SOL    HW3 8513   0.686   0.364   1.430 -2.3910  0.0314 -0.5692
 2185SOL    MW4 8514   0.670   0.291   1.474 -0.4584  0.1215  0.4105
 2186SOL     OW 8515   5.243   2.437   1.466 -0.1561 -0.3541 -0.5097
 2186SOL    HW2 8516   5.177   2.376   1.433 -1.4754  0.3297  0.7646
 2186SOL    HW3 8517   5.321   2.419   1.413 -0.4727 -3.1501 -0.1692
 2186SOL    MW4 8518   5.245   2.426   1.454 -0.3719 -0.6327 -0.2966
 2187SOL     OW 8519   3.971   1.021   2.885 -0.4945  0.4628 -0.5000
 2187SOL    HW2 8520   3.888   1.024   2.934 -0.3640  0.2448 -0.2667
 2187SOL    HW3 8521   3.987   1.112   2.861  0.5230  0.9230  1.6701
 2187SOL    MW4 8522   3.962   1.033   2.889 -0.3430  0.4948 -0.1829
 2188SOL     OW 8523   1.756   5.987   0.245  0.3350  0.6255 -0.2790
 2188SOL    HW2 8524   1.760   5.906   0.297 -2.2846  1.8355  2.0917
 2188SOL    HW3 8525   1.818   6.046   0.288 -0.6525  1.1131  0.4971
 2188SOL    MW4 8526   1.765   5.984   0.258 -0.1409  0.8495  0.1362
 2189SOL     OW 8527   1.190   2.565   4.390 -0.0629 -0.2583  0.2947
 2189SOL    HW2 8528   1.256   2.620   4.434  0.1486 -0.3918  0.1461
 2189SOL    HW3 8529   1.131   2.628   4.348  0.5571 -0.1452 -0.4255
 2189SOL    MW4 8530   1.191   2.581   4.390  0.0468 -0.2610  0.1801
 2190SOL     OW 8531   0.633   6.415   3.599 -0.0941  0.1091  0.2329
 2190SOL    HW2 8532   0.711   6.360   3.592 -0.5205 -0.4092 -0.8187
 2190SOL    HW3 8533   0.640   6.458   3.684 -0.3121 -2.5016  1.6849
 2190SOL    MW4 8534   0.644   6.413   3.609 -0.1791 -0.3037  0.2858
 2191SOL     OW 8535   1.245   1.150   4.676 -0.3310  0.2715  0.4017
 2191SOL    HW2 8536   1.260   1.133   4.769 -1.8141 -0.3418  0.5606
 2191SOL    HW3 8537   1.209   1.238   4.673  1.5409  1.0729  0.1856
 2191SOL    MW4 8538   1.242   1.159   4.688 -0.2797  0.2963  0.3941
 2192SOL     OW 8539   2.575   6.386   1.111  0.1417 -0.2197 -0.1382
 2192SOL    HW2 8540   2.564   6.480   1.125 -1.4720 -0.3867 -0.0526
 2192SOL    HW3 8541   2.644   6.361   1.172 -1.1791  0.4836  1.7588
 2192SOL    MW4 8542   2.583   6.395   1.121 -0.2454 -0.1489  0.1233
 2193SOL     OW 8543   4.603   3.418   2.664 -0.5060  0.6945 -0.7941
 2193SOL    HW2 8544   4.609   3.426   2.760  0.6378  1.6563 -0.9155
 2193SOL    HW3 8545   4.679   3.466   2.632 -0.8498  0.3381 -2.1993
 2193SOL    MW4 8546   4.614   3.425   2.673 -0.4005  0.7744 -0.9955
 2194SOL     OW 8547   1.687   1.970   5.828 -0.3734 -0.5182 -0.3819
 2194SOL    HW2 8548   1.677   1.990   5.921 -0.1988 -1.4241 -0.1606
 2194SOL    HW3 8549   1.601   1.939   5.801 -0.1751 -1.1433 -0.2964
 2194SOL    MW4 8550   1.674   1.969   5.837 -0.3242 -0.7202 -0.3414
 2195SOL     OW 8551   0.347   2.248   0.907 -0.0925 -0.2662 -0.0838
 2195SOL    HW2 8552   0.355   2.322   0.847 -1.7719 -0.8719 -1.1265
 2195SOL    HW3 8553   0.309   2.287   0.987 -0.5182  0.0922 -0.4519
 2195SOL    MW4 8554   0.343   2.263   0.910 -0.3703 -0.2988 -0.2700
 2196SOL     OW 8555   5.668   4.104   1.712  0.2387  0.2273  0.2432
 2196SOL    HW2 8556   5.689   4.015   1.684 -2.8952 -0.0978 -1.5823
 2196SOL    HW3 8557   5.621   4.093   1.795  1.3472  0.3646  0.9019
 2196SOL    MW4 8558   5.665   4.091   1.719 -0.0286  0.2025  0.0892
 2197SOL     OW 8559   1.611   4.130   2.495  0.2512 -0.7089  0.2966
 2197SOL    HW2 8560   1.633   4.149   2.403 -1.3256  1.0555  0.2171
 2197SOL    HW3 8561   1.516   4.140   2.499  0.3201 -0.5067  2.1862
 2197SOL    MW4 8562   1.601   4.134   2.483  0.0522 -0.4494  0.5354
 2198SOL     OW 8563   5.622   5.834   5.679 -0.4158 -0.3313  0.5400
 2198SOL    HW2 8564   5.652   5.921   5.705  2.6978 -0.6159 -1.5966
 2198SOL    HW3 8565   5.607   5.788   5.762  0.1161  1.5228  1.7128
 2198SOL    MW4 8566   5.624   5.839   5.693  0.0652 -0.1242  0.4129
 2199SOL     OW 8567   6.398   5.830   0.287 -0.0334 -0.4185  0.1913
 2199SOL    HW2 8568   6.421   5.921   0.309 -0.6012 -0.6186  1.7278
 2199SOL    HW3 8569   6.431   5.818   0.198  0.3310  1.1970  0.0772
 2199SOL    MW4 8570   6.405   5.841   0.279 -0.0603 -0.2317  0.3790
 2200SOL     OW 8571   0.522   6.116   5.441  0.3174 -0.7265  0.2269
 2200SOL    HW2 8572   0.542   6.196   5.489 -1.0994 -0.8124  0.9970
 2200SOL    HW3 8573   0.563   6.047   5.493  1.9459 -0.4960 -0.6864
 2200SOL    MW4 8574   0.530   6.118   5.454  0.3453 -0.7074  0.2080
 2201SOL     OW 8575   0.751   4.183   6.408  0.2255  0.3455 -0.2580
 2201SOL    HW2 8576   0.685   4.251   6.393  0.2359  0.0986 -1.5434
 2201SOL    HW3 8577   0.718   4.106   6.361  0.7326 -0.2273  0.2898
 2201SOL    MW4 8578   0.738   4.182   6.400  0.2938  0.2373 -0.3553
 2202SOL     OW 8579   2.929   0.021   1.383  0.4297 -0.2294  0.0317
 2202SOL    HW2 8580   2.878  -0.031   1.321  1.5814  0.2333 -1.3486
 2202SOL    HW3 8581   2.864   0.056   1.443 -0.6929 -0.9214 -0.7406
 2202SOL    MW4 8582   2.914   0.019   1.383  0.4335 -0.2596 -0.2523
 2203SOL     OW 8583   0.998   3.962   0.252  0.2006  0.1364 -0.1168
 2203SOL    HW2 8584   0.925   3.902   0.263  1.3089 -1.0422  1.2651
 2203SOL    HW3 8585   1.075   3.913   0.282  1.5402  1.4085 -1.2786
 2203SOL    MW4 8586   0.999   3.948   0.258  0.5236  0.1487 -0.0877
 2204SOL     OW 8587   4.117   2.717   1.148  0.0780  0.3347  0.7229
 2204SOL    HW2 8588   4.024   2.727   1.167  0.0658  0.3934  0.6300
 2204SOL    HW3 8589   4.120   2.674   1.062  0.1230 -0.8044  1.2656
 2204SOL    MW4 8590   4.105   2.712   1.139  0.0823  0.1921  0.7822
 2205SOL     OW 8591   1.505   1.029   3.955  0.5787 -0.4728  0.2238
 2205SOL    HW2 8592   1.584   1.069   3.992  1.9547 -2.0712 -0.8759
 2205SOL    HW3 8593   1.471   0.974   4.025 -0.4226  1.2542  1.1859
 2205SOL    MW4 8594   1.511   1.027   3.969  0.6281 -0.4558  0.2056
 2206SOL     OW 8595   1.934   6.382   4.654 -0.0956  0.4767  0.5557
 2206SOL    HW2 8596   1.960   6.424   4.573  2.8308 -1.1697  0.5115
 2206SOL    HW3 8597   1.917   6.291   4.630  1.6084 -0.2364  1.8256
 2206SOL    MW4 8598   1.935   6.376   4.640  0.5153  0.1654  0.7174
 2207SOL     OW 8599   0.989   1.759   5.819 -0.4774 -0.4598 -0.2175
 2207SOL    HW2 8600   0.898   1.749   5.847 -0.8916 -0.0665 -1.3764
 2207SOL    HW3 8601   1.017   1.842   5.859 -0.8636 -0.2164 -0.4392
 2207SOL    MW4 8602   0.980   1.769   5.828 -0.5830 -0.3758 -0.3997
 2208SOL     OW 8603   3.418   4.013   2.750 -0.3124  0.0770 -0.2175
 2208SOL    HW2 8604   3.417   3.965   2.833  1.3321 -0.5501 -0.5131
 2208SOL    HW3 8605   3.491   4.075   2.759 -1.3567  1.3731 -0.4789
 2208SOL    MW4 8606   3.428   4.015   2.762 -0.2332  0.1653 -0.2910
 2209SOL     OW 8607   5.133   0.944   1.837  0.1516  0.0040 -1.0806
 2209SOL    HW2 8608   5.170   1.022   1.879 -1.6260 -0.3918  1.4639
 2209SOL    HW3 8609   5.129   0.879   1.907 -0.8780 -1.5088 -2.4590
 2209SOL    MW4 8610   5.137   0.946   1.852 -0.2188 -0.2478 -0.9268
 2210SOL     OW 8611   6.302   3.173   4.880 -0.0417  0.8284  0.3834
 2210SOL    HW2 8612   6.328   3.264   4.891 -0.4080  1.1704 -1.2980
 2210SOL    HW3 8613   6.213   3.177   4.845 -0.0778 -0.1735  0.3254
 2210SOL    MW4 8614   6.294   3.185   4.877 -0.0948  0.7413  0.1539
 2211SOL     OW 8615   3.644   4.365   5.875  0.1297 -0.2550 -0.5940
 2211SOL    HW2 8616   3.557   4.325   5.869  0.2683 -0.7265  0.3315
 2211SOL    HW3 8617   3.661   4.370   5.969  0.5437  1.0621 -0.7189
 2211SOL    MW4 8618   3.635   4.361   5.887  0.2026 -0.1434 -0.4884
 2212SOL     OW 8619   4.120   3.937   5.621  0.2431 -0.0981  0.1186
 2212SOL    HW2 8620   4.061   3.894   5.558  0.2571 -1.2642  0.8719
 2212SOL    HW3 8621   4.206   3.931   5.580  0.5337 -2.3281  0.8958
 2212SOL    MW4 8622   4.123   3.930   5.607  0.2833 -0.5462  0.3205
 2213SOL     OW 8623   3.681   5.276   5.113 -0.2198  0.3284 -0.1543
 2213SOL    HW2 8624   3.705   5.214   5.044 -0.0328 -1.1712  1.1748
 2213SOL    HW3 8625   3.752   5.268   5.178 -0.4385  1.6073  0.2767
 2213SOL    MW4 8626   3.694   5.267   5.113 -0.2240  0.2993  0.0779
 2214SOL     OW 8627   3.817   1.158   5.542 -0.1928  0.0312  0.0635
 2214SOL    HW2 8628   3.869   1.097   5.490 -0.2667  1.5922 -1.9664
 2214SOL    HW3 8629   3.843   1.140   5.632  2.8701 -0.1933 -0.7376
 2214SOL    MW4 8630   3.827   1.148   5.547  0.2016  0.2076 -0.3100
 2215SOL     OW 8631   0.926   5.880   5.865  0.3492 -0.3749  0.8936
 2215SOL    HW2 8632   0.906   5.902   5.956 -0.9974 -1.3014  0.8581
 2215SOL    HW3 8633   0.990   5.946   5.838 -1.5687  1.9378  1.5437
 2215SOL    MW4 8634   0.932   5.892   5.874 -0.0815 -0.1920  0.9747
 2216SOL     OW 8635   4.912   5.561   1.204 -0.0371 -0.4252 -0.0222
 2216SOL    HW2 8636   4.970   5.609   1.145 -0.2856 -1.4101 -1.1203
 2216SOL    HW3 8637   4.941   5.585   1.292  1.3792 -0.1363 -0.5433
 2216SOL    MW4 8638   4.923   5.571   1.208  0.1170 -0.5171 -0.2358
 2217SOL     OW 8639   5.276   6.121   1.715 -0.1527 -0.2292  0.3682
 2217SOL    HW2 8640   5.264   6.104   1.622 -0.2951  0.5721  0.2283
 2217SOL    HW3 8641   5.356   6.173   1.719  0.5729 -1.3631  0.8226
 2217SOL    MW4 8642   5.285   6.126   1.703 -0.0757 -0.2731  0.4097
 2218SOL     OW 8643   5.558   5.184   5.829 -0.2094  0.3204 -0.2762
 2218SOL    HW2 8644   5.581   5.145   5.914  1.4608 -0.1164 -0.8893
 2218SOL    HW3 8645   5.609   5.133   5.766  0.2324  2.0322 -1.3382
 2218SOL    MW4 8646   5.568   5.172   5.832  0.0692  0.4886 -0.4972
 2219SOL     OW 8647   5.685   0.937   4.289  0.2821 -0.4207  0.2117
 2219SOL    HW2 8648   5.652   0.847   4.287 -0.2646 -0.2126 -1.9630
 2219SOL    HW3 8649   5.611   0.989   4.319 -1.0831 -0.1565 -3.1789
 2219SOL    MW4 8650   5.671   0.932   4.293  0.0299 -0.3584 -0.5226
 2220SOL     OW 8651   4.183   3.297   3.822  0.0275 -0.1993  0.6520
 2220SOL    HW2 8652   4.142   3.366   3.874 -0.7311 -1.7331  2.2127
 2220SOL    HW3 8653   4.131   3.292   3.742 -1.0990 -0.2065  1.3596
 2220SOL    MW4 8654   4.171   3.306   3.818 -0.2212 -0.4026  0.9513
 2221SOL     OW 8655   1.372   2.408   5.072 -0.8439  0.1113 -0.3574
 2221SOL    HW2 8656   1.375   2.503   5.073 -1.3814  0.1368 -0.7482
 2221SOL    HW3 8657   1.279   2.387   5.063 -0.8433 -0.4575  0.7854
 2221SOL    MW4 8658   1.360   2.418   5.071 -0.9147  0.0396 -0.2582
 2222SOL     OW 8659   2.143   5.434   1.754 -0.3289 -0.0319 -0.2351
 2222SOL    HW2 8660   2.143   5.344   1.720  0.0421 -0.3926  0.6646
 2222SOL    HW3 8661   2.234   5.449   1.779 -0.6877 -0.0266  1.1573
 2222SOL    MW4 8662   2.155   5.424   1.753 -0.3273 -0.0788  0.0673
 2223SOL     OW 8663   1.322   0.077   3.601 -0.0411 -0.0550  0.0814
 2223SOL    HW2 8664   1.332  -0.000   3.544 -1.0174 -0.8947  1.0131
 2223SOL    HW3 8665   1.228   0.082   3.618  0.3083 -0.3335  2.2922
 2223SOL    MW4 8666   1.311   0.068   3.596 -0.1238 -0.2025  0.4960
 2224SOL     OW 8667   2.753   5.080   1.633  0.7743  0.1224 -0.4570
 2224SOL    HW2 8668   2.821   5.028   1.676  1.3338  0.8224 -0.4764
 2224SOL    HW3 8669   2.773   5.170   1.657  0.2692  0.4006 -1.0469
 2224SOL    MW4 8670   2.764   5.085   1.642  0.7815  0.2515 -0.5374
 2225SOL     OW 8671   3.613   3.032   1.060 -0.2553 -0.2557 -0.3486
 2225SOL    HW2 8672   3.708   3.046   1.053 -0.2498  0.4668  0.8798
 2225SOL    HW3 8673   3.576   3.095   0.998  0.0230  1.0495  0.7411
 2225SOL    MW4 8674   3.621   3.042   1.051 -0.2178  0.0119 -0.0428
 2226SOL     OW 8675   3.649   0.738   5.064  0.0565  0.4945 -0.1075
 2226SOL    HW2 8676   3.642   0.652   5.105  2.0122 -0.1301 -0.9794
 2226SOL    HW3 8677   3.671   0.797   5.136  1.1693 -0.1881  0.1460
 2226SOL    MW4 8678   3.651   0.734   5.079  0.4613  0.3220 -0.1891
 2227SOL     OW 8679   1.300   2.020   3.816 -0.2322 -0.2537  0.2773
 2227SOL    HW2 8680   1.269   2.094   3.868  3.8523  1.4916  0.6049
 2227SOL    HW3 8681   1.249   1.946   3.848 -4.7504  2.2701 -0.2877
 2227SOL    MW4 8682   1.289   2.020   3.827 -0.2894  0.3096  0.2460
 2228SOL     OW 8683   2.565   5.879   5.361 -0.3144  0.8661 -0.2703
 2228SOL    HW2 8684   2.475   5.862   5.387 -0.0691 -1.5015 -0.7751
 2228SOL    HW3 8685   2.557   5.933   5.282 -1.2639  0.7705 -0.2492
 2228SOL    MW4 8686   2.552   5.884   5.354 -0.4073  0.5411 -0.3341
 2229SOL     OW 8687   5.774   1.763   0.241 -0.3250 -0.1062 -0.1658
 2229SOL    HW2 8688   5.685   1.766   0.206 -0.2829  0.0026 -0.2674
 2229SOL    HW3 8689   5.767   1.716   0.324 -0.5451  0.2826  0.0339
 2229SOL    MW4 8690   5.762   1.757   0.247 -0.3485 -0.0405 -0.1528
 2230SOL     OW 8691   5.131   0.409   1.230  0.0119  0.3180 -0.5764
 2230SOL    HW2 8692   5.088   0.456   1.158  1.2075  0.9244 -0.9159
 2230SOL    HW3 8693   5.224   0.426   1.218  0.5802 -2.5274 -0.9938
 2230SOL    MW4 8694   5.137   0.417   1.219  0.2446  0.0226 -0.6762
 2231SOL     OW 8695   4.745   3.826   6.267  0.4990  0.8788  0.0762
 2231SOL    HW2 8696   4.695   3.894   6.313 -1.3157  0.0795 -0.6111
 2231SOL    HW3 8697   4.686   3.751   6.265  2.5200 -0.8062  0.9609
 2231SOL    MW4 8698   4.730   3.825   6.273  0.5262  0.5511  0.1022
 2232SOL     OW 8699   1.734   4.466   5.617 -0.1280  1.0592  0.4847
 2232SOL    HW2 8700   1.755   4.483   5.708  1.7936  0.2570  0.2329
 2232SOL    HW3 8701   1.815   4.484   5.569 -0.6477  0.0119 -0.8708
 2232SOL    MW4 8702   1.747   4.470   5.623  0.0570  0.8152  0.2726
 2233SOL     OW 8703   2.263   1.513   3.412 -0.1151 -0.0080  0.4653
 2233SOL    HW2 8704   2.222   1.428   3.430 -0.9389 -0.6314 -3.3409
 2233SOL    HW3 8705   2.357   1.494   3.410 -0.2619 -0.7340  0.1530
 2233SOL    MW4 8706   2.270   1.499   3.414 -0.2432 -0.1860 -0.0781
 2234SOL     OW 8707   3.609   2.169   5.290 -0.0999 -0.2341  0.5941
 2234SOL    HW2 8708   3.576   2.084   5.319 -3.1742  0.7314  0.2804
 2234SOL    HW3 8709   3.651   2.206   5.368  2.0212 -2.2644  0.5314
 2234SOL    MW4 8710   3.610   2.162   5.304 -0.2256 -0.3746  0.5444
 2235SOL     OW 8711   2.803   4.102   1.606  0.4773  0.5454  0.1079
 2235SOL    HW2 8712   2.886   4.112   1.653 -0.1413 -0.0507  1.3981
 2235SOL    HW3 8713   2.815   4.025   1.551  0.2783 -0.5383  1.5184
 2235SOL    MW4 8714   2.815   4.093   1.605  0.3694  0.3237  0.4642
 2236SOL     OW 8715   3.358   3.323   0.126  0.3609 -0.2511  0.1604
 2236SOL    HW2 8716   3.293   3.268   0.083  1.6907  0.4172 -2.9597
 2236SOL    HW3 8717   3.400   3.265   0.190 -1.7253 -1.3019  0.6441
 2236SOL    MW4 8718   3.355   3.308   0.129  0.2611 -0.3016 -0.1874
 2237SOL     OW 8719   3.674   4.089   4.266 -0.1893  0.3732  0.4425
 2237SOL    HW2 8720   3.616   4.072   4.191  1.3088 -0.4514 -0.5915
 2237SOL    HW3 8721   3.750   4.034   4.249 -0.1817 -0.5238  3.0725
 2237SOL    MW4 8722   3.676   4.079   4.254  0.0093  0.1461  0.6531
 2238SOL     OW 8723   5.350   1.596   0.891 -0.0784  0.0190 -0.7692
 2238SOL    HW2 8724   5.316   1.568   0.806  0.0271  0.7984 -1.0809
 2238SOL    HW3 8725   5.436   1.634   0.870  2.1797 -3.9718  0.2400
 2238SOL    MW4 8726   5.357   1.598   0.877  0.2334 -0.4047 -0.6772
 2239SOL     OW 8727   5.158   3.204   1.479 -0.1884 -0.2052  0.5713
 2239SOL    HW2 8728   5.128   3.119   1.447  0.5914 -0.3892  0.3001
 2239SOL    HW3 8729   5.081   3.261   1.471 -0.6301 -0.8047  0.4595
 2239SOL    MW4 8730   5.144   3.200   1.473 -0.1438 -0.3086  0.5208
 2240SOL     OW 8731   1.751   1.123   2.699  0.0906  0.5437 -0.1083
 2240SOL    HW2 8732   1.697   1.139   2.776 -1.2296  0.2884 -0.9539
 2240SOL    HW3 8733   1.823   1.069   2.731 -1.4552 -1.1912  0.6252
 2240SOL    MW4 8734   1.753   1.118   2.713 -0.2875  0.2811 -0.1231
 2241SOL     OW 8735   4.608   3.065   3.919 -0.2036 -0.6071 -0.3531
 2241SOL    HW2 8736   4.684   3.053   3.861  0.6244  2.7154 -0.2102
 2241SOL    HW3 8737   4.646   3.094   4.002 -1.4242 -4.3640  1.7593
 2241SOL    MW4 8738   4.623   3.067   3.922 -0.2554 -0.6644 -0.0555
 2242SOL     OW 8739   4.993   5.022   6.334 -0.3232  0.4664 -0.5847
 2242SOL    HW2 8740   4.952   5.029   6.248  0.6566  1.3622 -1.0022
 2242SOL    HW3 8741   5.079   4.984   6.317  0.1874  1.3628 -0.1194
 2242SOL    MW4 8742   4.999   5.018   6.321 -0.1266  0.7029 -0.5784
 2243SOL     OW 8743   2.164   1.814   0.620  0.6094  0.5756  0.4819
 2243SOL    HW2 8744   2.117   1.867   0.685  1.0122 -0.0124  1.2690
 2243SOL    HW3 8745   2.106   1.740   0.603  0.2908  0.9684 -0.2083
 2243SOL    MW4 8746   2.150   1.811   0.626  0.6205  0.5498  0.4947
 2244SOL     OW 8747   4.255   1.251   2.625 -0.2387 -0.3780 -0.4615
 2244SOL    HW2 8748   4.274   1.162   2.654  0.2907 -0.5304 -1.2409
 2244SOL    HW3 8749   4.175   1.275   2.672  1.7242  0.2403  2.8492
 2244SOL    MW4 8750   4.247   1.242   2.635  0.0902 -0.3165 -0.1275
 2245SOL     OW 8751   0.255   6.149   1.021 -0.1997 -0.0792 -0.2582
 2245SOL    HW2 8752   0.179   6.140   1.079 -1.0987 -0.6406 -1.4849
 2245SOL    HW3 8753   0.303   6.067   1.032 -0.7299 -0.4675 -0.7929
 2245SOL    MW4 8754   0.252   6.137   1.030 -0.3883 -0.2045 -0.4906
 2246SOL     OW 8755   4.544   5.118   2.360  0.0678 -0.2124  0.3381
 2246SOL    HW2 8756   4.455   5.092   2.384 -0.1830  0.2382 -0.0775
 2246SOL    HW3 8757   4.577   5.045   2.308 -0.2730 -0.1347  0.0047
 2246SOL    MW4 8758   4.536   5.105   2.357 -0.0103 -0.1427  0.2393
 2247SOL     OW 8759   4.328   5.845   3.950  0.0647 -0.6638  0.2154
 2247SOL    HW2 8760   4.354   5.752   3.949 -0.7736 -0.9345 -2.2436
 2247SOL    HW3 8761   4.251   5.849   3.893  0.7140  1.7165 -0.6133
 2247SOL    MW4 8762   4.322   5.833   3.942  0.0398 -0.3855 -0.2184
 2248SOL     OW 8763   2.156   1.622   4.433 -0.1446 -0.2978 -0.1124
 2248SOL    HW2 8764   2.236   1.656   4.473  0.2777  0.3111 -1.4037
 2248SOL    HW3 8765   2.092   1.692   4.444 -0.2864 -0.4914  0.2872
 2248SOL    MW4 8766   2.158   1.636   4.439 -0.1076 -0.2430 -0.2301
 2249SOL     OW 8767   1.402   0.951   6.010  0.0157 -0.2093 -0.4389
 2249SOL    HW2 8768   1.386   1.015   5.940  0.2124  0.4357  0.0876
 2249SOL    HW3 8769   1.373   0.996   6.089  3.0789  0.5340  0.4034
 2249SOL    MW4 8770   1.396   0.966   6.011  0.4458 -0.0261 -0.2583
 2250SOL     OW 8771   2.346   3.033   0.064  0.3234 -0.0232  0.3378
 2250SOL    HW2 8772   2.348   3.027   0.159  0.3865 -4.2418  0.2708
 2250SOL    HW3 8773   2.438   3.041   0.039  0.3468  0.5782  0.5985
 2250SOL    MW4 8774   2.358   3.033   0.073  0.3348 -0.5005  0.3633
 2251SOL     OW 8775   3.955   4.953   4.279 -0.2462 -0.4500 -0.4059
 2251SOL    HW2 8776   3.957   4.983   4.370 -0.1974  0.1400 -0.5929
 2251SOL    HW3 8777   3.863   4.933   4.263  0.0223 -2.4671  0.3565
 2251SOL    MW4 8778   3.943   4.955   4.289 -0.2044 -0.6383 -0.3300
 2252SOL     OW 8779   4.660   4.417   3.952  0.4290  0.0407  0.4067
 2252SOL    HW2 8780   4.733   4.381   4.003  0.0390  1.0793  1.7778
 2252SOL    HW3 8781   4.675   4.387   3.863  1.8898 -0.7329  0.8851
 2252SOL    MW4 8782   4.671   4.408   3.947  0.5703  0.0756  0.6507
 2253SOL     OW 8783   5.045   0.059   6.052 -0.3973 -0.0126  0.4008
 2253SOL    HW2 8784   4.988   0.014   6.114 -0.2533  0.5235  0.9265
 2253SOL    HW3 8785   5.114   0.098   6.105 -1.4667  2.3051  0.2031
 2253SOL    MW4 8786   5.046   0.058   6.067 -0.5194  0.3639  0.4441
 2254SOL     OW 8787   4.427   0.055   4.722  0.6657 -0.3608  0.3104
 2254SOL    HW2 8788   4.360   0.114   4.757  0.3900 -0.8830  0.6815
 2254SOL    HW3 8789   4.379  -0.003   4.663  0.6029 -1.3258  1.2688
 2254SOL    MW4 8790   4.412   0.055   4.719  0.6210 -0.5570  0.4858
 2255SOL     OW 8791   2.803   5.764   4.446 -0.4900 -0.0882  0.2684
 2255SOL    HW2 8792   2.872   5.790   4.385 -1.7731  0.0686 -1.1498
 2255SOL    HW3 8793   2.731   5.735   4.391 -1.7969  0.3122  1.7025
 2255SOL    MW4 8794   2.803   5.764   4.431 -0.8317 -0.0147  0.2705
 2256SOL     OW 8795   0.974   4.761   5.325 -0.1499 -0.0761 -0.2117
 2256SOL    HW2 8796   0.916   4.729   5.394 -0.9026 -0.8722 -1.1813
 2256SOL    HW3 8797   0.916   4.777   5.250  0.5764  1.2082 -0.5370
 2256SOL    MW4 8798   0.959   4.759   5.324 -0.1534 -0.0117 -0.3825
 2257SOL     OW 8799   0.107   2.706   1.961 -0.2817 -0.4916  0.0588
 2257SOL    HW2 8800   0.047   2.640   1.996  0.1642 -0.2086  1.4189
 2257SOL    HW3 8801   0.180   2.656   1.926  0.5262 -0.7517  1.9645
 2257SOL    MW4 8802   0.109   2.691   1.961 -0.1163 -0.4886  0.4897
 2258SOL     OW 8803   3.708   5.975   6.231  0.2873  0.2879  0.4089
 2258SOL    HW2 8804   3.630   6.008   6.277 -0.0950  2.3847 -1.5716
 2258SOL    HW3 8805   3.781   5.998   6.288 -0.1925  2.6138  0.2004
 2258SOL    MW4 8806   3.707   5.983   6.245  0.1735  0.8714  0.1201
 2259SOL     OW 8807   1.670   3.007   5.638  0.0589 -0.5365  0.7692
 2259SOL    HW2 8808   1.598   3.032   5.695  0.1923 -0.9535  1.1225
 2259SOL    HW3 8809   1.741   3.069   5.659 -0.3776  0.2568  0.0037
 2259SOL    MW4 8810   1.670   3.019   5.648  0.0189 -0.4869  0.7148
 2260SOL     OW 8811   2.959   3.543   4.391  0.0960 -0.0224  0.2032
 2260SOL    HW2 8812   2.992   3.612   4.334 -0.3909  0.5720  0.6333
 2260SOL    HW3 8813   3.021   3.539   4.463 -0.0967  0.2570  0.3881
 2260SOL    MW4 8814   2.971   3.551   4.393  0.0063  0.0929  0.2843
 2261SOL     OW 8815   2.272   1.091   1.933  0.6356 -0.2987  0.5971
 2261SOL    HW2 8816   2.305   1.146   1.862 -0.6070  0.1522  0.3501
 2261SOL    HW3 8817   2.236   1.014   1.889 -4.4696  1.9596  0.0795
 2261SOL    MW4 8818   2.271   1.088   1.918 -0.2020  0.0588  0.4962
 2262SOL     OW 8819   4.890   5.332   4.928  0.4814 -0.8244  0.3186
 2262SOL    HW2 8820   4.909   5.312   4.836  1.0939 -2.6796  0.8102
 2262SOL    HW3 8821   4.958   5.395   4.954 -0.4486  0.7296 -0.7969
 2262SOL    MW4 8822   4.901   5.338   4.919  0.4395 -0.8641  0.2363
 2263SOL     OW 8823   1.662   2.510   5.702 -0.8189  0.3765  0.1042
 2263SOL    HW2 8824   1.596   2.465   5.755 -0.2184 -0.9387 -0.2360
 2263SOL    HW3 8825   1.661   2.600   5.735 -1.5240 -0.0455  1.3083
 2263SOL    MW4 8826   1.653   2.516   5.713 -0.8327  0.1473  0.2182
 2264SOL     OW 8827   4.340   6.094   4.196 -0.7690  0.1133  0.0875
 2264SOL    HW2 8828   4.260   6.044   4.185 -0.6888 -0.1473  0.6611
 2264SOL    HW3 8829   4.409   6.028   4.203 -0.4141  0.3475 -1.0409
 2264SOL    MW4 8830   4.339   6.079   4.196 -0.7116  0.1098  0.0143
 2265SOL     OW 8831   1.554   2.083   3.451 -0.6780  0.5930 -0.0052
 2265SOL    HW2 8832   1.587   1.996   3.475 -1.2381 -0.1358 -1.7382
 2265SOL    HW3 8833   1.632   2.136   3.439 -0.2960  0.0883  0.2049
 2265SOL    MW4 8834   1.568   2.078   3.453 -0.7015  0.4302 -0.2061
 2266SOL     OW 8835   3.373   4.046   2.420  0.0390 -0.0239 -0.4682
 2266SOL    HW2 8836   3.400   4.069   2.509  3.0699 -3.1634 -0.3406
 2266SOL    HW3 8837   3.282   4.017   2.429  0.4523 -0.8199  1.7720
 2266SOL    MW4 8838   3.364   4.045   2.433  0.4934 -0.5432 -0.1558
 2267SOL     OW 8839   4.718   2.808   4.443  0.6189 -0.1358 -0.1497
 2267SOL    HW2 8840   4.701   2.896   4.408 -1.3701  0.1985  1.4041
 2267SOL    HW3 8841   4.790   2.774   4.391  1.3531  2.3662 -0.9084
 2267SOL    MW4 8842   4.725   2.815   4.432  0.4533  0.2384 -0.0448
 2268SOL     OW 8843   2.600   0.278   4.834 -0.1634 -0.3933  0.6925
 2268SOL    HW2 8844   2.649   0.357   4.810 -1.4856  0.6314  1.2158
 2268SOL    HW3 8845   2.533   0.270   4.766  0.1650 -1.2726  0.4605
 2268SOL    MW4 8846   2.597   0.287   4.822 -0.2945 -0.3741  0.7310
 2269SOL     OW 8847   3.191   5.600   4.626  0.3652  0.1659 -0.1510
 2269SOL    HW2 8848   3.193   5.589   4.721  0.8510 -2.5887 -0.4126
 2269SOL    HW3 8849   3.099   5.586   4.602 -0.0013  2.1010 -0.0207
 2269SOL    MW4 8850   3.179   5.597   4.635  0.3810  0.0577 -0.1683
 2270SOL     OW 8851   1.660   4.663   3.359  0.3096  0.1727 -0.2527
 2270SOL    HW2 8852   1.566   4.646   3.349  0.3301  0.2603 -0.6234
 2270SOL    HW3 8853   1.687   4.608   3.432  0.1754 -0.6520 -0.8042
 2270SOL    MW4 8854   1.651   4.654   3.367  0.2946  0.0755 -0.3744
 2271SOL     OW 8855   0.164   1.573   5.039 -0.6699  0.0977  0.0843
 2271SOL    HW2 8856   0.131   1.615   4.960 -0.7831  1.2278  0.7094
 2271SOL    HW3 8857   0.096   1.590   5.105 -1.0117 -1.6154  0.2036
 2271SOL    MW4 8858   0.150   1.581   5.037 -0.7299  0.0208  0.1825
 2272SOL     OW 8859   6.179   2.524   3.792  0.0334  0.2786 -0.2546
 2272SOL    HW2 8860   6.233   2.598   3.820 -1.7868  0.8464  2.0539
 2272SOL    HW3 8861   6.095   2.563   3.770  0.1274 -0.7158 -2.7669
 2272SOL    MW4 8862   6.175   2.539   3.793 -0.1944  0.2223 -0.2815
 2273SOL     OW 8863   1.524   3.304   0.918  0.3307  0.4917  0.0753
 2273SOL    HW2 8864   1.600   3.302   0.976  0.3569  0.1225  0.0288
 2273SOL    HW3 8865   1.518   3.215   0.883  0.7090  0.8674 -1.0039
 2273SOL    MW4 8866   1.533   3.292   0.921  0.3841  0.4926 -0.0732
 2274SOL     OW 8867   3.631   5.062   3.278  0.0598  0.2353 -0.4422
 2274SOL    HW2 8868   3.554   5.100   3.235 -0.0387  1.5543  0.8235
 2274SOL    HW3 8869   3.673   5.010   3.210 -1.6529 -0.0782 -1.3160
 2274SOL    MW4 8870   3.626   5.060   3.263 -0.1792  0.3679 -0.3905
 2275SOL     OW 8871   3.917   3.000   4.617 -0.6932  0.1402  0.1125
 2275SOL    HW2 8872   3.823   2.983   4.624 -0.3333 -2.5962 -0.5273
 2275SOL    HW3 8873   3.952   2.923   4.572  1.5992  1.9884 -1.5256
 2275SOL    MW4 8874   3.910   2.987   4.612 -0.3432  0.0230 -0.1880
 2276SOL     OW 8875   0.527   1.347   0.435  0.2865  0.1631 -0.0342
 2276SOL    HW2 8876   0.434   1.337   0.413  0.5692 -1.5602 -0.5676
 2276SOL    HW3 8877   0.536   1.304   0.520  0.6746 -0.0440 -0.1807
 2276SOL    MW4 8878   0.516   1.340   0.443  0.3750 -0.0916 -0.1239
 2277SOL     OW 8879   0.159   2.094   1.600 -0.7133 -0.7449 -0.2461
 2277SOL    HW2 8880   0.249   2.090   1.631 -0.6206  0.5638 -0.3035
 2277SOL    HW3 8881   0.106   2.097   1.679 -0.5855  0.4295 -0.1807
 2277SOL    MW4 8882   0.164   2.094   1.614 -0.6842 -0.4173 -0.2450
 2278SOL     OW 8883   4.972   0.954   4.737  0.4818  0.0437  0.2310
 2278SOL    HW2 8884   5.013   0.985   4.817  0.4724  0.2673  0.1504
 2278SOL    HW3 8885   4.885   0.925   4.764  1.0299 -1.3418  0.5685
 2278SOL    MW4 8886   4.966   0.954   4.751  0.5529 -0.1096  0.2649
 2279SOL     OW 8887   6.118   3.989   1.997  0.0558  0.4509  0.0541
 2279SOL    HW2 8888   6.174   3.918   2.027  0.1056  0.8516  0.9195
 2279SOL    HW3 8889   6.056   4.002   2.068 -0.1222  1.1054 -0.2169
 2279SOL    MW4 8890   6.117   3.981   2.010  0.0389  0.5901  0.1325
 2280SOL     OW 8891   4.254   0.987   5.638  0.1196 -0.0249 -0.2494
 2280SOL    HW2 8892   4.229   1.080   5.644 -1.0708 -0.3782  0.5162
 2280SOL    HW3 8893   4.232   0.963   5.548  0.7703  0.5218 -0.5643
 2280SOL    MW4 8894   4.248   0.996   5.627  0.0484  0.0006 -0.1899
 2281SOL     OW 8895   6.351   5.755   0.642 -0.3963  0.4494 -0.4478
 2281SOL    HW2 8896   6.396   5.693   0.584 -1.8364 -1.0107 -0.0659
 2281SOL    HW3 8897   6.272   5.709   0.670 -0.9007  2.0105  0.8444
 2281SOL    MW4 8898   6.346   5.741   0.638 -0.6528  0.4627 -0.2269
 2282SOL     OW 8899   3.432   6.305   5.212 -0.1994 -0.1120  0.8442
 2282SOL    HW2 8900   3.358   6.364   5.227 -0.0232  0.5926 -0.8067
 2282SOL    HW3 8901   3.405   6.252   5.137  1.6850  1.5553 -1.1618
 2282SOL    MW4 8902   3.419   6.306   5.204  0.0724  0.2010  0.3617
 2283SOL     OW 8903   3.031   0.878   2.980  0.2385 -0.2992  0.1746
 2283SOL    HW2 8904   3.112   0.828   2.983 -0.2131 -1.0094  0.8709
 2283SOL    HW3 8905   2.962   0.815   3.003 -0.6699 -0.0228 -1.6015
 2283SOL    MW4 8906   3.032   0.863   2.983  0.0590 -0.3565  0.0321
 2284SOL     OW 8907   1.220   1.174   2.318 -0.2186 -0.4101  0.5802
 2284SOL    HW2 8908   1.194   1.249   2.371 -1.7572 -1.3601  1.2587
 2284SOL    HW3 8909   1.137   1.133   2.294  0.5579 -1.4010 -0.5153
 2284SOL    MW4 8910   1.205   1.179   2.322 -0.3191 -0.6662  0.5252
 2285SOL     OW 8911   1.451   2.780   4.246 -0.7679  0.5142  0.2545
 2285SOL    HW2 8912   1.447   2.875   4.251 -2.0751  0.5546 -0.8780
 2285SOL    HW3 8913   1.394   2.758   4.173 -0.7708 -1.1675  0.7276
 2285SOL    MW4 8914   1.443   2.790   4.237 -0.9408  0.2976  0.1675
 2286SOL     OW 8915   5.058   5.064   0.839  0.2900 -0.1041  0.4139
 2286SOL    HW2 8916   5.079   5.048   0.747  0.2470  0.5358  0.2912
 2286SOL    HW3 8917   5.034   5.157   0.843 -1.8096 -0.6074  0.6673
 2286SOL    MW4 8918   5.057   5.074   0.828  0.0073 -0.0861  0.4312
 2287SOL     OW 8919   6.315   1.812   3.523  0.0700  0.1162 -0.3049
 2287SOL    HW2 8920   6.388   1.822   3.463  0.3000 -0.8608 -0.2066
 2287SOL    HW3 8921   6.288   1.901   3.544  1.5040  0.5105 -0.0138
 2287SOL    MW4 8922   6.321   1.825   3.518  0.2896  0.0393 -0.2535
 2288SOL     OW 8923   2.212   0.737   3.356  0.5341 -0.2689 -0.2055
 2288SOL    HW2 8924   2.151   0.742   3.282  0.9751 -0.7322 -0.6030
 2288SOL    HW3 8925   2.291   0.781   3.324  0.8396 -0.7560 -0.1242
 2288SOL    MW4 8926   2.215   0.744   3.342  0.6326 -0.3943 -0.2472
 2289SOL     OW 8927   3.566   1.943   1.907  0.2010 -0.2807  0.2095
 2289SOL    HW2 8928   3.619   1.868   1.934  1.5945  0.1663 -1.1296
 2289SOL    HW3 8929   3.540   1.984   1.990  0.5609 -1.4407  0.9363
 2289SOL    MW4 8930   3.570   1.938   1.922  0.4324 -0.3747  0.1287
 2290SOL     OW 8931   3.479   3.032   1.609  0.1845  0.1210  0.7153
 2290SOL    HW2 8932   3.459   2.981   1.531 -1.2886  0.3911  0.8886
 2290SOL    HW3 8933   3.457   3.122   1.585 -1.0709  0.0973  1.6652
 2290SOL    MW4 8934   3.473   3.037   1.596 -0.1755  0.1535  0.8635
 2291SOL     OW 8935   3.224   3.856   5.266  0.0214  0.6010 -0.0061
 2291SOL    HW2 8936   3.301   3.876   5.318  0.1641  0.5997 -0.2155
 2291SOL    HW3 8937   3.226   3.761   5.256  0.4758  0.6755 -0.7450
 2291SOL    MW4 8938   3.234   3.846   5.272  0.1002  0.6107 -0.1312
 2292SOL     OW 8939   4.547   4.712   2.537 -0.2201 -0.4179  0.0912
 2292SOL    HW2 8940   4.494   4.760   2.601 -3.6706 -0.8623 -2.1504
 2292SOL    HW3 8941   4.547   4.622   2.569  2.0369  0.1006  1.7379
 2292SOL    MW4 8942   4.540   4.706   2.550 -0.3776 -0.4081  0.0127
 2293SOL     OW 8943   4.132   2.848   3.875  0.1645 -0.0822  1.0739
 2293SOL    HW2 8944   4.118   2.773   3.817 -0.4117  1.2881 -0.6608
 2293SOL    HW3 8945   4.215   2.886   3.846 -0.7482  1.3649  0.2058
 2293SOL    MW4 8946   4.141   2.843   3.863 -0.0319  0.2895  0.7305
 2294SOL     OW 8947   3.429   2.089   4.477  0.0335  0.0604 -0.2514
 2294SOL    HW2 8948   3.385   2.028   4.417 -1.1890  1.3971 -0.7845
 2294SOL    HW3 8949   3.522   2.073   4.463 -0.2311 -2.2345  0.2330
 2294SOL    MW4 8950   3.436   2.079   4.467 -0.1627 -0.0660 -0.2578
 2295SOL     OW 8951   1.958   1.141   2.283  0.2519  0.0434 -0.2867
 2295SOL    HW2 8952   1.914   1.161   2.200  2.1044  1.6928 -0.9369
 2295SOL    HW3 8953   1.962   1.225   2.329 -0.4113 -0.7742  1.3666
 2295SOL    MW4 8954   1.952   1.154   2.278  0.4088  0.1532 -0.1544
 2296SOL     OW 8955   2.908   4.344   3.115 -0.3411 -0.2084  0.5522
 2296SOL    HW2 8956   2.951   4.282   3.056 -0.8899 -1.6422  1.5822
 2296SOL    HW3 8957   2.977   4.376   3.172  0.1253  0.9102 -0.5996
 2296SOL    MW4 8958   2.923   4.340   3.115 -0.3520 -0.2500  0.5361
 2297SOL     OW 8959   6.132   0.665   0.790 -0.2740  0.3612 -0.1741
 2297SOL    HW2 8960   6.046   0.622   0.786 -1.1166  2.0080 -0.2408
 2297SOL    HW3 8961   6.163   0.664   0.699 -0.0356 -0.5351 -0.1009
 2297SOL    MW4 8962   6.124   0.659   0.777 -0.3537  0.4602 -0.1732
 2298SOL     OW 8963   3.145   5.083   6.244  0.3939 -0.2792  0.6312
 2298SOL    HW2 8964   3.131   5.126   6.328 -1.7652 -3.5019  2.1099
 2298SOL    HW3 8965   3.058   5.073   6.207  1.1654 -0.4073 -1.2651
 2298SOL    MW4 8966   3.132   5.088   6.250  0.2108 -0.7213  0.5761
 2299SOL     OW 8967   4.736   4.302   6.381  0.0990 -0.4260 -0.5571
 2299SOL    HW2 8968   4.759   4.338   6.466 -0.3431 -2.0481  0.2961
 2299SOL    HW3 8969   4.665   4.359   6.349  1.1205  0.9436 -0.4458
 2299SOL    MW4 8970   4.729   4.314   6.388  0.1754 -0.4593 -0.4298
 2300SOL     OW 8971   5.525   2.025   3.178  0.7499 -0.2180 -0.1545
 2300SOL    HW2 8972   5.475   2.024   3.260 -1.0049 -0.1072 -1.1727
 2300SOL    HW3 8973   5.513   2.114   3.145  1.0092 -0.4111 -0.7774
 2300SOL    MW4 8974   5.516   2.037   3.185  0.5526 -0.2288 -0.3710
 2301SOL     OW 8975   4.541   1.452   0.925  0.0783  0.1403 -0.1731
 2301SOL    HW2 8976   4.451   1.454   0.892 -1.6125 -0.8296  3.8310
 2301SOL    HW3 8977   4.569   1.544   0.921 -0.0718  0.1673 -3.5810
 2301SOL    MW4 8978   4.532   1.465   0.920 -0.1646  0.0159 -0.0944
 2302SOL     OW 8979   1.177   1.724   1.168  0.3135  0.0126 -0.2661
 2302SOL    HW2 8980   1.263   1.740   1.208 -0.0739 -1.4569  1.2603
 2302SOL    HW3 8981   1.114   1.740   1.238 -0.7845  1.8457 -1.5689
 2302SOL    MW4 8982   1.180   1.728   1.182  0.1175  0.0605 -0.2366
 2303SOL     OW 8983   0.801   3.740   0.452 -0.2896  1.0262  0.0490
 2303SOL    HW2 8984   0.757   3.669   0.405 -0.7746  1.9681 -0.9443
 2303SOL    HW3 8985   0.868   3.696   0.504 -1.6018 -0.3197  0.6698
 2303SOL    MW4 8986   0.804   3.725   0.453 -0.5267  0.9729 -0.0001
 2304SOL     OW 8987   5.748   0.233   2.479  0.8907  0.8475 -0.4810
 2304SOL    HW2 8988   5.728   0.143   2.501  0.5533  0.9161 -0.5111
 2304SOL    HW3 8989   5.736   0.239   2.384  2.5237  0.5052 -0.7476
 2304SOL    MW4 8990   5.744   0.222   2.470  1.0616  0.8114 -0.5201
 2305SOL     OW 8991   2.149   4.051   1.585 -0.3472  0.2999 -0.0970
 2305SOL    HW2 8992   2.223   4.006   1.627  0.1206  0.2211 -0.9929
 2305SOL    HW3 8993   2.109   4.102   1.655  1.2122  1.1985  0.1596
 2305SOL    MW4 8994   2.153   4.052   1.600 -0.0798  0.4080 -0.1814
 2306SOL     OW 8995   2.146   0.498   4.344  0.1279  0.3858 -0.5827
 2306SOL    HW2 8996   2.198   0.449   4.407  0.8375 -0.9696 -2.1235
 2306SOL    HW3 8997   2.211   0.548   4.294 -0.2917  0.5169 -1.0001
 2306SOL    MW4 8998   2.162   0.498   4.345  0.1662  0.2243 -0.8410
 2307SOL     OW 8999   0.326   5.487   4.518  0.7871 -0.1434 -0.0744
 2307SOL    HW2 9000   0.314   5.582   4.509  1.5365 -0.0070  0.2679
 2307SOL    HW3 9001   0.420   5.473   4.502  0.1755 -1.2559 -3.5197
 2307SOL    MW4 9002   0.337   5.498   4.515  0.8053 -0.2722 -0.4838
 2308SOL     OW 9003   6.039   3.683   5.675  0.6970  0.4251  0.0012
 2308SOL    HW2 9004   6.106   3.620   5.704  1.9426  0.3839 -2.6436
 2308SOL    HW3 9005   6.087   3.764   5.661  0.1882  0.4478 -1.7902
 2308SOL    MW4 9006   6.054   3.685   5.677  0.7942  0.4227 -0.5841
 2309SOL     OW 9007   0.454   2.746   0.804  0.1856  0.2171 -0.0954
 2309SOL    HW2 9008   0.443   2.816   0.868  2.6315  0.3306  0.2858
 2309SOL    HW3 9009   0.471   2.790   0.721  1.4884  0.1294  0.0985
 2309SOL    MW4 9010   0.455   2.761   0.802  0.6802  0.2205 -0.0196
 2310SOL     OW 9011   2.044   3.638   5.236  0.3061  0.0914 -0.1806
 2310SOL    HW2 9012   2.092   3.690   5.172  0.1213 -0.5566 -0.8559
 2310SOL    HW3 9013   2.085   3.660   5.320  1.0730  0.3497 -0.6106
 2310SOL    MW4 9014   2.055   3.648   5.239  0.3829  0.0400 -0.3264
 2311SOL     OW 9015   1.525   5.592   1.520 -0.1424 -0.0170 -0.0920
 2311SOL    HW2 9016   1.544   5.672   1.471  0.0551  0.2420  0.3989
 2311SOL    HW3 9017   1.610   5.549   1.527  0.0020  0.4101  0.8299
 2311SOL    MW4 9018   1.539   5.597   1.514 -0.0973  0.0735  0.0944
 2312SOL     OW 9019   4.414   5.348   2.008 -0.0906 -0.0007  0.2723
 2312SOL    HW2 9020   4.451   5.421   2.057 -0.4501  0.5762 -0.2880
 2312SOL    HW3 9021   4.325   5.377   1.986 -0.4306 -0.8281  0.4977
 2312SOL    MW4 9022   4.407   5.361   2.011 -0.1829 -0.0338  0.2281
 2313SOL     OW 9023   1.087   0.193   2.294 -0.5760 -0.2441  0.4083
 2313SOL    HW2 9024   1.143   0.212   2.219  0.2252 -1.2440  0.7334
 2313SOL    HW3 9025   0.999   0.186   2.257 -0.3273  0.2256 -0.2869
 2313SOL    MW4 9026   1.083   0.194   2.279 -0.4375 -0.3140  0.3595
 2314SOL     OW 9027   2.209   5.571   2.727 -0.4943  0.9407 -0.2374
 2314SOL    HW2 9028   2.131   5.516   2.718  0.3619 -0.4752  0.5101
 2314SOL    HW3 9029   2.219   5.582   2.822  0.1886  1.1330 -0.3270
 2314SOL    MW4 9030   2.200   5.565   2.738 -0.2913  0.7793 -0.1506
 2315SOL     OW 9031   4.854   0.175   4.972  0.2513 -0.1847  0.0686
 2315SOL    HW2 9032   4.878   0.093   5.015 -2.1690 -2.6996 -2.9371
 2315SOL    HW3 9033   4.778   0.207   5.020 -0.5538 -1.3106 -0.4168
 2315SOL    MW4 9034   4.847   0.168   4.984 -0.1743 -0.6650 -0.3920
 2316SOL     OW 9035   1.525   0.643   4.420 -0.1909  0.1130  0.0293
 2316SOL    HW2 9036   1.498   0.627   4.510 -0.3098 -1.5974 -0.2748
 2316SOL    HW3 9037   1.532   0.738   4.413  1.2661  0.2260  2.2471
 2316SOL    MW4 9038   1.522   0.653   4.431 -0.0144 -0.0977  0.2818
 2317SOL     OW 9039   3.589   6.068   0.450  0.5923  0.2500 -0.3206
 2317SOL    HW2 9040   3.552   6.151   0.481 -1.8594 -0.9698  0.2722
 2317SOL    HW3 9041   3.576   6.008   0.523  1.6373 -0.8713 -1.0253
 2317SOL    MW4 9042   3.583   6.071   0.464  0.4067 -0.0589 -0.3354
 2318SOL     OW 9043   2.216   6.391   4.722  0.4191 -0.9506  0.6084
 2318SOL    HW2 9044   2.134   6.431   4.693 -0.0466 -3.1113 -1.3616
 2318SOL    HW3 9045   2.199   6.362   4.811 -0.7776 -0.8844  0.4145
 2318SOL    MW4 9046   2.203   6.393   4.730  0.1998 -1.2269  0.3229
 2319SOL     OW 9047   4.005   2.820   0.091 -0.3098 -0.4476 -0.0408
 2319SOL    HW2 9048   4.074   2.835   0.157 -0.6213  2.6623 -0.2431
 2319SOL    HW3 9049   3.925   2.811   0.142 -0.3613  0.6478  0.1110
 2319SOL    MW4 9050   4.004   2.821   0.106 -0.3577  0.1073 -0.0475
 2320SOL     OW 9051   1.933   5.475   5.394  0.2006  0.2690  0.3073
 2320SOL    HW2 9052   1.949   5.520   5.311 -0.5323  0.6991  0.3988
 2320SOL    HW3 9053   2.017   5.433   5.414  0.6096  0.7961 -0.2585
 2320SOL    MW4 9054   1.946   5.475   5.386  0.1579  0.3953  0.2447
 2321SOL     OW 9055   4.579   6.287   1.986  0.2955  0.1799 -0.2810
 2321SOL    HW2 9056   4.593   6.371   1.941  1.4921  0.8143  1.1785
 2321SOL    HW3 9057   4.550   6.312   2.074  0.9416 -0.9338  0.2625
 2321SOL    MW4 9058   4.577   6.302   1.991  0.5386  0.1167 -0.0167
 2322SOL     OW 9059   1.784   5.802   3.778 -0.1724  0.5957 -0.2642
 2322SOL    HW2 9060   1.766   5.771   3.867 -0.1780  0.6315 -0.2526
 2322SOL    HW3 9061   1.698   5.808   3.737 -0.1491  0.3329 -0.3545
 2322SOL    MW4 9062   1.770   5.799   3.784 -0.1700  0.5657 -0.2746
 2323SOL     OW 9063   4.846   4.836   1.919 -0.1648  0.1880  0.2536
 2323SOL    HW2 9064   4.763   4.874   1.893  0.5316  0.6605 -1.3996
 2323SOL    HW3 9065   4.837   4.743   1.898 -0.5823  0.0629  0.9425
 2323SOL    MW4 9066   4.834   4.829   1.913 -0.1280  0.2338  0.1264
 2324SOL     OW 9067   1.986   4.759   0.053  0.1391 -0.0131  0.7303
 2324SOL    HW2 9068   1.995   4.851   0.027 -0.6393 -0.0937  0.1276
 2324SOL    HW3 9069   1.919   4.760   0.122 -1.6561 -0.3448 -0.8970
 2324SOL    MW4 9070   1.978   4.771   0.059 -0.2004 -0.0675  0.4361
 2325SOL     OW 9071   0.139   6.299   4.400 -0.1586 -0.0861 -0.2367
 2325SOL    HW2 9072   0.048   6.270   4.394 -0.4944  1.1045 -1.9814
 2325SOL    HW3 9073   0.183   6.233   4.454 -2.0172 -0.7443  0.5461
 2325SOL    MW4 9074   0.133   6.287   4.406 -0.4482 -0.0158 -0.3636
 2326SOL     OW 9075   5.899   5.224   5.761 -0.1518 -0.5187 -0.0304
 2326SOL    HW2 9076   5.964   5.289   5.734  0.9097 -1.0936  1.0235
 2326SOL    HW3 9077   5.888   5.239   5.855 -2.8796  0.6772 -0.4658
 2326SOL    MW4 9078   5.906   5.235   5.770 -0.3717 -0.4367  0.0512
 2327SOL     OW 9079   2.050   1.558   0.982  0.3635  0.3517  0.4764
 2327SOL    HW2 9080   2.137   1.575   1.018 -0.1263  0.5637  1.5851
 2327SOL    HW3 9081   1.992   1.615   1.031 -0.3252  0.7266 -0.7359
 2327SOL    MW4 9082   2.054   1.568   0.993  0.2080  0.4291  0.4627
 2328SOL     OW 9083   5.030   2.702   3.063  0.3869 -0.6304 -0.5891
 2328SOL    HW2 9084   5.016   2.720   3.156 -0.3423  0.4392 -0.8961
 2328SOL    HW3 9085   5.120   2.729   3.047  0.2889 -0.1539 -0.3456
 2328SOL    MW4 9086   5.040   2.708   3.073  0.2778 -0.4264 -0.5975
 2329SOL     OW 9087   4.700   1.614   6.143  0.3575 -0.1180  0.0339
 2329SOL    HW2 9088   4.790   1.586   6.130  0.5039 -0.2839  1.2664
 2329SOL    HW3 9089   4.692   1.696   6.094  1.1477 -0.1487 -0.1454
 2329SOL    MW4 9090   4.711   1.621   6.135  0.4810 -0.1439  0.1728
 2330SOL     OW 9091   0.236   5.252   1.023  0.3741 -0.1276 -0.1801
 2330SOL    HW2 9092   0.165   5.231   1.083 -0.9601 -0.3465 -1.7402
 2330SOL    HW3 9093   0.278   5.168   1.004  2.2184  0.2053  2.0293
 2330SOL    MW4 9094   0.232   5.238   1.028  0.4414 -0.1126 -0.0944
 2331SOL     OW 9095   3.315   2.183   6.331  0.1461 -0.1660  0.0181
 2331SOL    HW2 9096   3.298   2.240   6.255 -3.9044 -0.7093  0.3052
 2331SOL    HW3 9097   3.305   2.241   6.407  0.9492 -0.2962  0.2313
 2331SOL    MW4 9098   3.311   2.198   6.331 -0.2823 -0.2548  0.0841
 2332SOL     OW 9099   2.058   5.653   6.371 -0.3955  0.2318 -0.0263
 2332SOL    HW2 9100   2.112   5.630   6.446 -0.7617 -0.1690  0.1216
 2332SOL    HW3 9101   1.972   5.671   6.408 -0.8823 -1.0963 -0.4619
 2332SOL    MW4 9102   2.054   5.653   6.386 -0.5080  0.0037 -0.0643
 2333SOL     OW 9103   1.060   2.513   0.513  0.0095 -0.5728 -0.5227
 2333SOL    HW2 9104   1.129   2.576   0.534 -0.4807 -0.0786 -0.3533
 2333SOL    HW3 9105   1.057   2.455   0.589  0.3441 -0.6892 -0.5989
 2333SOL    MW4 9106   1.068   2.514   0.526 -0.0110 -0.5229 -0.5104
 2334SOL     OW 9107   0.631   2.438   5.538  0.8476 -0.5353 -0.1801
 2334SOL    HW2 9108   0.671   2.460   5.454  1.4950  0.7134  0.4300
 2334SOL    HW3 9109   0.557   2.381   5.515  1.4366 -0.7858 -1.5272
 2334SOL    MW4 9110   0.626   2.433   5.523  1.0108 -0.4036 -0.2774
 2335SOL     OW 9111   6.269   3.999   1.060  0.6735 -0.3538 -0.1015
 2335SOL    HW2 9112   6.208   4.025   0.990  0.7485 -2.0799 -0.8730
 2335SOL    HW3 9113   6.318   4.079   1.080 -1.6737  1.0652  0.4160
 2335SOL    MW4 9114   6.267   4.013   1.053  0.3737 -0.3943 -0.1350
 2336SOL     OW 9115   1.117   1.021   4.402 -0.4127 -0.3890 -0.5037
 2336SOL    HW2 9116   1.132   0.940   4.354  1.5658 -1.1823  1.2964
 2336SOL    HW3 9117   1.104   0.994   4.493 -0.0177  1.2664  0.0884
 2336SOL    MW4 9118   1.117   1.007   4.408 -0.0995 -0.2752 -0.1880
 2337SOL     OW 9119   5.589   5.845   0.047  0.3313 -0.1802 -0.7955
 2337SOL    HW2 9120   5.659   5.815   0.105  0.1762 -0.8355 -0.9350
 2337SOL    HW3 9121   5.514   5.861   0.104  1.0372  2.1051 -0.4148
 2337SOL    MW4 9122   5.588   5.843   0.062  0.4040  0.0349 -0.7637
 2338SOL     OW 9123   3.555   0.948   1.784 -0.2184  0.4256  0.1246
 2338SOL    HW2 9124   3.488   0.920   1.722 -0.6055  1.8117 -0.1195
 2338SOL    HW3 9125   3.615   0.873   1.791 -2.7801 -1.6435  1.8516
 2338SOL    MW4 9126   3.554   0.935   1.777 -0.6074  0.3355  0.3202
 2339SOL     OW 9127   1.179   4.980   2.261 -0.4966 -0.2531  0.6390
 2339SOL    HW2 9128   1.268   4.990   2.296 -0.8101 -1.0566  1.7133
 2339SOL    HW3 9129   1.183   5.020   2.174  1.5597 -2.4686 -0.3894
 2339SOL    MW4 9130   1.191   4.987   2.255 -0.2666 -0.6514  0.6451
 2340SOL     OW 9131   4.966   5.291   1.523  0.3209 -0.3991 -0.1760
 2340SOL    HW2 9132   4.963   5.383   1.500  0.9415 -0.1565  0.6463
 2340SOL    HW3 9133   4.881   5.273   1.564  0.4759 -0.0072  0.3206
 2340SOL    MW4 9134   4.954   5.301   1.525  0.4233 -0.3154 -0.0020
 2341SOL     OW 9135   2.678   2.499   4.923 -0.0239  0.1278  0.0141
 2341SOL    HW2 9136   2.615   2.429   4.938  1.1932 -1.3229 -1.3074
 2341SOL    HW3 9137   2.728   2.505   5.004 -0.7480  0.1466  0.4703
 2341SOL    MW4 9138   2.676   2.491   4.936  0.0411 -0.0611 -0.1000
 2342SOL     OW 9139   4.553   5.597   4.522 -0.0567  0.5074 -0.1603
 2342SOL    HW2 9140   4.457   5.596   4.531 -0.1052  1.8196 -0.2830
 2342SOL    HW3 9141   4.585   5.605   4.612  0.1012 -3.1020  0.2254
 2342SOL    MW4 9142   4.544   5.598   4.535 -0.0423  0.2043 -0.1256
 2343SOL     OW 9143   5.212   1.073   0.918  0.1443  0.3687 -0.4525
 2343SOL    HW2 9144   5.171   1.150   0.880 -2.1080  0.8274  2.5044
 2343SOL    HW3 9145   5.153   1.001   0.896 -0.3555  0.3854  0.7249
 2343SOL    MW4 9146   5.198   1.074   0.910 -0.2188  0.4314  0.0930
 2344SOL     OW 9147   4.678   0.725   1.668 -0.3802  0.1664 -0.2499
 2344SOL    HW2 9148   4.713   0.810   1.695 -1.5112  1.0473 -1.4335
 2344SOL    HW3 9149   4.683   0.726   1.573  0.5918 -1.5661 -0.2623
 2344SOL    MW4 9150   4.683   0.736   1.659 -0.4012  0.0540 -0.4077
 2345SOL     OW 9151   1.808   1.226   2.056  0.3516 -0.2818 -0.7975
 2345SOL    HW2 9152   1.744   1.259   2.119  2.3868  2.2038  0.1686
 2345SOL    HW3 9153   1.763   1.157   2.009 -2.1063 -0.4846  1.6457
 2345SOL    MW4 9154   1.794   1.221   2.058  0.2958  0.0194 -0.3477
 2346SOL     OW 9155   1.090   3.371   3.004  0.5755 -0.0227  0.0117
 2346SOL    HW2 9156   1.040   3.451   2.988  0.6261 -0.0170 -0.1133
 2346SOL    HW3 9157   1.103   3.333   2.918 -0.2749 -0.6626  0.1561
 2346SOL    MW4 9158   1.085   3.377   2.991  0.4700 -0.1064  0.0142
 2347SOL     OW 9159   2.843   3.100   3.326 -0.0960  0.4376  0.2454
 2347SOL    HW2 9160   2.850   3.120   3.232 -0.7406 -1.5521 -0.2910
 2347SOL    HW3 9161   2.773   3.157   3.357  0.1102  1.1129 -0.4832
 2347SOL    MW4 9162   2.834   3.110   3.317 -0.1538  0.2642  0.0785
 2348SOL     OW 9163   5.434   1.949   3.436 -0.4942 -0.0614  0.0022
 2348SOL    HW2 9164   5.386   1.866   3.439 -1.1594  0.3280  0.3627
 2348SOL    HW3 9165   5.365   2.016   3.439  0.0823  0.5092  0.7322
 2348SOL    MW4 9166   5.418   1.947   3.436 -0.5059  0.0653  0.1461
 2349SOL     OW 9167   5.442   6.074   4.967  0.1243  0.1837  0.0116
 2349SOL    HW2 9168   5.362   6.069   4.914  0.0600 -1.4476  0.2097
 2349SOL    HW3 9169   5.414   6.051   5.055  0.6036  0.8742  0.3541
 2349SOL    MW4 9170   5.427   6.071   4.972  0.1790  0.0596  0.0830
 2350SOL     OW 9171   2.765   0.159   2.307  0.3199  0.1437  0.1023
 2350SOL    HW2 9172   2.823   0.100   2.260  0.1766 -0.5026  0.7167
 2350SOL    HW3 9173   2.731   0.107   2.380  1.6183  1.4959  1.7787
 2350SOL    MW4 9174   2.768   0.145   2.310  0.4723  0.2368  0.4046
 2351SOL     OW 9175   6.221   3.108   2.161  0.4581  0.2726 -0.8417
 2351SOL    HW2 9176   6.229   3.105   2.066 -0.3381  0.3442 -0.9197
 2351SOL    HW3 9177   6.172   3.189   2.179  0.3000  0.0868 -0.4017
 2351SOL    MW4 9178   6.215   3.118   2.151  0.3322  0.2575 -0.7940
 2352SOL     OW 9179  -0.002   5.892   6.037  0.6912  0.1853  0.0960
 2352SOL    HW2 9180   0.081   5.868   6.077  2.2480  1.1995 -2.2940
 2352SOL    HW3 9181  -0.052   5.933   6.107  2.2364 -0.3398  1.5634
 2352SOL    MW4 9182   0.002   5.894   6.051  1.1005  0.2499 -0.0257
 2353SOL     OW 9183   4.240   3.972   4.245  0.1854 -0.1686 -0.0521
 2353SOL    HW2 9184   4.317   4.003   4.293  1.0595 -2.0272 -0.1547
 2353SOL    HW3 9185   4.275   3.909   4.182 -1.4397 -1.1512 -0.0285
 2353SOL    MW4 9186   4.255   3.968   4.243  0.0863 -0.5434 -0.0625
 2354SOL     OW 9187   3.015   6.350   1.618 -0.2815 -0.4083 -0.3541
 2354SOL    HW2 9188   3.069   6.273   1.601 -1.4645 -1.2031 -0.6842
 2354SOL    HW3 9189   2.985   6.378   1.532  1.3982  1.4258 -0.4055
 2354SOL    MW4 9190   3.018   6.344   1.605 -0.2160 -0.2711 -0.4045
 2355SOL     OW 9191   2.721   0.418   5.579  0.1314  0.1844  0.2109
 2355SOL    HW2 9192   2.706   0.451   5.491  1.0218 -0.5801 -0.2469
 2355SOL    HW3 9193   2.760   0.331   5.565  0.2844  0.0584  1.3585
 2355SOL    MW4 9194   2.724   0.411   5.566  0.2691  0.0669  0.3019
 2356SOL     OW 9195   0.354   3.913   1.423  0.4509  0.2665 -0.2805
 2356SOL    HW2 9196   0.410   3.902   1.346  2.0565  1.5696  0.6458
 2356SOL    HW3 9197   0.407   3.883   1.496 -0.3616  0.7893  0.5405
 2356SOL    MW4 9198   0.368   3.907   1.422  0.5555  0.5074 -0.0500
 2357SOL     OW 9199   2.360   1.841   3.235  0.1797  0.4550 -0.3617
 2357SOL    HW2 9200   2.272   1.867   3.208  0.4417  1.2917 -0.4488
 2357SOL    HW3 9201   2.414   1.919   3.220  0.7501  0.2641  0.5890
 2357SOL    MW4 9202   2.356   1.855   3.230  0.2895  0.5402 -0.2478
 2358SOL     OW 9203   5.479   1.141   3.743 -0.1676 -0.0515 -0.2056
 2358SOL    HW2 9204   5.469   1.080   3.816 -2.5197  0.6089  0.1264
 2358SOL    HW3 9205   5.485   1.086   3.666 -0.4667 -0.7398  0.2551
 2358SOL    MW4 9206   5.478   1.126   3.743 -0.5174 -0.0552 -0.1010
 2359SOL     OW 9207   3.635   4.639   2.150  0.3982  0.6408  0.1844
 2359SOL    HW2 9208   3.543   4.646   2.177 -0.1062  0.3397 -1.3507
 2359SOL    HW3 9209   3.644   4.702   2.079  1.0020 -0.3237 -0.6170
 2359SOL    MW4 9210   3.624   4.648   2.145  0.4113  0.4738 -0.1239
 2360SOL     OW 9211   1.093   4.942   4.329  0.5230 -0.6829 -0.0578
 2360SOL    HW2 9212   1.062   4.947   4.419 -1.2970  2.5575 -0.6863
 2360SOL    HW3 9213   1.062   4.857   4.297  0.9763 -1.7667  2.2309
 2360SOL    MW4 9214   1.085   4.931   4.337  0.3427 -0.3983  0.1612
 2361SOL     OW 9215   4.400   3.816   3.328 -0.2388 -0.6113  0.0319
 2361SOL    HW2 9216   4.454   3.747   3.288  0.6120  0.2017 -0.2555
 2361SOL    HW3 9217   4.357   3.858   3.254  1.4440  0.9851 -0.1059
 2361SOL    MW4 9218   4.402   3.812   3.313  0.0955 -0.2934 -0.0242
 2362SOL     OW 9219   1.892   6.302   1.494  0.0735 -0.0495  0.1181
 2362SOL    HW2 9220   1.900   6.394   1.469  2.5396 -0.2503 -0.1105
 2362SOL    HW3 9221   1.858   6.304   1.583  0.5577  1.1061  0.2887
 2362SOL    MW4 9222   1.888   6.314   1.502  0.4628  0.0764  0.1105
 2363SOL     OW 9223   4.326   0.008   1.529  0.1211 -0.0426 -0.3217
 2363SOL    HW2 9224   4.389   0.077   1.507  0.7007  0.3419  2.2688
 2363SOL    HW3 9225   4.282   0.040   1.608  0.2842 -2.5367  0.8696
 2363SOL    MW4 9226   4.328   0.021   1.537  0.2191 -0.3209  0.1773
 2364SOL     OW 9227   3.491   3.915   1.416  0.5405  0.6647  0.1539
 2364SOL    HW2 9228   3.582   3.942   1.427  0.8489 -0.1043 -0.4871
 2364SOL    HW3 9229   3.445   3.997   1.394  1.1002  1.0185  0.2772
 2364SOL    MW4 9230   3.497   3.930   1.414  0.6550  0.6099  0.0856
 2365SOL     OW 9231   2.636   5.148   0.471  0.2895 -0.1810 -1.2753
 2365SOL    HW2 9232   2.593   5.233   0.482 -0.0680 -0.4973 -0.1122
 2365SOL    HW3 9233   2.589   5.090   0.530  2.3046 -0.5508  0.0728
 2365SOL    MW4 9234   2.624   5.152   0.480  0.5082 -0.2715 -0.9440
 2366SOL     OW 9235   1.521   5.646   3.282  0.5521 -0.3639  0.5009
 2366SOL    HW2 9236   1.500   5.566   3.330  0.9508 -1.2780 -0.7762
 2366SOL    HW3 9237   1.513   5.621   3.189 -3.5519  2.1857 -0.0605
 2366SOL    MW4 9238   1.517   5.632   3.276  0.0633 -0.1481  0.2584
 2367SOL     OW 9239   0.058   4.136   4.643  0.3511  0.4565  0.2455
 2367SOL    HW2 9240  -0.015   4.194   4.664  0.4155  0.4073  0.6163
 2367SOL    HW3 9241   0.081   4.158   4.552 -1.0050 -0.5056 -0.3519
 2367SOL    MW4 9242   0.052   4.147   4.633  0.1807  0.3231  0.2156
 2368SOL     OW 9243   4.803   1.311   5.921 -0.0497 -0.1911 -0.4605
 2368SOL    HW2 9244   4.715   1.323   5.957 -0.3126 -1.6174 -0.5731
 2368SOL    HW3 9245   4.821   1.218   5.933  1.5181  0.1197 -0.3011
 2368SOL    MW4 9246   4.793   1.301   5.927  0.1225 -0.3383 -0.4543
 2369SOL     OW 9247   0.512   0.740   5.338  0.8753  0.4485  0.1357
 2369SOL    HW2 9248   0.454   0.724   5.412  1.8578  4.1886  1.9464
 2369SOL    HW3 9249   0.454   0.770   5.268  0.2582 -0.0455  0.4244
 2369SOL    MW4 9250   0.497   0.742   5.339  0.9235  0.8768  0.4127
 2370SOL     OW 9251   4.624   3.791   4.953  0.5219  0.4059 -0.4534
 2370SOL    HW2 9252   4.630   3.840   5.035  0.5097 -0.8402  0.3198
 2370SOL    HW3 9253   4.564   3.719   4.972  0.1973  0.3175 -1.6905
 2370SOL    MW4 9254   4.617   3.788   4.966  0.4775  0.2298 -0.5146
 2371SOL     OW 9255   3.493   2.480   6.416 -0.0310 -0.0755  0.0053
 2371SOL    HW2 9256   3.502   2.482   6.511  1.8364  1.0124 -0.1393
 2371SOL    HW3 9257   3.403   2.508   6.399 -0.5425 -0.7696  1.4515
 2371SOL    MW4 9258   3.482   2.484   6.426  0.1479 -0.0236  0.1770
 2372SOL     OW 9259   4.037   1.440   2.338  0.7070 -0.3532  0.2188
 2372SOL    HW2 9260   3.977   1.510   2.313 -0.0568 -0.6294  1.2322
 2372SOL    HW3 9261   4.038   1.381   2.263  1.0373  0.5108 -0.4806
 2372SOL    MW4 9262   4.029   1.442   2.325  0.6498 -0.2756  0.2603
 2373SOL     OW 9263   4.441   4.317   1.878 -0.2674 -0.0990  0.1215
 2373SOL    HW2 9264   4.376   4.272   1.824 -0.4688 -0.3630  0.5694
 2373SOL    HW3 9265   4.437   4.408   1.852 -0.6101 -0.1677 -0.0606
 2373SOL    MW4 9266   4.432   4.323   1.868 -0.3392 -0.1429  0.1566
 2374SOL     OW 9267   0.811   3.423   2.703 -0.6929 -0.1556  0.1727
 2374SOL    HW2 9268   0.892   3.383   2.736  0.6900  1.9709 -0.4615
 2374SOL    HW3 9269   0.801   3.385   2.615  1.1516  1.4611 -0.8239
 2374SOL    MW4 9270   0.820   3.413   2.695 -0.2671  0.3382 -0.0425
 2375SOL     OW 9271   1.012   2.974   0.107  0.2834  0.3727 -0.0685
 2375SOL    HW2 9272   0.943   2.913   0.132  0.1408  0.3012 -0.6257
 2375SOL    HW3 9273   1.071   2.923   0.052 -0.0304  0.8196 -0.8386
 2375SOL    MW4 9274   1.011   2.959   0.103  0.2232  0.4223 -0.2436
 2376SOL     OW 9275   2.510   1.768   0.372 -0.0968  0.1656  0.0317
 2376SOL    HW2 9276   2.558   1.731   0.297  2.5284  1.7009  0.8213
 2376SOL    HW3 9277   2.437   1.816   0.332 -0.6183 -1.6011 -1.2898
 2376SOL    MW4 9278   2.507   1.769   0.357  0.1808  0.1351 -0.0385
 2377SOL     OW 9279   0.622   2.213   2.009 -0.0878 -0.0333 -0.0047
 2377SOL    HW2 9280   0.652   2.263   2.084 -0.8604 -1.1357  1.0837
 2377SOL    HW3 9281   0.701   2.195   1.958  0.6488 -0.3279  1.2042
 2377SOL    MW4 9282   0.636   2.217   2.012 -0.0925 -0.2176  0.2984
 2378SOL     OW 9283   3.207   0.775   5.576  0.6424 -0.2981  0.0376
 2378SOL    HW2 9284   3.225   0.704   5.513 -0.2949 -0.8629  0.3729
 2378SOL    HW3 9285   3.128   0.817   5.541  0.8205  0.1670  0.1943
 2378SOL    MW4 9286   3.199   0.771   5.563  0.5423 -0.3112  0.1025
 2379SOL     OW 9287   6.326   3.062   0.862  0.1539 -0.8486 -0.0747
 2379SOL    HW2 9288   6.422   3.058   0.858  0.1905 -0.8177  0.5777
 2379SOL    HW3 9289   6.306   3.155   0.849  0.1697 -0.9453 -0.8395
 2379SOL    MW4 9290   6.336   3.074   0.860  0.1608 -0.8573 -0.0895
 2380SOL     OW 9291   0.631   1.728   4.298 -0.2996  0.2917  0.1632
 2380SOL    HW2 9292   0.655   1.686   4.380  1.4239  0.3755 -0.2561
 2380SOL    HW3 9293   0.565   1.671   4.260 -0.8530  0.0650  1.4150
 2380SOL    MW4 9294   0.626   1.715   4.304 -0.1452  0.2729  0.2731
 2381SOL     OW 9295   3.192   0.809   0.827  0.5091  0.4838 -0.4814
 2381SOL    HW2 9296   3.279   0.834   0.794 -0.5004  0.2006 -3.7409
 2381SOL    HW3 9297   3.202   0.718   0.854  0.7416 -0.4729 -3.4123
 2381SOL    MW4 9298   3.205   0.800   0.826  0.4066  0.3202 -1.2981
 2382SOL     OW 9299   0.889   1.917   2.580 -0.1830 -0.0230 -0.3506
 2382SOL    HW2 9300   0.818   1.897   2.519  1.8797  0.5576 -3.1840
 2382SOL    HW3 9301   0.849   1.975   2.645 -1.8120  2.5756 -3.3807
 2382SOL    MW4 9302   0.874   1.922   2.580 -0.1258  0.3964 -1.1242
 2383SOL     OW 9303   3.620   6.091   1.136  0.7268  0.1269  0.6413
 2383SOL    HW2 9304   3.671   6.166   1.164  0.6914  0.3850  0.0215
 2383SOL    HW3 9305   3.684   6.029   1.101  0.8455 -0.4727  1.8498
 2383SOL    MW4 9306   3.635   6.092   1.135  0.7378  0.0819  0.7190
 2384SOL     OW 9307   4.512   4.425   1.465  0.1074  0.0862  0.1455
 2384SOL    HW2 9308   4.543   4.341   1.499  0.7763 -0.7422 -2.2644
 2384SOL    HW3 9309   4.569   4.442   1.390 -1.2802  1.7351 -0.5913
 2384SOL    MW4 9310   4.524   4.416   1.459  0.0126  0.1945 -0.2696
 2385SOL     OW 9311   0.819   1.673   6.396 -0.1210 -0.8741  0.4687
 2385SOL    HW2 9312   0.901   1.652   6.441 -0.9400 -1.2528  1.8225
 2385SOL    HW3 9313   0.817   1.769   6.394  0.3237 -0.8629  0.4846
 2385SOL    MW4 9314   0.830   1.683   6.401 -0.1704 -0.9226  0.6494
 2386SOL     OW 9315   1.868   2.036   1.183 -0.3311  0.1338  0.0005
 2386SOL    HW2 9316   1.773   2.035   1.174 -0.2193  1.8892 -2.0949
 2386SOL    HW3 9317   1.884   2.083   1.265 -1.2337 -2.0516  1.5317
 2386SOL    MW4 9318   1.857   2.042   1.193 -0.4355  0.0771 -0.0740
 2387SOL     OW 9319   4.645   5.850   4.487 -0.1558 -0.1335  0.0220
 2387SOL    HW2 9320   4.598   5.767   4.500 -1.0751  0.2469 -0.7524
 2387SOL    HW3 9321   4.602   5.911   4.546  0.3981 -0.1475  0.4501
 2387SOL    MW4 9322   4.633   5.847   4.497 -0.2040 -0.0852 -0.0237
 2388SOL     OW 9323   1.900   4.730   3.845 -0.1058  0.1619  0.0090
 2388SOL    HW2 9324   1.875   4.721   3.937 -1.1277  0.6086 -0.2112
 2388SOL    HW3 9325   1.966   4.799   3.844  0.2808 -0.1919  0.4559
 2388SOL    MW4 9326   1.906   4.738   3.857 -0.1897  0.1742  0.0389
 2389SOL     OW 9327   0.608   4.387   6.030 -0.2577 -0.0010 -0.3792
 2389SOL    HW2 9328   0.532   4.444   6.018 -1.6894 -1.7202  0.2144
 2389SOL    HW3 9329   0.579   4.301   6.000  2.1141 -0.3164 -2.0385
 2389SOL    MW4 9330   0.594   4.383   6.025 -0.1337 -0.2694 -0.5198
 2390SOL     OW 9331   6.247   4.850   3.329 -0.2642  0.2855  0.1453
 2390SOL    HW2 9332   6.171   4.905   3.310  0.2324  1.4542  1.3418
 2390SOL    HW3 9333   6.231   4.817   3.417  0.6256  0.5869  0.4269
 2390SOL    MW4 9334   6.235   4.853   3.338 -0.0813  0.4794  0.3404
 2391SOL     OW 9335   5.120   1.689   2.604  0.3393  0.8171 -0.0636
 2391SOL    HW2 9336   5.132   1.720   2.514 -0.0363 -0.4997 -0.5847
 2391SOL    HW3 9337   5.110   1.594   2.596  0.1045  0.6997  1.3569
 2391SOL    MW4 9338   5.121   1.680   2.591  0.2588  0.6279  0.0551
 2392SOL     OW 9339   0.512   2.350   3.266 -0.3275  0.4853 -0.0583
 2392SOL    HW2 9340   0.555   2.266   3.249  0.0798  0.6944 -0.0745
 2392SOL    HW3 9341   0.468   2.338   3.350  0.7951  0.6578  0.5787
 2392SOL    MW4 9342   0.512   2.337   3.274 -0.1256  0.5356  0.0236
 2393SOL     OW 9343   5.260   1.311   3.152  0.5312 -0.3142  0.1927
 2393SOL    HW2 9344   5.341   1.361   3.164  0.0057  1.5705 -2.9840
 2393SOL    HW3 9345   5.234   1.328   3.061 -3.6973 -0.4053  1.1732
 2393SOL    MW4 9346   5.268   1.320   3.142 -0.0961 -0.0776 -0.0970
 2394SOL     OW 9347   2.508   2.098   3.230 -0.4927  0.0601  0.1495
 2394SOL    HW2 9348   2.525   2.158   3.158 -0.2838  0.3498  0.4344
 2394SOL    HW3 9349   2.433   2.136   3.276 -1.2680 -0.6691 -0.5085
 2394SOL    MW4 9350   2.501   2.111   3.227 -0.5674  0.0021  0.1003
 2395SOL     OW 9351   1.414   5.885   2.360 -0.1507  0.2437 -0.1537
 2395SOL    HW2 9352   1.339   5.826   2.369  0.4991 -0.8458 -1.4707
 2395SOL    HW3 9353   1.383   5.968   2.396 -1.6082 -0.4805  0.3587
 2395SOL    MW4 9354   1.400   5.888   2.366 -0.2573  0.0044 -0.2599
 2396SOL     OW 9355   2.536   3.392   0.145  0.0059  0.6661 -0.1195
 2396SOL    HW2 9356   2.447   3.364   0.167  0.4940  0.1223  1.2967
 2396SOL    HW3 9357   2.582   3.391   0.229  1.5975  0.0225 -0.9696
 2396SOL    MW4 9358   2.530   3.388   0.159  0.2803  0.5094 -0.0448
 2397SOL     OW 9359   4.767   5.665   1.592 -0.6531  0.3709 -0.3147
 2397SOL    HW2 9360   4.716   5.700   1.519 -1.1041 -0.7184 -0.5419
 2397SOL    HW3 9361   4.727   5.580   1.610  2.0047 -1.2097 -1.4554
 2397SOL    MW4 9362   4.755   5.659   1.585 -0.3620  0.0186 -0.4952
 2398SOL     OW 9363   3.630   5.252   4.740 -0.3855  0.1655  0.2480
 2398SOL    HW2 9364   3.556   5.264   4.800 -2.0754  1.5774 -1.9839
 2398SOL    HW3 9365   3.591   5.256   4.653  1.9176 -2.1528 -1.0237
 2398SOL    MW4 9366   3.615   5.254   4.737 -0.3046  0.0459 -0.2142
 2399SOL     OW 9367   5.553   5.693   5.455  0.6260 -0.0516  0.1538
 2399SOL    HW2 9368   5.539   5.608   5.497 -0.5741  0.1556  0.1990
 2399SOL    HW3 9369   5.571   5.753   5.527 -0.3945  0.0945  0.2996
 2399SOL    MW4 9370   5.554   5.690   5.470  0.3330 -0.0050  0.1790
 2400SOL     OW 9371   6.044   6.142   5.458 -0.6150  0.1726  0.6070
 2400SOL    HW2 9372   5.969   6.178   5.506 -1.6403  1.4701 -1.8083
 2400SOL    HW3 9373   6.032   6.047   5.462 -2.7407  0.3634 -0.1903
 2400SOL    MW4 9374   6.032   6.134   5.465 -1.0307  0.3690  0.1832
 2401SOL     OW 9375   2.660   5.415   5.230  0.0454 -0.0602  0.5940
 2401SOL    HW2 9376   2.714   5.341   5.202  0.2276 -0.3922  1.7670
 2401SOL    HW3 9377   2.692   5.436   5.318 -1.3680  0.0957  1.0938
 2401SOL    MW4 9378   2.671   5.408   5.238 -0.1171 -0.0835  0.8147
 2402SOL     OW 9379   0.993   0.548   5.851  0.0760 -0.0923 -0.3479
 2402SOL    HW2 9380   1.081   0.580   5.831  0.0019  1.1907  1.2055
 2402SOL    HW3 9381   1.002   0.503   5.935 -1.0198  1.4552  0.6448
 2402SOL    MW4 9382   1.006   0.546   5.859 -0.0784  0.2811 -0.0120
 2403SOL     OW 9383   5.695   4.353   2.331 -0.0640  0.2188 -0.2479
 2403SOL    HW2 9384   5.604   4.369   2.358  0.4295 -2.7181  4.0914
 2403SOL    HW3 9385   5.740   4.435   2.349 -1.2672  0.6784  0.8172
 2403SOL    MW4 9386   5.689   4.366   2.337 -0.1577 -0.1081  0.4652
 2404SOL     OW 9387   4.410   0.320   0.581 -0.2669  0.4427  0.2386
 2404SOL    HW2 9388   4.332   0.266   0.570  0.3681 -0.3814 -0.3651
 2404SOL    HW3 9389   4.422   0.325   0.676 -1.7826  1.7021  0.4070
 2404SOL    MW4 9390   4.401   0.313   0.592 -0.3831  0.5001  0.1811
 2405SOL     OW 9391   4.851   2.570   0.608 -0.2267  0.7439 -0.4907
 2405SOL    HW2 9392   4.814   2.650   0.570 -0.7644  0.6538 -0.1596
 2405SOL    HW3 9393   4.832   2.502   0.544  1.0220  1.0281 -1.2026
 2405SOL    MW4 9394   4.843   2.572   0.595 -0.1329  0.7695 -0.5409
 2406SOL     OW 9395   3.919   1.462   1.017  0.4814  0.2921 -0.8003
 2406SOL    HW2 9396   3.934   1.506   0.933  2.1829  2.0879  0.3735
 2406SOL    HW3 9397   3.881   1.529   1.073  1.0162 -0.3778  0.3972
 2406SOL    MW4 9398   3.916   1.477   1.013  0.7765  0.4406 -0.4874
 2407SOL     OW 9399   0.134   3.644   5.824  0.0991  0.1451 -0.2129
 2407SOL    HW2 9400   0.142   3.736   5.848  0.5875 -0.4880  2.3389
 2407SOL    HW3 9401   0.190   3.634   5.747  0.7574  1.7740  0.0216
 2407SOL    MW4 9402   0.142   3.655   5.817  0.2504  0.2765  0.1547
 2408SOL     OW 9403   5.840   4.272   5.540 -0.0007 -0.9349 -0.2268
 2408SOL    HW2 9404   5.828   4.329   5.464  1.0406 -0.9471 -0.4042
 2408SOL    HW3 9405   5.808   4.324   5.614  3.6585  1.1824  0.1020
 2408SOL    MW4 9406   5.834   4.286   5.540  0.6195 -0.6571 -0.2068
 2409SOL     OW 9407   2.490   6.079   4.435  0.2791 -0.1813 -0.2476
 2409SOL    HW2 9408   2.403   6.118   4.423  0.4292 -0.1080 -1.2217
 2409SOL    HW3 9409   2.473   5.989   4.461 -0.0733  0.4240  1.7999
 2409SOL    MW4 9410   2.476   6.072   4.437  0.2524 -0.0918 -0.1060
 2410SOL     OW 9411   4.082   1.666   1.245 -0.0996  0.7418  0.4375
 2410SOL    HW2 9412   4.109   1.731   1.310 -1.2063  1.1523  0.5071
 2410SOL    HW3 9413   4.144   1.594   1.256 -0.4228  0.6808  2.1199
 2410SOL    MW4 9414   4.094   1.665   1.255 -0.2883  0.7879  0.6686
 2411SOL     OW 9415   6.382   4.445   3.096 -0.1719  0.0702  0.3844
 2411SOL    HW2 9416   6.470   4.473   3.073  0.0720  1.2610  2.5003
 2411SOL    HW3 9417   6.371   4.361   3.051  1.9096  0.0529 -0.1900
 2411SOL    MW4 9418   6.392   4.437   3.087  0.1349  0.2250  0.5878
 2412SOL     OW 9419   0.111   1.508   5.630 -0.0314 -0.2900 -0.2949
 2412SOL    HW2 9420   0.185   1.530   5.573 -0.6704  0.5700 -0.8343
 2412SOL    HW3 9421   0.041   1.568   5.602 -1.4221 -2.0529 -0.8129
 2412SOL    MW4 9422   0.111   1.519   5.619 -0.2992 -0.4091 -0.4344
 2413SOL     OW 9423   4.404   4.956   0.875  0.3578  0.7678  0.1995
 2413SOL    HW2 9424   4.356   5.022   0.826  0.4101 -0.0381 -0.9827
 2413SOL    HW3 9425   4.492   4.991   0.884 -0.3010  2.0945  2.0662
 2413SOL    MW4 9426   4.409   4.969   0.870  0.2778  0.8365  0.2899
 2414SOL     OW 9427   6.252   5.155   2.903  0.0863 -0.3744  0.2627
 2414SOL    HW2 9428   6.222   5.234   2.948 -0.2238 -0.2296 -0.1969
 2414SOL    HW3 9429   6.339   5.179   2.870 -0.6123  0.2741 -1.1404
 2414SOL    MW4 9430   6.260   5.169   2.905 -0.0468 -0.2697  0.0170
 2415SOL     OW 9431   5.842   1.573   0.550  0.3330 -0.5947  0.2203
 2415SOL    HW2 9432   5.866   1.543   0.462  0.5621 -1.0915  0.4460
 2415SOL    HW3 9433   5.890   1.515   0.609  0.9118  0.3300  0.6783
 2415SOL    MW4 9434   5.851   1.561   0.546  0.4396 -0.5382  0.3105
 2416SOL     OW 9435   3.475   4.416   3.812 -0.2240 -0.4702 -0.3219
 2416SOL    HW2 9436   3.407   4.432   3.747  1.5669  0.9015 -2.0095
 2416SOL    HW3 9437   3.553   4.395   3.760  1.2197  0.3865  1.3751
 2416SOL    MW4 9438   3.476   4.415   3.797  0.2027 -0.1762 -0.3207
 2417SOL     OW 9439   2.709   5.470   5.496 -0.4699 -0.0892 -0.2074
 2417SOL    HW2 9440   2.647   5.481   5.567 -1.8765 -0.6982 -1.3040
 2417SOL    HW3 9441   2.752   5.387   5.513  0.5803  0.6526  0.9220
 2417SOL    MW4 9442   2.707   5.461   5.507 -0.5169 -0.0717 -0.2031
 2418SOL     OW 9443   2.736   6.085   0.808  0.1500  0.4666 -0.6769
 2418SOL    HW2 9444   2.822   6.120   0.832  0.0372  1.0322 -1.1011
 2418SOL    HW3 9445   2.682   6.099   0.886  0.0178  1.5439 -0.9437
 2418SOL    MW4 9446   2.740   6.091   0.822  0.1177  0.6834 -0.7681
 2419SOL     OW 9447   2.046   6.022   5.775 -0.1026  0.0573 -0.4241
 2419SOL    HW2 9448   2.093   6.105   5.785 -0.1209 -0.0049  0.2264
 2419SOL    HW3 9449   2.088   5.963   5.837  0.6003 -0.7382 -1.6318
 2419SOL    MW4 9450   2.058   6.025   5.785 -0.0123 -0.0559 -0.4977
 2420SOL     OW 9451   3.322   5.813   3.158  0.8968  0.2425 -0.2391
 2420SOL    HW2 9452   3.332   5.902   3.192  0.2286  0.5142 -0.7390
 2420SOL    HW3 9453   3.350   5.819   3.067 -0.1824  0.1928 -0.5881
 2420SOL    MW4 9454   3.327   5.826   3.151  0.6662  0.2718 -0.3511
 2421SOL     OW 9455   4.070   3.083   5.685 -0.2709 -0.4253 -0.0974
 2421SOL    HW2 9456   4.065   3.139   5.608 -0.3238  0.2503  0.3875
 2421SOL    HW3 9457   4.160   3.050   5.686  0.8606  2.3633  1.4497
 2421SOL    MW4 9458   4.081   3.086   5.675 -0.1286  0.0318  0.1707
 2422SOL     OW 9459   0.598   2.883   4.299  0.1391 -0.2203  0.4499
 2422SOL    HW2 9460   0.519   2.888   4.354  0.9593  0.8697  1.5799
 2422SOL    HW3 9461   0.609   2.789   4.282 -2.4821 -0.2985 -1.3979
 2422SOL    MW4 9462   0.589   2.871   4.304 -0.0985 -0.0868  0.3552
 2423SOL     OW 9463   0.535   5.136   3.942 -0.0082 -0.4627  0.2255
 2423SOL    HW2 9464   0.548   5.106   3.852  0.7462  0.4864  0.0074
 2423SOL    HW3 9465   0.616   5.113   3.987 -0.7057 -1.7201  0.9096
 2423SOL    MW4 9466   0.547   5.129   3.936 -0.0007 -0.5034  0.2870
 2424SOL     OW 9467   4.337   5.450   0.917 -0.3746 -0.2908 -0.3448
 2424SOL    HW2 9468   4.363   5.437   0.826  1.8770  1.4503 -0.0275
 2424SOL    HW3 9469   4.351   5.543   0.933 -3.2349  0.0118  1.0859
 2424SOL    MW4 9470   4.342   5.460   0.907 -0.4549 -0.0212 -0.1142
 2425SOL     OW 9471   4.526   0.619   6.236 -0.2654 -0.2028  0.2488
 2425SOL    HW2 9472   4.550   0.543   6.183  1.9302 -0.1965  1.1347
 2425SOL    HW3 9473   4.507   0.688   6.172 -1.2616 -1.1838 -0.5447
 2425SOL    MW4 9474   4.526   0.618   6.220 -0.1072 -0.3314  0.2610
 2426SOL     OW 9475   0.766   2.091   2.763 -0.0292 -0.3240 -0.3418
 2426SOL    HW2 9476   0.675   2.113   2.740 -0.6000 -0.5864  1.4503
 2426SOL    HW3 9477   0.810   2.176   2.768 -1.4647  0.4067  3.5507
 2426SOL    MW4 9478   0.760   2.105   2.761 -0.2939 -0.2622  0.4082
 2427SOL     OW 9479   4.105   6.281   2.432 -0.1766 -0.0012 -0.1812
 2427SOL    HW2 9480   4.086   6.187   2.421  0.6533 -0.1701 -0.2001
 2427SOL    HW3 9481   4.168   6.285   2.503 -2.1357  0.7593  1.6249
 2427SOL    MW4 9482   4.111   6.269   2.440 -0.3256  0.0769  0.0546
 2428SOL     OW 9483   6.061   3.111   1.191 -0.3239  0.7707 -0.3529
 2428SOL    HW2 9484   6.020   3.120   1.105 -0.9027  1.3290 -0.0265
 2428SOL    HW3 9485   6.131   3.047   1.177 -1.8454 -0.9066 -0.7415
 2428SOL    MW4 9486   6.065   3.104   1.178 -0.6010  0.6231 -0.3611
 2429SOL     OW 9487   0.082   4.664   0.835 -0.4964  0.2868 -0.5533
 2429SOL    HW2 9488   0.163   4.658   0.785  0.5715  1.2051  0.9651
 2429SOL    HW3 9489   0.035   4.737   0.796 -0.4686 -0.0779 -1.2724
 2429SOL    MW4 9490   0.086   4.673   0.823 -0.3519  0.3598 -0.4478
 2430SOL     OW 9491   3.834   1.124   5.818  0.3664 -0.2250  0.2020
 2430SOL    HW2 9492   3.772   1.055   5.796  0.3910 -0.2572  0.2329
 2430SOL    HW3 9493   3.917   1.078   5.834  0.6399 -0.0936 -0.7946
 2430SOL    MW4 9494   3.837   1.109   5.817  0.4057 -0.2119  0.0746
 2431SOL     OW 9495   2.335   1.671   3.007 -0.1178  0.5108 -0.4536
 2431SOL    HW2 9496   2.354   1.679   3.101 -0.4320 -1.1259 -0.2088
 2431SOL    HW3 9497   2.261   1.729   2.992 -1.8686 -1.2062  0.9587
 2431SOL    MW4 9498   2.328   1.679   3.018 -0.3902  0.0683 -0.2349
 2432SOL     OW 9499   4.973   2.339   0.920  0.0838 -0.1737 -0.1700
 2432SOL    HW2 9500   5.022   2.386   0.988  0.2735  1.3739 -1.3291
 2432SOL    HW3 9501   4.951   2.255   0.960 -0.5834  1.0146  2.1329
 2432SOL    MW4 9502   4.976   2.334   0.934  0.0208  0.1873 -0.0191
 2433SOL     OW 9503   4.024   3.597   3.285 -0.4327 -0.3105  0.3053
 2433SOL    HW2 9504   4.087   3.626   3.351  1.1995  0.7387 -1.6126
 2433SOL    HW3 9505   3.971   3.674   3.266 -0.1410 -0.2853 -0.4207
 2433SOL    MW4 9506   4.025   3.611   3.291 -0.1789 -0.1687 -0.0435
 2434SOL     OW 9507   3.483   4.279   1.966 -0.0281  0.3564  0.2268
 2434SOL    HW2 9508   3.457   4.229   2.043  3.1890  0.6387  1.6390
 2434SOL    HW3 9509   3.413   4.343   1.955 -1.5217 -0.9224  1.7081
 2434SOL    MW4 9510   3.470   4.281   1.975  0.1993  0.2249  0.6086
 2435SOL     OW 9511   1.774   5.755   1.705 -0.0082  0.3209  0.2751
 2435SOL    HW2 9512   1.863   5.751   1.740  0.4322  1.1477 -0.7033
 2435SOL    HW3 9513   1.781   5.720   1.617 -1.2199 -2.2413  1.1090
 2435SOL    MW4 9514   1.787   5.750   1.698 -0.1100  0.0920  0.2560
 2436SOL     OW 9515   2.475   3.192   0.980 -0.0363  0.4767 -0.5446
 2436SOL    HW2 9516   2.553   3.162   1.028 -0.7475  0.2808  0.5234
 2436SOL    HW3 9517   2.420   3.114   0.974  0.1301  0.4475 -1.8993
 2436SOL    MW4 9518   2.478   3.178   0.986 -0.1082  0.4470 -0.5824
 2437SOL     OW 9519   2.010   2.416   5.087 -0.1630  0.4626 -0.3239
 2437SOL    HW2 9520   1.954   2.361   5.032  0.3888  0.8169 -1.2588
 2437SOL    HW3 9521   2.071   2.355   5.127  1.9188  0.5363 -3.0966
 2437SOL    MW4 9522   2.011   2.401   5.085  0.1844  0.5190 -0.8131
 2438SOL     OW 9523   5.712   5.127   1.601 -0.1454 -0.6659 -0.1245
 2438SOL    HW2 9524   5.727   5.213   1.639 -2.0409 -0.0989 -0.5315
 2438SOL    HW3 9525   5.662   5.079   1.668 -2.4971 -0.0551 -1.3372
 2438SOL    MW4 9526   5.707   5.132   1.615 -0.7057 -0.5105 -0.3382
 2439SOL     OW 9527   3.826   1.422   2.005  0.3217  0.0436  0.2208
 2439SOL    HW2 9528   3.736   1.407   2.033  0.5859 -0.1272  1.0185
 2439SOL    HW3 9529   3.846   1.348   1.948  0.0152 -0.0028  0.1704
 2439SOL    MW4 9530   3.817   1.411   2.001  0.3161  0.0149  0.3194
 2440SOL     OW 9531   2.476   5.483   4.052  0.2715  0.0807 -0.2285
 2440SOL    HW2 9532   2.542   5.419   4.023 -0.4176 -0.3668 -0.8540
 2440SOL    HW3 9533   2.426   5.438   4.120  0.4378  0.3243  0.0567
 2440SOL    MW4 9534   2.478   5.469   4.057  0.2025  0.0538 -0.2734
 2441SOL     OW 9535   5.041   0.766   3.498  0.2914  0.3770  0.0448
 2441SOL    HW2 9536   4.948   0.743   3.506  0.3041 -1.3759 -3.2700
 2441SOL    HW3 9537   5.086   0.681   3.493  1.9583  1.2028  0.4142
 2441SOL    MW4 9538   5.035   0.752   3.499  0.5130  0.2547 -0.3438
 2442SOL     OW 9539   1.730   5.650   4.010  0.2101  0.2614 -0.1683
 2442SOL    HW2 9540   1.713   5.594   3.935 -0.6722  1.2031 -0.6894
 2442SOL    HW3 9541   1.716   5.594   4.086 -1.9598  0.0853 -0.6400
 2442SOL    MW4 9542   1.726   5.636   4.010 -0.1926  0.3624 -0.2993
 2443SOL     OW 9543   5.259   3.929   5.719  0.3056 -0.1499 -0.0826
 2443SOL    HW2 9544   5.221   3.877   5.790 -3.3632 -0.8478 -2.3194
 2443SOL    HW3 9545   5.272   3.866   5.648 -1.3907  1.3711 -1.8393
 2443SOL    MW4 9546   5.256   3.913   5.719 -0.4022 -0.0413 -0.6095
 2444SOL     OW 9547   0.135   1.430   3.412 -0.5575  0.4668 -0.5584
 2444SOL    HW2 9548   0.161   1.500   3.471 -0.2868  0.5283 -0.7474
 2444SOL    HW3 9549   0.043   1.412   3.434 -1.0317  1.7710 -1.3920
 2444SOL    MW4 9550   0.126   1.437   3.423 -0.5843  0.6470 -0.6933
 2445SOL     OW 9551   1.687   5.786   5.175  0.5792  0.4977  0.2884
 2445SOL    HW2 9552   1.763   5.728   5.173  0.1553 -0.0651  0.2021
 2445SOL    HW3 9553   1.663   5.797   5.083  0.1747  0.1576  0.3508
 2445SOL    MW4 9554   1.694   5.780   5.162  0.4699  0.3786  0.2852
 2446SOL     OW 9555   0.086   3.567   0.354  0.1790  0.4816 -0.3851
 2446SOL    HW2 9556   0.057   3.500   0.291 -0.0665  0.9108 -0.7334
 2446SOL    HW3 9557   0.173   3.592   0.323  0.6084 -0.2476  0.2100
 2446SOL    MW4 9558   0.093   3.561   0.341  0.2032  0.4420 -0.3526
 2447SOL     OW 9559   5.408   2.306   1.157 -0.4826 -0.0487  0.4117
 2447SOL    HW2 9560   5.423   2.314   1.063 -1.4988  1.3654  0.3485
 2447SOL    HW3 9561   5.352   2.229   1.166 -1.0734  0.3070 -0.2118
 2447SOL    MW4 9562   5.403   2.297   1.145 -0.6946  0.1848  0.3211
 2448SOL     OW 9563   5.129   3.991   3.342  0.3389 -0.4872  0.0230
 2448SOL    HW2 9564   5.069   4.062   3.321 -0.5663 -1.2568 -0.0898
 2448SOL    HW3 9565   5.099   3.918   3.288  0.8475 -1.1425  0.5997
 2448SOL    MW4 9566   5.117   3.990   3.332  0.2866 -0.6752  0.0842
 2449SOL     OW 9567   3.871   2.466   2.794 -0.1548  0.1618 -0.9699
 2449SOL    HW2 9568   3.925   2.501   2.865 -0.0527  1.7520 -1.7991
 2449SOL    HW3 9569   3.925   2.475   2.716 -0.6649 -0.6148 -1.4295
 2449SOL    MW4 9570   3.885   2.472   2.793 -0.2086  0.2691 -1.1399
 2450SOL     OW 9571   3.640   1.961   2.407 -0.1374 -0.3688 -0.0576
 2450SOL    HW2 9572   3.559   1.924   2.443  0.9458 -0.7965  2.0452
 2450SOL    HW3 9573   3.647   2.048   2.447  0.1640 -0.0987 -0.6798
 2450SOL    MW4 9574   3.630   1.968   2.417  0.0453 -0.3896  0.1377
 2451SOL     OW 9575   6.015   1.584   5.371  0.1708 -0.1200  0.2801
 2451SOL    HW2 9576   6.037   1.526   5.443  1.0838  0.1449  0.2244
 2451SOL    HW3 9577   5.927   1.557   5.344  0.7100 -1.6749  0.0362
 2451SOL    MW4 9578   6.006   1.573   5.377  0.3624 -0.2902  0.2406
 2452SOL     OW 9579   1.834   2.494   2.551 -0.1433 -0.5665  0.2976
 2452SOL    HW2 9580   1.788   2.562   2.502  0.4784 -0.4401 -0.1269
 2452SOL    HW3 9581   1.808   2.412   2.508  0.7691 -0.4206 -0.5721
 2452SOL    MW4 9582   1.824   2.492   2.539  0.0591 -0.5306  0.1268
 2453SOL     OW 9583   0.779   5.340   3.308  0.4811  0.0710  0.3471
 2453SOL    HW2 9584   0.841   5.301   3.246  0.8425  1.3341 -0.1015
 2453SOL    HW3 9585   0.817   5.322   3.394  2.5623  2.5111  0.0392
 2453SOL    MW4 9586   0.792   5.332   3.311  0.8034  0.5596  0.2473
 2454SOL     OW 9587   2.843   4.425   2.351 -0.0825 -0.2252  0.3397
 2454SOL    HW2 9588   2.903   4.350   2.350  1.3004  0.8381  1.2292
 2454SOL    HW3 9589   2.818   4.435   2.443 -1.6743 -0.6483 -0.0114
 2454SOL    MW4 9590   2.848   4.416   2.363 -0.1101 -0.1407  0.4108
 2455SOL     OW 9591   5.918   2.974   3.052  0.3112 -0.4678 -0.2830
 2455SOL    HW2 9592   5.846   2.923   3.014  0.7204 -0.9794 -0.3774
 2455SOL    HW3 9593   5.996   2.922   3.034  1.0607  1.2553 -2.4379
 2455SOL    MW4 9594   5.919   2.961   3.044  0.4641 -0.3080 -0.5798
 2456SOL     OW 9595   0.681   6.192   5.233 -0.2709 -0.4448  0.3304
 2456SOL    HW2 9596   0.672   6.281   5.199  1.6931 -0.2305  0.2449
 2456SOL    HW3 9597   0.601   6.176   5.283 -0.2495  1.7213  1.1416
 2456SOL    MW4 9598   0.669   6.201   5.235 -0.0090 -0.1307  0.4261
 2457SOL     OW 9599   1.179   5.632   4.412 -0.0652 -0.3596  0.8596
 2457SOL    HW2 9600   1.134   5.712   4.440  1.6296  0.5610  1.0904
 2457SOL    HW3 9601   1.249   5.663   4.354  0.7515 -1.6519  1.1075
 2457SOL    MW4 9602   1.183   5.647   4.408  0.2661 -0.4087  0.9227
 2458SOL     OW 9603   2.967   3.623   1.567  0.2372 -0.6185 -0.2838
 2458SOL    HW2 9604   3.011   3.688   1.512  1.7019 -1.2383  0.1067
 2458SOL    HW3 9605   3.037   3.567   1.599 -0.5091 -0.2068  2.3305
 2458SOL    MW4 9606   2.982   3.624   1.564  0.3319 -0.6460  0.1126
 2459SOL     OW 9607   1.681   2.107   5.469 -0.3559  0.4633 -0.2991
 2459SOL    HW2 9608   1.718   2.117   5.382  0.0230  1.3270 -0.0536
 2459SOL    HW3 9609   1.589   2.131   5.459  0.1415  2.7423 -0.0809
 2459SOL    MW4 9610   1.674   2.112   5.457 -0.2403  0.8779 -0.2379
 2460SOL     OW 9611   1.217   3.185   0.920 -0.6589  0.5299  0.1127
 2460SOL    HW2 9612   1.266   3.263   0.895  1.1334 -0.0911  1.4851
 2460SOL    HW3 9613   1.246   3.165   1.009 -3.9015  0.4431  1.2757
 2460SOL    MW4 9614   1.227   3.192   0.928 -0.8503  0.4365  0.4472
 2461SOL     OW 9615   1.529   3.281   5.814  0.3163 -0.9057 -0.0240
 2461SOL    HW2 9616   1.479   3.200   5.806 -0.0682 -0.5487 -1.5400
 2461SOL    HW3 9617   1.514   3.327   5.732  0.8313  0.5444  0.6558
 2461SOL    MW4 9618   1.520   3.276   5.802  0.3335 -0.6673 -0.1343
 2462SOL     OW 9619   0.428   0.386   4.018  0.4634  0.1420 -0.3833
 2462SOL    HW2 9620   0.391   0.392   4.106  0.3001  0.5412 -0.4782
 2462SOL    HW3 9621   0.377   0.317   3.975  0.8221 -0.3510 -0.0341
 2462SOL    MW4 9622   0.416   0.378   4.024  0.4892  0.1296 -0.3497
 2463SOL     OW 9623   2.950   1.548   1.005  0.8912 -0.1383 -0.1151
 2463SOL    HW2 9624   2.903   1.624   0.969  1.8906  1.6366  2.0716
 2463SOL    HW3 9625   3.025   1.537   0.947  0.1330 -0.2116 -1.1120
 2463SOL    MW4 9626   2.954   1.557   0.993  0.9230  0.0862  0.0419
 2464SOL     OW 9627   4.419   4.322   6.101 -0.0200 -0.0727  0.5656
 2464SOL    HW2 9628   4.349   4.382   6.075 -0.7873 -0.7192  1.1310
 2464SOL    HW3 9629   4.485   4.333   6.032 -1.0490 -0.1142 -0.4627
 2464SOL    MW4 9630   4.419   4.332   6.088 -0.2570 -0.1635  0.5045
 2465SOL     OW 9631   2.572   3.914   5.568  0.2890 -0.4405  0.2964
 2465SOL    HW2 9632   2.661   3.918   5.605 -0.4231 -0.7139  2.1458
 2465SOL    HW3 9633   2.575   3.839   5.509  1.1159 -0.9002  0.8914
 2465SOL    MW4 9634   2.584   3.904   5.565  0.3041 -0.5372  0.6189
 2466SOL     OW 9635   5.896   2.117   1.682 -0.4695 -0.2268 -0.0280
 2466SOL    HW2 9636   5.859   2.087   1.599  2.1734  1.1449 -1.8292
 2466SOL    HW3 9637   5.981   2.073   1.687 -0.5251 -0.1839  1.9413
 2466SOL    MW4 9638   5.903   2.107   1.672 -0.1282 -0.0402 -0.0059
 2467SOL     OW 9639   3.908   2.211   4.714  0.1860 -0.7654 -0.2020
 2467SOL    HW2 9640   3.825   2.201   4.762  1.0127 -1.5768  1.1126
 2467SOL    HW3 9641   3.934   2.122   4.691  0.8983 -0.5519 -0.2545
 2467SOL    MW4 9642   3.900   2.198   4.717  0.3891 -0.8443 -0.0355
 2468SOL     OW 9643   6.388   0.350   5.644 -0.4192 -0.0454  0.2516
 2468SOL    HW2 9644   6.412   0.441   5.659 -0.6705 -0.1371  1.3113
 2468SOL    HW3 9645   6.330   0.352   5.568 -0.2820  0.6586  0.1628
 2468SOL    MW4 9646   6.384   0.362   5.636 -0.4342  0.0354  0.3797
 2469SOL     OW 9647   0.861   0.587   4.405  0.4199  0.0809 -0.5545
 2469SOL    HW2 9648   0.838   0.679   4.391 -2.4664 -0.6156 -1.1104
 2469SOL    HW3 9649   0.886   0.555   4.319 -0.8249 -0.1552 -0.8518
 2469SOL    MW4 9650   0.861   0.595   4.392 -0.1252 -0.0422 -0.6670
 2470SOL     OW 9651   3.897   3.305   4.809  0.1041 -0.3027 -0.3059
 2470SOL    HW2 9652   3.807   3.301   4.842  0.7154 -0.3216  1.4798
 2470SOL    HW3 9653   3.932   3.217   4.825 -0.2562 -1.0870 -3.2797
 2470SOL    MW4 9654   3.889   3.293   4.815  0.1372 -0.4086 -0.4626
 2471SOL     OW 9655   4.096   1.803   4.897  0.3587 -0.4129 -0.1901
 2471SOL    HW2 9656   4.074   1.874   4.957 -0.7080 -1.0783  0.2299
 2471SOL    HW3 9657   4.188   1.782   4.916  0.6709  0.7999 -0.2872
 2471SOL    MW4 9658   4.106   1.809   4.907  0.2592 -0.3406 -0.1475
 2472SOL     OW 9659   4.128   1.346   3.824  0.4977 -0.7562 -0.0937
 2472SOL    HW2 9660   4.089   1.393   3.898  0.4746 -0.6625 -0.1665
 2472SOL    HW3 9661   4.054   1.305   3.780  0.3910  0.0675 -0.6972
 2472SOL    MW4 9662   4.113   1.347   3.828  0.4806 -0.6352 -0.1829
 2473SOL     OW 9663   0.697   0.454   0.612 -0.0795 -0.4264  0.1351
 2473SOL    HW2 9664   0.645   0.478   0.536 -1.2372  0.2599  1.1164
 2473SOL    HW3 9665   0.784   0.489   0.594 -0.4617  0.1183 -0.6732
 2473SOL    MW4 9666   0.702   0.462   0.600 -0.2827 -0.2640  0.1579
 2474SOL     OW 9667   5.500   3.308   2.268  0.6213 -0.5175 -0.2155
 2474SOL    HW2 9668   5.552   3.282   2.344  1.9666  1.1357 -0.5091
 2474SOL    HW3 9669   5.546   3.384   2.232 -0.2552 -0.9472 -2.4141
 2474SOL    MW4 9670   5.513   3.315   2.273  0.6832 -0.3560 -0.5443
 2475SOL     OW 9671   0.370   0.049   0.763 -0.2987  0.3289 -0.1865
 2475SOL    HW2 9672   0.322   0.118   0.809  0.4854  0.4335  0.4986
 2475SOL    HW3 9673   0.314   0.028   0.688 -0.7929  1.3525 -0.1368
 2475SOL    MW4 9674   0.356   0.056   0.759 -0.2605  0.4778 -0.0895
 2476SOL     OW 9675   1.485   4.899   4.613 -0.0043  0.3291 -0.3468
 2476SOL    HW2 9676   1.436   4.916   4.533 -2.2668 -0.3451  0.8047
 2476SOL    HW3 9677   1.571   4.938   4.598 -0.2697  0.0029 -3.1702
 2476SOL    MW4 9678   1.490   4.906   4.600 -0.3378  0.1971 -0.5674
 2477SOL     OW 9679   0.467   3.769   3.165 -0.0111 -0.5117  0.0495
 2477SOL    HW2 9680   0.458   3.755   3.259 -0.1062 -2.2059 -0.1871
 2477SOL    HW3 9681   0.391   3.822   3.141  1.2619  2.0825  1.2856
 2477SOL    MW4 9682   0.456   3.774   3.174  0.1443 -0.3929  0.1814
 2478SOL     OW 9683   6.183   3.379   1.180 -0.5637 -0.4305  0.4956
 2478SOL    HW2 9684   6.122   3.316   1.219  0.7867 -0.9523  1.8855
 2478SOL    HW3 9685   6.183   3.452   1.242 -1.3383  0.5104 -0.5806
 2478SOL    MW4 9686   6.175   3.380   1.193 -0.4877 -0.3752  0.5370
 2479SOL     OW 9687   3.092   4.293   2.076  0.5695  0.5835  0.0715
 2479SOL    HW2 9688   3.009   4.268   2.036  1.1390  0.8751 -1.3370
 2479SOL    HW3 9689   3.070   4.369   2.131 -0.3947 -0.4292  1.1165
 2479SOL    MW4 9690   3.078   4.300   2.078  0.5174  0.4883  0.0235
 2480SOL     OW 9691   1.057   2.585   2.531 -0.2609  0.4522 -0.2647
 2480SOL    HW2 9692   1.048   2.551   2.442 -0.4503 -0.0860 -0.0396
 2480SOL    HW3 9693   1.122   2.529   2.572 -0.9526  0.0207  0.2677
 2480SOL    MW4 9694   1.064   2.573   2.525 -0.3772  0.3243 -0.1648
 2481SOL     OW 9695   2.651   3.811   1.449  1.0186  0.2433  0.0759
 2481SOL    HW2 9696   2.587   3.767   1.505  0.0343  1.6253  0.0876
 2481SOL    HW3 9697   2.701   3.739   1.409  1.2289 -0.7959  2.0804
 2481SOL    MW4 9698   2.649   3.795   1.451  0.9165  0.2886  0.3419
 2482SOL     OW 9699   0.553   4.911   0.672 -0.3478 -0.2128 -0.5546
 2482SOL    HW2 9700   0.489   4.960   0.725  2.8666  3.1155  0.6355
 2482SOL    HW3 9701   0.520   4.916   0.583 -2.1563  0.6124  0.1151
 2482SOL    MW4 9702   0.540   4.918   0.668 -0.1623  0.3352 -0.3092
 2483SOL     OW 9703   0.528   6.271   5.806 -0.2723  0.2025  0.3456
 2483SOL    HW2 9704   0.457   6.215   5.774 -0.0352 -0.9161  1.6630
 2483SOL    HW3 9705   0.483   6.340   5.855 -0.5034  0.2640  0.0531
 2483SOL    MW4 9706   0.512   6.273   5.809 -0.2715  0.0631  0.4808
 2484SOL     OW 9707   5.410   4.182   0.110 -0.1847 -0.4340 -0.1516
 2484SOL    HW2 9708   5.460   4.114   0.157 -0.5416 -2.0236 -1.9595
 2484SOL    HW3 9709   5.462   4.201   0.033 -0.9489  0.0842 -0.5463
 2484SOL    MW4 9710   5.423   4.175   0.106 -0.3326 -0.5754 -0.4422
 2485SOL     OW 9711   6.412   5.302   4.872 -0.0064 -0.1854  0.1492
 2485SOL    HW2 9712   6.423   5.219   4.918  1.5006 -0.1304 -0.0555
 2485SOL    HW3 9713   6.343   5.347   4.920 -0.0895 -1.0949  0.9229
 2485SOL    MW4 9714   6.404   5.297   4.884  0.1814 -0.2981  0.2243
 2486SOL     OW 9715   2.320   0.594   1.584 -0.1875 -0.2571  0.0481
 2486SOL    HW2 9716   2.254   0.540   1.628 -0.8995 -0.5156 -1.2781
 2486SOL    HW3 9717   2.270   0.663   1.541  0.6829  1.3075  1.4313
 2486SOL    MW4 9718   2.305   0.596   1.584 -0.1666 -0.0848  0.0556
 2487SOL     OW 9719   5.798   3.288   3.659 -0.0298 -0.2301 -0.4370
 2487SOL    HW2 9720   5.864   3.321   3.598  0.4071 -0.6822 -0.2147
 2487SOL    HW3 9721   5.721   3.342   3.643  1.1596  2.0959  1.1151
 2487SOL    MW4 9722   5.797   3.299   3.649  0.1848  0.0172 -0.2029
 2488SOL     OW 9723   5.051   4.905   2.112  0.0437 -0.2086  0.3618
 2488SOL    HW2 9724   4.987   4.858   2.059 -0.9640  0.4499  0.9661
 2488SOL    HW3 9725   5.100   4.835   2.156  0.5148 -0.7421 -0.9694
 2488SOL    MW4 9726   5.049   4.889   2.111 -0.0271 -0.1921  0.2659
 2489SOL     OW 9727   2.098   0.988   6.058 -0.1074  0.4651  0.3015
 2489SOL    HW2 9728   2.019   0.979   6.112  0.1065  0.2103  0.5789
 2489SOL    HW3 9729   2.153   0.914   6.084  0.8959  1.4955  1.2510
 2489SOL    MW4 9730   2.095   0.977   6.069  0.0532  0.5674  0.4633
 2490SOL     OW 9731   0.017   2.142   3.141  0.0039  0.1722 -0.7992
 2490SOL    HW2 9732   0.043   2.114   3.053 -0.4148 -0.1597 -0.8220
 2490SOL    HW3 9733   0.098   2.174   3.181 -0.0164  1.4409 -1.7091
 2490SOL    MW4 9734   0.032   2.143   3.134 -0.0540  0.2958 -0.9222
 2491SOL     OW 9735   4.063   0.310   2.650 -0.2071  0.5083  0.2189
 2491SOL    HW2 9736   4.031   0.377   2.710  0.0346 -1.1296  2.2986
 2491SOL    HW3 9737   4.134   0.352   2.602 -0.2954  1.8555  1.2109
 2491SOL    MW4 9738   4.068   0.324   2.652 -0.1869  0.4700  0.6242
 2492SOL     OW 9739   4.619   5.664   1.973  0.3122 -0.2825 -0.1884
 2492SOL    HW2 9740   4.633   5.734   2.038 -1.0180 -1.2595  1.2184
 2492SOL    HW3 9741   4.700   5.614   1.974  0.0489 -0.7297  1.3354
 2492SOL    MW4 9742   4.631   5.667   1.982  0.1020 -0.4704  0.1983
 2493SOL     OW 9743   2.065   4.159   5.954 -0.3422 -0.0266 -0.1490
 2493SOL    HW2 9744   2.120   4.149   6.031 -1.4826  0.0469  0.7146
 2493SOL    HW3 9745   1.983   4.116   5.978 -0.6401 -0.1895 -1.4135
 2493SOL    MW4 9746   2.061   4.152   5.968 -0.5319 -0.0384 -0.2019
 2494SOL     OW 9747   0.995   5.514   4.014  0.8496 -0.0363  0.3032
 2494SOL    HW2 9748   1.020   5.461   4.090  0.7324 -0.1061  0.2931
 2494SOL    HW3 9749   1.056   5.488   3.946  1.5230  0.6572  0.6257
 2494SOL    MW4 9750   1.006   5.504   4.015  0.9230  0.0460  0.3444
 2495SOL     OW 9751   2.472   1.822   4.779 -0.0519 -0.3978  0.1698
 2495SOL    HW2 9752   2.396   1.770   4.806 -0.4023  1.0161  2.0783
 2495SOL    HW3 9753   2.479   1.890   4.845  3.2964 -0.8304  0.4081
 2495SOL    MW4 9754   2.463   1.824   4.791  0.3436 -0.2683  0.4530
 2496SOL     OW 9755   4.726   4.683   5.310 -0.2392 -0.1124  0.3447
 2496SOL    HW2 9756   4.790   4.613   5.323 -0.4835 -0.1378  1.5264
 2496SOL    HW3 9757   4.778   4.763   5.312 -0.2404 -0.1296  1.3498
 2496SOL    MW4 9758   4.742   4.684   5.312 -0.2716 -0.1181  0.6332
 2497SOL     OW 9759   1.519   3.667   0.598 -0.2506  0.3547  0.3898
 2497SOL    HW2 9760   1.562   3.654   0.683  0.6881 -4.9217 -0.5315
 2497SOL    HW3 9761   1.427   3.682   0.619  0.4117  2.1607  2.2966
 2497SOL    MW4 9762   1.513   3.667   0.612 -0.0394 -0.1032  0.5198
 2498SOL     OW 9763   4.089   4.535   1.063 -0.0033  0.2753 -0.1275
 2498SOL    HW2 9764   4.147   4.524   1.138  0.5753  1.4149 -0.3784
 2498SOL    HW3 9765   4.045   4.619   1.078  1.3654  1.3820 -1.8173
 2498SOL    MW4 9766   4.091   4.545   1.075  0.2536  0.5717 -0.3835
 2499SOL     OW 9767   4.455   1.116   3.747 -0.6897  0.0512  0.0599
 2499SOL    HW2 9768   4.528   1.067   3.786  0.0821 -0.8113 -2.2580
 2499SOL    HW3 9769   4.380   1.095   3.802  0.8399  1.4590  2.9210
 2499SOL    MW4 9770   4.455   1.106   3.759 -0.3861  0.1231  0.1316
 2500SOL     OW 9771   6.403   1.330   1.302  0.3252 -0.5139  0.5643
 2500SOL    HW2 9772   6.322   1.347   1.254  1.7836 -1.0077 -2.2873
 2500SOL    HW3 9773   6.400   1.391   1.376 -1.5643  1.1180 -0.7492
 2500SOL    MW4 9774   6.392   1.340   1.306  0.2683 -0.3638  0.0148
 2501SOL     OW 9775   1.182   0.637   4.671 -0.3892 -0.4871 -0.6994
 2501SOL    HW2 9776   1.193   0.705   4.738 -0.1030 -0.5029 -0.7296
 2501SOL    HW3 9777   1.176   0.686   4.589  0.2704 -0.5166 -0.7723
 2501SOL    MW4 9778   1.183   0.653   4.669 -0.2645 -0.4931 -0.7130
 2502SOL     OW 9779   5.085   0.566   4.814 -0.0613  0.0293  0.1725
 2502SOL    HW2 9780   5.083   0.611   4.730  0.6766  0.9505  0.6372
 2502SOL    HW3 9781   5.009   0.599   4.861 -3.1015 -3.5895 -1.6108
 2502SOL    MW4 9782   5.075   0.576   4.809 -0.3651 -0.3266 -0.0014
 2503SOL     OW 9783   5.611   2.843   5.640  0.0851 -0.1038  0.3808
 2503SOL    HW2 9784   5.606   2.894   5.721 -0.1413  0.4700  0.0117
 2503SOL    HW3 9785   5.533   2.868   5.591  0.9232  0.6245 -0.6211
 2503SOL    MW4 9786   5.600   2.853   5.645  0.1658  0.0680  0.1999
 2504SOL     OW 9787   2.006   3.702   4.088 -0.3264  0.1154  0.0621
 2504SOL    HW2 9788   2.074   3.646   4.049 -1.5194 -1.0772 -0.3988
 2504SOL    HW3 9789   2.008   3.782   4.037  1.0311  0.2860  0.3536
 2504SOL    MW4 9790   2.015   3.705   4.076 -0.3047 -0.0194  0.0398
 2505SOL     OW 9791   5.267   1.301   1.671  0.2840  0.1061  0.2294
 2505SOL    HW2 9792   5.283   1.219   1.624  0.6135  0.6568 -0.6333
 2505SOL    HW3 9793   5.193   1.281   1.728 -0.2993 -0.5049 -0.7048
 2505SOL    MW4 9794   5.259   1.287   1.672  0.2505  0.0982 -0.0077
 2506SOL     OW 9795   3.113   1.131   4.919  0.9079 -0.0277  0.0391
 2506SOL    HW2 9796   3.139   1.207   4.971  0.5845 -0.0855  0.2904
 2506SOL    HW3 9797   3.024   1.152   4.889  1.0659 -0.0259 -0.4285
 2506SOL    MW4 9798   3.104   1.144   4.922  0.8860 -0.0351  0.0106
 2507SOL     OW 9799   4.661   1.722   0.960 -0.0269 -0.0810  0.0375
 2507SOL    HW2 9800   4.743   1.772   0.963 -1.3921  2.3231  0.2595
 2507SOL    HW3 9801   4.636   1.710   1.051  0.0138 -0.7018 -0.0300
 2507SOL    MW4 9802   4.668   1.727   0.972 -0.2016  0.1543  0.0579
 2508SOL     OW 9803   5.869   2.230   1.365  0.0627 -0.0265  0.0450
 2508SOL    HW2 9804   5.937   2.238   1.432 -1.9796  2.6489  1.9904
 2508SOL    HW3 9805   5.819   2.152   1.391 -0.2934  0.5902  1.2537
 2508SOL    MW4 9806   5.871   2.221   1.377 -0.2538  0.4079  0.4612
 2509SOL     OW 9807   4.874   1.057   3.421 -0.4658  0.1425  0.5126
 2509SOL    HW2 9808   4.792   1.100   3.443  0.4241  1.1332  2.1154
 2509SOL    HW3 9809   4.939   1.099   3.478  1.0512 -1.0081 -0.2914
 2509SOL    MW4 9810   4.872   1.068   3.431 -0.1483  0.1214  0.6180
 2510SOL     OW 9811   2.323   2.516   2.086  0.0262  0.2007 -0.1763
 2510SOL    HW2 9812   2.392   2.459   2.120  0.9191  1.1726 -0.3122
 2510SOL    HW3 9813   2.298   2.570   2.161  0.9486  1.3209 -0.6373
 2510SOL    MW4 9814   2.329   2.516   2.100  0.2657  0.4767 -0.2550
 2511SOL     OW 9815   5.132   5.523   3.532 -0.4790 -0.2302  0.1155
 2511SOL    HW2 9816   5.150   5.575   3.610 -0.1707 -0.2989  0.0896
 2511SOL    HW3 9817   5.218   5.495   3.501 -0.5709  0.0981 -0.4576
 2511SOL    MW4 9818   5.146   5.526   3.538 -0.4504 -0.1960  0.0365
 2512SOL     OW 9819   6.168   4.430   1.621 -0.2650  0.5323  0.3245
 2512SOL    HW2 9820   6.114   4.471   1.688 -0.4626  1.5145 -0.4204
 2512SOL    HW3 9821   6.135   4.341   1.614 -1.8003  1.1116 -0.1209
 2512SOL    MW4 9822   6.157   4.424   1.629 -0.4936  0.7383  0.1675
 2513SOL     OW 9823   0.430   4.405   1.806 -0.1140 -0.2590 -0.5354
 2513SOL    HW2 9824   0.486   4.355   1.865 -0.6087  0.8812  0.9698
 2513SOL    HW3 9825   0.357   4.347   1.786 -3.0449  0.9690  4.6851
 2513SOL    MW4 9826   0.428   4.391   1.811 -0.5660  0.0534  0.3520
 2514SOL     OW 9827   4.324   2.900   3.367 -0.0242 -0.2016  0.2645
 2514SOL    HW2 9828   4.329   2.933   3.277 -1.1157 -0.7469 -0.0154
 2514SOL    HW3 9829   4.303   2.977   3.420  0.7284  0.1419  0.0879
 2514SOL    MW4 9830   4.322   2.915   3.362 -0.0689 -0.2282  0.2042
 2515SOL     OW 9831   2.702   0.776   0.693 -0.0302  0.0607 -0.2375
 2515SOL    HW2 9832   2.755   0.748   0.618  0.3045  1.9658 -0.7761
 2515SOL    HW3 9833   2.632   0.829   0.654 -1.1695 -0.7394  0.6420
 2515SOL    MW4 9834   2.700   0.780   0.678 -0.1364  0.2065 -0.1925
 2516SOL     OW 9835   2.068   4.225   4.301  0.0473 -0.3329  0.2026
 2516SOL    HW2 9836   2.115   4.275   4.368  0.6671  0.1875 -0.6040
 2516SOL    HW3 9837   2.078   4.133   4.329  2.4262 -0.3546 -0.4299
 2516SOL    MW4 9838   2.076   4.219   4.314  0.4430 -0.2671  0.0128
 2517SOL     OW 9839   1.005   3.854   2.620  0.3369 -0.6593 -0.2386
 2517SOL    HW2 9840   1.058   3.827   2.696  0.5821  0.2332 -0.0809
 2517SOL    HW3 9841   1.069   3.882   2.555  0.1104 -1.0867 -0.6531
 2517SOL    MW4 9842   1.021   3.854   2.622  0.3394 -0.5979 -0.2725
 2518SOL     OW 9843   4.352   3.708   1.280 -0.5034 -0.2328  0.4358
 2518SOL    HW2 9844   4.341   3.789   1.330 -0.7241  0.6305 -0.9801
 2518SOL    HW3 9845   4.279   3.707   1.218  0.2574 -0.8274 -0.4836
 2518SOL    MW4 9846   4.341   3.718   1.279 -0.4322 -0.1973  0.1277
 2519SOL     OW 9847   1.170   3.320   5.370  0.0122 -0.0129 -0.6496
 2519SOL    HW2 9848   1.177   3.299   5.464 -1.9544  0.6609 -0.3077
 2519SOL    HW3 9849   1.131   3.242   5.331  2.1870 -0.8966 -1.2454
 2519SOL    MW4 9850   1.166   3.307   5.378  0.0396 -0.0406 -0.6831
 2520SOL     OW 9851   1.233   5.399   3.316 -0.4989 -0.7582 -0.3535
 2520SOL    HW2 9852   1.176   5.371   3.388 -1.1553 -0.6683 -0.8368
 2520SOL    HW3 9853   1.321   5.394   3.353 -0.6653 -2.4668 -0.0963
 2520SOL    MW4 9854   1.237   5.394   3.331 -0.6074 -0.9718 -0.3833
 2521SOL     OW 9855   1.533   4.020   5.496 -0.1693  0.0646 -0.2405
 2521SOL    HW2 9856   1.467   4.088   5.485  0.3531  0.2715 -2.7384
 2521SOL    HW3 9857   1.607   4.065   5.538 -0.7662  0.3648  0.5164
 2521SOL    MW4 9858   1.534   4.035   5.500 -0.1791  0.1315 -0.4702
 2522SOL     OW 9859   1.062   1.921   4.193  0.6564  0.2458 -0.2426
 2522SOL    HW2 9860   1.062   1.843   4.249  2.3042 -0.4437 -1.1392
 2522SOL    HW3 9861   1.081   1.887   4.105  1.3163  1.6376 -0.6574
 2522SOL    MW4 9862   1.065   1.906   4.189  0.9609  0.3385 -0.4156
 2523SOL     OW 9863   5.786   6.138   2.105  0.0513 -0.3231  0.3165
 2523SOL    HW2 9864   5.761   6.229   2.121 -0.5102 -0.2231 -1.0488
 2523SOL    HW3 9865   5.704   6.089   2.107  0.0867 -0.4743 -0.9790
 2523SOL    MW4 9866   5.772   6.144   2.108 -0.0181 -0.3299 -0.0345
 2524SOL     OW 9867   1.540   4.421   6.003 -0.0806  0.7020 -0.3071
 2524SOL    HW2 9868   1.559   4.352   6.066 -1.0448 -0.1149 -0.8808
 2524SOL    HW3 9869   1.625   4.442   5.965  0.8050  2.3849  2.3651
 2524SOL    MW4 9870   1.554   4.414   6.006 -0.0910  0.8163 -0.0303
 2525SOL     OW 9871   4.559   3.805   0.510  0.3992 -0.1709  0.2791
 2525SOL    HW2 9872   4.478   3.842   0.474  1.1678  0.4288 -0.9099
 2525SOL    HW3 9873   4.546   3.710   0.507  0.4614 -0.1602 -1.7655
 2525SOL    MW4 9874   4.547   3.797   0.505  0.5088 -0.0904 -0.1475
 2526SOL     OW 9875   5.954   4.855   0.723  0.1965  0.8837  0.5354
 2526SOL    HW2 9876   5.998   4.937   0.746 -2.0600  1.7369  2.2007
 2526SOL    HW3 9877   5.875   4.883   0.676 -0.7710 -0.2835  1.4155
 2526SOL    MW4 9878   5.949   4.870   0.720 -0.2289  0.8423  0.8712
 2527SOL     OW 9879   2.721   3.539   6.216  0.3571 -0.7334  0.1737
 2527SOL    HW2 9880   2.759   3.627   6.204  1.6500 -1.3194 -0.2621
 2527SOL    HW3 9881   2.632   3.555   6.245  1.1444  0.7372  2.0023
 2527SOL    MW4 9882   2.714   3.553   6.218  0.6315 -0.6167  0.3575
 2528SOL     OW 9883   6.141   1.634   5.124  0.2141 -0.1541  0.0420
 2528SOL    HW2 9884   6.137   1.729   5.127 -0.4791 -0.1770 -0.0989
 2528SOL    HW3 9885   6.097   1.605   5.204  0.6824 -0.3546  0.2326
 2528SOL    MW4 9886   6.135   1.643   5.135  0.1844 -0.1836  0.0486
 2529SOL     OW 9887   2.915   0.267   3.541  0.4190  0.0438 -0.0000
 2529SOL    HW2 9888   2.987   0.256   3.480 -0.3414 -1.7789 -0.6399
 2529SOL    HW3 9889   2.957   0.268   3.627  1.3287  0.7181 -0.4275
 2529SOL    MW4 9890   2.930   0.265   3.544  0.4387 -0.1077 -0.1409
 2530SOL     OW 9891   1.749   4.151   5.633  0.6878 -0.6557  0.3006
 2530SOL    HW2 9892   1.791   4.130   5.717  0.6300 -0.2436  0.4381
 2530SOL    HW3 9893   1.754   4.247   5.628  2.2572 -0.7550 -0.9729
 2530SOL    MW4 9894   1.755   4.161   5.644  0.8872 -0.6144  0.1507
 2531SOL     OW 9895   2.663   4.043   1.993 -0.3583 -0.1777 -0.0182
 2531SOL    HW2 9896   2.580   4.089   2.007 -0.3326  0.0136 -0.4821
 2531SOL    HW3 9897   2.651   3.997   1.910  0.0820  0.0366 -0.2043
 2531SOL    MW4 9898   2.651   4.043   1.984 -0.2968 -0.1242 -0.1040
 2532SOL     OW 9899   2.276   6.166   3.590  0.6143 -0.3308 -0.0572
 2532SOL    HW2 9900   2.337   6.093   3.602  0.4039 -0.5679 -0.4327
 2532SOL    HW3 9901   2.190   6.130   3.610  0.5012 -0.2051 -0.3134
 2532SOL    MW4 9902   2.273   6.152   3.594  0.5716 -0.3455 -0.1405
 2533SOL     OW 9903   4.856   5.219   2.124 -0.0081 -0.2663 -0.2248
 2533SOL    HW2 9904   4.839   5.147   2.184 -0.3262  0.5836  0.7445
 2533SOL    HW3 9905   4.799   5.202   2.050  0.9004 -1.7087 -0.6381
 2533SOL    MW4 9906   4.846   5.207   2.122  0.0698 -0.3445 -0.1515
 2534SOL     OW 9907   5.141   3.685   2.713  0.3555 -0.0637  0.2053
 2534SOL    HW2 9908   5.202   3.705   2.784  1.1911  0.1007 -0.5514
 2534SOL    HW3 9909   5.196   3.664   2.638 -0.4392 -3.3650  0.3788
 2534SOL    MW4 9910   5.156   3.684   2.713  0.3609 -0.4776  0.1283
 2535SOL     OW 9911   4.769   4.213   1.348  0.5278  0.0814 -0.4460
 2535SOL    HW2 9912   4.771   4.308   1.334  1.3146  0.0381 -0.6247
 2535SOL    HW3 9913   4.823   4.176   1.278  3.9203 -0.1911  2.0438
 2535SOL    MW4 9914   4.776   4.221   1.337  1.0792  0.0397 -0.1411
 2536SOL     OW 9915   5.854   3.676   3.653 -0.4360  0.0340  0.2766
 2536SOL    HW2 9916   5.791   3.669   3.582 -0.6355 -0.5096  0.4972
 2536SOL    HW3 9917   5.939   3.659   3.612 -0.5601 -0.3690  0.1804
 2536SOL    MW4 9918   5.857   3.673   3.638 -0.4787 -0.0909  0.2930
 2537SOL     OW 9919   0.805   1.141   1.872 -0.0652 -0.6627  0.6732
 2537SOL    HW2 9920   0.724   1.093   1.887 -0.5406 -1.4301 -3.2322
 2537SOL    HW3 9921   0.780   1.233   1.880 -1.3552 -0.8954 -0.2867
 2537SOL    MW4 9922   0.791   1.147   1.875 -0.2981 -0.7946  0.0313
 2538SOL     OW 9923   3.567   0.655   4.221  0.2781 -0.1237  0.4606
 2538SOL    HW2 9924   3.570   0.692   4.133 -0.4626 -0.5786  0.2381
 2538SOL    HW3 9925   3.637   0.589   4.222 -1.1336 -1.7432 -0.5607
 2538SOL    MW4 9926   3.577   0.651   4.210 -0.0059 -0.3974  0.2965
 2539SOL     OW 9927   2.032   6.311   2.263 -0.0617  0.0814  0.2179
 2539SOL    HW2 9928   2.015   6.387   2.207  2.3504  0.1473 -0.5268
 2539SOL    HW3 9929   2.118   6.280   2.236  0.9548 -0.2842  3.4583
 2539SOL    MW4 9930   2.041   6.317   2.252  0.3906  0.0418  0.5471
 2540SOL     OW 9931   2.858   1.708   5.550  0.0304  0.2720  0.1198
 2540SOL    HW2 9932   2.848   1.752   5.465  2.4963 -0.9049 -0.8821
 2540SOL    HW3 9933   2.849   1.615   5.530 -1.6362  0.0608  1.6035
 2540SOL    MW4 9934   2.855   1.701   5.536  0.1359  0.0889  0.1833
 2541SOL     OW 9935   1.831   2.304   4.874  0.0898 -0.5152  0.2980
 2541SOL    HW2 9936   1.874   2.335   4.794  1.0764 -0.3072  0.8894
 2541SOL    HW3 9937   1.811   2.212   4.857 -1.5640  0.0198 -0.9381
 2541SOL    MW4 9938   1.834   2.296   4.861  0.0018 -0.4172  0.2130
 2542SOL     OW 9939   1.528   0.901   4.331  0.2102 -0.1726 -0.6093
 2542SOL    HW2 9940   1.502   0.943   4.413 -0.7913 -0.0085 -1.0048
 2542SOL    HW3 9941   1.622   0.916   4.326  1.1384 -3.3763  2.3893
 2542SOL    MW4 9942   1.537   0.908   4.341  0.2005 -0.5736 -0.2659
 2543SOL     OW 9943   4.284   3.750   4.032  0.4868 -0.6252 -0.4361
 2543SOL    HW2 9944   4.371   3.718   4.058  0.7615  0.6565  0.3249
 2543SOL    HW3 9945   4.303   3.823   3.972 -0.0745 -0.6811 -0.6826
 2543SOL    MW4 9946   4.298   3.755   4.028  0.4490 -0.4635 -0.3682
 2544SOL     OW 9947   1.925   0.537   0.794 -0.1314 -0.4142 -0.1105
 2544SOL    HW2 9948   1.901   0.617   0.749  2.7250  0.9203  0.4900
 2544SOL    HW3 9949   1.897   0.550   0.885 -2.0930 -1.3209 -0.5344
 2544SOL    MW4 9950   1.918   0.549   0.800 -0.0134 -0.3578 -0.0872
 2545SOL     OW 9951   0.394   2.565   4.457 -0.2568 -0.3950  0.0418
 2545SOL    HW2 9952   0.338   2.619   4.513  0.5442  0.7462 -0.2109
 2545SOL    HW3 9953   0.474   2.554   4.507  0.2650  0.1877 -0.6376
 2545SOL    MW4 9954   0.397   2.571   4.471 -0.0823 -0.1676 -0.0812
 2546SOL     OW 9955   1.111   6.418   1.931 -0.2279  0.0749 -0.3972
 2546SOL    HW2 9956   1.122   6.416   1.836 -0.2605 -0.1630 -0.3958
 2546SOL    HW3 9957   1.125   6.510   1.955 -0.3258  0.1534 -0.6436
 2546SOL    MW4 9958   1.115   6.430   1.922 -0.2452  0.0538 -0.4295
 2547SOL     OW 9959   6.282   1.092   1.403 -0.3542  0.1944  0.4748
 2547SOL    HW2 9960   6.325   1.084   1.488  0.4467  1.3675  0.1935
 2547SOL    HW3 9961   6.311   1.176   1.368  1.0945 -1.1886 -1.9530
 2547SOL    MW4 9962   6.291   1.102   1.410 -0.0574  0.1667  0.1174
 2548SOL     OW 9963   3.483   5.613   5.890  0.0117  0.1305 -0.0724
 2548SOL    HW2 9964   3.574   5.636   5.909  0.4194 -1.4803  0.0335
 2548SOL    HW3 9965   3.432   5.684   5.929  1.0246 -0.6807  2.9968
 2548SOL    MW4 9966   3.488   5.626   5.897  0.1991 -0.1891  0.3465
 2549SOL     OW 9967   0.176   4.580   4.064  0.2320 -0.3281 -0.2047
 2549SOL    HW2 9968   0.199   4.667   4.097 -1.7020  0.4968 -0.8738
 2549SOL    HW3 9969   0.132   4.597   3.980  0.4957 -2.0088 -0.7169
 2549SOL    MW4 9970   0.173   4.594   4.057  0.0117 -0.4410 -0.3605
 2550SOL     OW 9971   0.119   1.213   1.062  0.4833  0.1898  0.3249
 2550SOL    HW2 9972   0.177   1.288   1.047 -1.4692  1.2164 -3.4770
 2550SOL    HW3 9973   0.076   1.232   1.146  4.2197  0.1685  2.4603
 2550SOL    MW4 9974   0.121   1.226   1.071  0.7187  0.3224  0.1050
 2551SOL     OW 9975   0.044   2.926   2.225 -0.1633 -0.4067  0.3130
 2551SOL    HW2 9976   0.065   2.961   2.138 -1.5766 -0.9768 -0.2762
 2551SOL    HW3 9977   0.077   2.993   2.285  0.0249  0.4272 -0.6854
 2551SOL    MW4 9978   0.051   2.940   2.221 -0.3249 -0.3719  0.1035
 2552SOL     OW 9979   3.066   5.072   5.769  0.1803 -0.8337  0.1791
 2552SOL    HW2 9980   3.103   5.113   5.848 -1.3705 -0.2764  0.6499
 2552SOL    HW3 9981   2.972   5.066   5.787 -0.7680  2.1109 -2.7710
 2552SOL    MW4 9982   3.059   5.077   5.782 -0.1494 -0.3717 -0.1480
 2553SOL     OW 9983   4.857   5.510   1.978 -0.5915  0.1471 -0.4510
 2553SOL    HW2 9984   4.916   5.526   1.904  1.1025  0.2297  0.8523
 2553SOL    HW3 9985   4.894   5.433   2.021 -0.0778  1.4940  1.6805
 2553SOL    MW4 9986   4.869   5.502   1.973 -0.3002  0.3357  0.0022
 2554SOL     OW 9987   2.755   2.254   0.036 -0.1741 -0.0825  0.3926
 2554SOL    HW2 9988   2.785   2.214  -0.046 -0.3137 -0.3896  0.4897
 2554SOL    HW3 9989   2.673   2.209   0.056 -0.1839  0.0505  0.6553
 2554SOL    MW4 9990   2.748   2.243   0.028 -0.1938 -0.1055  0.4401
 2555SOL     OW 9991   5.914   0.885   3.390 -0.5813 -0.6305  0.1609
 2555SOL    HW2 9992   5.960   0.964   3.361 -0.9920 -0.7805 -0.9548
 2555SOL    HW3 9993   5.946   0.817   3.331 -2.4512 -0.6728 -0.8910
 2555SOL    MW4 9994   5.924   0.887   3.378 -0.8822 -0.6559 -0.1251
 2556SOL     OW 9995   3.650   2.130   4.132  0.0714  0.6290 -0.7614
 2556SOL    HW2 9996   3.556   2.142   4.145 -0.4308 -2.0362 -1.3001
 2556SOL    HW3 9997   3.690   2.202   4.180 -2.2192  1.3739  0.1785
 2556SOL    MW4 9998   3.643   2.141   4.140 -0.2971  0.3756 -0.7085
 2557SOL     OW 9999   3.342   0.622   0.971  0.4604  0.7191  0.0362
 2557SOL    HW210000   3.371   0.636   1.062  0.3172 -1.3270  0.4450
 2557SOL    HW310001   3.321   0.529   0.967  1.4754  0.5260 -2.4116
 2557SOL    MW410002   3.343   0.611   0.983  0.5754  0.4237 -0.2328
 2558SOL     OW10003   1.234   4.919   0.282 -0.0387  0.2497 -0.0786
 2558SOL    HW210004   1.217   4.828   0.260  1.6540 -0.4499  1.2623
 2558SOL    HW310005   1.298   4.915   0.354 -2.3768  2.4028  2.3326
 2558SOL    MW410006   1.240   4.907   0.289 -0.1238  0.4415  0.4165
 2559SOL     OW10007   4.221   6.194   6.031  0.2305 -0.0083  0.4336
 2559SOL    HW210008   4.316   6.203   6.027  0.0055  2.6068 -1.2885
 2559SOL    HW310009   4.196   6.245   6.108  0.0686  2.3484 -1.0625
 2559SOL    MW410010   4.230   6.202   6.041  0.1794  0.6477  0.0090
 2560SOL     OW10011   5.708   6.092   0.262  0.1596 -0.3900  0.0937
 2560SOL    HW210012   5.662   6.016   0.298 -0.5477 -0.3308 -0.6552
 2560SOL    HW310013   5.640   6.144   0.220  1.0055 -0.8851 -2.0781
 2560SOL    MW410014   5.693   6.088   0.261  0.1779 -0.4475 -0.2916
 2561SOL     OW10015   2.406   2.400   0.335 -0.6851 -0.0065 -0.0547
 2561SOL    HW210016   2.398   2.327   0.274  0.0595 -1.4297  1.4598
 2561SOL    HW310017   2.496   2.394   0.367 -0.6543  1.5277  0.1880
 2561SOL    MW410018   2.417   2.389   0.331 -0.5828  0.0081  0.1772
 2562SOL     OW10019   5.696   4.168   6.193  0.0920 -0.5275  0.6455
 2562SOL    HW210020   5.624   4.205   6.245 -1.7644 -2.6562 -0.2276
 2562SOL    HW310021   5.757   4.133   6.257 -1.3726 -1.6892  1.4903
 2562SOL    MW410022   5.694   4.168   6.208 -0.3462 -0.9616  0.6418
 2563SOL     OW10023   4.334   2.714   5.791  0.0830  0.6442 -0.4004
 2563SOL    HW210024   4.252   2.675   5.823 -0.5904 -0.2799 -3.0099
 2563SOL    HW310025   4.401   2.681   5.851 -1.1871 -0.2694  0.5767
 2563SOL    MW410026   4.332   2.705   5.803 -0.1735  0.4018 -0.6158
 2564SOL     OW10027   3.610   4.434   1.384  0.7405  0.1919  0.6648
 2564SOL    HW210028   3.662   4.365   1.343  1.0897  1.3562 -0.9520
 2564SOL    HW310029   3.527   4.433   1.336  0.1850 -0.0433  1.6088
 2564SOL    MW410030   3.606   4.425   1.372  0.7133  0.3145  0.5760
 2565SOL     OW10031   0.169   3.127   3.235  0.3423  0.5486  0.2458
 2565SOL    HW210032   0.236   3.174   3.187 -1.5110  2.1902 -0.8554
 2565SOL    HW310033   0.184   3.149   3.327 -0.2729  3.1242 -0.2100
 2565SOL    MW410034   0.180   3.136   3.241  0.0166  1.1050  0.0403
 2566SOL     OW10035   5.532   5.481   2.951  0.1826  0.6982  0.0183
 2566SOL    HW210036   5.463   5.424   2.986 -1.5197  1.0700 -2.4509
 2566SOL    HW310037   5.486   5.538   2.889  2.5227  1.9271 -0.6792
 2566SOL    MW410038   5.517   5.481   2.947  0.2667  0.9094 -0.3995
 2567SOL     OW10039   6.379   1.418   2.541 -0.3569  0.0186 -0.4325
 2567SOL    HW210040   6.319   1.344   2.528 -0.2577  0.0544 -1.1621
 2567SOL    HW310041   6.326   1.495   2.518 -0.1547  0.0857 -0.6707
 2567SOL    MW410042   6.364   1.419   2.536 -0.3171  0.0322 -0.5602
 2568SOL     OW10043   3.776   1.740   0.167  0.5830  0.2273  0.1671
 2568SOL    HW210044   3.802   1.648   0.158  1.3255  0.3675  0.8652
 2568SOL    HW310045   3.718   1.741   0.243 -1.4281 -0.0540 -1.2657
 2568SOL    MW410046   3.772   1.728   0.176  0.4156  0.2087  0.0702
 2569SOL     OW10047   0.368   0.745   2.854 -0.4354 -0.3174  0.4218
 2569SOL    HW210048   0.320   0.810   2.906 -0.0867  0.6405 -0.4381
 2569SOL    HW310049   0.309   0.725   2.781 -1.0680 -1.9115  1.2941
 2569SOL    MW410050   0.354   0.751   2.852 -0.4729 -0.4013  0.4235
 2570SOL     OW10051   5.414   3.010   0.088 -0.4983 -0.1719  0.3084
 2570SOL    HW210052   5.432   2.955   0.164  2.0294  0.5989  0.3825
 2570SOL    HW310053   5.481   3.079   0.093 -1.6924  1.1966 -1.3959
 2570SOL    MW410054   5.425   3.012   0.099 -0.3224  0.1104  0.0933
 2571SOL     OW10055   3.673   4.061   4.903  0.4301  0.5442 -0.1063
 2571SOL    HW210056   3.687   4.113   4.982  2.5448  3.5474 -2.2329
 2571SOL    HW310057   3.731   3.985   4.914 -0.2600  0.2271  1.6777
 2571SOL    MW410058   3.683   4.058   4.915  0.6180  0.8986 -0.1515
 2572SOL     OW10059   1.526   2.186   4.993 -0.1035 -0.0037 -0.0090
 2572SOL    HW210060   1.480   2.269   5.006 -2.3938 -1.1894  0.1514
 2572SOL    HW310061   1.533   2.177   4.898 -0.9539 -0.1613 -0.0646
 2572SOL    MW410062   1.521   2.196   4.983 -0.5179 -0.1810  0.0048
 2573SOL     OW10063   5.370   2.178   4.008  0.4358  0.3903  0.0781
 2573SOL    HW210064   5.278   2.158   3.994  0.5480 -0.5669  0.6717
 2573SOL    HW310065   5.407   2.099   4.047  1.1509  1.3496  1.4256
 2573SOL    MW410066   5.363   2.165   4.011  0.5449  0.3906  0.3342
 2574SOL     OW10067   5.122   0.119   3.153 -0.5591  0.2180  0.1742
 2574SOL    HW210068   5.109   0.055   3.083 -0.1709  1.4151 -1.0413
 2574SOL    HW310069   5.217   0.131   3.158 -0.4938 -0.7697  1.7908
 2574SOL    MW410070   5.133   0.112   3.144 -0.4993  0.2456  0.2272
 2575SOL     OW10071   0.985   5.722   5.141 -0.4655  0.0861  0.2445
 2575SOL    HW210072   0.942   5.661   5.081 -1.4305  0.5713  0.4196
 2575SOL    HW310073   0.914   5.778   5.172  0.2551  0.7034  0.7974
 2575SOL    MW410074   0.970   5.721   5.137 -0.4978  0.2316  0.3406
 2576SOL     OW10075   3.333   4.645   5.145 -0.2620  0.2304 -0.0000
 2576SOL    HW210076   3.380   4.685   5.218 -0.3511  3.5170 -1.5724
 2576SOL    HW310077   3.261   4.597   5.185  0.6031  0.6200  2.1205
 2576SOL    MW410078   3.330   4.644   5.160 -0.1596  0.7154  0.0723
 2577SOL     OW10079   4.376   0.491   4.148 -0.2248  0.3828  0.3596
 2577SOL    HW210080   4.302   0.516   4.094  0.8709  4.4620  0.4576
 2577SOL    HW310081   4.445   0.466   4.086  0.2970  2.8642 -0.1648
 2577SOL    MW410082   4.376   0.491   4.133 -0.0114  1.2484  0.3033
 2578SOL     OW10083   1.528   1.037   5.733  0.5003  0.1298  0.1186
 2578SOL    HW210084   1.472   0.969   5.693 -0.3741  0.4962  0.6952
 2578SOL    HW310085   1.553   1.093   5.659 -2.9098  2.1107  0.2263
 2578SOL    MW410086   1.524   1.035   5.718 -0.0650  0.4395  0.2089
 2579SOL     OW10087   4.229   1.739   3.515 -0.0288  0.2109  0.0252
 2579SOL    HW210088   4.253   1.654   3.551  1.1705  0.5913  0.1814
 2579SOL    HW310089   4.309   1.792   3.525 -0.9679  1.5788  0.6274
 2579SOL    MW410090   4.243   1.735   3.521  0.0055  0.4415  0.1252
 2580SOL     OW10091   1.573   2.125   4.711 -0.3389 -0.2795 -0.2664
 2580SOL    HW210092   1.614   2.163   4.634 -0.0540 -0.7651 -0.3576
 2580SOL    HW310093   1.644   2.080   4.757 -0.9057 -1.8940 -0.8942
 2580SOL    MW410094   1.588   2.124   4.707 -0.3761 -0.5566 -0.3612
 2581SOL     OW10095   3.419   3.075   4.558  0.0371  0.5774  0.2091
 2581SOL    HW210096   3.392   3.028   4.480 -1.3860  0.0562  0.9636
 2581SOL    HW310097   3.340   3.078   4.613  0.9295  1.0874  1.5385
 2581SOL    MW410098   3.405   3.070   4.555 -0.0329  0.5759  0.4840
 2582SOL     OW10099   2.348   3.900   5.270  0.1041  0.2806 -0.3170
 2582SOL    HW210100   2.403   3.976   5.251 -1.3590  1.5856  0.4909
 2582SOL    HW310101   2.408   3.837   5.311  0.5836  2.7793  3.2743
 2582SOL    MW410102   2.363   3.901   5.273 -0.0256  0.7825  0.2634
 2583SOL     OW10103   0.956   3.978   0.731  0.2251 -0.3710  0.3063
 2583SOL    HW210104   0.992   4.065   0.751 -0.7828 -0.1754  1.3455
 2583SOL    HW310105   0.900   3.993   0.654  0.8665 -0.3149 -0.1579
 2583SOL    MW410106   0.953   3.991   0.723  0.1768 -0.3378  0.3821
 2584SOL     OW10107   5.823   1.207   1.094  0.2628 -0.2435 -0.3871
 2584SOL    HW210108   5.752   1.239   1.038  0.3169  0.4875 -0.0620
 2584SOL    HW310109   5.870   1.287   1.120  0.4923 -0.6075  0.3463
 2584SOL    MW410110   5.820   1.222   1.090  0.3002 -0.1951 -0.2474
 2585SOL     OW10111   4.518   4.672   1.087 -0.1317 -0.0062 -0.3439
 2585SOL    HW210112   4.538   4.674   0.994 -1.4159 -0.1256 -0.6390
 2585SOL    HW310113   4.602   4.650   1.129  0.0715 -1.8173 -1.5813
 2585SOL    MW410114   4.532   4.669   1.081 -0.2743 -0.2609 -0.5461
 2586SOL     OW10115   4.889   1.320   2.252 -0.0731 -0.5339 -0.0201
 2586SOL    HW210116   4.841   1.365   2.321 -0.2030 -0.7997  0.0631
 2586SOL    HW310117   4.914   1.236   2.291  0.7806 -0.2540  0.0686
 2586SOL    MW410118   4.886   1.315   2.266  0.0224 -0.5321  0.0025
 2587SOL     OW10119   4.616   2.005   2.456 -0.3914 -0.1573  0.5513
 2587SOL    HW210120   4.645   1.969   2.540 -1.5475  1.0032  1.4918
 2587SOL    HW310121   4.566   2.083   2.480 -2.8239 -1.1148 -1.0421
 2587SOL    MW410122   4.613   2.010   2.471 -0.8649 -0.1305  0.4652
 2588SOL     OW10123   2.508   1.783   4.496  0.3137 -0.2429  0.2861
 2588SOL    HW210124   2.475   1.810   4.582 -2.3241 -4.0774  0.7530
 2588SOL    HW310125   2.480   1.852   4.437 -0.2200  1.2138  2.1443
 2588SOL    MW410126   2.500   1.795   4.500 -0.1047 -0.5566  0.5929
 2589SOL     OW10127   0.888   5.081   1.327  0.6610 -0.4273  0.1819
 2589SOL    HW210128   0.940   5.008   1.294 -0.3435 -1.3344  0.5745
 2589SOL    HW310129   0.834   5.108   1.253 -1.5961 -2.4648  0.9557
 2589SOL    MW410130   0.888   5.075   1.313  0.2306 -0.8158  0.3358
 2590SOL     OW10131   4.342   6.277   4.549  0.7517  0.0551 -0.4496
 2590SOL    HW210132   4.295   6.199   4.578  0.6869  0.4192  0.4514
 2590SOL    HW310133   4.302   6.300   4.465 -1.4794  1.0220  0.7920
 2590SOL    MW410134   4.331   6.270   4.542  0.4488  0.2307 -0.1669
 2591SOL     OW10135   4.317   2.369   0.750  0.4394 -0.4855  0.4863
 2591SOL    HW210136   4.256   2.300   0.776 -0.8331  0.3819 -0.0515
 2591SOL    HW310137   4.371   2.330   0.682 -1.6953 -0.4160 -1.4006
 2591SOL    MW410138   4.316   2.355   0.744 -0.0101 -0.3619  0.1663
 2592SOL     OW10139   0.141   2.704   4.727 -0.0298 -0.1128  0.5656
 2592SOL    HW210140   0.129   2.791   4.690  1.4865  0.1424  0.5852
 2592SOL    HW310141   0.228   2.708   4.767  1.6210 -2.6390 -2.3824
 2592SOL    MW410142   0.151   2.716   4.728  0.3880 -0.4125  0.1792
 2593SOL     OW10143   4.185   4.612   2.045 -0.5716  0.9830  0.2532
 2593SOL    HW210144   4.138   4.566   2.114 -1.0875 -0.2207 -0.8523
 2593SOL    HW310145   4.221   4.690   2.088 -1.1234  0.4322  1.7865
 2593SOL    MW410146   4.184   4.617   2.060 -0.7124  0.7515  0.3096
 2594SOL     OW10147   0.431   4.896   2.209 -0.4616 -0.0766 -0.7530
 2594SOL    HW210148   0.403   4.986   2.194  2.1485  1.0113  0.2017
 2594SOL    HW310149   0.484   4.901   2.289  1.1473 -2.1103 -1.5944
 2594SOL    MW410150   0.434   4.908   2.218  0.0951 -0.2014 -0.7381
 2595SOL     OW10151   0.862   2.687   4.052 -0.0157  0.3153  0.3748
 2595SOL    HW210152   0.779   2.691   4.003 -0.4627  0.6810  1.1479
 2595SOL    HW310153   0.857   2.604   4.099  0.0067  0.3949  0.5152
 2595SOL    MW410154   0.850   2.677   4.052 -0.0717  0.3741  0.4953
 2596SOL     OW10155   0.041   2.508   0.457 -0.4430 -0.2577  0.0279
 2596SOL    HW210156   0.032   2.529   0.550  0.1257 -0.5119  0.1462
 2596SOL    HW310157   0.002   2.421   0.448 -1.3786  0.1761 -0.1609
 2596SOL    MW410158   0.035   2.499   0.468 -0.4914 -0.2340  0.0186
 2597SOL     OW10159   5.164   2.059   3.377  0.0862 -0.8645 -0.4537
 2597SOL    HW210160   5.151   2.004   3.299  2.4123 -1.6178 -0.3960
 2597SOL    HW310161   5.192   2.143   3.342  0.5545 -1.0179 -0.4502
 2597SOL    MW410162   5.166   2.063   3.362  0.4549 -0.9841 -0.4456
 2598SOL     OW10163   4.755   3.586   3.348 -0.4014  0.1597  0.2427
 2598SOL    HW210164   4.820   3.540   3.294 -0.0617  0.8064  0.0856
 2598SOL    HW310165   4.722   3.519   3.408  1.2633  0.0622  1.1175
 2598SOL    MW410166   4.759   3.571   3.349 -0.1370  0.2322  0.3374
 2599SOL     OW10167   0.142   2.140   3.533  0.2436 -0.0223 -0.5942
 2599SOL    HW210168   0.217   2.199   3.532  0.1000  0.1592 -0.7241
 2599SOL    HW310169   0.179   2.054   3.555  0.6561 -0.1705 -1.7630
 2599SOL    MW410170   0.157   2.136   3.536  0.2791 -0.0179 -0.7656
 2600SOL     OW10171   4.268   2.155   5.765 -0.0556 -0.4744  0.3668
 2600SOL    HW210172   4.227   2.142   5.850  1.5377  1.9197  1.6516
 2600SOL    HW310173   4.221   2.229   5.726  0.0835 -0.6918 -0.2387
 2600SOL    MW410174   4.257   2.163   5.771  0.1730 -0.1872  0.4564
 2601SOL     OW10175   4.763   2.199   6.147  0.0285 -0.3997 -0.3511
 2601SOL    HW210176   4.748   2.263   6.216  1.2337 -0.4443 -0.0236
 2601SOL    HW310177   4.858   2.187   6.146 -0.2084 -3.0799  0.4574
 2601SOL    MW410178   4.773   2.206   6.156  0.1563 -0.7592 -0.2012
 2602SOL     OW10179   2.683   0.611   2.787 -0.4227 -0.0479 -0.3903
 2602SOL    HW210180   2.608   0.577   2.837 -1.0848  1.6916 -0.1284
 2602SOL    HW310181   2.645   0.677   2.730  0.9529  1.0899 -0.0350
 2602SOL    MW410182   2.668   0.615   2.786 -0.3285  0.3317 -0.3089
 2603SOL     OW10183   3.213   4.257   4.407  0.0684  0.2888  0.3331
 2603SOL    HW210184   3.291   4.310   4.385  1.7005 -1.7638  0.8357
 2603SOL    HW310185   3.208   4.261   4.502  0.1869 -0.4233  0.3695
 2603SOL    MW410186   3.223   4.265   4.417  0.2994 -0.0760  0.4042
 2604SOL     OW10187   1.497   5.820   3.642  0.0600 -0.0144 -0.3686
 2604SOL    HW210188   1.409   5.856   3.634  0.1720  0.5818  0.8852
 2604SOL    HW310189   1.485   5.726   3.647 -0.4309  0.0040 -1.0278
 2604SOL    MW410190   1.484   5.813   3.642  0.0100  0.0667 -0.2901
 2605SOL     OW10191   2.905   5.336   6.335  0.0729 -0.8612 -0.2336
 2605SOL    HW210192   2.941   5.349   6.247  0.6142  2.1213  0.2979
 2605SOL    HW310193   2.941   5.409   6.385 -3.1137 -0.3324  1.5305
 2605SOL    MW410194   2.915   5.348   6.330 -0.2761 -0.3980  0.0692
 2606SOL     OW10195   4.800   2.958   1.074 -0.7074  0.3613  0.0156
 2606SOL    HW210196   4.750   2.941   1.154 -1.2255  1.8306  0.0430
 2606SOL    HW310197   4.816   2.872   1.037 -1.5419 -0.2714  1.0591
 2606SOL    MW410198   4.796   2.945   1.080 -0.8859  0.4717  0.1569
 2607SOL     OW10199   3.671   5.962   3.644  0.1442  0.3822 -0.2237
 2607SOL    HW210200   3.587   6.007   3.648  0.5780  1.2337 -0.3394
 2607SOL    HW310201   3.657   5.891   3.582 -0.7579 -0.0967  0.5011
 2607SOL    MW410202   3.658   5.959   3.636  0.0824  0.4314 -0.1433
 2608SOL     OW10203   6.039   1.412   5.826 -0.3318  0.6145  0.1101
 2608SOL    HW210204   6.043   1.390   5.919  0.8770  2.8264  0.6593
 2608SOL    HW310205   6.028   1.507   5.824  0.6517  0.7549 -1.9873
 2608SOL    MW410206   6.038   1.422   5.838 -0.0426  0.9249 -0.0942
 2609SOL     OW10207   5.529   2.998   2.856  0.7241 -0.4552  0.1049
 2609SOL    HW210208   5.553   3.084   2.891  0.0326  0.3261 -1.2430
 2609SOL    HW310209   5.612   2.952   2.846  1.0082 -0.4804  2.0869
 2609SOL    MW410210   5.543   3.003   2.860  0.6703 -0.3555  0.1886
 2610SOL     OW10211   5.805   2.111   2.291  0.0290 -0.2894 -0.2427
 2610SOL    HW210212   5.786   2.035   2.346  0.1784 -0.4110 -0.3570
 2610SOL    HW310213   5.799   2.186   2.351  0.0113 -0.4034 -0.1002
 2610SOL    MW410214   5.802   2.111   2.306  0.0464 -0.3205 -0.2390
 2611SOL     OW10215   4.977   4.375   2.062 -0.3157  0.0150  0.2682
 2611SOL    HW210216   5.049   4.359   2.001  0.0063 -0.8398  0.8407
 2611SOL    HW310217   4.987   4.467   2.088  0.3150  0.0249  0.0091
 2611SOL    MW410218   4.988   4.385   2.058 -0.1900 -0.0965  0.3095
 2612SOL     OW10219   3.566   1.812   5.786  0.2052 -0.1422  0.1961
 2612SOL    HW210220   3.645   1.779   5.830  1.7599  0.0975 -2.2675
 2612SOL    HW310221   3.527   1.735   5.747  1.3850  0.2082 -1.7963
 2612SOL    MW410222   3.571   1.798   5.787  0.5660 -0.0643 -0.3918
 2613SOL     OW10223   0.397   3.905   6.340 -0.1109  0.1423 -0.4328
 2613SOL    HW210224   0.379   3.966   6.413 -0.4533 -0.2265 -0.2051
 2613SOL    HW310225   0.312   3.894   6.298 -0.2557 -0.9329  0.1136
 2613SOL    MW410226   0.383   3.912   6.344 -0.1752 -0.0482 -0.3307
 2614SOL     OW10227   0.818   2.794   5.976  0.3965 -0.4171 -0.0731
 2614SOL    HW210228   0.762   2.771   6.051  0.5733 -2.1662 -0.4409
 2614SOL    HW310229   0.757   2.812   5.905  0.2133  1.5642  0.5180
 2614SOL    MW410230   0.803   2.793   5.977  0.3956 -0.3865 -0.0436
 2615SOL     OW10231   2.328   1.481   1.827 -0.4795  0.0159  0.2230
 2615SOL    HW210232   2.308   1.533   1.749  1.0119 -0.2786 -0.3927
 2615SOL    HW310233   2.423   1.483   1.833 -0.5479 -0.4533  1.7219
 2615SOL    MW410234   2.338   1.488   1.817 -0.2917 -0.0849  0.3395
 2616SOL     OW10235   5.171   4.779   6.344 -0.6775 -0.0521 -0.4030
 2616SOL    HW210236   5.216   4.825   6.415 -0.0233 -0.8946 -0.2502
 2616SOL    HW310237   5.197   4.687   6.355 -0.4064 -0.1707 -1.8445
 2616SOL    MW410238   5.180   4.773   6.355 -0.5554 -0.1789 -0.5730
 2617SOL     OW10239   0.093   4.226   5.023  0.0159 -0.2025  0.4076
 2617SOL    HW210240   0.006   4.187   5.023 -0.3945  0.6859  0.2257
 2617SOL    HW310241   0.123   4.216   4.932  0.2760 -0.8629  0.5600
 2617SOL    MW410242   0.085   4.219   5.011 -0.0039 -0.1724  0.4037
 2618SOL     OW10243   5.449   2.638   1.051 -0.3917 -0.0069  0.2279
 2618SOL    HW210244   5.426   2.731   1.059 -0.5296 -0.0794  0.6592
 2618SOL    HW310245   5.462   2.608   1.140  2.2240  0.2201 -0.0119
 2618SOL    MW410246   5.448   2.646   1.064 -0.0648  0.0135  0.2532
 2619SOL     OW10247   4.185   1.913   4.182  0.1014 -0.3185 -0.4415
 2619SOL    HW210248   4.168   1.943   4.271  0.3117 -0.1760 -0.4497
 2619SOL    HW310249   4.206   1.993   4.133 -1.3912 -0.2009 -0.9481
 2619SOL    MW410250   4.186   1.928   4.187 -0.0678 -0.2842 -0.5094
 2620SOL     OW10251   2.188   4.778   1.801  0.6146  0.0514 -0.1833
 2620SOL    HW210252   2.211   4.699   1.849 -0.3518  0.5568  1.1557
 2620SOL    HW310253   2.160   4.747   1.715 -2.0441 -1.3418  1.0629
 2620SOL    MW410254   2.188   4.764   1.796  0.1363 -0.0657  0.1578
 2621SOL     OW10255   0.855   5.338   0.553  0.0433 -0.0640  0.1277
 2621SOL    HW210256   0.815   5.417   0.517 -1.2394  0.1321  1.8317
 2621SOL    HW310257   0.844   5.272   0.484 -1.3168  0.5567 -0.2839
 2621SOL    MW410258   0.848   5.340   0.539 -0.3054  0.0438  0.2982
 2622SOL     OW10259   2.776   3.816   6.208 -0.2702 -0.1098 -0.9957
 2622SOL    HW210260   2.693   3.864   6.205  1.0033  2.2548 -0.9932
 2622SOL    HW310261   2.814   3.830   6.121  0.7319  0.0333 -0.5462
 2622SOL    MW410262   2.770   3.824   6.196  0.0300  0.2211 -0.9361
 2623SOL     OW10263   0.258   1.972   0.315 -0.5238  0.2054 -0.2578
 2623SOL    HW210264   0.288   2.045   0.368 -0.3827  0.7435 -1.0716
 2623SOL    HW310265   0.338   1.928   0.285 -0.5883  0.2092 -0.4412
 2623SOL    MW410266   0.272   1.976   0.318 -0.5137  0.2769 -0.3894
 2624SOL     OW10267   1.287   0.417   0.873 -0.0519 -0.4018 -0.0286
 2624SOL    HW210268   1.312   0.361   0.947 -0.4453 -1.6044 -0.7891
 2624SOL    HW310269   1.368   0.429   0.824  0.0461 -0.2459  0.1693
 2624SOL    MW410270   1.301   0.411   0.877 -0.0909 -0.5399 -0.1028
 2625SOL     OW10271   1.260   5.025   2.729  0.1356 -0.3092 -0.1159
 2625SOL    HW210272   1.193   4.965   2.697  0.9644 -0.7094 -1.1598
 2625SOL    HW310273   1.342   4.977   2.717  0.8063  0.9885 -0.8765
 2625SOL    MW410274   1.262   5.011   2.723  0.3334 -0.1908 -0.3539
 2626SOL     OW10275   1.474   0.952   3.001  0.2626  0.0714  0.0190
 2626SOL    HW210276   1.528   0.873   2.992  0.6142  0.4032 -0.8488
 2626SOL    HW310277   1.482   0.976   3.094  0.9507 -0.3480  0.0719
 2626SOL    MW410278   1.482   0.945   3.012  0.3998  0.0598 -0.0885
 2627SOL     OW10279   1.153   1.099   3.221 -1.0471  0.2101  0.2060
 2627SOL    HW210280   1.099   1.066   3.293  1.1176  0.0394  1.8239
 2627SOL    HW310281   1.144   1.194   3.226  0.4965  0.3119  1.9163
 2627SOL    MW410282   1.145   1.107   3.231 -0.5578  0.2010  0.6451
 2628SOL     OW10283   1.886   0.782   0.393  0.1468 -0.3856 -0.3077
 2628SOL    HW210284   1.960   0.779   0.333  0.3171  0.7345 -0.1763
 2628SOL    HW310285   1.816   0.736   0.346  0.6889 -0.7713 -0.7586
 2628SOL    MW410286   1.886   0.775   0.379  0.2408 -0.2887 -0.3499
 2629SOL     OW10287   2.239   1.835   1.761 -0.5112 -0.7795  0.0579
 2629SOL    HW210288   2.241   1.809   1.853  1.6170 -0.5790  0.1289
 2629SOL    HW310289   2.247   1.752   1.713  0.4586 -0.7531  0.1410
 2629SOL    MW410290   2.241   1.820   1.767 -0.1025 -0.7496  0.0782
 2630SOL     OW10291   2.756   4.341   4.253 -0.2748  0.0961  0.9086
 2630SOL    HW210292   2.741   4.334   4.348  0.6298 -2.8718  0.9336
 2630SOL    HW310293   2.696   4.278   4.214 -0.6939  1.3346 -0.5740
 2630SOL    MW410294   2.746   4.332   4.261 -0.2108 -0.1321  0.7163
 2631SOL     OW10295   1.732   3.619   2.123 -0.0511  0.4007  1.0095
 2631SOL    HW210296   1.781   3.580   2.050  0.2429  2.0342  0.2883
 2631SOL    HW310297   1.772   3.580   2.202  1.2092  0.3433  0.3750
 2631SOL    MW410298   1.744   3.609   2.124  0.1540  0.6086  0.8306
 2632SOL     OW10299   1.032   0.169   3.591 -0.6122  0.6452 -0.4191
 2632SOL    HW210300   0.980   0.228   3.537  0.4844 -0.3655 -2.7397
 2632SOL    HW310301   0.978   0.090   3.598 -0.9216  0.9118  0.3670
 2632SOL    MW410302   1.018   0.166   3.585 -0.5083  0.5470 -0.6215
 2633SOL     OW10303   1.611   2.898   3.088 -0.7641 -0.0779  0.1106
 2633SOL    HW210304   1.601   2.815   3.042  0.3748 -0.1018 -0.1131
 2633SOL    HW310305   1.554   2.959   3.041  0.9042  0.0765 -1.7858
 2633SOL    MW410306   1.602   2.895   3.076 -0.3937 -0.0607 -0.1691
 2634SOL     OW10307   2.796   3.673   5.203  0.2898  0.4717  0.4378
 2634SOL    HW210308   2.802   3.695   5.110 -0.8049  0.7300  0.4152
 2634SOL    HW310309   2.797   3.577   5.204  0.0823  0.4644  0.1442
 2634SOL    MW410310   2.797   3.663   5.191  0.1180  0.5048  0.3961
 2635SOL     OW10311   5.407   4.382   2.398  0.5691 -0.2016  0.5376
 2635SOL    HW210312   5.343   4.422   2.456 -0.7335 -0.0993 -0.8885
 2635SOL    HW310313   5.370   4.393   2.310  2.6257  0.0182 -0.3738
 2635SOL    MW410314   5.394   4.389   2.394  0.6686 -0.1591  0.2292
 2636SOL     OW10315   5.129   6.209   1.164 -0.4828 -0.4368  0.7551
 2636SOL    HW210316   5.167   6.185   1.249 -0.7187  0.8497  1.2391
 2636SOL    HW310317   5.038   6.177   1.169 -0.0347 -1.8666  0.3072
 2636SOL    MW410318   5.122   6.202   1.176 -0.4548 -0.4557  0.7599
 2637SOL     OW10319   3.054   2.063   2.462  0.1309  0.1257  0.3608
 2637SOL    HW210320   3.029   1.983   2.508 -0.1654 -0.2766 -0.4832
 2637SOL    HW310321   3.114   2.107   2.522 -2.5752  1.1699  2.5181
 2637SOL    MW410322   3.059   2.058   2.476 -0.2652  0.2104  0.5341
 2638SOL     OW10323   4.048   5.668   4.259 -0.1956 -0.0793  0.5369
 2638SOL    HW210324   3.999   5.640   4.182 -0.8271  1.8491  0.1750
 2638SOL    HW310325   4.125   5.611   4.261  0.0249  0.0420 -1.7377
 2638SOL    MW410326   4.052   5.657   4.249 -0.2499  0.1912  0.1890
 2639SOL     OW10327   5.801   3.763   0.387  0.0386  0.9144 -0.4226
 2639SOL    HW210328   5.807   3.741   0.480  0.6847 -0.1333 -0.6998
 2639SOL    HW310329   5.852   3.844   0.379  2.3643 -0.4572 -0.3103
 2639SOL    MW410330   5.809   3.771   0.398  0.4307  0.5952 -0.4443
 2640SOL     OW10331   3.425   0.013   1.194 -0.2740 -0.4354  0.2344
 2640SOL    HW210332   3.364  -0.059   1.208  0.3520 -0.7737  1.4329
 2640SOL    HW310333   3.379   0.090   1.228 -0.8757 -0.2892 -0.8870
 2640SOL    MW410334   3.411   0.014   1.200 -0.2708 -0.4608  0.2446
 2641SOL     OW10335   5.668   3.086   3.379  0.3651  0.1178  0.1448
 2641SOL    HW210336   5.575   3.106   3.375  0.3264  0.2204  1.1690
 2641SOL    HW310337   5.711   3.161   3.339  0.1150  1.2795  1.9290
 2641SOL    MW410338   5.661   3.098   3.374  0.3270  0.2847  0.5153
 2642SOL     OW10339   6.321   2.795   5.524 -0.3262  0.3152 -0.7655
 2642SOL    HW210340   6.234   2.797   5.484 -0.0410 -0.0227 -1.4239
 2642SOL    HW310341   6.320   2.867   5.587  0.1344  2.7705 -3.3474
 2642SOL    MW410342   6.309   2.804   5.527 -0.2278  0.5946 -1.1930
 2643SOL     OW10343   0.526   5.596   4.144 -0.6604  0.2465 -0.2398
 2643SOL    HW210344   0.565   5.630   4.063 -3.0813 -0.1948 -1.6799
 2643SOL    HW310345   0.528   5.501   4.134 -2.2982  0.2088 -0.5110
 2643SOL    MW410346   0.531   5.588   4.132 -1.1959  0.1833 -0.4656
 2644SOL     OW10347   5.800   1.275   3.894 -0.1764 -0.5136  0.2820
 2644SOL    HW210348   5.775   1.190   3.929  2.5152 -1.0100  1.2304
 2644SOL    HW310349   5.894   1.282   3.911 -0.2341  2.5409 -0.0346
 2644SOL    MW410350   5.809   1.265   3.901  0.1711 -0.1761  0.3653
 2645SOL     OW10351   0.296   4.465   5.203  0.0973 -0.4212  0.0074
 2645SOL    HW210352   0.203   4.456   5.224 -0.4187  0.9685 -1.4846
 2645SOL    HW310353   0.307   4.557   5.180  2.4420  0.1158  2.6941
 2645SOL    MW410354   0.285   4.476   5.203  0.3386 -0.1670  0.1650
 2646SOL     OW10355   2.928   3.808   3.759  0.1221 -0.5087  0.2640
 2646SOL    HW210356   2.945   3.860   3.838  1.0363 -1.3131  0.6160
 2646SOL    HW310357   3.013   3.768   3.738 -0.4410 -1.4438 -0.2947
 2646SOL    MW410358   2.941   3.810   3.767  0.1684 -0.7382  0.2367
 2647SOL     OW10359   1.791   1.192   0.215  0.3142  0.1999  0.6422
 2647SOL    HW210360   1.811   1.283   0.232 -0.2392  0.3693  0.4277
 2647SOL    HW310361   1.763   1.157   0.300 -1.8006  0.8710  0.2900
 2647SOL    MW410362   1.790   1.199   0.228 -0.0379  0.3108  0.5674
 2648SOL     OW10363   5.661   6.031   5.385  0.5234  0.6570  0.5912
 2648SOL    HW210364   5.663   6.113   5.336  2.5287  0.5250  0.3914
 2648SOL    HW310365   5.704   6.052   5.468 -2.0175  0.6445  2.0233
 2648SOL    MW410366   5.667   6.045   5.390  0.4528  0.6380  0.7538
 2649SOL     OW10367   4.177   3.428   3.051  0.3183 -0.3789 -0.0557
 2649SOL    HW210368   4.101   3.425   2.993  0.5727 -1.7708 -0.3520
 2649SOL    HW310369   4.242   3.373   3.008  2.3010  2.3967 -0.8564
 2649SOL    MW410370   4.175   3.421   3.038  0.6135 -0.1963 -0.2004
 2650SOL     OW10371   3.210   2.495   2.890 -0.1190  0.2869  0.7254
 2650SOL    HW210372   3.271   2.504   2.817  1.5474 -1.3304  1.7970
 2650SOL    HW310373   3.244   2.554   2.957  1.0130 -1.3987  1.7210
 2650SOL    MW410374   3.223   2.504   2.889  0.2502 -0.1489  0.9982
 2651SOL     OW10375   0.386   2.901   4.469  0.2111 -0.0767 -0.2659
 2651SOL    HW210376   0.341   2.848   4.404  0.7973 -1.1569  0.1848
 2651SOL    HW310377   0.335   2.982   4.475  0.8366  0.6002 -2.9690
 2651SOL    MW410378   0.374   2.905   4.461  0.3710 -0.1299 -0.5631
 2652SOL     OW10379   4.200   2.987   1.175  0.1373  0.6288  0.2197
 2652SOL    HW210380   4.294   2.986   1.194  0.0627 -0.6300  0.5955
 2652SOL    HW310381   4.182   2.901   1.137 -1.0908  0.3309  1.3813
 2652SOL    MW410382   4.210   2.976   1.173 -0.0346  0.4234  0.4225
 2653SOL     OW10383   5.964   1.598   1.717 -0.3757  0.3234  0.3825
 2653SOL    HW210384   5.972   1.633   1.806  0.7871  0.6912  0.1528
 2653SOL    HW310385   5.886   1.542   1.720 -0.0321 -0.1194  1.7775
 2653SOL    MW410386   5.955   1.595   1.729 -0.1769  0.3135  0.5363
 2654SOL     OW10387   0.117   2.815   3.404 -0.4634 -0.2066  0.4134
 2654SOL    HW210388   0.148   2.869   3.331  0.2523  0.9628  1.5420
 2654SOL    HW310389   0.051   2.869   3.447  0.5331 -0.0206  1.7840
 2654SOL    MW410390   0.113   2.830   3.400 -0.2375 -0.0278  0.7432
 2655SOL     OW10391   5.917   0.725   2.558 -0.3533  0.0920 -0.1033
 2655SOL    HW210392   5.872   0.642   2.542 -1.5552  0.3904  1.4594
 2655SOL    HW310393   5.995   0.701   2.609 -1.3728 -0.0139  1.4875
 2655SOL    MW410394   5.921   0.711   2.563 -0.6464  0.1174  0.3128
 2656SOL     OW10395   5.309   6.234   4.236  0.1526 -0.2397 -0.1012
 2656SOL    HW210396   5.282   6.152   4.194 -0.9351  0.3891 -0.6795
 2656SOL    HW310397   5.228   6.271   4.271  0.4818  0.9881 -0.5676
 2656SOL    MW410398   5.295   6.228   4.235  0.0526  0.0052 -0.2390
 2657SOL     OW10399   5.933   1.524   2.870  0.3777  0.5963  0.3730
 2657SOL    HW210400   5.957   1.591   2.934  0.2019  1.2598 -0.2419
 2657SOL    HW310401   6.016   1.496   2.832  0.8914 -2.2248  3.1748
 2657SOL    MW410402   5.947   1.529   2.873  0.4223  0.3116  0.6615
 2658SOL     OW10403   5.108   1.538   1.475  0.0318  0.6492 -0.6992
 2658SOL    HW210404   5.030   1.509   1.428  0.3803 -0.7249 -0.4958
 2658SOL    HW310405   5.151   1.456   1.502  0.4398  1.3800  1.0089
 2658SOL    MW410406   5.103   1.523   1.472  0.1316  0.5643 -0.4470
 2659SOL     OW10407   3.715   6.188   5.178 -0.4279 -0.1679  0.1117
 2659SOL    HW210408   3.709   6.204   5.084 -1.2780 -1.7896 -0.1418
 2659SOL    HW310409   3.642   6.237   5.216  0.1545  0.8125 -0.0068
 2659SOL    MW410410   3.705   6.196   5.171 -0.4632 -0.2525  0.0626
 2660SOL     OW10411   4.486   2.669   4.503 -0.0015  0.1445 -0.7922
 2660SOL    HW210412   4.417   2.721   4.461  0.0127 -0.4008 -1.4969
 2660SOL    HW310413   4.566   2.718   4.485 -0.2352  1.0323  0.4314
 2660SOL    MW410414   4.487   2.683   4.495 -0.0304  0.1897 -0.7238
 2661SOL     OW10415   3.251   4.749   0.962 -0.2756  0.0220 -0.5008
 2661SOL    HW210416   3.312   4.815   0.928  2.1375 -1.4150  0.8070
 2661SOL    HW310417   3.209   4.792   1.037  1.4715  0.0378  0.5146
 2661SOL    MW410418   3.253   4.764   0.967  0.2733 -0.1655 -0.1943
 2662SOL     OW10419   3.787   1.190   0.521  0.4179  0.6406 -0.1505
 2662SOL    HW210420   3.825   1.277   0.508  1.4983  0.0657 -0.9760
 2662SOL    HW310421   3.859   1.129   0.506 -0.4795 -0.4334 -0.2947
 2662SOL    MW410422   3.801   1.194   0.517  0.4421  0.4230 -0.2785
 2663SOL     OW10423   2.229   1.721   5.953  0.1900  0.2543  0.1886
 2663SOL    HW210424   2.206   1.700   5.863  0.6865  0.3703  0.0305
 2663SOL    HW310425   2.300   1.660   5.974  0.6261  0.7644  0.2250
 2663SOL    MW410426   2.235   1.710   5.944  0.3130  0.3369  0.1725
 2664SOL     OW10427   0.811   6.060   4.239  0.7097  0.0954  0.2333
 2664SOL    HW210428   0.801   6.027   4.150 -0.7736 -0.4699  0.5789
 2664SOL    HW310429   0.790   6.153   4.234 -3.4787 -0.6490  0.5780
 2664SOL    MW410430   0.807   6.068   4.227 -0.0386 -0.0774  0.3243
 2665SOL     OW10431   4.532   2.906   6.347 -0.4965  0.0418 -0.4198
 2665SOL    HW210432   4.450   2.923   6.395  0.1542  0.0553  0.7071
 2665SOL    HW310433   4.503   2.871   6.262 -1.6534 -1.0155  0.3829
 2665SOL    MW410434   4.517   2.904   6.342 -0.5632 -0.0959 -0.1652
 2666SOL     OW10435   1.781   5.425   3.051  0.0607 -0.0216  0.2301
 2666SOL    HW210436   1.750   5.345   3.009  1.8707 -0.2175 -0.8742
 2666SOL    HW310437   1.704   5.479   3.060 -0.8936 -1.1527 -0.7347
 2666SOL    MW410438   1.767   5.421   3.047  0.1736 -0.1967 -0.0429
 2667SOL     OW10439   1.539   0.471   3.420 -0.2912 -0.3656  0.2066
 2667SOL    HW210440   1.624   0.458   3.463  0.3308 -1.0016 -1.1446
 2667SOL    HW310441   1.545   0.558   3.380 -0.4701 -0.2055  0.5256
 2667SOL    MW410442   1.551   0.481   3.420 -0.2327 -0.4284  0.0704
 2668SOL     OW10443   5.925   5.718   0.914  0.5520  0.4849 -0.4558
 2668SOL    HW210444   5.844   5.767   0.926  1.0400  1.1955 -0.0181
 2668SOL    HW310445   5.904   5.629   0.942 -0.3029  0.4616 -1.1270
 2668SOL    MW410446   5.911   5.712   0.919  0.5036  0.5756 -0.4866
 2669SOL     OW10447   0.159   3.943   2.584 -0.1965  0.1249  0.1368
 2669SOL    HW210448   0.209   3.871   2.545  1.1855  0.5367  1.0800
 2669SOL    HW310449   0.174   4.017   2.524  2.3235  0.8908  1.5690
 2669SOL    MW410450   0.167   3.943   2.571  0.3183  0.2803  0.4502
 2670SOL     OW10451   1.399   4.141   4.887  0.0785 -0.0347 -0.4841
 2670SOL    HW210452   1.351   4.212   4.929 -0.7841 -0.3151 -0.9619
 2670SOL    HW310453   1.469   4.185   4.839  1.6380  0.2297  1.8878
 2670SOL    MW410454   1.402   4.156   4.886  0.1705 -0.0368 -0.2342
 2671SOL     OW10455   2.745   0.745   1.916 -0.4694 -0.5453  0.2040
 2671SOL    HW210456   2.758   0.702   1.832  2.8639 -0.1758  0.3889
 2671SOL    HW310457   2.816   0.809   1.922 -1.5415  0.5810  2.6322
 2671SOL    MW410458   2.756   0.748   1.906 -0.1711 -0.3479  0.5488
 2672SOL     OW10459   3.478   4.443   2.869 -0.8804  0.0015 -0.0485
 2672SOL    HW210460   3.512   4.476   2.951  1.0523 -0.3766 -0.6480
 2672SOL    HW310461   3.508   4.506   2.803  0.9550 -1.6837 -0.9143
 2672SOL    MW410462   3.486   4.456   2.871 -0.3833 -0.2707 -0.2418
 2673SOL     OW10463   2.658   4.797   3.968  0.2446 -0.1316 -0.0719
 2673SOL    HW210464   2.591   4.735   3.999 -0.6582  0.4580 -0.7896
 2673SOL    HW310465   2.737   4.773   4.017 -1.2666  1.3658  3.4889
 2673SOL    MW410466   2.660   4.786   3.979 -0.0739  0.1437  0.3032
 2674SOL     OW10467   3.778   0.260   5.050 -0.8419 -0.1527  0.1335
 2674SOL    HW210468   3.832   0.200   4.998 -0.4324  0.1523  0.2090
 2674SOL    HW310469   3.715   0.202   5.094  0.3548 -0.6798  1.2162
 2674SOL    MW410470   3.777   0.244   5.049 -0.6300 -0.1820  0.2863
 2675SOL     OW10471   6.138   1.259   2.537  0.3179  0.2520  0.3667
 2675SOL    HW210472   6.132   1.164   2.530  0.6730  0.2983 -0.8150
 2675SOL    HW310473   6.085   1.281   2.614  0.8753 -0.9535  1.1250
 2675SOL    MW410474   6.130   1.250   2.546  0.4383  0.0991  0.3109
 2676SOL     OW10475   1.547   1.778   3.286  0.2414 -0.6420  0.1249
 2676SOL    HW210476   1.539   1.781   3.382  1.5812  1.8164  0.2355
 2676SOL    HW310477   1.601   1.853   3.264  0.3272 -1.3888 -2.5732
 2676SOL    MW410478   1.553   1.788   3.296  0.4295 -0.4162 -0.2165
 2677SOL     OW10479  -0.004   3.302   2.919  0.0684  0.3216 -0.0099
 2677SOL    HW210480  -0.053   3.240   2.972  0.7093 -1.3076 -1.2292
 2677SOL    HW310481  -0.068   3.369   2.894 -1.4598 -1.5133 -1.2044
 2677SOL    MW410482  -0.019   3.303   2.923 -0.0487 -0.1354 -0.3284
 2678SOL     OW10483   5.223   5.283   6.070 -0.4804 -0.1740  0.9948
 2678SOL    HW210484   5.222   5.215   6.003 -0.8163  0.6039  0.1896
 2678SOL    HW310485   5.222   5.235   6.153 -0.7965 -1.1429  0.4476
 2678SOL    MW410486   5.223   5.268   6.072 -0.5664 -0.1992  0.8163
 2679SOL     OW10487   5.581   3.004   5.881  0.0368  0.5295 -0.1249
 2679SOL    HW210488   5.590   2.967   5.969  2.5657 -0.7269 -0.8097
 2679SOL    HW310489   5.621   3.091   5.889  2.8478 -0.5996 -0.5052
 2679SOL    MW410490   5.588   3.011   5.894  0.7413  0.2147 -0.2655
 2680SOL     OW10491   1.863   6.402   0.768  0.5037 -0.6349 -0.1136
 2680SOL    HW210492   1.855   6.380   0.860  0.0706  0.4117  0.1033
 2680SOL    HW310493   1.864   6.498   0.765 -1.4395 -0.6022 -1.3450
 2680SOL    MW410494   1.862   6.412   0.780  0.1902 -0.4925 -0.2475
 2681SOL     OW10495   4.747   4.515   3.262  0.3686 -0.3181 -0.3272
 2681SOL    HW210496   4.817   4.530   3.326 -0.1848  0.2148  0.1672
 2681SOL    HW310497   4.715   4.427   3.282  0.2527 -0.1864  0.0777
 2681SOL    MW410498   4.752   4.505   3.273  0.2803 -0.2305 -0.2085
 2682SOL     OW10499   2.697   4.413   1.582 -0.1012  0.0333 -0.1122
 2682SOL    HW210500   2.737   4.358   1.514 -0.0274  2.1797 -1.9613
 2682SOL    HW310501   2.766   4.423   1.648 -0.3847 -2.6162  0.6853
 2682SOL    MW410502   2.711   4.407   1.581 -0.1289 -0.0331 -0.2509
 2683SOL     OW10503   6.271   3.073   0.497 -0.5206 -0.0296  1.1244
 2683SOL    HW210504   6.210   3.000   0.492 -0.4930 -0.0707  1.3545
 2683SOL    HW310505   6.245   3.120   0.577 -0.5001  0.1766  1.0116
 2683SOL    MW410506   6.259   3.070   0.507 -0.5143 -0.0078  1.1399
 2684SOL     OW10507   3.917   3.073   3.817 -0.6409  0.4165 -0.7404
 2684SOL    HW210508   3.847   3.063   3.881  0.5383  0.3345  0.5792
 2684SOL    HW310509   3.975   2.998   3.832  1.4812  2.1782  0.5163
 2684SOL    MW410510   3.916   3.062   3.828 -0.2053  0.6381 -0.4005
 2685SOL     OW10511   5.587   1.733   2.829 -0.1856  0.2172 -0.1093
 2685SOL    HW210512   5.497   1.703   2.816 -0.3843  0.4597  0.6402
 2685SOL    HW310513   5.618   1.685   2.905  0.8963 -1.0601 -1.3164
 2685SOL    MW410514   5.579   1.723   2.837 -0.0691  0.0806 -0.1697
 2686SOL     OW10515   4.927   5.861   4.509  0.8485 -0.2812 -0.5895
 2686SOL    HW210516   4.962   5.906   4.432 -0.5003  0.2132 -0.9454
 2686SOL    HW310517   4.840   5.832   4.482  1.2216 -2.0964  0.0200
 2686SOL    MW410518   4.920   5.863   4.495  0.7198 -0.4554 -0.5560
 2687SOL     OW10519   4.173   3.459   0.081  0.6781 -0.1811 -0.0579
 2687SOL    HW210520   4.230   3.399   0.128 -0.2808  1.1461  3.0942
 2687SOL    HW310521   4.226   3.538   0.069  1.1304 -0.7331 -1.9199
 2687SOL    MW410522   4.187   3.462   0.086  0.6113 -0.0788  0.1123
 2688SOL     OW10523   4.349   3.405   3.259  0.4606 -0.2271 -0.0963
 2688SOL    HW210524   4.277   3.421   3.197 -2.2171 -1.7176  2.3928
 2688SOL    HW310525   4.409   3.477   3.244 -0.7094  0.2515 -3.4256
 2688SOL    MW410526   4.347   3.416   3.249 -0.0471 -0.3606 -0.2072
 2689SOL     OW10527   4.023   4.767   0.111  0.5794  0.4434  0.4113
 2689SOL    HW210528   4.058   4.777   0.199  0.5951 -1.1271  0.6042
 2689SOL    HW310529   4.021   4.673   0.096 -0.1117  0.6524 -0.9944
 2689SOL    MW410530   4.027   4.756   0.120  0.4903  0.2638  0.2513
 2690SOL     OW10531   0.865   6.297   4.929 -0.1357  0.1500  0.2292
 2690SOL    HW210532   0.893   6.388   4.916 -0.5918  0.3909  0.8803
 2690SOL    HW310533   0.770   6.301   4.933 -0.5771 -0.9397 -4.2346
 2690SOL    MW410534   0.856   6.310   4.928 -0.2541  0.0380 -0.2739
 2691SOL     OW10535   5.791   1.244   3.597 -0.0416  0.3010 -0.7896
 2691SOL    HW210536   5.777   1.265   3.690  0.1379  2.2195 -1.1731
 2691SOL    HW310537   5.772   1.150   3.592  0.2001  0.0901  1.2308
 2691SOL    MW410538   5.786   1.234   3.609  0.0140  0.5263 -0.5737
 2692SOL     OW10539   3.021   5.758   3.147  0.5113 -0.0319  0.5994
 2692SOL    HW210540   3.039   5.715   3.064 -0.8388  0.4168  0.0532
 2692SOL    HW310541   3.107   5.788   3.178  0.8872  0.9733 -1.2883
 2692SOL    MW410542   3.035   5.757   3.140  0.3828  0.1599  0.2783
 2693SOL     OW10543   0.180   6.205   2.256  0.4992 -0.3208 -0.6026
 2693SOL    HW210544   0.111   6.193   2.321 -0.5650 -1.5151 -1.8962
 2693SOL    HW310545   0.204   6.297   2.264 -2.8790  0.7752 -1.6370
 2693SOL    MW410546   0.174   6.215   2.266 -0.0869 -0.3337 -0.9098
 2694SOL     OW10547   2.081   5.381   1.118 -0.4332  0.0103 -0.5521
 2694SOL    HW210548   2.072   5.389   1.023 -0.0796 -0.6455 -0.6445
 2694SOL    HW310549   2.106   5.290   1.133 -0.7597  0.0293  0.1928
 2694SOL    MW410550   2.083   5.370   1.108 -0.4296 -0.0737 -0.4660
 2695SOL     OW10551   3.773   2.874   2.797 -0.4276 -0.2530  0.1898
 2695SOL    HW210552   3.776   2.955   2.746 -1.0264 -0.4650 -0.1833
 2695SOL    HW310553   3.844   2.821   2.762  0.2153  0.2555  0.6935
 2695SOL    MW410554   3.783   2.878   2.786 -0.4218 -0.2139  0.2070
 2696SOL     OW10555   5.451   1.971   1.573 -0.2855  0.0912 -0.1822
 2696SOL    HW210556   5.451   2.067   1.575  0.9278  0.1069  0.0213
 2696SOL    HW310557   5.441   1.945   1.664 -2.8943 -0.0402 -0.4360
 2696SOL    MW410558   5.450   1.980   1.585 -0.4696  0.0759 -0.1889
 2697SOL     OW10559   6.366   3.745   0.195  0.6177 -0.0585 -0.3963
 2697SOL    HW210560   6.377   3.728   0.101  0.2859 -1.2865 -0.2300
 2697SOL    HW310561   6.408   3.670   0.238 -0.6731 -0.3602  0.3961
 2697SOL    MW410562   6.373   3.733   0.188  0.4037 -0.2603 -0.2698
 2698SOL     OW10563   2.389   1.078   2.442  0.0632  0.4633 -0.6083
 2698SOL    HW210564   2.351   1.130   2.371 -0.4313  0.4119 -0.3896
 2698SOL    HW310565   2.316   1.027   2.476  0.6255 -0.6785 -1.0765
 2698SOL    MW410566   2.374   1.078   2.437  0.0722  0.3059 -0.6412
 2699SOL     OW10567   2.582   3.911   0.260 -0.0268 -0.6758  0.0829
 2699SOL    HW210568   2.543   3.860   0.189 -0.6559  0.5390 -0.4830
 2699SOL    HW310569   2.515   3.911   0.329 -0.9407  1.0948 -0.7417
 2699SOL    MW410570   2.568   3.904   0.260 -0.2304 -0.2819 -0.1006
 2700SOL     OW10571   0.062   5.964   1.495 -0.0680  0.4000 -0.1682
 2700SOL    HW210572   0.049   6.031   1.562 -0.2376  0.2241 -0.0255
 2700SOL    HW310573   0.155   5.940   1.504  0.2303  1.2548 -0.8199
 2700SOL    MW410574   0.073   5.970   1.505 -0.0510  0.4896 -0.2353
 2701SOL     OW10575   2.180   1.676   3.615  0.9518 -0.1213  0.0608
 2701SOL    HW210576   2.204   1.618   3.543 -0.3085 -0.4867 -0.0974
 2701SOL    HW310577   2.229   1.756   3.600  1.2992 -0.4791 -0.7597
 2701SOL    MW410578   2.190   1.679   3.604  0.8314 -0.2167 -0.0683
 2702SOL     OW10579   1.245   6.049   4.583  0.5848 -0.3107 -0.0071
 2702SOL    HW210580   1.206   6.110   4.645  0.7821 -1.2690  1.0826
 2702SOL    HW310581   1.303   6.103   4.530 -0.8424  0.8226 -0.4922
 2702SOL    MW410582   1.248   6.064   4.584  0.4225 -0.2876  0.0727
 2703SOL     OW10583   4.695   4.371   3.654  0.4622  0.6232 -0.2819
 2703SOL    HW210584   4.642   4.357   3.575  0.2440  2.1587 -0.4347
 2703SOL    HW310585   4.784   4.349   3.628  0.4602  1.5380 -1.0953
 2703SOL    MW410586   4.699   4.366   3.640  0.4332  0.9465 -0.4094
 2704SOL     OW10587   0.460   4.625   3.525 -0.2881 -0.0612 -0.1729
 2704SOL    HW210588   0.512   4.616   3.445 -3.3711 -0.6231 -2.2988
 2704SOL    HW310589   0.397   4.693   3.504 -0.0516  1.0802  2.5347
 2704SOL    MW410590   0.459   4.633   3.511 -0.6637  0.0153 -0.0961
 2705SOL     OW10591   5.650   0.130   2.991  0.8381 -0.1259 -0.5381
 2705SOL    HW210592   5.674   0.096   3.077 -0.4782  1.7677  0.6569
 2705SOL    HW310593   5.709   0.205   2.979  1.5838 -0.8790 -1.6903
 2705SOL    MW410594   5.661   0.135   3.001  0.7629  0.0246 -0.5325
 2706SOL     OW10595   6.322   5.033   2.542  0.4478 -0.2599 -0.0965
 2706SOL    HW210596   6.253   5.024   2.607  1.8456 -0.9459  1.3584
 2706SOL    HW310597   6.357   4.944   2.532  0.7314 -0.0339 -1.2502
 2706SOL    MW410598   6.318   5.020   2.549  0.6696 -0.3206 -0.0568
 2707SOL     OW10599   5.081   0.486   0.566 -0.5276 -0.3072 -0.0143
 2707SOL    HW210600   5.112   0.414   0.622 -1.6751 -1.9367 -1.3923
 2707SOL    HW310601   5.144   0.489   0.494 -1.3784 -1.0496 -0.8064
 2707SOL    MW410602   5.093   0.477   0.564 -0.7912 -0.6201 -0.3006
 2708SOL     OW10603   1.218   3.765   5.814  0.4052 -0.3320  0.1361
 2708SOL    HW210604   1.272   3.785   5.891 -0.7868  2.4481  0.3617
 2708SOL    HW310605   1.128   3.779   5.844 -0.2484 -1.4815 -1.1830
 2708SOL    MW410606   1.213   3.769   5.828  0.1617 -0.1169 -0.0082
 2709SOL     OW10607   2.295   1.328   2.324  0.2530  0.0004 -0.1616
 2709SOL    HW210608   2.269   1.323   2.232  0.1423  1.0585 -0.2056
 2709SOL    HW310609   2.390   1.328   2.323  0.3179 -2.5165 -0.0890
 2709SOL    MW410610   2.304   1.327   2.312  0.2470 -0.1921 -0.1578
 2710SOL     OW10611   0.308   3.299   5.207  0.2500  0.0877  0.1653
 2710SOL    HW210612   0.274   3.226   5.156 -0.1214 -0.3108  0.9626
 2710SOL    HW310613   0.357   3.258   5.279  2.7712  0.6327 -1.1159
 2710SOL    MW410614   0.310   3.284   5.210  0.5337  0.1070  0.1015
 2711SOL     OW10615   1.037   0.850   1.190 -0.5705 -0.5060 -0.1112
 2711SOL    HW210616   1.126   0.878   1.169  0.0992 -1.6359  1.1030
 2711SOL    HW310617   1.008   0.802   1.112  0.3169 -1.1044 -0.0914
 2711SOL    MW410618   1.045   0.848   1.177 -0.3650 -0.7340  0.0516
 2712SOL     OW10619   5.827   2.396   4.592 -0.3576 -0.3271  0.3139
 2712SOL    HW210620   5.830   2.396   4.688 -1.2478  0.0027  0.3470
 2712SOL    HW310621   5.779   2.476   4.570  0.6649  0.1016 -0.4467
 2712SOL    MW410622   5.821   2.407   4.602 -0.3402 -0.2270  0.2179
 2713SOL     OW10623   4.396   2.546   6.189 -0.4388 -0.0934 -0.0868
 2713SOL    HW210624   4.308   2.516   6.165 -0.2259 -1.0114  0.2477
 2713SOL    HW310625   4.381   2.609   6.259 -0.7836 -1.1510  0.8202
 2713SOL    MW410626   4.382   2.551   6.195 -0.4562 -0.3540  0.0770
 2714SOL     OW10627   1.055   6.032   1.384 -0.3422  0.0617  0.1642
 2714SOL    HW210628   1.008   5.970   1.327 -0.8227  1.6162 -1.2039
 2714SOL    HW310629   0.993   6.102   1.400  0.9886  1.4499 -0.4718
 2714SOL    MW410630   1.041   6.033   1.378 -0.2300  0.4499 -0.1002
 2715SOL     OW10631   0.935   3.165   5.382  0.0871 -0.0515 -0.0301
 2715SOL    HW210632   0.859   3.137   5.332  0.1618 -1.3003  0.5145
 2715SOL    HW310633   0.920   3.258   5.399 -0.7668 -0.0236 -0.8812
 2715SOL    MW410634   0.923   3.173   5.378 -0.0157 -0.2126 -0.0705
 2716SOL     OW10635   3.825   2.168   1.664  0.3294  0.4873 -0.0055
 2716SOL    HW210636   3.836   2.175   1.569 -1.7080  0.2720 -0.3011
 2716SOL    HW310637   3.730   2.176   1.678  0.3642 -1.4697  1.8228
 2716SOL    MW410638   3.814   2.170   1.654  0.0652  0.2007  0.1967
 2717SOL     OW10639   0.866   4.476   3.831 -0.2904  0.5915 -0.3362
 2717SOL    HW210640   0.876   4.419   3.755 -0.9966  0.6914 -0.5127
 2717SOL    HW310641   0.954   4.482   3.868  0.1150  0.7432 -1.2915
 2717SOL    MW410642   0.879   4.469   3.826 -0.3301  0.6247 -0.4855
 2718SOL     OW10643   4.867   5.352   3.863 -0.5247  0.0665 -0.0965
 2718SOL    HW210644   4.821   5.398   3.793  0.9213  1.5489 -0.1387
 2718SOL    HW310645   4.934   5.301   3.817 -2.0716 -2.1565 -0.0487
 2718SOL    MW410646   4.870   5.351   3.847 -0.5380 -0.0312 -0.0958
 2719SOL     OW10647   1.044   5.075   0.145 -0.1177  0.1765 -0.4358
 2719SOL    HW210648   1.104   5.029   0.204  0.7647 -0.0836 -1.4978
 2719SOL    HW310649   0.991   5.005   0.106 -1.4050  0.4282  0.7411
 2719SOL    MW410650   1.045   5.060   0.148 -0.1711  0.1754 -0.4206
 2720SOL     OW10651   3.213   3.152   1.438  0.0567 -0.7730 -0.7030
 2720SOL    HW210652   3.281   3.208   1.401  1.4748 -1.0109  1.4179
 2720SOL    HW310653   3.244   3.063   1.423  1.6858 -0.9107  2.5409
 2720SOL    MW410654   3.226   3.148   1.431  0.4588 -0.8225  0.0048
 2721SOL     OW10655   2.822   0.023   3.664  0.2584  0.0569  0.2698
 2721SOL    HW210656   2.839   0.114   3.637 -0.5931  1.6041  4.3239
 2721SOL    HW310657   2.736   0.003   3.627  1.0685  0.2695 -1.8760
 2721SOL    MW410658   2.813   0.033   3.655  0.2530  0.2891  0.5216
 2722SOL     OW10659   1.056   0.648   1.931  0.6552 -0.1293  0.5773
 2722SOL    HW210660   1.129   0.649   1.869 -0.0714  0.7826 -0.2958
 2722SOL    HW310661   1.070   0.570   1.984  2.2598  0.0226  0.4217
 2722SOL    MW410662   1.067   0.638   1.930  0.7710  0.0110  0.4416
 2723SOL     OW10663   2.532   2.740   3.383  0.4021 -0.0972 -0.0274
 2723SOL    HW210664   2.605   2.799   3.365  1.3007 -0.9954  0.5564
 2723SOL    HW310665   2.456   2.785   3.347  0.7943  2.0914  1.6279
 2723SOL    MW410666   2.532   2.754   3.376  0.5724  0.0730  0.2680
 2724SOL     OW10667   1.755   1.346   4.872  0.0098  0.4641  0.0499
 2724SOL    HW210668   1.666   1.324   4.845 -0.9503  1.0974  2.4051
 2724SOL    HW310669   1.773   1.289   4.946  1.5556  0.4387 -0.3024
 2724SOL    MW410670   1.746   1.336   4.878  0.0871  0.5443  0.3142
 2725SOL     OW10671   6.005   2.808   4.667  0.1876 -0.0523  0.0844
 2725SOL    HW210672   5.957   2.848   4.594 -1.0077 -2.3073 -0.4558
 2725SOL    HW310673   6.004   2.875   4.735 -0.7430  1.2454 -1.1258
 2725SOL    MW410674   5.998   2.823   4.666 -0.0929 -0.1786 -0.1465
 2726SOL     OW10675   3.275   4.449   1.957 -0.8517  0.0431 -0.2067
 2726SOL    HW210676   3.307   4.495   2.035  3.3301 -1.4023 -0.8652
 2726SOL    HW310677   3.208   4.389   1.991 -0.6058  0.8811  1.9224
 2726SOL    MW410678   3.270   4.447   1.972 -0.2675 -0.0370 -0.0127
 2727SOL     OW10679   4.156   2.429   6.224 -0.3085  0.4815 -0.0325
 2727SOL    HW210680   4.093   2.367   6.187  0.2150 -0.9634  1.3782
 2727SOL    HW310681   4.108   2.472   6.295 -1.0113  2.5624 -1.6562
 2727SOL    MW410682   4.141   2.426   6.229 -0.3322  0.5654 -0.0606
 2728SOL     OW10683   1.458   2.453   5.338 -0.1882  0.1762  0.0321
 2728SOL    HW210684   1.444   2.422   5.249 -1.0220  0.3954  0.0756
 2728SOL    HW310685   1.531   2.514   5.331  1.7871 -2.0717  0.0269
 2728SOL    MW410686   1.465   2.457   5.325 -0.0376 -0.0915  0.0372
 2729SOL     OW10687   1.400   6.149   5.310 -0.3033 -0.0101  0.5029
 2729SOL    HW210688   1.496   6.149   5.317 -0.3112  1.7524  0.9558
 2729SOL    HW310689   1.384   6.138   5.216  0.1636 -4.9342  0.7289
 2729SOL    MW410690   1.411   6.147   5.299 -0.2428 -0.4272  0.5925
 2730SOL     OW10691   3.670   1.890   6.377 -0.3413  0.0605  0.0135
 2730SOL    HW210692   3.700   1.831   6.446  2.1886  1.7048  0.4328
 2730SOL    HW310693   3.638   1.967   6.423  2.0755  1.4980 -0.5468
 2730SOL    MW410694   3.670   1.892   6.392  0.3114  0.4671 -0.0051
 2731SOL     OW10695   2.662   2.145   3.437 -0.1604 -0.1122  0.3780
 2731SOL    HW210696   2.608   2.106   3.368  1.5386 -0.7583 -0.6360
 2731SOL    HW310697   2.645   2.239   3.430 -2.6358 -0.4202  1.4056
 2731SOL    MW410698   2.653   2.152   3.427 -0.2628 -0.2381  0.3798
 2732SOL     OW10699   1.526   4.436   2.665  0.1538 -0.6547  0.0458
 2732SOL    HW210700   1.509   4.460   2.575  0.9189 -0.1164  0.0369
 2732SOL    HW310701   1.606   4.383   2.661  0.4527 -0.2399  0.4540
 2732SOL    MW410702   1.534   4.432   2.653  0.2941 -0.5289  0.0984
 2733SOL     OW10703   2.562   2.783   0.404 -0.2752 -0.1995 -0.6383
 2733SOL    HW210704   2.521   2.868   0.390  2.9418  1.4705 -0.7455
 2733SOL    HW310705   2.601   2.762   0.319  1.6321 -0.2051  0.2060
 2733SOL    MW410706   2.562   2.791   0.391  0.4009  0.0201 -0.5410
 2734SOL     OW10707   0.622   1.109   3.611  0.5833  0.3584  0.4419
 2734SOL    HW210708   0.570   1.042   3.655 -0.8981 -0.1703 -1.9022
 2734SOL    HW310709   0.691   1.131   3.673 -0.8081 -0.9512  2.5932
 2734SOL    MW410710   0.624   1.103   3.625  0.2043  0.1159  0.4165
 2735SOL     OW10711   0.524   5.801   1.324  0.0941  0.3243  0.4083
 2735SOL    HW210712   0.580   5.737   1.279  0.9660  0.9443  0.5913
 2735SOL    HW310713   0.585   5.867   1.358 -0.6998  0.7191  1.1033
 2735SOL    MW410714   0.540   5.801   1.323  0.1044  0.4582  0.5242
 2736SOL     OW10715   5.584   4.278   0.673  0.0661 -0.0244  0.0383
 2736SOL    HW210716   5.506   4.308   0.626 -0.8961  0.5093  1.8879
 2736SOL    HW310717   5.642   4.354   0.673  1.9254 -1.2018 -3.7523
 2736SOL    MW410718   5.581   4.292   0.667  0.1844 -0.1094 -0.2178
 2737SOL     OW10719   5.988   6.294   1.219 -0.2712  0.1820 -0.6875
 2737SOL    HW210720   5.945   6.352   1.282 -1.2990 -0.2663 -0.9496
 2737SOL    HW310721   6.067   6.265   1.264 -0.1634  1.1316 -0.2410
 2737SOL    MW410722   5.993   6.298   1.234 -0.3926  0.2481 -0.6631
 2738SOL     OW10723   3.990   3.608   5.025 -0.5654 -0.2088 -0.8209
 2738SOL    HW210724   4.053   3.622   5.095 -0.6473  0.3644 -0.8563
 2738SOL    HW310725   4.041   3.566   4.955  0.1428  1.5026 -1.3935
 2738SOL    MW410726   4.005   3.605   5.025 -0.4827  0.0926 -0.9011
 2739SOL     OW10727   3.122   1.454   4.436 -0.2051  0.7229 -0.3258
 2739SOL    HW210728   3.047   1.496   4.478 -0.1579 -0.2998  0.8352
 2739SOL    HW310729   3.088   1.419   4.355 -0.4996  1.9977 -0.7811
 2739SOL    MW410730   3.108   1.455   4.431 -0.2377  0.7562 -0.2327
 2740SOL     OW10731   0.587   5.605   1.592 -0.1081 -0.2993  0.6502
 2740SOL    HW210732   0.637   5.655   1.527 -0.4106  1.7517  1.9256
 2740SOL    HW310733   0.646   5.534   1.617  0.3344 -0.6600 -1.2168
 2740SOL    MW410734   0.601   5.602   1.586 -0.0896 -0.0763  0.5721
 2741SOL     OW10735   4.720   5.346   1.283  0.3816  0.1027 -0.4933
 2741SOL    HW210736   4.766   5.430   1.272  0.6304  0.2196  1.1470
 2741SOL    HW310737   4.656   5.344   1.212  1.0508  1.2240 -1.1547
 2741SOL    MW410738   4.717   5.357   1.272  0.5027  0.2661 -0.3641
 2742SOL     OW10739   1.524   4.917   2.736 -0.0620  0.4288 -0.5760
 2742SOL    HW210740   1.592   4.980   2.713  1.2805 -0.8792 -0.3408
 2742SOL    HW310741   1.534   4.904   2.830 -1.7117  1.3923 -0.2246
 2742SOL    MW410742   1.534   4.924   2.746 -0.1025  0.3834 -0.4986
 2743SOL     OW10743   2.430   5.331   0.507 -0.0240  0.0478 -0.7683
 2743SOL    HW210744   2.403   5.342   0.598  0.4191  0.3753 -0.6718
 2743SOL    HW310745   2.381   5.255   0.477  0.3245 -0.4701 -0.0556
 2743SOL    MW410746   2.420   5.323   0.515  0.0804  0.0226 -0.6616
 2744SOL     OW10747   2.107   0.777   0.216  0.3545 -0.4735  0.5389
 2744SOL    HW210748   2.143   0.714   0.154 -0.4612  0.6453 -1.1549
 2744SOL    HW310749   2.161   0.855   0.204  0.0362 -0.1657  1.0688
 2744SOL    MW410750   2.119   0.779   0.206  0.2049 -0.2853  0.3854
 2745SOL     OW10751   1.503   5.465   5.244  0.3571 -0.4494  0.8413
 2745SOL    HW210752   1.460   5.550   5.254 -1.6386 -1.0784 -1.3750
 2745SOL    HW310753   1.540   5.447   5.330 -0.2586  2.0721  1.7355
 2745SOL    MW410754   1.502   5.474   5.257  0.0126 -0.1997  0.6669
 2746SOL     OW10755   2.833   0.410   1.941  0.4456  0.2026 -0.2112
 2746SOL    HW210756   2.892   0.353   1.990 -0.8632  0.9025  2.3640
 2746SOL    HW310757   2.801   0.472   2.006  1.3198  3.5633 -2.7224
 2746SOL    MW410758   2.837   0.411   1.956  0.3882  0.7383 -0.2028
 2747SOL     OW10759   2.974   6.228   0.244  0.2606  0.1159  0.3780
 2747SOL    HW210760   3.000   6.260   0.158  0.3976  0.9154  0.7022
 2747SOL    HW310761   2.959   6.135   0.232 -0.2459  0.3205 -0.6299
 2747SOL    MW410762   2.976   6.220   0.231  0.2119  0.2484  0.2878
 2748SOL     OW10763   2.349   0.597   0.593 -0.1040 -0.2252 -0.3913
 2748SOL    HW210764   2.429   0.608   0.541 -0.2652  0.3774 -0.5272
 2748SOL    HW310765   2.332   0.684   0.629 -0.7419 -0.3298 -0.4280
 2748SOL    MW410766   2.357   0.610   0.591 -0.2094 -0.1595 -0.4141
 2749SOL     OW10767   1.756   0.641   6.019 -0.3185 -0.2029 -0.1565
 2749SOL    HW210768   1.711   0.564   5.985 -0.2576 -0.1175 -0.4294
 2749SOL    HW310769   1.740   0.709   5.954  0.0028 -0.1067 -0.1362
 2749SOL    MW410770   1.748   0.640   6.006 -0.2681 -0.1790 -0.1898
 2750SOL     OW10771   4.214   5.884   1.010  0.0542 -0.2254 -0.3693
 2750SOL    HW210772   4.258   5.968   0.994  0.4824 -0.7614 -2.2715
 2750SOL    HW310773   4.146   5.904   1.074 -0.5324  1.8288 -1.5426
 2750SOL    MW410774   4.210   5.898   1.016  0.0333 -0.0251 -0.7751
 2751SOL     OW10775   0.002   1.192   3.679 -0.3767  0.0895 -0.3020
 2751SOL    HW210776   0.048   1.126   3.626  2.3011 -0.3288  2.2382
 2751SOL    HW310777  -0.076   1.147   3.711  1.6673 -2.2900  1.8424
 2751SOL    MW410778  -0.002   1.177   3.676  0.2463 -0.2796  0.3161
 2752SOL     OW10779   3.346   0.294   2.009 -0.3813 -0.1391 -0.6992
 2752SOL    HW210780   3.367   0.343   2.089 -0.8351 -1.9694  0.6146
 2752SOL    HW310781   3.340   0.361   1.941 -0.8850  1.6227  0.9653
 2752SOL    MW410782   3.348   0.310   2.011 -0.5076 -0.1481 -0.3062
 2753SOL     OW10783   4.741   3.593   0.841 -0.7103  0.7644  0.2571
 2753SOL    HW210784   4.773   3.676   0.805 -0.6160  0.6768  0.1372
 2753SOL    HW310785   4.675   3.619   0.905  0.3542  0.9946  1.3115
 2753SOL    MW410786   4.737   3.608   0.845 -0.5574  0.7832  0.3804
 2754SOL     OW10787   5.506   3.554   6.380  0.1989  0.4361  0.6653
 2754SOL    HW210788   5.593   3.571   6.344  0.2485 -2.2008 -0.7335
 2754SOL    HW310789   5.452   3.624   6.345  1.2463  0.6168 -0.7112
 2754SOL    MW410790   5.511   3.565   6.371  0.3436  0.1120  0.2992
 2755SOL     OW10791   2.810   3.531   5.860  0.3562 -0.4694 -0.1517
 2755SOL    HW210792   2.901   3.502   5.868  0.2350 -1.1264 -1.0280
 2755SOL    HW310793   2.758   3.453   5.881 -0.0266  0.0792  1.0180
 2755SOL    MW410794   2.815   3.517   5.864  0.2897 -0.4837 -0.1130
 2756SOL     OW10795   4.715   2.631   0.292  0.0083  0.0794 -0.6282
 2756SOL    HW210796   4.763   2.560   0.250  1.2492  0.2345  0.4757
 2756SOL    HW310797   4.638   2.588   0.329  0.5333 -0.6217 -0.3248
 2756SOL    MW410798   4.711   2.616   0.291  0.2413  0.0073 -0.4426
 2757SOL     OW10799   2.110   3.936   4.334  0.0928  0.7196 -0.1597
 2757SOL    HW210800   2.198   3.972   4.325  0.8781 -1.3425 -1.4654
 2757SOL    HW310801   2.124   3.846   4.366 -1.5549  0.3987 -0.2317
 2757SOL    MW410802   2.123   3.929   4.337 -0.0210  0.4052 -0.3414
 2758SOL     OW10803   2.043   3.245   0.173  0.1129 -0.1646 -0.0414
 2758SOL    HW210804   1.987   3.247   0.095 -1.0353 -2.5541  0.6105
 2758SOL    HW310805   1.998   3.185   0.233  1.9441  0.0911  1.6963
 2758SOL    MW410806   2.029   3.237   0.171  0.2030 -0.4461  0.2739
 2759SOL     OW10807   2.099   4.742   2.493 -0.1116  0.1127 -0.2308
 2759SOL    HW210808   2.154   4.741   2.414 -0.2182 -1.2155 -0.3074
 2759SOL    HW310809   2.031   4.808   2.474 -0.5114 -0.6436 -1.5271
 2759SOL    MW410810   2.097   4.751   2.480 -0.1784 -0.1623 -0.4119
 2760SOL     OW10811   2.791   0.392   0.704  0.3935 -0.4017  0.0414
 2760SOL    HW210812   2.721   0.432   0.755  0.3602  0.5401 -0.7286
 2760SOL    HW310813   2.830   0.327   0.764 -1.6509 -1.5612  0.2120
 2760SOL    MW410814   2.787   0.389   0.719  0.1194 -0.4304 -0.0377
 2761SOL     OW10815   3.614   0.006   2.436 -0.3458  0.1570 -0.0551
 2761SOL    HW210816   3.580   0.036   2.521  1.8954 -0.5528  1.1871
 2761SOL    HW310817   3.587  -0.086   2.431  0.5905 -0.1576  0.5105
 2761SOL    MW410818   3.606  -0.002   2.447  0.0734  0.0219  0.1834
 2762SOL     OW10819   5.138   1.394   2.911  0.1845 -0.7108 -0.1959
 2762SOL    HW210820   5.070   1.449   2.948  0.5364 -0.3497 -0.0733
 2762SOL    HW310821   5.199   1.455   2.870  1.5319 -0.8429  1.4953
 2762SOL    MW410822   5.137   1.409   2.911  0.4087 -0.6806  0.0434
 2763SOL     OW10823   6.330   6.073   4.123 -0.6557 -0.4289  0.3034
 2763SOL    HW210824   6.268   6.112   4.060  0.2207 -1.3645 -1.2069
 2763SOL    HW310825   6.284   5.995   4.156 -1.1966  0.1715  1.0102
 2763SOL    MW410826   6.316   6.068   4.119 -0.6114 -0.4731  0.1974
 2764SOL     OW10827   6.174   4.848   6.079 -0.2703 -0.4649 -0.1145
 2764SOL    HW210828   6.137   4.875   5.995  0.1389 -2.0882 -0.8679
 2764SOL    HW310829   6.208   4.760   6.063 -1.5304 -1.4768  2.1344
 2764SOL    MW410830   6.174   4.840   6.066 -0.3826 -0.8126  0.0828
 2765SOL     OW10831   6.176   3.768   5.964  0.2432  0.2099  0.5727
 2765SOL    HW210832   6.214   3.698   5.911  1.5561  1.6564 -0.5143
 2765SOL    HW310833   6.085   3.772   5.935  0.3792 -0.4788  0.0126
 2765SOL    MW410834   6.169   3.759   5.953  0.4344  0.3099  0.3554
 2766SOL     OW10835   5.472   1.617   2.362  0.1908  0.4732 -0.0127
 2766SOL    HW210836   5.480   1.548   2.428 -1.6436 -2.2172 -2.3720
 2766SOL    HW310837   5.545   1.602   2.303  0.2607  1.1269 -0.1019
 2766SOL    MW410838   5.483   1.606   2.363 -0.0420  0.2045 -0.3357
 2767SOL     OW10839   4.577   2.317   3.229 -0.1739  0.4554  0.0230
 2767SOL    HW210840   4.599   2.307   3.137  0.4531  0.3401  0.1783
 2767SOL    HW310841   4.620   2.398   3.256  2.0241 -0.8979  0.8799
 2767SOL    MW410842   4.586   2.326   3.221  0.1988  0.2616  0.1566
 2768SOL     OW10843   4.186   2.401   5.598 -0.7011  0.1951  0.2471
 2768SOL    HW210844   4.240   2.467   5.555  0.9649 -0.8234  0.6662
 2768SOL    HW310845   4.155   2.345   5.527  1.5467 -1.1286  0.2176
 2768SOL    MW410846   4.189   2.402   5.583 -0.1847 -0.1139  0.2985
 2769SOL     OW10847   5.066   5.426   6.318 -0.1115 -0.3859  0.0677
 2769SOL    HW210848   4.983   5.393   6.352 -0.8219 -0.1951 -1.3765
 2769SOL    HW310849   5.125   5.351   6.322 -0.4436 -0.6183  0.8112
 2769SOL    MW410850   5.063   5.412   6.323 -0.2491 -0.3914 -0.0247
 2770SOL     OW10851   4.138   2.475   2.645  0.0965  0.4101  0.1517
 2770SOL    HW210852   4.192   2.482   2.723 -0.1693 -0.7310  0.4491
 2770SOL    HW310853   4.200   2.489   2.572  0.7749 -0.7099  0.4893
 2770SOL    MW410854   4.154   2.478   2.645  0.1510  0.1118  0.2355
 2771SOL     OW10855   0.309   2.009   3.235  0.0343 -0.4725  0.0745
 2771SOL    HW210856   0.228   1.983   3.278 -0.5968 -0.0216 -0.8125
 2771SOL    HW310857   0.379   1.980   3.295 -0.7204 -1.9770  0.2542
 2771SOL    MW410858   0.308   2.002   3.249 -0.1485 -0.6115 -0.0188
 2772SOL     OW10859   1.703   0.176   2.756  0.7492 -0.6998 -0.0202
 2772SOL    HW210860   1.733   0.174   2.847 -1.0241 -1.2593  0.6099
 2772SOL    HW310861   1.713   0.267   2.729 -0.3605 -0.1066  1.3781
 2772SOL    MW410862   1.708   0.188   2.765  0.3689 -0.6954  0.2474
 2773SOL     OW10863   2.724   1.332   4.655 -0.5542  0.5215 -0.4988
 2773SOL    HW210864   2.637   1.368   4.676 -1.3564 -1.0524 -0.9591
 2773SOL    HW310865   2.707   1.267   4.587  1.1553  0.9794 -1.4041
 2773SOL    MW410866   2.710   1.328   4.649 -0.4345  0.3742 -0.6790
 2774SOL     OW10867   2.756   1.008   0.840  0.4053  0.2841 -0.1551
 2774SOL    HW210868   2.785   0.950   0.770  0.2234  0.8034 -0.6633
 2774SOL    HW310869   2.825   1.002   0.906  1.4683  1.1559 -1.1525
 2774SOL    MW410870   2.769   1.000   0.840  0.5215  0.4677 -0.3537
 2775SOL     OW10871   3.342   3.965   0.531 -0.0303 -0.1200 -0.6328
 2775SOL    HW210872   3.273   3.900   0.520 -0.9652  1.0522 -1.9886
 2775SOL    HW310873   3.391   3.964   0.449  2.2513 -1.5927  0.6168
 2775SOL    MW410874   3.340   3.956   0.519  0.1474 -0.1596 -0.6468
 2776SOL     OW10875   4.342   0.838   4.505  0.0052  0.2012 -0.1926
 2776SOL    HW210876   4.422   0.884   4.482 -0.6251  0.2508 -2.5910
 2776SOL    HW310877   4.295   0.829   4.422 -2.7703  0.7172  1.2211
 2776SOL    MW410878   4.346   0.843   4.491 -0.4441  0.2758 -0.3225
 2777SOL     OW10879   4.535   3.193   0.898  0.2782 -0.1853  0.0074
 2777SOL    HW210880   4.456   3.234   0.933  0.4461 -0.1966  0.3994
 2777SOL    HW310881   4.606   3.224   0.955  0.2646 -1.8742  1.0085
 2777SOL    MW410882   4.534   3.203   0.910  0.2986 -0.4096  0.1912
 2778SOL     OW10883   6.106   4.027   5.228 -0.2281  0.2366  0.1000
 2778SOL    HW210884   6.032   4.087   5.223 -1.1443 -0.9408 -1.3404
 2778SOL    HW310885   6.070   3.947   5.267 -0.0281 -0.7200 -1.5631
 2778SOL    MW410886   6.092   4.024   5.233 -0.3226 -0.0449 -0.3095
 2779SOL     OW10887   5.386   1.258   5.238  0.5115  0.4030 -0.2515
 2779SOL    HW210888   5.380   1.213   5.154  1.2258  0.4246 -0.3185
 2779SOL    HW310889   5.373   1.189   5.303 -0.3913  0.4432 -0.3749
 2779SOL    MW410890   5.384   1.243   5.236  0.4867  0.4112 -0.2766
 2780SOL     OW10891   0.114   6.414   1.137  0.1350  0.3124 -0.4674
 2780SOL    HW210892   0.207   6.400   1.121  0.4303 -0.2320  1.4293
 2780SOL    HW310893   0.091   6.349   1.204 -1.3735  1.0972 -0.1709
 2780SOL    MW410894   0.123   6.403   1.144 -0.0251  0.3441 -0.1780
 2781SOL     OW10895   0.077   0.844   5.455  0.3836 -0.0487  0.3308
 2781SOL    HW210896  -0.010   0.837   5.494  0.3191  0.1952  0.2285
 2781SOL    HW310897   0.064   0.895   5.376  0.7757  0.8248  0.8146
 2781SOL    MW410898   0.064   0.850   5.450  0.4268  0.0987  0.3811
 2782SOL     OW10899   2.874   1.299   0.902  0.1549 -0.6785  0.4014
 2782SOL    HW210900   2.892   1.388   0.932  0.4358 -0.7000  0.3032
 2782SOL    HW310901   2.793   1.274   0.946 -1.2753  0.5314 -1.4089
 2782SOL    MW410902   2.866   1.307   0.911  0.0033 -0.5217  0.1496
 2783SOL     OW10903   2.590   2.089   2.484  0.1152  0.0788  0.3253
 2783SOL    HW210904   2.589   2.088   2.579  1.4663  0.8119  0.3671
 2783SOL    HW310905   2.667   2.140   2.461  0.4673 -1.0695 -1.1715
 2783SOL    MW410906   2.600   2.096   2.493  0.3400  0.0240  0.1333
 2784SOL     OW10907   0.517   1.133   4.859  1.0044 -0.3385 -0.1381
 2784SOL    HW210908   0.448   1.176   4.809  2.5660  0.7217 -1.4944
 2784SOL    HW310909   0.472   1.094   4.934 -0.9477  0.8605 -0.6227
 2784SOL    MW410910   0.502   1.133   4.862  0.9529 -0.0404 -0.3809
 2785SOL     OW10911   0.875   1.609   4.191 -0.3537  0.3110  0.1317
 2785SOL    HW210912   0.789   1.626   4.230 -0.8629 -3.0842  0.7934
 2785SOL    HW310913   0.870   1.644   4.103 -1.7818  1.6821  0.7272
 2785SOL    MW410914   0.863   1.616   4.185 -0.6093  0.0439  0.2976
 2786SOL     OW10915   0.599   0.785   4.180  0.4372 -0.7889 -0.2204
 2786SOL    HW210916   0.684   0.821   4.207 -0.3664  1.2674 -0.1969
 2786SOL    HW310917   0.561   0.854   4.125 -1.4168 -1.4350  0.1830
 2786SOL    MW410918   0.606   0.799   4.176  0.0866 -0.6029 -0.1640
 2787SOL     OW10919   0.274   2.211   5.968  0.0162 -0.1283 -0.2571
 2787SOL    HW210920   0.246   2.291   6.012 -2.8647 -1.1242 -0.0954
 2787SOL    HW310921   0.214   2.201   5.895  2.1606 -0.6830 -2.0667
 2787SOL    MW410922   0.263   2.220   5.964 -0.0810 -0.3329 -0.4745
 2788SOL     OW10923   3.049   6.170   5.032 -0.0274 -0.6051  0.2100
 2788SOL    HW210924   3.084   6.092   5.076  0.4198 -0.7098 -0.3180
 2788SOL    HW310925   2.994   6.135   4.962  0.6655 -0.4716 -0.4238
 2788SOL    MW410926   3.047   6.155   5.029  0.1230 -0.6013  0.0567
 2789SOL     OW10927   0.895   3.672   3.763 -0.1149 -0.1608 -0.4316
 2789SOL    HW210928   0.886   3.749   3.820  1.6210  0.2348 -0.6350
 2789SOL    HW310929   0.845   3.695   3.684  0.8892  1.0439 -0.7492
 2789SOL    MW410930   0.887   3.685   3.760  0.2466  0.0503 -0.5003
 2790SOL     OW10931   0.794   2.259   5.116 -0.1958 -0.4512  0.6416
 2790SOL    HW210932   0.764   2.331   5.172  1.9185  0.1284  1.1318
 2790SOL    HW310933   0.721   2.197   5.116 -1.3224  0.7799  1.8091
 2790SOL    MW410934   0.780   2.260   5.123 -0.0655 -0.2123  0.8603
 2791SOL     OW10935   2.778   4.961   2.994  0.4361 -0.6129  0.6532
 2791SOL    HW210936   2.826   5.038   2.964 -0.3564 -1.2647 -2.7264
 2791SOL    HW310937   2.847   4.900   3.022  1.1746  0.5737  1.5149
 2791SOL    MW410938   2.793   4.963   2.993  0.4290 -0.5423  0.3210
 2792SOL     OW10939   2.297   0.994   2.859  0.0785 -0.2374 -0.0125
 2792SOL    HW210940   2.380   1.015   2.817  0.3129 -0.6067  0.2605
 2792SOL    HW310941   2.309   0.906   2.895 -0.9142 -0.8961 -1.2221
 2792SOL    MW410942   2.310   0.985   2.859 -0.0216 -0.3730 -0.1361
 2793SOL     OW10943   0.555   0.554   0.364  0.1697  0.0158 -0.4575
 2793SOL    HW210944   0.487   0.513   0.310  1.3452 -2.4516 -0.1981
 2793SOL    HW310945   0.635   0.548   0.313  0.3686  2.5946 -0.6149
 2793SOL    MW410946   0.556   0.548   0.350  0.3510  0.0305 -0.4441
 2794SOL     OW10947   6.324   3.815   3.627 -0.0680 -0.2355 -0.0319
 2794SOL    HW210948   6.309   3.857   3.712 -0.1364 -0.1532 -0.0850
 2794SOL    HW310949   6.366   3.732   3.649  5.0927  1.9600 -0.0788
 2794SOL    MW410950   6.328   3.810   3.641  0.6038  0.0650 -0.0451
 2795SOL     OW10951   3.831   3.851   2.773  0.4847 -0.2547 -0.0250
 2795SOL    HW210952   3.840   3.927   2.831  1.3150 -1.1945  1.1319
 2795SOL    HW310953   3.755   3.871   2.718  0.0999  0.9867  0.9200
 2795SOL    MW410954   3.822   3.863   2.774  0.5435 -0.2149  0.2523
 2796SOL     OW10955   4.429   2.802   6.071 -0.0115 -0.0865 -0.0279
 2796SOL    HW210956   4.340   2.828   6.045 -0.5350 -2.5367 -0.8950
 2796SOL    HW310957   4.424   2.707   6.082  2.3585 -0.1906  0.6121
 2796SOL    MW410958   4.416   2.793   6.069  0.2321 -0.4235 -0.0578
 2797SOL     OW10959   4.416   2.713   0.606  0.0886  0.2376  0.0643
 2797SOL    HW210960   4.504   2.750   0.596  1.8596 -3.1854  1.1543
 2797SOL    HW310961   4.411   2.645   0.538 -1.0868 -0.6134  0.9645
 2797SOL    MW410962   4.427   2.709   0.596  0.1672 -0.3263  0.3268
 2798SOL     OW10963   2.150   4.026   5.720 -0.2503 -0.3072 -0.3054
 2798SOL    HW210964   2.160   4.082   5.643  0.9618 -0.9081 -0.6010
 2798SOL    HW310965   2.133   4.087   5.791  2.0929  0.5776 -0.4246
 2798SOL    MW410966   2.149   4.042   5.719  0.2188 -0.2697 -0.3601
 2799SOL     OW10967   3.130   6.075   3.470 -0.4648 -0.5315 -0.7518
 2799SOL    HW210968   3.039   6.103   3.458 -0.7078 -0.7152  0.5864
 2799SOL    HW310969   3.159   6.120   3.550  1.2036  0.9400 -2.0757
 2799SOL    MW410970   3.122   6.085   3.479 -0.2768 -0.3616 -0.7499
 2800SOL     OW10971   5.949   5.576   1.645 -0.1192  0.0655 -0.4522
 2800SOL    HW210972   6.030   5.614   1.679  0.1278 -0.6005 -0.2857
 2800SOL    HW310973   5.976   5.529   1.566 -0.1590 -1.0722  0.2002
 2800SOL    MW410974   5.963   5.575   1.639 -0.0919 -0.1725 -0.3442
 2801SOL     OW10975   2.191   5.729   5.624  0.2908  0.7256  0.4882
 2801SOL    HW210976   2.108   5.693   5.594  0.3051  0.9373  0.1920
 2801SOL    HW310977   2.235   5.758   5.544  1.0165 -0.1445  0.5504
 2801SOL    MW410978   2.186   5.728   5.609  0.3885  0.6387  0.4573
 2802SOL     OW10979   3.983   2.707   2.649  0.0695  0.4557 -0.4585
 2802SOL    HW210980   3.988   2.769   2.577  1.8689  2.0553  0.9247
 2802SOL    HW310981   4.065   2.658   2.644 -0.2219 -0.0913 -0.0650
 2802SOL    MW410982   3.995   2.709   2.639  0.2684  0.5946 -0.2241
 2803SOL     OW10983   1.488   0.176   5.018 -0.1746 -0.2662 -0.1603
 2803SOL    HW210984   1.576   0.146   4.995  0.3298  0.2642  1.0533
 2803SOL    HW310985   1.501   0.245   5.082 -1.4393  0.7796 -0.9764
 2803SOL    MW410986   1.501   0.181   5.023 -0.2749 -0.0582 -0.1079
 2804SOL     OW10987   5.003   6.223   1.771  0.0960 -0.1340  0.0764
 2804SOL    HW210988   5.081   6.169   1.784 -0.7694 -0.8180  3.2526
 2804SOL    HW310989   4.930   6.168   1.801 -1.4822  0.9937 -1.4561
 2804SOL    MW410990   5.003   6.209   1.777 -0.2264 -0.0755  0.2933
 2805SOL     OW10991   1.320   0.855   5.638  0.0327  0.1351  0.1406
 2805SOL    HW210992   1.269   0.780   5.668  2.1348 -0.8293  1.4922
 2805SOL    HW310993   1.258   0.928   5.640 -1.3446 -1.0053  1.5501
 2805SOL    MW410994   1.305   0.855   5.642  0.1283 -0.1426  0.5049
 2806SOL     OW10995   0.050   4.650   3.544 -0.2060 -0.1257 -0.1759
 2806SOL    HW210996   0.127   4.701   3.518 -0.1386  0.0999  0.4627
 2806SOL    HW310997   0.056   4.571   3.491  0.4585 -0.1079 -0.1399
 2806SOL    MW410998   0.061   4.647   3.533 -0.1094 -0.0936 -0.0869
 2807SOL     OW10999   3.108   2.744   5.640  0.2027 -0.1958  0.1775
 2807SOL    HW211000   3.159   2.772   5.564  0.6562  0.3915  0.6801
 2807SOL    HW311001   3.139   2.655   5.658  0.3081 -0.2247 -0.1345
 2807SOL    MW411002   3.119   2.736   5.632  0.2764 -0.1221  0.2026
 2808SOL     OW11003   4.129   6.303   2.796  0.2982 -0.1897  0.0365
 2808SOL    HW211004   4.169   6.390   2.788 -0.3493  0.0589 -0.5651
 2808SOL    HW311005   4.170   6.265   2.873  0.8302  0.5247  0.1148
 2808SOL    MW411006   4.140   6.309   2.805  0.2830 -0.0626 -0.0326
 2809SOL     OW11007   2.009   0.819   2.337  0.0206 -0.1079  0.1286
 2809SOL    HW211008   2.093   0.796   2.297 -0.1871 -0.4898 -0.0884
 2809SOL    HW311009   2.022   0.801   2.431  1.0913  2.4244  0.5592
 2809SOL    MW411010   2.022   0.813   2.344  0.1345  0.1758  0.1568
 2810SOL     OW11011   2.180   4.455   0.276  0.1783  0.2856 -0.3110
 2810SOL    HW211012   2.144   4.401   0.206  0.8773  1.4012 -1.5716
 2810SOL    HW311013   2.211   4.534   0.232  0.5576  1.0624  1.2781
 2810SOL    MW411014   2.179   4.458   0.261  0.3205  0.5353 -0.2677
 2811SOL     OW11015   1.041   5.773   4.104  0.3966 -0.1795  0.1665
 2811SOL    HW211016   1.024   5.681   4.086  0.2003  0.1564 -1.5644
 2811SOL    HW311017   1.125   5.791   4.063 -0.1115  0.6738 -0.5529
 2811SOL    MW411018   1.049   5.763   4.096  0.3037 -0.0226 -0.1568
 2812SOL     OW11019   5.795   1.763   3.986  0.1692 -0.0860  0.1823
 2812SOL    HW211020   5.860   1.782   4.053  0.3381  0.8247 -0.2343
 2812SOL    HW311021   5.846   1.735   3.910  0.2608  2.6995 -0.8693
 2812SOL    MW411022   5.810   1.762   3.985  0.2036  0.4017 -0.0114
 2813SOL     OW11023   2.265   0.381   1.994 -0.2491  0.3035  0.4010
 2813SOL    HW211024   2.341   0.438   1.991 -0.2489  0.2582 -0.7273
 2813SOL    HW311025   2.276   0.331   2.075  0.8163  0.4331  0.3490
 2813SOL    MW411026   2.276   0.382   2.004 -0.1085  0.3146  0.2453
 2814SOL     OW11027   0.118   2.388   2.675  0.5021 -0.0145 -0.3899
 2814SOL    HW211028   0.112   2.466   2.620 -0.9928  0.8464  0.9088
 2814SOL    HW311029   0.030   2.376   2.710  1.3766 -0.4657  1.8559
 2814SOL    MW411030   0.105   2.397   2.672  0.4203  0.0395  0.0778
 2815SOL     OW11031   4.472   3.633   5.897  0.0062  0.1886 -0.0638
 2815SOL    HW211032   4.523   3.560   5.860 -2.2272 -0.6748 -1.6542
 2815SOL    HW311033   4.392   3.592   5.929 -1.7478  2.0008 -1.8623
 2815SOL    MW411034   4.468   3.618   5.896 -0.5199  0.3138 -0.5109
 2816SOL     OW11035   3.742   5.020   1.782  0.1413  0.2438 -0.6363
 2816SOL    HW211036   3.667   5.079   1.777  1.1796  1.6189 -0.8607
 2816SOL    HW311037   3.805   5.066   1.838  0.5660 -1.1707  0.0989
 2816SOL    MW411038   3.741   5.034   1.789  0.3343  0.2386 -0.5689
 2817SOL     OW11039   1.737   0.152   6.407  0.1558  0.1711  0.4522
 2817SOL    HW211040   1.678   0.082   6.435  0.4837 -1.1660 -1.9575
 2817SOL    HW311041   1.680   0.215   6.363  0.2952 -0.4516 -0.6629
 2817SOL    MW411042   1.722   0.151   6.405  0.2175 -0.0875 -0.0128
 2818SOL     OW11043   4.632   2.195   2.233  0.3242 -0.4238 -0.3861
 2818SOL    HW211044   4.635   2.117   2.290  0.9147 -0.3772 -0.3462
 2818SOL    HW311045   4.680   2.169   2.155  2.2549  0.5066  0.4096
 2818SOL    MW411046   4.639   2.181   2.230  0.6568 -0.2949 -0.2759
 2819SOL     OW11047   4.451   0.227   2.893 -0.4729  0.3883 -0.3650
 2819SOL    HW211048   4.463   0.311   2.849  2.3641  0.3369  0.1365
 2819SOL    HW311049   4.518   0.170   2.856 -0.0488 -0.5823  1.7593
 2819SOL    MW411050   4.461   0.231   2.883 -0.0426  0.2534 -0.0185
 2820SOL     OW11051   1.706   4.421   6.346  0.2277 -0.5186  0.0619
 2820SOL    HW211052   1.701   4.487   6.277 -0.5080  0.1748  0.7360
 2820SOL    HW311053   1.618   4.421   6.385  0.5783 -0.9953  0.8919
 2820SOL    MW411054   1.693   4.430   6.342  0.1769 -0.4900  0.2603
 2821SOL     OW11055   1.756   0.095   4.813  0.2241 -0.6441  0.1554
 2821SOL    HW211056   1.803   0.163   4.863 -1.4054  0.2327  0.5759
 2821SOL    HW311057   1.824   0.051   4.763  1.1808  2.7450 -1.8674
 2821SOL    MW411058   1.771   0.098   4.813  0.1354 -0.0813 -0.0560
 2822SOL     OW11059   2.362   3.007   4.707 -0.3864 -0.1165 -0.0445
 2822SOL    HW211060   2.377   3.005   4.801  0.4689  1.8968 -0.0749
 2822SOL    HW311061   2.445   2.979   4.668 -0.0513  0.9685 -0.1670
 2822SOL    MW411062   2.375   3.003   4.714 -0.2293  0.2923 -0.0647
 2823SOL     OW11063   0.438   0.267   3.131 -0.4005 -0.6427  0.4900
 2823SOL    HW211064   0.474   0.179   3.128 -0.3249 -0.6732  1.7145
 2823SOL    HW311065   0.345   0.254   3.150 -0.6966 -0.4928 -0.7524
 2823SOL    MW411066   0.430   0.254   3.133 -0.4296 -0.6269  0.4877
 2824SOL     OW11067   3.037   1.210   1.863  0.1057  0.1903 -0.3163
 2824SOL    HW211068   3.128   1.236   1.851  0.6272 -0.9610  0.8330
 2824SOL    HW311069   2.987   1.270   1.809  1.2608  2.9911  1.5218
 2824SOL    MW411070   3.042   1.221   1.855  0.3269  0.4079  0.0779
 2825SOL     OW11071   2.299   6.102   2.384  0.1339 -0.0158  0.3100
 2825SOL    HW211072   2.388   6.084   2.415  0.9336  0.8266 -1.4015
 2825SOL    HW311073   2.254   6.136   2.462  1.5600  0.4029  0.9998
 2825SOL    MW411074   2.305   6.104   2.399  0.4275  0.1506  0.1752
 2826SOL     OW11075   6.156   3.937   5.640 -0.2687 -0.2224 -0.5331
 2826SOL    HW211076   6.251   3.936   5.627  0.0711 -0.4661  1.6307
 2826SOL    HW311077   6.144   3.976   5.726 -2.0548 -1.3980 -0.1917
 2826SOL    MW411078   6.167   3.942   5.649 -0.4595 -0.4097 -0.2025
 2827SOL     OW11079   5.364   3.273   1.292 -0.2883  0.4068  0.4350
 2827SOL    HW211080   5.375   3.296   1.200  0.5778  0.5149  0.5563
 2827SOL    HW311081   5.269   3.276   1.306 -0.7042 -2.2800 -1.1163
 2827SOL    MW411082   5.353   3.277   1.282 -0.2289  0.0666  0.2463
 2828SOL     OW11083   3.559   4.170   1.682 -0.6694  0.5081  0.6297
 2828SOL    HW211084   3.541   4.109   1.754  0.5021  0.0006  0.5319
 2828SOL    HW311085   3.473   4.197   1.651 -1.4678 -3.5943 -1.4736
 2828SOL    MW411086   3.546   4.165   1.688 -0.6202 -0.1001  0.3393
 2829SOL     OW11087   3.518   1.749   6.200  0.3180 -0.0402  0.0753
 2829SOL    HW211088   3.581   1.799   6.252 -1.2927 -0.0840  2.2139
 2829SOL    HW311089   3.509   1.666   6.246 -1.4749  0.0762  0.0013
 2829SOL    MW411090   3.525   1.745   6.213 -0.1311 -0.0306  0.3477
 2830SOL     OW11091   4.110   6.168   4.781 -0.3502 -0.0098  0.1012
 2830SOL    HW211092   4.068   6.202   4.860  0.4049  1.3813 -0.0656
 2830SOL    HW311093   4.043   6.173   4.714 -0.4262  0.6291  0.2204
 2830SOL    MW411094   4.096   6.173   4.783 -0.2606  0.2580  0.0949
 2831SOL     OW11095   4.930   0.225   1.108 -0.7091 -0.0005 -0.0303
 2831SOL    HW211096   4.847   0.194   1.146 -0.7741 -0.1695 -0.3121
 2831SOL    HW311097   4.965   0.284   1.175 -1.7593  1.2132 -0.5047
 2831SOL    MW411098   4.924   0.228   1.122 -0.8562  0.1373 -0.1301
 2832SOL     OW11099   3.198   1.499   0.830 -0.0824  0.4002 -0.4228
 2832SOL    HW211100   3.276   1.508   0.885 -0.2227  0.4933 -0.2396
 2832SOL    HW311101   3.203   1.572   0.769 -0.7416  1.2169  0.4710
 2832SOL    MW411102   3.209   1.509   0.830 -0.1879  0.5202 -0.2807
 2833SOL     OW11103   2.495   3.511   5.243 -0.0052  0.2879  0.0845
 2833SOL    HW211104   2.569   3.512   5.183  0.6841  0.7877  0.9152
 2833SOL    HW311105   2.519   3.446   5.309 -0.3351  0.4012  0.3186
 2833SOL    MW411106   2.508   3.502   5.244  0.0422  0.3688  0.2250
 2834SOL     OW11107   5.673   3.348   5.546 -0.7235  0.3224 -0.6434
 2834SOL    HW211108   5.586   3.318   5.570 -0.6889 -0.7016 -1.7176
 2834SOL    HW311109   5.678   3.335   5.451  0.3703  0.9707 -0.6963
 2834SOL    MW411110   5.662   3.343   5.536 -0.5746  0.2728 -0.7921
 2835SOL     OW11111   2.281   3.677   5.494  0.0975 -0.2121  0.0303
 2835SOL    HW211112   2.225   3.610   5.535  0.1120  0.2169  0.7729
 2835SOL    HW311113   2.305   3.735   5.566  2.2930 -0.8990 -0.0703
 2835SOL    MW411114   2.277   3.676   5.509  0.3891 -0.2461  0.1150
 2836SOL     OW11115   0.799   2.109   4.421 -0.2759  0.1147  0.4089
 2836SOL    HW211116   0.859   2.036   4.437  4.2807  3.0988 -1.1258
 2836SOL    HW311117   0.744   2.079   4.348  0.9101 -1.9963  0.2920
 2836SOL    MW411118   0.800   2.095   4.414  0.4818  0.2299  0.1910
 2837SOL     OW11119   4.927   3.067   1.723  0.2727 -0.4575  0.5320
 2837SOL    HW211120   4.880   3.067   1.639 -0.8377 -0.5790  1.1289
 2837SOL    HW311121   4.971   2.983   1.726 -1.9220 -1.6634  1.2332
 2837SOL    MW411122   4.926   3.056   1.712 -0.1634 -0.6326  0.7033
 2838SOL     OW11123   5.317   1.060   1.560 -0.5298 -0.6537  0.5147
 2838SOL    HW211124   5.293   0.982   1.610 -1.8530  0.0138  0.9708
 2838SOL    HW311125   5.257   1.062   1.486  1.8348 -1.9817 -1.5755
 2838SOL    MW411126   5.306   1.050   1.557 -0.3924 -0.7408  0.2991
 2839SOL     OW11127   5.941   6.141   3.796  0.0359  0.2567  0.9361
 2839SOL    HW211128   5.918   6.234   3.794 -0.1056  0.2176 -0.6939
 2839SOL    HW311129   5.882   6.104   3.861 -1.7560  0.8867 -0.2330
 2839SOL    MW411130   5.930   6.149   3.804 -0.2192  0.3347  0.5668
 2840SOL     OW11131   2.677   0.149   6.325  0.1703  0.1448 -0.3563
 2840SOL    HW211132   2.607   0.086   6.339 -0.0284  0.6298  0.8897
 2840SOL    HW311133   2.635   0.224   6.283 -0.0133  0.3421  0.1805
 2840SOL    MW411134   2.662   0.150   6.321  0.1199  0.2348 -0.1211
 2841SOL     OW11135   6.247   3.525   2.876  0.2083 -0.2515 -0.0773
 2841SOL    HW211136   6.167   3.548   2.828  0.5037  0.0265 -0.4351
 2841SOL    HW311137   6.223   3.536   2.968  0.2638  1.2825 -0.2166
 2841SOL    MW411138   6.233   3.529   2.882  0.2546 -0.0124 -0.1428
 2842SOL     OW11139   1.420   1.512   4.854  0.1893 -0.1961  0.0835
 2842SOL    HW211140   1.467   1.459   4.789  1.9480  1.1451  0.1827
 2842SOL    HW311141   1.338   1.536   4.810  0.7174 -0.4901 -1.1226
 2842SOL    MW411142   1.415   1.508   4.839  0.4910 -0.0579 -0.0625
 2843SOL     OW11143   1.755   5.172   1.289  0.3028  0.3485 -0.0656
 2843SOL    HW211144   1.764   5.261   1.255  2.3105  0.3453  0.3444
 2843SOL    HW311145   1.814   5.119   1.235  0.3319 -0.4291  0.7109
 2843SOL    MW411146   1.764   5.177   1.277  0.5715  0.2455  0.0909
 2844SOL     OW11147   3.516   5.132   1.265 -0.0444  0.1159  0.1963
 2844SOL    HW211148   3.550   5.219   1.243  0.5238 -0.0736  0.3319
 2844SOL    HW311149   3.435   5.150   1.314  0.3534  0.5752  0.6985
 2844SOL    MW411150   3.510   5.146   1.268  0.0831  0.1515  0.2804
 2845SOL     OW11151   0.302   1.744   3.866 -0.1479  0.3570 -0.2203
 2845SOL    HW211152   0.388   1.778   3.891  0.3277 -1.6595  1.1450
 2845SOL    HW311153   0.252   1.744   3.948 -0.4211 -1.2461 -0.3591
 2845SOL    MW411154   0.307   1.749   3.880 -0.1212 -0.1206 -0.0584
 2846SOL     OW11155   4.209   0.670   5.160 -0.4145  0.0775 -0.0798
 2846SOL    HW211156   4.239   0.734   5.095  0.1579 -0.4293 -0.3135
 2846SOL    HW311157   4.123   0.643   5.127  1.4000 -3.1076 -2.8544
 2846SOL    MW411158   4.201   0.675   5.147 -0.0996 -0.4096 -0.4767
 2847SOL     OW11159   4.697   4.014   0.918 -0.0004 -0.5789 -0.0900
 2847SOL    HW211160   4.609   3.992   0.949 -0.3084 -0.8420 -1.1308
 2847SOL    HW311161   4.717   3.947   0.852  0.8504 -0.3341 -0.0871
 2847SOL    MW411162   4.688   4.002   0.913  0.0712 -0.5813 -0.2269
 2848SOL     OW11163   0.545   5.792   2.007  0.2834  0.3203  0.8161
 2848SOL    HW211164   0.499   5.864   2.052  0.0194 -0.5061  1.9110
 2848SOL    HW311165   0.634   5.797   2.041  0.2744  0.1666  0.8643
 2848SOL    MW411166   0.551   5.802   2.017  0.2474  0.1910  0.9669
 2849SOL     OW11167   2.402   3.028   4.118  0.0279  0.2521  0.1527
 2849SOL    HW211168   2.427   3.002   4.207 -1.5335 -1.6588  0.0704
 2849SOL    HW311169   2.339   2.963   4.090  0.0402  1.1507 -2.1772
 2849SOL    MW411170   2.397   3.016   4.126 -0.1765  0.1186 -0.1656
 2850SOL     OW11171   4.100   1.145   4.803 -0.0963  0.4669  0.3484
 2850SOL    HW211172   4.186   1.137   4.761 -0.2823  2.2480 -0.4348
 2850SOL    HW311173   4.102   1.231   4.845 -1.7763  0.8717 -0.3342
 2850SOL    MW411174   4.112   1.155   4.803 -0.3425  0.7553  0.1550
 2851SOL     OW11175   3.769   3.530   0.728  0.3347 -0.0241  0.9242
 2851SOL    HW211176   3.685   3.526   0.682  0.3127 -1.6764  1.0486
 2851SOL    HW311177   3.757   3.597   0.795 -0.4536  0.6415  0.1480
 2851SOL    MW411178   3.757   3.538   0.731  0.2278 -0.1543  0.8382
 2852SOL     OW11179   0.285   5.559   2.356 -0.1867 -0.1722  0.0867
 2852SOL    HW211180   0.336   5.640   2.362 -0.1477 -0.1878 -0.0213
 2852SOL    HW311181   0.273   5.546   2.262 -0.2807 -0.2371  0.1079
 2852SOL    MW411182   0.290   5.568   2.344 -0.1939 -0.1828  0.0753
 2853SOL     OW11183   5.853   4.310   3.855  0.3519 -0.0691  0.2711
 2853SOL    HW211184   5.889   4.396   3.837  1.2395 -0.4936 -0.0130
 2853SOL    HW311185   5.929   4.252   3.859 -0.3266 -1.1080 -1.0997
 2853SOL    MW411186   5.868   4.313   3.853  0.3795 -0.2622  0.0527
 2854SOL     OW11187   5.981   1.675   0.063  0.5007 -0.1017  0.7521
 2854SOL    HW211188   5.989   1.751   0.005 -1.4553 -0.5016 -0.1369
 2854SOL    HW311189   5.903   1.694   0.116 -0.5103 -1.7943 -0.0467
 2854SOL    MW411190   5.971   1.688   0.062  0.1093 -0.3778  0.5294
 2855SOL     OW11191   3.927   0.618   6.255  0.2161 -0.1385  0.0253
 2855SOL    HW211192   3.939   0.655   6.342  0.1821 -1.7893  0.7697
 2855SOL    HW311193   3.832   0.613   6.244  0.2105 -1.1384  0.4519
 2855SOL    MW411194   3.916   0.623   6.265  0.2109 -0.4882  0.1798
 2856SOL     OW11195   2.996   0.919   0.665 -0.1839  0.5480  0.4610
 2856SOL    HW211196   3.009   1.005   0.703  2.2502  0.1215  0.7575
 2856SOL    HW311197   3.070   0.867   0.697 -0.2937 -0.9912 -1.5693
 2856SOL    MW411198   3.008   0.923   0.674  0.1227  0.2886  0.2322
 2857SOL     OW11199   4.265   4.539   5.725  0.7749 -0.1527  0.2555
 2857SOL    HW211200   4.247   4.617   5.778  1.7171 -1.2181  2.2658
 2857SOL    HW311201   4.360   4.541   5.711  0.9282 -1.2968  0.9891
 2857SOL    MW411202   4.275   4.550   5.730  0.9194 -0.4442  0.6175
 2858SOL     OW11203   3.959   2.406   1.706 -0.4018 -0.1030  0.3439
 2858SOL    HW211204   3.903   2.328   1.701 -2.0335  1.0067  0.5215
 2858SOL    HW311205   3.963   2.439   1.616  1.0026 -0.8338  0.1097
 2858SOL    MW411206   3.952   2.400   1.694 -0.4318 -0.0530  0.3364
 2859SOL     OW11207   4.822   0.090   3.955  0.4361 -0.0489  0.2120
 2859SOL    HW211208   4.781   0.135   4.028  0.2474  0.4753 -0.2090
 2859SOL    HW311209   4.840   0.002   3.987  0.0404  0.0734  0.7704
 2859SOL    MW411210   4.819   0.085   3.969  0.3590  0.0364  0.2301
 2860SOL     OW11211   4.030   0.365   2.144 -0.6979 -0.5608  0.4554
 2860SOL    HW211212   3.994   0.450   2.117 -0.6123 -0.1761  1.4965
 2860SOL    HW311213   3.987   0.347   2.228  0.1316 -0.9984  0.7985
 2860SOL    MW411214   4.019   0.374   2.152 -0.5772 -0.5678  0.6380
 2861SOL     OW11215   0.782   0.497   0.186  0.2353  0.1689 -0.1095
 2861SOL    HW211216   0.811   0.408   0.203  1.2616  0.1835 -1.5921
 2861SOL    HW311217   0.750   0.495   0.095 -0.5146  1.1194  0.1210
 2861SOL    MW411218   0.781   0.485   0.176  0.2718  0.2962 -0.2747
 2862SOL     OW11219   4.375   5.197   6.081  0.9140 -0.0944  0.3616
 2862SOL    HW211220   4.409   5.225   6.166 -0.4002  1.4083  0.4419
 2862SOL    HW311221   4.289   5.160   6.101  0.5879  0.2838 -0.3170
 2862SOL    MW411222   4.368   5.196   6.095  0.6976  0.1537  0.2827
 2863SOL     OW11223   5.781   4.266   0.334  0.1624 -0.0607 -0.1887
 2863SOL    HW211224   5.780   4.199   0.402  1.3018  0.9017  0.8153
 2863SOL    HW311225   5.689   4.288   0.321 -0.1719 -1.2436  0.0217
 2863SOL    MW411226   5.768   4.260   0.341  0.2686 -0.0898 -0.0284
 2864SOL     OW11227   1.126   1.219   0.031 -0.2357  0.1324  0.2735
 2864SOL    HW211228   1.114   1.264  -0.053 -0.2660 -0.1233  0.1398
 2864SOL    HW311229   1.091   1.280   0.096 -1.4217 -0.2047 -0.0173
 2864SOL    MW411230   1.120   1.233   0.029 -0.3961  0.0542  0.2175
 2865SOL     OW11231   2.404   0.036   2.347 -1.1161 -0.2210 -0.0843
 2865SOL    HW211232   2.476  -0.020   2.320 -1.6793 -0.4874 -1.0668
 2865SOL    HW311233   2.404   0.031   2.443 -0.1086 -0.5499 -0.0971
 2865SOL    MW411234   2.413   0.028   2.356 -1.0574 -0.2995 -0.2156
 2866SOL     OW11235   1.347   0.188   1.774 -0.7945  0.2715 -0.3901
 2866SOL    HW211236   1.369   0.107   1.728 -1.9068 -0.0302 -0.4111
 2866SOL    HW311237   1.403   0.254   1.733 -1.3605 -0.1001 -1.8183
 2866SOL    MW411238   1.358   0.186   1.762 -1.0159  0.1826 -0.5813
 2867SOL     OW11239   1.344   4.539   3.298  0.2548 -0.5524  0.1782
 2867SOL    HW211240   1.265   4.486   3.289  0.1839 -0.3125 -0.6522
 2867SOL    HW311241   1.407   4.499   3.239 -0.5064  1.5915 -2.2928
 2867SOL    MW411242   1.342   4.527   3.289  0.1450 -0.2379 -0.2573
 2868SOL     OW11243   4.599   0.116   4.312  0.1371  0.4038  0.3637
 2868SOL    HW211244   4.560   0.031   4.295 -0.2733  0.6523  0.0287
 2868SOL    HW311245   4.530   0.166   4.356  0.1055  0.8090 -0.1340
 2868SOL    MW411246   4.585   0.112   4.315  0.0788  0.4901  0.2538
 2869SOL     OW11247   4.488   1.898   3.227  0.3420 -0.6243  0.2167
 2869SOL    HW211248   4.407   1.850   3.212  0.2006 -0.6617  1.0359
 2869SOL    HW311249   4.482   1.974   3.169  0.2222 -1.1870 -0.5258
 2869SOL    MW411250   4.476   1.902   3.217  0.3075 -0.7035  0.2268
 2870SOL     OW11251   0.704   4.197   2.342 -0.3987  0.0754  0.7057
 2870SOL    HW211252   0.731   4.105   2.334  0.7493  0.5311 -1.1941
 2870SOL    HW311253   0.644   4.197   2.417 -1.0772 -2.3662  0.2608
 2870SOL    MW411254   0.700   4.185   2.351 -0.3367 -0.1866  0.3964
 2871SOL     OW11255   1.193   6.193   0.062 -0.1159  0.2597  0.1571
 2871SOL    HW211256   1.182   6.219  -0.030  1.6154  1.0521  0.1337
 2871SOL    HW311257   1.221   6.273   0.106  0.3040 -0.4008  1.1215
 2871SOL    MW411258   1.196   6.207   0.055  0.1679  0.2771  0.2812
 2872SOL     OW11259   3.361   1.252   2.040  0.1874  0.7723 -0.2776
 2872SOL    HW211260   3.333   1.328   2.090  0.9492  1.9189 -1.5183
 2872SOL    HW311261   3.343   1.178   2.097 -0.5635  1.8755  0.9792
 2872SOL    MW411262   3.355   1.252   2.054  0.1889  1.0691 -0.2755
 2873SOL     OW11263   1.017   5.053   5.609 -0.2432  0.0432  0.6074
 2873SOL    HW211264   1.051   5.038   5.698 -0.7979  0.8646  0.9625
 2873SOL    HW311265   1.083   5.014   5.552 -0.8307 -2.3166  1.4233
 2873SOL    MW411266   1.030   5.046   5.614 -0.3939 -0.1597  0.7619
 2874SOL     OW11267   2.961   4.804   4.027  0.1502 -0.5603  0.0529
 2874SOL    HW211268   2.983   4.734   3.966  0.9251 -0.8919  0.6980
 2874SOL    HW311269   3.044   4.826   4.069 -0.0621  0.7918 -0.1799
 2874SOL    MW411270   2.975   4.798   4.025  0.2245 -0.4257  0.1073
 2875SOL     OW11271   0.183   0.904   3.011 -0.9125  0.0679 -0.1068
 2875SOL    HW211272   0.230   0.920   3.093 -2.0124  1.1466  0.3352
 2875SOL    HW311273   0.150   0.990   2.985 -0.1263 -0.1504 -1.9817
 2875SOL    MW411274   0.185   0.917   3.018 -0.9539  0.1814 -0.2959
 2876SOL     OW11275   5.366   1.149   4.984 -0.1125 -0.5650 -0.3555
 2876SOL    HW211276   5.427   1.079   5.008  0.4512  0.6549  2.0162
 2876SOL    HW311277   5.385   1.167   4.892  1.3840 -1.8918 -0.3441
 2876SOL    MW411278   5.376   1.142   4.975  0.1593 -0.5791 -0.0411
 2877SOL     OW11279   4.356   4.685   0.470 -0.4615  0.2670 -0.3165
 2877SOL    HW211280   4.387   4.707   0.558  0.5116  0.2740 -0.6413
 2877SOL    HW311281   4.351   4.589   0.470  0.2485  0.2230 -0.4682
 2877SOL    MW411282   4.360   4.675   0.482 -0.2394  0.2621 -0.3794
 2878SOL     OW11283   0.976   5.147   4.662  0.1622  0.6273  0.4676
 2878SOL    HW211284   1.040   5.178   4.598  0.1811 -1.6633 -0.7377
 2878SOL    HW311285   1.026   5.137   4.743  1.3467 -0.9088 -0.3949
 2878SOL    MW411286   0.991   5.150   4.664  0.3210  0.1224  0.1948
 2879SOL     OW11287   5.146   2.809   4.498 -0.6499  0.0820 -0.3458
 2879SOL    HW211288   5.194   2.763   4.567 -0.1012  2.0985  0.6977
 2879SOL    HW311289   5.084   2.743   4.465 -1.5945 -0.7771  2.7084
 2879SOL    MW411290   5.144   2.794   4.503 -0.7021  0.2347  0.1948
 2880SOL     OW11291   6.355   0.067   3.651 -0.1322 -0.3764 -0.4766
 2880SOL    HW211292   6.321   0.086   3.738  0.5630 -1.4729  0.0455
 2880SOL    HW311293   6.442   0.030   3.666  1.7867  3.0952 -1.7840
 2880SOL    MW411294   6.362   0.065   3.664  0.2127 -0.0630 -0.5802
 2881SOL     OW11295   5.484   1.289   4.175  0.4078  0.0121 -0.2355
 2881SOL    HW211296   5.532   1.371   4.187 -2.9695  2.3711 -1.4147
 2881SOL    HW311297   5.477   1.253   4.264  1.0147  1.5985  0.5064
 2881SOL    MW411298   5.489   1.295   4.189  0.0423  0.5327 -0.2932
 2882SOL     OW11299   2.568   4.706   2.906  0.3423  0.4909 -0.3446
 2882SOL    HW211300   2.528   4.771   2.965  0.5243 -0.6536  1.0903
 2882SOL    HW311301   2.502   4.689   2.840 -1.8480 -1.6328  2.1691
 2882SOL    MW411302   2.554   4.713   2.905  0.0773  0.0597  0.1764
 2883SOL     OW11303   1.126   0.020   0.283  0.1282  0.6281  0.0886
 2883SOL    HW211304   1.078  -0.055   0.320  1.2455  0.4791  1.2793
 2883SOL    HW311305   1.064   0.058   0.220 -1.2362 -0.0739  0.9414
 2883SOL    MW411306   1.111   0.015   0.279  0.0956  0.5158  0.3582
 2884SOL     OW11307   3.776   6.338   0.212  0.4806 -0.1525 -0.0511
 2884SOL    HW211308   3.806   6.284   0.139 -0.2114  2.1754 -2.1681
 2884SOL    HW311309   3.681   6.332   0.209  0.4427 -0.4122  1.0125
 2884SOL    MW411310   3.767   6.330   0.202  0.3843  0.1204 -0.1901
 2885SOL     OW11311   0.498   0.671   2.392 -0.0274  0.0407  0.4106
 2885SOL    HW211312   0.446   0.752   2.388  1.0463  0.7287 -1.1923
 2885SOL    HW311313   0.436   0.601   2.373 -0.3847  0.8766 -1.8360
 2885SOL    MW411314   0.483   0.673   2.389  0.0671  0.2417 -0.0973
 2886SOL     OW11315   0.906   6.239   0.085  0.0893 -0.1789 -0.1517
 2886SOL    HW211316   1.000   6.223   0.076  0.5749  2.4832 -0.6998
 2886SOL    HW311317   0.868   6.204   0.004  0.9317  0.5042 -0.8733
 2886SOL    MW411318   0.914   6.233   0.073  0.2645  0.2625 -0.3192
 2887SOL     OW11319   3.987   3.287   3.301 -0.1800  0.0006  0.2661
 2887SOL    HW211320   3.979   3.214   3.240  0.8893 -0.6732  0.9180
 2887SOL    HW311321   3.998   3.364   3.244  0.7674 -0.6101 -0.4108
 2887SOL    MW411322   3.987   3.288   3.285  0.0861 -0.1689  0.2628
 2888SOL     OW11323   4.125   0.049   0.314 -0.9825  0.4185  0.0648
 2888SOL    HW211324   4.082   0.110   0.254 -2.5783  0.4071  1.1489
 2888SOL    HW311325   4.207   0.093   0.337 -0.3996  0.5006 -1.9349
 2888SOL    MW411326   4.130   0.063   0.309 -1.1162  0.4278 -0.0560
 2889SOL     OW11327   1.311   1.481   0.860  0.0614  0.3271  0.2681
 2889SOL    HW211328   1.315   1.385   0.852 -0.3626  0.3675 -0.5278
 2889SOL    HW311329   1.307   1.497   0.955  0.6203 -0.4203  0.4278
 2889SOL    MW411330   1.311   1.470   0.872  0.0792  0.2338  0.1842
 2890SOL     OW11331   0.860   2.266   5.595  0.7878 -0.0463 -0.2267
 2890SOL    HW211332   0.881   2.243   5.504  0.1910 -0.5249 -0.2480
 2890SOL    HW311333   0.796   2.336   5.588  1.6836  0.8088 -0.1600
 2890SOL    MW411334   0.855   2.272   5.582  0.8272  0.0034 -0.2207
 2891SOL     OW11335   5.100   6.162   3.203 -0.3308 -0.1724 -0.7091
 2891SOL    HW211336   5.079   6.194   3.290 -0.2596 -2.0431  0.0424
 2891SOL    HW311337   5.016   6.137   3.165 -0.5905  2.2305 -1.9265
 2891SOL    MW411338   5.086   6.163   3.210 -0.3557 -0.1022 -0.7706
 2892SOL     OW11339   3.270   2.729   3.024  0.1998  0.3309 -0.5477
 2892SOL    HW211340   3.317   2.772   3.096  2.7832 -1.4315 -1.0269
 2892SOL    HW311341   3.314   2.760   2.945 -1.4343  0.8710 -1.2691
 2892SOL    MW411342   3.282   2.739   3.023  0.3251  0.1697 -0.7061
 2893SOL     OW11343   2.307   5.367   3.434 -0.4564  0.2639  0.2253
 2893SOL    HW211344   2.316   5.317   3.515 -0.2434 -0.7683 -0.4158
 2893SOL    HW311345   2.388   5.350   3.386 -1.1229 -0.2181 -0.7764
 2893SOL    MW411346   2.319   5.358   3.438 -0.5162  0.0641  0.0086
 2894SOL     OW11347   2.784   4.430   3.973  0.0582 -0.0200  0.2817
 2894SOL    HW211348   2.866   4.477   3.964 -1.2724  2.2482 -0.9693
 2894SOL    HW311349   2.754   4.450   4.062 -0.5663  1.7141 -0.2891
 2894SOL    MW411350   2.791   4.439   3.984 -0.1997  0.5081  0.0413
 2895SOL     OW11351   1.701   5.420   2.606 -0.2533 -0.1159 -0.7110
 2895SOL    HW211352   1.663   5.438   2.519 -0.4901 -1.8358 -1.0143
 2895SOL    HW311353   1.672   5.493   2.660  1.0162  1.7372 -2.3650
 2895SOL    MW411354   1.692   5.432   2.601 -0.1170 -0.0983 -0.9692
 2896SOL     OW11355   1.746   4.379   3.931  0.1794 -0.2057  0.3126
 2896SOL    HW211356   1.754   4.284   3.920 -0.3399 -0.0860 -1.3022
 2896SOL    HW311357   1.807   4.415   3.868  1.7497  0.5773  2.1637
 2896SOL    MW411358   1.755   4.371   3.922  0.3181 -0.0866  0.3438
 2897SOL     OW11359   5.873   4.562   5.479 -0.0545  0.0130 -0.3370
 2897SOL    HW211360   5.856   4.630   5.414 -0.5112 -0.2584 -0.5044
 2897SOL    HW311361   5.930   4.500   5.435  0.3548  0.2768 -0.1870
 2897SOL    MW411362   5.878   4.563   5.465 -0.0607  0.0120 -0.3393
 2898SOL     OW11363   4.305   2.694   6.417  0.7380  0.8473  0.7778
 2898SOL    HW211364   4.296   2.789   6.430  1.5434  1.5185 -2.5526
 2898SOL    HW311365   4.215   2.663   6.406  0.5648  2.2101 -2.9282
 2898SOL    MW411366   4.292   2.703   6.417  0.8214  1.1157 -0.1506
 2899SOL     OW11367   6.181   3.604   3.125 -0.6202  0.2501  0.4739
 2899SOL    HW211368   6.091   3.626   3.147 -0.8904  0.7657 -1.0077
 2899SOL    HW311369   6.232   3.679   3.156 -0.7851  0.2450  0.7583
 2899SOL    MW411370   6.176   3.617   3.132 -0.6776  0.3175  0.3159
 2900SOL     OW11371   3.056   4.554   2.194 -0.4315  0.5905  0.2429
 2900SOL    HW211372   2.976   4.533   2.241  0.4836 -0.4385  1.4004
 2900SOL    HW311373   3.080   4.641   2.226 -0.9171  0.7837  0.0950
 2900SOL    MW411374   3.049   4.563   2.204 -0.3748  0.4802  0.3761
 2901SOL     OW11375   1.828   2.904   0.994  0.1537 -0.0311  0.2533
 2901SOL    HW211376   1.826   2.809   0.989 -1.0361 -0.0196  0.2912
 2901SOL    HW311377   1.821   2.924   1.087 -3.1455  0.0954  0.1039
 2901SOL    MW411378   1.827   2.894   1.006 -0.4386 -0.0129  0.2386
 2902SOL     OW11379   4.294   2.440   1.965 -0.4870 -0.3946 -0.1066
 2902SOL    HW211380   4.239   2.429   2.042  0.9830 -0.7954  0.9413
 2902SOL    HW311381   4.285   2.532   1.942 -1.6050 -0.4658  0.0233
 2902SOL    MW411382   4.286   2.451   1.972 -0.4406 -0.4569  0.0488
 2903SOL     OW11383   0.172   0.233   3.205  0.3327 -0.3938  0.0064
 2903SOL    HW211384   0.104   0.242   3.139  0.4343  0.2381 -0.0218
 2903SOL    HW311385   0.150   0.298   3.271  0.6012 -0.5700  0.2732
 2903SOL    MW411386   0.160   0.243   3.205  0.3815 -0.3337  0.0379
 2904SOL     OW11387   2.699   5.304   4.628  0.4894 -0.5275 -0.3487
 2904SOL    HW211388   2.622   5.320   4.574  0.6508 -1.4618 -0.8748
 2904SOL    HW311389   2.771   5.292   4.566  1.0977  0.4221  0.1328
 2904SOL    MW411390   2.699   5.305   4.613  0.5909 -0.5255 -0.3546
 2905SOL     OW11391   6.000   4.841   2.766 -0.2512  0.1146 -0.1960
 2905SOL    HW211392   5.924   4.822   2.820 -1.3707 -0.6109 -1.9291
 2905SOL    HW311393   6.074   4.842   2.827 -1.7493  1.9727  1.7134
 2905SOL    MW411394   6.000   4.839   2.781 -0.5965  0.2640 -0.1727
 2906SOL     OW11395   0.376   5.506   5.795 -0.7056 -0.4368 -0.2151
 2906SOL    HW211396   0.420   5.560   5.730  0.3748 -0.0902  0.7698
 2906SOL    HW311397   0.283   5.511   5.771 -0.5603  1.2875 -0.5795
 2906SOL    MW411398   0.369   5.514   5.784 -0.5439 -0.1635 -0.1332
 2907SOL     OW11399   4.738   1.963   5.378  0.1029  0.3017 -0.5671
 2907SOL    HW211400   4.815   1.986   5.430 -0.2505  0.7624 -0.2257
 2907SOL    HW311401   4.668   2.017   5.416 -0.6395 -0.9575 -0.1127
 2907SOL    MW411402   4.739   1.973   5.390 -0.0417  0.1964 -0.4621
 2908SOL     OW11403   2.238   1.233   1.708  0.2272 -0.1180 -0.6108
 2908SOL    HW211404   2.159   1.242   1.654 -0.1978  0.7769  0.1285
 2908SOL    HW311405   2.248   1.318   1.751  0.1352 -0.9941  1.2625
 2908SOL    MW411406   2.229   1.245   1.707  0.1590 -0.1155 -0.2661
 2909SOL     OW11407   6.064   2.575   4.850  0.0921 -0.0165 -0.3981
 2909SOL    HW211408   6.066   2.659   4.803 -1.4172  1.4232  1.9164
 2909SOL    HW311409   6.018   2.594   4.931 -0.5248 -3.1865  0.1269
 2909SOL    MW411410   6.058   2.588   4.854 -0.1884 -0.2448 -0.0235
 2910SOL     OW11411   2.826   1.543   4.303  0.4987 -0.0193  0.0185
 2910SOL    HW211412   2.815   1.548   4.398 -1.1522 -2.4976  0.0595
 2910SOL    HW311413   2.753   1.594   4.268 -0.6383 -1.4653  0.1703
 2910SOL    MW411414   2.815   1.550   4.311  0.1309 -0.5371  0.0439
 2911SOL     OW11415   0.781   1.918   3.273 -0.6625 -0.4257 -0.1023
 2911SOL    HW211416   0.872   1.892   3.264 -0.6738 -0.4858 -0.0451
 2911SOL    HW311417   0.762   1.969   3.194  0.0747  1.4873  0.8871
 2911SOL    MW411418   0.791   1.922   3.262 -0.5667 -0.1812  0.0358
 2912SOL     OW11419   0.148   4.071   1.844 -0.3586 -0.0608  0.0722
 2912SOL    HW211420   0.141   3.980   1.816  1.7308 -0.4313  0.6648
 2912SOL    HW311421   0.195   4.115   1.773 -0.2823  0.2905  0.3351
 2912SOL    MW411422   0.153   4.065   1.831 -0.0728 -0.0634  0.1851
 2913SOL     OW11423   1.563   3.024   0.870 -0.0075 -0.4602  0.2799
 2913SOL    HW211424   1.507   2.987   0.802 -0.6318 -0.5371  0.8283
 2913SOL    HW311425   1.610   2.949   0.906  0.9600 -0.3122 -0.6249
 2913SOL    MW411426   1.562   3.009   0.866  0.0377 -0.4508  0.2329
 2914SOL     OW11427   5.210   5.164   2.085  0.4131  0.5806 -0.3612
 2914SOL    HW211428   5.200   5.190   2.176  0.2570  0.1972 -0.2647
 2914SOL    HW311429   5.168   5.078   2.080  0.3734  0.6235 -0.8056
 2914SOL    MW411430   5.203   5.156   2.096  0.3872  0.5357 -0.4071
 2915SOL     OW11431   3.358   1.733   3.268  0.4299  0.3648  0.1000
 2915SOL    HW211432   3.291   1.773   3.323  0.0160 -2.0455  1.4980
 2915SOL    HW311433   3.310   1.674   3.210  1.2656 -1.1924  0.9346
 2915SOL    MW411434   3.343   1.730   3.268  0.4856 -0.1586  0.3946
 2916SOL     OW11435   4.939   1.840   0.627  0.2479  0.5198  0.1984
 2916SOL    HW211436   4.915   1.902   0.559  1.3776 -0.1581 -0.8592
 2916SOL    HW311437   4.911   1.755   0.593 -0.6965  0.3512  1.3388
 2916SOL    MW411438   4.932   1.837   0.614  0.2723  0.4081  0.2093
 2917SOL     OW11439   1.103   4.382   6.007 -0.5409 -0.1674  0.4011
 2917SOL    HW211440   1.050   4.446   6.054  0.1747  0.2817  0.6171
 2917SOL    HW311441   1.167   4.351   6.072  0.7679  0.8021 -0.3733
 2917SOL    MW411442   1.105   4.386   6.022 -0.2738  0.0198  0.3274
 2918SOL     OW11443   0.466   2.500   3.943 -0.0921 -0.1719 -0.6543
 2918SOL    HW211444   0.411   2.507   3.865  1.2124  1.5348 -1.4974
 2918SOL    HW311445   0.405   2.514   4.016 -1.0009  0.2716 -1.4679
 2918SOL    MW411446   0.450   2.503   3.943 -0.0399  0.1118 -0.8728
 2919SOL     OW11447   4.709   0.143   4.749 -0.0044 -0.4171 -0.6655
 2919SOL    HW211448   4.764   0.129   4.826  0.6396 -0.8401 -1.1865
 2919SOL    HW311449   4.620   0.130   4.781  0.2394 -0.3644  0.0571
 2919SOL    MW411450   4.704   0.139   4.763  0.1127 -0.4660 -0.6389
 2920SOL     OW11451   0.784   1.361   1.461  0.2760 -0.0646 -0.2466
 2920SOL    HW211452   0.875   1.332   1.449  0.0294 -0.6712 -0.7506
 2920SOL    HW311453   0.783   1.451   1.429  0.5640 -0.2658 -0.8355
 2920SOL    MW411454   0.796   1.369   1.455  0.2815 -0.1712 -0.3908
 2921SOL     OW11455   5.051   0.133   2.526  0.2648 -0.5014 -0.0643
 2921SOL    HW211456   4.965   0.139   2.568  0.0326  0.9787 -0.6934
 2921SOL    HW311457   5.031   0.116   2.433  0.6894 -1.2251 -0.0267
 2921SOL    MW411458   5.037   0.132   2.519  0.2902 -0.4016 -0.1423
 2922SOL     OW11459   1.581   2.067   3.894  0.7391 -0.2636  0.3624
 2922SOL    HW211460   1.621   2.108   3.818  1.6883  0.4081  1.1973
 2922SOL    HW311461   1.487   2.067   3.875  0.8613  0.8665 -0.3407
 2922SOL    MW411462   1.574   2.072   3.882  0.8805 -0.0259  0.3798
 2923SOL     OW11463   1.646   1.898   2.381  0.2767 -0.3134  0.1921
 2923SOL    HW211464   1.607   1.852   2.308  0.7286 -0.5108  0.0691
 2923SOL    HW311465   1.603   1.983   2.382  0.3165 -0.2837 -0.3470
 2923SOL    MW411466   1.635   1.903   2.372  0.3415 -0.3355  0.1047
 2924SOL     OW11467   1.592   2.511   6.325  0.1299  0.4768  0.8543
 2924SOL    HW211468   1.675   2.523   6.371 -0.5983  4.3194  1.5558
 2924SOL    HW311469   1.615   2.516   6.232  0.6919  2.5961  1.0442
 2924SOL    MW411470   1.606   2.513   6.319  0.1079  1.2634  0.9719
 2925SOL     OW11471   4.471   2.763   2.404 -0.1123 -0.0180  0.0475
 2925SOL    HW211472   4.552   2.719   2.380 -0.8894 -0.9483 -0.9242
 2925SOL    HW311473   4.406   2.731   2.342 -1.2958  0.5192  0.9660
 2925SOL    MW411474   4.473   2.753   2.393 -0.3710 -0.0698  0.0405
 2926SOL     OW11475   0.188   0.938   2.535 -0.3488  0.5365 -0.8894
 2926SOL    HW211476   0.178   0.950   2.441 -0.8430 -0.5652 -0.9948
 2926SOL    HW311477   0.208   0.845   2.546 -0.3066  0.6454  0.0983
 2926SOL    MW411478   0.189   0.927   2.524 -0.4084  0.4055 -0.7730
 2927SOL     OW11479   5.606   5.834   4.279  0.2936 -0.2963  0.0538
 2927SOL    HW211480   5.535   5.771   4.294 -0.1939 -0.0190 -0.9389
 2927SOL    HW311481   5.582   5.911   4.331 -1.7999  0.9785 -2.4927
 2927SOL    MW411482   5.594   5.836   4.288 -0.0470 -0.0915 -0.4132
 2928SOL     OW11483   4.890   3.798   6.010 -0.0886  0.4672  0.5063
 2928SOL    HW211484   4.835   3.796   6.088  0.6601 -0.2832  1.0358
 2928SOL    HW311485   4.841   3.850   5.947 -1.4089 -0.1792  0.9613
 2928SOL    MW411486   4.876   3.804   6.012 -0.1640  0.2829  0.6362
 2929SOL     OW11487   6.238   5.387   2.134 -0.1314  1.1343 -0.3719
 2929SOL    HW211488   6.268   5.328   2.202  0.8506  1.2978 -0.6472
 2929SOL    HW311489   6.249   5.475   2.171  1.1290  1.2610 -0.9970
 2929SOL    MW411490   6.244   5.391   2.148  0.1645  1.1726 -0.4907
 2930SOL     OW11491   1.625   0.836   6.167  0.6274 -0.2967  0.4258
 2930SOL    HW211492   1.663   0.760   6.122  0.1466  0.1815 -0.8368
 2930SOL    HW311493   1.537   0.844   6.131  0.8526  1.1696  0.1452
 2930SOL    MW411494   1.619   0.827   6.156  0.5936 -0.0402  0.2222
 2931SOL     OW11495   3.374   6.370   6.368  0.3397 -0.0733 -0.0269
 2931SOL    HW211496   3.353   6.463   6.355  0.6853  0.1109  0.7001
 2931SOL    HW311497   3.405   6.341   6.282  2.0497  0.9839  0.1832
 2931SOL    MW411498   3.375   6.378   6.355  0.6109  0.0905  0.0968
 2932SOL     OW11499   1.190   4.589   4.216 -0.4620 -0.2184 -0.3872
 2932SOL    HW211500   1.106   4.627   4.241  0.3767  0.4285  1.6767
 2932SOL    HW311501   1.200   4.513   4.273  0.3755 -0.2591 -0.5756
 2932SOL    MW411502   1.180   4.584   4.227 -0.2408 -0.1384 -0.1397
 2933SOL     OW11503   3.090   0.311   4.443 -0.0942  0.7043  0.0880
 2933SOL    HW211504   3.037   0.349   4.373 -1.2955  1.5727  1.4135
 2933SOL    HW311505   3.072   0.217   4.437 -1.4536  0.9265  0.2074
 2933SOL    MW411506   3.080   0.303   4.433 -0.4321  0.8482  0.2786
 2934SOL     OW11507   3.478   4.772   1.523  0.1004 -0.0547  0.6648
 2934SOL    HW211508   3.454   4.761   1.431 -0.2357 -1.1633  0.8659
 2934SOL    HW311509   3.464   4.865   1.541  1.1394  0.3914 -0.6625
 2934SOL    MW411510   3.473   4.783   1.513  0.1931 -0.1421  0.5162
 2935SOL     OW11511   2.718   1.122   1.916  0.8061  0.7570  0.1219
 2935SOL    HW211512   2.725   1.206   1.870 -2.1960  0.0289 -1.9834
 2935SOL    HW311513   2.673   1.065   1.854 -0.6659 -1.2985  2.8833
 2935SOL    MW411514   2.713   1.126   1.901  0.2158  0.3897  0.2085
 2936SOL     OW11515   1.206   1.996   5.666 -0.1760 -0.1292  0.0466
 2936SOL    HW211516   1.217   1.934   5.594 -2.1076  0.2737 -0.6644
 2936SOL    HW311517   1.182   2.078   5.623 -0.7138  0.2972  1.1233
 2936SOL    MW411518   1.204   1.999   5.650 -0.5018 -0.0198  0.0948
 2937SOL     OW11519   4.354   4.466   1.188  0.2438  0.2114 -0.2726
 2937SOL    HW211520   4.388   4.540   1.138  1.4015  0.4475  0.8076
 2937SOL    HW311521   4.364   4.492   1.280 -1.7652 -0.2362  0.1250
 2937SOL    MW411522   4.360   4.479   1.194  0.1314  0.1835 -0.0776
 2938SOL     OW11523   5.317   2.421   2.491 -0.6896 -1.4904  0.3767
 2938SOL    HW211524   5.340   2.328   2.495  1.4347 -1.0260  0.2152
 2938SOL    HW311525   5.281   2.433   2.403  0.5343 -1.8772 -0.1963
 2938SOL    MW411526   5.315   2.410   2.480 -0.2479 -1.4802  0.2798
 2939SOL     OW11527   0.347   6.309   4.033 -0.3973 -0.1307 -0.5226
 2939SOL    HW211528   0.400   6.291   4.111 -0.4608  0.7027 -0.2679
 2939SOL    HW311529   0.257   6.290   4.060 -0.8860  3.1952  0.7433
 2939SOL    MW411530   0.342   6.304   4.047 -0.4701  0.4181 -0.3219
 2940SOL     OW11531   4.356   5.928   1.366  0.5785 -0.2257 -0.6871
 2940SOL    HW211532   4.376   5.835   1.357  2.1288 -0.0171  0.0716
 2940SOL    HW311533   4.404   5.955   1.445  0.2882  1.2452 -0.9732
 2940SOL    MW411534   4.365   5.919   1.375  0.7447 -0.0041 -0.6247
 2941SOL     OW11535   3.833   0.868   4.023  0.3267  0.7714  0.1824
 2941SOL    HW211536   3.834   0.962   4.043  0.0675  0.8945 -0.3725
 2941SOL    HW311537   3.856   0.826   4.106 -0.1365  1.2999  0.5839
 2941SOL    MW411538   3.836   0.875   4.037  0.2314  0.8574  0.1622
 2942SOL     OW11539   6.331   5.734   1.505  0.1840  0.2185  0.3609
 2942SOL    HW211540   6.387   5.810   1.521 -1.0397  0.7994  2.2160
 2942SOL    HW311541   6.282   5.757   1.426  0.5973  0.9033  0.2988
 2942SOL    MW411542   6.332   5.747   1.497  0.0771  0.3855  0.5975
 2943SOL     OW11543   4.452   3.298   4.434  0.4674 -0.3090  0.0944
 2943SOL    HW211544   4.509   3.286   4.510 -2.1640 -0.9630  2.1295
 2943SOL    HW311545   4.445   3.393   4.425 -0.8933 -0.1522  2.1682
 2943SOL    MW411546   4.459   3.309   4.443 -0.0593 -0.3746  0.6365
 2944SOL     OW11547   5.881   1.744   1.500  0.4870  0.2776 -0.1952
 2944SOL    HW211548   5.927   1.708   1.576  1.6586 -1.1229 -1.4885
 2944SOL    HW311549   5.951   1.764   1.438 -0.5147  0.0753 -1.4272
 2944SOL    MW411550   5.897   1.742   1.502  0.5094  0.0661 -0.5284
 2945SOL     OW11551   5.007   3.930   2.556 -0.1629  0.5132  0.3357
 2945SOL    HW211552   5.081   3.885   2.596  0.2587  0.4478 -0.5148
 2945SOL    HW311553   5.039   4.019   2.538  0.3333 -0.0342 -1.7169
 2945SOL    MW411554   5.021   3.936   2.559 -0.0418  0.4323 -0.0473
 2946SOL     OW11555   5.470   4.726   2.583  0.1882  0.1852 -0.0369
 2946SOL    HW211556   5.418   4.747   2.505 -0.8799 -1.0922  0.3070
 2946SOL    HW311557   5.406   4.697   2.647  1.2440 -0.5850  0.6998
 2946SOL    MW411558   5.455   4.725   2.581  0.1866 -0.0850  0.1057
 2947SOL     OW11559   1.759   2.651   3.058  0.2926  0.6248 -0.4992
 2947SOL    HW211560   1.706   2.598   3.118  1.8328  0.1193  0.4768
 2947SOL    HW311561   1.763   2.600   2.977  0.3307  0.0869 -0.1597
 2947SOL    MW411562   1.752   2.637   3.055  0.5008  0.4871 -0.3257
 2948SOL     OW11563   0.596   5.751   5.157 -0.7631  0.0219  0.1792
 2948SOL    HW211564   0.610   5.694   5.082 -0.0439  0.0394  0.2990
 2948SOL    HW311565   0.539   5.821   5.124  2.2682  1.9713 -1.3317
 2948SOL    MW411566   0.590   5.753   5.143 -0.2683  0.2814 -0.0043
 2949SOL     OW11567   2.640   4.690   3.398  0.2701 -0.3188  0.6857
 2949SOL    HW211568   2.583   4.644   3.461 -1.3021  2.7486  1.6778
 2949SOL    HW311569   2.637   4.781   3.425  1.0345  0.8811 -2.7926
 2949SOL    MW411570   2.632   4.696   3.410  0.1635  0.2442  0.3577
 2950SOL     OW11571   0.014   5.003   3.535  0.3554  0.4630 -0.3419
 2950SOL    HW211572   0.005   5.097   3.519  2.9469  0.7992 -0.2310
 2950SOL    HW311573  -0.043   4.961   3.470  0.6621  2.0676 -1.7024
 2950SOL    MW411574   0.005   5.010   3.525  0.7378  0.7191 -0.5068
 2951SOL     OW11575   5.634   2.383   1.749 -0.3149 -0.0036  0.1584
 2951SOL    HW211576   5.586   2.452   1.795 -0.1410  0.5676 -0.4961
 2951SOL    HW311577   5.722   2.386   1.787 -0.0154  0.8391 -0.5811
 2951SOL    MW411578   5.639   2.392   1.760 -0.2524  0.1830 -0.0255
 2952SOL     OW11579   2.036   4.083   1.837  0.7346 -0.4378  0.3784
 2952SOL    HW211580   2.097   4.031   1.890  0.3987 -1.1659  0.0697
 2952SOL    HW311581   2.076   4.170   1.832  1.6240 -0.8341  0.3875
 2952SOL    MW411582   2.049   4.087   1.843  0.8076 -0.5861  0.3388
 2953SOL     OW11583   2.742   6.190   2.622 -0.0567 -0.2094 -0.1500
 2953SOL    HW211584   2.820   6.136   2.631 -0.4712 -0.7063  0.6109
 2953SOL    HW311585   2.703   6.190   2.709 -1.9759 -1.6396 -0.9296
 2953SOL    MW411586   2.747   6.183   2.634 -0.3646 -0.4636 -0.1525
 2954SOL     OW11587   4.709   3.440   2.101  0.3224  0.5497 -0.1513
 2954SOL    HW211588   4.686   3.347   2.108 -0.0902  0.7392  1.4489
 2954SOL    HW311589   4.804   3.443   2.113  0.2661  0.3756  0.3498
 2954SOL    MW411590   4.718   3.428   2.103  0.2606  0.5517  0.1260
 2955SOL     OW11591   5.249   4.714   0.364  0.0091 -0.7180  0.2168
 2955SOL    HW211592   5.159   4.728   0.335  0.3099 -1.4504 -1.1695
 2955SOL    HW311593   5.247   4.632   0.413  0.1095 -1.4049 -0.8860
 2955SOL    MW411594   5.237   4.705   0.367  0.0620 -0.9053 -0.1116
 2956SOL     OW11595   2.226   3.928   1.969  0.0063 -0.3237 -0.0784
 2956SOL    HW211596   2.180   3.928   2.053  2.4632 -1.3403  1.3949
 2956SOL    HW311597   2.275   4.011   1.969  0.2482 -0.4653 -0.3614
 2956SOL    MW411598   2.227   3.939   1.980  0.3623 -0.4765  0.0786
 2957SOL     OW11599   5.545   4.263   3.995  0.1130 -0.1813  0.1035
 2957SOL    HW211600   5.494   4.344   3.997  0.6359  0.1407  0.4908
 2957SOL    HW311601   5.562   4.247   3.902  1.2889  0.9714  0.0959
 2957SOL    MW411602   5.541   4.271   3.983  0.3371  0.0133  0.1536
 2958SOL     OW11603   5.407   5.264   1.599 -0.6709 -0.4017  0.7073
 2958SOL    HW211604   5.437   5.290   1.512  0.4193  0.5680  1.3378
 2958SOL    HW311605   5.426   5.339   1.655  0.1583 -1.5764  2.0917
 2958SOL    MW411606   5.414   5.277   1.595 -0.4177 -0.4287  0.9732
 2959SOL     OW11607   0.089   0.689   6.348  0.1035  0.1857 -0.0330
 2959SOL    HW211608   0.074   0.753   6.417  3.6584  0.3119  0.8348
 2959SOL    HW311609   0.072   0.604   6.390 -1.0803  0.3674 -0.1040
 2959SOL    MW411610   0.085   0.686   6.362  0.4163  0.2263  0.0721
 2960SOL     OW11611   5.678   2.144   0.957  0.1524  0.2430 -0.8649
 2960SOL    HW211612   5.748   2.210   0.963  0.0627  0.2450  0.4175
 2960SOL    HW311613   5.690   2.089   1.035 -1.2885  0.2663 -0.6041
 2960SOL    MW411614   5.689   2.146   0.968 -0.0495  0.2463 -0.6613
 2961SOL     OW11615   1.735   5.687   2.151  0.3655  0.2508  0.0534
 2961SOL    HW211616   1.735   5.643   2.066  0.0848 -1.6328  0.9762
 2961SOL    HW311617   1.654   5.739   2.151 -0.3577 -0.8400 -0.3028
 2961SOL    MW411618   1.724   5.688   2.139  0.2330 -0.1416  0.1282
 2962SOL     OW11619   1.656   0.185   3.557 -0.2298  0.3107 -0.5266
 2962SOL    HW211620   1.602   0.179   3.478  1.1214 -2.2092 -1.3945
 2962SOL    HW311621   1.616   0.122   3.618  1.3952 -1.3287 -1.0552
 2962SOL    MW411622   1.644   0.176   3.554  0.1629 -0.2381 -0.7108
 2963SOL     OW11623   3.441   3.906   5.461  0.1320  0.1503  0.6078
 2963SOL    HW211624   3.523   3.856   5.462  0.6366  0.9619  0.3318
 2963SOL    HW311625   3.375   3.844   5.492  1.0078 -0.2241  1.7869
 2963SOL    MW411626   3.443   3.891   5.465  0.3141  0.2080  0.7270
 2964SOL     OW11627   1.895   2.745   3.724 -0.1622 -0.5654 -0.4456
 2964SOL    HW211628   1.923   2.656   3.701  1.3470  0.4776 -3.0161
 2964SOL    HW311629   1.856   2.780   3.644 -0.0897  1.3305  0.2952
 2964SOL    MW411630   1.893   2.738   3.711  0.0465 -0.1777 -0.6870
 2965SOL     OW11631   6.112   4.653   0.544  0.2781  0.1975 -0.0574
 2965SOL    HW211632   6.041   4.617   0.490  0.7436  1.2975 -1.4746
 2965SOL    HW311633   6.067   4.694   0.618 -0.5595  0.5821 -0.7546
 2965SOL    MW411634   6.097   4.653   0.546  0.2290  0.3934 -0.3364
 2966SOL     OW11635   3.766   5.702   5.919  0.5866  0.5336  0.5415
 2966SOL    HW211636   3.800   5.791   5.931  0.2931  0.7529 -0.1720
 2966SOL    HW311637   3.839   5.645   5.943  1.0491  0.9820  0.2206
 2966SOL    MW411638   3.780   5.706   5.924  0.6089  0.6217  0.4050
 2967SOL     OW11639   3.437   2.440   2.665  0.6001  0.1219  0.5533
 2967SOL    HW211640   3.458   2.427   2.573  0.3585 -3.1346  0.8532
 2967SOL    HW311641   3.512   2.487   2.701  0.4900  1.8638 -1.3166
 2967SOL    MW411642   3.450   2.444   2.658  0.5537 -0.0779  0.3462
 2968SOL     OW11643   3.080   4.410   2.651  0.0680 -0.1378 -0.3845
 2968SOL    HW211644   3.120   4.430   2.735 -0.6777 -1.0375  0.2111
 2968SOL    HW311645   3.003   4.467   2.648  0.6800  0.6803 -0.9620
 2968SOL    MW411646   3.075   4.420   2.662  0.0504 -0.1485 -0.3821
 2969SOL     OW11647   4.546   1.755   4.371  0.1425 -0.1350 -0.1312
 2969SOL    HW211648   4.599   1.682   4.402  0.3252 -0.8022 -1.9330
 2969SOL    HW311649   4.607   1.809   4.320  0.1995  1.7376  1.7184
 2969SOL    MW411650   4.561   1.753   4.369  0.1741  0.0241 -0.1249
 2970SOL     OW11651   5.149   4.807   4.034 -0.2118  0.3022  0.1883
 2970SOL    HW211652   5.081   4.753   4.075  0.5329 -1.8835 -1.2890
 2970SOL    HW311653   5.110   4.894   4.030 -1.3459  0.0364  2.9599
 2970SOL    MW411654   5.135   4.811   4.039 -0.2632 -0.0213  0.3591
 2971SOL     OW11655   5.841   3.419   1.774 -0.1246  0.3040 -0.3397
 2971SOL    HW211656   5.791   3.340   1.791  2.3283 -1.6403 -1.4761
 2971SOL    HW311657   5.911   3.418   1.839  0.2820  1.2499 -0.7372
 2971SOL    MW411658   5.844   3.409   1.785  0.2527  0.1723 -0.5421
 2972SOL     OW11659   4.374   0.981   0.053  0.7923 -0.0707  0.1929
 2972SOL    HW211660   4.334   1.061   0.089 -0.6501 -0.7718  0.2078
 2972SOL    HW311661   4.361   0.915   0.121  1.7939 -0.3768  0.0932
 2972SOL    MW411662   4.367   0.983   0.067  0.7341 -0.2036  0.1817
 2973SOL     OW11663   4.306   2.240   5.097 -0.1858  0.3786  0.7520
 2973SOL    HW211664   4.256   2.234   5.016 -0.4096 -1.5828  0.9814
 2973SOL    HW311665   4.387   2.285   5.072 -1.2267  1.9057 -0.0186
 2973SOL    MW411666   4.310   2.245   5.083 -0.3527  0.3213  0.6806
 2974SOL     OW11667   0.822   5.307   4.818 -0.1630  0.1014  0.2267
 2974SOL    HW211668   0.736   5.341   4.796 -0.2708 -0.4148 -0.1759
 2974SOL    HW311669   0.849   5.257   4.740  0.5903  0.4330  0.2616
 2974SOL    MW411670   0.814   5.305   4.805 -0.0778  0.0770  0.1782
 2975SOL     OW11671   5.373   3.728   1.210  0.5398 -0.1860  0.0756
 2975SOL    HW211672   5.340   3.718   1.120 -2.8715 -0.9001  1.2410
 2975SOL    HW311673   5.440   3.796   1.203  0.6196 -0.4388 -3.0437
 2975SOL    MW411674   5.377   3.736   1.197  0.1002 -0.3135 -0.1822
 2976SOL     OW11675   3.930   0.934   0.516  0.2155  0.1365  0.2240
 2976SOL    HW211676   3.978   0.959   0.594 -0.0825 -1.0284  0.8003
 2976SOL    HW311677   3.996   0.932   0.447  0.3560  1.8503  0.2736
 2976SOL    MW411678   3.945   0.937   0.517  0.1948  0.2089  0.3066
 2977SOL     OW11679   5.822   4.431   1.283  0.3544 -0.0603 -0.2526
 2977SOL    HW211680   5.851   4.508   1.233 -1.7067 -1.4560 -4.0238
 2977SOL    HW311681   5.889   4.365   1.266  0.5010 -0.0400  0.2537
 2977SOL    MW411682   5.834   4.433   1.274  0.1018 -0.2417 -0.6833
 2978SOL     OW11683   2.845   4.921   4.484 -0.2543  0.3428 -0.6926
 2978SOL    HW211684   2.860   4.863   4.409  2.6161 -0.1930  0.1609
 2978SOL    HW311685   2.750   4.919   4.498 -0.4437 -2.9711 -1.6183
 2978SOL    MW411686   2.835   4.913   4.476  0.0994 -0.1651 -0.7021
 2979SOL     OW11687   2.289   3.404   3.369  0.5443 -0.2007  0.2880
 2979SOL    HW211688   2.297   3.321   3.417  1.3975 -2.0645 -2.7989
 2979SOL    HW311689   2.379   3.430   3.351  0.2484 -0.2555 -1.3757
 2979SOL    MW411690   2.302   3.396   3.373  0.6179 -0.4539 -0.3388
 2980SOL     OW11691   2.389   3.270   6.154  0.0767 -0.0532  0.7052
 2980SOL    HW211692   2.365   3.246   6.244 -1.3012 -2.4593 -0.1857
 2980SOL    HW311693   2.404   3.185   6.111  1.2585  1.0653 -1.2044
 2980SOL    MW411694   2.388   3.255   6.160  0.0508 -0.2231  0.3357
 2981SOL     OW11695   5.080   3.759   0.963  0.1817  0.5612 -0.1199
 2981SOL    HW211696   5.055   3.745   1.054  3.3656  0.5338  0.8713
 2981SOL    HW311697   5.104   3.672   0.931 -1.2283  0.5177 -1.1319
 2981SOL    MW411698   5.080   3.746   0.970  0.4157  0.5519 -0.1227
 2982SOL     OW11699   4.214   4.814   1.728 -0.1447  0.0516  0.2210
 2982SOL    HW211700   4.199   4.722   1.708  0.9942  0.2371 -1.7298
 2982SOL    HW311701   4.127   4.854   1.720 -0.6984 -0.8449  1.3455
 2982SOL    MW411702   4.201   4.807   1.725 -0.0675 -0.0422  0.1119
 2983SOL     OW11703   5.486   0.360   2.586 -0.6129 -0.4439 -0.3080
 2983SOL    HW211704   5.539   0.420   2.533  1.1405 -0.3602  1.4341
 2983SOL    HW311705   5.527   0.274   2.571  1.0725 -0.1738  2.1500
 2983SOL    MW411706   5.499   0.356   2.577 -0.1592 -0.3972  0.2461
 2984SOL     OW11707   2.315   2.596   0.184 -0.2936  0.1772 -0.6048
 2984SOL    HW211708   2.269   2.547   0.115  1.8246 -0.6430 -1.5044
 2984SOL    HW311709   2.342   2.529   0.247 -0.6486  0.6979  0.1114
 2984SOL    MW411710   2.312   2.580   0.183 -0.0610  0.1377 -0.6290
 2985SOL     OW11711   6.035   4.910   3.733  0.2812  0.1871 -0.4212
 2985SOL    HW211712   6.086   4.852   3.676  2.1888 -0.8124  2.0863
 2985SOL    HW311713   5.982   4.850   3.786  0.8450  0.8209  0.9081
 2985SOL    MW411714   6.034   4.894   3.732  0.6073  0.1389  0.0850
 2986SOL     OW11715   2.305   5.817   0.087  0.0521 -0.6784  0.4696
 2986SOL    HW211716   2.239   5.847   0.024  0.1677  0.3570  0.8370
 2986SOL    HW311717   2.290   5.722   0.092  0.3081 -0.8623 -1.4290
 2986SOL    MW411718   2.294   5.808   0.079  0.1011 -0.5660  0.2676
 2987SOL     OW11719   4.152   6.372   6.234  0.1821 -0.1414 -0.1582
 2987SOL    HW211720   4.174   6.319   6.311 -1.9277 -0.0883  0.5499
 2987SOL    HW311721   4.231   6.424   6.218  1.3766 -1.5771  0.7381
 2987SOL    MW411722   4.166   6.372   6.242  0.0614 -0.3238  0.0535
 2988SOL     OW11723   1.821   2.582   2.088  0.2464 -0.2867  0.0574
 2988SOL    HW211724   1.845   2.674   2.102  0.4894 -0.5708  1.7451
 2988SOL    HW311725   1.897   2.532   2.117  0.4906 -1.0333 -1.7455
 2988SOL    MW411726   1.834   2.588   2.093  0.3107 -0.4227  0.0422
 2989SOL     OW11727   4.416   2.385   2.281 -0.5712  0.1779  0.6402
 2989SOL    HW211728   4.432   2.466   2.232 -1.3998  0.1999  0.3849
 2989SOL    HW311729   4.498   2.336   2.273  0.3118  1.4016  1.6370
 2989SOL    MW411730   4.429   2.389   2.274 -0.5640  0.3422  0.7380
 2990SOL     OW11731   4.359   6.281   5.262  0.9722  0.3917 -0.0053
 2990SOL    HW211732   4.368   6.318   5.174 -0.8096  0.0171 -0.3716
 2990SOL    HW311733   4.414   6.337   5.317  0.1402  2.1699 -0.9261
 2990SOL    MW411734   4.368   6.293   5.258  0.6273  0.5769 -0.1751
 2991SOL     OW11735   2.503   3.046   0.697 -0.1812 -0.6971  0.2708
 2991SOL    HW211736   2.439   2.988   0.737 -0.1695 -0.4345  0.6760
 2991SOL    HW311737   2.534   3.101   0.769 -0.7750  0.3413 -0.2475
 2991SOL    MW411738   2.499   3.046   0.712 -0.2580 -0.5255  0.2559
 2992SOL     OW11739   2.433   2.350   5.021 -0.3843 -0.0413 -0.3687
 2992SOL    HW211740   2.484   2.273   5.047 -0.0679  0.2901  0.0057
 2992SOL    HW311741   2.410   2.393   5.103 -0.0249  0.6010 -0.5884
 2992SOL    MW411742   2.437   2.346   5.035 -0.2951  0.0872 -0.3483
 2993SOL     OW11743   1.625   1.664   2.828  0.3500  0.4801 -0.3390
 2993SOL    HW211744   1.611   1.574   2.799  0.4678 -0.3472  1.9569
 2993SOL    HW311745   1.679   1.703   2.760  0.9093 -1.3917 -1.0428
 2993SOL    MW411746   1.630   1.657   2.815  0.4393  0.1240 -0.1290
 2994SOL     OW11747   5.209   1.484   5.985 -0.1678 -0.1052  0.2223
 2994SOL    HW211748   5.200   1.460   6.077 -0.3049  0.0899  0.2602
 2994SOL    HW311749   5.124   1.462   5.947 -0.3898  0.5691  0.3151
 2994SOL    MW411750   5.196   1.478   5.992 -0.2152  0.0095  0.2395
 2995SOL     OW11751   5.951   3.255   3.070 -0.4810  0.6358 -0.2579
 2995SOL    HW211752   6.028   3.275   3.123  0.5957  1.0555 -1.9013
 2995SOL    HW311753   5.957   3.162   3.052 -1.7673  0.1239  1.6884
 2995SOL    MW411754   5.962   3.246   3.075 -0.5087  0.6236 -0.2179
 2996SOL     OW11755   1.622   3.294   3.448  0.3725  0.1849  0.4142
 2996SOL    HW211756   1.673   3.214   3.456 -2.3272 -1.5662  1.9906
 2996SOL    HW311757   1.622   3.331   3.536  0.4551  1.1903  0.0056
 2996SOL    MW411758   1.628   3.288   3.461  0.0272  0.0865  0.5683
 2997SOL     OW11759   3.327   5.947   5.257 -0.1397  0.0897 -0.3008
 2997SOL    HW211760   3.331   5.852   5.266  0.3635 -0.0555 -1.7238
 2997SOL    HW311761   3.405   5.969   5.205 -1.0990  1.0866 -1.3642
 2997SOL    MW411762   3.338   5.937   5.251 -0.1999  0.2021 -0.6288
 2998SOL     OW11763   0.427   2.133   5.726  0.0322  0.1628  0.1689
 2998SOL    HW211764   0.374   2.211   5.741  0.2425  0.1169  1.2210
 2998SOL    HW311765   0.406   2.107   5.636 -1.3281  0.4378  0.3828
 2998SOL    MW411766   0.417   2.140   5.716 -0.1195  0.1930  0.3359
 2999SOL     OW11767   1.514   5.526   3.020  0.0889  0.1023  0.1908
 2999SOL    HW211768   1.565   5.565   2.949  1.7354  0.5461  1.5298
 2999SOL    HW311769   1.423   5.541   2.996  0.6052  0.6495 -1.5771
 2999SOL    MW411770   1.509   5.533   3.008  0.3742  0.2330  0.1342
 3000SOL     OW11771   5.120   5.732   0.800 -0.1401 -0.2963  0.5802
 3000SOL    HW211772   5.159   5.808   0.757  1.4378  0.1061  2.5722
 3000SOL    HW311773   5.152   5.657   0.749 -1.0523  0.2910 -0.9117
 3000SOL    MW411774   5.129   5.732   0.788 -0.0523 -0.1658  0.6462
 3001SOL     OW11775   2.774   1.772   0.904 -0.6121  0.2194  0.1648
 3001SOL    HW211776   2.718   1.815   0.969 -0.0986 -0.2837  0.9518
 3001SOL    HW311777   2.712   1.731   0.843 -1.1557 -1.1347  1.5494
 3001SOL    MW411778   2.758   1.772   0.905 -0.6161 -0.0257  0.4514
 3002SOL     OW11779   4.365   4.625   3.535 -0.1766 -0.4236  0.5124
 3002SOL    HW211780   4.392   4.546   3.583  0.5716 -1.0168 -0.7976
 3002SOL    HW311781   4.363   4.694   3.600  2.6417 -0.7792  1.1067
 3002SOL    MW411782   4.369   4.623   3.550  0.2939 -0.5488  0.4179
 3003SOL     OW11783   6.336   4.951   0.203 -0.2346 -0.0554  0.1561
 3003SOL    HW211784   6.382   4.893   0.143  2.5040  1.8480  0.2173
 3003SOL    HW311785   6.279   4.893   0.254  1.1077 -2.4201 -0.8677
 3003SOL    MW411786   6.334   4.936   0.202  0.3038 -0.1163  0.0291
 3004SOL     OW11787   5.844   2.399   5.855 -0.4990  0.1237 -0.6682
 3004SOL    HW211788   5.809   2.312   5.875  1.1345 -0.4567 -0.1724
 3004SOL    HW311789   5.919   2.409   5.914  0.3705  1.1572 -1.8781
 3004SOL    MW411790   5.850   2.389   5.865 -0.1687  0.1835 -0.7624
 3005SOL     OW11791   6.018   4.029   3.907  0.0298  0.3429 -0.2057
 3005SOL    HW211792   6.082   3.959   3.898 -0.8419 -0.2219 -2.7209
 3005SOL    HW311793   5.933   3.984   3.909 -0.4677  1.2379 -0.4861
 3005SOL    MW411794   6.015   4.014   3.906 -0.1508  0.3865 -0.5745
 3006SOL     OW11795   0.685   0.311   5.459 -0.5965  0.0292  0.1795
 3006SOL    HW211796   0.721   0.308   5.548 -1.4296  1.4210  0.5888
 3006SOL    HW311797   0.748   0.364   5.409 -1.4768  1.5465  0.6300
 3006SOL    MW411798   0.698   0.317   5.464 -0.8226  0.4131  0.2929
 3007SOL     OW11799   4.009   4.968   1.576 -0.3854  0.0278  0.0980
 3007SOL    HW211800   3.977   4.898   1.521 -1.0530  1.1075 -0.9396
 3007SOL    HW311801   4.088   4.999   1.532 -1.1505  1.1722 -0.5202
 3007SOL    MW411802   4.016   4.963   1.563 -0.5744  0.3213 -0.1205
 3008SOL     OW11803   0.946   1.911   0.286 -0.6332 -0.5777  0.2536
 3008SOL    HW211804   0.960   1.953   0.201  0.3446 -0.4204  0.4809
 3008SOL    HW311805   1.031   1.917   0.330 -0.6775 -2.1446  0.5915
 3008SOL    MW411806   0.959   1.918   0.281 -0.5101 -0.7637  0.3281
 3009SOL     OW11807   4.176   1.604   0.502 -0.0950 -0.5661 -0.0810
 3009SOL    HW211808   4.113   1.665   0.465 -0.6906 -1.1263 -0.0137
 3009SOL    HW311809   4.218   1.563   0.426 -0.0561 -0.4322 -0.1305
 3009SOL    MW411810   4.173   1.606   0.487 -0.1685 -0.6223 -0.0787
 3010SOL     OW11811   2.220   2.220   1.503 -0.4477 -0.0514  0.1778
 3010SOL    HW211812   2.197   2.239   1.594  0.3717 -0.4619  0.4883
 3010SOL    HW311813   2.209   2.303   1.457 -0.6621  0.2110  0.6960
 3010SOL    MW411814   2.216   2.234   1.509 -0.3679 -0.0709  0.2871
 3011SOL     OW11815   1.722   2.783   5.798 -0.6400  0.3652 -0.0388
 3011SOL    HW211816   1.815   2.790   5.817 -0.6543  1.5261 -0.3170
 3011SOL    HW311817   1.706   2.850   5.732 -0.9900 -2.0932 -2.6531
 3011SOL    MW411818   1.732   2.792   5.792 -0.6881  0.1940 -0.4204
 3012SOL     OW11819   4.534   4.537   5.696  0.1638 -0.1972 -0.5859
 3012SOL    HW211820   4.554   4.614   5.749  3.7094 -0.5763 -1.1279
 3012SOL    HW311821   4.531   4.465   5.759 -2.2158  0.1351 -0.2057
 3012SOL    MW411822   4.536   4.538   5.711  0.3176 -0.2033 -0.6072
 3013SOL     OW11823   4.433   3.909   5.933 -0.3728 -0.2468  0.1375
 3013SOL    HW211824   4.458   3.942   6.020 -0.1419 -1.3668  0.5159
 3013SOL    HW311825   4.456   3.816   5.936  1.4713  0.0659 -1.8057
 3013SOL    MW411826   4.440   3.901   5.945 -0.0990 -0.3533 -0.0689
 3014SOL     OW11827   6.195   1.609   3.696 -0.1271 -0.3601 -0.1785
 3014SOL    HW211828   6.263   1.542   3.696 -0.5610 -0.8242  0.9937
 3014SOL    HW311829   6.234   1.682   3.647  2.0438  0.1899  2.1542
 3014SOL    MW411830   6.209   1.610   3.690  0.1021 -0.3488  0.2839
 3015SOL     OW11831   2.587   2.635   1.563  0.2539  0.4997 -0.1663
 3015SOL    HW211832   2.608   2.591   1.481  0.2881  1.5274 -0.7337
 3015SOL    HW311833   2.525   2.704   1.537 -0.4497  0.2649  0.8152
 3015SOL    MW411834   2.581   2.639   1.549  0.1656  0.6043 -0.1117
 3016SOL     OW11835   6.004   4.739   5.690  0.1112 -0.4455  0.0264
 3016SOL    HW211836   6.079   4.679   5.697  1.7021  1.2322 -1.5425
 3016SOL    HW311837   5.944   4.695   5.630  1.3467 -0.4282 -1.2700
 3016SOL    MW411838   6.006   4.725   5.683  0.4841 -0.2219 -0.3516
 3017SOL     OW11839   0.438   5.153   4.815  0.3198  0.3810  0.1356
 3017SOL    HW211840   0.454   5.128   4.906 -0.1046 -0.7644 -0.0852
 3017SOL    HW311841   0.350   5.121   4.797  0.5065  0.3514 -0.7543
 3017SOL    MW411842   0.429   5.145   4.825  0.2884  0.2260 -0.0110
 3018SOL     OW11843   4.162   0.253   5.108  1.1250 -0.1415 -0.4608
 3018SOL    HW211844   4.111   0.203   5.172  1.4835 -1.3552 -1.1107
 3018SOL    HW311845   4.212   0.316   5.162 -0.7521  0.8525  0.2063
 3018SOL    MW411846   4.162   0.255   5.124  0.9246 -0.1704 -0.4585
 3019SOL     OW11847   1.015   2.715   3.325 -0.7925 -0.1679 -0.0670
 3019SOL    HW211848   1.021   2.658   3.401 -3.0954 -0.9290 -0.3713
 3019SOL    HW311849   0.921   2.731   3.314 -0.3441  2.3440 -0.9986
 3019SOL    MW411850   1.003   2.710   3.333 -1.0372  0.0631 -0.2301
 3020SOL     OW11851   2.887   5.017   1.317  0.4130  0.2881 -0.3251
 3020SOL    HW211852   2.915   5.062   1.396 -0.8785  1.2721 -0.3954
 3020SOL    HW311853   2.846   5.085   1.263 -0.9244 -0.7931 -0.7544
 3020SOL    MW411854   2.885   5.032   1.320  0.0661  0.2753 -0.3910
 3021SOL     OW11855   5.596   1.568   1.122 -0.2584  0.1814  0.1031
 3021SOL    HW211856   5.639   1.548   1.205 -1.1014 -0.1026  0.4849
 3021SOL    HW311857   5.668   1.582   1.060  0.4357 -2.5760  0.1448
 3021SOL    MW411858   5.611   1.567   1.125 -0.2780 -0.2199  0.1590
 3022SOL     OW11859   2.948   1.846   1.242 -0.1474 -0.5121  0.2050
 3022SOL    HW211860   2.999   1.821   1.319  0.9526 -1.3374 -0.7630
 3022SOL    HW311861   3.002   1.819   1.168 -1.2464  0.1449 -0.8619
 3022SOL    MW411862   2.962   1.839   1.243 -0.1473 -0.5343 -0.0635
 3023SOL     OW11863   0.031   2.273   4.637 -0.4728 -0.3906 -0.0731
 3023SOL    HW211864   0.024   2.293   4.730  0.1332 -0.7358  0.0564
 3023SOL    HW311865   0.052   2.356   4.596 -0.0476 -0.3642  0.1925
 3023SOL    MW411866   0.033   2.286   4.644 -0.3368 -0.4327 -0.0209
 3024SOL     OW11867   2.025   1.639   3.849  0.2196 -0.3141  0.0725
 3024SOL    HW211868   2.094   1.661   3.913 -0.1831  1.4716 -0.0345
 3024SOL    HW311869   2.070   1.643   3.764 -0.0641  1.3300 -0.0372
 3024SOL    MW411870   2.040   1.643   3.846  0.1290  0.1384  0.0439
 3025SOL     OW11871   1.064   1.403   3.701 -0.1235 -0.2626 -0.6597
 3025SOL    HW211872   1.092   1.389   3.791 -2.0497 -1.6525 -0.1998
 3025SOL    HW311873   1.099   1.489   3.678 -0.2671  0.5109  1.7018
 3025SOL    MW411874   1.072   1.412   3.710 -0.3966 -0.3440 -0.2875
 3026SOL     OW11875   1.447   1.452   2.695  0.4193 -0.7055  0.1940
 3026SOL    HW211876   1.372   1.506   2.669  1.8062  1.0732 -0.3328
 3026SOL    HW311877   1.414   1.397   2.766 -2.0205 -1.7417 -1.5912
 3026SOL    MW411878   1.432   1.452   2.701  0.2804 -0.6076 -0.1111
 3027SOL     OW11879   3.258   2.660   4.692 -0.2268  0.0146  0.4356
 3027SOL    HW211880   3.215   2.740   4.723  0.0823 -0.1195  1.2352
 3027SOL    HW311881   3.302   2.626   4.769 -2.5776 -2.3959  0.8710
 3027SOL    MW411882   3.258   2.666   4.706 -0.4962 -0.3211  0.5986
 3028SOL     OW11883   3.566   1.680   1.130 -0.8052  0.4128  0.0882
 3028SOL    HW211884   3.505   1.725   1.188  1.1379  0.6786  2.1021
 3028SOL    HW311885   3.639   1.654   1.188 -0.4266 -2.6611 -1.5350
 3028SOL    MW411886   3.568   1.682   1.145 -0.4989  0.0423  0.1397
 3029SOL     OW11887   4.103   6.099   2.105  0.2065 -0.7486  0.3427
 3029SOL    HW211888   4.156   6.162   2.056 -0.2492 -0.3983  0.3010
 3029SOL    HW311889   4.061   6.046   2.038 -1.9717  0.9629  0.2240
 3029SOL    MW411890   4.105   6.101   2.090 -0.1410 -0.4766  0.3215
 3030SOL     OW11891   5.004   5.849   2.439 -0.2657  0.1319  0.3252
 3030SOL    HW211892   4.981   5.922   2.382  1.8837  1.1854  0.7084
 3030SOL    HW311893   5.007   5.887   2.527 -0.5146 -0.7671  0.7382
 3030SOL    MW411894   5.001   5.863   2.443 -0.0149  0.1522  0.4303
 3031SOL     OW11895   5.460   1.557   0.492 -0.1808  0.5742  0.0194
 3031SOL    HW211896   5.516   1.634   0.505 -0.1665  0.4169  0.9286
 3031SOL    HW311897   5.441   1.558   0.398  0.2898  1.3615 -0.0830
 3031SOL    MW411898   5.465   1.567   0.482 -0.1168  0.6573  0.1259
 3032SOL     OW11899   2.282   6.226   2.131  0.1336  0.0740  0.0685
 3032SOL    HW211900   2.312   6.198   2.217 -1.3241 -0.2912  0.4913
 3032SOL    HW311901   2.298   6.151   2.074 -1.7718 -0.9142  0.7355
 3032SOL    MW411902   2.288   6.212   2.135 -0.3102 -0.1045  0.2123
 3033SOL     OW11903   2.497   0.592   1.312  0.5711  0.4578  0.3220
 3033SOL    HW211904   2.404   0.584   1.333  1.1426 -1.3015  2.5646
 3033SOL    HW311905   2.532   0.651   1.378  1.1571  0.6845 -0.1810
 3033SOL    MW411906   2.489   0.599   1.323  0.7238  0.2556  0.5515
 3034SOL     OW11907   4.313   1.206   2.360 -0.0511  0.2087  0.0433
 3034SOL    HW211908   4.335   1.296   2.337 -0.1553 -0.0641 -1.2165
 3034SOL    HW311909   4.292   1.209   2.454 -0.5662  1.5864 -0.0931
 3034SOL    MW411910   4.313   1.218   2.369 -0.1328  0.3545 -0.1409
 3035SOL     OW11911   2.245   4.681   0.147  0.2838 -0.6435  0.4115
 3035SOL    HW211912   2.264   4.725   0.229  0.4188  1.5404 -0.7158
 3035SOL    HW311913   2.151   4.694   0.134  0.4210 -0.2090 -0.1895
 3035SOL    MW411914   2.235   4.688   0.156  0.3197 -0.2981  0.1835
 3036SOL     OW11915   2.759   4.469   0.219  0.4736 -0.4413  0.1118
 3036SOL    HW211916   2.689   4.496   0.159  0.5075 -0.8986 -0.1416
 3036SOL    HW311917   2.770   4.543   0.278 -0.9949 -0.7961  0.8768
 3036SOL    MW411918   2.751   4.483   0.219  0.2843 -0.5484  0.1793
 3037SOL     OW11919   1.575   5.207   2.001  0.1504 -0.1541 -0.5201
 3037SOL    HW211920   1.615   5.126   1.968 -0.8743 -0.9492  0.1469
 3037SOL    HW311921   1.485   5.205   1.968 -0.2792  0.0515  0.5914
 3037SOL    MW411922   1.568   5.196   1.992 -0.0415 -0.2319 -0.2854
 3038SOL     OW11923   0.327   5.451   0.866 -0.2229  0.2473 -0.0569
 3038SOL    HW211924   0.271   5.390   0.914 -0.9894  1.8375  1.1744
 3038SOL    HW311925   0.408   5.402   0.850 -1.3508 -1.5709 -0.4798
 3038SOL    MW411926   0.330   5.436   0.870 -0.4728  0.2172  0.0498
 3039SOL     OW11927   3.169   5.222   3.924  0.7109 -0.0655 -0.7997
 3039SOL    HW211928   3.093   5.171   3.952  2.3019 -1.0209  2.3658
 3039SOL    HW311929   3.162   5.304   3.974  2.9658 -1.2463  1.6860
 3039SOL    MW411930   3.158   5.226   3.935  1.2183 -0.3474 -0.0541
 3040SOL     OW11931   6.134   0.403   2.835  0.2586  0.3086  1.2100
 3040SOL    HW211932   6.043   0.386   2.810  0.5698 -0.7594  0.6944
 3040SOL    HW311933   6.176   0.317   2.830  1.9040  1.1255 -1.1812
 3040SOL    MW411934   6.128   0.389   2.831  0.5168  0.2754  0.8265
 3041SOL     OW11935   1.472   4.533   5.552  0.2217  0.3456 -0.0679
 3041SOL    HW211936   1.558   4.499   5.579  0.6559  1.6017  0.2508
 3041SOL    HW311937   1.478   4.627   5.570 -0.9940  0.5555 -0.6755
 3041SOL    MW411938   1.484   4.541   5.558  0.1186  0.5390 -0.1060
 3042SOL     OW11939   2.069   0.411   2.364  0.1808 -0.2011  0.2596
 3042SOL    HW211940   2.061   0.481   2.299  1.0782 -1.1709 -0.9485
 3042SOL    HW311941   2.119   0.343   2.319  1.4645 -0.6251  2.2295
 3042SOL    MW411942   2.074   0.411   2.349  0.4686 -0.3850  0.3601
 3043SOL     OW11943   4.318   0.760   5.808 -0.2282  0.7478  0.0191
 3043SOL    HW211944   4.300   0.842   5.763 -1.4285  0.1595 -0.6381
 3043SOL    HW311945   4.256   0.698   5.770 -0.4104 -0.0890  1.5859
 3043SOL    MW411946   4.307   0.763   5.797 -0.4106  0.5598  0.1391
 3044SOL     OW11947   4.489   3.198   4.168 -0.1504  0.4763 -0.5163
 3044SOL    HW211948   4.419   3.132   4.164  1.1826 -1.1200  0.6476
 3044SOL    HW311949   4.455   3.265   4.228 -0.7195 -0.2385 -0.0188
 3044SOL    MW411950   4.475   3.198   4.176 -0.0496  0.1714 -0.2971
 3045SOL     OW11951   6.190   0.880   3.552 -0.2396  0.0959 -0.1475
 3045SOL    HW211952   6.284   0.866   3.539 -0.3172 -1.5888  0.8527
 3045SOL    HW311953   6.162   0.929   3.474  1.6112  1.4946 -0.0122
 3045SOL    MW411954   6.199   0.885   3.540 -0.0056  0.0582  0.0023
 3046SOL     OW11955   2.810   5.838   3.286  0.1660 -0.3309 -0.0736
 3046SOL    HW211956   2.812   5.770   3.354 -0.5631 -1.4330 -1.1032
 3046SOL    HW311957   2.888   5.823   3.234  1.1182  0.9834  0.9193
 3046SOL    MW411958   2.820   5.827   3.288  0.1954 -0.3029 -0.0784
 3047SOL     OW11959   3.618   5.918   5.134  0.3626  0.4104 -0.3722
 3047SOL    HW211960   3.659   6.004   5.141 -0.0214  0.7286 -1.6957
 3047SOL    HW311961   3.652   5.869   5.209  1.6306  1.2771 -0.3426
 3047SOL    MW411962   3.628   5.923   5.145  0.4792  0.5667 -0.5429
 3048SOL     OW11963   4.244   0.500   3.743  0.2679 -0.0991 -0.1276
 3048SOL    HW211964   4.284   0.587   3.744  0.0591  0.0201 -1.0299
 3048SOL    HW311965   4.171   0.508   3.681  1.2435 -1.3348 -1.5258
 3048SOL    MW411966   4.240   0.513   3.735  0.3691 -0.2464 -0.4311
 3049SOL     OW11967   3.810   0.672   3.818  0.4827 -0.2292 -0.0916
 3049SOL    HW211968   3.839   0.743   3.876 -1.0111 -0.7351  1.3526
 3049SOL    HW311969   3.784   0.716   3.738 -1.4437  1.0595  1.1592
 3049SOL    MW411970   3.810   0.687   3.815  0.0314 -0.1259  0.2640
 3050SOL     OW11971   4.163   2.661   1.436  0.4166  0.2405  0.0810
 3050SOL    HW211972   4.133   2.707   1.357  0.2244 -1.1544 -0.7113
 3050SOL    HW311973   4.154   2.725   1.506 -3.1951  0.4082 -0.3186
 3050SOL    MW411974   4.158   2.675   1.435 -0.0853  0.0786 -0.0763
 3051SOL     OW11975   0.483   3.366   2.512  0.1889  0.1071  0.3197
 3051SOL    HW211976   0.576   3.345   2.503 -0.0365 -2.1756  2.3165
 3051SOL    HW311977   0.473   3.395   2.603 -0.9844  0.8696 -0.0240
 3051SOL    MW411978   0.494   3.367   2.523  0.0043 -0.0935  0.5378
 3052SOL     OW11979   5.138   4.288   1.254 -0.2231 -0.2856  0.5096
 3052SOL    HW211980   5.075   4.343   1.301 -1.9092  1.2836 -3.1224
 3052SOL    HW311981   5.211   4.347   1.235  0.9545 -1.2117  1.9855
 3052SOL    MW411982   5.139   4.303   1.257 -0.2902 -0.2007  0.2251
 3053SOL     OW11983   4.997   1.751   5.533  0.9795 -0.1964  0.2696
 3053SOL    HW211984   5.034   1.808   5.600  2.4683  1.1668 -1.5879
 3053SOL    HW311985   5.031   1.664   5.554  0.0490 -0.1446  2.1815
 3053SOL    MW411986   5.007   1.747   5.545  1.0532 -0.0097  0.2768
 3054SOL     OW11987   5.296   3.388   2.536  0.5998  0.4038 -0.2602
 3054SOL    HW211988   5.209   3.366   2.503  0.9111  0.4020 -1.0928
 3054SOL    HW311989   5.352   3.316   2.508  0.5900 -0.3691  1.5965
 3054SOL    MW411990   5.292   3.376   2.528  0.6396  0.3016 -0.1251
 3055SOL     OW11991   1.323   0.502   1.325  0.0152 -0.4665 -0.1902
 3055SOL    HW211992   1.389   0.436   1.348 -0.2630 -0.7208 -0.1046
 3055SOL    HW311993   1.240   0.454   1.328 -0.2170 -0.0528  0.1132
 3055SOL    MW411994   1.320   0.487   1.328 -0.0522 -0.4455 -0.1389
 3056SOL     OW11995   4.240   5.479   0.190 -0.0008  0.1984 -0.1312
 3056SOL    HW211996   4.226   5.570   0.166  1.0553  0.4625  0.2251
 3056SOL    HW311997   4.253   5.434   0.106  3.1625  1.0319 -0.1971
 3056SOL    MW411998   4.240   5.485   0.176  0.5559  0.3432 -0.0929
 3057SOL     OW11999   4.769   0.625   4.311 -0.3193 -0.2276  0.0845
 3057SOL    HW212000   4.819   0.552   4.348 -0.1026  0.7431  1.8117
 3057SOL    HW312001   4.679   0.609   4.339  0.0008  1.0301  2.0134
 3057SOL    MW412002   4.764   0.613   4.319 -0.2484  0.0664  0.5668
 3058SOL     OW12003   4.587   0.610   5.722 -0.6326 -0.5152 -0.0781
 3058SOL    HW212004   4.639   0.633   5.799 -0.5482 -0.6807 -0.0849
 3058SOL    HW312005   4.498   0.635   5.744 -0.5518 -0.2416 -0.0614
 3058SOL    MW412006   4.582   0.616   5.735 -0.6108 -0.5010 -0.0768
 3059SOL     OW12007   0.134   3.149   4.036 -0.1640 -0.1297  0.1623
 3059SOL    HW212008   0.113   3.094   3.961  0.8308 -1.3012  0.7214
 3059SOL    HW312009   0.229   3.160   4.033 -0.1496  0.0919  1.0672
 3059SOL    MW412010   0.144   3.143   4.026 -0.0309 -0.2550  0.3554
 3060SOL     OW12011   6.402   1.955   5.738  0.1302  0.1712  0.3768
 3060SOL    HW212012   6.350   1.951   5.818 -0.6033  0.2877 -0.0812
 3060SOL    HW312013   6.450   2.038   5.744 -1.7730  1.4169 -0.3852
 3060SOL    MW412014   6.402   1.966   5.749 -0.2177  0.3510  0.2158
 3061SOL     OW12015   2.000   0.099   2.089 -0.2135  0.8248  0.6305
 3061SOL    HW212016   1.997   0.108   1.993  0.1291 -0.8427  0.4277
 3061SOL    HW312017   1.943   0.169   2.121  0.1575  1.8159 -0.7514
 3061SOL    MW412018   1.992   0.110   2.080 -0.1194  0.7356  0.4214
 3062SOL     OW12019   3.949   4.002   4.313  0.5290  0.6366 -0.6254
 3062SOL    HW212020   4.042   3.983   4.309  0.6133  1.0444 -4.6705
 3062SOL    HW312021   3.907   3.917   4.301  0.0899  0.0421  3.4712
 3062SOL    MW412022   3.955   3.988   4.311  0.4822  0.6120 -0.6186
 3063SOL     OW12023   1.603   2.713   0.456 -0.3371 -0.1828 -0.3271
 3063SOL    HW212024   1.665   2.771   0.412 -0.9314 -1.0513 -2.4189
 3063SOL    HW312025   1.635   2.708   0.547  4.5506 -2.9283 -1.8281
 3063SOL    MW412026   1.616   2.720   0.462  0.2293 -0.6597 -0.8011
 3064SOL     OW12027   0.642   2.668   3.610  0.1582 -0.0852 -0.7345
 3064SOL    HW212028   0.687   2.584   3.618  0.9043 -0.0325 -3.4129
 3064SOL    HW312029   0.552   2.644   3.588 -0.0084 -0.1711  0.0174
 3064SOL    MW412030   0.636   2.653   3.608  0.2347 -0.0896 -0.9887
 3065SOL     OW12031   4.424   5.260   4.723 -0.6789  0.9378  0.2590
 3065SOL    HW212032   4.519   5.248   4.720 -0.9179 -2.4350  1.6241
 3065SOL    HW312033   4.394   5.244   4.634 -0.0595  0.9157  0.0518
 3065SOL    MW412034   4.433   5.257   4.711 -0.6287  0.4899  0.4118
 3066SOL     OW12035   6.418   4.107   4.077  0.4977 -0.1041  0.9876
 3066SOL    HW212036   6.467   4.187   4.095 -0.1698  0.7917 -0.9604
 3066SOL    HW312037   6.327   4.131   4.091  0.0293  0.3401 -2.1452
 3066SOL    MW412038   6.413   4.121   4.081  0.3478  0.0727  0.3173
 3067SOL     OW12039   0.311   0.381   4.264 -0.0349 -0.4730  0.5649
 3067SOL    HW212040   0.222   0.416   4.260  0.9813  2.1455 -1.3329
 3067SOL    HW312041   0.298   0.286   4.268 -2.9312 -0.3284 -1.7538
 3067SOL    MW412042   0.297   0.373   4.264 -0.2830 -0.1085  0.0086
 3068SOL     OW12043   6.142   4.196   4.104 -0.0143  0.5457  0.5005
 3068SOL    HW212044   6.123   4.288   4.084 -0.1242  0.5645  0.6815
 3068SOL    HW312045   6.087   4.146   4.044  1.9246  0.5576 -1.4132
 3068SOL    MW412046   6.132   4.202   4.094  0.2270  0.5497  0.2719
 3069SOL     OW12047   5.074   4.427   4.232 -0.0647 -0.0020  0.1244
 3069SOL    HW212048   4.989   4.385   4.241 -0.6817  1.2500  0.4526
 3069SOL    HW312049   5.096   4.456   4.321  0.1342  0.7015 -0.1410
 3069SOL    MW412050   5.065   4.426   4.245 -0.1198  0.2560  0.1327
 3070SOL     OW12051   5.405   5.984   5.239  0.1305 -0.3215 -0.0253
 3070SOL    HW212052   5.345   5.951   5.305  0.3164  1.0403  0.8638
 3070SOL    HW312053   5.492   5.978   5.279  0.5323 -1.5035 -0.9915
 3070SOL    MW412054   5.409   5.979   5.253  0.2081 -0.2978 -0.0354
 3071SOL     OW12055   5.316   2.796   6.141 -0.1492 -0.1157 -0.3364
 3071SOL    HW212056   5.354   2.716   6.179 -0.4740 -1.0509 -1.8996
 3071SOL    HW312057   5.262   2.764   6.069  0.1334  1.5657 -1.3320
 3071SOL    MW412058   5.314   2.781   6.137 -0.1548 -0.0172 -0.6740
 3072SOL     OW12059   2.461   5.826   6.044  0.3298  0.4205  0.0531
 3072SOL    HW212060   2.386   5.823   5.985 -0.6358  0.8402  1.2151
 3072SOL    HW312061   2.532   5.786   5.994 -1.0775 -1.5620 -0.4907
 3072SOL    MW412062   2.460   5.820   6.030  0.0167  0.2143  0.1347
 3073SOL     OW12063   5.600   5.618   0.598 -0.0339  0.5332 -0.2658
 3073SOL    HW212064   5.689   5.590   0.618 -0.6899 -2.0096 -0.5997
 3073SOL    HW312065   5.608   5.711   0.577  2.4850  0.4104 -0.0999
 3073SOL    MW412066   5.613   5.627   0.598  0.2119  0.1815 -0.2880
 3074SOL     OW12067   3.208   3.096   4.750 -0.2744  0.0874  0.1698
 3074SOL    HW212068   3.146   3.146   4.697  0.1507  2.4335  1.7348
 3074SOL    HW312069   3.156   3.024   4.785 -1.4439  0.5223 -0.5945
 3074SOL    MW412070   3.193   3.093   4.748 -0.3726  0.4543  0.2754
 3075SOL     OW12071   6.286   5.047   4.614  0.0278  0.2663 -0.5262
 3075SOL    HW212072   6.270   5.136   4.581  0.9264  0.9206  0.7105
 3075SOL    HW312073   6.373   5.024   4.582  0.0839  0.1184 -0.2750
 3075SOL    MW412074   6.295   5.056   4.606  0.1538  0.3331 -0.3299
 3076SOL     OW12075   4.290   3.046   3.118 -0.1205  0.5148  0.1345
 3076SOL    HW212076   4.196   3.046   3.134 -0.2357  0.2727 -0.5156
 3076SOL    HW312077   4.303   2.983   3.048  0.1934  2.3732 -1.5781
 3076SOL    MW412078   4.280   3.038   3.111 -0.0943  0.7281 -0.1773
 3077SOL     OW12079   0.158   3.605   4.326  0.2369  0.1312 -0.2827
 3077SOL    HW212080   0.236   3.660   4.313 -0.2708  0.4234 -2.4048
 3077SOL    HW312081   0.194   3.519   4.348  1.0820  0.7796  1.0378
 3077SOL    MW412082   0.173   3.601   4.328  0.2814  0.2553 -0.3884
 3078SOL     OW12083   2.719   4.106   5.871 -0.1141  0.7323  0.4475
 3078SOL    HW212084   2.723   4.171   5.801  2.0911 -0.9534 -1.1472
 3078SOL    HW312085   2.793   4.128   5.928 -0.1451  0.3931  0.6200
 3078SOL    MW412086   2.730   4.118   5.869  0.1727  0.4651  0.2598
 3079SOL     OW12087   5.712   2.619   0.985  0.5850  0.3168  0.4139
 3079SOL    HW212088   5.619   2.633   1.004  0.4686 -2.4122  2.5351
 3079SOL    HW312089   5.754   2.625   1.070  2.0548 -0.3594 -0.2351
 3079SOL    MW412090   5.705   2.621   0.999  0.7636 -0.1325  0.6082
 3080SOL     OW12091   1.893   3.116   5.930  0.2667  0.3305 -0.2720
 3080SOL    HW212092   1.850   3.149   5.850  0.2645  1.0937  0.0351
 3080SOL    HW312093   1.898   3.192   5.987 -0.6972 -0.4396  0.8969
 3080SOL    MW412094   1.888   3.130   5.927  0.1393  0.3296 -0.0773
 3081SOL     OW12095   0.403   5.923   3.984  0.0248 -0.5802 -0.0865
 3081SOL    HW212096   0.314   5.930   4.016  0.4556 -0.6198  1.1667
 3081SOL    HW312097   0.411   5.832   3.955  0.0426 -0.9642  1.0601
 3081SOL    MW412098   0.393   5.912   3.984  0.0840 -0.6361  0.2301
 3082SOL     OW12099   4.473   1.958   5.765  0.0141 -0.1773 -0.6334
 3082SOL    HW212100   4.521   2.017   5.707 -0.3848 -0.1869 -0.9754
 3082SOL    HW312101   4.391   2.004   5.783  0.2446 -0.0538  0.1411
 3082SOL    MW412102   4.468   1.972   5.760 -0.0081 -0.1623 -0.5764
 3083SOL     OW12103   3.082   0.393   3.330 -0.0400  0.5863  0.2235
 3083SOL    HW212104   3.154   0.366   3.273 -0.9246  2.2687 -1.8268
 3083SOL    HW312105   3.125   0.428   3.409  1.4233  1.5596 -0.9522
 3083SOL    MW412106   3.097   0.394   3.333  0.0364  0.9367 -0.2021
 3084SOL     OW12107   4.119   5.512   3.637 -0.2977  0.6968 -0.1590
 3084SOL    HW212108   4.202   5.534   3.594 -0.7198  0.2053 -1.2676
 3084SOL    HW312109   4.140   5.437   3.693 -0.0436  0.4050 -0.6407
 3084SOL    MW412110   4.133   5.505   3.639 -0.3198  0.5935 -0.3688
 3085SOL     OW12111   0.756   3.570   0.228 -0.3633  0.1060  0.1898
 3085SOL    HW212112   0.708   3.547   0.149  1.9666 -1.8578 -0.7667
 3085SOL    HW312113   0.848   3.568   0.202  0.3964  1.4678  2.4779
 3085SOL    MW412114   0.761   3.567   0.214  0.0443  0.0266  0.3655
 3086SOL     OW12115   0.834   3.663   3.289  0.1158 -0.5448  0.0689
 3086SOL    HW212116   0.794   3.601   3.229  0.0897  1.0162 -1.6185
 3086SOL    HW312117   0.924   3.631   3.300  0.0142 -1.0563 -0.5170
 3086SOL    MW412118   0.841   3.651   3.283  0.0989 -0.4063 -0.2311
 3087SOL     OW12119   5.986   0.272   6.027 -0.1821 -0.3673  0.0034
 3087SOL    HW212120   5.973   0.177   6.034 -0.6208 -0.3777 -0.8288
 3087SOL    HW312121   5.943   0.307   6.105 -0.9945 -0.7803 -0.2409
 3087SOL    MW412122   5.978   0.264   6.038 -0.3472 -0.4232 -0.1386
 3088SOL     OW12123   5.890   5.188   2.526 -0.2462 -0.2062 -0.4825
 3088SOL    HW212124   5.858   5.115   2.473  0.8621  0.8815 -2.8136
 3088SOL    HW312125   5.967   5.153   2.571 -0.7579 -0.9372 -0.1546
 3088SOL    MW412126   5.896   5.174   2.525 -0.1675 -0.1591 -0.7468
 3089SOL     OW12127   2.372   0.434   5.340 -0.4885 -0.3709 -0.2158
 3089SOL    HW212128   2.298   0.447   5.281  0.6774 -1.9887 -2.1356
 3089SOL    HW312129   2.441   0.491   5.305  0.2981 -1.5285 -0.5857
 3089SOL    MW412130   2.371   0.443   5.328 -0.2309 -0.7371 -0.5179
 3090SOL     OW12131   0.934   4.831   2.198 -0.2954  0.5264 -0.1249
 3090SOL    HW212132   0.878   4.898   2.159  0.0119  0.7623 -0.1533
 3090SOL    HW312133   1.020   4.871   2.206 -0.0200  0.0214 -0.4696
 3090SOL    MW412134   0.938   4.845   2.194 -0.2185  0.4909 -0.1741
 3091SOL     OW12135   2.729   4.533   2.073  0.2179  0.5972  0.0817
 3091SOL    HW212136   2.706   4.619   2.106 -1.3643  0.1082  0.3055
 3091SOL    HW312137   2.665   4.515   2.004  1.7552  0.4237 -1.3752
 3091SOL    MW412138   2.718   4.542   2.068  0.2120  0.5098 -0.0810
 3092SOL     OW12139   4.372   1.484   2.392  0.4656  0.7682 -0.5465
 3092SOL    HW212140   4.292   1.502   2.343 -0.0999  1.3161  0.5361
 3092SOL    HW312141   4.439   1.538   2.351  0.9662 -1.5410 -3.1058
 3092SOL    MW412142   4.370   1.493   2.380  0.4571  0.5358 -0.7413
 3093SOL     OW12143   4.631   5.426   1.650 -0.3279 -0.1918 -0.0691
 3093SOL    HW212144   4.632   5.345   1.599  0.1156  0.3455 -0.9435
 3093SOL    HW312145   4.669   5.401   1.734  1.8831 -0.4650 -1.0614
 3093SOL    MW412146   4.636   5.412   1.654  0.0223 -0.1569 -0.3154
 3094SOL     OW12147   3.088   6.342   0.018  0.5989  0.0750 -0.0126
 3094SOL    HW212148   3.064   6.267  -0.036  0.2403  0.4531 -0.3899
 3094SOL    HW312149   3.183   6.349   0.007  0.6020 -0.1743 -0.1708
 3094SOL    MW412150   3.097   6.333   0.009  0.5520  0.0920 -0.0832
 3095SOL     OW12151   5.897   2.399   0.828  0.2241  0.8186  0.0008
 3095SOL    HW212152   5.975   2.370   0.875 -1.3013  0.4708  2.5068
 3095SOL    HW312153   5.858   2.465   0.885 -0.2587  2.5045 -2.1776
 3095SOL    MW412154   5.902   2.404   0.842 -0.0409  0.9952  0.0440
 3096SOL     OW12155   1.269   5.144   2.036  0.4720  0.7353  0.2955
 3096SOL    HW212156   1.292   5.086   1.964 -0.0500 -1.3387  1.7247
 3096SOL    HW312157   1.177   5.167   2.019  0.8840  1.8128 -0.6559
 3096SOL    MW412158   1.260   5.140   2.024  0.4575  0.6039  0.3585
 3097SOL     OW12159   1.510   3.074   0.008  0.2490 -0.3765 -0.6916
 3097SOL    HW212160   1.422   3.104   0.032  0.6647  1.7314 -1.5238
 3097SOL    HW312161   1.504   3.055  -0.086  0.9104  0.8773 -1.0114
 3097SOL    MW412162   1.498   3.075  -0.001  0.3911  0.0671 -0.8436
 3098SOL     OW12163   2.804   2.490   2.092  0.5020 -0.3325 -0.3627
 3098SOL    HW212164   2.710   2.491   2.075  0.4630  0.3050 -0.1273
 3098SOL    HW312165   2.825   2.397   2.102 -0.2080 -0.4502  0.1599
 3098SOL    MW412166   2.794   2.478   2.092  0.4032 -0.2639 -0.2627
 3099SOL     OW12167   6.286   5.017   3.921  0.4939 -0.3017  0.0402
 3099SOL    HW212168   6.362   4.994   3.868  0.6578  0.1694  0.0658
 3099SOL    HW312169   6.211   4.995   3.866  0.6139  3.1786 -1.8129
 3099SOL    MW412170   6.286   5.011   3.907  0.5314  0.2197 -0.2009
 3100SOL     OW12171   2.482   1.135   4.671  0.1337  0.0340 -0.3259
 3100SOL    HW212172   2.534   1.070   4.718  1.8984  0.8805 -1.0513
 3100SOL    HW312173   2.418   1.166   4.736  2.5942  1.2774  1.6777
 3100SOL    MW412174   2.480   1.131   4.686  0.6912  0.3098 -0.1572
 3101SOL     OW12175   2.447   2.878   4.388  0.2204  0.0345  0.0876
 3101SOL    HW212176   2.358   2.849   4.408  0.7111 -1.6141  0.0264
 3101SOL    HW312177   2.447   2.972   4.410 -1.4608  0.0287  0.2511
 3101SOL    MW412178   2.435   2.887   4.394  0.0633 -0.1838  0.1011
 3102SOL     OW12179   2.805   4.462   2.641  0.0811 -0.1055 -0.0522
 3102SOL    HW212180   2.815   4.498   2.729  0.5593 -4.0126  1.7016
 3102SOL    HW312181   2.725   4.410   2.645  0.3471 -0.7264 -1.8177
 3102SOL    MW412182   2.795   4.460   2.653  0.1793 -0.7029 -0.0538
 3103SOL     OW12183   4.818   3.299   3.620 -0.0509 -0.7050  0.2610
 3103SOL    HW212184   4.912   3.318   3.614 -0.4101  0.8144 -1.4613
 3103SOL    HW312185   4.790   3.340   3.702  0.5515 -0.0332  0.1360
 3103SOL    MW412186   4.827   3.307   3.630 -0.0188 -0.4159  0.0173
 3104SOL     OW12187   2.659   3.247   2.175  0.3772 -0.2064 -0.3736
 3104SOL    HW212188   2.657   3.313   2.106  0.2934 -1.0792 -1.2213
 3104SOL    HW312189   2.751   3.226   2.186  0.5545  1.0280  0.8858
 3104SOL    MW412190   2.671   3.253   2.168  0.3895 -0.1587 -0.3193
 3105SOL     OW12191   0.396   2.809   4.055 -0.3413 -0.7241  0.0982
 3105SOL    HW212192   0.322   2.800   4.115  0.5808  0.2321  1.4322
 3105SOL    HW312193   0.468   2.762   4.098  0.4206  0.2408 -0.0938
 3105SOL    MW412194   0.395   2.801   4.068 -0.1191 -0.4707  0.2489
 3106SOL     OW12195   1.088   2.527   4.786 -0.1367 -0.5800  0.0204
 3106SOL    HW212196   1.127   2.597   4.838  1.4781 -2.4526  1.5009
 3106SOL    HW312197   1.009   2.502   4.833  0.8121 -1.6141  1.1627
 3106SOL    MW412198   1.083   2.533   4.799  0.2016 -0.9635  0.3664
 3107SOL     OW12199   0.559   5.710   4.394 -0.1380  0.5979 -0.3679
 3107SOL    HW212200   0.556   5.669   4.308  1.8424  1.2895 -0.8220
 3107SOL    HW312201   0.559   5.637   4.456  0.8225 -0.0218 -1.0717
 3107SOL    MW412202   0.559   5.695   4.391  0.2500  0.6074 -0.5207
 3108SOL     OW12203   1.452   3.313   5.306  0.3874 -0.5547 -0.4019
 3108SOL    HW212204   1.361   3.328   5.333  1.3515  2.3465  1.7444
 3108SOL    HW312205   1.444   3.274   5.219 -2.9778  1.6856 -1.3307
 3108SOL    MW412206   1.439   3.310   5.298  0.0706  0.1236 -0.2413
 3109SOL     OW12207   3.605   0.215   4.246  0.0442  0.3219  0.5178
 3109SOL    HW212208   3.594   0.245   4.336 -0.1838  0.8227  0.3260
 3109SOL    HW312209   3.689   0.253   4.217 -0.3613  0.9970  0.1945
 3109SOL    MW412210   3.615   0.224   4.254 -0.0394  0.4770  0.4498
 3110SOL     OW12211   3.943   4.389   4.832  0.5059  0.0561 -0.3485
 3110SOL    HW212212   4.002   4.408   4.759  0.2765  1.4444 -0.2079
 3110SOL    HW312213   3.986   4.429   4.908 -0.1364  0.2216 -0.0666
 3110SOL    MW412214   3.956   4.397   4.832  0.3909  0.2611 -0.2927
 3111SOL     OW12215   2.628   2.621   5.650 -0.2257 -0.4983 -0.1311
 3111SOL    HW212216   2.597   2.678   5.579  1.6984  3.8518  2.1478
 3111SOL    HW312217   2.723   2.626   5.645 -0.0096  0.3708  2.9091
 3111SOL    MW412218   2.637   2.629   5.640  0.0567  0.1903  0.5707
 3112SOL     OW12219   0.220   3.170   5.983  0.3371 -0.5083 -0.1376
 3112SOL    HW212220   0.211   3.265   5.982  1.7321 -0.3583 -1.0338
 3112SOL    HW312221   0.214   3.146   6.075  0.5196  0.5016  0.1473
 3112SOL    MW412222   0.218   3.179   5.995  0.5453 -0.3552 -0.2182
 3113SOL     OW12223   6.278   2.375   2.490 -0.4474 -0.0951 -0.5449
 3113SOL    HW212224   6.257   2.457   2.535  2.0836 -0.2388  1.0802
 3113SOL    HW312225   6.247   2.389   2.400  0.6964  3.0282 -0.5839
 3113SOL    MW412226   6.271   2.388   2.484  0.0375  0.2980 -0.3356
 3114SOL     OW12227   5.465   5.102   1.981 -0.5025 -0.0330 -0.4944
 3114SOL    HW212228   5.464   5.018   2.026  2.8540  0.6547  1.1532
 3114SOL    HW312229   5.380   5.142   2.003 -0.5856 -1.3759  2.0295
 3114SOL    MW412230   5.454   5.096   1.990 -0.0706 -0.1194  0.0559
 3115SOL     OW12231   4.461   3.189   1.701  0.0972 -0.5701 -0.3970
 3115SOL    HW212232   4.491   3.131   1.771 -0.7169 -0.7895 -0.2246
 3115SOL    HW312233   4.366   3.175   1.697 -0.0622  0.5230 -0.5608
 3115SOL    MW412234   4.452   3.179   1.710 -0.0312 -0.4548 -0.3959
 3116SOL     OW12235   4.601   2.559   1.697  0.0403  0.2908 -0.0240
 3116SOL    HW212236   4.552   2.641   1.703  1.3302  1.0844  0.0074
 3116SOL    HW312237   4.639   2.548   1.784  0.0692 -0.2191 -0.0986
 3116SOL    MW412238   4.600   2.568   1.709  0.2143  0.3282 -0.0297
 3117SOL     OW12239   5.410   0.786   6.409 -0.6937  0.0275  0.0880
 3117SOL    HW212240   5.489   0.783   6.462 -0.5820  2.1951  0.1220
 3117SOL    HW312241   5.441   0.781   6.318 -0.7547 -1.7491  0.1223
 3117SOL    MW412242   5.424   0.785   6.404 -0.6870  0.0791  0.0970
 3118SOL     OW12243   2.135   1.044   2.619  0.4186 -0.3998 -0.3025
 3118SOL    HW212244   2.124   1.135   2.591  0.5488 -0.2380  0.1525
 3118SOL    HW312245   2.186   1.050   2.700  1.2529 -0.9356 -0.7727
 3118SOL    MW412246   2.140   1.057   2.626  0.5458 -0.4492 -0.3045
 3119SOL     OW12247   1.442   5.028   2.354  0.0773  0.6905 -0.0769
 3119SOL    HW212248   1.495   5.068   2.285 -1.4168 -0.7328 -2.1552
 3119SOL    HW312249   1.424   5.100   2.415  1.2385  2.0605 -1.2757
 3119SOL    MW412250   1.447   5.043   2.353  0.0333  0.6835 -0.5093
 3120SOL     OW12251   3.070   2.747   4.368  0.9602 -0.8101 -0.2501
 3120SOL    HW212252   2.996   2.790   4.411  0.9197  0.0469 -1.1199
 3120SOL    HW312253   3.095   2.676   4.427  0.6557  0.0583  0.9663
 3120SOL    MW412254   3.063   2.743   4.381  0.9146 -0.5824 -0.2044
 3121SOL     OW12255   3.471   1.639   0.157  0.0442  0.3445  0.2062
 3121SOL    HW212256   3.466   1.734   0.168 -3.0512  0.1738  1.0570
 3121SOL    HW312257   3.423   1.603   0.232 -1.9378 -1.7255 -1.8696
 3121SOL    MW412258   3.464   1.647   0.169 -0.6257  0.0488  0.0445
 3122SOL     OW12259   5.324   0.665   4.524 -0.0254  0.3813 -0.1946
 3122SOL    HW212260   5.352   0.621   4.603 -0.4560 -0.9474 -0.7603
 3122SOL    HW312261   5.290   0.750   4.554 -2.0024 -0.8464  1.3095
 3122SOL    MW412262   5.323   0.671   4.538 -0.3430  0.0440 -0.0708
 3123SOL     OW12263   3.303   2.144   1.334 -0.0331 -0.3005 -0.3449
 3123SOL    HW212264   3.222   2.105   1.302 -0.0862 -0.0820 -0.4816
 3123SOL    HW312265   3.325   2.210   1.269 -0.1316  0.1319  0.0515
 3123SOL    MW412266   3.295   2.148   1.321 -0.0531 -0.2146 -0.3107
 3124SOL     OW12267   3.235   3.934   4.246 -0.5036  0.2380  0.1573
 3124SOL    HW212268   3.176   4.000   4.282 -1.4057  0.1405 -1.0730
 3124SOL    HW312269   3.205   3.922   4.156  1.4003  0.1551 -0.4992
 3124SOL    MW412270   3.223   3.941   4.239 -0.3715  0.2142 -0.0916
 3125SOL     OW12271   1.711   0.325   4.202  0.4204  0.6236 -0.2613
 3125SOL    HW212272   1.660   0.295   4.126 -1.9625  1.2523  0.9810
 3125SOL    HW312273   1.724   0.418   4.186 -0.7993  0.9326  0.4351
 3125SOL    MW412274   1.706   0.333   4.190 -0.0549  0.7473 -0.0055
 3126SOL     OW12275   1.169   3.773   5.159 -0.0552  0.4340  0.2536
 3126SOL    HW212276   1.205   3.707   5.099 -0.0744 -1.0713  1.8023
 3126SOL    HW312277   1.079   3.744   5.174  0.2098  0.2652  1.6583
 3126SOL    MW412278   1.162   3.760   5.153 -0.0228  0.2131  0.6433
 3127SOL     OW12279   0.530   5.577   0.053  0.2461 -0.4392  0.1448
 3127SOL    HW212280   0.503   5.543  -0.032  0.8988  0.8285 -0.6003
 3127SOL    HW312281   0.600   5.518   0.081 -0.3263 -1.1688  0.0508
 3127SOL    MW412282   0.536   5.565   0.045  0.2567 -0.3682  0.0341
 3128SOL     OW12283   4.406   2.776   3.605  0.4873 -0.2500 -0.0895
 3128SOL    HW212284   4.342   2.713   3.639  0.5248  0.4013  1.2773
 3128SOL    HW312285   4.370   2.804   3.521 -1.6311  0.8794  1.0962
 3128SOL    MW412286   4.393   2.772   3.599  0.2127 -0.0150  0.2473
 3129SOL     OW12287   5.949   5.444   2.703 -0.4173 -0.4415 -0.2518
 3129SOL    HW212288   5.999   5.447   2.621  1.0696 -2.1840  0.5115
 3129SOL    HW312289   5.890   5.370   2.692 -2.6272  1.3273 -0.9633
 3129SOL    MW412290   5.948   5.434   2.691 -0.5127 -0.4381 -0.2450
 3130SOL     OW12291   2.504   4.978   1.144  0.2720  0.5276 -0.1287
 3130SOL    HW212292   2.559   4.921   1.090  0.0682  1.2750 -1.1496
 3130SOL    HW312293   2.431   4.923   1.172  0.8292 -0.0989  0.1123
 3130SOL    MW412294   2.502   4.964   1.141  0.3186  0.5436 -0.2316
 3131SOL     OW12295   0.467   3.333   6.280  0.5892 -0.1350 -0.4274
 3131SOL    HW212296   0.501   3.243   6.276  0.7038 -0.1124 -0.0149
 3131SOL    HW312297   0.487   3.370   6.194 -0.5946 -0.9052 -1.0708
 3131SOL    MW412298   0.474   3.326   6.268  0.4481 -0.2336 -0.4579
 3132SOL     OW12299   0.358   0.287   3.585 -0.1954 -0.7541  0.1580
 3132SOL    HW212300   0.404   0.342   3.649 -0.0426 -1.1633  0.4067
 3132SOL    HW312301   0.424   0.266   3.520 -0.0804 -1.1647  0.4015
 3132SOL    MW412302   0.373   0.292   3.585 -0.1601 -0.8623  0.2229
 3133SOL     OW12303   1.762   1.103   4.071 -0.2241 -0.4758  0.0823
 3133SOL    HW212304   1.830   1.099   4.004 -0.4686 -0.0366 -0.1990
 3133SOL    HW312305   1.775   1.023   4.123  1.3133  0.2192  0.8294
 3133SOL    MW412306   1.773   1.092   4.069 -0.0535 -0.3261  0.1437
 3134SOL     OW12307   1.647   1.511   5.349  0.1042 -0.1978 -0.3317
 3134SOL    HW212308   1.733   1.479   5.322  0.3751 -0.2313  0.5398
 3134SOL    HW312309   1.662   1.551   5.434 -0.5127  0.9524 -0.7461
 3134SOL    MW412310   1.660   1.512   5.357  0.0585 -0.0505 -0.2714
 3135SOL     OW12311   5.997   5.138   3.571 -0.3087 -0.3294  0.4089
 3135SOL    HW212312   6.023   5.102   3.486  0.4053  0.0038  0.4768
 3135SOL    HW312313   6.001   5.063   3.631  1.4625 -0.1218  0.6123
 3135SOL    MW412314   6.001   5.123   3.568  0.0192 -0.2581  0.4447
 3136SOL     OW12315   0.956   3.210   1.018  0.2173  0.2583 -0.5556
 3136SOL    HW212316   0.980   3.148   1.087  1.0051  1.1354 -0.0269
 3136SOL    HW312317   1.029   3.209   0.958  0.3616  0.8741 -0.3980
 3136SOL    MW412318   0.969   3.201   1.019  0.3403  0.4552 -0.4651
 3137SOL     OW12319   1.226   2.685   3.140  0.5577  0.2501 -0.1838
 3137SOL    HW212320   1.222   2.704   3.047 -0.0743  2.4114  0.2302
 3137SOL    HW312321   1.136   2.697   3.171  0.6643 -0.8968  0.6533
 3137SOL    MW412322   1.213   2.689   3.132  0.4884  0.3839 -0.0187
 3138SOL     OW12323   3.252   5.115   5.242 -0.0653  0.3420 -0.0854
 3138SOL    HW212324   3.218   5.037   5.287 -2.5368  0.6933 -1.1780
 3138SOL    HW312325   3.318   5.150   5.302 -0.5242 -1.3039  1.4922
 3138SOL    MW412326   3.256   5.109   5.256 -0.4519  0.1712 -0.0214
 3139SOL     OW12327   2.526   5.224   1.481 -0.3965  0.2025  0.3698
 3139SOL    HW212328   2.573   5.157   1.529  0.2489 -0.3323 -0.9496
 3139SOL    HW312329   2.572   5.306   1.501  1.1817 -0.3130 -0.9323
 3139SOL    MW412330   2.538   5.226   1.490 -0.1031  0.0639  0.0239
 3140SOL     OW12331   4.436   4.049   3.468 -0.2635  0.5678 -0.4946
 3140SOL    HW212332   4.424   3.970   3.415 -1.0255 -0.2935  0.9092
 3140SOL    HW312333   4.353   4.096   3.459 -1.4230 -0.8616  1.9201
 3140SOL    MW412334   4.423   4.045   3.460 -0.5170  0.2655  0.0092
 3141SOL     OW12335   1.470   5.107   4.079  0.1905 -0.0157  0.2630
 3141SOL    HW212336   1.499   5.155   4.156  0.5435 -0.3777  0.3590
 3141SOL    HW312337   1.393   5.059   4.108  0.2726 -0.0854  0.3636
 3141SOL    MW412338   1.463   5.107   4.093  0.2479 -0.0727  0.2889
 3142SOL     OW12339   0.722   1.766   3.550  0.3387  0.1708 -0.0731
 3142SOL    HW212340   0.811   1.737   3.531  0.3467  1.0172 -1.5125
 3142SOL    HW312341   0.666   1.694   3.522  0.4328  0.8663 -2.2884
 3142SOL    MW412342   0.726   1.753   3.544  0.3522  0.3742 -0.5553
 3143SOL     OW12343   4.720   2.549   3.268  0.3803  0.2968 -0.3265
 3143SOL    HW212344   4.725   2.610   3.195 -0.1275 -1.5972 -2.0022
 3143SOL    HW312345   4.708   2.605   3.345  0.8139  2.3280 -1.6752
 3143SOL    MW412346   4.719   2.564   3.269  0.3705  0.3149 -0.7255
 3144SOL     OW12347   1.126   5.631   0.936  0.4359  1.0974 -0.7118
 3144SOL    HW212348   1.120   5.550   0.986  0.3915  0.9055 -1.0215
 3144SOL    HW312349   1.220   5.646   0.926  0.4742  1.8186  0.5023
 3144SOL    MW412350   1.138   5.622   0.941  0.4351  1.1672 -0.5925
 3145SOL     OW12351   5.331   6.239   5.325 -0.0784 -0.1513  0.2012
 3145SOL    HW212352   5.360   6.157   5.284  0.8963 -1.7751  3.7643
 3145SOL    HW312353   5.236   6.231   5.331  0.0181 -1.1461  0.6584
 3145SOL    MW412354   5.323   6.227   5.320  0.0629 -0.4968  0.7317
 3146SOL     OW12355   4.783   3.259   2.509  0.6306  0.8229  0.0358
 3146SOL    HW212356   4.715   3.306   2.557 -0.0052  0.3604 -0.3996
 3146SOL    HW312357   4.802   3.182   2.563 -0.0409  0.3352 -0.4012
 3146SOL    MW412358   4.777   3.255   2.522  0.4581  0.6976 -0.0793
 3147SOL     OW12359   6.193   1.173   0.064  0.7239 -0.4070  0.2115
 3147SOL    HW212360   6.272   1.183   0.116  1.0706  0.2902 -0.4409
 3147SOL    HW312361   6.224   1.157  -0.026  0.1455 -2.0839  0.2604
 3147SOL    MW412362   6.207   1.172   0.059  0.6934 -0.5363  0.1319
 3148SOL     OW12363   1.012   3.368   0.718  0.0497  0.3557 -0.3263
 3148SOL    HW212364   0.978   3.281   0.698  1.7219  0.2362 -3.1396
 3148SOL    HW312365   1.089   3.351   0.773 -0.2601  0.1490  0.0493
 3148SOL    MW412366   1.018   3.354   0.723  0.2294  0.3126 -0.6479
 3149SOL     OW12367   2.477   3.850   2.388 -0.2578  0.1528  0.2026
 3149SOL    HW212368   2.456   3.934   2.347  1.2345 -0.4148 -1.9074
 3149SOL    HW312369   2.400   3.796   2.372 -2.1901  1.6079  3.4918
 3149SOL    MW412370   2.464   3.854   2.381 -0.3158  0.2699  0.3582
 3150SOL     OW12371   0.385   1.911   5.076 -0.2463 -0.1183 -0.4419
 3150SOL    HW212372   0.399   1.838   5.017 -1.0185 -2.3626  1.9408
 3150SOL    HW312373   0.291   1.927   5.074 -0.2411 -0.0190 -0.0480
 3150SOL    MW412374   0.374   1.904   5.068 -0.3475 -0.4013 -0.0756
 3151SOL     OW12375   0.436   5.313   2.501 -0.1993 -0.1880  0.2262
 3151SOL    HW212376   0.384   5.378   2.454 -0.0876 -0.9199 -0.9624
 3151SOL    HW312377   0.450   5.351   2.587 -1.3369  0.7291  0.0333
 3151SOL    MW412378   0.431   5.327   2.506 -0.3346 -0.1636  0.0439
 3152SOL     OW12379   0.857   1.662   4.749  0.2152 -0.6420 -0.3228
 3152SOL    HW212380   0.898   1.624   4.826 -0.1879  0.5250  0.4903
 3152SOL    HW312381   0.924   1.720   4.713  0.2801 -0.9203 -0.6551
 3152SOL    MW412382   0.871   1.665   4.754  0.1706 -0.5248 -0.2593
 3153SOL     OW12383   5.968   5.816   2.657  0.5820  0.2192  0.0562
 3153SOL    HW212384   6.034   5.766   2.609 -0.3980 -0.8159 -0.2684
 3153SOL    HW312385   5.915   5.749   2.701 -0.1576  1.0359  0.4287
 3153SOL    MW412386   5.970   5.800   2.657  0.3551  0.1904  0.0625
 3154SOL     OW12387   2.829   1.811   3.729  0.0902 -0.3592  0.1751
 3154SOL    HW212388   2.919   1.789   3.707  0.7506  0.0914  2.1765
 3154SOL    HW312389   2.836   1.858   3.812 -2.0794 -1.4132  1.0314
 3154SOL    MW412390   2.842   1.815   3.737 -0.1089 -0.4388  0.5521
 3155SOL     OW12391   2.404   4.374   2.193 -0.3777 -0.2254  0.1918
 3155SOL    HW212392   2.415   4.404   2.284 -0.2205 -1.2585  0.5199
 3155SOL    HW312393   2.492   4.351   2.164 -0.3309  0.7337 -0.4612
 3155SOL    MW412394   2.417   4.375   2.201 -0.3508 -0.2352  0.1489
 3156SOL     OW12395   1.006   5.795   1.215 -0.0310 -0.5811 -0.2829
 3156SOL    HW212396   0.936   5.805   1.150 -0.6887  0.1147  0.5131
 3156SOL    HW312397   0.968   5.738   1.282  0.5600 -1.1049 -0.3801
 3156SOL    MW412398   0.992   5.788   1.215 -0.0398 -0.5584 -0.1907
 3157SOL     OW12399   1.763   6.144   3.602 -0.4952 -0.2931  0.1894
 3157SOL    HW212400   1.720   6.077   3.548 -1.0177 -0.1317  0.3993
 3157SOL    HW312401   1.796   6.208   3.539 -0.1621 -0.6482 -0.0010
 3157SOL    MW412402   1.761   6.144   3.586 -0.5202 -0.3186  0.1920
 3158SOL     OW12403   5.862   2.915   0.197  0.1671  0.0854 -0.1312
 3158SOL    HW212404   5.933   2.851   0.199  2.1468  1.8963 -3.2616
 3158SOL    HW312405   5.873   2.961   0.114 -2.0693  3.4332  1.1652
 3158SOL    MW412406   5.873   2.913   0.186  0.1332  0.7661 -0.3732
 3159SOL     OW12407   3.987   0.313   1.260  0.0005 -0.1011  0.1389
 3159SOL    HW212408   3.953   0.266   1.336  0.7508 -1.2048 -0.1812
 3159SOL    HW312409   3.913   0.364   1.228  0.0535  1.6732  2.5223
 3159SOL    MW412410   3.973   0.314   1.266  0.1065 -0.0126  0.4112
 3160SOL     OW12411   4.606   2.997   2.887 -0.1394  0.2111  0.0934
 3160SOL    HW212412   4.582   2.999   2.794  0.5151  1.5667 -0.0723
 3160SOL    HW312413   4.693   2.956   2.888 -0.2202  0.0394  0.1307
 3160SOL    MW412414   4.614   2.992   2.875 -0.0637  0.3673  0.0765
 3161SOL     OW12415   3.732   2.289   2.959 -0.4700 -0.0237  0.6814
 3161SOL    HW212416   3.781   2.344   2.899 -0.8536  1.4923  1.7137
 3161SOL    HW312417   3.657   2.259   2.908  0.4682 -0.7679 -0.3108
 3161SOL    MW412418   3.729   2.292   2.945 -0.3968  0.0781  0.6867
 3162SOL     OW12419   4.132   0.568   4.001 -0.0024  0.7088 -0.7090
 3162SOL    HW212420   4.161   0.560   3.911  0.6526 -2.1989 -0.3216
 3162SOL    HW312421   4.063   0.502   4.011 -1.0230  1.8935  0.5908
 3162SOL    MW412422   4.127   0.558   3.991 -0.0506  0.4815 -0.4864
 3163SOL     OW12423   5.915   0.949   0.955 -0.0259 -0.2593 -0.3055
 3163SOL    HW212424   5.825   0.979   0.963  0.1793  0.1512  0.5671
 3163SOL    HW312425   5.927   0.934   0.861 -0.4121  1.5146 -0.6684
 3163SOL    MW412426   5.905   0.951   0.944 -0.0498  0.0289 -0.2382
 3164SOL     OW12427   6.238   3.414   5.363  0.5544 -0.8941  0.6259
 3164SOL    HW212428   6.228   3.423   5.268  0.2642 -0.1015  0.7278
 3164SOL    HW312429   6.333   3.412   5.377  0.6020 -2.0065  0.2397
 3164SOL    MW412430   6.249   3.415   5.352  0.5224 -0.9363  0.5884
 3165SOL     OW12431   3.191   3.515   4.596  0.5547 -0.3816  0.3449
 3165SOL    HW212432   3.152   3.572   4.663  0.7172  0.6045 -0.3695
 3165SOL    HW312433   3.284   3.514   4.616  0.6391  0.1207 -0.0063
 3165SOL    MW412434   3.198   3.523   4.607  0.5873 -0.1852  0.2043
 3166SOL     OW12435   4.532   3.599   3.187 -0.1218 -0.0148 -0.0021
 3166SOL    HW212436   4.614   3.604   3.236  0.6472  1.7725 -1.3844
 3166SOL    HW312437   4.558   3.574   3.098 -1.0920  0.4088 -0.4193
 3166SOL    MW412438   4.546   3.596   3.182 -0.1484  0.2769 -0.2396
 3167SOL     OW12439   4.411   4.897   3.106 -0.9063  0.0271  1.0432
 3167SOL    HW212440   4.479   4.899   3.173  0.5060  2.7182 -0.3212
 3167SOL    HW312441   4.452   4.855   3.030 -1.6894 -0.7577  1.0306
 3167SOL    MW412442   4.425   4.892   3.105 -0.8233  0.2786  0.8615
 3168SOL     OW12443   2.889   4.034   3.051  0.4995 -0.6265 -0.3796
 3168SOL    HW212444   2.836   4.073   3.121  1.1936  0.9265 -0.6766
 3168SOL    HW312445   2.834   4.038   2.973  0.1233 -1.3687 -0.1578
 3168SOL    MW412446   2.875   4.040   3.050  0.5414 -0.5195 -0.3895
 3169SOL     OW12447   1.299   4.161   5.443  0.0646 -0.0025  0.0109
 3169SOL    HW212448   1.298   4.255   5.427  1.2891 -0.0848 -0.6314
 3169SOL    HW312449   1.255   4.124   5.366  1.7048 -0.0882 -0.9206
 3169SOL    MW412450   1.293   4.168   5.430  0.4426 -0.0247 -0.1967
 3170SOL     OW12451   5.375   4.631   5.004  0.0106  0.5337 -0.0584
 3170SOL    HW212452   5.423   4.714   4.999  1.3764 -0.2626 -0.5036
 3170SOL    HW312453   5.418   4.582   5.074 -0.1465 -0.1926 -0.4568
 3170SOL    MW412454   5.387   4.636   5.013  0.1700  0.3328 -0.1697
 3171SOL     OW12455   6.041   5.039   3.296  0.0007  0.7268 -0.5585
 3171SOL    HW212456   5.956   5.005   3.268  0.7070 -0.5671 -1.2579
 3171SOL    HW312457   6.058   5.113   3.238 -0.2281  0.4011 -1.0473
 3171SOL    MW412458   6.032   5.044   3.285  0.0637  0.5131 -0.7153
 3172SOL     OW12459   2.568   4.166   0.140 -0.2324  0.4849 -0.3811
 3172SOL    HW212460   2.587   4.210   0.222  0.2718 -2.8222  1.4322
 3172SOL    HW312461   2.565   4.073   0.162 -2.7714 -0.3940 -3.6248
 3172SOL    MW412462   2.571   4.160   0.153 -0.5008 -0.0674 -0.5698
 3173SOL     OW12463   3.402   1.820   1.324 -0.0322 -0.1403 -0.2605
 3173SOL    HW212464   3.353   1.893   1.364  0.3318  1.0450 -1.8491
 3173SOL    HW312465   3.423   1.762   1.397 -2.6555 -0.0366  0.6893
 3173SOL    MW412466   3.398   1.822   1.339 -0.3303  0.0297 -0.3448
 3174SOL     OW12467   3.053   2.501   4.550  0.6649  0.0845 -0.3197
 3174SOL    HW212468   3.005   2.513   4.632  0.6639 -0.9979 -0.1510
 3174SOL    HW312469   3.145   2.494   4.577  0.4649 -2.5867 -0.1399
 3174SOL    MW412470   3.059   2.502   4.565  0.6384 -0.4107 -0.2737
 3175SOL     OW12471   1.736   0.750   2.504  0.5279 -0.0242  0.0838
 3175SOL    HW212472   1.716   0.836   2.467  2.2049  0.5940  0.5057
 3175SOL    HW312473   1.688   0.688   2.449 -1.9056  1.2225  0.6302
 3175SOL    MW412474   1.727   0.753   2.492  0.4281  0.2219  0.2115
 3176SOL     OW12475   0.347   3.640   1.022 -0.4738  0.4697  0.2275
 3176SOL    HW212476   0.346   3.586   0.943  2.2834  1.6292 -0.7333
 3176SOL    HW312477   0.424   3.611   1.070 -0.0432  2.2089  0.6592
 3176SOL    MW412478   0.357   3.629   1.018 -0.0532  0.8521  0.1577
 3177SOL     OW12479   5.132   3.658   1.665 -0.0187 -0.5329 -0.0799
 3177SOL    HW212480   5.192   3.714   1.714 -0.1159 -0.7741  0.3165
 3177SOL    HW312481   5.079   3.719   1.613 -1.5663 -0.0702  1.9367
 3177SOL    MW412482   5.133   3.673   1.664 -0.2357 -0.5037  0.2385
 3178SOL     OW12483   0.026   5.239   2.735 -0.2282  1.2646 -0.0042
 3178SOL    HW212484   0.120   5.250   2.747 -0.6074  2.4243  2.6382
 3178SOL    HW312485   0.017   5.154   2.693  1.9547  0.6861  0.5836
 3178SOL    MW412486   0.037   5.229   2.731  0.0098  1.3412  0.4220
 3179SOL     OW12487   1.501   2.160   0.928 -0.3233  0.5674  0.0122
 3179SOL    HW212488   1.419   2.195   0.961 -0.2873  0.9553 -0.3036
 3179SOL    HW312489   1.476   2.106   0.853 -0.4406 -0.6116  0.8871
 3179SOL    MW412490   1.487   2.158   0.922 -0.3340  0.4631  0.0859
 3180SOL     OW12491   3.586   2.765   2.495  0.0344 -0.2124  0.0667
 3180SOL    HW212492   3.527   2.735   2.425  0.3638 -0.9790  0.1161
 3180SOL    HW312493   3.643   2.690   2.513  1.8919  0.8926 -0.8716
 3180SOL    MW412494   3.586   2.751   2.488  0.3229 -0.1677 -0.0506
 3181SOL     OW12495   5.351   0.741   5.586 -0.2355 -0.7640  0.0399
 3181SOL    HW212496   5.442   0.729   5.612 -0.2039 -2.4808 -0.7684
 3181SOL    HW312497   5.302   0.739   5.668  0.2914 -1.5484  0.3432
 3181SOL    MW412498   5.356   0.739   5.600 -0.1618 -1.0940 -0.0267
 3182SOL     OW12499   3.031   0.684   0.121 -0.5827  0.0460  0.0364
 3182SOL    HW212500   3.012   0.602   0.075  0.6789  0.5338 -1.4226
 3182SOL    HW312501   2.957   0.741   0.099 -0.7041 -0.1935 -0.1881
 3182SOL    MW412502   3.018   0.681   0.112 -0.4322  0.0787 -0.1857
 3183SOL     OW12503   3.599   2.775   4.396  0.0600  0.5352 -0.2355
 3183SOL    HW212504   3.616   2.831   4.320 -0.8156  1.5196  0.2602
 3183SOL    HW312505   3.634   2.824   4.470  0.7327 -0.3298  0.0224
 3183SOL    MW412506   3.606   2.789   4.396  0.0333  0.5510 -0.1361
 3184SOL     OW12507   3.979   1.086   1.123 -0.2610 -0.1262  0.2446
 3184SOL    HW212508   3.921   1.153   1.161 -1.1256 -0.4179 -0.5221
 3184SOL    HW312509   3.927   1.046   1.054  0.9789 -0.1947 -0.6856
 3184SOL    MW412510   3.964   1.090   1.119 -0.2114 -0.1738  0.0207
 3185SOL     OW12511   4.596   1.297   4.123 -0.0753  0.0575  0.6888
 3185SOL    HW212512   4.571   1.329   4.036  0.6157  0.7087  0.7216
 3185SOL    HW312513   4.513   1.290   4.171 -0.3191  1.1433  0.4534
 3185SOL    MW412514   4.581   1.300   4.118 -0.0163  0.2867  0.6621
 3186SOL     OW12515   4.888   4.595   6.099  0.6144 -0.8441 -0.3160
 3186SOL    HW212516   4.921   4.649   6.028  1.6498 -0.3790  0.4884
 3186SOL    HW312517   4.966   4.572   6.150 -0.2501  0.1757  1.5811
 3186SOL    MW412518   4.903   4.599   6.097  0.6370 -0.6482  0.0404
 3187SOL     OW12519   3.404   0.772   4.559 -0.6473  0.7093 -0.0664
 3187SOL    HW212520   3.482   0.822   4.536 -0.3906  0.6856  0.7143
 3187SOL    HW312521   3.427   0.727   4.641 -1.3919  0.5097  0.0475
 3187SOL    MW412522   3.417   0.773   4.567 -0.7116  0.6798  0.0516
 3188SOL     OW12523   4.916   0.817   5.200  0.8267  0.2554  0.0575
 3188SOL    HW212524   4.922   0.722   5.189  1.4110  0.3044 -0.0967
 3188SOL    HW312525   5.004   0.849   5.180  0.1687  1.0169 -1.8503
 3188SOL    MW412526   4.929   0.809   5.196  0.8169  0.3624 -0.2146
 3189SOL     OW12527   6.144   1.110   0.987 -0.2848  0.5197 -0.1966
 3189SOL    HW212528   6.074   1.049   1.008  0.4663 -0.1680  0.3955
 3189SOL    HW312529   6.219   1.054   0.963  0.5174  1.1716  0.6869
 3189SOL    MW412530   6.145   1.095   0.987 -0.0799  0.5150 -0.0019
 3190SOL     OW12531   1.806   0.752   0.650 -0.2383 -0.1391 -0.6463
 3190SOL    HW212532   1.839   0.783   0.566  0.6800 -0.4965 -0.4341
 3190SOL    HW312533   1.729   0.807   0.668  0.5288  1.0781 -0.9314
 3190SOL    MW412534   1.800   0.763   0.642 -0.0159 -0.0257 -0.6559
 3191SOL     OW12535   5.531   5.445   4.462 -0.6453  0.2548  0.1702
 3191SOL    HW212536   5.596   5.383   4.429 -0.9164  0.7510 -1.4223
 3191SOL    HW312537   5.578   5.529   4.464 -0.1779 -0.0003  2.6322
 3191SOL    MW412538   5.546   5.448   4.458 -0.6194  0.2866  0.2849
 3192SOL     OW12539   3.024   4.725   0.205  0.1413 -0.3643  0.1446
 3192SOL    HW212540   2.993   4.693   0.290 -0.7216  1.2539  0.4629
 3192SOL    HW312541   2.946   4.732   0.151  0.6825 -1.3710 -0.8207
 3192SOL    MW412542   3.010   4.721   0.209  0.0989 -0.2836  0.0592
 3193SOL     OW12543   3.891   1.885   5.665  0.2738  0.2543  0.5179
 3193SOL    HW212544   3.848   1.837   5.595  1.6545 -0.6660  0.2503
 3193SOL    HW312545   3.857   1.846   5.745  0.0647  0.0404  0.3255
 3193SOL    MW412546   3.881   1.874   5.666  0.4283  0.1046  0.4572
 3194SOL     OW12547   3.078   6.403   4.528 -0.2151  0.3050  0.4002
 3194SOL    HW212548   3.042   6.367   4.447 -0.7708  0.2816  0.6498
 3194SOL    HW312549   3.172   6.409   4.512 -0.4217  1.3121 -0.6583
 3194SOL    MW412550   3.085   6.399   4.515 -0.3156  0.4348  0.2935
 3195SOL     OW12551   5.274   4.515   4.044 -0.5996  0.0228 -0.3135
 3195SOL    HW212552   5.257   4.606   4.020  1.6206  0.9121  1.1165
 3195SOL    HW312553   5.225   4.501   4.125 -0.4729  0.1610 -0.2116
 3195SOL    MW412554   5.265   4.525   4.052 -0.2900  0.1583 -0.1114
 3196SOL     OW12555   3.343   3.284   4.035  0.3028 -0.2003 -0.1693
 3196SOL    HW212556   3.273   3.331   3.991  0.8044 -0.8867 -1.7761
 3196SOL    HW312557   3.314   3.193   4.035  1.7995 -0.7566 -2.2533
 3196SOL    MW412558   3.330   3.278   4.030  0.5665 -0.3643 -0.6562
 3197SOL     OW12559   4.725   2.589   2.317 -0.2703  0.5526  0.1372
 3197SOL    HW212560   4.798   2.633   2.275 -0.2904  0.3826 -0.0738
 3197SOL    HW312561   4.745   2.496   2.311 -0.1751  0.5358  0.6841
 3197SOL    MW412562   4.737   2.583   2.311 -0.2603  0.5280  0.1815
 3198SOL     OW12563   1.974   2.144   1.413  0.1653  0.4081 -0.4517
 3198SOL    HW212564   1.939   2.112   1.496  1.0369  0.8190  0.0989
 3198SOL    HW312565   2.066   2.161   1.431  0.3109  0.7585 -1.4395
 3198SOL    MW412566   1.982   2.142   1.426  0.2995  0.5086 -0.5094
 3199SOL     OW12567   4.672   1.372   4.709  0.0986 -0.3487 -0.3510
 3199SOL    HW212568   4.699   1.435   4.776 -0.6108 -0.3533 -0.0518
 3199SOL    HW312569   4.647   1.294   4.759  1.5541 -1.1070 -0.7424
 3199SOL    MW412570   4.672   1.370   4.725  0.1970 -0.4494 -0.3632
 3200SOL     OW12571   4.469   0.735   3.318 -0.7322  0.4763  0.7468
 3200SOL    HW212572   4.561   0.755   3.336 -0.6133  1.1976 -0.5373
 3200SOL    HW312573   4.470   0.649   3.278 -0.8135 -0.2761  2.2752
 3200SOL    MW412574   4.481   0.727   3.315 -0.7273  0.4722  0.7790
 3201SOL     OW12575   3.007   5.829   0.924 -0.4288  0.6862  0.0419
 3201SOL    HW212576   2.968   5.779   0.852  0.5593 -0.2825  0.1479
 3201SOL    HW312577   3.001   5.920   0.895  0.8377  0.2684 -1.7497
 3201SOL    MW412578   3.001   5.834   0.910 -0.1314  0.5033 -0.1805
 3202SOL     OW12579   1.256   5.402   2.498  0.4431 -0.2669 -0.0293
 3202SOL    HW212580   1.328   5.340   2.509  1.1318  0.6569  0.8632
 3202SOL    HW312581   1.183   5.348   2.466  1.1753 -1.4298  0.1872
 3202SOL    MW412582   1.256   5.387   2.495  0.6305 -0.2985  0.1170
 3203SOL     OW12583   6.240   4.906   1.183 -0.0910 -0.0200  0.6593
 3203SOL    HW212584   6.296   4.972   1.142 -1.9864  0.0761 -2.0337
 3203SOL    HW312585   6.283   4.887   1.266  2.5311  1.8577 -0.1204
 3203SOL    MW412586   6.253   4.912   1.188  0.0049  0.2404  0.2011
 3204SOL     OW12587   5.827   3.270   6.332 -0.0986  0.2942  0.4813
 3204SOL    HW212588   5.905   3.258   6.278 -1.1236  0.9193 -1.2086
 3204SOL    HW312589   5.858   3.256   6.422  1.3842 -2.0614 -0.3148
 3204SOL    MW412590   5.841   3.267   6.337 -0.0382  0.0659  0.1533
 3205SOL     OW12591   5.320   6.065   0.124 -0.1133 -0.0295  1.0514
 3205SOL    HW212592   5.227   6.054   0.105 -0.3965 -0.9050  2.7471
 3205SOL    HW312593   5.326   6.053   0.219  1.4938  1.7437  1.2215
 3205SOL    MW412594   5.308   6.062   0.134  0.0613  0.0890  1.2975
 3206SOL     OW12595   0.003   5.891   1.074 -0.1717 -0.9397 -0.0207
 3206SOL    HW212596   0.054   5.965   1.108  0.8659 -1.3853 -0.5604
 3206SOL    HW312597   0.049   5.813   1.106  1.3110 -1.3964 -2.9496
 3206SOL    MW412598   0.016   5.891   1.083  0.1608 -1.0587 -0.4783
 3207SOL     OW12599   2.999   0.383   1.556 -0.2435 -0.3708 -0.1662
 3207SOL    HW212600   3.028   0.343   1.475  1.6998 -0.0901  0.3498
 3207SOL    HW312601   2.922   0.434   1.531  1.1877  0.9675 -2.1675
 3207SOL    MW412602   2.993   0.384   1.542  0.2017 -0.1572 -0.3622
 3208SOL     OW12603   0.743   5.648   5.871  0.2152  0.0669  0.3718
 3208SOL    HW212604   0.699   5.717   5.822  1.7169  0.9038  0.1521
 3208SOL    HW312605   0.836   5.663   5.857  0.6931 -0.1472  2.8271
 3208SOL    MW412606   0.750   5.659   5.862  0.4764  0.1491  0.6668
 3209SOL     OW12607   4.620   0.935   6.183  0.4660 -0.0045 -0.3497
 3209SOL    HW212608   4.539   0.914   6.137 -0.2160  1.4032  0.1571
 3209SOL    HW312609   4.613   1.029   6.202 -0.0111 -0.7138  3.9467
 3209SOL    MW412610   4.608   0.945   6.180  0.3131  0.0877  0.2841
 3210SOL     OW12611   0.874   6.260   1.432 -0.3356  0.1698  0.2344
 3210SOL    HW212612   0.928   6.311   1.372 -0.3646  0.6892  0.6368
 3210SOL    HW312613   0.786   6.263   1.395 -0.2571  0.0653  0.0406
 3210SOL    MW412614   0.870   6.267   1.420 -0.3291  0.2246  0.2620
 3211SOL     OW12615   4.101   5.239   3.803 -0.6259 -0.2065  0.2481
 3211SOL    HW212616   4.022   5.258   3.753  0.1556  0.8082 -0.6348
 3211SOL    HW312617   4.124   5.149   3.779 -0.5018  0.1218 -0.9085
 3211SOL    MW412618   4.093   5.230   3.793 -0.5064 -0.0293 -0.0210
 3212SOL     OW12619   1.784   0.173   1.462 -0.8747  0.4789 -0.4807
 3212SOL    HW212620   1.728   0.174   1.540 -1.3388  1.4490 -0.8164
 3212SOL    HW312621   1.735   0.222   1.396  0.4428  1.5483 -0.7254
 3212SOL    MW412622   1.770   0.180   1.464 -0.7621  0.7480 -0.5573
 3213SOL     OW12623   4.290   4.847   4.153  0.2397 -0.6216  0.5272
 3213SOL    HW212624   4.280   4.930   4.201  0.8989  1.2654 -2.3220
 3213SOL    HW312625   4.208   4.801   4.167  0.0367  0.2431  2.5940
 3213SOL    MW412626   4.278   4.852   4.162  0.2999 -0.2585  0.4240
 3214SOL     OW12627   0.550   5.000   1.481 -0.3175  0.4091 -0.5229
 3214SOL    HW212628   0.625   4.943   1.499  0.7372  1.8186 -0.2511
 3214SOL    HW312629   0.549   5.009   1.386 -1.0250 -0.7092 -0.6466
 3214SOL    MW412630   0.560   4.993   1.471 -0.2717  0.4475 -0.5034
 3215SOL     OW12631   5.551   4.654   0.828 -0.1061  0.1215 -0.1177
 3215SOL    HW212632   5.626   4.621   0.780 -1.0815  0.8683 -2.2701
 3215SOL    HW312633   5.586   4.682   0.913  1.7361 -0.8792 -0.5080
 3215SOL    MW412634   5.565   4.653   0.833  0.0083  0.0880 -0.4532
 3216SOL     OW12635   5.392   4.886   3.859  0.1941 -0.2432  0.5021
 3216SOL    HW212636   5.315   4.861   3.910  1.4209 -1.1185  1.9834
 3216SOL    HW312637   5.426   4.803   3.825 -0.6856  0.3201 -1.9797
 3216SOL    MW412638   5.386   4.872   3.861  0.2399 -0.2844  0.3701
 3217SOL     OW12639   3.633   0.020   4.700  0.1313  0.4793 -0.3655
 3217SOL    HW212640   3.549   0.059   4.723 -0.3894 -0.3529 -0.8459
 3217SOL    HW312641   3.655   0.060   4.616  0.6257  1.3027  0.1296
 3217SOL    MW412642   3.625   0.031   4.692  0.1278  0.4781 -0.3636
 3218SOL     OW12643   2.352   2.499   3.390 -0.1147  0.3945  0.2356
 3218SOL    HW212644   2.306   2.516   3.308 -2.6175  1.2289  1.6752
 3218SOL    HW312645   2.384   2.584   3.418  0.4194  0.1788  0.2825
 3218SOL    MW412646   2.350   2.512   3.383 -0.3744  0.4761  0.4317
 3219SOL     OW12647   3.682   5.941   0.229 -0.0986 -0.0279 -0.1527
 3219SOL    HW212648   3.659   5.985   0.311  0.3601 -2.0373  1.1237
 3219SOL    HW312649   3.611   5.878   0.214  0.1238 -0.0966 -0.9965
 3219SOL    MW412650   3.670   5.939   0.238 -0.0087 -0.3020 -0.0956
 3220SOL     OW12651   3.362   5.011   1.666 -0.2950  0.3010 -0.4398
 3220SOL    HW212652   3.312   5.038   1.589 -0.6920  0.7570 -0.0310
 3220SOL    HW312653   3.428   5.079   1.676 -1.5021  1.3473  0.7859
 3220SOL    MW412654   3.364   5.024   1.657 -0.5067  0.4992 -0.2241
 3221SOL     OW12655   3.379   0.231   3.614 -0.1883  0.4310  0.0583
 3221SOL    HW212656   3.446   0.202   3.553 -1.0841  0.3215 -0.9026
 3221SOL    HW312657   3.345   0.312   3.577 -0.7540  0.3560  0.3965
 3221SOL    MW412658   3.383   0.238   3.601 -0.3811  0.4067 -0.0238
 3222SOL     OW12659   5.869   5.529   3.494 -0.1228  0.6537  0.3983
 3222SOL    HW212660   5.815   5.466   3.447  0.3177 -1.2261  2.2493
 3222SOL    HW312661   5.809   5.567   3.559  0.7641 -1.9205  2.9037
 3222SOL    MW412662   5.854   5.526   3.497  0.0524  0.0661  0.9731
 3223SOL     OW12663   0.197   3.513   1.237  0.6557 -0.0474  0.2716
 3223SOL    HW212664   0.243   3.559   1.167  0.8736 -1.2910 -0.4301
 3223SOL    HW312665   0.215   3.564   1.316  3.2503 -0.4858  0.0298
 3223SOL    MW412666   0.205   3.526   1.238  1.0268 -0.2693  0.1471
 3224SOL     OW12667   4.842   0.105   3.123  0.0318  0.4477  0.1310
 3224SOL    HW212668   4.935   0.121   3.142  0.8784 -0.7719 -2.4649
 3224SOL    HW312669   4.805   0.192   3.108  0.2369  1.1087  2.9138
 3224SOL    MW412670   4.849   0.118   3.123  0.1706  0.3740  0.1557
 3225SOL     OW12671   3.397   2.357   0.494  0.2443 -0.3320 -0.2298
 3225SOL    HW212672   3.312   2.371   0.536  0.4870  0.1471  0.1090
 3225SOL    HW312673   3.387   2.274   0.447 -0.1575 -0.6712  0.4441
 3225SOL    MW412674   3.385   2.348   0.493  0.2233 -0.3136 -0.0962
 3226SOL     OW12675   1.994   6.273   4.037 -0.7935  0.4131 -0.4366
 3226SOL    HW212676   2.050   6.333   3.989 -1.0063 -0.9782 -2.5346
 3226SOL    HW312677   2.054   6.206   4.071 -0.9312  0.0398 -0.9217
 3226SOL    MW412678   2.009   6.272   4.035 -0.8397  0.1803 -0.7774
 3227SOL     OW12679   2.168   2.421   2.795  0.0791  0.1101 -0.3909
 3227SOL    HW212680   2.156   2.476   2.718  1.9893 -0.6181 -1.2839
 3227SOL    HW312681   2.150   2.332   2.765 -0.6447 -0.0288  0.4126
 3227SOL    MW412682   2.164   2.416   2.781  0.2357 -0.0043 -0.4027
 3228SOL     OW12683   6.140   2.746   5.265 -0.2611 -0.1942 -0.6635
 3228SOL    HW212684   6.231   2.774   5.260 -1.1946  3.3643 -1.2276
 3228SOL    HW312685   6.139   2.659   5.227  2.7440  0.0740 -1.6157
 3228SOL    MW412686   6.152   2.738   5.259  0.0122  0.3107 -0.8636
 3229SOL     OW12687   0.684   1.249   4.015 -0.2826 -0.3968  0.0336
 3229SOL    HW212688   0.730   1.232   3.933 -1.3046  0.7606 -0.8208
 3229SOL    HW312689   0.633   1.169   4.031  1.8623 -1.6673  0.9609
 3229SOL    MW412690   0.683   1.236   4.006 -0.1345 -0.4117  0.0432
 3230SOL     OW12691   1.738   0.477   0.531 -0.6469 -0.7192  0.1120
 3230SOL    HW212692   1.668   0.449   0.590 -1.7865  0.5287 -0.6008
 3230SOL    HW312693   1.749   0.570   0.550  1.0067 -0.9349  0.3728
 3230SOL    MW412694   1.730   0.485   0.542 -0.5791 -0.5830  0.0524
 3231SOL     OW12695   1.046   1.033   4.121  0.1894  0.3166  0.3650
 3231SOL    HW212696   1.028   1.101   4.186  2.3487  1.7008 -0.3654
 3231SOL    HW312697   1.135   1.004   4.140  0.3927 -0.1620 -1.1681
 3231SOL    MW412698   1.055   1.038   4.132  0.5011  0.4361  0.0664
 3232SOL     OW12699   4.823   5.998   3.499 -0.4721 -0.8580  0.4687
 3232SOL    HW212700   4.741   6.049   3.497  0.5317  0.8994  1.5338
 3232SOL    HW312701   4.829   5.960   3.411 -0.4386  2.3750 -1.1053
 3232SOL    MW412702   4.813   6.000   3.487 -0.3353 -0.1996  0.4015
 3233SOL     OW12703   1.028   0.362   0.792  0.1468  0.0926  0.1024
 3233SOL    HW212704   1.113   0.374   0.834  0.9595 -1.7863 -0.8648
 3233SOL    HW312705   1.046   0.372   0.698 -0.5337 -1.0006 -0.1682
 3233SOL    MW412706   1.042   0.365   0.785  0.1642 -0.2995 -0.0610
 3234SOL     OW12707   3.174   5.860   2.373 -0.4771 -0.0484  0.7629
 3234SOL    HW212708   3.257   5.823   2.342 -0.5859  1.7207 -2.0180
 3234SOL    HW312709   3.172   5.948   2.336 -3.3780  0.1487  1.1520
 3234SOL    MW412710   3.185   5.867   2.364 -0.8742  0.2110  0.4473
 3235SOL     OW12711   1.680   5.184   2.967  0.0875 -0.1332  0.1651
 3235SOL    HW212712   1.590   5.211   2.952 -0.0042 -1.0380 -1.1843
 3235SOL    HW312713   1.708   5.148   2.882  0.9487 -1.9761  1.1625
 3235SOL    MW412714   1.672   5.182   2.954  0.1890 -0.4957  0.1186
 3236SOL     OW12715   1.579   6.367   4.169  0.0858 -0.2485  0.0536
 3236SOL    HW212716   1.498   6.341   4.214  0.7180 -0.7446  0.9396
 3236SOL    HW312717   1.551   6.433   4.106 -0.7877  0.8121  1.4762
 3236SOL    MW412718   1.565   6.372   4.167  0.0540 -0.1740  0.3582
 3237SOL     OW12719   0.369   0.018   2.246 -1.0093  0.2394 -0.8781
 3237SOL    HW212720   0.414  -0.012   2.325 -0.0428 -0.3105 -1.6089
 3237SOL    HW312721   0.408  -0.034   2.175 -3.4511 -0.9460 -1.4603
 3237SOL    MW412722   0.380   0.007   2.247 -1.2039  0.0104 -1.0513
 3238SOL     OW12723   2.119   4.379   1.758  0.1319 -0.0737 -0.6667
 3238SOL    HW212724   2.192   4.358   1.700 -1.1068 -0.6937 -2.0622
 3238SOL    HW312725   2.047   4.401   1.699 -0.9253  0.1619  0.6593
 3238SOL    MW412726   2.119   4.379   1.742 -0.1710 -0.1244 -0.6759
 3239SOL     OW12727   6.209   4.725   3.586  0.5434  0.4964 -0.4037
 3239SOL    HW212728   6.305   4.731   3.590  0.4436  2.0336  0.4693
 3239SOL    HW312729   6.192   4.633   3.565  2.2000  0.1661 -0.4701
 3239SOL    MW412730   6.220   4.714   3.584  0.7488  0.6556 -0.2973
 3240SOL     OW12731   1.342   2.216   1.643  0.3349  0.0560  0.0143
 3240SOL    HW212732   1.284   2.143   1.662  1.5644 -0.8234  0.5574
 3240SOL    HW312733   1.371   2.248   1.729  0.4951  0.6050 -0.2364
 3240SOL    MW412734   1.338   2.210   1.657  0.5183  0.0124  0.0529
 3241SOL     OW12735   2.798   2.565   6.180 -0.7578 -0.1747  0.1285
 3241SOL    HW212736   2.816   2.577   6.273 -0.6644  0.5566  0.0192
 3241SOL    HW312737   2.783   2.653   6.146 -2.6948 -0.5621 -0.1694
 3241SOL    MW412738   2.798   2.578   6.188 -1.0011 -0.1293  0.0748
 3242SOL     OW12739   3.702   3.561   2.091 -0.7561 -0.2924  0.5312
 3242SOL    HW212740   3.780   3.508   2.106  0.9329  1.7548 -0.4657
 3242SOL    HW312741   3.686   3.554   1.997  0.0018  1.5225  0.2218
 3242SOL    MW412742   3.710   3.553   2.081 -0.4332  0.2172  0.3589
 3243SOL     OW12743   3.712   5.730   3.206 -0.4497  0.0726 -0.3503
 3243SOL    HW212744   3.736   5.821   3.189  1.9419  0.0388  2.1315
 3243SOL    HW312745   3.684   5.728   3.297 -2.1764 -1.4423 -0.8389
 3243SOL    MW412746   3.712   5.741   3.216 -0.3620 -0.1317 -0.0873
 3244SOL     OW12747   0.055   3.036   5.703 -0.1881  0.0039  0.1719
 3244SOL    HW212748   0.092   3.007   5.620 -1.7805 -0.3350 -0.4624
 3244SOL    HW312749   0.042   3.130   5.692 -2.6036 -0.4003 -0.9236
 3244SOL    MW412750   0.058   3.045   5.691 -0.7169 -0.0941 -0.0563
 3245SOL     OW12751   2.793   3.305   4.685  0.1248 -0.6328  0.4374
 3245SOL    HW212752   2.796   3.400   4.670 -0.6939 -0.9595 -2.6889
 3245SOL    HW312753   2.878   3.274   4.654  0.3272 -0.9453  1.3012
 3245SOL    MW412754   2.805   3.314   4.679  0.0435 -0.7171  0.1389
 3246SOL     OW12755   0.732   1.265   4.714  0.2438  0.2064 -0.0649
 3246SOL    HW212756   0.657   1.208   4.728  0.4799  0.0311  0.5222
 3246SOL    HW312757   0.747   1.263   4.619 -1.7920  1.9116 -0.4920
 3246SOL    MW412758   0.724   1.257   4.703  0.0063  0.4082 -0.0438
 3247SOL     OW12759   1.030   5.674   3.066  0.2604 -0.0575  0.2927
 3247SOL    HW212760   1.101   5.637   3.014 -0.1453  1.1913 -1.2435
 3247SOL    HW312761   0.976   5.722   3.002 -0.0741  1.8745  1.9185
 3247SOL    MW412762   1.032   5.676   3.051  0.1628  0.3621  0.3045
 3248SOL     OW12763   1.868   3.737   6.118  0.2080  0.7638  0.1071
 3248SOL    HW212764   1.953   3.738   6.163 -0.3277 -0.3293  1.1995
 3248SOL    HW312765   1.886   3.773   6.031  2.1535 -1.1000 -0.3159
 3248SOL    MW412766   1.882   3.742   6.112  0.3940  0.3737  0.1954
 3249SOL     OW12767   6.193   1.449   1.689 -0.0422 -0.3353 -0.3685
 3249SOL    HW212768   6.167   1.357   1.700  2.0390 -0.8660  0.5659
 3249SOL    HW312769   6.112   1.498   1.705 -0.7822 -1.9105  1.1736
 3249SOL    MW412770   6.179   1.443   1.693  0.1347 -0.6131 -0.0418
 3250SOL     OW12771   0.417   0.499   6.138 -0.2459 -0.3297 -0.3454
 3250SOL    HW212772   0.419   0.578   6.192  1.3867 -0.8460  0.4336
 3250SOL    HW312773   0.334   0.504   6.091 -1.3112  0.6159  1.5172
 3250SOL    MW412774   0.407   0.510   6.139 -0.1711 -0.2731  0.0032
 3251SOL     OW12775   4.942   2.366   3.315 -0.6102 -0.1861  0.3489
 3251SOL    HW212776   4.863   2.419   3.310  0.2048  0.9395 -1.4468
 3251SOL    HW312777   4.912   2.277   3.294 -1.6005 -0.0442  1.0752
 3251SOL    MW412778   4.928   2.361   3.312 -0.6333 -0.0189  0.2078
 3252SOL     OW12779   1.558   3.824   2.011  0.2816  0.4080 -0.4558
 3252SOL    HW212780   1.624   3.866   1.955 -1.5245  3.8622 -0.2626
 3252SOL    HW312781   1.609   3.765   2.067  2.8267  0.8817 -2.0778
 3252SOL    MW412782   1.574   3.821   2.011  0.3791  0.9262 -0.6443
 3253SOL     OW12783   0.433   3.338   3.847  0.1750  0.0268  0.0211
 3253SOL    HW212784   0.396   3.341   3.935 -1.1275 -0.0546 -0.4948
 3253SOL    HW312785   0.520   3.376   3.856  0.1563 -0.1868  1.3776
 3253SOL    MW412786   0.440   3.343   3.860  0.0007 -0.0121  0.1320
 3254SOL     OW12787   1.249   4.303   6.239 -0.0600 -0.1807  1.0840
 3254SOL    HW212788   1.166   4.292   6.287 -0.0635  1.7465  1.6257
 3254SOL    HW312789   1.315   4.314   6.308  0.2645  0.5571  0.6718
 3254SOL    MW412790   1.246   4.303   6.254 -0.0176  0.1709  1.1011
 3255SOL     OW12791   0.180   2.622   2.274 -0.4167 -0.1582 -0.3385
 3255SOL    HW212792   0.145   2.683   2.208 -1.4520  0.5177  0.8020
 3255SOL    HW312793   0.161   2.536   2.238 -1.5546  0.2019 -0.6618
 3255SOL    MW412794   0.173   2.619   2.260 -0.7034 -0.0215 -0.2307
 3256SOL     OW12795   0.731   1.522   3.826  0.0894 -0.4166 -0.0227
 3256SOL    HW212796   0.652   1.496   3.873  0.5894 -0.6864  0.6997
 3256SOL    HW312797   0.703   1.535   3.736 -0.6129 -1.3153  0.0511
 3256SOL    MW412798   0.717   1.520   3.820  0.0627 -0.5707  0.0823
 3257SOL     OW12799   2.428   3.832   0.031  0.5564  0.2511  0.5478
 3257SOL    HW212800   2.347   3.867   0.069 -0.3931  0.1883 -1.3057
 3257SOL    HW312801   2.449   3.893  -0.039  0.0123 -1.7156 -1.4273
 3257SOL    MW412802   2.420   3.845   0.027  0.3594 -0.0166  0.0427
 3258SOL     OW12803   2.854   0.763   1.639  0.2491 -0.0359  0.9450
 3258SOL    HW212804   2.920   0.772   1.569  0.0967 -1.2835  0.6076
 3258SOL    HW312805   2.859   0.845   1.688  0.4467  0.8350 -0.4607
 3258SOL    MW412806   2.863   0.775   1.636  0.2551 -0.0856  0.7150
 3259SOL     OW12807   5.372   0.412   6.283  0.7436 -0.2443 -0.4736
 3259SOL    HW212808   5.337   0.414   6.372 -0.0540 -0.8005 -0.7632
 3259SOL    HW312809   5.300   0.442   6.227  1.0953 -0.2980 -0.9680
 3259SOL    MW412810   5.358   0.416   6.287  0.6848 -0.3248 -0.5771
 3260SOL     OW12811   5.733   5.289   3.401  0.1357  0.0557 -0.0617
 3260SOL    HW212812   5.753   5.273   3.494 -1.5877  0.4075  0.4038
 3260SOL    HW312813   5.641   5.267   3.393 -0.1931  1.7511 -1.3067
 3260SOL    MW412814   5.724   5.284   3.412 -0.1351  0.3258 -0.1645
 3261SOL     OW12815   4.846   2.306   2.003  0.0442  0.4900  0.3816
 3261SOL    HW212816   4.897   2.303   2.084  0.8328 -1.8218 -0.1203
 3261SOL    HW312817   4.910   2.287   1.934 -0.9962  0.3342 -0.5663
 3261SOL    MW412818   4.862   2.303   2.005  0.0110  0.1644  0.1903
 3262SOL     OW12819   3.011   5.412   5.323  0.5511  0.3613 -0.9814
 3262SOL    HW212820   3.033   5.405   5.230 -0.8423 -0.7825 -1.2721
 3262SOL    HW312821   3.047   5.496   5.350  0.9469  0.7386 -2.5679
 3262SOL    MW412822   3.019   5.422   5.314  0.4195  0.2601 -1.2291
 3263SOL     OW12823   4.437   1.144   5.823  0.5592 -0.0498 -0.0711
 3263SOL    HW212824   4.343   1.137   5.842  0.4758 -0.0170 -0.4434
 3263SOL    HW312825   4.467   1.053   5.816  0.6133 -0.0603  0.3241
 3263SOL    MW412826   4.428   1.131   5.824  0.5554 -0.0469 -0.0681
 3264SOL     OW12827   4.036   2.265   0.817 -0.3840  0.2019  0.2842
 3264SOL    HW212828   3.965   2.328   0.832 -0.2234  0.5170 -0.2673
 3264SOL    HW312829   4.017   2.193   0.877 -0.1162  1.1406  1.5412
 3264SOL    MW412830   4.024   2.264   0.827 -0.3275  0.3674  0.3773
 3265SOL     OW12831   2.868   1.974   3.516 -0.3068  0.2822  0.4369
 3265SOL    HW212832   2.795   2.034   3.502  0.2203  1.0755  1.0060
 3265SOL    HW312833   2.842   1.922   3.592 -1.0853 -0.7478 -0.4986
 3265SOL    MW412834   2.855   1.975   3.524 -0.3400  0.2509  0.3885
 3266SOL     OW12835   2.831   1.911   3.971 -0.3838 -0.3685  0.0662
 3266SOL    HW212836   2.908   1.968   3.979 -0.0601 -0.6273 -0.9994
 3266SOL    HW312837   2.840   1.848   4.042 -0.2968  0.3926  0.7413
 3266SOL    MW412838   2.842   1.910   3.981 -0.3296 -0.3023  0.0147
 3267SOL     OW12839   3.033   3.613   0.923  0.1930  0.2126  0.1502
 3267SOL    HW212840   3.034   3.646   0.833 -0.7728 -3.2849 -1.3051
 3267SOL    HW312841   3.119   3.573   0.934  0.7121  1.5492  1.2562
 3267SOL    MW412842   3.044   3.612   0.912  0.1341 -0.0725  0.1041
 3268SOL     OW12843   4.581   1.018   4.575  0.2110 -0.3510  0.7129
 3268SOL    HW212844   4.518   1.061   4.632  1.2951  1.4058  0.6682
 3268SOL    HW312845   4.639   0.970   4.634 -1.5676 -2.7064  0.7109
 3268SOL    MW412846   4.581   1.017   4.590  0.1194 -0.4300  0.7067
 3269SOL     OW12847   0.559   4.488   0.331 -0.1536 -0.4529  0.1990
 3269SOL    HW212848   0.554   4.512   0.238 -0.7837  0.5847  0.4925
 3269SOL    HW312849   0.506   4.408   0.338 -0.1909 -0.4750 -0.3086
 3269SOL    MW412850   0.551   4.480   0.320 -0.2416 -0.3189  0.1707
 3270SOL     OW12851   0.660   2.513   0.647  0.2672 -0.0723  0.0618
 3270SOL    HW212852   0.724   2.453   0.608  0.6108  0.0768  0.3841
 3270SOL    HW312853   0.637   2.471   0.730 -0.7060 -0.5534 -0.4438
 3270SOL    MW412854   0.665   2.499   0.653  0.1842 -0.1161  0.0376
 3271SOL     OW12855   1.880   6.398   3.503 -0.2738  0.3888 -0.1304
 3271SOL    HW212856   1.819   6.472   3.510 -0.0967  0.5759 -0.5201
 3271SOL    HW312857   1.932   6.402   3.584 -0.2460  0.7129 -0.1610
 3271SOL    MW412858   1.879   6.408   3.515 -0.2468  0.4562 -0.1859
 3272SOL     OW12859   5.655   0.830   1.043  0.1786 -0.1658 -0.0996
 3272SOL    HW212860   5.579   0.886   1.056  1.6945  2.5781 -1.9800
 3272SOL    HW312861   5.715   0.854   1.114  1.0434  1.0722 -1.2097
 3272SOL    MW412862   5.653   0.841   1.054  0.4927  0.3596 -0.4942
 3273SOL     OW12863   5.052   5.016   4.733 -0.0036  0.2181 -0.6316
 3273SOL    HW212864   5.008   5.050   4.654  1.2610  0.7214 -1.1376
 3273SOL    HW312865   5.100   4.939   4.702 -0.4930 -0.3237 -0.0784
 3273SOL    MW412866   5.052   5.010   4.718  0.0986  0.2130 -0.6253
 3274SOL     OW12867   5.490   5.243   4.103 -0.0759  0.0084 -0.0704
 3274SOL    HW212868   5.415   5.238   4.163 -1.8134 -1.2037 -2.1747
 3274SOL    HW312869   5.450   5.249   4.016  2.3191 -0.0235 -1.2440
 3274SOL    MW412870   5.475   5.243   4.100  0.0108 -0.1557 -0.5029
 3275SOL     OW12871   4.546   6.045   2.359 -0.5165 -0.1569  0.4571
 3275SOL    HW212872   4.529   6.098   2.437  2.1935  0.5950  0.6291
 3275SOL    HW312873   4.543   6.107   2.286 -0.3553 -0.3603  0.2752
 3275SOL    MW412874   4.543   6.060   2.360 -0.1377 -0.0846  0.4558
 3276SOL     OW12875   1.523   0.555   5.761 -0.2738 -0.4860  0.0656
 3276SOL    HW212876   1.565   0.632   5.800 -1.0951  0.5171 -0.9498
 3276SOL    HW312877   1.587   0.485   5.773  0.7291  0.4651  0.5637
 3276SOL    MW412878   1.537   0.556   5.768 -0.2499 -0.2282 -0.0027
 3277SOL     OW12879   2.507   4.179   5.547 -0.0603 -0.2492 -0.0773
 3277SOL    HW212880   2.533   4.088   5.559 -0.8611 -0.2500  2.0483
 3277SOL    HW312881   2.564   4.228   5.606 -0.8392  0.4117  0.1402
 3277SOL    MW412882   2.518   4.174   5.557 -0.2687 -0.1621  0.2318
 3278SOL     OW12883   2.751   0.885   5.127  0.0824  0.5209  0.3224
 3278SOL    HW212884   2.762   0.963   5.182  0.3912 -0.6340  1.9402
 3278SOL    HW312885   2.820   0.826   5.154 -1.1656 -0.9983  0.3225
 3278SOL    MW412886   2.761   0.888   5.138 -0.0415  0.1680  0.5359
 3279SOL     OW12887   4.226   2.050   3.474 -0.0952 -0.5080  0.3006
 3279SOL    HW212888   4.291   2.116   3.450  1.1226 -1.8073 -0.0994
 3279SOL    HW312889   4.166   2.096   3.533  0.9736  0.8263  0.3974
 3279SOL    MW412890   4.227   2.065   3.478  0.2065 -0.5034  0.2606
 3280SOL     OW12891   1.925   1.064   3.151  0.0969  0.5699 -0.6210
 3280SOL    HW212892   1.927   1.024   3.238  1.7096 -1.0443 -1.3455
 3280SOL    HW312893   1.983   1.140   3.158  0.8666 -0.0258 -0.4907
 3280SOL    MW412894   1.933   1.069   3.163  0.4113  0.2783 -0.6994
 3281SOL     OW12895   5.292   1.251   1.244 -0.4881 -0.3887 -0.4515
 3281SOL    HW212896   5.375   1.205   1.234 -0.5384 -0.2728 -1.4974
 3281SOL    HW312897   5.225   1.182   1.238 -0.4833 -1.0366  3.6163
 3281SOL    MW412898   5.294   1.236   1.242 -0.4941 -0.4589 -0.0528
 3282SOL     OW12899   4.190   3.611   0.839 -0.0575  0.1684  0.4028
 3282SOL    HW212900   4.150   3.578   0.758  1.4776 -0.7034 -0.0385
 3282SOL    HW312901   4.281   3.630   0.815  0.9154 -1.6904  2.2920
 3282SOL    MW412902   4.197   3.609   0.825  0.2734 -0.1919  0.5938
 3283SOL     OW12903   1.116   2.077   2.586  0.5321 -0.1511 -0.2199
 3283SOL    HW212904   1.041   2.018   2.579  1.6517 -1.5656 -0.7800
 3283SOL    HW312905   1.106   2.117   2.672 -0.8461 -0.3262 -0.2741
 3283SOL    MW412906   1.105   2.074   2.597  0.4980 -0.3609 -0.3010
 3284SOL     OW12907   1.232   5.969   4.276 -0.8557  0.3297  0.2953
 3284SOL    HW212908   1.171   5.918   4.224 -0.2694 -1.3609  1.1894
 3284SOL    HW312909   1.184   6.049   4.299 -2.5952 -0.7931  0.6785
 3284SOL    MW412910   1.218   5.973   4.272 -1.0078 -0.0415  0.4638
 3285SOL     OW12911   3.580   1.998   0.651  0.3599 -0.3870  0.0149
 3285SOL    HW212912   3.560   2.084   0.688  1.0810 -1.0510  2.0987
 3285SOL    HW312913   3.648   2.015   0.586  0.1717  0.6561  0.0748
 3285SOL    MW412914   3.587   2.011   0.647  0.4302 -0.3370  0.2977
 3286SOL     OW12915   6.354   2.279   0.373  0.5745  0.2913  0.1510
 3286SOL    HW212916   6.269   2.266   0.331  0.9707 -0.4208 -0.4388
 3286SOL    HW312917   6.359   2.211   0.440  0.3135  0.8877  0.7949
 3286SOL    MW412918   6.343   2.269   0.376  0.5924  0.2760  0.1581
 3287SOL     OW12919   1.452   6.281   0.912  0.1597 -0.1425  0.7458
 3287SOL    HW212920   1.494   6.273   0.826  0.1313  0.5859  0.6520
 3287SOL    HW312921   1.525   6.282   0.974  0.4611  2.5364  0.4903
 3287SOL    MW412922   1.467   6.280   0.909  0.1957  0.3071  0.6997
 3288SOL     OW12923   3.894   6.077   0.468 -0.2521  0.4541 -0.2694
 3288SOL    HW212924   3.895   6.111   0.558 -0.6286  3.0924 -1.1577
 3288SOL    HW312925   3.801   6.067   0.448 -0.1885  0.4570 -0.5659
 3288SOL    MW412926   3.882   6.080   0.478 -0.2934  0.8026 -0.4257
 3289SOL     OW12927   4.229   1.083   3.903 -0.0372  0.0549 -0.2155
 3289SOL    HW212928   4.167   1.154   3.883 -0.3097  0.3320  1.4060
 3289SOL    HW312929   4.174   1.006   3.918  0.1449 -0.1416 -0.5643
 3289SOL    MW412930   4.214   1.083   3.903 -0.0491  0.0655 -0.0476
 3290SOL     OW12931   3.257   0.700   3.829  0.1804  0.1051  0.4313
 3290SOL    HW212932   3.205   0.756   3.773 -1.6725 -1.6073  0.3434
 3290SOL    HW312933   3.259   0.746   3.914 -1.4808  0.2324  0.4311
 3290SOL    MW412934   3.251   0.713   3.833 -0.2832 -0.1041  0.4196
 3291SOL     OW12935   2.179   3.550   3.829  0.1802 -0.2180  0.0886
 3291SOL    HW212936   2.204   3.464   3.796  0.1960 -0.5889  1.0344
 3291SOL    HW312937   2.195   3.610   3.756  1.7410 -0.7603 -0.0470
 3291SOL    MW412938   2.184   3.547   3.815  0.3882 -0.3385  0.1955
 3292SOL     OW12939   0.028   3.658   4.083 -0.1248  0.1601 -0.4804
 3292SOL    HW212940   0.056   3.635   4.172  0.6550 -0.0005 -0.7621
 3292SOL    HW312941   0.054   3.583   4.030 -1.6489 -0.2708 -0.6718
 3292SOL    MW412942   0.035   3.645   4.088 -0.2230  0.0821 -0.5428
 3293SOL     OW12943   5.368   6.316   4.643 -0.0667 -0.0757  0.1693
 3293SOL    HW212944   5.321   6.400   4.642 -1.5520 -0.8561 -0.7856
 3293SOL    HW312945   5.321   6.262   4.579  1.2019 -1.4558  0.3447
 3293SOL    MW412946   5.355   6.320   4.635 -0.0953 -0.3607  0.0664
 3294SOL     OW12947   4.481   0.577   2.269 -0.2323  0.1363 -0.5279
 3294SOL    HW212948   4.430   0.522   2.210 -0.7213  0.6887 -0.6340
 3294SOL    HW312949   4.425   0.654   2.285  0.1433  0.2808  0.1656
 3294SOL    MW412950   4.467   0.580   2.264 -0.2473  0.2283 -0.4504
 3295SOL     OW12951   2.384   4.440   1.020 -0.0812  0.2969  0.5657
 3295SOL    HW212952   2.421   4.464   1.105  0.6793 -0.4301  0.4507
 3295SOL    HW312953   2.403   4.514   0.963 -0.6820  0.8300  1.0500
 3295SOL    MW412954   2.391   4.453   1.023 -0.0601  0.2713  0.6144
 3296SOL     OW12955   4.466   4.360   5.216 -0.3450  0.1949  0.5276
 3296SOL    HW212956   4.384   4.387   5.257 -0.1929  0.1493  0.8647
 3296SOL    HW312957   4.521   4.332   5.289 -1.2083 -3.0718  0.0623
 3296SOL    MW412958   4.462   4.360   5.231 -0.4388 -0.2421  0.5107
 3297SOL     OW12959   1.978   1.527   4.853 -0.1476 -0.2463 -0.3645
 3297SOL    HW212960   1.909   1.462   4.867  1.1044 -1.1778  2.3734
 3297SOL    HW312961   1.938   1.610   4.879 -0.6223 -0.5648 -0.0617
 3297SOL    MW412962   1.964   1.529   4.859 -0.0451 -0.4112  0.0367
 3298SOL     OW12963   5.401   3.943   4.658  0.2057  0.0239 -0.6554
 3298SOL    HW212964   5.339   3.915   4.591 -1.4056  0.3258  0.6259
 3298SOL    HW312965   5.419   3.863   4.708 -0.5076  0.2481 -0.0109
 3298SOL    MW412966   5.395   3.929   4.656 -0.1010  0.0933 -0.4013
 3299SOL     OW12967   2.154   2.599   4.941  0.2083 -0.1053  0.4175
 3299SOL    HW212968   2.124   2.532   5.002 -1.1772  0.5808  0.5137
 3299SOL    HW312969   2.223   2.646   4.988  1.0300 -1.2913  0.4321
 3299SOL    MW412970   2.159   2.596   4.955  0.1339 -0.1713  0.4321
 3300SOL     OW12971   5.649   0.950   3.513  0.0011 -0.3605  0.4972
 3300SOL    HW212972   5.723   0.909   3.467  0.0307  0.0283  0.1886
 3300SOL    HW312973   5.643   0.903   3.596 -0.3838 -1.4312 -0.1251
 3300SOL    MW412974   5.658   0.939   3.518 -0.0458 -0.4505  0.3744
 3301SOL     OW12975   3.940   2.860   5.824  0.7609 -0.4330  0.2061
 3301SOL    HW212976   3.953   2.942   5.776  1.4330 -0.0249  1.0553
 3301SOL    HW312977   3.858   2.872   5.871 -0.0277 -0.9275 -0.9848
 3301SOL    MW412978   3.931   2.872   5.824  0.7455 -0.4444  0.1610
 3302SOL     OW12979   4.834   3.300   6.394 -0.1094 -0.4476 -0.0883
 3302SOL    HW212980   4.874   3.345   6.320  0.2064 -0.9984 -0.2577
 3302SOL    HW312981   4.899   3.236   6.421  1.3818  2.1030  3.0157
 3302SOL    MW412982   4.848   3.298   6.388  0.1290 -0.1837  0.2989
 3303SOL     OW12983   3.213   1.934   5.040  0.1718 -0.0576  0.1848
 3303SOL    HW212984   3.175   1.954   4.954  0.0620  0.2900  0.3124
 3303SOL    HW312985   3.176   1.999   5.099 -0.8005 -1.1068  0.7769
 3303SOL    MW412986   3.203   1.945   5.036  0.0290 -0.1502  0.2798
 3304SOL     OW12987   6.132   1.807   4.513 -0.4088  0.3887  0.1497
 3304SOL    HW212988   6.116   1.784   4.422 -1.6717  0.7312  0.2609
 3304SOL    HW312989   6.217   1.851   4.512  0.0412 -0.4530 -0.6981
 3304SOL    MW412990   6.141   1.810   4.501 -0.5160  0.3229  0.0525
 3305SOL     OW12991   4.100   0.492   0.513  0.2628  0.0391 -0.1268
 3305SOL    HW212992   4.126   0.491   0.421  0.5557 -0.0808 -0.0445
 3305SOL    HW312993   4.080   0.400   0.533  2.9557 -0.4535  0.6914
 3305SOL    MW412994   4.101   0.479   0.504  0.6567 -0.0417 -0.0080
 3306SOL     OW12995   4.344   3.361   0.678  0.5390 -0.5641 -0.5028
 3306SOL    HW212996   4.351   3.334   0.770  0.2570  0.4564 -0.1730
 3306SOL    HW312997   4.258   3.328   0.650 -1.3343  2.6754  0.8689
 3306SOL    MW412998   4.334   3.353   0.687  0.2546 -0.0020 -0.2783
 3307SOL     OW12999   6.388   2.170   1.392  0.1261  0.0776 -0.6734
 3307SOL    HW213000   6.439   2.140   1.467 -3.4456 -0.9120  1.5936
 3307SOL    HW313001   6.376   2.091   1.338  1.9000  0.5869 -1.9012
 3307SOL    MW413002   6.393   2.156   1.395 -0.1111  0.0142 -0.5363
 3308SOL     OW13003   3.052   4.232   2.410  0.5667 -0.5940 -0.1684
 3308SOL    HW213004   3.074   4.237   2.503  1.1005  0.0222 -0.3163
 3308SOL    HW313005   3.069   4.141   2.387 -0.0356 -0.8680  0.4425
 3308SOL    MW413006   3.057   4.221   2.419  0.5577 -0.5489 -0.1073
 3309SOL     OW13007   4.571   2.070   6.390  0.7465  0.1985  0.1846
 3309SOL    HW213008   4.560   2.138   6.323 -2.0913 -1.0001 -0.7166
 3309SOL    HW313009   4.610   1.996   6.342 -1.3997 -0.7024 -0.2544
 3309SOL    MW413010   4.575   2.069   6.375  0.0889 -0.0785  0.0078
 3310SOL     OW13011   3.919   1.839   0.746  0.1598 -0.2439 -0.0304
 3310SOL    HW213012   3.966   1.841   0.829  0.9769 -0.1938 -0.4792
 3310SOL    HW313013   3.833   1.803   0.767  0.8029 -1.4454  0.6151
 3310SOL    MW413014   3.914   1.834   0.760  0.3524 -0.3958 -0.0045
 3311SOL     OW13015   2.543   4.519   1.868 -0.2393  0.2599  0.1791
 3311SOL    HW213016   2.525   4.459   1.795 -2.0770  1.6389 -0.5684
 3311SOL    HW313017   2.588   4.593   1.827  0.6561  0.0969  0.8368
 3311SOL    MW413018   2.547   4.521   1.853 -0.3636  0.4203  0.1672
 3312SOL     OW13019   0.873   1.298   4.941 -0.1447 -0.1144 -0.0706
 3312SOL    HW213020   0.825   1.297   4.859  1.2061 -0.5034 -0.8907
 3312SOL    HW313021   0.857   1.212   4.979 -0.0058 -0.2826 -0.3918
 3312SOL    MW413022   0.865   1.287   4.936  0.0519 -0.1879 -0.2211
 3313SOL     OW13023   3.709   3.350   0.947 -0.1536 -0.2887 -0.1033
 3313SOL    HW213024   3.631   3.315   0.906  0.1107  1.2282 -2.0082
 3313SOL    HW313025   3.765   3.378   0.875  0.5995  1.9662  1.2451
 3313SOL    MW413026   3.706   3.349   0.932 -0.0194  0.2089 -0.1767
 3314SOL     OW13027   0.874   5.406   6.011  0.4209  1.3042  0.6454
 3314SOL    HW213028   0.834   5.382   5.927 -0.4189  0.2027  1.3436
 3314SOL    HW313029   0.968   5.410   5.991  0.3312  0.1400 -0.1587
 3314SOL    MW413030   0.881   5.403   5.997  0.2983  1.0052  0.6314
 3315SOL     OW13031   2.878   6.034   5.478  0.3796  0.4733 -0.0694
 3315SOL    HW213032   2.822   5.989   5.541 -0.8090  0.3153 -1.1903
 3315SOL    HW313033   2.915   5.965   5.424 -0.0677  0.7098 -0.6942
 3315SOL    MW413034   2.876   6.019   5.479  0.1638  0.4837 -0.2997
 3316SOL     OW13035   3.381   1.832   1.739 -0.1232  0.7853  0.1098
 3316SOL    HW213036   3.449   1.863   1.799 -0.8105  1.5715  0.4811
 3316SOL    HW313037   3.378   1.898   1.670  0.5072 -0.0007 -0.7010
 3316SOL    MW413038   3.390   1.845   1.738 -0.1307  0.7854  0.0518
 3317SOL     OW13039   0.579   4.781   5.095 -0.5810 -0.3441 -0.0194
 3317SOL    HW213040   0.674   4.794   5.086 -0.6711  0.0380 -0.4184
 3317SOL    HW313041   0.570   4.730   5.176 -0.0926  0.3451  0.4834
 3317SOL    MW413042   0.591   4.776   5.105 -0.5284 -0.2028 -0.0057
 3318SOL     OW13043   6.108   2.319   3.294  0.3568  0.0782  0.2852
 3318SOL    HW213044   6.134   2.290   3.382 -1.1045  0.9434  1.0248
 3318SOL    HW313045   6.018   2.287   3.284 -0.2618  1.8263 -0.0214
 3318SOL    MW413046   6.100   2.311   3.304  0.0824  0.4230  0.3423
 3319SOL     OW13047   2.893   5.975   0.185  0.2872  0.1338  0.0476
 3319SOL    HW213048   2.802   5.948   0.172  0.6374 -1.0220 -0.1219
 3319SOL    HW313049   2.939   5.940   0.108  1.2431 -1.1365  1.1583
 3319SOL    MW413050   2.887   5.967   0.173  0.4595 -0.1863  0.1718
 3320SOL     OW13051   4.466   3.573   1.944  0.8691  0.0002 -0.0752
 3320SOL    HW213052   4.476   3.538   1.856  0.0502 -0.3686 -0.0282
 3320SOL    HW313053   4.531   3.526   1.997  1.3326  0.1933 -0.4625
 3320SOL    MW413054   4.476   3.562   1.940  0.8222 -0.0230 -0.1201
 3321SOL     OW13055   1.365   2.985   0.387 -0.3899 -0.0412  0.0084
 3321SOL    HW213056   1.404   2.918   0.331 -0.2130  0.6099 -0.6813
 3321SOL    HW313057   1.271   2.964   0.388 -0.1743 -1.0155  0.8280
 3321SOL    MW413058   1.358   2.974   0.380 -0.3381 -0.0839  0.0255
 3322SOL     OW13059   4.424   0.578   1.686 -0.2535  0.4177  0.4331
 3322SOL    HW213060   4.512   0.615   1.691 -0.0660  0.3955 -1.6333
 3322SOL    HW313061   4.365   0.652   1.700  0.0754  0.4436  1.7631
 3322SOL    MW413062   4.428   0.593   1.688 -0.1854  0.4182  0.3359
 3323SOL     OW13063   5.312   1.294   2.186  0.1762 -0.2748 -0.6232
 3323SOL    HW213064   5.406   1.305   2.190  0.4634 -2.5235  1.0097
 3323SOL    HW313065   5.297   1.233   2.114 -0.2702  1.4193 -2.0450
 3323SOL    MW413066   5.322   1.287   2.177  0.1552 -0.3480 -0.5953
 3324SOL     OW13067   3.757   2.553   5.827  0.3873  0.3828 -0.2300
 3324SOL    HW213068   3.695   2.586   5.761 -1.1786 -0.0758  0.9625
 3324SOL    HW313069   3.732   2.461   5.840 -0.6990  0.9600  2.4277
 3324SOL    MW413070   3.746   2.545   5.820  0.0374  0.3984  0.2780
 3325SOL     OW13071   0.652   3.036   3.290  0.2307 -0.1521 -0.2600
 3325SOL    HW213072   0.568   3.023   3.245  0.8909 -3.5157 -0.7750
 3325SOL    HW313073   0.716   3.040   3.219  0.6836  1.0842  0.1928
 3325SOL    MW413074   0.649   3.035   3.274  0.3776 -0.4328 -0.2682
 3326SOL     OW13075   3.945   3.987   3.388 -0.2075  0.2514 -0.2725
 3326SOL    HW213076   3.936   3.959   3.479  0.1287 -0.3265 -0.4100
 3326SOL    HW313077   3.883   4.060   3.379  0.2316  0.7397  0.5815
 3326SOL    MW413078   3.936   3.993   3.399 -0.1052  0.2396 -0.1780
 3327SOL     OW13079   2.580   1.758   3.643 -0.1984  0.2004 -0.3670
 3327SOL    HW213080   2.666   1.784   3.677 -0.3338 -1.9594  2.0294
 3327SOL    HW313081   2.524   1.754   3.721 -1.9342 -0.3986 -1.5811
 3327SOL    MW413082   2.584   1.761   3.658 -0.4453 -0.1636 -0.2110
 3328SOL     OW13083   2.695   0.862   3.359 -0.2276  0.1887  0.3863
 3328SOL    HW213084   2.756   0.923   3.317  0.7242 -1.3521 -0.5459
 3328SOL    HW313085   2.747   0.819   3.427 -1.2055  1.1905  1.8099
 3328SOL    MW413086   2.710   0.864   3.362 -0.2311  0.1176  0.4511
 3329SOL     OW13087   5.078   6.372   2.936  0.1661  0.5127 -0.9627
 3329SOL    HW213088   5.115   6.422   2.863  0.7004  0.0281 -1.0277
 3329SOL    HW313089   5.130   6.293   2.940 -0.8515 -0.1813 -1.0365
 3329SOL    MW413090   5.089   6.368   2.927  0.1024  0.3572 -0.9811
 3330SOL     OW13091   3.640   2.088   5.663  0.1025 -0.0771 -0.5147
 3330SOL    HW213092   3.668   1.997   5.658 -0.5688 -0.3148 -0.1531
 3330SOL    HW313093   3.549   2.083   5.694 -0.1717  0.6795 -1.1482
 3330SOL    MW413094   3.632   2.075   5.666 -0.0222 -0.0086 -0.5506
 3331SOL     OW13095   4.581   1.639   2.267 -0.5292 -0.1853 -0.4301
 3331SOL    HW213096   4.578   1.612   2.175 -1.1808 -0.0850 -0.4394
 3331SOL    HW313097   4.674   1.630   2.291 -0.3846 -0.3894 -1.0404
 3331SOL    MW413098   4.593   1.634   2.258 -0.5961 -0.1990 -0.5119
 3332SOL     OW13099   5.062   4.372   5.158  0.9238 -0.2702 -0.1851
 3332SOL    HW213100   4.977   4.328   5.148  0.0370  1.1622  0.7646
 3332SOL    HW313101   5.065   4.435   5.086 -0.4165  2.0966  1.7041
 3332SOL    MW413102   5.051   4.374   5.147  0.6299  0.2311  0.1894
 3333SOL     OW13103   1.234   5.779   0.010 -0.6449  0.2330  0.3071
 3333SOL    HW213104   1.145   5.810   0.024  0.1484  1.8887  2.2310
 3333SOL    HW313105   1.244   5.706   0.071 -0.7207 -0.0641 -0.0319
 3333SOL    MW413106   1.224   5.773   0.020 -0.5503  0.4123  0.5162
 3334SOL     OW13107   0.944   4.688   3.550 -0.2793  0.2805 -0.0736
 3334SOL    HW213108   0.948   4.755   3.619 -1.5569  1.8576 -1.4569
 3334SOL    HW313109   1.035   4.675   3.525  0.1433  0.2152  1.3939
 3334SOL    MW413110   0.957   4.695   3.556 -0.3921  0.4800 -0.0625
 3335SOL     OW13111   0.252   5.818   3.481 -0.5484 -0.4651  0.4142
 3335SOL    HW213112   0.216   5.878   3.546  0.7925 -0.2244  0.9848
 3335SOL    HW313113   0.202   5.737   3.492 -0.3369 -0.4374  1.7953
 3335SOL    MW413114   0.241   5.815   3.491 -0.3436 -0.4297  0.6717
 3336SOL     OW13115   5.216   2.365   0.644 -0.1851 -0.2940  0.2688
 3336SOL    HW213116   5.128   2.328   0.638 -0.0529 -0.6080  0.2287
 3336SOL    HW313117   5.207   2.438   0.705 -0.2610 -0.9695  1.0909
 3336SOL    MW413118   5.203   2.370   0.651 -0.1777 -0.4245  0.3720
 3337SOL     OW13119   0.102   5.662   1.190 -0.1385 -0.5201 -0.3731
 3337SOL    HW213120   0.186   5.624   1.162  0.0664 -0.2799 -0.0880
 3337SOL    HW313121   0.097   5.642   1.284 -0.5764 -0.8585 -0.4644
 3337SOL    MW413122   0.112   5.654   1.199 -0.1692 -0.5331 -0.3476
 3338SOL     OW13123   0.838   6.337   1.981  0.4706  0.1413 -0.7969
 3338SOL    HW213124   0.819   6.340   1.887  2.4055 -0.3541 -1.2452
 3338SOL    HW313125   0.922   6.381   1.991  1.3058 -1.5627  0.3849
 3338SOL    MW413126   0.847   6.343   1.970  0.8361 -0.1489 -0.7001
 3339SOL     OW13127   4.265   5.555   6.275  0.0436  0.5793 -0.2014
 3339SOL    HW213128   4.355   5.557   6.305  0.1343  1.9138 -0.4814
 3339SOL    HW313129   4.234   5.645   6.284 -1.4551  0.0472  0.4402
 3339SOL    MW413130   4.273   5.567   6.280 -0.1422  0.6852 -0.1537
 3340SOL     OW13131   4.665   2.270   4.003 -0.1515  0.8044  0.5233
 3340SOL    HW213132   4.593   2.207   3.999 -2.5422  3.3449 -0.5201
 3340SOL    HW313133   4.713   2.256   3.921 -0.7977  0.4527  0.1906
 3340SOL    MW413134   4.662   2.260   3.991 -0.5522  1.0932  0.3418
 3341SOL     OW13135   1.816   5.424   1.217 -0.2711  0.2666  0.3531
 3341SOL    HW213136   1.911   5.422   1.221 -0.2356 -0.2822 -0.4642
 3341SOL    HW313137   1.797   5.466   1.133 -0.7438  0.1466  0.3977
 3341SOL    MW413138   1.826   5.429   1.206 -0.3288  0.1784  0.2511
 3342SOL     OW13139   5.189   5.339   0.530 -0.2020 -0.0495  0.1608
 3342SOL    HW213140   5.212   5.335   0.437  1.2409 -1.5307  0.5266
 3342SOL    HW313141   5.099   5.308   0.535  0.1607 -1.2935 -0.6256
 3342SOL    MW413142   5.180   5.334   0.518  0.0362 -0.4090  0.1053
 3343SOL     OW13143   1.082   4.098   2.230 -0.2317 -0.0768  0.5232
 3343SOL    HW213144   1.053   4.161   2.165 -2.9001 -0.6867  1.0122
 3343SOL    HW313145   1.167   4.067   2.198  0.0674  2.0425 -0.8885
 3343SOL    MW413146   1.089   4.102   2.217 -0.5443  0.1223  0.4015
 3344SOL     OW13147   0.468   4.502   4.076  0.0685  0.1157  0.2732
 3344SOL    HW213148   0.399   4.561   4.046  0.5116  0.4302 -0.1458
 3344SOL    HW313149   0.540   4.561   4.101  1.0657 -0.2728 -1.4979
 3344SOL    MW413150   0.468   4.518   4.075  0.2585  0.1059 -0.0158
 3345SOL     OW13151   2.229   4.213   1.068 -0.5476 -0.1683  0.2560
 3345SOL    HW213152   2.240   4.167   0.985 -1.7051  0.8569 -0.4954
 3345SOL    HW313153   2.277   4.295   1.057  1.3410 -1.0204  1.5185
 3345SOL    MW413154   2.237   4.217   1.056 -0.4512 -0.1455  0.3234
 3346SOL     OW13155   3.533   2.850   3.139 -0.5335 -0.7670 -0.5464
 3346SOL    HW213156   3.565   2.786   3.202  2.4408  1.0442 -0.0339
 3346SOL    HW313157   3.492   2.918   3.193 -2.0712 -1.3202 -0.9626
 3346SOL    MW413158   3.532   2.851   3.154 -0.3439 -0.6010 -0.5337
 3347SOL     OW13159   3.821   2.298   4.251 -0.7028  0.3460  0.1398
 3347SOL    HW213160   3.831   2.377   4.304  0.1286  0.7501 -0.5957
 3347SOL    HW313161   3.846   2.324   4.163 -1.3420 -0.5082 -0.3142
 3347SOL    MW413162   3.826   2.312   4.247 -0.6775  0.2866 -0.0172
 3348SOL     OW13163   3.347   1.110   3.029  0.2548  0.4508 -0.1404
 3348SOL    HW213164   3.286   1.177   3.062 -0.5158 -0.5238  0.4863
 3348SOL    HW313165   3.404   1.091   3.103 -0.3115 -0.4418  0.0815
 3348SOL    MW413166   3.346   1.116   3.043  0.0784  0.2045 -0.0284
 3349SOL     OW13167   1.018   2.242   3.890  0.0793  0.5240  0.0244
 3349SOL    HW213168   1.094   2.300   3.880 -0.6504  1.8178  1.4617
 3349SOL    HW313169   0.943   2.299   3.876 -0.6695 -0.0093  1.6089
 3349SOL    MW413170   1.018   2.257   3.887 -0.1157  0.6243  0.4231
 3350SOL     OW13171   1.009   3.852   1.663 -0.4977  0.7977  0.1184
 3350SOL    HW213172   0.992   3.759   1.677  1.3002 -0.0564 -2.5400
 3350SOL    HW313173   1.090   3.869   1.712  1.3827 -0.1863 -2.3599
 3350SOL    MW413174   1.018   3.842   1.671 -0.0124  0.5552 -0.5594
 3351SOL     OW13175   0.393   5.777   2.664  0.4066 -0.9692 -0.0765
 3351SOL    HW213176   0.473   5.782   2.717  0.0078 -1.6909  0.6109
 3351SOL    HW313177   0.424   5.763   2.575  1.1481  1.5923 -0.3048
 3351SOL    MW413178   0.408   5.776   2.659  0.4518 -0.7265 -0.0159
 3352SOL     OW13179   5.492   1.414   3.640  0.8193 -0.1178  0.0534
 3352SOL    HW213180   5.423   1.395   3.576  0.1052 -1.8863  1.2526
 3352SOL    HW313181   5.501   1.333   3.691  2.0509  0.8801  1.5437
 3352SOL    MW413182   5.484   1.401   3.639  0.8876 -0.2195  0.4082
 3353SOL     OW13183   0.889   5.492   1.956  0.4604 -0.1272 -0.5610
 3353SOL    HW213184   0.822   5.515   1.892  0.2735 -2.4390 -1.2754
 3353SOL    HW313185   0.840   5.473   2.036  0.2039 -1.6237 -1.0299
 3353SOL    MW413186   0.873   5.492   1.958  0.4019 -0.6297 -0.7171
 3354SOL     OW13187   2.427   2.253   0.661 -0.9799  0.5680 -0.4293
 3354SOL    HW213188   2.334   2.259   0.639 -1.3749 -1.6527  0.3456
 3354SOL    HW313189   2.445   2.159   0.664  0.7326  0.8697  1.5713
 3354SOL    MW413190   2.417   2.241   0.659 -0.8061  0.3148 -0.0631
 3355SOL     OW13191   3.072   4.851   2.224 -0.7183  0.2244 -0.3069
 3355SOL    HW213192   3.050   4.886   2.310  0.8524  1.0017 -0.1804
 3355SOL    HW313193   3.031   4.911   2.162 -1.5428 -0.1261 -0.1142
 3355SOL    MW413194   3.064   4.863   2.227 -0.6199  0.2807 -0.2648
 3356SOL     OW13195   2.337   4.886   5.878  0.1156 -0.1130  0.0683
 3356SOL    HW213196   2.309   4.794   5.876  0.1491 -0.1203 -0.1272
 3356SOL    HW313197   2.299   4.924   5.799 -0.4334  0.2037  0.4775
 3356SOL    MW413198   2.328   4.879   5.867  0.0476 -0.0722  0.0965
 3357SOL     OW13199   0.436   5.925   1.101  0.5738  0.2237 -0.4660
 3357SOL    HW213200   0.454   5.887   1.187  3.0362  0.4902 -0.7919
 3357SOL    HW313201   0.440   5.850   1.041  1.8254  0.4330 -0.6710
 3357SOL    MW413202   0.439   5.910   1.105  1.0638  0.2865 -0.5361
 3358SOL     OW13203   4.162   4.698   4.475 -0.1878 -0.7921  0.2046
 3358SOL    HW213204   4.250   4.733   4.465  0.3206 -1.6192  1.4978
 3358SOL    HW313205   4.131   4.684   4.386  0.7070  0.1907 -0.2757
 3358SOL    MW413206   4.169   4.700   4.462 -0.0027 -0.7716  0.3119
 3359SOL     OW13207   1.535   0.880   0.677 -0.2648 -0.3455 -0.1263
 3359SOL    HW213208   1.486   0.829   0.741 -2.2702 -0.1384 -1.3927
 3359SOL    HW313209   1.495   0.966   0.679  1.5313  0.5350  0.3079
 3359SOL    MW413210   1.524   0.884   0.686 -0.2924 -0.2020 -0.2361
 3360SOL     OW13211   6.062   5.463   5.712  0.5627 -0.5156  0.8442
 3360SOL    HW213212   6.037   5.430   5.626  0.0404 -0.8982  1.1406
 3360SOL    HW313213   6.001   5.535   5.728 -1.3590 -2.3240  2.1712
 3360SOL    MW413214   6.051   5.468   5.702  0.2403 -0.8047  1.0584
 3361SOL     OW13215   2.611   0.868   0.299  0.0374 -0.1902  0.0390
 3361SOL    HW213216   2.588   0.787   0.345 -2.2611 -0.5562 -1.6234
 3361SOL    HW313217   2.596   0.937   0.364 -0.9430 -0.8584  0.5426
 3361SOL    MW413218   2.606   0.866   0.314 -0.3952 -0.3267 -0.1139
 3362SOL     OW13219   2.609   5.241   5.854  0.4418 -0.4746 -0.5287
 3362SOL    HW213220   2.575   5.227   5.766  0.5360 -1.8029 -0.3763
 3362SOL    HW313221   2.543   5.201   5.912  0.5744  0.0282 -0.0176
 3362SOL    MW413222   2.596   5.234   5.850  0.4718 -0.5835 -0.4411
 3363SOL     OW13223   0.302   1.906   2.126  0.6001 -0.1984  0.3963
 3363SOL    HW213224   0.321   1.815   2.150  0.9477  0.0838  1.2225
 3363SOL    HW313225   0.378   1.933   2.074  1.6794  0.3638  2.1894
 3363SOL    MW413226   0.314   1.898   2.122  0.7883 -0.0870  0.7419
 3364SOL     OW13227   2.206   4.002   3.805 -0.8063  0.7005 -0.0855
 3364SOL    HW213228   2.193   3.922   3.754 -2.0791  0.9883 -0.2514
 3364SOL    HW313229   2.266   3.976   3.875  1.1283  0.3396 -1.7756
 3364SOL    MW413230   2.212   3.988   3.808 -0.7190  0.6908 -0.3304
 3365SOL     OW13231   2.125   1.622   5.702 -0.2196 -0.3139 -0.3963
 3365SOL    HW213232   2.145   1.528   5.697  1.5111  0.0282 -0.6642
 3365SOL    HW313233   2.116   1.650   5.611  1.0810  0.1036 -0.4181
 3365SOL    MW413234   2.127   1.613   5.690  0.1803 -0.2137 -0.4345
 3366SOL     OW13235   3.690   0.596   4.529 -0.3655  0.2486  0.0351
 3366SOL    HW213236   3.741   0.574   4.608  0.4840 -2.1665 -1.1228
 3366SOL    HW313237   3.601   0.611   4.562  0.1572  0.2499  1.5553
 3366SOL    MW413238   3.685   0.595   4.544 -0.1844 -0.0699  0.0829
 3367SOL     OW13239   6.112   1.637   1.099 -0.1616 -0.1212 -0.1397
 3367SOL    HW213240   6.128   1.549   1.133 -0.7447 -0.2201 -0.1063
 3367SOL    HW313241   6.157   1.638   1.015 -0.4969 -0.6004 -0.3360
 3367SOL    MW413242   6.120   1.625   1.093 -0.2828 -0.1975 -0.1612
 3368SOL     OW13243   0.345   2.794   2.628  0.9026 -0.7293  0.7022
 3368SOL    HW213244   0.400   2.745   2.689  1.6501  0.3693  0.9278
 3368SOL    HW313245   0.366   2.759   2.542  0.9351 -1.2621  0.9259
 3368SOL    MW413246   0.355   2.783   2.625  1.0055 -0.6546  0.7615
 3369SOL     OW13247   1.334   1.602   0.082  0.4344 -0.3112 -0.1166
 3369SOL    HW213248   1.268   1.601   0.013 -0.3623 -0.9781  0.6219
 3369SOL    HW313249   1.417   1.595   0.036 -0.1268 -2.1690 -0.9862
 3369SOL    MW413250   1.336   1.601   0.067  0.2552 -0.6443 -0.1339
 3370SOL     OW13251   1.536   1.089   1.970 -0.4115 -0.0789 -0.0848
 3370SOL    HW213252   1.544   1.054   2.059 -2.4769 -4.6541 -1.4408
 3370SOL    HW313253   1.589   1.031   1.916 -0.5233  1.6011 -2.1298
 3370SOL    MW413254   1.544   1.077   1.975 -0.6988 -0.4609 -0.5335
 3371SOL     OW13255   2.081   3.365   3.197 -0.0465  0.3466  0.2879
 3371SOL    HW213256   2.099   3.404   3.111  1.2809  0.0139  0.4087
 3371SOL    HW313257   2.157   3.387   3.250 -0.3267 -0.4684  1.0393
 3371SOL    MW413258   2.093   3.373   3.192  0.0916  0.1951  0.4030
 3372SOL     OW13259   4.459   1.575   5.780  0.0738 -0.2745  0.5567
 3372SOL    HW213260   4.536   1.627   5.803 -0.8482  1.2654  0.3225
 3372SOL    HW313261   4.410   1.630   5.719  0.4149 -2.5747 -1.9966
 3372SOL    MW413262   4.463   1.589   5.775 -0.0028 -0.3748  0.1889
 3373SOL     OW13263   2.847   5.496   4.101 -0.1477  0.0181  0.4639
 3373SOL    HW213264   2.810   5.575   4.061 -0.3264  1.5793  3.4680
 3373SOL    HW313265   2.940   5.500   4.079 -0.1777  1.0087  0.4636
 3373SOL    MW413266   2.854   5.507   4.093 -0.1753  0.3548  0.8602
 3374SOL     OW13267   4.466   1.086   1.578  0.1828 -0.5905 -0.0807
 3374SOL    HW213268   4.468   1.163   1.635  0.0154 -0.8835  0.3301
 3374SOL    HW313269   4.557   1.073   1.552  0.1805 -0.1197 -0.3357
 3374SOL    MW413270   4.478   1.095   1.582  0.1604 -0.5670 -0.0601
 3375SOL     OW13271   4.119   6.305   1.072  0.2266 -0.2117 -0.9715
 3375SOL    HW213272   4.035   6.309   1.118  1.6001  0.3589  1.6834
 3375SOL    HW313273   4.184   6.295   1.142  2.4584  0.3899 -2.8417
 3375SOL    MW413274   4.117   6.304   1.088  0.7023 -0.0571 -0.8680
 3376SOL     OW13275   0.241   4.292   4.011  0.0402  0.4828  0.7861
 3376SOL    HW213276   0.252   4.385   4.029  0.2018  0.1383  2.6935
 3376SOL    HW313277   0.316   4.250   4.054 -0.5190 -0.6027  0.7445
 3376SOL    MW413278   0.252   4.298   4.019 -0.0123  0.2942  1.0323
 3377SOL     OW13279   0.613   1.669   5.297 -0.0675 -0.0938 -0.8597
 3377SOL    HW213280   0.659   1.703   5.220  3.3363  0.0931  1.0738
 3377SOL    HW313281   0.641   1.578   5.304  0.1844  0.0708  0.4944
 3377SOL    MW413282   0.623   1.662   5.288  0.4148 -0.0474 -0.4259
 3378SOL     OW13283   0.640   2.563   4.597 -0.0676 -0.4907  0.3075
 3378SOL    HW213284   0.713   2.579   4.537 -0.6490  1.0587 -0.0245
 3378SOL    HW313285   0.660   2.478   4.637  1.8385 -0.1650  0.1190
 3378SOL    MW413286   0.652   2.554   4.594  0.1072 -0.2433  0.2388
 3379SOL     OW13287   5.455   5.206   3.457  0.4298 -0.1372 -0.1644
 3379SOL    HW213288   5.444   5.169   3.544  2.7723 -0.4540  0.0617
 3379SOL    HW313289   5.411   5.143   3.399 -2.3675  0.7806  0.8222
 3379SOL    MW413290   5.447   5.193   3.461  0.3698 -0.0579 -0.0044
 3380SOL     OW13291   3.292   0.794   5.106 -0.1640 -0.2549 -0.1436
 3380SOL    HW213292   3.351   0.794   5.031 -1.3661  0.1462 -1.1208
 3380SOL    HW313293   3.306   0.709   5.148 -0.0477 -0.8217 -1.2919
 3380SOL    MW413294   3.302   0.783   5.102 -0.3073 -0.2767 -0.4240
 3381SOL     OW13295   0.613   5.087   4.594  0.2360 -0.3162  0.0498
 3381SOL    HW213296   0.554   5.120   4.663  0.5107  0.3194 -0.0095
 3381SOL    HW313297   0.685   5.150   4.592  0.4415 -0.5619 -0.5357
 3381SOL    MW413298   0.615   5.100   4.603  0.2993 -0.2647 -0.0353
 3382SOL     OW13299   5.570   3.688   0.239 -0.0039 -0.5641  0.8694
 3382SOL    HW213300   5.584   3.731   0.155 -0.9276 -0.5755  0.7017
 3382SOL    HW313301   5.645   3.715   0.292 -0.2788  0.8261  0.5880
 3382SOL    MW413302   5.582   3.697   0.235 -0.1621 -0.3822  0.8101
 3383SOL     OW13303   4.370   3.268   2.935 -0.0100  0.2550  0.3728
 3383SOL    HW213304   4.348   3.238   2.847 -0.7699 -0.5492  0.8215
 3383SOL    HW313305   4.345   3.196   2.992 -0.7146  1.2539  1.3791
 3383SOL    MW413306   4.364   3.255   2.931 -0.2032  0.2807  0.5647
 3384SOL     OW13307   5.129   6.277   5.880  0.3551 -0.2555  0.8326
 3384SOL    HW213308   5.192   6.217   5.919  0.3504  0.6063  2.2263
 3384SOL    HW313309   5.126   6.351   5.940 -1.5335  0.0027  0.4678
 3384SOL    MW413310   5.137   6.279   5.893  0.1053 -0.1077  0.9683
 3385SOL     OW13311   4.914   5.454   5.785 -0.0277 -0.5502  0.6549
 3385SOL    HW213312   4.879   5.537   5.818 -0.2533  0.3762 -1.6929
 3385SOL    HW313313   4.836   5.407   5.755  0.3216  0.0114 -1.3385
 3385SOL    MW413314   4.899   5.459   5.785 -0.0114 -0.3539  0.0821
 3386SOL     OW13315   3.284   2.852   1.738  0.1875  0.1127 -0.2543
 3386SOL    HW213316   3.343   2.799   1.791 -0.4561 -2.1629 -1.6733
 3386SOL    HW313317   3.341   2.898   1.677  0.8091  1.6806  1.4081
 3386SOL    MW413318   3.299   2.851   1.737  0.1846  0.0193 -0.2222
 3387SOL     OW13319   5.372   0.911   3.890  0.2046 -0.1765  0.0357
 3387SOL    HW213320   5.382   0.895   3.984 -0.1170  0.9349  0.2767
 3387SOL    HW313321   5.281   0.939   3.880  1.0263  2.7100 -0.1190
 3387SOL    MW413322   5.361   0.912   3.901  0.2706  0.3510  0.0471
 3388SOL     OW13323   0.733   3.261   2.468  0.6760  0.2795  0.9094
 3388SOL    HW213324   0.675   3.195   2.506 -1.5793  1.4633 -0.2513
 3388SOL    HW313325   0.703   3.270   2.377  0.1883  3.5438  1.2582
 3388SOL    MW413326   0.722   3.254   2.461  0.3141  0.8664  0.8022
 3389SOL     OW13327   3.371   5.980   4.810  0.2160  0.0438  0.8108
 3389SOL    HW213328   3.436   5.936   4.865  2.6644  2.3078 -0.0876
 3389SOL    HW313329   3.358   5.920   4.736  2.0508 -0.0604  0.5266
 3389SOL    MW413330   3.378   5.966   4.808  0.7811  0.3287  0.6548
 3390SOL     OW13331   4.129   3.266   0.546  0.5223  0.0447 -0.0989
 3390SOL    HW213332   4.104   3.218   0.467  1.3340  1.2502 -1.1237
 3390SOL    HW313333   4.081   3.348   0.540 -0.2983 -0.2982  1.2746
 3390SOL    MW413334   4.119   3.270   0.535  0.5211  0.1585 -0.0529
 3391SOL     OW13335   4.581   1.315   3.183 -0.3595  0.1950 -0.2761
 3391SOL    HW213336   4.621   1.332   3.268  2.2350  0.6148 -1.4516
 3391SOL    HW313337   4.522   1.241   3.198  0.7543 -0.3760  1.6935
 3391SOL    MW413338   4.579   1.307   3.196  0.1298  0.1751 -0.1713
 3392SOL     OW13339   3.580   3.971   4.505  0.0612 -1.0922 -0.3616
 3392SOL    HW213340   3.667   3.957   4.543  0.4320 -0.4227 -0.9424
 3392SOL    HW313341   3.597   4.009   4.419 -0.8253  0.0893 -0.0369
 3392SOL    MW413342   3.594   3.974   4.499 -0.0069 -0.8480 -0.3954
 3393SOL     OW13343   3.454   1.643   1.526 -0.1933 -0.1404 -0.3801
 3393SOL    HW213344   3.545   1.672   1.522 -1.2198  3.4233 -0.9677
 3393SOL    HW313345   3.419   1.683   1.606 -0.7405 -3.5879  1.3302
 3393SOL    MW413346   3.461   1.652   1.536 -0.4009 -0.1250 -0.2320
 3394SOL     OW13347   6.039   1.887   0.386  0.1125 -0.0884  0.6343
 3394SOL    HW213348   6.071   1.807   0.427  0.5556 -0.9059 -1.2089
 3394SOL    HW313349   5.971   1.857   0.325 -0.7865  1.1183  1.0013
 3394SOL    MW413350   6.034   1.872   0.384  0.0524 -0.0371  0.4396
 3395SOL     OW13351   3.486   3.199   0.864 -0.7833  0.2808  0.3202
 3395SOL    HW213352   3.423   3.249   0.813  0.3462  1.1548 -0.2730
 3395SOL    HW313353   3.533   3.146   0.800  1.1707  1.9521  0.2330
 3395SOL    MW413354   3.484   3.199   0.849 -0.3765  0.6166  0.2304
 3396SOL     OW13355   1.372   2.712   4.527 -0.3176  0.0275  0.0728
 3396SOL    HW213356   1.418   2.722   4.444  0.3072  0.7266  0.4899
 3396SOL    HW313357   1.417   2.640   4.571  1.3579  1.6142  1.0856
 3396SOL    MW413358   1.384   2.704   4.522 -0.0141  0.3290  0.2614
 3397SOL     OW13359   0.766   5.264   5.769  0.9624  0.2044  0.1927
 3397SOL    HW213360   0.783   5.170   5.767  0.0294 -0.0301  1.6416
 3397SOL    HW313361   0.676   5.273   5.737 -0.2784  0.1694  3.3308
 3397SOL    MW413362   0.756   5.253   5.764  0.6756  0.1688  0.7979
 3398SOL     OW13363   5.029   0.456   5.558  0.0691 -0.4928 -0.6826
 3398SOL    HW213364   5.039   0.387   5.623  0.5523 -1.2053 -1.5041
 3398SOL    HW313365   5.114   0.461   5.514  0.1646  0.8677 -0.4164
 3398SOL    MW413366   5.042   0.448   5.561  0.1454 -0.4073 -0.7559
 3399SOL     OW13367   4.303   0.424   5.261  0.5227  0.2480  0.1049
 3399SOL    HW213368   4.397   0.430   5.244  0.2949  0.4314 -1.1554
 3399SOL    HW313369   4.277   0.514   5.280  0.6683  0.1331  0.8835
 3399SOL    MW413370   4.312   0.437   5.261  0.5118  0.2570  0.0414
 3400SOL     OW13371   6.189   2.891   4.228  0.7669 -0.1894  0.0740
 3400SOL    HW213372   6.263   2.836   4.204  0.1108 -1.8188  1.5946
 3400SOL    HW313373   6.217   2.936   4.308  0.7305  0.5404 -0.3103
 3400SOL    MW413374   6.202   2.890   4.235  0.6756 -0.3081  0.2239
 3401SOL     OW13375   0.238   0.894   3.988  0.2428 -0.0177  0.0091
 3401SOL    HW213376   0.165   0.868   3.932  0.2728  0.8932 -0.4777
 3401SOL    HW313377   0.267   0.813   4.030 -1.1522 -0.3714  0.3469
 3401SOL    MW413378   0.232   0.880   3.986  0.0627  0.0558 -0.0106
 3402SOL     OW13379   6.200   2.118   4.734  0.1813  0.1082 -0.2653
 3402SOL    HW213380   6.233   2.092   4.648 -0.2182 -1.8197  0.1074
 3402SOL    HW313381   6.162   2.204   4.720  1.3772  0.4555 -1.6862
 3402SOL    MW413382   6.199   2.126   4.720  0.2864 -0.1003 -0.4036
 3403SOL     OW13383   6.417   2.749   4.147  0.4682 -0.2043 -0.5329
 3403SOL    HW213384   6.382   2.660   4.140  0.0044 -0.1362  0.6448
 3403SOL    HW313385   6.376   2.796   4.074 -1.0989 -0.4021  0.1833
 3403SOL    MW413386   6.407   2.743   4.136  0.2002 -0.2214 -0.2830
 3404SOL     OW13387   3.375   1.415   0.611 -0.0760  0.4312  0.1862
 3404SOL    HW213388   3.409   1.326   0.598  0.0165  0.6841 -1.5546
 3404SOL    HW313389   3.302   1.404   0.672 -0.0371 -0.8290  0.0354
 3404SOL    MW413390   3.370   1.402   0.617 -0.0587  0.2983 -0.0634
 3405SOL     OW13391   2.524   4.152   2.510 -0.1567  0.1544  0.0835
 3405SOL    HW213392   2.452   4.126   2.452 -0.6547  1.1645  0.2329
 3405SOL    HW313393   2.603   4.135   2.459 -0.5533  0.2195 -0.5667
 3405SOL    MW413394   2.525   4.146   2.496 -0.2747  0.2963  0.0174
 3406SOL     OW13395   0.383   1.390   0.776 -0.7858 -0.0278 -0.0821
 3406SOL    HW213396   0.328   1.411   0.851 -0.6987  1.2856 -0.3656
 3406SOL    HW313397   0.334   1.421   0.700 -0.0382  0.3895 -0.4061
 3406SOL    MW413398   0.370   1.397   0.776 -0.6757  0.2006 -0.1623
 3407SOL     OW13399   6.203   5.710   6.046 -0.2963  0.9929  0.7387
 3407SOL    HW213400   6.222   5.617   6.058 -1.7650  0.2177 -1.9894
 3407SOL    HW313401   6.289   5.752   6.048  0.4965 -0.5525  1.1584
 3407SOL    MW413402   6.217   5.703   6.048 -0.3855  0.6867  0.4342
 3408SOL     OW13403   6.133   0.014   4.330  0.1046  0.1432 -0.8712
 3408SOL    HW213404   6.055  -0.021   4.288  0.1245  0.1902 -0.9471
 3408SOL    HW313405   6.098   0.072   4.398  0.0743  0.4485 -1.1449
 3408SOL    MW413406   6.118   0.017   4.334  0.1032  0.1897 -0.9173
 3409SOL     OW13407   0.374   1.822   2.726 -0.0000 -0.5062  0.0225
 3409SOL    HW213408   0.280   1.824   2.709 -0.0222 -4.4904 -1.2699
 3409SOL    HW313409   0.382   1.814   2.821 -1.1549 -2.3289  0.0049
 3409SOL    MW413410   0.363   1.821   2.736 -0.1553 -1.2724 -0.1503
 3410SOL     OW13411   5.702   5.645   4.961  0.0642 -0.0758  0.0293
 3410SOL    HW213412   5.678   5.686   4.878 -1.1381  0.3713  0.5795
 3410SOL    HW313413   5.654   5.694   5.027  0.9034 -0.5098  0.9883
 3410SOL    MW413414   5.693   5.657   4.959  0.0163 -0.0741  0.2285
 3411SOL     OW13415   1.792   3.834   3.742 -0.4258 -0.2818  0.3731
 3411SOL    HW213416   1.797   3.765   3.675  1.1170 -1.5329  1.6759
 3411SOL    HW313417   1.739   3.795   3.812  2.1975 -1.1231  2.0567
 3411SOL    MW413418   1.785   3.820   3.742  0.1239 -0.5579  0.7671
 3412SOL     OW13419   2.147   3.037   0.538  0.0674  0.7577  0.1378
 3412SOL    HW213420   2.129   3.042   0.632  0.1475  0.3236  0.1793
 3412SOL    HW313421   2.062   3.049   0.497 -0.3609 -1.2214  0.3319
 3412SOL    MW413422   2.134   3.039   0.545  0.0215  0.4393  0.1689
 3413SOL     OW13423   3.697   4.404   3.622  0.3570 -0.3681 -0.5649
 3413SOL    HW213424   3.676   4.466   3.553 -1.0288 -0.4697 -0.2674
 3413SOL    HW313425   3.790   4.419   3.641  0.0529  1.6059 -0.5004
 3413SOL    MW413426   3.706   4.414   3.616  0.1341 -0.1211 -0.5172
 3414SOL     OW13427   1.427   5.476   4.201  0.3384  0.4373  0.2056
 3414SOL    HW213428   1.406   5.568   4.220 -0.1040  0.5739 -0.8674
 3414SOL    HW313429   1.412   5.467   4.107  1.9258 -0.3424 -0.0058
 3414SOL    MW413430   1.422   5.487   4.191  0.4895  0.3524  0.0362
 3415SOL     OW13431   4.737   5.808   3.704 -0.2697  0.1347  0.1570
 3415SOL    HW213432   4.770   5.857   3.629 -0.1345 -0.1860  0.0018
 3415SOL    HW313433   4.657   5.853   3.729 -1.4373 -0.9402 -1.4693
 3415SOL    MW413434   4.731   5.820   3.697 -0.4059 -0.0494 -0.0781
 3416SOL     OW13435   3.409   6.049   3.701  0.3550  0.3801 -0.3949
 3416SOL    HW213436   3.391   5.955   3.698  1.3886  0.1862 -1.4521
 3416SOL    HW313437   3.323   6.090   3.707 -0.1161 -0.6243 -0.0721
 3416SOL    MW413438   3.395   6.042   3.702  0.4292  0.2220 -0.4918
 3417SOL     OW13439   5.237   0.463   5.202 -0.0470 -0.6020  0.1062
 3417SOL    HW213440   5.265   0.381   5.162  0.9584  0.5324 -1.5876
 3417SOL    HW313441   5.268   0.457   5.293  0.8139 -1.6953 -0.2440
 3417SOL    MW413442   5.245   0.451   5.209  0.1992 -0.5966 -0.1635
 3418SOL     OW13443   0.681   3.078   0.853 -0.2902 -0.1342 -0.1568
 3418SOL    HW213444   0.616   3.139   0.819  1.8413  1.5431 -1.5102
 3418SOL    HW313445   0.684   3.094   0.947 -3.0202 -1.5614  0.2771
 3418SOL    MW413446   0.673   3.088   0.861 -0.3692 -0.1012 -0.2781
 3419SOL     OW13447   2.886   2.403   1.778  0.5891 -0.2348  0.3989
 3419SOL    HW213448   2.930   2.347   1.843  0.3265  1.1739  1.8442
 3419SOL    HW313449   2.814   2.444   1.826  1.8311  2.7367 -0.0695
 3419SOL    MW413450   2.882   2.401   1.793  0.7183  0.3431  0.5278
 3420SOL     OW13451   5.779   3.312   3.290 -0.1403 -0.2813  0.1407
 3420SOL    HW213452   5.834   3.297   3.213  1.3515 -0.6396  1.2377
 3420SOL    HW313453   5.839   3.310   3.364 -1.5113  0.2271  1.3277
 3420SOL    MW413454   5.794   3.310   3.290 -0.1243 -0.2615  0.4421
 3421SOL     OW13455   5.247   6.249   3.527  0.4111  0.1110 -0.1439
 3421SOL    HW213456   5.292   6.208   3.600 -1.5829  1.5931  2.0697
 3421SOL    HW313457   5.154   6.235   3.545 -0.2558  3.1394 -0.7077
 3421SOL    MW413458   5.241   6.242   3.539  0.0601  0.7061  0.0738
 3422SOL     OW13459   4.609   2.110   5.582  0.5855 -0.1382  0.2726
 3422SOL    HW213460   4.579   2.188   5.535 -0.5180 -0.9082 -0.3322
 3422SOL    HW313461   4.701   2.129   5.602 -0.1848  2.1971  2.0081
 3422SOL    MW413462   4.617   2.123   5.578  0.3383  0.0683  0.4218
 3423SOL     OW13463   1.928   3.887   4.903  0.2525 -0.3149  0.1225
 3423SOL    HW213464   2.007   3.862   4.951  0.4909  0.8520  0.3899
 3423SOL    HW313465   1.960   3.908   4.815  0.1521 -0.4202  0.0622
 3423SOL    MW413466   1.943   3.887   4.898  0.2707 -0.1749  0.1498
 3424SOL     OW13467   0.926   0.517   4.153 -0.6017  0.4227  0.3278
 3424SOL    HW213468   0.941   0.424   4.135 -1.1217  0.5684 -0.9681
 3424SOL    HW313469   1.013   0.556   4.151 -0.3093 -0.1111  1.4911
 3424SOL    MW413470   0.939   0.510   4.150 -0.6317  0.3715  0.3103
 3425SOL     OW13471   4.145   0.586   2.378  0.0356 -0.4868 -0.0119
 3425SOL    HW213472   4.168   0.639   2.301 -0.6796 -1.8575 -1.2172
 3425SOL    HW313473   4.049   0.592   2.383 -0.0763 -1.8024 -0.2948
 3425SOL    MW413474   4.135   0.594   2.368 -0.0735 -0.8412 -0.2082
 3426SOL     OW13475   1.488   5.845   5.533  0.2175 -0.1885  0.1608
 3426SOL    HW213476   1.572   5.886   5.553 -0.4727  1.5442 -0.3169
 3426SOL    HW313477   1.469   5.790   5.609  1.3219  0.1576  0.6976
 3426SOL    MW413478   1.496   5.843   5.546  0.2721  0.0858  0.1686
 3427SOL     OW13479   0.308   1.294   6.310 -0.4357  0.3088  0.0010
 3427SOL    HW213480   0.312   1.279   6.405  1.7609  0.8135  0.0502
 3427SOL    HW313481   0.313   1.390   6.301 -0.4484  0.2553 -0.6272
 3427SOL    MW413482   0.309   1.305   6.322 -0.1476  0.3683 -0.0754
 3428SOL     OW13483   1.705   0.442   3.663  0.0810 -0.6520  0.1321
 3428SOL    HW213484   1.799   0.434   3.679  0.4287  0.9438 -0.8445
 3428SOL    HW313485   1.677   0.356   3.634  1.5882 -0.7542 -1.1313
 3428SOL    MW413486   1.713   0.430   3.661  0.3257 -0.4550 -0.1635
 3429SOL     OW13487   1.334   4.050   2.759  0.1692 -0.0316 -0.3594
 3429SOL    HW213488   1.340   4.090   2.672  2.2985 -1.0172 -0.7521
 3429SOL    HW313489   1.420   4.009   2.771 -0.3881 -0.6423  1.8644
 3429SOL    MW413490   1.346   4.050   2.749  0.3766 -0.2422 -0.1178
 3430SOL     OW13491   1.130   0.869   2.064  0.1967  0.1600 -0.3552
 3430SOL    HW213492   1.189   0.902   1.997  0.2048 -1.3471 -1.1470
 3430SOL    HW313493   1.103   0.783   2.032  0.6814 -0.9089  1.8445
 3430SOL    MW413494   1.134   0.862   2.051  0.2617 -0.1799 -0.1695
 3431SOL     OW13495   3.741   4.812   1.583 -0.5076 -0.5385  0.4718
 3431SOL    HW213496   3.734   4.891   1.635  0.4138 -0.3529  0.3417
 3431SOL    HW313497   3.651   4.789   1.560 -0.8494 -0.1135  1.3693
 3431SOL    MW413498   3.728   4.819   1.587 -0.4312 -0.4579  0.5731
 3432SOL     OW13499   4.197   1.852   5.258 -0.0218  0.0511 -0.2614
 3432SOL    HW213500   4.248   1.908   5.317 -0.3063  0.0587 -0.0233
 3432SOL    HW313501   4.151   1.912   5.200 -1.1071  0.1110  0.6282
 3432SOL    MW413502   4.198   1.867   5.258 -0.2025  0.0600 -0.1126
 3433SOL     OW13503   0.303   6.209   3.069  0.4362 -0.4477 -0.0418
 3433SOL    HW213504   0.296   6.113   3.076  0.5981 -0.4175  0.6139
 3433SOL    HW313505   0.361   6.233   3.141 -0.1320  0.2136  0.1972
 3433SOL    MW413506   0.310   6.199   3.079  0.3826 -0.3565  0.0762
 3434SOL     OW13507   2.356   3.822   5.697 -0.2536  0.2465 -0.2444
 3434SOL    HW213508   2.419   3.868   5.643 -0.3491 -0.0729 -0.6343
 3434SOL    HW313509   2.278   3.878   5.696 -0.8134 -0.5122 -1.7649
 3434SOL    MW413510   2.354   3.835   5.690 -0.3400  0.1043 -0.4965
 3435SOL     OW13511   2.692   5.731   5.912  0.1724  0.6031  0.2659
 3435SOL    HW213512   2.677   5.663   5.846  1.3263 -0.2333  0.8260
 3435SOL    HW313513   2.763   5.784   5.875 -0.7273  1.5393 -0.1722
 3435SOL    MW413514   2.700   5.729   5.898  0.2059  0.6163  0.2820
 3436SOL     OW13515   1.915   1.817   4.393 -0.4232 -0.1329 -0.4521
 3436SOL    HW213516   1.830   1.792   4.431  0.2422 -1.7373  0.0698
 3436SOL    HW313517   1.942   1.893   4.444 -1.1498 -0.1537 -0.0166
 3436SOL    MW413518   1.907   1.824   4.405 -0.4313 -0.3473 -0.3258
 3437SOL     OW13519   6.038   0.661   3.166  0.0628  0.3056  0.3786
 3437SOL    HW213520   6.131   0.640   3.156 -0.0603 -0.1907  0.2426
 3437SOL    HW313521   6.002   0.650   3.078 -0.0088  1.0945  0.3048
 3437SOL    MW413522   6.046   0.657   3.153  0.0371  0.3442  0.3509
 3438SOL     OW13523   5.782   3.886   3.850  0.1492 -0.0079 -0.2262
 3438SOL    HW213524   5.721   3.845   3.911 -0.4487  1.0435 -0.0855
 3438SOL    HW313525   5.820   3.813   3.801 -0.2161 -0.7821  0.6085
 3438SOL    MW413526   5.779   3.871   3.851  0.0221  0.0286 -0.0975
 3439SOL     OW13527   2.323   2.782   5.080  0.2820  0.5316 -0.0819
 3439SOL    HW213528   2.310   2.876   5.094  1.4690  0.9950 -1.7347
 3439SOL    HW313529   2.407   2.776   5.035  0.1777 -1.3252 -0.0924
 3439SOL    MW413530   2.332   2.794   5.076  0.4249  0.3477 -0.3013
 3440SOL     OW13531   1.561   0.203   4.012  0.4596 -0.5316  0.1709
 3440SOL    HW213532   1.485   0.239   4.057  0.5551  0.3075 -0.3128
 3440SOL    HW313533   1.526   0.171   3.929  0.8979  1.6553 -0.9365
 3440SOL    MW413534   1.546   0.203   4.007  0.5301 -0.1323 -0.0391
 3441SOL     OW13535   2.767   5.165   4.207  0.0300 -0.0169  0.3870
 3441SOL    HW213536   2.692   5.106   4.215 -0.5851  0.8789  1.5308
 3441SOL    HW313537   2.752   5.214   4.126  0.1046 -0.7916 -0.1089
 3441SOL    MW413538   2.755   5.164   4.197 -0.0413 -0.0009  0.4725
 3442SOL     OW13539   1.571   5.205   0.206  0.8473  0.1901 -0.5326
 3442SOL    HW213540   1.478   5.226   0.195  0.3098 -1.6155  0.2282
 3442SOL    HW313541   1.595   5.244   0.290 -0.0040 -1.6527  0.6236
 3442SOL    MW413542   1.562   5.213   0.216  0.6640 -0.2913 -0.2796
 3443SOL     OW13543   2.666   0.543   1.090  0.0666  0.4850  0.1477
 3443SOL    HW213544   2.711   0.624   1.115  0.2895  0.0857  1.0997
 3443SOL    HW313545   2.611   0.522   1.165  0.3970 -0.5161  0.1245
 3443SOL    MW413546   2.665   0.551   1.103  0.1396  0.3002  0.2702
 3444SOL     OW13547   0.376   1.661   3.410  0.4084 -0.1042 -0.8133
 3444SOL    HW213548   0.406   1.745   3.374  0.2350 -0.7251 -2.4599
 3444SOL    HW313549   0.448   1.601   3.396 -0.2473 -0.7362 -1.5585
 3444SOL    MW413550   0.389   1.664   3.404  0.2990 -0.2695 -1.1288
 3445SOL     OW13551   2.031   4.993   3.860 -0.2324  0.1478 -0.1951
 3445SOL    HW213552   2.032   5.048   3.782 -0.3270  0.7312  0.2077
 3445SOL    HW313553   2.119   5.001   3.896 -0.9774  2.2266  1.3517
 3445SOL    MW413554   2.043   5.001   3.855 -0.3431  0.4990  0.0621
 3446SOL     OW13555   3.027   4.403   3.583  0.2555 -0.4770 -0.7776
 3446SOL    HW213556   2.943   4.442   3.609  1.0088 -0.0283  1.1767
 3446SOL    HW313557   3.019   4.311   3.610  0.0175 -0.7074 -1.5928
 3446SOL    MW413558   3.015   4.396   3.590  0.3235 -0.4482 -0.6273
 3447SOL     OW13559   4.118   5.553   5.502  0.4478 -0.1257  0.4421
 3447SOL    HW213560   4.105   5.498   5.579  0.4959  0.5974  0.9750
 3447SOL    HW313561   4.138   5.640   5.537  0.1479  0.2903 -0.3831
 3447SOL    MW413562   4.119   5.557   5.517  0.4146  0.0246  0.4036
 3448SOL     OW13563   1.697   6.261   1.040  0.1002  0.1668  0.3999
 3448SOL    HW213564   1.682   6.355   1.055 -2.7616 -0.5059  2.5480
 3448SOL    HW313565   1.740   6.231   1.120 -0.0546 -0.5566  0.2120
 3448SOL    MW413566   1.701   6.270   1.052 -0.2978 -0.0174  0.6585
 3449SOL     OW13567   3.858   5.416   5.869 -0.1141  0.1978  0.0073
 3449SOL    HW213568   3.846   5.363   5.790 -1.6014 -0.1170  0.4242
 3449SOL    HW313569   3.798   5.378   5.933 -1.9988  2.9177  0.0256
 3449SOL    MW413570   3.849   5.404   5.867 -0.5590  0.5151  0.0647
 3450SOL     OW13571   0.883   5.879   4.878  0.8904 -0.1375 -0.2507
 3450SOL    HW213572   0.911   5.843   4.963 -0.0998  4.4922  2.3948
 3450SOL    HW313573   0.953   5.939   4.853 -0.3067  1.0057 -0.9699
 3450SOL    MW413574   0.896   5.882   4.886  0.6018  0.6242  0.0034
 3451SOL     OW13575   4.786   6.122   1.908 -0.1328 -0.8812 -0.1980
 3451SOL    HW213576   4.707   6.170   1.932  1.1538  1.2133  0.1265
 3451SOL    HW313577   4.760   6.068   1.834 -0.9026  3.1836 -3.2538
 3451SOL    MW413578   4.772   6.121   1.901 -0.0646 -0.0685 -0.5584
 3452SOL     OW13579   2.696   0.945   5.832 -0.4204 -0.2168 -0.0092
 3452SOL    HW213580   2.728   0.933   5.922  1.0290 -1.0092 -0.6056
 3452SOL    HW313581   2.736   0.874   5.782 -0.9530  0.3954 -1.3574
 3452SOL    MW413582   2.706   0.934   5.838 -0.2995 -0.2406 -0.2658
 3453SOL     OW13583   3.546   5.047   6.003 -0.6528 -0.5824  0.3126
 3453SOL    HW213584   3.568   5.108   5.932  0.3701 -0.2338  0.8896
 3453SOL    HW313585   3.572   4.961   5.970  0.6996 -0.3047  0.5815
 3453SOL    MW413586   3.553   5.044   5.989 -0.3394 -0.4998  0.4242
 3454SOL     OW13587   6.107   5.437   2.446 -0.1156 -0.4450  0.1211
 3454SOL    HW213588   6.158   5.360   2.421 -0.0412 -0.0581 -0.9874
 3454SOL    HW313589   6.171   5.509   2.447 -0.7958  0.3418 -2.7515
 3454SOL    MW413590   6.122   5.437   2.443 -0.1955 -0.2902 -0.4042
 3455SOL     OW13591   1.908   5.102   1.524  0.2450 -0.0879 -0.2355
 3455SOL    HW213592   1.888   5.010   1.543  0.3303 -0.6634 -2.6294
 3455SOL    HW313593   1.878   5.115   1.434  1.8952  1.7235 -0.5838
 3455SOL    MW413594   1.902   5.092   1.515  0.4739  0.0752 -0.5973
 3456SOL     OW13595   6.261   1.831   0.203 -0.3676  0.1416 -0.4455
 3456SOL    HW213596   6.246   1.776   0.127 -0.0452  0.9166 -1.0919
 3456SOL    HW313597   6.355   1.822   0.221 -0.4782 -0.1887 -0.0140
 3456SOL    MW413598   6.272   1.823   0.196 -0.3397  0.2003 -0.4738
 3457SOL     OW13599   2.888   6.223   3.065 -0.4500 -0.6093 -0.5406
 3457SOL    HW213600   2.918   6.277   2.991  0.4956 -2.4938 -1.6175
 3457SOL    HW313601   2.804   6.187   3.036 -0.1958 -1.1548 -0.6226
 3457SOL    MW413602   2.881   6.225   3.051 -0.2917 -0.9299 -0.6935
 3458SOL     OW13603   4.653   4.126   4.154 -0.0818 -0.1502 -0.2898
 3458SOL    HW213604   4.564   4.152   4.127 -0.0552  0.9754  0.6513
 3458SOL    HW313605   4.652   4.031   4.150 -1.2114 -0.1385 -0.6937
 3458SOL    MW413606   4.641   4.117   4.150 -0.2274 -0.0001 -0.2189
 3459SOL     OW13607   1.194   1.358   2.510 -0.5084  0.4831 -1.0995
 3459SOL    HW213608   1.109   1.363   2.554 -0.1896  1.2957 -0.5415
 3459SOL    HW313609   1.248   1.303   2.568 -0.3614  0.7897 -0.9441
 3459SOL    MW413610   1.190   1.351   2.523 -0.4469  0.6308 -1.0053
 3460SOL     OW13611   2.488   0.220   2.147 -0.7437 -0.4423 -0.3761
 3460SOL    HW213612   2.446   0.184   2.225  0.1766 -1.4894 -0.3356
 3460SOL    HW313613   2.579   0.234   2.174 -0.6891  0.3051 -0.9185
 3460SOL    MW413614   2.495   0.217   2.161 -0.6150 -0.4818 -0.4423
 3461SOL     OW13615   3.184   3.590   2.446 -0.3334 -0.8803  0.2294
 3461SOL    HW213616   3.270   3.584   2.405 -0.0945  1.7302  0.1922
 3461SOL    HW313617   3.123   3.564   2.377  0.3538 -1.6526 -0.0993
 3461SOL    MW413618   3.187   3.586   2.431 -0.2112 -0.6377  0.1811
 3462SOL     OW13619   3.584   2.650   3.328  0.3083  0.2626 -0.1830
 3462SOL    HW213620   3.586   2.705   3.407  1.2163  0.9086 -0.6423
 3462SOL    HW313621   3.522   2.580   3.349 -0.2276  0.9945  0.7266
 3462SOL    MW413622   3.576   2.648   3.341  0.3574  0.4444 -0.1236
 3463SOL     OW13623   2.360   3.648   4.017  0.0574  0.5111 -0.9550
 3463SOL    HW213624   2.445   3.613   3.989 -0.2969 -1.2174  0.0170
 3463SOL    HW313625   2.299   3.618   3.949  0.2031  1.8574 -1.7200
 3463SOL    MW413626   2.364   3.639   4.004  0.0299  0.4607 -0.9277
 3464SOL     OW13627   3.702   0.603   0.166  1.2511  0.3384  0.1479
 3464SOL    HW213628   3.636   0.639   0.225  0.8225 -0.7603  0.3578
 3464SOL    HW313629   3.670   0.623   0.078  1.2707  0.8863  0.2595
 3464SOL    MW413630   3.689   0.610   0.162  1.1971  0.2658  0.1903
 3465SOL     OW13631   5.050   2.769   3.345  0.3450  0.1851  0.3233
 3465SOL    HW213632   5.024   2.848   3.393  0.7259 -0.1121  1.0219
 3465SOL    HW313633   5.143   2.782   3.327  0.2777  0.1493 -0.0676
 3465SOL    MW413634   5.059   2.781   3.349  0.3864  0.1412  0.3639
 3466SOL     OW13635   3.150   1.985   1.851  0.1563  0.2654 -0.4450
 3466SOL    HW213636   3.234   1.941   1.839  0.0464 -0.6003  1.6046
 3466SOL    HW313637   3.100   1.928   1.909 -1.5813  1.1367 -0.9901
 3466SOL    MW413638   3.154   1.972   1.857 -0.0875  0.2661 -0.2465
 3467SOL     OW13639   4.529   1.011   2.301 -0.5616  0.2263 -0.6297
 3467SOL    HW213640   4.505   1.097   2.337 -1.6847 -0.4556  0.3307
 3467SOL    HW313641   4.513   1.019   2.207 -1.6381  0.7689 -0.4216
 3467SOL    MW413642   4.524   1.024   2.294 -0.8518  0.2079 -0.4755
 3468SOL     OW13643   1.512   0.367   0.380 -0.4447  0.0681 -0.5326
 3468SOL    HW213644   1.444   0.413   0.430  0.1512  1.6782 -1.1267
 3468SOL    HW313645   1.592   0.418   0.396  0.1137 -0.3810 -1.7591
 3468SOL    MW413646   1.514   0.380   0.389 -0.2924  0.2213 -0.7728
 3469SOL     OW13647   0.503   3.380   5.008  0.8148  0.0226 -0.3031
 3469SOL    HW213648   0.596   3.400   5.018  0.7298  0.3226 -0.0827
 3469SOL    HW313649   0.477   3.344   5.093  0.8461 -0.5484 -0.5308
 3469SOL    MW413650   0.511   3.378   5.020  0.8077 -0.0132 -0.3041
 3470SOL     OW13651   1.739   4.293   4.272 -0.2477 -0.0034 -0.2177
 3470SOL    HW213652   1.827   4.256   4.276  0.1837  0.9586 -0.4853
 3470SOL    HW313653   1.704   4.262   4.189  0.4426  0.8637 -0.8590
 3470SOL    MW413654   1.746   4.284   4.262 -0.0997  0.2379 -0.3376
 3471SOL     OW13655   5.072   4.174   2.469 -0.4908 -0.3720 -0.0496
 3471SOL    HW213656   5.165   4.155   2.454 -0.4884 -0.6470  0.3070
 3471SOL    HW313657   5.031   4.160   2.384 -0.1927 -0.1753 -0.2281
 3471SOL    MW413658   5.079   4.170   2.456 -0.4512 -0.3823 -0.0261
 3472SOL     OW13659   5.129   2.466   0.221  0.3288  0.0026 -0.3133
 3472SOL    HW213660   5.192   2.536   0.210 -1.4957  2.1704  1.8127
 3472SOL    HW313661   5.172   2.403   0.279  1.0146  0.7478  0.0012
 3472SOL    MW413662   5.143   2.467   0.227  0.1786  0.3869  0.0087
 3473SOL     OW13663   6.213   1.003   4.548  0.3047 -0.4468 -0.2845
 3473SOL    HW213664   6.150   1.018   4.618 -0.9111  0.7415 -1.5578
 3473SOL    HW313665   6.277   1.074   4.559 -0.4284  0.3391 -0.9188
 3473SOL    MW413666   6.213   1.015   4.559  0.0475 -0.1864 -0.5362
 3474SOL     OW13667   2.530   2.369   2.204 -0.1326  0.1125  0.2604
 3474SOL    HW213668   2.571   2.418   2.275  0.7277  0.0007 -0.1535
 3474SOL    HW313669   2.590   2.296   2.188  0.2099  0.7226 -1.3012
 3474SOL    MW413670   2.543   2.366   2.212  0.0261  0.1783 -0.0002
 3475SOL     OW13671   6.020   3.541   0.301  0.3874  0.9959  0.1748
 3475SOL    HW213672   6.052   3.612   0.356 -1.0287  0.1489  2.2386
 3475SOL    HW313673   5.970   3.485   0.361  0.7315 -1.2884 -1.5241
 3475SOL    MW413674   6.018   3.543   0.316  0.2460  0.5828  0.2230
 3476SOL     OW13675   3.651   6.406   0.998  0.3386 -0.0341  0.1271
 3476SOL    HW213676   3.648   6.477   0.935  0.5551  0.1210  0.2914
 3476SOL    HW313677   3.575   6.422   1.055  1.4991  1.2156  1.3927
 3476SOL    MW413678   3.640   6.418   0.997  0.5203  0.1513  0.3158
 3477SOL     OW13679   5.851   4.159   5.215  0.0201  0.4069  0.2535
 3477SOL    HW213680   5.826   4.084   5.160  2.7053 -0.7815  0.5150
 3477SOL    HW313681   5.771   4.181   5.262 -1.6940 -0.2089 -2.1772
 3477SOL    MW413682   5.837   4.152   5.214  0.1482  0.1688 -0.0327
 3478SOL     OW13683   3.097   3.189   4.344  0.7299  0.5479 -0.2357
 3478SOL    HW213684   3.020   3.208   4.290 -0.0431 -0.2993  0.5360
 3478SOL    HW313685   3.112   3.095   4.331  1.7797  0.7460 -0.5426
 3478SOL    MW413686   3.088   3.179   4.335  0.7664  0.4622 -0.1744
 3479SOL     OW13687   4.531   1.250   6.063 -0.0959  0.0508 -0.1529
 3479SOL    HW213688   4.467   1.321   6.060  1.4780  1.5035 -0.9004
 3479SOL    HW313689   4.512   1.197   5.986 -1.4863 -0.5665  0.5848
 3479SOL    MW413690   4.520   1.252   6.053 -0.0717  0.1610 -0.1542
 3480SOL     OW13691   4.487   1.280   0.301 -0.5351  0.8085 -0.4859
 3480SOL    HW213692   4.400   1.248   0.280 -0.3803 -0.5985  0.8168
 3480SOL    HW313693   4.489   1.284   0.397  1.1568 -0.3157 -0.4124
 3480SOL    MW413694   4.476   1.276   0.311 -0.2914  0.4745 -0.3043
 3481SOL     OW13695   4.572   1.807   2.925 -0.1575  0.3425 -0.6334
 3481SOL    HW213696   4.577   1.715   2.950 -0.0647  0.4565 -0.2237
 3481SOL    HW313697   4.495   1.840   2.971  1.0469  1.0057  1.0080
 3481SOL    MW413698   4.562   1.799   2.934  0.0137  0.4450 -0.3628
 3482SOL     OW13699   2.582   0.344   1.858 -0.0654  0.0180  0.6053
 3482SOL    HW213700   2.552   0.429   1.891  0.2684  0.2479  0.3225
 3482SOL    HW313701   2.677   0.346   1.869 -0.0366 -0.2346  0.4085
 3482SOL    MW413702   2.591   0.356   1.864 -0.0176  0.0150  0.5420
 3483SOL     OW13703   1.633   6.288   0.680 -0.7671 -0.4141  0.0715
 3483SOL    HW213704   1.666   6.243   0.602 -3.0158  0.5374 -1.5438
 3483SOL    HW313705   1.702   6.350   0.703  0.2925 -1.2806 -0.6413
 3483SOL    MW413706   1.646   6.290   0.673 -0.9240 -0.4029 -0.2357
 3484SOL     OW13707   3.177   2.891   0.590  0.1184  0.1897  0.5559
 3484SOL    HW213708   3.087   2.924   0.584  0.3325  0.8406  0.8807
 3484SOL    HW313709   3.191   2.875   0.683  0.7256  1.2229  0.6649
 3484SOL    MW413710   3.167   2.893   0.601  0.2268  0.4119  0.6131
 3485SOL     OW13711   3.335   1.021   1.031  0.1946 -0.7967 -0.0901
 3485SOL    HW213712   3.342   1.012   0.936 -0.2794  0.5214 -0.2644
 3485SOL    HW313713   3.245   1.050   1.047  0.3962 -0.5771  0.7189
 3485SOL    MW413714   3.324   1.024   1.021  0.1586 -0.5938 -0.0064
 3486SOL     OW13715   3.030   0.456   4.215 -0.1282 -0.7138 -0.0157
 3486SOL    HW213716   2.960   0.479   4.155 -0.7974  0.9595  1.3087
 3486SOL    HW313717   3.110   0.490   4.173 -0.2687 -1.5019 -0.9383
 3486SOL    MW413718   3.032   0.464   4.201 -0.2350 -0.5970  0.0373
 3487SOL     OW13719   0.469   6.220   6.220 -0.0224  0.1000  0.2469
 3487SOL    HW213720   0.390   6.246   6.173  0.2458  1.0575  0.3018
 3487SOL    HW313721   0.437   6.166   6.293 -0.4326 -1.5294 -1.0620
 3487SOL    MW413722   0.454   6.216   6.224 -0.0412  0.0114  0.0815
 3488SOL     OW13723   6.400   1.243   2.835 -0.0894 -0.0181 -0.1943
 3488SOL    HW213724   6.358   1.190   2.902 -0.9864 -0.3831 -1.0296
 3488SOL    HW313725   6.418   1.183   2.764 -0.2130  0.5897 -0.7523
 3488SOL    MW413726   6.397   1.228   2.835 -0.2241  0.0139 -0.3781
 3489SOL     OW13727   2.208   0.459   0.777 -0.4237 -0.3620 -0.5717
 3489SOL    HW213728   2.250   0.502   0.703  0.8282 -0.9883 -0.2562
 3489SOL    HW313729   2.120   0.495   0.779 -0.3171  0.0432 -2.0471
 3489SOL    MW413730   2.202   0.469   0.768 -0.2444 -0.3912 -0.7247
 3490SOL     OW13731   0.860   2.219   5.868  0.2281 -0.6352  0.3667
 3490SOL    HW213732   0.939   2.171   5.891  2.3269  2.4225  0.2273
 3490SOL    HW313733   0.861   2.223   5.772  0.9458  0.8238  0.3981
 3490SOL    MW413734   0.871   2.213   5.858  0.5997 -0.0393  0.3525
 3491SOL     OW13735   2.598   3.880   4.353 -0.5000 -0.1787 -0.0592
 3491SOL    HW213736   2.599   3.787   4.330 -0.2950  0.3137 -2.2660
 3491SOL    HW313737   2.685   3.912   4.329 -1.3938  1.0838 -1.8182
 3491SOL    MW413738   2.610   3.872   4.346 -0.5908  0.0529 -0.5825
 3492SOL     OW13739   2.451   5.327   2.732 -0.4014  0.0894 -0.0052
 3492SOL    HW213740   2.496   5.387   2.672  0.6679 -0.2531  0.4293
 3492SOL    HW313741   2.364   5.315   2.693 -0.1455  0.8178 -0.8366
 3492SOL    MW413742   2.446   5.333   2.719 -0.2266  0.1403 -0.0575
 3493SOL     OW13743   0.417   2.268   5.426 -0.3795 -0.5486  0.2402
 3493SOL    HW213744   0.380   2.180   5.426 -0.6971 -0.4213 -0.6164
 3493SOL    HW313745   0.398   2.302   5.339  0.5390  0.0345  0.2526
 3493SOL    MW413746   0.410   2.261   5.415 -0.3002 -0.4549  0.1288
 3494SOL     OW13747   5.190   0.829   2.809 -0.1636  0.2495 -0.3842
 3494SOL    HW213748   5.235   0.911   2.787 -0.3820 -0.0809 -2.2392
 3494SOL    HW313749   5.153   0.844   2.896  1.0680  1.5709 -0.0477
 3494SOL    MW413750   5.191   0.842   2.817 -0.0299  0.3802 -0.5845
 3495SOL     OW13751   2.436   2.790   2.631 -0.5970 -0.5487  0.0714
 3495SOL    HW213752   2.465   2.847   2.560  1.3813 -2.0619 -0.4059
 3495SOL    HW313753   2.380   2.846   2.685 -0.2487  1.2975 -1.3738
 3495SOL    MW413754   2.432   2.805   2.629 -0.2900 -0.5048 -0.1822
 3496SOL     OW13755   4.991   1.332   3.283 -0.1344  0.2728  0.1095
 3496SOL    HW213756   5.045   1.261   3.249  1.3531  1.5794 -0.4272
 3496SOL    HW313757   4.903   1.296   3.288  0.1676 -0.9882 -2.1573
 3496SOL    MW413758   4.986   1.318   3.279  0.1017  0.2788 -0.2604
 3497SOL     OW13759   4.451   3.753   0.227  0.5676 -0.6582 -0.4882
 3497SOL    HW213760   4.426   3.747   0.135  1.6057 -0.3831 -0.7946
 3497SOL    HW313761   4.485   3.842   0.238 -0.3938 -0.3722  0.3873
 3497SOL    MW413762   4.452   3.764   0.217  0.5777 -0.5842 -0.4131
 3498SOL     OW13763   3.215   4.676   3.727 -0.7032 -0.0281 -0.6741
 3498SOL    HW213764   3.236   4.768   3.715  1.6194 -0.2272  0.9354
 3498SOL    HW313765   3.264   4.631   3.658  0.8771 -0.1965  0.4798
 3498SOL    MW413766   3.225   4.682   3.717 -0.1883 -0.0766 -0.3095
 3499SOL     OW13767   4.095   2.228   5.381 -0.4893  0.8130  0.2486
 3499SOL    HW213768   4.166   2.171   5.352  2.8312  3.8898  1.6712
 3499SOL    HW313769   4.068   2.275   5.301  0.3262  0.8583 -0.0045
 3499SOL    MW413770   4.101   2.227   5.366  0.0564  1.2249  0.4029
 3500SOL     OW13771   5.358   5.947   2.577  0.4086 -0.4334 -0.4458
 3500SOL    HW213772   5.451   5.941   2.598  0.3159 -3.8467 -0.4316
 3500SOL    HW313773   5.314   5.959   2.661  0.7516 -0.2087 -0.2974
 3500SOL    MW413774   5.364   5.948   2.591  0.4416 -0.8541 -0.4243
 3501SOL     OW13775   5.348   1.881   1.801  0.1043  0.0538 -0.2602
 3501SOL    HW213776   5.268   1.933   1.799 -0.1137 -0.1124  1.8769
 3501SOL    HW313777   5.320   1.793   1.779 -0.5014 -0.1799  1.3151
 3501SOL    MW413778   5.334   1.877   1.798 -0.0044  0.0011  0.2296
 3502SOL     OW13779   4.506   0.198   1.406  0.0534 -0.2135  0.1657
 3502SOL    HW213780   4.442   0.242   1.350 -0.8865  0.4382  1.6770
 3502SOL    HW313781   4.534   0.266   1.467 -1.7812 -1.7068  2.8720
 3502SOL    MW413782   4.501   0.213   1.406 -0.3127 -0.3245  0.7221
 3503SOL     OW13783   4.604   6.160   3.459 -0.4792  0.7299  0.2734
 3503SOL    HW213784   4.548   6.198   3.526 -1.3376  1.6468 -0.9277
 3503SOL    HW313785   4.629   6.233   3.403  0.2119 -0.0096 -0.4160
 3503SOL    MW413786   4.600   6.174   3.461 -0.5013  0.7533  0.0239
 3504SOL     OW13787   4.261   0.514   4.788 -0.9898  0.2325 -0.8017
 3504SOL    HW213788   4.261   0.418   4.790 -1.3390  0.2374 -0.6459
 3504SOL    HW313789   4.348   0.538   4.820 -0.8656 -0.0353 -0.9349
 3504SOL    MW413790   4.273   0.505   4.792 -1.0195  0.1978 -0.7987
 3505SOL     OW13791   3.666   3.512   2.887 -0.0627 -0.1213 -0.2476
 3505SOL    HW213792   3.749   3.560   2.889  0.2206 -0.5537 -0.9427
 3505SOL    HW313793   3.688   3.424   2.918 -0.5995  0.2091  1.1196
 3505SOL    MW413794   3.680   3.506   2.891 -0.0962 -0.1347 -0.1589
 3506SOL     OW13795   1.211   2.353   3.031  0.1745 -0.0895  0.0985
 3506SOL    HW213796   1.215   2.401   2.948  1.9524 -0.6830 -0.2004
 3506SOL    HW313797   1.269   2.401   3.089 -0.1099 -0.3742  0.6199
 3506SOL    MW413798   1.219   2.366   3.027  0.3715 -0.2054  0.1279
 3507SOL     OW13799   5.361   5.452   2.156  0.0460  0.6602 -0.1149
 3507SOL    HW213800   5.300   5.383   2.182  2.0533 -0.9988  0.4998
 3507SOL    HW313801   5.442   5.431   2.203  1.3171  2.3399 -1.4268
 3507SOL    MW413802   5.364   5.440   2.165  0.4786  0.6629 -0.2069
 3508SOL     OW13803   3.304   2.303   4.623 -0.3830 -0.1852 -0.2454
 3508SOL    HW213804   3.349   2.224   4.593 -0.2210  0.1420 -0.8876
 3508SOL    HW313805   3.222   2.271   4.661  0.0521 -0.7233  0.2646
 3508SOL    MW413806   3.299   2.289   4.624 -0.3042 -0.2130 -0.2628
 3509SOL     OW13807   5.375   3.470   5.085  0.2901  0.2367  0.4444
 3509SOL    HW213808   5.421   3.412   5.024  1.1502  1.1697  0.1893
 3509SOL    HW313809   5.323   3.528   5.029  0.1143  0.2824  0.6546
 3509SOL    MW413810   5.374   3.470   5.070  0.3804  0.3658  0.4384
 3510SOL     OW13811   4.220   5.714   3.280  0.0603 -0.0069 -0.5836
 3510SOL    HW213812   4.306   5.683   3.252  0.0628 -0.4480 -0.0981
 3510SOL    HW313813   4.160   5.684   3.210  0.4405  1.2414 -1.4738
 3510SOL    MW413814   4.223   5.706   3.267  0.1108  0.0996 -0.6370
 3511SOL     OW13815   0.561   5.203   6.101 -0.2055 -0.2539  0.8688
 3511SOL    HW213816   0.579   5.123   6.053 -0.6586  0.3274 -0.3282
 3511SOL    HW313817   0.639   5.257   6.089 -0.9683  0.5634 -0.6951
 3511SOL    MW413818   0.573   5.200   6.093 -0.3659 -0.0693  0.5045
 3512SOL     OW13819   3.193   6.278   3.999  0.1156  0.5662 -0.2259
 3512SOL    HW213820   3.133   6.230   4.056  0.0387  1.1902  0.2344
 3512SOL    HW313821   3.270   6.222   3.992 -0.1741  0.1529 -0.1069
 3512SOL    MW413822   3.196   6.264   4.006  0.0673  0.5940 -0.1495
 3513SOL     OW13823   6.146   1.336   1.167 -0.3916  0.3831 -0.3090
 3513SOL    HW213824   6.092   1.337   1.246  0.7721 -2.2542  0.6612
 3513SOL    HW313825   6.128   1.251   1.126  0.6972  0.7499 -1.6410
 3513SOL    MW413826   6.137   1.325   1.172 -0.0944  0.0836 -0.3568
 3514SOL     OW13827   2.786   4.071   5.170  0.3091 -0.1391  0.1733
 3514SOL    HW213828   2.806   4.048   5.079 -1.9724 -0.2814 -0.3695
 3514SOL    HW313829   2.841   4.012   5.222 -0.9772 -2.7086 -1.1648
 3514SOL    MW413830   2.796   4.060   5.165 -0.1617 -0.4969 -0.0749
 3515SOL     OW13831   3.366   4.381   1.186 -0.4575  0.2044 -0.0131
 3515SOL    HW213832   3.284   4.427   1.203  0.0950  0.7850  1.1779
 3515SOL    HW313833   3.348   4.328   1.108 -2.3294 -0.5943  0.8934
 3515SOL    MW413834   3.353   4.380   1.178 -0.6316  0.1756  0.2637
 3516SOL     OW13835   0.196   2.057   4.620 -0.0445 -0.4656  0.1985
 3516SOL    HW213836   0.139   1.982   4.640 -0.1809 -0.6639 -0.8464
 3516SOL    HW313837   0.148   2.133   4.652 -1.2365 -0.5672 -1.2332
 3516SOL    MW413838   0.182   2.057   4.627 -0.2197 -0.5052 -0.1282
 3517SOL     OW13839   0.358   2.186   0.461  0.0432 -0.1283  0.4320
 3517SOL    HW213840   0.294   2.190   0.533 -0.1148 -3.1544  0.5706
 3517SOL    HW313841   0.442   2.178   0.505  0.3901  1.8100  0.2237
 3517SOL    MW413842   0.360   2.185   0.477  0.0682 -0.2718  0.4228
 3518SOL     OW13843   0.718   1.037   1.545  0.5094  0.1364 -0.0467
 3518SOL    HW213844   0.680   1.122   1.568 -0.0698  0.3273 -1.6433
 3518SOL    HW313845   0.797   1.031   1.599 -0.4055  0.8547  1.4466
 3518SOL    MW413846   0.723   1.047   1.555  0.3123  0.2563 -0.0603
 3519SOL     OW13847   6.008   3.500   0.942  0.0409 -0.0245  0.1004
 3519SOL    HW213848   6.033   3.571   0.883 -0.7624 -0.6223 -1.0060
 3519SOL    HW313849   6.084   3.486   0.997  0.3244  1.4641  0.1067
 3519SOL    MW413850   6.021   3.507   0.941 -0.0277  0.0930 -0.0447
 3520SOL     OW13851   1.853   1.290   4.250  0.5485 -0.4402 -0.0676
 3520SOL    HW213852   1.838   1.217   4.190  1.6553 -0.4035 -0.4112
 3520SOL    HW313853   1.839   1.368   4.196 -1.6634 -0.3379  0.5497
 3520SOL    MW413854   1.849   1.290   4.235  0.4027 -0.4218 -0.0315
 3521SOL     OW13855   5.829   0.637   0.498 -0.0784 -0.2288  0.2503
 3521SOL    HW213856   5.911   0.655   0.451  0.1116 -0.9640  0.2800
 3521SOL    HW313857   5.850   0.653   0.590 -0.5017  1.3883  0.0860
 3521SOL    MW413858   5.843   0.641   0.504 -0.1092 -0.1125  0.2325
 3522SOL     OW13859   2.022   0.628   6.104 -0.6079 -0.1956  0.0561
 3522SOL    HW213860   2.044   0.543   6.140 -1.0393 -0.0307  0.7143
 3522SOL    HW313861   1.928   0.622   6.084 -0.7544  0.2851  0.5749
 3522SOL    MW413862   2.012   0.616   6.106 -0.6842 -0.1104  0.2114
 3523SOL     OW13863   2.140   6.253   4.962 -0.1207  0.3122  0.0645
 3523SOL    HW213864   2.197   6.179   4.982  0.1211 -0.0190 -1.6696
 3523SOL    HW313865   2.053   6.214   4.951 -0.3676  0.5741  1.0240
 3523SOL    MW413866   2.136   6.238   4.963 -0.1214  0.3031 -0.0377
 3524SOL     OW13867   3.756   4.005   0.716  0.3038  0.4435  0.4109
 3524SOL    HW213868   3.747   4.013   0.810 -0.0629  0.4883  0.3705
 3524SOL    HW313869   3.800   3.920   0.704 -0.3133  0.0948  0.5870
 3524SOL    MW413870   3.761   3.995   0.727  0.1740  0.4034  0.4288
 3525SOL     OW13871   0.302   4.686   2.574  0.3699 -0.0583  0.1539
 3525SOL    HW213872   0.337   4.771   2.600 -2.0227  0.4056  2.3202
 3525SOL    HW313873   0.316   4.682   2.479  1.7393  2.1336  0.1913
 3525SOL    MW413874   0.308   4.697   2.565  0.2349  0.2921  0.4446
 3526SOL     OW13875   0.758   0.383   3.808 -0.1136  0.1849  0.6633
 3526SOL    HW213876   0.853   0.376   3.820  0.6889  1.3858 -3.5093
 3526SOL    HW313877   0.734   0.463   3.856  0.9928  0.0390  1.5143
 3526SOL    MW413878   0.768   0.393   3.816  0.1382  0.3241  0.2251
 3527SOL     OW13879   3.365   4.952   2.382 -0.1894 -0.7728 -0.0909
 3527SOL    HW213880   3.338   5.014   2.315 -0.8411 -1.3008 -0.3260
 3527SOL    HW313881   3.460   4.944   2.371 -0.4636 -1.9685 -1.9255
 3527SOL    MW413882   3.374   4.959   2.372 -0.3115 -1.0002 -0.3640
 3528SOL     OW13883   4.752   2.597   1.208  0.1375  0.3715  0.1829
 3528SOL    HW213884   4.664   2.625   1.183 -0.7973 -0.6981  2.0807
 3528SOL    HW313885   4.803   2.602   1.127 -1.7149  0.8266 -0.9998
 3528SOL    MW413886   4.747   2.601   1.194 -0.2303  0.2904  0.2773
 3529SOL     OW13887   1.390   4.957   4.881 -0.1288  0.6648  0.8114
 3529SOL    HW213888   1.473   4.954   4.928 -0.1659  2.0463  0.9888
 3529SOL    HW313889   1.414   4.969   4.789 -0.1111  4.4578  1.1864
 3529SOL    MW413890   1.404   4.958   4.875 -0.1314  1.3475  0.8843
 3530SOL     OW13891   1.817   0.906   4.278 -0.1801  0.0638  0.3117
 3530SOL    HW213892   1.820   0.816   4.247  1.0165  0.8983 -2.2266
 3530SOL    HW313893   1.906   0.924   4.308 -0.2975  0.5439  0.3785
 3530SOL    MW413894   1.829   0.897   4.278 -0.0377  0.2372 -0.0144
 3531SOL     OW13895   0.010   2.731   1.103 -0.0883 -0.0811 -0.2186
 3531SOL    HW213896   0.071   2.739   1.176 -0.7013 -0.0212  0.3025
 3531SOL    HW313897   0.063   2.698   1.031  0.7616  0.9010 -0.0692
 3531SOL    MW413898   0.025   2.728   1.103 -0.0570  0.0564 -0.1301
 3532SOL     OW13899   5.053   1.548   1.887 -0.4446 -0.2981 -0.3142
 3532SOL    HW213900   5.024   1.639   1.882 -0.0249 -0.1751 -0.6109
 3532SOL    HW313901   5.060   1.530   1.980 -0.4675 -0.0004 -0.2535
 3532SOL    MW413902   5.050   1.558   1.898 -0.3922 -0.2426 -0.3453
 3533SOL     OW13903   0.263   5.831   5.004  0.0532 -0.0192 -0.1165
 3533SOL    HW213904   0.196   5.839   5.072 -1.4120 -0.1204 -1.4645
 3533SOL    HW313905   0.334   5.887   5.034 -0.6646  0.1743  1.3399
 3533SOL    MW413906   0.263   5.840   5.017 -0.2348 -0.0070 -0.1022
 3534SOL     OW13907   1.089   4.083   3.541 -0.4910 -0.0586  0.2227
 3534SOL    HW213908   1.053   4.113   3.457  1.4548 -0.4932 -0.8359
 3534SOL    HW313909   1.166   4.139   3.555 -0.3471 -0.5088  1.3460
 3534SOL    MW413910   1.095   4.095   3.532 -0.2153 -0.1753  0.2312
 3535SOL     OW13911   2.783   3.904   0.729 -0.0791  0.0213  0.2509
 3535SOL    HW213912   2.696   3.924   0.765 -0.6169 -2.7243  0.6627
 3535SOL    HW313913   2.783   3.948   0.644 -1.1673  1.5148  0.9709
 3535SOL    MW413914   2.771   3.913   0.722 -0.2936 -0.1439  0.4002
 3536SOL     OW13915   1.486   1.307   4.677  0.1232  0.1285  0.6492
 3536SOL    HW213916   1.432   1.230   4.663 -0.0003  0.5312 -1.4185
 3536SOL    HW313917   1.545   1.310   4.601  2.1270  0.4771  2.1325
 3536SOL    MW413918   1.487   1.297   4.665  0.3713  0.2276  0.5721
 3537SOL     OW13919   4.646   4.987   2.594 -0.0309 -0.2891 -0.1724
 3537SOL    HW213920   4.582   5.026   2.534 -1.4715 -1.7655  0.3048
 3537SOL    HW313921   4.686   4.917   2.544  0.9122  0.3513 -0.3255
 3537SOL    MW413922   4.643   4.983   2.580 -0.0966 -0.3994 -0.1296
 3538SOL     OW13923   0.964   1.394   6.299 -0.2161 -0.1114 -0.1637
 3538SOL    HW213924   0.931   1.454   6.232  0.8745  0.5922 -0.0990
 3538SOL    HW313925   0.890   1.381   6.358 -0.7825  0.3338 -0.7566
 3538SOL    MW413926   0.950   1.400   6.298 -0.1470  0.0402 -0.2334
 3539SOL     OW13927   4.418   1.441   3.461 -0.0879  0.0653  0.2640
 3539SOL    HW213928   4.381   1.464   3.547 -1.0099 -0.2515 -0.0446
 3539SOL    HW313929   4.512   1.459   3.471 -0.3381  1.0811  0.9928
 3539SOL    MW413930   4.426   1.447   3.474 -0.2425  0.1575  0.3194
 3540SOL     OW13931   0.948   5.013   6.153  0.1305  0.4513  0.3494
 3540SOL    HW213932   0.968   5.017   6.060 -0.6129  0.8301  0.1981
 3540SOL    HW313933   1.017   4.959   6.190  0.4949  0.3900 -0.4036
 3540SOL    MW413934   0.960   5.006   6.146  0.0805  0.4932  0.2301
 3541SOL     OW13935   4.985   6.012   4.290  0.0289 -0.2814  0.5359
 3541SOL    HW213936   5.068   5.986   4.249  0.8443  1.0723  1.2739
 3541SOL    HW313937   4.996   6.105   4.312 -2.4313  0.5536 -1.2152
 3541SOL    MW413938   4.997   6.021   4.287 -0.1881  0.0073  0.4022
 3542SOL     OW13939   0.359   2.533   5.867  0.5524 -0.2514  0.2231
 3542SOL    HW213940   0.452   2.520   5.850  0.2353 -1.8918 -0.4682
 3542SOL    HW313941   0.320   2.538   5.780  0.0782  1.2838  0.5011
 3542SOL    MW413942   0.366   2.532   5.853  0.4480 -0.2653  0.1685
 3543SOL     OW13943   1.268   2.027   2.351 -1.0727 -0.2821 -0.8304
 3543SOL    HW213944   1.201   1.997   2.289 -1.7845  1.1299 -0.7775
 3543SOL    HW313945   1.222   2.033   2.435 -0.9809  0.9729 -0.8497
 3543SOL    MW413946   1.253   2.024   2.354 -1.1545  0.0698 -0.8259
 3544SOL     OW13947   1.104   2.764   2.862 -0.0783 -0.1089 -1.0223
 3544SOL    HW213948   1.100   2.827   2.790 -1.2901 -0.1620 -1.0273
 3544SOL    HW313949   1.013   2.757   2.892  0.5117  0.6069  1.1148
 3544SOL    MW413950   1.092   2.772   2.857 -0.1604 -0.0215 -0.7410
 3545SOL     OW13951   0.121   5.930   4.061  0.0622  0.2776  0.3185
 3545SOL    HW213952   0.154   5.885   4.139  0.8626  1.0924  0.4647
 3545SOL    HW313953   0.055   5.991   4.096 -1.0453 -0.7832  0.1174
 3545SOL    MW413954   0.116   5.932   4.076  0.0217  0.2452  0.3113
 3546SOL     OW13955   5.861   4.682   5.954 -0.0580  0.1640  0.0254
 3546SOL    HW213956   5.913   4.708   6.031 -0.3192  0.2801  0.1620
 3546SOL    HW313957   5.926   4.669   5.885  0.5179 -2.5539  0.9346
 3546SOL    MW413958   5.877   4.683   5.955 -0.0164 -0.1793  0.1634
 3547SOL     OW13959   3.361   3.673   6.245  0.1245 -0.0703  0.6362
 3547SOL    HW213960   3.377   3.766   6.261  0.7681 -0.5161  3.0766
 3547SOL    HW313961   3.320   3.641   6.326  0.8418 -2.1086  0.2686
 3547SOL    MW413962   3.358   3.681   6.258  0.3041 -0.3981  0.9097
 3548SOL     OW13963   3.917   5.499   0.727 -0.6924  0.6130 -0.4983
 3548SOL    HW213964   3.990   5.549   0.764 -1.6467  2.7175 -1.2675
 3548SOL    HW313965   3.849   5.564   0.710 -3.1958 -1.3865  1.0768
 3548SOL    MW413966   3.918   5.514   0.729 -1.1486  0.6268 -0.3920
 3549SOL     OW13967   3.388   1.923   0.188 -0.1621  0.3021  0.2180
 3549SOL    HW213968   3.300   1.923   0.149 -0.0622 -4.4763 -0.5468
 3549SOL    HW313969   3.372   1.918   0.283 -0.7614 -0.4464  0.0914
 3549SOL    MW413970   3.374   1.922   0.196 -0.2280 -0.4271  0.1004
 3550SOL     OW13971   4.160   1.153   1.906  0.5110  0.8637 -0.0315
 3550SOL    HW213972   4.216   1.230   1.916  1.6681  0.1850 -0.9967
 3550SOL    HW313973   4.187   1.113   1.823  0.3251 -0.8704  0.6813
 3550SOL    MW413974   4.171   1.158   1.896  0.6392  0.5454 -0.0648
 3551SOL     OW13975   2.562   2.697   0.115 -0.0495  0.5621 -0.0586
 3551SOL    HW213976   2.546   2.772   0.057 -1.8401  2.4243  2.6259
 3551SOL    HW313977   2.476   2.658   0.128  0.7407 -1.5452 -0.7413
 3551SOL    MW413978   2.549   2.702   0.109 -0.1815  0.5297  0.2055
 3552SOL     OW13979   0.815   3.941   2.276  0.2785 -0.4932 -0.4509
 3552SOL    HW213980   0.889   4.001   2.285 -1.1407  1.3582 -0.4086
 3552SOL    HW313981   0.783   3.955   2.187 -0.5262 -0.6428 -0.1926
 3552SOL    MW413982   0.820   3.951   2.265 -0.0149 -0.2687 -0.4112
 3553SOL     OW13983   6.323   1.682   5.616 -0.0640  0.0517  0.3965
 3553SOL    HW213984   6.357   1.749   5.675 -2.4941 -1.0215  3.2808
 3553SOL    HW313985   6.242   1.720   5.580 -0.6863 -0.7800  0.9021
 3553SOL    MW413986   6.317   1.696   5.619 -0.4668 -0.1997  0.8438
 3554SOL     OW13987   5.357   1.221   4.697 -0.3108  0.2044  0.0808
 3554SOL    HW213988   5.445   1.244   4.667 -0.2272  0.9325  0.8378
 3554SOL    HW313989   5.303   1.219   4.618  0.8720 -2.8426 -0.7990
 3554SOL    MW413990   5.361   1.223   4.683 -0.1437 -0.1016  0.0646
 3555SOL     OW13991   4.911   3.727   4.050 -0.0448  0.2127  0.2159
 3555SOL    HW213992   4.886   3.662   4.116  0.1106  0.6289  0.6894
 3555SOL    HW313993   4.866   3.698   3.970  0.6413 -0.9028  0.2193
 3555SOL    MW413994   4.902   3.714   4.048  0.0662  0.1204  0.2788
 3556SOL     OW13995   0.278   5.773   4.559 -0.4672 -0.4260  0.1443
 3556SOL    HW213996   0.366   5.764   4.595 -0.3446 -1.1132 -0.3057
 3556SOL    HW313997   0.221   5.745   4.631 -0.1305 -4.1302 -0.8267
 3556SOL    MW413998   0.282   5.768   4.574 -0.4066 -1.0054 -0.0432
 3557SOL     OW13999   0.568   0.330   0.823  0.2544  0.4525  0.7420
 3557SOL    HW214000   0.630   0.333   0.896  0.1499  0.7492  0.8189
 3557SOL    HW314001   0.601   0.396   0.761 -0.2793  0.9824  1.0184
 3557SOL    MW414002   0.581   0.339   0.824  0.1702  0.5616  0.7886
 3558SOL     OW14003   5.123   1.409   0.283  0.3634 -0.1303  0.6831
 3558SOL    HW214004   5.162   1.495   0.301 -2.1466  1.5673 -1.3063
 3558SOL    HW314005   5.180   1.369   0.218  1.8392 -0.2499  2.0005
 3558SOL    MW414006   5.136   1.415   0.277  0.2269  0.0779  0.5944
 3559SOL     OW14007   1.767   4.738   3.098 -0.1387  0.2194 -0.0248
 3559SOL    HW214008   1.700   4.798   3.063  0.1595  0.9084  0.5498
 3559SOL    HW314009   1.725   4.698   3.174 -0.5157 -0.6952 -0.7043
 3559SOL    MW414010   1.752   4.741   3.103 -0.1491  0.1896 -0.0387
 3560SOL     OW14011   3.037   3.299   1.065 -0.1166 -0.1578 -0.7058
 3560SOL    HW214012   3.106   3.354   1.103 -0.1653  0.5526 -1.5911
 3560SOL    HW314013   3.016   3.235   1.133  0.8780  0.0982 -0.1406
 3560SOL    MW414014   3.043   3.298   1.079  0.0082 -0.0303 -0.7480
 3561SOL     OW14015   0.376   3.024   0.233 -0.8243 -0.8431  0.4600
 3561SOL    HW214016   0.469   3.018   0.211 -1.0570 -0.7269 -0.6067
 3561SOL    HW314017   0.342   3.091   0.174 -1.5279 -0.6803  1.0457
 3561SOL    MW414018   0.384   3.032   0.222 -0.9478 -0.8063  0.3965
 3562SOL     OW14019   4.951   3.719   4.542  0.4784  0.6048 -0.4836
 3562SOL    HW214020   4.925   3.727   4.634  0.4689 -0.2358 -0.3998
 3562SOL    HW314021   4.875   3.748   4.493 -0.6757 -1.7769 -0.2393
 3562SOL    MW414022   4.938   3.724   4.548  0.3249  0.1797 -0.4403
 3563SOL     OW14023   4.873   3.166   0.890 -0.2345  0.4722  0.4975
 3563SOL    HW214024   4.854   3.096   0.952  1.0522 -0.2812  0.0876
 3563SOL    HW314025   4.920   3.232   0.942  0.1287  0.2090  0.5092
 3563SOL    MW414026   4.877   3.166   0.905 -0.0168  0.3380  0.4449
 3564SOL     OW14027   2.707   2.175   5.020 -0.3086 -0.2865 -0.7156
 3564SOL    HW214028   2.712   2.107   4.953 -0.0404 -1.7818  0.7533
 3564SOL    HW314029   2.785   2.229   5.006 -0.5470 -0.2366 -1.9225
 3564SOL    MW414030   2.718   2.173   5.010 -0.3046 -0.4772 -0.6810
 3565SOL     OW14031   3.320   3.399   4.282  0.1151  0.1029  0.4252
 3565SOL    HW214032   3.232   3.371   4.306 -1.0786  2.2105 -1.0488
 3565SOL    HW314033   3.338   3.354   4.199 -1.2942  2.4413 -1.2995
 3565SOL    MW414034   3.311   3.389   4.274 -0.2283  0.6895  0.0032
 3566SOL     OW14035   2.269   2.487   1.546 -0.0591  0.1552 -0.0499
 3566SOL    HW214036   2.358   2.452   1.550 -0.4782 -0.8984  0.5099
 3566SOL    HW314037   2.243   2.497   1.637 -0.7173 -0.1088 -0.2007
 3566SOL    MW414038   2.277   2.483   1.558 -0.2013 -0.0187  0.0041
 3567SOL     OW14039   3.886   1.124   6.118 -0.0447  0.0661 -0.9397
 3567SOL    HW214040   3.853   1.214   6.122 -0.4356 -0.0413 -1.6285
 3567SOL    HW314041   3.961   1.129   6.059 -0.7909 -0.2689 -1.9305
 3567SOL    MW414042   3.892   1.137   6.111 -0.1948  0.0077 -1.1613
 3568SOL     OW14043   0.163   2.884   5.894  0.0589 -0.1966 -0.2000
 3568SOL    HW214044   0.104   2.873   5.819 -1.0558 -0.3022  0.6659
 3568SOL    HW314045   0.164   2.978   5.910 -2.5904 -0.4038  1.8315
 3568SOL    MW414046   0.155   2.895   5.886 -0.4377 -0.2378  0.1823
 3569SOL     OW14047   1.734   0.625   4.222  0.0768 -1.1822 -0.1717
 3569SOL    HW214048   1.743   0.661   4.133  1.4244  0.3379  0.5272
 3569SOL    HW314049   1.641   0.635   4.243 -0.1203 -0.8854 -1.1184
 3569SOL    MW414050   1.723   0.631   4.213  0.2286 -0.9425 -0.2044
 3570SOL     OW14051   1.134   2.317   4.510  0.2368  0.0985 -0.4507
 3570SOL    HW214052   1.147   2.405   4.475 -1.6615  0.4874 -0.2992
 3570SOL    HW314053   1.189   2.314   4.588  1.3241  0.6752 -1.1670
 3570SOL    MW414054   1.143   2.328   4.516  0.1298  0.2259 -0.5252
 3571SOL     OW14055   3.523   6.282   0.596  0.0666 -0.3310  0.1066
 3571SOL    HW214056   3.469   6.308   0.670  1.4655  0.2519  0.9521
 3571SOL    HW314057   3.562   6.364   0.565  2.8002 -1.0250  1.4153
 3571SOL    MW414058   3.521   6.296   0.601  0.6119 -0.3456  0.3908
 3572SOL     OW14059   2.485   5.498   4.986 -0.3837  0.2338  0.3257
 3572SOL    HW214060   2.541   5.450   5.046  1.3376  1.2964 -0.3557
 3572SOL    HW314061   2.405   5.446   4.981  2.1013 -3.9155 -2.0640
 3572SOL    MW414062   2.482   5.485   4.993  0.1713 -0.1735 -0.0795
 3573SOL     OW14063   1.059   6.297   0.658  0.4187  0.4629  0.2379
 3573SOL    HW214064   1.039   6.360   0.727  0.1552  1.3892 -0.6827
 3573SOL    HW314065   1.155   6.301   0.650  0.3258  1.4458 -0.4693
 3573SOL    MW414066   1.069   6.306   0.666  0.3717  0.7148  0.0232
 3574SOL     OW14067   2.475   0.178   2.981 -0.0590 -0.4295 -0.6220
 3574SOL    HW214068   2.474   0.232   3.060  0.1437 -2.4866  0.8916
 3574SOL    HW314069   2.431   0.231   2.914 -0.0859  1.4544  0.8140
 3574SOL    MW414070   2.469   0.192   2.982 -0.0358 -0.4523 -0.2329
 3575SOL     OW14071   2.486   6.409   5.994  0.2927 -0.2187 -0.0149
 3575SOL    HW214072   2.510   6.318   6.012  0.9750  0.2521  1.6742
 3575SOL    HW314073   2.414   6.403   5.932  1.2546 -1.8625 -1.0427
 3575SOL    MW414074   2.480   6.396   5.988  0.5096 -0.3734  0.0724
 3576SOL     OW14075   2.038   2.504   0.637  0.6024 -0.3752 -0.1220
 3576SOL    HW214076   2.102   2.574   0.644 -1.6246  1.8301 -0.5966
 3576SOL    HW314077   1.969   2.539   0.581 -1.4925 -2.2554  1.0883
 3576SOL    MW414078   2.037   2.518   0.630  0.0322 -0.3323 -0.0249
 3577SOL     OW14079   3.644   4.961   5.426 -0.3983 -0.4612  0.0027
 3577SOL    HW214080   3.631   4.971   5.520 -0.2070 -1.3135  0.1269
 3577SOL    HW314081   3.611   5.043   5.389  1.0323  0.6011  0.9329
 3577SOL    MW414082   3.638   4.973   5.434 -0.1843 -0.4335  0.1418
 3578SOL     OW14083   1.219   3.745   0.610  0.6992  0.2001 -0.3590
 3578SOL    HW214084   1.210   3.732   0.516 -2.1512  0.8025 -0.2522
 3578SOL    HW314085   1.204   3.839   0.623 -0.3822 -0.0883  0.7743
 3578SOL    MW414086   1.216   3.756   0.599  0.1804  0.2415 -0.1954
 3579SOL     OW14087   4.813   3.583   2.594 -0.3681 -0.6948 -0.0930
 3579SOL    HW214088   4.798   3.644   2.521 -0.1735 -0.9989 -0.3915
 3579SOL    HW314089   4.892   3.536   2.570 -1.3043 -2.1041 -0.5857
 3579SOL    MW414090   4.821   3.585   2.581 -0.4659 -0.9208 -0.1974
 3580SOL     OW14091   1.774   5.316   3.564 -0.8726  0.2536 -0.3354
 3580SOL    HW214092   1.819   5.370   3.499 -0.5035  1.1683  0.6504
 3580SOL    HW314093   1.841   5.255   3.595 -1.0909 -0.2875 -0.9169
 3580SOL    MW414094   1.789   5.315   3.559 -0.8527  0.3029 -0.2820
 3581SOL     OW14095   4.591   0.426   3.952  0.2758  0.1981 -0.1333
 3581SOL    HW214096   4.637   0.500   3.913  1.5226 -0.0799  0.7630
 3581SOL    HW314097   4.592   0.358   3.884 -0.9100  0.9796 -0.9756
 3581SOL    MW414098   4.597   0.427   3.938  0.2839  0.2645 -0.1262
 3582SOL     OW14099   1.795   2.814   3.480 -0.1697  0.1245 -0.7534
 3582SOL    HW214100   1.863   2.815   3.413 -0.5563 -0.1541 -1.1570
 3582SOL    HW314101   1.713   2.820   3.431 -0.5859 -2.4739 -0.4920
 3582SOL    MW414102   1.793   2.815   3.465 -0.2756 -0.2551 -0.7721
 3583SOL     OW14103   0.787   0.774   1.820 -0.7243 -0.1063 -0.8012
 3583SOL    HW214104   0.842   0.708   1.861 -2.6158 -1.1603  0.1788
 3583SOL    HW314105   0.842   0.852   1.816  1.3120 -1.4998 -1.2846
 3583SOL    MW414106   0.802   0.776   1.825 -0.7052 -0.4292 -0.7357
 3584SOL     OW14107   0.965   3.637   0.676  0.1547 -0.5779  0.6026
 3584SOL    HW214108   1.051   3.675   0.658 -0.2268 -0.3878 -1.0634
 3584SOL    HW314109   0.982   3.544   0.689  0.4427 -0.9791 -2.0387
 3584SOL    MW414110   0.979   3.630   0.675  0.1424 -0.6058  0.0343
 3585SOL     OW14111   0.659   2.826   5.763  0.2019  0.1256  0.0280
 3585SOL    HW214112   0.696   2.790   5.682  1.2440  0.2888  0.4127
 3585SOL    HW314113   0.594   2.890   5.733 -1.9678 -2.2320 -0.6918
 3585SOL    MW414114   0.655   2.830   5.748  0.0532 -0.1639 -0.0162
 3586SOL     OW14115   3.965   4.452   3.684  0.3770  0.2366  0.2888
 3586SOL    HW214116   3.995   4.519   3.622 -0.9239  1.6508  1.1385
 3586SOL    HW314117   3.988   4.487   3.770  1.4867 -1.3635  0.6828
 3586SOL    MW414118   3.972   4.466   3.687  0.3518  0.2121  0.4529
 3587SOL     OW14119   2.343   2.130   1.977  0.1298  0.6374 -0.4086
 3587SOL    HW214120   2.296   2.109   2.058  1.7660  3.7351  1.5410
 3587SOL    HW314121   2.431   2.095   1.990  1.1515  3.2705  0.3873
 3587SOL    MW414122   2.348   2.123   1.989  0.4805  1.3935 -0.0464
 3588SOL     OW14123   5.653   4.639   2.815 -0.4202 -0.1075  0.2243
 3588SOL    HW214124   5.595   4.675   2.748  0.0673 -0.5224 -0.4421
 3588SOL    HW314125   5.671   4.550   2.784  0.7961  0.1180  0.2596
 3588SOL    MW414126   5.648   4.632   2.802 -0.1954 -0.1325  0.1410
 3589SOL     OW14127   1.079   2.693   5.875  0.5316  0.0113  0.1236
 3589SOL    HW214128   0.989   2.721   5.892  0.4312 -1.3093  2.0072
 3589SOL    HW314129   1.119   2.685   5.961  2.6900  1.1297 -0.6882
 3589SOL    MW414130   1.072   2.696   5.888  0.8031 -0.0154  0.2650
 3590SOL     OW14131   2.647   0.263   5.284 -1.0885 -1.0054  0.3109
 3590SOL    HW214132   2.567   0.210   5.285 -1.4374 -0.4767  1.4820
 3590SOL    HW314133   2.619   0.350   5.311 -0.2378 -0.6108 -0.0371
 3590SOL    MW414134   2.633   0.267   5.287 -1.0223 -0.8836  0.4195
 3591SOL     OW14135   4.258   1.855   6.060 -0.6344 -0.2767  0.2515
 3591SOL    HW214136   4.191   1.858   5.992  0.5423 -1.3450 -1.0296
 3591SOL    HW314137   4.248   1.938   6.107 -2.7133 -0.3359  0.0092
 3591SOL    MW414138   4.248   1.866   6.057 -0.7535 -0.4254  0.0505
 3592SOL     OW14139   2.551   4.635   0.090 -0.7285 -0.2603 -0.0826
 3592SOL    HW214140   2.475   4.586   0.058 -1.0921  0.3380 -0.1501
 3592SOL    HW314141   2.514   4.699   0.151 -0.3228  0.2716 -0.3818
 3592SOL    MW414142   2.536   4.637   0.094 -0.7229 -0.1112 -0.1310
 3593SOL     OW14143   0.493   3.823   1.649 -0.1590  0.6960 -0.3122
 3593SOL    HW214144   0.571   3.768   1.640 -0.3048  0.7688 -3.0038
 3593SOL    HW314145   0.425   3.762   1.677  0.7664  0.6204  2.0241
 3593SOL    MW414146   0.494   3.808   1.651 -0.0561  0.6956 -0.3591
 3594SOL     OW14147   5.649   5.930   2.607 -0.4333  0.5873 -0.0278
 3594SOL    HW214148   5.675   5.855   2.553 -0.3603  1.1807 -0.8367
 3594SOL    HW314149   5.732   5.969   2.636 -0.4736  0.1149  0.7471
 3594SOL    MW414150   5.664   5.925   2.603 -0.4290  0.6032 -0.0323
 3595SOL     OW14151   1.103   5.421   1.159  0.4865 -0.0843 -0.3152
 3595SOL    HW214152   1.138   5.332   1.165  0.2107 -0.2254 -0.7971
 3595SOL    HW314153   1.144   5.467   1.232  1.4573 -0.3230 -0.6907
 3595SOL    MW414154   1.113   5.415   1.169  0.5782 -0.1344 -0.4283
 3596SOL     OW14155   5.051   2.707   2.690  0.0239  0.2626  0.0814
 3596SOL    HW214156   5.075   2.615   2.704 -1.6986 -0.0444  1.3200
 3596SOL    HW314157   5.065   2.749   2.775  0.3459  1.0478 -0.3525
 3596SOL    MW414158   5.056   2.700   2.703 -0.1609  0.3257  0.1875
 3597SOL     OW14159   0.801   0.841   0.526 -0.1113 -0.5403 -0.2787
 3597SOL    HW214160   0.722   0.807   0.569 -0.3611 -0.0100 -0.3052
 3597SOL    HW314161   0.827   0.916   0.580  0.1103 -0.4369 -0.5279
 3597SOL    MW414162   0.794   0.846   0.539 -0.1150 -0.4567 -0.3151
 3598SOL     OW14163   2.478   3.004   3.738 -0.0413 -0.1248  0.1911
 3598SOL    HW214164   2.492   3.030   3.830 -0.0335 -0.8410  0.3943
 3598SOL    HW314165   2.565   2.983   3.705  0.2305  1.9509 -0.5613
 3598SOL    MW414166   2.491   3.005   3.746 -0.0044  0.0546  0.1187
 3599SOL     OW14167   4.999   4.300   6.299  0.0884 -0.1205  0.1686
 3599SOL    HW214168   4.904   4.294   6.307 -0.4500  1.2540 -3.2881
 3599SOL    HW314169   5.031   4.213   6.321 -2.3566 -1.6009 -1.6383
 3599SOL    MW414170   4.991   4.288   6.303 -0.3052 -0.1344 -0.5259
 3600SOL     OW14171   5.377   6.393   2.454  0.4236 -0.6291  0.4635
 3600SOL    HW214172   5.352   6.301   2.448 -0.4826 -0.3273 -1.0936
 3600SOL    HW314173   5.304   6.440   2.413  1.3375  0.6953  0.2880
 3600SOL    MW414174   5.364   6.387   2.448  0.4246 -0.4145  0.2349
 3601SOL     OW14175   1.537   5.736   5.852  0.0422 -0.7074  0.5310
 3601SOL    HW214176   1.594   5.807   5.821 -0.7286 -0.6242 -0.7694
 3601SOL    HW314177   1.465   5.781   5.897 -1.0120 -0.5473 -1.2197
 3601SOL    MW414178   1.535   5.751   5.854 -0.1986 -0.6753  0.1284
 3602SOL     OW14179   3.327   6.082   0.306  0.1279  0.5446  0.4778
 3602SOL    HW214180   3.378   6.006   0.334  0.2308 -0.1392 -1.3819
 3602SOL    HW314181   3.308   6.065   0.213 -0.6802  2.3409  0.2678
 3602SOL    MW414182   3.331   6.070   0.297  0.0349  0.6914  0.2047
 3603SOL     OW14183   4.598   0.447   1.523 -0.3158 -0.6741 -0.5456
 3603SOL    HW214184   4.644   0.479   1.446  0.6771  0.9466  0.6711
 3603SOL    HW314185   4.529   0.512   1.539 -1.6142 -1.8697 -0.9899
 3603SOL    MW414186   4.595   0.459   1.515 -0.3561 -0.6180 -0.4437
 3604SOL     OW14187   3.199   3.758   2.677  0.0086 -0.2539  0.6519
 3604SOL    HW214188   3.191   3.711   2.594  0.6086 -0.3188  0.6291
 3604SOL    HW314189   3.291   3.747   2.702 -0.4242 -1.2290  1.9133
 3604SOL    MW414190   3.210   3.750   2.669  0.0306 -0.3911  0.8153
 3605SOL     OW14191   5.775   3.706   1.869  0.5493 -0.2245  0.3237
 3605SOL    HW214192   5.712   3.641   1.839  1.2465 -0.5669 -0.4371
 3605SOL    HW314193   5.801   3.752   1.789 -0.2027  1.2511  0.8863
 3605SOL    MW414194   5.770   3.704   1.855  0.5421 -0.0750  0.2976
 3606SOL     OW14195   5.938   1.770   3.013  0.3562 -0.0639 -0.2096
 3606SOL    HW214196   6.024   1.796   3.048 -0.5871  1.6269  0.9917
 3606SOL    HW314197   5.890   1.739   3.090 -0.1511 -0.9605 -0.8666
 3606SOL    MW414198   5.943   1.769   3.028  0.1648  0.0409 -0.1378
 3607SOL     OW14199   0.549   4.806   3.719 -0.4830  0.3576 -0.5599
 3607SOL    HW214200   0.620   4.780   3.777 -0.6365  2.5168  0.6669
 3607SOL    HW314201   0.516   4.723   3.684  0.3894 -0.9385  1.4971
 3607SOL    MW414202   0.554   4.791   3.722 -0.3881  0.4715 -0.1266
 3608SOL     OW14203   2.165   0.874   1.816  0.1446  0.4615  0.0077
 3608SOL    HW214204   2.098   0.942   1.811  0.4806  0.8024  0.0435
 3608SOL    HW314205   2.129   0.808   1.874 -1.1127 -0.4390 -1.7195
 3608SOL    MW414206   2.151   0.874   1.823  0.0231  0.3877 -0.2155
 3609SOL     OW14207   6.048   4.806   2.284  0.0139 -0.7035 -0.0151
 3609SOL    HW214208   5.999   4.781   2.206 -1.5541 -2.7006  1.4935
 3609SOL    HW314209   6.104   4.730   2.303  1.7649  0.4847 -0.1777
 3609SOL    MW414210   6.049   4.793   2.276  0.0380 -0.8102  0.1625
 3610SOL     OW14211   0.015   5.651   4.328 -0.2461 -0.1649 -0.3549
 3610SOL    HW214212  -0.035   5.570   4.333  0.9294 -1.0792 -2.2968
 3610SOL    HW314213   0.104   5.623   4.308  0.6834  1.5176  1.1171
 3610SOL    MW414214   0.020   5.637   4.326  0.0317 -0.0635 -0.4169
 3611SOL     OW14215   0.887   4.018   5.195  0.4179  0.2562  0.3670
 3611SOL    HW214216   0.824   3.955   5.233 -0.5437  0.5787 -0.6404
 3611SOL    HW314217   0.875   4.009   5.101  2.3902 -0.1430  0.1077
 3611SOL    MW414218   0.877   4.008   5.188  0.5512  0.2461  0.1999
 3612SOL     OW14219   3.651   1.111   4.348 -0.5754  0.2206 -0.1591
 3612SOL    HW214220   3.635   1.024   4.385 -1.4897 -0.6623 -2.4320
 3612SOL    HW314221   3.647   1.170   4.423  0.7237 -1.7275  1.5582
 3612SOL    MW414222   3.649   1.108   4.362 -0.5246 -0.1530 -0.2324
 3613SOL     OW14223   2.451   4.402   0.365  0.4734  0.1329 -0.5103
 3613SOL    HW214224   2.376   4.400   0.306  0.6961  1.0860 -0.8517
 3613SOL    HW314225   2.412   4.415   0.452  0.1882 -0.4842 -0.5447
 3613SOL    MW414226   2.436   4.404   0.369  0.4651  0.1772 -0.5599
 3614SOL     OW14227   1.291   4.672   2.977  0.7063 -0.1501  0.4359
 3614SOL    HW214228   1.270   4.610   2.907 -1.1327  0.7203  0.1668
 3614SOL    HW314229   1.303   4.616   3.054  0.1272 -0.9197 -0.0137
 3614SOL    MW414230   1.290   4.656   2.978  0.3873 -0.1368  0.3411
 3615SOL     OW14231   0.886   6.332   0.933 -0.4670  0.2570 -0.0547
 3615SOL    HW214232   0.967   6.382   0.924  1.2817 -2.1607  1.0447
 3615SOL    HW314233   0.909   6.260   0.992 -2.7942 -1.8214 -1.4863
 3615SOL    MW414234   0.900   6.329   0.939 -0.5433 -0.3362 -0.0986
 3616SOL     OW14235   0.923   3.338   3.290  0.3333  0.0868 -0.1673
 3616SOL    HW214236   0.972   3.268   3.247 -0.2239 -0.2847 -0.2060
 3616SOL    HW314237   0.986   3.409   3.299  0.9369 -0.4524 -0.0403
 3616SOL    MW414238   0.938   3.338   3.285  0.3395 -0.0334 -0.1557
 3617SOL     OW14239   3.464   4.237   0.148 -0.2682  0.1033 -0.1965
 3617SOL    HW214240   3.504   4.197   0.225 -2.6867 -1.2333  0.4784
 3617SOL    HW314241   3.489   4.329   0.154  1.4953 -0.3902  0.8790
 3617SOL    MW414242   3.472   4.244   0.159 -0.3546 -0.1382  0.0344
 3618SOL     OW14243   5.639   2.538   5.969  0.3063  0.3647  0.2159
 3618SOL    HW214244   5.691   2.480   5.913 -1.2694 -0.2977 -0.6479
 3618SOL    HW314245   5.550   2.531   5.933 -0.7553  0.0009  2.7123
 3618SOL    MW414246   5.634   2.529   5.957 -0.0417  0.2293  0.4313
 3619SOL     OW14247   1.604   0.536   4.944 -0.2413 -0.2414 -0.2425
 3619SOL    HW214248   1.556   0.574   4.870 -0.6997 -0.1577  0.0921
 3619SOL    HW314249   1.671   0.480   4.903  1.1759  1.7385 -0.7755
 3619SOL    MW414250   1.606   0.534   4.929 -0.1148  0.0309 -0.2687
 3620SOL     OW14251   4.897   5.606   5.151  0.6749  0.3455  0.8789
 3620SOL    HW214252   4.952   5.663   5.097  1.9742 -1.2853  0.4050
 3620SOL    HW314253   4.953   5.580   5.223 -0.0447  0.0078  1.3229
 3620SOL    MW414254   4.911   5.610   5.153  0.7514  0.0858  0.8749
 3621SOL     OW14255   0.636   3.926   5.019  0.1731 -0.6381 -0.1573
 3621SOL    HW214256   0.582   3.997   5.055 -1.0901 -1.6993  0.0991
 3621SOL    HW314257   0.621   3.852   5.078  1.7808 -1.0346 -0.1899
 3621SOL    MW414258   0.627   3.926   5.032  0.2186 -0.8304 -0.1278
 3622SOL     OW14259   5.941   6.066   6.289 -0.0343 -0.2033 -0.1724
 3622SOL    HW214260   5.951   6.149   6.335  0.0766 -0.9514  1.2056
 3622SOL    HW314261   5.962   6.086   6.198  1.7796  0.9055  0.4484
 3622SOL    MW414262   5.945   6.080   6.283  0.2197 -0.1557  0.0913
 3623SOL     OW14263   4.184   5.577   2.698 -0.2029  0.0022  0.4989
 3623SOL    HW214264   4.098   5.540   2.717 -0.4753 -0.3269 -1.2024
 3623SOL    HW314265   4.167   5.667   2.670 -0.0558 -0.1944 -0.2498
 3623SOL    MW414266   4.170   5.584   2.697 -0.2194 -0.0672  0.1757
 3624SOL     OW14267   3.439   4.697   1.779 -0.0510  0.0530  0.0166
 3624SOL    HW214268   3.486   4.614   1.781  0.3546  0.2888  0.3663
 3624SOL    HW314269   3.470   4.742   1.701  0.5923  0.3682  0.4437
 3624SOL    MW414270   3.449   4.692   1.769  0.0874  0.1257  0.1191
 3625SOL     OW14271   6.150   2.387   4.692  0.3157 -0.1158  0.7814
 3625SOL    HW214272   6.118   2.463   4.741  1.3614  3.3705 -3.4101
 3625SOL    HW314273   6.237   2.413   4.661 -0.4114 -1.7836 -3.1688
 3625SOL    MW414274   6.157   2.400   4.695  0.3578  0.1241 -0.2928
 3626SOL     OW14275   5.869   0.506   1.805 -0.7092  0.1091  0.0421
 3626SOL    HW214276   5.851   0.545   1.719  0.4013  2.6542  0.8718
 3626SOL    HW314277   5.889   0.580   1.861 -0.5711 -1.5614  2.3305
 3626SOL    MW414278   5.869   0.521   1.801 -0.5445  0.2245  0.4535
 3627SOL     OW14279   1.972   4.739   1.287  0.0692  0.1572 -0.0345
 3627SOL    HW214280   1.893   4.708   1.331  2.0567 -1.6017  2.6373
 3627SOL    HW314281   1.979   4.685   1.208 -0.5698 -0.8320  0.5631
 3627SOL    MW414282   1.962   4.728   1.283  0.2471 -0.2054  0.3969
 3628SOL     OW14283   0.415   1.978   6.428 -0.0676  0.2677  0.0258
 3628SOL    HW214284   0.481   2.005   6.491  1.0081 -0.5977 -0.6987
 3628SOL    HW314285   0.456   1.991   6.343 -1.1366  0.4975 -0.4709
 3628SOL    MW414286   0.429   1.983   6.425 -0.0667  0.1839 -0.1353
 3629SOL     OW14287   0.818   4.247   1.137  0.0397  0.2975 -0.1865
 3629SOL    HW214288   0.837   4.166   1.089  0.9854  1.4260 -1.8304
 3629SOL    HW314289   0.897   4.262   1.190  0.5516  0.9324 -1.0942
 3629SOL    MW414290   0.831   4.238   1.138  0.2320  0.5302 -0.5232
 3630SOL     OW14291   1.267   4.378   5.690  0.5959 -0.6431 -0.0740
 3630SOL    HW214292   1.336   4.419   5.637 -0.4321 -0.8954 -1.6740
 3630SOL    HW314293   1.306   4.296   5.720  1.4621 -0.1457  0.1942
 3630SOL    MW414294   1.281   4.373   5.687  0.5746 -0.6107 -0.2497
 3631SOL     OW14295   1.790   5.384   0.078 -0.2795  0.1750  0.2432
 3631SOL    HW214296   1.723   5.316   0.070  0.6637 -0.5860 -2.4080
 3631SOL    HW314297   1.835   5.383  -0.007  1.8965  1.9139  1.2734
 3631SOL    MW414298   1.787   5.375   0.065  0.1320  0.3040  0.0294
 3632SOL     OW14299   0.133   2.847   0.624  0.1997 -0.3221  1.0143
 3632SOL    HW214300   0.081   2.894   0.559  0.9975 -1.1595 -0.2734
 3632SOL    HW314301   0.131   2.903   0.702 -3.5480 -0.8333  1.4492
 3632SOL    MW414302   0.126   2.860   0.626 -0.1895 -0.5001  0.9018
 3633SOL     OW14303   4.470   5.571   3.923  0.7204 -0.1558 -0.0922
 3633SOL    HW214304   4.533   5.535   3.985 -0.3008 -3.0203 -0.6066
 3633SOL    HW314305   4.511   5.560   3.838  0.6838  0.6383 -0.2262
 3633SOL    MW414306   4.484   5.565   3.920  0.5809 -0.4290 -0.1777
 3634SOL     OW14307   5.775   1.061   4.699 -0.3227 -0.2592 -0.1771
 3634SOL    HW214308   5.758   1.134   4.759  0.4034 -1.3183  1.3789
 3634SOL    HW314309   5.816   1.102   4.623  2.5500  0.7529  1.7445
 3634SOL    MW414310   5.778   1.076   4.697  0.1521 -0.2654  0.2817
 3635SOL     OW14311   0.874   5.540   2.247 -0.2062 -0.4384  0.6966
 3635SOL    HW214312   0.797   5.561   2.300 -0.2853 -0.5569  0.6290
 3635SOL    HW314313   0.926   5.620   2.247 -0.4149 -0.3041  0.5935
 3635SOL    MW414314   0.871   5.553   2.254 -0.2442 -0.4363  0.6741
 3636SOL     OW14315   5.431   0.115   1.263 -0.4040  0.2881 -0.3875
 3636SOL    HW214316   5.352   0.098   1.211 -0.8207 -1.9054  0.8327
 3636SOL    HW314317   5.502   0.118   1.198 -1.1479 -0.4774 -1.2771
 3636SOL    MW414318   5.430   0.113   1.247 -0.5571 -0.1023 -0.3439
 3637SOL     OW14319   1.786   5.486   1.508 -0.6879  0.1467 -0.4900
 3637SOL    HW214320   1.787   5.400   1.550  2.2890  1.0640  1.6848
 3637SOL    HW314321   1.805   5.468   1.416 -1.7739 -1.5606 -0.4388
 3637SOL    MW414322   1.788   5.472   1.501 -0.4384  0.0424 -0.1963
 3638SOL     OW14323   2.299   5.478   5.735  0.0214 -0.0418  0.2534
 3638SOL    HW214324   2.251   5.557   5.710 -0.3764 -0.3888 -0.0981
 3638SOL    HW314325   2.242   5.432   5.796 -0.5338 -0.9267 -0.8887
 3638SOL    MW414326   2.285   5.483   5.739 -0.1043 -0.2043  0.0563
 3639SOL     OW14327   0.997   5.577   0.218 -0.2196 -0.3088  0.9655
 3639SOL    HW214328   1.009   5.497   0.168 -0.9746 -0.2327  0.6567
 3639SOL    HW314329   1.076   5.583   0.272  0.5704 -0.4477 -0.1314
 3639SOL    MW414330   1.009   5.568   0.219 -0.2150 -0.3171  0.7800
 3640SOL     OW14331   0.307   1.936   4.145  0.1673  0.2877 -0.2650
 3640SOL    HW214332   0.388   1.927   4.095 -0.1848  1.7627 -1.1841
 3640SOL    HW314333   0.334   1.976   4.228  0.4595  0.1629 -0.2984
 3640SOL    MW414334   0.321   1.940   4.149  0.1594  0.4659 -0.3907
 3641SOL     OW14335   4.715   4.502   2.059  0.1367  0.1755 -0.1401
 3641SOL    HW214336   4.685   4.560   1.989  1.0295  1.6946  0.6769
 3641SOL    HW314337   4.780   4.445   2.016 -1.4563 -0.9551 -1.1709
 3641SOL    MW414338   4.720   4.502   2.044  0.0443  0.2268 -0.1683
 3642SOL     OW14339   0.468   4.749   6.353  0.2827  0.0058 -0.4361
 3642SOL    HW214340   0.550   4.777   6.313  0.5629  0.4168  0.4033
 3642SOL    HW314341   0.424   4.830   6.379 -0.3462 -0.2131 -0.7720
 3642SOL    MW414342   0.473   4.764   6.351  0.2367  0.0311 -0.3697
 3643SOL     OW14343   5.389   3.738   2.869  0.0408  0.1244 -0.3439
 3643SOL    HW214344   5.395   3.818   2.922 -1.5213  0.8275 -1.1615
 3643SOL    HW314345   5.453   3.679   2.908  0.0508  1.1740  1.3392
 3643SOL    MW414346   5.398   3.741   2.881 -0.1640  0.3557 -0.2297
 3644SOL     OW14347   3.091   1.703   3.696  0.1268 -0.5222  0.0732
 3644SOL    HW214348   3.137   1.735   3.618  1.3888 -0.8742  0.6505
 3644SOL    HW314349   3.150   1.637   3.733 -0.9561 -1.1484  0.7207
 3644SOL    MW414350   3.105   1.698   3.690  0.1504 -0.6512  0.2348
 3645SOL     OW14351   6.197   4.920   5.520 -0.3722  0.4425 -0.2444
 3645SOL    HW214352   6.224   4.883   5.604 -0.1030 -0.3286 -0.6627
 3645SOL    HW314353   6.109   4.886   5.506  0.4785 -1.4369 -1.4019
 3645SOL    MW414354   6.189   4.911   5.529 -0.2244  0.0928 -0.4523
 3646SOL     OW14355   2.015   5.889   3.932 -0.0816  0.5975 -0.5549
 3646SOL    HW214356   2.098   5.853   3.901  0.1312 -0.9351  1.5697
 3646SOL    HW314357   1.949   5.846   3.877  0.4482  0.9880 -1.5234
 3646SOL    MW414358   2.017   5.878   3.921  0.0164  0.4468 -0.4024
 3647SOL     OW14359   2.525   1.008   0.515 -0.3348 -0.0414 -0.1471
 3647SOL    HW214360   2.441   1.052   0.502 -1.4141 -0.9713  2.9022
 3647SOL    HW314361   2.583   1.077   0.547 -1.0561 -0.1246  1.3900
 3647SOL    MW414362   2.521   1.023   0.517 -0.5724 -0.1751  0.4580
 3648SOL     OW14363   0.234   3.168   4.814  0.8481  0.7109 -0.3041
 3648SOL    HW214364   0.328   3.180   4.804  0.9592  1.1247  0.9554
 3648SOL    HW314365   0.195   3.242   4.769  0.9655 -0.8362 -3.1341
 3648SOL    MW414366   0.241   3.179   4.807  0.8783  0.5614 -0.5113
 3649SOL     OW14367   4.415   0.309   1.823 -0.3848 -0.1850  0.4477
 3649SOL    HW214368   4.492   0.253   1.830 -0.3841 -0.3872 -0.8170
 3649SOL    HW314369   4.444   0.382   1.768 -0.9253  0.0376  0.4474
 3649SOL    MW414370   4.429   0.311   1.816 -0.4560 -0.1823  0.2808
 3650SOL     OW14371   1.452   3.995   4.648  0.3755 -0.2733  0.3243
 3650SOL    HW214372   1.416   4.017   4.734  0.6631 -2.9717  1.2095
 3650SOL    HW314373   1.531   3.945   4.667  0.5975 -0.7008 -1.5329
 3650SOL    MW414374   1.458   3.991   4.662  0.4428 -0.6857  0.1961
 3651SOL     OW14375   5.752   2.050   6.420 -0.1933  0.8470 -0.3732
 3651SOL    HW214376   5.782   2.139   6.402 -0.1027  0.8205 -0.3525
 3651SOL    HW314377   5.751   2.044   6.516 -1.7223  1.3497 -0.3181
 3651SOL    MW414378   5.756   2.061   6.431 -0.3831  0.9098 -0.3632
 3652SOL     OW14379   5.286   0.573   2.789  0.0573  0.8029  0.4058
 3652SOL    HW214380   5.268   0.665   2.811 -0.2377  0.8468 -0.0067
 3652SOL    HW314381   5.363   0.550   2.842 -1.3410  0.5227  2.4521
 3652SOL    MW414382   5.294   0.582   2.799 -0.1661  0.7717  0.6214
 3653SOL     OW14383   1.420   3.549   3.289  0.2263  0.3080 -0.3606
 3653SOL    HW214384   1.479   3.488   3.334  1.0247 -0.4524 -2.3464
 3653SOL    HW314385   1.422   3.522   3.198 -1.7388  1.4793 -0.8132
 3653SOL    MW414386   1.428   3.537   3.283  0.0724  0.3622 -0.6824
 3654SOL     OW14387   5.526   6.416   5.310  0.2892 -0.0395 -0.2941
 3654SOL    HW214388   5.607   6.380   5.273  1.1372  0.1416  1.2741
 3654SOL    HW314389   5.465   6.342   5.311  1.4667 -1.0726  1.3050
 3654SOL    MW414390   5.528   6.401   5.306  0.5564 -0.1519  0.1238
 3655SOL     OW14391   1.404   5.958   6.189  0.0095  0.3276 -0.7258
 3655SOL    HW214392   1.379   6.001   6.271  1.5289  0.1770 -0.1403
 3655SOL    HW314393   1.323   5.922   6.154 -0.9036  1.6321 -0.0156
 3655SOL    MW414394   1.390   5.959   6.196  0.0895  0.4798 -0.5548
 3656SOL     OW14395   0.938   2.644   4.587 -0.4322 -0.0598  0.4055
 3656SOL    HW214396   0.996   2.611   4.656 -0.5712 -0.3801  0.3721
 3656SOL    HW314397   0.956   2.738   4.583  2.6157 -0.5602 -1.9340
 3656SOL    MW414398   0.948   2.652   4.595 -0.0484 -0.1681  0.0924
 3657SOL     OW14399   2.580   6.287   1.948  0.4918  0.4556 -0.4590
 3657SOL    HW214400   2.500   6.249   1.912  0.0756  0.1792  0.6820
 3657SOL    HW314401   2.618   6.216   2.000  1.0974  0.8099 -0.4084
 3657SOL    MW414402   2.574   6.272   1.950  0.5168  0.4659 -0.3018
 3658SOL     OW14403   5.709   5.680   4.482 -0.1214 -0.0780  0.1211
 3658SOL    HW214404   5.751   5.744   4.540  1.1633 -0.6759 -0.1132
 3658SOL    HW314405   5.690   5.729   4.402 -0.4463  0.3460  0.4472
 3658SOL    MW414406   5.712   5.695   4.479  0.0053 -0.1009  0.1332
 3659SOL     OW14407   2.615   2.987   1.861 -0.6200  0.6331 -0.7841
 3659SOL    HW214408   2.558   2.923   1.902 -0.9281  3.2059  3.3465
 3659SOL    HW314409   2.557   3.038   1.804 -1.2888  0.0018 -0.6802
 3659SOL    MW414410   2.600   2.985   1.859 -0.7489  0.8893 -0.2254
 3660SOL     OW14411   5.010   3.980   4.044  0.4910  0.4231 -0.0588
 3660SOL    HW214412   4.980   3.891   4.061  2.0112  0.3077  2.6605
 3660SOL    HW314413   4.932   4.026   4.013 -0.1013 -2.0126 -2.6171
 3660SOL    MW414414   4.996   3.974   4.042  0.6134  0.0865 -0.0376
 3661SOL     OW14415   2.815   5.087   3.255  0.1868  0.3883 -0.0094
 3661SOL    HW214416   2.777   5.039   3.328 -2.5864 -0.3959 -1.8083
 3661SOL    HW314417   2.771   5.052   3.177  0.6882  3.3349 -1.7724
 3661SOL    MW414418   2.805   5.076   3.254 -0.1129  0.6736 -0.4793
 3662SOL     OW14419   2.180   2.775   0.348 -0.4832 -0.1765  0.4510
 3662SOL    HW214420   2.233   2.854   0.341 -2.4112  1.0039 -2.8635
 3662SOL    HW314421   2.241   2.703   0.329  0.3515  0.9882 -1.5386
 3662SOL    MW414422   2.195   2.776   0.345 -0.6274  0.1329 -0.2488
 3663SOL     OW14423   4.187   2.632   3.035  0.0352 -0.4327 -0.4494
 3663SOL    HW214424   4.231   2.640   3.119  0.8878 -2.3233 -0.6731
 3663SOL    HW314425   4.094   2.640   3.056  0.3359  1.5994  0.2941
 3663SOL    MW414426   4.180   2.634   3.049  0.1874 -0.4140 -0.3808
 3664SOL     OW14427   4.303   3.286   4.718  0.3438 -0.0162 -0.0803
 3664SOL    HW214428   4.308   3.211   4.778  0.4997  0.4315  0.4686
 3664SOL    HW314429   4.277   3.247   4.634 -0.2951 -0.5946  0.3731
 3664SOL    MW414430   4.300   3.271   4.715  0.2801 -0.0335  0.0519
 3665SOL     OW14431   3.617   4.830   1.940 -0.0288 -0.1138  1.0036
 3665SOL    HW214432   3.539   4.806   1.890 -1.1114  0.6417  2.2570
 3665SOL    HW314433   3.676   4.869   1.875 -0.0921 -1.8960 -0.2144
 3665SOL    MW414434   3.615   4.832   1.924 -0.1800 -0.2493  1.0083
 3666SOL     OW14435   0.508   6.405   2.499 -0.3276 -0.6602 -0.5966
 3666SOL    HW214436   0.581   6.352   2.530  0.0609  0.6880  0.9297
 3666SOL    HW314437   0.547   6.487   2.469 -1.1528 -0.0727 -0.1269
 3666SOL    MW414438   0.523   6.409   2.499 -0.3852 -0.4048 -0.3333
 3667SOL     OW14439   3.047   4.803   0.613  0.3428  0.0590 -1.0517
 3667SOL    HW214440   3.111   4.874   0.618 -0.0352  0.3955 -0.9902
 3667SOL    HW314441   3.074   4.741   0.681  0.3926  0.3691 -0.7899
 3667SOL    MW414442   3.059   4.804   0.622  0.2995  0.1443 -1.0090
 3668SOL     OW14443   3.582   5.102   6.298  0.0039 -0.2913  0.6734
 3668SOL    HW214444   3.575   5.091   6.203 -2.3098  1.2893  0.5691
 3668SOL    HW314445   3.556   5.018   6.334 -0.2472 -0.5573 -0.0993
 3668SOL    MW414446   3.578   5.090   6.290 -0.3345 -0.1178  0.5577
 3669SOL     OW14447   0.412   6.348   1.228 -0.5591  0.2850  0.0418
 3669SOL    HW214448   0.468   6.425   1.226 -2.5845  1.9192 -3.0387
 3669SOL    HW314449   0.364   6.355   1.310  1.1055  0.8266  1.0089
 3669SOL    MW414450   0.413   6.359   1.239 -0.6067  0.5721 -0.2370
 3670SOL     OW14451   2.157   4.748   4.074 -0.4848 -0.1684 -0.1416
 3670SOL    HW214452   2.094   4.677   4.063  0.0401 -0.4963 -1.2009
 3670SOL    HW314453   2.116   4.808   4.137 -1.5090 -0.7480 -0.2393
 3670SOL    MW414454   2.144   4.747   4.081 -0.5507 -0.2882 -0.2943
 3671SOL     OW14455   4.026   4.561   3.097  0.2366  0.2027  0.3890
 3671SOL    HW214456   4.110   4.604   3.113  1.6447 -1.3242 -2.3180
 3671SOL    HW314457   4.027   4.539   3.004 -3.2433  0.1918  0.2068
 3671SOL    MW414458   4.037   4.564   3.087 -0.0367 -0.0002  0.0078
 3672SOL     OW14459   4.178   1.549   6.257 -0.0227  0.2757  0.2182
 3672SOL    HW214460   4.133   1.603   6.323  0.1299 -0.8132  1.2449
 3672SOL    HW314461   4.271   1.560   6.276  0.0270  0.0538  0.1090
 3672SOL    MW414462   4.184   1.558   6.268  0.0040  0.1027  0.3392
 3673SOL     OW14463   1.439   2.615   2.524 -0.2532 -0.1634  0.0813
 3673SOL    HW214464   1.506   2.673   2.560 -1.7158 -0.2683  3.4528
 3673SOL    HW314465   1.376   2.673   2.483 -0.3140  0.4067  0.9554
 3673SOL    MW414466   1.440   2.630   2.524 -0.4542 -0.1020  0.6415
 3674SOL     OW14467   1.380   5.198   2.923  1.0186  0.0226  0.2880
 3674SOL    HW214468   1.362   5.193   3.017  1.4914  0.2245  0.3926
 3674SOL    HW314469   1.332   5.124   2.885  0.8635 -0.0867  0.6918
 3674SOL    MW414470   1.371   5.188   2.930  1.0605  0.0349  0.3551
 3675SOL     OW14471   2.901   0.317   0.463  0.2405  0.0396 -0.2148
 3675SOL    HW214472   2.860   0.354   0.542 -0.6098 -0.3716 -0.4444
 3675SOL    HW314473   2.929   0.229   0.489 -1.2145 -0.6065 -0.6878
 3675SOL    MW414474   2.899   0.310   0.477 -0.0636 -0.0999 -0.3075
 3676SOL     OW14475   6.079   6.068   1.615  0.3525  0.0805  0.4139
 3676SOL    HW214476   6.081   5.974   1.633  1.3124  0.1369  0.6933
 3676SOL    HW314477   6.034   6.107   1.689  0.7312 -0.0835  0.7322
 3676SOL    MW414478   6.074   6.061   1.627  0.5291  0.0663  0.4928
 3677SOL     OW14479   2.482   4.481   1.262  0.2439  0.3407 -0.5544
 3677SOL    HW214480   2.427   4.535   1.319 -0.0072  0.8057 -1.2304
 3677SOL    HW314481   2.538   4.432   1.323 -1.9144 -1.2829  0.2244
 3677SOL    MW414482   2.482   4.482   1.278 -0.0740  0.1878 -0.5408
 3678SOL     OW14483   1.664   6.195   5.409 -0.0111 -0.0094 -0.1141
 3678SOL    HW214484   1.726   6.128   5.380  1.7448  1.7966 -0.8210
 3678SOL    HW314485   1.701   6.277   5.376 -3.3789  1.1143 -1.5618
 3678SOL    MW414486   1.677   6.197   5.401 -0.2237  0.3771 -0.3984
 3679SOL     OW14487   2.193   4.407   2.622  0.1544 -0.0490 -0.1779
 3679SOL    HW214488   2.112   4.458   2.616  0.1543  0.1552  1.3462
 3679SOL    HW314489   2.227   4.425   2.709  1.6961 -0.3732 -0.6703
 3679SOL    MW414490   2.187   4.416   2.632  0.3578 -0.0648 -0.0418
 3680SOL     OW14491   5.356   4.385   0.558  0.1345  0.0227  0.1375
 3680SOL    HW214492   5.294   4.312   0.557 -0.6080  0.6069 -1.7335
 3680SOL    HW314493   5.317   4.449   0.618 -1.0824  0.3455 -0.9513
 3680SOL    MW414494   5.343   4.384   0.566 -0.1240  0.1423 -0.2530
 3681SOL     OW14495   2.733   1.041   3.727  0.5416 -0.0761 -0.1389
 3681SOL    HW214496   2.706   1.091   3.804 -1.7166  1.9668 -2.1005
 3681SOL    HW314497   2.748   0.952   3.760  0.8843  0.9646  2.8145
 3681SOL    MW414498   2.731   1.035   3.742  0.2889  0.3308 -0.0080
 3682SOL     OW14499   4.864   1.752   1.204 -0.0946 -0.4680 -0.2131
 3682SOL    HW214500   4.875   1.657   1.210 -0.5887 -0.4903  0.4402
 3682SOL    HW314501   4.953   1.786   1.207  0.0023 -0.8003  1.8402
 3682SOL    MW414502   4.878   1.744   1.205 -0.1470 -0.5148  0.1440
 3683SOL     OW14503   5.049   0.275   4.812 -0.0479 -0.3846 -0.0005
 3683SOL    HW214504   4.969   0.260   4.862  0.6804 -0.0957  1.3008
 3683SOL    HW314505   5.063   0.369   4.816  0.3815 -0.4368 -0.1687
 3683SOL    MW414506   5.040   0.285   4.819  0.1048 -0.3534  0.1490
 3684SOL     OW14507   5.387   3.271   4.210  0.0017  0.5000 -0.4505
 3684SOL    HW214508   5.421   3.360   4.203  0.0336  0.7302  1.9045
 3684SOL    HW314509   5.409   3.243   4.299 -0.7738 -1.5486 -0.8294
 3684SOL    MW414510   5.394   3.279   4.221 -0.0965  0.2601 -0.1898
 3685SOL     OW14511   2.246   0.464   3.177 -0.1760 -0.6536  0.2429
 3685SOL    HW214512   2.209   0.417   3.102 -0.4504 -0.6853  0.3951
 3685SOL    HW314513   2.209   0.552   3.171 -0.0002 -0.5821  0.2000
 3685SOL    MW414514   2.236   0.469   3.166 -0.1890 -0.6483  0.2574
 3686SOL     OW14515   4.339   4.368   0.491 -0.0395  0.0628 -0.3814
 3686SOL    HW214516   4.336   4.342   0.399  1.1836  0.1726 -0.4647
 3686SOL    HW314517   4.426   4.342   0.521 -0.1731  0.6384  0.5640
 3686SOL    MW414518   4.350   4.361   0.483  0.1042  0.1532 -0.2677
 3687SOL     OW14519   1.753   1.588   1.324  1.0596  0.1309  0.1685
 3687SOL    HW214520   1.778   1.612   1.413  2.7271 -0.2275 -0.1683
 3687SOL    HW314521   1.756   1.492   1.323  0.3515  0.1033 -0.1001
 3687SOL    MW414522   1.757   1.578   1.336  1.1862  0.0800  0.0886
 3688SOL     OW14523   4.730   2.542   1.939 -0.5154  0.3013  0.2875
 3688SOL    HW214524   4.774   2.470   1.983 -0.1792  0.4330  0.1667
 3688SOL    HW314525   4.662   2.570   2.001 -1.1502 -0.6067  0.0133
 3688SOL    MW414526   4.727   2.536   1.953 -0.5548  0.1988  0.2354
 3689SOL     OW14527   3.434   0.316   5.748 -0.2303 -0.3765  0.2016
 3689SOL    HW214528   3.450   0.405   5.715  0.6808 -1.2136 -1.8116
 3689SOL    HW314529   3.482   0.311   5.830  0.4291  0.7382 -0.0972
 3689SOL    MW414530   3.442   0.327   5.754 -0.0231 -0.3399 -0.1034
 3690SOL     OW14531   2.215   4.123   6.190  0.0802  0.2108  0.1186
 3690SOL    HW214532   2.264   4.041   6.199 -1.8662 -1.1214 -0.6633
 3690SOL    HW314533   2.179   4.139   6.277 -0.1392 -0.1847  0.1030
 3690SOL    MW414534   2.217   4.114   6.202 -0.2056 -0.0171  0.0133
 3691SOL     OW14535   2.847   5.695   1.449  0.2240  0.0836  0.7759
 3691SOL    HW214536   2.770   5.735   1.490 -1.4683 -1.1250 -1.0240
 3691SOL    HW314537   2.867   5.753   1.376 -1.3497 -1.4491 -0.9770
 3691SOL    MW414538   2.839   5.708   1.445 -0.2069 -0.2781  0.3071
 3692SOL     OW14539   3.547   5.281   2.832  0.3639  0.3814 -0.6598
 3692SOL    HW214540   3.633   5.254   2.864  0.0078  0.8723  0.7725
 3692SOL    HW314541   3.490   5.276   2.909 -0.5889  1.3528 -1.2761
 3692SOL    MW414542   3.551   5.277   2.846  0.1912  0.5743 -0.5521
 3693SOL     OW14543   3.979   3.852   3.631  0.2843  0.5284 -0.0788
 3693SOL    HW214544   3.936   3.802   3.700  1.2563  0.3286  0.3960
 3693SOL    HW314545   4.029   3.787   3.582  1.0122  0.9240  0.1238
 3693SOL    MW414546   3.980   3.837   3.633  0.5086  0.5543  0.0106
 3694SOL     OW14547   3.637   4.917   2.366 -0.2928 -0.3441  0.3436
 3694SOL    HW214548   3.640   4.962   2.282  2.3304 -0.0809  0.4929
 3694SOL    HW314549   3.650   4.986   2.431  0.7535 -0.8829  0.7424
 3694SOL    MW414550   3.639   4.932   2.364  0.1913 -0.3804  0.4159
 3695SOL     OW14551   2.897   5.190   2.864  0.3399 -0.2150 -0.2808
 3695SOL    HW214552   2.967   5.139   2.823 -0.2486  0.1077 -1.7605
 3695SOL    HW314553   2.827   5.191   2.798 -1.3531 -1.1039  1.4209
 3695SOL    MW414554   2.897   5.183   2.850  0.0389 -0.2897 -0.2515
 3696SOL     OW14555   6.053   0.667   2.010  0.2938  0.7026  0.4716
 3696SOL    HW214556   6.104   0.677   1.929 -0.1997  1.3765  0.2369
 3696SOL    HW314557   6.015   0.754   2.025 -0.7778  0.2206  0.6474
 3696SOL    MW414558   6.055   0.680   2.001  0.0873  0.7279  0.4638
 3697SOL     OW14559   4.275   5.954   4.834 -0.7844  0.2212  0.1640
 3697SOL    HW214560   4.225   6.033   4.816 -0.0080  1.1155  1.7017
 3697SOL    HW314561   4.210   5.889   4.860 -1.3941  0.4263 -0.7846
 3697SOL    MW414562   4.260   5.956   4.835 -0.7624  0.3663  0.2417
 3698SOL     OW14563   1.001   6.111   2.878  0.6761 -0.5162 -0.4343
 3698SOL    HW214564   0.935   6.162   2.925  0.1521 -0.4489 -1.2162
 3698SOL    HW314565   1.051   6.176   2.829  1.8239 -0.4918  0.7360
 3698SOL    MW414566   0.999   6.126   2.878  0.7584 -0.5041 -0.3831
 3699SOL     OW14567   5.400   3.575   5.727  0.4156  0.2845  0.4603
 3699SOL    HW214568   5.427   3.495   5.682  0.0217  0.1836  0.3957
 3699SOL    HW314569   5.371   3.633   5.657 -1.7735 -0.4712  0.6447
 3699SOL    MW414570   5.400   3.572   5.712  0.0748  0.1715  0.4761
 3700SOL     OW14571   5.052   6.291   4.304  0.3881 -0.2699 -0.6372
 3700SOL    HW214572   4.995   6.308   4.379  1.3688  1.9890 -0.3057
 3700SOL    HW314573   5.044   6.371   4.251  2.3925 -0.3521 -1.1209
 3700SOL    MW414574   5.043   6.304   4.307  0.7819  0.0172 -0.6573
 3701SOL     OW14575   6.388   3.675   1.228  0.4610 -0.4006  0.7007
 3701SOL    HW214576   6.447   3.600   1.224  2.2301  0.8785  1.3881
 3701SOL    HW314577   6.351   3.672   1.316 -1.9334 -2.1575 -0.2619
 3701SOL    MW414578   6.391   3.665   1.239  0.3785 -0.4636  0.6644
 3702SOL     OW14579   4.742   5.020   0.045 -0.6802 -0.7414 -0.3889
 3702SOL    HW214580   4.758   5.069   0.125  1.0243  2.3143 -2.3583
 3702SOL    HW314581   4.829   5.000   0.011 -1.3464 -3.6020 -0.6474
 3702SOL    MW414582   4.755   5.024   0.051 -0.5432 -0.7156 -0.6828
 3703SOL     OW14583   1.514   3.893   3.426 -0.1754 -0.1867 -0.2953
 3703SOL    HW214584   1.607   3.876   3.411  0.0541 -0.1025  0.9399
 3703SOL    HW314585   1.490   3.955   3.356  1.0663  0.9405  0.2164
 3703SOL    MW414586   1.523   3.899   3.414  0.0187 -0.0268 -0.0648
 3704SOL     OW14587   1.815   0.387   5.207 -0.3383  0.1915  0.2423
 3704SOL    HW214588   1.784   0.311   5.255  0.6603 -0.0514  0.5246
 3704SOL    HW314589   1.736   0.425   5.168 -0.7635 -1.3822 -0.4909
 3704SOL    MW414590   1.801   0.382   5.208 -0.2626 -0.0482  0.1828
 3705SOL     OW14591   4.109   0.400   0.953 -0.4272 -0.1006 -0.1384
 3705SOL    HW214592   4.068   0.486   0.937 -0.0498  0.1432  0.1864
 3705SOL    HW314593   4.070   0.370   1.035 -1.0356 -0.5388 -0.5766
 3705SOL    MW414594   4.098   0.408   0.962 -0.4577 -0.1262 -0.1533
 3706SOL     OW14595   3.027   2.225   1.942  0.2390 -0.5628  0.2035
 3706SOL    HW214596   3.046   2.143   1.896 -2.1850 -0.3559 -1.3202
 3706SOL    HW314597   2.951   2.204   1.997  0.1336  0.4486  0.4629
 3706SOL    MW414598   3.020   2.211   1.943 -0.0947 -0.4021  0.0367
 3707SOL     OW14599   5.656   4.524   6.239  0.3052 -0.0079 -0.4800
 3707SOL    HW214600   5.602   4.447   6.260  1.3579 -0.3138  1.2960
 3707SOL    HW314601   5.643   4.537   6.145 -1.1250 -1.3965 -0.5283
 3707SOL    MW414602   5.647   4.516   6.229  0.2554 -0.2315 -0.2521
 3708SOL     OW14603   1.546   0.388   0.726 -0.0759  0.4421 -0.0529
 3708SOL    HW214604   1.571   0.297   0.707 -0.2229  0.6482 -1.3060
 3708SOL    HW314605   1.586   0.406   0.811 -0.3673 -0.9160  0.4127
 3708SOL    MW414606   1.554   0.378   0.735 -0.1337  0.2901 -0.1568
 3709SOL     OW14607   0.039   0.634   2.098  0.2396  0.6692 -0.1310
 3709SOL    HW214608   0.063   0.613   2.008 -1.2433 -0.1269 -0.3758
 3709SOL    HW314609   0.009   0.724   2.094 -1.4509  0.1139 -0.8160
 3709SOL    MW414610   0.038   0.643   2.086 -0.1791  0.4909 -0.2537
 3710SOL     OW14611   0.352   2.091   4.385 -0.3046  0.6925  0.0401
 3710SOL    HW214612   0.291   2.087   4.459 -2.1821  1.7479 -1.3605
 3710SOL    HW314613   0.432   2.051   4.418 -2.1356 -2.0621  1.5798
 3710SOL    MW414614   0.354   2.085   4.399 -0.7939  0.4683  0.0585
 3711SOL     OW14615   5.362   0.246   0.971  0.3910 -0.1578 -0.1634
 3711SOL    HW214616   5.302   0.187   1.016  2.2124 -1.4172  0.7262
 3711SOL    HW314617   5.396   0.303   1.040  0.8316 -0.0024 -0.5032
 3711SOL    MW414618   5.359   0.246   0.986  0.6895 -0.3035 -0.0909
 3712SOL     OW14619   4.064   6.144   4.237  0.9164  0.3503  0.5817
 3712SOL    HW214620   4.070   6.102   4.152  0.9995  0.4879  0.5203
 3712SOL    HW314621   3.971   6.165   4.248  0.5146 -1.6552  1.4713
 3712SOL    MW414622   4.052   6.141   4.228  0.8743  0.1039  0.6910
 3713SOL     OW14623   6.233   0.058   5.845 -0.1201  0.4753  0.3586
 3713SOL    HW214624   6.231  -0.024   5.894  1.0426  1.0092  1.3708
 3713SOL    HW314625   6.312   0.052   5.792 -1.0195  0.1836 -0.9863
 3713SOL    MW414626   6.243   0.047   5.845 -0.0853  0.5072  0.3147
 3714SOL     OW14627   5.102   4.611   2.175  0.3941 -1.0638  0.0127
 3714SOL    HW214628   5.180   4.554   2.178  1.6175  0.5530  2.4601
 3714SOL    HW314629   5.079   4.624   2.267 -1.4566  0.2747 -0.5910
 3714SOL    MW414630   5.109   4.605   2.187  0.3113 -0.6738  0.2559
 3715SOL     OW14631   1.374   2.333   0.276  0.4007 -0.3477  0.1216
 3715SOL    HW214632   1.356   2.427   0.282  1.1135 -0.2815  2.0778
 3715SOL    HW314633   1.287   2.292   0.284  0.0904  0.1190 -0.7133
 3715SOL    MW414634   1.360   2.340   0.278  0.4538 -0.2774  0.2695
 3716SOL     OW14635   2.214   4.606   5.361  0.6118 -0.2779 -0.3825
 3716SOL    HW214636   2.252   4.518   5.360 -1.2995 -1.2116 -2.9218
 3716SOL    HW314637   2.234   4.642   5.275 -0.7789  0.7378 -0.3238
 3716SOL    MW414638   2.221   4.599   5.349  0.1762 -0.2671 -0.7098
 3717SOL     OW14639   0.980   3.723   6.325  0.5140 -0.0353  0.1513
 3717SOL    HW214640   0.894   3.689   6.300  1.4516 -2.0552 -0.6099
 3717SOL    HW314641   1.005   3.672   6.402  0.3775  1.6834  1.3854
 3717SOL    MW414642   0.972   3.712   6.332  0.6197 -0.0751  0.2137
 3718SOL     OW14643   3.815   3.784   6.374  0.0412 -0.1810  0.6168
 3718SOL    HW214644   3.888   3.783   6.312 -1.4828  0.3226 -1.3170
 3718SOL    HW314645   3.759   3.711   6.345 -1.1736  0.6525  0.8062
 3718SOL    MW414646   3.817   3.774   6.362 -0.3201 -0.0046  0.3866
 3719SOL     OW14647   4.840   4.449   5.703 -0.7204  0.0296 -0.2991
 3719SOL    HW214648   4.882   4.530   5.676  0.3348 -0.4003 -0.0126
 3719SOL    HW314649   4.746   4.469   5.704 -0.5292  1.0117 -0.9621
 3719SOL    MW414650   4.833   4.462   5.700 -0.5560  0.1024 -0.3488
 3720SOL     OW14651   5.898   0.388   2.656  0.3963  0.1064  0.0191
 3720SOL    HW214652   5.971   0.385   2.594 -0.2907 -0.2095 -0.7829
 3720SOL    HW314653   5.828   0.338   2.614 -0.2222  0.2373  0.8677
 3720SOL    MW414654   5.898   0.381   2.642  0.2241  0.0820  0.0253
 3721SOL     OW14655   6.098   5.729   0.347 -0.3410 -0.6263  1.0569
 3721SOL    HW214656   6.135   5.647   0.377 -0.7132 -0.5318  1.7942
 3721SOL    HW314657   6.172   5.778   0.312  0.1607 -0.6016  2.1305
 3721SOL    MW414658   6.112   5.725   0.346 -0.3239 -0.6105  1.2958
 3722SOL     OW14659   5.624   4.915   0.167 -0.0718 -0.1268 -0.1468
 3722SOL    HW214660   5.654   4.998   0.204  0.3736 -0.7918  1.0367
 3722SOL    HW314661   5.698   4.855   0.179 -1.2751 -1.3869  1.4129
 3722SOL    MW414662   5.638   4.918   0.174 -0.1718 -0.3808  0.2151
 3723SOL     OW14663   3.674   5.684   6.187 -0.3743  0.5589  0.7334
 3723SOL    HW214664   3.701   5.666   6.097  0.2465 -0.5522  1.1230
 3723SOL    HW314665   3.701   5.774   6.203  1.2098  0.1757  0.4042
 3723SOL    MW414666   3.681   5.694   6.178 -0.0834  0.3617  0.7414
 3724SOL     OW14667   1.211   3.507   2.278  0.7584  0.1059 -0.0022
 3724SOL    HW214668   1.156   3.585   2.287 -0.1780 -0.7164  1.8955
 3724SOL    HW314669   1.229   3.501   2.184  0.6860  2.4632 -0.2169
 3724SOL    MW414670   1.206   3.516   2.267  0.6253  0.3084  0.2198
 3725SOL     OW14671   3.048   5.298   2.621 -0.6237  0.2452  0.5373
 3725SOL    HW214672   3.065   5.206   2.640  1.3609  0.3274 -0.6521
 3725SOL    HW314673   3.005   5.297   2.535  0.4153  0.4698  0.0038
 3725SOL    MW414674   3.044   5.286   2.612 -0.2248  0.2857  0.3100
 3726SOL     OW14675   3.780   1.495   5.702 -0.3644  0.2155  0.0712
 3726SOL    HW214676   3.793   1.565   5.766  0.2197 -0.4226  0.6666
 3726SOL    HW314677   3.770   1.540   5.618  2.5651  0.9537  0.0338
 3726SOL    MW414678   3.780   1.510   5.699  0.0992  0.2287  0.1448
 3727SOL     OW14679   2.943   1.487   2.936  0.0102 -0.0645 -0.8859
 3727SOL    HW214680   2.871   1.482   2.874 -0.8731  0.1594  0.0998
 3727SOL    HW314681   3.012   1.433   2.897 -1.2252 -1.5533 -1.1098
 3727SOL    MW414682   2.943   1.479   2.923 -0.2693 -0.2314 -0.7854
 3728SOL     OW14683   0.905   3.141   4.349  0.0109 -0.2799 -0.2405
 3728SOL    HW214684   0.921   3.059   4.396  0.0584  0.4324  1.0404
 3728SOL    HW314685   0.815   3.134   4.317  0.8026 -1.8780 -2.4186
 3728SOL    MW414686   0.895   3.129   4.351  0.1216 -0.3968 -0.3589
 3729SOL     OW14687   6.326   1.747   1.382  0.3146 -0.2071 -0.3111
 3729SOL    HW214688   6.414   1.711   1.382  0.1352 -0.6421  0.0377
 3729SOL    HW314689   6.329   1.815   1.314  0.7226 -0.6896 -0.7904
 3729SOL    MW414690   6.338   1.751   1.373  0.3448 -0.3281 -0.3283
 3730SOL     OW14691   2.575   0.755   5.539  0.0466  0.2657 -0.0266
 3730SOL    HW214692   2.501   0.747   5.599 -0.1969 -1.3509 -0.4989
 3730SOL    HW314693   2.652   0.749   5.595 -0.1763 -1.3480  0.1399
 3730SOL    MW414694   2.575   0.753   5.555 -0.0149 -0.1605 -0.0670
 3731SOL     OW14695   1.600   0.708   2.739  0.4721 -0.2591  0.0152
 3731SOL    HW214696   1.614   0.756   2.658 -0.2761  0.2059  0.1526
 3731SOL    HW314697   1.672   0.737   2.796 -1.1535  2.4339  0.8622
 3731SOL    MW414698   1.612   0.719   2.736  0.1589  0.1576  0.1451
 3732SOL     OW14699   3.627   5.453   4.266  0.5523 -0.0728 -0.4189
 3732SOL    HW214700   3.601   5.398   4.339  0.4951  0.5604  0.0461
 3732SOL    HW314701   3.687   5.399   4.215  1.1391 -0.2851  0.4827
 3732SOL    MW414702   3.632   5.439   4.269  0.6221 -0.0172 -0.2386
 3733SOL     OW14703   2.483   0.686   4.774 -0.0932 -0.1064  0.8019
 3733SOL    HW214704   2.405   0.646   4.734  1.1811 -1.0580 -0.8479
 3733SOL    HW314705   2.554   0.625   4.754  1.2711  1.2552  1.3549
 3733SOL    MW414706   2.482   0.673   4.766  0.2549 -0.0523  0.6572
 3734SOL     OW14707   3.580   2.641   5.617  0.0522 -0.2117  0.1306
 3734SOL    HW214708   3.569   2.684   5.532 -0.3934 -1.1570 -0.3003
 3734SOL    HW314709   3.539   2.701   5.679 -1.3999 -0.4238 -0.5804
 3734SOL    MW414710   3.573   2.655   5.614 -0.1982 -0.3644 -0.0201
 3735SOL     OW14711   5.470   0.578   4.761 -0.4713 -0.1251  0.7275
 3735SOL    HW214712   5.429   0.598   4.845 -1.2417  1.1152  0.0752
 3735SOL    HW314713   5.525   0.654   4.742  0.0140 -0.5776  0.2961
 3735SOL    MW414714   5.472   0.590   4.770 -0.5089 -0.0212  0.5845
 3736SOL     OW14715   1.142   6.048   5.817 -0.4165 -0.4694 -0.3980
 3736SOL    HW214716   1.078   6.111   5.785  1.4165  0.6190 -2.1589
 3736SOL    HW314717   1.217   6.058   5.758  1.5736 -1.3423  1.8407
 3736SOL    MW414718   1.143   6.058   5.805  0.0879 -0.4410 -0.3350
 3737SOL     OW14719   1.423   2.211   5.495  0.0212 -0.1033 -0.1083
 3737SOL    HW214720   1.438   2.291   5.444 -1.3164 -0.3190 -0.9042
 3737SOL    HW314721   1.333   2.220   5.527 -0.4140 -1.5933 -0.8198
 3737SOL    MW414722   1.413   2.223   5.493 -0.2127 -0.3284 -0.3072
 3738SOL     OW14723   6.295   4.069   1.745 -0.4955 -0.5158  0.2206
 3738SOL    HW214724   6.264   4.041   1.831 -2.4295  1.8807  0.4224
 3738SOL    HW314725   6.375   4.119   1.762 -1.6641  1.2314  0.9009
 3738SOL    MW414726   6.301   4.072   1.759 -0.9049  0.0309  0.3370
 3739SOL     OW14727   3.954   1.009   2.319 -0.4568  0.3175 -0.3787
 3739SOL    HW214728   3.996   1.083   2.276 -2.1816  0.3316 -2.2054
 3739SOL    HW314729   3.906   1.048   2.393  2.5736  0.2837  1.7772
 3739SOL    MW414730   3.953   1.024   2.323 -0.2845  0.3149 -0.3353
 3740SOL     OW14731   5.213   3.195   0.219 -0.1082 -0.1474  0.4654
 3740SOL    HW214732   5.135   3.140   0.207 -1.1050  0.7209  2.4755
 3740SOL    HW314733   5.286   3.136   0.200 -1.1885 -0.6760 -2.7092
 3740SOL    MW414734   5.212   3.180   0.215 -0.3823 -0.1026  0.3117
 3741SOL     OW14735   4.661   2.697   3.847  0.2078 -0.4016  0.4179
 3741SOL    HW214736   4.692   2.622   3.797  0.2908  0.2078 -0.4513
 3741SOL    HW314737   4.566   2.685   3.853 -0.0351  0.3943 -1.3724
 3741SOL    MW414738   4.652   2.685   3.841  0.1867 -0.2162  0.0670
 3742SOL     OW14739   5.461   1.527   3.250 -0.4871 -0.0497  0.0123
 3742SOL    HW214740   5.523   1.486   3.310 -0.1139 -0.3375 -0.5601
 3742SOL    HW314741   5.403   1.579   3.307 -1.0749 -1.4817  0.7806
 3742SOL    MW414742   5.461   1.529   3.266 -0.5154 -0.2766  0.0381
 3743SOL     OW14743   5.211   0.183   6.230  0.2192  0.3248 -0.5509
 3743SOL    HW214744   5.274   0.255   6.226 -1.1437  1.9472  2.7968
 3743SOL    HW314745   5.244   0.126   6.300 -0.5256 -0.3770 -0.7541
 3743SOL    MW414746   5.223   0.185   6.239 -0.0589  0.4463 -0.1360
 3744SOL     OW14747   1.485   4.081   3.949 -0.1120 -0.5181 -0.0480
 3744SOL    HW214748   1.448   3.993   3.959 -0.9782 -0.2694 -0.9097
 3744SOL    HW314749   1.412   4.134   3.917  0.6703  0.2704 -0.5716
 3744SOL    MW414750   1.470   4.076   3.946 -0.1231 -0.3812 -0.2308
 3745SOL     OW14751   6.073   4.474   4.130 -0.1496  0.2939 -0.1058
 3745SOL    HW214752   6.148   4.476   4.190 -1.1045 -0.3821  1.1465
 3745SOL    HW314753   6.104   4.521   4.052  1.2691  0.8269  0.7347
 3745SOL    MW414754   6.087   4.481   4.128 -0.0884  0.2750  0.1703
 3746SOL     OW14755   2.360   3.361   4.457 -0.2603 -0.5113 -0.0424
 3746SOL    HW214756   2.442   3.409   4.473  1.0033 -2.6133  0.1933
 3746SOL    HW314757   2.321   3.406   4.382  0.4451  1.3196  0.6298
 3746SOL    MW414758   2.366   3.374   4.449 -0.0005 -0.5471  0.0774
 3747SOL     OW14759   4.660   5.305   2.817  0.3349  0.0747  0.0748
 3747SOL    HW214760   4.717   5.263   2.752 -1.1774 -0.0987 -1.1842
 3747SOL    HW314761   4.670   5.251   2.896 -1.0539 -2.3727 -1.2899
 3747SOL    MW414762   4.669   5.292   2.819 -0.0479 -0.2711 -0.2714
 3748SOL     OW14763   6.026   1.864   3.362  0.0027 -0.1989 -0.1445
 3748SOL    HW214764   6.006   1.922   3.436  0.0706 -1.4588  0.9120
 3748SOL    HW314765   6.099   1.907   3.317 -1.0689  1.3935 -0.4547
 3748SOL    MW414766   6.033   1.877   3.366 -0.1298 -0.1551 -0.0461
 3749SOL     OW14767   1.848   6.025   5.329 -0.1373  0.6176 -0.6437
 3749SOL    HW214768   1.864   5.992   5.417  0.6881  0.4928 -0.8394
 3749SOL    HW314769   1.802   5.954   5.284 -0.6353  0.7146 -0.2921
 3749SOL    MW414770   1.844   6.012   5.334 -0.0941  0.6139 -0.6232
 3750SOL     OW14771   3.911   3.226   2.841 -0.1684  0.1825  0.7610
 3750SOL    HW214772   3.959   3.305   2.817 -0.7749  0.3761  0.1502
 3750SOL    HW314773   3.833   3.227   2.785  0.5968 -1.6632 -0.4547
 3750SOL    MW414774   3.907   3.236   2.831 -0.1475 -0.0355  0.5200
 3751SOL     OW14775   5.710   6.077   4.955 -0.1886 -0.0414  0.8536
 3751SOL    HW214776   5.615   6.079   4.942 -0.0235 -1.2434 -0.9886
 3751SOL    HW314777   5.725   6.002   5.012 -0.3339  0.0898  1.0667
 3751SOL    MW414778   5.699   6.068   4.960 -0.1860 -0.1826  0.6387
 3752SOL     OW14779   5.578   3.865   2.051 -0.0123 -0.2760 -0.3512
 3752SOL    HW214780   5.632   3.831   1.979  1.4224  0.3850  0.3676
 3752SOL    HW314781   5.525   3.934   2.011 -0.8385 -1.3656 -1.2091
 3752SOL    MW414782   5.578   3.869   2.036  0.0680 -0.3326 -0.3695
 3753SOL     OW14783   6.212   0.287   1.616 -0.2943  0.5421 -0.0612
 3753SOL    HW214784   6.159   0.250   1.546  0.0706  1.4427 -0.8385
 3753SOL    HW314785   6.302   0.273   1.587 -0.1056 -0.2005  0.8362
 3753SOL    MW414786   6.217   0.280   1.603 -0.2213  0.5629 -0.0454
 3754SOL     OW14787   1.177   5.626   2.004  0.4184 -0.2787  0.0015
 3754SOL    HW214788   1.105   5.570   1.974  0.2785 -0.3077  0.3860
 3754SOL    HW314789   1.226   5.572   2.065 -0.9381  0.6611  2.0419
 3754SOL    MW414790   1.174   5.612   2.008  0.2210 -0.1586  0.3215
 3755SOL     OW14791   4.132   2.838   5.415 -0.2768  0.3315 -0.9180
 3755SOL    HW214792   4.122   2.801   5.327  2.1362 -0.6184 -0.8712
 3755SOL    HW314793   4.219   2.878   5.414 -1.7695  4.0181 -0.1883
 3755SOL    MW414794   4.142   2.838   5.403 -0.1554  0.6926 -0.8156
 3756SOL     OW14795   0.809   0.500   1.394  0.1902 -0.4020 -0.4230
 3756SOL    HW214796   0.855   0.481   1.475  2.7733 -0.1678 -1.7438
 3756SOL    HW314797   0.784   0.592   1.401 -1.7354 -0.9784  1.0271
 3756SOL    MW414798   0.812   0.510   1.405  0.2770 -0.4471 -0.4059
 3757SOL     OW14799   2.671   5.465   1.429 -0.1091  0.3538  0.3124
 3757SOL    HW214800   2.589   5.486   1.384 -0.6148 -0.7461  0.6879
 3757SOL    HW314801   2.735   5.525   1.391 -0.5450 -0.4280 -1.8050
 3757SOL    MW414802   2.668   5.476   1.418 -0.2333  0.1055  0.0826
 3758SOL     OW14803   4.103   3.491   4.405  0.2357  0.6289 -0.4129
 3758SOL    HW214804   4.057   3.408   4.392  0.1798  0.7424 -0.9490
 3758SOL    HW314805   4.048   3.539   4.467 -1.2493  1.4308 -2.2765
 3758SOL    MW414806   4.090   3.486   4.412  0.0324  0.7497 -0.7295
 3759SOL     OW14807   2.000   1.601   0.554  0.2675  0.2352  0.2360
 3759SOL    HW214808   1.936   1.592   0.625 -1.5639  1.6941 -1.1253
 3759SOL    HW314809   2.019   1.511   0.528 -1.9565 -0.2595  0.1075
 3759SOL    MW414810   1.994   1.588   0.560 -0.2675  0.3624  0.0394
 3760SOL     OW14811   0.177   0.867   0.462  0.1603  0.4873  0.1891
 3760SOL    HW214812   0.185   0.949   0.510 -0.3256  0.1625  0.8351
 3760SOL    HW314813   0.217   0.802   0.519  0.3286  0.2331 -0.2160
 3760SOL    MW414814   0.183   0.869   0.476  0.1184  0.4109  0.2209
 3761SOL     OW14815   3.602   1.904   4.303 -0.1676 -0.3537  0.1872
 3761SOL    HW214816   3.588   1.829   4.244 -1.4435  0.1300 -0.1675
 3761SOL    HW314817   3.657   1.964   4.253  0.2531 -0.7286  0.1920
 3761SOL    MW414818   3.607   1.902   4.288 -0.2805 -0.3393  0.1410
 3762SOL     OW14819   0.159   6.329   6.077  0.3988 -0.1166 -0.3166
 3762SOL    HW214820   0.120   6.263   6.020 -0.0396 -0.6209  0.5343
 3762SOL    HW314821   0.221   6.376   6.022  0.1172 -0.7050 -1.1487
 3762SOL    MW414822   0.162   6.327   6.062  0.3038 -0.2608 -0.3141
 3763SOL     OW14823   4.748   1.378   0.737 -0.2863  0.1643  0.5480
 3763SOL    HW214824   4.761   1.284   0.732 -2.4503 -0.1589  0.1045
 3763SOL    HW314825   4.653   1.389   0.748 -0.1884  2.3141 -0.2738
 3763SOL    MW414826   4.737   1.367   0.738 -0.5589  0.4053  0.3811
 3764SOL     OW14827   1.682   3.960   1.742 -0.0017 -0.2405 -0.1241
 3764SOL    HW214828   1.683   4.055   1.737 -0.8305 -0.2371 -0.4237
 3764SOL    HW314829   1.590   3.936   1.729  0.1790 -1.0747  0.0427
 3764SOL    MW414830   1.670   3.969   1.740 -0.0872 -0.3501 -0.1416
 3765SOL     OW14831   3.309   0.564   1.943 -0.2172 -0.0738 -0.0393
 3765SOL    HW214832   3.394   0.571   1.899  0.5579 -3.0929  0.7505
 3765SOL    HW314833   3.247   0.549   1.871  0.0239  1.1404 -0.5352
 3765SOL    MW414834   3.312   0.563   1.928 -0.0831 -0.3119 -0.0005
 3766SOL     OW14835   2.751   5.728   2.754  0.5872  0.5822 -0.2976
 3766SOL    HW214836   2.774   5.636   2.736  1.3296  0.0619  2.6752
 3766SOL    HW314837   2.663   5.738   2.719  0.0725 -1.6216  0.1610
 3766SOL    MW414838   2.743   5.717   2.747  0.6172  0.2228  0.1551
 3767SOL     OW14839   6.358   0.411   0.828  0.7782 -0.0711 -0.6605
 3767SOL    HW214840   6.272   0.373   0.846  0.6553 -1.4434 -3.6098
 3767SOL    HW314841   6.419   0.337   0.838  1.3724  0.4279 -0.5273
 3767SOL    MW414842   6.355   0.396   0.832  0.8404 -0.1863 -1.0321
 3768SOL     OW14843   3.128   4.494   1.268 -0.2420 -0.1182  0.0992
 3768SOL    HW214844   3.084   4.448   1.340  0.4098  0.6979  1.0598
 3768SOL    HW314845   3.059   4.508   1.203 -0.7105 -1.3918  0.3006
 3768SOL    MW414846   3.113   4.490   1.269 -0.2178 -0.1786  0.2525
 3769SOL     OW14847   6.238   5.906   2.171 -0.1727 -0.2377 -0.5226
 3769SOL    HW214848   6.320   5.945   2.142 -0.6198  1.3897  0.2797
 3769SOL    HW314849   6.174   5.977   2.166 -0.7588 -0.4523  2.1183
 3769SOL    MW414850   6.240   5.920   2.167 -0.3090 -0.0513 -0.0683
 3770SOL     OW14851   1.085   2.567   0.085  0.1371  0.8368 -0.4134
 3770SOL    HW214852   1.164   2.547   0.035  0.9115 -3.2026  2.0147
 3770SOL    HW314853   1.114   2.576   0.175 -2.0159  0.1776  0.4212
 3770SOL    MW414854   1.099   2.565   0.090 -0.0448  0.2169  0.0171
 3771SOL     OW14855   3.982   2.268   1.205  0.2691 -0.1677  0.0633
 3771SOL    HW214856   3.982   2.227   1.292  0.9392 -1.9271 -0.7171
 3771SOL    HW314857   4.058   2.326   1.207  1.3834 -1.5606  0.0938
 3771SOL    MW414858   3.992   2.270   1.217  0.5045 -0.5836 -0.0357
 3772SOL     OW14859   5.429   2.274   4.653 -0.6008 -0.3432 -0.8977
 3772SOL    HW214860   5.358   2.257   4.715 -1.0523 -1.0158 -1.5762
 3772SOL    HW314861   5.494   2.207   4.672 -0.4262 -0.1128 -0.6857
 3772SOL    MW414862   5.428   2.263   4.663 -0.6374 -0.4016 -0.9592
 3773SOL     OW14863   2.781   4.016   0.465  0.0719  0.0148 -0.1338
 3773SOL    HW214864   2.759   4.106   0.440 -2.6501 -0.8665 -1.2685
 3773SOL    HW314865   2.748   3.963   0.393 -0.3867 -2.0531  1.5034
 3773SOL    MW414866   2.774   4.021   0.452 -0.3477 -0.3743 -0.0675
 3774SOL     OW14867   1.761   3.236   1.088  0.0838 -0.2244  0.9376
 3774SOL    HW214868   1.739   3.210   1.178  1.9444 -1.1866  1.1837
 3774SOL    HW314869   1.851   3.269   1.095  0.4359 -0.7686 -0.6412
 3774SOL    MW414870   1.770   3.237   1.101  0.3757 -0.4231  0.7618
 3775SOL     OW14871   5.995   0.876   1.646  0.4999 -0.0468  0.5105
 3775SOL    HW214872   6.033   0.853   1.562  3.0419  0.5202  1.4350
 3775SOL    HW314873   6.014   0.969   1.658  1.1653 -0.3544  2.1582
 3775SOL    MW414874   6.002   0.885   1.637  0.9231 -0.0126  0.8499
 3776SOL     OW14875   2.583   4.947   4.648  0.0608  0.1028  0.3117
 3776SOL    HW214876   2.531   4.867   4.658 -2.2342  1.7275  2.9533
 3776SOL    HW314877   2.538   4.997   4.580  1.1944 -0.5731 -0.9730
 3776SOL    MW414878   2.570   4.943   4.641 -0.0924  0.2280  0.4907
 3777SOL     OW14879   5.049   6.058   3.650  0.1037 -0.4395 -0.6113
 3777SOL    HW214880   5.125   6.009   3.618  0.4701 -1.9785  2.2640
 3777SOL    HW314881   4.975   6.024   3.601  0.6836 -2.2517 -0.2742
 3777SOL    MW414882   5.049   6.047   3.639  0.2285 -0.8817 -0.1875
 3778SOL     OW14883   5.508   1.422   1.573  0.2484  0.2028 -0.0648
 3778SOL    HW214884   5.463   1.443   1.491  0.0807  0.7885  0.1734
 3778SOL    HW314885   5.437   1.409   1.636  0.4044  2.1503  0.5611
 3778SOL    MW414886   5.492   1.423   1.570  0.2468  0.5370  0.0492
 3779SOL     OW14887   3.153   3.886   1.664 -0.0021 -0.2268 -0.1110
 3779SOL    HW214888   3.143   3.953   1.733  4.6006  1.2725 -0.5499
 3779SOL    HW314889   3.109   3.923   1.588  0.3618  1.1848  0.3346
 3779SOL    MW414890   3.146   3.900   1.663  0.6532  0.1573 -0.1101
 3780SOL     OW14891   5.753   6.028   3.974 -0.7177  0.3069  0.1848
 3780SOL    HW214892   5.683   6.077   3.933 -1.6053 -0.6009  0.5743
 3780SOL    HW314893   5.762   6.066   4.061 -1.6447 -0.4212  0.6154
 3780SOL    MW414894   5.745   6.039   3.980 -0.9571  0.0910  0.2930
 3781SOL     OW14895   6.115   5.470   1.408 -0.2883  0.0798 -0.0842
 3781SOL    HW214896   6.104   5.382   1.445 -1.6110  0.6861  1.0513
 3781SOL    HW314897   6.185   5.460   1.343  0.0951 -1.6465  0.5371
 3781SOL    MW414898   6.123   5.457   1.404 -0.4122 -0.0680  0.1476
 3782SOL     OW14899   0.751   2.711   1.460 -0.0288  0.4714  0.0731
 3782SOL    HW214900   0.736   2.617   1.459  0.8013  0.3089  1.0145
 3782SOL    HW314901   0.743   2.736   1.552 -0.2409  1.3202 -0.1629
 3782SOL    MW414902   0.748   2.702   1.472  0.0527  0.5620  0.1662
 3783SOL     OW14903   1.337   0.592   6.309 -0.5830 -0.1443 -0.2198
 3783SOL    HW214904   1.325   0.611   6.402 -1.1258 -1.1794 -0.0647
 3783SOL    HW314905   1.414   0.536   6.305  1.3166  2.3444 -0.7264
 3783SOL    MW414906   1.345   0.587   6.321 -0.4040  0.0475 -0.2662
 3784SOL     OW14907   5.068   0.937   3.047 -0.8253 -0.2181  0.1974
 3784SOL    HW214908   5.110   0.938   3.133 -0.6539 -0.2348  0.1142
 3784SOL    HW314909   4.979   0.906   3.064 -0.8276 -0.1118  0.3847
 3784SOL    MW414910   5.061   0.933   3.061 -0.8030 -0.2063  0.2112
 3785SOL     OW14911   1.861   0.837   1.526  0.0760  0.3989  0.5613
 3785SOL    HW214912   1.955   0.819   1.522  0.0635  0.5967 -0.9955
 3785SOL    HW314913   1.855   0.932   1.537  0.0590  0.4167  0.4011
 3785SOL    MW414914   1.873   0.847   1.527  0.0721  0.4273  0.3348
 3786SOL     OW14915   3.112   6.207   5.411 -1.0433 -0.0394 -0.4837
 3786SOL    HW214916   3.071   6.179   5.493 -0.8470 -0.5014 -0.5408
 3786SOL    HW314917   3.050   6.182   5.343 -0.7165 -0.6661 -0.5633
 3786SOL    MW414918   3.098   6.200   5.413 -0.9743 -0.1830 -0.5017
 3787SOL     OW14919   3.875   0.972   4.735 -0.0260 -0.4472 -0.0637
 3787SOL    HW214920   3.961   1.003   4.762 -0.3999  1.4535 -0.9305
 3787SOL    HW314921   3.887   0.944   4.644 -0.4096  0.1867 -0.3111
 3787SOL    MW414922   3.888   0.972   4.727 -0.1260 -0.1128 -0.2107
 3788SOL     OW14923   3.209   0.771   0.330  0.3358  0.1074 -0.6356
 3788SOL    HW214924   3.160   0.724   0.263  0.7644 -1.6746  0.2427
 3788SOL    HW314925   3.301   0.754   0.307  0.5010 -1.6604  1.0821
 3788SOL    MW414926   3.215   0.762   0.318  0.4142 -0.3610 -0.2931
 3789SOL     OW14927   5.658   4.620   4.557  0.2216 -0.2057  0.7137
 3789SOL    HW214928   5.616   4.675   4.624 -0.9996 -0.4361  0.1610
 3789SOL    HW314929   5.674   4.537   4.601  0.0442 -0.1353  0.9136
 3789SOL    MW414930   5.654   4.616   4.572  0.0371 -0.2268  0.6672
 3790SOL     OW14931   0.118   5.572   0.181 -0.3320  0.2054 -0.1432
 3790SOL    HW214932   0.112   5.656   0.135 -0.5812 -0.3025 -1.0697
 3790SOL    HW314933   0.211   5.549   0.176 -0.6521 -0.8671 -2.3346
 3790SOL    MW414934   0.129   5.580   0.174 -0.4071 -0.0031 -0.5546
 3791SOL     OW14935   1.525   3.269   6.105 -0.2746  0.5275 -0.1675
 3791SOL    HW214936   1.549   3.279   6.013  0.2200 -0.7096 -0.1976
 3791SOL    HW314937   1.431   3.289   6.108  0.1727  2.9456 -0.4853
 3791SOL    MW414938   1.516   3.273   6.093 -0.1503  0.6833 -0.2134
 3792SOL     OW14939   0.836   0.971   5.049  0.1305 -0.2001  0.1440
 3792SOL    HW214940   0.779   0.999   5.121  0.6722 -0.7695  0.8121
 3792SOL    HW314941   0.776   0.944   4.980 -0.4638 -1.6062  1.1472
 3792SOL    MW414942   0.821   0.971   5.050  0.1236 -0.4607  0.3645
 3793SOL     OW14943   6.377   4.037   3.301  0.1803  0.1771 -0.5805
 3793SOL    HW214944   6.451   4.081   3.341 -0.5080 -0.1451  1.1401
 3793SOL    HW314945   6.327   4.107   3.258  0.4663  0.6716 -0.1125
 3793SOL    MW414946   6.380   4.052   3.300  0.1272  0.1998 -0.2918
 3794SOL     OW14947   1.642   1.468   5.826  0.3356  0.1132  0.1653
 3794SOL    HW214948   1.716   1.419   5.789  0.9548  0.2118  1.2438
 3794SOL    HW314949   1.678   1.554   5.846 -0.5442  0.7694 -0.9514
 3794SOL    MW414950   1.657   1.473   5.824  0.3012  0.2127  0.1603
 3795SOL     OW14951   2.264   3.234   5.437 -0.2790  0.1934  0.1049
 3795SOL    HW214952   2.186   3.177   5.436 -1.0005  1.1581  0.0445
 3795SOL    HW314953   2.267   3.271   5.349  0.3875 -0.0079  0.0397
 3795SOL    MW414954   2.254   3.231   5.425 -0.2862  0.2941  0.0884
 3796SOL     OW14955   3.205   5.524   0.591  0.9217 -0.1708 -0.6321
 3796SOL    HW214956   3.234   5.610   0.561  0.3325  0.2485 -0.0266
 3796SOL    HW314957   3.223   5.465   0.517  0.1891  0.6907 -1.5279
 3796SOL    MW414958   3.211   5.527   0.577  0.7473 -0.0018 -0.6704
 3797SOL     OW14959   2.194   0.504   0.140 -0.0481  0.0300  0.4308
 3797SOL    HW214960   2.274   0.482   0.092  0.1282  0.2652  0.6137
 3797SOL    HW314961   2.205   0.462   0.226 -0.6187 -0.8779  0.0700
 3797SOL    MW414962   2.206   0.495   0.145 -0.1001 -0.0588  0.4073
 3798SOL     OW14963   4.392   3.604   5.074  0.0980  0.0208  0.0622
 3798SOL    HW214964   4.352   3.533   5.125  0.4781  1.1045  1.9404
 3798SOL    HW314965   4.391   3.572   4.983 -1.9426 -1.3658  0.5192
 3798SOL    MW414966   4.387   3.590   5.068 -0.1211 -0.0192  0.3703
 3799SOL     OW14967   3.120   4.601   4.666 -0.3456  0.1077 -0.4225
 3799SOL    HW214968   3.187   4.562   4.723  0.5283  0.5353 -1.1375
 3799SOL    HW314969   3.164   4.616   4.583 -1.1938  0.8699 -0.7599
 3799SOL    MW414970   3.134   4.598   4.663 -0.3422  0.2647 -0.5614
 3800SOL     OW14971   2.900   2.490   2.442 -0.6979  0.5997  0.7413
 3800SOL    HW214972   2.962   2.515   2.510  0.1954 -1.2402  0.6718
 3800SOL    HW314973   2.927   2.540   2.365  2.2448 -1.7414  0.0554
 3800SOL    MW414974   2.911   2.500   2.441 -0.1918  0.0481  0.6417
 3801SOL     OW14975   3.023   2.093   1.331 -0.4790 -0.4244 -0.0218
 3801SOL    HW214976   2.979   2.021   1.285  1.1215 -1.1548 -0.4568
 3801SOL    HW314977   3.011   2.073   1.424  0.1054 -1.3583 -0.1385
 3801SOL    MW414978   3.015   2.081   1.337 -0.1907 -0.6440 -0.0946
 3802SOL     OW14979   3.660   3.344   5.706 -0.1775 -0.6315  0.2979
 3802SOL    HW214980   3.603   3.345   5.784 -0.3004  1.9965  0.2460
 3802SOL    HW314981   3.738   3.391   5.733  0.1148 -0.3850 -0.9459
 3802SOL    MW414982   3.662   3.350   5.720 -0.1551 -0.2523  0.1269
 3803SOL     OW14983   0.942   1.395   4.480  0.2053 -0.4426 -0.1097
 3803SOL    HW214984   1.036   1.407   4.462  0.0347 -1.7988 -2.2502
 3803SOL    HW314985   0.916   1.324   4.422 -1.5940 -1.9571  2.3918
 3803SOL    MW414986   0.951   1.387   4.470 -0.0546 -0.8213 -0.0621
 3804SOL     OW14987   2.170   5.640   4.915  0.7846  0.7941  0.4937
 3804SOL    HW214988   2.238   5.704   4.934 -0.4744  2.2842  0.1773
 3804SOL    HW314989   2.094   5.670   4.965 -0.1010  0.0525 -0.3679
 3804SOL    MW414990   2.169   5.652   4.924  0.5016  0.8929  0.3383
 3805SOL     OW14991   3.451   4.047   4.108  0.7732 -0.4353  0.8818
 3805SOL    HW214992   3.408   4.131   4.091  1.7924 -0.0641  0.0487
 3805SOL    HW314993   3.392   4.002   4.169 -0.0439  0.6629  0.9334
 3805SOL    MW414994   3.438   4.052   4.114  0.7999 -0.2415  0.7787
 3806SOL     OW14995   3.967   6.012   5.099  0.1275  0.6745  0.3257
 3806SOL    HW214996   3.919   5.985   5.021 -1.2875  0.7798  1.1086
 3806SOL    HW314997   3.942   6.103   5.112  0.5049  0.7139  0.7737
 3806SOL    MW414998   3.957   6.020   5.091 -0.0094  0.6936  0.4881
 3807SOL     OW14999   6.256   0.123   2.545 -0.4160  0.1116 -0.7955
 3807SOL    HW215000   6.343   0.127   2.507  0.3640 -0.5965  0.8192
 3807SOL    HW315001   6.229   0.031   2.534 -1.0658  0.3798 -1.4993
 3807SOL    MW415002   6.264   0.111   2.539 -0.3988  0.0535 -0.6753
 3808SOL     OW15003   4.257   1.443   1.275 -0.2538 -0.3074  0.1793
 3808SOL    HW215004   4.240   1.393   1.195  0.8698  0.9009 -0.8691
 3808SOL    HW315005   4.346   1.477   1.263  0.3839 -0.9975  2.4464
 3808SOL    MW415006   4.267   1.441   1.263 -0.0214 -0.2390  0.3401
 3809SOL     OW15007   0.069   4.397   3.393  0.2557 -0.0193  0.1175
 3809SOL    HW215008   0.107   4.315   3.425 -2.2162 -1.6508 -0.8686
 3809SOL    HW315009   0.084   4.395   3.299  1.9302  1.7068  0.2866
 3809SOL    MW415010   0.076   4.386   3.385  0.1505 -0.0068  0.0097
 3810SOL     OW15011   1.924   3.061   0.360  0.1282  0.7580  0.0942
 3810SOL    HW215012   1.844   3.091   0.404  0.5778  1.4969  0.4115
 3810SOL    HW315013   1.902   2.973   0.329 -0.7726  0.9082  0.2789
 3810SOL    MW415014   1.910   3.053   0.361  0.0687  0.8753  0.1605
 3811SOL     OW15015   4.538   3.980   5.182  0.6654 -0.6623 -0.1650
 3811SOL    HW215016   4.520   4.047   5.117  2.9223  0.1595 -0.0225
 3811SOL    HW315017   4.453   3.938   5.197 -1.0635  2.6210  0.2974
 3811SOL    MW415018   4.524   3.983   5.176  0.7351 -0.1207 -0.0852
 3812SOL     OW15019   3.997   5.666   3.124 -0.8397  0.4456 -0.5019
 3812SOL    HW215020   3.909   5.699   3.142 -1.3843 -0.2559 -1.7444
 3812SOL    HW315021   3.984   5.576   3.096  0.1538  0.6600 -1.7556
 3812SOL    MW415022   3.984   5.659   3.122 -0.7804  0.3814 -0.8313
 3813SOL     OW15023   4.986   3.529   4.890  0.2410  0.2179 -0.4196
 3813SOL    HW215024   4.964   3.475   4.814  1.5508  1.1064 -1.4891
 3813SOL    HW315025   4.947   3.615   4.871  0.9099  0.5576 -0.2905
 3813SOL    MW415026   4.978   3.533   4.877  0.5021  0.3799 -0.5437
 3814SOL     OW15027   3.297   2.279   3.953  0.0247 -0.3565 -0.0234
 3814SOL    HW215028   3.334   2.204   3.905 -1.0472 -0.5410 -0.6058
 3814SOL    HW315029   3.311   2.258   4.045  3.1227  0.5041 -0.1798
 3814SOL    MW415030   3.304   2.266   3.959  0.2920 -0.2673 -0.1209
 3815SOL     OW15031   4.986   3.877   1.554 -0.8139 -0.5191 -0.1486
 3815SOL    HW215032   5.011   3.907   1.467 -1.4927 -0.0463 -0.1886
 3815SOL    HW315033   5.035   3.932   1.615  1.5215 -2.4085 -0.1890
 3815SOL    MW415034   4.996   3.888   1.551 -0.5953 -0.7060 -0.1592
 3816SOL     OW15035   4.904   0.720   2.509  1.0180  0.3180 -0.3910
 3816SOL    HW215036   4.878   0.770   2.432  0.3760 -0.8882 -0.9795
 3816SOL    HW315037   5.000   0.717   2.506  1.1468  2.4198  0.2664
 3816SOL    MW415038   4.913   0.726   2.499  0.9503  0.4362 -0.3819
 3817SOL     OW15039   4.512   3.621   4.153  0.9410  0.4595  0.4103
 3817SOL    HW215040   4.457   3.588   4.224  0.2751  1.5388  0.4110
 3817SOL    HW315041   4.508   3.552   4.086 -1.5432  1.0677 -0.1733
 3817SOL    MW415042   4.504   3.607   4.153  0.5254  0.6821  0.3334
 3818SOL     OW15043   3.062   1.819   6.157  0.0723  0.3539  0.1208
 3818SOL    HW215044   3.139   1.851   6.205  1.0776 -0.4617 -0.9004
 3818SOL    HW315045   2.991   1.823   6.221  0.8509  1.5670  0.9579
 3818SOL    MW415046   3.063   1.824   6.172  0.3077  0.4063  0.0965
 3819SOL     OW15047   0.208   5.637   1.640  0.2893 -0.6217  1.4992
 3819SOL    HW215048   0.268   5.699   1.598  0.9345 -1.6162  0.8943
 3819SOL    HW315049   0.144   5.691   1.685 -0.7237  0.5732 -1.1497
 3819SOL    MW415050   0.208   5.652   1.640  0.2408 -0.5953  1.0699
 3820SOL     OW15051   5.711   0.217   3.456 -0.3176  0.3892 -0.3571
 3820SOL    HW215052   5.640   0.263   3.410  0.3066  0.8909 -0.8471
 3820SOL    HW315053   5.789   0.236   3.403 -0.2436 -2.4337 -1.4324
 3820SOL    MW415054   5.712   0.226   3.443 -0.2255  0.0829 -0.5637
 3821SOL     OW15055   1.524   1.339   3.334 -0.1236  0.0587  0.6404
 3821SOL    HW215056   1.499   1.422   3.374  0.0875 -0.0755  1.0522
 3821SOL    HW315057   1.482   1.272   3.388 -0.4149 -0.1011  0.2243
 3821SOL    MW415058   1.515   1.341   3.346 -0.1342  0.0199  0.6399
 3822SOL     OW15059   5.669   1.620   2.153  0.0976  0.2408  0.0875
 3822SOL    HW215060   5.756   1.591   2.180 -0.0192  0.9767  1.2964
 3822SOL    HW315061   5.683   1.657   2.065  0.1831 -3.6324 -1.7221
 3822SOL    MW415062   5.683   1.621   2.145  0.0935 -0.1731  0.0083
 3823SOL     OW15063   0.241   2.126   2.307 -0.3897  0.6342 -0.0729
 3823SOL    HW215064   0.233   2.051   2.248  0.7728  0.1393  0.3717
 3823SOL    HW315065   0.321   2.110   2.356 -1.2393  1.1262  1.5300
 3823SOL    MW415066   0.250   2.114   2.306 -0.3484  0.6338  0.1972
 3824SOL     OW15067   0.744   3.592   6.175 -0.1597 -0.1974  0.0115
 3824SOL    HW215068   0.777   3.507   6.144  0.1896 -0.5596  1.3161
 3824SOL    HW315069   0.720   3.639   6.095 -0.5864 -1.6152 -0.7212
 3824SOL    MW415070   0.745   3.587   6.161 -0.1699 -0.4322  0.0869
 3825SOL     OW15071   4.218   0.232   4.827 -0.3857  0.3802 -0.1836
 3825SOL    HW215072   4.150   0.255   4.764 -1.1924 -0.0109  0.5124
 3825SOL    HW315073   4.169   0.206   4.906  0.4682 -2.2979 -0.4286
 3825SOL    MW415074   4.202   0.231   4.829 -0.3795 -0.0248 -0.1241
 3826SOL     OW15075   0.401   3.738   6.005  0.5395 -0.2192 -0.1585
 3826SOL    HW215076   0.415   3.756   5.911  1.9600  0.3069  0.1267
 3826SOL    HW315077   0.472   3.785   6.049 -0.4889  0.0855  1.2471
 3826SOL    MW415078   0.412   3.747   5.998  0.5912 -0.1096  0.0646
 3827SOL     OW15079   2.573   1.276   2.312  0.0344 -0.0773  0.1053
 3827SOL    HW215080   2.632   1.347   2.286  0.1057  0.1498  0.8672
 3827SOL    HW315081   2.562   1.224   2.232  1.6502 -0.4024  0.0616
 3827SOL    MW415082   2.580   1.279   2.298  0.2570 -0.0902  0.2001
 3828SOL     OW15083   0.766   4.728   3.870  0.3799 -0.0455  0.6551
 3828SOL    HW215084   0.842   4.781   3.848 -0.4861  0.9031 -0.1517
 3828SOL    HW315085   0.796   4.638   3.860  0.8276  0.3115 -1.8117
 3828SOL    MW415086   0.780   4.723   3.866  0.3247  0.1268  0.2232
 3829SOL     OW15087   0.311   2.434   4.743 -0.0813  0.2625 -0.0852
 3829SOL    HW215088   0.357   2.354   4.770 -0.2557  0.2415  0.1596
 3829SOL    HW315089   0.368   2.505   4.773 -1.2762  0.3015  2.3385
 3829SOL    MW415090   0.325   2.433   4.751 -0.2620  0.2649  0.2669
 3830SOL     OW15091   4.967   6.185   2.107  0.3379 -0.5667 -0.4640
 3830SOL    HW215092   4.906   6.191   2.033  0.2416 -2.7648 -0.6293
 3830SOL    HW315093   5.050   6.160   2.067  0.8013  0.2189 -0.0095
 3830SOL    MW415094   4.970   6.183   2.092  0.3863 -0.7530 -0.4259
 3831SOL     OW15095   0.065   4.183   1.124 -0.4220 -0.1112  0.1650
 3831SOL    HW215096   0.139   4.187   1.063 -0.7265  0.4669 -0.1652
 3831SOL    HW315097   0.101   4.141   1.202  0.6725  1.5243  0.5889
 3831SOL    MW415098   0.080   4.178   1.127 -0.3177  0.1808  0.1774
 3832SOL     OW15099   3.479   0.124   2.668  0.3777 -0.0674 -0.1444
 3832SOL    HW215100   3.447   0.203   2.625  1.6670 -0.0044 -1.0209
 3832SOL    HW315101   3.560   0.151   2.712 -0.3956 -0.3587  1.5484
 3832SOL    MW415102   3.485   0.138   2.668  0.4458 -0.0975 -0.0367
 3833SOL     OW15103   3.442   2.343   5.169 -0.6726 -0.2396  0.2961
 3833SOL    HW215104   3.494   2.279   5.216 -3.6368 -3.1166 -0.0125
 3833SOL    HW315105   3.424   2.302   5.084 -2.1925  1.2360 -0.1531
 3833SOL    MW415106   3.447   2.329   5.164 -1.2642 -0.4245  0.1961
 3834SOL     OW15107   5.308   5.101   3.223 -0.2364  0.1647 -0.7386
 3834SOL    HW215108   5.374   5.041   3.189 -0.7945 -1.0034  0.1897
 3834SOL    HW315109   5.234   5.045   3.245 -0.5089  1.0814  0.8272
 3834SOL    MW415110   5.307   5.086   3.221 -0.3460  0.1315 -0.4095
 3835SOL     OW15111   2.962   1.000   4.614 -0.0415 -0.0908 -0.3577
 3835SOL    HW215112   3.016   1.058   4.561  1.0428 -0.1186  0.6560
 3835SOL    HW315113   3.019   0.976   4.688 -1.5109  0.0471  0.8767
 3835SOL    MW415114   2.977   1.005   4.617 -0.0923 -0.0763 -0.0611
 3836SOL     OW15115   1.945   1.593   3.158 -0.0996 -0.0016  0.2171
 3836SOL    HW215116   1.935   1.510   3.204 -0.0174 -1.3344 -1.9893
 3836SOL    HW315117   1.855   1.626   3.148 -0.0836  0.5157  1.6233
 3836SOL    MW415118   1.932   1.586   3.163 -0.0866 -0.1092  0.1115
 3837SOL     OW15119   4.964   2.283   0.639  0.2130 -0.1629 -0.0091
 3837SOL    HW215120   4.964   2.320   0.727 -2.2430 -0.2363  0.0677
 3837SOL    HW315121   4.910   2.205   0.645 -0.1425 -0.0754 -1.6145
 3837SOL    MW415122   4.957   2.278   0.651 -0.1580 -0.1610 -0.2108
 3838SOL     OW15123   2.479   1.886   2.311  0.5810 -1.0775  0.1429
 3838SOL    HW215124   2.395   1.846   2.333 -0.7395  0.0154 -2.4841
 3838SOL    HW315125   2.492   1.953   2.378 -1.9425  0.4088 -0.6990
 3838SOL    MW415126   2.469   1.890   2.322  0.0738 -0.7372 -0.3148
 3839SOL     OW15127   3.295   5.500   1.720  0.5964 -0.5114  0.0638
 3839SOL    HW215128   3.364   5.464   1.776 -1.1161 -2.1206  1.2389
 3839SOL    HW315129   3.232   5.539   1.781  0.0982  0.3233 -0.9423
 3839SOL    MW415130   3.296   5.500   1.736  0.3047 -0.6136  0.0861
 3840SOL     OW15131   5.664   5.202   5.457 -0.5356  0.1827  0.3240
 3840SOL    HW215132   5.755   5.180   5.481 -0.6920 -0.5538  0.2813
 3840SOL    HW315133   5.649   5.288   5.494  0.2977  0.4579  0.0470
 3840SOL    MW415134   5.674   5.210   5.465 -0.4463  0.1218  0.2819
 3841SOL     OW15135   4.510   4.865   0.123 -0.3007  0.0382 -0.5384
 3841SOL    HW215136   4.450   4.933   0.153  0.7903  0.6247  0.4392
 3841SOL    HW315137   4.592   4.912   0.107  1.4340 -1.3318  3.0501
 3841SOL    MW415138   4.513   4.880   0.125  0.0721 -0.0652  0.0640
 3842SOL     OW15139   4.620   0.144   6.110 -0.7514 -0.1099  0.6817
 3842SOL    HW215140   4.687   0.108   6.169 -0.2682 -1.2314 -0.5194
 3842SOL    HW315141   4.597   0.072   6.052 -2.4911  0.4806  0.5871
 3842SOL    MW415142   4.626   0.130   6.110 -0.9172 -0.1799  0.5107
 3843SOL     OW15143   5.508   2.297   4.221 -0.3828 -0.1494  0.5460
 3843SOL    HW215144   5.450   2.281   4.147  0.1049  1.6852 -0.2684
 3843SOL    HW315145   5.522   2.210   4.259 -2.0397 -0.8875 -0.4321
 3843SOL    MW415146   5.502   2.283   4.216 -0.5370 -0.0047  0.3095
 3844SOL     OW15147   5.301   5.360   3.096  0.4483 -0.4606 -0.0228
 3844SOL    HW215148   5.228   5.333   3.040 -0.7421 -0.2621  1.3585
 3844SOL    HW315149   5.323   5.282   3.147  0.0521 -0.0813  0.7531
 3844SOL    MW415150   5.294   5.346   3.095  0.2390 -0.3844  0.2618
 3845SOL     OW15151   1.535   4.135   3.566  0.8466 -0.4009  0.7616
 3845SOL    HW215152   1.523   4.048   3.528 -0.2436 -0.2486  0.7453
 3845SOL    HW315153   1.588   4.120   3.644 -2.1358 -1.5749  2.7018
 3845SOL    MW415154   1.541   4.122   3.571  0.3092 -0.5357  1.0154
 3846SOL     OW15155   0.688   3.565   2.185 -0.1334 -0.3294  0.0458
 3846SOL    HW215156   0.783   3.569   2.197  0.1140 -2.0182 -1.0238
 3846SOL    HW315157   0.670   3.624   2.112 -0.0888  0.8174  0.9215
 3846SOL    MW415158   0.698   3.573   2.177 -0.0949 -0.4009  0.0202
 3847SOL     OW15159   4.960   3.493   0.292 -0.0840 -0.1354 -0.0820
 3847SOL    HW215160   4.873   3.455   0.302 -0.6469  1.2406  0.6192
 3847SOL    HW315161   4.945   3.576   0.247  0.4967  1.3191  2.2111
 3847SOL    MW415162   4.946   3.499   0.288 -0.0816  0.2381  0.3131
 3848SOL     OW15163   1.517   0.125   0.545 -0.1165 -0.1262 -0.3317
 3848SOL    HW215164   1.497   0.202   0.491  0.5351  0.0981 -0.2675
 3848SOL    HW315165   1.561   0.064   0.486  0.3594  0.0114 -0.1303
 3848SOL    MW415166   1.520   0.127   0.530  0.0323 -0.0784 -0.2967
 3849SOL     OW15167   4.856   6.026   4.774  0.0397  0.1808  0.4424
 3849SOL    HW215168   4.917   6.100   4.782 -2.2614  2.1573  1.0843
 3849SOL    HW315169   4.871   5.993   4.685  0.9248  1.6518 -0.0053
 3849SOL    MW415170   4.866   6.031   4.763 -0.1471  0.6357  0.4680
 3850SOL     OW15171   5.025   4.443   2.563  0.0820 -0.0727  0.4282
 3850SOL    HW215172   5.032   4.352   2.534 -0.5626 -0.8650  2.5314
 3850SOL    HW315173   5.107   4.459   2.611  0.1797  0.4652  0.0977
 3850SOL    MW415174   5.037   4.433   2.566  0.0099 -0.1063  0.6621
 3851SOL     OW15175   3.095   0.557   1.758 -0.3745  0.6093  0.2204
 3851SOL    HW215176   3.011   0.602   1.772 -1.0319 -1.1985  3.0400
 3851SOL    HW315177   3.076   0.493   1.689 -1.4398  0.0516  0.9951
 3851SOL    MW415178   3.081   0.555   1.751 -0.6018  0.2972  0.6946
 3852SOL     OW15179   4.788   2.929   3.712  0.0980 -1.4105  0.0890
 3852SOL    HW215180   4.713   2.979   3.679  0.0212 -0.1993  1.9343
 3852SOL    HW315181   4.750   2.851   3.751 -0.0695 -1.4639 -0.1784
 3852SOL    MW415182   4.773   2.925   3.712  0.0658 -1.2577  0.2972
 3853SOL     OW15183   3.731   6.256   2.758 -0.7628  0.6281 -0.0250
 3853SOL    HW215184   3.771   6.256   2.845  0.4353 -1.0575 -0.5176
 3853SOL    HW315185   3.763   6.336   2.717  0.4690  0.3586  0.3508
 3853SOL    MW415186   3.741   6.266   2.764 -0.4422  0.3702 -0.0404
 3854SOL     OW15187   5.541   0.805   6.162 -0.3869  0.0077  0.4297
 3854SOL    HW215188   5.587   0.851   6.092 -0.5534 -1.8960 -1.0030
 3854SOL    HW315189   5.592   0.726   6.177 -1.2410 -0.4041  1.3340
 3854SOL    MW415190   5.554   0.800   6.155 -0.5216 -0.2978  0.3600
 3855SOL     OW15191   0.528   3.218   5.424 -0.4779 -0.0384  0.3806
 3855SOL    HW215192   0.598   3.177   5.373 -1.5108 -0.5531 -0.6780
 3855SOL    HW315193   0.565   3.302   5.452  0.6776 -0.4541  0.1361
 3855SOL    MW415194   0.542   3.224   5.421 -0.4617 -0.1611  0.2087
 3856SOL     OW15195   3.106   3.731   2.965  0.1399 -0.2300  0.0016
 3856SOL    HW215196   3.010   3.733   2.974  0.2151 -0.6839  1.0435
 3856SOL    HW315197   3.121   3.743   2.872 -1.0093 -2.0054 -0.4675
 3856SOL    MW415198   3.095   3.733   2.954 -0.0018 -0.5241  0.0771
 3857SOL     OW15199   2.418   5.026   2.611 -0.1817 -0.6764  0.0531
 3857SOL    HW215200   2.377   4.944   2.638  0.5789 -0.6069  1.5304
 3857SOL    HW315201   2.366   5.094   2.653  1.0641 -0.5675  1.5031
 3857SOL    MW415202   2.406   5.024   2.620  0.0830 -0.6528  0.4393
 3858SOL     OW15203   6.278   2.036   3.908 -0.4288  0.3075 -0.1800
 3858SOL    HW215204   6.346   1.995   3.854 -1.5413  1.1531 -2.3693
 3858SOL    HW315205   6.297   2.130   3.901 -1.6009  0.5287 -0.5572
 3858SOL    MW415206   6.290   2.043   3.900 -0.7303  0.4482 -0.5186
 3859SOL     OW15207   1.253   0.909   2.642 -0.1807 -0.5979  0.1532
 3859SOL    HW215208   1.302   0.846   2.696  1.0267 -1.2099 -1.5554
 3859SOL    HW315209   1.195   0.953   2.704  2.0840 -0.2521  2.2220
 3859SOL    MW415210   1.252   0.906   2.657  0.2774 -0.6330  0.2008
 3860SOL     OW15211   4.767   0.293   4.167  0.1130  0.8649  0.3057
 3860SOL    HW215212   4.735   0.354   4.101  1.7479  0.7078 -0.6843
 3860SOL    HW315213   4.688   0.254   4.205 -0.8656  0.9178 -1.5977
 3860SOL    MW415214   4.753   0.296   4.163  0.1996  0.8512 -0.0761
 3861SOL     OW15215   4.909   3.187   5.395 -0.2696  0.4660 -0.1899
 3861SOL    HW215216   4.829   3.211   5.441 -0.5143  0.1791 -0.4530
 3861SOL    HW315217   4.949   3.120   5.450 -1.2341 -0.8367 -1.0060
 3861SOL    MW415218   4.904   3.181   5.408 -0.4291  0.2563 -0.3323
 3862SOL     OW15219   1.821   3.565   1.537  0.1908  0.2032  0.2385
 3862SOL    HW215220   1.825   3.562   1.633 -1.9058  1.3943  0.4284
 3862SOL    HW315221   1.784   3.651   1.517 -1.3454 -0.7899 -1.5370
 3862SOL    MW415222   1.816   3.576   1.547 -0.2885  0.2293  0.0293
 3863SOL     OW15223   2.270   6.362   1.549 -0.0248 -0.6121  0.5444
 3863SOL    HW215224   2.344   6.407   1.589 -0.2975  0.6617 -0.3095
 3863SOL    HW315225   2.306   6.323   1.469 -0.0163 -1.0787  0.7686
 3863SOL    MW415226   2.285   6.363   1.543 -0.0597 -0.5056  0.4613
 3864SOL     OW15227   6.388   0.380   6.388 -0.2907 -0.2563 -0.1973
 3864SOL    HW215228   6.426   0.370   6.475  0.2547 -0.0413 -0.4041
 3864SOL    HW315229   6.299   0.345   6.396  0.0724 -1.1262  0.2021
 3864SOL    MW415230   6.381   0.374   6.401 -0.1708 -0.3427 -0.1719
 3865SOL     OW15231   1.593   1.754   0.680  0.4651 -0.1469 -0.2697
 3865SOL    HW215232   1.651   1.818   0.639  2.2665 -0.8355  1.0263
 3865SOL    HW315233   1.653   1.691   0.720 -1.2172 -0.8458  1.2732
 3865SOL    MW415234   1.609   1.754   0.680  0.4808 -0.3300  0.1049
 3866SOL     OW15235   1.761   0.215   5.420  0.2671 -0.0250  0.0602
 3866SOL    HW215236   1.683   0.193   5.471  0.5323 -1.4292 -0.0944
 3866SOL    HW315237   1.833   0.206   5.481  0.3122  1.5215  0.2700
 3866SOL    MW415238   1.760   0.211   5.434  0.3080 -0.0062  0.0675
 3867SOL     OW15239   4.479   4.133   2.418  0.1677  0.0980 -0.2629
 3867SOL    HW215240   4.553   4.084   2.452 -0.7046 -1.0643  0.0341
 3867SOL    HW315241   4.488   4.128   2.323 -0.0265 -0.8725 -0.2456
 3867SOL    MW415242   4.490   4.126   2.410  0.0270 -0.1834 -0.2214
 3868SOL     OW15243   0.501   5.037   1.944 -0.4647  0.2995 -0.0257
 3868SOL    HW215244   0.446   5.075   2.012  1.6615 -0.1261  2.1056
 3868SOL    HW315245   0.482   4.944   1.946 -1.7509  0.4955 -1.4148
 3868SOL    MW415246   0.491   5.030   1.953 -0.3538  0.2692  0.0722
 3869SOL     OW15247   1.192   6.368   2.231  0.3341 -0.1283  0.3426
 3869SOL    HW215248   1.158   6.353   2.143  2.2638  0.3767 -0.5494
 3869SOL    HW315249   1.152   6.450   2.260  1.4323  0.9206 -1.0279
 3869SOL    MW415250   1.182   6.377   2.223  0.7336  0.0767  0.0441
 3870SOL     OW15251   3.609   0.715   2.568 -0.0354 -0.5331  0.4575
 3870SOL    HW215252   3.634   0.805   2.589  1.6484 -1.0381  0.8013
 3870SOL    HW315253   3.635   0.703   2.477 -1.4989 -0.2870 -0.0163
 3870SOL    MW415254   3.616   0.725   2.559 -0.0063 -0.5673  0.4403
 3871SOL     OW15255   3.011   1.576   1.676 -0.2644 -0.0007 -0.3782
 3871SOL    HW215256   3.083   1.559   1.737 -2.9613 -2.4372  2.4853
 3871SOL    HW315257   3.033   1.525   1.598  1.2443 -0.4366  0.3068
 3871SOL    MW415258   3.023   1.567   1.674 -0.4212 -0.3797  0.0900
 3872SOL     OW15259   5.956   5.531   3.063 -0.2838  0.0473 -0.4968
 3872SOL    HW215260   5.979   5.571   3.147  0.1984 -0.0562 -0.5732
 3872SOL    HW315261   6.017   5.570   3.000 -0.3640 -0.1820 -0.7198
 3872SOL    MW415262   5.967   5.541   3.066 -0.2307  0.0034 -0.5363
 3873SOL     OW15263   1.779   3.259   2.760 -0.3324  0.0004  0.4730
 3873SOL    HW215264   1.716   3.316   2.804 -1.3461 -1.9275  1.6672
 3873SOL    HW315265   1.733   3.228   2.682 -0.2042 -0.0373  0.4119
 3873SOL    MW415266   1.765   3.262   2.756 -0.4493 -0.2590  0.6225
 3874SOL     OW15267   6.371   5.250   3.159 -0.4579 -0.0684  0.4637
 3874SOL    HW215268   6.375   5.257   3.254 -1.3298 -0.2880  0.5248
 3874SOL    HW315269   6.277   5.248   3.139 -0.2986 -1.5185 -0.2825
 3874SOL    MW415270   6.359   5.251   3.169 -0.5519 -0.2887  0.3733
 3875SOL     OW15271   3.645   3.062   0.667  0.7731 -1.2820 -0.3300
 3875SOL    HW215272   3.725   3.109   0.691 -0.3155 -0.0804  1.1076
 3875SOL    HW315273   3.645   3.061   0.572  0.6184  2.1147 -0.4631
 3875SOL    MW415274   3.656   3.068   0.658  0.6091 -0.6753 -0.1579
 3876SOL     OW15275   3.809   1.721   5.888 -0.2034 -0.1116 -0.3369
 3876SOL    HW215276   3.751   1.656   5.928  0.2288 -1.1301 -1.3080
 3876SOL    HW315277   3.868   1.746   5.959 -0.9377 -0.1074  0.2883
 3876SOL    MW415278   3.809   1.715   5.903 -0.2432 -0.2454 -0.3826
 3877SOL     OW15279   5.833   6.394   0.900 -1.0473  0.5474  0.2663
 3877SOL    HW215280   5.916   6.428   0.934 -0.3631  0.0565 -0.8407
 3877SOL    HW315281   5.836   6.300   0.919 -2.3480  0.8507  2.1598
 3877SOL    MW415282   5.845   6.386   0.907 -1.1287  0.5227  0.3700
 3878SOL     OW15283   5.195   1.499   6.265  0.1048  0.2220  0.5065
 3878SOL    HW215284   5.221   1.428   6.324  2.6661 -0.5936 -1.4207
 3878SOL    HW315285   5.115   1.468   6.223  1.4590 -1.8560 -0.6962
 3878SOL    MW415286   5.188   1.486   6.267  0.6214 -0.1597  0.0936
 3879SOL     OW15287   4.094   0.790   2.759 -0.2087  0.4770 -0.2958
 3879SOL    HW215288   4.042   0.857   2.803 -3.0591 -1.1563 -0.9089
 3879SOL    HW315289   4.088   0.812   2.666 -1.2622 -0.5885 -0.5108
 3879SOL    MW415290   4.086   0.802   2.753 -0.7238  0.1210 -0.4051
 3880SOL     OW15291   5.259   2.946   0.732  0.0460  1.3409  0.4380
 3880SOL    HW215292   5.349   2.966   0.757 -0.0918  1.3896  0.9025
 3880SOL    HW315293   5.230   3.023   0.683  1.1436  0.2344 -2.1234
 3880SOL    MW415294   5.267   2.959   0.729  0.1726  1.2014  0.1613
 3881SOL     OW15295   4.179   2.629   0.841  0.3379 -0.1360 -0.3185
 3881SOL    HW215296   4.249   2.691   0.859 -0.2734  1.4653 -2.9181
 3881SOL    HW315297   4.216   2.567   0.778  0.3938 -1.3437  0.8710
 3881SOL    MW415298   4.193   2.629   0.835  0.2646 -0.0840 -0.5046
 3882SOL     OW15299   5.827   5.917   5.191  0.2979  0.2553 -0.1817
 3882SOL    HW215300   5.751   5.937   5.245 -1.1230 -3.3992 -0.5135
 3882SOL    HW315301   5.870   5.844   5.235  1.6071 -0.0223 -1.7992
 3882SOL    MW415302   5.823   5.910   5.204  0.2831 -0.2635 -0.4389
 3883SOL     OW15303   4.392   6.029   0.252 -0.3334 -0.5435 -0.5061
 3883SOL    HW215304   4.382   6.093   0.322  1.0201 -1.0859  0.2402
 3883SOL    HW315305   4.393   5.944   0.297 -1.2985 -1.0465 -1.3929
 3883SOL    MW415306   4.391   6.026   0.267 -0.2822 -0.6815 -0.5246
 3884SOL     OW15307   6.086   3.781   6.323  0.6057 -0.1106  0.1198
 3884SOL    HW215308   6.165   3.727   6.325 -0.1819 -1.3983 -1.1705
 3884SOL    HW315309   6.041   3.761   6.405 -0.2096 -2.3503 -0.7985
 3884SOL    MW415310   6.091   3.771   6.334  0.3942 -0.5760 -0.1716
 3885SOL     OW15311   1.753   6.022   2.575  0.2861 -0.3465 -0.0195
 3885SOL    HW215312   1.822   6.055   2.632  0.1767 -0.1820  0.0191
 3885SOL    HW315313   1.765   6.070   2.493  0.7950 -0.9883 -0.3331
 3885SOL    MW415314   1.764   6.032   2.571  0.3389 -0.4095 -0.0558
 3886SOL     OW15315   5.021   1.186   3.638  0.4580 -0.0048  0.1421
 3886SOL    HW215316   5.117   1.193   3.630  0.7838 -0.3456  2.7703
 3886SOL    HW315317   5.008   1.106   3.688 -0.9957  1.4805  2.2916
 3886SOL    MW415318   5.032   1.177   3.644  0.3092  0.1462  0.7724
 3887SOL     OW15319   6.095   2.320   0.991 -0.2277 -0.0106  0.0504
 3887SOL    HW215320   6.184   2.352   1.007 -0.8807  2.1144 -0.3230
 3887SOL    HW315321   6.040   2.369   1.052 -1.3536 -0.0970 -0.8675
 3887SOL    MW415322   6.100   2.331   1.002 -0.4624  0.2584 -0.1200
 3888SOL     OW15323   4.642   6.184   4.542  0.4000  0.0771  0.4231
 3888SOL    HW215324   4.618   6.169   4.634 -1.4584  2.4763  0.4346
 3888SOL    HW315325   4.559   6.206   4.500  1.6134  1.8349 -1.1903
 3888SOL    MW415326   4.627   6.185   4.549  0.3149  0.6256  0.2117
 3889SOL     OW15327   2.524   3.563   4.537  0.0607 -0.0547 -0.0080
 3889SOL    HW215328   2.596   3.566   4.599  0.3611  0.5468 -0.3745
 3889SOL    HW315329   2.484   3.650   4.541 -0.2553 -0.1829 -0.2592
 3889SOL    MW415330   2.528   3.575   4.546  0.0587  0.0077 -0.0895
 3890SOL     OW15331   0.985   3.558   1.710  0.1869 -0.2730 -0.0428
 3890SOL    HW215332   0.970   3.500   1.784 -0.1286  0.8016  0.7661
 3890SOL    HW315333   1.051   3.514   1.657  0.2338 -1.1795  0.7514
 3890SOL    MW415334   0.992   3.545   1.713  0.1515 -0.2508  0.1687
 3891SOL     OW15335   5.747   6.091   4.619  0.6149  0.0683  0.4942
 3891SOL    HW215336   5.830   6.092   4.571  0.2867 -0.1120 -0.0839
 3891SOL    HW315337   5.739   6.000   4.649  1.7416  0.5750  2.5487
 3891SOL    MW415338   5.757   6.079   4.617  0.7203  0.1113  0.6890
 3892SOL     OW15339   5.328   5.865   1.197 -0.6159 -0.0549 -0.4356
 3892SOL    HW215340   5.391   5.799   1.225 -0.0055  1.0582  0.9193
 3892SOL    HW315341   5.381   5.934   1.158 -1.1258  0.2684 -0.5671
 3892SOL    MW415342   5.343   5.865   1.195 -0.6026  0.1346 -0.2742
 3893SOL     OW15343   3.261   1.267   4.067 -0.2492  0.0514 -0.4705
 3893SOL    HW215344   3.178   1.284   4.112  0.3317  1.9587 -0.0457
 3893SOL    HW315345   3.309   1.210   4.126  0.0834  1.6892  0.9010
 3893SOL    MW415346   3.256   1.262   4.080 -0.1287  0.5191 -0.2335
 3894SOL     OW15347   3.382   6.329   2.112  0.4137  0.0670 -0.0978
 3894SOL    HW215348   3.333   6.347   2.032  0.2681 -1.1959 -0.3181
 3894SOL    HW315349   3.341   6.384   2.179 -0.6461 -0.2042 -0.5069
 3894SOL    MW415350   3.370   6.339   2.110  0.2547 -0.1354 -0.1809
 3895SOL     OW15351   1.152   3.980   4.818 -0.3321  0.3692 -0.5372
 3895SOL    HW215352   1.198   3.969   4.901  0.0795 -1.0225 -0.9159
 3895SOL    HW315353   1.062   3.952   4.837 -1.0640  2.9279  0.1600
 3895SOL    MW415354   1.146   3.975   4.832 -0.3743  0.5232 -0.4952
 3896SOL     OW15355   1.343   2.618   0.280  0.5962  0.5597  0.0858
 3896SOL    HW215356   1.343   2.630   0.375 -1.3077  1.0062  0.0775
 3896SOL    HW315357   1.405   2.683   0.247  1.8495 -0.1013  1.0405
 3896SOL    MW415358   1.351   2.628   0.288  0.5104  0.5314  0.2107
 3897SOL     OW15359   0.611   0.158   3.828  0.1912 -0.3126  0.7761
 3897SOL    HW215360   0.655   0.242   3.838  0.0510 -0.3659  1.9826
 3897SOL    HW315361   0.526   0.170   3.871 -0.3532 -0.6862 -0.1652
 3897SOL    MW415362   0.606   0.171   3.835  0.1009 -0.3689  0.8111
 3898SOL     OW15363   3.566   1.058   1.170  0.0197  0.3550 -0.2663
 3898SOL    HW215364   3.486   1.045   1.121  0.1121 -0.2879 -0.2646
 3898SOL    HW315365   3.610   0.972   1.168  0.1391  0.3739  0.7164
 3898SOL    MW415366   3.562   1.045   1.164  0.0477  0.2727 -0.1364
 3899SOL     OW15367   4.781   3.885   4.394  0.8110 -0.7413 -0.3392
 3899SOL    HW215368   4.759   3.886   4.301  0.2910  1.0531 -0.2338
 3899SOL    HW315369   4.815   3.972   4.412 -1.2010 -0.2556  1.6127
 3899SOL    MW415370   4.783   3.896   4.384  0.4769 -0.4404 -0.0678
 3900SOL     OW15371   4.101   0.849   3.970 -0.2294  0.0989 -0.3739
 3900SOL    HW215372   4.018   0.858   4.017 -2.4992 -0.2626 -3.8742
 3900SOL    HW315373   4.122   0.756   3.977 -0.8379 -0.0534 -0.4842
 3900SOL    MW415374   4.093   0.838   3.977 -0.6092  0.0311 -0.8503
 3901SOL     OW15375   4.533   4.002   1.293  0.0432  0.8485 -0.0579
 3901SOL    HW215376   4.593   4.073   1.314  1.0216 -0.2332  0.9726
 3901SOL    HW315377   4.471   4.000   1.367  1.3258 -0.6879  1.0504
 3901SOL    MW415378   4.533   4.011   1.306  0.3415  0.5031  0.2243
 3902SOL     OW15379   1.312   3.996   0.760  0.5403 -0.0092 -0.3209
 3902SOL    HW215380   1.377   3.953   0.816  0.2264  1.6044  1.4080
 3902SOL    HW315381   1.335   4.089   0.764 -1.3711  0.5102 -0.3305
 3902SOL    MW415382   1.324   4.002   0.768  0.2467  0.2723 -0.0941
 3903SOL     OW15383   2.217   0.997   3.480  0.5400 -0.3012  0.3502
 3903SOL    HW215384   2.303   0.995   3.522  0.9952 -0.8924 -0.6013
 3903SOL    HW315385   2.209   0.913   3.436 -0.0441  0.1942 -0.5274
 3903SOL    MW415386   2.227   0.986   3.480  0.5230 -0.3138  0.1089
 3904SOL     OW15387   6.356   2.396   5.687 -0.0871 -0.1845 -0.4121
 3904SOL    HW215388   6.271   2.368   5.654 -0.1445  0.9506 -1.3096
 3904SOL    HW315389   6.336   2.453   5.761 -0.0683 -0.5896 -0.0931
 3904SOL    MW415390   6.342   2.400   5.692 -0.0922 -0.0882 -0.4884
 3905SOL     OW15391   1.522   3.408   5.571 -0.2310 -0.4829  0.3880
 3905SOL    HW215392   1.444   3.458   5.595 -1.1475 -2.2203  1.2260
 3905SOL    HW315393   1.499   3.366   5.488  0.8491  1.0428 -0.7585
 3905SOL    MW415394   1.509   3.409   5.563 -0.2094 -0.5108  0.3473
 3906SOL     OW15395   1.839   2.099   0.301 -0.1066 -0.6603 -0.0899
 3906SOL    HW215396   1.780   2.044   0.353 -1.0782 -1.1928 -1.6753
 3906SOL    HW315397   1.810   2.086   0.211 -0.2552  2.3282 -0.5811
 3906SOL    MW415398   1.827   2.090   0.296 -0.2544 -0.3363 -0.3639
 3907SOL     OW15399   4.054   5.210   4.892  0.2251 -0.2025 -0.1439
 3907SOL    HW215400   4.146   5.186   4.902  0.6939  1.1938 -0.9196
 3907SOL    HW315401   4.006   5.136   4.929  1.6643 -0.4503  1.3735
 3907SOL    MW415402   4.060   5.197   4.898  0.4768 -0.0510 -0.0460
 3908SOL     OW15403   4.521   2.373   0.950 -0.2964 -0.5113 -0.1829
 3908SOL    HW215404   4.456   2.360   0.881 -1.6329  3.9304 -0.0847
 3908SOL    HW315405   4.592   2.421   0.907 -0.7387  1.5190  1.1703
 3908SOL    MW415406   4.522   2.378   0.935 -0.5311  0.3426  0.0086
 3909SOL     OW15407   5.031   5.710   4.195  0.0685 -1.0518 -0.1914
 3909SOL    HW215408   4.958   5.729   4.255  2.0160  0.9031  1.7507
 3909SOL    HW315409   4.999   5.739   4.110 -0.5782  2.4159  1.0682
 3909SOL    MW415410   5.017   5.716   4.192  0.2401 -0.3363  0.2310
 3910SOL     OW15411   2.164   3.726   2.646 -0.1398 -0.3766  0.2855
 3910SOL    HW215412   2.249   3.758   2.676 -0.0421 -0.2069 -0.1690
 3910SOL    HW315413   2.182   3.683   2.563 -0.1829 -2.1037  1.1214
 3910SOL    MW415414   2.177   3.724   2.639 -0.1326 -0.5821  0.3358
 3911SOL     OW15415   6.079   4.391   0.311 -0.2151  0.1053  0.2428
 3911SOL    HW215416   6.070   4.470   0.257 -4.1381  0.3033  0.9283
 3911SOL    HW315417   6.060   4.319   0.251 -1.7145  0.1137  0.6785
 3911SOL    MW415418   6.076   4.392   0.296 -0.9305  0.1325  0.3908
 3912SOL     OW15419   5.384   3.304   5.593 -0.1318 -0.0500  0.4322
 3912SOL    HW215420   5.324   3.249   5.543  0.2565  0.0530 -0.1668
 3912SOL    HW315421   5.390   3.263   5.678 -0.8642 -0.1951  0.4177
 3912SOL    MW415422   5.377   3.292   5.597 -0.1772 -0.0556  0.3512
 3913SOL     OW15423   6.270   0.014   3.374 -0.1148  0.7934  0.3766
 3913SOL    HW215424   6.295   0.024   3.466 -1.0541  0.3277  0.6878
 3913SOL    HW315425   6.354   0.007   3.328  0.4158  2.8460  0.9604
 3913SOL    MW415426   6.285   0.014   3.380 -0.1687  1.0028  0.4947
 3914SOL     OW15427   3.481   4.575   5.526  0.6849  0.2171  0.2402
 3914SOL    HW215428   3.563   4.579   5.576  1.6070 -2.2252 -0.8831
 3914SOL    HW315429   3.412   4.584   5.591  1.8362 -2.6625  2.0342
 3914SOL    MW415430   3.483   4.577   5.541  0.9585 -0.4851  0.3287
 3915SOL     OW15431   3.706   0.494   2.952  0.0683 -0.5242  0.0320
 3915SOL    HW215432   3.801   0.495   2.962 -0.0310 -1.4316  1.4149
 3915SOL    HW315433   3.689   0.422   2.890  0.2036 -2.0733  1.6940
 3915SOL    MW415434   3.716   0.484   2.945  0.0730 -0.8483  0.4337
 3916SOL     OW15435   2.535   6.035   5.852  0.2857  0.3654 -0.0032
 3916SOL    HW215436   2.561   5.982   5.927  3.4350  2.3844  0.5205
 3916SOL    HW315437   2.449   6.069   5.876 -0.3384 -1.8075  1.0752
 3916SOL    MW415438   2.527   6.033   5.865  0.6189  0.3451  0.2082
 3917SOL     OW15439   0.127   0.956   2.268 -0.5824 -0.6475  0.2650
 3917SOL    HW215440   0.151   1.036   2.222 -0.3018 -0.8113  0.1243
 3917SOL    HW315441   0.034   0.945   2.249 -0.3998 -0.8876 -0.5332
 3917SOL    MW415442   0.118   0.965   2.259 -0.5213 -0.7008  0.1411
 3918SOL     OW15443   3.802   2.437   0.804  0.5165 -0.5032 -0.2316
 3918SOL    HW215444   3.720   2.395   0.828  1.0611 -0.4855  1.8500
 3918SOL    HW315445   3.816   2.503   0.871  1.2634  0.8850 -1.6696
 3918SOL    MW415446   3.793   2.440   0.816  0.6869 -0.3177 -0.1467
 3919SOL     OW15447   1.109   3.142   5.956  0.1423  0.0810  0.4266
 3919SOL    HW215448   1.183   3.193   5.989 -0.0312 -0.2798  1.4093
 3919SOL    HW315449   1.100   3.070   6.018 -0.4430 -0.4127 -0.2138
 3919SOL    MW415450   1.117   3.139   5.969  0.0422 -0.0317  0.4718
 3920SOL     OW15451   0.790   5.042   0.758  0.5160 -0.1381  0.3397
 3920SOL    HW215452   0.716   4.993   0.721 -1.2317  2.5058  0.0900
 3920SOL    HW315453   0.861   5.028   0.695 -0.5464 -0.6731 -0.7955
 3920SOL    MW415454   0.790   5.033   0.745  0.1452  0.1401  0.1570
 3921SOL     OW15455   2.169   1.351   5.698 -0.2776  0.0173 -0.1657
 3921SOL    HW215456   2.264   1.339   5.694 -0.5393 -2.5127 -2.2173
 3921SOL    HW315457   2.142   1.304   5.777  0.0940 -0.4521 -0.3103
 3921SOL    MW415458   2.178   1.343   5.708 -0.2631 -0.3784 -0.4554
 3922SOL     OW15459   2.286   0.852   5.085 -0.6543 -0.1336 -0.3941
 3922SOL    HW215460   2.264   0.900   5.005  1.1426  2.0995  0.3541
 3922SOL    HW315461   2.370   0.810   5.066 -0.3421  0.1951  0.2283
 3922SOL    MW415462   2.294   0.853   5.072 -0.3760  0.2044 -0.2133
 3923SOL     OW15463   4.424   1.376   5.087  0.6149  0.2642 -0.3916
 3923SOL    HW215464   4.499   1.319   5.102  0.1442  0.0890  1.6670
 3923SOL    HW315465   4.437   1.450   5.146 -0.3570  0.6980 -0.6859
 3923SOL    MW415466   4.435   1.379   5.097  0.4246  0.2983 -0.1588
 3924SOL     OW15467   5.994   5.082   2.019  0.0042  0.0132 -0.3169
 3924SOL    HW215468   5.906   5.118   2.035 -0.5243 -0.9211 -0.9934
 3924SOL    HW315469   6.018   5.114   1.932  0.3854  0.3436 -0.0938
 3924SOL    MW415470   5.985   5.091   2.010 -0.0152 -0.0665 -0.3767
 3925SOL     OW15471   1.312   2.957   1.546 -0.0561 -0.6265  0.3908
 3925SOL    HW215472   1.259   3.002   1.611 -0.1489 -2.3339  1.5506
 3925SOL    HW315473   1.276   2.986   1.462 -0.6921  0.7167  1.0932
 3925SOL    MW415474   1.301   2.967   1.543 -0.1523 -0.6746  0.6365
 3926SOL     OW15475   0.480   0.435   2.794 -0.5814 -0.1337  0.3041
 3926SOL    HW215476   0.524   0.482   2.722  1.3929  0.6188  1.8925
 3926SOL    HW315477   0.469   0.502   2.862 -2.5063 -0.8017  0.6926
 3926SOL    MW415478   0.484   0.450   2.793 -0.5749 -0.1226  0.5650
 3927SOL     OW15479   0.075   6.247   4.942  0.5830 -0.0804  0.5101
 3927SOL    HW215480   0.086   6.164   4.895  0.6822 -0.5281  1.3076
 3927SOL    HW315481   0.153   6.255   4.997  1.0421  1.0270 -0.2677
 3927SOL    MW415482   0.087   6.237   4.943  0.6566  0.0067  0.5127
 3928SOL     OW15483   0.008   2.953   1.936 -0.0876  0.2645 -0.1876
 3928SOL    HW215484   0.042   2.864   1.925 -0.8650  0.0359 -0.7540
 3928SOL    HW315485  -0.077   2.953   1.893  0.2101  1.4802 -0.8475
 3928SOL    MW415486   0.002   2.942   1.929 -0.1509  0.3948 -0.3494
 3929SOL     OW15487   1.509   1.761   1.281  0.4289 -0.2775  0.4611
 3929SOL    HW215488   1.547   1.837   1.238 -0.1343  0.9037  1.9587
 3929SOL    HW315489   1.566   1.688   1.256  2.1573  0.9838  0.5660
 3929SOL    MW415490   1.522   1.761   1.272  0.5826  0.0448  0.6725
 3930SOL     OW15491   6.283   4.670   4.370  0.0574 -0.1075 -0.0466
 3930SOL    HW215492   6.293   4.755   4.328 -0.7966 -0.7378 -1.5920
 3930SOL    HW315493   6.333   4.610   4.314 -1.1968 -0.9831 -0.2556
 3930SOL    MW415494   6.291   4.673   4.357 -0.2207 -0.3062 -0.2781
 3931SOL     OW15495   0.588   0.206   3.432 -0.0514 -0.3570 -0.1192
 3931SOL    HW215496   0.670   0.255   3.442 -0.0595 -0.5508  1.1904
 3931SOL    HW315497   0.608   0.120   3.469 -0.4967 -0.8181 -0.9415
 3931SOL    MW415498   0.602   0.201   3.439 -0.1112 -0.4434 -0.0549
 3932SOL     OW15499   0.158   1.808   1.595  0.1007 -0.5236 -0.5926
 3932SOL    HW215500   0.127   1.892   1.563  0.0986 -0.3617 -0.1669
 3932SOL    HW315501   0.173   1.821   1.689  0.6048 -0.8487 -0.6210
 3932SOL    MW415502   0.156   1.821   1.603  0.1669 -0.5451 -0.5402
 3933SOL     OW15503   2.844   1.224   2.383 -0.8144  0.1769  0.4192
 3933SOL    HW215504   2.874   1.210   2.294  0.4903  2.4033  0.4482
 3933SOL    HW315505   2.752   1.247   2.374 -0.4799  1.2480 -0.4566
 3933SOL    MW415506   2.836   1.225   2.370 -0.5981  0.6120  0.3075
 3934SOL     OW15507   4.806   0.491   1.709 -0.0410 -0.1161 -0.0455
 3934SOL    HW215508   4.769   0.578   1.697 -0.3875 -0.2443  0.1024
 3934SOL    HW315509   4.767   0.438   1.639  1.1385  0.1447 -0.9470
 3934SOL    MW415510   4.796   0.495   1.698  0.0689 -0.0986 -0.1449
 3935SOL     OW15511   1.732   5.270   1.661 -0.0624 -0.1742 -0.1143
 3935SOL    HW215512   1.781   5.199   1.619  0.1002  0.7298 -1.5174
 3935SOL    HW315513   1.781   5.291   1.740  0.3166 -1.0842 -0.1017
 3935SOL    MW415514   1.745   5.263   1.666  0.0090 -0.1750 -0.2978
 3936SOL     OW15515   4.655   5.544   0.754  0.2791  0.2041  0.1558
 3936SOL    HW215516   4.716   5.605   0.713  3.5523 -1.5958  1.9755
 3936SOL    HW315517   4.636   5.582   0.840  0.4774 -0.2167  0.3902
 3936SOL    MW415518   4.660   5.557   0.760  0.7371 -0.0889  0.4268
 3937SOL     OW15519   1.444   1.853   5.748 -0.5821  0.1005 -0.1330
 3937SOL    HW215520   1.367   1.909   5.756  0.2381  1.1273  0.9045
 3937SOL    HW315521   1.409   1.764   5.744 -1.8848  0.6317 -1.3150
 3937SOL    MW415522   1.429   1.848   5.749 -0.6458  0.3061 -0.1521
 3938SOL     OW15523   1.985   0.185   5.582 -0.3882  0.8235 -0.5086
 3938SOL    HW215524   2.055   0.251   5.581  1.7459 -1.2673  0.3439
 3938SOL    HW315525   1.971   0.165   5.675 -1.9647  0.9968 -0.6794
 3938SOL    MW415526   1.993   0.191   5.594 -0.3147  0.5705 -0.4186
 3939SOL     OW15527   4.725   5.424   0.436  0.1559  0.0242  0.1412
 3939SOL    HW215528   4.716   5.361   0.364 -0.3514 -1.1221  1.1791
 3939SOL    HW315529   4.680   5.502   0.405  0.4967 -0.2283 -1.0374
 3939SOL    MW415530   4.718   5.426   0.422  0.1339 -0.1603  0.1226
 3940SOL     OW15531   4.835   1.869   3.079 -0.3342 -0.2368 -0.1631
 3940SOL    HW215532   4.809   1.861   2.988 -0.9867 -1.4182  0.1146
 3940SOL    HW315533   4.780   1.807   3.126  0.4660 -0.1416  0.9448
 3940SOL    MW415534   4.825   1.860   3.073 -0.3147 -0.3801  0.0197
 3941SOL     OW15535   3.591   1.543   2.228  0.1727  0.2875  0.1448
 3941SOL    HW215536   3.594   1.618   2.287 -0.0397 -0.2276  0.8196
 3941SOL    HW315537   3.498   1.518   2.226  0.4827 -1.0097  1.2711
 3941SOL    MW415538   3.579   1.549   2.235  0.1856  0.0484  0.3824
 3942SOL     OW15539   1.447   4.068   4.300  0.0916 -0.2525  0.0021
 3942SOL    HW215540   1.425   4.117   4.221  1.6638 -0.6652 -0.7410
 3942SOL    HW315541   1.436   4.130   4.371  2.6025  1.4391 -0.9647
 3942SOL    MW415542   1.443   4.082   4.299  0.6303 -0.0838 -0.2235
 3943SOL     OW15543   4.441   4.378   2.990 -0.0585  0.1831 -0.6481
 3943SOL    HW215544   4.510   4.325   2.950 -0.1757  0.2165 -0.8957
 3943SOL    HW315545   4.384   4.314   3.033  1.9950  0.3043  2.6229
 3943SOL    MW415546   4.443   4.363   2.990  0.1970  0.2035 -0.2492
 3944SOL     OW15547   1.993   4.720   2.941 -0.0906  0.4188 -0.5329
 3944SOL    HW215548   1.926   4.742   3.006  0.8376  0.6342  0.3761
 3944SOL    HW315549   1.954   4.650   2.889 -0.0267 -1.3714  1.6930
 3944SOL    MW415550   1.979   4.714   2.942  0.0403  0.2111 -0.1193
 3945SOL     OW15551   4.675   4.082   0.449 -0.4886 -0.1964 -0.2112
 3945SOL    HW215552   4.652   4.162   0.496 -0.8136  0.5930 -1.6398
 3945SOL    HW315553   4.654   4.011   0.509 -1.8410  0.7230  0.4404
 3945SOL    MW415554   4.669   4.083   0.463 -0.7099  0.0290 -0.3137
 3946SOL     OW15555   2.863   3.467   0.601  0.1557  0.1993  0.0368
 3946SOL    HW215556   2.925   3.540   0.605 -0.6863  0.9196  0.0666
 3946SOL    HW315557   2.872   3.423   0.685 -0.3857  1.1517  0.6052
 3946SOL    MW415558   2.872   3.471   0.613 -0.0268  0.4200  0.1157
 3947SOL     OW15559   2.696   1.680   1.256  0.0021  0.0765  0.4718
 3947SOL    HW215560   2.760   1.610   1.265  0.2289  0.2700  0.3572
 3947SOL    HW315561   2.746   1.760   1.266  0.5384  0.4317 -3.5057
 3947SOL    MW415562   2.711   1.681   1.258  0.1028  0.1489 -0.0681
 3948SOL     OW15563   0.750   1.927   3.794 -0.5183  0.1999  0.0617
 3948SOL    HW215564   0.712   1.873   3.725  0.5198 -1.2582  0.5725
 3948SOL    HW315565   0.828   1.966   3.754 -0.2326 -0.1928  0.2241
 3948SOL    MW415566   0.755   1.925   3.780 -0.3437 -0.0443  0.1505
 3949SOL     OW15567   0.680   3.800   1.117 -0.1843  0.5389 -0.0762
 3949SOL    HW215568   0.656   3.708   1.131 -1.3517  0.6614 -1.0928
 3949SOL    HW315569   0.718   3.828   1.200 -0.0344 -0.7965  0.3284
 3949SOL    MW415570   0.682   3.791   1.130 -0.3186  0.3789 -0.1570
 3950SOL     OW15571   1.850   1.472   0.204 -0.0828  0.2238 -0.2347
 3950SOL    HW215572   1.810   1.515   0.279  0.5534 -0.9887  0.8454
 3950SOL    HW315573   1.857   1.541   0.137  0.0232  1.5278  1.0737
 3950SOL    MW415574   1.846   1.487   0.205  0.0151  0.2358  0.0805
 3951SOL     OW15575   0.636   5.703   3.906  0.1200  0.4684 -0.3271
 3951SOL    HW215576   0.569   5.730   3.844 -1.3635 -2.0333  0.0770
 3951SOL    HW315577   0.678   5.627   3.866 -0.0489 -0.4568  1.1757
 3951SOL    MW415578   0.633   5.697   3.893 -0.0980  0.0163 -0.0755
 3952SOL     OW15579   3.429   4.146   5.867 -0.3979  0.4064 -0.6728
 3952SOL    HW215580   3.375   4.137   5.788 -2.2871  0.7976  0.5121
 3952SOL    HW315581   3.373   4.116   5.938  0.9010  0.9997  0.6521
 3952SOL    MW415582   3.414   4.141   5.866 -0.4758  0.5363 -0.3417
 3953SOL     OW15583   4.845   4.818   2.462  0.1986 -0.1104 -0.1953
 3953SOL    HW215584   4.824   4.865   2.381  0.4671 -0.8859 -0.7234
 3953SOL    HW315585   4.795   4.737   2.456 -0.6569  0.2913  0.9421
 3953SOL    MW415586   4.835   4.814   2.451  0.1212 -0.1598 -0.1149
 3954SOL     OW15587   6.046   3.458   2.279  0.1804  0.0292 -0.0954
 3954SOL    HW215588   6.115   3.413   2.327 -0.9956 -2.6934 -0.7816
 3954SOL    HW315589   6.086   3.541   2.251  2.7523 -0.9236  0.5123
 3954SOL    MW415590   6.060   3.463   2.282  0.3646 -0.4557 -0.1058
 3955SOL     OW15591   3.267   1.552   4.111 -0.5124 -0.1647  0.0419
 3955SOL    HW215592   3.307   1.465   4.112 -1.8065 -0.8055 -0.5192
 3955SOL    HW315593   3.173   1.534   4.115 -0.7914  1.2300  0.2010
 3955SOL    MW415594   3.259   1.538   4.112 -0.7199 -0.0652 -0.0111
 3956SOL     OW15595   4.868   4.244   5.535  0.1546 -0.4281 -0.3654
 3956SOL    HW215596   4.920   4.189   5.593  0.9346  0.3327 -0.3036
 3956SOL    HW315597   4.862   4.328   5.581 -1.0059 -0.4566 -0.4499
 3956SOL    MW415598   4.874   4.248   5.549  0.1044 -0.3315 -0.3684
 3957SOL     OW15599   0.732   4.637   4.130 -0.8442 -0.1730 -0.4635
 3957SOL    HW215600   0.670   4.688   4.183  2.3820  2.8328  0.8704
 3957SOL    HW315601   0.743   4.688   4.050 -0.0981 -0.6375 -0.6706
 3957SOL    MW415602   0.725   4.651   4.127 -0.3201  0.1623 -0.3149
 3958SOL     OW15603   3.832   4.436   2.164  0.1915  0.0586  0.3560
 3958SOL    HW215604   3.761   4.500   2.160 -0.0779 -0.2806 -1.9770
 3958SOL    HW315605   3.901   4.478   2.214 -1.4180  0.6107  2.2415
 3958SOL    MW415606   3.831   4.450   2.170 -0.0564  0.0867  0.2970
 3959SOL     OW15607   6.178   3.461   4.637  0.0130  0.1243  0.4796
 3959SOL    HW215608   6.191   3.483   4.544 -0.5980  0.2005  0.4113
 3959SOL    HW315609   6.152   3.543   4.677 -1.2192 -0.2279  0.4288
 3959SOL    MW415610   6.176   3.474   4.630 -0.2302  0.0879  0.4639
 3960SOL     OW15611   3.339   0.518   1.441  0.2384 -0.1449  0.1339
 3960SOL    HW215612   3.304   0.601   1.474  2.9729  1.3740 -0.3961
 3960SOL    HW315613   3.273   0.487   1.379 -2.5369 -0.3477  2.9281
 3960SOL    MW415614   3.326   0.525   1.437  0.2330  0.0287  0.4326
 3961SOL     OW15615   5.553   2.916   5.200  0.1805 -0.4204 -0.0345
 3961SOL    HW215616   5.570   2.890   5.109 -0.4044  0.3535 -0.3782
 3961SOL    HW315617   5.529   2.834   5.244  1.4096 -0.9753 -0.3252
 3961SOL    MW415618   5.552   2.901   5.193  0.2655 -0.3915 -0.1182
 3962SOL     OW15619   6.192   6.110   1.350  0.1130  0.5063  0.2550
 3962SOL    HW215620   6.194   6.021   1.314 -0.1837  1.1685 -1.5172
 3962SOL    HW315621   6.164   6.098   1.440  1.2335 -1.2958  0.4334
 3962SOL    MW415622   6.189   6.096   1.357  0.2217  0.3559  0.0447
 3963SOL     OW15623   1.812   2.651   1.029 -0.0360 -0.0956  0.4350
 3963SOL    HW215624   1.840   2.660   1.120 -0.1913  1.2032  0.3652
 3963SOL    HW315625   1.876   2.592   0.990  0.1952 -0.4403  1.3102
 3963SOL    MW415626   1.824   2.644   1.036 -0.0260  0.0303  0.5413
 3964SOL     OW15627   2.824   0.294   1.202  0.6534  1.1240 -0.5334
 3964SOL    HW215628   2.743   0.305   1.153 -0.1470 -0.5229  0.3458
 3964SOL    HW315629   2.861   0.382   1.208  0.1956  1.5474 -3.0355
 3964SOL    MW415630   2.818   0.307   1.196  0.4874  0.9626 -0.7475
 3965SOL     OW15631   5.643   2.966   4.248 -0.6570 -0.3077  0.1281
 3965SOL    HW215632   5.660   3.045   4.197 -1.3721 -0.4330 -0.2980
 3965SOL    HW315633   5.642   2.895   4.184  2.4743 -1.0776  0.7414
 3965SOL    MW415634   5.645   2.967   4.233 -0.3382 -0.4258  0.1528
 3966SOL     OW15635   3.148   3.209   6.411 -0.1342 -0.6781 -0.1862
 3966SOL    HW215636   3.134   3.226   6.318  0.8203 -1.1952 -0.4452
 3966SOL    HW315637   3.176   3.117   6.414  2.6582  0.0845  0.2700
 3966SOL    MW415638   3.150   3.199   6.399  0.3601 -0.6457 -0.1602
 3967SOL     OW15639   2.920   5.510   4.555 -0.3135  0.3561  0.0528
 3967SOL    HW215640   2.880   5.590   4.522 -1.2543  0.0057  0.2898
 3967SOL    HW315641   2.870   5.439   4.514  1.8220 -0.1848 -1.7815
 3967SOL    MW415642   2.908   5.511   4.545 -0.1559  0.2385 -0.1579
 3968SOL     OW15643   4.975   5.441   0.267  0.4150 -0.1848 -0.4610
 3968SOL    HW215644   4.995   5.348   0.275 -1.0470 -0.7225 -2.2399
 3968SOL    HW315645   4.910   5.458   0.335  0.1710 -0.6408 -0.5765
 3968SOL    MW415646   4.969   5.431   0.277  0.1899 -0.3159 -0.7109
 3969SOL     OW15647   3.404   5.952   1.658 -0.0350 -0.7561  0.2902
 3969SOL    HW215648   3.498   5.951   1.676  0.0002  0.6450  0.2815
 3969SOL    HW315649   3.363   5.930   1.741  0.2604  0.5030  0.7846
 3969SOL    MW415650   3.411   5.949   1.671  0.0087 -0.4051  0.3543
 3970SOL     OW15651   4.072   3.987   2.663  0.0457 -0.0848  0.0291
 3970SOL    HW215652   4.011   3.915   2.681 -0.1380 -0.1700 -0.8783
 3970SOL    HW315653   4.016   4.059   2.635  0.3504 -0.1429 -0.7525
 3970SOL    MW415654   4.057   3.987   2.662  0.0616 -0.1037 -0.1938
 3971SOL     OW15655   5.783   0.088   4.538 -0.3623 -0.1983 -0.0392
 3971SOL    HW215656   5.832   0.158   4.581 -0.1049 -0.9692  0.9744
 3971SOL    HW315657   5.754   0.032   4.610  2.1484 -2.9118 -0.9157
 3971SOL    MW415658   5.786   0.090   4.553  0.0029 -0.6580 -0.0211
 3972SOL     OW15659   0.444   2.371   0.159  0.0274  0.1653 -0.2113
 3972SOL    HW215660   0.397   2.376   0.075 -1.2782  2.3220  0.5654
 3972SOL    HW315661   0.377   2.389   0.225  1.2524 -0.3977  1.2413
 3972SOL    MW415662   0.429   2.374   0.156  0.0168  0.3755  0.0828
 3973SOL     OW15663   0.108   6.354   2.928  0.4119  0.1349  0.5396
 3973SOL    HW215664   0.150   6.438   2.907 -0.2349  0.7353  1.5914
 3973SOL    HW315665   0.181   6.296   2.951  1.0636 -0.2449 -2.1688
 3973SOL    MW415666   0.124   6.357   2.928  0.4126  0.1640  0.3210
 3974SOL     OW15667   5.790   0.366   3.693 -0.1725 -0.1210  0.4870
 3974SOL    HW215668   5.766   0.316   3.615  2.9259  0.7979 -1.2498
 3974SOL    HW315669   5.734   0.443   3.691 -2.5771 -1.7405  1.2610
 3974SOL    MW415670   5.780   0.370   3.682 -0.0809 -0.2135  0.3600
 3975SOL     OW15671   0.710   3.470   0.760  0.6304 -0.9365 -0.2110
 3975SOL    HW215672   0.729   3.563   0.768 -0.6192 -0.7824  1.7925
 3975SOL    HW315673   0.776   3.437   0.699  3.9046  0.4625  2.2524
 3975SOL    MW415674   0.721   3.478   0.753  0.8975 -0.7316  0.3783
 3976SOL     OW15675   1.832   2.288   5.658  0.5091 -0.0981  0.5499
 3976SOL    HW215676   1.770   2.357   5.680  1.1298  0.0143  2.0652
 3976SOL    HW315677   1.787   2.236   5.590 -0.4709  1.0279  0.3044
 3976SOL    MW415678   1.818   2.290   5.652  0.4617  0.0653  0.7174
 3977SOL     OW15679   1.114   0.866   5.989  0.5475 -0.0263 -0.1716
 3977SOL    HW215680   1.209   0.869   5.999  0.4612  0.9572  0.4321
 3977SOL    HW315681   1.100   0.860   5.894  1.2008  0.7179 -0.3227
 3977SOL    MW415682   1.124   0.865   5.978  0.6223  0.2016 -0.1119
 3978SOL     OW15683   2.491   5.618   4.605  0.7834 -0.1685  0.4032
 3978SOL    HW215684   2.467   5.694   4.553 -0.6969  0.6586  2.1640
 3978SOL    HW315685   2.564   5.648   4.660  1.4412 -0.6175 -0.2082
 3978SOL    MW415686   2.497   5.632   4.606  0.6749 -0.1186  0.5549
 3979SOL     OW15687   2.610   5.662   4.215 -0.0782 -0.0555 -0.4272
 3979SOL    HW215688   2.563   5.598   4.162  0.9317 -1.0051 -0.2276
 3979SOL    HW315689   2.671   5.704   4.153  0.1537 -0.2075 -0.3053
 3979SOL    MW415690   2.612   5.659   4.200  0.0856 -0.2009 -0.3848
 3980SOL     OW15691   4.411   5.650   1.334 -0.4441 -0.0027  0.1058
 3980SOL    HW215692   4.335   5.601   1.302 -0.9434 -0.9232  2.5153
 3980SOL    HW315693   4.427   5.615   1.422  2.1642  0.8734  0.0595
 3980SOL    MW415694   4.403   5.639   1.341 -0.1658 -0.0086  0.4176
 3981SOL     OW15695   3.811   0.581   0.925  0.5980 -0.0623  0.7326
 3981SOL    HW215696   3.885   0.641   0.917  0.3427  0.1100 -0.6613
 3981SOL    HW315697   3.822   0.520   0.852 -2.1997  1.7771 -1.4628
 3981SOL    MW415698   3.822   0.581   0.914  0.1952  0.2031  0.2591
 3982SOL     OW15699   1.647   3.525   2.430 -0.5032 -0.3525  0.0734
 3982SOL    HW215700   1.682   3.581   2.499 -0.8090  0.5366 -0.4781
 3982SOL    HW315701   1.599   3.457   2.478 -3.0540  1.7567  0.7823
 3982SOL    MW415702   1.645   3.524   2.446 -0.8801  0.0431  0.0942
 3983SOL     OW15703   5.912   3.437   2.526  0.1819  0.6234 -0.5825
 3983SOL    HW215704   5.968   3.478   2.592 -0.1530 -0.4478  0.3966
 3983SOL    HW315705   5.966   3.437   2.447  1.4067  0.0437  0.2183
 3983SOL    MW415706   5.927   3.442   2.524  0.2993  0.4056 -0.3476
 3984SOL     OW15707   5.720   3.798   5.420 -0.0035 -0.0103 -0.1378
 3984SOL    HW215708   5.732   3.732   5.488 -1.0694 -0.3748 -0.2918
 3984SOL    HW315709   5.802   3.796   5.370 -0.3718 -1.9271 -0.7449
 3984SOL    MW415710   5.733   3.789   5.422 -0.1927 -0.3113 -0.2382
 3985SOL     OW15711   3.539   2.797   3.967  0.1847 -0.4868  0.2838
 3985SOL    HW215712   3.507   2.791   3.877 -1.0053 -0.7049  0.7022
 3985SOL    HW315713   3.592   2.877   3.969  1.0633 -1.0073 -0.8434
 3985SOL    MW415714   3.542   2.807   3.955  0.1436 -0.5843  0.1903
 3986SOL     OW15715   0.552   0.571   1.990  0.2536 -0.4626  0.0408
 3986SOL    HW215716   0.618   0.513   1.951  0.9289  0.3274 -0.0086
 3986SOL    HW315717   0.472   0.519   1.989  0.7175 -1.1925 -0.5357
 3986SOL    MW415718   0.550   0.556   1.985  0.4039 -0.4547 -0.0418
 3987SOL     OW15719   4.102   0.871   2.508 -0.2729 -0.4653  0.2008
 3987SOL    HW215720   4.160   0.820   2.453 -0.2263 -0.3407  0.1351
 3987SOL    HW315721   4.055   0.929   2.448 -2.6071 -2.5533 -0.1676
 3987SOL    MW415722   4.103   0.872   2.493 -0.5747 -0.7244  0.1435
 3988SOL     OW15723   3.083   6.299   1.084 -0.2908 -0.3344 -0.0943
 3988SOL    HW215724   2.991   6.307   1.107 -0.5699 -1.7857 -0.5936
 3988SOL    HW315725   3.110   6.387   1.060 -1.6860  0.0204 -0.4333
 3988SOL    MW415726   3.075   6.311   1.084 -0.5117 -0.4790 -0.2049
 3989SOL     OW15727   3.901   5.592   5.038  0.0861  0.4208  0.1910
 3989SOL    HW215728   3.957   5.657   4.995  2.3501 -0.8059  1.0935
 3989SOL    HW315729   3.862   5.543   4.967  0.0176  1.4104 -0.4797
 3989SOL    MW415730   3.904   5.594   5.023  0.3758  0.3895  0.2216
 3990SOL     OW15731   1.982   3.532   4.501  0.1919 -0.0955  0.9824
 3990SOL    HW215732   1.927   3.557   4.426  0.5246 -0.2165  0.6968
 3990SOL    HW315733   1.942   3.577   4.576  0.6090  1.0548  0.5322
 3990SOL    MW415734   1.969   3.541   4.501  0.2908  0.0403  0.8853
 3991SOL     OW15735   3.567   4.650   2.656 -0.8948  0.0633  0.0758
 3991SOL    HW215736   3.622   4.726   2.673 -0.8023 -0.2317  1.1659
 3991SOL    HW315737   3.594   4.619   2.570  1.1612 -0.4936  0.8572
 3991SOL    MW415738   3.578   4.656   2.647 -0.6113 -0.0491  0.3227
 3992SOL     OW15739   4.477   3.851   1.950 -0.6996  0.0830 -0.4264
 3992SOL    HW215740   4.396   3.893   1.978 -0.7131  0.6456 -1.2584
 3992SOL    HW315741   4.461   3.757   1.961 -1.0686  0.2386  0.4266
 3992SOL    MW415742   4.464   3.844   1.955 -0.7501  0.1778 -0.4236
 3993SOL     OW15743   5.581   5.542   0.342  0.2272  0.4470  0.2571
 3993SOL    HW215744   5.575   5.633   0.315  0.8591  0.4027 -0.0734
 3993SOL    HW315745   5.595   5.545   0.436 -2.4503  0.5982  0.7284
 3993SOL    MW415746   5.582   5.554   0.351 -0.0427  0.4611  0.2756
 3994SOL     OW15747   3.251   5.340   0.384 -0.4668  0.0114  0.2891
 3994SOL    HW215748   3.346   5.345   0.393 -0.4388 -1.9152  1.8684
 3994SOL    HW315749   3.236   5.333   0.290  1.1806 -2.0386  0.0804
 3994SOL    MW415750   3.261   5.339   0.373 -0.2457 -0.5132  0.4699
 3995SOL     OW15751   5.621   2.563   3.021  0.2400 -0.4324  0.2684
 3995SOL    HW215752   5.564   2.524   3.089 -0.7512 -0.7982 -0.7373
 3995SOL    HW315753   5.649   2.646   3.059  0.4317 -1.0135  1.4854
 3995SOL    MW415754   5.617   2.569   3.035  0.1345 -0.5573  0.2963
 3996SOL     OW15755   3.650   2.493   6.159 -0.0257 -0.5127  0.1739
 3996SOL    HW215756   3.585   2.466   6.094 -0.0309  0.8796 -0.4382
 3996SOL    HW315757   3.609   2.474   6.243 -0.9520 -0.3202 -0.2147
 3996SOL    MW415758   3.636   2.487   6.162 -0.1486 -0.3036  0.0419
 3997SOL     OW15759   6.358   4.427   4.264 -0.0140  0.0456  0.4289
 3997SOL    HW215760   6.403   4.364   4.320 -0.6623 -0.7409  0.0938
 3997SOL    HW315761   6.422   4.448   4.196  0.0515 -0.6233  0.2764
 3997SOL    MW415762   6.372   4.422   4.262 -0.0909 -0.1465  0.3646
 3998SOL     OW15763   1.418   5.187   2.581  0.4017  0.3644  0.3910
 3998SOL    HW215764   1.509   5.179   2.610  0.8541 -0.6191 -1.1555
 3998SOL    HW315765   1.370   5.126   2.637  0.6069  1.1644  1.4659
 3998SOL    MW415766   1.424   5.178   2.592  0.4885  0.3402  0.3288
 3999SOL     OW15767   1.889   4.099   3.290 -0.1526  0.5910 -0.5144
 3999SOL    HW215768   1.862   4.013   3.322 -2.3883  1.1532 -0.7049
 3999SOL    HW315769   1.977   4.085   3.255 -0.0600 -1.3768  0.3734
 3999SOL    MW415770   1.897   4.086   3.289 -0.4354  0.4055 -0.4224
 4000SOL     OW15771   4.931   5.742   2.151  0.0781 -0.3078 -0.3855
 4000SOL    HW215772   4.846   5.785   2.147  0.3449  0.3337  0.6190
 4000SOL    HW315773   4.918   5.660   2.103 -0.6735  0.4677 -1.5669
 4000SOL    MW415774   4.918   5.736   2.144  0.0141 -0.1208 -0.4089
 4001SOL     OW15775   2.235   2.644   2.305 -0.0688  0.4420 -0.0106
 4001SOL    HW215776   2.192   2.609   2.383  1.4308  0.5102  0.8760
 4001SOL    HW315777   2.178   2.716   2.277 -0.3507  0.7662  1.3352
 4001SOL    MW415778   2.222   2.649   2.311  0.0919  0.4938  0.2839
 4002SOL     OW15779   4.985   6.324   3.407  0.4670  0.3788 -0.7600
 4002SOL    HW215780   5.023   6.407   3.378  0.0689  1.6526  2.0585
 4002SOL    HW315781   4.892   6.331   3.385  0.6242  0.2024 -1.4937
 4002SOL    MW415782   4.978   6.335   3.400  0.4352  0.5236 -0.4849
 4003SOL     OW15783   3.966   3.801   5.441  0.1378  0.5336 -0.7376
 4003SOL    HW215784   3.970   3.869   5.374  1.2996  1.0152 -0.2030
 4003SOL    HW315785   4.026   3.733   5.410 -0.9721 -0.2414 -1.2406
 4003SOL    MW415786   3.975   3.801   5.428  0.1446  0.4949 -0.7334
 4004SOL     OW15787   4.340   1.721   2.621  0.2947  0.0204  0.1515
 4004SOL    HW215788   4.347   1.800   2.676 -0.6420 -0.7396  1.4156
 4004SOL    HW315789   4.383   1.746   2.539 -1.6573  2.5328 -0.2527
 4004SOL    MW415790   4.347   1.735   2.618 -0.0864  0.2516  0.2650
 4005SOL     OW15791   3.266   1.867   4.046 -0.3865  0.3508  0.1449
 4005SOL    HW215792   3.197   1.931   4.027 -1.6230 -1.2345 -1.0539
 4005SOL    HW315793   3.220   1.784   4.052  1.4712 -0.8589 -1.2143
 4005SOL    MW415794   3.251   1.865   4.044 -0.3045 -0.0180 -0.1926
 4006SOL     OW15795   0.674   4.427   5.277 -0.2129  0.4380  0.0303
 4006SOL    HW215796   0.768   4.417   5.290  0.0053 -0.4413 -1.8926
 4006SOL    HW315797   0.660   4.406   5.185 -2.2562  0.8874  0.1904
 4006SOL    MW415798   0.685   4.423   5.267 -0.4537  0.3813 -0.2022
 4007SOL     OW15799   5.883   0.942   0.666 -0.5581  0.0862 -0.5071
 4007SOL    HW215800   5.839   0.954   0.582  0.9518 -0.3194 -1.4018
 4007SOL    HW315801   5.863   0.851   0.691 -1.5252  0.4026 -0.0982
 4007SOL    MW415802   5.874   0.931   0.658 -0.4865  0.0744 -0.5712
 4008SOL     OW15803   1.711   2.221   2.010  0.1510 -0.3175  0.2652
 4008SOL    HW215804   1.629   2.241   2.055 -1.4603 -1.6254 -1.8486
 4008SOL    HW315805   1.769   2.186   2.078 -2.2025 -2.4190  1.3723
 4008SOL    MW415806   1.708   2.219   2.025 -0.3721 -0.7673  0.1324
 4009SOL     OW15807   2.476   1.732   3.933  0.3171  0.1222 -0.3241
 4009SOL    HW215808   2.495   1.826   3.935  1.6265 -0.1381  0.9956
 4009SOL    HW315809   2.394   1.724   3.982 -0.5768  0.6872 -1.6419
 4009SOL    MW415810   2.468   1.744   3.940  0.3719  0.1624 -0.3238
 4010SOL     OW15811   5.194   0.441   1.517 -1.0842  0.5476  0.0444
 4010SOL    HW215812   5.178   0.438   1.423 -0.2321 -0.5436 -0.0865
 4010SOL    HW315813   5.249   0.365   1.535  1.3541  2.4043  0.9304
 4010SOL    MW415814   5.199   0.431   1.507 -0.6501  0.6486  0.1440
 4011SOL     OW15815   4.029   0.066   5.273  0.3470  0.9568  0.6842
 4011SOL    HW215816   4.086   0.090   5.345  1.5761 -2.6159  1.0902
 4011SOL    HW315817   3.963   0.008   5.312 -0.2063  0.5978 -0.7086
 4011SOL    MW415818   4.028   0.061   5.287  0.4361  0.4381  0.5540
 4012SOL     OW15819   3.736   6.025   3.155  0.0531 -0.0780  0.5287
 4012SOL    HW215820   3.812   6.071   3.119  1.0263 -1.7378  0.3753
 4012SOL    HW315821   3.729   6.056   3.245  0.4654  0.6236  0.3224
 4012SOL    MW415822   3.745   6.035   3.162  0.2359 -0.2044  0.4812
 4013SOL     OW15823   1.608   2.428   0.391  0.1994 -0.0997  0.0607
 4013SOL    HW215824   1.584   2.520   0.404 -0.0356 -0.3103  1.2444
 4013SOL    HW315825   1.535   2.392   0.341  0.3150  0.3581 -0.4561
 4013SOL    MW415826   1.595   2.436   0.386  0.1836 -0.0671  0.1487
 4014SOL     OW15827   1.323   0.659   0.181  0.4881 -0.6646 -0.3866
 4014SOL    HW215828   1.309   0.754   0.175 -0.0789 -0.8345 -2.4781
 4014SOL    HW315829   1.264   0.631   0.251  1.5707  0.6626  1.1311
 4014SOL    MW415830   1.313   0.668   0.189  0.5561 -0.5119 -0.4623
 4015SOL     OW15831   5.385   0.042   0.045 -0.0765  0.0194 -0.2265
 4015SOL    HW215832   5.301  -0.001   0.064  0.1573 -0.4251 -0.1754
 4015SOL    HW315833   5.387   0.118   0.103 -0.3030 -0.1544  0.0103
 4015SOL    MW415834   5.374   0.046   0.055 -0.0756 -0.0622 -0.1885
 4016SOL     OW15835   1.447   4.931   1.217  0.1228 -0.3645  0.4503
 4016SOL    HW215836   1.465   4.839   1.239 -1.1926 -0.5987  0.6285
 4016SOL    HW315837   1.474   4.980   1.295 -0.4704 -0.7511  0.9077
 4016SOL    MW415838   1.453   4.925   1.231 -0.1290 -0.4464  0.5341
 4017SOL     OW15839   3.352   0.372   1.678 -0.1580  0.4469  0.3067
 4017SOL    HW215840   3.446   0.356   1.682  0.0289  0.9522 -1.3560
 4017SOL    HW315841   3.341   0.429   1.602 -1.8661 -0.0167  0.1777
 4017SOL    MW415842   3.363   0.377   1.669 -0.3587  0.4524  0.0703
 4018SOL     OW15843   1.939   0.598   2.205 -0.3529 -0.2562 -0.1684
 4018SOL    HW215844   1.847   0.600   2.179 -0.1308  2.3755 -1.0258
 4018SOL    HW315845   1.949   0.671   2.266  1.0610 -0.8538  0.3726
 4018SOL    MW415846   1.928   0.608   2.210 -0.1371  0.0122 -0.2101
 4019SOL     OW15847   3.166   0.661   2.205  0.4146  0.3989 -0.3911
 4019SOL    HW215848   3.094   0.723   2.189 -0.5117 -0.5713 -0.0591
 4019SOL    HW315849   3.185   0.624   2.118  0.3690  0.4832 -0.4376
 4019SOL    MW415850   3.159   0.664   2.191  0.2864  0.2820 -0.3535
 4020SOL     OW15851   5.878   6.412   3.516 -0.2781  0.2439 -0.0358
 4020SOL    HW215852   5.866   6.424   3.422 -1.4699 -0.0307  0.0604
 4020SOL    HW315853   5.874   6.317   3.529 -0.0226  0.2731  0.2825
 4020SOL    MW415854   5.876   6.401   3.505 -0.4016  0.2115  0.0189
 4021SOL     OW15855   4.310   6.047   3.302 -0.0695  0.1708 -0.3749
 4021SOL    HW215856   4.337   6.138   3.314  1.7513 -0.5197  1.3321
 4021SOL    HW315857   4.357   5.999   3.370 -2.0870 -1.8703 -0.2877
 4021SOL    MW415858   4.320   6.052   3.313 -0.0954 -0.1896 -0.1382
 4022SOL     OW15859   0.905   0.760   0.196  0.5166 -0.6841 -0.1352
 4022SOL    HW215860   0.854   0.680   0.180 -0.6270  0.2528 -1.3982
 4022SOL    HW315861   0.840   0.827   0.215  1.5131 -0.2147  1.8355
 4022SOL    MW415862   0.890   0.758   0.196  0.4972 -0.4985 -0.0418
 4023SOL     OW15863   5.270   0.831   6.075 -0.0728  0.0712 -0.0644
 4023SOL    HW215864   5.262   0.811   5.982  1.1318 -0.3613 -0.0928
 4023SOL    HW315865   5.365   0.837   6.090 -0.2750  1.8703  0.7728
 4023SOL    MW415866   5.282   0.829   6.065  0.0594  0.2515  0.0423
 4024SOL     OW15867   5.076   5.810   5.966  0.2505  0.0506  0.2987
 4024SOL    HW215868   5.076   5.834   5.873 -1.0052  1.9279  0.7190
 4024SOL    HW315869   4.991   5.768   5.979 -1.1076  2.8150  1.1985
 4024SOL    MW415870   5.065   5.808   5.955 -0.0944  0.6630  0.4729
 4025SOL     OW15871   1.780   3.581   3.540 -0.3044  0.1949  0.0191
 4025SOL    HW215872   1.784   3.515   3.470 -0.2461  1.1627 -0.9062
 4025SOL    HW315873   1.783   3.529   3.621  1.3933 -0.8731 -0.6698
 4025SOL    MW415874   1.781   3.565   3.542 -0.0727  0.1817 -0.1939
 4026SOL     OW15875   2.187   1.861   4.579 -0.4790  0.0498  0.3970
 4026SOL    HW215876   2.168   1.830   4.667  0.4232  0.2351  0.6722
 4026SOL    HW315877   2.235   1.943   4.592  0.0017 -0.1169 -0.2490
 4026SOL    MW415878   2.191   1.868   4.592 -0.2965  0.0523  0.3481
 4027SOL     OW15879   3.691   1.754   0.905  0.6896  0.1600  1.0606
 4027SOL    HW215880   3.629   1.730   0.836  0.4255  0.0232  1.3425
 4027SOL    HW315881   3.651   1.721   0.986  1.1679 -0.0040  1.2344
 4027SOL    MW415882   3.677   1.746   0.907  0.7179  0.1203  1.1208
 4028SOL     OW15883   2.516   0.029   5.007  0.7091  0.2500 -0.4244
 4028SOL    HW215884   2.582  -0.019   5.057 -0.5155  1.0524  2.1559
 4028SOL    HW315885   2.566   0.081   4.945  2.2566 -1.5770 -0.8046
 4028SOL    MW415886   2.531   0.029   5.005  0.7517  0.1148 -0.1341
 4029SOL     OW15887   2.951   2.779   3.856  0.1997 -0.2355  0.3994
 4029SOL    HW215888   3.007   2.743   3.786  1.0224  1.6276  0.0389
 4029SOL    HW315889   3.008   2.779   3.933  1.0267  2.3620 -0.1396
 4029SOL    MW415890   2.966   2.774   3.857  0.4174  0.3530  0.2807
 4030SOL     OW15891   0.162   3.553   6.260  0.0371 -0.4821  0.0872
 4030SOL    HW215892   0.216   3.547   6.339  1.1507 -1.7454 -0.7312
 4030SOL    HW315893   0.171   3.644   6.232 -0.4723  0.0204  1.4512
 4030SOL    MW415894   0.170   3.564   6.267  0.1168 -0.5825  0.1592
 4031SOL     OW15895   1.199   1.253   1.227 -0.3906  0.0376 -0.0309
 4031SOL    HW215896   1.282   1.210   1.246  1.4787  2.8728 -1.0492
 4031SOL    HW315897   1.160   1.201   1.158  2.2568  0.4217 -1.9794
 4031SOL    MW415898   1.205   1.241   1.221  0.2053  0.4624 -0.4223
 4032SOL     OW15899   5.286   0.529   1.882  0.1858 -0.2802  0.1970
 4032SOL    HW215900   5.215   0.544   1.820  1.4152 -1.2687 -1.5042
 4032SOL    HW315901   5.248   0.472   1.949 -1.1347  0.7540  0.3740
 4032SOL    MW415902   5.272   0.523   1.883  0.1738 -0.2742 -0.0041
 4033SOL     OW15903   0.776   5.596   4.989  0.5094  0.3263 -0.4250
 4033SOL    HW215904   0.827   5.515   4.995 -0.3174 -0.4023 -2.3393
 4033SOL    HW315905   0.801   5.634   4.904 -1.5738  0.2737 -1.1258
 4033SOL    MW415906   0.786   5.590   4.978  0.1255  0.2233 -0.7700
 4034SOL     OW15907   0.941   1.565   5.031  0.2106  0.0116  0.0652
 4034SOL    HW215908   1.023   1.586   5.077 -0.1812 -0.2051  0.8836
 4034SOL    HW315909   0.943   1.470   5.023 -0.1548 -0.0319  0.4653
 4034SOL    MW415910   0.952   1.555   5.036  0.1107 -0.0227  0.2260
 4035SOL     OW15911   6.347   2.662   3.033  0.7498 -0.2616  0.1280
 4035SOL    HW215912   6.313   2.737   3.081 -1.8242 -0.6803 -0.8689
 4035SOL    HW315913   6.325   2.587   3.089  1.0765 -0.4578 -0.0066
 4035SOL    MW415914   6.340   2.662   3.047  0.4533 -0.3427 -0.0213
 4036SOL     OW15915   5.907   0.672   2.913 -0.3807 -0.3776 -0.1577
 4036SOL    HW215916   5.974   0.661   2.846 -0.0269 -0.9258  0.2763
 4036SOL    HW315917   5.825   0.653   2.867 -0.2405  0.2498 -0.6767
 4036SOL    MW415918   5.905   0.668   2.898 -0.3155 -0.3671 -0.1689
 4037SOL     OW15919   6.235   5.901   3.099 -0.2311  0.3611  0.1758
 4037SOL    HW215920   6.232   5.826   3.158  0.2627  0.6552  0.5845
 4037SOL    HW315921   6.163   5.957   3.128  0.2428  0.6844  0.7555
 4037SOL    MW415922   6.225   5.899   3.111 -0.1034  0.4425  0.3062
 4038SOL     OW15923   1.179   2.054   0.762 -0.2852  0.4023 -0.0153
 4038SOL    HW215924   1.216   2.024   0.845 -1.1781  1.1423  0.6711
 4038SOL    HW315925   1.115   1.987   0.738  0.7080 -0.3427 -0.6636
 4038SOL    MW415926   1.176   2.041   0.770 -0.2720  0.4016 -0.0103
 4039SOL     OW15927   4.882   4.080   1.130  0.3392  0.4681  0.4677
 4039SOL    HW215928   4.818   4.053   1.066 -0.3307 -0.7060  1.5904
 4039SOL    HW315929   4.962   4.097   1.079 -0.2413 -0.1697 -0.6870
 4039SOL    MW415930   4.884   4.079   1.115  0.1742  0.2290  0.4635
 4040SOL     OW15931   2.182   0.156   0.670 -0.2746  0.1273 -0.1507
 4040SOL    HW215932   2.103   0.209   0.674 -0.1818  0.2577 -0.0110
 4040SOL    HW315933   2.191   0.119   0.759  1.0744  1.9568  0.5315
 4040SOL    MW415934   2.173   0.158   0.682 -0.0843  0.3859 -0.0423
 4041SOL     OW15935   4.648   0.897   5.132 -0.3124  0.0773  0.1946
 4041SOL    HW215936   4.741   0.883   5.146 -0.3777 -0.0772  0.4959
 4041SOL    HW315937   4.609   0.888   5.219 -0.7183 -0.7510 -0.0623
 4041SOL    MW415938   4.655   0.894   5.145 -0.3746 -0.0524  0.2005
 4042SOL     OW15939   4.860   4.683   3.601  0.0227 -0.3615 -0.1736
 4042SOL    HW215940   4.768   4.662   3.583 -0.2745 -0.8769  1.7058
 4042SOL    HW315941   4.879   4.639   3.684  1.1373  2.0018  0.9354
 4042SOL    MW415942   4.850   4.674   3.609  0.1305 -0.1177  0.2207
 4043SOL     OW15943   1.434   1.371   3.071  0.0983  0.4047 -0.1510
 4043SOL    HW215944   1.476   1.456   3.076  1.4306 -0.2596  0.2296
 4043SOL    HW315945   1.450   1.330   3.156  0.0939 -0.5047 -0.5733
 4043SOL    MW415946   1.442   1.377   3.083  0.2735  0.1971 -0.1565
 4044SOL     OW15947   2.241   2.924   2.771 -0.4821  0.0287 -0.5509
 4044SOL    HW215948   2.272   2.895   2.857  0.6142 -0.9187 -1.2454
 4044SOL    HW315949   2.151   2.894   2.767 -0.6575  0.3810  0.3975
 4044SOL    MW415950   2.233   2.916   2.782 -0.3606 -0.0498 -0.5174
 4045SOL     OW15951   1.353   1.675   4.323  0.0596  0.4271  0.1080
 4045SOL    HW215952   1.368   1.768   4.340  0.5223  0.1592  1.2100
 4045SOL    HW315953   1.434   1.632   4.351 -0.3999 -0.3765  0.2283
 4045SOL    MW415954   1.366   1.682   4.329  0.0600  0.2857  0.2693
 4046SOL     OW15955   4.531   1.113   0.707 -0.5384 -0.3678  0.5050
 4046SOL    HW215956   4.515   1.196   0.662  0.3881  0.0942  0.9837
 4046SOL    HW315957   4.626   1.101   0.701 -0.8505 -2.5304 -1.4823
 4046SOL    MW415958   4.542   1.123   0.700 -0.4573 -0.5922  0.3060
 4047SOL     OW15959   2.064   6.297   0.584 -0.2094  0.3664  0.3196
 4047SOL    HW215960   2.001   6.330   0.648 -3.3997 -0.0489 -2.3202
 4047SOL    HW315961   2.114   6.374   0.558  0.9501  0.6061  2.8897
 4047SOL    MW415962   2.063   6.312   0.589 -0.4774  0.3432  0.3104
 4048SOL     OW15963   3.738   6.323   3.040  0.1393 -0.0837 -0.1697
 4048SOL    HW215964   3.795   6.347   3.113 -1.9971 -0.4132  1.6973
 4048SOL    HW315965   3.667   6.387   3.042 -1.9619 -2.3008  0.5203
 4048SOL    MW415966   3.736   6.335   3.050 -0.4198 -0.4197  0.1677
 4049SOL     OW15967   5.964   4.586   3.818 -0.1258  0.4147 -0.4007
 4049SOL    HW215968   5.876   4.615   3.795 -0.5136 -1.4569 -1.5371
 4049SOL    HW315969   6.006   4.568   3.734  0.6501 -0.5728  0.1811
 4049SOL    MW415970   5.957   4.587   3.804 -0.0746  0.0375 -0.4739
 4050SOL     OW15971   5.765   0.500   3.184  0.2443  0.2874 -0.0313
 4050SOL    HW215972   5.768   0.594   3.164 -1.3552  0.0297 -1.6878
 4050SOL    HW315973   5.775   0.457   3.100  0.7895 -1.0581  0.6894
 4050SOL    MW415974   5.767   0.507   3.171  0.1052  0.0759 -0.1548
 4051SOL     OW15975   4.148   1.312   1.067  0.4564 -0.3578  0.1892
 4051SOL    HW215976   4.125   1.219   1.064  1.9297 -0.8259  1.6907
 4051SOL    HW315977   4.064   1.358   1.068 -0.3234 -1.7326  0.7208
 4051SOL    MW415978   4.134   1.306   1.066  0.5479 -0.6009  0.4574
 4052SOL     OW15979   5.775   0.877   1.294 -0.2764 -0.0621 -0.1425
 4052SOL    HW215980   5.810   0.946   1.351 -2.0571  0.1330  0.7920
 4052SOL    HW315981   5.822   0.798   1.321 -1.2117 -0.0200  1.8211
 4052SOL    MW415982   5.786   0.875   1.305 -0.6347 -0.0308  0.2399
 4053SOL     OW15983   0.989   0.969   2.313  0.3542  0.0707  0.6303
 4053SOL    HW215984   1.014   0.943   2.224  0.3806  2.1904 -0.0375
 4053SOL    HW315985   0.896   0.990   2.307  0.3922  0.3717  1.0719
 4053SOL    MW415986   0.980   0.968   2.300  0.3627  0.3901  0.6005
 4054SOL     OW15987   0.500   5.844   0.170  0.1717 -0.0488 -0.7033
 4054SOL    HW215988   0.494   5.750   0.153 -1.2462 -0.3952  1.3031
 4054SOL    HW315989   0.584   5.855   0.216 -0.5089 -0.6986  0.7680
 4054SOL    MW415990   0.511   5.833   0.174 -0.1051 -0.1802 -0.2445
 4055SOL     OW15991   2.457   1.943   4.272 -0.3823  0.2375 -0.0868
 4055SOL    HW215992   2.363   1.934   4.254 -0.0392 -1.0624 -1.4566
 4055SOL    HW315993   2.479   2.031   4.240 -1.3495  1.0662  1.4217
 4055SOL    MW415994   2.447   1.953   4.265 -0.4646  0.1753 -0.0685
 4056SOL     OW15995   3.476   3.650   3.577 -0.1061  0.2499  0.2992
 4056SOL    HW215996   3.447   3.569   3.534  1.1907 -0.8715  1.4647
 4056SOL    HW315997   3.394   3.696   3.599 -0.9064 -1.2249  0.5392
 4056SOL    MW415998   3.461   3.645   3.574 -0.0406 -0.0927  0.4846
 4057SOL     OW15999   3.138   2.463   5.614 -0.3307  0.3359 -1.5871
 4057SOL    HW216000   3.133   2.431   5.704 -3.3672  0.2167 -1.6919
 4057SOL    HW316001   3.224   2.435   5.583  0.9132  0.6008  1.3266
 4057SOL    MW416002   3.148   2.455   5.621 -0.5672  0.3551 -1.2165
 4058SOL     OW16003   4.080   1.047   4.493  0.2863  0.0697 -0.4099
 4058SOL    HW216004   4.172   1.054   4.520  0.4869 -0.2453 -0.9989
 4058SOL    HW316005   4.076   1.094   4.410 -0.7990  2.9735  1.1383
 4058SOL    MW416006   4.092   1.054   4.486  0.1696  0.4113 -0.2834
 4059SOL     OW16007   2.820   5.043   5.878 -0.0333 -0.3951  0.2338
 4059SOL    HW216008   2.853   5.045   5.968 -0.4833 -1.2694  0.4358
 4059SOL    HW316009   2.756   5.114   5.875 -0.5870 -0.8502  0.8505
 4059SOL    MW416010   2.816   5.052   5.889 -0.1657 -0.5705  0.3418
 4060SOL     OW16011   0.647   6.112   4.565  0.3934 -0.2318 -0.0714
 4060SOL    HW216012   0.654   6.031   4.515 -0.1189 -0.4785  0.2401
 4060SOL    HW316013   0.737   6.138   4.581  0.5720 -0.9185  0.0984
 4060SOL    MW416014   0.660   6.105   4.561  0.3494 -0.3549 -0.0079
 4061SOL     OW16015   4.732   1.340   3.706 -0.8746  0.2518 -0.6308
 4061SOL    HW216016   4.801   1.357   3.770 -0.6899  0.9111 -0.9961
 4061SOL    HW316017   4.652   1.334   3.759 -0.7613  1.0395 -0.3494
 4061SOL    MW416018   4.730   1.342   3.722 -0.8353  0.4428 -0.6418
 4062SOL     OW16019   0.966   1.633   0.491 -0.3579 -0.7373  0.2881
 4062SOL    HW216020   0.889   1.613   0.437  0.2411  1.1959 -1.4357
 4062SOL    HW316021   1.040   1.617   0.433  0.3614  0.6472  0.7811
 4062SOL    MW416022   0.966   1.628   0.476 -0.1840 -0.2996  0.1257
 4063SOL     OW16023   1.251   2.543   0.839  0.4169 -0.3715 -0.0824
 4063SOL    HW216024   1.255   2.540   0.743  0.1627  1.4703 -0.2009
 4063SOL    HW316025   1.176   2.599   0.858  0.9913  0.0093  1.1722
 4063SOL    MW416026   1.242   2.550   0.829  0.4591 -0.0783  0.0675
 4064SOL     OW16027   2.997   1.681   4.126  0.2219  0.2869  0.0612
 4064SOL    HW216028   2.970   1.644   4.042 -1.9459  2.1336 -0.1432
 4064SOL    HW316029   2.934   1.648   4.189  1.1145 -0.1148  0.7667
 4064SOL    MW416030   2.985   1.672   4.123  0.0536  0.4776  0.1274
 4065SOL     OW16031   5.706   1.751   4.687  0.5578 -0.2967 -0.2347
 4065SOL    HW216032   5.762   1.802   4.628 -1.0399  0.6235 -1.0248
 4065SOL    HW316033   5.630   1.807   4.702  1.2262 -0.1125  3.4469
 4065SOL    MW416034   5.703   1.765   4.681  0.4352 -0.1510  0.1468
 4066SOL     OW16035   0.841   6.277   2.340  0.5303  0.2116 -0.6010
 4066SOL    HW216036   0.815   6.292   2.431  0.0282  0.1998 -0.7383
 4066SOL    HW316037   0.902   6.203   2.344 -1.3570 -1.4259 -0.5156
 4066SOL    MW416038   0.846   6.269   2.352  0.2151 -0.0060 -0.6079
 4067SOL     OW16039   6.175   5.348   5.009 -0.3614  0.2153 -0.3599
 4067SOL    HW216040   6.199   5.309   5.093  1.4794  0.3407 -0.8002
 4067SOL    HW316041   6.136   5.276   4.960  1.8021 -0.8056 -0.6769
 4067SOL    MW416042   6.173   5.333   5.014  0.1669  0.0971 -0.4598
 4068SOL     OW16043   6.070   2.121   2.548 -0.2398  0.0909 -0.8569
 4068SOL    HW216044   6.111   2.062   2.485 -0.5213  1.4474 -2.3704
 4068SOL    HW316045   5.977   2.101   2.543 -0.2530  0.1402 -0.8039
 4068SOL    MW416046   6.063   2.110   2.539 -0.2787  0.2764 -1.0496
 4069SOL     OW16047   4.001   1.800   0.369  0.1293  0.1446 -0.4566
 4069SOL    HW216048   3.939   1.798   0.297 -1.2754 -0.6745  0.7214
 4069SOL    HW316049   4.041   1.886   0.364 -0.1018  0.1827 -2.0595
 4069SOL    MW416050   3.998   1.811   0.359 -0.0865  0.0415 -0.5126
 4070SOL     OW16051   2.085   0.947   0.805 -0.6816  0.3430 -0.3698
 4070SOL    HW216052   2.041   1.010   0.747 -0.1548  1.1700  0.1187
 4070SOL    HW316053   2.155   0.909   0.751 -0.5588  0.6879 -0.4536
 4070SOL    MW416054   2.088   0.950   0.790 -0.5959  0.4976 -0.3164
 4071SOL     OW16055   3.685   3.253   2.986 -0.2655 -0.1778  0.0717
 4071SOL    HW216056   3.767   3.243   2.937  1.4170  0.9334  2.4920
 4071SOL    HW316057   3.643   3.167   2.980  1.5675 -1.0960 -0.4000
 4071SOL    MW416058   3.690   3.240   2.978  0.1984 -0.1524  0.3288
 4072SOL     OW16059   3.403   0.419   6.166  0.1827  0.1060  0.0074
 4072SOL    HW216060   3.458   0.386   6.095 -0.0336  1.3963 -0.7919
 4072SOL    HW316061   3.349   0.344   6.191  0.7366 -0.5573 -0.7350
 4072SOL    MW416062   3.403   0.405   6.160  0.2273  0.1887 -0.1960
 4073SOL     OW16063   5.603   1.309   4.600  0.3452  0.3390 -0.6615
 4073SOL    HW216064   5.695   1.334   4.607  0.1256  0.7112  2.0481
 4073SOL    HW316065   5.561   1.383   4.555  0.9061  1.5572  0.7553
 4073SOL    MW416066   5.609   1.322   4.595  0.3902  0.5488 -0.1171
 4074SOL     OW16067   1.042   3.730   2.295  0.4035 -0.6320  0.3973
 4074SOL    HW216068   0.971   3.715   2.357  0.0760  2.4460  0.8790
 4074SOL    HW316069   0.999   3.740   2.210  0.6040 -1.8824  0.1193
 4074SOL    MW416070   1.027   3.729   2.292  0.3868 -0.3909  0.4242
 4075SOL     OW16071   5.639   3.037   3.877  0.2843  0.9273 -0.0657
 4075SOL    HW216072   5.705   3.033   3.808 -0.0591  3.3433 -0.6311
 4075SOL    HW316073   5.628   2.947   3.905  3.0121  0.3130 -0.7069
 4075SOL    MW416074   5.646   3.025   3.871  0.5989  1.1650 -0.2249
 4076SOL     OW16075   4.851   1.618   2.296 -0.4729  0.4664 -0.0762
 4076SOL    HW216076   4.882   1.603   2.385  1.5991 -0.2106 -0.8611
 4076SOL    HW316077   4.901   1.693   2.265 -0.9202  0.4825 -0.7967
 4076SOL    MW416078   4.861   1.626   2.304 -0.2586  0.3792 -0.2748
 4077SOL     OW16079   0.060   5.492   1.454 -0.1150 -0.0256  0.2532
 4077SOL    HW216080  -0.015   5.551   1.466  0.1224  0.7244 -1.6007
 4077SOL    HW316081   0.125   5.524   1.516  0.1204  1.9485 -0.9120
 4077SOL    MW416082   0.058   5.504   1.464 -0.0526  0.3338 -0.1451
 4078SOL     OW16083   2.209   2.261   6.173  0.6801  0.1514  0.2077
 4078SOL    HW216084   2.225   2.218   6.089 -0.8774 -0.8421  0.3750
 4078SOL    HW316085   2.166   2.343   6.150  1.5053  0.5359 -0.0074
 4078SOL    MW416086   2.205   2.266   6.159  0.5835  0.0711  0.2014
 4079SOL     OW16087   5.759   4.929   5.920  0.5931  0.1961  0.0303
 4079SOL    HW216088   5.723   4.986   5.987 -1.0403 -0.8123  0.0624
 4079SOL    HW316089   5.779   4.847   5.965  0.4494 -0.1420 -0.5035
 4079SOL    MW416090   5.757   4.926   5.935  0.3586  0.0184 -0.0359
 4080SOL     OW16091   0.409   2.507   2.725 -0.1205 -0.5747  0.0064
 4080SOL    HW216092   0.317   2.483   2.734 -0.1882 -0.1053  0.5728
 4080SOL    HW316093   0.453   2.463   2.797  0.0455 -0.5153 -0.0576
 4080SOL    MW416094   0.403   2.498   2.736 -0.1075 -0.5050  0.0727
 4081SOL     OW16095   4.339   3.320   5.137 -0.1803  0.3613 -0.4681
 4081SOL    HW216096   4.398   3.284   5.203  0.1235  0.7762 -0.5109
 4081SOL    HW316097   4.272   3.253   5.126 -1.4025  1.1290  1.7524
 4081SOL    MW416098   4.338   3.306   5.144 -0.3015  0.5173 -0.1808
 4082SOL     OW16099   3.584   0.150   3.415 -0.8821 -0.3070  0.0186
 4082SOL    HW216100   3.536   0.151   3.332 -0.3171 -0.0338 -0.3097
 4082SOL    HW316101   3.609   0.058   3.427 -0.2412 -0.2125 -0.5436
 4082SOL    MW416102   3.581   0.138   3.406 -0.7230 -0.2585 -0.0989
 4083SOL     OW16103   5.084   3.036   2.914  0.1215  0.2985  0.0492
 4083SOL    HW216104   4.992   3.055   2.930  0.0185  1.4163 -1.6149
 4083SOL    HW316105   5.110   3.099   2.846  1.9507 -0.3862  0.0565
 4083SOL    MW416106   5.076   3.047   2.907  0.3492  0.3556 -0.1694
 4084SOL     OW16107   3.550   3.256   3.819 -0.0314 -0.1211  0.2261
 4084SOL    HW216108   3.610   3.326   3.793  0.0293  0.0126  0.7182
 4084SOL    HW316109   3.501   3.293   3.893 -0.1380 -0.5308  0.3606
 4084SOL    MW416110   3.551   3.270   3.826 -0.0375 -0.1575  0.3088
 4085SOL     OW16111   1.266   0.342   5.309  0.1322  0.0920  0.4647
 4085SOL    HW216112   1.202   0.336   5.381 -2.0401 -2.0417 -1.4669
 4085SOL    HW316113   1.293   0.252   5.293  2.5980  0.7974  0.2280
 4085SOL    MW416114   1.261   0.330   5.317  0.1710 -0.0964  0.1786
 4086SOL     OW16115   2.118   2.252   1.776  0.9137  0.3661  0.2735
 4086SOL    HW216116   2.195   2.254   1.833  0.9732 -0.2634  0.2194
 4086SOL    HW316117   2.061   2.187   1.815 -0.8137  2.6844  1.8454
 4086SOL    MW416118   2.121   2.244   1.789  0.6937  0.5889  0.4737
 4087SOL     OW16119   3.887   3.176   1.687  0.6479  0.2874  0.4122
 4087SOL    HW216120   3.821   3.109   1.704 -0.0295  1.0009  0.6943
 4087SOL    HW316121   3.846   3.235   1.624  0.5062  1.4353  1.5362
 4087SOL    MW416122   3.873   3.175   1.681  0.5399  0.5330  0.5977
 4088SOL     OW16123   4.134   0.885   2.069  0.8564 -0.3626 -0.1223
 4088SOL    HW216124   4.154   0.846   1.984 -3.2729 -1.1677 -0.9452
 4088SOL    HW316125   4.140   0.979   2.054  0.1601 -0.4876 -1.3720
 4088SOL    MW416126   4.137   0.892   2.056  0.2197 -0.4853 -0.3958
 4089SOL     OW16127   2.268   2.159   3.339  0.1186 -0.0706 -0.4144
 4089SOL    HW216128   2.239   2.223   3.404 -1.6862 -1.2739  0.0451
 4089SOL    HW316129   2.220   2.183   3.259 -1.4047 -1.4020  0.0447
 4089SOL    MW416130   2.258   2.171   3.337 -0.3205 -0.4050 -0.2932
 4090SOL     OW16131   1.831   1.252   5.812  0.0451  0.2453 -0.5741
 4090SOL    HW216132   1.877   1.193   5.752 -0.8805 -0.4846 -0.5924
 4090SOL    HW316133   1.782   1.193   5.870  1.2098  0.9036  1.1740
 4090SOL    MW416134   1.830   1.237   5.812  0.0766  0.2358 -0.3459
 4091SOL     OW16135   1.850   5.165   4.003 -0.0847 -0.0273  0.1983
 4091SOL    HW216136   1.770   5.114   3.990  0.4520 -1.3357  1.8003
 4091SOL    HW316137   1.921   5.103   3.987  0.6080  0.6340  0.6449
 4091SOL    MW416138   1.849   5.150   3.999  0.0775 -0.1127  0.4686
 4092SOL     OW16139   5.494   0.639   1.491 -0.1603  0.4555  0.2559
 4092SOL    HW216140   5.497   0.709   1.426  1.4318 -1.4651 -1.8794
 4092SOL    HW316141   5.424   0.582   1.460 -0.5982  0.4142  1.2834
 4092SOL    MW416142   5.485   0.641   1.478 -0.0081  0.1966  0.1098
 4093SOL     OW16143   5.909   1.248   1.856  0.2537  0.1630  0.2411
 4093SOL    HW216144   5.921   1.266   1.949 -0.9594  1.0045  0.2591
 4093SOL    HW316145   5.877   1.330   1.820  1.2409  0.0122 -1.0486
 4093SOL    MW416146   5.906   1.261   1.864  0.2239  0.2541  0.0734
 4094SOL     OW16147   3.519   3.474   1.094 -0.0158  0.0851 -0.5203
 4094SOL    HW216148   3.589   3.457   1.032 -1.2526 -0.9967 -1.6927
 4094SOL    HW316149   3.492   3.388   1.124 -2.1492  0.2840 -1.6472
 4094SOL    MW416150   3.524   3.461   1.090 -0.4605 -0.0314 -0.8237
 4095SOL     OW16151   4.552   4.872   3.979  0.0833 -0.0116 -0.1401
 4095SOL    HW216152   4.458   4.864   3.996  0.3264 -0.8691  0.9256
 4095SOL    HW316153   4.592   4.873   4.066  0.9318  2.5618 -0.4802
 4095SOL    MW416154   4.545   4.871   3.993  0.2273  0.2148 -0.0444
 4096SOL     OW16155   5.235   1.803   0.605 -0.1070 -0.6896  0.1707
 4096SOL    HW216156   5.216   1.787   0.512  1.4054  0.9106 -0.4939
 4096SOL    HW316157   5.158   1.848   0.638 -0.6636 -1.2824 -0.3034
 4096SOL    MW416158   5.222   1.807   0.597  0.0191 -0.5567  0.0204
 4097SOL     OW16159   4.699   3.524   5.589 -0.0703  0.3035 -0.3839
 4097SOL    HW216160   4.688   3.544   5.496 -1.5934 -1.7532 -0.7123
 4097SOL    HW316161   4.785   3.560   5.612  0.0131  1.4869 -2.3896
 4097SOL    MW416162   4.709   3.531   5.580 -0.2603  0.1883 -0.6919
 4098SOL     OW16163   2.397   1.918   0.980  0.2210  0.0678 -0.4040
 4098SOL    HW216164   2.332   1.934   0.911  0.1848  1.6601 -0.0413
 4098SOL    HW316165   2.367   1.972   1.053  0.8219 -0.8178  0.5056
 4098SOL    MW416166   2.384   1.927   0.980  0.2955  0.1610 -0.2361
 4099SOL     OW16167   4.770   1.086   4.392  0.0633 -0.1971  0.2471
 4099SOL    HW216168   4.816   1.166   4.418 -1.2075  1.3785 -2.0506
 4099SOL    HW316169   4.711   1.068   4.466  0.3987  0.9379  0.8166
 4099SOL    MW416170   4.768   1.094   4.405 -0.0601  0.1605  0.0191
 4100SOL     OW16171   4.192   5.742   5.232  0.2671 -0.4283 -0.1358
 4100SOL    HW216172   4.123   5.716   5.293  0.8004 -0.3614  0.4968
 4100SOL    HW316173   4.160   5.824   5.194 -1.1520 -1.6239 -1.7049
 4100SOL    MW416174   4.178   5.749   5.235  0.1502 -0.5772 -0.2593
 4101SOL     OW16175   5.339   1.970   5.555 -0.2075  0.7293  0.3539
 4101SOL    HW216176   5.330   1.995   5.463  0.6139 -1.0881 -0.2645
 4101SOL    HW316177   5.253   1.936   5.580 -0.4937  1.4251  0.3502
 4101SOL    MW416178   5.327   1.969   5.546 -0.1369  0.5813  0.2718
 4102SOL     OW16179   0.672   6.388   6.272 -0.4951 -0.6274 -0.2934
 4102SOL    HW216180   0.606   6.346   6.218  0.7199 -1.6563 -1.0327
 4102SOL    HW316181   0.632   6.471   6.299 -1.8805 -1.0041 -1.1021
 4102SOL    MW416182   0.658   6.394   6.269 -0.5176 -0.8128 -0.4976
 4103SOL     OW16183   2.157   1.448   4.646  0.1293 -0.7460 -0.0041
 4103SOL    HW216184   2.073   1.452   4.691  0.0629  2.3812 -0.1829
 4103SOL    HW316185   2.146   1.503   4.569  2.4281  0.1780  0.2351
 4103SOL    MW416186   2.145   1.456   4.642  0.4238 -0.2114  0.0039
 4104SOL     OW16187   5.043   4.117   5.739 -0.5292 -0.1503 -0.3150
 4104SOL    HW216188   5.000   4.127   5.824  0.1233 -0.5821  0.0734
 4104SOL    HW316189   5.111   4.053   5.755 -0.4791 -0.3196 -1.2025
 4104SOL    MW416190   5.046   4.110   5.753 -0.4365 -0.2296 -0.3808
 4105SOL     OW16191   5.991   3.021   5.521 -0.4956  0.4198  0.0292
 4105SOL    HW216192   5.971   3.091   5.584  0.5482 -0.5070  1.4444
 4105SOL    HW316193   5.905   2.995   5.487 -1.2199  0.3375  1.7765
 4105SOL    MW416194   5.977   3.027   5.525 -0.4535  0.2867  0.4464
 4106SOL     OW16195   6.075   4.216   4.811  0.8344 -0.3422  0.1216
 4106SOL    HW216196   6.116   4.302   4.804 -0.5382  0.2589 -1.0197
 4106SOL    HW316197   6.114   4.165   4.740  0.1050  0.0241 -0.5523
 4106SOL    MW416198   6.085   4.221   4.801  0.5571 -0.2146 -0.1179
 4107SOL     OW16199   4.580   0.143   2.607  0.2117  0.3302  0.0582
 4107SOL    HW216200   4.539   0.212   2.554  1.9394 -0.0234 -1.8544
 4107SOL    HW316201   4.663   0.181   2.635  0.5552 -0.4894  0.1559
 4107SOL    MW416202   4.585   0.157   2.604  0.4850  0.1754 -0.1813
 4108SOL     OW16203   2.145   4.467   6.150  0.1036  0.2908  0.3912
 4108SOL    HW216204   2.122   4.558   6.167  0.4848  0.5155 -0.2642
 4108SOL    HW316205   2.084   4.441   6.080 -0.2579 -0.0776  0.8353
 4108SOL    MW416206   2.134   4.475   6.143  0.1062  0.2718  0.3633
 4109SOL     OW16207   4.317   0.983   2.711 -0.2629  0.1864  0.5243
 4109SOL    HW216208   4.235   0.933   2.704 -0.2622  0.0611  1.3577
 4109SOL    HW316209   4.376   0.939   2.650 -0.8965  0.4587 -0.3096
 4109SOL    MW416210   4.314   0.970   2.702 -0.3464  0.2058  0.5243
 4110SOL     OW16211   5.407   0.410   1.187 -0.0325  0.0206 -0.1400
 4110SOL    HW216212   5.488   0.455   1.163  0.8119 -0.8961  0.8842
 4110SOL    HW316213   5.432   0.353   1.260 -1.8500  0.5689  0.9721
 4110SOL    MW416214   5.421   0.408   1.194 -0.1609 -0.0280  0.1419
 4111SOL     OW16215   1.419   1.953   4.379 -0.5680 -0.0459  0.1459
 4111SOL    HW216216   1.477   1.982   4.309 -0.5234  0.4054  0.3659
 4111SOL    HW316217   1.355   2.023   4.388 -0.4218  0.0230  0.7259
 4111SOL    MW416218   1.418   1.966   4.371 -0.5428  0.0228  0.2515
 4112SOL     OW16219   1.091   1.676   2.924 -0.7061 -0.3640 -0.1194
 4112SOL    HW216220   1.139   1.690   2.842 -1.6351  0.0425 -0.6107
 4112SOL    HW316221   1.159   1.666   2.990  0.0590 -0.4232 -0.8947
 4112SOL    MW416222   1.106   1.676   2.922 -0.7277 -0.3182 -0.2865
 4113SOL     OW16223   3.209   3.585   5.212 -0.0266  0.0936 -0.5837
 4113SOL    HW216224   3.175   3.514   5.157  0.9109 -0.1303 -0.8851
 4113SOL    HW316225   3.246   3.541   5.288 -0.1599  0.3165 -0.3891
 4113SOL    MW416226   3.209   3.570   5.215  0.0795  0.0934 -0.5978
 4114SOL     OW16227   3.368   5.757   3.665  0.3525 -0.1643 -0.1849
 4114SOL    HW216228   3.404   5.711   3.741 -0.3770  0.0587  0.3006
 4114SOL    HW316229   3.278   5.778   3.689  1.0314  2.8280  0.2494
 4114SOL    MW416230   3.361   5.754   3.678  0.3458  0.2599 -0.0636
 4115SOL     OW16231   1.869   1.713   0.070 -0.1821 -0.4708  0.2344
 4115SOL    HW216232   1.853   1.767   0.148  1.5452  0.8612 -0.2722
 4115SOL    HW316233   1.824   1.759  -0.000 -2.6084 -2.2129  0.5396
 4115SOL    MW416234   1.861   1.726   0.071 -0.2743 -0.5249  0.2078
 4116SOL     OW16235   0.183   0.697   0.239 -0.2712  0.0890  0.4283
 4116SOL    HW216236   0.199   0.771   0.297 -1.7606  0.4532  0.4334
 4116SOL    HW316237   0.098   0.662   0.268  0.1333 -1.2714  0.0646
 4116SOL    MW416238   0.174   0.702   0.250 -0.4144 -0.0424  0.3810
 4117SOL     OW16239   0.744   3.253   4.671 -0.0198 -0.1931 -0.3214
 4117SOL    HW216240   0.803   3.244   4.746 -0.8825 -0.8107  0.2934
 4117SOL    HW316241   0.742   3.167   4.630 -0.0075 -0.0081 -0.7268
 4117SOL    MW416242   0.752   3.241   4.675 -0.1320 -0.2502 -0.2938
 4118SOL     OW16243   6.231   5.738   6.332  0.1257 -0.3740 -0.0218
 4118SOL    HW216244   6.203   5.805   6.394  0.7759 -1.1131  1.1102
 4118SOL    HW316245   6.152   5.717   6.282 -0.2241  0.7960  0.0004
 4118SOL    MW416246   6.217   5.744   6.334  0.1654 -0.3172  0.1305
 4119SOL     OW16247   6.076   4.491   5.873  0.4791 -0.6897 -0.1012
 4119SOL    HW216248   6.102   4.440   5.796 -0.6189 -0.3844 -0.7076
 4119SOL    HW316249   6.010   4.436   5.916 -0.7370  0.1794 -0.7758
 4119SOL    MW416250   6.070   4.477   5.868  0.1738 -0.5347 -0.2702
 4120SOL     OW16251   4.198   0.038   0.786 -0.2068 -0.1760 -0.1298
 4120SOL    HW216252   4.204   0.054   0.880 -0.8442  0.4334 -0.1841
 4120SOL    HW316253   4.110   0.003   0.773 -0.1053 -0.3011 -0.4945
 4120SOL    MW416254   4.187   0.035   0.797 -0.2775 -0.1121 -0.1851
 4121SOL     OW16255   5.976   4.297   3.453  0.1049  0.7228  0.1711
 4121SOL    HW216256   6.046   4.268   3.394 -0.3485 -0.3459  0.1415
 4121SOL    HW316257   5.918   4.349   3.398 -0.1109  0.0474 -0.2466
 4121SOL    MW416258   5.978   4.300   3.438  0.0166  0.4927  0.1121
 4122SOL     OW16259   3.740   1.631   3.236 -0.2400  0.2768 -0.1911
 4122SOL    HW216260   3.688   1.616   3.315  1.1288 -5.4956  0.0582
 4122SOL    HW316261   3.829   1.646   3.269 -0.2137  1.3322 -0.7010
 4122SOL    MW416262   3.745   1.631   3.251 -0.0559 -0.3455 -0.2255
 4123SOL     OW16263   0.093   3.677   2.922 -0.0336  0.1548  0.1459
 4123SOL    HW216264   0.090   3.697   3.016 -0.3709  0.0962  0.1507
 4123SOL    HW316265   0.130   3.755   2.882  1.2980 -0.2976  0.4595
 4123SOL    MW416266   0.097   3.690   2.929  0.0976  0.0874  0.1879
 4124SOL     OW16267   4.352   1.337   4.258  0.0261  0.1693  0.0513
 4124SOL    HW216268   4.391   1.361   4.342  3.6299  1.0042 -1.6743
 4124SOL    HW316269   4.295   1.411   4.236 -0.0849  0.4421  1.2021
 4124SOL    MW416270   4.350   1.350   4.266  0.4869  0.3155 -0.0245
 4125SOL     OW16271   2.439   0.218   1.415 -0.1672 -0.8453  0.2311
 4125SOL    HW216272   2.465   0.282   1.481 -0.9673  1.0791 -1.2397
 4125SOL    HW316273   2.355   0.184   1.445 -0.3323 -0.2836  0.3998
 4125SOL    MW416274   2.431   0.222   1.428 -0.2945 -0.5173  0.0593
 4126SOL     OW16275   3.995   4.850   0.560 -0.0322 -0.0878  0.6256
 4126SOL    HW216276   4.012   4.768   0.606  1.5875 -1.0339 -1.5050
 4126SOL    HW316277   4.054   4.913   0.602 -0.6730 -0.1710  1.7030
 4126SOL    MW416278   4.005   4.848   0.572  0.0970 -0.2236  0.4866
 4127SOL     OW16279   1.355   3.637   0.225  0.3553 -0.5728 -0.7237
 4127SOL    HW216280   1.447   3.633   0.251  0.1580 -3.6883 -0.1162
 4127SOL    HW316281   1.352   3.595   0.139 -0.5013 -0.5254 -0.7324
 4127SOL    MW416282   1.366   3.631   0.217  0.2162 -0.9776 -0.6447
 4128SOL     OW16283   0.149   2.936   5.471 -0.1520 -0.0204 -0.0129
 4128SOL    HW216284   0.187   2.848   5.466 -0.7478 -0.2834  0.0137
 4128SOL    HW316285   0.060   2.926   5.437 -0.9581  0.1305  1.8902
 4128SOL    MW416286   0.142   2.923   5.466 -0.3370 -0.0352  0.2417
 4129SOL     OW16287   5.057   2.970   3.838 -0.2636  0.1606  0.3662
 4129SOL    HW216288   4.991   2.960   3.769 -0.3726 -0.4123  0.5500
 4129SOL    HW316289   5.100   2.885   3.843  0.5139  0.5344  0.2356
 4129SOL    MW416290   5.054   2.957   3.830 -0.1754  0.1343  0.3732
 4130SOL     OW16291   2.220   3.446   5.156 -0.0479  0.2484 -0.4749
 4130SOL    HW216292   2.300   3.489   5.188 -0.1801  0.3556 -0.2833
 4130SOL    HW316293   2.158   3.518   5.145  0.3998  0.4114 -2.2775
 4130SOL    MW416294   2.223   3.461   5.159 -0.0063  0.2840 -0.6875
 4131SOL     OW16295   4.067   2.020   5.070  0.1261  0.2898  0.5549
 4131SOL    HW216296   3.974   2.039   5.084 -0.2693 -0.2633 -1.1744
 4131SOL    HW316297   4.096   2.087   5.009  0.2044 -1.0363 -0.9012
 4131SOL    MW416298   4.058   2.032   5.064  0.0843  0.0419  0.1346
 4132SOL     OW16299   3.708   4.304   5.153 -0.3377 -0.3679 -0.1593
 4132SOL    HW216300   3.767   4.378   5.141 -0.2012 -0.3765  0.4158
 4132SOL    HW316301   3.621   4.337   5.128 -0.5687  0.4969  1.6352
 4132SOL    MW416302   3.704   4.318   5.148 -0.3501 -0.2550  0.1534
 4133SOL     OW16303   4.073   2.063   0.366 -0.5072  0.5283  0.1636
 4133SOL    HW216304   3.993   2.084   0.317  0.2183  0.8740 -0.8982
 4133SOL    HW316305   4.051   2.084   0.457 -2.2066 -1.0573  0.1833
 4133SOL    MW416306   4.059   2.069   0.372 -0.6357  0.3647  0.0261
 4134SOL     OW16307   2.363   2.985   0.347 -0.1269  0.3933 -0.2497
 4134SOL    HW216308   2.442   3.027   0.381 -0.7580  0.4668  1.2257
 4134SOL    HW316309   2.291   3.031   0.392 -0.9365 -0.6794 -0.4095
 4134SOL    MW416310   2.364   2.997   0.357 -0.3170  0.2615 -0.0761
 4135SOL     OW16311   4.037   3.866   4.030 -0.0233 -0.3165  0.0697
 4135SOL    HW216312   4.068   3.930   4.093  0.6835  0.6256 -1.1870
 4135SOL    HW316313   4.113   3.808   4.015 -0.5707 -1.2995  0.9904
 4135SOL    MW416314   4.051   3.867   4.036 -0.0023 -0.3219  0.0254
 4136SOL     OW16315   1.099   0.789   6.422 -0.5536 -0.0431  0.4677
 4136SOL    HW216316   1.041   0.785   6.498 -2.1994  0.9655 -0.6732
 4136SOL    HW316317   1.045   0.827   6.352  1.4623  0.8422 -0.6953
 4136SOL    MW416318   1.084   0.794   6.423 -0.5047  0.2068  0.1637
 4137SOL     OW16319   0.282   5.553   2.079 -0.1616  0.4789 -0.3036
 4137SOL    HW216320   0.230   5.473   2.070  0.2713  0.2909 -1.2895
 4137SOL    HW316321   0.357   5.539   2.020  1.1666  0.6138  1.2838
 4137SOL    MW416322   0.285   5.540   2.070  0.0708  0.4719 -0.2242
 4138SOL     OW16323   1.966   2.861   5.862 -0.3943  0.2623  0.2841
 4138SOL    HW216324   2.002   2.828   5.944 -1.2401 -2.0384 -0.2002
 4138SOL    HW316325   1.946   2.953   5.880  2.2145  0.6494  1.6768
 4138SOL    MW416326   1.968   2.869   5.875 -0.1617  0.0098  0.4040
 4139SOL     OW16327   6.321   6.407   5.470  0.3175 -0.0928  0.0466
 4139SOL    HW216328   6.343   6.319   5.440 -0.2596  0.1909 -1.3299
 4139SOL    HW316329   6.231   6.420   5.440  1.3047  1.9796 -2.3606
 4139SOL    MW416330   6.312   6.397   5.462  0.3716  0.2181 -0.4526
 4140SOL     OW16331   0.068   6.389   0.874  0.0418  0.9160  0.0844
 4140SOL    HW216332   0.087   6.399   0.967 -1.3051 -0.9766  0.6149
 4140SOL    HW316333   0.110   6.307   0.848 -2.6561 -0.5614  0.0210
 4140SOL    MW416334   0.076   6.380   0.883 -0.4918  0.4714  0.1460
 4141SOL     OW16335   4.098   0.115   2.022 -0.0152 -0.0874  0.4617
 4141SOL    HW216336   4.151   0.065   2.085 -1.4777 -0.9623  1.0403
 4141SOL    HW316337   4.052   0.180   2.076  0.8080  0.9904 -0.1019
 4141SOL    MW416338   4.099   0.117   2.038 -0.0996 -0.0606  0.4637
 4142SOL     OW16339   4.666   3.075   4.375  0.1621  0.0719  0.1433
 4142SOL    HW216340   4.600   3.095   4.309  0.3094 -0.6142 -0.2230
 4142SOL    HW316341   4.658   3.146   4.439 -1.0030 -0.0551  0.1660
 4142SOL    MW416342   4.656   3.087   4.375  0.0278 -0.0353  0.0980
 4143SOL     OW16343   0.000   6.176   5.382  0.4154  0.0847  0.0666
 4143SOL    HW216344   0.081   6.212   5.416  0.8707 -0.1563 -0.7326
 4143SOL    HW316345  -0.028   6.112   5.447  1.8895 -1.2257 -0.5307
 4143SOL    MW416346   0.007   6.173   5.395  0.6700 -0.1200 -0.1176
 4144SOL     OW16347   0.946   0.549   2.296  0.0614  0.8387 -0.0732
 4144SOL    HW216348   0.952   0.595   2.380 -0.7709  1.0812 -0.1391
 4144SOL    HW316349   0.869   0.588   2.253  0.0716  0.2326 -0.6470
 4144SOL    MW416350   0.936   0.560   2.302 -0.0471  0.7907 -0.1576
 4145SOL     OW16351   5.801   1.915   2.816 -0.0471 -0.4373  0.4264
 4145SOL    HW216352   5.848   1.846   2.863  0.1006  0.8116  2.2152
 4145SOL    HW316353   5.712   1.882   2.808 -0.0830 -0.6791  1.6470
 4145SOL    MW416354   5.796   1.901   2.821 -0.0324 -0.3045  0.8234
 4146SOL     OW16355   1.459   5.305   1.723 -0.0576  0.0604  0.1177
 4146SOL    HW216356   1.423   5.393   1.736  0.4543  0.0420  1.7718
 4146SOL    HW316357   1.553   5.318   1.713  0.1647 -0.3846  1.5156
 4146SOL    MW416358   1.466   5.318   1.723  0.0393 -0.0007  0.5204
 4147SOL     OW16359   4.255   4.494   2.457  0.1393 -0.2889 -0.6280
 4147SOL    HW216360   4.330   4.479   2.400  0.2609  0.7452 -0.7752
 4147SOL    HW316361   4.280   4.458   2.541  0.3221 -1.0176 -0.9920
 4147SOL    MW416362   4.268   4.487   2.461  0.1795 -0.2486 -0.6955
 4148SOL     OW16363   5.485   2.258   3.061  0.1067 -0.2086 -0.4862
 4148SOL    HW216364   5.455   2.322   3.125 -2.0031  0.7196 -2.2636
 4148SOL    HW316365   5.573   2.288   3.037 -0.0252  0.8041  0.2342
 4148SOL    MW416366   5.493   2.271   3.066 -0.1891  0.0475 -0.6257
 4149SOL     OW16367   3.593   2.746   1.368 -0.3585 -0.0848  0.4754
 4149SOL    HW216368   3.511   2.793   1.354  0.5220  1.4269  0.1991
 4149SOL    HW316369   3.568   2.672   1.423 -1.9657  0.1145  0.0816
 4149SOL    MW416370   3.579   2.742   1.374 -0.4544  0.1409  0.3870
 4150SOL     OW16371   4.011   3.228   3.581  0.3863 -0.2704  0.2003
 4150SOL    HW216372   3.966   3.233   3.497 -1.9115  1.5520  1.3997
 4150SOL    HW316373   3.953   3.176   3.637  1.8351 -1.3943  0.7353
 4150SOL    MW416374   3.998   3.222   3.578  0.2743 -0.1782  0.4292
 4151SOL     OW16375   0.623   5.303   0.123 -0.2365 -0.3310  0.2119
 4151SOL    HW216376   0.551   5.322   0.183 -0.8976  0.1762 -0.7179
 4151SOL    HW316377   0.588   5.236   0.064  0.1288 -0.2279 -0.1215
 4151SOL    MW416378   0.609   5.297   0.123 -0.2755 -0.2505  0.0453
 4152SOL     OW16379   5.267   5.149   6.314  0.3943  0.1421  0.1381
 4152SOL    HW216380   5.209   5.141   6.390 -0.6884 -0.3776 -0.7060
 4152SOL    HW316381   5.314   5.066   6.312  1.3411  0.6474  0.9473
 4152SOL    MW416382   5.265   5.137   6.323  0.3764  0.1402  0.1335
 4153SOL     OW16383   1.184   5.741   5.662  0.3564 -0.8114 -0.2182
 4153SOL    HW216384   1.097   5.703   5.665 -0.2567  0.5553  1.0421
 4153SOL    HW316385   1.212   5.743   5.753  0.0165  2.3224 -0.0773
 4153SOL    MW416386   1.177   5.737   5.674  0.2307 -0.2176 -0.0333
 4154SOL     OW16387   0.964   3.725   2.015  0.1417 -0.2983  0.8258
 4154SOL    HW216388   1.047   3.743   1.970 -0.7074 -0.7282 -1.0361
 4154SOL    HW316389   0.944   3.635   1.992 -2.1093  0.5743 -1.0273
 4154SOL    MW416390   0.972   3.716   2.006 -0.2673 -0.2399  0.3357
 4155SOL     OW16391   5.362   0.115   0.612 -0.0251  0.0164  0.7134
 4155SOL    HW216392   5.396   0.098   0.699  0.1287  1.2708  0.9082
 4155SOL    HW316393   5.399   0.199   0.587 -0.9083  0.1747 -0.1348
 4155SOL    MW416394   5.371   0.124   0.620 -0.1213  0.2028  0.6272
 4156SOL     OW16395   4.054   2.636   3.394 -0.0433  0.3116 -0.0905
 4156SOL    HW216396   4.103   2.555   3.407  0.4003  0.4766 -0.6462
 4156SOL    HW316397   3.978   2.611   3.342  0.4778  0.3540 -0.9040
 4156SOL    MW416398   4.051   2.622   3.389  0.0839  0.3389 -0.2711
 4157SOL     OW16399   4.022   4.648   6.129  0.0464  0.6310 -0.0266
 4157SOL    HW216400   4.078   4.712   6.172  2.3565 -0.4246 -1.3136
 4157SOL    HW316401   4.082   4.583   6.093 -2.1452 -2.0476  0.7690
 4157SOL    MW416402   4.037   4.648   6.130  0.0620  0.1384 -0.0914
 4158SOL     OW16403   3.689   5.245   3.486 -0.1923 -0.0505  0.3245
 4158SOL    HW216404   3.711   5.326   3.440 -0.1564  0.5377  1.3523
 4158SOL    HW316405   3.699   5.176   3.420  0.3576  0.7104 -0.4017
 4158SOL    MW416406   3.693   5.246   3.471 -0.1150  0.1275  0.3643
 4159SOL     OW16407   2.280   0.112   6.355  0.0761 -0.1378 -0.4528
 4159SOL    HW216408   2.209   0.069   6.307 -1.6461  2.2552 -0.2345
 4159SOL    HW316409   2.257   0.099   6.448  1.0486 -1.0374 -0.3167
 4159SOL    MW416410   2.268   0.105   6.361 -0.0228  0.0592 -0.4060
 4160SOL     OW16411   6.040   5.107   0.785 -0.0585  0.3813 -0.4949
 4160SOL    HW216412   6.072   5.198   0.788 -0.7978  0.6848 -1.3622
 4160SOL    HW316413   5.979   5.101   0.859  1.5586 -0.0535  0.8609
 4160SOL    MW416414   6.036   5.118   0.795  0.0574  0.3640 -0.4304
 4161SOL     OW16415   5.619   4.155   3.349 -0.2271  0.1987  0.1052
 4161SOL    HW216416   5.709   4.135   3.377 -0.9609  1.3937  3.7875
 4161SOL    HW316417   5.564   4.094   3.398 -1.5294  0.2508 -1.2275
 4161SOL    MW416418   5.624   4.144   3.359 -0.4957  0.3632  0.4152
 4162SOL     OW16419   5.313   1.130   1.951 -0.5517  0.0952  0.4066
 4162SOL    HW216420   5.359   1.179   1.882 -0.0723  0.4801  0.9917
 4162SOL    HW316421   5.369   1.055   1.968 -0.8923 -0.2416  0.0732
 4162SOL    MW416422   5.327   1.126   1.944 -0.5334  0.1015  0.4398
 4163SOL     OW16423   6.260   1.064   5.965 -0.3111 -0.4879  0.0697
 4163SOL    HW216424   6.187   1.095   5.912  0.0251  1.4057  0.6499
 4163SOL    HW316425   6.337   1.106   5.927 -0.1383  1.4865  2.3648
 4163SOL    MW416426   6.260   1.073   5.953 -0.2440  0.0224  0.4490
 4164SOL     OW16427   5.174   3.057   1.907  0.2454 -0.3234  0.3220
 4164SOL    HW216428   5.269   3.058   1.902  0.2879  0.3606  1.1448
 4164SOL    HW316429   5.145   3.109   1.832  0.5898  1.3471  1.3189
 4164SOL    MW416430   5.183   3.064   1.896  0.2964 -0.0127  0.5621
 4165SOL     OW16431   2.078   0.858   3.679  0.0904  0.3280  0.1911
 4165SOL    HW216432   2.170   0.867   3.703 -0.2932  0.2097  1.9009
 4165SOL    HW316433   2.069   0.768   3.650  0.5586  0.4004 -0.1735
 4165SOL    MW416434   2.089   0.847   3.679  0.1015  0.3219  0.3686
 4166SOL     OW16435   2.368   2.605   0.544  0.3535  0.4775 -0.1620
 4166SOL    HW216436   2.365   2.518   0.506  0.5388  0.5293 -0.2997
 4166SOL    HW316437   2.426   2.655   0.485 -2.3606  1.6465 -2.0465
 4166SOL    MW416438   2.375   2.600   0.531  0.0199  0.6386 -0.4288
 4167SOL     OW16439   2.313   0.150   5.710 -0.3213  0.6945  0.1845
 4167SOL    HW216440   2.365   0.098   5.649  1.1311  1.3222  0.8354
 4167SOL    HW316441   2.282   0.224   5.657  0.1093  0.7194 -0.0401
 4167SOL    MW416442   2.316   0.153   5.695 -0.0728  0.7806  0.2408
 4168SOL     OW16443   3.371   5.521   2.993 -0.0304 -0.2244  0.4299
 4168SOL    HW216444   3.404   5.608   2.971 -0.6785 -0.3798 -1.3854
 4168SOL    HW316445   3.280   5.523   2.962  0.4180 -2.0439 -1.2040
 4168SOL    MW416446   3.363   5.533   2.986 -0.0567 -0.4849 -0.0252
 4169SOL     OW16447   3.874   3.799   1.589  0.0839 -0.1029 -0.3550
 4169SOL    HW216448   3.829   3.879   1.563  1.5384  0.3177 -1.7309
 4169SOL    HW316449   3.806   3.732   1.588 -0.9467  0.9047 -0.2096
 4169SOL    MW416450   3.859   3.801   1.586  0.1398  0.0855 -0.5173
 4170SOL     OW16451   1.698   3.732   2.604 -0.1826 -0.0579 -0.0398
 4170SOL    HW216452   1.764   3.701   2.665  0.2287  1.7880  0.5100
 4170SOL    HW316453   1.642   3.790   2.656  1.4441  3.3112 -1.7501
 4170SOL    MW416454   1.699   3.736   2.619  0.0863  0.6302 -0.1929
 4171SOL     OW16455   1.822   1.742   0.374 -0.9013  0.1779 -0.6683
 4171SOL    HW216456   1.773   1.671   0.415 -0.2132  0.3255  0.4605
 4171SOL    HW316457   1.913   1.724   0.397 -0.8250  2.1647  0.8817
 4171SOL    MW416458   1.828   1.730   0.383 -0.8005  0.4595 -0.3149
 4172SOL     OW16459   4.165   0.871   1.108  0.7010 -0.0342 -0.0646
 4172SOL    HW216460   4.252   0.905   1.129  0.6716  2.3102 -3.1623
 4172SOL    HW316461   4.105   0.941   1.133 -0.1049 -0.7109 -0.0642
 4172SOL    MW416462   4.168   0.884   1.114  0.5908  0.1859 -0.4733
 4173SOL     OW16463   4.639   3.698   2.291 -0.3427  0.1160  0.3107
 4173SOL    HW216464   4.654   3.612   2.251  0.7219 -0.7558  2.4342
 4173SOL    HW316465   4.722   3.744   2.282  0.0731 -0.2694  1.8043
 4173SOL    MW416466   4.652   3.692   2.285 -0.1474 -0.0499  0.7879
 4174SOL     OW16467   1.972   3.966   6.427  0.6995 -0.0042 -0.0019
 4174SOL    HW216468   2.004   3.940   6.340  1.4148  0.2574  0.1746
 4174SOL    HW316469   1.970   3.884   6.477  2.6747  0.1671  0.4664
 4174SOL    MW416470   1.976   3.951   6.422  1.0545  0.0529  0.0832
 4175SOL     OW16471   0.797   5.674   4.709 -0.0031  0.1265  0.7297
 4175SOL    HW216472   0.703   5.690   4.707 -0.1840 -0.4913  2.5624
 4175SOL    HW316473   0.835   5.761   4.724 -0.2232  0.4572 -0.5249
 4175SOL    MW416474   0.790   5.688   4.711 -0.0560  0.0886  0.8060
 4176SOL     OW16475   0.629   0.190   2.789 -0.3070  0.0749  0.3611
 4176SOL    HW216476   0.569   0.261   2.812 -3.0604 -1.5352 -1.3406
 4176SOL    HW316477   0.668   0.217   2.706 -1.3774 -0.3646 -0.3016
 4176SOL    MW416478   0.626   0.203   2.781 -0.8115 -0.1955  0.0492
 4177SOL     OW16479   4.249   5.024   2.770  0.5848  0.3670 -0.0549
 4177SOL    HW216480   4.215   5.105   2.807 -2.6881 -0.9885  0.3034
 4177SOL    HW316481   4.270   5.045   2.679 -0.3697  1.6088 -0.0078
 4177SOL    MW416482   4.247   5.037   2.763  0.0270  0.3520 -0.0014
 4178SOL     OW16483   1.665   2.265   1.344 -0.4135  0.2213  0.2484
 4178SOL    HW216484   1.685   2.334   1.281 -0.1985  1.1073  1.2432
 4178SOL    HW316485   1.632   2.313   1.421  0.1516 -0.7516  1.1237
 4178SOL    MW416486   1.663   2.281   1.346 -0.3106  0.2098  0.4951
 4179SOL     OW16487   2.334   2.583   4.457 -0.2760 -0.3723  0.6601
 4179SOL    HW216488   2.373   2.508   4.412 -0.6536 -0.5127  0.5679
 4179SOL    HW316489   2.308   2.548   4.542 -0.7506 -0.4300  0.4949
 4179SOL    MW416490   2.336   2.568   4.462 -0.3885 -0.3984  0.6262
 4180SOL     OW16491   3.208   1.053   5.234  0.5241  0.3401 -0.3010
 4180SOL    HW216492   3.215   1.003   5.153 -0.5848 -1.4213  0.6242
 4180SOL    HW316493   3.292   1.041   5.278  0.4451 -0.3434 -0.3207
 4180SOL    MW416494   3.220   1.045   5.229  0.3673  0.0175 -0.1815
 4181SOL     OW16495   2.096   6.331   1.127 -0.4301 -0.2134 -0.0399
 4181SOL    HW216496   2.171   6.328   1.186 -0.5304 -1.9772  0.0709
 4181SOL    HW316497   2.060   6.242   1.131 -1.7371  0.2382 -1.1008
 4181SOL    MW416498   2.101   6.319   1.136 -0.6157 -0.3866 -0.1653
 4182SOL     OW16499   2.819   0.794   3.833  0.2693 -0.5125  0.4100
 4182SOL    HW216500   2.873   0.742   3.775  0.5646 -2.0470  1.9604
 4182SOL    HW316501   2.881   0.849   3.881  0.0279  0.7504 -0.6600
 4182SOL    MW416502   2.834   0.795   3.832  0.2764 -0.5483  0.4734
 4183SOL     OW16503   1.310   6.083   1.277  0.0639 -0.0925  0.2531
 4183SOL    HW216504   1.320   6.045   1.190  0.6744 -0.9538  0.6796
 4183SOL    HW316505   1.232   6.041   1.313 -2.7577  3.3196 -1.3839
 4183SOL    MW416506   1.301   6.072   1.271 -0.2279  0.2441  0.0934
 4184SOL     OW16507   4.976   0.532   5.112 -0.1322  0.6733 -0.3651
 4184SOL    HW216508   5.055   0.500   5.155  0.9371  2.1728 -1.1124
 4184SOL    HW316509   4.911   0.463   5.125  1.2174 -0.4767  0.4953
 4184SOL    MW416510   4.978   0.519   5.120  0.1869  0.7194 -0.3502
 4185SOL     OW16511   1.297   2.057   6.103 -0.1348  0.8409 -0.0230
 4185SOL    HW216512   1.356   2.104   6.045  1.0694 -0.5299  0.0365
 4185SOL    HW316513   1.290   2.111   6.181  0.3755  1.4074 -0.3670
 4185SOL    MW416514   1.304   2.070   6.106  0.0914  0.7347 -0.0605
 4186SOL     OW16515   4.393   2.539   2.509  0.4114 -0.1467  0.0478
 4186SOL    HW216516   4.417   2.473   2.443 -0.7080 -0.0824 -0.4458
 4186SOL    HW316517   4.418   2.622   2.469  1.5595 -0.2313  0.5513
 4186SOL    MW416518   4.400   2.541   2.495  0.4152 -0.1494  0.0491
 4187SOL     OW16519   1.016   3.557   0.119  0.4356  0.2095 -0.0579
 4187SOL    HW216520   1.052   3.580   0.204 -0.0886 -1.9783  0.8240
 4187SOL    HW316521   1.061   3.476   0.095 -0.2053  0.2128 -1.3563
 4187SOL    MW416522   1.026   3.550   0.127  0.2819 -0.0787 -0.1128
 4188SOL     OW16523   1.501   2.404   2.868 -0.1237  0.1206  0.3595
 4188SOL    HW216524   1.485   2.335   2.804  0.4039  1.7808 -1.6593
 4188SOL    HW316525   1.589   2.435   2.848 -0.6648  1.9396  0.6652
 4188SOL    MW416526   1.510   2.399   2.857 -0.1255  0.5797  0.1335
 4189SOL     OW16527   5.864   4.315   4.422 -0.4757  0.3835  0.1122
 4189SOL    HW216528   5.862   4.219   4.423  0.8946  0.2888 -1.3542
 4189SOL    HW316529   5.792   4.340   4.365  0.2307  0.1014 -0.9475
 4189SOL    MW416530   5.854   4.305   4.415 -0.2017  0.3338 -0.2211
 4190SOL     OW16531   3.149   5.924   3.918 -0.3988  0.0642 -0.5181
 4190SOL    HW216532   3.128   5.831   3.913  1.2835 -0.5673  2.2118
 4190SOL    HW316533   3.240   5.927   3.946 -0.5505  2.5489 -0.0443
 4190SOL    MW416534   3.158   5.912   3.921 -0.1968  0.3087 -0.0954
 4191SOL     OW16535   1.990   1.311   1.889  0.3670  0.0708 -0.3939
 4191SOL    HW216536   1.994   1.407   1.894  1.1826 -0.0340  1.8694
 4191SOL    HW316537   1.913   1.288   1.941  1.3878 -0.5905  0.8504
 4191SOL    MW416538   1.980   1.321   1.896  0.6093 -0.0303  0.0689
 4192SOL     OW16539   1.380   3.375   1.735 -0.2867 -0.2386 -0.4492
 4192SOL    HW216540   1.404   3.466   1.719 -0.5636 -0.0980 -0.0599
 4192SOL    HW316541   1.324   3.352   1.661  0.3040 -0.2925 -0.8860
 4192SOL    MW416542   1.376   3.384   1.723 -0.2453 -0.2271 -0.4555
 4193SOL     OW16543   3.785   3.767   4.232 -0.2099 -0.3871  0.2017
 4193SOL    HW216544   3.727   3.726   4.297 -1.5246  1.0612 -0.0039
 4193SOL    HW316545   3.850   3.699   4.213 -0.7424 -1.4258  1.8077
 4193SOL    MW416546   3.786   3.752   4.238 -0.4536 -0.3331  0.3865
 4194SOL     OW16547   2.269   1.009   5.607 -0.6891  0.5042 -0.4697
 4194SOL    HW216548   2.253   0.915   5.617 -1.2266  0.7230  0.9466
 4194SOL    HW316549   2.287   1.021   5.513  0.6060 -1.1814 -0.4716
 4194SOL    MW416550   2.269   0.998   5.596 -0.5891  0.3106 -0.2831
 4195SOL     OW16551   4.677   5.879   3.265 -0.6537  0.2807 -0.2967
 4195SOL    HW216552   4.694   5.785   3.271  0.9783  0.3903 -2.3343
 4195SOL    HW316553   4.592   5.885   3.221 -1.3826 -0.2137  0.9950
 4195SOL    MW416554   4.668   5.868   3.260 -0.5345  0.2299 -0.3951
 4196SOL     OW16555   1.202   3.426   4.325 -0.0308 -0.5094 -1.0059
 4196SOL    HW216556   1.174   3.479   4.250 -0.0477  0.1663 -0.5357
 4196SOL    HW316557   1.285   3.465   4.351 -1.5431  1.4411  1.3573
 4196SOL    MW416558   1.209   3.438   4.319 -0.2325 -0.1629 -0.6321
 4197SOL     OW16559   3.669   1.571   4.831  0.2971  0.0521 -0.1585
 4197SOL    HW216560   3.744   1.591   4.886  0.4800  0.7592 -0.6554
 4197SOL    HW316561   3.654   1.477   4.843  1.1829 -0.0655  0.0323
 4197SOL    MW416562   3.677   1.561   4.840  0.4381  0.1299 -0.1989
 4198SOL     OW16563   1.455   2.698   0.978 -0.0632 -0.2776 -0.5317
 4198SOL    HW216564   1.434   2.692   1.071 -0.2208 -0.7475 -0.5951
 4198SOL    HW316565   1.403   2.628   0.937 -0.1666  0.0683 -1.0004
 4198SOL    MW416566   1.445   2.688   0.985 -0.0976 -0.2940 -0.6019
 4199SOL     OW16567   5.362   4.802   3.354  0.6624  0.1356 -0.7053
 4199SOL    HW216568   5.326   4.725   3.399 -0.7939  0.8366 -0.6152
 4199SOL    HW316569   5.441   4.769   3.310 -0.1544 -1.5136 -1.0217
 4199SOL    MW416570   5.368   4.787   3.354  0.3625  0.0105 -0.7351
 4200SOL     OW16571   0.195   3.848   0.321 -0.1996  0.0560  0.3404
 4200SOL    HW216572   0.139   3.850   0.244 -1.4417  0.2032  1.2144
 4200SOL    HW316573   0.256   3.775   0.305 -1.5814 -1.0582 -0.0112
 4200SOL    MW416574   0.196   3.838   0.309 -0.5458 -0.0716  0.4093
 4201SOL     OW16575   2.618   1.626   5.801  0.5067  0.0546 -0.1753
 4201SOL    HW216576   2.678   1.695   5.831 -0.1901  0.1713  0.9859
 4201SOL    HW316577   2.547   1.626   5.864 -1.8893  1.3743 -2.6525
 4201SOL    MW416578   2.617   1.635   5.813  0.0987  0.2441 -0.3489
 4202SOL     OW16579   0.996   0.112   5.347  0.5415  0.9976  0.4601
 4202SOL    HW216580   1.022   0.050   5.279 -1.2226  0.2491  0.4132
 4202SOL    HW316581   0.963   0.188   5.299 -1.3385  0.1984  0.4193
 4202SOL    MW416582   0.995   0.114   5.332  0.0607  0.7934  0.4485
 4203SOL     OW16583   5.075   6.413   3.857 -0.6634  0.1784  0.3315
 4203SOL    HW216584   5.015   6.483   3.882 -1.2074 -0.3827  0.6343
 4203SOL    HW316585   5.134   6.453   3.793  0.9828  1.7648  2.6800
 4203SOL    MW416586   5.075   6.428   3.852 -0.5180  0.3137  0.6813
 4204SOL     OW16587   1.438   1.580   3.830 -0.4404  0.0918  0.0338
 4204SOL    HW216588   1.487   1.503   3.857 -0.7013 -1.1516 -2.7265
 4204SOL    HW316589   1.504   1.649   3.823 -0.0793 -0.0296  1.8022
 4204SOL    MW416590   1.453   1.579   3.832 -0.4272 -0.0883 -0.0970
 4205SOL     OW16591   4.142   2.195   4.860  0.4994  0.1365 -0.2636
 4205SOL    HW216592   4.193   2.185   4.779 -0.2063  0.7118 -0.7856
 4205SOL    HW316593   4.055   2.222   4.831  0.0365 -0.3184  0.6523
 4205SOL    MW416594   4.138   2.197   4.845  0.3452  0.1524 -0.2116
 4206SOL     OW16595   1.373   1.188   0.923  0.0527  0.2695  0.3081
 4206SOL    HW216596   1.368   1.167   0.829  3.0284 -1.1418  0.3648
 4206SOL    HW316597   1.341   1.109   0.967  0.5649  0.1700  0.4991
 4206SOL    MW416598   1.368   1.175   0.916  0.5129  0.0702  0.3408
 4207SOL     OW16599   2.784   0.578   2.151 -0.2397 -0.3432  0.2492
 4207SOL    HW216600   2.861   0.566   2.206  0.3530 -0.7633 -0.6361
 4207SOL    HW316601   2.804   0.656   2.099 -0.5168 -0.3102  0.1943
 4207SOL    MW416602   2.797   0.587   2.151 -0.1980 -0.3943  0.1252
 4208SOL     OW16603   2.767   5.777   3.974  0.0945  0.0901 -0.1110
 4208SOL    HW216604   2.743   5.740   3.889 -1.4450  0.0566  0.3143
 4208SOL    HW316605   2.742   5.869   3.968 -0.6353 -0.0535  0.5058
 4208SOL    MW416606   2.761   5.784   3.962 -0.2049  0.0667  0.0265
 4209SOL     OW16607   2.323   1.023   5.339  0.5303  0.1063 -0.8467
 4209SOL    HW216608   2.416   1.023   5.361  0.2085 -0.6679  0.6727
 4209SOL    HW316609   2.316   0.963   5.264  1.0381 -1.2843  0.1796
 4209SOL    MW416610   2.335   1.015   5.332  0.5549 -0.1793 -0.5108
 4210SOL     OW16611   6.088   0.540   4.158  0.0950 -0.2555  0.1602
 4210SOL    HW216612   6.004   0.553   4.114 -0.3187 -1.1729  0.6620
 4210SOL    HW316613   6.099   0.445   4.163  1.3905 -0.1534 -0.3094
 4210SOL    MW416614   6.078   0.529   4.152  0.2113 -0.3631  0.1645
 4211SOL     OW16615   3.515   3.488   2.270  0.1691  0.2374  0.1883
 4211SOL    HW216616   3.560   3.496   2.186 -1.6290 -0.5412 -0.9190
 4211SOL    HW316617   3.469   3.571   2.281  0.3638  0.3198  0.4043
 4211SOL    MW416618   3.515   3.500   2.261 -0.0424  0.1455  0.0707
 4212SOL     OW16619   0.413   2.726   4.803 -0.1996 -0.2747  1.0087
 4212SOL    HW216620   0.474   2.780   4.752 -0.0982 -0.6252  0.7555
 4212SOL    HW316621   0.417   2.763   4.891 -2.1682  1.8908  0.3044
 4212SOL    MW416622   0.421   2.738   4.808 -0.4459 -0.0352  0.8824
 4213SOL     OW16623   4.606   6.188   2.902  0.1956  0.0496 -0.1904
 4213SOL    HW216624   4.700   6.170   2.891 -0.2496 -1.9196 -1.1486
 4213SOL    HW316625   4.575   6.118   2.958 -0.4034  1.7621  1.7411
 4213SOL    MW416626   4.615   6.177   2.908  0.0579  0.0157 -0.0620
 4214SOL     OW16627   6.026   4.607   0.137 -0.2469 -0.7262  0.3609
 4214SOL    HW216628   6.087   4.592   0.064 -0.0483 -1.9685  0.7616
 4214SOL    HW316629   6.071   4.671   0.192 -0.1385 -0.2224 -0.2969
 4214SOL    MW416630   6.040   4.614   0.135 -0.2064 -0.8236  0.3270
 4215SOL     OW16631   0.635   0.193   5.000  0.7299 -0.4624 -0.0415
 4215SOL    HW216632   0.564   0.256   4.993 -0.4919 -1.9038 -1.0274
 4215SOL    HW316633   0.713   0.241   4.973  0.0301  0.9394  0.3752
 4215SOL    MW416634   0.636   0.207   4.996  0.4764 -0.4676 -0.1166
 4216SOL     OW16635   1.358   3.750   3.631 -0.1268 -0.4051  0.1846
 4216SOL    HW216636   1.396   3.810   3.567 -2.4050  0.6161 -0.2958
 4216SOL    HW316637   1.380   3.790   3.716  1.8870 -1.1486  0.0762
 4216SOL    MW416638   1.366   3.763   3.634 -0.1617 -0.3685  0.1069
 4217SOL     OW16639   5.428   1.084   5.484  0.2491  0.1399  0.6824
 4217SOL    HW216640   5.391   1.009   5.438 -3.5777  1.7915  0.7499
 4217SOL    HW316641   5.522   1.066   5.487 -0.2138 -3.4924 -1.2871
 4217SOL    MW416642   5.436   1.072   5.478 -0.3169 -0.1215  0.4315
 4218SOL     OW16643   0.764   3.056   3.542  0.1233 -0.0174 -0.1108
 4218SOL    HW216644   0.846   3.008   3.558  0.6409  0.3195 -1.5651
 4218SOL    HW316645   0.745   3.040   3.449 -1.2534  0.2421  0.1141
 4218SOL    MW416646   0.773   3.048   3.532  0.0099  0.0613 -0.2730
 4219SOL     OW16647   6.359   2.364   0.716  0.3111  0.5604 -0.1084
 4219SOL    HW216648   6.359   2.328   0.805 -0.2478  0.2780 -0.2165
 4219SOL    HW316649   6.334   2.455   0.727 -2.2343 -0.0568 -0.1672
 4219SOL    MW416650   6.356   2.371   0.729 -0.0985  0.4417 -0.1304
 4220SOL     OW16651   3.990   1.497   0.733  0.6948  0.1958  0.6221
 4220SOL    HW216652   4.005   1.403   0.729  0.9908  0.2898 -1.9016
 4220SOL    HW316653   4.072   1.536   0.703  0.0714  1.2009  0.1817
 4220SOL    MW416654   4.003   1.490   0.728  0.6516  0.3408  0.2311
 4221SOL     OW16655   1.089   4.383   3.278  0.2812  0.1691 -0.8522
 4221SOL    HW216656   1.076   4.293   3.247  1.5059 -0.2768 -0.1831
 4221SOL    HW316657   1.015   4.400   3.336  2.2090 -2.1380  2.6396
 4221SOL    MW416658   1.078   4.373   3.281  0.6971 -0.1941 -0.3032
 4222SOL     OW16659   5.558   4.011   0.268 -0.5425  0.3705  0.2307
 4222SOL    HW216660   5.522   3.980   0.351  0.6782  1.0050  1.0309
 4222SOL    HW316661   5.574   3.931   0.218  0.9489 -0.2400  1.5839
 4222SOL    MW416662   5.555   3.996   0.272 -0.1847  0.3737  0.5148
 4223SOL     OW16663   3.258   3.550   3.885  0.3937  0.0062  0.3206
 4223SOL    HW216664   3.278   3.601   3.964  1.6060  0.6463 -0.3743
 4223SOL    HW316665   3.280   3.608   3.813  0.3379 -0.9671 -0.4997
 4223SOL    MW416666   3.263   3.564   3.886  0.5463 -0.0378  0.1207
 4224SOL     OW16667   3.785   5.267   5.633  0.3386 -0.6086  0.3601
 4224SOL    HW216668   3.706   5.260   5.687 -1.0800 -0.8537 -1.6232
 4224SOL    HW316669   3.769   5.343   5.577  1.1069 -1.1716 -0.6596
 4224SOL    MW416670   3.773   5.276   5.633  0.2528 -0.7152 -0.0361
 4225SOL     OW16671   5.908   4.432   1.987 -0.0021 -0.5071  0.0526
 4225SOL    HW216672   5.999   4.448   2.014 -0.0017 -0.7367  0.1897
 4225SOL    HW316673   5.915   4.407   1.895  0.1800 -1.5116  0.3236
 4225SOL    MW416674   5.921   4.431   1.978  0.0219 -0.6699  0.1064
 4226SOL     OW16675   0.547   2.629   4.211  0.0839  0.1940  0.3966
 4226SOL    HW216676   0.484   2.578   4.262  0.7237 -0.1419  0.8651
 4226SOL    HW316677   0.613   2.566   4.183  0.0665  0.4933 -0.3264
 4226SOL    MW416678   0.547   2.614   4.214  0.1660  0.1892  0.3630
 4227SOL     OW16679   2.427   6.287   0.467  0.3135  0.3530  0.2601
 4227SOL    HW216680   2.369   6.228   0.516 -0.4763  1.6098  0.8878
 4227SOL    HW316681   2.513   6.245   0.472 -0.4657 -1.4631 -0.5469
 4227SOL    MW416682   2.431   6.274   0.474  0.1065  0.2792  0.2364
 4228SOL     OW16683   2.387   4.455   6.297 -0.0903 -0.7110  0.3372
 4228SOL    HW216684   2.405   4.549   6.296 -0.1898 -0.6844 -1.4951
 4228SOL    HW316685   2.307   4.445   6.245 -0.2560 -1.7780  0.7733
 4228SOL    MW416686   2.379   4.467   6.290 -0.1253 -0.8483  0.1530
 4229SOL     OW16687   1.609   4.245   1.717  0.0404  0.0858 -0.1405
 4229SOL    HW216688   1.587   4.286   1.633  1.7968  0.8380 -0.2592
 4229SOL    HW316689   1.651   4.314   1.768 -1.7710 -0.0908  1.7612
 4229SOL    MW416690   1.611   4.260   1.712  0.0331  0.1617  0.0948
 4230SOL     OW16691   4.275   2.599   5.430 -0.4467  0.2694  0.1945
 4230SOL    HW216692   4.208   2.665   5.450 -0.8398  0.5833 -1.8764
 4230SOL    HW316693   4.354   2.631   5.473 -0.3487  2.7483 -1.5845
 4230SOL    MW416694   4.276   2.612   5.438 -0.4856  0.6379 -0.3135
 4231SOL     OW16695   4.356   2.072   1.309 -0.4484 -0.6420 -0.3212
 4231SOL    HW216696   4.308   2.102   1.232  0.8161 -0.4405 -1.0566
 4231SOL    HW316697   4.400   2.150   1.342 -0.0339 -0.9649 -0.0959
 4231SOL    MW416698   4.355   2.086   1.303 -0.2269 -0.6580 -0.3885
 4232SOL     OW16699   3.273   1.896   4.326 -0.3991  0.4980 -0.5329
 4232SOL    HW216700   3.305   1.899   4.236  1.4285  1.5603  0.0864
 4232SOL    HW316701   3.284   1.805   4.353  2.6355  0.8584 -0.2450
 4232SOL    MW416702   3.279   1.885   4.318  0.2424  0.6857 -0.4132
 4233SOL     OW16703   4.246   2.070   6.239  0.1447  0.0356  0.2930
 4233SOL    HW216704   4.220   2.072   6.331 -1.6908 -1.4532 -0.1060
 4233SOL    HW316705   4.312   2.138   6.230 -0.6521  1.1621  2.4022
 4233SOL    MW416706   4.251   2.079   6.250 -0.2026 -0.0122  0.5187
 4234SOL     OW16707   0.219   1.193   2.148  0.3477 -0.1851  0.0647
 4234SOL    HW216708   0.165   1.237   2.082 -1.0533 -2.5604 -0.4657
 4234SOL    HW316709   0.308   1.196   2.112 -0.1012  0.1305 -1.0496
 4234SOL    MW416710   0.224   1.199   2.135  0.1036 -0.4568 -0.1523
 4235SOL     OW16711   0.492   3.058   6.285  0.0344 -0.0042  0.1715
 4235SOL    HW216712   0.398   3.041   6.293 -0.2662 -0.8428 -3.2993
 4235SOL    HW316713   0.533   2.998   6.347 -1.6833 -0.0606  1.3047
 4235SOL    MW416714   0.485   3.048   6.294 -0.2319 -0.1223 -0.1369
 4236SOL     OW16715   0.772   2.381   3.845  0.3505 -0.7069 -0.3396
 4236SOL    HW216716   0.771   2.382   3.750  0.9975  0.1144 -0.3480
 4236SOL    HW316717   0.690   2.422   3.871  0.5633 -0.1309 -0.5582
 4236SOL    MW416718   0.761   2.386   3.836  0.4640 -0.5225 -0.3696
 4237SOL     OW16719   4.159   3.948   5.895 -0.1847 -0.6881  0.6885
 4237SOL    HW216720   4.154   3.963   5.801  2.8223  1.4553  0.7009
 4237SOL    HW316721   4.252   3.930   5.911 -0.2336  0.9024  3.4168
 4237SOL    MW416722   4.171   3.947   5.885  0.2056 -0.1955  1.0501
 4238SOL     OW16723   3.215   2.318   6.109 -0.0744  0.2515 -0.1965
 4238SOL    HW216724   3.229   2.402   6.153  0.0235 -0.9379  2.1986
 4238SOL    HW316725   3.292   2.308   6.052  0.5805  1.1866  0.4894
 4238SOL    MW416726   3.227   2.328   6.107  0.0249  0.2179  0.2100
 4239SOL     OW16727   1.690   5.943   3.436  0.0313  0.0964 -0.8190
 4239SOL    HW216728   1.755   5.880   3.402  1.2839  0.1707  1.2973
 4239SOL    HW316729   1.628   5.889   3.485  1.5685  0.4836  1.7030
 4239SOL    MW416730   1.690   5.927   3.438  0.3994  0.1573 -0.2070
 4240SOL     OW16731   3.061   5.820   4.983  0.6178  0.1566  0.5857
 4240SOL    HW216732   2.985   5.762   4.987  0.0715  0.8009 -0.0983
 4240SOL    HW316733   3.072   5.851   5.072  0.4442 -0.4024  0.8058
 4240SOL    MW416734   3.052   5.817   4.995  0.5228  0.1679  0.5245
 4241SOL     OW16735   4.140   2.906   1.592 -0.2648  0.0440  0.2196
 4241SOL    HW216736   4.101   2.975   1.539 -1.3039  0.8385  1.9406
 4241SOL    HW316737   4.139   2.940   1.681  0.0415 -1.8199  0.9895
 4241SOL    MW416738   4.134   2.919   1.596 -0.3615 -0.0971  0.5482
 4242SOL     OW16739   5.015   4.315   0.332  0.1621  0.1279 -0.1297
 4242SOL    HW216740   5.023   4.268   0.249 -1.1891 -0.5718  0.1171
 4242SOL    HW316741   5.073   4.267   0.391  2.3900  1.5778 -1.0171
 4242SOL    MW416742   5.024   4.302   0.329  0.2778  0.2269 -0.2142
 4243SOL     OW16743   3.468   5.282   0.790 -0.4505  0.3104 -0.1631
 4243SOL    HW216744   3.455   5.210   0.728  0.7265  1.8803 -2.3708
 4243SOL    HW316745   3.380   5.316   0.805 -0.7656 -0.0967 -0.9883
 4243SOL    MW416746   3.455   5.277   0.784 -0.3368  0.4638 -0.5632
 4244SOL     OW16747   3.045   4.619   0.833 -0.5912  0.0276 -0.1922
 4244SOL    HW216748   3.114   4.668   0.877  0.1107 -0.1947 -1.0169
 4244SOL    HW316749   3.092   4.553   0.782 -1.4361 -0.3658 -0.4756
 4244SOL    MW416750   3.060   4.617   0.832 -0.6101 -0.0536 -0.3384
 4245SOL     OW16751   2.574   1.924   5.411  0.2527  0.3607  0.2623
 4245SOL    HW216752   2.536   1.896   5.494 -1.0709  2.9931  0.6669
 4245SOL    HW316753   2.663   1.952   5.432  0.0217  0.7391  0.7388
 4245SOL    MW416754   2.580   1.924   5.425  0.0476  0.7579  0.3785
 4246SOL     OW16755   2.480   0.319   0.705  0.4636  0.5972 -0.3093
 4246SOL    HW216756   2.503   0.391   0.763 -0.1410  0.1785  0.4593
 4246SOL    HW316757   2.388   0.333   0.683 -0.0112 -0.5902  0.8219
 4246SOL    MW416758   2.471   0.330   0.710  0.3212  0.3853 -0.0587
 4247SOL     OW16759   4.361   5.330   3.537 -0.1167  0.5385 -0.5409
 4247SOL    HW216760   4.402   5.272   3.472  0.2560  0.3177 -0.1137
 4247SOL    HW316761   4.405   5.414   3.524  0.6615  0.2422  0.0734
 4247SOL    MW416762   4.373   5.334   3.527  0.0351  0.4703 -0.4035
 4248SOL     OW16763   3.749   1.695   5.509  0.5488  0.4225 -0.4679
 4248SOL    HW216764   3.791   1.704   5.424  0.3790  0.2251 -0.5725
 4248SOL    HW316765   3.656   1.684   5.489  0.7514 -1.8882 -0.3730
 4248SOL    MW416766   3.742   1.695   5.496  0.5531  0.0916 -0.4692
 4249SOL     OW16767   2.896   0.946   2.394 -0.6498  0.1994 -0.2052
 4249SOL    HW216768   2.869   1.037   2.401 -1.6280 -0.1083  0.1972
 4249SOL    HW316769   2.816   0.896   2.408  0.2216 -0.7818  1.6373
 4249SOL    MW416770   2.882   0.951   2.397 -0.6639  0.0293  0.0910
 4250SOL     OW16771   4.524   1.604   5.202  0.2645  0.0109  0.1710
 4250SOL    HW216772   4.502   1.657   5.125  0.7614  0.0555  0.0579
 4250SOL    HW316773   4.618   1.587   5.194 -0.1834 -2.4574 -0.7681
 4250SOL    MW416774   4.533   1.609   5.191  0.2710 -0.3088  0.0322
 4251SOL     OW16775   0.057   0.136   5.308 -0.1145 -0.0402 -0.4337
 4251SOL    HW216776   0.066   0.077   5.232  0.7657 -0.2840 -0.1563
 4251SOL    HW316777  -0.010   0.095   5.362 -0.5924  0.0181 -0.9718
 4251SOL    MW416778   0.049   0.123   5.305 -0.0614 -0.0647 -0.4681
 4252SOL     OW16779   0.501   1.528   1.396  0.0441 -0.1663 -0.2714
 4252SOL    HW216780   0.488   1.608   1.448  1.9969 -0.3600  0.6012
 4252SOL    HW316781   0.435   1.467   1.429 -0.1385  0.4207  0.4852
 4252SOL    MW416782   0.491   1.531   1.407  0.2777 -0.1144 -0.0564
 4253SOL     OW16783   3.691   5.855   4.549 -0.6223 -0.0210  0.2989
 4253SOL    HW216784   3.707   5.810   4.466  0.5651  0.5926  0.1747
 4253SOL    HW316785   3.761   5.825   4.607 -1.2872 -0.2400  0.9997
 4253SOL    MW416786   3.702   5.845   4.546 -0.5534  0.0311  0.3750
 4254SOL     OW16787   1.544   2.642   1.435  0.0573 -0.3482 -0.6069
 4254SOL    HW216788   1.536   2.704   1.508  3.0227 -0.5747  0.0376
 4254SOL    HW316789   1.543   2.556   1.477 -1.3125 -0.6753 -1.2280
 4254SOL    MW416790   1.543   2.639   1.450  0.2678 -0.4212 -0.6038
 4255SOL     OW16791   0.832   4.091   2.663  0.1735  0.1748  0.6177
 4255SOL    HW216792   0.883   4.010   2.668 -0.5453 -0.2998  0.4328
 4255SOL    HW316793   0.741   4.062   2.655 -0.0821  1.0010  0.3751
 4255SOL    MW416794   0.827   4.076   2.662  0.0449  0.2212  0.5613
 4256SOL     OW16795   3.196   6.330   0.404  0.1663  0.5662 -0.0479
 4256SOL    HW216796   3.126   6.293   0.350 -1.9864 -0.4107  3.1050
 4256SOL    HW316797   3.266   6.265   0.400 -0.6251 -0.2938 -0.3980
 4256SOL    MW416798   3.196   6.317   0.397 -0.2221  0.3239  0.3219
 4257SOL     OW16799   4.794   5.306   0.748  0.4865  0.2298  0.0356
 4257SOL    HW216800   4.756   5.392   0.732 -1.7212 -0.1033  2.7422
 4257SOL    HW316801   4.873   5.324   0.799  1.2304  0.6805 -1.2151
 4257SOL    MW416802   4.800   5.320   0.752  0.2934  0.2453  0.2277
 4258SOL     OW16803   4.063   1.918   3.293 -0.1668  0.0893 -0.5181
 4258SOL    HW216804   4.126   1.866   3.243  0.4364  0.3510 -0.0415
 4258SOL    HW316805   4.117   1.982   3.339 -0.8596  0.8091 -0.7062
 4258SOL    MW416806   4.079   1.919   3.293 -0.1786  0.2188 -0.4800
 4259SOL     OW16807   4.090   3.410   2.689  0.1069 -0.4508 -0.6264
 4259SOL    HW216808   4.038   3.473   2.641 -0.8150 -0.9132 -0.2551
 4259SOL    HW316809   4.181   3.439   2.676 -0.3284  1.8680  0.7905
 4259SOL    MW416810   4.095   3.422   2.681 -0.0722 -0.2059 -0.3905
 4260SOL     OW16811   0.564   4.054   1.787 -0.4257  0.4917 -0.1990
 4260SOL    HW216812   0.646   4.037   1.833 -0.6778  0.9146  0.4072
 4260SOL    HW316813   0.549   3.974   1.735 -0.0952  0.0520  0.3720
 4260SOL    MW416814   0.573   4.041   1.786 -0.4154  0.4895 -0.0437
 4261SOL     OW16815   3.225   1.550   1.877  0.0001  0.1801 -0.4538
 4261SOL    HW216816   3.316   1.528   1.857  0.2703  2.2646 -1.8350
 4261SOL    HW316817   3.230   1.637   1.916 -1.3187 -0.2779  0.8161
 4261SOL    MW416818   3.238   1.559   1.880 -0.1383  0.3947 -0.4685
 4262SOL     OW16819   2.235   5.139   0.413  0.0465 -0.5010 -0.1426
 4262SOL    HW216820   2.275   5.126   0.327 -1.6649  1.1907 -1.2746
 4262SOL    HW316821   2.211   5.051   0.442 -0.0841 -1.0453 -1.7934
 4262SOL    MW416822   2.237   5.126   0.405 -0.1965 -0.3496 -0.5097
 4263SOL     OW16823   5.493   1.546   4.463  0.1109  0.0726  0.2522
 4263SOL    HW216824   5.579   1.585   4.447  1.2888 -2.1925  0.5820
 4263SOL    HW316825   5.455   1.533   4.376  0.1613  0.9181  0.0973
 4263SOL    MW416826   5.499   1.550   4.450  0.2729 -0.1147  0.2753
 4264SOL     OW16827   0.193   3.038   0.831  0.3291  0.2016  0.1057
 4264SOL    HW216828   0.259   3.006   0.893  1.3091 -1.0963 -1.5225
 4264SOL    HW316829   0.229   3.119   0.797  0.8120 -0.1780 -0.3097
 4264SOL    MW416830   0.206   3.044   0.835  0.5221 -0.0197 -0.1639
 4265SOL     OW16831   2.437   1.108   4.226 -0.1634 -0.5129 -0.3103
 4265SOL    HW216832   2.506   1.175   4.227 -0.2998 -0.3753 -0.1376
 4265SOL    HW316833   2.375   1.139   4.160 -1.5660  0.8922  1.5442
 4265SOL    MW416834   2.438   1.121   4.217 -0.3664 -0.3094 -0.0428
 4266SOL     OW16835   1.988   5.582   3.679 -0.1905 -0.8548 -0.0902
 4266SOL    HW216836   1.935   5.660   3.660  0.2005 -0.8003 -1.0271
 4266SOL    HW316837   1.932   5.528   3.735 -0.3987  0.1779  0.7289
 4266SOL    MW416838   1.974   5.586   3.684 -0.1664 -0.7113 -0.1057
 4267SOL     OW16839   2.013   5.736   1.857  0.2847  0.3353 -0.1791
 4267SOL    HW216840   2.084   5.781   1.812  1.0362  0.3262  0.9518
 4267SOL    HW316841   2.056   5.664   1.904 -0.4921  0.2164  0.3807
 4267SOL    MW416842   2.028   5.732   1.857  0.2813  0.3184  0.0440
 4268SOL     OW16843   3.337   5.808   1.911  0.0010  0.4646  0.0404
 4268SOL    HW216844   3.400   5.796   1.983 -0.1227 -0.9145 -0.0539
 4268SOL    HW316845   3.270   5.866   1.947 -0.5488 -0.9432  1.3823
 4268SOL    MW416846   3.337   5.814   1.926 -0.0879  0.0969  0.2050
 4269SOL     OW16847   5.907   5.542   2.042  0.0051 -0.2678 -0.0518
 4269SOL    HW216848   5.815   5.540   2.013 -0.3282 -2.9284  0.8625
 4269SOL    HW316849   5.903   5.522   2.135  1.4900  0.5237  0.2083
 4269SOL    MW416850   5.894   5.539   2.050  0.1570 -0.5144  0.1031
 4270SOL     OW16851   4.496   5.092   5.641  0.1532 -0.5024  0.4403
 4270SOL    HW216852   4.515   5.017   5.584  2.0200  0.0649  0.2444
 4270SOL    HW316853   4.472   5.162   5.581  1.5646 -0.0652  0.3547
 4270SOL    MW416854   4.496   5.091   5.626  0.5857 -0.3698  0.4032
 4271SOL     OW16855   3.417   5.004   2.745 -0.2247  0.6390  0.2916
 4271SOL    HW216856   3.415   5.066   2.818 -1.7208  0.9339  0.0323
 4271SOL    HW316857   3.365   5.045   2.676 -2.8375 -1.5955  0.7560
 4271SOL    MW416858   3.410   5.017   2.746 -0.7668  0.3831  0.3187
 4272SOL     OW16859   3.165   6.196   3.727  0.7883  0.1741 -0.4757
 4272SOL    HW216860   3.155   6.228   3.816 -1.6111  0.0913 -0.6450
 4272SOL    HW316861   3.205   6.270   3.680  0.8804  0.6952  0.3929
 4272SOL    MW416862   3.169   6.210   3.732  0.4839  0.2320 -0.3834
 4273SOL     OW16863   1.636   2.669   0.731  0.0854  0.0981  0.5547
 4273SOL    HW216864   1.574   2.697   0.798 -0.0502  0.7335  0.1775
 4273SOL    HW316865   1.614   2.578   0.714 -0.5270  0.2210  0.6652
 4273SOL    MW416866   1.625   2.661   0.737 -0.0133  0.1981  0.5195
 4274SOL     OW16867   1.646   5.176   5.804  0.2639  0.2243 -0.1295
 4274SOL    HW216868   1.611   5.266   5.804  0.0179  0.1355  0.8025
 4274SOL    HW316869   1.619   5.140   5.888  0.1576 -0.8124 -0.6015
 4274SOL    MW416870   1.638   5.183   5.815  0.2174  0.0758 -0.0688
 4275SOL     OW16871   5.885   5.874   1.906  0.8370 -0.2316 -0.0886
 4275SOL    HW216872   5.943   5.814   1.859 -1.9027 -1.8727 -1.6312
 4275SOL    HW316873   5.913   5.961   1.880  2.3849 -0.9695 -1.0081
 4275SOL    MW416874   5.896   5.877   1.896  0.6798 -0.5455 -0.4135
 4276SOL     OW16875   3.459   4.063   5.224  0.0109 -0.3069  0.1894
 4276SOL    HW216876   3.532   4.018   5.182  1.8288  2.0016  0.6929
 4276SOL    HW316877   3.450   4.022   5.310  0.5198 -0.8103  0.0008
 4276SOL    MW416878   3.467   4.052   5.230  0.3179 -0.0688  0.2310
 4277SOL     OW16879   5.108   3.347   5.101  0.0810 -0.0976 -0.1984
 4277SOL    HW216880   5.055   3.400   5.042 -0.3712  0.0920  0.3784
 4277SOL    HW316881   5.194   3.390   5.100  0.5243 -0.9346 -1.8498
 4277SOL    MW416882   5.113   3.360   5.093  0.0798 -0.1830 -0.3401
 4278SOL     OW16883   3.921   2.842   0.823  0.1307 -0.0299 -0.0337
 4278SOL    HW216884   4.012   2.815   0.816 -0.2679 -1.0779 -1.5153
 4278SOL    HW316885   3.898   2.874   0.736 -0.6520  1.1846  0.5792
 4278SOL    MW416886   3.930   2.843   0.811 -0.0252 -0.0079 -0.1483
 4279SOL     OW16887   2.725   6.075   4.016  0.0574 -0.5199  0.1907
 4279SOL    HW216888   2.630   6.072   4.023 -0.0273 -1.8475 -1.0323
 4279SOL    HW316889   2.744   6.155   3.968 -0.3485  0.2800  1.3200
 4279SOL    MW416890   2.715   6.085   4.011 -0.0073 -0.5895  0.1783
 4280SOL     OW16891   6.109   5.412   1.886  0.4083  0.2884  0.2066
 4280SOL    HW216892   6.037   5.462   1.924 -0.1006  0.8079 -1.3419
 4280SOL    HW316893   6.162   5.384   1.961 -0.5115  1.2783  1.2591
 4280SOL    MW416894   6.106   5.415   1.901  0.2198  0.4876  0.1411
 4281SOL     OW16895   4.781   5.093   4.152  0.1689  0.2067 -0.2970
 4281SOL    HW216896   4.797   5.172   4.203 -1.6407  0.7257 -0.4715
 4281SOL    HW316897   4.735   5.035   4.213 -1.4900  0.6086 -1.0990
 4281SOL    MW416898   4.777   5.096   4.167 -0.2887  0.3282 -0.4258
 4282SOL     OW16899   5.433   0.599   3.459 -0.6619  0.3825 -0.3419
 4282SOL    HW216900   5.488   0.624   3.534  0.6528  1.7317 -1.6699
 4282SOL    HW316901   5.351   0.569   3.498  0.6942 -0.9573  1.7092
 4282SOL    MW416902   5.430   0.598   3.474 -0.3095  0.3838 -0.2465
 4283SOL     OW16903   1.434   6.216   4.402 -0.1415 -0.4760  0.1480
 4283SOL    HW216904   1.486   6.265   4.465  0.4331 -0.5114 -0.2958
 4283SOL    HW316905   1.496   6.156   4.361 -1.0863 -2.7427  1.7938
 4283SOL    MW416906   1.449   6.214   4.405 -0.1903 -0.7797  0.3066
 4284SOL     OW16907   2.693   6.230   4.344 -0.5518  0.1185  0.2411
 4284SOL    HW216908   2.655   6.269   4.265 -0.3002  1.8778  0.9430
 4284SOL    HW316909   2.623   6.176   4.380 -0.4557 -1.2822 -1.5092
 4284SOL    MW416910   2.679   6.228   4.338 -0.5059  0.1658  0.1028
 4285SOL     OW16911   3.440   3.205   1.204  0.1108 -0.1908  0.0239
 4285SOL    HW216912   3.514   3.155   1.170 -0.1595  0.4312 -1.5572
 4285SOL    HW316913   3.470   3.239   1.289  1.5042 -0.2250 -0.4438
 4285SOL    MW416914   3.453   3.203   1.211  0.2590 -0.1133 -0.2464
 4286SOL     OW16915   3.432   1.592   4.986  0.4457 -0.3760 -0.0698
 4286SOL    HW216916   3.437   1.686   5.003 -0.8255 -0.1657 -0.7468
 4286SOL    HW316917   3.511   1.573   4.935  0.0135  0.6270 -1.1617
 4286SOL    MW416918   3.443   1.602   4.981  0.2209 -0.2159 -0.3032
 4287SOL     OW16919   1.164   4.989   5.353 -0.0387 -0.0532 -0.5046
 4287SOL    HW216920   1.101   4.924   5.322 -0.3578  0.3370 -0.6919
 4287SOL    HW316921   1.198   5.029   5.273 -1.6662  1.7202 -0.3894
 4287SOL    MW416922   1.160   4.986   5.338 -0.2955  0.2323 -0.5141
 4288SOL     OW16923   4.999   5.562   1.481  0.2719 -0.1991 -0.3173
 4288SOL    HW216924   4.930   5.606   1.531  1.7769  1.3537  0.5178
 4288SOL    HW316925   5.080   5.584   1.528  1.7287  0.8928 -3.1213
 4288SOL    MW416926   5.001   5.571   1.494  0.6627  0.1498 -0.5771
 4289SOL     OW16927   1.391   2.520   3.285  0.4673 -0.7593  0.2182
 4289SOL    HW216928   1.378   2.537   3.379  1.5056 -0.3942  0.3126
 4289SOL    HW316929   1.343   2.590   3.242 -0.0246 -0.9329  0.4779
 4289SOL    MW416930   1.383   2.532   3.292  0.5394 -0.7340  0.2649
 4290SOL     OW16931   3.258   0.194   6.274  0.2070 -0.4243  0.7381
 4290SOL    HW216932   3.198   0.138   6.226 -0.7356  2.4695 -1.7714
 4290SOL    HW316933   3.202   0.255   6.322  1.1142  0.8104  0.2836
 4290SOL    MW416934   3.243   0.195   6.274  0.2024  0.1204  0.3470
 4291SOL     OW16935   5.601   5.677   5.899 -0.4277 -0.4493 -0.5616
 4291SOL    HW216936   5.594   5.587   5.866 -1.1789 -0.9101  0.7773
 4291SOL    HW316937   5.511   5.701   5.921  0.0913 -0.4380  1.7978
 4291SOL    MW416938   5.588   5.668   5.897 -0.4583 -0.5086 -0.0737
 4292SOL     OW16939   3.803   0.329   3.373 -0.2116  0.6689  0.2844
 4292SOL    HW216940   3.723   0.277   3.369  0.6453 -0.6493 -0.3575
 4292SOL    HW316941   3.837   0.314   3.461  0.0087  0.1635  0.1164
 4292SOL    MW416942   3.797   0.320   3.384 -0.0695  0.4283  0.1775
 4293SOL     OW16943   6.389   3.792   1.529 -0.0206  0.2783 -0.0129
 4293SOL    HW216944   6.337   3.866   1.498 -0.1349  0.0017 -0.4859
 4293SOL    HW316945   6.403   3.811   1.622  1.1216  1.5792 -0.4082
 4293SOL    MW416946   6.384   3.805   1.537  0.1150  0.4135 -0.1275
 4294SOL     OW16947   5.748   4.231   2.076  0.0893  0.1860 -0.3713
 4294SOL    HW216948   5.710   4.282   2.147 -0.5154 -1.6591  0.7087
 4294SOL    HW316949   5.813   4.289   2.037 -0.3576  1.6561  0.9623
 4294SOL    MW416950   5.752   4.245   2.081 -0.0495  0.1365 -0.0528
 4295SOL     OW16951   2.648   0.656   0.017  0.0290  0.5484  0.2384
 4295SOL    HW216952   2.701   0.735   0.025 -0.0181  0.7781 -1.3098
 4295SOL    HW316953   2.697   0.600  -0.043 -1.4682  0.7978 -1.3081
 4295SOL    MW416954   2.661   0.659   0.010 -0.1747  0.6116 -0.1699
 4296SOL     OW16955   5.226   3.337   1.733  0.9245 -0.2527 -0.7047
 4296SOL    HW216956   5.212   3.424   1.695  2.1082  0.8921  1.2983
 4296SOL    HW316957   5.219   3.277   1.658 -2.2633  1.2408 -1.8093
 4296SOL    MW416958   5.223   3.341   1.718  0.6601  0.0954 -0.5862
 4297SOL     OW16959   4.080   5.948   1.692 -0.6874 -0.5744  0.0192
 4297SOL    HW216960   4.085   5.853   1.679 -0.8473 -0.7384  1.0628
 4297SOL    HW316961   4.170   5.974   1.713 -0.8210 -0.6603  0.7232
 4297SOL    MW416962   4.093   5.939   1.693 -0.7261 -0.6074  0.2498
 4298SOL     OW16963   5.806   4.583   2.442 -0.7832 -0.0125  0.3530
 4298SOL    HW216964   5.822   4.642   2.369  3.2080 -1.8040 -0.5271
 4298SOL    HW316965   5.742   4.628   2.496 -1.9414  2.6053 -2.8639
 4298SOL    MW416966   5.800   4.597   2.439 -0.4094  0.0965 -0.1876
 4299SOL     OW16967   5.407   3.118   4.469 -0.1401 -0.1292  0.4947
 4299SOL    HW216968   5.439   3.029   4.481 -0.9274 -0.2542  1.8289
 4299SOL    HW316969   5.314   3.114   4.493 -0.6430  0.6912 -1.1188
 4299SOL    MW416970   5.399   3.106   4.474 -0.3103 -0.0374  0.4578
 4300SOL     OW16971   1.012   1.540   0.874  0.1900  0.3035 -0.1793
 4300SOL    HW216972   0.960   1.553   0.953 -0.6961  1.0808 -0.8625
 4300SOL    HW316973   1.087   1.598   0.885 -1.1669  2.3068 -0.9476
 4300SOL    MW416974   1.015   1.550   0.886 -0.1059  0.6704 -0.3708
 4301SOL     OW16975   0.582   6.236   1.427 -0.0421  0.3712 -0.4556
 4301SOL    HW216976   0.503   6.253   1.375  0.4189  1.5563 -0.8003
 4301SOL    HW316977   0.555   6.253   1.517  0.1617  2.2374 -0.7015
 4301SOL    MW416978   0.568   6.241   1.432  0.0456  0.7738 -0.5335
 4302SOL     OW16979   6.281   6.045   6.226 -0.4004 -0.4109 -0.6905
 4302SOL    HW216980   6.218   6.011   6.289  0.4090 -1.3288 -0.3531
 4302SOL    HW316981   6.230   6.104   6.170 -1.1442  0.4057  0.8014
 4302SOL    MW416982   6.266   6.048   6.227 -0.3918 -0.4243 -0.4492
 4303SOL     OW16983   3.591   4.901   3.788 -0.6084 -0.1003 -0.4746
 4303SOL    HW216984   3.503   4.905   3.823 -0.4524  1.2484 -0.1720
 4303SOL    HW316985   3.624   4.815   3.813 -1.9652 -0.7881 -0.9520
 4303SOL    MW416986   3.584   4.890   3.796 -0.7669 -0.0131 -0.4976
 4304SOL     OW16987   0.132   1.493   2.779 -0.1824 -0.1849 -0.0674
 4304SOL    HW216988   0.067   1.424   2.767 -0.0852 -0.2525 -0.2085
 4304SOL    HW316989   0.214   1.453   2.751  0.3064 -0.7921  2.0228
 4304SOL    MW416990   0.134   1.478   2.774 -0.1051 -0.2739  0.1897
 4305SOL     OW16991   5.201   2.299   5.636  0.2058 -0.4325 -0.2124
 4305SOL    HW216992   5.145   2.273   5.709  1.9278 -0.5561  1.1043
 4305SOL    HW316993   5.271   2.234   5.635 -0.6262 -1.4804 -3.0883
 4305SOL    MW416994   5.203   2.287   5.645  0.3232 -0.5870 -0.4181
 4306SOL     OW16995   3.342   4.174   2.181 -0.1335 -0.4102  0.4628
 4306SOL    HW216996   3.277   4.241   2.201 -1.1100 -1.7265  1.9156
 4306SOL    HW316997   3.355   4.127   2.263  0.1687 -2.2839 -0.5922
 4306SOL    MW416998   3.335   4.177   2.194 -0.2224 -0.8311  0.5153
 4307SOL     OW16999   1.045   4.095   3.247  0.4758 -0.2413 -0.0273
 4307SOL    HW217000   1.075   4.004   3.247 -0.0026 -0.4961 -2.7113
 4307SOL    HW317001   0.952   4.090   3.269  0.6736 -0.2823  0.8131
 4307SOL    MW417002   1.037   4.082   3.250  0.4388 -0.2804 -0.2705
 4308SOL     OW17003   4.124   0.173   3.535 -0.4692  0.0374  0.4847
 4308SOL    HW217004   4.135   0.192   3.442  2.6824 -1.7348  0.3645
 4308SOL    HW317005   4.089   0.084   3.537 -1.4373  0.4159  1.0352
 4308SOL    MW417006   4.121   0.164   3.523 -0.1811 -0.1465  0.5415
 4309SOL     OW17007   1.340   5.436   2.131 -0.1866  0.2113  0.2202
 4309SOL    HW217008   1.318   5.408   2.220  1.5911 -0.1184  0.5778
 4309SOL    HW317009   1.385   5.361   2.093  0.3884  0.8939 -0.4589
 4309SOL    MW417010   1.343   5.423   2.137  0.1238  0.2579  0.1778
 4310SOL     OW17011   3.348   2.307   1.107 -0.6608 -0.0218  0.5580
 4310SOL    HW217012   3.311   2.393   1.127 -0.5836  0.3651 -0.8120
 4310SOL    HW317013   3.337   2.298   1.012 -0.2102 -1.3118  0.6068
 4310SOL    MW417014   3.342   2.317   1.097 -0.5912 -0.1410  0.3837
 4311SOL     OW17015   3.965   0.649   5.435  0.1607  0.6079  0.4858
 4311SOL    HW217016   3.970   0.616   5.346  1.8081 -0.5397  0.9488
 4311SOL    HW317017   3.930   0.737   5.427 -0.0750  0.3830 -1.2455
 4311SOL    MW417018   3.961   0.656   5.422  0.3469  0.4268  0.3184
 4312SOL     OW17019   4.817   4.137   4.473 -0.2197  0.2505 -0.8470
 4312SOL    HW217020   4.910   4.131   4.491 -0.2889  0.4202 -0.4235
 4312SOL    HW317021   4.807   4.215   4.419 -0.2363  0.8306 -0.0278
 4312SOL    MW417022   4.828   4.147   4.468 -0.2310  0.3495 -0.6830
 4313SOL     OW17023   1.827   3.438   3.270  0.1870 -0.4991 -0.4470
 4313SOL    HW217024   1.920   3.424   3.250  0.7294 -0.0195  1.5247
 4313SOL    HW317025   1.787   3.352   3.261  0.8960 -0.7814 -0.9986
 4313SOL    MW417026   1.834   3.425   3.266  0.3521 -0.4731 -0.2597
 4314SOL     OW17027   3.680   4.293   6.137  0.0139  0.0796 -0.1632
 4314SOL    HW217028   3.603   4.255   6.179  0.3066 -2.1566 -1.4557
 4314SOL    HW317029   3.712   4.359   6.198 -2.7643  0.9350  0.5194
 4314SOL    MW417030   3.674   4.297   6.150 -0.3141 -0.1026 -0.2437
 4315SOL     OW17031   4.769   4.209   2.673  0.4191  0.0891  0.5194
 4315SOL    HW217032   4.863   4.229   2.665  0.4956 -0.1551  0.7933
 4315SOL    HW317033   4.759   4.125   2.629  0.2891  0.2156  0.3069
 4315SOL    MW417034   4.780   4.200   2.666  0.4120  0.0736  0.5275
 4316SOL     OW17035   4.399   5.761   1.837 -0.0175  0.5737  0.3238
 4316SOL    HW217036   4.394   5.695   1.768  1.4018  0.5997  0.1567
 4316SOL    HW317037   4.484   5.744   1.880  0.1100  1.9176  0.6533
 4316SOL    MW417038   4.410   5.750   1.834  0.1866  0.7544  0.3452
 4317SOL     OW17039   3.522   1.491   6.336  0.1835  0.5448 -0.0614
 4317SOL    HW217040   3.459   1.419   6.338  0.7594 -0.0739 -2.0410
 4317SOL    HW317041   3.515   1.531   6.423 -1.1040 -1.0604  0.6371
 4317SOL    MW417042   3.513   1.487   6.348  0.0896  0.2514 -0.2304
 4318SOL     OW17043   4.873   6.110   1.157  0.0947  0.2085 -0.1478
 4318SOL    HW217044   4.828   6.087   1.238  0.7335  0.3245  0.2405
 4318SOL    HW317045   4.888   6.027   1.113  3.2264 -0.3216  1.6730
 4318SOL    MW417046   4.869   6.096   1.162  0.5922  0.1539  0.1437
 4319SOL     OW17047   1.906   0.261   1.863 -0.1425 -0.5153 -0.3132
 4319SOL    HW217048   1.960   0.329   1.823  0.8641 -0.6627  0.7425
 4319SOL    HW317049   1.848   0.232   1.793 -1.1472  1.9562 -0.5767
 4319SOL    MW417050   1.905   0.266   1.849 -0.1423 -0.2087 -0.2087
 4320SOL     OW17051   3.395   5.028   5.015  0.3559 -0.3994 -0.1462
 4320SOL    HW217052   3.479   4.994   5.044  0.2051 -0.6937 -0.0548
 4320SOL    HW317053   3.339   5.024   5.093 -0.3936 -2.2663 -0.7364
 4320SOL    MW417054   3.399   5.023   5.029  0.2371 -0.6846 -0.2121
 4321SOL     OW17055   4.623   3.492   0.606  1.2767  0.0206  0.5285
 4321SOL    HW217056   4.530   3.470   0.618  1.6649 -1.4461  1.1342
 4321SOL    HW317057   4.657   3.500   0.695  1.7232  0.6375  0.3088
 4321SOL    MW417058   4.615   3.490   0.620  1.3868 -0.0915  0.5794
 4322SOL     OW17059   5.240   1.276   3.828  0.0829  0.2023 -0.2884
 4322SOL    HW217060   5.246   1.229   3.911  2.5327  1.2715  0.2343
 4322SOL    HW317061   5.315   1.244   3.777  0.1611  1.4702 -1.0099
 4322SOL    MW417062   5.251   1.265   3.832  0.4164  0.5106 -0.3147
 4323SOL     OW17063   5.725   1.653   5.566  0.1167 -0.0310  0.9374
 4323SOL    HW217064   5.644   1.616   5.532  0.4733  0.9377 -1.1714
 4323SOL    HW317065   5.723   1.745   5.540  2.9225 -0.4770 -1.4487
 4323SOL    MW417066   5.714   1.660   5.558  0.5339  0.0380  0.3443
 4324SOL     OW17067   0.319   2.500   3.715 -0.1726  0.0189 -0.2429
 4324SOL    HW217068   0.231   2.464   3.711 -0.0234 -0.7468  2.0357
 4324SOL    HW317069   0.307   2.593   3.730 -0.5408  0.4313 -2.6325
 4324SOL    MW417070   0.306   2.507   3.716 -0.2015 -0.0277 -0.2576
 4325SOL     OW17071   0.889   3.128   0.644 -0.1751  0.1171  0.5943
 4325SOL    HW217072   0.824   3.122   0.713  0.0393  1.5078  0.9421
 4325SOL    HW317073   0.845   3.094   0.566 -0.8405 -0.2691  1.1337
 4325SOL    MW417074   0.875   3.123   0.643 -0.2346  0.2496  0.7113
 4326SOL     OW17075   1.584   3.434   6.308  0.3007 -0.1601  0.0293
 4326SOL    HW217076   1.575   3.379   6.230 -1.2204 -1.4718  1.0496
 4326SOL    HW317077   1.621   3.375   6.374  0.5724  0.6304  0.5962
 4326SOL    MW417078   1.588   3.419   6.306  0.1359 -0.2289  0.2387
 4327SOL     OW17079   3.325   5.595   2.194  0.4679  0.8185 -0.8120
 4327SOL    HW217080   3.315   5.531   2.265 -0.1988  1.8953  0.0817
 4327SOL    HW317081   3.238   5.634   2.184 -0.3906 -1.4781 -4.4055
 4327SOL    MW417082   3.312   5.592   2.202  0.2667  0.6576 -1.1682
 4328SOL     OW17083   4.735   1.894   4.244 -0.4061 -0.5605 -0.2242
 4328SOL    HW217084   4.757   1.984   4.222 -1.1673 -0.6871 -1.6298
 4328SOL    HW317085   4.815   1.845   4.228  0.7162  0.1280  2.7074
 4328SOL    MW417086   4.748   1.899   4.239 -0.3585 -0.4863 -0.0228
 4329SOL     OW17087   2.293   5.298   5.012  0.7393  0.4268 -0.8439
 4329SOL    HW217088   2.306   5.248   5.093  1.4059  1.0918 -0.5250
 4329SOL    HW317089   2.360   5.264   4.952 -0.0000 -0.3280 -1.2487
 4329SOL    MW417090   2.304   5.287   5.015  0.7297  0.4149 -0.8552
 4330SOL     OW17091   3.356   4.128   1.327 -0.4499 -0.4882  0.3339
 4330SOL    HW217092   3.277   4.106   1.278 -0.1791  0.3061 -0.4841
 4330SOL    HW317093   3.366   4.223   1.315  0.7621 -0.6149  0.2047
 4330SOL    MW417094   3.347   4.138   1.319 -0.2543 -0.4001  0.2089
 4331SOL     OW17095   2.288   0.663   0.972 -0.3021  0.0116  0.4772
 4331SOL    HW217096   2.246   0.617   0.899 -0.2903  0.2254  0.3330
 4331SOL    HW317097   2.380   0.639   0.966  0.4052  2.7268 -1.7313
 4331SOL    MW417098   2.294   0.654   0.961 -0.2072  0.3981  0.1668
 4332SOL     OW17099   0.388   4.784   0.912  0.4787 -0.4987 -0.0898
 4332SOL    HW217100   0.465   4.774   0.969  0.1938 -0.4973  0.2966
 4332SOL    HW317101   0.313   4.771   0.970  0.1687  0.2151 -0.3243
 4332SOL    MW417102   0.389   4.781   0.927  0.4002 -0.4043 -0.0697
 4333SOL     OW17103   1.081   5.986   0.749  0.9012 -0.1007 -0.3930
 4333SOL    HW217104   1.128   5.952   0.673  2.8103 -0.1457  0.7379
 4333SOL    HW317105   1.068   6.079   0.729  2.1395  0.0794 -0.4571
 4333SOL    MW417106   1.085   5.994   0.737  1.3165 -0.0829 -0.2523
 4334SOL     OW17107   0.095   4.437   2.092  0.4329  0.3766  0.3054
 4334SOL    HW217108   0.162   4.504   2.074 -1.1778  2.1374  0.5258
 4334SOL    HW317109   0.056   4.464   2.175 -1.1043 -0.1046 -0.2200
 4334SOL    MW417110   0.099   4.449   2.101  0.0176  0.5455  0.2651
 4335SOL     OW17111   3.030   5.836   6.411 -0.0180  0.1424  0.2809
 4335SOL    HW217112   3.064   5.835   6.321  2.8817  0.0418  1.2891
 4335SOL    HW317113   3.037   5.745   6.440 -1.8208 -0.0053  0.3604
 4335SOL    MW417114   3.035   5.824   6.403  0.1267  0.1097  0.4244
 4336SOL     OW17115   4.530   5.621   5.539  0.4149  0.6200  0.3257
 4336SOL    HW217116   4.495   5.642   5.453 -0.1671 -1.1526  0.0921
 4336SOL    HW317117   4.452   5.612   5.595  0.7345  0.6902  0.7914
 4336SOL    MW417118   4.515   5.623   5.535  0.3803  0.3954  0.3563
 4337SOL     OW17119   3.961   4.320   4.361 -0.0829 -0.1615 -0.5500
 4337SOL    HW217120   4.048   4.340   4.326  0.6128 -1.3184  0.4430
 4337SOL    HW317121   3.949   4.227   4.343 -1.1949  0.0153 -0.7937
 4337SOL    MW417122   3.971   4.311   4.354 -0.1378 -0.2908 -0.4511
 4338SOL     OW17123   4.875   6.090   0.369  0.0215 -0.3982 -0.2425
 4338SOL    HW217124   4.923   6.008   0.384 -1.3517 -1.4233 -1.2218
 4338SOL    HW317125   4.808   6.091   0.438  0.8813  0.6001  0.5989
 4338SOL    MW417126   4.872   6.079   0.380 -0.0462 -0.4017 -0.2607
 4339SOL     OW17127   3.727   3.063   5.687  0.5123  0.4464 -0.4893
 4339SOL    HW217128   3.754   3.019   5.767  0.0542  0.4815 -0.3123
 4339SOL    HW317129   3.698   3.149   5.715 -0.8509  0.0193 -0.5128
 4339SOL    MW417130   3.727   3.068   5.701  0.2720  0.3947 -0.4691
 4340SOL     OW17131   1.655   2.532   4.861  0.3108 -0.0553 -0.0547
 4340SOL    HW217132   1.694   2.447   4.879 -2.1723 -1.3558 -0.4058
 4340SOL    HW317133   1.668   2.582   4.942  2.7191 -0.3258 -0.2050
 4340SOL    MW417134   1.662   2.528   4.874  0.3009 -0.2626 -0.1209
 4341SOL     OW17135   3.069   5.255   5.086  0.3773  0.6069 -0.6780
 4341SOL    HW217136   3.129   5.230   5.157 -1.2582  1.1574  1.0052
 4341SOL    HW317137   3.074   5.183   5.024 -0.5956 -1.6413  1.6505
 4341SOL    MW417138   3.078   5.243   5.087  0.0331  0.3829 -0.1487
 4342SOL     OW17139   5.967   4.493   0.911 -0.1674 -0.0032  0.1630
 4342SOL    HW217140   6.032   4.561   0.891  0.3178 -1.2476 -2.9379
 4342SOL    HW317141   6.018   4.422   0.949 -0.0864 -0.0449 -0.0222
 4342SOL    MW417142   5.982   4.493   0.914 -0.0927 -0.1729 -0.2706
 4343SOL     OW17143   5.463   5.677   1.325  0.2703 -0.0128 -0.1243
 4343SOL    HW217144   5.445   5.727   1.405 -1.7462  0.2388 -0.6903
 4343SOL    HW317145   5.559   5.683   1.315  0.3689  1.5742  1.2207
 4343SOL    MW417146   5.474   5.685   1.334  0.0172  0.2298 -0.0215
 4344SOL     OW17147   1.346   2.418   4.196  0.3335  0.3807  0.2824
 4344SOL    HW217148   1.324   2.326   4.182  0.3591  0.6094 -1.4150
 4344SOL    HW317149   1.273   2.452   4.247 -0.1717 -0.3385  0.0586
 4344SOL    MW417150   1.333   2.410   4.201  0.2702  0.3160  0.0289
 4345SOL     OW17151   1.035   2.570   6.168 -0.1630 -0.2949  0.4537
 4345SOL    HW217152   1.115   2.519   6.154  0.5710  1.0807 -0.5878
 4345SOL    HW317153   0.983   2.554   6.089  0.2834  0.8901 -0.1073
 4345SOL    MW417154   1.039   2.561   6.156 -0.0073  0.0429  0.2423
 4346SOL     OW17155   3.290   2.617   3.998  0.0622  0.3886  0.1280
 4346SOL    HW217156   3.303   2.557   3.925  0.5573  0.3691  0.2272
 4346SOL    HW317157   3.368   2.672   3.998  0.9478 -0.7880  1.7604
 4346SOL    MW417158   3.302   2.617   3.989  0.2444  0.2308  0.3565
 4347SOL     OW17159   4.966   1.695   4.855 -0.5706  0.5165 -0.0063
 4347SOL    HW217160   4.987   1.681   4.763  0.6447 -0.0978  0.3445
 4347SOL    HW317161   5.004   1.620   4.900 -1.0210  0.8820  1.0182
 4347SOL    MW417162   4.974   1.683   4.849 -0.4697  0.4837  0.1751
 4348SOL     OW17163   5.864   6.219   2.502 -0.4492 -0.2891  0.1586
 4348SOL    HW217164   5.826   6.192   2.586  1.8144 -1.4857  0.8679
 4348SOL    HW317165   5.900   6.138   2.466  0.0834  0.5292 -1.1866
 4348SOL    MW417166   5.864   6.205   2.508 -0.0803 -0.3390  0.0747
 4349SOL     OW17167   3.224   2.006   5.406 -0.5949  0.0037 -0.1210
 4349SOL    HW217168   3.176   1.933   5.444  0.0742 -0.6746 -0.5526
 4349SOL    HW317169   3.244   2.063   5.480  0.8614 -1.3869  0.6220
 4349SOL    MW417170   3.220   2.004   5.420 -0.3145 -0.2693 -0.0799
 4350SOL     OW17171   4.584   1.644   1.239 -0.1729 -0.0408  0.0168
 4350SOL    HW217172   4.663   1.675   1.282  0.1964 -0.2925 -0.4661
 4350SOL    HW317173   4.521   1.714   1.251  0.5711  0.7975 -0.8486
 4350SOL    MW417174   4.586   1.657   1.246 -0.0260  0.0366 -0.1611
 4351SOL     OW17175   5.301   5.170   4.782 -0.7938  0.0464 -0.3081
 4351SOL    HW217176   5.234   5.103   4.771 -1.3337  0.8255 -2.1756
 4351SOL    HW317177   5.376   5.139   4.731 -1.5580  1.4465 -2.4229
 4351SOL    MW417178   5.302   5.157   4.774 -0.9658  0.3340 -0.8335
 4352SOL     OW17179   2.883   6.116   3.330 -0.4320 -0.0105 -0.0209
 4352SOL    HW217180   2.866   6.021   3.331  0.9503 -0.2960 -0.6696
 4352SOL    HW317181   2.907   6.135   3.239  0.5133  0.7189  0.3629
 4352SOL    MW417182   2.884   6.106   3.318 -0.1249  0.0480 -0.0559
 4353SOL     OW17183   3.625   3.860   2.533  0.1883  0.5870 -0.4619
 4353SOL    HW217184   3.679   3.800   2.482  1.8726  1.1984  0.5014
 4353SOL    HW317185   3.564   3.804   2.579  1.3809 -0.3751  0.0151
 4353SOL    MW417186   3.624   3.845   2.532  0.5679  0.5408 -0.2719
 4354SOL     OW17187   5.705   3.453   0.230  0.3455  0.4611  0.1170
 4354SOL    HW217188   5.791   3.495   0.225  0.4167  0.2358 -0.7334
 4354SOL    HW317189   5.643   3.522   0.205  0.3461  0.4316  0.0322
 4354SOL    MW417190   5.708   3.467   0.226  0.3549  0.4275 -0.0064
 4355SOL     OW17191   4.052   5.300   1.702  0.8427 -0.2010 -0.2307
 4355SOL    HW217192   3.961   5.321   1.686  1.1252  0.3856 -1.1448
 4355SOL    HW317193   4.056   5.204   1.697  0.0641 -0.3395  1.1367
 4355SOL    MW417194   4.041   5.290   1.700  0.7773 -0.1419 -0.1709
 4356SOL     OW17195   4.093   2.123   5.995 -0.1137 -0.5641  0.2056
 4356SOL    HW217196   4.092   2.214   5.963  2.1924 -1.0562 -1.6064
 4356SOL    HW317197   4.144   2.127   6.076 -0.3945 -0.1764  0.3662
 4356SOL    MW417198   4.100   2.136   6.001  0.1535 -0.5779 -0.0123
 4357SOL     OW17199   0.688   5.913   0.683  0.7992  0.5977 -0.2964
 4357SOL    HW217200   0.640   5.945   0.760  1.1413  0.4200 -0.0032
 4357SOL    HW317201   0.621   5.878   0.625  0.6531 -0.6352  0.5786
 4357SOL    MW417202   0.673   5.913   0.686  0.8251  0.4116 -0.1423
 4358SOL     OW17203   1.740   0.507   1.309 -0.7777  0.1278  0.5271
 4358SOL    HW217204   1.665   0.542   1.261  0.7343  2.3216 -0.4058
 4358SOL    HW317205   1.719   0.523   1.401 -1.7370  0.0712  0.3293
 4358SOL    MW417206   1.727   0.514   1.315 -0.7048  0.4097  0.3779
 4359SOL     OW17207   0.935   3.715   5.472  1.0002 -0.2273  0.1335
 4359SOL    HW217208   1.030   3.706   5.470  0.8739 -2.1800  0.2157
 4359SOL    HW317209   0.907   3.649   5.536 -0.3700  0.8259  0.6585
 4359SOL    MW417210   0.944   3.705   5.480  0.8028 -0.3460  0.2136
 4360SOL     OW17211   4.621   1.234   1.084  0.1203 -0.5329  0.4764
 4360SOL    HW217212   4.595   1.308   1.029  3.3051 -0.9725 -1.9357
 4360SOL    HW317213   4.667   1.274   1.157  2.5084  0.0317 -1.2077
 4360SOL    MW417214   4.624   1.249   1.086  0.8556 -0.5164 -0.0640
 4361SOL     OW17215   2.771   2.038   5.619 -0.2811 -0.2403  0.0705
 4361SOL    HW217216   2.862   2.067   5.628 -0.6406  1.5422 -1.5279
 4361SOL    HW317217   2.756   1.983   5.696  1.3335  1.5324  1.7571
 4361SOL    MW417218   2.781   2.034   5.630 -0.1155  0.2288  0.0821
 4362SOL     OW17219   4.677   2.800   0.589 -0.2165  0.0695 -0.0191
 4362SOL    HW217220   4.627   2.827   0.666 -2.7530 -0.2745 -1.4211
 4362SOL    HW317221   4.668   2.873   0.528 -0.5326 -0.7492 -0.9667
 4362SOL    MW417222   4.669   2.813   0.591 -0.5928 -0.0839 -0.3291
 4363SOL     OW17223   0.173   5.433   5.548  0.5212 -0.4723 -0.0303
 4363SOL    HW217224   0.152   5.445   5.456  0.5030 -0.3773 -0.0138
 4363SOL    HW317225   0.092   5.455   5.594  0.1989 -1.5324 -0.0510
 4363SOL    MW417226   0.159   5.437   5.542  0.4763 -0.5996 -0.0308
 4364SOL     OW17227   0.534   6.287   1.752  0.2175  0.6997 -0.4558
 4364SOL    HW217228   0.468   6.355   1.740  0.1239  0.4253 -1.6064
 4364SOL    HW317229   0.521   6.256   1.841 -0.8000  1.0638 -0.4696
 4364SOL    MW417230   0.524   6.292   1.762  0.0709  0.7115 -0.6094
 4365SOL     OW17231   4.373   4.839   1.271 -0.0365 -0.1375 -0.2145
 4365SOL    HW217232   4.286   4.854   1.233 -0.5687 -1.5169  0.3792
 4365SOL    HW317233   4.416   4.781   1.208 -0.7735 -2.1015  0.9867
 4365SOL    MW417234   4.367   4.833   1.257 -0.2039 -0.5786  0.0223
 4366SOL     OW17235   3.828   5.332   4.116  0.2285  0.0770  0.2713
 4366SOL    HW217236   3.767   5.264   4.089 -0.5569  0.1394  1.7617
 4366SOL    HW317237   3.906   5.285   4.145 -0.4027 -0.2484  1.5319
 4366SOL    MW417238   3.830   5.317   4.116  0.0416  0.0423  0.6343
 4367SOL     OW17239   5.709   4.395   2.661  0.2101 -0.3564  0.1131
 4367SOL    HW217240   5.725   4.362   2.573  0.5590 -3.3008  1.1561
 4367SOL    HW317241   5.791   4.379   2.708  0.3210  1.9459  0.8124
 4367SOL    MW417242   5.722   4.389   2.656  0.2708 -0.4411  0.3430
 4368SOL     OW17243   5.002   0.865   0.918 -0.5056 -0.2357  0.3933
 4368SOL    HW217244   4.967   0.777   0.904  2.2812 -1.1111 -1.9760
 4368SOL    HW317245   4.966   0.892   1.003 -4.0987 -2.2453 -0.3083
 4368SOL    MW417246   4.993   0.857   0.928 -0.6120 -0.6164 -0.0119
 4369SOL     OW17247   1.479   3.403   2.633 -0.6639 -0.5675  0.2386
 4369SOL    HW217248   1.416   3.466   2.598  0.3646  0.7809  0.7200
 4369SOL    HW317249   1.430   3.321   2.641 -1.5991 -0.2914 -1.9614
 4369SOL    MW417250   1.465   3.400   2.629 -0.6516 -0.3532  0.0119
 4370SOL     OW17251   6.073   2.047   1.054  0.2109 -0.6092 -0.0065
 4370SOL    HW217252   6.019   2.034   1.132 -0.8038 -0.3810 -0.6519
 4370SOL    HW317253   6.077   2.142   1.044  0.8431 -0.6240  0.1081
 4370SOL    MW417254   6.066   2.058   1.063  0.1604 -0.5810 -0.0766
 4371SOL     OW17255   6.105   3.791   0.697 -0.4218 -0.3973  0.3859
 4371SOL    HW217256   6.031   3.845   0.724  0.9711  1.5627  0.5110
 4371SOL    HW317257   6.087   3.770   0.605 -0.5944  1.0380  0.0725
 4371SOL    MW417258   6.093   3.795   0.688 -0.2608  0.0507  0.3610
 4372SOL     OW17259   5.135   3.903   5.383  0.5311 -0.1272 -0.0619
 4372SOL    HW217260   5.051   3.923   5.425  0.7659  0.0517  0.3310
 4372SOL    HW317261   5.173   3.834   5.437  0.6454 -0.1970 -0.2296
 4372SOL    MW417262   5.128   3.897   5.396  0.5771 -0.1128 -0.0322
 4373SOL     OW17263   2.329   3.619   3.560  0.4649  0.3237 -0.1163
 4373SOL    HW217264   2.327   3.705   3.517 -1.1592  1.1346  1.3995
 4373SOL    HW317265   2.294   3.559   3.495 -1.5787  1.4454 -0.1760
 4373SOL    MW417266   2.324   3.623   3.546 -0.0190  0.5787  0.0758
 4374SOL     OW17267   0.706   3.489   5.370  0.1361 -0.0214 -0.0294
 4374SOL    HW217268   0.636   3.549   5.343 -1.0939 -0.3448  2.2166
 4374SOL    HW317269   0.770   3.546   5.414 -0.6807 -0.2292  1.4601
 4374SOL    MW417270   0.705   3.505   5.372 -0.1339 -0.0915  0.4635
 4375SOL     OW17271   3.322   2.497   1.614  0.2363 -0.9212 -0.5186
 4375SOL    HW217272   3.262   2.429   1.646  0.5491 -1.4201 -0.9566
 4375SOL    HW317273   3.345   2.548   1.691  0.6403 -1.8314 -0.0234
 4375SOL    MW417274   3.317   2.494   1.628  0.3309 -1.1071 -0.5110
 4376SOL     OW17275   3.376   1.073   4.639  0.3136  0.4496  0.1437
 4376SOL    HW217276   3.386   0.985   4.676 -0.0079 -0.1599 -1.1617
 4376SOL    HW317277   3.457   1.117   4.662  0.9326 -0.5337 -0.0750
 4376SOL    MW417278   3.388   1.067   4.647  0.3529  0.2394 -0.0574
 4377SOL     OW17279   0.361   0.528   0.105 -0.8203  0.0215  0.4152
 4377SOL    HW217280   0.347   0.597   0.040 -2.5859 -1.2286 -0.6374
 4377SOL    HW317281   0.303   0.551   0.178  0.0341  0.6422  0.9031
 4377SOL    MW417282   0.351   0.540   0.106 -0.9405 -0.0615  0.3407
 4378SOL     OW17283   1.437   0.081   5.305  0.6226  0.1806  0.1231
 4378SOL    HW217284   1.383   0.024   5.360  2.0760 -0.5113  0.8978
 4378SOL    HW317285   1.464   0.025   5.233  1.4670  0.0813  0.5049
 4378SOL    MW417286   1.434   0.066   5.303  0.9258  0.0762  0.2757
 4379SOL     OW17287   2.999   5.536   1.170 -0.5524 -0.3501  0.4549
 4379SOL    HW217288   3.066   5.576   1.115 -0.4276  0.4872  1.2020
 4379SOL    HW317289   3.045   5.512   1.251 -0.8254 -1.1660  0.3816
 4379SOL    MW417290   3.014   5.538   1.174 -0.5720 -0.3473  0.5438
 4380SOL     OW17291   3.269   4.510   0.292  0.0529 -0.7123  0.1750
 4380SOL    HW217292   3.192   4.561   0.267  0.3871 -1.3702 -2.4409
 4380SOL    HW317293   3.237   4.420   0.299  0.3306 -0.8013  0.3290
 4380SOL    MW417294   3.255   4.505   0.290  0.1336 -0.8109 -0.1498
 4381SOL     OW17295   3.594   2.585   5.136 -0.3375 -0.1026  0.1089
 4381SOL    HW217296   3.602   2.634   5.218 -0.6387 -1.1942  0.8115
 4381SOL    HW317297   3.537   2.511   5.158  1.7469 -1.9460 -0.3772
 4381SOL    MW417298   3.587   2.582   5.150 -0.1022 -0.4898  0.1375
 4382SOL     OW17299   5.340   0.437   2.296  0.2247 -0.2748 -0.0997
 4382SOL    HW217300   5.283   0.445   2.220  0.1565 -2.1928 -0.3096
 4382SOL    HW317301   5.281   0.407   2.366  0.7022 -0.9213  0.0397
 4382SOL    MW417302   5.325   0.434   2.295  0.2787 -0.6132 -0.1090
 4383SOL     OW17303   2.594   1.741   5.137 -0.1301 -0.2402  0.1661
 4383SOL    HW217304   2.568   1.651   5.157 -1.0859  0.1841  0.8759
 4383SOL    HW317305   2.643   1.770   5.214  0.7098 -0.3382 -0.3129
 4383SOL    MW417306   2.597   1.733   5.149 -0.1454 -0.1971  0.1966
 4384SOL     OW17307   3.840   5.971   3.878 -0.6247  0.2341  0.3336
 4384SOL    HW217308   3.768   5.983   3.816 -2.1923 -1.0601  1.8067
 4384SOL    HW317309   3.798   5.973   3.964  1.4191  1.4441  1.3751
 4384SOL    MW417310   3.825   5.973   3.881 -0.5619  0.2230  0.6654
 4385SOL     OW17311   3.484   1.666   5.452 -0.2675 -0.0934  0.2518
 4385SOL    HW217312   3.494   1.607   5.377  0.5429  0.7700 -0.3477
 4385SOL    HW317313   3.476   1.608   5.528 -0.1519 -0.9737 -0.3946
 4385SOL    MW417314   3.484   1.650   5.452 -0.1453 -0.0956  0.0874
 4386SOL     OW17315   2.459   0.399   5.051  0.3692  0.0095  0.2041
 4386SOL    HW217316   2.498   0.486   5.057  1.8741 -0.6480  0.3202
 4386SOL    HW317317   2.515   0.351   4.990  0.3493 -1.2626  1.1317
 4386SOL    MW417318   2.471   0.404   5.044  0.5651 -0.2451  0.3418
 4387SOL     OW17319   4.939   4.588   3.061 -0.1692 -0.1777  0.2666
 4387SOL    HW217320   4.880   4.582   3.136 -0.7028 -1.5046 -0.2266
 4387SOL    HW317321   4.885   4.567   2.985  0.1906  1.8028 -0.6241
 4387SOL    MW417322   4.924   4.585   3.061 -0.1922 -0.0915  0.0840
 4388SOL     OW17323   6.169   2.068   1.752 -0.1296  0.1504 -0.6549
 4388SOL    HW217324   6.256   2.104   1.773  0.3083 -1.3677  0.3041
 4388SOL    HW317325   6.184   2.013   1.676 -0.4001  0.4256 -0.9091
 4388SOL    MW417326   6.183   2.066   1.745 -0.1075 -0.0136 -0.5619
 4389SOL     OW17327   5.879   3.954   0.740 -0.0340  0.5555  0.2215
 4389SOL    HW217328   5.819   3.989   0.674  0.0002  0.2975  0.0523
 4389SOL    HW317329   5.893   4.026   0.801  0.0941  0.8643 -0.1683
 4389SOL    MW417330   5.873   3.968   0.739 -0.0126  0.5622  0.1477
 4390SOL     OW17331   2.369   5.971   0.316  0.0138 -0.3571 -0.2008
 4390SOL    HW217332   2.450   6.000   0.276  0.4558  0.2353  1.0674
 4390SOL    HW317333   2.335   5.904   0.256  1.1624 -0.2519 -1.0029
 4390SOL    MW417334   2.375   5.966   0.303  0.2236 -0.2651 -0.1393
 4391SOL     OW17335   1.949   6.195   3.084  0.2238  0.4239  0.1141
 4391SOL    HW217336   1.890   6.219   3.155 -0.6920  1.6317 -1.0065
 4391SOL    HW317337   1.955   6.100   3.089  0.4190  0.4851  1.9558
 4391SOL    MW417338   1.942   6.186   3.094  0.1287  0.5913  0.2092
 4392SOL     OW17339   2.818   3.730   2.858  0.2942 -0.1242 -0.0616
 4392SOL    HW217340   2.758   3.713   2.930 -1.4960  1.7078 -1.0163
 4392SOL    HW317341   2.793   3.816   2.825  0.4697 -1.1605 -3.3412
 4392SOL    MW417342   2.807   3.739   2.863  0.0812 -0.0192 -0.6203
 4393SOL     OW17343   4.164   4.134   3.431  0.7370 -1.2097 -0.1903
 4393SOL    HW217344   4.157   4.222   3.396  3.1200 -0.8099  0.1819
 4393SOL    HW317345   4.083   4.090   3.402 -0.1386  0.8305 -1.0184
 4393SOL    MW417346   4.152   4.140   3.423  0.9359 -0.8878 -0.2504
 4394SOL     OW17347   6.147   0.447   3.804 -0.0015 -0.4718  0.4505
 4394SOL    HW217348   6.144   0.509   3.731 -0.4182 -2.2999 -1.1592
 4394SOL    HW317349   6.226   0.471   3.853  1.2177 -0.1870 -1.5591
 4394SOL    MW417350   6.157   0.458   3.801  0.1044 -0.6755 -0.0271
 4395SOL     OW17351   5.714   2.625   4.470 -0.8229 -0.8140  0.7532
 4395SOL    HW217352   5.753   2.711   4.456 -0.8630 -0.5287  2.2904
 4395SOL    HW317353   5.630   2.629   4.425 -0.8814 -0.0036  0.9216
 4395SOL    MW417354   5.708   2.637   4.462 -0.8359 -0.6694  0.9783
 4396SOL     OW17355   5.425   0.236   0.242  0.1563  0.3902 -0.2342
 4396SOL    HW217356   5.417   0.257   0.335 -0.8655  0.7273 -0.3798
 4396SOL    HW317357   5.503   0.281   0.213  0.3430  0.4891  0.4080
 4396SOL    MW417358   5.434   0.245   0.251  0.0462  0.4477 -0.1687
 4397SOL     OW17359   0.327   3.419   4.443  0.2576  0.3081 -0.0806
 4397SOL    HW217360   0.413   3.433   4.482 -0.4975 -0.5369  2.0516
 4397SOL    HW317361   0.326   3.326   4.419 -0.8214 -0.3117  2.1176
 4397SOL    MW417362   0.338   3.408   4.445  0.0156  0.1148  0.4907
 4398SOL     OW17363   2.593   2.015   2.065  0.0201 -0.4675 -0.5022
 4398SOL    HW217364   2.621   1.945   2.006 -0.1313 -0.0984 -1.0208
 4398SOL    HW317365   2.551   1.969   2.138  3.1517 -1.1800  1.0680
 4398SOL    MW417366   2.591   2.000   2.067  0.4133 -0.5128 -0.3635
 4399SOL     OW17367   4.333   3.357   0.978 -0.1757  0.4885  0.0720
 4399SOL    HW217368   4.264   3.415   0.945  0.8153  1.9514  0.4646
 4399SOL    HW317369   4.349   3.387   1.067 -1.0832 -1.7965  1.0899
 4399SOL    MW417370   4.326   3.369   0.985 -0.1647  0.3800  0.2581
 4400SOL     OW17371   1.878   2.940   1.268 -0.5285  0.1671  0.0248
 4400SOL    HW217372   1.854   2.852   1.299 -0.7025  0.7821  1.7724
 4400SOL    HW317373   1.809   2.997   1.302  0.3107  1.1662  0.1026
 4400SOL    MW417374   1.865   2.936   1.277 -0.4408  0.3800  0.2656
 4401SOL     OW17375   3.037   1.893   0.825 -0.6767  0.0506 -0.5144
 4401SOL    HW217376   3.051   1.972   0.878  0.7333 -1.1991  1.0698
 4401SOL    HW317377   2.975   1.841   0.876  1.0617 -1.3825  0.2730
 4401SOL    MW417378   3.031   1.897   0.839 -0.2613 -0.3033 -0.2015
 4402SOL     OW17379   3.579   5.038   4.377  0.2262 -0.2585  0.3145
 4402SOL    HW217380   3.574   4.962   4.435  2.9996 -0.7152  0.0760
 4402SOL    HW317381   3.608   5.003   4.293 -1.0443  0.7642 -0.6045
 4402SOL    MW417382   3.582   5.023   4.373  0.4245 -0.1838  0.1618
 4403SOL     OW17383   1.152   0.331   0.230 -0.2779  0.4100 -0.1464
 4403SOL    HW217384   1.142   0.261   0.294 -0.7325  0.4675 -0.1532
 4403SOL    HW317385   1.138   0.412   0.279 -0.5651  0.4571 -0.3042
 4403SOL    MW417386   1.149   0.333   0.245 -0.3757  0.4238 -0.1681
 4404SOL     OW17387   3.475   0.609   5.688 -0.1439  0.1980  0.1821
 4404SOL    HW217388   3.535   0.672   5.650 -0.3663 -0.6325 -1.7010
 4404SOL    HW317389   3.445   0.649   5.770  1.8723  1.2249  0.4707
 4404SOL    MW417390   3.479   0.622   5.694  0.0927  0.2239 -0.0283
 4405SOL     OW17391   5.227   4.653   0.697 -0.2276 -0.1724 -0.2160
 4405SOL    HW217392   5.153   4.683   0.644 -0.4973  0.4620  0.5067
 4405SOL    HW317393   5.236   4.719   0.766  1.2260 -0.0586 -0.4792
 4405SOL    MW417394   5.219   4.666   0.699 -0.0714 -0.0737 -0.1554
 4406SOL     OW17395   3.407   0.937   5.958  0.5646 -0.0209 -0.0617
 4406SOL    HW217396   3.394   0.843   5.945  2.4667 -0.2640 -0.4790
 4406SOL    HW317397   3.388   0.976   5.873  1.5588 -0.2649 -0.4123
 4406SOL    MW417398   3.403   0.930   5.945  0.9468 -0.0852 -0.1630
 4407SOL     OW17399   2.112   0.701   3.080 -0.3333  0.1858 -0.3486
 4407SOL    HW217400   2.025   0.678   3.112  0.1626 -2.0991 -0.4601
 4407SOL    HW317401   2.106   0.692   2.985  0.1119 -0.4092 -0.3294
 4407SOL    MW417402   2.100   0.697   3.072 -0.2091 -0.1942 -0.3608
 4408SOL     OW17403   5.331   5.751   2.935  0.6727  0.2751 -0.0572
 4408SOL    HW217404   5.308   5.661   2.911  2.1448 -0.8533  2.4290
 4408SOL    HW317405   5.423   5.759   2.909  1.1615  0.3079  1.6052
 4408SOL    MW417406   5.340   5.740   2.928  0.9314  0.1305  0.4902
 4409SOL     OW17407   2.561   5.048   2.359  0.1501  0.0804  0.5059
 4409SOL    HW217408   2.486   5.004   2.318  0.0509 -0.5055  1.2744
 4409SOL    HW317409   2.528   5.074   2.446  0.6125  0.4964  0.5593
 4409SOL    MW417410   2.547   5.046   2.365  0.1980  0.0580  0.6143
 4410SOL     OW17411   5.819   1.674   3.249  0.3342 -0.2613  0.3443
 4410SOL    HW217412   5.852   1.592   3.285 -0.0364  0.4767  2.5258
 4410SOL    HW317413   5.877   1.741   3.286  0.9005  0.4849 -1.7397
 4410SOL    MW417414   5.831   1.672   3.258  0.3600 -0.0655  0.3572
 4411SOL     OW17415   1.130   5.022   1.595 -0.6431  0.4161 -0.0960
 4411SOL    HW217416   1.038   5.038   1.615 -1.4879 -0.5942 -2.7864
 4411SOL    HW317417   1.157   5.098   1.543 -1.1011 -0.9193 -2.4191
 4411SOL    MW417418   1.121   5.034   1.591 -0.8150  0.1066 -0.7574
 4412SOL     OW17419   1.245   5.317   5.751  0.2753  0.1355  0.4355
 4412SOL    HW217420   1.201   5.372   5.817  0.5073 -1.4721  2.0136
 4412SOL    HW317421   1.181   5.309   5.680 -1.3962 -0.8370  1.9620
 4412SOL    MW417422   1.230   5.323   5.751  0.0854 -0.2049  0.8451
 4413SOL     OW17423   4.570   3.480   2.929  0.2280  0.2927  0.1304
 4413SOL    HW217424   4.521   3.400   2.947  0.0775  0.3965  0.1842
 4413SOL    HW317425   4.660   3.459   2.955  0.5919 -0.4957 -1.6283
 4413SOL    MW417426   4.576   3.467   2.935  0.2561  0.2024 -0.0945
 4414SOL     OW17427   0.785   2.241   0.986 -0.8999  0.1602 -0.5917
 4414SOL    HW217428   0.719   2.196   0.933 -0.0553 -0.5109 -1.1076
 4414SOL    HW317429   0.864   2.188   0.975 -0.5156  0.4219  0.7708
 4414SOL    MW417430   0.787   2.228   0.978 -0.7378  0.1062 -0.4800
 4415SOL     OW17431   5.343   4.226   3.653  0.2473  0.3743  0.2495
 4415SOL    HW217432   5.432   4.246   3.683  0.4967  1.1850 -0.9562
 4415SOL    HW317433   5.356   4.173   3.575 -0.3554 -0.3842  0.6612
 4415SOL    MW417434   5.357   4.222   3.647  0.2007  0.3812  0.1447
 4416SOL     OW17435   1.296   0.696   5.409 -0.1922  0.4898  0.6904
 4416SOL    HW217436   1.297   0.764   5.476  2.8036 -0.5993  1.9188
 4416SOL    HW317437   1.374   0.643   5.427 -1.1973 -1.9817 -1.5273
 4416SOL    MW417438   1.306   0.698   5.421  0.0705  0.0200  0.5599
 4417SOL     OW17439   0.944   5.755   2.562  0.2916 -0.6793  0.1345
 4417SOL    HW217440   0.970   5.676   2.515  1.9183  0.3639 -0.7936
 4417SOL    HW317441   0.871   5.791   2.511  1.8340  0.2749 -1.5005
 4417SOL    MW417442   0.938   5.749   2.549  0.7097 -0.4158 -0.2037
 4418SOL     OW17443   3.029   4.330   1.478 -0.3425 -0.1268 -0.0488
 4418SOL    HW217444   2.991   4.358   1.562 -0.3555 -0.1085 -0.0608
 4418SOL    HW317445   2.957   4.290   1.430 -0.3952  0.0976 -0.1572
 4418SOL    MW417446   3.015   4.329   1.483 -0.3512 -0.0947 -0.0647
 4419SOL     OW17447   0.788   5.703   6.161  0.0188  0.0328  0.2552
 4419SOL    HW217448   0.825   5.637   6.219  2.4966  0.2315 -0.9657
 4419SOL    HW317449   0.803   5.668   6.073 -0.3812  1.3468 -0.3558
 4419SOL    MW417450   0.795   5.690   6.157  0.2929  0.2323  0.0135
 4420SOL     OW17451   1.807   1.700   5.833  0.1658  0.0756 -0.2032
 4420SOL    HW217452   1.822   1.678   5.741 -0.9001  0.3019 -0.4373
 4420SOL    HW317453   1.789   1.794   5.833 -0.8862 -0.1186  0.1015
 4420SOL    MW417454   1.807   1.709   5.821 -0.1136  0.0798 -0.1938
 4421SOL     OW17455   1.416   0.258   0.130 -0.4354 -0.2722 -0.5444
 4421SOL    HW217456   1.465   0.300   0.201  1.4038 -1.6785 -0.8885
 4421SOL    HW317457   1.325   0.281   0.147  0.0376  0.2431  1.7273
 4421SOL    MW417458   1.410   0.266   0.142 -0.1303 -0.3898 -0.2900
 4422SOL     OW17459   4.823   1.689   3.871 -0.3916 -0.0388  0.3321
 4422SOL    HW217460   4.841   1.714   3.780 -0.6529  0.4168  0.3984
 4422SOL    HW317461   4.874   1.609   3.885  0.2095  0.2811  0.0063
 4422SOL    MW417462   4.832   1.682   3.861 -0.3467  0.0635  0.2979
 4423SOL     OW17463   5.573   2.334   5.635  0.1725 -0.4884 -0.0075
 4423SOL    HW217464   5.557   2.422   5.600 -0.3972 -0.5079  0.2015
 4423SOL    HW317465   5.649   2.303   5.586 -0.0163 -0.1299 -0.5391
 4423SOL    MW417466   5.581   2.342   5.624  0.0724 -0.4437 -0.0501
 4424SOL     OW17467   5.129   2.030   4.893  0.7284  0.3999 -0.2495
 4424SOL    HW217468   5.064   2.067   4.834  1.0678  2.7478  0.7502
 4424SOL    HW317469   5.078   1.998   4.968  0.4331 -1.3086 -1.1277
 4424SOL    MW417470   5.114   2.031   4.895  0.7342  0.4842 -0.2334
 4425SOL     OW17471   1.030   2.739   0.863 -0.3988 -0.1435  0.2155
 4425SOL    HW217472   0.934   2.747   0.861 -0.3691  0.0860 -0.7219
 4425SOL    HW317473   1.061   2.822   0.826  0.1634 -0.2917  0.3503
 4425SOL    MW417474   1.021   2.751   0.858 -0.3207 -0.1328  0.1096
 4426SOL     OW17475   2.164   4.945   2.885 -0.1366 -0.1793 -0.0081
 4426SOL    HW217476   2.170   4.979   2.974  0.2714 -1.5028  0.4954
 4426SOL    HW317477   2.103   4.871   2.891 -0.7847  0.2397 -1.0091
 4426SOL    MW417478   2.157   4.939   2.897 -0.1683 -0.2986 -0.0737
 4427SOL     OW17479   2.957   5.642   0.716 -0.0551  0.1385 -0.0837
 4427SOL    HW217480   2.891   5.573   0.703 -0.3229  0.0362  1.6593
 4427SOL    HW317481   3.039   5.601   0.689 -0.5759  0.0919 -1.7680
 4427SOL    MW417482   2.959   5.627   0.711 -0.1592  0.1188 -0.0760
 4428SOL     OW17483   2.774   4.802   6.428  0.1120 -0.4423  0.7351
 4428SOL    HW217484   2.752   4.894   6.441  1.4294 -0.0481  0.3475
 4428SOL    HW317485   2.700   4.754   6.465 -0.8523  0.7671  0.4536
 4428SOL    MW417486   2.761   4.808   6.434  0.1586 -0.2307  0.6468
 4429SOL     OW17487   1.455   1.378   0.196  0.3588  0.0412  0.4791
 4429SOL    HW217488   1.392   1.447   0.177  1.0436  0.4343 -0.4543
 4429SOL    HW317489   1.444   1.315   0.125 -0.5184 -1.0238  1.5205
 4429SOL    MW417490   1.446   1.379   0.184  0.3334 -0.0475  0.4933
 4430SOL     OW17491   0.810   1.072   4.470  0.1936 -0.0667 -0.3878
 4430SOL    HW217492   0.733   1.036   4.514 -0.3601  0.0068 -1.2848
 4430SOL    HW317493   0.883   1.050   4.528 -0.6026  0.7222  0.9779
 4430SOL    MW417494   0.809   1.065   4.483  0.0155  0.0471 -0.3260
 4431SOL     OW17495   0.208   3.301   2.500 -0.2542 -0.3508 -0.0855
 4431SOL    HW217496   0.300   3.328   2.490  0.2756 -1.1005  2.2030
 4431SOL    HW317497   0.163   3.346   2.429  1.8595  0.1178 -1.2312
 4431SOL    MW417498   0.214   3.311   2.489  0.0945 -0.3879  0.0652
 4432SOL     OW17499   1.708   2.691   5.084  0.1841  0.5812  0.0837
 4432SOL    HW217500   1.673   2.774   5.051  0.4175  1.1280  1.1892
 4432SOL    HW317501   1.802   2.705   5.091  0.2762  0.0835 -0.1124
 4432SOL    MW417502   1.716   2.703   5.080  0.2270  0.5877  0.2037
 4433SOL     OW17503   3.317   3.432   5.413 -0.1539  0.3275  0.5472
 4433SOL    HW217504   3.327   3.338   5.400 -1.3038  0.4611 -1.6701
 4433SOL    HW317505   3.382   3.454   5.480  1.1279 -1.7953  0.0745
 4433SOL    MW417506   3.327   3.423   5.420 -0.1365  0.0650  0.1923
 4434SOL     OW17507   3.613   4.896   0.239 -0.0315  0.4854  0.1243
 4434SOL    HW217508   3.702   4.930   0.244  0.0874  0.0561  1.7322
 4434SOL    HW317509   3.601   4.871   0.147  1.5568  0.4086 -0.0877
 4434SOL    MW417510   3.623   4.897   0.228  0.1938  0.4187  0.3084
 4435SOL     OW17511   5.928   4.954   0.328 -0.1613 -0.2771  0.2286
 4435SOL    HW217512   5.875   4.939   0.406  1.1291 -1.1702  0.9764
 4435SOL    HW317513   5.950   5.047   0.331 -1.2403 -0.0148  0.1829
 4435SOL    MW417514   5.924   4.964   0.338 -0.1334 -0.3603  0.3212
 4436SOL     OW17515   2.168   4.540   3.100 -0.5222  0.5595 -0.1657
 4436SOL    HW217516   2.119   4.615   3.065  1.0365  1.2510 -0.9421
 4436SOL    HW317517   2.239   4.526   3.038 -0.8195 -1.6716 -0.0992
 4436SOL    MW417518   2.171   4.548   3.087 -0.3558  0.3564 -0.2593
 4437SOL     OW17519   5.936   2.864   6.101 -0.2133  1.3659 -0.5901
 4437SOL    HW217520   5.982   2.785   6.131  0.5873  2.8117  2.3432
 4437SOL    HW317521   5.844   2.837   6.095  0.0353  0.2001  0.3693
 4437SOL    MW417522   5.930   2.850   6.104 -0.0749  1.4029 -0.0765
 4438SOL     OW17523   3.448   1.561   3.041  0.0749  0.2402 -0.1922
 4438SOL    HW217524   3.499   1.569   2.960 -0.4968 -1.4274 -0.7646
 4438SOL    HW317525   3.358   1.580   3.015  0.0722  0.9907  0.3424
 4438SOL    MW417526   3.443   1.564   3.027 -0.0009  0.1192 -0.1972
 4439SOL     OW17527   2.149   4.879   0.364  0.8390 -0.5661  0.2783
 4439SOL    HW217528   2.182   4.810   0.422  1.5154 -1.1877 -0.8082
 4439SOL    HW317529   2.053   4.871   0.370  0.9007 -0.6016  1.3135
 4439SOL    MW417530   2.140   4.869   0.372  0.9364 -0.6528  0.2715
 4440SOL     OW17531   5.405   5.264   1.315 -0.3771 -0.5651  0.6530
 4440SOL    HW217532   5.334   5.201   1.305  0.0847 -1.2573  1.6484
 4440SOL    HW317533   5.377   5.339   1.262 -1.6849 -0.9555  0.7549
 4440SOL    MW417534   5.392   5.266   1.307 -0.4887 -0.7080  0.7978
 4441SOL     OW17535   5.371   6.115   2.359  0.2422  0.1290  0.1183
 4441SOL    HW217536   5.281   6.142   2.342  0.5659  0.5079 -1.0937
 4441SOL    HW317537   5.365   6.057   2.435 -0.9343  0.6815  0.4640
 4441SOL    MW417538   5.359   6.111   2.367  0.1297  0.2519  0.0040
 4442SOL     OW17539   1.273   5.268   1.484  0.6585  0.1738  0.0956
 4442SOL    HW217540   1.340   5.296   1.546 -0.3745  0.1443  1.2736
 4442SOL    HW317541   1.321   5.221   1.416  1.9980  1.4924  0.0670
 4442SOL    MW417542   1.288   5.266   1.483  0.6989  0.3439  0.2473
 4443SOL     OW17543   0.601   3.282   2.209 -0.6291 -0.4136 -0.1868
 4443SOL    HW217544   0.635   3.371   2.203  0.7228 -0.9452 -0.7270
 4443SOL    HW317545   0.506   3.292   2.204 -0.6135  1.1482  1.7900
 4443SOL    MW417546   0.593   3.295   2.207 -0.4486 -0.2777  0.0028
 4444SOL     OW17547   3.577   4.454   1.662  0.0884 -0.1414 -0.3681
 4444SOL    HW217548   3.556   4.363   1.681 -0.3470 -0.3262 -1.6458
 4444SOL    HW317549   3.570   4.461   1.567 -0.1922  1.3041 -0.2578
 4444SOL    MW417550   3.574   4.443   1.652 -0.0061  0.0249 -0.5221
 4445SOL     OW17551   3.957   0.519   5.184  0.1047  0.2114  0.1895
 4445SOL    HW217552   3.977   0.426   5.169  1.7124  0.5430  0.0868
 4445SOL    HW317553   3.864   0.527   5.165  0.4681 -0.8611 -2.5168
 4445SOL    MW417554   3.948   0.508   5.179  0.3648  0.1137 -0.1811
 4446SOL     OW17555   4.287   0.367   5.625  0.6081  0.5877  0.7599
 4446SOL    HW217556   4.241   0.445   5.655  0.7110  1.1722 -0.5414
 4446SOL    HW317557   4.345   0.344   5.697  0.6598  1.7839  1.1176
 4446SOL    MW417558   4.289   0.374   5.638  0.6285  0.8227  0.6354
 4447SOL     OW17559   1.224   3.752   2.808  0.4598  0.1845  0.0126
 4447SOL    HW217560   1.251   3.843   2.793 -1.6716  0.6938 -1.1978
 4447SOL    HW317561   1.191   3.751   2.898  1.0134  0.4630  0.2215
 4447SOL    MW417562   1.223   3.764   2.818  0.2517  0.2884 -0.1196
 4448SOL     OW17563   2.026   2.867   1.575  0.2564  0.4507  0.2809
 4448SOL    HW217564   2.053   2.810   1.504 -1.1599  1.2390 -0.9612
 4448SOL    HW317565   2.046   2.956   1.543  1.0066  0.7569  1.5264
 4448SOL    MW417566   2.032   2.871   1.561  0.1685  0.5951  0.2813
 4449SOL     OW17567   5.162   3.806   5.951  0.0557 -0.2197  0.0670
 4449SOL    HW217568   5.074   3.825   5.982  0.0892  0.0062  0.0276
 4449SOL    HW317569   5.177   3.714   5.974 -0.6245 -0.5987 -0.9540
 4449SOL    MW417570   5.153   3.796   5.958 -0.0296 -0.2399 -0.0729
 4450SOL     OW17571   0.230   0.656   3.745 -0.2354  0.2649 -0.1263
 4450SOL    HW217572   0.155   0.714   3.757 -0.3060  0.0214  0.7153
 4450SOL    HW317573   0.285   0.701   3.681 -1.1838  0.3479 -0.9140
 4450SOL    MW417574   0.227   0.669   3.738 -0.3698  0.2437 -0.1192
 4451SOL     OW17575   2.660   3.476   1.997 -0.2713 -0.5919  0.2125
 4451SOL    HW217576   2.583   3.446   1.949 -1.1502  0.2063  1.0631
 4451SOL    HW317577   2.636   3.564   2.028  1.4715  0.2163 -0.5933
 4451SOL    MW417578   2.647   3.484   1.995 -0.1573 -0.3800  0.2184
 4452SOL     OW17579   5.282   0.383   5.852 -0.1532  0.0841  0.3620
 4452SOL    HW217580   5.189   0.365   5.841 -0.3614  1.0671  0.3580
 4452SOL    HW317581   5.312   0.319   5.917 -0.8679 -0.1391  0.4803
 4452SOL    MW417582   5.274   0.373   5.859 -0.2750  0.1843  0.3771
 4453SOL     OW17583   4.685   1.928   6.190 -0.0165  0.0217 -0.0510
 4453SOL    HW217584   4.719   2.009   6.152 -0.3171  0.2830  0.2250
 4453SOL    HW317585   4.624   1.895   6.124 -0.6702  0.5673  0.2660
 4453SOL    MW417586   4.681   1.934   6.176 -0.1424  0.1281  0.0272
 4454SOL     OW17587   2.310   4.774   2.715 -0.1540  0.2256  0.0283
 4454SOL    HW217588   2.250   4.814   2.777 -0.2233 -0.7710  0.6206
 4454SOL    HW317589   2.255   4.749   2.641 -0.7470 -1.8442  1.1003
 4454SOL    MW417590   2.295   4.776   2.713 -0.2414 -0.1790  0.2479
 4455SOL     OW17591   1.589   2.687   6.053  0.0730 -0.5950 -0.3065
 4455SOL    HW217592   1.631   2.719   6.133 -0.6886  2.6507 -1.0400
 4455SOL    HW317593   1.626   2.741   5.983 -0.5109 -2.1944 -1.9346
 4455SOL    MW417594   1.599   2.698   6.054 -0.1045 -0.3778 -0.6181
 4456SOL     OW17595   1.080   1.701   4.366  0.1979 -0.3295 -0.1162
 4456SOL    HW217596   1.169   1.693   4.333  0.7708  1.5837  0.8024
 4456SOL    HW317597   1.033   1.626   4.328  2.3594 -1.8564  0.0482
 4456SOL    MW417598   1.085   1.690   4.356  0.5586 -0.2785  0.0267
 4457SOL     OW17599   4.308   5.014   5.320 -0.1091 -0.1751  0.3049
 4457SOL    HW217600   4.378   4.976   5.373 -0.7293  0.3069  1.4796
 4457SOL    HW317601   4.279   4.942   5.263 -0.8546 -1.3171  2.0698
 4457SOL    MW417602   4.314   5.000   5.319 -0.2893 -0.2622  0.6928
 4458SOL     OW17603   0.588   4.329   3.887  0.0319  0.2785 -0.7751
 4458SOL    HW217604   0.679   4.359   3.882  0.5011 -0.5431  1.5302
 4458SOL    HW317605   0.548   4.385   3.954 -0.1646 -1.5549  0.7248
 4458SOL    MW417606   0.595   4.340   3.895  0.0679 -0.0718 -0.2730
 4459SOL     OW17607   2.392   3.914   1.589 -0.2633 -0.5274  0.2843
 4459SOL    HW217608   2.397   3.833   1.539  1.2753  0.5400 -1.4521
 4459SOL    HW317609   2.465   3.908   1.651  0.1351 -0.3230 -0.1511
 4459SOL    MW417610   2.402   3.903   1.591 -0.0077 -0.3596 -0.0022
 4460SOL     OW17611   1.436   5.922   0.301  0.4996 -0.5545  0.4751
 4460SOL    HW217612   1.446   5.956   0.213 -0.7345  0.2410  0.6153
 4460SOL    HW317613   1.472   5.990   0.358 -1.1292  0.1587  0.7047
 4460SOL    MW417614   1.442   5.935   0.297  0.1219 -0.3555  0.5239
 4461SOL     OW17615   1.929   6.365   2.724  0.2770 -0.2474  0.2876
 4461SOL    HW217616   1.839   6.335   2.708  1.5475 -4.0716 -0.5691
 4461SOL    HW317617   1.943   6.433   2.658 -1.6623 -0.2178 -0.1608
 4461SOL    MW417618   1.919   6.370   2.713  0.1888 -0.7480  0.1154
 4462SOL     OW17619   0.594   1.088   3.013 -0.2578 -0.5039 -0.2129
 4462SOL    HW217620   0.579   1.012   2.956  0.1219 -0.8000  0.0807
 4462SOL    HW317621   0.664   1.061   3.071  0.4782  0.3828 -0.6664
 4462SOL    MW417622   0.601   1.074   3.013 -0.1106 -0.4260 -0.2340
 4463SOL     OW17623   5.974   4.792   4.240 -0.0272  0.4130  0.5079
 4463SOL    HW217624   6.004   4.711   4.199 -0.6352  0.2949  0.2902
 4463SOL    HW317625   6.047   4.818   4.296  0.3197 -0.0879  0.3023
 4463SOL    MW417626   5.988   4.785   4.242 -0.0616  0.3313  0.4520
 4464SOL     OW17627   4.254   4.270   1.432  0.2279 -0.4203 -0.2472
 4464SOL    HW217628   4.346   4.290   1.414  0.3632 -0.8959 -0.1084
 4464SOL    HW317629   4.211   4.355   1.437  1.1264 -0.0398  2.2178
 4464SOL    MW417630   4.260   4.284   1.430  0.3643 -0.4329  0.0964
 4465SOL     OW17631   0.795   4.397   5.824 -0.3157  0.0506 -0.1953
 4465SOL    HW217632   0.741   4.408   5.902 -1.3297 -1.5775 -0.6217
 4465SOL    HW317633   0.735   4.414   5.751  0.2698  0.2072 -0.6429
 4465SOL    MW417634   0.780   4.401   5.825 -0.3722 -0.1435 -0.3106
 4466SOL     OW17635   0.232   2.496   4.111  0.2599 -0.5251 -0.2564
 4466SOL    HW217636   0.139   2.494   4.136  0.3054 -1.5500 -0.1329
 4466SOL    HW317637   0.275   2.439   4.174  1.2197  1.0915  0.5958
 4466SOL    MW417638   0.225   2.488   4.122  0.3926 -0.4470 -0.1277
 4467SOL     OW17639   0.439   5.404   1.484 -0.2233 -0.1973 -0.0880
 4467SOL    HW217640   0.516   5.371   1.438 -0.4504 -0.8984  0.0277
 4467SOL    HW317641   0.468   5.488   1.520  0.1714  0.0266 -0.8980
 4467SOL    MW417642   0.453   5.411   1.483 -0.2012 -0.2602 -0.1796
 4468SOL     OW17643   4.910   1.273   5.016  0.2395 -0.2333  0.3086
 4468SOL    HW217644   4.976   1.204   5.023 -0.9873 -1.3356  1.7513
 4468SOL    HW317645   4.960   1.354   5.009  1.7494 -1.0076  1.6172
 4468SOL    MW417646   4.925   1.275   5.016  0.2768 -0.4809  0.6716
 4469SOL     OW17647   0.750   4.901   5.605  0.5528  0.1465 -0.1461
 4469SOL    HW217648   0.831   4.952   5.601  1.0113 -0.4199  1.2608
 4469SOL    HW317649   0.776   4.812   5.581 -0.1950  0.4580 -2.3381
 4469SOL    MW417650   0.764   4.896   5.601  0.5146  0.1129 -0.2497
 4470SOL     OW17651   1.314   0.653   2.766 -0.4330 -0.3279  0.2943
 4470SOL    HW217652   1.277   0.593   2.830 -1.6351  0.9827  0.8707
 4470SOL    HW317653   1.409   0.641   2.775 -0.5993 -0.8535  1.6350
 4470SOL    MW417654   1.322   0.643   2.776 -0.6135 -0.2243  0.5472
 4471SOL     OW17655   4.923   5.797   3.934  0.1131  0.2789  0.0105
 4471SOL    HW217656   4.879   5.865   3.985 -1.6164 -0.0770 -0.9388
 4471SOL    HW317657   4.879   5.797   3.850  2.4321  0.3436 -1.2819
 4471SOL    MW417658   4.911   5.806   3.930  0.1909  0.2404 -0.2853
 4472SOL     OW17659   1.424   2.080   0.656 -0.4321 -0.0153  0.1149
 4472SOL    HW217660   1.334   2.077   0.689 -1.6174 -0.2250 -2.8757
 4472SOL    HW317661   1.430   2.166   0.614  1.3032  0.5899  1.4754
 4472SOL    MW417662   1.413   2.091   0.655 -0.3595  0.0369 -0.1002
 4473SOL     OW17663   5.762   4.367   4.680  0.0614 -0.1017 -0.0013
 4473SOL    HW217664   5.813   4.382   4.601  0.6394  1.3333  0.6115
 4473SOL    HW317665   5.693   4.306   4.653  0.7308 -0.2766 -1.3911
 4473SOL    MW417666   5.760   4.361   4.666  0.2260  0.0645 -0.1038
 4474SOL     OW17667   4.804   0.585   3.831 -0.1050  0.5709 -0.3905
 4474SOL    HW217668   4.797   0.667   3.880  0.8323  0.2531  0.3083
 4474SOL    HW317669   4.777   0.608   3.742  1.6439  2.0267 -0.5942
 4474SOL    MW417670   4.799   0.599   3.825  0.2494  0.7210 -0.3252
 4475SOL     OW17671   1.119   2.980   2.685 -0.1276 -0.3949  0.0564
 4475SOL    HW217672   1.123   2.976   2.589  0.4451 -0.5207  0.0832
 4475SOL    HW317673   1.170   3.058   2.708 -0.6202 -0.1222  0.2395
 4475SOL    MW417674   1.126   2.990   2.675 -0.1170 -0.3755  0.0841
 4476SOL     OW17675   6.333   2.749   3.883  0.1473  0.1308 -0.1464
 4476SOL    HW217676   6.420   2.786   3.872  0.0583  0.4104  0.0726
 4476SOL    HW317677   6.273   2.823   3.870  0.0040  0.2849  1.2641
 4476SOL    MW417678   6.336   2.764   3.880  0.1166  0.1880  0.0686
 4477SOL     OW17679   2.654   6.182   2.897 -0.1572  0.5792  0.2502
 4477SOL    HW217680   2.573   6.230   2.881 -0.4436  0.3690  1.0646
 4477SOL    HW317681   2.626   6.096   2.927  0.3524 -0.2883 -1.6413
 4477SOL    MW417682   2.640   6.177   2.899 -0.1277  0.4370  0.1081
 4478SOL     OW17683   4.857   4.938   1.524 -0.4849  0.4822 -0.7038
 4478SOL    HW217684   4.895   4.883   1.593 -2.1998 -1.2161 -1.0475
 4478SOL    HW317685   4.826   5.016   1.571 -1.2060 -0.4378  0.4231
 4478SOL    MW417686   4.858   4.941   1.539 -0.8063  0.1367 -0.6005
 4479SOL     OW17687   1.176   6.044   2.627  0.1629 -0.0626  0.3504
 4479SOL    HW217688   1.118   6.037   2.551 -1.1325  0.0927  1.2827
 4479SOL    HW317689   1.233   6.118   2.606  0.0494 -0.2304 -0.6064
 4479SOL    MW417690   1.176   6.053   2.614 -0.0230 -0.0643  0.3472
 4480SOL     OW17691   4.262   4.218   3.147  0.7252  0.0338  0.5320
 4480SOL    HW217692   4.260   4.123   3.131  1.3006 -0.1365  1.4366
 4480SOL    HW317693   4.177   4.249   3.115  0.6176 -0.7539  0.0302
 4480SOL    MW417694   4.250   4.209   3.140  0.7869 -0.0926  0.5852
 4481SOL     OW17695   4.684   3.385   0.355  0.1821  0.2195 -0.0843
 4481SOL    HW217696   4.666   3.419   0.443 -1.2680  0.9680 -0.6538
 4481SOL    HW317697   4.695   3.290   0.368  1.3482  0.4711  1.0787
 4481SOL    MW417698   4.683   3.377   0.368  0.1447  0.3514 -0.0060
 4482SOL     OW17699   4.226   4.165   4.560 -0.1148 -0.4731 -0.1972
 4482SOL    HW217700   4.254   4.168   4.651 -0.9105  1.1318  0.0241
 4482SOL    HW317701   4.298   4.121   4.514  1.8861  1.6629  0.6686
 4482SOL    MW417702   4.239   4.160   4.566  0.0442  0.0205 -0.0538
 4483SOL     OW17703   0.322   0.983   3.250 -0.2245  0.4235  0.1317
 4483SOL    HW217704   0.344   1.071   3.220  1.1670  0.4747  1.2029
 4483SOL    HW317705   0.254   0.997   3.316  1.7240  1.0043  2.1511
 4483SOL    MW417706   0.316   0.997   3.255  0.2161  0.5069  0.5394
 4484SOL     OW17707   0.307   4.397   6.347  0.7852 -0.1434  0.2076
 4484SOL    HW217708   0.226   4.362   6.311  0.8051 -0.6433  0.6296
 4484SOL    HW317709   0.283   4.426   6.436  1.0250 -0.1158  0.2643
 4484SOL    MW417710   0.293   4.397   6.354  0.8195 -0.2057  0.2708
 4485SOL     OW17711   6.250   0.829   5.550 -0.3134  0.1922  0.6916
 4485SOL    HW217712   6.252   0.925   5.554  0.8890  0.3120 -1.3904
 4485SOL    HW317713   6.192   0.809   5.476 -1.0738 -0.7292  1.5120
 4485SOL    MW417714   6.243   0.839   5.541 -0.2551  0.0865  0.5252
 4486SOL     OW17715   4.098   6.194   3.718  0.2982 -0.0962 -0.0447
 4486SOL    HW217716   4.107   6.099   3.728 -0.7021 -0.1552  0.3713
 4486SOL    HW317717   4.181   6.229   3.750  0.2552 -0.7733  0.8447
 4486SOL    MW417718   4.110   6.186   3.724  0.1606 -0.1933  0.1275
 4487SOL     OW17719   5.513   2.813   4.945  0.2307 -0.3814 -0.0736
 4487SOL    HW217720   5.580   2.790   4.880  0.4845 -1.9768  0.7122
 4487SOL    HW317721   5.483   2.729   4.979  0.1372  0.4166  1.9218
 4487SOL    MW417722   5.518   2.799   4.941  0.2518 -0.4866  0.2933
 4488SOL     OW17723   3.312   6.302   1.819  0.3177  0.6280 -0.4911
 4488SOL    HW217724   3.264   6.219   1.825  1.1323 -0.1537 -3.3246
 4488SOL    HW317725   3.404   6.276   1.830  0.5506  1.2010 -1.0664
 4488SOL    MW417726   3.318   6.287   1.821  0.4559  0.6005 -0.9408
 4489SOL     OW17727   3.000   1.100   4.217  0.1002  0.6179  0.2471
 4489SOL    HW217728   2.985   1.010   4.190  3.8183  0.6375 -2.6548
 4489SOL    HW317729   3.041   1.094   4.303  3.5120 -0.8660 -1.3394
 4489SOL    MW417730   3.003   1.088   4.225  1.0409  0.4247 -0.3451
 4490SOL     OW17731   0.421   5.122   5.314  0.0758 -0.5673 -0.2357
 4490SOL    HW217732   0.440   5.062   5.386 -1.8638 -0.7523  0.1763
 4490SOL    HW317733   0.471   5.201   5.334  0.0098 -0.8325  1.0213
 4490SOL    MW417734   0.430   5.124   5.326 -0.1889 -0.6267 -0.0155
 4491SOL     OW17735   5.301   3.023   4.074 -0.1097 -0.3075 -0.1248
 4491SOL    HW217736   5.289   3.055   3.984  0.8823  1.8686  0.4476
 4491SOL    HW317737   5.346   3.095   4.119 -1.4622 -0.9286  2.3909
 4491SOL    MW417738   5.305   3.037   4.068 -0.1572 -0.1024  0.2827
 4492SOL     OW17739   3.536   1.677   0.697 -0.1212 -0.0310  0.0527
 4492SOL    HW217740   3.462   1.726   0.733  0.5331 -0.8809  2.7896
 4492SOL    HW317741   3.503   1.588   0.688 -0.2061  0.1270 -1.3648
 4492SOL    MW417742   3.522   1.672   0.701 -0.0461 -0.1223  0.2268
 4493SOL     OW17743   5.455   3.695   2.239  0.5580 -0.2497  0.6019
 4493SOL    HW217744   5.504   3.616   2.218  1.2495  0.5387 -0.8686
 4493SOL    HW317745   5.496   3.763   2.187 -0.8906  0.8189  0.8145
 4493SOL    MW417746   5.467   3.693   2.230  0.4582 -0.0047  0.4359
 4494SOL     OW17747   2.243   5.560   5.260  0.3269 -0.1592 -0.7047
 4494SOL    HW217748   2.240   5.478   5.309  0.4162 -0.8175 -1.7680
 4494SOL    HW317749   2.180   5.547   5.188  0.2102  0.7744 -0.7840
 4494SOL    MW417750   2.234   5.548   5.257  0.3233 -0.1228 -0.8554
 4495SOL     OW17751   1.377   1.262   4.069  0.2938 -0.4497  0.6217
 4495SOL    HW217752   1.394   1.176   4.031 -0.4878 -0.5017  0.3708
 4495SOL    HW317753   1.288   1.283   4.041 -0.0409 -0.1852  1.8538
 4495SOL    MW417754   1.368   1.254   4.060  0.1466 -0.4216  0.7512
 4496SOL     OW17755   1.010   4.217   5.567  0.1906 -0.0459 -0.3723
 4496SOL    HW217756   1.105   4.215   5.550  0.3678 -1.5955  0.5798
 4496SOL    HW317757   1.003   4.213   5.662 -0.7819 -3.6770 -0.4425
 4496SOL    MW417758   1.022   4.216   5.577  0.0857 -0.7294 -0.2560
 4497SOL     OW17759   1.066   6.118   1.706  0.0022 -0.2441 -0.1708
 4497SOL    HW217760   1.097   6.147   1.791  0.6482  0.0294 -0.4941
 4497SOL    HW317761   0.998   6.053   1.726  0.9410 -1.0369  0.5430
 4497SOL    MW417762   1.061   6.113   1.720  0.2113 -0.3126 -0.1193
 4498SOL     OW17763   2.962   0.035   5.140  0.4395  0.2499 -0.6515
 4498SOL    HW217764   3.033  -0.024   5.114  1.2541  0.6632  0.5310
 4498SOL    HW317765   2.933   0.076   5.059  0.5404 -1.0227 -1.3523
 4498SOL    MW417766   2.967   0.033   5.126  0.5603  0.1365 -0.5880
 4499SOL     OW17767   5.874   2.658   5.020  0.0631  0.5100  0.7292
 4499SOL    HW217768   5.824   2.597   5.074  1.0544  1.0002  2.2738
 4499SOL    HW317769   5.832   2.653   4.934 -1.3328 -0.5994  1.4148
 4499SOL    MW417770   5.862   2.649   5.016  0.0097  0.4283  1.0235
 4500SOL     OW17771   2.163   5.180   1.591 -0.0092  0.1127 -0.1831
 4500SOL    HW217772   2.082   5.148   1.552 -0.4180 -0.3847  1.0452
 4500SOL    HW317773   2.213   5.213   1.517 -1.7433  1.3583 -0.8577
 4500SOL    MW417774   2.159   5.180   1.576 -0.2919  0.2114 -0.1101
 4501SOL     OW17775   2.005   5.795   1.391 -0.1251  0.2342 -0.0860
 4501SOL    HW217776   1.979   5.759   1.307 -0.5953 -1.0708  0.5784
 4501SOL    HW317777   2.048   5.721   1.436  0.0075  0.8660  0.8532
 4501SOL    MW417778   2.008   5.780   1.386 -0.1696  0.1454  0.1256
 4502SOL     OW17779   2.829   4.286   1.965  0.1233  0.0989 -0.0651
 4502SOL    HW217780   2.799   4.361   2.017  0.0136  0.6252 -0.8655
 4502SOL    HW317781   2.792   4.210   2.009  0.5282  0.4831  0.9664
 4502SOL    MW417782   2.820   4.286   1.978  0.1622  0.2190 -0.0346
 4503SOL     OW17783   3.785   2.503   1.243  0.2032  0.0547  0.2735
 4503SOL    HW217784   3.842   2.426   1.238 -0.9399 -0.7583 -1.0019
 4503SOL    HW317785   3.818   2.561   1.174 -1.9271 -1.5093 -2.2696
 4503SOL    MW417786   3.797   2.501   1.233 -0.2287 -0.2589 -0.2303
 4504SOL     OW17787   0.940   0.903   6.226  0.4867 -0.1050 -0.3933
 4504SOL    HW217788   0.849   0.876   6.219 -0.2757  2.2150 -0.1071
 4504SOL    HW317789   0.982   0.868   6.147 -0.8707 -0.3198 -1.0465
 4504SOL    MW417790   0.934   0.894   6.215  0.2070  0.1728 -0.4417
 4505SOL     OW17791   4.147   5.256   0.993  0.4069  0.4465 -0.3508
 4505SOL    HW217792   4.161   5.217   1.080  0.3198 -0.9145 -0.9114
 4505SOL    HW317793   4.216   5.321   0.985  1.0786 -0.1496  0.3329
 4505SOL    MW417794   4.158   5.259   1.004  0.4840  0.1883 -0.3346
 4506SOL     OW17795   3.919   0.346   6.341 -0.4917 -0.8038  0.3594
 4506SOL    HW217796   3.825   0.353   6.357 -0.4883  0.5552 -0.1032
 4506SOL    HW317797   3.945   0.434   6.313  1.0682 -0.9370  1.2854
 4506SOL    MW417798   3.910   0.358   6.340 -0.2855 -0.6421  0.4205
 4507SOL     OW17799   0.670   0.532   3.538 -0.4400  0.3514  0.1930
 4507SOL    HW217800   0.692   0.523   3.631  1.2858  0.2463 -0.1961
 4507SOL    HW317801   0.710   0.616   3.512  1.0717 -0.6784 -0.9589
 4507SOL    MW417802   0.678   0.542   3.547 -0.0129  0.2017 -0.0103
 4508SOL     OW17803   3.332   1.347   4.790  0.4343  0.5709 -0.6921
 4508SOL    HW217804   3.276   1.282   4.748  1.4355 -1.1344  0.4688
 4508SOL    HW317805   3.272   1.418   4.814 -1.5988 -1.6986  1.6266
 4508SOL    MW417806   3.317   1.348   4.788  0.2981  0.0465 -0.2330
 4509SOL     OW17807   5.001   5.075   4.473  0.2394  0.1884 -0.2121
 4509SOL    HW217808   5.079   5.058   4.420 -0.5538 -2.9321 -0.5515
 4509SOL    HW317809   4.949   5.136   4.420  1.4662  0.6279 -0.9489
 4509SOL    MW417810   5.004   5.081   4.459  0.2966 -0.1653 -0.3541
 4510SOL     OW17811   5.844   0.625   4.021  0.5816  0.1998 -0.2899
 4510SOL    HW217812   5.849   0.712   4.061  1.0732 -0.2137  0.5820
 4510SOL    HW317813   5.751   0.602   4.025  0.2979  1.0590 -1.3852
 4510SOL    MW417814   5.832   0.634   4.027  0.6091  0.2586 -0.3193
 4511SOL     OW17815   1.654   5.905   4.893  0.2575  0.3111 -0.0009
 4511SOL    HW217816   1.634   5.982   4.840  2.6614  1.7361  0.9612
 4511SOL    HW317817   1.744   5.882   4.868  0.1834 -1.1350  0.9590
 4511SOL    MW417818   1.663   5.912   4.883  0.5649  0.3083  0.2527
 4512SOL     OW17819   1.260   2.262   1.358  0.6729 -0.0569  0.1953
 4512SOL    HW217820   1.210   2.181   1.367  0.0012  0.2319 -0.7771
 4512SOL    HW317821   1.301   2.275   1.444 -0.0376 -0.8791  0.6712
 4512SOL    MW417822   1.259   2.253   1.370  0.4905 -0.1273  0.1298
 4513SOL     OW17823   5.442   0.285   5.636  0.2205 -0.1700 -0.1474
 4513SOL    HW217824   5.534   0.257   5.640  0.1890 -0.3899 -0.8106
 4513SOL    HW317825   5.433   0.347   5.708  0.6809 -0.7579  0.4282
 4513SOL    MW417826   5.453   0.290   5.646  0.2771 -0.2766 -0.1590
 4514SOL     OW17827   2.194   4.223   2.981  0.4029 -0.3576  0.0687
 4514SOL    HW217828   2.109   4.259   3.005 -0.9218 -4.0742  1.6814
 4514SOL    HW317829   2.181   4.185   2.895  0.5593 -0.5642  0.1362
 4514SOL    MW417830   2.181   4.223   2.973  0.2488 -0.8752  0.2904
 4515SOL     OW17831   5.665   4.912   2.649  0.1065 -0.5513  0.1780
 4515SOL    HW217832   5.600   4.854   2.610 -2.7248  1.3069  1.8143
 4515SOL    HW317833   5.722   4.936   2.575 -1.2806 -1.9077 -1.4290
 4515SOL    MW417834   5.664   4.907   2.634 -0.4500 -0.4851  0.1818
 4516SOL     OW17835   0.346   1.440   5.247 -0.2346 -0.1260  0.7680
 4516SOL    HW217836   0.341   1.518   5.301 -1.9509  1.0456 -0.9376
 4516SOL    HW317837   0.436   1.440   5.214 -0.3710  1.5548  0.2780
 4516SOL    MW417838   0.357   1.450   5.250 -0.4790  0.2503  0.4783
 4517SOL     OW17839   4.379   4.300   2.616  0.5717 -0.1933 -0.6729
 4517SOL    HW217840   4.409   4.255   2.537 -0.8347 -1.5939 -0.4403
 4517SOL    HW317841   4.381   4.234   2.684  2.4655  1.1724  0.7289
 4517SOL    MW417842   4.384   4.286   2.614  0.6360 -0.1979 -0.4573
 4518SOL     OW17843   2.660   4.262   2.219  0.2911 -0.3277  0.7613
 4518SOL    HW217844   2.710   4.186   2.250  2.0688  0.9191  1.0522
 4518SOL    HW317845   2.704   4.338   2.256 -0.4016  0.9705 -0.9215
 4518SOL    MW417846   2.672   4.262   2.228  0.4342  0.0081  0.5776
 4519SOL     OW17847   0.771   5.955   0.203 -0.4997  0.2361  0.1858
 4519SOL    HW217848   0.834   5.945   0.274  2.0021  0.2272 -1.8940
 4519SOL    HW317849   0.751   6.049   0.202  1.5465  0.7234 -0.6714
 4519SOL    MW417850   0.776   5.966   0.212  0.1003  0.2992 -0.2017
 4520SOL     OW17851   3.037   5.749   5.427  0.2289  0.3974  0.7764
 4520SOL    HW217852   2.971   5.726   5.492 -0.0533  0.2673  0.4477
 4520SOL    HW317853   3.113   5.777   5.478  0.4181 -0.8096  1.1939
 4520SOL    MW417854   3.038   5.750   5.442  0.2166  0.2210  0.7881
 4521SOL     OW17855   5.358   4.307   4.415  0.1535  0.7656 -0.0700
 4521SOL    HW217856   5.308   4.273   4.340  0.3987 -0.1170  0.1592
 4521SOL    HW317857   5.392   4.391   4.385 -0.8678  1.0440 -0.4828
 4521SOL    MW417858   5.356   4.314   4.401  0.0511  0.6859 -0.0942
 4522SOL     OW17859   0.160   5.157   5.463 -0.0700  0.7300  0.4284
 4522SOL    HW217860   0.191   5.234   5.511 -1.0954  0.8530  0.9203
 4522SOL    HW317861   0.166   5.182   5.371 -0.1113  1.2990  0.5764
 4522SOL    MW417862   0.165   5.170   5.457 -0.2107  0.8213  0.5128
 4523SOL     OW17863   5.107   5.230   0.125 -0.1911 -0.0713  0.0796
 4523SOL    HW217864   5.131   5.323   0.121 -2.3986  0.6982  2.3032
 4523SOL    HW317865   5.020   5.225   0.086  0.0612 -1.2817 -0.3710
 4523SOL    MW417866   5.099   5.242   0.120 -0.4490 -0.1295  0.3135
 4524SOL     OW17867   1.117   3.337   6.354  0.3484 -0.0058 -0.3339
 4524SOL    HW217868   1.040   3.282   6.335  0.4632 -0.2608 -0.0598
 4524SOL    HW317869   1.173   3.282   6.408  0.7350  0.1746 -0.5500
 4524SOL    MW417870   1.114   3.322   6.358  0.4146 -0.0157 -0.3263
 4525SOL     OW17871   5.925   4.408   6.260  0.0246  0.1549 -0.1989
 4525SOL    HW217872   5.965   4.495   6.258  1.9194 -0.6917 -0.1841
 4525SOL    HW317873   5.831   4.426   6.250  0.4529  2.1289 -1.2351
 4525SOL    MW417874   5.918   4.422   6.258  0.3311  0.3036 -0.3337
 4526SOL     OW17875   1.979   5.963   0.744 -0.2216 -0.6484  0.4000
 4526SOL    HW217876   2.047   5.999   0.801 -0.5839  0.0104  0.4228
 4526SOL    HW317877   1.945   5.888   0.793  0.4818 -0.9916  0.3872
 4526SOL    MW417878   1.984   5.958   0.758 -0.1766 -0.6067  0.4014
 4527SOL     OW17879   2.504   5.148   0.921 -0.1111  0.0401  0.1511
 4527SOL    HW217880   2.457   5.108   0.993  0.2798  1.6369  1.3528
 4527SOL    HW317881   2.445   5.217   0.889  0.7874  1.1367  0.7674
 4527SOL    MW417882   2.490   5.152   0.926  0.0590  0.3954  0.3910
 4528SOL     OW17883   6.339   3.098   5.147  0.3795  0.2877  0.0678
 4528SOL    HW217884   6.278   3.140   5.086 -1.2930 -0.3308  1.2191
 4528SOL    HW317885   6.296   3.106   5.232  2.0550  0.0120  0.9817
 4528SOL    MW417886   6.325   3.105   5.150  0.3799  0.1697  0.3403
 4529SOL     OW17887   4.736   5.667   1.012 -0.4204  0.3306 -0.3316
 4529SOL    HW217888   4.788   5.589   1.031  0.8758  0.6148 -2.3567
 4529SOL    HW317889   4.797   5.740   1.020 -0.8479  0.8212 -1.2717
 4529SOL    MW417890   4.751   5.666   1.015 -0.3058  0.4328 -0.7228
 4530SOL     OW17891   0.667   4.740   0.966 -0.3423  0.5724  0.1692
 4530SOL    HW217892   0.668   4.647   0.988  1.9822  1.2355  3.5233
 4530SOL    HW317893   0.695   4.743   0.874  0.9530 -2.0026  0.4023
 4530SOL    MW417894   0.671   4.728   0.956  0.1353  0.3202  0.6425
 4531SOL     OW17895   3.395   0.340   3.296  0.3225  0.4480  0.2370
 4531SOL    HW217896   3.400   0.365   3.204 -0.1419 -0.1240  0.0501
 4531SOL    HW317897   3.400   0.423   3.344 -0.7694  0.8772 -0.3539
 4531SOL    MW417898   3.396   0.355   3.290  0.1172  0.4292  0.1344
 4532SOL     OW17899   3.471   2.855   5.779 -0.6635  0.6130 -0.9207
 4532SOL    HW217900   3.463   2.894   5.691  0.9633 -0.3575 -1.5335
 4532SOL    HW317901   3.555   2.887   5.812 -0.1290 -0.9411 -0.7139
 4532SOL    MW417902   3.481   2.864   5.772 -0.3784  0.2799 -0.9743
 4533SOL     OW17903   1.159   1.602   4.689 -0.2670  0.6026 -0.4434
 4533SOL    HW217904   1.111   1.524   4.719 -1.9972  1.5876 -0.5143
 4533SOL    HW317905   1.171   1.588   4.595  1.6007 -0.6539 -0.0645
 4533SOL    MW417906   1.154   1.590   4.681 -0.2488  0.5668 -0.4028
 4534SOL     OW17907   3.851   3.412   1.813 -0.4061 -0.3023 -0.7339
 4534SOL    HW217908   3.795   3.460   1.753 -0.0052  0.6760 -0.3339
 4534SOL    HW317909   3.840   3.320   1.787 -2.2656 -0.1647 -0.6016
 4534SOL    MW417910   3.842   3.406   1.802 -0.5985 -0.1551 -0.6637
 4535SOL     OW17911   5.490   3.736   3.336 -0.3337  0.0641 -0.2124
 4535SOL    HW217912   5.465   3.769   3.422 -1.4716  0.0515 -0.5129
 4535SOL    HW317913   5.409   3.698   3.301  0.0796  0.1795 -1.3376
 4535SOL    MW417914   5.476   3.735   3.343 -0.4293  0.0776 -0.4005
 4536SOL     OW17915   5.911   4.967   0.042  1.3084 -0.0669 -0.3372
 4536SOL    HW217916   5.894   5.060   0.029  1.3169 -0.0189 -0.0038
 4536SOL    HW317917   5.928   4.958   0.136  0.7496 -0.4977 -0.2724
 4536SOL    MW417918   5.911   4.978   0.053  1.2358 -0.1174 -0.2846
 4537SOL     OW17919   4.556   5.982   5.817  0.1695 -0.1966 -0.0761
 4537SOL    HW217920   4.545   6.068   5.858 -0.3896 -0.2585 -0.0908
 4537SOL    HW317921   4.640   5.988   5.770  0.6493 -0.0088  0.7829
 4537SOL    MW417922   4.566   5.994   5.816  0.1591 -0.1800  0.0353
 4538SOL     OW17923   0.826   3.269   3.860 -0.6033 -0.2020 -0.6958
 4538SOL    HW217924   0.915   3.279   3.826  0.0921  1.2200  1.3488
 4538SOL    HW317925   0.779   3.345   3.826 -0.6533 -0.2191 -0.6652
 4538SOL    MW417926   0.831   3.280   3.851 -0.5182 -0.0167 -0.4220
 4539SOL     OW17927   5.504   2.509   1.326  0.1583  0.4023  0.6853
 4539SOL    HW217928   5.571   2.485   1.389  0.0318 -3.5913 -0.4303
 4539SOL    HW317929   5.501   2.436   1.264 -1.3819  2.9600 -2.6183
 4539SOL    MW417930   5.512   2.497   1.326 -0.0616  0.2128  0.1023
 4540SOL     OW17931   1.903   0.894   1.009 -0.3130  0.3062 -0.6823
 4540SOL    HW217932   1.955   0.924   0.934  0.1798  0.2506 -0.3727
 4540SOL    HW317933   1.968   0.856   1.068 -0.6065  0.9149  0.0526
 4540SOL    MW417934   1.919   0.893   1.007 -0.2867  0.3791 -0.5445
 4541SOL     OW17935   2.548   2.817   1.189  0.3158  0.2093  0.7206
 4541SOL    HW217936   2.507   2.819   1.276  1.0944 -0.7642  1.1214
 4541SOL    HW317937   2.475   2.823   1.128 -0.1715  2.1554  1.4225
 4541SOL    MW417938   2.533   2.818   1.193  0.3542  0.3376  0.8661
 4542SOL     OW17939   2.436   3.117   1.702  0.2223  0.0196  0.1751
 4542SOL    HW217940   2.459   3.101   1.611  2.2092 -1.9396  0.9489
 4542SOL    HW317941   2.352   3.071   1.714 -0.0786  0.3317 -0.6362
 4542SOL    MW417942   2.428   3.109   1.692  0.4447 -0.1977  0.1701
 4543SOL     OW17943   4.500   2.631   3.007 -0.0395  0.2507  0.5812
 4543SOL    HW217944   4.508   2.663   2.917 -0.7059  0.3242  0.5403
 4543SOL    HW317945   4.470   2.540   2.998 -2.6664  1.0266  0.7262
 4543SOL    MW417946   4.497   2.623   2.994 -0.4741  0.3628  0.5950
 4544SOL     OW17947   4.108   5.011   2.066  0.6370 -0.0697 -0.1440
 4544SOL    HW217948   4.176   5.038   2.005  1.2839 -0.1817  0.5089
 4544SOL    HW317949   4.074   4.930   2.030  0.1377  0.5082 -1.0101
 4544SOL    MW417950   4.112   5.004   2.053  0.6565 -0.0082 -0.1721
 4545SOL     OW17951   0.862   4.226   4.898 -0.1680 -0.1021 -0.2389
 4545SOL    HW217952   0.928   4.296   4.893 -0.4586  0.3909  1.8689
 4545SOL    HW317953   0.779   4.270   4.879 -0.1165 -0.3705 -1.1517
 4545SOL    MW417954   0.860   4.241   4.895 -0.1996 -0.0724 -0.0813
 4546SOL     OW17955   5.357   1.907   5.963 -0.9730  0.5297  0.1286
 4546SOL    HW217956   5.408   1.978   5.922  0.0099 -0.0688  0.2936
 4546SOL    HW317957   5.423   1.845   5.994 -1.8349 -1.0407 -1.0281
 4546SOL    MW417958   5.372   1.908   5.961 -0.9570  0.2436 -0.0023
 4547SOL     OW17959   4.222   1.965   3.770  0.5306 -0.3993  0.1349
 4547SOL    HW217960   4.254   2.055   3.771 -0.3569 -0.0300 -1.2650
 4547SOL    HW317961   4.225   1.939   3.678  1.3971 -2.0575  0.5880
 4547SOL    MW417962   4.227   1.973   3.758  0.5278 -0.5693  0.0100
 4548SOL     OW17963   4.677   1.709   5.548 -0.5905  0.4054 -0.7176
 4548SOL    HW217964   4.691   1.627   5.500 -0.3861 -0.4314  0.6946
 4548SOL    HW317965   4.707   1.777   5.489  5.6341 -0.8676  0.2664
 4548SOL    MW417966   4.683   1.707   5.534  0.2577  0.1271 -0.4014
 4549SOL     OW17967   1.220   1.125   5.652 -0.1863  0.5209  0.0190
 4549SOL    HW217968   1.205   1.137   5.746 -0.0677 -2.4598  0.5345
 4549SOL    HW317969   1.315   1.135   5.642 -0.1741  0.6555  0.2520
 4549SOL    MW417970   1.230   1.128   5.663 -0.1690  0.1454  0.1178
 4550SOL     OW17971   4.814   0.370   1.988 -0.1260  0.3153 -0.8811
 4550SOL    HW217972   4.809   0.390   1.895  1.2431  1.9495 -0.6505
 4550SOL    HW317973   4.738   0.414   2.026 -0.7689 -0.4768 -1.2086
 4550SOL    MW417974   4.803   0.378   1.981 -0.0302  0.4264 -0.8939
 4551SOL     OW17975   4.190   5.272   2.234 -0.0898 -0.0447  0.3457
 4551SOL    HW217976   4.260   5.268   2.169  1.6830 -0.4664  2.1752
 4551SOL    HW317977   4.207   5.352   2.283 -0.8142 -0.2200  0.9058
 4551SOL    MW417978   4.202   5.282   2.232  0.0486 -0.1235  0.6610
 4552SOL     OW17979   2.234   0.059   3.573 -0.3299  0.1341  0.0138
 4552SOL    HW217980   2.280  -0.024   3.560 -0.2379 -0.2604  2.4047
 4552SOL    HW317981   2.170   0.040   3.642  1.2091  2.4976  2.3221
 4552SOL    MW417982   2.232   0.046   3.581 -0.1147  0.3939  0.6338
 4553SOL     OW17983   0.475   3.546   2.722  0.7241 -0.0231  0.0263
 4553SOL    HW217984   0.456   3.553   2.816 -2.4316  1.5315 -0.5931
 4553SOL    HW317985   0.544   3.610   2.708 -0.7236  1.8567  0.9305
 4553SOL    MW417986   0.481   3.555   2.733  0.1167  0.4300  0.0639
 4554SOL     OW17987   2.500   2.823   3.942  0.5841  0.3502  0.2046
 4554SOL    HW217988   2.502   2.727   3.936  0.9417  0.3778 -0.2041
 4554SOL    HW317989   2.504   2.852   3.851 -0.0668  0.7501  0.2982
 4554SOL    MW417990   2.501   2.814   3.929  0.5454  0.4066  0.1630
 4555SOL     OW17991   1.004   4.457   2.820  0.0552 -0.0222  0.2962
 4555SOL    HW217992   1.078   4.460   2.759  0.3287  0.7047  0.6518
 4555SOL    HW317993   1.038   4.496   2.900 -0.9790  1.1728  0.1734
 4555SOL    MW417994   1.019   4.463   2.822 -0.0452  0.2314  0.3269
 4556SOL     OW17995   4.932   5.474   3.123  0.2142 -0.4398 -0.6388
 4556SOL    HW217996   5.011   5.528   3.133 -0.7956  1.4013 -2.0104
 4556SOL    HW317997   4.952   5.415   3.051  0.5044 -0.3052 -0.6701
 4556SOL    MW417998   4.945   5.473   3.115  0.1192 -0.1792 -0.8239
 4557SOL     OW17999   6.071   6.149   0.827  0.0561 -0.3143 -0.2303
 4557SOL    HW218000   6.134   6.077   0.831 -0.1684 -0.5207 -0.3873
 4557SOL    HW318001   6.125   6.228   0.829  0.3904 -0.4893 -1.2901
 4557SOL    MW418002   6.086   6.150   0.828  0.0706 -0.3646 -0.3909
 4558SOL     OW18003   3.564   4.094   1.080  0.0466  0.2413 -0.2104
 4558SOL    HW218004   3.471   4.117   1.090  0.0146  0.3963 -0.8247
 4558SOL    HW318005   3.564   4.000   1.066  0.1520 -0.1297  1.9707
 4558SOL    MW418006   3.552   4.085   1.080  0.0563  0.2128 -0.0036
 4559SOL     OW18007   3.887   0.012   2.359  0.3796 -0.1666  0.4043
 4559SOL    HW218008   3.943  -0.051   2.405 -0.8477 -2.9458 -1.6270
 4559SOL    HW318009   3.800  -0.003   2.396 -0.4310 -1.7252 -1.9219
 4559SOL    MW418010   3.883   0.002   2.370  0.1107 -0.7389 -0.1706
 4560SOL     OW18011   2.433   3.011   5.682 -0.0698  0.4617 -0.3906
 4560SOL    HW218012   2.471   2.967   5.759  1.0916 -0.3086 -1.3619
 4560SOL    HW318013   2.440   3.104   5.702  0.8429  0.2888  0.1735
 4560SOL    MW418014   2.439   3.017   5.695  0.2038  0.3372 -0.4443
 4561SOL     OW18015   5.043   5.346   0.866  0.3118 -0.3393 -0.0509
 4561SOL    HW218016   5.042   5.326   0.960 -0.5039 -1.3188 -0.2628
 4561SOL    HW318017   5.133   5.375   0.849  0.9683 -1.8667  0.6844
 4561SOL    MW418018   5.055   5.347   0.876  0.2908 -0.6700  0.0182
 4562SOL     OW18019   4.073   1.319   6.395 -0.1240  0.0894  0.4573
 4562SOL    HW218020   4.114   1.398   6.360  0.4447  0.6171  2.2025
 4562SOL    HW318021   4.004   1.351   6.453 -0.6649 -0.7320  0.2920
 4562SOL    MW418022   4.069   1.334   6.398 -0.1204  0.0507  0.6657
 4563SOL     OW18023   0.527   1.963   1.926  0.4922 -0.2406 -0.2481
 4563SOL    HW218024   0.602   1.906   1.909  0.3356 -0.0628 -1.6612
 4563SOL    HW318025   0.565   2.044   1.959  0.6101 -1.9658  4.6503
 4563SOL    MW418026   0.542   1.966   1.928  0.4871 -0.4448  0.2117
 4564SOL     OW18027   3.271   1.908   6.316  0.2895  0.1621 -0.0335
 4564SOL    HW218028   3.362   1.878   6.323  1.0775  2.5249  0.8658
 4564SOL    HW318029   3.279   1.997   6.281 -1.7731  0.0342 -0.9282
 4564SOL    MW418030   3.284   1.916   6.312  0.1213  0.4570 -0.0329
 4565SOL     OW18031   2.741   5.429   0.404 -0.2865  0.0313  0.3615
 4565SOL    HW218032   2.694   5.500   0.361 -1.2995  1.3277  3.3598
 4565SOL    HW318033   2.832   5.437   0.373 -0.6348  1.8565 -0.2832
 4565SOL    MW418034   2.747   5.439   0.394 -0.4661  0.4431  0.6721
 4566SOL     OW18035   1.797   3.517   1.846  0.7489 -0.0836  0.2030
 4566SOL    HW218036   1.764   3.432   1.874 -0.0783  0.7566  1.9615
 4566SOL    HW318037   1.718   3.568   1.826  0.9353  1.5112  3.0701
 4566SOL    MW418038   1.782   3.512   1.847  0.6643  0.2377  0.8133
 4567SOL     OW18039   2.599   0.446   5.848 -0.5795 -0.0703  0.8018
 4567SOL    HW218040   2.600   0.538   5.875  3.6249 -0.3334  2.3848
 4567SOL    HW318041   2.648   0.444   5.766 -2.2554 -0.7794 -0.2358
 4567SOL    MW418042   2.606   0.457   5.841 -0.2459 -0.1986  0.8737
 4568SOL     OW18043   4.858   2.742   6.313 -0.2806  0.0329  0.0673
 4568SOL    HW218044   4.825   2.669   6.261  0.4498  0.5814 -1.2056
 4568SOL    HW318045   4.953   2.731   6.315 -0.2926 -0.1135  1.5356
 4568SOL    MW418046   4.866   2.731   6.307 -0.1858  0.0859  0.0931
 4569SOL     OW18047   5.291   3.012   3.594 -0.3714 -0.3594  0.2110
 4569SOL    HW218048   5.198   2.993   3.581 -0.6444  0.0700  1.4124
 4569SOL    HW318049   5.294   3.059   3.677  0.9576 -0.5947  0.3104
 4569SOL    MW418050   5.279   3.016   3.603 -0.2321 -0.3338  0.3826
 4570SOL     OW18051   5.704   2.988   0.400  0.1385  0.1797 -0.7008
 4570SOL    HW218052   5.620   2.960   0.365  0.1334 -0.0732 -0.4916
 4570SOL    HW318053   5.767   2.970   0.330  0.4687 -2.2858  0.1220
 4570SOL    MW418054   5.701   2.982   0.386  0.1814 -0.1789 -0.5646
 4571SOL     OW18055   6.073   4.169   1.587  0.5177 -0.0134  0.0777
 4571SOL    HW218056   6.149   4.123   1.621 -0.9851 -3.0019 -0.2671
 4571SOL    HW318057   6.019   4.186   1.664 -0.2324 -1.5406 -0.0707
 4571SOL    MW418058   6.076   4.165   1.601  0.2205 -0.6092  0.0126
 4572SOL     OW18059   5.527   5.984   2.163  0.1023  0.0590  0.2159
 4572SOL    HW218060   5.515   5.893   2.190 -0.1254 -0.2787 -0.9710
 4572SOL    HW318061   5.487   6.035   2.233  2.1970 -0.6179  2.0479
 4572SOL    MW418062   5.520   5.978   2.176  0.3486 -0.0749  0.3010
 4573SOL     OW18063   1.764   1.442   2.743  0.2170  0.4723  0.1921
 4573SOL    HW218064   1.815   1.511   2.785 -0.1557  0.6960  0.2807
 4573SOL    HW318065   1.823   1.367   2.739  0.2367  0.4327  1.1700
 4573SOL    MW418066   1.778   1.441   2.748  0.1704  0.4966  0.3328
 4574SOL     OW18067   5.020   5.891   6.227  0.6709  0.2528 -0.0900
 4574SOL    HW218068   4.984   5.803   6.234  0.4404  0.3000 -0.6342
 4574SOL    HW318069   5.043   5.901   6.135 -0.3632  1.1691 -0.2695
 4574SOL    MW418070   5.018   5.881   6.216  0.5041  0.3799 -0.1855
 4575SOL     OW18071   0.460   0.687   4.411 -0.2344  0.0218  1.0314
 4575SOL    HW218072   0.474   0.719   4.322 -0.9677 -0.0777  0.8789
 4575SOL    HW318073   0.391   0.621   4.403  1.3217 -1.7386  1.3031
 4575SOL    MW418074   0.453   0.683   4.399 -0.1258 -0.2236  1.0471
 4576SOL     OW18075   5.935   5.816   2.202 -0.3420  0.1745  0.0614
 4576SOL    HW218076   5.916   5.859   2.119  1.2722 -0.3971 -0.6348
 4576SOL    HW318077   5.948   5.888   2.264 -0.5815  0.6154 -0.3913
 4576SOL    MW418078   5.934   5.831   2.199 -0.1607  0.1572 -0.0902
 4577SOL     OW18079   2.317   2.045   5.547 -0.4056 -0.1345  0.4801
 4577SOL    HW218080   2.301   1.973   5.487 -0.3650  1.5950 -1.7672
 4577SOL    HW318081   2.401   2.082   5.517 -0.5428  0.9622  1.4026
 4577SOL    MW418082   2.326   2.041   5.535 -0.4183  0.2384  0.3053
 4578SOL     OW18083   0.421   1.632   4.946  0.3208  0.6192 -0.2483
 4578SOL    HW218084   0.335   1.608   4.981 -0.0694  1.8156 -0.3398
 4578SOL    HW318085   0.482   1.571   4.987 -0.6195 -0.5331 -0.5119
 4578SOL    MW418086   0.418   1.621   4.956  0.1453  0.6250 -0.2951
 4579SOL     OW18087   0.632   4.651   4.467 -0.5333  0.0533 -0.4593
 4579SOL    HW218088   0.583   4.583   4.513 -1.9025  2.7702  2.4923
 4579SOL    HW318089   0.724   4.629   4.482 -0.9441 -1.0060  0.7113
 4579SOL    MW418090   0.638   4.639   4.475 -0.7681  0.2720  0.0846
 4580SOL     OW18091   5.336   3.429   2.990  0.0437 -0.0700 -0.8155
 4580SOL    HW218092   5.260   3.439   2.933  0.1691 -0.2861 -1.0246
 4580SOL    HW318093   5.314   3.478   3.069 -0.8195 -1.1110 -0.3793
 4580SOL    MW418094   5.323   3.437   2.993 -0.0537 -0.2358 -0.7855
 4581SOL     OW18095   6.044   5.412   5.435  0.0124  0.1174 -0.2327
 4581SOL    HW218096   6.124   5.359   5.431 -0.5693 -1.0638  2.0663
 4581SOL    HW318097   6.064   5.490   5.383  2.7750  0.0109  0.5110
 4581SOL    MW418098   6.057   5.415   5.427  0.3001 -0.0525  0.1687
 4582SOL     OW18099   2.126   0.267   4.676 -0.2206  0.1270 -0.3457
 4582SOL    HW218100   2.168   0.267   4.761 -0.2802 -0.0657 -0.3140
 4582SOL    HW318101   2.067   0.342   4.677  0.5346  0.7274 -0.5996
 4582SOL    MW418102   2.123   0.277   4.687 -0.1288  0.1808 -0.3750
 4583SOL     OW18103   6.084   0.755   4.867  0.4807 -0.5637  0.0893
 4583SOL    HW218104   6.132   0.684   4.910 -1.3341 -2.1308 -0.3168
 4583SOL    HW318105   6.000   0.757   4.912 -1.6576 -2.5301 -3.4233
 4583SOL    MW418106   6.079   0.746   4.879 -0.0409 -1.0299 -0.4277
 4584SOL     OW18107   5.610   5.260   2.476  0.3645  0.1582  0.1776
 4584SOL    HW218108   5.696   5.242   2.515 -0.0715 -3.4392 -0.1934
 4584SOL    HW318109   5.630   5.295   2.389  1.3728  1.4179  0.8731
 4584SOL    MW418110   5.624   5.262   2.470  0.4400 -0.1502  0.2204
 4585SOL     OW18111   4.444   2.278   6.127  0.4162  0.0430  0.0520
 4585SOL    HW218112   4.466   2.281   6.034  2.0497  0.1064  0.4179
 4585SOL    HW318113   4.426   2.369   6.151 -0.4362 -0.0253 -0.2698
 4585SOL    MW418114   4.444   2.290   6.118  0.5192  0.0424  0.0578
 4586SOL     OW18115   1.182   6.343   6.214 -0.6613  0.3246  0.0444
 4586SOL    HW218116   1.158   6.269   6.158 -1.7202  0.7604 -0.1066
 4586SOL    HW318117   1.143   6.419   6.171 -2.9636  0.4881  2.1693
 4586SOL    MW418118   1.174   6.343   6.201 -1.1048  0.4036  0.3048
 4587SOL     OW18119   5.856   3.729   2.135  0.0116 -0.1539 -0.0753
 4587SOL    HW218120   5.815   3.714   2.050  0.2074 -0.0902 -0.1811
 4587SOL    HW318121   5.947   3.703   2.123 -0.0096 -0.3539  0.1772
 4587SOL    MW418122   5.863   3.724   2.122  0.0346 -0.1719 -0.0559
 4588SOL     OW18123   5.333   3.816   1.776  0.0830  0.0519  0.3210
 4588SOL    HW218124   5.401   3.783   1.718  3.2744  2.2067  2.4536
 4588SOL    HW318125   5.345   3.767   1.857  0.3020  1.5863  1.2688
 4588SOL    MW418126   5.344   3.805   1.779  0.5330  0.5387  0.7274
 4589SOL     OW18127   0.527   5.755   4.714 -0.2550 -0.1795 -0.0148
 4589SOL    HW218128   0.554   5.845   4.734 -2.3841  0.9865 -1.9439
 4589SOL    HW318129   0.492   5.722   4.797 -1.6917  1.6812  0.1945
 4589SOL    MW418130   0.526   5.763   4.728 -0.7255  0.2198 -0.2417
 4590SOL     OW18131   5.415   5.014   1.034  0.6876 -0.8213 -0.6463
 4590SOL    HW218132   5.503   4.984   1.059  1.8611  0.8986 -2.4431
 4590SOL    HW318133   5.417   5.016   0.939 -0.3471  1.8335 -0.6983
 4590SOL    MW418134   5.427   5.010   1.025  0.7059 -0.2441 -0.8902
 4591SOL     OW18135   1.214   3.969   4.180 -0.1259  0.2525 -0.3768
 4591SOL    HW218136   1.284   3.978   4.244 -1.1546 -0.4896  0.9082
 4591SOL    HW318137   1.170   3.886   4.203  0.0794 -0.5822 -2.6736
 4591SOL    MW418138   1.217   3.959   4.191 -0.2345  0.0445 -0.5103
 4592SOL     OW18139   4.369   4.506   4.927  0.6977 -0.4533  0.5707
 4592SOL    HW218140   4.369   4.572   4.857  1.4691 -0.9146  0.1241
 4592SOL    HW318141   4.459   4.504   4.959  0.2836 -0.0265  1.8120
 4592SOL    MW418142   4.381   4.515   4.922  0.7448 -0.4579  0.6756
 4593SOL     OW18143   6.118   3.688   5.002 -0.4402 -0.2886  0.8617
 4593SOL    HW218144   6.187   3.755   4.998 -0.8575  0.1716  1.2647
 4593SOL    HW318145   6.073   3.695   4.918 -0.4294 -0.1204  0.8688
 4593SOL    MW418146   6.122   3.698   4.991 -0.4938 -0.2057  0.9158
 4594SOL     OW18147   0.496   4.645   5.692 -0.2127  0.8171 -0.3792
 4594SOL    HW218148   0.505   4.733   5.656 -0.1967 -0.3450 -3.5211
 4594SOL    HW318149   0.404   4.638   5.717 -0.3247  1.5407 -0.5804
 4594SOL    MW418150   0.485   4.656   5.691 -0.2254  0.7593 -0.8203
 4595SOL     OW18151   3.935   5.052   4.540 -0.2030 -0.1302 -0.0762
 4595SOL    HW218152   4.001   5.009   4.595 -0.7010  0.4982  1.0389
 4595SOL    HW318153   3.852   5.033   4.584 -0.4556  1.8314  0.3596
 4595SOL    MW418154   3.933   5.044   4.553 -0.3021  0.2115  0.1284
 4596SOL     OW18155   2.927   0.131   0.047  0.0252  0.1896  0.6712
 4596SOL    HW218156   2.863   0.129  -0.024  0.9546 -1.3726 -0.1891
 4596SOL    HW318157   2.986   0.058   0.028  2.2372  1.7047  1.2505
 4596SOL    MW418158   2.927   0.121   0.035  0.4396  0.1834  0.6341
 4597SOL     OW18159   2.675   0.493   4.489  0.6246 -0.2230  0.2698
 4597SOL    HW218160   2.684   0.558   4.420  2.8153  0.3346  1.0081
 4597SOL    HW318161   2.696   0.409   4.447  0.8456 -0.0381  0.0147
 4597SOL    MW418162   2.679   0.490   4.475  0.9428 -0.1250  0.3336
 4598SOL     OW18163   1.410   5.316   6.045 -0.5536 -0.2195 -0.0176
 4598SOL    HW218164   1.428   5.251   6.114 -1.5296 -0.4898 -0.0091
 4598SOL    HW318165   1.424   5.400   6.087  1.1371 -0.4078 -0.1395
 4598SOL    MW418166   1.414   5.318   6.060 -0.4593 -0.2800 -0.0326
 4599SOL     OW18167   1.363   1.168   4.368 -0.0354  0.4119  0.2433
 4599SOL    HW218168   1.276   1.134   4.387  0.4242 -0.7423  0.3804
 4599SOL    HW318169   1.367   1.174   4.273  0.2677 -1.0586  0.1452
 4599SOL    MW418170   1.352   1.165   4.358  0.0652  0.0656  0.2484
 4600SOL     OW18171   4.714   4.594   4.286 -0.3849  0.4370 -0.1032
 4600SOL    HW218172   4.631   4.610   4.242  0.6816 -0.9286 -2.8544
 4600SOL    HW318173   4.780   4.621   4.222  1.3720  1.8804  2.1531
 4600SOL    MW418174   4.712   4.600   4.272 -0.0124  0.4472 -0.1685
 4601SOL     OW18175   0.999   4.854   3.774  0.4775 -0.3876 -0.2611
 4601SOL    HW218176   0.981   4.934   3.823  0.3149 -0.5832 -0.0004
 4601SOL    HW318177   1.084   4.824   3.806  0.0195 -0.9452  0.4909
 4601SOL    MW418178   1.007   4.860   3.785  0.3956 -0.4870 -0.1275
 4602SOL     OW18179   6.262   0.356   2.113 -0.0685 -0.3255 -0.2019
 4602SOL    HW218180   6.272   0.404   2.030  3.7449  0.5290  0.5702
 4602SOL    HW318181   6.269   0.424   2.180  0.2278 -1.3992  0.8805
 4602SOL    MW418182   6.264   0.372   2.111  0.4737 -0.3544  0.0428
 4603SOL     OW18183   5.209   5.065   1.248  0.0847 -0.2013 -0.0491
 4603SOL    HW218184   5.244   4.994   1.302  1.8041  0.8284  0.2721
 4603SOL    HW318185   5.258   5.061   1.167 -0.3360  0.1638 -0.3284
 4603SOL    MW418186   5.220   5.055   1.245  0.2560 -0.0173 -0.0436
 4604SOL     OW18187   5.993   5.491   3.902 -0.0948 -0.6610 -0.0035
 4604SOL    HW218188   6.037   5.448   3.829 -1.8378 -1.7659 -0.4703
 4604SOL    HW318189   5.900   5.482   3.882 -0.6165 -0.6101  2.1567
 4604SOL    MW418190   5.986   5.484   3.890 -0.3936 -0.8001  0.2199
 4605SOL     OW18191   3.893   4.937   5.317  0.3159 -0.2242  0.2011
 4605SOL    HW218192   3.911   4.993   5.392 -1.5009 -2.5058  2.4795
 4605SOL    HW318193   3.797   4.937   5.309  0.3888 -1.4085 -1.0546
 4605SOL    MW418194   3.882   4.945   5.326  0.0858 -0.6815  0.3361
 4606SOL     OW18195   5.746   4.615   0.085 -0.2969 -0.4190 -0.4355
 4606SOL    HW218196   5.841   4.609   0.098 -0.0373 -0.0882 -1.9669
 4606SOL    HW318197   5.730   4.569   0.003 -1.2626  0.6708 -0.8840
 4606SOL    MW418198   5.757   4.608   0.076 -0.3901 -0.2316 -0.6967
 4607SOL     OW18199   5.068   4.599   5.352 -0.0103 -0.5093 -0.2406
 4607SOL    HW218200   5.078   4.527   5.290 -0.2805  0.0602 -0.9669
 4607SOL    HW318201   5.065   4.678   5.297  0.3214  0.0658  0.5321
 4607SOL    MW418202   5.069   4.600   5.336 -0.0022 -0.3583 -0.2345
 4608SOL     OW18203   1.234   5.881   0.494 -0.2989  0.0661  0.5316
 4608SOL    HW218204   1.292   5.914   0.425 -1.8215  0.0418 -0.8372
 4608SOL    HW318205   1.226   5.788   0.476  0.8612 -0.3375  1.9854
 4608SOL    MW418206   1.241   5.873   0.482 -0.3467  0.0096  0.5428
 4609SOL     OW18207   1.942   1.842   0.805  0.2946  0.2845 -0.2246
 4609SOL    HW218208   1.908   1.931   0.796  1.6240  0.8294 -0.1224
 4609SOL    HW318209   1.968   1.836   0.897  0.8512  0.0441 -0.3908
 4609SOL    MW418210   1.941   1.853   0.816  0.5435  0.3247 -0.2330
 4610SOL     OW18211   5.062   0.582   1.711  0.0351  0.0714 -0.1084
 4610SOL    HW218212   5.091   0.535   1.633 -1.0731  1.4473 -1.4175
 4610SOL    HW318213   4.971   0.556   1.722 -0.3006  1.1276 -0.2704
 4610SOL    MW418214   5.054   0.572   1.702 -0.1554  0.3922 -0.3025
 4611SOL     OW18215   1.240   1.566   0.403  0.3952  0.5110 -0.0193
 4611SOL    HW218216   1.224   1.472   0.390 -0.5588  0.7105 -0.4027
 4611SOL    HW318217   1.302   1.570   0.475  0.2073 -0.4152  0.2072
 4611SOL    MW418218   1.246   1.554   0.411  0.2446  0.4151 -0.0400
 4612SOL     OW18219   4.537   1.131   2.027 -0.2547  0.0335  0.1501
 4612SOL    HW218220   4.623   1.165   2.004 -0.1527 -0.2972  0.0348
 4612SOL    HW318221   4.479   1.207   2.024  0.0141  0.2390  0.1351
 4612SOL    MW418222   4.541   1.146   2.024 -0.2058  0.0170  0.1329
 4613SOL     OW18223   0.919   4.240   1.963 -0.0489  0.2170 -0.1227
 4613SOL    HW218224   0.973   4.304   2.010 -0.3019 -0.2787  0.8838
 4613SOL    HW318225   0.982   4.181   1.923  0.1844 -0.1711  0.7772
 4613SOL    MW418226   0.934   4.241   1.964 -0.0515  0.1004  0.1288
 4614SOL     OW18227   3.704   0.934   2.760  0.5138  0.2808 -0.0649
 4614SOL    HW218228   3.651   0.870   2.806 -0.5460  2.6584  2.2594
 4614SOL    HW318229   3.793   0.899   2.762 -0.3490 -2.1313 -0.9532
 4614SOL    MW418230   3.709   0.921   2.766  0.2601  0.2762  0.1246
 4615SOL     OW18231   4.292   5.778   2.092 -0.8983  0.1477 -0.3348
 4615SOL    HW218232   4.201   5.748   2.096 -0.6780 -1.0234 -2.6663
 4615SOL    HW318233   4.321   5.756   2.003  1.4118  1.2621  0.0717
 4615SOL    MW418234   4.284   5.771   2.081 -0.5644  0.1402 -0.5888
 4616SOL     OW18235   4.023   4.958   3.064 -0.0471 -0.4417  0.9348
 4616SOL    HW218236   4.029   4.902   2.988 -1.7791 -1.8725  1.7846
 4616SOL    HW318237   4.070   4.911   3.133  0.6032  0.3490  1.0618
 4616SOL    MW418238   4.030   4.945   3.063 -0.1898 -0.5261  1.0637
 4617SOL     OW18239   2.837   2.051   0.734 -0.0757  0.4006  0.2724
 4617SOL    HW218240   2.763   2.049   0.795 -0.2251  2.2802  0.2152
 4617SOL    HW318241   2.903   1.994   0.774 -1.1970 -0.5653  0.7843
 4617SOL    MW418242   2.836   2.043   0.748 -0.2434  0.5211  0.3324
 4618SOL     OW18243   0.457   5.743   0.638  0.2440  0.3428 -0.5931
 4618SOL    HW218244   0.377   5.777   0.597  1.8690  1.3826 -3.0841
 4618SOL    HW318245   0.489   5.677   0.577  2.6989  1.8653 -1.0711
 4618SOL    MW418246   0.451   5.739   0.625  0.7823  0.6809 -0.9848
 4619SOL     OW18247   1.457   3.384   4.961 -0.2394 -0.0987 -0.3460
 4619SOL    HW218248   1.530   3.444   4.976 -0.2675 -0.1255 -0.1063
 4619SOL    HW318249   1.498   3.304   4.930 -0.0458 -0.5917  1.1091
 4619SOL    MW418250   1.472   3.381   4.959 -0.2176 -0.1673 -0.1224
 4620SOL     OW18251   3.844   4.501   4.182  0.0898  0.5338  0.4789
 4620SOL    HW218252   3.890   4.444   4.244  2.4884 -0.1342 -1.7447
 4620SOL    HW318253   3.785   4.442   4.135 -1.1547  0.8967  1.5354
 4620SOL    MW418254   3.843   4.485   4.184  0.2421  0.4936  0.3249
 4621SOL     OW18255   0.090   4.810   3.245  0.3417 -0.2512  0.3881
 4621SOL    HW218256  -0.002   4.831   3.258  0.5144  0.7234  0.1209
 4621SOL    HW318257   0.119   4.870   3.176  1.0996 -0.7604  0.2443
 4621SOL    MW418258   0.082   4.821   3.238  0.4644 -0.1898  0.3339
 4622SOL     OW18259   2.615   6.193   6.151  0.1442 -0.7155 -0.0899
 4622SOL    HW218260   2.562   6.218   6.227 -0.9389  1.0123 -1.3528
 4622SOL    HW318261   2.681   6.261   6.145 -1.2894  0.5877 -2.0964
 4622SOL    MW418262   2.617   6.205   6.161 -0.1879 -0.3156 -0.5212
 4623SOL     OW18263   5.143   0.929   0.531  0.4104 -0.3347 -0.2386
 4623SOL    HW218264   5.101   1.013   0.548 -0.8851 -0.9294 -0.3591
 4623SOL    HW318265   5.136   0.917   0.436  1.0496 -0.3427 -0.2851
 4623SOL    MW418266   5.137   0.938   0.521  0.3238 -0.4142 -0.2606
 4624SOL     OW18267   6.138   0.197   4.842  0.1931 -0.2173  0.2713
 4624SOL    HW218268   6.216   0.145   4.862 -1.1635 -1.6701  2.1772
 4624SOL    HW318269   6.065   0.144   4.875 -1.4479  1.9167  0.2694
 4624SOL    MW418270   6.139   0.183   4.849 -0.2024 -0.1274  0.5225
 4625SOL     OW18271   5.173   4.285   3.855 -0.4371  0.1770  0.6534
 4625SOL    HW218272   5.219   4.303   3.772 -0.8289 -0.2998  0.3272
 4625SOL    HW318273   5.222   4.335   3.920  0.7003 -0.5110  0.3559
 4625SOL    MW418274   5.185   4.294   3.852 -0.3387  0.0233  0.5711
 4626SOL     OW18275   6.157   5.077   0.532 -0.2462  0.0786  0.1537
 4626SOL    HW218276   6.100   5.075   0.609 -0.6456 -1.5449 -0.1602
 4626SOL    HW318277   6.106   5.125   0.467  0.8955  3.3200  1.4258
 4626SOL    MW418278   6.143   5.083   0.534 -0.1483  0.2921  0.2801
 4627SOL     OW18279   2.179   1.843   2.435  0.6191 -0.0265 -0.2244
 4627SOL    HW218280   2.231   1.763   2.440  1.1079  0.3646  1.6838
 4627SOL    HW318281   2.094   1.818   2.472  0.6466  0.2172  0.0101
 4627SOL    MW418282   2.174   1.829   2.441  0.6872  0.0573  0.0583
 4628SOL     OW18283   3.144   1.348   0.184  0.1109 -0.3379  0.2540
 4628SOL    HW218284   3.172   1.435   0.157 -0.9580 -0.0958 -0.1387
 4628SOL    HW318285   3.120   1.305   0.102  0.2536 -0.8650  0.4855
 4628SOL    MW418286   3.144   1.354   0.169 -0.0113 -0.3755  0.2327
 4629SOL     OW18287   5.895   0.261   4.177  0.3150  0.0397  0.0621
 4629SOL    HW218288   5.988   0.256   4.154  0.6775 -0.5252  1.5879
 4629SOL    HW318289   5.869   0.170   4.192 -0.8086  0.0638 -1.4562
 4629SOL    MW418290   5.904   0.249   4.176  0.2146 -0.0316  0.0631
 4630SOL     OW18291   5.959   3.102   5.961 -1.1396  0.7080  0.3610
 4630SOL    HW218292   5.919   3.118   5.875  0.3325 -0.6408 -0.6543
 4630SOL    HW318293   5.933   3.013   5.983  1.0138 -0.1532 -0.2513
 4630SOL    MW418294   5.951   3.092   5.952 -0.6613  0.4164  0.1463
 4631SOL     OW18295   1.322   4.154   2.497  0.1935  0.4228 -0.1598
 4631SOL    HW218296   1.313   4.070   2.453  1.4619  0.5611 -0.7323
 4631SOL    HW318297   1.278   4.217   2.441  0.6948  0.3933 -0.5941
 4631SOL    MW418298   1.315   4.151   2.484  0.4270  0.4372 -0.2926
 4632SOL     OW18299   0.127   5.041   3.076  0.0163  0.1070  0.0968
 4632SOL    HW218300   0.183   5.072   3.005  1.6066 -0.8087  0.9010
 4632SOL    HW318301   0.068   5.115   3.095  1.8154  1.6133  0.0940
 4632SOL    MW418302   0.126   5.055   3.069  0.4635  0.1849  0.2025
 4633SOL     OW18303   0.264   1.374   1.425 -0.1941 -1.0223  0.2523
 4633SOL    HW218304   0.290   1.282   1.428 -1.0515 -1.3382 -1.0786
 4633SOL    HW318305   0.223   1.390   1.510 -0.4949 -2.0239  0.3118
 4633SOL    MW418306   0.262   1.364   1.436 -0.3469 -1.1962  0.0846
 4634SOL     OW18307   4.429   2.004   1.930 -0.5972 -0.0323 -0.1787
 4634SOL    HW218308   4.359   2.063   1.902 -0.4434  0.1733 -0.1283
 4634SOL    HW318309   4.509   2.053   1.917 -0.3462 -0.7731 -1.5642
 4634SOL    MW418310   4.430   2.018   1.925 -0.5438 -0.1029 -0.3549
 4635SOL     OW18311   4.362   2.998   5.736  0.3042 -0.2971  0.5152
 4635SOL    HW218312   4.326   2.911   5.718 -0.2637  0.3158 -1.6404
 4635SOL    HW318313   4.456   2.988   5.727  0.3011 -0.8576  1.1031
 4635SOL    MW418314   4.369   2.985   5.733  0.2289 -0.2902  0.3083
 4636SOL     OW18315   5.183   4.167   0.522 -0.1422 -0.2065 -0.5176
 4636SOL    HW218316   5.116   4.138   0.584 -1.4993  0.4493 -1.6128
 4636SOL    HW318317   5.213   4.086   0.480  0.2654 -0.5754  0.4572
 4636SOL    MW418318   5.178   4.152   0.524 -0.2675 -0.1687 -0.5335
 4637SOL     OW18319   3.165   0.486   5.662  0.3288  0.6868  0.1596
 4637SOL    HW218320   3.178   0.403   5.708  0.2665  0.3707 -0.3835
 4637SOL    HW318321   3.236   0.490   5.599  1.2815  1.8158  1.2554
 4637SOL    MW418322   3.176   0.476   5.660  0.4462  0.7941  0.2325
 4638SOL     OW18323   3.610   4.307   3.251  0.0459 -0.1638  0.0838
 4638SOL    HW218324   3.686   4.304   3.309  0.9873  0.9681 -1.0235
 4638SOL    HW318325   3.568   4.222   3.262  2.7773 -1.7950 -0.9513
 4638SOL    MW418326   3.615   4.295   3.260  0.5305 -0.2296 -0.1989
 4639SOL     OW18327   2.815   6.395   6.168 -0.1467 -0.2010  0.4259
 4639SOL    HW218328   2.890   6.438   6.128  0.0514 -1.1946 -0.3264
 4639SOL    HW318329   2.768   6.465   6.212  0.2440  0.7553 -0.6113
 4639SOL    MW418330   2.819   6.410   6.168 -0.0690 -0.2059  0.1898
 4640SOL     OW18331   1.101   2.128   2.858  0.4803  0.2614 -0.2298
 4640SOL    HW218332   1.113   2.202   2.917 -0.8563  0.5188 -0.2482
 4640SOL    HW318333   1.023   2.083   2.892  1.6341 -1.5448  0.1803
 4640SOL    MW418334   1.092   2.132   2.870  0.4562  0.0570 -0.1781
 4641SOL     OW18335   2.963   3.420   1.383 -0.8005  0.0901  0.2449
 4641SOL    HW218336   2.994   3.335   1.415 -0.1305  0.3461  0.2935
 4641SOL    HW318337   2.954   3.473   1.462  0.3575  0.5629  0.0765
 4641SOL    MW418338   2.966   3.416   1.397 -0.5593  0.1862  0.2291
 4642SOL     OW18339   0.497   3.906   4.089  0.0241 -0.4478  0.0313
 4642SOL    HW218340   0.480   3.927   3.997  0.1297  0.1464  0.1426
 4642SOL    HW318341   0.570   3.963   4.113 -0.6314  0.0973  0.7569
 4642SOL    MW418342   0.505   3.916   4.080 -0.0485 -0.2975  0.1417
 4643SOL     OW18343   1.333   5.073   5.934  0.2163 -0.0619 -0.3841
 4643SOL    HW218344   1.351   5.167   5.945  0.8204 -0.2500  0.2886
 4643SOL    HW318345   1.239   5.069   5.916  0.2777  0.7109 -0.9337
 4643SOL    MW418346   1.323   5.085   5.933  0.3041  0.0153 -0.3678
 4644SOL     OW18347   1.704   1.010   5.328 -0.5504  0.0025 -0.9602
 4644SOL    HW218348   1.618   0.969   5.313 -0.6723  0.4958 -1.6391
 4644SOL    HW318349   1.753   0.945   5.379 -1.8100  0.2857  0.7249
 4644SOL    MW418350   1.699   0.996   5.333 -0.7327  0.1049 -0.8274
 4645SOL     OW18351   5.159   3.048   6.080  0.2382 -0.1883  0.0684
 4645SOL    HW218352   5.185   3.015   6.166 -0.6591  0.7735  0.7333
 4645SOL    HW318353   5.192   3.138   6.078  3.0702 -1.1248 -1.9015
 4645SOL    MW418354   5.167   3.056   6.091  0.4934 -0.1850 -0.1038
 4646SOL     OW18355   1.095   3.641   4.546  0.3747 -0.7784  0.5964
 4646SOL    HW218356   1.071   3.576   4.479 -2.5216 -1.5603  2.2042
 4646SOL    HW318357   1.022   3.704   4.544  1.1028  0.1344  1.8410
 4646SOL    MW418358   1.082   3.640   4.537  0.0886 -0.7612  0.9728
 4647SOL     OW18359   5.574   6.355   2.809 -0.3099 -0.1706 -0.1688
 4647SOL    HW218360   5.604   6.366   2.718  1.8763 -2.0585  0.2401
 4647SOL    HW318361   5.599   6.437   2.852  0.2624  0.0381 -0.8706
 4647SOL    MW418362   5.582   6.367   2.802  0.0540 -0.3921 -0.2074
 4648SOL     OW18363   4.889   3.256   1.938 -0.0300  0.1385  0.5415
 4648SOL    HW218364   4.908   3.196   1.866  0.5068  0.6418  0.2573
 4648SOL    HW318365   4.795   3.272   1.932  0.2710  1.5069 -1.1105
 4648SOL    MW418366   4.879   3.250   1.928  0.0806  0.3854  0.2860
 4649SOL     OW18367   6.399   2.286   6.173 -0.0637  0.6495  0.0911
 4649SOL    HW218368   6.480   2.330   6.149 -0.4273  0.9455 -0.6261
 4649SOL    HW318369   6.352   2.349   6.227  0.3420  0.3361  0.8233
 4649SOL    MW418370   6.404   2.300   6.177 -0.0581  0.6472  0.0931
 4650SOL     OW18371   4.138   2.947   1.892  0.2454 -0.2262  0.2937
 4650SOL    HW218372   4.053   2.967   1.931 -0.3469 -0.9331 -0.5896
 4650SOL    HW318373   4.195   3.018   1.922 -0.9382  0.9112 -0.0375
 4650SOL    MW418374   4.134   2.959   1.901  0.0111 -0.1694  0.1335
 4651SOL     OW18375   2.551   3.647   5.875 -0.1852 -0.0939  1.0069
 4651SOL    HW218376   2.524   3.686   5.958  1.3924  0.8329  1.1182
 4651SOL    HW318377   2.646   3.636   5.883  0.4887  2.5401 -1.6639
 4651SOL    MW418378   2.560   3.650   5.887  0.1119  0.3759  0.6692
 4652SOL     OW18379   4.242   2.790   4.856  0.3265 -0.1314  0.3095
 4652SOL    HW218380   4.289   2.825   4.781  1.0417  0.2971  0.9411
 4652SOL    HW318381   4.219   2.701   4.830 -0.9742  0.5645 -1.0836
 4652SOL    MW418382   4.245   2.783   4.843  0.2493  0.0170  0.2090
 4653SOL     OW18383   2.417   3.625   2.946 -0.1306  0.5278 -0.5251
 4653SOL    HW218384   2.494   3.597   2.997 -1.3514 -0.5264  0.8089
 4653SOL    HW318385   2.419   3.721   2.951  1.4225  0.5518 -1.0495
 4653SOL    MW418386   2.428   3.634   2.954 -0.0868  0.3919 -0.4183
 4654SOL     OW18387   5.299   3.158   3.126 -0.4642 -0.5090 -0.6209
 4654SOL    HW218388   5.313   3.245   3.088 -1.1004  0.2493  0.8264
 4654SOL    HW318389   5.220   3.126   3.083 -1.2964  0.4256  0.1525
 4654SOL    MW418390   5.291   3.166   3.115 -0.6579 -0.2856 -0.3279
 4655SOL     OW18391   4.620   3.377   5.872  0.3773  0.0916  0.0365
 4655SOL    HW218392   4.713   3.394   5.887  0.4993 -0.5227 -0.0132
 4655SOL    HW318393   4.580   3.386   5.958  0.2622  1.6384 -0.1379
 4655SOL    MW418394   4.627   3.381   5.885  0.3782  0.2146  0.0069
 4656SOL     OW18395   6.041   4.242   1.262  0.3724 -0.1530  0.4174
 4656SOL    HW218396   6.078   4.220   1.176 -1.1737 -1.7716  0.1148
 4656SOL    HW318397   6.042   4.159   1.309  0.1476  0.4903  1.5728
 4656SOL    MW418398   6.046   4.228   1.257  0.1388 -0.2817  0.5299
 4657SOL     OW18399   3.081   5.869   4.687  0.1682  0.4165 -0.6344
 4657SOL    HW218400   3.143   5.805   4.653 -0.1984 -0.4010  0.1932
 4657SOL    HW318401   3.054   5.835   4.772 -1.7743  0.4954 -1.1534
 4657SOL    MW418402   3.085   5.856   4.694 -0.1364  0.3190 -0.5937
 4658SOL     OW18403   5.833   6.057   1.489 -0.0604 -0.1035 -0.0723
 4658SOL    HW218404   5.780   6.000   1.544 -1.2664 -0.3613 -1.4460
 4658SOL    HW318405   5.920   6.054   1.529 -0.2219 -2.4352  0.2560
 4658SOL    MW418406   5.838   6.049   1.502 -0.2408 -0.4451 -0.2103
 4659SOL     OW18407   1.175   0.167   3.311  0.2215 -0.0652 -0.3701
 4659SOL    HW218408   1.139   0.108   3.245  1.2252 -1.4728  0.2988
 4659SOL    HW318409   1.117   0.156   3.386 -0.6241  1.1558 -0.8236
 4659SOL    MW418410   1.162   0.158   3.312  0.2424 -0.0898 -0.3416
 4660SOL     OW18411   4.005   2.747   6.242  0.1103 -0.4015  0.5783
 4660SOL    HW218412   4.008   2.781   6.331  0.4357 -0.1122  0.4591
 4660SOL    HW318413   4.044   2.816   6.188 -0.5765 -0.3404  0.1348
 4660SOL    MW418414   4.010   2.760   6.247  0.0626 -0.3553  0.5041
 4661SOL     OW18415   2.501   4.137   5.260  0.3553  0.4160 -0.8928
 4661SOL    HW218416   2.589   4.108   5.235  1.0257  0.7866  0.8569
 4661SOL    HW318417   2.513   4.175   5.347 -1.6072  0.1762 -0.4779
 4661SOL    MW418418   2.515   4.138   5.268  0.1848  0.4333 -0.6072
 4662SOL     OW18419   2.619   2.483   4.013 -0.1551  0.0877  0.1769
 4662SOL    HW218420   2.666   2.501   4.094 -0.6380  0.1558  0.4420
 4662SOL    HW318421   2.685   2.495   3.944  0.6114 -1.2789  0.6392
 4662SOL    MW418422   2.634   2.487   4.014 -0.1177 -0.0836  0.2729
 4663SOL     OW18423   1.569   4.661   5.228 -0.0611  1.2415  0.4182
 4663SOL    HW218424   1.510   4.725   5.269  1.3488  2.1390  1.1183
 4663SOL    HW318425   1.646   4.659   5.285 -0.0219 -1.0584  0.3748
 4663SOL    MW418426   1.571   4.669   5.241  0.1301  1.0564  0.5048
 4664SOL     OW18427   6.288   4.510   0.004 -0.3902  0.5634 -0.1162
 4664SOL    HW218428   6.333   4.505  -0.081 -0.1108  1.3110 -0.0174
 4664SOL    HW318429   6.315   4.594   0.041 -0.4329  0.2006  0.7647
 4664SOL    MW418430   6.297   4.521  -0.003 -0.3590  0.6141  0.0131
 4665SOL     OW18431   1.952   0.428   2.612  0.0352  0.5489 -0.3163
 4665SOL    HW218432   2.002   0.434   2.530 -0.6571  0.9701 -0.7246
 4665SOL    HW318433   1.993   0.491   2.670 -0.5480  1.5431 -0.9515
 4665SOL    MW418434   1.964   0.437   2.609 -0.1331  0.7356 -0.4539
 4666SOL     OW18435   2.035   2.058   5.140  0.4079 -1.0797  0.6168
 4666SOL    HW218436   1.955   2.101   5.110  0.8456 -1.2475 -0.8788
 4666SOL    HW318437   2.066   2.112   5.213  0.4550  0.6568 -0.6204
 4666SOL    MW418438   2.029   2.071   5.146  0.4719 -0.8728  0.2563
 4667SOL     OW18439   4.968   0.247   6.340  0.7647 -0.1302  0.7173
 4667SOL    HW218440   4.947   0.340   6.325 -0.7802 -0.6636 -0.6812
 4667SOL    HW318441   5.055   0.236   6.301  0.4111  0.4557 -0.2659
 4667SOL    MW418442   4.977   0.258   6.333  0.5142 -0.1233  0.4030
 4668SOL     OW18443   1.216   5.578   1.430 -0.6984  0.5064  0.6437
 4668SOL    HW218444   1.176   5.532   1.504 -1.1262 -1.5165 -0.7775
 4668SOL    HW318445   1.297   5.531   1.412  0.7262  2.5276  1.3405
 4668SOL    MW418446   1.221   5.566   1.437 -0.5669  0.5062  0.5481
 4669SOL     OW18447   1.973   0.747   6.373  0.5749  0.3300  0.1223
 4669SOL    HW218448   2.025   0.703   6.305 -0.2783  0.3198 -0.5382
 4669SOL    HW318449   2.036   0.765   6.443  1.2383 -0.6867 -0.1823
 4669SOL    MW418450   1.989   0.744   6.373  0.5499  0.1945 -0.0050
 4670SOL     OW18451   4.091   1.702   0.062  0.2547 -0.1086  0.0774
 4670SOL    HW218452   4.186   1.715   0.060  0.3751 -0.5586  1.4245
 4670SOL    HW318453   4.072   1.686   0.155 -0.9974 -1.0558 -0.3221
 4670SOL    MW418454   4.101   1.702   0.074  0.1054 -0.2929  0.2025
 4671SOL     OW18455   1.129   2.045   4.602  0.1390  0.3130  0.3414
 4671SOL    HW218456   1.221   2.023   4.613  0.2897 -0.1519 -1.4746
 4671SOL    HW318457   1.129   2.137   4.576  0.0266  0.5132  1.0317
 4671SOL    MW418458   1.141   2.054   4.600  0.1441  0.2781  0.1929
 4672SOL     OW18459   2.366   4.112   3.599  0.2635  0.3756  0.2527
 4672SOL    HW218460   2.355   4.087   3.691 -2.0228  1.1583  0.2593
 4672SOL    HW318461   2.375   4.029   3.552  1.0586 -0.0466  1.1193
 4672SOL    MW418462   2.366   4.097   3.605  0.0668  0.4232  0.3679
 4673SOL     OW18463   4.173   3.200   5.419 -0.4172 -0.2921  0.0802
 4673SOL    HW218464   4.162   3.173   5.328 -1.5471  2.3929 -0.6632
 4673SOL    HW318465   4.148   3.292   5.420  1.6754  0.3674  2.7056
 4673SOL    MW418466   4.168   3.208   5.407 -0.2902  0.1491  0.3285
 4674SOL     OW18467   0.147   5.962   3.683 -0.1460  0.1749 -0.1313
 4674SOL    HW218468   0.123   5.879   3.723  1.9117 -1.1251 -1.4358
 4674SOL    HW318469   0.223   5.992   3.732  0.3643  0.2481 -0.9409
 4674SOL    MW418470   0.153   5.955   3.695  0.1928  0.0130 -0.4102
 4675SOL     OW18471   2.521   4.007   0.908  0.1981  0.3456  0.1496
 4675SOL    HW218472   2.591   4.009   0.973  2.3720 -0.2275 -2.0036
 4675SOL    HW318473   2.483   3.920   0.915 -0.0974  0.5501  1.1305
 4675SOL    MW418474   2.525   3.996   0.917  0.4460  0.2970 -0.0050
 4676SOL     OW18475   5.626   2.381   0.733 -0.4799  0.3365 -0.2524
 4676SOL    HW218476   5.617   2.476   0.729 -1.4128  0.2213 -1.6043
 4676SOL    HW318477   5.715   2.367   0.765 -0.3081  1.6589 -0.0835
 4676SOL    MW418478   5.636   2.392   0.737 -0.5803  0.4957 -0.4085
 4677SOL     OW18479   2.062   4.189   5.480  0.0385 -0.6047 -0.1393
 4677SOL    HW218480   1.972   4.162   5.500 -0.5156 -0.2069 -1.8431
 4677SOL    HW318481   2.079   4.150   5.394  0.1896  2.1220 -1.4443
 4677SOL    MW418482   2.052   4.180   5.471 -0.0147 -0.1925 -0.5363
 4678SOL     OW18483   5.858   1.405   4.600 -0.4420 -0.6506  0.0129
 4678SOL    HW218484   5.896   1.338   4.542  0.8969 -0.6393  0.8357
 4678SOL    HW318485   5.858   1.485   4.548  1.2987 -0.5057  0.1831
 4678SOL    MW418486   5.863   1.406   4.585 -0.0357 -0.6300  0.1439
 4679SOL     OW18487   0.118   2.195   4.099  0.2964 -0.0336 -0.1309
 4679SOL    HW218488   0.150   2.107   4.083 -0.1733 -0.0705 -0.9153
 4679SOL    HW318489   0.116   2.203   4.195 -0.1386 -1.0490 -0.0486
 4679SOL    MW418490   0.122   2.185   4.110  0.1770 -0.1725 -0.2235
 4680SOL     OW18491   1.893   1.784   3.457  0.0045  0.1438  0.4977
 4680SOL    HW218492   1.862   1.693   3.456 -1.0120  0.4813  0.7444
 4680SOL    HW318493   1.986   1.777   3.481  0.2642 -0.9149 -0.6850
 4680SOL    MW418494   1.901   1.771   3.460 -0.0953  0.0486  0.3742
 4681SOL     OW18495   4.417   0.103   0.378  0.3783  0.3419 -0.3352
 4681SOL    HW218496   4.422   0.146   0.464  0.1522  0.9804 -0.6372
 4681SOL    HW318497   4.506   0.107   0.344  0.6095 -0.4885  0.1367
 4681SOL    MW418498   4.429   0.109   0.385  0.3790  0.3166 -0.3128
 4682SOL     OW18499   3.718   2.131   4.489  0.5007 -0.1764  0.4689
 4682SOL    HW218500   3.734   2.200   4.425  1.8374  0.3613  1.3447
 4682SOL    HW318501   3.795   2.074   4.484 -0.6586 -1.7436 -0.3676
 4682SOL    MW418502   3.730   2.133   4.480  0.5241 -0.3122  0.4741
 4683SOL     OW18503   5.290   1.639   1.726  0.1570 -0.5717 -0.4566
 4683SOL    HW218504   5.227   1.593   1.782  1.2641  0.5304  1.8414
 4683SOL    HW318505   5.261   1.621   1.637 -2.9796 -0.7153  0.4644
 4683SOL    MW418506   5.278   1.631   1.722 -0.1108 -0.4453 -0.0319
 4684SOL     OW18507   2.747   2.832   0.606  0.1237 -0.5404 -0.1520
 4684SOL    HW218508   2.691   2.811   0.532 -0.7855  1.2884 -0.0378
 4684SOL    HW318509   2.800   2.906   0.577 -0.0722  0.0502  0.9276
 4684SOL    MW418510   2.747   2.839   0.593 -0.0221 -0.2212  0.0055
 4685SOL     OW18511   4.514   0.255   0.055  0.4095 -0.2527 -0.1042
 4685SOL    HW218512   4.531   0.205   0.135  1.4166  0.0315 -0.1332
 4685SOL    HW318513   4.418   0.256   0.048  0.1820  1.1909  2.0467
 4685SOL    MW418514   4.503   0.249   0.065  0.5123 -0.0247  0.1758
 4686SOL     OW18515   4.351   0.135   6.184  0.3102  0.3904  0.1558
 4686SOL    HW218516   4.440   0.157   6.156  0.6985  0.5229  1.4302
 4686SOL    HW318517   4.333   0.195   6.257 -0.6561  0.0580  0.2096
 4686SOL    MW418518   4.360   0.146   6.190  0.2339  0.3640  0.3310
 4687SOL     OW18519   4.298   3.820   1.720 -0.2852 -0.2880  0.2390
 4687SOL    HW218520   4.209   3.838   1.750  0.1022 -0.8730  1.8240
 4687SOL    HW318521   4.353   3.836   1.796  1.0440  0.5750 -0.8630
 4687SOL    MW418522   4.294   3.824   1.734 -0.0587 -0.2513  0.3027
 4688SOL     OW18523   3.718   0.613   3.383  0.2460  0.1321  0.6439
 4688SOL    HW218524   3.756   0.650   3.303 -1.6715 -2.4840 -1.6662
 4688SOL    HW318525   3.761   0.528   3.393  0.5767  0.4856  2.5615
 4688SOL    MW418526   3.729   0.607   3.374  0.0367 -0.1665  0.5921
 4689SOL     OW18527   4.918   0.411   4.460 -0.9515  0.4749  0.0878
 4689SOL    HW218528   4.906   0.318   4.442 -0.2912  1.0137 -4.7320
 4689SOL    HW318529   5.013   0.424   4.454 -1.1303  1.5935 -0.5661
 4689SOL    MW418530   4.929   0.400   4.457 -0.8880  0.6935 -0.6344
 4690SOL     OW18531   2.891   3.315   4.213  0.6221 -0.0650 -0.4140
 4690SOL    HW218532   2.934   3.345   4.132 -0.5149  0.2233 -0.9305
 4690SOL    HW318533   2.923   3.374   4.281 -0.2020  1.2082 -1.0975
 4690SOL    MW418534   2.901   3.327   4.211  0.3633  0.1410 -0.5723
 4691SOL     OW18535   2.246   0.397   0.391  0.4322  0.3206  0.0679
 4691SOL    HW218536   2.286   0.463   0.448  0.3175  0.6160 -0.1906
 4691SOL    HW318537   2.307   0.324   0.393  0.1316  0.0792  1.0685
 4691SOL    MW418538   2.259   0.396   0.399  0.3774  0.3277  0.1658
 4692SOL     OW18539   5.715   4.647   1.844 -0.2710  0.2383 -0.1638
 4692SOL    HW218540   5.646   4.706   1.875 -1.5791 -0.5704 -1.3730
 4692SOL    HW318541   5.675   4.560   1.846  1.1282 -0.4182  0.2159
 4692SOL    MW418542   5.701   4.644   1.848 -0.2589  0.0450 -0.2732
 4693SOL     OW18543   0.684   0.669   3.075 -0.2778 -0.1907 -0.3346
 4693SOL    HW218544   0.661   0.598   3.135  0.2756 -0.3638 -0.3155
 4693SOL    HW318545   0.733   0.626   3.004  1.6050  0.3732  0.5550
 4693SOL    MW418546   0.687   0.654   3.073  0.0436 -0.1391 -0.2147
 4694SOL     OW18547   3.030   5.149   0.089 -0.7546 -0.2139 -0.5597
 4694SOL    HW218548   3.064   5.237   0.103 -1.1108 -0.1656  0.0356
 4694SOL    HW318549   2.947   5.162   0.043 -1.1331 -0.2000  0.1231
 4694SOL    MW418550   3.023   5.162   0.084 -0.8516 -0.2057 -0.3911
 4695SOL     OW18551   6.366   1.049   4.016  0.4839  0.0880 -0.0029
 4695SOL    HW218552   6.406   1.028   3.932 -0.7615  2.0622 -1.1989
 4695SOL    HW318553   6.313   0.972   4.038  1.0953 -0.5871 -0.8557
 4695SOL    MW418554   6.364   1.036   4.008  0.4003  0.2594 -0.2732
 4696SOL     OW18555   2.913   1.106   5.790  0.2767  0.1844  0.3449
 4696SOL    HW218556   2.974   1.047   5.834 -0.1973  0.1568  0.9807
 4696SOL    HW318557   2.830   1.059   5.789 -0.1328  0.8594  0.9502
 4696SOL    MW418558   2.910   1.092   5.796  0.1601  0.2699  0.5086
 4697SOL     OW18559   0.246   4.271   4.791  0.0512 -0.0807  0.1727
 4697SOL    HW218560   0.315   4.207   4.800  1.4950  0.9716 -2.3493
 4697SOL    HW318561   0.175   4.225   4.746  0.3110 -0.3958  0.0887
 4697SOL    MW418562   0.246   4.257   4.786  0.2760  0.0165 -0.1712
 4698SOL     OW18563   0.390   3.926   3.546 -0.0417  0.7571 -0.4884
 4698SOL    HW218564   0.429   3.856   3.494 -2.7697  0.1118 -1.8839
 4698SOL    HW318565   0.396   3.896   3.637  1.1553 -0.0285 -0.8112
 4698SOL    MW418566   0.396   3.913   3.551 -0.2437  0.5683 -0.7151
 4699SOL     OW18567   4.425   2.158   4.345 -0.1564 -0.0013  0.1651
 4699SOL    HW218568   4.417   2.123   4.434  0.7847  1.2888  0.7974
 4699SOL    HW318569   4.346   2.211   4.334  0.4635  1.1221  0.8771
 4699SOL    MW418570   4.414   2.160   4.356  0.0496  0.3171  0.3425
 4700SOL     OW18571   3.992   4.143   6.024  0.2175 -0.0562 -0.0001
 4700SOL    HW218572   4.059   4.085   5.989 -0.1530  0.0583 -0.9234
 4700SOL    HW318573   3.940   4.169   5.948  0.2270  1.2971  0.4359
 4700SOL    MW418574   3.994   4.139   6.009  0.1698  0.1375 -0.0644
 4701SOL     OW18575   4.191   1.931   1.657 -0.0650 -0.4535 -0.6094
 4701SOL    HW218576   4.182   2.024   1.677 -0.0628 -0.2974 -1.2964
 4701SOL    HW318577   4.179   1.887   1.741  0.3945  0.1892 -0.1996
 4701SOL    MW418578   4.188   1.937   1.671 -0.0041 -0.3481 -0.6460
 4702SOL     OW18579   3.358   2.034   2.955  0.4589 -0.1636  0.0858
 4702SOL    HW218580   3.302   1.958   2.937 -0.1076 -0.8234  3.8118
 4702SOL    HW318581   3.302   2.109   2.935 -1.0404 -0.8188  1.5620
 4702SOL    MW418582   3.343   2.034   2.950  0.1863 -0.3371  0.7722
 4703SOL     OW18583   2.221   0.376   5.588 -0.6747  0.3512 -0.2568
 4703SOL    HW218584   2.249   0.407   5.501  0.7573  1.4381  0.5439
 4703SOL    HW318585   2.211   0.456   5.639 -1.1048 -0.3065  0.6939
 4703SOL    MW418586   2.223   0.391   5.583 -0.5425  0.4078 -0.0258
 4704SOL     OW18587   5.167   2.497   2.839 -0.3968 -0.5795 -0.7519
 4704SOL    HW218588   5.122   2.468   2.918 -1.3415  0.3236 -0.9302
 4704SOL    HW318589   5.231   2.428   2.820  1.0165 -0.0770  1.7091
 4704SOL    MW418590   5.170   2.484   2.847 -0.3350 -0.3941 -0.4507
 4705SOL     OW18591   0.329   1.278   3.298  0.1799  0.3424  0.0432
 4705SOL    HW218592   0.270   1.345   3.333  0.4239  0.7184 -0.2534
 4705SOL    HW318593   0.363   1.316   3.217 -0.2569 -0.4561 -0.5217
 4705SOL    MW418594   0.326   1.292   3.292  0.1544  0.2866 -0.0705
 4706SOL     OW18595   0.522   1.665   0.604 -0.2955 -0.1707  0.5844
 4706SOL    HW218596   0.549   1.609   0.532  0.2260  1.1350 -0.2799
 4706SOL    HW318597   0.549   1.618   0.683 -1.0212 -1.6970 -0.0300
 4706SOL    MW418598   0.529   1.652   0.605 -0.3224 -0.1998  0.3893
 4707SOL     OW18599   2.216   4.379   4.494 -0.0836 -0.7574  0.6068
 4707SOL    HW218600   2.182   4.409   4.578  0.2241  1.1224  0.1247
 4707SOL    HW318601   2.305   4.415   4.489 -0.4664  0.1055 -0.9285
 4707SOL    MW418602   2.223   4.388   4.504 -0.0935 -0.3955  0.3406
 4708SOL     OW18603   4.730   5.586   3.290 -0.4603 -0.1589  0.1838
 4708SOL    HW218604   4.654   5.552   3.243 -0.1376 -1.2563  0.4262
 4708SOL    HW318605   4.806   5.555   3.240 -0.1645  0.6284  0.1402
 4708SOL    MW418606   4.730   5.577   3.278 -0.3787 -0.1998  0.2101
 4709SOL     OW18607   4.789   6.246   5.563 -0.2624 -1.2433  0.5905
 4709SOL    HW218608   4.840   6.248   5.644  0.1044 -0.2894  0.3458
 4709SOL    HW318609   4.726   6.317   5.572  0.3530 -0.5599 -0.3187
 4709SOL    MW418610   4.787   6.255   5.575 -0.1328 -1.0273  0.4383
 4710SOL     OW18611   1.738   4.492   1.813  0.1604 -0.3318  0.4404
 4710SOL    HW218612   1.676   4.557   1.780  1.1932  1.2433  1.4649
 4710SOL    HW318613   1.794   4.471   1.737 -0.7324 -0.7111 -0.1235
 4710SOL    MW418614   1.737   4.497   1.798  0.1789 -0.1740  0.5012
 4711SOL     OW18615   6.246   5.207   2.339 -0.2026 -0.1572 -0.1904
 4711SOL    HW218616   6.229   5.130   2.285 -1.7980  1.4246 -2.0880
 4711SOL    HW318617   6.275   5.171   2.423 -1.4966 -2.8224 -0.7737
 4711SOL    MW418618   6.248   5.192   2.343 -0.5838 -0.3001 -0.5177
 4712SOL     OW18619   0.607   5.453   4.499 -0.3905 -0.2845 -0.0048
 4712SOL    HW218620   0.651   5.382   4.452 -0.0948  0.2839 -0.6169
 4712SOL    HW318621   0.615   5.430   4.591  1.2107 -0.2191 -0.0891
 4712SOL    MW418622   0.614   5.441   4.505 -0.1402 -0.2008 -0.0967
 4713SOL     OW18623   0.435   4.723   4.859 -0.2371  0.4432  0.1635
 4713SOL    HW218624   0.498   4.721   4.931  0.4620 -1.6526 -0.4367
 4713SOL    HW318625   0.478   4.775   4.792  1.8426 -2.4653 -0.9671
 4713SOL    MW418626   0.449   4.730   4.860  0.1295 -0.2171 -0.0649
 4714SOL     OW18627   2.154   0.233   2.705  0.2387 -0.1856  0.3007
 4714SOL    HW218628   2.077   0.265   2.657  0.0038 -0.0464  0.7670
 4714SOL    HW318629   2.224   0.294   2.683 -0.0322  0.2465  0.6391
 4714SOL    MW418630   2.153   0.245   2.695  0.1719 -0.1102  0.4069
 4715SOL     OW18631   3.545   0.083   3.044  0.0637  0.0089 -0.4829
 4715SOL    HW218632   3.460   0.045   3.066  0.3161 -0.5194 -0.4026
 4715SOL    HW318633   3.528   0.177   3.034 -0.2406  0.1284  0.9955
 4715SOL    MW418634   3.531   0.090   3.045  0.0569 -0.0450 -0.2772
 4716SOL     OW18635   5.705   3.577   3.445 -0.4412 -1.3134  0.1226
 4716SOL    HW218636   5.634   3.621   3.398 -0.6206 -0.4786  1.1146
 4716SOL    HW318637   5.753   3.529   3.378 -0.8694 -0.4289 -0.8464
 4716SOL    MW418638   5.702   3.576   3.430 -0.5214 -1.0865  0.1256
 4717SOL     OW18639   3.844   5.067   3.942  0.1933 -0.3941 -0.0606
 4717SOL    HW218640   3.925   5.095   3.986  0.6590 -0.0047 -1.1314
 4717SOL    HW318641   3.845   5.113   3.858 -1.1689 -0.3580 -0.0863
 4717SOL    MW418642   3.855   5.077   3.937  0.0750 -0.3379 -0.2053
 4718SOL     OW18643   4.010   3.031   3.185 -0.2826 -0.3413 -0.1713
 4718SOL    HW218644   3.996   2.984   3.267  4.8834 -1.9632  0.1345
 4718SOL    HW318645   3.956   2.986   3.121 -1.6250 -1.4192  1.6394
 4718SOL    MW418646   4.001   3.019   3.188  0.2219 -0.6975  0.1079
 4719SOL     OW18647   3.613   3.641   4.048  0.0425 -0.1966 -0.0571
 4719SOL    HW218648   3.669   3.700   4.099 -0.1919 -1.1867  1.3904
 4719SOL    HW318649   3.636   3.659   3.956  1.2927  0.8138  0.4326
 4719SOL    MW418650   3.623   3.651   4.042  0.1765 -0.1939  0.1985
 4720SOL     OW18651   5.719   1.562   5.832 -0.5629 -0.3158 -0.1177
 4720SOL    HW218652   5.653   1.618   5.872 -0.3886 -1.6231  2.1905
 4720SOL    HW318653   5.725   1.593   5.742 -2.2760  1.6674  0.3596
 4720SOL    MW418654   5.711   1.574   5.826 -0.7660 -0.2266  0.2498
 4721SOL     OW18655   3.919   2.087   1.414  0.3825 -0.3398  0.0180
 4721SOL    HW218656   3.850   2.063   1.353  1.5037  0.0284 -1.4363
 4721SOL    HW318657   3.987   2.020   1.402  0.2169 -0.8611  1.6235
 4721SOL    MW418658   3.919   2.075   1.405  0.5086 -0.3600  0.0379
 4722SOL     OW18659   6.403   0.753   4.570  0.3359  0.0298 -0.5822
 4722SOL    HW218660   6.423   0.760   4.664  1.5101 -0.2505 -0.8000
 4722SOL    HW318661   6.318   0.796   4.561  0.6550  0.9248  0.4544
 4722SOL    MW418662   6.394   0.759   4.581  0.5329  0.1109 -0.4741
 4723SOL     OW18663   4.488   0.446   2.734 -0.2417  0.2256  0.5777
 4723SOL    HW218664   4.435   0.522   2.759 -0.9514  0.2310 -0.8573
 4723SOL    HW318665   4.576   0.481   2.722 -0.4872  0.7611  0.2942
 4723SOL    MW418666   4.492   0.461   2.736 -0.3677  0.2970  0.3509
 4724SOL     OW18667   1.160   5.107   4.876  0.1537  0.5280 -0.1597
 4724SOL    HW218668   1.205   5.024   4.864 -1.8407 -0.3922 -2.0706
 4724SOL    HW318669   1.156   5.119   4.971  1.8886 -0.7000  0.1185
 4724SOL    MW418670   1.165   5.098   4.887  0.1195  0.2446 -0.3751
 4725SOL     OW18671   0.754   4.292   2.855  0.1754 -0.4938 -0.4090
 4725SOL    HW218672   0.788   4.224   2.797  3.0214 -0.2744  0.8492
 4725SOL    HW318673   0.825   4.356   2.861 -0.0616 -0.3729  3.0303
 4725SOL    MW418674   0.768   4.291   2.848  0.5197 -0.4489  0.2108
 4726SOL     OW18675   6.106   2.059   0.597  0.4024  0.6384 -0.4355
 4726SOL    HW218676   6.065   2.000   0.535  0.3391  0.0518  0.1623
 4726SOL    HW318677   6.195   2.070   0.564 -0.0206  1.4132 -1.3777
 4726SOL    MW418678   6.113   2.053   0.584  0.3382  0.6632 -0.4809
 4727SOL     OW18679   3.454   5.933   6.335  0.3408  0.6030 -0.0638
 4727SOL    HW218680   3.452   5.838   6.328  1.8840  0.6096 -1.3220
 4727SOL    HW318681   3.389   5.954   6.401 -0.7565 -1.2506 -0.4850
 4727SOL    MW418682   3.445   5.923   6.342  0.3996  0.3593 -0.2854
 4728SOL     OW18683   0.307   4.379   4.386 -0.1353 -0.1077  0.4357
 4728SOL    HW218684   0.340   4.334   4.308  0.6550 -0.9385  1.2258
 4728SOL    HW318685   0.386   4.400   4.437 -0.5821  1.1026  0.6611
 4728SOL    MW418686   0.322   4.376   4.383 -0.0899 -0.0576  0.5697
 4729SOL     OW18687   3.355   2.530   5.369 -0.0758  0.0926  0.3462
 4729SOL    HW218688   3.376   2.489   5.284  1.2251  1.2406  0.0795
 4729SOL    HW318689   3.400   2.475   5.433 -2.0145 -1.4739  0.4691
 4729SOL    MW418690   3.364   2.517   5.366 -0.1600  0.0374  0.3272
 4730SOL     OW18691   0.066   0.594   2.994  0.7129 -0.1025 -0.7420
 4730SOL    HW218692   0.136   0.649   3.029  0.7812 -0.4153 -0.3732
 4730SOL    HW318693   0.102   0.505   2.999 -0.4922 -0.5387  1.5017
 4730SOL    MW418694   0.080   0.589   2.999  0.5629 -0.2013 -0.3973
 4731SOL     OW18695   2.886   0.535   5.776 -0.2846 -0.0053  0.0245
 4731SOL    HW218696   2.972   0.512   5.739 -0.0388  0.2447  0.4339
 4731SOL    HW318697   2.823   0.497   5.715  0.0824  1.8583 -1.6172
 4731SOL    MW418698   2.889   0.527   5.763 -0.2037  0.2736 -0.1381
 4732SOL     OW18699   5.623   2.453   2.745  0.0414  0.1191  0.4607
 4732SOL    HW218700   5.546   2.507   2.730  0.8297  1.3941  0.8271
 4732SOL    HW318701   5.649   2.472   2.836  0.8248 -0.2221  0.3203
 4732SOL    MW418702   5.616   2.462   2.755  0.2488  0.2423  0.4905
 4733SOL     OW18703   4.085   6.151   0.284  0.6864  0.1195  0.0175
 4733SOL    HW218704   4.132   6.232   0.302  1.9260 -0.5499 -0.1161
 4733SOL    HW318705   4.025   6.141   0.358  0.0723  1.4571 -0.2746
 4733SOL    MW418706   4.083   6.160   0.296  0.7689  0.2077 -0.0387
 4734SOL     OW18707   5.314   1.598   2.765 -0.0713 -0.3896  0.1505
 4734SOL    HW218708   5.349   1.539   2.698  0.0150  0.9749 -1.0527
 4734SOL    HW318709   5.249   1.651   2.719 -1.3557 -0.6557  1.5985
 4734SOL    MW418710   5.310   1.597   2.750 -0.2294 -0.2447  0.1828
 4735SOL     OW18711   2.443   5.617   1.438  1.4298 -0.2465  0.0132
 4735SOL    HW218712   2.491   5.700   1.437 -0.6135  1.0191  0.9746
 4735SOL    HW318713   2.401   5.612   1.352 -0.0464  0.7640  0.6352
 4735SOL    MW418714   2.444   5.627   1.426  0.9654  0.0538  0.2221
 4736SOL     OW18715   6.111   4.088   5.876 -0.2035  0.2556  0.6471
 4736SOL    HW218716   6.031   4.135   5.899 -0.5842 -0.4427  0.7419
 4736SOL    HW318717   6.172   4.109   5.947 -0.8858 -0.6588  1.5213
 4736SOL    MW418718   6.109   4.097   5.888 -0.3438  0.0428  0.7749
 4737SOL     OW18719   0.826   1.951   6.303  0.6749 -0.0619 -0.6919
 4737SOL    HW218720   0.920   1.950   6.315  0.7555 -0.7431 -1.3201
 4737SOL    HW318721   0.801   2.042   6.320  1.5936  0.3766 -1.5812
 4737SOL    MW418722   0.835   1.963   6.306  0.8067 -0.0940 -0.8921
 4738SOL     OW18723   0.200   3.982   4.293 -0.2657  0.6525 -0.2056
 4738SOL    HW218724   0.223   3.901   4.338 -1.7075  0.9067  1.0789
 4738SOL    HW318725   0.194   3.958   4.201  1.1440 -0.2620 -0.0907
 4738SOL    MW418726   0.203   3.968   4.287 -0.2700  0.5654 -0.0209
 4739SOL     OW18727   0.362   3.336   3.163 -0.2196  0.2643 -0.1334
 4739SOL    HW218728   0.394   3.389   3.090  0.4398 -1.8682 -1.5146
 4739SOL    HW318729   0.431   3.340   3.229  0.7162 -0.3561 -1.0330
 4739SOL    MW418730   0.375   3.343   3.162 -0.0091 -0.0989 -0.4343
 4740SOL     OW18731   0.684   0.829   4.842 -0.3831  0.7585 -0.1475
 4740SOL    HW218732   0.658   0.738   4.827  0.3466  0.5907 -0.4310
 4740SOL    HW318733   0.638   0.878   4.773  0.9575  0.3052 -1.4246
 4740SOL    MW418734   0.674   0.824   4.831 -0.1099  0.6766 -0.3534
 4741SOL     OW18735   2.853   0.533   4.012 -0.4047  0.3348 -0.6195
 4741SOL    HW218736   2.819   0.445   3.994 -1.7602  0.8618 -0.7221
 4741SOL    HW318737   2.892   0.561   3.929 -1.4571  0.4750 -1.0794
 4741SOL    MW418738   2.853   0.525   3.999 -0.7224  0.4228 -0.6937
 4742SOL     OW18739   3.480   0.385   0.194 -0.2647 -0.5100  0.0132
 4742SOL    HW218740   3.508   0.449   0.260  3.2020  0.0189 -1.7602
 4742SOL    HW318741   3.451   0.439   0.121  1.0222 -0.9527 -0.8480
 4742SOL    MW418742   3.480   0.401   0.193  0.3625 -0.4986 -0.3344
 4743SOL     OW18743   5.206   3.665   4.090  0.7708 -0.7901  0.2590
 4743SOL    HW218744   5.208   3.572   4.111  0.9783 -1.2504 -1.6155
 4743SOL    HW318745   5.117   3.681   4.060  0.7198 -0.3655  0.6295
 4743SOL    MW418746   5.195   3.655   4.089  0.7914 -0.7948  0.0606
 4744SOL     OW18747   3.300   1.207   1.747  0.2620  0.0716 -0.3019
 4744SOL    HW218748   3.336   1.271   1.686  0.0390 -0.8818 -1.4719
 4744SOL    HW318749   3.339   1.230   1.832 -0.5833  2.3495 -0.4709
 4744SOL    MW418750   3.310   1.218   1.750  0.1210  0.2464 -0.4786
 4745SOL     OW18751   3.845   4.613   1.742 -0.4269 -0.3209 -0.4927
 4745SOL    HW218752   3.813   4.686   1.688 -0.9626 -1.0716 -1.2065
 4745SOL    HW318753   3.786   4.540   1.722 -0.7722 -0.5873  1.2534
 4745SOL    MW418754   3.833   4.613   1.732 -0.5431 -0.4551 -0.3565
 4746SOL     OW18755   3.233   3.121   5.717 -0.1676 -0.5802  0.2490
 4746SOL    HW218756   3.291   3.064   5.667 -0.0126 -1.0850  0.9791
 4746SOL    HW318757   3.164   3.146   5.656 -0.2973 -1.6495 -0.0545
 4746SOL    MW418758   3.232   3.117   5.703 -0.1643 -0.7879  0.3053
 4747SOL     OW18759   5.426   1.638   6.247  0.1798 -0.2048 -0.1541
 4747SOL    HW218760   5.419   1.730   6.272  0.7293 -0.0114 -0.6676
 4747SOL    HW318761   5.340   1.601   6.264  0.2074  0.1892  0.9050
 4747SOL    MW418762   5.414   1.645   6.252  0.2559 -0.1273 -0.0821
 4748SOL     OW18763   2.511   1.359   1.372  0.1159 -0.8225 -0.1639
 4748SOL    HW218764   2.436   1.416   1.357 -0.2290 -1.3349 -0.4150
 4748SOL    HW318765   2.555   1.354   1.287 -0.4364 -1.7415 -0.4097
 4748SOL    MW418766   2.507   1.366   1.359 -0.0025 -1.0114 -0.2295
 4749SOL     OW18767   5.454   3.448   3.845  0.1023 -0.2477  0.1101
 4749SOL    HW218768   5.496   3.446   3.759  1.0046 -1.0932  0.5581
 4749SOL    HW318769   5.524   3.431   3.907 -1.0333 -2.7841  0.8141
 4749SOL    MW418770   5.469   3.446   3.842  0.0715 -0.6939  0.2621
 4750SOL     OW18771   4.934   1.579   2.989  0.1561  0.3798 -0.4880
 4750SOL    HW218772   4.989   1.591   3.066 -1.8900  0.6788  1.0016
 4750SOL    HW318773   4.893   1.494   3.002  1.7194 -0.8104 -2.6046
 4750SOL    MW418774   4.936   1.569   3.001  0.0924  0.2622 -0.5707
 4751SOL     OW18775   2.315   1.252   4.848  0.1305 -0.2373  0.7430
 4751SOL    HW218776   2.333   1.234   4.940 -0.6095 -0.7362  0.8026
 4751SOL    HW318777   2.225   1.223   4.835 -0.3246  1.2960  0.2412
 4751SOL    MW418778   2.305   1.246   4.859 -0.0272 -0.1008  0.6847
 4752SOL     OW18779   6.364   6.213   2.473 -0.0523  0.0787  0.4899
 4752SOL    HW218780   6.278   6.254   2.466 -0.6285 -1.2776 -0.9448
 4752SOL    HW318781   6.390   6.228   2.563 -1.5600  0.9910  0.8095
 4752SOL    MW418782   6.356   6.220   2.484 -0.3272  0.0201  0.3428
 4753SOL     OW18783   1.133   6.139   5.365 -0.2087 -0.0567 -0.6724
 4753SOL    HW218784   1.109   6.173   5.451 -1.0376 -0.0818 -0.8821
 4753SOL    HW318785   1.227   6.154   5.358 -0.5354  2.2712 -0.7806
 4753SOL    MW418786   1.142   6.146   5.375 -0.3612  0.2472 -0.7144
 4754SOL     OW18787   3.937   3.726   5.933 -0.4426  0.0501 -0.7995
 4754SOL    HW218788   4.021   3.771   5.927  0.4466 -1.4450 -0.0312
 4754SOL    HW318789   3.873   3.796   5.949  0.7542  1.1124 -0.5764
 4754SOL    MW418790   3.939   3.741   5.934 -0.1674 -0.0070 -0.6687
 4755SOL     OW18791   1.771   4.776   4.105 -0.0306 -0.0906  0.0678
 4755SOL    HW218792   1.763   4.809   4.195 -1.6922 -0.5981  0.1391
 4755SOL    HW318793   1.716   4.835   4.053 -0.4508 -0.8309 -0.3313
 4755SOL    MW418794   1.763   4.788   4.110 -0.3053 -0.2552  0.0246
 4756SOL     OW18795   6.166   0.117   1.396  0.2872 -0.1411  0.0458
 4756SOL    HW218796   6.246   0.068   1.414 -0.1248 -0.1988  1.9258
 4756SOL    HW318797   6.098   0.069   1.444 -0.3081  1.6350  1.0433
 4756SOL    MW418798   6.167   0.104   1.405  0.1543  0.0856  0.4255
 4757SOL     OW18799   3.744   2.276   5.856  0.3425 -0.3925 -0.4810
 4757SOL    HW218800   3.726   2.232   5.773  1.4023 -0.1269 -0.8588
 4757SOL    HW318801   3.838   2.294   5.855  0.0649  1.2961 -0.0702
 4757SOL    MW418802   3.754   2.273   5.845  0.4457 -0.1347 -0.4766
 4758SOL     OW18803   3.201   5.589   4.910  0.0426 -0.1995  0.5092
 4758SOL    HW218804   3.129   5.535   4.941 -0.2366 -0.6734 -0.9057
 4758SOL    HW318805   3.188   5.674   4.953 -1.6453 -0.1189 -0.1097
 4758SOL    MW418806   3.190   5.593   4.920 -0.2169 -0.2514  0.2408
 4759SOL     OW18807   0.763   4.690   3.129  0.3692  0.6457  0.5756
 4759SOL    HW218808   0.749   4.781   3.154 -0.1285 -0.1183  3.4755
 4759SOL    HW318809   0.698   4.673   3.060  0.9840  2.6239 -0.5587
 4759SOL    MW418810   0.753   4.700   3.123  0.3846  0.8059  0.8086
 4760SOL     OW18811   0.386   0.736   6.331 -0.2997 -0.1075  0.0693
 4760SOL    HW218812   0.298   0.762   6.356 -0.3106  1.0694 -1.1253
 4760SOL    HW318813   0.443   0.780   6.394 -0.5173 -0.6122  0.6400
 4760SOL    MW418814   0.382   0.745   6.343 -0.3298 -0.0188 -0.0130
 4761SOL     OW18815   4.304   4.866   3.650 -0.8611 -0.5636 -0.0021
 4761SOL    HW218816   4.288   4.909   3.735  1.0187 -3.2395  1.8866
 4761SOL    HW318817   4.362   4.927   3.604 -2.4435  1.2603  0.2939
 4761SOL    MW418818   4.310   4.880   3.655 -0.8219 -0.6760  0.2861
 4762SOL     OW18819   3.732   0.566   6.001  0.4702  0.6059 -0.6125
 4762SOL    HW218820   3.698   0.580   6.089  0.9831  1.3150 -0.5099
 4762SOL    HW318821   3.779   0.648   5.981  1.4726 -0.0511 -1.0209
 4762SOL    MW418822   3.734   0.579   6.010  0.6701  0.6128 -0.6528
 4763SOL     OW18823   3.525   0.291   1.324 -0.3117  0.3527 -0.5569
 4763SOL    HW218824   3.587   0.361   1.346  1.5351 -0.9906 -1.2996
 4763SOL    HW318825   3.459   0.297   1.393  1.9301  0.2990  1.7851
 4763SOL    MW418826   3.525   0.301   1.336  0.2278  0.1684 -0.3459
 4764SOL     OW18827   4.707   0.800   1.198 -0.0026  0.5560 -0.2618
 4764SOL    HW218828   4.760   0.722   1.215 -1.9130 -0.7638  0.0610
 4764SOL    HW318829   4.692   0.799   1.104 -2.2037 -1.1107 -0.0054
 4764SOL    MW418830   4.712   0.789   1.188 -0.5450  0.1620 -0.1854
 4765SOL     OW18831   0.502   5.536   0.453 -0.2082  0.2409  0.7391
 4765SOL    HW218832   0.582   5.569   0.412 -0.6509  1.6483  0.9405
 4765SOL    HW318833   0.526   5.451   0.489  0.5875 -0.3635 -1.1205
 4765SOL    MW418834   0.515   5.529   0.452 -0.1616  0.3468  0.5203
 4766SOL     OW18835   4.006   1.365   5.828 -0.0668  0.3829 -0.1359
 4766SOL    HW218836   4.048   1.432   5.881  2.8121  0.5464 -2.3516
 4766SOL    HW318837   3.919   1.400   5.809 -0.2382  1.4406  2.2416
 4766SOL    MW418838   4.000   1.378   5.832  0.2904  0.5440 -0.1146
 4767SOL     OW18839   5.531   5.491   1.710  0.2152  0.8261  0.4622
 4767SOL    HW218840   5.499   5.578   1.735 -1.2535  1.2479 -2.4577
 4767SOL    HW318841   5.585   5.506   1.633 -0.0082 -0.8381 -0.0571
 4767SOL    MW418842   5.534   5.504   1.704 -0.0081  0.6622  0.0084
 4768SOL     OW18843   2.642   5.859   0.683  0.5833  0.1411  0.1471
 4768SOL    HW218844   2.556   5.901   0.691  0.1039 -0.9556  0.8263
 4768SOL    HW318845   2.703   5.924   0.720 -0.0119  0.6830  0.2047
 4768SOL    MW418846   2.639   5.873   0.689  0.4415  0.0679  0.2443
 4769SOL     OW18847   5.987   0.904   2.342  0.3019 -0.0176 -0.3318
 4769SOL    HW218848   5.953   0.856   2.418  1.5145 -2.0688 -0.9964
 4769SOL    HW318849   5.910   0.920   2.287 -0.1843 -1.0048  0.0439
 4769SOL    MW418850   5.972   0.900   2.345  0.3977 -0.4185 -0.3699
 4770SOL     OW18851   4.870   4.769   2.743 -0.1906 -0.2723  0.3916
 4770SOL    HW218852   4.864   4.674   2.753  1.8611 -0.3252  1.5655
 4770SOL    HW318853   4.875   4.782   2.648 -0.2068 -1.3453  0.2259
 4770SOL    MW418854   4.870   4.758   2.732  0.0779 -0.4208  0.5246
 4771SOL     OW18855   3.527   2.494   0.271  0.2795 -0.0030 -0.0869
 4771SOL    HW218856   3.473   2.452   0.339 -1.1789  1.5599 -0.1994
 4771SOL    HW318857   3.494   2.584   0.267  1.9417  0.6017 -1.2320
 4771SOL    MW418858   3.515   2.501   0.280  0.3064  0.2830 -0.2528
 4772SOL     OW18859   6.201   1.954   2.014  0.2340  0.3364  0.1439
 4772SOL    HW218860   6.189   2.031   2.069 -1.2334 -0.0838  0.4598
 4772SOL    HW318861   6.167   1.980   1.928  0.8148  0.4025 -0.0706
 4772SOL    MW418862   6.195   1.968   2.010  0.1170  0.2897  0.1573
 4773SOL     OW18863   4.311   3.940   3.043  1.0364 -0.2732  0.2492
 4773SOL    HW218864   4.405   3.939   3.062  1.1645 -1.3236 -0.3386
 4773SOL    HW318865   4.294   3.854   3.004  0.5068  1.0460 -2.7218
 4773SOL    MW418866   4.321   3.929   3.040  0.9834 -0.2377 -0.2203
 4774SOL     OW18867   2.288   2.755   6.121  0.7350  0.1428  0.3976
 4774SOL    HW218868   2.370   2.710   6.140  0.5727  0.4082  1.7845
 4774SOL    HW318869   2.263   2.722   6.034  3.2322  1.4883 -0.9470
 4774SOL    MW418870   2.295   2.744   6.112  1.0431  0.3554  0.4032
 4775SOL     OW18871   6.098   1.808   6.068  0.2036  0.1805  0.6925
 4775SOL    HW218872   6.017   1.818   6.118  0.3979  1.6233  0.7650
 4775SOL    HW318873   6.070   1.778   5.982 -0.2474 -0.9761  1.2182
 4775SOL    MW418874   6.084   1.805   6.064  0.1697  0.2183  0.7714
 4776SOL     OW18875   5.885   3.322   4.320 -0.0242  0.6539  0.0950
 4776SOL    HW218876   5.846   3.287   4.240 -0.1860 -0.4559  0.6365
 4776SOL    HW318877   5.969   3.277   4.328 -0.5366 -0.1721  1.1676
 4776SOL    MW418878   5.891   3.311   4.311 -0.1132  0.3985  0.3080
 4777SOL     OW18879   0.714   5.982   3.204 -0.2039 -0.3072  0.3178
 4777SOL    HW218880   0.651   5.919   3.169  0.4206 -1.1721  0.7036
 4777SOL    HW318881   0.800   5.946   3.181  0.1673  0.3174  0.6862
 4777SOL    MW418882   0.717   5.969   3.197 -0.0725 -0.3389  0.4173
 4778SOL     OW18883   4.402   1.056   1.143 -0.5634 -0.4667 -0.2994
 4778SOL    HW218884   4.470   1.123   1.134  0.3370 -0.8478  2.6049
 4778SOL    HW318885   4.370   1.066   1.233 -0.8864 -3.4440  0.0186
 4778SOL    MW418886   4.407   1.066   1.154 -0.4872 -0.9098  0.1258
 4779SOL     OW18887   1.338   5.224   5.405 -0.2378  0.1943 -0.2479
 4779SOL    HW218888   1.263   5.195   5.353 -1.0083 -0.3727  1.1468
 4779SOL    HW318889   1.346   5.317   5.384 -0.6433  0.0249 -1.2246
 4779SOL    MW418890   1.329   5.233   5.395 -0.3930  0.0971 -0.1927
 4780SOL     OW18891   0.966   1.372   0.215 -0.0404  0.8804 -0.2821
 4780SOL    HW218892   0.969   1.465   0.195 -0.4033  0.7346 -1.0518
 4780SOL    HW318893   0.872   1.351   0.215  0.0916  0.1941 -1.6831
 4780SOL    MW418894   0.954   1.381   0.213 -0.0708  0.7706 -0.5685
 4781SOL     OW18895   5.210   0.968   4.277  0.3559  0.2387 -0.1956
 4781SOL    HW218896   5.125   0.936   4.245  0.3520  0.7250 -0.6964
 4781SOL    HW318897   5.273   0.902   4.248  0.4076  0.8568 -1.6044
 4781SOL    MW418898   5.207   0.955   4.269  0.3622  0.3844 -0.4476
 4782SOL     OW18899   2.964   6.427   2.863  0.5897 -0.1901 -0.0622
 4782SOL    HW218900   2.992   6.456   2.950 -0.7101 -1.0783  0.6805
 4782SOL    HW318901   2.888   6.481   2.843  0.5680 -0.3541 -0.4220
 4782SOL    MW418902   2.958   6.438   2.872  0.4153 -0.3290 -0.0117
 4783SOL     OW18903   6.119   5.215   1.506 -0.3535  0.5838  0.1954
 4783SOL    HW218904   6.138   5.209   1.600 -0.1117 -0.3555  0.0936
 4783SOL    HW318905   6.071   5.134   1.486 -0.0999  0.6121 -0.5586
 4783SOL    MW418906   6.115   5.203   1.516 -0.2881  0.4636  0.0825
 4784SOL     OW18907   1.432   4.872   6.076 -0.8714  0.1662  0.0154
 4784SOL    HW218908   1.441   4.798   6.017  1.3241 -0.7192  1.3639
 4784SOL    HW318909   1.410   4.946   6.019  1.7632 -0.4884 -2.0473
 4784SOL    MW418910   1.430   4.872   6.061 -0.2341 -0.0370 -0.0788
 4785SOL     OW18911   4.448   2.323   1.731 -0.3325  0.3704 -0.1976
 4785SOL    HW218912   4.499   2.400   1.705 -0.6060  0.7299  0.3213
 4785SOL    HW318913   4.405   2.349   1.812 -1.4730  0.1286 -0.7126
 4785SOL    MW418914   4.449   2.336   1.738 -0.5191  0.3859 -0.1971
 4786SOL     OW18915   2.509   0.335   3.234 -0.1780 -0.0774  0.0029
 4786SOL    HW218916   2.581   0.393   3.209  0.1511  1.0391  3.0587
 4786SOL    HW318917   2.431   0.391   3.234 -0.4362 -0.4307 -0.0293
 4786SOL    MW418918   2.508   0.350   3.231 -0.1686  0.0233  0.4019
 4787SOL     OW18919   6.113   0.289   0.902 -0.3844 -0.6681  0.1471
 4787SOL    HW218920   6.118   0.196   0.879 -0.1021 -0.7853  0.6871
 4787SOL    HW318921   6.103   0.290   0.997 -1.1859 -0.1669  0.0683
 4787SOL    MW418922   6.112   0.277   0.911 -0.4529 -0.6174  0.2079
 4788SOL     OW18923   6.375   5.518   5.686 -0.6128 -0.5486  0.4185
 4788SOL    HW218924   6.403   5.482   5.771 -1.3169  0.0997  0.9388
 4788SOL    HW318925   6.281   5.504   5.684 -0.5491 -0.8723 -0.4200
 4788SOL    MW418926   6.367   5.512   5.697 -0.6973 -0.5057  0.3765
 4789SOL     OW18927   4.075   6.250   5.680 -0.5187  0.6812 -1.0522
 4789SOL    HW218928   4.146   6.219   5.623 -0.7107  0.3991 -1.1416
 4789SOL    HW318929   4.114   6.322   5.729  0.1541 -0.1201 -0.3605
 4789SOL    MW418930   4.089   6.255   5.679 -0.4552  0.5383 -0.9728
 4790SOL     OW18931   0.944   4.599   1.584  0.1341  0.1313  0.6476
 4790SOL    HW218932   1.014   4.633   1.638 -0.6147  0.5189  1.3847
 4790SOL    HW318933   0.908   4.525   1.634 -0.2062  0.1487  0.4355
 4790SOL    MW418934   0.948   4.594   1.597 -0.0096  0.1847  0.7169
 4791SOL     OW18935   3.595   5.578   2.048  0.4788 -0.4453 -0.1946
 4791SOL    HW218936   3.652   5.552   2.120 -0.4844 -1.9820  0.0626
 4791SOL    HW318937   3.513   5.604   2.090  0.5307  0.4772 -0.6383
 4791SOL    MW418938   3.591   5.578   2.063  0.3586 -0.5263 -0.2192
 4792SOL     OW18939   3.661   6.111   4.503  0.0127 -0.2799 -0.0103
 4792SOL    HW218940   3.666   6.020   4.533 -1.1781 -0.5640 -0.6086
 4792SOL    HW318941   3.581   6.145   4.544  0.8195  0.7327  0.7709
 4792SOL    MW418942   3.651   6.103   4.513 -0.0380 -0.1838  0.0138
 4793SOL     OW18943   3.617   3.118   6.184 -0.0384 -0.1969 -0.2926
 4793SOL    HW218944   3.618   3.198   6.236 -0.8565 -0.8718  0.8355
 4793SOL    HW318945   3.597   3.049   6.248 -0.8131 -1.0990 -1.4627
 4793SOL    MW418946   3.614   3.119   6.199 -0.2485 -0.4049 -0.2981
 4794SOL     OW18947   2.235   1.020   1.348 -0.5178  0.3877 -0.3824
 4794SOL    HW218948   2.314   1.059   1.386  1.1066 -2.2593 -0.7926
 4794SOL    HW318949   2.261   0.993   1.260 -2.4602  1.0298 -1.2139
 4794SOL    MW418950   2.249   1.022   1.341 -0.5598  0.1232 -0.5462
 4795SOL     OW18951   2.205   5.928   3.341 -0.1797 -0.2123  0.2213
 4795SOL    HW218952   2.246   5.969   3.417  0.0593 -0.3972  0.1959
 4795SOL    HW318953   2.223   5.834   3.353 -2.8791 -0.6622  1.6261
 4795SOL    MW418954   2.213   5.921   3.353 -0.5043 -0.2961  0.4033
 4796SOL     OW18955   2.790   4.786   5.635  0.3350  0.0429 -0.2811
 4796SOL    HW218956   2.777   4.833   5.717 -1.7993 -0.1052 -0.4768
 4796SOL    HW318957   2.812   4.854   5.571  2.3744  0.1156  0.4349
 4796SOL    MW418958   2.791   4.801   5.637  0.3225  0.0329 -0.2124
 4797SOL     OW18959   6.239   4.845   2.890  0.2647 -0.2876  0.4481
 4797SOL    HW218960   6.230   4.782   2.961  0.4415  0.4288  1.1224
 4797SOL    HW318961   6.273   4.924   2.932  0.0314  0.2667 -0.3724
 4797SOL    MW418962   6.242   4.847   2.905  0.2572 -0.1200  0.4288
 4798SOL     OW18963   1.219   0.755   4.398 -0.0029 -0.3229  0.4309
 4798SOL    HW218964   1.251   0.679   4.351  0.4089  0.0583  0.0893
 4798SOL    HW318965   1.298   0.798   4.432 -0.2781 -0.4984  1.3301
 4798SOL    MW418966   1.234   0.751   4.396  0.0151 -0.2957  0.5045
 4799SOL     OW18967   3.293   0.827   2.954 -0.7143  0.5086 -0.3726
 4799SOL    HW218968   3.308   0.919   2.976 -0.4150  0.1857  0.8238
 4799SOL    HW318969   3.380   0.793   2.932 -0.5258  0.0821  0.9347
 4799SOL    MW418970   3.306   0.835   2.954 -0.6500  0.4097 -0.0423
 4800SOL     OW18971   0.018   3.859   5.617  0.3197 -0.2699  0.3082
 4800SOL    HW218972   0.010   3.767   5.641  0.2927 -0.3458  0.0118
 4800SOL    HW318973   0.066   3.858   5.533 -0.9420 -0.0948 -0.4333
 4800SOL    MW418974   0.024   3.847   5.609  0.1496 -0.2568  0.1712
 4801SOL     OW18975   2.196   3.458   1.303 -0.0375  0.0712 -0.4820
 4801SOL    HW218976   2.234   3.423   1.383  0.2239 -2.4332 -1.6117
 4801SOL    HW318977   2.265   3.514   1.266  0.8252 -0.7862 -0.2108
 4801SOL    MW418978   2.211   3.461   1.308  0.1108 -0.3723 -0.5953
 4802SOL     OW18979   5.101   5.205   3.798  0.2605  0.4897 -0.6050
 4802SOL    HW218980   5.180   5.255   3.816  0.8635 -0.6995  0.1652
 4802SOL    HW318981   5.120   5.159   3.716 -0.4328  1.7523 -1.5112
 4802SOL    MW418982   5.114   5.206   3.789  0.2486  0.4994 -0.6229
 4803SOL     OW18983   2.139   0.313   2.974 -0.0034  0.3258 -0.3851
 4803SOL    HW218984   2.071   0.256   3.010 -1.4120  2.6500  0.9314
 4803SOL    HW318985   2.148   0.284   2.883 -1.2013 -1.4404 -0.0008
 4803SOL    MW418986   2.131   0.302   2.967 -0.3473  0.3994 -0.1607
 4804SOL     OW18987   3.520   1.370   3.221 -0.1575 -0.4752  0.8467
 4804SOL    HW218988   3.439   1.324   3.239 -0.6159  0.6236  1.7122
 4804SOL    HW318989   3.495   1.440   3.161  0.2004 -0.2934  0.9057
 4804SOL    MW418990   3.506   1.373   3.216 -0.1708 -0.3063  0.9687
 4805SOL     OW18991   3.755   2.322   5.498  0.1310  0.5596  0.6387
 4805SOL    HW218992   3.808   2.265   5.553 -1.8151 -0.1012  1.9481
 4805SOL    HW318993   3.805   2.404   5.494  1.3559 -0.1006  1.5849
 4805SOL    MW418994   3.769   2.325   5.505  0.0358  0.3853  0.9363
 4806SOL     OW18995   5.653   2.796   4.029  0.1905 -0.0171  0.5814
 4806SOL    HW218996   5.629   2.706   4.006  1.0211  0.0676 -0.7219
 4806SOL    HW318997   5.748   2.801   4.013 -0.2678  1.8651 -2.2358
 4806SOL    MW418998   5.663   2.785   4.024  0.2396  0.2424  0.0378
 4807SOL     OW18999   3.676   4.558   2.415 -0.2860  0.6709 -0.1784
 4807SOL    HW219000   3.697   4.610   2.337 -1.1265  1.2468 -0.0298
 4807SOL    HW319001   3.627   4.483   2.381 -0.4914  0.8258 -0.2261
 4807SOL    MW419002   3.673   4.555   2.400 -0.4240  0.7673 -0.1651
 4808SOL     OW19003   1.800   5.705   3.296 -0.2078 -0.0587 -0.1680
 4808SOL    HW219004   1.834   5.665   3.216  0.8266  0.6824 -0.1311
 4808SOL    HW319005   1.706   5.687   3.295  0.1848 -2.2989 -0.2327
 4808SOL    MW419006   1.792   5.697   3.286 -0.0195 -0.2565 -0.1717
 4809SOL     OW19007   4.892   0.106   0.326  0.0821  0.3758  0.1578
 4809SOL    HW219008   4.929   0.179   0.277  0.4692  0.2396  0.2438
 4809SOL    HW319009   4.880   0.140   0.415  2.3775 -0.3210  0.7843
 4809SOL    MW419010   4.895   0.120   0.331  0.4360  0.2659  0.2518
 4810SOL     OW19011   5.399   2.883   2.642  0.5623 -0.4082  0.1030
 4810SOL    HW219012   5.377   2.797   2.678 -1.2597  0.5714  1.5659
 4810SOL    HW319013   5.438   2.930   2.715 -1.5253  1.0330  0.3996
 4810SOL    MW419014   5.401   2.878   2.656  0.0465 -0.0888  0.3351
 4811SOL     OW19015   3.927   5.926   1.942 -0.3682  0.3225  0.9208
 4811SOL    HW219016   3.961   5.948   1.855 -2.0123 -0.7934 -0.0882
 4811SOL    HW319017   3.938   5.831   1.949  0.2174  0.4629  2.1805
 4811SOL    MW419018   3.933   5.917   1.931 -0.5079  0.1938  0.9538
 4812SOL     OW19019   1.849   2.526   6.416  0.5529  0.4739 -0.6031
 4812SOL    HW219020   1.831   2.485   6.500  0.9226  0.1299 -0.6910
 4812SOL    HW319021   1.944   2.537   6.414  0.5424  0.5236 -0.9563
 4812SOL    MW419022   1.859   2.522   6.427  0.6003  0.4351 -0.6613
 4813SOL     OW19023   1.680   3.281   0.113 -0.0664  0.0832  0.2019
 4813SOL    HW219024   1.654   3.307   0.201 -0.5368 -1.9062  0.7118
 4813SOL    HW319025   1.638   3.196   0.100  0.4833  0.0497 -1.7203
 4813SOL    MW419026   1.671   3.273   0.123 -0.0560 -0.1837  0.0156
 4814SOL     OW19027   5.494   1.818   1.163  0.0746  0.9504  0.2770
 4814SOL    HW219028   5.440   1.863   1.098 -1.1107 -1.3984 -0.4774
 4814SOL    HW319029   5.541   1.751   1.113  3.2424  2.4073  1.0396
 4814SOL    MW419030   5.493   1.815   1.148  0.3362  0.8327  0.2781
 4815SOL     OW19031   5.372   0.696   3.210 -0.3458  0.3065  0.1068
 4815SOL    HW219032   5.292   0.654   3.180 -0.8035  0.7480  0.6806
 4815SOL    HW319033   5.398   0.647   3.288  0.0561  0.0410 -0.1900
 4815SOL    MW419034   5.365   0.684   3.216 -0.3531  0.3297  0.1434
 4816SOL     OW19035   0.793   4.695   6.064  0.5085  0.5340 -0.0026
 4816SOL    HW219036   0.698   4.683   6.065  0.5417  0.2745  0.4025
 4816SOL    HW319037   0.808   4.763   5.999 -0.0627  1.4815  0.8321
 4816SOL    MW419038   0.782   4.702   6.056  0.4375  0.6248  0.1610
 4817SOL     OW19039   0.653   2.537   0.217  0.1676 -0.7542 -0.0514
 4817SOL    HW219040   0.573   2.486   0.203 -2.2436  3.0577 -1.9785
 4817SOL    HW319041   0.627   2.607   0.277  1.2466  1.8816 -2.4136
 4817SOL    MW419042   0.639   2.540   0.223 -0.0082  0.0965 -0.6173
 4818SOL     OW19043   6.024   4.621   1.763 -0.2228  0.0752  0.3805
 4818SOL    HW219044   5.932   4.594   1.763  0.0392 -0.8469  0.4306
 4818SOL    HW319045   6.059   4.587   1.845  0.7297 -1.6833 -0.6819
 4818SOL    MW419046   6.016   4.613   1.774 -0.0626 -0.2785  0.2469
 4819SOL     OW19047   4.197   4.327   5.299  0.8652 -0.1095 -0.0813
 4819SOL    HW219048   4.180   4.420   5.315  1.6032 -0.1666  1.1103
 4819SOL    HW319049   4.220   4.291   5.384  0.2941 -1.4670 -0.4698
 4819SOL    MW419050   4.198   4.334   5.312  0.8873 -0.2961  0.0247
 4820SOL     OW19051   0.037   5.474   4.609  0.3102 -0.2385  0.4384
 4820SOL    HW219052   0.117   5.448   4.563 -0.0467 -1.5118  0.5138
 4820SOL    HW319053  -0.008   5.392   4.627 -1.5208  0.5130 -0.4950
 4820SOL    MW419054   0.042   5.460   4.606  0.0216 -0.3073  0.3252
 4821SOL     OW19055   4.250   0.146   1.056  0.2743 -0.5834  0.2029
 4821SOL    HW219056   4.182   0.084   1.084 -0.1594 -0.7933 -1.2225
 4821SOL    HW319057   4.267   0.200   1.133  0.2558 -2.1064  1.3106
 4821SOL    MW419058   4.243   0.145   1.070  0.2146 -0.8120  0.1609
 4822SOL     OW19059   0.343   5.104   2.926  0.2080 -0.2013  0.4016
 4822SOL    HW219060   0.366   5.055   2.847 -1.9546  2.5560 -2.2088
 4822SOL    HW319061   0.391   5.186   2.918 -0.1867  0.2014  1.8702
 4822SOL    MW419062   0.352   5.108   2.914 -0.1294  0.2156  0.2509
 4823SOL     OW19063   3.597   6.192   1.513 -0.1143 -0.2634 -0.1289
 4823SOL    HW219064   3.554   6.199   1.598  1.3109  0.3831  0.5620
 4823SOL    HW319065   3.687   6.167   1.533  0.0537 -0.8236 -1.4928
 4823SOL    MW419066   3.603   6.190   1.527  0.0959 -0.2520 -0.2177
 4824SOL     OW19067   2.052   2.422   2.137  0.2032  0.0778  0.1655
 4824SOL    HW219068   2.125   2.451   2.082 -0.4210 -0.3502 -0.9245
 4824SOL    HW319069   2.083   2.435   2.227  1.8683 -0.7272 -0.2506
 4824SOL    MW419070   2.066   2.428   2.142  0.3405 -0.0849 -0.0332
 4825SOL     OW19071   3.165   5.246   1.728  0.1684 -0.5435  0.3867
 4825SOL    HW219072   3.112   5.277   1.802 -0.8690  1.7751 -1.1996
 4825SOL    HW319073   3.218   5.322   1.704  2.7203 -2.1518  0.5354
 4825SOL    MW419074   3.165   5.260   1.735  0.3682 -0.4498  0.1970
 4826SOL     OW19075   6.000   6.049   0.281  0.3442  0.0575  0.2275
 4826SOL    HW219076   5.908   6.073   0.283  0.0472 -1.0511  1.2118
 4826SOL    HW319077   6.035   6.080   0.365  0.1958 -1.8377  1.0569
 4826SOL    MW419078   5.992   6.056   0.292  0.2854 -0.3388  0.4668
 4827SOL     OW19079   3.776   2.652   3.715 -0.0412 -0.4879  0.0633
 4827SOL    HW219080   3.868   2.659   3.691  0.1900  0.9310  1.2186
 4827SOL    HW319081   3.730   2.703   3.648 -0.0201 -1.3223 -0.6003
 4827SOL    MW419082   3.782   2.660   3.703 -0.0079 -0.4108  0.1282
 4828SOL     OW19083   0.164   1.904   0.951 -0.9080  0.3030  0.2304
 4828SOL    HW219084   0.137   1.822   0.991 -1.5105  1.1639  1.6888
 4828SOL    HW319085   0.253   1.889   0.921 -0.9703 -0.8328  0.5897
 4828SOL    MW419086   0.172   1.891   0.952 -0.9957  0.2668  0.4702
 4829SOL     OW19087   2.719   4.835   2.088  0.1122 -0.5346  0.3813
 4829SOL    HW219088   2.731   4.821   2.182  0.2678 -1.9539  0.1822
 4829SOL    HW319089   2.629   4.868   2.080 -0.0952 -0.9249  0.9892
 4829SOL    MW419090   2.709   4.837   2.100  0.1054 -0.7734  0.4352
 4830SOL     OW19091   4.833   2.767   4.970  0.5277 -0.6762  0.4539
 4830SOL    HW219092   4.794   2.808   4.893  0.5190  1.8669  1.7223
 4830SOL    HW319093   4.926   2.788   4.964  0.5653 -0.6688  1.0011
 4830SOL    MW419094   4.840   2.775   4.959  0.5315 -0.3397  0.6935
 4831SOL     OW19095   1.563   1.739   4.841  0.3229 -0.2035  0.2666
 4831SOL    HW219096   1.509   1.660   4.838 -1.2970  0.8588  0.2948
 4831SOL    HW319097   1.511   1.806   4.796  0.4117  1.5485  2.5663
 4831SOL    MW419098   1.549   1.738   4.835  0.1209  0.1678  0.5738
 4832SOL     OW19099   2.352   4.078   2.309  0.4632  0.2001 -0.0082
 4832SOL    HW219100   2.357   4.162   2.263 -2.6880  1.5232  1.7546
 4832SOL    HW319101   2.279   4.033   2.269  0.9896 -0.9286  0.2689
 4832SOL    MW419102   2.343   4.083   2.298  0.1169  0.2257  0.2610
 4833SOL     OW19103   0.970   5.122   2.737  0.0404 -0.3681  0.3951
 4833SOL    HW219104   0.964   5.064   2.661  0.3195  0.3137 -0.1574
 4833SOL    HW319105   1.064   5.134   2.751  0.0507  2.1511 -1.2437
 4833SOL    MW419106   0.982   5.116   2.729  0.0786  0.0542  0.1060
 4834SOL     OW19107   2.878   5.023   6.159 -0.0663  0.7002  0.1664
 4834SOL    HW219108   2.829   5.054   6.235 -1.2860  0.2854 -0.4322
 4834SOL    HW319109   2.868   4.928   6.160 -1.3252  0.7892 -1.3068
 4834SOL    MW419110   2.870   5.015   6.169 -0.3933  0.6572 -0.1069
 4835SOL     OW19111   1.487   2.468   4.639  0.1288  0.1497  0.1813
 4835SOL    HW219112   1.428   2.403   4.678  1.3654 -1.0568  0.1061
 4835SOL    HW319113   1.541   2.498   4.711  0.4029  0.1618 -0.0271
 4835SOL    MW419114   1.486   2.463   4.653  0.3281 -0.0079  0.1439
 4836SOL     OW19115   2.472   2.364   0.928  0.6788 -0.1224 -0.6232
 4836SOL    HW219116   2.548   2.307   0.933  0.9676  0.2375 -0.8582
 4836SOL    HW319117   2.444   2.360   0.836  1.8377  1.5558 -1.0927
 4836SOL    MW419118   2.478   2.356   0.916  0.8698  0.1465 -0.7161
 4837SOL     OW19119   2.242   5.816   1.748  0.5588  0.4538  0.0356
 4837SOL    HW219120   2.235   5.893   1.693  0.5932  1.9016  1.9414
 4837SOL    HW319121   2.243   5.742   1.687  2.0270  2.0030 -1.9375
 4837SOL    MW419122   2.241   5.816   1.733  0.7571  0.8492  0.0267
 4838SOL     OW19123   1.967   4.178   1.164 -0.5524  0.0996  0.1994
 4838SOL    HW219124   2.038   4.197   1.104 -0.4855  0.8953  0.5146
 4838SOL    HW319125   2.005   4.116   1.227 -0.6545 -0.8129 -0.6160
 4838SOL    MW419126   1.981   4.172   1.165 -0.5570  0.0842  0.1334
 4839SOL     OW19127   4.638   4.282   3.376  0.2977  0.8005 -0.0132
 4839SOL    HW219128   4.543   4.293   3.365  0.1997  0.9739  0.9780
 4839SOL    HW319129   4.654   4.189   3.356 -0.5352 -0.0102  2.6741
 4839SOL    MW419130   4.628   4.271   3.372  0.1749  0.7164  0.4721
 4840SOL     OW19131   1.683   2.034   6.104  0.2530 -0.6277  0.0546
 4840SOL    HW219132   1.631   2.111   6.078  0.1292 -0.5844  0.4270
 4840SOL    HW319133   1.750   2.070   6.162  2.0283 -0.3386 -2.0074
 4840SOL    MW419134   1.685   2.049   6.108  0.4709 -0.5838 -0.1683
 4841SOL     OW19135   6.024   6.319   5.243  0.1192 -0.1113 -0.2278
 4841SOL    HW219136   6.038   6.241   5.296  0.2553 -1.9103 -2.6992
 4841SOL    HW319137   6.099   6.321   5.184 -0.3836  1.3214 -0.8567
 4841SOL    MW419138   6.035   6.309   5.242  0.0709 -0.1597 -0.6368
 4842SOL     OW19139   6.226   3.125   5.401  0.5359 -0.4606  0.0640
 4842SOL    HW219140   6.150   3.087   5.445 -0.0459  0.4006 -0.1511
 4842SOL    HW319141   6.191   3.205   5.360  1.2919 -0.6922 -1.0558
 4842SOL    MW419142   6.211   3.131   5.401  0.5589 -0.3776 -0.1122
 4843SOL     OW19143   5.090   2.220   4.236  0.6564 -0.2180  0.3060
 4843SOL    HW219144   5.012   2.187   4.192  1.2184 -0.6139 -0.4309
 4843SOL    HW319145   5.057   2.274   4.308 -0.2862 -0.8314  0.3482
 4843SOL    MW419146   5.075   2.223   4.239  0.6062 -0.3511  0.2143
 4844SOL     OW19147   1.796   6.173   2.361  0.7705  0.3081  0.4815
 4844SOL    HW219148   1.890   6.183   2.348  1.0120 -0.7649  1.3331
 4844SOL    HW319149   1.768   6.115   2.290  0.6508  0.9642 -0.0288
 4844SOL    MW419150   1.804   6.167   2.350  0.7866  0.2531  0.5266
 4845SOL     OW19151   4.242   5.591   4.538 -0.5541  0.1770  0.1833
 4845SOL    HW219152   4.222   5.554   4.624 -1.0687 -0.6355 -0.2620
 4845SOL    HW319153   4.160   5.583   4.489 -0.4350  1.1821 -0.1912
 4845SOL    MW419154   4.229   5.585   4.543 -0.6063  0.2024  0.0751
 4846SOL     OW19155   0.242   3.280   2.770 -0.3440 -0.5359 -0.0104
 4846SOL    HW219156   0.222   3.287   2.676 -1.8352 -1.2101  0.2353
 4846SOL    HW319157   0.174   3.332   2.812  0.9447  0.6634  0.6775
 4846SOL    MW419158   0.230   3.288   2.763 -0.3707 -0.4666  0.1127
 4847SOL     OW19159   2.869   1.925   6.338  0.6055  0.1199  0.2613
 4847SOL    HW219160   2.819   1.933   6.420 -0.6383  0.1556 -0.4742
 4847SOL    HW319161   2.883   2.016   6.310  3.4154  0.2613  1.7704
 4847SOL    MW419162   2.864   1.938   6.345  0.8121  0.1433  0.3634
 4848SOL     OW19163   6.189   2.965   3.442 -0.0666 -0.1911 -0.2948
 4848SOL    HW219164   6.098   2.979   3.419 -0.2231  1.1146  1.0209
 4848SOL    HW319165   6.193   2.874   3.473 -0.7008 -0.5583 -1.2592
 4848SOL    MW419166   6.178   2.955   3.443 -0.1709 -0.0673 -0.2485
 4849SOL     OW19167   1.770   6.285   3.278 -0.2745  0.4191  0.4925
 4849SOL    HW219168   1.726   6.345   3.218  1.0235  1.1237  0.2122
 4849SOL    HW319169   1.820   6.341   3.337 -0.3905 -0.3256  1.3403
 4849SOL    MW419170   1.771   6.300   3.278 -0.1185  0.4138  0.5674
 4850SOL     OW19171   3.689   3.956   0.131  0.6213 -0.3953 -0.2908
 4850SOL    HW219172   3.724   3.902   0.061  0.9195  0.4133 -0.7849
 4850SOL    HW319173   3.709   4.046   0.104 -2.0074  0.1411 -0.7070
 4850SOL    MW419174   3.696   3.961   0.118  0.3138 -0.2178 -0.4109
 4851SOL     OW19175   6.061   0.216   4.503  0.0607  0.3420 -0.1082
 4851SOL    HW219176   6.011   0.297   4.511 -2.1058 -0.7333 -1.7251
 4851SOL    HW319177   6.148   0.237   4.539  0.0138  3.7325 -1.6623
 4851SOL    MW419178   6.066   0.229   4.509 -0.2313  0.6474 -0.5266
 4852SOL     OW19179   0.995   5.547   5.713 -0.2614 -0.0256  0.1732
 4852SOL    HW219180   1.010   5.467   5.661 -1.6824  1.4137 -2.7205
 4852SOL    HW319181   0.903   5.570   5.695 -0.2677  1.5983  1.9570
 4852SOL    MW419182   0.985   5.539   5.703 -0.4497  0.3785  0.0267
 4853SOL     OW19183   5.363   6.112   3.743  0.3605 -0.4657  0.1210
 4853SOL    HW219184   5.299   6.093   3.811  0.2757 -0.2472  0.1028
 4853SOL    HW319185   5.429   6.167   3.785  1.1525 -1.6317  0.4473
 4853SOL    MW419186   5.364   6.117   3.757  0.4538 -0.5907  0.1616
 4854SOL     OW19187   5.913   0.875   5.883 -0.2461 -0.0073  0.1885
 4854SOL    HW219188   5.959   0.794   5.859  2.4396  0.9551  1.6316
 4854SOL    HW319189   5.966   0.944   5.844 -2.7053  1.1515 -1.3383
 4854SOL    MW419190   5.926   0.873   5.875 -0.2162  0.2725  0.1775
 4855SOL     OW19191   3.292   6.398   3.584  0.5789  0.0386 -0.7798
 4855SOL    HW219192   3.206   6.421   3.548  0.0616  0.3698  0.6164
 4855SOL    HW319193   3.325   6.480   3.621 -0.3423 -0.8670  2.3418
 4855SOL    MW419194   3.285   6.412   3.584  0.3891 -0.0372 -0.1837
 4856SOL     OW19195   2.535   0.484   4.020  0.1581  0.0469 -0.0326
 4856SOL    HW219196   2.564   0.575   4.024  1.5480 -0.3476 -0.7990
 4856SOL    HW319197   2.474   0.481   3.946  0.1534  0.3308 -0.0405
 4856SOL    MW419198   2.531   0.496   4.011  0.3409  0.0323 -0.1347
 4857SOL     OW19199   4.156   3.918   1.100  0.0630 -0.1814 -0.2865
 4857SOL    HW219200   4.139   3.832   1.139 -0.6486 -0.2581 -0.7430
 4857SOL    HW319201   4.142   3.980   1.172  0.2188 -0.4202 -0.0486
 4857SOL    MW419202   4.152   3.915   1.115 -0.0104 -0.2230 -0.3153
 4858SOL     OW19203   4.750   6.099   6.121  0.2993 -0.6141 -0.6515
 4858SOL    HW219204   4.712   6.017   6.149 -2.7033  0.7100 -0.4675
 4858SOL    HW319205   4.774   6.144   6.202  1.2046 -0.9560 -0.7192
 4858SOL    MW419206   4.748   6.094   6.135  0.0226 -0.4845 -0.6361
 4859SOL     OW19207   3.680   5.461   6.350 -0.1214 -0.1580  0.2322
 4859SOL    HW219208   3.587   5.452   6.368 -0.2967  0.8954 -0.0560
 4859SOL    HW319209   3.690   5.551   6.317  0.9111 -0.4188 -0.2369
 4859SOL    MW419210   3.669   5.472   6.348 -0.0083 -0.0534  0.1323
 4860SOL     OW19211   3.265   6.220   1.267 -0.1388  0.3457  0.7145
 4860SOL    HW219212   3.194   6.256   1.214 -2.0477  0.2511  3.0856
 4860SOL    HW319213   3.269   6.127   1.242  0.1473  0.6477 -0.4265
 4860SOL    MW419214   3.256   6.212   1.257 -0.3529  0.3731  0.8768
 4861SOL     OW19215   3.986   6.138   3.090 -0.5919  0.6241 -0.1987
 4861SOL    HW219216   4.026   6.143   3.177 -1.3654  0.2638  0.1845
 4861SOL    HW319217   4.025   6.211   3.042 -0.2557  0.9134  0.4912
 4861SOL    MW419218   3.997   6.148   3.095 -0.6496  0.6147 -0.0571
 4862SOL     OW19219   3.950   0.007   4.475  0.3538 -0.4609 -0.1486
 4862SOL    HW219220   3.985   0.058   4.548 -3.3263  1.0173  0.8131
 4862SOL    HW319221   3.925  -0.076   4.513  0.3107 -0.4846 -0.2280
 4862SOL    MW419222   3.952   0.003   4.489 -0.1375 -0.2690 -0.0322
 4863SOL     OW19223   2.634   4.636   5.479 -0.3077 -0.2263  0.6886
 4863SOL    HW219224   2.676   4.702   5.534 -0.4122  2.7388 -2.4848
 4863SOL    HW319225   2.540   4.648   5.495 -0.2812 -1.4613  1.9763
 4863SOL    MW419226   2.627   4.646   5.489 -0.3180  0.0020  0.4398
 4864SOL     OW19227   2.404   5.125   3.571 -0.1041 -0.2630  0.0469
 4864SOL    HW219228   2.452   5.073   3.635  0.0515  0.7735  0.7884
 4864SOL    HW319229   2.467   5.190   3.541 -0.7865  0.5919  0.4241
 4864SOL    MW419230   2.419   5.127   3.575 -0.1736 -0.0135  0.1945
 4865SOL     OW19231   5.646   1.328   2.866  0.2979  0.5694 -0.1661
 4865SOL    HW219232   5.593   1.270   2.921  1.4403  0.6206  1.0334
 4865SOL    HW319233   5.654   1.408   2.918  1.3339  0.6464 -0.4374
 4865SOL    MW419234   5.640   1.331   2.880  0.5853  0.5863 -0.0437
 4866SOL     OW19235   5.157   3.459   0.099 -0.4071  0.2543  0.9041
 4866SOL    HW219236   5.173   3.365   0.092  0.0760  0.3200  1.0715
 4866SOL    HW319237   5.096   3.468   0.172 -1.7169 -0.0530 -0.1198
 4866SOL    MW419238   5.151   3.448   0.107 -0.5162  0.2224  0.7911
 4867SOL     OW19239   2.670   3.815   2.589  0.1413 -0.0594 -0.0488
 4867SOL    HW219240   2.599   3.825   2.526  0.0155  0.2234  0.1332
 4867SOL    HW319241   2.660   3.889   2.648 -3.0620 -2.9375  3.5673
 4867SOL    MW419242   2.659   3.826   2.589 -0.2980 -0.4018  0.4523
 4868SOL     OW19243   4.415   0.610   1.178 -0.7533  0.3779 -0.0909
 4868SOL    HW219244   4.454   0.650   1.101  0.2870 -1.6550 -0.6900
 4868SOL    HW319245   4.459   0.652   1.252 -0.3994  1.0242 -0.6608
 4868SOL    MW419246   4.426   0.621   1.178 -0.5693  0.1950 -0.2452
 4869SOL     OW19247   1.390   5.347   0.788  0.5434 -0.7033 -0.1358
 4869SOL    HW219248   1.398   5.253   0.805  1.8141 -0.4236  1.0396
 4869SOL    HW319249   1.431   5.388   0.865 -0.7249  0.8287 -0.2438
 4869SOL    MW419250   1.397   5.340   0.801  0.5437 -0.4643  0.0050
 4870SOL     OW19251   4.668   0.421   6.084  0.2368 -0.5522 -0.1203
 4870SOL    HW219252   4.668   0.442   5.991 -0.0923  0.2542  0.0550
 4870SOL    HW319253   4.667   0.325   6.086  0.9839 -0.5887 -0.9349
 4870SOL    MW419254   4.668   0.411   6.072  0.2920 -0.4506 -0.2047
 4871SOL     OW19255   2.658   5.947   3.621  0.4866  0.1376 -0.2567
 4871SOL    HW219256   2.693   5.868   3.579  1.2646  0.6709 -0.6269
 4871SOL    HW319257   2.733   5.987   3.664 -0.4153 -0.8017  2.3709
 4871SOL    MW419258   2.672   5.942   3.621  0.4703  0.0840  0.0412
 4872SOL     OW19259   6.058   0.220   3.645 -0.1095 -0.2253 -0.1505
 4872SOL    HW219260   6.020   0.267   3.571 -0.1893 -0.7791 -0.4696
 4872SOL    HW319261   6.083   0.289   3.707  0.5675  0.2970 -0.9798
 4872SOL    MW419262   6.057   0.235   3.644 -0.0307 -0.2294 -0.3021
 4873SOL     OW19263   5.647   6.354   4.731 -0.2000  0.3310  1.0089
 4873SOL    HW219264   5.561   6.339   4.692 -1.5068  1.2533  3.3217
 4873SOL    HW319265   5.695   6.273   4.716 -1.1248  0.0964 -1.0874
 4873SOL    MW419266   5.642   6.342   4.724 -0.4944  0.4217  1.0375
 4874SOL     OW19267   4.468   4.594   3.852  1.0711 -0.3238 -0.5656
 4874SOL    HW219268   4.540   4.537   3.878  1.9690  0.3749 -1.4281
 4874SOL    HW319269   4.501   4.683   3.868  0.0893 -0.0137 -0.2127
 4874SOL    MW419270   4.482   4.599   3.857  1.0601 -0.1907 -0.6329
 4875SOL     OW19271   4.371   6.263   0.436 -0.2620 -0.3069 -0.1338
 4875SOL    HW219272   4.384   6.356   0.420 -1.1518 -0.5373 -2.4852
 4875SOL    HW319273   4.455   6.234   0.473  0.4109  1.1971 -0.3954
 4875SOL    MW419274   4.384   6.271   0.439 -0.2907 -0.1388 -0.4785
 4876SOL     OW19275   1.432   1.105   0.335  0.0080  0.3699 -0.3247
 4876SOL    HW219276   1.518   1.064   0.335  0.8624  2.0835 -0.7624
 4876SOL    HW319277   1.444   1.187   0.287 -1.7666  0.8537 -0.0192
 4876SOL    MW419278   1.445   1.110   0.329 -0.1134  0.6598 -0.3421
 4877SOL     OW19279   0.589   2.101   5.022 -0.1403  0.1115  0.5168
 4877SOL    HW219280   0.655   2.059   4.967 -0.5117 -0.1566  0.2662
 4877SOL    HW319281   0.529   2.030   5.045  0.1701  0.1623  1.5179
 4877SOL    MW419282   0.590   2.086   5.018 -0.1483  0.0828  0.6158
 4878SOL     OW19283   1.945   4.531   5.440  0.2153  0.2012  0.6784
 4878SOL    HW219284   1.910   4.486   5.363 -1.0599  2.9735 -0.4857
 4878SOL    HW319285   2.040   4.531   5.426  0.1236 -0.7040 -0.0579
 4878SOL    MW419286   1.953   4.525   5.428  0.0349  0.4476  0.4277
 4879SOL     OW19287   4.958   4.120   6.022  0.6656  0.2638 -0.2369
 4879SOL    HW219288   4.882   4.178   6.023  0.2288 -0.3038  0.5595
 4879SOL    HW319289   4.974   4.099   6.114  0.5780 -1.1699 -0.5280
 4879SOL    MW419290   4.950   4.125   6.034  0.5965 -0.0003 -0.1702
 4880SOL     OW19291   5.953   4.693   6.225  0.5883  0.0869  0.1482
 4880SOL    HW219292   6.027   4.753   6.220  1.5658 -1.1844 -1.3088
 4880SOL    HW319293   5.880   4.747   6.256  1.4800  1.9631 -0.8892
 4880SOL    MW419294   5.953   4.708   6.229  0.8349  0.1667 -0.1809
 4881SOL     OW19295   1.002   0.090   0.051  0.4213 -0.2021  0.4274
 4881SOL    HW219296   0.933   0.142   0.092  0.5520 -0.1450  0.5740
 4881SOL    HW319297   0.959   0.009   0.025 -0.5007  1.0133 -2.2922
 4881SOL    MW419298   0.987   0.086   0.053  0.3169 -0.0342  0.0879
 4882SOL     OW19299   2.670   2.052   4.624  0.1222  0.4722 -0.5518
 4882SOL    HW219300   2.736   2.113   4.590  1.3527 -0.1972  0.5539
 4882SOL    HW319301   2.706   1.966   4.606  0.3276  0.0988  1.4708
 4882SOL    MW419302   2.683   2.049   4.617  0.3117  0.3346 -0.1391
 4883SOL     OW19303   5.368   1.318   5.615  0.3295  0.1346  0.1351
 4883SOL    HW219304   5.329   1.288   5.698 -0.0900 -0.1201 -0.1516
 4883SOL    HW319305   5.391   1.238   5.569 -1.5356  0.1732 -0.9862
 4883SOL    MW419306   5.366   1.304   5.620  0.0281  0.1060 -0.0507
 4884SOL     OW19307   4.059   5.274   0.300  0.1925 -0.3150 -0.6131
 4884SOL    HW219308   4.115   5.310   0.232  1.4969 -1.6916 -0.3160
 4884SOL    HW319309   4.006   5.349   0.330  0.9897  0.7364 -1.7555
 4884SOL    MW419310   4.059   5.289   0.295  0.4698 -0.3579 -0.7246
 4885SOL     OW19311   2.946   3.544   2.681  0.2557 -0.0275  0.4374
 4885SOL    HW219312   2.882   3.496   2.629 -0.4804  0.9793  0.3748
 4885SOL    HW319313   2.894   3.610   2.728  0.9348 -0.6769  2.1939
 4885SOL    MW419314   2.930   3.546   2.681  0.2482  0.0196  0.6609
 4886SOL     OW19315   1.597   0.815   5.088  0.1422  0.6179  0.3540
 4886SOL    HW219316   1.519   0.837   5.138 -1.8724  0.1531 -2.3152
 4886SOL    HW319317   1.583   0.724   5.061  0.6970  1.0742 -1.6473
 4886SOL    MW419318   1.585   0.806   5.091 -0.0504  0.6167 -0.2622
 4887SOL     OW19319   0.449   1.290   3.529  0.3972  0.1523 -0.1538
 4887SOL    HW219320   0.437   1.283   3.434 -1.1660 -0.8200  0.0714
 4887SOL    HW319321   0.507   1.218   3.551 -0.3718 -0.5038 -0.2194
 4887SOL    MW419322   0.455   1.280   3.519  0.0895 -0.0626 -0.1328
 4888SOL     OW19323   4.560   0.408   5.510 -0.1380  0.0993 -0.5984
 4888SOL    HW219324   4.579   0.488   5.559 -1.7061 -0.0027  0.2560
 4888SOL    HW319325   4.464   0.402   5.510 -0.0812 -2.6527  0.8442
 4888SOL    MW419326   4.550   0.418   5.517 -0.3374 -0.2773 -0.2954
 4889SOL     OW19327   5.636   1.374   0.625 -0.1999 -0.4096 -0.6315
 4889SOL    HW219328   5.723   1.393   0.591  0.1009  2.6469  1.4629
 4889SOL    HW319329   5.577   1.430   0.573 -0.3335  0.6682  0.6388
 4889SOL    MW419330   5.639   1.383   0.613 -0.1778  0.1359 -0.1876
 4890SOL     OW19331   6.236   4.795   1.685  0.4232  0.9833  0.7892
 4890SOL    HW219332   6.295   4.737   1.734  0.2435  0.9901  1.0179
 4890SOL    HW319333   6.152   4.749   1.686  0.6578  0.4877 -0.4147
 4890SOL    MW419334   6.233   4.781   1.692  0.4304  0.9188  0.6605
 4891SOL     OW19335   2.781   2.189   1.112  0.1055 -0.3792  0.2058
 4891SOL    HW219336   2.833   2.220   1.187 -0.7785  0.8790  0.3164
 4891SOL    HW319337   2.818   2.235   1.037  0.9233 -1.5640 -0.1485
 4891SOL    MW419338   2.793   2.199   1.112  0.0968 -0.3695  0.1737
 4892SOL     OW19339   0.282   4.963   6.407 -0.1765  0.9457 -0.0001
 4892SOL    HW219340   0.268   5.004   6.492 -2.2898 -0.7163  0.5647
 4892SOL    HW319341   0.238   5.020   6.345 -0.2502  1.1992  0.2831
 4892SOL    MW419342   0.274   4.976   6.410 -0.4650  0.7599  0.1118
 4893SOL     OW19343   0.002   1.681   2.325  0.2664  0.5324  0.0584
 4893SOL    HW219344  -0.078   1.642   2.360 -0.0442  2.4603  1.6916
 4893SOL    HW319345   0.072   1.636   2.372 -0.0062  0.9263  0.8516
 4893SOL    MW419346   0.001   1.670   2.336  0.1895  0.8387  0.3785
 4894SOL     OW19347   3.626   0.289   4.524 -0.5736 -0.4680 -0.0511
 4894SOL    HW219348   3.531   0.291   4.523 -0.5785 -0.3798 -1.2449
 4894SOL    HW319349   3.651   0.318   4.611 -1.6682 -1.8848  0.7703
 4894SOL    MW419350   3.617   0.293   4.535 -0.7187 -0.6433 -0.1003
 4895SOL     OW19351   2.415   0.395   4.508  0.4918 -0.3614 -0.1398
 4895SOL    HW219352   2.432   0.315   4.558 -0.2988  0.4102  1.4564
 4895SOL    HW319353   2.497   0.443   4.511  0.5192 -0.4256  0.2404
 4895SOL    MW419354   2.428   0.390   4.515  0.3911 -0.2681  0.1210
 4896SOL     OW19355   5.093   5.543   1.813  0.6113 -0.2285  0.0051
 4896SOL    HW219356   5.126   5.454   1.802  1.2818 -0.3352  2.2554
 4896SOL    HW319357   5.151   5.582   1.878 -1.7102  0.6643  1.7159
 4896SOL    MW419358   5.105   5.536   1.820  0.3935 -0.1247  0.5277
 4897SOL     OW19359   4.234   1.665   2.214  1.2718  0.3038  0.1400
 4897SOL    HW219360   4.141   1.659   2.196  1.3174  0.8341 -0.3062
 4897SOL    HW319361   4.240   1.722   2.292  1.2761  1.3147 -0.5741
 4897SOL    MW419362   4.223   1.672   2.222  1.2784  0.5071 -0.0131
 4898SOL     OW19363   3.570   2.730   1.074  0.4150  0.0439  0.1496
 4898SOL    HW219364   3.587   2.717   1.168  1.2816  0.9804  0.1278
 4898SOL    HW319365   3.576   2.824   1.061 -1.2832  0.1002 -0.5643
 4898SOL    MW419366   3.573   2.741   1.085  0.3053  0.1749  0.0525
 4899SOL     OW19367   2.154   3.126   3.025  0.4804  0.1156 -0.4402
 4899SOL    HW219368   2.101   3.062   3.072  1.4396 -0.3984 -0.0232
 4899SOL    HW319369   2.113   3.210   3.044 -0.8048 -0.3608 -1.0084
 4899SOL    MW419370   2.142   3.128   3.033  0.4374 -0.0151 -0.4601
 4900SOL     OW19371   5.835   3.010   3.686 -0.3089  0.4441 -0.8539
 4900SOL    HW219372   5.830   3.105   3.681  0.8350  0.9893  3.8786
 4900SOL    HW319373   5.929   2.991   3.695 -0.6761 -0.8003  0.9566
 4900SOL    MW419374   5.847   3.020   3.686 -0.2065  0.3519  0.0094
 4901SOL     OW19375   3.712   0.047   5.419 -0.4852  0.9880 -0.0547
 4901SOL    HW219376   3.786  -0.012   5.423  0.4411  2.0093 -1.2817
 4901SOL    HW319377   3.743   0.128   5.460 -1.1456  1.1966  0.0493
 4901SOL    MW419378   3.725   0.050   5.425 -0.4501  1.1503 -0.2029
 4902SOL     OW19379   2.498   5.113   5.616 -0.5332  0.5004  0.0335
 4902SOL    HW219380   2.403   5.112   5.625 -0.7051 -0.2851 -1.5505
 4902SOL    HW319381   2.518   5.037   5.562  1.1855 -0.3459  1.7447
 4902SOL    MW419382   2.488   5.103   5.610 -0.3291  0.2851  0.0503
 4903SOL     OW19383   0.381   5.525   3.310 -0.3788 -0.0813  0.0800
 4903SOL    HW219384   0.457   5.579   3.330 -0.7889  0.6125 -0.2163
 4903SOL    HW319385   0.318   5.585   3.272 -0.4710 -0.9501 -1.1985
 4903SOL    MW419386   0.383   5.540   3.308 -0.4450 -0.1044 -0.1278
 4904SOL     OW19387   5.675   2.240   2.031 -0.1566  0.2540 -0.3205
 4904SOL    HW219388   5.693   2.166   1.974  0.2856  1.0587 -1.2692
 4904SOL    HW319389   5.681   2.205   2.120  2.8592 -0.3096 -0.6248
 4904SOL    MW419390   5.678   2.226   2.035  0.2996  0.2858 -0.4858
 4905SOL     OW19391   6.391   3.933   6.054  0.1117  0.6875 -0.1805
 4905SOL    HW219392   6.317   3.874   6.040  0.4588  0.3207 -0.4954
 4905SOL    HW319393   6.440   3.930   5.971  1.4803 -0.5001  0.6392
 4905SOL    MW419394   6.388   3.925   6.041  0.3381  0.4824 -0.1139
 4906SOL     OW19395   4.231   6.197   0.028 -0.2239  0.5546  0.1701
 4906SOL    HW219396   4.215   6.179   0.121 -0.7012  0.0434 -0.0069
 4906SOL    HW319397   4.319   6.163   0.012  0.0385  1.0411  0.5328
 4906SOL    MW419398   4.241   6.190   0.038 -0.2523  0.5514  0.1946
 4907SOL     OW19399   4.806   0.890   2.726  0.0729 -0.2599 -0.4673
 4907SOL    HW219400   4.736   0.839   2.767 -0.2245  0.3601 -0.1799
 4907SOL    HW319401   4.836   0.836   2.654 -2.2962  0.3840 -2.0796
 4907SOL    MW419402   4.800   0.876   2.722 -0.2789 -0.0932 -0.6421
 4908SOL     OW19403   3.308   1.410   3.580  0.2479 -1.3482  0.6384
 4908SOL    HW219404   3.385   1.465   3.559  0.3461 -1.6492  0.2001
 4908SOL    HW319405   3.282   1.439   3.668 -1.3319  1.3029 -0.5618
 4908SOL    MW419406   3.315   1.421   3.589  0.0524 -1.0382  0.4222
 4909SOL     OW19407   3.228   4.737   1.971  0.1350 -0.3251 -0.0287
 4909SOL    HW219408   3.279   4.701   1.899 -0.4296 -0.0778 -0.5532
 4909SOL    HW319409   3.138   4.709   1.953 -0.3433  1.4463 -0.5210
 4909SOL    MW419410   3.223   4.728   1.959 -0.0026 -0.0587 -0.1629
 4910SOL     OW19411   4.036   5.087   2.389 -0.0571  0.3508 -0.1717
 4910SOL    HW219412   3.978   5.051   2.322 -0.6622  2.1317 -0.6386
 4910SOL    HW319413   4.081   5.160   2.346 -0.1600  1.2796  1.2336
 4910SOL    MW419414   4.034   5.092   2.374 -0.1505  0.7083 -0.0479
 4911SOL     OW19415   6.069   2.066   2.929  0.5249 -0.1938 -0.0880
 4911SOL    HW219416   5.977   2.055   2.903 -0.1669  1.2133  1.5220
 4911SOL    HW319417   6.119   2.021   2.861 -1.3657 -1.3396 -0.8098
 4911SOL    MW419418   6.063   2.059   2.917  0.1842 -0.1593  0.0292
 4912SOL     OW19419   2.686   3.630   3.107  0.3288 -0.0825  0.2196
 4912SOL    HW219420   2.773   3.594   3.126  0.0465 -0.8007  0.2019
 4912SOL    HW319421   2.625   3.570   3.150 -0.1728  0.2223 -0.0526
 4912SOL    MW419422   2.689   3.617   3.115  0.2254 -0.1370  0.1813
 4913SOL     OW19423   2.845   2.422   3.545  0.2660 -0.1752 -0.7538
 4913SOL    HW219424   2.846   2.480   3.621  1.8132 -0.2501 -0.6864
 4913SOL    HW319425   2.770   2.452   3.493 -1.5338 -0.8420  1.2971
 4913SOL    MW419426   2.835   2.434   3.548  0.2327 -0.2731 -0.4743
 4914SOL     OW19427   1.880   3.644   2.797 -0.3499 -0.1960 -0.5761
 4914SOL    HW219428   1.895   3.669   2.888  0.8144 -0.6299 -0.6297
 4914SOL    HW319429   1.968   3.643   2.758 -0.9361  1.2642 -2.0501
 4914SOL    MW419430   1.894   3.647   2.804 -0.2737 -0.0606 -0.7777
 4915SOL     OW19431   6.263   2.487   6.301  0.1964  0.1687  0.6017
 4915SOL    HW219432   6.345   2.517   6.340 -0.4201  1.3511  1.0633
 4915SOL    HW319433   6.213   2.450   6.374 -0.0852  0.3884  0.5242
 4915SOL    MW419434   6.267   2.486   6.316  0.0779  0.3537  0.6524
 4916SOL     OW19435   4.339   3.053   3.873  0.5859 -0.1546  0.3924
 4916SOL    HW219436   4.304   3.141   3.856  0.8737 -0.2532 -0.8155
 4916SOL    HW319437   4.432   3.067   3.892  1.0996 -0.3291 -1.7594
 4916SOL    MW419438   4.346   3.067   3.873  0.6916 -0.1906 -0.0509
 4917SOL     OW19439   4.002   5.926   1.204 -0.0375  0.0047  0.4563
 4917SOL    HW219440   4.019   6.000   1.262  0.4758 -0.6465  1.1455
 4917SOL    HW319441   3.977   5.854   1.262  2.3575 -1.2175  0.0694
 4917SOL    MW419442   4.001   5.926   1.219  0.3463 -0.2425  0.4962
 4918SOL     OW19443   0.868   0.352   3.459  0.2611  0.3277  0.2176
 4918SOL    HW219444   0.811   0.418   3.497  1.0650  0.8987  0.4646
 4918SOL    HW319445   0.860   0.365   3.365 -0.1882  0.2469  0.2416
 4918SOL    MW419446   0.859   0.363   3.452  0.3079  0.3923  0.2534
 4919SOL     OW19447   2.933   3.484   3.207  0.1963 -0.3493  0.5377
 4919SOL    HW219448   3.000   3.423   3.176 -1.6147 -2.3668  0.3857
 4919SOL    HW319449   2.947   3.488   3.302  1.5865  0.6466  0.3256
 4919SOL    MW419450   2.944   3.476   3.216  0.1408 -0.4841  0.4897
 4920SOL     OW19451   1.884   1.470   5.230 -0.6487 -0.3076  0.4418
 4920SOL    HW219452   1.937   1.484   5.308 -0.5134 -2.5504  0.8218
 4920SOL    HW319453   1.862   1.558   5.200  0.9031  0.6449  1.8921
 4920SOL    MW419454   1.888   1.484   5.236 -0.4261 -0.4778  0.6833
 4921SOL     OW19455   4.703   5.197   1.520  0.1399 -0.3338 -0.1611
 4921SOL    HW219456   4.693   5.226   1.429 -0.1406  0.6743  0.1731
 4921SOL    HW319457   4.654   5.115   1.525 -1.2489  0.4436 -0.5280
 4921SOL    MW419458   4.695   5.190   1.509 -0.0804 -0.0982 -0.1654
 4922SOL     OW19459   0.228   1.725   6.015 -0.4740 -0.1889  0.4376
 4922SOL    HW219460   0.233   1.809   6.061 -2.2977 -0.0865  0.5322
 4922SOL    HW319461   0.143   1.689   6.039  0.5388 -2.4374  0.9511
 4922SOL    MW419462   0.217   1.731   6.024 -0.5810 -0.4721  0.5178
 4923SOL     OW19463   5.050   2.023   2.379  0.3925  0.0991 -0.2329
 4923SOL    HW219464   5.023   2.034   2.470 -0.2741 -1.8659 -0.1395
 4923SOL    HW319465   5.120   2.086   2.367 -2.0747  3.2042  0.4569
 4923SOL    MW419466   5.056   2.032   2.390 -0.0210  0.2495 -0.1295
 4924SOL     OW19467   3.966   2.614   5.615 -1.3058  0.2292 -0.0315
 4924SOL    HW219468   3.997   2.703   5.633  1.4218 -0.7664  0.6823
 4924SOL    HW319469   3.897   2.599   5.681 -1.9478  1.8313 -0.2871
 4924SOL    MW419470   3.961   2.624   5.626 -1.0307  0.3092  0.0289
 4925SOL     OW19471   2.145   6.402   6.145  0.5296  0.5691 -0.6377
 4925SOL    HW219472   2.055   6.426   6.167  0.1626 -0.9477 -0.3754
 4925SOL    HW319473   2.161   6.444   6.060  0.4199  2.7976  0.3796
 4925SOL    MW419474   2.135   6.411   6.137  0.4667  0.6630 -0.4689
 4926SOL     OW19475   4.925   0.894   4.167 -0.0090  0.0254 -0.0469
 4926SOL    HW219476   4.918   0.867   4.259  1.2893 -0.4800 -0.0692
 4926SOL    HW319477   4.846   0.861   4.126 -0.0212 -0.8397  0.6392
 4926SOL    MW419478   4.914   0.886   4.174  0.1607 -0.1555  0.0407
 4927SOL     OW19479   2.928   0.138   4.885 -0.7330 -0.3377 -0.0818
 4927SOL    HW219480   3.000   0.173   4.834  0.1177 -2.6978 -0.6532
 4927SOL    HW319481   2.897   0.062   4.835 -1.6395 -1.1575  1.6007
 4927SOL    MW419482   2.933   0.132   4.872 -0.7404 -0.7572  0.0648
 4928SOL     OW19483   4.048   1.836   1.889 -0.0857  0.6166 -0.1930
 4928SOL    HW219484   4.042   1.906   1.953 -0.1912  0.3285  0.1178
 4928SOL    HW319485   4.062   1.757   1.942 -0.3527  0.3528 -0.5116
 4928SOL    MW419486   4.049   1.835   1.905 -0.1349  0.5438 -0.1940
 4929SOL     OW19487   2.253   1.473   4.195 -0.2427 -0.2422 -0.1442
 4929SOL    HW219488   2.199   1.499   4.270 -0.2678 -1.4235  0.2707
 4929SOL    HW319489   2.342   1.469   4.231 -0.0627  0.4514 -0.5062
 4929SOL    MW419490   2.258   1.476   4.210 -0.2222 -0.3066 -0.1372
 4930SOL     OW19491   0.894   4.315   2.513 -0.6543  0.6012  0.3664
 4930SOL    HW219492   0.886   4.241   2.573 -1.0389  0.8883  0.6735
 4930SOL    HW319493   0.856   4.285   2.431  1.1489 -0.2947 -0.2066
 4930SOL    MW419494   0.888   4.301   2.511 -0.4671  0.5209  0.3313
 4931SOL     OW19495   4.721   0.446   4.737  0.5766  0.6221  0.4951
 4931SOL    HW219496   4.716   0.353   4.760 -1.0423  0.1152 -1.5694
 4931SOL    HW319497   4.767   0.449   4.654  0.5360  1.6534  0.4870
 4931SOL    MW419498   4.726   0.434   4.729  0.3576  0.6913  0.2216
 4932SOL     OW19499   6.102   4.275   5.663  0.5047 -0.5219 -0.2346
 4932SOL    HW219500   6.121   4.208   5.728  1.7190 -0.7008 -0.7380
 4932SOL    HW319501   6.007   4.272   5.652 -0.1392  1.2279  3.3088
 4932SOL    MW419502   6.092   4.266   5.670  0.5799 -0.3146  0.1665
 4933SOL     OW19503   4.288   4.551   2.811  0.3357 -0.4141  0.2614
 4933SOL    HW219504   4.214   4.498   2.781  0.5481  0.7523 -2.6652
 4933SOL    HW319505   4.332   4.496   2.876 -1.2305 -2.4683 -0.3031
 4933SOL    MW419506   4.284   4.536   2.816  0.1571 -0.5313 -0.1992
 4934SOL     OW19507   5.900   0.075   4.973 -0.2202 -0.6479  0.5571
 4934SOL    HW219508   5.809   0.104   4.972 -0.2497 -0.7392  0.5825
 4934SOL    HW319509   5.895  -0.020   4.980 -0.1138 -0.6196  1.0063
 4934SOL    MW419510   5.887   0.066   4.974 -0.2101 -0.6562  0.6197
 4935SOL     OW19511   2.009   5.390   2.682 -0.1919  0.3676 -0.6203
 4935SOL    HW219512   1.914   5.397   2.679 -0.1988  1.8078  1.2212
 4935SOL    HW319513   2.037   5.400   2.591 -1.7838 -0.1568 -1.1936
 4935SOL    MW419514   2.000   5.392   2.669 -0.4029  0.4884 -0.4530
 4936SOL     OW19515   4.683   3.846   4.142  0.5343  0.7345 -0.4728
 4936SOL    HW219516   4.765   3.831   4.094 -0.2664  0.6996 -1.9057
 4936SOL    HW319517   4.638   3.761   4.140 -0.6425  1.3362 -1.9674
 4936SOL    MW419518   4.688   3.833   4.135  0.2734  0.8093 -0.8591
 4937SOL     OW19519   4.130   5.671   0.830 -0.5876 -0.2155 -0.2596
 4937SOL    HW219520   4.139   5.752   0.881 -0.4817  0.5916 -1.4997
 4937SOL    HW319521   4.173   5.691   0.746 -2.6920 -0.6839 -1.5211
 4937SOL    MW419522   4.137   5.685   0.825 -0.8513 -0.1708 -0.5896
 4938SOL     OW19523   4.044   0.706   3.377  0.3706 -0.3410  0.0685
 4938SOL    HW219524   4.088   0.684   3.294  1.3018 -0.0787  0.4732
 4938SOL    HW319525   3.975   0.767   3.352  0.5815 -0.3376 -0.5332
 4938SOL    MW419526   4.041   0.711   3.363  0.5213 -0.3059  0.0425
 4939SOL     OW19527   2.978   1.800   1.984  0.2969 -0.2146 -0.1806
 4939SOL    HW219528   2.982   1.707   2.006  1.6799  0.2211  1.5915
 4939SOL    HW319529   2.939   1.842   2.061  0.8386  0.8221 -0.4555
 4939SOL    MW419530   2.973   1.794   1.997  0.5509 -0.0203  0.0170
 4940SOL     OW19531   3.221   0.488   3.552  0.0246 -0.2893 -0.2349
 4940SOL    HW219532   3.292   0.551   3.539  1.2206 -1.6443 -0.5205
 4940SOL    HW319533   3.168   0.525   3.622  1.5774  0.2911  0.6780
 4940SOL    MW419534   3.224   0.501   3.559  0.3872 -0.3915 -0.1521
 4941SOL     OW19535   6.094   3.154   1.490 -0.7770 -0.3417  0.0095
 4941SOL    HW219536   6.180   3.136   1.528 -0.4697  0.9232 -0.0375
 4941SOL    HW319537   6.107   3.142   1.396 -0.4841  0.3674 -0.0538
 4941SOL    MW419538   6.107   3.150   1.482 -0.6978 -0.0813 -0.0051
 4942SOL     OW19539   4.664   1.853   2.671 -0.0115 -0.0910 -0.2007
 4942SOL    HW219540   4.753   1.866   2.702 -1.0712  3.2034  2.0484
 4942SOL    HW319541   4.614   1.833   2.751 -1.3250 -2.0372 -1.4320
 4942SOL    MW419542   4.669   1.852   2.686 -0.3246  0.0869 -0.0664
 4943SOL     OW19543   3.040   6.017   2.078  0.3532 -0.1268 -0.3324
 4943SOL    HW219544   3.047   5.921   2.080 -2.5177 -0.5370 -2.8080
 4943SOL    HW319545   3.056   6.040   1.987  0.1981  1.6699  0.0689
 4943SOL    MW419546   3.043   6.007   2.067 -0.0460  0.0562 -0.6061
 4944SOL     OW19547   0.382   4.366   5.446  0.4116 -0.3493 -0.2155
 4944SOL    HW219548   0.369   4.402   5.359  0.7364 -0.8627 -0.4813
 4944SOL    HW319549   0.301   4.387   5.493 -0.4348 -1.4655 -1.1290
 4944SOL    MW419550   0.369   4.373   5.441  0.3428 -0.5643 -0.3711
 4945SOL     OW19551   5.195   0.873   5.176  0.5075 -0.1785 -0.0726
 4945SOL    HW219552   5.248   0.858   5.254 -0.4549  1.8225  1.0411
 4945SOL    HW319553   5.234   0.816   5.109  2.6966 -0.3678  1.2681
 4945SOL    MW419554   5.207   0.864   5.177  0.6693  0.0605  0.2512
 4946SOL     OW19555   2.952   4.525   5.658  0.4741  0.6588  0.2477
 4946SOL    HW219556   2.890   4.596   5.674 -2.4683 -1.9065  1.2956
 4946SOL    HW319557   2.962   4.482   5.743  1.5118 -0.6383 -0.4975
 4946SOL    MW419558   2.945   4.528   5.671  0.2228  0.1492  0.2876
 4947SOL     OW19559   5.773   3.648   0.663 -0.3708 -0.0663 -0.1831
 4947SOL    HW219560   5.678   3.652   0.671 -0.3056 -0.0243  0.6349
 4947SOL    HW319561   5.805   3.722   0.713  0.1007 -0.0802 -0.4549
 4947SOL    MW419562   5.765   3.658   0.670 -0.3000 -0.0626 -0.1111
 4948SOL     OW19563   3.448   3.408   3.427  0.4778 -0.2044  0.7954
 4948SOL    HW219564   3.520   3.369   3.377  0.9098 -0.5043  1.6327
 4948SOL    HW319565   3.397   3.332   3.457 -1.7489  0.0191 -1.9488
 4948SOL    MW419566   3.451   3.393   3.424  0.2410 -0.2145  0.5438
 4949SOL     OW19567   4.700   5.432   5.363  0.1898 -0.3530 -0.1090
 4949SOL    HW219568   4.651   5.378   5.302  1.4331  0.1728 -1.6229
 4949SOL    HW319569   4.633   5.476   5.416 -1.0902  1.2526 -2.8689
 4949SOL    MW419570   4.685   5.431   5.362  0.1849 -0.0718 -0.6729
 4950SOL     OW19571   6.109   4.076   4.347  0.9731  0.3299  0.2671
 4950SOL    HW219572   6.017   4.052   4.338  1.1327 -1.1496  1.9910
 4950SOL    HW319573   6.123   4.143   4.280 -1.1720  0.1186 -0.4733
 4950SOL    MW419574   6.099   4.082   4.337  0.7111  0.1068  0.3969
 4951SOL     OW19575   3.160   0.873   4.799 -0.2643 -0.3524 -0.2917
 4951SOL    HW219576   3.247   0.843   4.773 -0.2013  0.7490 -1.4525
 4951SOL    HW319577   3.176   0.944   4.860 -0.3613 -0.4502 -0.1513
 4951SOL    MW419578   3.173   0.878   4.803 -0.2688 -0.2200 -0.4264
 4952SOL     OW19579   3.896   4.488   2.590  0.0614  0.2674 -0.5680
 4952SOL    HW219580   3.822   4.524   2.541 -0.3979 -0.5074 -0.4707
 4952SOL    HW319581   3.894   4.394   2.569 -0.1191 -0.0731  0.8838
 4952SOL    MW419582   3.886   4.480   2.581 -0.0230  0.1202 -0.3636
 4953SOL     OW19583   2.537   4.999   3.796 -0.2118  0.6157 -0.1668
 4953SOL    HW219584   2.605   4.940   3.826 -0.0883  0.8442  0.0089
 4953SOL    HW319585   2.455   4.953   3.815 -0.1245  0.6056  0.1961
 4953SOL    MW419586   2.535   4.985   3.803 -0.1840  0.6445 -0.0957
 4954SOL     OW19587   2.973   1.924   3.256  0.1582 -0.2929  0.2425
 4954SOL    HW219588   2.921   1.933   3.335 -1.6151  3.9514 -1.1240
 4954SOL    HW319589   2.917   1.876   3.195 -0.0241 -0.2677  0.3914
 4954SOL    MW419590   2.959   1.919   3.258 -0.0998  0.2704  0.0818
 4955SOL     OW19591   3.502   6.305   0.190 -0.5933  0.7815 -0.0091
 4955SOL    HW219592   3.451   6.315   0.110 -3.5829  2.1568  1.8553
 4955SOL    HW319593   3.453   6.240   0.241 -0.7731  2.4045  2.0293
 4955SOL    MW419594   3.489   6.297   0.186 -1.0114  1.1771  0.5058
 4956SOL     OW19595   5.788   6.204   5.582 -0.0302 -0.2996 -0.0637
 4956SOL    HW219596   5.778   6.164   5.668 -1.2186 -1.8161 -0.8639
 4956SOL    HW319597   5.756   6.294   5.593  1.0697 -0.0480  1.3572
 4956SOL    MW419598   5.782   6.211   5.595 -0.0419 -0.4665  0.0182
 4957SOL     OW19599   0.295   3.163   4.363  0.2179  0.1016  0.2235
 4957SOL    HW219600   0.203   3.176   4.340  0.4783  0.5791 -0.6015
 4957SOL    HW319601   0.335   3.127   4.283  0.2305 -2.7353  1.3905
 4957SOL    MW419602   0.288   3.160   4.349  0.2539 -0.2097  0.2686
 4958SOL     OW19603   3.909   0.016   2.658 -0.0480 -0.4488 -0.3419
 4958SOL    HW219604   3.967  -0.024   2.723 -0.5199  0.6499  0.7924
 4958SOL    HW319605   3.945   0.104   2.645 -1.3574  0.2083  0.2938
 4958SOL    MW419606   3.922   0.022   2.665 -0.2831 -0.2171 -0.1084
 4959SOL     OW19607   6.289   3.771   4.577 -0.3029  0.0627  0.0500
 4959SOL    HW219608   6.207   3.790   4.623  0.0420 -0.3071  0.8459
 4959SOL    HW319609   6.266   3.703   4.514  0.0168 -2.6516  2.6403
 4959SOL    MW419610   6.275   3.765   4.575 -0.2152 -0.3442  0.4968
 4960SOL     OW19611   1.057   5.746   3.620 -0.1092 -0.3642  0.1956
 4960SOL    HW219612   1.124   5.743   3.552  0.3026 -1.2348  0.6171
 4960SOL    HW319613   0.986   5.692   3.586 -1.1569  1.5405 -0.7862
 4960SOL    MW419614   1.056   5.738   3.607 -0.1931 -0.2278  0.1217
 4961SOL     OW19615   3.954   3.879   3.132  0.1960  0.4275 -0.1271
 4961SOL    HW219616   3.871   3.902   3.091 -0.6116 -1.1561  0.5209
 4961SOL    HW319617   3.944   3.906   3.224  1.3150  2.3308 -0.5112
 4961SOL    MW419618   3.942   3.885   3.139  0.2371  0.4697 -0.0923
 4962SOL     OW19619   2.850   5.649   2.246  0.1975  0.4194  0.2827
 4962SOL    HW219620   2.891   5.629   2.330  0.2046 -0.5266  0.0665
 4962SOL    HW319621   2.833   5.564   2.207  0.3571  0.8558 -0.7590
 4962SOL    MW419622   2.853   5.635   2.252  0.2195  0.3522  0.1168
 4963SOL     OW19623   2.052   5.848   0.309 -0.2347 -0.1641  0.1587
 4963SOL    HW219624   2.082   5.777   0.366  0.6428 -0.3316 -0.4846
 4963SOL    HW319625   2.003   5.804   0.240  0.4165 -0.1534 -0.3087
 4963SOL    MW419626   2.049   5.833   0.308 -0.0330 -0.1848  0.0122
 4964SOL     OW19627   0.107   2.936   3.852  0.2446  1.2037  0.2103
 4964SOL    HW219628   0.192   2.893   3.845  1.4790  3.3455  1.1530
 4964SOL    HW319629   0.084   2.958   3.762  0.0890 -0.4088 -0.1728
 4964SOL    MW419630   0.115   2.933   3.839  0.3869  1.2736  0.2841
 4965SOL     OW19631   3.869   4.420   0.317  0.1014 -0.1468  0.6541
 4965SOL    HW219632   3.801   4.487   0.328  0.2381  0.2475 -0.8007
 4965SOL    HW319633   3.916   4.446   0.238  2.0480 -0.3404  1.6859
 4965SOL    MW419634   3.866   4.432   0.308  0.3763 -0.1203  0.5983
 4966SOL     OW19635   2.299   4.056   4.867 -0.2462  0.4555  0.3320
 4966SOL    HW219636   2.287   4.090   4.779 -0.9284  0.5105  0.4433
 4966SOL    HW319637   2.247   3.975   4.870 -0.2435  0.4621  0.6900
 4966SOL    MW419638   2.291   4.049   4.856 -0.3358  0.4637  0.3939
 4967SOL     OW19639   1.971   1.727   2.564 -0.4928 -0.2638 -0.0223
 4967SOL    HW219640   1.962   1.689   2.477 -0.3238  0.2078 -0.2509
 4967SOL    HW319641   2.035   1.671   2.608  1.2532  0.8548 -1.0153
 4967SOL    MW419642   1.979   1.715   2.558 -0.2401 -0.0540 -0.1835
 4968SOL     OW19643   1.643   4.837   6.356 -0.2432  0.3427 -0.2699
 4968SOL    HW219644   1.553   4.859   6.380  0.0825  0.7845  0.5861
 4968SOL    HW319645   1.694   4.855   6.435  0.2233 -2.4890  0.2142
 4968SOL    MW419646   1.638   4.842   6.370 -0.1386  0.0274 -0.0931
 4969SOL     OW19647   4.316   5.134   4.982 -0.0451  0.3191  0.1546
 4969SOL    HW219648   4.362   5.200   4.930  0.8087 -0.9390 -0.7301
 4969SOL    HW319649   4.375   5.118   5.056 -0.3957  0.7438  0.5364
 4969SOL    MW419650   4.330   5.141   4.985  0.0213  0.2092  0.0883
 4970SOL     OW19651   2.126   3.809   6.235  0.7484  0.0194 -0.3108
 4970SOL    HW219652   2.184   3.807   6.158  1.3597  0.3268  0.1302
 4970SOL    HW319653   2.147   3.729   6.283 -0.3156 -0.6558 -0.9401
 4970SOL    MW419654   2.137   3.799   6.231  0.6887 -0.0292 -0.3357
 4971SOL     OW19655   3.779   5.734   5.274 -0.5664 -0.0847 -0.0950
 4971SOL    HW219656   3.758   5.659   5.331 -2.6670 -0.0932 -0.7975
 4971SOL    HW319657   3.817   5.694   5.196  2.2950 -0.0759  1.1883
 4971SOL    MW419658   3.781   5.718   5.272 -0.4660 -0.0846 -0.0183
 4972SOL     OW19659   3.811   5.711   5.657 -0.2471  0.0362 -0.2070
 4972SOL    HW219660   3.902   5.741   5.654  0.0042 -0.4971  1.3389
 4972SOL    HW319661   3.792   5.700   5.750 -2.5178  1.9569 -0.3282
 4972SOL    MW419662   3.820   5.713   5.669 -0.5136  0.2193 -0.0191
 4973SOL     OW19663   3.913   4.794   2.247  0.1050  0.1551  0.2513
 4973SOL    HW219664   3.929   4.802   2.152 -0.5107 -0.1838  0.1122
 4973SOL    HW319665   3.818   4.788   2.255  0.1315  0.5756  0.9308
 4973SOL    MW419666   3.902   4.794   2.235  0.0273  0.1659  0.3226
 4974SOL     OW19667   5.426   4.671   1.156  0.5250 -0.0078  0.4886
 4974SOL    HW219668   5.373   4.717   1.220  0.1068 -0.1330  0.2328
 4974SOL    HW319669   5.505   4.725   1.147  0.6408 -0.0573  1.1962
 4974SOL    MW419670   5.430   4.684   1.163  0.4851 -0.0309  0.5482
 4975SOL     OW19671   4.842   0.180   2.708 -0.2264  0.2954  0.1454
 4975SOL    HW219672   4.798   0.128   2.775 -0.7161  0.5672  0.0465
 4975SOL    HW319673   4.861   0.264   2.750  0.7826 -0.0474  0.3778
 4975SOL    MW419674   4.838   0.185   2.722 -0.1579  0.2861  0.1631
 4976SOL     OW19675   2.664   4.148   3.587 -0.3218  0.2163 -0.1939
 4976SOL    HW219676   2.710   4.191   3.515 -0.2435 -1.0635 -0.9550
 4976SOL    HW319677   2.571   4.160   3.566 -0.3489 -2.0581 -1.8217
 4976SOL    MW419678   2.658   4.155   3.574 -0.3150 -0.2526 -0.5091
 4977SOL     OW19679   2.912   4.679   3.350  0.1267  0.0845 -0.2296
 4977SOL    HW219680   2.937   4.735   3.277 -0.3143  0.2052 -0.2858
 4977SOL    HW319681   2.817   4.687   3.356  0.0413 -0.7341 -0.3093
 4977SOL    MW419682   2.903   4.687   3.341  0.0572 -0.0076 -0.2475
 4978SOL     OW19683   5.446   4.483   5.228 -0.0523  0.8975  0.2793
 4978SOL    HW219684   5.393   4.413   5.191  0.8815  0.3827 -0.1170
 4978SOL    HW319685   5.424   4.483   5.321 -2.0530  1.8850 -0.1300
 4978SOL    MW419686   5.436   4.474   5.236 -0.1931  0.9599  0.1730
 4979SOL     OW19687   4.469   2.021   5.106  0.0523  0.4462 -0.3335
 4979SOL    HW219688   4.542   2.030   5.166  3.1238 -2.0340 -3.2568
 4979SOL    HW319689   4.406   2.087   5.133  3.6835  3.3227  1.9627
 4979SOL    MW419690   4.470   2.031   5.117  0.9366  0.4985 -0.4162
 4980SOL     OW19691   2.762   2.568   1.326  0.7191 -0.2958 -0.0735
 4980SOL    HW219692   2.714   2.529   1.253 -1.4792 -0.8325  1.5843
 4980SOL    HW319693   2.777   2.659   1.298 -0.1591 -0.4618 -1.1553
 4980SOL    MW419694   2.758   2.575   1.313  0.3132 -0.3885  0.0025
 4981SOL     OW19695   3.088   4.054   1.226 -0.0494 -0.1854  0.0704
 4981SOL    HW219696   3.051   4.124   1.173 -4.6149 -1.8608  0.6242
 4981SOL    HW319697   3.087   3.977   1.169  0.3855 -0.8185  0.8912
 4981SOL    MW419698   3.083   4.053   1.212 -0.5944 -0.4900  0.2518
 4982SOL     OW19699   6.390   2.069   0.541 -0.3395  0.2118  0.1570
 4982SOL    HW219700   6.448   2.122   0.595 -3.3395  2.0233  1.8795
 4982SOL    HW319701   6.409   1.979   0.565  0.7184  0.8329  1.7844
 4982SOL    MW419702   6.400   2.065   0.551 -0.5957  0.5328  0.5990
 4983SOL     OW19703   4.527   4.075   3.732  0.5408 -0.5438  0.8407
 4983SOL    HW219704   4.517   4.048   3.640  1.1907 -1.1369  0.9375
 4983SOL    HW319705   4.499   4.167   3.733 -0.8499 -0.9352  0.3289
 4983SOL    MW419706   4.522   4.084   3.720  0.4430 -0.6737  0.7860
 4984SOL     OW19707   0.194   1.775   4.566 -0.7914 -0.0174 -0.0670
 4984SOL    HW219708   0.262   1.825   4.612 -0.1220  0.1933 -1.2399
 4984SOL    HW319709   0.239   1.696   4.538 -1.6182 -0.8888  1.0080
 4984SOL    MW419710   0.209   1.772   4.569 -0.8121 -0.1045 -0.0799
 4985SOL     OW19711   0.319   4.296   0.475 -0.3653 -0.0839 -0.7866
 4985SOL    HW219712   0.295   4.311   0.383  1.0009 -1.7591 -1.4491
 4985SOL    HW319713   0.260   4.226   0.504 -0.7994  0.4474 -0.3548
 4985SOL    MW419714   0.308   4.289   0.467 -0.2423 -0.2348 -0.8171
 4986SOL     OW19715   4.832   0.652   4.892 -0.1735 -0.6683  0.1288
 4986SOL    HW219716   4.789   0.577   4.850 -0.2920 -0.6834  0.2791
 4986SOL    HW319717   4.853   0.622   4.980 -0.7635 -0.3237  0.3917
 4986SOL    MW419718   4.829   0.638   4.898 -0.2670 -0.6248  0.1833
 4987SOL     OW19719   1.854   4.770   6.023 -0.1063  0.3648 -0.1363
 4987SOL    HW219720   1.793   4.740   6.090  0.3479  0.7019  0.4337
 4987SOL    HW319721   1.838   4.864   6.016 -0.8772  0.1684 -1.2532
 4987SOL    MW419722   1.844   4.779   6.031 -0.1481  0.3833 -0.2085
 4988SOL     OW19723   3.510   4.806   4.498  0.4411 -0.5952  0.1956
 4988SOL    HW219724   3.570   4.733   4.486 -1.5207 -2.4568  1.1224
 4988SOL    HW319725   3.495   4.811   4.592 -0.2725  0.3323  0.0579
 4988SOL    MW419726   3.516   4.797   4.509  0.0881 -0.7185  0.2997
 4989SOL     OW19727   3.062   5.938   5.229  0.0746 -0.4020  0.1228
 4989SOL    HW219728   3.157   5.945   5.244  0.3063 -1.9044 -0.4914
 4989SOL    HW319729   3.036   5.858   5.274 -0.6566 -0.7097 -0.8094
 4989SOL    MW419730   3.071   5.929   5.237  0.0087 -0.6408 -0.0812
 4990SOL     OW19731   5.561   3.311   4.577 -0.2132 -0.0131  0.1936
 4990SOL    HW219732   5.522   3.241   4.524  0.4396  0.8798 -1.5666
 4990SOL    HW319733   5.645   3.276   4.607 -0.2615 -0.2812  0.0119
 4990SOL    MW419734   5.567   3.297   4.574 -0.1334  0.0694 -0.0626
 4991SOL     OW19735   5.971   2.926   2.680  0.7278 -0.1797  0.0226
 4991SOL    HW219736   6.055   2.965   2.705  0.0894  0.0378  2.0155
 4991SOL    HW319737   5.982   2.833   2.696  0.5648 -0.1407  0.3631
 4991SOL    MW419738   5.983   2.919   2.685  0.6221 -0.1458  0.3305
 4992SOL     OW19739   3.355   0.027   4.515 -0.2467 -0.2175 -0.2914
 4992SOL    HW219740   3.375  -0.063   4.540  1.7335  0.2670  0.0556
 4992SOL    HW319741   3.360   0.027   4.419  0.1492 -0.4213 -0.2757
 4992SOL    MW419742   3.359   0.015   4.506  0.0668 -0.1805 -0.2436
 4993SOL     OW19743   5.678   1.123   2.563  0.0448 -0.2049  0.2001
 4993SOL    HW219744   5.651   1.064   2.492 -2.2791  0.5460  0.3659
 4993SOL    HW319745   5.687   1.066   2.640 -2.6321 -0.4080  0.4705
 4993SOL    MW419746   5.675   1.108   2.564 -0.6150 -0.1326  0.2577
 4994SOL     OW19747   5.195   5.631   0.533 -0.4748 -0.5801 -0.3748
 4994SOL    HW219748   5.183   5.536   0.545 -1.1306 -0.5015 -0.3710
 4994SOL    HW319749   5.201   5.642   0.438 -1.2334 -0.5384 -0.4249
 4994SOL    MW419750   5.195   5.620   0.522 -0.6614 -0.5642 -0.3809
 4995SOL     OW19751   5.196   0.376   2.527 -0.1978  0.1750  0.1927
 4995SOL    HW219752   5.147   0.294   2.532 -1.2007  0.6529 -1.2169
 4995SOL    HW319753   5.286   0.351   2.551 -0.3821 -1.4379 -0.6426
 4995SOL    MW419754   5.201   0.362   2.531 -0.3544  0.0253 -0.1035
 4996SOL     OW19755   3.211   4.739   1.347 -0.0232  0.3167  0.4014
 4996SOL    HW219756   3.192   4.651   1.313  1.6250 -0.4477  1.3245
 4996SOL    HW319757   3.149   4.750   1.418 -0.9505  0.3597 -0.3894
 4996SOL    MW419758   3.200   4.729   1.352  0.0719  0.2216  0.4189
 4997SOL     OW19759   0.534   5.373   2.180 -0.5848 -0.8381  0.1751
 4997SOL    HW219760   0.575   5.449   2.222  3.4668 -3.2769  1.1122
 4997SOL    HW319761   0.537   5.393   2.087 -0.8445  0.6499  0.4526
 4997SOL    MW419762   0.540   5.386   2.173 -0.0845 -0.9635  0.3354
 4998SOL     OW19763   1.814   5.227   5.236 -0.1463 -0.3762 -0.5855
 4998SOL    HW219764   1.817   5.312   5.281 -0.6105  0.5564 -2.2139
 4998SOL    HW319765   1.904   5.209   5.212 -0.3601  1.5435 -3.4135
 4998SOL    MW419766   1.826   5.236   5.239 -0.2358  0.0001 -1.1735
 4999SOL     OW19767   5.237   4.162   2.082  0.4697 -0.0965 -0.2534
 4999SOL    HW219768   5.150   4.132   2.057 -0.0524  0.8714  0.3110
 4999SOL    HW319769   5.252   4.124   2.168  0.4692 -0.0267 -0.2217
 4999SOL    MW419770   5.227   4.153   2.090  0.4008  0.0404 -0.1748
 5000SOL     OW19771   1.962   1.171   0.985 -0.0831  0.2586 -0.0695
 5000SOL    HW219772   1.890   1.230   0.961  0.0003 -0.0478 -1.1143
 5000SOL    HW319773   1.921   1.085   0.988  0.1790  0.1203 -0.3964
 5000SOL    MW419774   1.947   1.167   0.982 -0.0375  0.1999 -0.2504
 5001SOL     OW19775   1.059   6.409   3.119  0.1035 -0.0279  0.3698
 5001SOL    HW219776   0.995   6.467   3.079  1.2885 -0.4862 -2.4275
 5001SOL    HW319777   1.007   6.343   3.165 -1.3662  0.3147 -0.7500
 5001SOL    MW419778   1.044   6.408   3.120  0.0659 -0.0432 -0.1470
 5002SOL     OW19779   6.191   6.203   3.920 -0.4140 -0.0366 -0.4673
 5002SOL    HW219780   6.237   6.163   3.846 -0.7751 -0.6374 -0.3677
 5002SOL    HW319781   6.098   6.185   3.904 -0.4647 -0.5786  0.3699
 5002SOL    MW419782   6.185   6.196   3.908 -0.4683 -0.1874 -0.3437
 5003SOL     OW19783   1.976   5.029   6.412 -0.0989  0.1264 -0.0932
 5003SOL    HW219784   1.988   5.015   6.317  0.4966  0.7492 -0.1143
 5003SOL    HW319785   2.027   5.107   6.431 -0.2668  0.0355  0.7396
 5003SOL    MW419786   1.984   5.037   6.402 -0.0425  0.1966  0.0139
 5004SOL     OW19787   4.422   5.931   2.821 -0.7445 -0.8407  0.4062
 5004SOL    HW219788   4.374   5.851   2.840 -0.5246 -1.3505 -1.0174
 5004SOL    HW319789   4.513   5.911   2.843 -0.6344 -1.1160 -0.2754
 5004SOL    MW419790   4.428   5.918   2.826 -0.7009 -0.9443  0.1285
 5005SOL     OW19791   1.376   2.672   5.066  0.3144 -0.0290 -0.1644
 5005SOL    HW219792   1.388   2.721   5.147 -0.2173  0.7372 -0.5411
 5005SOL    HW319793   1.446   2.702   5.008  1.2742 -1.2599  0.3123
 5005SOL    MW419794   1.387   2.682   5.069  0.3709 -0.0903 -0.1512
 5006SOL     OW19795   5.962   3.857   1.022  0.8400 -0.4045 -0.0472
 5006SOL    HW219796   5.881   3.814   0.995  0.4124 -0.6092  1.4824
 5006SOL    HW319797   5.946   3.950   1.006  0.4478 -0.4815 -0.1124
 5006SOL    MW419798   5.949   3.864   1.016  0.7319 -0.4416  0.1460
 5007SOL     OW19799   5.329   2.013   5.257  0.1328 -0.8326 -0.2204
 5007SOL    HW219800   5.242   2.053   5.253  0.1472 -0.7805 -0.0049
 5007SOL    HW319801   5.329   1.950   5.185  0.7848  0.8769 -1.7846
 5007SOL    MW419802   5.317   2.010   5.247  0.2207 -0.6002 -0.3983
 5008SOL     OW19803   3.490   3.430   2.540 -0.4804  0.3637 -0.3305
 5008SOL    HW219804   3.510   3.446   2.448 -0.3273  0.8741 -0.2125
 5008SOL    HW319805   3.414   3.372   2.539  0.2571 -0.6302 -0.7848
 5008SOL    MW419806   3.483   3.425   2.528 -0.3629  0.2999 -0.3749
 5009SOL     OW19807   6.328   2.226   2.763 -0.3687  0.8220 -0.2217
 5009SOL    HW219808   6.276   2.268   2.831 -0.1021  1.9327 -0.6884
 5009SOL    HW319809   6.265   2.202   2.695 -0.1621  3.5852 -1.5134
 5009SOL    MW419810   6.313   2.228   2.763 -0.3062  1.3331 -0.4537
 5010SOL     OW19811   0.540   3.917   2.147 -0.0027 -0.0532  0.1951
 5010SOL    HW219812   0.493   3.887   2.225 -0.2323  0.0122  0.0831
 5010SOL    HW319813   0.484   3.986   2.110  0.6759  0.7609  0.6428
 5010SOL    MW419814   0.527   3.922   2.152  0.0565  0.0628  0.2394
 5011SOL     OW19815   1.242   5.851   4.981 -0.1326 -0.6273  0.1205
 5011SOL    HW219816   1.332   5.824   4.967 -0.3790 -2.0948  1.1602
 5011SOL    HW319817   1.248   5.931   5.032  0.5789 -0.9893  0.6093
 5011SOL    MW419818   1.255   5.858   4.986 -0.0713 -0.8687  0.3222
 5012SOL     OW19819   0.118   0.345   2.205 -0.6520  0.1305 -0.0127
 5012SOL    HW219820   0.041   0.327   2.150 -1.5234 -0.1097  1.2397
 5012SOL    HW319821   0.108   0.436   2.231 -0.8701 -0.0742  0.6560
 5012SOL    MW419822   0.106   0.355   2.201 -0.7957  0.0718  0.2408
 5013SOL     OW19823   2.595   0.539   0.836 -0.3444  0.0271 -0.2335
 5013SOL    HW219824   2.616   0.623   0.796 -2.1487  0.2413 -0.8112
 5013SOL    HW319825   2.638   0.541   0.921  3.2407 -0.2532 -1.8396
 5013SOL    MW419826   2.603   0.550   0.842 -0.1095  0.0184 -0.5217
 5014SOL     OW19827   5.107   0.149   5.249  0.0302 -0.2721 -0.3368
 5014SOL    HW219828   5.107   0.063   5.208  0.0946 -0.5961  0.3380
 5014SOL    HW319829   5.136   0.209   5.179  1.2354 -0.9584 -0.4424
 5014SOL    MW419830   5.111   0.146   5.234  0.1977 -0.4054 -0.2617
 5015SOL     OW19831   3.825   5.257   3.736 -0.3666  0.3391  0.2965
 5015SOL    HW219832   3.804   5.273   3.644  0.2467 -0.3908  0.0204
 5015SOL    HW319833   3.797   5.336   3.781 -0.4556  0.8028 -0.5545
 5015SOL    MW419834   3.818   5.269   3.730 -0.2974  0.3040  0.1478
 5016SOL     OW19835   1.387   0.913   4.591  0.8274 -0.0722 -0.0255
 5016SOL    HW219836   1.440   0.912   4.671  0.2268 -1.4173  0.3834
 5016SOL    HW319837   1.348   1.000   4.589  1.5546  0.2820  0.6676
 5016SOL    MW419838   1.389   0.924   4.601  0.8441 -0.2029  0.1199
 5017SOL     OW19839   6.397   2.299   2.013 -0.5442 -0.3118  0.4450
 5017SOL    HW219840   6.478   2.312   2.062  1.7413 -0.2366 -2.9646
 5017SOL    HW319841   6.372   2.387   1.983 -2.2811 -0.2574  1.8734
 5017SOL    MW419842   6.404   2.313   2.015 -0.4718 -0.2947  0.1836
 5018SOL     OW19843   1.056   1.021   0.815 -0.0849  0.4688  0.0497
 5018SOL    HW219844   1.043   0.930   0.841  0.4264  0.0235 -1.1612
 5018SOL    HW319845   0.986   1.038   0.752  1.6075 -0.1374 -2.1486
 5018SOL    MW419846   1.045   1.011   0.810  0.2058  0.3301 -0.4001
 5019SOL     OW19847   2.894   3.575   0.016 -0.6367  0.0200  0.8945
 5019SOL    HW219848   2.820   3.554  -0.042 -1.0047  1.6831  0.7167
 5019SOL    HW319849   2.894   3.671   0.021  1.6882  0.0914  0.6782
 5019SOL    MW419850   2.884   3.585   0.009 -0.3785  0.2489  0.8425
 5020SOL     OW19851   3.700   4.604   3.435  0.7412  0.3410 -0.0901
 5020SOL    HW219852   3.685   4.695   3.460 -2.1004 -0.1080  0.1088
 5020SOL    HW319853   3.725   4.608   3.343  0.7418  1.3236 -0.0526
 5020SOL    MW419854   3.702   4.616   3.426  0.3664  0.4114 -0.0589
 5021SOL     OW19855   2.095   3.189   4.938 -0.1616 -0.4448 -0.0241
 5021SOL    HW219856   2.026   3.147   4.887 -0.6473  0.3225 -0.0130
 5021SOL    HW319857   2.148   3.236   4.873  0.6170 -1.3714 -0.0856
 5021SOL    MW419858   2.093   3.190   4.923 -0.1230 -0.4658 -0.0308
 5022SOL     OW19859   4.181   2.224   1.641 -0.4620  0.3872 -0.4106
 5022SOL    HW219860   4.113   2.292   1.646  0.8266  1.7073  0.1376
 5022SOL    HW319861   4.263   2.272   1.655  0.5911 -1.1526 -1.0730
 5022SOL    MW419862   4.183   2.240   1.644 -0.1531  0.3582 -0.4257
 5023SOL     OW19863   0.763   1.107   5.291  0.0905  0.1676 -0.2050
 5023SOL    HW219864   0.822   1.054   5.345  0.1961  0.4270 -0.0634
 5023SOL    HW319865   0.679   1.104   5.338 -0.0821 -0.4189 -0.5446
 5023SOL    MW419866   0.759   1.100   5.305  0.0816  0.1244 -0.2312
 5024SOL     OW19867   3.205   1.926   2.271  0.1756 -0.1198 -0.0519
 5024SOL    HW219868   3.279   1.892   2.320  0.1882  0.8456  0.6181
 5024SOL    HW319869   3.155   1.977   2.334 -0.8127 -0.3793 -0.6046
 5024SOL    MW419870   3.208   1.929   2.286  0.0469 -0.0266 -0.0364
 5025SOL     OW19871   1.891   5.488   4.905  0.3021  0.2750  0.3981
 5025SOL    HW219872   1.915   5.396   4.915  0.2864  0.0754 -1.1010
 5025SOL    HW319873   1.801   5.492   4.937  0.6956  0.0319  1.5816
 5025SOL    MW419874   1.882   5.476   4.910  0.3520  0.2166  0.3565
 5026SOL     OW19875   4.259   4.677   3.175  0.3505  0.3850  1.0665
 5026SOL    HW219876   4.214   4.706   3.254  0.3553  1.1921  0.7808
 5026SOL    HW319877   4.312   4.753   3.149  0.1248  0.2217  0.1269
 5026SOL    MW419878   4.260   4.691   3.182  0.3214  0.4699  0.9048
 5027SOL     OW19879   0.438   0.483   3.762 -0.6484  0.2435  0.3132
 5027SOL    HW219880   0.365   0.542   3.776 -1.9121 -0.9806 -0.8853
 5027SOL    HW319881   0.453   0.444   3.848 -3.3434 -1.5908  0.0831
 5027SOL    MW419882   0.431   0.486   3.775 -1.1707 -0.1600  0.1247
 5028SOL     OW19883   3.431   1.056   5.413 -0.2530 -0.1049  0.3949
 5028SOL    HW219884   3.458   1.144   5.438 -1.9356  0.9754 -1.2660
 5028SOL    HW319885   3.434   1.006   5.494  2.8893  0.8289  0.9903
 5028SOL    MW419886   3.435   1.061   5.427 -0.0604  0.1608  0.2543
 5029SOL     OW19887   0.150   5.782   5.653  0.1903 -0.3890  0.1997
 5029SOL    HW219888   0.228   5.809   5.702  0.9918 -0.7589 -0.8369
 5029SOL    HW319889   0.110   5.714   5.707  0.0563  0.4360  1.1802
 5029SOL    MW419890   0.155   5.776   5.667  0.2784 -0.3289  0.1923
 5030SOL     OW19891   1.902   1.205   5.376 -0.3090  0.6227 -0.3450
 5030SOL    HW219892   1.827   1.147   5.360  0.0755  0.2542 -0.8619
 5030SOL    HW319893   1.888   1.280   5.318 -0.4750  0.7385 -0.1548
 5030SOL    MW419894   1.890   1.207   5.366 -0.2802  0.5893 -0.3881
 5031SOL     OW19895   3.357   2.871   4.976  0.3807 -0.3722  0.1005
 5031SOL    HW219896   3.371   2.954   4.930  0.5605  0.2018  1.1604
 5031SOL    HW319897   3.429   2.814   4.946  1.5262  0.5671  0.9471
 5031SOL    MW419898   3.369   2.874   4.966  0.5555 -0.1725  0.3521
 5032SOL     OW19899   2.751   4.740   0.363  0.4329 -0.0488  0.0905
 5032SOL    HW219900   2.793   4.825   0.350  0.8721 -0.5375 -2.2712
 5032SOL    HW319901   2.742   4.731   0.458 -2.0277  3.7772  0.4683
 5032SOL    MW419902   2.755   4.750   0.374  0.1662  0.3915 -0.1713
 5033SOL     OW19903   6.082   1.135   1.677 -0.7682 -0.4955  0.5701
 5033SOL    HW219904   6.025   1.146   1.601 -0.0049 -0.4315 -0.0093
 5033SOL    HW319905   6.025   1.148   1.752 -1.5262 -0.4950  0.0069
 5033SOL    MW419906   6.067   1.138   1.677 -0.7675 -0.4870  0.4194
 5034SOL     OW19907   5.763   3.804   2.391 -0.0421  0.0817 -0.3283
 5034SOL    HW219908   5.800   3.755   2.318  0.3783  1.2998 -0.9592
 5034SOL    HW319909   5.684   3.756   2.415 -0.2874 -0.2309 -1.7079
 5034SOL    MW419910   5.758   3.791   2.385 -0.0190  0.2012 -0.5935
 5035SOL     OW19911   0.714   1.549   3.025 -0.1982 -0.2548  0.1643
 5035SOL    HW219912   0.642   1.488   3.008  0.6651 -1.5694  1.0828
 5035SOL    HW319913   0.776   1.500   3.078  0.6567  1.3553  0.7377
 5035SOL    MW419914   0.712   1.535   3.029  0.0285 -0.2158  0.3611
 5036SOL     OW19915   0.357   3.431   1.527 -0.8121 -0.5709  0.2938
 5036SOL    HW219916   0.311   3.513   1.508  0.5692 -0.0709 -1.1016
 5036SOL    HW319917   0.294   3.379   1.576 -1.9146  1.1113  0.7456
 5036SOL    MW419918   0.343   3.435   1.531 -0.7754 -0.2830  0.1693
 5037SOL     OW19919   0.452   5.083   0.413  0.3306 -0.6905  0.4089
 5037SOL    HW219920   0.390   5.077   0.486  0.0611  0.0461  0.2490
 5037SOL    HW319921   0.397   5.100   0.336  0.6601 -0.8974  0.1248
 5037SOL    MW419922   0.437   5.084   0.412  0.3385 -0.6206  0.3503
 5038SOL     OW19923   1.718   1.954   0.530 -0.3944 -0.0964 -0.0320
 5038SOL    HW219924   1.769   1.880   0.496 -2.7664 -2.2860  0.8521
 5038SOL    HW319925   1.780   2.003   0.585  1.4056 -1.0406 -1.1336
 5038SOL    MW419926   1.733   1.951   0.533 -0.4699 -0.5099 -0.0607
 5039SOL     OW19927   3.004   2.794   1.770  0.1840 -0.3228  0.3104
 5039SOL    HW219928   2.974   2.741   1.697 -1.0437  1.9182 -0.9180
 5039SOL    HW319929   3.096   2.812   1.751  0.5295 -1.6648  0.5863
 5039SOL    MW419930   3.012   2.789   1.758  0.0676 -0.2042  0.1847
 5040SOL     OW19931   5.736   2.006   1.890 -0.1365  0.0509 -0.6690
 5040SOL    HW219932   5.782   2.052   1.820  0.5957  1.3151  0.5993
 5040SOL    HW319933   5.804   1.989   1.955 -0.7326 -1.4461 -0.4193
 5040SOL    MW419934   5.751   2.010   1.889 -0.1186  0.0202 -0.4687
 5041SOL     OW19935   2.330   1.270   1.027 -0.0156 -0.2210  0.7462
 5041SOL    HW219936   2.264   1.266   1.095 -0.7298 -0.3108  0.0623
 5041SOL    HW319937   2.286   1.239   0.948  0.0389  2.1761 -0.3213
 5041SOL    MW419938   2.316   1.266   1.025 -0.1026  0.0834  0.5151
 5042SOL     OW19939   5.765   0.369   2.927  0.4517 -0.0844 -0.7595
 5042SOL    HW219940   5.671   0.367   2.910  0.6185  0.9321 -2.0054
 5042SOL    HW319941   5.804   0.373   2.840  1.7453 -2.3006 -0.3461
 5042SOL    MW419942   5.758   0.369   2.913  0.6444 -0.2427 -0.8694
 5043SOL     OW19943   3.077   0.648   3.211  0.5330  0.6710 -0.5546
 5043SOL    HW219944   3.021   0.627   3.136  0.4428 -1.3380  0.0012
 5043SOL    HW319945   3.076   0.568   3.264  2.4976  1.2115  0.3851
 5043SOL    MW419946   3.069   0.634   3.208  0.7803  0.4773 -0.3573
 5044SOL     OW19947   0.086   2.038   2.893 -0.3725 -0.0406  0.5364
 5044SOL    HW219948   0.095   1.970   2.827  0.2469 -0.2944  0.8681
 5044SOL    HW319949   0.020   2.098   2.858 -1.5644 -1.2563  0.6336
 5044SOL    MW419950   0.079   2.037   2.879 -0.4480 -0.2345  0.5930
 5045SOL     OW19951   4.676   5.672   4.769  0.2626  0.3776 -0.1578
 5045SOL    HW219952   4.771   5.673   4.756  0.0622  3.0482 -2.0945
 5045SOL    HW319953   4.665   5.688   4.863  1.6785 -1.1703  0.3303
 5045SOL    MW419954   4.687   5.674   4.780  0.4230  0.5257 -0.3490
 5046SOL     OW19955   3.728   5.606   1.794  0.0401 -0.5465  0.2299
 5046SOL    HW219956   3.672   5.615   1.871 -3.6158 -2.1432 -1.9626
 5046SOL    HW319957   3.716   5.687   1.746 -1.6008 -1.4085 -0.8900
 5046SOL    MW419958   3.719   5.617   1.798 -0.6587 -0.8709 -0.2071
 5047SOL     OW19959   5.456   2.481   3.237 -0.8857 -0.4718  0.1196
 5047SOL    HW219960   5.444   2.573   3.262  1.6993 -0.0212  0.0465
 5047SOL    HW319961   5.520   2.448   3.300  0.5574 -1.2930 -1.6893
 5047SOL    MW419962   5.463   2.489   3.249 -0.3543 -0.5207 -0.1287
 5048SOL     OW19963   5.909   1.912   2.088  0.3533  0.2750  0.2836
 5048SOL    HW219964   5.887   1.954   2.171  0.5794 -0.6325  0.8214
 5048SOL    HW319965   6.002   1.929   2.076 -0.1261  2.3350 -0.9452
 5048SOL    MW419966   5.918   1.919   2.098  0.3199  0.4270  0.1924
 5049SOL     OW19967   2.395   3.137   3.163  0.9494  0.2265  0.7021
 5049SOL    HW219968   2.319   3.135   3.104  1.1643 -1.6626  0.4041
 5049SOL    HW319969   2.397   3.050   3.202  2.3187  0.6069  1.5594
 5049SOL    MW419970   2.385   3.125   3.160  1.1584  0.0275  0.7759
 5050SOL     OW19971   6.264   3.061   2.474  0.3943 -0.3330  0.2769
 5050SOL    HW219972   6.242   3.051   2.567 -0.6593 -1.7394 -0.0927
 5050SOL    HW319973   6.298   3.150   2.467 -1.1255  0.4039  1.7026
 5050SOL    MW419974   6.266   3.071   2.486  0.0548 -0.4213  0.4162
 5051SOL     OW19975   1.179   5.251   4.486  0.0608  0.0793 -0.1594
 5051SOL    HW219976   1.231   5.284   4.559 -0.4412  0.5015  0.0152
 5051SOL    HW319977   1.144   5.330   4.445 -1.7136 -0.2391  0.6632
 5051SOL    MW419978   1.182   5.266   4.490 -0.2396  0.0930 -0.0278
 5052SOL     OW19979   5.063   5.985   0.084 -0.3513 -0.4696 -0.2055
 5052SOL    HW219980   5.025   5.979  -0.004 -1.8359  0.1585  0.3581
 5052SOL    HW319981   4.995   5.950   0.141  0.2935 -0.1475  0.7713
 5052SOL    MW419982   5.049   5.980   0.080 -0.4621 -0.3442 -0.0023
 5053SOL     OW19983   4.930   5.216   0.502 -0.5668 -0.2382 -0.2191
 5053SOL    HW219984   4.944   5.132   0.546  1.2342  0.0836 -0.1309
 5053SOL    HW319985   4.862   5.259   0.555  0.8907 -0.2467  1.7748
 5053SOL    MW419986   4.923   5.211   0.515 -0.1369 -0.1968  0.0556
 5054SOL     OW19987   3.228   2.082   0.603  0.1806  0.0214 -1.0066
 5054SOL    HW219988   3.281   2.010   0.570 -0.1887 -0.5339 -0.4129
 5054SOL    HW319989   3.142   2.068   0.564 -0.8629 -1.8156  1.6390
 5054SOL    MW419990   3.223   2.071   0.594 -0.0058 -0.2943 -0.5792
 5055SOL     OW19991   2.474   0.876   1.225  0.2536  0.1292  0.2611
 5055SOL    HW219992   2.470   0.781   1.238  1.3021  0.1786  1.0054
 5055SOL    HW319993   2.537   0.907   1.290  0.1831  1.2986 -0.2043
 5055SOL    MW419994   2.482   0.868   1.235  0.3826  0.2900  0.2979
 5056SOL     OW19995   6.255   1.414   6.229 -0.1120  0.4141 -0.9651
 5056SOL    HW219996   6.275   1.459   6.311  0.2563 -0.4667 -0.5525
 5056SOL    HW319997   6.321   1.345   6.222  0.0910  0.7060 -2.2017
 5056SOL    MW419998   6.266   1.411   6.239 -0.0366  0.3364 -1.0738
 5057SOL     OW19999   4.011   2.382   5.154  0.3848 -0.2535 -0.3558
 5057SOL    HW220000   3.966   2.411   5.234  1.0455 -0.3426  0.0531
 5057SOL    HW320001   3.941   2.373   5.090 -0.1143  0.1444  0.1189
 5057SOL    MW420002   3.996   2.385   5.156  0.4061 -0.2127 -0.2392
 5058SOL     OW20003   6.206   3.313   4.150 -0.1383 -0.1992  0.0879
 5058SOL    HW220004   6.172   3.402   4.154  0.2706 -0.0170 -0.4054
 5058SOL    HW320005   6.279   3.312   4.212  1.1324  0.3859 -1.3383
 5058SOL    MW420006   6.211   3.324   4.159  0.0833 -0.0979 -0.1653
 5059SOL     OW20007   6.299   1.135   0.516  0.2131  0.1602 -0.3969
 5059SOL    HW220008   6.290   1.221   0.474  2.2061  0.5803 -0.0773
 5059SOL    HW320009   6.223   1.130   0.575  0.3437  1.9684 -0.0063
 5059SOL    MW420010   6.288   1.146   0.519  0.4933  0.4542 -0.3032
 5060SOL     OW20011   2.931   1.558   2.513 -0.1633 -0.1891 -0.3268
 5060SOL    HW220012   2.956   1.642   2.552 -2.8665  0.2100  0.7984
 5060SOL    HW320013   2.868   1.521   2.575 -0.3923 -2.2132 -1.6789
 5060SOL    MW420014   2.926   1.564   2.526 -0.5502 -0.4035 -0.3567
 5061SOL     OW20015   0.412   4.511   2.383 -0.1777  0.2088  0.0305
 5061SOL    HW220016   0.408   4.430   2.333  0.6059  0.3439 -0.2648
 5061SOL    HW320017   0.419   4.483   2.474  1.4426 -0.0891 -0.1604
 5061SOL    MW420018   0.412   4.497   2.388  0.1394  0.1873 -0.0336
 5062SOL     OW20019   0.636   2.725   3.890 -0.3806  0.3949  0.6703
 5062SOL    HW220020   0.580   2.650   3.910  0.3851  0.0349  1.5121
 5062SOL    HW320021   0.662   2.712   3.799  0.0531 -0.5787  0.9149
 5062SOL    MW420022   0.632   2.714   3.881 -0.2223  0.2189  0.8136
 5063SOL     OW20023   3.329   6.062   3.260  0.1086 -0.0735  0.1092
 5063SOL    HW220024   3.284   6.065   3.344 -0.6777  1.0653 -0.3293
 5063SOL    HW320025   3.265   6.097   3.197  0.5270 -1.2696 -1.0371
 5063SOL    MW420026   3.314   6.067   3.263  0.0601 -0.0810 -0.0999
 5064SOL     OW20027   1.902   1.148   5.061 -0.1564  0.0233 -0.2885
 5064SOL    HW220028   1.884   1.059   5.090  1.4597 -0.4516 -0.6645
 5064SOL    HW320029   1.987   1.169   5.099  0.2883  0.7435 -1.6160
 5064SOL    MW420030   1.911   1.139   5.069  0.1155  0.0557 -0.5133
 5065SOL     OW20031   2.847   4.326   6.258 -0.3766 -0.2085  0.3040
 5065SOL    HW220032   2.754   4.312   6.238 -0.0407 -0.5683 -1.0864
 5065SOL    HW320033   2.894   4.289   6.183  0.8518  0.8876  0.4936
 5065SOL    MW420034   2.841   4.319   6.245 -0.1702 -0.1113  0.1456
 5066SOL     OW20035   4.171   3.887   2.418 -0.0744 -0.0089 -0.0799
 5066SOL    HW220036   4.096   3.858   2.366  0.4876  1.1646 -1.6433
 5066SOL    HW320037   4.134   3.913   2.502 -1.4689  0.7960 -0.9097
 5066SOL    MW420038   4.156   3.887   2.422 -0.1842  0.2521 -0.3956
 5067SOL     OW20039   4.362   0.859   6.061  0.1590 -0.0044 -0.8138
 5067SOL    HW220040   4.289   0.838   6.119 -1.0526  1.6036 -1.6559
 5067SOL    HW320041   4.335   0.826   5.975  0.5831  0.2957 -1.0672
 5067SOL    MW420042   4.349   0.852   6.057  0.0551  0.2474 -0.9583
 5068SOL     OW20043   3.829   2.805   2.240  0.1671 -0.1916  0.0190
 5068SOL    HW220044   3.860   2.861   2.311  1.6588 -1.4858  0.4525
 5068SOL    HW320045   3.734   2.815   2.241  0.3968  2.8317 -0.4179
 5068SOL    MW420046   3.820   2.814   2.250  0.3942  0.0365  0.0185
 5069SOL     OW20047   5.627   5.493   4.101 -0.1021 -0.1096  0.4271
 5069SOL    HW220048   5.580   5.410   4.111  0.8116 -0.6121  0.6412
 5069SOL    HW320049   5.697   5.489   4.166  0.2926  0.5855  0.0601
 5069SOL    MW420050   5.630   5.481   4.111  0.0705 -0.0842  0.4069
 5070SOL     OW20051   3.736   1.918   3.192 -0.3827 -0.1646 -0.3827
 5070SOL    HW220052   3.643   1.936   3.206 -0.0342  2.0152 -0.5599
 5070SOL    HW320053   3.743   1.823   3.201 -2.1656 -0.1615  2.2067
 5070SOL    MW420054   3.724   1.908   3.195 -0.5720  0.1234 -0.0645
 5071SOL     OW20055   4.327   0.462   2.054 -0.2156  0.3262 -0.3735
 5071SOL    HW220056   4.271   0.399   2.099  0.8043 -0.0656  0.3903
 5071SOL    HW320057   4.348   0.421   1.970  0.0970 -0.1617 -0.0566
 5071SOL    MW420058   4.322   0.449   2.049 -0.0398  0.2101 -0.2309
 5072SOL     OW20059   3.824   2.347   0.528  0.3786 -0.1071  0.3054
 5072SOL    HW220060   3.778   2.386   0.602  0.4013  0.3232  0.0920
 5072SOL    HW320061   3.854   2.262   0.561  0.7881  0.2759  0.9333
 5072SOL    MW420062   3.822   2.341   0.542  0.4356  0.0002  0.3601
 5073SOL     OW20063   0.488   4.152   5.160  0.1542 -0.0208 -0.8589
 5073SOL    HW220064   0.406   4.103   5.161  0.4593 -0.5465 -1.0282
 5073SOL    HW320065   0.485   4.206   5.239 -1.3485  1.6666 -1.9866
 5073SOL    MW420066   0.477   4.153   5.170 -0.0038  0.1325 -1.0300
 5074SOL     OW20067   1.767   2.749   4.741 -0.4539  0.2368 -0.6594
 5074SOL    HW220068   1.722   2.668   4.761  0.6135 -0.6647 -1.7494
 5074SOL    HW320069   1.764   2.800   4.822 -0.8049 -1.0504  0.1565
 5074SOL    MW420070   1.761   2.745   4.754 -0.3594 -0.0520 -0.6956
 5075SOL     OW20071   5.141   2.056   3.892  0.6617 -0.7901  0.6119
 5075SOL    HW220072   5.172   2.003   3.819 -0.8953 -0.0843 -0.6286
 5075SOL    HW320073   5.047   2.040   3.895  0.6823 -0.8063  2.4960
 5075SOL    MW420074   5.133   2.047   3.883  0.4590 -0.6991  0.6968
 5076SOL     OW20075   4.262   4.020   2.038 -0.0244 -0.3682  0.0364
 5076SOL    HW220076   4.321   4.074   2.090 -0.7539  0.9447 -0.4593
 5076SOL    HW320077   4.174   4.046   2.067 -0.4043 -0.6018 -0.8813
 5076SOL    MW420078   4.258   4.030   2.049 -0.1708 -0.2258 -0.1501
 5077SOL     OW20079   5.045   6.231   5.381 -0.2828  0.4665  0.1667
 5077SOL    HW220080   4.983   6.303   5.392  0.0161  0.7604 -0.0711
 5077SOL    HW320081   5.069   6.206   5.470 -0.2599  0.7702  0.2456
 5077SOL    MW420082   5.040   6.237   5.394 -0.2403  0.5454  0.1458
 5078SOL     OW20083   3.308   2.243   0.841  0.1610 -0.7831 -0.0086
 5078SOL    HW220084   3.260   2.320   0.810  0.8873 -0.4055 -0.2223
 5078SOL    HW320085   3.293   2.178   0.772  0.1742 -0.5798 -0.2080
 5078SOL    MW420086   3.299   2.245   0.828  0.2586 -0.7065 -0.0631
 5079SOL     OW20087   1.730   3.827   1.489  0.1466 -0.2012  0.1090
 5079SOL    HW220088   1.706   3.889   1.557 -0.0639 -0.0073 -0.1395
 5079SOL    HW320089   1.716   3.875   1.407  1.3496 -0.0782 -0.0541
 5079SOL    MW420090   1.725   3.841   1.487  0.2775 -0.1594  0.0547
 5080SOL     OW20091   3.978   5.628   1.922 -0.2855 -0.1925  0.0117
 5080SOL    HW220092   4.041   5.618   1.851  0.7493 -0.0562  0.8891
 5080SOL    HW320093   3.894   5.606   1.882  0.2718 -0.1531 -1.2396
 5080SOL    MW420094   3.975   5.624   1.907 -0.0755 -0.1693 -0.0376
 5081SOL     OW20095   5.440   6.380   5.022 -0.0581 -0.4896  0.1679
 5081SOL    HW220096   5.473   6.377   5.112 -1.7681 -1.5593  0.8230
 5081SOL    HW320097   5.434   6.288   4.996 -0.1151 -0.2073 -0.8283
 5081SOL    MW420098   5.443   6.367   5.031 -0.2912 -0.5935  0.1229
 5082SOL     OW20099   0.291   4.086   2.781 -0.0939 -0.3874 -0.5059
 5082SOL    HW220100   0.266   4.175   2.755  0.7211 -0.2479 -0.8404
 5082SOL    HW320101   0.252   4.029   2.715 -3.1899 -0.5950  1.2999
 5082SOL    MW420102   0.282   4.090   2.769 -0.3948 -0.3964 -0.3118
 5083SOL     OW20103   4.834   0.874   3.210 -0.0068 -0.0978 -0.5051
 5083SOL    HW220104   4.764   0.916   3.160 -1.2965 -1.3870  0.1388
 5083SOL    HW320105   4.835   0.922   3.293 -2.0863 -1.7523  0.5834
 5083SOL    MW420106   4.825   0.886   3.215 -0.4513 -0.4862 -0.2765
 5084SOL     OW20107   3.868   1.435   6.127  0.3378  0.2928  0.1442
 5084SOL    HW220108   3.888   1.460   6.217 -0.9486  2.9830 -0.2067
 5084SOL    HW320109   3.941   1.470   6.075  0.1130  0.4676 -0.0561
 5084SOL    MW420110   3.881   1.443   6.132  0.1384  0.6708  0.0714
 5085SOL     OW20111   5.282   4.857   2.339  0.1980  0.1674  0.4989
 5085SOL    HW220112   5.321   4.918   2.401 -1.7159  1.0096  0.9663
 5085SOL    HW320113   5.202   4.826   2.382  0.0816 -1.1438 -0.5542
 5085SOL    MW420114   5.276   4.861   2.353 -0.0699  0.1055  0.4216
 5086SOL     OW20115   5.716   2.494   5.175  0.1514  0.4159 -0.6291
 5086SOL    HW220116   5.647   2.551   5.209  1.0123  1.3469 -0.4209
 5086SOL    HW320117   5.733   2.432   5.247 -2.2992 -1.5854 -1.6154
 5086SOL    MW420118   5.709   2.493   5.189 -0.0583  0.2747 -0.7317
 5087SOL     OW20119   4.914   3.415   1.027 -0.6139  0.6532 -0.7134
 5087SOL    HW220120   4.876   3.467   0.956 -1.3735  1.1558  0.0519
 5087SOL    HW320121   4.855   3.427   1.101 -0.0336 -0.1638 -0.0913
 5087SOL    MW420122   4.901   3.423   1.027 -0.6376  0.6117 -0.5303
 5088SOL     OW20123   0.913   0.507   1.644 -0.0552  0.6104 -0.1128
 5088SOL    HW220124   0.996   0.463   1.627  0.0240 -0.3272  2.4084
 5088SOL    HW320125   0.935   0.601   1.641  0.6126  0.4311 -1.5297
 5088SOL    MW420126   0.927   0.514   1.641  0.0433  0.4630  0.0329
 5089SOL     OW20127   1.303   0.349   3.523 -0.5026 -0.3442  0.8087
 5089SOL    HW220128   1.315   0.261   3.559  0.1373 -1.4713 -1.9049
 5089SOL    HW320129   1.389   0.373   3.490 -0.7295  1.2537  1.2984
 5089SOL    MW420130   1.316   0.340   3.523 -0.4481 -0.2821  0.5152
 5090SOL     OW20131   5.353   3.747   6.287  0.2311 -0.1516  0.4579
 5090SOL    HW220132   5.264   3.712   6.283  0.1606  0.0946 -0.1523
 5090SOL    HW320133   5.344   3.839   6.265  0.4882  0.1532  1.5775
 5090SOL    MW420134   5.340   3.754   6.284  0.2557 -0.0789  0.5251
 5091SOL     OW20135   0.841   0.115   2.194 -0.3133 -0.2132 -0.0306
 5091SOL    HW220136   0.799   0.106   2.108 -1.5585  0.8385  0.4348
 5091SOL    HW320137   0.840   0.026   2.230 -1.3214 -0.3842 -0.4287
 5091SOL    MW420138   0.835   0.102   2.187 -0.6106 -0.0970 -0.0217
 5092SOL     OW20139   3.818   4.453   5.436 -0.3079  0.4836  0.6868
 5092SOL    HW220140   3.834   4.477   5.344 -3.2157  0.9397  0.1861
 5092SOL    HW320141   3.794   4.361   5.432 -2.9260  1.0900  0.5212
 5092SOL    MW420142   3.817   4.444   5.423 -1.0369  0.6238  0.5989
 5093SOL     OW20143   3.286   2.775   3.484  0.3245  0.5750 -0.5667
 5093SOL    HW220144   3.309   2.695   3.437  0.2260  0.8219 -1.0425
 5093SOL    HW320145   3.314   2.846   3.425 -0.5594  0.8865 -0.6193
 5093SOL    MW420146   3.293   2.774   3.470  0.1949  0.6487 -0.6364
 5094SOL     OW20147   6.376   4.210   2.938 -0.1665 -0.5073  0.2273
 5094SOL    HW220148   6.376   4.117   2.961  2.1539 -0.3702  1.0304
 5094SOL    HW320149   6.456   4.221   2.886  0.1458  1.2315  1.0198
 5094SOL    MW420150   6.387   4.199   2.934  0.1809 -0.2598  0.4378
 5095SOL     OW20151   2.546   3.026   2.540 -0.1002 -0.3400 -0.1224
 5095SOL    HW220152   2.538   3.120   2.519 -0.2882 -0.6330 -1.4603
 5095SOL    HW320153   2.634   3.002   2.512  0.4632 -0.2947  1.4793
 5095SOL    MW420154   2.556   3.036   2.534 -0.0507 -0.3727 -0.0876
 5096SOL     OW20155   4.548   4.494   2.687  0.0669  0.6674 -0.6401
 5096SOL    HW220156   4.498   4.420   2.652  0.6328  0.7062 -1.5847
 5096SOL    HW320157   4.482   4.552   2.725 -0.6047  0.6116 -1.6641
 5096SOL    MW420158   4.532   4.492   2.687  0.0529  0.6652 -0.8999
 5097SOL     OW20159   0.167   2.232   0.659 -0.3439 -0.1583  0.2596
 5097SOL    HW220160   0.101   2.297   0.684  1.5081  2.1813 -0.4915
 5097SOL    HW320161   0.216   2.216   0.740 -1.6085 -1.7066  0.7587
 5097SOL    MW420162   0.165   2.238   0.673 -0.2664 -0.0539  0.2264
 5098SOL     OW20163   3.020   3.281   3.625 -0.3574 -0.0170  0.0560
 5098SOL    HW220164   3.021   3.367   3.583  1.0717  0.7072  1.4439
 5098SOL    HW320165   2.927   3.259   3.632 -0.7008  0.8713 -1.3554
 5098SOL    MW420166   3.008   3.289   3.621 -0.2141  0.1957  0.0529
 5099SOL     OW20167   1.865   0.590   4.481  0.1903 -0.1764 -0.5211
 5099SOL    HW220168   1.815   0.620   4.405 -1.0961 -0.5017  0.1544
 5099SOL    HW320169   1.948   0.560   4.445  0.1746  1.0076 -1.6114
 5099SOL    MW420170   1.869   0.590   4.466  0.0185 -0.0631 -0.5758
 5100SOL     OW20171   5.134   3.419   1.192  0.3169 -0.8482  0.0905
 5100SOL    HW220172   5.134   3.508   1.227  0.2610  0.2920 -2.6248
 5100SOL    HW320173   5.069   3.419   1.123  1.1645 -2.6573 -0.7882
 5100SOL    MW420174   5.126   3.431   1.188  0.4214 -0.9365 -0.3837
 5101SOL     OW20175   3.944   3.572   4.169 -0.2148  0.0443 -0.0566
 5101SOL    HW220176   3.911   3.487   4.143  0.9974 -0.1450 -1.0996
 5101SOL    HW320177   3.994   3.555   4.250 -0.1501 -0.1995 -0.1482
 5101SOL    MW420178   3.946   3.559   4.177 -0.0463 -0.0129 -0.2063
 5102SOL     OW20179   3.685   3.002   4.249 -0.3875 -0.5520 -0.1576
 5102SOL    HW220180   3.678   3.084   4.298 -0.5480 -0.1572 -0.8266
 5102SOL    HW320181   3.778   2.979   4.257 -0.2290 -0.0280 -0.3995
 5102SOL    MW420182   3.697   3.010   4.257 -0.3877 -0.4308 -0.2778
 5103SOL     OW20183   5.216   4.412   0.821 -0.2498 -0.2189  0.3582
 5103SOL    HW220184   5.196   4.489   0.768 -1.5161 -0.7424  0.0383
 5103SOL    HW320185   5.309   4.420   0.842 -0.4264  1.5438  0.5811
 5103SOL    MW420186   5.225   4.423   0.817 -0.4402 -0.0554  0.3454
 5104SOL     OW20187   2.603   6.242   1.507  0.1585 -0.8288  0.4085
 5104SOL    HW220188   2.684   6.191   1.514 -1.1058 -2.7839  1.6897
 5104SOL    HW320189   2.553   6.200   1.438 -0.2188 -0.3129  0.3632
 5104SOL    MW420190   2.607   6.230   1.499 -0.0581 -1.0187  0.5716
 5105SOL     OW20191   4.506   0.864   2.553  0.4413  0.3958  0.6376
 5105SOL    HW220192   4.531   0.931   2.488 -0.7778  0.0399 -0.2342
 5105SOL    HW320193   4.573   0.796   2.544 -0.6117 -0.4574 -1.5249
 5105SOL    MW420194   4.518   0.864   2.543  0.1415  0.2363  0.2372
 5106SOL     OW20195   0.506   5.299   3.185 -0.1182  0.3636 -0.3176
 5106SOL    HW220196   0.449   5.371   3.215 -0.3333  0.3466 -0.6817
 5106SOL    HW320197   0.593   5.322   3.219 -0.7993 -0.9832  2.6110
 5106SOL    MW420198   0.510   5.312   3.193 -0.2364  0.1836  0.0207
 5107SOL     OW20199   5.809   2.130   5.974  0.2092  0.1062 -0.1949
 5107SOL    HW220200   5.733   2.108   6.028 -0.0397  1.1610 -0.1009
 5107SOL    HW320201   5.797   2.077   5.895  1.2005 -2.3712  1.1915
 5107SOL    MW420202   5.797   2.120   5.970  0.3072 -0.0815  0.0004
 5108SOL     OW20203   3.382   1.247   0.295 -0.1723  0.3224 -0.7474
 5108SOL    HW220204   3.396   1.177   0.231  0.1941 -0.3525  0.0511
 5108SOL    HW320205   3.303   1.291   0.266 -0.3295 -0.3377 -1.3501
 5108SOL    MW420206   3.374   1.243   0.283 -0.1447  0.1463 -0.7216
 5109SOL     OW20207   2.802   0.342   5.055 -0.4421 -0.5505 -0.6076
 5109SOL    HW220208   2.777   0.281   4.985 -0.5625 -0.3618 -0.7299
 5109SOL    HW320209   2.762   0.305   5.134 -1.0739 -0.2861 -0.7916
 5109SOL    MW420210   2.793   0.329   5.056 -0.5413 -0.4907 -0.6480
 5110SOL     OW20211   5.753   2.298   2.988  0.8557 -0.1868  0.1454
 5110SOL    HW220212   5.764   2.206   3.014  1.1939 -0.4278 -0.8028
 5110SOL    HW320213   5.727   2.293   2.895 -0.9311  0.6047  0.5501
 5110SOL    MW420214   5.751   2.285   2.979  0.6646 -0.1141  0.0737
 5111SOL     OW20215   0.708   1.873   0.479  0.1463 -0.2436  0.6316
 5111SOL    HW220216   0.797   1.879   0.445 -0.0003 -1.6584 -0.0641
 5111SOL    HW320217   0.699   1.782   0.507 -1.2889 -0.2885  0.0837
 5111SOL    MW420218   0.719   1.862   0.478 -0.0624 -0.4362  0.4675
 5112SOL     OW20219   2.778   5.489   2.647 -0.2378  0.1937  0.3686
 5112SOL    HW220220   2.719   5.458   2.579 -1.1381  1.6506  0.4363
 5112SOL    HW320221   2.813   5.410   2.687 -0.6192 -0.6867 -0.9888
 5112SOL    MW420222   2.775   5.475   2.643 -0.4069  0.2697  0.1985
 5113SOL     OW20223   1.226   4.400   4.435  0.1704  0.3753  0.4427
 5113SOL    HW220224   1.200   4.460   4.506  0.8357 -1.7226  2.5823
 5113SOL    HW320225   1.316   4.376   4.455 -1.0156 -3.9398  1.8047
 5113SOL    MW420226   1.234   4.405   4.447  0.1017 -0.4708  0.9047
 5114SOL     OW20227   0.396   5.459   6.247  0.0895  0.8973  0.3029
 5114SOL    HW220228   0.320   5.512   6.224 -1.3982 -1.5101 -0.5858
 5114SOL    HW320229   0.456   5.471   6.174 -0.4920  0.8791 -0.1821
 5114SOL    MW420230   0.394   5.468   6.235 -0.1835  0.5773  0.1217
 5115SOL     OW20231   3.344   0.247   5.493  0.6980  0.7842  0.4236
 5115SOL    HW220232   3.294   0.166   5.497 -0.3417  1.3733 -0.2490
 5115SOL    HW320233   3.355   0.273   5.584  0.0910  0.4605  0.5916
 5115SOL    MW420234   3.339   0.240   5.506  0.4808  0.8192  0.3570
 5116SOL     OW20235   5.773   3.366   4.829 -0.2657 -0.1848 -0.9188
 5116SOL    HW220236   5.680   3.343   4.836 -0.4470  1.0356  1.6332
 5116SOL    HW320237   5.775   3.461   4.834  1.1441 -0.2194 -0.2964
 5116SOL    MW420238   5.761   3.375   4.831 -0.1037 -0.0284 -0.5000
 5117SOL     OW20239   5.482   5.801   0.305 -0.5120  0.7289  0.2142
 5117SOL    HW220240   5.455   5.868   0.368 -1.7861 -0.4316  0.9502
 5117SOL    HW320241   5.401   5.759   0.279  0.1918 -0.0013 -0.8535
 5117SOL    MW420242   5.468   5.804   0.310 -0.5873  0.4794  0.1705
 5118SOL     OW20243   5.737   1.961   1.175  0.2694 -0.1344 -0.3672
 5118SOL    HW220244   5.716   1.988   1.265  1.2819 -0.6371  0.0242
 5118SOL    HW320245   5.676   1.889   1.157 -0.1969  0.2162 -0.2404
 5118SOL    MW420246   5.726   1.955   1.184  0.3414 -0.1544 -0.2989
 5119SOL     OW20247   4.960   1.101   2.396 -0.1213 -0.3613 -0.1284
 5119SOL    HW220248   5.045   1.125   2.433  0.2111 -3.0606  1.0773
 5119SOL    HW320249   4.898   1.115   2.467 -0.1745 -1.2826  0.0250
 5119SOL    MW420250   4.963   1.106   2.410 -0.0845 -0.8390  0.0509
 5120SOL     OW20251   5.943   5.672   6.175 -0.0704  0.2362 -0.5386
 5120SOL    HW220252   5.871   5.730   6.150  1.1595  2.3215  0.4735
 5120SOL    HW320253   6.007   5.680   6.105 -0.1857 -0.4633 -0.7297
 5120SOL    MW420254   5.942   5.681   6.163  0.0766  0.4190 -0.4303
 5121SOL     OW20255   1.881   4.631   2.027 -0.5073  0.4883 -0.6255
 5121SOL    HW220256   1.890   4.723   2.001  0.8925  0.8378  0.9586
 5121SOL    HW320257   1.843   4.588   1.950  0.2324  2.1058 -1.9406
 5121SOL    MW420258   1.877   4.637   2.013 -0.2250  0.7479 -0.5900
 5122SOL     OW20259   5.000   3.433   6.205  0.3859  0.3547  0.3748
 5122SOL    HW220260   5.017   3.517   6.248  1.2930 -0.0915  0.9055
 5122SOL    HW320261   4.953   3.457   6.125  4.1933  1.8294 -1.6763
 5122SOL    MW420262   4.996   3.447   6.200  1.0079  0.4904  0.1742
 5123SOL     OW20263   0.521   4.958   5.948  0.2151 -0.0054 -0.7877
 5123SOL    HW220264   0.501   4.875   5.992  2.5464 -0.0327  0.3738
 5123SOL    HW320265   0.462   4.960   5.874 -1.2905 -1.7598  0.2684
 5123SOL    MW420266   0.511   4.947   5.944  0.3240 -0.2405 -0.4951
 5124SOL     OW20267   5.970   3.986   0.321 -0.7137 -0.0470  0.8218
 5124SOL    HW220268   6.021   4.021   0.394 -1.2687  0.7661  0.8320
 5124SOL    HW320269   6.012   4.021   0.243  0.4948 -1.7188  0.6634
 5124SOL    MW420270   5.982   3.995   0.320 -0.6275 -0.1603  0.8023
 5125SOL     OW20271   3.621   2.483   1.801 -0.2086  0.2740  0.0088
 5125SOL    HW220272   3.670   2.554   1.760 -0.0008  0.7346  1.0180
 5125SOL    HW320273   3.687   2.432   1.847 -0.4488 -0.1734 -0.1378
 5125SOL    MW420274   3.636   2.486   1.802 -0.2129  0.2758  0.1226
 5126SOL     OW20275   3.974   1.504   4.012 -0.6996  0.1772  0.5009
 5126SOL    HW220276   3.888   1.462   4.003 -1.6970  2.2087  0.0230
 5126SOL    HW320277   3.990   1.507   4.106 -2.1017  1.5431  0.7273
 5126SOL    MW420278   3.965   1.499   4.023 -1.0162  0.6255  0.4677
 5127SOL     OW20279   5.293   3.974   3.025 -0.2175  0.8430  0.4052
 5127SOL    HW220280   5.294   4.012   2.937  1.4989 -0.6678 -0.2925
 5127SOL    HW320281   5.340   4.037   3.079  0.3791  0.9048 -0.1788
 5127SOL    MW420282   5.299   3.987   3.020  0.0877  0.6518  0.2361
 5128SOL     OW20283   3.286   5.193   2.919 -0.2761  0.5738  0.8143
 5128SOL    HW220284   3.236   5.275   2.925 -1.6310 -0.0508 -1.0171
 5128SOL    HW320285   3.255   5.141   2.992 -0.5802  1.0974  1.0655
 5128SOL    MW420286   3.275   5.197   2.929 -0.4950  0.5605  0.6058
 5129SOL     OW20287   1.595   0.403   6.032 -0.1782 -0.3431 -0.0953
 5129SOL    HW220288   1.591   0.411   6.127 -0.2594  1.2420 -0.2097
 5129SOL    HW320289   1.512   0.364   6.007 -0.1249 -0.8368  0.4848
 5129SOL    MW420290   1.584   0.399   6.041 -0.1819 -0.1991 -0.0339
 5130SOL     OW20291   5.009   5.410   5.353  0.7212 -0.1142 -0.1989
 5130SOL    HW220292   5.030   5.468   5.427  0.5425  1.3840 -1.2644
 5130SOL    HW320293   4.914   5.418   5.343  0.4138 -2.0834  0.7862
 5130SOL    MW420294   4.999   5.419   5.361  0.6570 -0.1763 -0.2095
 5131SOL     OW20295   3.817   0.555   1.674 -0.1521 -0.0737  0.4766
 5131SOL    HW220296   3.879   0.570   1.603 -1.0890  0.2688 -0.2850
 5131SOL    HW320297   3.777   0.640   1.689 -2.6227 -0.8505 -1.1428
 5131SOL    MW420298   3.820   0.568   1.667 -0.6017 -0.1310  0.1625
 5132SOL     OW20299   3.581   5.483   0.621  0.0309 -0.0752 -0.2279
 5132SOL    HW220300   3.546   5.414   0.677 -0.4171  0.1440 -0.2318
 5132SOL    HW320301   3.551   5.460   0.533 -1.4793  0.9499 -0.0255
 5132SOL    MW420302   3.572   5.471   0.616 -0.2274  0.0890 -0.2017
 5133SOL     OW20303   1.088   2.954   0.378  0.0787 -0.0014 -0.1509
 5133SOL    HW220304   1.051   2.955   0.290 -0.2697  1.0086 -0.0119
 5133SOL    HW320305   1.032   2.895   0.428 -0.6605  0.6180 -0.2350
 5133SOL    MW420306   1.076   2.947   0.373 -0.0648  0.2135 -0.1437
 5134SOL     OW20307   5.591   3.380   0.495 -0.2572 -0.2575  0.6167
 5134SOL    HW220308   5.653   3.411   0.429  1.8191 -1.2977  1.9450
 5134SOL    HW320309   5.522   3.337   0.446  0.4614  0.2859 -0.9188
 5134SOL    MW420310   5.590   3.379   0.480  0.1115 -0.3231  0.5894
 5135SOL     OW20311   4.199   0.858   4.255  0.0210  0.2650 -0.2951
 5135SOL    HW220312   4.117   0.810   4.243 -0.0177  0.3630 -0.4370
 5135SOL    HW320313   4.177   0.948   4.230 -0.0328  0.4584  0.4225
 5135SOL    MW420314   4.185   0.864   4.250  0.0088  0.3034 -0.2191
 5136SOL     OW20315   2.988   4.120   3.657  0.3054 -0.4649 -0.1264
 5136SOL    HW220316   2.917   4.122   3.721  1.2006 -0.3866  0.9020
 5136SOL    HW320317   2.949   4.081   3.579 -1.1277  0.5110  0.0665
 5136SOL    MW420318   2.974   4.115   3.655  0.2344 -0.3258  0.0347
 5137SOL     OW20319   1.188   5.848   5.385 -0.2132 -0.6336  0.5165
 5137SOL    HW220320   1.138   5.930   5.381  0.3086 -0.2812  0.9973
 5137SOL    HW320321   1.199   5.831   5.479  1.3472 -0.2058  0.4349
 5137SOL    MW420322   1.183   5.857   5.397  0.0615 -0.5307  0.5692
 5138SOL     OW20323   2.537   4.295   3.246 -0.0276  0.3723  0.1603
 5138SOL    HW220324   2.540   4.385   3.215 -1.4710  0.3303 -0.1748
 5138SOL    HW320325   2.445   4.280   3.269  0.4736 -0.5119  1.7562
 5138SOL    MW420326   2.525   4.305   3.245 -0.1519  0.2501  0.3266
 5139SOL     OW20327   3.079   4.263   5.348  0.5539  0.0930  0.1502
 5139SOL    HW220328   3.007   4.247   5.288  0.3133 -0.0475  0.4716
 5139SOL    HW320329   3.150   4.207   5.317  0.1397 -0.6462  0.5146
 5139SOL    MW420330   3.079   4.253   5.336  0.4675 -0.0231  0.2407
 5140SOL     OW20331   3.427   3.769   2.311  0.1853 -0.1837  0.6689
 5140SOL    HW220332   3.350   3.782   2.255 -0.4788  0.1818  1.6452
 5140SOL    HW320333   3.435   3.851   2.360  1.3524 -0.1229  0.4128
 5140SOL    MW420334   3.418   3.782   2.310  0.2517 -0.1274  0.7639
 5141SOL     OW20335   3.924   6.001   0.792  0.1861  0.1237  0.3808
 5141SOL    HW220336   3.847   6.055   0.776  0.5383  0.5959  0.2381
 5141SOL    HW320337   3.908   5.961   0.877 -0.6921 -0.6280 -0.1299
 5141SOL    MW420338   3.912   6.003   0.801  0.1167  0.0868  0.2946
 5142SOL     OW20339   5.184   5.050   4.255  0.1617  0.5019  0.4026
 5142SOL    HW220340   5.129   5.059   4.177  1.8715  0.8402 -0.8403
 5142SOL    HW320341   5.218   4.960   4.249  1.5888  1.0443 -0.1980
 5142SOL    MW420342   5.181   5.039   4.244  0.5756  0.6181  0.1593
 5143SOL     OW20343   3.951   4.251   6.278 -0.6812 -0.8436 -0.2875
 5143SOL    HW220344   3.951   4.207   6.193  2.6409 -0.4982 -0.5988
 5143SOL    HW320345   3.937   4.344   6.257  1.3135 -0.5911 -0.6534
 5143SOL    MW420346   3.949   4.258   6.264  0.0203 -0.7647 -0.3768
 5144SOL     OW20347   1.976   0.244   0.391  0.3949 -0.0325  1.0299
 5144SOL    HW220348   2.067   0.272   0.397  0.9192 -1.7252  1.6089
 5144SOL    HW320349   1.976   0.177   0.322 -1.0500  2.1393 -1.2530
 5144SOL    MW420350   1.988   0.239   0.382  0.2734  0.0307  0.8051
 5145SOL     OW20351   1.999   0.331   3.375  0.1210 -0.2486 -0.1916
 5145SOL    HW220352   1.998   0.244   3.335  1.6585 -0.3666 -0.0303
 5145SOL    HW320353   1.988   0.315   3.468  0.3852 -0.2702 -0.1639
 5145SOL    MW420354   1.998   0.318   3.382  0.3587 -0.2670 -0.1667
 5146SOL     OW20355   0.947   3.352   4.515 -0.5319  0.3869  0.5233
 5146SOL    HW220356   0.966   3.284   4.450 -1.6675  0.6788 -0.1293
 5146SOL    HW320357   0.877   3.315   4.568  0.0329  0.3657  1.2730
 5146SOL    MW420358   0.940   3.338   4.513 -0.6072  0.4226  0.5361
 5147SOL     OW20359   1.938   2.677   4.510  0.5714  0.7060 -0.2319
 5147SOL    HW220360   1.867   2.711   4.565 -0.8404 -0.7878 -1.0401
 5147SOL    HW320361   1.962   2.594   4.551 -1.6604 -1.2936 -2.6254
 5147SOL    MW420362   1.932   2.671   4.523  0.0907  0.2451 -0.6543
 5148SOL     OW20363   1.253   3.898   2.413 -0.3938  0.0949 -0.4212
 5148SOL    HW220364   1.319   3.833   2.392 -0.5884 -0.7956  1.4768
 5148SOL    HW320365   1.185   3.887   2.346 -0.3974 -1.6453 -0.1732
 5148SOL    MW420366   1.253   3.888   2.402 -0.4199 -0.2522 -0.1381
 5149SOL     OW20367   6.381   3.272   5.600  0.6306 -0.3436  0.6400
 5149SOL    HW220368   6.451   3.309   5.547 -0.4417  2.2729  0.9054
 5149SOL    HW320369   6.333   3.214   5.540  0.9304  0.5976 -0.5333
 5149SOL    MW420370   6.384   3.269   5.585  0.5287  0.1258  0.5202
 5150SOL     OW20371   0.787   0.154   4.610 -0.0365  0.2330 -0.0592
 5150SOL    HW220372   0.728   0.086   4.579  0.0934  0.1234 -0.0688
 5150SOL    HW320373   0.731   0.229   4.627 -0.0214  0.5549 -1.3111
 5150SOL    MW420374   0.772   0.155   4.608 -0.0174  0.2610 -0.2257
 5151SOL     OW20375   1.535   4.382   3.158  0.2190 -0.4117  0.4663
 5151SOL    HW220376   1.509   4.320   3.089  1.4526  1.4722 -1.8688
 5151SOL    HW320377   1.561   4.327   3.231 -2.5335 -2.5010  0.0258
 5151SOL    MW420378   1.535   4.367   3.158  0.0186 -0.4388  0.1001
 5152SOL     OW20379   5.900   5.881   3.160 -0.2253  0.2038 -0.4276
 5152SOL    HW220380   5.808   5.906   3.150 -0.5984 -1.2051 -0.7333
 5152SOL    HW320381   5.930   5.865   3.071  0.7144  1.8511 -0.4566
 5152SOL    MW420382   5.892   5.882   3.147 -0.1506  0.2352 -0.4717
 5153SOL     OW20383   6.004   2.589   3.345  0.1336 -0.2627 -0.4932
 5153SOL    HW220384   6.044   2.505   3.323  0.9683  0.1310 -0.5028
 5153SOL    HW320385   5.982   2.628   3.261  0.4247 -0.1459 -0.5147
 5153SOL    MW420386   6.006   2.583   3.331  0.2821 -0.1953 -0.4973
 5154SOL     OW20387   6.414   5.127   0.641 -0.3389 -0.1466 -0.5162
 5154SOL    HW220388   6.324   5.149   0.618  0.3722  2.3779 -1.1717
 5154SOL    HW320389   6.431   5.176   0.722  0.6437 -0.0398 -0.7703
 5154SOL    MW420390   6.404   5.136   0.648 -0.1155  0.2005 -0.6362
 5155SOL     OW20391   1.859   4.475   3.461  0.3039 -0.3221 -0.3791
 5155SOL    HW220392   1.882   4.460   3.552  1.7734  0.4843 -0.5746
 5155SOL    HW320393   1.789   4.412   3.442  0.0045 -0.5136  1.2734
 5155SOL    MW420394   1.853   4.465   3.470  0.4583 -0.2409 -0.1868
 5156SOL     OW20395   6.159   3.424   5.095 -0.0729 -0.1334 -0.2536
 5156SOL    HW220396   6.108   3.366   5.040 -0.6491 -0.2108  0.3563
 5156SOL    HW320397   6.141   3.512   5.061 -0.2586 -0.1972 -0.3192
 5156SOL    MW420398   6.150   3.428   5.083 -0.1734 -0.1520 -0.1818
 5157SOL     OW20399   0.577   3.431   5.772 -0.2167  0.3184  0.0951
 5157SOL    HW220400   0.500   3.382   5.743 -1.9107  3.5258 -1.3531
 5157SOL    HW320401   0.563   3.446   5.865  0.5876 -2.1464  0.7016
 5157SOL    MW420402   0.565   3.426   5.780 -0.3341  0.4164 -0.0159
 5158SOL     OW20403   2.372   4.694   0.420 -0.2707  0.1327 -0.1099
 5158SOL    HW220404   2.433   4.621   0.404 -0.4241  0.3347 -1.8331
 5158SOL    HW320405   2.381   4.712   0.514  0.8461 -1.1434  0.0734
 5158SOL    MW420406   2.382   4.686   0.430 -0.1436 -0.0090 -0.3131
 5159SOL     OW20407   1.642   4.967   3.935 -0.1915 -0.6020 -0.5092
 5159SOL    HW220408   1.570   5.009   3.981  0.1048 -0.4766 -0.1549
 5159SOL    HW320409   1.637   5.001   3.846  0.7650  1.1402  0.0572
 5159SOL    MW420410   1.632   4.977   3.929 -0.0262 -0.3556 -0.3877
 5160SOL     OW20411   1.337   2.032   5.164 -0.0563 -0.1343 -0.4567
 5160SOL    HW220412   1.389   1.951   5.157  0.3665  0.0280  0.5747
 5160SOL    HW320413   1.398   2.102   5.141 -0.2515 -0.0564 -0.7430
 5160SOL    MW420414   1.352   2.030   5.160 -0.0263 -0.1026 -0.3584
 5161SOL     OW20415   1.236   0.939   0.227 -0.0190 -0.1670 -0.2412
 5161SOL    HW220416   1.153   0.957   0.271  0.4851 -1.9176  1.5496
 5161SOL    HW320417   1.298   0.998   0.269  0.0808 -0.4603  0.0253
 5161SOL    MW420418   1.233   0.949   0.238  0.0607 -0.4367  0.0303
 5162SOL     OW20419   5.501   4.736   5.603 -0.3418 -0.3711 -0.1107
 5162SOL    HW220420   5.451   4.667   5.561  3.1940 -2.9989 -0.5155
 5162SOL    HW320421   5.498   4.715   5.696  1.5547 -1.8374 -0.3198
 5162SOL    MW420422   5.494   4.725   5.610  0.3749 -0.9113 -0.1917
 5163SOL     OW20423   5.660   6.393   2.049 -0.4899 -0.3317 -0.0632
 5163SOL    HW220424   5.672   6.403   1.954 -0.1386 -1.3421 -0.1413
 5163SOL    HW320425   5.567   6.369   2.059 -0.7679  0.7020 -0.0587
 5163SOL    MW420426   5.649   6.391   2.037 -0.4803 -0.3286 -0.0729
 5164SOL     OW20427   4.663   0.860   5.561 -0.5514 -0.5091 -0.0877
 5164SOL    HW220428   4.751   0.894   5.551 -0.2928 -1.1065  0.1312
 5164SOL    HW320429   4.675   0.769   5.586 -1.2230 -0.3555  0.8204
 5164SOL    MW420430   4.676   0.852   5.563 -0.6059 -0.5676  0.0610
 5165SOL     OW20431   4.363   3.565   4.384 -0.5264  0.1168  1.1683
 5165SOL    HW220432   4.271   3.541   4.393 -0.3751 -0.3706  1.4393
 5165SOL    HW320433   4.390   3.591   4.472  0.1060 -1.6044  1.5142
 5165SOL    MW420434   4.354   3.566   4.397 -0.4230 -0.1746  1.2497
 5166SOL     OW20435   0.580   2.977   4.996  0.0329 -0.0947 -0.0104
 5166SOL    HW220436   0.543   3.047   4.942 -0.0556  0.9818  1.3643
 5166SOL    HW320437   0.504   2.929   5.028 -0.1908  1.2884  1.7253
 5166SOL    MW420438   0.565   2.980   4.993 -0.0083  0.2298  0.4000
 5167SOL     OW20439   2.829   2.208   2.394  0.0951 -0.1294 -0.1206
 5167SOL    HW220440   2.870   2.292   2.415  0.0343 -0.1074 -0.0879
 5167SOL    HW320441   2.893   2.142   2.422 -0.2537 -0.1154  0.7590
 5167SOL    MW420442   2.842   2.210   2.401  0.0410 -0.1246 -0.0002
 5168SOL     OW20443   0.299   3.488   5.625 -0.2632  0.1947  0.0442
 5168SOL    HW220444   0.290   3.496   5.530  0.1336  2.9562  0.1394
 5168SOL    HW320445   0.297   3.394   5.642  0.0532 -0.3953 -2.7237
 5168SOL    MW420446   0.297   3.477   5.614 -0.1691  0.4812 -0.3085
 5169SOL     OW20447   3.583   2.308   1.256 -0.3097  0.5531  0.9193
 5169SOL    HW220448   3.509   2.326   1.198  0.9895  1.5433 -0.5027
 5169SOL    HW320449   3.649   2.372   1.231  0.0516  1.5664  4.0506
 5169SOL    MW420450   3.582   2.319   1.245 -0.0907  0.8174  1.1448
 5170SOL     OW20451   6.106   2.355   2.916 -0.0822 -0.3469 -0.3212
 5170SOL    HW220452   6.081   2.270   2.951 -0.8500 -0.0979 -0.2531
 5170SOL    HW320453   6.075   2.355   2.826 -1.1258  0.2963  0.0285
 5170SOL    MW420454   6.099   2.344   2.909 -0.3212 -0.2292 -0.2661
 5171SOL     OW20455   2.983   3.501   2.260 -0.4335  0.4807  0.0083
 5171SOL    HW220456   2.927   3.553   2.202 -2.6975 -2.1339 -0.3868
 5171SOL    HW320457   2.923   3.465   2.326  0.6758 -2.4978 -0.4370
 5171SOL    MW420458   2.968   3.503   2.261 -0.5858 -0.2573 -0.1026
 5172SOL     OW20459   2.791   4.336   3.421 -0.2491 -0.2949 -0.4778
 5172SOL    HW220460   2.875   4.380   3.428  0.4852 -1.7575  0.2513
 5172SOL    HW320461   2.778   4.324   3.327  0.6661 -0.6186 -0.5743
 5172SOL    MW420462   2.800   4.340   3.409 -0.0315 -0.5306 -0.3943
 5173SOL     OW20463   4.275   2.867   2.911  0.1790  0.5616  0.1215
 5173SOL    HW220464   4.248   2.788   2.958 -1.6484  0.6186 -0.7597
 5173SOL    HW320465   4.335   2.835   2.843 -0.3627 -0.0398 -0.0818
 5173SOL    MW420466   4.280   2.852   2.908 -0.1336  0.4898 -0.0216
 5174SOL     OW20467   1.273   0.719   1.501  0.6135 -0.7816  0.5907
 5174SOL    HW220468   1.296   0.644   1.447  0.5199  0.2178 -0.8891
 5174SOL    HW320469   1.292   0.795   1.446 -0.0698  0.2673  1.7481
 5174SOL    MW420470   1.279   0.719   1.487  0.5110 -0.5113  0.5481
 5175SOL     OW20471   0.532   2.327   2.912 -0.3384 -0.1996  0.1990
 5175SOL    HW220472   0.488   2.351   2.993  0.3012  0.5930  0.3300
 5175SOL    HW320473   0.464   2.286   2.859 -1.5367  1.9728 -0.0535
 5175SOL    MW420474   0.517   2.325   2.916 -0.4121  0.1916  0.1830
 5176SOL     OW20475   2.796   1.435   5.606  0.4227  0.1933  0.2265
 5176SOL    HW220476   2.764   1.496   5.672 -0.4096  0.1856 -0.1611
 5176SOL    HW320477   2.878   1.401   5.643 -0.2467 -0.1425  1.4536
 5176SOL    MW420478   2.803   1.439   5.619  0.2246  0.1480  0.3373
 5177SOL     OW20479   3.612   0.106   0.516 -0.4886 -0.1243 -0.4129
 5177SOL    HW220480   3.707   0.115   0.505 -0.1405 -0.4460  1.8195
 5177SOL    HW320481   3.576   0.130   0.431  1.4649  2.2960 -0.6940
 5177SOL    MW420482   3.620   0.110   0.503 -0.1849  0.1526 -0.1555
 5178SOL     OW20483   4.787   3.172   4.126  0.6127  0.4231  0.9909
 5178SOL    HW220484   4.756   3.149   4.213 -0.7367  0.7765  0.6253
 5178SOL    HW320485   4.851   3.104   4.105 -1.0034 -1.2470  1.2012
 5178SOL    MW420486   4.791   3.160   4.135  0.2215  0.2494  0.9704
 5179SOL     OW20487   1.379   3.029   2.474 -0.1910  0.4024 -0.4311
 5179SOL    HW220488   1.330   3.108   2.454  1.9839  1.5202 -1.7688
 5179SOL    HW320489   1.317   2.958   2.458 -1.4956  1.7343 -1.6175
 5179SOL    MW420490   1.365   3.030   2.469 -0.0762  0.7256 -0.7641
 5180SOL     OW20491   6.242   4.253   2.048 -0.2561  0.0882 -0.0337
 5180SOL    HW220492   6.335   4.231   2.061 -0.2582  0.2652  0.3082
 5180SOL    HW320493   6.200   4.169   2.028 -0.0330 -0.0050 -0.1111
 5180SOL    MW420494   6.249   4.239   2.047 -0.2270  0.0993  0.0012
 5181SOL     OW20495   2.539   5.454   2.498  0.5839  0.2093 -0.3737
 5181SOL    HW220496   2.452   5.495   2.501  0.9137  0.9098 -0.2325
 5181SOL    HW320497   2.551   5.432   2.405  0.4279  0.4955 -0.4662
 5181SOL    MW420498   2.529   5.457   2.486  0.6068  0.3395 -0.3673
 5182SOL     OW20499   5.167   3.433   3.757  0.7427  0.2688 -0.1178
 5182SOL    HW220500   5.146   3.370   3.826  1.3900 -1.5170 -1.4575
 5182SOL    HW320501   5.249   3.473   3.784  0.0613  0.9579  1.0018
 5182SOL    MW420502   5.175   3.430   3.770  0.7382  0.1241 -0.1468
 5183SOL     OW20503   3.510   4.514   0.142 -0.4220 -0.0610  0.3679
 5183SOL    HW220504   3.479   4.522   0.051 -0.4444 -0.8551  0.2967
 5183SOL    HW320505   3.433   4.534   0.195 -0.5327 -0.0579  0.2077
 5183SOL    MW420506   3.496   4.517   0.137 -0.4396 -0.1654  0.3374
 5184SOL     OW20507   1.828   0.691   2.909  0.2116 -0.3000  0.0660
 5184SOL    HW220508   1.758   0.694   2.974  1.3649  1.3726  1.3254
 5184SOL    HW320509   1.869   0.778   2.914 -0.8230  0.6592 -4.3012
 5184SOL    MW420510   1.824   0.703   2.918  0.2273  0.0472 -0.3441
 5185SOL     OW20511   2.519   4.558   3.148  0.2347  0.1276 -0.5735
 5185SOL    HW220512   2.521   4.609   3.067 -0.4225  1.6917  0.3453
 5185SOL    HW320513   2.527   4.623   3.218 -0.2142 -1.0780  0.6615
 5185SOL    MW420514   2.520   4.573   3.147  0.0888  0.1749 -0.2893
 5186SOL     OW20515   0.958   2.907   4.508  1.0484  0.2520 -0.2577
 5186SOL    HW220516   0.863   2.908   4.501  0.7299 -2.2690  2.1323
 5186SOL    HW320517   0.988   2.874   4.423 -0.4214 -1.6346 -0.1018
 5186SOL    MW420518   0.949   2.903   4.496  0.8125 -0.3295  0.0782
 5187SOL     OW20519   1.216   0.474   2.959  0.6832  0.1372 -0.7626
 5187SOL    HW220520   1.304   0.446   2.984 -0.3758 -1.5949  1.3080
 5187SOL    HW320521   1.174   0.498   3.041 -0.6035  1.5938 -1.7932
 5187SOL    MW420522   1.222   0.474   2.973  0.3737  0.1009 -0.6254
 5188SOL     OW20523   4.647   3.555   5.318 -0.3680 -0.0682 -0.0915
 5188SOL    HW220524   4.555   3.561   5.293 -0.0541 -0.8082 -1.5325
 5188SOL    HW320525   4.691   3.525   5.239  1.0452 -0.2124  0.7231
 5188SOL    MW420526   4.641   3.552   5.304 -0.1401 -0.1849 -0.1741
 5189SOL     OW20527   1.679   3.279   4.749 -0.4545 -0.0494  0.2299
 5189SOL    HW220528   1.597   3.326   4.735  0.1672  0.2668 -3.2341
 5189SOL    HW320529   1.734   3.339   4.799 -1.0125  1.4019 -0.8361
 5189SOL    MW420530   1.675   3.293   4.753 -0.4461  0.1838 -0.3678
 5190SOL     OW20531   6.166   0.443   3.449 -0.7181  0.2849  0.7166
 5190SOL    HW220532   6.090   0.405   3.405  0.7342 -1.9534  0.0090
 5190SOL    HW320533   6.203   0.371   3.499  1.6107  0.9845  0.1081
 5190SOL    MW420534   6.161   0.429   3.450 -0.2192  0.0819  0.5430
 5191SOL     OW20535   4.319   5.874   2.346  0.1923 -0.7222  0.2726
 5191SOL    HW220536   4.309   5.837   2.258  0.4493  0.3190 -0.2104
 5191SOL    HW320537   4.392   5.936   2.337 -2.0918  2.1548  0.2934
 5191SOL    MW420538   4.328   5.877   2.333 -0.0752 -0.2052  0.2116
 5192SOL     OW20539   5.419   2.140   5.774  0.1471 -0.3629 -0.0806
 5192SOL    HW220540   5.484   2.195   5.731 -0.8519  0.7259 -0.2782
 5192SOL    HW320541   5.409   2.064   5.716  0.4144  0.0105 -0.6232
 5192SOL    MW420542   5.426   2.137   5.761  0.0506 -0.1699 -0.1782
 5193SOL     OW20543   3.690   2.962   5.975 -0.5830 -0.2266 -0.2863
 5193SOL    HW220544   3.701   2.882   6.026 -0.2548 -0.2351 -0.3698
 5193SOL    HW320545   3.672   3.029   6.041  1.8268  0.1619  0.0686
 5193SOL    MW420546   3.689   2.960   5.991 -0.2218 -0.1765 -0.2505
 5194SOL     OW20547   1.980   0.768   4.843  0.1421 -0.3340 -0.5134
 5194SOL    HW220548   1.911   0.809   4.791 -0.1229 -1.4372 -1.0598
 5194SOL    HW320549   1.955   0.784   4.933  0.3973  1.2670 -0.6855
 5194SOL    MW420550   1.968   0.776   4.848  0.1408 -0.2683 -0.6082
 5195SOL     OW20551   6.219   0.356   5.369 -0.2330 -0.1116  0.5173
 5195SOL    HW220552   6.264   0.339   5.287  0.8517  2.9813  0.3353
 5195SOL    HW320553   6.149   0.417   5.346  1.1267  2.1553  2.0086
 5195SOL    MW420554   6.216   0.362   5.355  0.0895  0.5956  0.6900
 5196SOL     OW20555   5.084   5.023   2.817  0.1024  0.0503  0.4906
 5196SOL    HW220556   5.157   5.070   2.777  0.7068 -0.9305  0.4237
 5196SOL    HW320557   5.010   5.042   2.759  0.7556 -0.5716 -0.5938
 5196SOL    MW420558   5.084   5.032   2.804  0.2683 -0.1612  0.3387
 5197SOL     OW20559   2.451   4.702   4.653  0.3916 -0.3364  0.2892
 5197SOL    HW220560   2.418   4.656   4.730  0.0411 -0.5760 -0.0021
 5197SOL    HW320561   2.374   4.717   4.599  0.9849 -2.8747 -1.4325
 5197SOL    MW420562   2.437   4.698   4.656  0.4236 -0.7029  0.0236
 5198SOL     OW20563   3.572   3.201   5.474 -0.0912 -0.1830  0.1392
 5198SOL    HW220564   3.655   3.153   5.475 -1.1316 -2.0822  0.5454
 5198SOL    HW320565   3.575   3.255   5.552  1.1342  0.4843 -0.3391
 5198SOL    MW420566   3.583   3.202   5.484 -0.0668 -0.3456  0.1297
 5199SOL     OW20567   3.476   2.388   5.977  0.2825  0.0165  0.0237
 5199SOL    HW220568   3.549   2.335   5.948 -0.5155 -1.1662  0.0964
 5199SOL    HW320569   3.453   2.441   5.901 -1.4432 -2.6617 -1.4881
 5199SOL    MW420570   3.482   2.388   5.963 -0.0505 -0.4929 -0.1662
 5200SOL     OW20571   6.034   4.111   3.089  0.1333  0.3002 -0.0663
 5200SOL    HW220572   6.048   4.060   3.009  0.6940 -1.0250  0.8360
 5200SOL    HW320573   5.957   4.165   3.070 -1.5871 -2.1126 -0.5308
 5200SOL    MW420574   6.026   4.111   3.076 -0.0197 -0.1930 -0.0085
 5201SOL     OW20575   3.869   5.567   4.593  0.3978 -0.3639  0.3441
 5201SOL    HW220576   3.822   5.549   4.674  1.1424 -0.2493  0.8178
 5201SOL    HW320577   3.922   5.489   4.578 -0.1607 -0.6151 -0.3420
 5201SOL    MW420578   3.870   5.554   4.602  0.4223 -0.3819  0.3161
 5202SOL     OW20579   1.017   2.773   4.269 -0.0190 -0.2023 -0.0106
 5202SOL    HW220580   0.945   2.751   4.210 -0.4397 -0.0889  0.4519
 5202SOL    HW320581   1.068   2.838   4.221 -0.5967  0.2077 -0.0773
 5202SOL    MW420582   1.015   2.778   4.255 -0.1507 -0.1332  0.0416
 5203SOL     OW20583   5.514   3.686   1.597 -0.4873 -0.3712  0.0271
 5203SOL    HW220584   5.495   3.639   1.516  2.0415 -1.1336 -0.2082
 5203SOL    HW320585   5.594   3.734   1.579 -0.9045  0.9551  1.5211
 5203SOL    MW420586   5.522   3.686   1.584 -0.2087 -0.2968  0.1931
 5204SOL     OW20587   2.053   4.388   2.021 -0.1197 -0.4340 -0.1944
 5204SOL    HW220588   2.070   4.388   1.926  0.0118 -0.7607 -0.1726
 5204SOL    HW320589   1.998   4.464   2.035  2.6722  1.7157 -0.0375
 5204SOL    MW420590   2.048   4.398   2.010  0.2660 -0.1935 -0.1708
 5205SOL     OW20591   4.308   4.871   4.915 -0.0895 -0.1773 -0.4045
 5205SOL    HW220592   4.333   4.958   4.946 -0.9691  0.1675 -0.6364
 5205SOL    HW320593   4.318   4.815   4.992 -1.2160  0.4689  0.2356
 5205SOL    MW420594   4.313   4.875   4.930 -0.3542 -0.0466 -0.3506
 5206SOL     OW20595   5.950   3.989   6.185  0.4963 -0.4195 -0.1448
 5206SOL    HW220596   5.968   3.970   6.093 -0.3715  0.9848 -0.6343
 5206SOL    HW320597   5.988   3.915   6.233  2.9123 -0.1181 -1.4496
 5206SOL    MW420598   5.957   3.977   6.179  0.7006 -0.1945 -0.3815
 5207SOL     OW20599   5.270   5.987   2.828  0.4479 -0.1476  0.1473
 5207SOL    HW220600   5.286   6.060   2.889 -0.9967 -0.4703  0.9763
 5207SOL    HW320601   5.283   5.908   2.881 -1.9293 -0.4271  0.4393
 5207SOL    MW420602   5.274   5.986   2.843 -0.0563 -0.2271  0.2952
 5208SOL     OW20603   0.855   3.975   5.583 -0.3163  0.3343 -0.1929
 5208SOL    HW220604   0.916   3.908   5.554  0.8749  1.0279  0.6150
 5208SOL    HW320605   0.907   4.055   5.587 -0.6930  0.5500  2.5516
 5208SOL    MW420606   0.870   3.977   5.580 -0.2088  0.4543  0.2758
 5209SOL     OW20607   6.156   5.330   6.355 -0.6561 -0.3827  0.1275
 5209SOL    HW220608   6.118   5.243   6.341 -0.2449 -0.5400 -0.0389
 5209SOL    HW320609   6.082   5.385   6.380 -0.9190 -0.7820  0.2353
 5209SOL    MW420610   6.141   5.326   6.356 -0.6365 -0.4561  0.1198
 5210SOL     OW20611   1.541   0.604   1.139  0.1395 -0.2951 -0.3030
 5210SOL    HW220612   1.465   0.599   1.196  2.1176  0.8558  2.6955
 5210SOL    HW320613   1.547   0.518   1.098 -2.0255 -0.8074  0.3334
 5210SOL    MW420614   1.532   0.592   1.141  0.1148 -0.2109  0.1765
 5211SOL     OW20615   4.610   0.902   0.194  0.2200  0.2154 -0.1060
 5211SOL    HW220616   4.647   0.822   0.157  0.0457 -0.3878  0.9709
 5211SOL    HW320617   4.532   0.919   0.141  0.8877  0.3429 -1.0805
 5211SOL    MW420618   4.604   0.894   0.182  0.2851  0.1527 -0.0925
 5212SOL     OW20619   1.313   3.177   1.171  0.1462  0.4666 -0.5014
 5212SOL    HW220620   1.375   3.106   1.180  2.0962  2.3303  2.5406
 5212SOL    HW320621   1.244   3.158   1.235 -0.3745  0.3562 -1.0848
 5212SOL    MW420622   1.312   3.165   1.181  0.3348  0.6979 -0.1770
 5213SOL     OW20623   3.757   4.218   1.919  0.8789  0.2041  0.3691
 5213SOL    HW220624   3.663   4.213   1.904  0.8718  1.0846  0.0900
 5213SOL    HW320625   3.774   4.311   1.935  1.8010  0.1593 -0.2960
 5213SOL    MW420626   3.747   4.230   1.919  0.9997  0.3143  0.2445
 5214SOL     OW20627   3.979   1.053   6.379  0.1302  0.1207 -0.1515
 5214SOL    HW220628   3.951   1.062   6.288 -0.0897  0.9364 -0.0032
 5214SOL    HW320629   4.030   1.132   6.396  0.3173 -0.1138  0.3894
 5214SOL    MW420630   3.982   1.065   6.369  0.1259  0.1974 -0.0605
 5215SOL     OW20631   4.293   2.266   3.920  0.1096  0.4892  0.9204
 5215SOL    HW220632   4.358   2.199   3.941 -1.6605 -1.1637  1.3675
 5215SOL    HW320633   4.217   2.245   3.975 -1.8587  0.6136 -1.5553
 5215SOL    MW420634   4.291   2.254   3.930 -0.3836  0.2875  0.6527
 5216SOL     OW20635   0.805   0.213   0.190 -0.4186 -0.4012 -0.1503
 5216SOL    HW220636   0.752   0.194   0.267 -1.7603 -0.8733 -1.1584
 5216SOL    HW320637   0.743   0.213   0.117  0.2010  3.3172 -0.8706
 5216SOL    MW420638   0.790   0.211   0.191 -0.5138  0.0271 -0.3784
 5217SOL     OW20639   4.655   2.895   2.161  0.5360  0.4584 -0.3458
 5217SOL    HW220640   4.723   2.906   2.227  0.6911 -0.5985 -0.3117
 5217SOL    HW320641   4.634   2.984   2.133 -1.0708  1.1430  2.6538
 5217SOL    MW420642   4.661   2.908   2.166  0.3445  0.4093  0.0544
 5218SOL     OW20643   1.228   1.338   2.872  0.0510  0.1332  0.1945
 5218SOL    HW220644   1.161   1.406   2.876  0.3874  0.4341  1.0198
 5218SOL    HW320645   1.274   1.345   2.956  2.4721  1.2997 -1.1407
 5218SOL    MW420646   1.225   1.348   2.884  0.4148  0.3268  0.1272
 5219SOL     OW20647   5.478   4.624   3.853 -0.3842  0.0074  0.2090
 5219SOL    HW220648   5.515   4.594   3.936 -1.8316  0.5383  1.0820
 5219SOL    HW320649   5.552   4.624   3.793  0.2660 -2.6931  0.8392
 5219SOL    MW420650   5.492   4.620   3.856 -0.4894 -0.2789  0.4073
 5220SOL     OW20651   3.756   5.020   0.652  0.1614  0.0694 -0.1755
 5220SOL    HW220652   3.824   4.966   0.612  1.8636  2.7938 -1.2507
 5220SOL    HW320653   3.802   5.069   0.720 -1.2915  0.2708  0.6941
 5220SOL    MW420654   3.771   5.019   0.655  0.1943  0.4554 -0.2026
 5221SOL     OW20655   2.272   3.506   0.474 -0.0484  0.2825  0.5525
 5221SOL    HW220656   2.335   3.523   0.544 -0.1870  1.2824  0.4617
 5221SOL    HW320657   2.242   3.594   0.448  0.4458 -0.0196 -1.1630
 5221SOL    MW420658   2.276   3.520   0.480 -0.0015  0.3746  0.3142
 5222SOL     OW20659   2.409   2.814   1.439  0.1480 -0.6200 -0.3812
 5222SOL    HW220660   2.318   2.785   1.434 -0.1248 -0.1091  1.3302
 5222SOL    HW320661   2.405   2.908   1.423  0.5586 -0.7916 -1.6350
 5222SOL    MW420662   2.396   2.822   1.436  0.1661 -0.5752 -0.3208
 5223SOL     OW20663   3.050   6.405   3.484  0.1555 -0.5132 -0.3701
 5223SOL    HW220664   3.004   6.338   3.434 -0.5074  0.6559 -1.3834
 5223SOL    HW320665   2.987   6.431   3.553 -0.3998  0.4504 -1.2073
 5223SOL    MW420666   3.035   6.400   3.487 -0.0052 -0.2318 -0.6143
 5224SOL     OW20667   4.040   4.112   4.878 -0.4476 -0.7073 -0.4297
 5224SOL    HW220668   4.066   4.051   4.809  0.1440 -0.1795 -0.6866
 5224SOL    HW320669   3.981   4.174   4.835 -1.5726 -1.4579 -0.0206
 5224SOL    MW420670   4.036   4.112   4.863 -0.5180 -0.7367 -0.4096
 5225SOL     OW20671   2.868   1.862   5.292  0.1610  0.2264 -0.1201
 5225SOL    HW220672   2.858   1.951   5.258 -2.2170 -0.4366 -1.3759
 5225SOL    HW320673   2.912   1.814   5.223  1.8319  0.4646  0.7280
 5225SOL    MW420674   2.873   1.868   5.279  0.0677  0.1703 -0.1739
 5226SOL     OW20675   1.744   3.673   6.347 -0.3933 -0.2633  0.6714
 5226SOL    HW220676   1.782   3.669   6.259 -0.2063  2.3768  0.5519
 5226SOL    HW320677   1.693   3.592   6.355 -1.0985 -0.1926 -2.1893
 5226SOL    MW420678   1.742   3.662   6.336 -0.4617  0.0944  0.2782
 5227SOL     OW20679   3.473   5.002   5.665  0.0385 -0.4259 -0.3305
 5227SOL    HW220680   3.416   5.057   5.612  0.3368  0.7056  0.4727
 5227SOL    HW320681   3.418   4.928   5.692 -0.3610 -0.5478 -1.4596
 5227SOL    MW420682   3.458   5.000   5.662  0.0251 -0.2927 -0.3735
 5228SOL     OW20683   3.127   3.820   5.854  0.8315  0.1191  0.0986
 5228SOL    HW220684   3.083   3.897   5.818 -0.8219 -1.1506 -0.7072
 5228SOL    HW320685   3.096   3.815   5.945 -0.0247 -0.2657 -0.2063
 5228SOL    MW420686   3.117   3.830   5.861  0.5004 -0.0992 -0.0479
 5229SOL     OW20687   4.521   4.238   1.125  0.0988 -0.1841  0.2550
 5229SOL    HW220688   4.478   4.157   1.152  0.1712 -0.7789 -1.3258
 5229SOL    HW320689   4.461   4.307   1.154 -0.5323 -0.8582  0.5934
 5229SOL    MW420690   4.507   4.236   1.133  0.0251 -0.3515  0.0911
 5230SOL     OW20691   3.276   4.045   0.161  0.3281  0.7328  0.3296
 5230SOL    HW220692   3.328   4.125   0.153 -0.7318  1.6855  2.2191
 5230SOL    HW320693   3.334   3.983   0.206  1.5740 -0.0628 -2.1857
 5230SOL    MW420694   3.290   4.047   0.166  0.3527  0.7535  0.2470
 5231SOL     OW20695   4.726   5.171   0.305 -0.5768 -0.5240 -0.6673
 5231SOL    HW220696   4.663   5.120   0.356  0.1655 -0.5966  0.2004
 5231SOL    HW320697   4.799   5.185   0.364 -0.8213  1.7426 -0.7974
 5231SOL    MW420698   4.727   5.166   0.319 -0.5111 -0.2345 -0.5700
 5232SOL     OW20699   4.988   3.064   0.122 -0.5113  0.1833  0.5189
 5232SOL    HW220700   5.044   3.011   0.066 -0.2682  0.3198  0.6311
 5232SOL    HW320701   4.921   3.003   0.154 -1.5570  0.4132 -1.1083
 5232SOL    MW420702   4.986   3.049   0.119 -0.6172  0.2316  0.3190
 5233SOL     OW20703   2.696   3.430   5.048 -0.3285  0.6247 -0.8892
 5233SOL    HW220704   2.751   3.363   5.088 -2.1041 -0.7688 -0.6437
 5233SOL    HW320705   2.649   3.384   4.979  0.0055  2.1659 -2.2205
 5233SOL    MW420706   2.697   3.415   5.044 -0.5187  0.6441 -1.0325
 5234SOL     OW20707   0.568   0.153   1.262 -0.6205  0.0677  0.2823
 5234SOL    HW220708   0.545   0.240   1.230 -1.8672 -1.0835 -2.1752
 5234SOL    HW320709   0.644   0.127   1.209 -0.1816 -0.3213  1.0783
 5234SOL    MW420710   0.575   0.161   1.251 -0.7270 -0.1355  0.0631
 5235SOL     OW20711   6.322   5.267   4.081 -0.0629  0.0992  0.0961
 5235SOL    HW220712   6.408   5.265   4.124 -0.5126 -1.5677  1.0016
 5235SOL    HW320713   6.314   5.181   4.040 -1.7934 -0.2447  1.0750
 5235SOL    MW420714   6.332   5.255   4.081 -0.3506 -0.1661  0.3448
 5236SOL     OW20715   5.685   3.132   0.640  0.6688  0.0975 -0.3501
 5236SOL    HW220716   5.681   3.225   0.620  1.4493 -0.1082 -1.5372
 5236SOL    HW320717   5.676   3.088   0.555 -1.6704 -0.9993  0.3642
 5236SOL    MW420718   5.683   3.139   0.626  0.4631 -0.0744 -0.4125
 5237SOL     OW20719   5.490   5.657   0.865  0.2854 -0.1293 -0.3065
 5237SOL    HW220720   5.409   5.608   0.852  0.4268 -0.2975 -0.5724
 5237SOL    HW320721   5.528   5.662   0.777  0.1296  0.7056 -0.3326
 5237SOL    MW420722   5.484   5.651   0.852  0.2835 -0.0413 -0.3450
 5238SOL     OW20723   5.254   5.088   0.323 -0.2061 -0.1227 -0.3856
 5238SOL    HW220724   5.326   5.144   0.293 -1.0409  1.6433  0.7333
 5238SOL    HW320725   5.178   5.120   0.275 -0.2545 -2.2667 -1.8935
 5238SOL    MW420726   5.254   5.100   0.312 -0.3227 -0.1725 -0.4369
 5239SOL     OW20727   4.989   1.385   4.164 -0.0153 -0.2012 -0.2641
 5239SOL    HW220728   5.033   1.300   4.152  0.8833  0.4139 -1.5421
 5239SOL    HW320729   4.904   1.362   4.202  0.3205 -1.6616 -0.3131
 5239SOL    MW420730   4.984   1.371   4.167  0.1476 -0.3127 -0.4392
 5240SOL     OW20731   1.864   1.855   3.821  0.0346 -0.4624  0.1751
 5240SOL    HW220732   1.776   1.827   3.847 -0.1622  0.1591  0.2138
 5240SOL    HW320733   1.920   1.779   3.836 -0.6383 -1.1335 -0.6061
 5240SOL    MW420734   1.859   1.841   3.826 -0.0802 -0.4689  0.0771
 5241SOL     OW20735   2.249   2.916   3.608  0.2457  0.3441 -0.1497
 5241SOL    HW220736   2.181   2.947   3.668 -0.6500 -0.7163 -0.5800
 5241SOL    HW320737   2.331   2.930   3.655 -0.4164 -0.2064  1.2015
 5241SOL    MW420738   2.251   2.922   3.622  0.0401  0.1316 -0.0282
 5242SOL     OW20739   1.420   5.588   1.024  0.0685 -0.0712  0.3059
 5242SOL    HW220740   1.348   5.611   1.083 -1.4279 -1.9982 -0.6498
 5242SOL    HW320741   1.441   5.497   1.044 -0.4662 -0.7893 -2.0109
 5242SOL    MW420742   1.413   5.579   1.034 -0.1995 -0.4202 -0.1258
 5243SOL     OW20743   5.026   2.308   2.226 -0.2619 -0.3680 -0.1665
 5243SOL    HW220744   5.085   2.382   2.238 -0.6688 -0.1766  0.7478
 5243SOL    HW320745   5.078   2.244   2.177  0.5276  0.0120  0.1516
 5243SOL    MW420746   5.041   2.309   2.221 -0.2114 -0.2926 -0.0039
 5244SOL     OW20747   0.733   1.712   5.911 -0.6774  0.3212 -0.1068
 5244SOL    HW220748   0.701   1.693   5.822  0.6795 -0.3715 -0.4755
 5244SOL    HW320749   0.672   1.778   5.944 -2.0519 -0.4163 -1.0178
 5244SOL    MW420750   0.721   1.718   5.904 -0.6797  0.1325 -0.2757
 5245SOL     OW20751   0.922   2.105   3.650  0.1019 -0.0835  0.5572
 5245SOL    HW220752   0.922   2.178   3.588 -0.4898  0.2868  0.9858
 5245SOL    HW320753   0.959   2.141   3.730  3.4714 -1.2645 -0.3331
 5245SOL    MW420754   0.927   2.119   3.652  0.4684 -0.1905  0.4963
 5246SOL     OW20755   2.678   3.002   5.222  0.1579 -0.6810  0.3669
 5246SOL    HW220756   2.716   2.915   5.232 -0.0625 -0.8229 -0.0222
 5246SOL    HW320757   2.615   3.009   5.294 -0.0267 -0.9510  0.2304
 5246SOL    MW420758   2.675   2.991   5.233  0.1045 -0.7353  0.2976
 5247SOL     OW20759   0.098   6.306   3.773  0.8544  0.3114  0.3448
 5247SOL    HW220760   0.043   6.243   3.727  1.0252  1.2637 -1.2295
 5247SOL    HW320761   0.171   6.322   3.714  1.4491  1.0640  1.2508
 5247SOL    MW420762   0.100   6.300   3.759  0.9554  0.5363  0.2566
 5248SOL     OW20763   3.181   1.044   3.375 -0.0782 -0.2958  0.5502
 5248SOL    HW220764   3.093   1.050   3.337  0.0821  0.4019  0.2722
 5248SOL    HW320765   3.166   1.018   3.466 -0.5191 -1.0327  0.2722
 5248SOL    MW420766   3.167   1.042   3.382 -0.1152 -0.3009  0.4768
 5249SOL     OW20767   5.255   5.849   3.459  0.0981 -0.0757  0.5844
 5249SOL    HW220768   5.306   5.778   3.499  0.4536 -0.1142  0.0700
 5249SOL    HW320769   5.173   5.807   3.433  0.2040 -0.2387  0.5106
 5249SOL    MW420770   5.251   5.834   3.461  0.1590 -0.1023  0.5068
 5250SOL     OW20771   3.385   2.065   2.603  0.0445  0.7400  0.0744
 5250SOL    HW220772   3.319   2.132   2.619  1.5136  2.4130 -0.5045
 5250SOL    HW320773   3.464   2.098   2.646  1.1183 -0.0416 -1.2105
 5250SOL    MW420774   3.387   2.078   2.611  0.3800  0.8576 -0.1715
 5251SOL     OW20775   0.996   0.349   2.836  0.0330  0.0805  0.2769
 5251SOL    HW220776   1.066   0.388   2.888 -0.2882 -0.1645  0.9059
 5251SOL    HW320777   1.019   0.370   2.745  0.3548  0.9106  0.5405
 5251SOL    MW420778   1.008   0.357   2.830  0.0331  0.1577  0.3947
 5252SOL     OW20779   0.977   3.258   0.341 -0.2819  0.0711 -0.2012
 5252SOL    HW220780   0.999   3.172   0.376  1.3613 -0.0387 -1.4392
 5252SOL    HW320781   0.911   3.241   0.274 -0.4442 -0.1396  0.0100
 5252SOL    MW420782   0.971   3.244   0.337 -0.0865  0.0288 -0.3367
 5253SOL     OW20783   3.908   0.153   3.019 -0.2433 -0.1402 -0.5300
 5253SOL    HW220784   3.878   0.062   3.025  1.4494 -0.6359  2.3063
 5253SOL    HW320785   3.971   0.152   2.947 -0.0482 -1.2977 -0.3669
 5253SOL    MW420786   3.912   0.141   3.010  0.0057 -0.3584 -0.1343
 5254SOL     OW20787   5.903   5.022   5.552 -0.1514 -0.3694 -0.0167
 5254SOL    HW220788   5.821   4.974   5.565  0.2081 -1.3352 -1.0811
 5254SOL    HW320789   5.916   5.070   5.634 -2.4415  0.8742 -0.2962
 5254SOL    MW420790   5.894   5.022   5.564 -0.4061 -0.3328 -0.1940
 5255SOL     OW20791   6.378   4.689   5.276  0.0855  0.8749  0.1664
 5255SOL    HW220792   6.306   4.717   5.219  1.2540  1.0524 -1.2860
 5255SOL    HW320793   6.400   4.602   5.244 -0.1773  0.3745  1.3204
 5255SOL    MW420794   6.371   4.681   5.264  0.2050  0.8323  0.1270
 5256SOL     OW20795   5.081   2.644   4.085 -0.0026 -0.1443  0.0688
 5256SOL    HW220796   5.077   2.710   4.016  0.7401 -0.0705  0.0888
 5256SOL    HW320797   5.172   2.644   4.114  0.5737 -2.6945 -1.4282
 5256SOL    MW420798   5.092   2.653   4.080  0.1714 -0.4710 -0.1261
 5257SOL     OW20799   4.735   3.823   3.522 -1.0584 -0.6349 -0.3310
 5257SOL    HW220800   4.822   3.855   3.547 -1.2537 -0.2514 -0.1340
 5257SOL    HW320801   4.752   3.738   3.482 -0.3981  0.3007 -2.1304
 5257SOL    MW420802   4.749   3.816   3.520 -0.9970 -0.4608 -0.5424
 5258SOL     OW20803   6.147   3.658   5.420  0.0549  0.1008  0.1577
 5258SOL    HW220804   6.169   3.565   5.423 -0.4000 -0.0957 -1.5512
 5258SOL    HW320805   6.100   3.674   5.502  2.1306 -0.6001  1.5610
 5258SOL    MW420806   6.143   3.648   5.431  0.2688 -0.0176  0.1174
 5259SOL     OW20807   5.045   6.285   6.246  0.3413 -0.4090 -0.1974
 5259SOL    HW220808   4.973   6.251   6.299  0.0719  0.8786  0.2864
 5259SOL    HW320809   5.086   6.206   6.209 -1.4347 -1.1631 -0.6891
 5259SOL    MW420810   5.041   6.270   6.248  0.0714 -0.3386 -0.1985
 5260SOL     OW20811   5.258   1.298   3.482 -0.5708 -0.7481  0.5019
 5260SOL    HW220812   5.206   1.313   3.403 -1.2160 -0.7249  0.9213
 5260SOL    HW320813   5.306   1.217   3.464 -1.1156 -1.0326  0.2909
 5260SOL    MW420814   5.257   1.290   3.469 -0.7278 -0.7826  0.5294
 5261SOL     OW20815   4.094   2.627   5.960  0.1666  0.1392  0.4151
 5261SOL    HW220816   4.039   2.697   5.926 -2.5830 -1.2798  1.5597
 5261SOL    HW320817   4.090   2.638   6.055  2.3423  0.2586  0.5395
 5261SOL    MW420818   4.086   2.638   5.968  0.0909 -0.0323  0.5825
 5262SOL     OW20819   3.972   5.107   2.680 -0.4506  0.0170 -0.1205
 5262SOL    HW220820   4.036   5.038   2.701 -0.0088  0.6122  0.5188
 5262SOL    HW320821   3.954   5.095   2.587 -0.6969 -1.2259  0.0708
 5262SOL    MW420822   3.978   5.096   2.671 -0.4248 -0.0684 -0.0110
 5263SOL     OW20823   5.906   6.168   1.831 -0.3338  0.1632  0.2641
 5263SOL    HW220824   5.940   6.248   1.872  0.3485 -0.2166  0.4486
 5263SOL    HW320825   5.812   6.171   1.849 -0.0617  0.0324  1.8436
 5263SOL    MW420826   5.898   6.179   1.839 -0.2079  0.0958  0.4968
 5264SOL     OW20827   3.297   3.940   3.049 -0.3663  0.0332 -0.4881
 5264SOL    HW220828   3.244   4.015   3.023  1.2991  1.3753 -0.2195
 5264SOL    HW320829   3.261   3.867   3.000 -1.0914  1.3062 -1.9490
 5264SOL    MW420830   3.285   3.940   3.039 -0.2423  0.3782 -0.6454
 5265SOL     OW20831   2.461   5.084   4.424  0.2383  0.6795 -0.3028
 5265SOL    HW220832   2.467   5.174   4.456  0.7657  0.3461  0.5775
 5265SOL    HW320833   2.469   5.092   4.329 -1.9704  1.7463 -0.4666
 5265SOL    MW420834   2.463   5.097   4.416  0.0165  0.7763 -0.2082
 5266SOL     OW20835   4.749   2.140   3.622  0.3970 -0.0766  0.2146
 5266SOL    HW220836   4.668   2.098   3.650  0.6858 -1.3676 -0.8030
 5266SOL    HW320837   4.722   2.201   3.553  0.3083 -0.7355 -0.3477
 5266SOL    MW420838   4.735   2.143   3.616  0.4234 -0.3339  0.0062
 5267SOL     OW20839   2.025   5.820   2.860  0.5664  0.4027  0.4005
 5267SOL    HW220840   2.121   5.822   2.863  0.6341  1.3982 -1.0910
 5267SOL    HW320841   2.004   5.834   2.767 -1.0357  2.3539  0.9833
 5267SOL    MW420842   2.035   5.822   2.848  0.3639  0.7915  0.2806
 5268SOL     OW20843   4.846   2.148   5.183 -0.1724 -0.1214  0.2329
 5268SOL    HW220844   4.938   2.159   5.206 -0.6751  1.5901  1.6445
 5268SOL    HW320845   4.808   2.102   5.258 -0.4584 -0.9624 -0.4120
 5268SOL    MW420846   4.853   2.143   5.196 -0.2764 -0.0065  0.3341
 5269SOL     OW20847   0.981   1.629   2.573 -0.0981  0.5615 -0.3958
 5269SOL    HW220848   0.957   1.717   2.602 -1.6979  0.1204 -0.2485
 5269SOL    HW320849   0.960   1.573   2.648  0.2311 -0.0364 -0.7414
 5269SOL    MW420850   0.975   1.633   2.587 -0.2658  0.4244 -0.4220
 5270SOL     OW20851   0.415   6.088   2.522  0.0503 -0.5425 -0.0179
 5270SOL    HW220852   0.321   6.082   2.505  0.0909 -1.8329  0.1054
 5270SOL    HW320853   0.421   6.098   2.617  0.0048  1.1271 -0.1662
 5270SOL    MW420854   0.404   6.089   2.532  0.0497 -0.4924 -0.0212
 5271SOL     OW20855   3.669   6.271   3.963 -0.1465 -0.6490  0.3746
 5271SOL    HW220856   3.595   6.213   3.944 -0.3235 -0.7612  1.3896
 5271SOL    HW320857   3.641   6.323   4.038  0.9314 -0.9414  1.0069
 5271SOL    MW420858   3.655   6.270   3.970 -0.0277 -0.7024  0.5920
 5272SOL     OW20859   4.708   5.969   2.710  0.2456  0.2478  0.3328
 5272SOL    HW220860   4.699   5.897   2.647  0.7642 -0.2907  0.8614
 5272SOL    HW320861   4.645   6.034   2.681  1.9995  1.0058 -2.1447
 5272SOL    MW420862   4.699   5.968   2.698  0.5454  0.2768  0.0757
 5273SOL     OW20863   0.886   2.020   3.004 -0.0894 -0.0251 -0.3623
 5273SOL    HW220864   0.895   2.098   3.058 -0.6554 -0.2787  0.0960
 5273SOL    HW320865   0.825   2.045   2.934  1.4538  0.6421 -1.5381
 5273SOL    MW420866   0.879   2.033   3.002  0.0395  0.0295 -0.4570
 5274SOL     OW20867   1.825   4.042   2.021 -0.0987 -0.1799 -0.0345
 5274SOL    HW220868   1.864   4.079   1.941 -1.2617  2.1817  0.4111
 5274SOL    HW320869   1.897   4.041   2.084  0.7151 -1.6342 -0.9241
 5274SOL    MW420870   1.840   4.047   2.019 -0.1448 -0.0602 -0.0931
 5275SOL     OW20871   2.846   5.638   1.860  0.0959  0.0876 -0.5225
 5275SOL    HW220872   2.789   5.675   1.928  1.2478  0.1560  0.4412
 5275SOL    HW320873   2.791   5.573   1.816 -0.8272  0.3769  0.1596
 5275SOL    MW420874   2.831   5.635   1.863  0.1261  0.1348 -0.3054
 5276SOL     OW20875   3.268   0.050   2.909  0.8087 -0.0046  0.6969
 5276SOL    HW220876   3.353   0.066   2.870  0.3217 -1.6264 -1.2206
 5276SOL    HW320877   3.232   0.137   2.927  1.9925  0.7377 -0.4156
 5276SOL    MW420878   3.274   0.064   2.907  0.9006 -0.1206  0.2971
 5277SOL     OW20879   4.688   0.053   2.894  0.2882  0.2860  0.7963
 5277SOL    HW220880   4.732   0.044   2.978  0.1520 -0.5773  0.7802
 5277SOL    HW320881   4.642  -0.030   2.882 -0.2661  0.6708  0.1981
 5277SOL    MW420882   4.687   0.041   2.904  0.1971  0.2229  0.7153
 5278SOL     OW20883   0.138   3.599   3.671 -0.5618 -0.2209  0.0683
 5278SOL    HW220884   0.121   3.553   3.753  1.5956  0.1004  0.7544
 5278SOL    HW320885   0.163   3.687   3.697  1.0076 -0.3562 -0.8345
 5278SOL    MW420886   0.139   3.604   3.685 -0.0701 -0.1964  0.0397
 5279SOL     OW20887   2.222   3.192   2.720  0.6877 -0.5549 -0.2276
 5279SOL    HW220888   2.232   3.103   2.753  2.7433 -0.4149 -0.3760
 5279SOL    HW320889   2.232   3.184   2.625 -1.7949 -0.4820 -0.5704
 5279SOL    MW420890   2.225   3.180   2.712  0.6314 -0.5268 -0.2924
 5280SOL     OW20891   4.655   4.754   5.802 -0.0888  0.0351 -0.3231
 5280SOL    HW220892   4.649   4.812   5.726  0.7123 -1.0731 -1.2696
 5280SOL    HW320893   4.635   4.810   5.876 -0.5392  1.2393 -1.3151
 5280SOL    MW420894   4.652   4.769   5.802 -0.0425  0.0478 -0.5788
 5281SOL     OW20895   4.133   5.119   6.203  0.2493  0.1837 -0.0241
 5281SOL    HW220896   4.046   5.130   6.164 -0.1437 -0.9155  0.5076
 5281SOL    HW320897   4.133   5.180   6.277  0.2260  0.7364 -0.4633
 5281SOL    MW420898   4.121   5.129   6.207  0.1944  0.1116 -0.0119
 5282SOL     OW20899   1.167   5.822   1.552  0.1652  0.2027  0.0082
 5282SOL    HW220900   1.148   5.747   1.497 -2.1288 -0.3848  1.4542
 5282SOL    HW320901   1.128   5.897   1.505  1.2313  0.2863 -0.7654
 5282SOL    MW420902   1.159   5.822   1.539  0.0032  0.1362  0.0969
 5283SOL     OW20903   4.845   4.284   1.598 -0.0552 -0.3978  0.4767
 5283SOL    HW220904   4.778   4.269   1.666 -0.3826  0.0689  0.2651
 5283SOL    HW320905   4.807   4.246   1.519 -1.6042  2.7529 -0.4460
 5283SOL    MW420906   4.831   4.277   1.597 -0.3028  0.0794  0.3270
 5284SOL     OW20907   6.171   4.531   2.037  0.8296 -0.1206  0.1609
 5284SOL    HW220908   6.231   4.458   2.022 -0.3195 -1.1375  0.3606
 5284SOL    HW320909   6.228   4.607   2.045  2.0552 -0.9682 -0.1607
 5284SOL    MW420910   6.187   4.531   2.036  0.8397 -0.3666  0.1448
 5285SOL     OW20911   0.436   1.593   5.689  0.6305  0.5236 -0.4497
 5285SOL    HW220912   0.459   1.684   5.708 -0.7828  0.7853  0.1802
 5285SOL    HW320913   0.425   1.552   5.775  1.2799 -0.2503 -0.7286
 5285SOL    MW420914   0.437   1.600   5.703  0.5297  0.4560 -0.4034
 5286SOL     OW20915   0.216   2.354   3.225  0.0809 -0.3620  0.6536
 5286SOL    HW220916   0.268   2.300   3.285  0.4433 -0.0535  0.6177
 5286SOL    HW320917   0.168   2.414   3.281  2.3220  1.6479  0.5556
 5286SOL    MW420918   0.216   2.354   3.240  0.4244 -0.0561  0.6359
 5287SOL     OW20919   0.035   0.247   1.245 -0.0350  0.4316  0.4656
 5287SOL    HW220920   0.030   0.162   1.203  0.7570  0.1486  0.9335
 5287SOL    HW320921   0.087   0.301   1.185  0.3094  0.2918  0.6331
 5287SOL    MW420922   0.041   0.243   1.232  0.1149  0.3758  0.5494
 5288SOL     OW20923   4.113   5.986   4.456  0.2295 -0.2856  0.5204
 5288SOL    HW220924   4.198   5.947   4.477  0.1306 -0.4704  0.5865
 5288SOL    HW320925   4.115   5.999   4.362 -1.1464 -3.9717 -0.1790
 5288SOL    MW420926   4.125   5.982   4.447  0.0349 -0.7964  0.4369
 5289SOL     OW20927   0.387   5.422   0.223  0.0586 -0.1144 -0.2203
 5289SOL    HW220928   0.420   5.486   0.159  1.3836 -1.1822 -0.6545
 5289SOL    HW320929   0.416   5.457   0.308  0.1883  0.2011 -0.3907
 5289SOL    MW420930   0.395   5.435   0.226  0.2506 -0.2137 -0.3001
 5290SOL     OW20931   5.633   1.120   2.071  0.1159 -0.1447 -0.0421
 5290SOL    HW220932   5.607   1.158   1.987 -1.6102 -0.4284  0.3239
 5290SOL    HW320933   5.630   1.193   2.132  0.6032 -0.0970 -0.0726
 5290SOL    MW420934   5.629   1.134   2.068 -0.0476 -0.1758  0.0022
 5291SOL     OW20935   4.691   5.891   2.150  0.0004  0.0289 -0.1002
 5291SOL    HW220936   4.670   5.921   2.238  0.7209  0.1201  0.0437
 5291SOL    HW320937   4.645   5.952   2.092 -0.7358 -0.2243  0.2059
 5291SOL    MW420938   4.682   5.903   2.154 -0.0017  0.0075 -0.0408
 5292SOL     OW20939   4.926   1.195   4.608 -0.3703 -0.1829  0.2757
 5292SOL    HW220940   4.875   1.237   4.677 -0.1277  1.2225 -0.3565
 5292SOL    HW320941   4.944   1.107   4.641  0.4645  0.7038  2.4051
 5292SOL    MW420942   4.922   1.189   4.621 -0.2281  0.1195  0.4733
 5293SOL     OW20943   2.964   4.936   2.480  0.3129 -0.1432  0.0077
 5293SOL    HW220944   2.881   4.892   2.462  0.1736  0.1570 -0.0934
 5293SOL    HW320945   3.016   4.871   2.528  0.1484 -0.4493 -0.2214
 5293SOL    MW420946   2.960   4.921   2.484  0.2729 -0.1440 -0.0359
 5294SOL     OW20947   1.430   5.078   0.822  0.1792 -0.1285 -0.4356
 5294SOL    HW220948   1.492   5.057   0.892  1.0070  1.6136 -0.5804
 5294SOL    HW320949   1.484   5.076   0.742  0.1560  1.6673 -0.5351
 5294SOL    MW420950   1.446   5.075   0.821  0.2853  0.3383 -0.4678
 5295SOL     OW20951   1.301   2.954   3.199 -0.6832  0.0832 -0.4211
 5295SOL    HW220952   1.214   2.994   3.199 -0.4276  0.8087 -2.6579
 5295SOL    HW320953   1.284   2.861   3.185 -1.1366 -0.0301  0.7672
 5295SOL    MW420954   1.287   2.947   3.197 -0.7093  0.1640 -0.5594
 5296SOL     OW20955   0.186   2.144   0.083 -0.3006  0.0880  0.0112
 5296SOL    HW220956   0.224   2.082   0.145 -0.8758 -2.0505 -1.6872
 5296SOL    HW320957   0.256   2.164   0.022 -0.3717  0.4360  0.0388
 5296SOL    MW420958   0.200   2.139   0.083 -0.3859 -0.1482 -0.2093
 5297SOL     OW20959   2.831   0.698   0.468 -0.1408  0.6036  0.6763
 5297SOL    HW220960   2.891   0.642   0.517 -1.2413 -0.1467  1.1804
 5297SOL    HW320961   2.889   0.758   0.420  0.9817  0.6890  2.0765
 5297SOL    MW420962   2.847   0.699   0.468 -0.1379  0.5159  0.9276
 5298SOL     OW20963   5.547   1.920   3.775 -0.3648  0.9337 -0.1036
 5298SOL    HW220964   5.603   1.888   3.704  1.1202  0.0952  1.3811
 5298SOL    HW320965   5.460   1.928   3.735 -0.4066 -2.9062 -1.2104
 5298SOL    MW420966   5.543   1.917   3.760 -0.1744  0.3164 -0.0537
 5299SOL     OW20967   1.264   5.407   4.695  0.3784 -0.3064  0.0940
 5299SOL    HW220968   1.285   5.372   4.781 -0.5921 -2.3989 -0.4596
 5299SOL    HW320969   1.204   5.479   4.712  0.7745 -0.2242  1.1924
 5299SOL    MW420970   1.259   5.412   4.708  0.3026 -0.5716  0.1659
 5300SOL     OW20971   4.427   1.523   6.048 -0.4286  0.0591 -0.2614
 5300SOL    HW220972   4.518   1.543   6.072  0.1688 -0.2573 -2.0918
 5300SOL    HW320973   4.427   1.525   5.952 -2.8850  2.3203 -0.3407
 5300SOL    MW420974   4.439   1.526   6.039 -0.6739  0.3157 -0.5133
 5301SOL     OW20975   1.682   2.615   5.361 -0.1813  0.1095  0.3962
 5301SOL    HW220976   1.686   2.676   5.288 -1.2131 -0.1281  0.1272
 5301SOL    HW320977   1.687   2.670   5.439 -0.2128  0.4593  0.1526
 5301SOL    MW420978   1.683   2.630   5.361 -0.3216  0.1243  0.3286
 5302SOL     OW20979   1.563   0.075   4.616  0.9026  0.8628 -0.1064
 5302SOL    HW220980   1.640   0.094   4.670  1.2509  0.0804 -0.3181
 5302SOL    HW320981   1.555   0.151   4.558  0.6596  1.6066  0.8831
 5302SOL    MW420982   1.572   0.088   4.615  0.9165  0.8577 -0.0038
 5303SOL     OW20983   5.704   1.047   5.446 -0.0584 -0.2441  0.2816
 5303SOL    HW220984   5.735   1.114   5.384 -2.5101  0.5017 -0.2527
 5303SOL    HW320985   5.699   1.093   5.529  3.0107 -1.1858  1.1094
 5303SOL    MW420986   5.708   1.062   5.449  0.0230 -0.2700  0.3203
 5304SOL     OW20987   3.612   1.209   1.759  0.0126  0.1194  0.6001
 5304SOL    HW220988   3.591   1.116   1.769  1.3340 -0.1951  0.5617
 5304SOL    HW320989   3.698   1.219   1.800  0.4661  1.0686 -0.5415
 5304SOL    MW420990   3.620   1.198   1.766  0.2468  0.2032  0.4444
 5305SOL     OW20991   5.532   4.676   3.160  0.0960 -0.2058 -0.3124
 5305SOL    HW220992   5.585   4.596   3.157 -1.4555 -1.3199  0.2567
 5305SOL    HW320993   5.442   4.645   3.146 -0.6163  1.3788  0.4929
 5305SOL    MW420994   5.527   4.661   3.158 -0.2027 -0.1437 -0.1311
 5306SOL     OW20995   2.298   5.658   3.319 -0.4760 -0.2068  0.4048
 5306SOL    HW220996   2.305   5.593   3.389 -1.5525 -1.1058 -0.2856
 5306SOL    HW320997   2.378   5.648   3.268  0.0438  0.0466  1.1594
 5306SOL    MW420998   2.309   5.648   3.321 -0.5495 -0.2920  0.4132
 5307SOL     OW20999   3.903   3.468   5.766  0.0806  0.0532  0.2658
 5307SOL    HW221000   3.923   3.552   5.808  0.4062 -0.2180  0.6614
 5307SOL    HW321001   3.975   3.411   5.792  0.3930 -0.0704 -0.8369
 5307SOL    MW421002   3.915   3.472   5.775  0.1648  0.0012  0.1725
 5308SOL     OW21003   0.515   4.404   4.585 -0.2483  0.1534 -0.6030
 5308SOL    HW221004   0.570   4.365   4.517 -0.5017 -0.1266 -0.6480
 5308SOL    HW321005   0.571   4.409   4.662 -0.5432 -1.3698 -0.2559
 5308SOL    MW421006   0.530   4.400   4.586 -0.3206 -0.0845 -0.5631
 5309SOL     OW21007   3.030   2.575   5.333  0.3013 -0.2961 -0.9639
 5309SOL    HW221008   3.115   2.542   5.363  0.4512  2.5563  2.2474
 5309SOL    HW321009   2.966   2.524   5.383  0.2279 -0.4422 -1.2047
 5309SOL    MW421010   3.032   2.564   5.343  0.3114  0.0610 -0.5720
 5310SOL     OW21011   4.383   0.420   0.830 -0.1267  0.0945 -0.4228
 5310SOL    HW221012   4.314   0.404   0.894  0.6395 -1.2887  0.1081
 5310SOL    HW321013   4.348   0.489   0.773 -1.2024  0.6937  0.9055
 5310SOL    MW421014   4.370   0.427   0.831 -0.1676 -0.0089 -0.1775
 5311SOL     OW21015   3.039   0.455   5.151  0.2868 -0.3753 -0.4126
 5311SOL    HW221016   3.098   0.445   5.076  0.0105 -0.1218 -0.6734
 5311SOL    HW321017   2.963   0.400   5.129  0.7913 -1.3919  0.3206
 5311SOL    MW421018   3.037   0.446   5.138  0.3169 -0.4760 -0.3503
 5312SOL     OW21019   3.652   3.983   5.829 -0.6233  0.0969 -0.6700
 5312SOL    HW221020   3.706   4.060   5.810  0.8688 -0.7682 -0.0838
 5312SOL    HW321021   3.566   4.020   5.850 -0.2252  1.5345 -1.3969
 5312SOL    MW421022   3.648   3.998   5.830 -0.3739  0.1725 -0.6886
 5313SOL     OW21023   4.152   1.250   0.740 -0.1884 -0.0177  0.3072
 5313SOL    HW221024   4.132   1.157   0.749  1.4855 -0.4050  0.2559
 5313SOL    HW321025   4.176   1.278   0.828 -0.8337  0.4198  0.3527
 5313SOL    MW421026   4.153   1.241   0.753 -0.0527 -0.0111  0.3064
 5314SOL     OW21027   4.292   4.211   4.826  0.2526  0.6749  0.3056
 5314SOL    HW221028   4.207   4.179   4.859 -0.2274  0.7684 -0.7956
 5314SOL    HW321029   4.285   4.307   4.834 -0.4746  0.8023 -1.4106
 5314SOL    MW421030   4.280   4.220   4.832  0.0933  0.7041 -0.0661
 5315SOL     OW21031   1.672   1.603   3.114 -0.0043 -0.0173  0.2951
 5315SOL    HW221032   1.621   1.648   3.181 -0.2159 -0.8065  0.6744
 5315SOL    HW321033   1.659   1.655   3.034  0.4846  1.0928  0.9148
 5315SOL    MW421034   1.664   1.616   3.112  0.0323  0.0251  0.4269
 5316SOL     OW21035   5.391   2.284   0.890  0.2126  0.2475  0.6973
 5316SOL    HW221036   5.346   2.343   0.829 -1.4140 -1.0212  0.5831
 5316SOL    HW321037   5.484   2.297   0.872 -0.1852  0.9767 -1.0466
 5316SOL    MW421038   5.397   2.293   0.879 -0.0545  0.1763  0.4522
 5317SOL     OW21039   4.412   5.852   6.015  0.0050 -0.1439 -0.2148
 5317SOL    HW221040   4.472   5.799   6.066 -0.7947 -1.2136 -0.3624
 5317SOL    HW321041   4.468   5.896   5.950  0.5789 -1.5493 -0.7062
 5317SOL    MW421042   4.427   5.851   6.013 -0.0248 -0.4704 -0.2991
 5318SOL     OW21043   1.143   4.598   4.626 -0.5240  0.0598 -0.0641
 5318SOL    HW221044   1.126   4.686   4.592 -0.6054  0.2804  0.5335
 5318SOL    HW321045   1.210   4.612   4.694 -1.8508 -0.0717  1.3291
 5318SOL    MW421046   1.150   4.612   4.631 -0.7098  0.0715  0.1986
 5319SOL     OW21047   0.099   4.776   4.938 -0.7126  0.0767 -0.3472
 5319SOL    HW221048   0.027   4.713   4.945 -1.7193  1.2014 -0.2433
 5319SOL    HW321049   0.171   4.725   4.901 -2.2193 -0.5955 -2.5942
 5319SOL    MW421050   0.099   4.761   4.934 -1.0442  0.1364 -0.6299
 5320SOL     OW21051   4.489   4.745   4.752 -0.0064  0.3775  0.1106
 5320SOL    HW221052   4.575   4.787   4.742  0.2430 -0.3605 -0.8698
 5320SOL    HW321053   4.441   4.805   4.810  1.1542  0.8089  0.6626
 5320SOL    MW421054   4.494   4.759   4.759  0.1796  0.3371  0.0541
 5321SOL     OW21055   4.668   0.012   0.764  0.3061 -0.0988 -0.2219
 5321SOL    HW221056   4.644   0.079   0.827  0.9464 -1.6862  1.8277
 5321SOL    HW321057   4.587  -0.036   0.747  0.4241 -0.6243  0.6395
 5321SOL    MW421058   4.654   0.014   0.770  0.4062 -0.3776  0.1622
 5322SOL     OW21059   4.997   4.468   1.424 -0.4824  0.0552 -0.4738
 5322SOL    HW221060   5.042   4.524   1.487  2.3680 -1.9620 -0.5364
 5322SOL    HW321061   4.943   4.409   1.478  0.4783 -0.4221 -0.0131
 5322SOL    MW421062   4.996   4.467   1.439  0.0204 -0.2739 -0.4213
 5323SOL     OW21063   6.226   4.469   1.347 -0.6441  0.1068  0.0450
 5323SOL    HW221064   6.196   4.482   1.437  0.4289  0.7308  0.3275
 5323SOL    HW321065   6.183   4.388   1.319  1.2028 -1.7433  2.1190
 5323SOL    MW421066   6.216   4.460   1.355 -0.2589 -0.0550  0.3559
 5324SOL     OW21067   0.726   4.014   3.654  0.0161 -0.2881  0.3676
 5324SOL    HW221068   0.767   4.099   3.665  1.6527 -1.2895  2.6426
 5324SOL    HW321069   0.651   4.016   3.714  0.0156 -0.4180  0.3716
 5324SOL    MW421070   0.721   4.025   3.663  0.2319 -0.4373  0.6683
 5325SOL     OW21071   3.617   0.286   1.648  0.0651  0.1671 -0.1081
 5325SOL    HW221072   3.561   0.212   1.622 -1.9685  1.6473 -0.1948
 5325SOL    HW321073   3.680   0.295   1.576 -0.3639 -0.7703 -0.6233
 5325SOL    MW421074   3.618   0.277   1.635 -0.2598  0.2387 -0.1875
 5326SOL     OW21075   2.973   3.109   5.035 -0.4022  0.1598 -0.2702
 5326SOL    HW221076   2.903   3.072   4.981  0.1126  2.0233 -2.3569
 5326SOL    HW321077   2.927   3.150   5.109 -1.4147  0.2926 -0.9601
 5326SOL    MW421078   2.957   3.110   5.038 -0.4679  0.4232 -0.6365
 5327SOL     OW21079   4.560   4.962   1.522 -0.1822  0.2308  0.1587
 5327SOL    HW221080   4.554   4.980   1.428 -0.5367 -0.1057  0.1168
 5327SOL    HW321081   4.588   4.871   1.527  0.4826  0.4399  0.3822
 5327SOL    MW421082   4.563   4.952   1.510 -0.1412  0.2140  0.1827
 5328SOL     OW21083   6.405   1.205   0.806 -0.1622 -0.1414  0.4962
 5328SOL    HW221084   6.361   1.120   0.799  1.3984 -0.8734 -1.5132
 5328SOL    HW321085   6.446   1.205   0.892 -0.2346 -1.4169  0.5464
 5328SOL    MW421086   6.404   1.194   0.816  0.0341 -0.4063  0.2377
 5329SOL     OW21087   6.200   5.484   0.442  0.2686  0.0842  0.3853
 5329SOL    HW221088   6.225   5.444   0.359  1.7804  1.3041  0.2069
 5329SOL    HW321089   6.142   5.420   0.483  0.0468 -0.8413 -1.2918
 5329SOL    MW421090   6.196   5.471   0.436  0.4388  0.1230  0.1405
 5330SOL     OW21091   1.790   0.916   2.154  0.1708  0.3642  0.1490
 5330SOL    HW221092   1.743   0.834   2.171  0.9261 -0.2433 -0.5844
 5330SOL    HW321093   1.871   0.908   2.205  0.3063  0.6030 -0.0293
 5330SOL    MW421094   1.795   0.904   2.163  0.2883  0.3156  0.0287
 5331SOL     OW21095   5.845   3.282   2.817 -0.0753  0.2557  0.3021
 5331SOL    HW221096   5.891   3.276   2.901 -0.5259  0.3715  0.5563
 5331SOL    HW321097   5.755   3.256   2.836 -0.2269  0.4639 -0.1081
 5331SOL    MW421098   5.839   3.278   2.831 -0.1547  0.2985  0.2815
 5332SOL     OW21099   3.819   4.240   3.402 -0.1289 -0.2536 -0.0369
 5332SOL    HW221100   3.790   4.260   3.491 -0.1261  0.3544 -0.1668
 5332SOL    HW321101   3.893   4.300   3.388  0.7362 -1.2795  0.0331
 5332SOL    MW421102   3.825   4.251   3.412 -0.0144 -0.3087 -0.0448
 5333SOL     OW21103   6.145   3.554   1.395  0.1248 -0.2768  0.1414
 5333SOL    HW221104   6.060   3.529   1.430 -0.0260  0.4592  0.3323
 5333SOL    HW321105   6.126   3.627   1.335  0.6635  0.2064  0.5449
 5333SOL    MW421106   6.131   3.561   1.391  0.1760 -0.1160  0.2198
 5334SOL     OW21107   4.352   6.296   3.817 -0.1631  0.8223 -0.2641
 5334SOL    HW221108   4.442   6.266   3.813 -0.4793 -0.3410  0.8564
 5334SOL    HW321109   4.336   6.313   3.910 -0.5703  2.7912 -0.6319
 5334SOL    MW421110   4.362   6.294   3.828 -0.2585  0.9286 -0.1648
 5335SOL     OW21111   4.418   5.598   5.025 -0.3224 -0.0589  0.4538
 5335SOL    HW221112   4.379   5.549   5.097 -0.8448  1.6252  1.3678
 5335SOL    HW321113   4.508   5.566   5.021 -0.8058 -1.4988  0.6121
 5335SOL    MW421114   4.425   5.588   5.034 -0.4551 -0.0267  0.5953
 5336SOL     OW21115   4.330   3.978   0.734 -0.1453  0.0708 -0.1474
 5336SOL    HW221116   4.237   3.997   0.733 -0.3434 -0.7490  0.5831
 5336SOL    HW321117   4.369   4.050   0.784 -0.1216  1.3682 -1.9719
 5336SOL    MW421118   4.323   3.990   0.741 -0.1683  0.1338 -0.2918
 5337SOL     OW21119   1.801   0.746   3.964 -1.1702 -0.4464  0.0512
 5337SOL    HW221120   1.814   0.815   3.899 -0.6021 -0.4587  0.1416
 5337SOL    HW321121   1.876   0.687   3.951 -0.9106 -0.3113  0.8819
 5337SOL    MW421122   1.813   0.747   3.953 -1.0610 -0.4302  0.1727
 5338SOL     OW21123   5.290   3.258   0.852  0.0896  0.3807 -0.2770
 5338SOL    HW221124   5.236   3.229   0.926  0.4706  0.4146  0.0156
 5338SOL    HW321125   5.239   3.235   0.774  0.1603 -0.6074 -0.0355
 5338SOL    MW421126   5.276   3.251   0.851  0.1492  0.2548 -0.2065
 5339SOL     OW21127   1.218   3.506   5.014  0.4428 -0.2768  0.0772
 5339SOL    HW221128   1.208   3.543   4.926  0.9624  1.4713  0.7082
 5339SOL    HW321129   1.301   3.457   5.010 -0.1714 -1.2959 -0.7314
 5339SOL    MW421130   1.228   3.505   5.002  0.4303 -0.1806  0.0538
 5340SOL     OW21131   4.603   5.400   0.150  0.0511  0.7432  0.1549
 5340SOL    HW221132   4.534   5.356   0.199 -0.5058  0.4106 -0.8761
 5340SOL    HW321133   4.624   5.478   0.201 -0.9410  0.7343  0.5890
 5340SOL    MW421134   4.597   5.405   0.163 -0.1533  0.6982  0.0761
 5341SOL     OW21135   6.235   0.068   0.008  0.1864 -1.1402  0.3025
 5341SOL    HW221136   6.297   0.088  -0.063  1.6306  0.0582  1.8168
 5341SOL    HW321137   6.187   0.150   0.020 -0.7774 -1.6587  0.0427
 5341SOL    MW421138   6.237   0.082  -0.000  0.2498 -1.0505  0.4680
 5342SOL     OW21139   0.189   5.248   4.501  0.0795  0.2420  0.2093
 5342SOL    HW221140   0.253   5.319   4.491 -0.9509  1.1842  0.0501
 5342SOL    HW321141   0.170   5.220   4.411 -0.3799  0.5737  0.2000
 5342SOL    MW421142   0.195   5.254   4.488 -0.1171  0.4101  0.1870
 5343SOL     OW21143   2.739   6.383   5.603 -0.3438  0.6094  0.3232
 5343SOL    HW221144   2.728   6.315   5.536  0.5915 -1.0690  1.7821
 5343SOL    HW321145   2.812   6.437   5.571  0.0567 -0.1391 -0.0544
 5343SOL    MW421146   2.748   6.381   5.590 -0.1676  0.2892  0.4659
 5344SOL     OW21147   0.804   0.418   0.971  0.2896  0.2488  0.1571
 5344SOL    HW221148   0.886   0.398   0.927 -0.1772 -2.4010  0.3671
 5344SOL    HW321149   0.795   0.352   1.039 -1.4146  1.2623  0.9998
 5344SOL    MW421150   0.813   0.407   0.974  0.0032  0.0329  0.2960
 5345SOL     OW21151   0.187   1.099   3.488  0.2953  0.4853  0.2620
 5345SOL    HW221152   0.141   1.124   3.408  0.4525  0.3047  0.1135
 5345SOL    HW321153   0.256   1.165   3.497  0.6873  0.1281 -0.1099
 5345SOL    MW421154   0.190   1.111   3.479  0.3677  0.4143  0.1933
 5346SOL     OW21155   1.554   4.725   0.344 -0.0372 -0.6314 -0.3161
 5346SOL    HW221156   1.486   4.676   0.299 -0.4004  0.0352 -0.5092
 5346SOL    HW321157   1.574   4.798   0.285  0.2204 -0.3330  0.1321
 5346SOL    MW421158   1.548   4.728   0.330 -0.0512 -0.5041 -0.2825
 5347SOL     OW21159   0.058   0.141   2.402  0.0211 -0.2883 -0.0347
 5347SOL    HW221160   0.116   0.083   2.451  0.2775 -0.5903 -0.6848
 5347SOL    HW321161   0.114   0.213   2.373 -0.4103  0.5791  1.2317
 5347SOL    MW421162   0.073   0.143   2.404 -0.0020 -0.2137  0.0466
 5348SOL     OW21163   0.318   6.218   5.093  0.3171  0.3194  0.2109
 5348SOL    HW221164   0.393   6.249   5.043 -0.6580 -0.0494 -1.5742
 5348SOL    HW321165   0.309   6.280   5.165  2.6044  0.0726  0.7672
 5348SOL    MW421166   0.326   6.230   5.096  0.4902  0.2382  0.0488
 5349SOL     OW21167   0.361   2.374   5.152 -0.0660 -0.6081 -0.6900
 5349SOL    HW221168   0.278   2.332   5.132 -0.4165 -0.6585  0.7721
 5349SOL    HW321169   0.338   2.465   5.171  0.5103 -0.0564 -2.3884
 5349SOL    MW421170   0.347   2.380   5.152 -0.0362 -0.5420 -0.7212
 5350SOL     OW21171   3.778   6.392   1.873 -0.5743 -0.6091  0.3136
 5350SOL    HW221172   3.812   6.358   1.956  0.8672 -0.8870 -0.3501
 5350SOL    HW321173   3.746   6.479   1.893  0.3055 -0.4468  1.0496
 5350SOL    MW421174   3.778   6.399   1.887 -0.2680 -0.6243  0.3232
 5351SOL     OW21175   0.576   1.602   0.136  0.3285 -0.3540 -0.0208
 5351SOL    HW221176   0.650   1.623   0.079 -0.0100 -0.5795 -0.5557
 5351SOL    HW321177   0.512   1.561   0.077  0.5843 -1.9957  0.7912
 5351SOL    MW421178   0.578   1.599   0.121  0.3176 -0.6004  0.0157
 5352SOL     OW21179   6.338   4.040   0.244 -0.1011 -0.2574 -0.4061
 5352SOL    HW221180   6.404   4.050   0.175  1.6211  1.2386  1.3145
 5352SOL    HW321181   6.330   3.946   0.257  2.1394 -0.5015 -0.3596
 5352SOL    MW421182   6.346   4.029   0.237  0.4217 -0.0922 -0.1729
 5353SOL     OW21183   5.612   0.649   5.063  0.0420 -0.0964  0.3314
 5353SOL    HW221184   5.520   0.625   5.051 -0.1491  0.5742  0.4219
 5353SOL    HW321185   5.623   0.653   5.159  0.0981  0.0650  0.3194
 5353SOL    MW421186   5.601   0.646   5.074  0.0242  0.0134  0.3418
 5354SOL     OW21187   1.654   5.933   4.547 -0.7319  0.0840 -0.1918
 5354SOL    HW221188   1.703   5.861   4.507 -0.1553 -0.0978  0.8052
 5354SOL    HW321189   1.624   5.986   4.473  0.9241  0.1713 -0.8377
 5354SOL    MW421190   1.656   5.931   4.532 -0.4373  0.0716 -0.1455
 5355SOL     OW21191   3.091   5.533   1.903 -0.0298  0.0957 -0.4707
 5355SOL    HW221192   3.090   5.448   1.947 -1.3047  0.1759 -0.3039
 5355SOL    HW321193   2.999   5.551   1.882  0.0545  1.9053  0.4375
 5355SOL    MW421194   3.079   5.524   1.906 -0.1869  0.3450 -0.3289
 5356SOL     OW21195   6.178   3.791   3.953 -0.0712 -0.4033  0.1936
 5356SOL    HW221196   6.261   3.745   3.962  1.6192  2.3647 -0.2559
 5356SOL    HW321197   6.153   3.813   4.043  0.0901 -0.5304  0.2697
 5356SOL    MW421198   6.186   3.788   3.966  0.1731 -0.0549  0.1443
 5357SOL     OW21199   2.093   5.917   4.625  0.0960  0.3250  0.7381
 5357SOL    HW221200   2.177   5.959   4.642  0.2446  0.7788 -0.8762
 5357SOL    HW321201   2.111   5.854   4.555 -0.6505 -0.5644  1.3189
 5357SOL    MW421202   2.106   5.914   4.618  0.0171  0.2675  0.6018
 5358SOL     OW21203   4.088   1.011   5.079  0.1156 -0.5237 -0.6160
 5358SOL    HW221204   4.011   1.041   5.032 -0.1989  1.0312  0.7926
 5358SOL    HW321205   4.139   1.090   5.096  0.6680 -1.1377  0.8244
 5358SOL    MW421206   4.085   1.025   5.075  0.1470 -0.3995 -0.2401
 5359SOL     OW21207   3.868   5.761   0.641 -0.0973 -0.4607 -0.6802
 5359SOL    HW221208   3.942   5.774   0.581 -0.8555  0.5072 -1.4264
 5359SOL    HW321209   3.881   5.826   0.710  0.4837 -1.2172 -0.0602
 5359SOL    MW421210   3.880   5.771   0.643 -0.1207 -0.4328 -0.6968
 5360SOL     OW21211   5.571   0.365   5.202 -0.3019 -0.3934 -0.3619
 5360SOL    HW221212   5.504   0.316   5.250  1.5505 -1.5208  1.2512
 5360SOL    HW321213   5.573   0.323   5.116 -1.7095 -0.2717 -0.4746
 5360SOL    MW421214   5.563   0.353   5.197 -0.2432 -0.5261 -0.1639
 5361SOL     OW21215   2.333   1.990   2.648 -0.6957 -0.1369  0.4460
 5361SOL    HW221216   2.273   1.957   2.581 -1.7873 -0.2985  1.4771
 5361SOL    HW321217   2.341   2.083   2.629  1.3932 -0.6506 -1.7049
 5361SOL    MW421218   2.326   1.998   2.637 -0.5641 -0.2260  0.2982
 5362SOL     OW21219   0.304   1.815   0.565 -0.4852 -0.2990  0.1338
 5362SOL    HW221220   0.390   1.774   0.573  0.3034  1.4786  1.1411
 5362SOL    HW321221   0.298   1.843   0.474 -0.9663 -2.3730 -0.5369
 5362SOL    MW421222   0.314   1.813   0.554 -0.4446 -0.3381  0.1782
 5363SOL     OW21223   4.787   4.468   0.175 -0.2045  0.3844 -0.0913
 5363SOL    HW221224   4.879   4.455   0.200 -0.5245  0.3443  1.1315
 5363SOL    HW321225   4.785   4.555   0.137  0.0846  1.0140  1.2783
 5363SOL    MW421226   4.799   4.477   0.173 -0.2086  0.4622  0.2508
 5364SOL     OW21227   3.050   5.047   4.894  0.7996 -0.2787 -0.0443
 5364SOL    HW221228   3.057   4.972   4.835  1.2851 -0.7988  0.6568
 5364SOL    HW321229   3.007   5.115   4.842 -0.4237 -1.3188 -0.4245
 5364SOL    MW421230   3.045   5.046   4.880  0.7022 -0.4846 -0.0020
 5365SOL     OW21231   2.898   3.342   5.458  0.0609 -0.0559 -0.5899
 5365SOL    HW221232   2.953   3.414   5.488  0.9898  0.1395 -2.5835
 5365SOL    HW321233   2.812   3.361   5.495  0.8703  0.6607  1.0345
 5365SOL    MW421234   2.894   3.354   5.467  0.2903  0.0644 -0.6386
 5366SOL     OW21235   1.682   1.885   3.579 -0.5175  0.5204 -0.0579
 5366SOL    HW221236   1.718   1.922   3.660 -0.9471 -0.7956  0.7664
 5366SOL    HW321237   1.757   1.844   3.536  0.0880  2.7497 -1.2745
 5366SOL    MW421238   1.697   1.884   3.584 -0.4943  0.6409 -0.1097
 5367SOL     OW21239   4.960   0.447   5.954 -0.3123  0.0448 -0.0872
 5367SOL    HW221240   5.021   0.487   6.015  0.5787  0.8552 -1.4505
 5367SOL    HW321241   4.877   0.443   6.001 -0.0734  2.2005  0.6039
 5367SOL    MW421242   4.957   0.452   5.968 -0.1632  0.4361 -0.1759
 5368SOL     OW21243   3.076   3.542   5.848  0.5645 -0.3450 -0.1423
 5368SOL    HW221244   3.091   3.636   5.844  1.2905 -0.4384  0.2386
 5368SOL    HW321245   3.075   3.514   5.756  0.7596 -0.0333 -0.2420
 5368SOL    MW421246   3.078   3.551   5.835  0.6860 -0.3162 -0.1052
 5369SOL     OW21247   3.612   1.630   2.803 -0.0314  0.3178 -0.3362
 5369SOL    HW221248   3.615   1.725   2.814  0.8143  0.4074 -1.2503
 5369SOL    HW321249   3.696   1.599   2.835 -0.3835 -0.1499  0.1446
 5369SOL    MW421250   3.623   1.638   2.809  0.0337  0.2679 -0.3934
 5370SOL     OW21251   5.525   6.209   3.209 -0.0576 -0.2075  0.0142
 5370SOL    HW221252   5.463   6.144   3.243  1.4179 -1.0079  1.3165
 5370SOL    HW321253   5.541   6.266   3.284 -0.8527  1.3314 -0.9451
 5370SOL    MW421254   5.519   6.208   3.224  0.0322 -0.1101  0.0595
 5371SOL     OW21255   6.361   0.025   4.800  0.1315 -0.4933  0.1796
 5371SOL    HW221256   6.328  -0.044   4.742 -1.7950  0.5240 -0.0095
 5371SOL    HW321257   6.420  -0.021   4.860  0.4582 -1.9490 -1.1684
 5371SOL    MW421258   6.364   0.010   4.800 -0.0795 -0.5511 -0.0232
 5372SOL     OW21259   0.666   2.999   2.171 -0.2700 -0.3021 -0.1752
 5372SOL    HW221260   0.651   3.091   2.147 -1.2401 -0.6653 -1.0278
 5372SOL    HW321261   0.601   2.981   2.239 -0.0883 -0.3681 -0.0172
 5372SOL    MW421262   0.656   3.009   2.177 -0.3740 -0.3587 -0.2668
 5373SOL     OW21263   0.436   0.742   3.544 -0.4010 -0.4299  0.1775
 5373SOL    HW221264   0.474   0.773   3.462  0.6935  1.6098  1.3764
 5373SOL    HW321265   0.476   0.656   3.558 -0.1950 -0.5674 -1.1359
 5373SOL    MW421266   0.446   0.735   3.535 -0.2294 -0.1789  0.1624
 5374SOL     OW21267   1.007   0.424   4.622  0.6420 -0.0505 -0.0191
 5374SOL    HW221268   1.057   0.504   4.641 -0.7360  0.7124  0.5584
 5374SOL    HW321269   0.939   0.453   4.561  1.1440 -1.1689 -1.1504
 5374SOL    MW421270   1.005   0.439   4.616  0.5264 -0.0974 -0.0922
 5375SOL     OW21271   4.643   5.238   1.914  0.6424  0.6400 -0.7856
 5375SOL    HW221272   4.610   5.159   1.871  0.3171  0.0283  0.5488
 5375SOL    HW321273   4.565   5.288   1.936  0.5768 -0.4530  1.7020
 5375SOL    MW421274   4.629   5.234   1.911  0.5908  0.4151 -0.2813
 5376SOL     OW21275   4.591   6.089   4.817  0.3032 -0.3896  0.3798
 5376SOL    HW221276   4.681   6.061   4.801  0.1476 -0.1024 -1.1277
 5376SOL    HW321277   4.549   6.013   4.857  1.5140 -0.0962  2.3154
 5376SOL    MW421278   4.597   6.075   4.820  0.4424 -0.3130  0.4363
 5377SOL     OW21279   1.241   3.560   2.607  0.0185 -0.0480 -0.1482
 5377SOL    HW221280   1.243   3.626   2.537  1.2759 -0.3698 -0.4350
 5377SOL    HW321281   1.235   3.611   2.687 -1.2071  0.3355 -0.4551
 5377SOL    MW421282   1.241   3.575   2.608  0.0227 -0.0398 -0.2266
 5378SOL     OW21283   4.129   5.217   5.442  0.2810 -0.0435 -0.1765
 5378SOL    HW221284   4.170   5.149   5.389  2.3526 -0.3431  1.6931
 5378SOL    HW321285   4.096   5.172   5.519  1.5504  0.9747  1.0171
 5378SOL    MW421286   4.130   5.202   5.445  0.7218  0.0513  0.2277
 5379SOL     OW21287   3.325   3.453   6.047 -0.3632  0.0261  0.0390
 5379SOL    HW221288   3.377   3.530   6.072 -1.4172  1.3029 -1.5311
 5379SOL    HW321289   3.234   3.482   6.058 -0.7712 -1.0875 -0.3596
 5379SOL    MW421290   3.320   3.467   6.052 -0.5561  0.0477 -0.2208
 5380SOL     OW21291   0.483   1.668   6.116  0.3752  0.1663 -0.7250
 5380SOL    HW221292   0.544   1.740   6.102  1.8378 -0.8684  0.0488
 5380SOL    HW321293   0.397   1.704   6.093  1.4254  1.1770 -3.5841
 5380SOL    MW421294   0.479   1.682   6.111  0.7068  0.1632 -1.0001
 5381SOL     OW21295   1.336   1.655   2.362  0.3066  0.0957  0.0685
 5381SOL    HW221296   1.385   1.711   2.303  0.2368 -0.7369 -0.8029
 5381SOL    HW321297   1.252   1.640   2.318  0.3718 -0.7842  0.2257
 5381SOL    MW421298   1.331   1.660   2.348  0.3059 -0.1303 -0.0257
 5382SOL     OW21299   5.527   5.674   2.235  0.1402 -0.0330  0.5963
 5382SOL    HW221300   5.565   5.657   2.148 -0.1760 -0.8234  0.6048
 5382SOL    HW321301   5.441   5.632   2.232  0.5967 -1.0943  1.6819
 5382SOL    MW421302   5.521   5.666   2.223  0.1587 -0.2773  0.7407
 5383SOL     OW21303   2.831   1.220   4.884  0.5303 -0.4398  0.3740
 5383SOL    HW221304   2.785   1.258   4.809  1.4383 -0.2228 -0.0850
 5383SOL    HW321305   2.820   1.285   4.954 -0.2416 -0.6011  0.4162
 5383SOL    MW421306   2.824   1.234   4.883  0.5482 -0.4325  0.3190
 5384SOL     OW21307   2.100   1.237   5.931 -0.0830 -0.0885 -0.4520
 5384SOL    HW221308   2.006   1.254   5.924 -0.1111 -0.1714 -0.2849
 5384SOL    HW321309   2.106   1.152   5.975  0.0866  0.4986  0.6863
 5384SOL    MW421310   2.089   1.228   5.936 -0.0643 -0.0220 -0.2798
 5385SOL     OW21311   3.788   3.324   1.476  0.1041 -0.2699  0.2476
 5385SOL    HW221312   3.822   3.334   1.387  0.4147  0.6756  0.4522
 5385SOL    HW321313   3.788   3.413   1.511 -1.0358 -0.4852  0.8313
 5385SOL    MW421314   3.793   3.337   1.469 -0.0053 -0.1736  0.3516
 5386SOL     OW21315   4.792   5.046   1.115 -0.5909  0.1999  0.2829
 5386SOL    HW221316   4.859   5.105   1.149 -1.2755  0.2727  1.5782
 5386SOL    HW321317   4.839   4.963   1.099  0.3145  0.9655 -1.2898
 5386SOL    MW421318   4.807   5.043   1.117 -0.5618  0.3105  0.2463
 5387SOL     OW21319   3.897   5.081   6.060  0.2455 -0.2342  0.3497
 5387SOL    HW221320   3.932   5.101   5.973  0.2316 -1.9694 -0.1037
 5387SOL    HW321321   3.815   5.129   6.065  0.1422 -0.2834 -0.7012
 5387SOL    MW421322   3.891   5.090   6.049  0.2300 -0.4696  0.1512
 5388SOL     OW21323   1.137   4.678   0.607  0.0805  0.4153 -0.1615
 5388SOL    HW221324   1.158   4.770   0.623 -2.0160  1.2215 -1.6761
 5388SOL    HW321325   1.103   4.646   0.691  1.1070  0.8928  0.4596
 5388SOL    MW421326   1.135   4.686   0.620 -0.0607  0.5846 -0.2794
 5389SOL     OW21327   4.006   3.529   0.610 -0.1514 -0.8202 -0.4452
 5389SOL    HW221328   3.931   3.497   0.660  0.4817 -1.9935 -0.1985
 5389SOL    HW321329   3.998   3.624   0.613 -1.4623 -0.9194 -0.1812
 5389SOL    MW421330   3.995   3.537   0.617 -0.2409 -0.9881 -0.3778
 5390SOL     OW21331   2.369   4.408   0.656 -0.0616  0.4345  0.4082
 5390SOL    HW221332   2.422   4.460   0.716  2.5716 -0.6376 -0.8449
 5390SOL    HW321333   2.378   4.318   0.688 -0.0351  0.0732 -0.5795
 5390SOL    MW421334   2.377   4.403   0.668  0.2893  0.2454  0.1125
 5391SOL     OW21335   3.417   0.156   0.295 -0.0247  0.3714  0.2129
 5391SOL    HW221336   3.435   0.090   0.228 -2.5950 -1.2063  0.9484
 5391SOL    HW321337   3.443   0.239   0.254  1.9457 -0.8932 -1.2775
 5391SOL    MW421338   3.423   0.159   0.281 -0.1039 -0.0036  0.1133
 5392SOL     OW21339   3.000   0.569   3.772 -0.2854 -0.3795  0.2940
 5392SOL    HW221340   3.004   0.474   3.778 -0.6150 -0.4404 -0.3788
 5392SOL    HW321341   3.086   0.599   3.801 -0.1249 -0.8902  0.3441
 5392SOL    MW421342   3.012   0.561   3.777 -0.3077 -0.4549  0.2118
 5393SOL     OW21343   4.762   2.068   0.718  0.3076 -0.5103 -0.5170
 5393SOL    HW221344   4.723   2.082   0.804  0.7183 -1.3562 -0.1821
 5393SOL    HW321345   4.713   1.995   0.680 -1.2157  1.1209 -1.8659
 5393SOL    MW421346   4.750   2.060   0.724  0.1608 -0.4067 -0.6508
 5394SOL     OW21347   3.487   1.925   5.365 -0.6710 -0.0720 -0.3180
 5394SOL    HW221348   3.486   1.835   5.397  0.8560  0.3186  0.8982
 5394SOL    HW321349   3.395   1.951   5.366 -0.8837 -0.6726  2.1224
 5394SOL    MW421350   3.474   1.916   5.369 -0.4976 -0.0997  0.1645
 5395SOL     OW21351   3.980   5.909   5.382 -0.5046  0.2805 -0.2142
 5395SOL    HW221352   4.012   5.976   5.322  1.0578 -1.0917 -0.9987
 5395SOL    HW321353   3.912   5.863   5.333  0.3157 -0.4195 -0.7226
 5395SOL    MW421354   3.975   5.912   5.368 -0.1902  0.0071 -0.3848
 5396SOL     OW21355   6.002   3.344   3.478 -0.3262 -0.0480 -0.6084
 5396SOL    HW221356   6.026   3.436   3.481 -0.7499  0.0493  1.5971
 5396SOL    HW321357   6.060   3.301   3.541 -1.0995 -1.0336 -0.5299
 5396SOL    MW421358   6.013   3.350   3.487 -0.4841 -0.1652 -0.3071
 5397SOL     OW21359   4.727   4.762   1.263 -0.4708  0.1455  0.4158
 5397SOL    HW221360   4.748   4.828   1.329 -1.2127  2.0665 -1.1701
 5397SOL    HW321361   4.790   4.778   1.193  0.1842 -1.7315  0.5261
 5397SOL    MW421362   4.738   4.773   1.262 -0.4823  0.1513  0.2211
 5398SOL     OW21363   3.929   3.998   0.956  0.2126  0.0479 -0.1159
 5398SOL    HW221364   3.919   4.086   0.993 -0.8925 -0.2363  0.2867
 5398SOL    HW321365   4.013   3.968   0.990  0.5615  0.9022 -0.1740
 5398SOL    MW421366   3.939   4.006   0.965  0.1128  0.1231 -0.0705
 5399SOL     OW21367   2.816   5.153   5.139  0.2178 -0.4959 -0.9945
 5399SOL    HW221368   2.796   5.143   5.046  2.6712 -0.5108 -1.5767
 5399SOL    HW321369   2.910   5.169   5.142  0.2210 -0.6138  1.5106
 5399SOL    MW421370   2.825   5.154   5.127  0.5419 -0.5134 -0.7408
 5400SOL     OW21371   3.482   1.850   5.082 -0.5792 -0.0274 -0.3599
 5400SOL    HW221372   3.498   1.867   5.175  1.0083 -0.6718 -0.4885
 5400SOL    HW321373   3.400   1.896   5.063 -1.0652 -0.0911  1.4110
 5400SOL    MW421374   3.473   1.858   5.092 -0.4339 -0.1209 -0.1432
 5401SOL     OW21375   0.864   2.864   2.328 -0.2307  0.0863 -0.2446
 5401SOL    HW221376   0.927   2.833   2.262  2.4759  3.0961  0.6826
 5401SOL    HW321377   0.805   2.922   2.279 -0.2365 -0.1603 -0.5369
 5401SOL    MW421378   0.865   2.867   2.313  0.1257  0.4509 -0.1608
 5402SOL     OW21379   2.166   6.128   0.142 -0.5206 -0.4275  0.2579
 5402SOL    HW221380   2.081   6.143   0.183 -1.3935 -2.5037 -0.6897
 5402SOL    HW321381   2.214   6.074   0.205 -0.9897 -1.6396 -0.3945
 5402SOL    MW421382   2.161   6.123   0.156 -0.6976 -0.8613  0.0468
 5403SOL     OW21383   1.668   2.306   4.070  0.5923 -0.5894  0.4361
 5403SOL    HW221384   1.666   2.263   3.984 -2.0242  1.6012 -0.7499
 5403SOL    HW321385   1.647   2.236   4.132  0.0747 -1.7448 -0.9736
 5403SOL    MW421386   1.665   2.291   4.067  0.1788 -0.4528  0.0936
 5404SOL     OW21387   5.444   5.399   5.531  0.3381  0.3290  0.1987
 5404SOL    HW221388   5.355   5.379   5.561  0.5034 -2.0786 -0.6667
 5404SOL    HW321389   5.494   5.413   5.612 -0.7955  1.7032  0.6906
 5404SOL    MW421390   5.439   5.398   5.546  0.2103  0.1927  0.1494
 5405SOL     OW21391   0.111   3.590   3.340 -0.2957 -0.4183  0.1215
 5405SOL    HW221392   0.112   3.531   3.265  1.7207  1.2957 -1.3288
 5405SOL    HW321393   0.200   3.588   3.374 -0.7243  0.2097  1.3591
 5405SOL    MW421394   0.123   3.582   3.335 -0.0862 -0.1093  0.0934
 5406SOL     OW21395   0.253   6.336   1.460 -0.2703 -0.1657  0.1306
 5406SOL    HW221396   0.159   6.340   1.442 -0.1882 -0.5658 -0.3938
 5406SOL    HW321397   0.262   6.380   1.545 -0.9771 -0.4902  0.3852
 5406SOL    MW421398   0.242   6.343   1.469 -0.3527 -0.2613  0.0950
 5407SOL     OW21399   6.177   0.266   4.127  0.3000  0.3298 -0.5216
 5407SOL    HW221400   6.197   0.210   4.052  0.7714  0.1991 -0.3012
 5407SOL    HW321401   6.223   0.226   4.200  2.3853  2.0919 -0.7461
 5407SOL    MW421402   6.186   0.254   4.126  0.6373  0.5450 -0.5221
 5408SOL     OW21403   1.105   6.333   4.587  0.1938 -0.1450 -0.1089
 5408SOL    HW221404   1.191   6.321   4.627  1.4003  1.0908 -2.1493
 5408SOL    HW321405   1.091   6.254   4.534 -0.4427 -0.8236  1.0407
 5408SOL    MW421406   1.114   6.321   4.585  0.2690 -0.0715 -0.2264
 5409SOL     OW21407   0.159   3.888   4.027 -0.7458 -0.1643 -0.1775
 5409SOL    HW221408   0.098   3.962   4.022 -0.8493 -0.2420 -0.0835
 5409SOL    HW321409   0.103   3.813   4.044 -0.8207 -0.5168 -1.7762
 5409SOL    MW421410   0.143   3.888   4.029 -0.7694 -0.2211 -0.3760
 5410SOL     OW21411   2.608   4.734   1.045 -0.1118  0.2561 -0.2301
 5410SOL    HW221412   2.571   4.686   1.120  0.6533  0.3954  0.2485
 5410SOL    HW321413   2.553   4.710   0.971 -0.5888 -0.2633  0.2873
 5410SOL    MW421414   2.596   4.725   1.045 -0.0738  0.2060 -0.0987
 5411SOL     OW21415   3.484   1.323   1.231  0.3183  0.3798  0.3275
 5411SOL    HW221416   3.523   1.241   1.200  0.4442  0.3370  0.5967
 5411SOL    HW321417   3.467   1.373   1.151  1.0379  0.4516  0.2175
 5411SOL    MW421418   3.487   1.318   1.216  0.4298  0.3836  0.3485
 5412SOL     OW21419   0.826   1.206   3.778 -0.2707 -0.2495 -0.2628
 5412SOL    HW221420   0.882   1.130   3.793 -0.0695  0.1598  1.2327
 5412SOL    HW321421   0.885   1.281   3.784 -1.0546  0.2504  2.2053
 5412SOL    MW421422   0.841   1.206   3.781 -0.3476 -0.1296  0.2601
 5413SOL     OW21423   2.879   0.689   6.056 -0.1448 -0.6028 -0.5189
 5413SOL    HW221424   2.791   0.717   6.030 -0.8798 -1.4890  0.8787
 5413SOL    HW321425   2.914   0.645   5.979 -0.9310 -0.2579 -1.0934
 5413SOL    MW421426   2.872   0.687   6.043 -0.3455 -0.6742 -0.4103
 5414SOL     OW21427   4.755   2.219   4.414 -0.1246 -0.2458  0.3367
 5414SOL    HW221428   4.718   2.140   4.453  0.4949  0.3070  2.1549
 5414SOL    HW321429   4.679   2.270   4.385 -0.5359 -1.3284 -0.5520
 5414SOL    MW421430   4.740   2.215   4.415 -0.0972 -0.3157  0.4593
 5415SOL     OW21431   1.354   1.310   5.344 -0.2777  0.2967 -0.8565
 5415SOL    HW221432   1.352   1.387   5.402  2.5370 -0.7996  0.9623
 5415SOL    HW321433   1.399   1.341   5.265  0.3666  0.6975 -0.3512
 5415SOL    MW421434   1.360   1.325   5.342  0.1787  0.2049 -0.5499
 5416SOL     OW21435   2.693   6.002   4.887  0.1701  0.1156  0.0022
 5416SOL    HW221436   2.645   6.081   4.863  1.5391  0.7872 -0.6268
 5416SOL    HW321437   2.648   5.932   4.840 -0.9479  0.5290  0.4188
 5416SOL    MW421438   2.681   6.003   4.878  0.2032  0.2587 -0.0258
 5417SOL     OW21439   1.862   5.347   6.216  0.3660 -0.0838  0.2125
 5417SOL    HW221440   1.843   5.430   6.173  0.3424  1.0933  2.3921
 5417SOL    HW321441   1.957   5.343   6.220  0.3600  0.0764  0.5378
 5417SOL    MW421442   1.872   5.357   6.211  0.3621  0.0927  0.5430
 5418SOL     OW21443   2.195   0.901   1.088 -0.6571  0.9041 -0.0370
 5418SOL    HW221444   2.249   0.829   1.054  0.6678  1.1367  1.4385
 5418SOL    HW321445   2.171   0.952   1.010 -0.2805 -0.2331 -0.9286
 5418SOL    MW421446   2.199   0.898   1.073 -0.4326  0.7847  0.0400
 5419SOL     OW21447   4.315   3.264   0.253  0.3964 -0.5420  0.0989
 5419SOL    HW221448   4.382   3.246   0.188 -1.4228 -4.8062 -0.9739
 5419SOL    HW321449   4.353   3.234   0.336  0.4970 -1.1398 -0.1603
 5419SOL    MW421450   4.329   3.258   0.255  0.1697 -1.1835 -0.0768
 5420SOL     OW21451   1.860   0.979   6.237  0.4714 -0.2158 -0.2796
 5420SOL    HW221452   1.800   0.927   6.184 -1.2602  0.2718  1.1323
 5420SOL    HW321453   1.904   0.915   6.293 -1.0352 -0.2788  0.8634
 5420SOL    MW421454   1.858   0.964   6.237  0.0441 -0.1598  0.0575
 5421SOL     OW21455   3.775   3.689   2.353  0.2856 -0.0527  0.4411
 5421SOL    HW221456   3.848   3.726   2.303  0.7513 -0.5730  0.7107
 5421SOL    HW321457   3.745   3.615   2.301 -1.1822  1.1692 -0.4944
 5421SOL    MW421458   3.781   3.684   2.340  0.1534  0.0399  0.3532
 5422SOL     OW21459   3.414   0.240   4.067  0.1340  0.6739 -0.4971
 5422SOL    HW221460   3.480   0.235   4.136 -1.0558 -0.7822  0.6138
 5422SOL    HW321461   3.463   0.262   3.988  2.5184 -3.2983 -0.3973
 5422SOL    MW421462   3.429   0.242   4.065  0.2916 -0.0423 -0.3373
 5423SOL     OW21463   3.255   2.814   5.397 -0.7256 -0.6740  0.2691
 5423SOL    HW221464   3.199   2.836   5.323  1.8998  1.3882 -1.2932
 5423SOL    HW321465   3.291   2.728   5.375 -0.4621 -0.3631 -0.5683
 5423SOL    MW421466   3.253   2.806   5.384 -0.3444 -0.3609 -0.0475
 5424SOL     OW21467   6.008   2.331   4.997 -0.0483  0.7932 -0.9491
 5424SOL    HW221468   6.048   2.392   4.935  1.9293  0.9582  0.3852
 5424SOL    HW321469   6.048   2.353   5.082  1.0320 -2.4779 -0.4544
 5424SOL    MW421470   6.019   2.342   5.000  0.3551  0.3834 -0.7078
 5425SOL     OW21471   1.800   4.098   5.908 -0.3715 -0.0449 -0.4655
 5425SOL    HW221472   1.740   4.024   5.917 -0.4556 -0.0901 -1.3472
 5425SOL    HW321473   1.770   4.161   5.973  0.1908 -1.0974  0.8607
 5425SOL    MW421474   1.788   4.096   5.918 -0.3084 -0.1897 -0.4068
 5426SOL     OW21475   0.949   2.175   5.325  0.4485 -0.2154 -0.1513
 5426SOL    HW221476   0.940   2.080   5.336  2.0866 -0.6357 -1.7715
 5426SOL    HW321477   0.892   2.196   5.251  2.2763 -0.5259 -1.7284
 5426SOL    MW421478   0.941   2.165   5.317  0.9058 -0.3119 -0.5732
 5427SOL     OW21479   1.317   1.858   0.149  0.3273 -0.0846 -0.0856
 5427SOL    HW221480   1.337   1.767   0.127  1.2938  0.6809 -2.7447
 5427SOL    HW321481   1.378   1.879   0.220 -0.2744 -1.5987  0.9551
 5427SOL    MW421482   1.327   1.849   0.155  0.3754 -0.1834 -0.2992
 5428SOL     OW21483   1.141   3.279   1.987 -0.5755 -0.1371  0.1089
 5428SOL    HW221484   1.188   3.236   2.059  0.7400 -0.2278 -0.7807
 5428SOL    HW321485   1.148   3.218   1.914 -0.4756  0.6913 -0.5800
 5428SOL    MW421486   1.148   3.265   1.987 -0.3887 -0.0398 -0.0993
 5429SOL     OW21487   5.006   1.108   0.080 -0.4401  0.0442 -0.2140
 5429SOL    HW221488   5.025   1.057  -0.000 -1.8051 -0.1741 -0.4270
 5429SOL    HW321489   5.002   1.042   0.149 -0.5543  0.0786 -0.1890
 5429SOL    MW421490   5.008   1.092   0.078 -0.6352  0.0200 -0.2388
 5430SOL     OW21491   3.797   1.509   2.990 -0.2696  0.1099  0.2589
 5430SOL    HW221492   3.760   1.557   3.064 -0.7423 -2.0750  1.5239
 5430SOL    HW321493   3.891   1.526   2.994 -0.4587  1.1986  0.4155
 5430SOL    MW421494   3.804   1.517   3.000 -0.3569 -0.0347  0.4465
 5431SOL     OW21495   1.129   3.554   4.092  0.4125  0.0160  0.1169
 5431SOL    HW221496   1.070   3.480   4.105  0.5764 -0.3266 -1.0455
 5431SOL    HW321497   1.201   3.520   4.039  1.1995  0.6616  0.7367
 5431SOL    MW421498   1.131   3.540   4.087  0.5380  0.0560  0.0453
 5432SOL     OW21499   1.480   5.658   0.307 -0.1606 -0.5726  0.0814
 5432SOL    HW221500   1.479   5.754   0.307  4.0920 -0.3481  0.1522
 5432SOL    HW321501   1.414   5.634   0.243 -1.3644  2.3948  0.0254
 5432SOL    MW421502   1.471   5.668   0.299  0.2417 -0.1515  0.0833
 5433SOL     OW21503   6.255   0.506   4.456  0.2156 -1.0925 -0.0552
 5433SOL    HW221504   6.197   0.522   4.381 -1.5765  0.1957  1.5063
 5433SOL    HW321505   6.308   0.586   4.461 -1.6371  0.1294  1.6443
 5433SOL    MW421506   6.254   0.519   4.446 -0.2653 -0.7613  0.3750
 5434SOL     OW21507   3.675   5.504   2.298 -0.9003 -0.0524  0.4211
 5434SOL    HW221508   3.675   5.555   2.379 -1.2400 -1.2742  1.2148
 5434SOL    HW321509   3.608   5.437   2.312  0.6758 -1.7925  0.1080
 5434SOL    MW421510   3.666   5.502   2.311 -0.7372 -0.4432  0.4845
 5435SOL     OW21511   3.456   3.029   1.946  0.6626 -0.2537  0.1927
 5435SOL    HW221512   3.385   3.005   1.888  1.1694 -1.2293 -0.0524
 5435SOL    HW321513   3.415   3.083   2.014 -0.3981 -1.1910  0.3207
 5435SOL    MW421514   3.442   3.033   1.948  0.5895 -0.5061  0.1772
 5436SOL     OW21515   0.603   1.702   3.213  0.0905 -0.0695  0.5680
 5436SOL    HW221516   0.677   1.759   3.236  0.0233  0.6008 -0.7670
 5436SOL    HW321517   0.639   1.640   3.150 -0.8177  1.3559 -1.4509
 5436SOL    MW421518   0.617   1.702   3.208 -0.0382  0.2070  0.1255
 5437SOL     OW21519   4.653   6.192   0.189  0.0582  0.5552 -0.0261
 5437SOL    HW221520   4.573   6.140   0.177  1.1374 -1.0406 -0.6862
 5437SOL    HW321521   4.702   6.145   0.256  1.5563  0.0555 -1.4049
 5437SOL    MW421522   4.649   6.179   0.196  0.3982  0.2787 -0.2951
 5438SOL     OW21523   3.892   2.882   5.057  0.4742  0.3787 -0.0371
 5438SOL    HW221524   3.961   2.829   5.096  2.0852  0.0487 -3.0333
 5438SOL    HW321525   3.939   2.945   5.002 -1.4902  3.2669  1.3445
 5438SOL    MW421526   3.907   2.883   5.055  0.4276  0.7162 -0.2501
 5439SOL     OW21527   4.079   5.757   4.908 -0.5133  0.2314  0.2032
 5439SOL    HW221528   4.136   5.679   4.911  0.6713  1.0966  1.7903
 5439SOL    HW321529   4.053   5.764   4.817  2.0570 -0.1514 -0.6346
 5439SOL    MW421530   4.083   5.747   4.897 -0.0179  0.2950  0.3020
 5440SOL     OW21531   6.085   3.547   6.102  0.3639 -0.1824 -0.5857
 5440SOL    HW221532   6.010   3.539   6.162 -0.3725 -1.7617 -1.6452
 5440SOL    HW321533   6.097   3.641   6.090 -0.6637  0.1206  0.5561
 5440SOL    MW421534   6.077   3.558   6.109  0.1311 -0.3508 -0.5749
 5441SOL     OW21535   5.498   3.793   2.628  0.2922 -0.2020 -0.4579
 5441SOL    HW221536   5.449   3.776   2.709  0.1789 -1.1103 -0.7003
 5441SOL    HW321537   5.432   3.785   2.558  0.8915 -2.2528 -0.8573
 5441SOL    MW421538   5.483   3.790   2.629  0.3564 -0.5924 -0.5426
 5442SOL     OW21539   2.940   5.068   3.999  0.6509 -0.2559  0.0553
 5442SOL    HW221540   2.946   4.972   3.998 -0.6117 -0.3385 -0.8260
 5442SOL    HW321541   2.919   5.089   4.090 -0.3121 -0.9061 -0.0053
 5442SOL    MW421542   2.938   5.058   4.011  0.3573 -0.3526 -0.0690
 5443SOL     OW21543   3.337   5.516   4.269 -0.2002  0.0136 -0.0711
 5443SOL    HW221544   3.342   5.593   4.326 -1.7779 -0.2759  0.5121
 5443SOL    HW321545   3.426   5.483   4.264  0.4518  1.6943 -0.0712
 5443SOL    MW421546   3.349   5.522   4.275 -0.3223  0.1972  0.0058
 5444SOL     OW21547   5.055   0.225   5.718 -0.7628  0.5989  0.6885
 5444SOL    HW221548   5.108   0.153   5.685 -1.5293  1.1935 -2.0453
 5444SOL    HW321549   4.991   0.183   5.776  0.7631 -0.4682  1.6743
 5444SOL    MW421550   5.054   0.210   5.721 -0.6626  0.5366  0.4579
 5445SOL     OW21551   2.769   0.304   0.204 -0.8305  0.3014  0.2493
 5445SOL    HW221552   2.813   0.314   0.288  0.6181  3.1689 -0.6889
 5445SOL    HW321553   2.827   0.247   0.153 -0.5244  0.4022  0.4795
 5445SOL    MW421554   2.783   0.298   0.208 -0.5990  0.6930  0.1559
 5446SOL     OW21555   3.455   2.370   2.387 -0.0886  0.0610  0.2807
 5446SOL    HW221556   3.360   2.370   2.393 -0.3509 -0.0241 -2.5240
 5446SOL    HW321557   3.473   2.366   2.293  2.6851 -2.8352  0.7416
 5446SOL    MW421558   3.445   2.369   2.375  0.2428 -0.3323 -0.0285
 5447SOL     OW21559   1.060   5.374   3.542  0.0526  0.3845 -0.1551
 5447SOL    HW221560   1.005   5.296   3.533 -0.3949  0.5779  0.7284
 5447SOL    HW321561   1.001   5.447   3.522  0.4935  0.5014 -1.0702
 5447SOL    MW421562   1.045   5.373   3.538  0.0518  0.4254 -0.1593
 5448SOL     OW21563   3.032   1.330   5.694  0.6582 -0.4038 -0.0189
 5448SOL    HW221564   3.015   1.398   5.759  0.4061  0.2326 -0.7355
 5448SOL    HW321565   2.981   1.255   5.723 -0.7933  0.4199 -0.3663
 5448SOL    MW421566   3.023   1.329   5.706  0.4334 -0.2112 -0.1593
 5449SOL     OW21567   1.569   3.345   3.711  0.4270  0.6612 -0.2997
 5449SOL    HW221568   1.487   3.392   3.722 -0.4445 -0.3993 -1.8989
 5449SOL    HW321569   1.553   3.259   3.750  0.4851  0.1671 -1.3401
 5449SOL    MW421570   1.556   3.340   3.718  0.3197  0.4561 -0.6479
 5450SOL     OW21571   2.381   1.978   6.131  0.2199  0.2756 -0.2318
 5450SOL    HW221572   2.361   1.988   6.224  0.3115  2.9669 -0.4035
 5450SOL    HW321573   2.323   1.908   6.101 -1.3638  0.8104  1.4197
 5450SOL    MW421574   2.371   1.970   6.139  0.0231  0.7013 -0.0365
 5451SOL     OW21575   1.062   1.352   4.739  0.1789 -0.2680 -0.0042
 5451SOL    HW221576   1.009   1.357   4.659  0.3954  1.3775 -0.0756
 5451SOL    HW321577   1.002   1.319   4.806 -0.9406  1.4739 -0.1035
 5451SOL    MW421578   1.047   1.348   4.737  0.0598  0.1789 -0.0267
 5452SOL     OW21579   0.261   5.107   2.520  0.0310 -0.1818 -0.2234
 5452SOL    HW221580   0.318   5.182   2.509 -1.7560  1.1888 -0.5587
 5452SOL    HW321581   0.236   5.082   2.431 -0.3615 -0.3844 -0.0597
 5452SOL    MW421582   0.265   5.113   2.507 -0.2565 -0.0277 -0.2460
 5453SOL     OW21583   1.632   6.097   6.359 -0.1295 -0.3914 -0.0100
 5453SOL    HW221584   1.693   6.038   6.405 -0.9109 -1.8454 -0.7875
 5453SOL    HW321585   1.546   6.076   6.396 -0.5583 -0.4971 -1.0503
 5453SOL    MW421586   1.629   6.086   6.370 -0.2892 -0.5972 -0.2499
 5454SOL     OW21587   2.995   4.842   3.125 -0.3807 -0.2817 -0.0058
 5454SOL    HW221588   3.046   4.922   3.114 -0.9041  0.3262  1.6896
 5454SOL    HW321589   3.042   4.776   3.074 -0.1411  1.1656 -1.7334
 5454SOL    MW421590   3.008   4.844   3.117 -0.4181 -0.0105 -0.0100
 5455SOL     OW21591   5.593   4.557   4.126 -0.1864  0.0446 -0.2937
 5455SOL    HW221592   5.550   4.545   4.210  1.0912  1.3175  0.6044
 5455SOL    HW321593   5.665   4.493   4.127  0.7751  1.0956  0.3003
 5455SOL    MW421594   5.597   4.547   4.137  0.1090  0.3512 -0.0969
 5456SOL     OW21595   6.397   0.872   5.042 -0.4162  0.2206 -0.1976
 5456SOL    HW221596   6.338   0.935   5.001 -1.3857 -0.4023  0.1791
 5456SOL    HW321597   6.338   0.807   5.081  0.5240 -0.2880  0.4154
 5456SOL    MW421598   6.381   0.871   5.042 -0.4201  0.0713 -0.0670
 5457SOL     OW21599   5.954   3.823   2.583 -0.0405 -1.0289 -0.1293
 5457SOL    HW221600   5.931   3.855   2.670 -2.0927  2.1681 -1.6588
 5457SOL    HW321601   5.872   3.825   2.534  1.3285 -1.2231 -2.5655
 5457SOL    MW421602   5.940   3.827   2.588 -0.1306 -0.6327 -0.6525
 5458SOL     OW21603   4.188   0.167   2.862 -0.3846  0.0378 -0.1267
 5458SOL    HW221604   4.280   0.186   2.884 -0.3081  0.4988 -0.7899
 5458SOL    HW321605   4.175   0.213   2.778 -0.8467 -1.0791 -0.6759
 5458SOL    MW421606   4.199   0.176   2.854 -0.4354 -0.0487 -0.2867
 5459SOL     OW21607   5.132   3.738   5.171 -0.0220  0.1975  0.1510
 5459SOL    HW221608   5.159   3.771   5.085 -1.1835  0.5689 -0.0931
 5459SOL    HW321609   5.135   3.814   5.228 -0.0787  0.1380  0.2330
 5459SOL    MW421610   5.136   3.752   5.167 -0.1828  0.2386  0.1296
 5460SOL     OW21611   4.786   4.484   1.014  0.0577 -0.1781  0.5973
 5460SOL    HW221612   4.881   4.486   1.016  0.0735  2.0348  2.1017
 5460SOL    HW321613   4.761   4.550   0.950 -0.4492 -0.0111  0.9540
 5460SOL    MW421614   4.795   4.493   1.006 -0.0071  0.1359  0.8429
 5461SOL     OW21615   5.489   4.809   4.699  0.0812  0.0024  0.2011
 5461SOL    HW221616   5.494   4.892   4.651 -0.0021  0.9208  1.7367
 5461SOL    HW321617   5.486   4.834   4.791 -1.7640 -1.6259  0.6527
 5461SOL    MW421618   5.489   4.823   4.705 -0.1732 -0.0912  0.4633
 5462SOL     OW21619   3.665   5.766   1.473 -0.3559  0.7391  0.1036
 5462SOL    HW221620   3.615   5.830   1.422  0.0581 -0.3030 -1.6974
 5462SOL    HW321621   3.710   5.818   1.539 -1.4230  2.0706 -0.1742
 5462SOL    MW421622   3.664   5.781   1.475 -0.4421  0.7773 -0.1707
 5463SOL     OW21623   6.074   5.271   3.113  0.4195  0.1812 -0.1141
 5463SOL    HW221624   6.018   5.211   3.063  0.7050 -0.3790  0.2221
 5463SOL    HW321625   6.038   5.358   3.096  0.6492  0.0376 -1.4974
 5463SOL    MW421626   6.062   5.274   3.104  0.4875  0.0884 -0.2522
 5464SOL     OW21627   1.313   4.535   2.045  0.0753 -0.2665  0.1936
 5464SOL    HW221628   1.370   4.473   2.091  1.4717 -0.0804 -1.2180
 5464SOL    HW321629   1.327   4.516   1.952  0.0385  1.7096 -0.2619
 5464SOL    MW421630   1.322   4.524   2.039  0.2547  0.0188 -0.0528
 5465SOL     OW21631   4.157   0.205   0.565  0.3316 -0.2894 -0.0136
 5465SOL    HW221632   4.187   0.136   0.625  0.0881 -1.2304 -0.9513
 5465SOL    HW321633   4.075   0.172   0.530 -0.2614  0.9022  0.1992
 5465SOL    MW421634   4.150   0.192   0.568  0.2212 -0.2563 -0.1092
 5466SOL     OW21635   5.800   1.816   6.118  0.1010  0.0301 -0.6785
 5466SOL    HW221636   5.808   1.746   6.183 -3.1367  1.4631  1.5278
 5466SOL    HW321637   5.762   1.890   6.166 -1.7271  1.5008 -4.0053
 5466SOL    MW421638   5.796   1.817   6.133 -0.5673  0.4132 -0.8263
 5467SOL     OW21639   4.654   5.834   6.168  0.0008 -0.1319 -0.0142
 5467SOL    HW221640   4.645   5.839   6.263  0.7354 -0.3427  0.0711
 5467SOL    HW321641   4.746   5.810   6.154  0.5485  2.2246 -0.8486
 5467SOL    MW421642   4.665   5.831   6.179  0.1700  0.1512 -0.1130
 5468SOL     OW21643   5.853   4.163   2.430  0.1141  0.3947 -0.2780
 5468SOL    HW221644   5.875   4.098   2.363  0.9137 -0.9798  1.2290
 5468SOL    HW321645   5.785   4.217   2.390 -0.4498 -1.2554 -1.6846
 5468SOL    MW421646   5.847   4.161   2.416  0.1452 -0.0044 -0.2647
 5469SOL     OW21647   2.846   3.378   2.470 -0.1809 -0.3835  0.3708
 5469SOL    HW221648   2.868   3.285   2.467  1.5963  0.0188 -1.5644
 5469SOL    HW321649   2.752   3.381   2.454 -0.2583 -1.8486  0.4276
 5469SOL    MW421650   2.837   3.366   2.467  0.0434 -0.5237  0.1229
 5470SOL     OW21651   4.367   1.476   2.740  0.2418 -0.5047  0.3942
 5470SOL    HW221652   4.339   1.551   2.687  0.5097 -0.1744  0.7194
 5470SOL    HW321653   4.357   1.401   2.681  0.3648 -0.1640 -0.0718
 5470SOL    MW421654   4.362   1.476   2.725  0.2934 -0.4162  0.3756
 5471SOL     OW21655   5.701   0.626   3.632  0.7487 -0.0758  0.0737
 5471SOL    HW221656   5.705   0.686   3.706 -0.1638  0.1535 -0.0436
 5471SOL    HW321657   5.790   0.595   3.621  0.7520 -0.7405  1.7778
 5471SOL    MW421658   5.713   0.630   3.640  0.6287 -0.1332  0.2830
 5472SOL     OW21659   4.266   4.173   1.700 -0.4856  0.0236 -0.2580
 5472SOL    HW221660   4.255   4.210   1.612 -1.0504  0.6781  0.0812
 5472SOL    HW321661   4.178   4.173   1.738 -0.6023 -2.1527 -0.4094
 5472SOL    MW421662   4.253   4.178   1.694 -0.5755 -0.1772 -0.2332
 5473SOL     OW21663   0.151   4.664   0.271  0.2030 -0.7561 -0.3294
 5473SOL    HW221664   0.102   4.627   0.344  0.1712  0.1018  0.0936
 5473SOL    HW321665   0.236   4.687   0.308 -0.9019  2.8813  0.4235
 5473SOL    MW421666   0.156   4.662   0.285  0.0530 -0.1630 -0.1743
 5474SOL     OW21667   6.149   3.879   3.430 -0.0465 -0.2248 -0.1810
 5474SOL    HW221668   6.204   3.873   3.508  0.5598  0.2618 -0.5658
 5474SOL    HW321669   6.201   3.928   3.367 -1.3019  1.0990 -0.2340
 5474SOL    MW421670   6.163   3.885   3.432 -0.1321  0.0140 -0.2388
 5475SOL     OW21671   0.907   6.350   3.587 -0.0231  0.1902  0.0605
 5475SOL    HW221672   0.922   6.314   3.500 -0.7346 -0.1140  0.0531
 5475SOL    HW321673   0.902   6.273   3.645 -2.0306  0.1845 -0.0291
 5475SOL    MW421674   0.908   6.335   3.583 -0.3818  0.1493  0.0477
 5476SOL     OW21675   1.410   4.036   0.496 -0.4981 -0.0383 -0.0889
 5476SOL    HW221676   1.393   3.992   0.579  0.8562  0.2788  0.3746
 5476SOL    HW321677   1.339   4.100   0.488 -0.7672 -0.2290  0.7053
 5476SOL    MW421678   1.398   4.039   0.506 -0.3549 -0.0217  0.0770
 5477SOL     OW21679   3.759   4.239   0.049  0.2939  0.2594  0.3629
 5477SOL    HW221680   3.835   4.240  -0.008 -0.2556  1.4581 -0.3724
 5477SOL    HW321681   3.776   4.308   0.113 -0.1582  0.5230  0.2038
 5477SOL    MW421682   3.771   4.248   0.050  0.1617  0.4523  0.2449
 5478SOL     OW21683   5.539   2.187   3.797  0.4823 -0.5948  0.0334
 5478SOL    HW221684   5.469   2.191   3.862  0.1169  0.6438 -0.4295
 5478SOL    HW321685   5.544   2.094   3.774 -0.2589 -0.8580  0.8749
 5478SOL    MW421686   5.530   2.175   3.803  0.3363 -0.4661  0.0834
 5479SOL     OW21687   0.148   1.284   4.985 -0.1444 -0.8681  0.6340
 5479SOL    HW221688   0.175   1.369   5.020  1.2622 -2.4271  3.7439
 5479SOL    HW321689   0.181   1.283   4.896 -0.8378  2.0797  0.2383
 5479SOL    MW421690   0.156   1.295   4.978 -0.0503 -0.6848  0.9921
 5480SOL     OW21691   1.654   6.343   2.627 -0.2547 -0.5774  0.2343
 5480SOL    HW221692   1.682   6.435   2.632  0.4587 -0.8450  1.5830
 5480SOL    HW321693   1.626   6.332   2.536  0.0455  0.8616 -0.0642
 5480SOL    MW421694   1.654   6.354   2.615 -0.1210 -0.4228  0.3728
 5481SOL     OW21695   2.782   4.284   1.357 -0.0301 -0.4242  0.1804
 5481SOL    HW221696   2.753   4.199   1.389 -1.1803 -0.0015  0.3363
 5481SOL    HW321697   2.720   4.305   1.287 -0.3363  0.6911  0.7652
 5481SOL    MW421698   2.770   4.276   1.352 -0.2222 -0.2213  0.2781
 5482SOL     OW21699   5.211   1.692   2.306  0.1694 -0.1428  0.5029
 5482SOL    HW221700   5.302   1.665   2.317  0.3381 -0.5378 -1.5302
 5482SOL    HW321701   5.178   1.636   2.236 -1.2204  0.9344  0.2548
 5482SOL    MW421702   5.219   1.681   2.298  0.0083 -0.0528  0.2019
 5483SOL     OW21703   0.679   1.846   2.407  0.2238  0.0646  0.2122
 5483SOL    HW221704   0.627   1.778   2.451  0.2112 -1.2608 -1.7037
 5483SOL    HW321705   0.615   1.913   2.384  0.0731  0.3220  1.3487
 5483SOL    MW421706   0.664   1.846   2.410  0.2023 -0.0763  0.1094
 5484SOL     OW21707   3.824   4.829   5.708  0.1617 -0.0458 -0.1413
 5484SOL    HW221708   3.796   4.749   5.664 -0.4980  0.5405 -0.8265
 5484SOL    HW321709   3.820   4.808   5.801 -1.8157 -0.2670 -0.2245
 5484SOL    MW421710   3.819   4.816   5.714 -0.1862  0.0024 -0.2427
 5485SOL     OW21711   2.404   1.990   5.009  0.5463  0.3172 -0.2348
 5485SOL    HW221712   2.435   1.903   5.032 -0.5928 -0.0053  0.1429
 5485SOL    HW321713   2.318   1.975   4.969  0.7248  1.2003 -0.9897
 5485SOL    MW421714   2.397   1.977   5.007  0.4196  0.3912 -0.2846
 5486SOL     OW21715   5.915   4.360   5.010  0.3662  0.2956  0.2870
 5486SOL    HW221716   5.872   4.290   5.060 -0.9815  0.4451 -0.6076
 5486SOL    HW321717   5.959   4.315   4.939 -0.5102  0.3370 -0.2950
 5486SOL    MW421718   5.915   4.345   5.007  0.0728  0.3208  0.0922
 5487SOL     OW21719   2.202   5.711   3.769 -0.0943  0.0926 -0.3251
 5487SOL    HW221720   2.269   5.644   3.785  0.4835  0.6154 -0.5502
 5487SOL    HW321721   2.129   5.662   3.732 -0.6265 -0.8120  1.7713
 5487SOL    MW421722   2.201   5.696   3.766 -0.0883  0.0423 -0.0782
 5488SOL     OW21723   1.099   2.657   1.115  0.0492  0.0237  0.1493
 5488SOL    HW221724   1.093   2.681   1.022  0.4710 -1.5919 -0.3313
 5488SOL    HW321725   1.182   2.693   1.144 -0.5404  1.4037  0.1948
 5488SOL    MW421726   1.109   2.665   1.106  0.0271 -0.0074  0.0919
 5489SOL     OW21727   5.480   4.409   0.910  0.0544 -0.8214 -0.3468
 5489SOL    HW221728   5.509   4.496   0.884 -0.3818 -0.4882  0.2538
 5489SOL    HW321729   5.513   4.351   0.842  1.1169 -0.2994 -0.2987
 5489SOL    MW421730   5.489   4.413   0.898  0.1370 -0.7086 -0.2612
 5490SOL     OW21731   2.077   0.582   2.836 -0.2729 -0.1057 -0.2161
 5490SOL    HW221732   2.085   0.496   2.879  0.3113  0.7100  1.3875
 5490SOL    HW321733   1.987   0.609   2.854 -0.3307 -0.2051 -0.3590
 5490SOL    MW421734   2.066   0.574   2.844 -0.2034 -0.0112 -0.0234
 5491SOL     OW21735   5.047   0.990   6.192 -0.2031  0.1698 -0.1986
 5491SOL    HW221736   4.992   1.021   6.120  2.6559  3.3162 -1.2879
 5491SOL    HW321737   5.119   0.944   6.150  1.1848  1.5051  0.6177
 5491SOL    MW421738   5.049   0.988   6.177  0.3572  0.7611 -0.2346
 5492SOL     OW21739   5.174   1.514   4.328  0.0444 -0.3166 -0.0585
 5492SOL    HW221740   5.103   1.488   4.269  1.3014 -0.7649 -1.4361
 5492SOL    HW321741   5.223   1.579   4.279  0.8260 -0.3216  0.7068
 5492SOL    MW421742   5.171   1.519   4.314  0.3134 -0.3764 -0.1393
 5493SOL     OW21743   1.890   3.300   2.186 -0.1788  0.1729  0.0905
 5493SOL    HW221744   1.928   3.377   2.144  0.0921 -1.2463 -2.5193
 5493SOL    HW321745   1.829   3.265   2.120 -0.5979 -1.6007  1.3454
 5493SOL    MW421746   1.887   3.306   2.172 -0.1983 -0.2484 -0.0882
 5494SOL     OW21747   4.789   1.534   5.168  0.0398  0.8252  0.1325
 5494SOL    HW221748   4.863   1.578   5.210 -0.9930  2.0072  0.7686
 5494SOL    HW321749   4.800   1.552   5.075  1.1778 -0.0093  0.0799
 5494SOL    MW421750   4.800   1.542   5.162  0.0537  0.8711  0.2095
 5495SOL     OW21751   5.882   1.116   1.502 -0.1335 -0.3966 -0.4493
 5495SOL    HW221752   5.913   1.187   1.447  0.0836 -0.2301 -0.1175
 5495SOL    HW321753   5.787   1.129   1.507  0.0253  0.5576  0.5407
 5495SOL    MW421754   5.874   1.127   1.496 -0.0839 -0.2487 -0.2749
 5496SOL     OW21755   4.527   2.348   4.919  0.2143  0.2516  0.4784
 5496SOL    HW221756   4.553   2.433   4.954 -1.2242  1.4969 -1.2945
 5496SOL    HW321757   4.518   2.362   4.825 -0.6876 -1.6909  0.2124
 5496SOL    MW421758   4.529   2.361   4.912 -0.0945  0.1596  0.2094
 5497SOL     OW21759   4.139   1.875   1.391  0.1259  0.4115 -0.1501
 5497SOL    HW221760   4.214   1.920   1.352  0.7436 -0.7983 -0.4282
 5497SOL    HW321761   4.140   1.902   1.483 -0.5297  2.2309 -0.6556
 5497SOL    MW421762   4.149   1.884   1.398  0.1209  0.4919 -0.2535
 5498SOL     OW21763   6.338   3.488   1.552  0.2400 -0.1480  0.3643
 5498SOL    HW221764   6.258   3.517   1.509 -0.4765 -0.8180  1.2123
 5498SOL    HW321765   6.381   3.569   1.579 -0.3873  0.2035  0.3188
 5498SOL    MW421766   6.333   3.503   1.550  0.0627 -0.1901  0.4702
 5499SOL     OW21767   1.540   2.188   5.748 -0.2554  0.1261 -0.4249
 5499SOL    HW221768   1.623   2.140   5.754 -0.8059 -0.7622  0.3940
 5499SOL    HW321769   1.519   2.187   5.654  0.3769 -0.1314 -0.5721
 5499SOL    MW421770   1.548   2.182   5.736 -0.2446 -0.0251 -0.3363
 5500SOL     OW21771   6.250   0.928   6.264 -0.5490  0.3177 -0.4137
 5500SOL    HW221772   6.301   0.981   6.203 -0.1565  0.0756 -0.3001
 5500SOL    HW321773   6.166   0.915   6.220  0.2019 -1.0283 -1.5535
 5500SOL    MW421774   6.246   0.933   6.250 -0.3981  0.1082 -0.5491
 5501SOL     OW21775   0.536   3.961   6.112 -0.2187  0.0656 -0.0635
 5501SOL    HW221776   0.469   3.948   6.179 -0.1981 -0.0992 -0.0746
 5501SOL    HW321777   0.618   3.957   6.160 -0.0850 -2.1365 -0.3804
 5501SOL    MW421778   0.538   3.958   6.127 -0.1984 -0.2467 -0.1068
 5502SOL     OW21779   2.340   0.573   6.155  0.9351 -0.5275 -0.0722
 5502SOL    HW221780   2.378   0.519   6.224 -0.2736 -0.1858  0.8923
 5502SOL    HW321781   2.330   0.514   6.080  1.0545 -1.2392  0.4678
 5502SOL    MW421782   2.344   0.558   6.154  0.7914 -0.5763  0.1263
 5503SOL     OW21783   1.176   0.227   4.650 -0.5047  0.3733  1.1090
 5503SOL    HW221784   1.244   0.266   4.705 -0.1929 -1.6832  2.3062
 5503SOL    HW321785   1.110   0.296   4.639  1.9179  2.6088 -0.5014
 5503SOL    MW421786   1.176   0.241   4.655 -0.1440  0.3969  1.0545
 5504SOL     OW21787   1.419   3.075   3.511  0.1451  0.6763 -0.0648
 5504SOL    HW221788   1.415   3.072   3.607  1.8092  0.7122  0.0393
 5504SOL    HW321789   1.478   3.148   3.492  2.0181 -0.9893 -1.0020
 5504SOL    MW421790   1.426   3.084   3.522  0.6118  0.4613 -0.1748
 5505SOL     OW21791   0.525   4.145   3.409 -0.4574 -0.2497 -0.1292
 5505SOL    HW221792   0.514   4.071   3.468  0.4306  0.4987  1.0373
 5505SOL    HW321793   0.510   4.222   3.464  0.9196  0.4867 -0.7141
 5505SOL    MW421794   0.522   4.145   3.424 -0.1585 -0.0538 -0.0525
 5506SOL     OW21795   5.751   2.469   4.223 -0.0596 -0.3433  0.0627
 5506SOL    HW221796   5.676   2.421   4.259  0.4272 -0.8100  0.4740
 5506SOL    HW321797   5.773   2.533   4.291 -0.2254 -0.0484 -0.1578
 5506SOL    MW421798   5.744   2.471   4.237 -0.0172 -0.3659  0.0879
 5507SOL     OW21799   0.028   6.066   1.762  0.2689 -0.3225  0.4744
 5507SOL    HW221800   0.007   5.974   1.778  0.4176 -1.0161 -2.7055
 5507SOL    HW321801   0.117   6.076   1.798  0.0537 -1.2552  1.3180
 5507SOL    MW421802   0.037   6.055   1.769  0.2601 -0.5371  0.1661
 5508SOL     OW21803   0.052   0.602   5.644  0.2326 -0.6423 -0.2378
 5508SOL    HW221804   0.071   0.631   5.733  0.5255 -1.4971 -0.0110
 5508SOL    HW321805  -0.002   0.671   5.607  0.7989  0.1165  0.3261
 5508SOL    MW421806   0.048   0.615   5.651  0.3460 -0.6549 -0.1335
 5509SOL     OW21807   1.158   2.824   6.330  0.4078 -0.3482 -0.4931
 5509SOL    HW221808   1.142   2.730   6.327 -0.4179 -0.2274  0.0507
 5509SOL    HW321809   1.221   2.839   6.259 -0.3108 -1.1355 -1.3319
 5509SOL    MW421810   1.164   2.814   6.320  0.2040 -0.4362 -0.5320
 5510SOL     OW21811   5.802   4.276   3.062 -0.4612 -0.1731  0.1153
 5510SOL    HW221812   5.835   4.326   2.987  1.6547 -0.6231  0.6623
 5510SOL    HW321813   5.742   4.212   3.024  1.5417 -1.2708 -1.4506
 5510SOL    MW421814   5.799   4.274   3.047  0.0822 -0.3773 -0.0192
 5511SOL     OW21815   6.073   2.371   1.539 -0.3559 -0.5514  0.3040
 5511SOL    HW221816   6.058   2.461   1.510  0.1584 -1.0041 -1.4815
 5511SOL    HW321817   6.051   2.372   1.632 -0.7489  1.3191  0.2306
 5511SOL    MW421818   6.068   2.383   1.548 -0.3399 -0.3643  0.0587
 5512SOL     OW21819   5.159   4.488   4.894 -0.1037 -0.2326 -0.5014
 5512SOL    HW221820   5.181   4.447   4.811  0.9133  2.2439 -1.5561
 5512SOL    HW321821   5.239   4.533   4.920 -0.6706 -0.2348  1.3964
 5512SOL    MW421822   5.173   4.489   4.887 -0.0443  0.0938 -0.3901
 5513SOL     OW21823   1.544   4.042   3.152  0.2487 -0.6177  0.1525
 5513SOL    HW221824   1.454   4.060   3.123 -0.3186 -2.5364  0.5653
 5513SOL    HW321825   1.599   4.072   3.080 -0.8466 -0.9817 -0.8720
 5513SOL    MW421826   1.539   4.048   3.139  0.0293 -0.9188  0.0718
 5514SOL     OW21827   3.234   3.432   2.171 -0.3797 -0.1769  0.5909
 5514SOL    HW221828   3.145   3.444   2.203 -0.7904 -0.6726 -0.3305
 5514SOL    HW321829   3.246   3.501   2.105  0.4127  0.7556  1.6747
 5514SOL    MW421830   3.224   3.443   2.166 -0.3293 -0.1192  0.6123
 5515SOL     OW21831   6.375   1.923   4.524 -1.1819 -0.1731  0.3675
 5515SOL    HW221832   6.424   1.843   4.506 -2.0049 -0.1426 -2.5219
 5515SOL    HW321833   6.401   1.984   4.455 -1.4988  1.6456  1.7682
 5515SOL    MW421834   6.385   1.921   4.512 -1.3323  0.0709  0.1711
 5516SOL     OW21835   0.930   0.076   4.380 -0.4990 -0.1765 -0.1907
 5516SOL    HW221836   0.884   0.131   4.443 -1.7399  0.1305 -1.3167
 5516SOL    HW321837   1.006   0.043   4.428  0.7087  3.0217  0.3959
 5516SOL    MW421838   0.934   0.079   4.394 -0.5034  0.2860 -0.2619
 5517SOL     OW21839   5.974   3.324   0.734  0.1824  0.2845  0.2425
 5517SOL    HW221840   5.961   3.240   0.779 -1.2552 -0.9411 -2.1976
 5517SOL    HW321841   5.968   3.390   0.803  0.8351 -1.5748  2.1882
 5517SOL    MW421842   5.971   3.321   0.749  0.0788 -0.1225  0.1773
 5518SOL     OW21843   5.051   1.826   1.927  0.1474  0.0287 -0.2869
 5518SOL    HW221844   5.015   1.851   2.012  1.2884  0.7627  0.0060
 5518SOL    HW321845   5.009   1.884   1.864  0.6630  0.7567  0.0288
 5518SOL    MW421846   5.041   1.837   1.930  0.3660  0.2216 -0.2066
 5519SOL     OW21847   4.899   0.270   5.385  0.2395  0.5040 -0.3815
 5519SOL    HW221848   4.982   0.248   5.343  1.2884  0.4862  1.5955
 5519SOL    HW321849   4.921   0.337   5.450 -1.6141  1.7951 -0.9809
 5519SOL    MW421850   4.913   0.276   5.388  0.1333  0.6720 -0.1997
 5520SOL     OW21851   5.863   5.486   0.271  0.6222  0.0924 -0.1067
 5520SOL    HW221852   5.892   5.506   0.182 -0.0131 -3.0529 -1.1189
 5520SOL    HW321853   5.772   5.514   0.273  0.4718 -0.3471 -0.6513
 5520SOL    MW421854   5.855   5.493   0.260  0.5186 -0.3806 -0.3121
 5521SOL     OW21855   5.369   4.095   5.414  0.1306 -0.1265  0.0760
 5521SOL    HW221856   5.296   4.032   5.416 -0.1254  0.1840  1.5877
 5521SOL    HW321857   5.369   4.134   5.501 -0.3736  2.7661 -1.1296
 5521SOL    MW421858   5.359   4.092   5.426  0.0303  0.2961  0.1164
 5522SOL     OW21859   1.351   0.138   5.722  0.2815  0.5093  0.3343
 5522SOL    HW221860   1.394   0.196   5.659 -0.3898  0.2671 -0.3609
 5522SOL    HW321861   1.418   0.073   5.743  0.6004  0.7485  0.0774
 5522SOL    MW421862   1.365   0.137   5.717  0.2350  0.5089  0.2087
 5523SOL     OW21863   3.482   3.544   0.692 -0.1824 -0.4490  0.3604
 5523SOL    HW221864   3.441   3.530   0.607  1.6712 -1.7912 -0.3741
 5523SOL    HW321865   3.494   3.638   0.698  2.0734 -0.4595 -2.1254
 5523SOL    MW421866   3.478   3.554   0.682  0.3597 -0.6275 -0.0645
 5524SOL     OW21867   0.956   3.845   5.846  0.9581  0.1570 -0.2280
 5524SOL    HW221868   0.941   3.902   5.770  1.5129  0.1934 -0.3125
 5524SOL    HW321869   0.958   3.905   5.921  0.8079  0.1661 -0.2311
 5524SOL    MW421870   0.954   3.861   5.846  1.0115  0.1630 -0.2396
 5525SOL     OW21871   2.468   5.846   2.185 -0.1445 -0.2754  0.2638
 5525SOL    HW221872   2.425   5.910   2.128 -0.9190 -0.7124  0.3451
 5525SOL    HW321873   2.458   5.883   2.273  0.0504 -0.1530  0.2344
 5525SOL    MW421874   2.461   5.860   2.189 -0.2209 -0.3169  0.2707
 5526SOL     OW21875   3.619   3.592   6.273  0.0382  0.4909  0.1587
 5526SOL    HW221876   3.644   3.580   6.181 -1.1269  0.4537 -0.1704
 5526SOL    HW321877   3.529   3.623   6.269 -0.4318 -0.6367  1.3129
 5526SOL    MW421878   3.611   3.595   6.260 -0.1775  0.3372  0.2675
 5527SOL     OW21879   0.853   1.329   3.160 -0.1623  0.6753  0.0623
 5527SOL    HW221880   0.947   1.335   3.177 -0.3884  0.3912  1.5514
 5527SOL    HW321881   0.846   1.271   3.084  0.8294 -0.0699  0.5173
 5527SOL    MW421882   0.865   1.322   3.152 -0.0613  0.5395  0.3188
 5528SOL     OW21883   1.047   2.415   1.237 -0.0789 -0.8678  0.6100
 5528SOL    HW221884   1.088   2.500   1.224  0.1563 -1.2932 -1.8252
 5528SOL    HW321885   1.116   2.360   1.274  0.7331 -0.8346 -0.8248
 5528SOL    MW421886   1.062   2.419   1.240  0.0593 -0.9196  0.0994
 5529SOL     OW21887   0.163   4.508   5.569  0.7279 -0.2547 -0.4356
 5529SOL    HW221888   0.204   4.572   5.511  1.9078 -2.3052 -2.0270
 5529SOL    HW321889   0.071   4.505   5.542  0.3661  1.5601  0.4769
 5529SOL    MW421890   0.156   4.516   5.558  0.8359 -0.2858 -0.5251
 5530SOL     OW21891   2.016   6.381   5.366  0.5576  0.0961 -0.0514
 5530SOL    HW221892   2.075   6.307   5.381 -0.1830 -0.3099  0.9413
 5530SOL    HW321893   2.022   6.434   5.445  1.1991  1.2029 -0.8203
 5530SOL    MW421894   2.024   6.378   5.378  0.5445  0.1885 -0.0218
 5531SOL     OW21895   6.301   1.132   4.969  0.1930 -0.3677  0.1678
 5531SOL    HW221896   6.244   1.193   4.923  0.5138  1.5259  2.1332
 5531SOL    HW321897   6.390   1.161   4.949  0.3383  1.2964  2.8373
 5531SOL    MW421898   6.305   1.144   4.960  0.2545  0.1017  0.7793
 5532SOL     OW21899   0.182   6.218   3.446 -0.1692  0.4041  0.0556
 5532SOL    HW221900   0.121   6.146   3.433  2.0567 -1.6423  0.3153
 5532SOL    HW321901   0.153   6.285   3.384 -0.9081 -1.6442 -1.9678
 5532SOL    MW421902   0.170   6.217   3.436  0.0270 -0.1361 -0.1771
 5533SOL     OW21903   5.660   3.438   4.034 -0.3263 -0.5477  0.2666
 5533SOL    HW221904   5.714   3.488   3.973  0.1074  1.6149  2.2708
 5533SOL    HW321905   5.713   3.361   4.056 -0.0215 -0.7760 -1.1571
 5533SOL    MW421906   5.674   3.434   4.029 -0.2288 -0.2925  0.3432
 5534SOL     OW21907   4.421   4.784   4.487 -0.3051 -0.1375  0.7135
 5534SOL    HW221908   4.449   4.721   4.420 -1.1952  0.3272 -0.1303
 5534SOL    HW321909   4.470   4.760   4.565  1.6016 -0.0274 -0.3916
 5534SOL    MW421910   4.431   4.773   4.488 -0.1710 -0.0617  0.4564
 5535SOL     OW21911   0.135   5.456   5.928  0.4246 -0.7385  0.3740
 5535SOL    HW221912   0.137   5.504   6.011 -0.6038 -0.5439  0.3059
 5535SOL    HW321913   0.213   5.401   5.930  0.0031 -1.3517  1.8559
 5535SOL    MW421914   0.145   5.455   5.939  0.2333 -0.7937  0.5605
 5536SOL     OW21915   3.144   2.257   1.668  0.2124 -0.0232  0.0443
 5536SOL    HW221916   3.053   2.234   1.647  0.0547 -2.7959  2.9401
 5536SOL    HW321917   3.196   2.190   1.624  0.7305  0.5011 -0.1540
 5536SOL    MW421918   3.139   2.245   1.659  0.2600 -0.3198  0.4002
 5537SOL     OW21919   6.407   1.628   4.363 -0.3742  0.1065  0.3739
 5537SOL    HW221920   6.454   1.564   4.417  0.6770  1.7987  1.5654
 5537SOL    HW321921   6.467   1.650   4.293 -0.5681  0.1256  0.2111
 5537SOL    MW421922   6.421   1.622   4.361 -0.2611  0.3323  0.5096
 5538SOL     OW21923   6.063   4.538   4.780 -0.2645  0.2150 -0.8073
 5538SOL    HW221924   5.971   4.559   4.794 -0.6782 -0.8465 -1.7516
 5538SOL    HW321925   6.072   4.529   4.685  0.5940 -0.5745 -0.6728
 5538SOL    MW421926   6.052   4.539   4.769 -0.2058 -0.0292 -0.9141
 5539SOL     OW21927   0.570   4.631   2.177  1.0162 -0.2239 -0.4968
 5539SOL    HW221928   0.592   4.581   2.255  1.5210 -1.3312 -1.3300
 5539SOL    HW321929   0.516   4.703   2.210  2.1542 -0.0077  1.0140
 5539SOL    MW421930   0.566   4.634   2.192  1.2329 -0.3415 -0.4074
 5540SOL     OW21931   5.160   3.079   4.630 -0.1538 -0.6876 -0.1571
 5540SOL    HW221932   5.137   2.992   4.596 -0.0372 -0.9702  0.4630
 5540SOL    HW321933   5.088   3.100   4.690  0.8844 -1.3237  1.3565
 5540SOL    MW421934   5.147   3.070   4.634 -0.0014 -0.8088  0.1244
 5541SOL     OW21935   4.876   4.822   4.434 -0.0243 -0.3431  0.0064
 5541SOL    HW221936   4.943   4.769   4.390  0.3086 -0.8331  1.0762
 5541SOL    HW321937   4.921   4.903   4.457 -0.5013  0.3916 -1.5216
 5541SOL    MW421938   4.891   4.825   4.431 -0.0433 -0.3108 -0.0540
 5542SOL     OW21939   4.640   5.019   0.536 -0.0374 -0.4894  0.3565
 5542SOL    HW221940   4.637   4.932   0.498  1.7458  0.7473 -3.0141
 5542SOL    HW321941   4.548   5.042   0.551 -0.5515 -2.7710  1.0720
 5542SOL    MW421942   4.627   5.011   0.533  0.1301 -0.6272  0.0062
 5543SOL     OW21943   3.943   1.947   3.823  0.0503  0.0075  0.1927
 5543SOL    HW221944   3.957   1.863   3.868 -0.1550 -0.1957 -0.1156
 5543SOL    HW321945   4.031   1.982   3.810  0.2019 -0.6030 -0.4976
 5543SOL    MW421946   3.956   1.940   3.827  0.0433 -0.0999  0.0610
 5544SOL     OW21947   5.351   2.141   2.481  0.0441  0.2869 -0.6011
 5544SOL    HW221948   5.418   2.095   2.430 -0.6473  0.1664 -1.4305
 5544SOL    HW321949   5.344   2.091   2.562  1.4762  0.7315 -0.1828
 5544SOL    MW421950   5.359   2.128   2.485  0.1418  0.3296 -0.6553
 5545SOL     OW21951   5.132   3.991   3.794 -0.3786  0.1863  0.6092
 5545SOL    HW221952   5.199   4.059   3.798  1.8054 -1.8380  1.5648
 5545SOL    HW321953   5.095   3.988   3.882 -1.0137  0.6026  0.3644
 5545SOL    MW421954   5.136   3.999   3.806 -0.1742 -0.0258  0.7030
 5546SOL     OW21955   3.394   2.616   0.907 -0.5187  0.2713 -0.5073
 5546SOL    HW221956   3.458   2.644   0.971  0.0112 -2.3181  0.1845
 5546SOL    HW321957   3.445   2.598   0.828 -0.6634 -0.0082 -0.5377
 5546SOL    MW421958   3.409   2.617   0.905 -0.4679 -0.1072 -0.4200
 5547SOL     OW21959   0.933   3.466   1.957 -0.2655 -0.4881 -0.3807
 5547SOL    HW221960   0.858   3.422   1.918 -1.7528  0.4474  1.2793
 5547SOL    HW321961   0.989   3.395   1.990 -1.3489 -1.1884 -0.0132
 5547SOL    MW421962   0.931   3.451   1.956 -0.6047 -0.4571 -0.1132
 5548SOL     OW21963   3.518   5.970   1.357 -0.2892 -0.4742 -0.1574
 5548SOL    HW221964   3.559   5.987   1.272 -1.1171  1.8260 -0.1738
 5548SOL    HW321965   3.539   6.047   1.409 -3.2490  0.1364  0.3174
 5548SOL    MW421966   3.526   5.983   1.353 -0.7889 -0.0902 -0.0969
 5549SOL     OW21967   4.302   1.827   0.616  0.0861  0.3842 -0.1748
 5549SOL    HW221968   4.251   1.761   0.569 -1.4449  1.5096 -0.2004
 5549SOL    HW321969   4.324   1.891   0.548 -1.9197  1.8921  0.4815
 5549SOL    MW421970   4.298   1.827   0.600 -0.3805  0.7316 -0.0916
 5550SOL     OW21971   2.435   2.021   1.720  0.8713 -0.2356 -0.0953
 5550SOL    HW221972   2.415   2.088   1.786  1.7797  0.4899 -0.5358
 5550SOL    HW321973   2.370   1.953   1.735  0.3188  0.4597  0.7796
 5550SOL    MW421974   2.424   2.021   1.730  0.9182 -0.0481 -0.0380
 5551SOL     OW21975   2.582   0.693   5.990  0.2855  0.3145 -0.3661
 5551SOL    HW221976   2.533   0.653   6.062 -1.0782 -1.1232 -2.0201
 5551SOL    HW321977   2.565   0.787   5.998  0.2000  0.1914  1.1869
 5551SOL    MW421978   2.574   0.700   6.001  0.0943  0.1086 -0.3794
 5552SOL     OW21979   2.300   1.626   1.577  0.6486 -0.7152  0.3458
 5552SOL    HW221980   2.237   1.684   1.534 -0.1213 -0.7190  1.4285
 5552SOL    HW321981   2.383   1.645   1.534 -0.0835 -0.7114 -1.1105
 5552SOL    MW421982   2.303   1.636   1.566  0.4504 -0.7152  0.2965
 5553SOL     OW21983   5.984   5.156   5.323 -0.1956  0.2151  0.3748
 5553SOL    HW221984   5.961   5.102   5.398 -0.5586  0.1107  0.1899
 5553SOL    HW321985   5.983   5.246   5.356 -0.4179  0.1742  0.4794
 5553SOL    MW421986   5.981   5.161   5.337 -0.2728  0.1960  0.3642
 5554SOL     OW21987   1.019   0.758   0.907  0.3105  0.1217 -0.1592
 5554SOL    HW221988   0.927   0.738   0.889  0.3814  0.5134 -1.0335
 5554SOL    HW321989   1.067   0.712   0.838  0.7242  0.3327 -0.0157
 5554SOL    MW421990   1.013   0.750   0.895  0.3744  0.2012 -0.2556
 5555SOL     OW21991   4.298   5.032   2.467  0.2605 -0.5918  0.6161
 5555SOL    HW221992   4.221   5.073   2.428  1.3303 -0.7772 -1.8943
 5555SOL    HW321993   4.272   4.941   2.481 -0.5185 -0.2520  1.4669
 5555SOL    MW421994   4.284   5.026   2.464  0.2989 -0.5714  0.3971
 5556SOL     OW21995   5.999   6.006   2.400 -0.4544 -0.4300  0.3844
 5556SOL    HW221996   6.017   6.063   2.326  0.8640 -0.2892  0.7839
 5556SOL    HW321997   6.084   5.969   2.424 -0.9795 -1.1021  1.3165
 5556SOL    MW421998   6.012   6.008   2.393 -0.3498 -0.5001  0.5601
 5557SOL     OW21999   5.094   0.056   1.752  0.2812  0.1313  0.5939
 5557SOL    HW222000   5.188   0.043   1.745  0.3409  0.1574  1.2473
 5557SOL    HW322001   5.058  -0.031   1.766  0.2256  0.1436  0.5335
 5557SOL    MW422002   5.101   0.043   1.753  0.2817  0.1363  0.6721
 5558SOL     OW22003   3.992   5.408   3.352  0.6231  0.0238  0.6102
 5558SOL    HW222004   4.026   5.390   3.264  2.6495 -1.8249  1.6892
 5558SOL    HW322005   4.022   5.497   3.371 -0.5243  0.7694 -0.8156
 5558SOL    MW422006   4.001   5.417   3.343  0.7391 -0.1218  0.5645
 5559SOL     OW22007   0.424   2.077   1.688 -0.2405  0.2162  0.2778
 5559SOL    HW222008   0.461   2.011   1.748 -0.0442 -0.9649 -1.0843
 5559SOL    HW322009   0.479   2.071   1.610  0.1570  2.4603  0.3377
 5559SOL    MW422010   0.436   2.067   1.686 -0.1622  0.3564  0.1060
 5560SOL     OW22011   4.108   1.456   4.835  0.2501  0.5971  0.0214
 5560SOL    HW222012   4.080   1.492   4.919 -0.2614  0.2793 -0.0080
 5560SOL    HW322013   4.078   1.520   4.770  1.4452  1.3093  0.1238
 5560SOL    MW422014   4.101   1.469   4.837  0.3403  0.6492  0.0310
 5561SOL     OW22015   4.952   4.179   3.319  0.7245  0.4718  0.1610
 5561SOL    HW222016   4.928   4.225   3.400 -3.2410  1.0786 -1.1537
 5561SOL    HW322017   4.878   4.121   3.301  0.8892  1.1743 -3.5865
 5561SOL    MW422018   4.939   4.177   3.328  0.2230  0.6445 -0.5069
 5562SOL     OW22019   5.363   3.149   3.828  0.0454  0.0262  0.3244
 5562SOL    HW222020   5.448   3.108   3.842  0.0652 -0.2009 -0.3978
 5562SOL    HW322021   5.375   3.241   3.850  0.2366 -0.1853  1.1041
 5562SOL    MW422022   5.376   3.156   3.832  0.0732 -0.0317  0.3320
 5563SOL     OW22023   5.892   0.689   0.083 -0.4249  0.2129  0.4357
 5563SOL    HW222024   5.907   0.671  -0.010  0.6447  1.6375  0.3038
 5563SOL    HW322025   5.945   0.767   0.101 -0.5933 -0.0602  2.2482
 5563SOL    MW422026   5.901   0.697   0.073 -0.3060  0.3648  0.6574
 5564SOL     OW22027   5.466   4.877   0.494  0.4801 -0.1935  0.1242
 5564SOL    HW222028   5.430   4.948   0.441  0.8039  1.0285  1.4766
 5564SOL    HW322029   5.390   4.823   0.517  0.3387 -0.7644 -1.5412
 5564SOL    MW422030   5.451   4.879   0.490  0.5042 -0.1076  0.0829
 5565SOL     OW22031   2.366   1.538   5.410  0.3981  0.4671 -0.1529
 5565SOL    HW222032   2.426   1.490   5.467 -0.0270 -1.4803 -1.2827
 5565SOL    HW322033   2.377   1.499   5.324 -1.3210  1.1428 -0.7285
 5565SOL    MW422034   2.375   1.527   5.406  0.1152  0.2993 -0.3779
 5566SOL     OW22035   3.482   1.540   5.704 -0.2234 -0.3751 -0.6102
 5566SOL    HW222036   3.411   1.536   5.768  0.6572  1.0798  0.5117
 5566SOL    HW322037   3.560   1.516   5.753  0.3767  0.1241 -1.3107
 5566SOL    MW422038   3.483   1.536   5.719 -0.0281 -0.1173 -0.5546
 5567SOL     OW22039   4.122   5.892   4.126  0.1804  0.3260 -0.3294
 5567SOL    HW222040   4.099   5.817   4.181  1.0334  0.8836  0.8186
 5567SOL    HW322041   4.194   5.860   4.071  0.5010  0.2849  0.1150
 5567SOL    MW422042   4.129   5.878   4.126  0.3353  0.3941 -0.1193
 5568SOL     OW22043   4.895   3.884   5.530 -0.0222 -0.3231 -0.2922
 5568SOL    HW222044   4.915   3.799   5.569 -0.8438 -0.2879  0.2236
 5568SOL    HW322045   4.844   3.863   5.452  1.4341 -0.3825 -1.2578
 5568SOL    MW422046   4.891   3.870   5.525  0.0615 -0.3263 -0.3515
 5569SOL     OW22047   1.910   0.259   0.697 -0.0580 -0.3067  0.1239
 5569SOL    HW222048   1.912   0.350   0.725  3.1464 -0.4155  0.6225
 5569SOL    HW322049   1.866   0.261   0.612 -2.9927  1.1359  1.5419
 5569SOL    MW422050   1.904   0.271   0.689 -0.0224 -0.1308  0.3768
 5570SOL     OW22051   1.608   6.380   0.357 -0.3517 -0.0105  0.1368
 5570SOL    HW222052   1.613   6.285   0.363  0.7797  0.1111  1.6280
 5570SOL    HW322053   1.521   6.397   0.321 -0.4436 -1.5976 -0.4827
 5570SOL    MW422054   1.597   6.370   0.353 -0.2146 -0.2038  0.2518
 5571SOL     OW22055   3.401   1.083   4.217 -0.5332  0.1015  0.1740
 5571SOL    HW222056   3.357   1.019   4.273  1.1237 -1.1760  0.1100
 5571SOL    HW322057   3.474   1.115   4.270 -0.1142  0.3514 -0.5334
 5571SOL    MW422058   3.405   1.078   4.231 -0.2593 -0.0341  0.0722
 5572SOL     OW22059   5.799   5.350   1.761  0.4466 -0.4953  0.0233
 5572SOL    HW222060   5.870   5.389   1.710  0.1352 -0.5516 -0.4638
 5572SOL    HW322061   5.729   5.415   1.760  0.4873 -0.4387  0.5029
 5572SOL    MW422062   5.799   5.364   1.754  0.4109 -0.4952  0.0223
 5573SOL     OW22063   4.166   1.149   5.924 -0.7675 -0.1363 -0.2022
 5573SOL    HW222064   4.114   1.208   5.869 -0.4124  0.1270 -0.2525
 5573SOL    HW322065   4.124   1.063   5.912 -1.2329  0.0872 -0.1896
 5573SOL    MW422066   4.153   1.145   5.915 -0.7821 -0.0721 -0.2072
 5574SOL     OW22067   5.804   4.440   3.298 -0.2063 -0.5883 -0.4385
 5574SOL    HW222068   5.757   4.386   3.235 -0.0982 -3.0909  1.4510
 5574SOL    HW322069   5.736   4.473   3.357 -0.2280  1.1417 -1.3761
 5574SOL    MW422070   5.789   4.438   3.297 -0.1949 -0.6902 -0.3129
 5575SOL     OW22071   2.001   2.804   2.718  0.0265 -0.0709  0.2934
 5575SOL    HW222072   1.947   2.864   2.769 -0.7980 -1.4505  1.1089
 5575SOL    HW322073   1.960   2.802   2.632  0.5819  1.1795 -0.0196
 5575SOL    MW422074   1.988   2.811   2.713 -0.0090 -0.0879  0.3597
 5576SOL     OW22075   1.598   5.013   3.673  0.1330  0.1155  0.4592
 5576SOL    HW222076   1.662   4.995   3.605  0.2292  0.0459  0.5666
 5576SOL    HW322077   1.566   5.101   3.654  0.5360  0.3021  0.6183
 5576SOL    MW422078   1.602   5.022   3.662  0.1988  0.1309  0.4943
 5577SOL     OW22079   2.465   2.715   1.920  0.4048  0.1525  0.0401
 5577SOL    HW222080   2.391   2.655   1.933  0.6133  0.0845  1.0147
 5577SOL    HW322081   2.534   2.661   1.883 -0.3142  0.4111 -1.7468
 5577SOL    MW422082   2.464   2.700   1.917  0.3374  0.1777 -0.0671
 5578SOL     OW22083   0.643   0.197   2.361  0.7036 -0.2104  0.8929
 5578SOL    HW222084   0.696   0.175   2.285  0.4280  3.3386 -0.5544
 5578SOL    HW322085   0.704   0.238   2.423  0.2124  1.3519  0.4041
 5578SOL    MW422086   0.658   0.200   2.359  0.6024  0.4640  0.6374
 5579SOL     OW22087   5.753   3.337   0.994 -0.1400  0.1326 -0.7124
 5579SOL    HW222088   5.811   3.396   1.041 -1.1198  0.1441  0.5476
 5579SOL    HW322089   5.756   3.366   0.903  2.4946 -0.4508 -0.8764
 5579SOL    MW422090   5.761   3.348   0.988  0.0783  0.0571 -0.5678
 5580SOL     OW22091   3.191   5.041   3.129 -0.2279 -0.3671  0.0946
 5580SOL    HW222092   3.140   5.102   3.183  1.5798  0.9233  0.4414
 5580SOL    HW322093   3.255   5.003   3.190 -0.2140 -1.3208 -0.4959
 5580SOL    MW422094   3.193   5.044   3.144  0.0124 -0.3227  0.0624
 5581SOL     OW22095   0.136   2.895   0.148  0.5727 -0.0034 -0.6505
 5581SOL    HW222096   0.216   2.897   0.201 -1.1071 -0.4289  2.1482
 5581SOL    HW322097   0.092   2.815   0.175 -0.3840 -0.2780 -2.8438
 5581SOL    MW422098   0.140   2.885   0.159  0.2248 -0.0958 -0.5706
 5582SOL     OW22099   1.348   1.166   3.477  0.3460  0.4474 -0.2855
 5582SOL    HW222100   1.384   1.135   3.560  1.7777  0.3673 -0.8896
 5582SOL    HW322101   1.254   1.164   3.488  0.5256  0.6886  1.4238
 5582SOL    MW422102   1.341   1.161   3.489  0.5586  0.4687 -0.1397
 5583SOL     OW22103   6.236   5.850   1.273 -0.4863  0.5996  0.1209
 5583SOL    HW222104   6.150   5.810   1.262 -0.8145  1.6089 -1.2350
 5583SOL    HW322105   6.278   5.839   1.188  0.6970  0.2315  0.7379
 5583SOL    MW422106   6.230   5.843   1.261 -0.3735  0.6842  0.0234
 5584SOL     OW22107   5.044   2.295   1.315 -0.1199  0.1072  0.2603
 5584SOL    HW222108   4.951   2.291   1.337 -0.1089  0.8318  0.4844
 5584SOL    HW322109   5.067   2.206   1.289 -0.9084 -0.0438  0.0677
 5584SOL    MW422110   5.035   2.283   1.315 -0.2224  0.1829  0.2644
 5585SOL     OW22111   5.208   0.920   4.574 -0.1452 -0.0210  0.1389
 5585SOL    HW222112   5.123   0.895   4.611  0.6488 -1.2644  1.2377
 5585SOL    HW322113   5.192   0.930   4.481 -1.1318 -2.2056 -0.0052
 5585SOL    MW422114   5.194   0.918   4.567 -0.1706 -0.4733  0.2649
 5586SOL     OW22115   0.314   6.103   5.732 -0.3296  0.6789  0.7667
 5586SOL    HW222116   0.275   6.117   5.646  0.1698  1.2316  0.6227
 5586SOL    HW322117   0.240   6.102   5.793 -0.6672  0.4731  0.3521
 5586SOL    MW422118   0.299   6.105   5.729 -0.3083  0.7247  0.6930
 5587SOL     OW22119   1.753   2.280   2.396  0.1305 -0.2936  0.0631
 5587SOL    HW222120   1.735   2.356   2.340 -0.2993 -1.4138 -1.4027
 5587SOL    HW322121   1.671   2.265   2.443  0.4697  0.6112  0.9793
 5587SOL    MW422122   1.740   2.288   2.394  0.1186 -0.3220 -0.0094
 5588SOL     OW22123   1.159   3.169   3.841  0.3031 -0.8544 -0.0989
 5588SOL    HW222124   1.087   3.118   3.805 -0.2047 -0.0693 -0.2245
 5588SOL    HW322125   1.231   3.107   3.849 -0.2176 -1.5207 -0.4985
 5588SOL    MW422126   1.159   3.154   3.837  0.1674 -0.8387 -0.1682
 5589SOL     OW22127   2.437   2.712   0.801  0.0028  0.2866  0.5527
 5589SOL    HW222128   2.401   2.715   0.712 -0.9450  0.4411  0.9214
 5589SOL    HW322129   2.373   2.661   0.851  0.3303  0.5168  1.2212
 5589SOL    MW422130   2.424   2.706   0.796 -0.0790  0.3374  0.6896
 5590SOL     OW22131   2.877   5.788   1.164 -0.4337 -0.4154 -0.5244
 5590SOL    HW222132   2.921   5.704   1.179  0.0282 -0.1846 -0.6076
 5590SOL    HW322133   2.917   5.823   1.085  1.3690  1.1960  0.9880
 5590SOL    MW422134   2.888   5.781   1.156 -0.1349 -0.1724 -0.3358
 5591SOL     OW22135   5.261   5.634   0.253 -0.4718 -0.3788 -0.3589
 5591SOL    HW222136   5.293   5.544   0.252  1.6484  0.2710  1.1096
 5591SOL    HW322137   5.210   5.642   0.173  1.4270 -2.1602 -1.8827
 5591SOL    MW422138   5.259   5.623   0.243  0.0585 -0.5281 -0.3662
 5592SOL     OW22139   0.139   4.776   2.279  0.1289 -0.0402 -0.5210
 5592SOL    HW222140   0.086   4.855   2.267 -1.3039 -0.6477  1.3362
 5592SOL    HW322141   0.228   4.803   2.256 -0.1253  2.4414  1.0454
 5592SOL    MW422142   0.144   4.790   2.274 -0.0937  0.2070 -0.0693
 5593SOL     OW22143   4.505   0.744   5.345 -0.2308 -0.1573 -0.4133
 5593SOL    HW222144   4.416   0.762   5.375 -0.4811 -1.8962 -0.0352
 5593SOL    HW322145   4.561   0.794   5.405 -0.9346  1.7803 -1.2811
 5593SOL    MW422146   4.501   0.753   5.357 -0.3567 -0.1310 -0.4779
 5594SOL     OW22147   0.792   0.750   3.784 -0.3169 -0.1149 -0.7636
 5594SOL    HW222148   0.848   0.818   3.821  0.2986 -0.4778 -1.0041
 5594SOL    HW322149   0.770   0.693   3.858  1.0759 -0.9541 -0.9554
 5594SOL    MW422150   0.796   0.751   3.798 -0.0519 -0.2735 -0.8206
 5595SOL     OW22151   2.675   5.432   0.946  0.0322 -0.1092 -0.3510
 5595SOL    HW222152   2.735   5.412   0.873  1.2409  1.0128  0.2759
 5595SOL    HW322153   2.676   5.353   1.000 -0.9093 -0.9715 -1.5397
 5595SOL    MW422154   2.683   5.419   0.943  0.0674 -0.0749 -0.4251
 5596SOL     OW22155   0.538   6.060   0.875  0.0667 -0.1640  0.6641
 5596SOL    HW222156   0.533   6.156   0.876  0.5417 -0.1147 -0.4221
 5596SOL    HW322157   0.515   6.034   0.964  0.3062  0.9807  1.0783
 5596SOL    MW422158   0.534   6.069   0.887  0.1610 -0.0065  0.5754
 5597SOL     OW22159   2.167   0.082   5.098  0.0543 -0.1886 -0.1761
 5597SOL    HW222160   2.153  -0.005   5.059 -1.2711  0.3707 -1.0203
 5597SOL    HW322161   2.132   0.074   5.187 -1.6442 -0.0961 -0.7909
 5597SOL    MW422162   2.160   0.069   5.104 -0.3447 -0.1026 -0.3686
 5598SOL     OW22163   4.111   3.159   5.154  0.1734 -0.2682 -0.0530
 5598SOL    HW222164   4.085   3.095   5.087 -0.0687 -0.7223  0.4704
 5598SOL    HW322165   4.029   3.196   5.186  0.2870 -0.0958  0.0412
 5598SOL    MW422166   4.097   3.155   5.149  0.1564 -0.3054  0.0285
 5599SOL     OW22167   4.915   3.972   0.277 -0.5470 -0.0091  0.4856
 5599SOL    HW222168   4.850   4.027   0.321 -2.1229  0.7421 -2.5074
 5599SOL    HW322169   4.986   4.032   0.256 -1.4740  0.5541 -1.2039
 5599SOL    MW422170   4.915   3.988   0.280 -0.8773  0.1643 -0.1322
 5600SOL     OW22171   0.902   1.292   4.190  0.0281 -0.6886  0.0502
 5600SOL    HW222172   0.881   1.385   4.198  0.5650 -0.6461  1.1126
 5600SOL    HW322173   0.827   1.255   4.144 -0.4494  0.1747  0.1030
 5600SOL    MW422174   0.889   1.299   4.185  0.0359 -0.5691  0.1974
 5601SOL     OW22175   1.624   4.696   3.677  0.3478 -0.6758 -0.5528
 5601SOL    HW222176   1.579   4.715   3.759 -0.7524  0.4878 -1.3957
 5601SOL    HW322177   1.710   4.738   3.687  1.4105 -3.0184  1.1129
 5601SOL    MW422178   1.630   4.704   3.689  0.3429 -0.8314 -0.4442
 5602SOL     OW22179   0.793   2.716   5.532 -0.0049 -0.4632 -0.0809
 5602SOL    HW222180   0.853   2.643   5.517 -0.6608 -1.2960  1.1768
 5602SOL    HW322181   0.846   2.794   5.517  0.8044 -1.1804 -1.1083
 5602SOL    MW422182   0.808   2.717   5.528  0.0153 -0.6677 -0.0505
 5603SOL     OW22183   2.498   2.296   6.205  0.2718 -0.1985 -0.2647
 5603SOL    HW222184   2.404   2.284   6.192  0.5286 -0.5021 -2.1460
 5603SOL    HW322185   2.510   2.390   6.205  0.0190 -0.1641 -0.4602
 5603SOL    MW422186   2.487   2.306   6.204  0.2724 -0.2340 -0.5387
 5604SOL     OW22187   3.108   1.330   2.563 -0.7554 -0.3805 -0.1602
 5604SOL    HW222188   3.057   1.411   2.560 -0.6733 -0.2962  0.5904
 5604SOL    HW322189   3.047   1.262   2.533 -0.3522  0.1650 -2.3796
 5604SOL    MW422190   3.093   1.332   2.558 -0.6914 -0.2974 -0.3540
 5605SOL     OW22191   4.836   5.320   0.005  0.8484 -0.3122  0.2427
 5605SOL    HW222192   4.768   5.336   0.070  0.9600  0.6348  0.1385
 5605SOL    HW322193   4.810   5.238  -0.037 -0.0621 -0.1320  0.4274
 5605SOL    MW422194   4.824   5.311   0.008  0.7430 -0.1635  0.2533
 5606SOL     OW22195   2.838   5.971   5.972 -0.6451 -0.4645  0.2264
 5606SOL    HW222196   2.824   5.933   6.059 -1.2245 -0.6467  0.0608
 5606SOL    HW322197   2.791   6.054   5.974 -0.9479 -0.6268 -0.0202
 5606SOL    MW422198   2.830   5.977   5.984 -0.7615 -0.5099  0.1720
 5607SOL     OW22199   0.012   5.290   1.677 -0.3996 -0.1864  0.3335
 5607SOL    HW222200   0.039   5.315   1.589  0.8527 -0.2921  0.6619
 5607SOL    HW322201   0.080   5.229   1.706 -1.2403 -0.7979  1.0655
 5607SOL    MW422202   0.024   5.285   1.669 -0.3453 -0.2811  0.4734
 5608SOL     OW22203   3.686   3.727   5.442 -0.1409 -0.4155  0.3120
 5608SOL    HW222204   3.781   3.738   5.444  0.2959 -3.2381  2.5771
 5608SOL    HW322205   3.674   3.634   5.419 -2.5310  0.3993 -2.3308
 5608SOL    MW422206   3.697   3.716   5.439 -0.3986 -0.6804  0.2621
 5609SOL     OW22207   2.207   1.284   3.601  0.1787  0.2316  0.3794
 5609SOL    HW222208   2.287   1.293   3.652  1.2569 -0.9819 -1.0166
 5609SOL    HW322209   2.186   1.190   3.605 -2.7980  0.8158  2.9969
 5609SOL    MW422210   2.215   1.273   3.608 -0.0718  0.1486  0.5405
 5610SOL     OW22211   1.225   3.845   0.342 -0.3917  0.0515 -0.8853
 5610SOL    HW222212   1.278   3.781   0.294 -0.2061  0.6761 -1.5138
 5610SOL    HW322213   1.287   3.913   0.368 -0.6538  0.1474 -0.5011
 5610SOL    MW422214   1.240   3.845   0.339 -0.4018  0.1466 -0.9175
 5611SOL     OW22215   5.153   5.648   3.788  0.0545  0.6156  0.0963
 5611SOL    HW222216   5.104   5.729   3.800 -0.2425  0.5489 -0.5735
 5611SOL    HW322217   5.158   5.609   3.875  0.4120  1.4684  0.4722
 5611SOL    MW422218   5.148   5.654   3.801  0.0624  0.7193  0.0575
 5612SOL     OW22219   2.606   1.294   1.112 -0.2276  0.4590  0.4462
 5612SOL    HW222220   2.613   1.381   1.072  0.2974 -0.0439 -0.5920
 5612SOL    HW322221   2.534   1.252   1.065  0.5952 -0.2483 -0.2005
 5612SOL    MW422222   2.597   1.300   1.101 -0.0498  0.2993  0.2239
 5613SOL     OW22223   1.825   1.590   0.774 -0.2797  1.1451  0.1813
 5613SOL    HW222224   1.796   1.531   0.843 -1.3432  1.0798 -0.3012
 5613SOL    HW322225   1.893   1.643   0.814  0.7831 -0.4791  0.5883
 5613SOL    MW422226   1.830   1.589   0.788 -0.2798  0.9222  0.1713
 5614SOL     OW22227   1.066   4.419   2.139  0.3673 -0.0545 -0.6002
 5614SOL    HW222228   1.074   4.396   2.231 -1.9539  3.6084  0.7249
 5614SOL    HW322229   1.153   4.453   2.115  0.4899  0.7279  0.8647
 5614SOL    MW422230   1.079   4.421   2.148  0.0772  0.5320 -0.2321
 5615SOL     OW22231   2.519   2.214   1.222 -0.0418  0.0938  0.2264
 5615SOL    HW222232   2.482   2.303   1.217 -1.7863 -0.6517 -1.5451
 5615SOL    HW322233   2.612   2.226   1.203 -0.5984  1.3682 -2.1144
 5615SOL    MW422234   2.526   2.228   1.219 -0.3454  0.1636 -0.3162
 5616SOL     OW22235   2.935   1.123   1.504 -0.4371  0.4698 -0.2542
 5616SOL    HW222236   3.013   1.069   1.510 -0.3717  0.3168 -1.9749
 5616SOL    HW322237   2.899   1.124   1.593  1.6436  0.7853  0.6315
 5616SOL    MW422238   2.940   1.116   1.517 -0.1539  0.4912 -0.3644
 5617SOL     OW22239   4.283   2.513   5.149  0.3536 -0.0670  0.2665
 5617SOL    HW222240   4.275   2.549   5.238 -0.9331  1.7711 -0.5156
 5617SOL    HW322241   4.248   2.425   5.155  1.7332 -0.5562  1.8753
 5617SOL    MW422242   4.277   2.506   5.162  0.3659  0.1110  0.3756
 5618SOL     OW22243   1.669   1.089   5.964  0.1541  0.1493  0.1142
 5618SOL    HW222244   1.629   1.019   6.016  3.1068 -1.7718  0.0386
 5618SOL    HW322245   1.647   1.068   5.874  0.2587 -0.1788  0.1634
 5618SOL    MW422246   1.661   1.077   5.959  0.5575 -0.1475  0.1107
 5619SOL     OW22247   3.908   3.628   2.990 -0.2486 -0.0053 -0.0738
 5619SOL    HW222248   3.937   3.712   2.955 -0.1009 -0.1997 -0.4269
 5619SOL    HW322249   3.936   3.629   3.081 -0.9192  0.6394  0.1328
 5619SOL    MW422250   3.916   3.639   2.997 -0.3176  0.0541 -0.0931
 5620SOL     OW22251   2.171   1.470   5.078 -0.5938  0.0613  0.0781
 5620SOL    HW222252   2.149   1.390   5.126 -0.7939  0.6243  0.9664
 5620SOL    HW322253   2.118   1.466   4.998 -0.2706 -0.8948 -0.0910
 5620SOL    MW422254   2.161   1.459   5.074 -0.5776  0.0094  0.1730
 5621SOL     OW22255   5.089   1.919   5.708 -0.0609 -0.0698 -0.4423
 5621SOL    HW222256   5.126   1.839   5.746  0.2679  0.1302 -0.3395
 5621SOL    HW322257   5.025   1.948   5.773 -0.6004 -0.5625 -0.7418
 5621SOL    MW422258   5.085   1.912   5.722 -0.0887 -0.1084 -0.4683
 5622SOL     OW22259   3.009   0.734   5.138  0.0452 -0.4684 -0.0012
 5622SOL    HW222260   3.098   0.764   5.118 -0.5905  0.8390 -0.9440
 5622SOL    HW322261   3.014   0.639   5.126  1.2243 -0.3757 -0.4275
 5622SOL    MW422262   3.022   0.725   5.133  0.1169 -0.2837 -0.1818
 5623SOL     OW22263   4.418   2.739   4.176  0.0498 -0.0101 -0.0502
 5623SOL    HW222264   4.405   2.650   4.206  0.8801 -0.8132 -1.8689
 5623SOL    HW322265   4.513   2.753   4.182 -0.0883  0.8021  0.3583
 5623SOL    MW422266   4.429   2.729   4.180  0.1411 -0.0089 -0.2362
 5624SOL     OW22267   0.960   0.902   2.940 -0.3315 -0.0572  0.1632
 5624SOL    HW222268   0.903   0.936   3.009 -0.3941 -0.9967  0.6023
 5624SOL    HW322269   1.043   0.885   2.985 -0.1782 -0.0966 -0.1328
 5624SOL    MW422270   0.963   0.904   2.955 -0.3196 -0.1864  0.1821
 5625SOL     OW22271   1.397   4.390   5.311  0.1576  0.2107 -0.2200
 5625SOL    HW222272   1.331   4.456   5.291 -1.2298 -0.8060  0.7877
 5625SOL    HW322273   1.460   4.434   5.368 -1.1131  0.5131  0.9962
 5625SOL    MW422274   1.397   4.404   5.316 -0.1931  0.1164  0.0734
 5626SOL     OW22275   4.887   5.016   6.089 -0.5313 -0.1768 -0.2115
 5626SOL    HW222276   4.908   5.105   6.060  0.8117  0.1481  1.5521
 5626SOL    HW322277   4.929   4.959   6.024  1.6494  0.5145  0.4924
 5626SOL    MW422278   4.895   5.020   6.077 -0.0664 -0.0428  0.1140
 5627SOL     OW22279   4.338   1.806   0.964 -0.3054 -0.6905 -0.3012
 5627SOL    HW222280   4.395   1.833   1.036 -2.4344  0.9401  0.8797
 5627SOL    HW322281   4.369   1.856   0.889  0.1366 -0.2465  0.1690
 5627SOL    MW422282   4.350   1.816   0.964 -0.5280 -0.4168 -0.0834
 5628SOL     OW22283   2.590   4.576   4.316 -0.2643  0.1127 -0.1321
 5628SOL    HW222284   2.580   4.541   4.404  3.2206 -0.2498  0.2716
 5628SOL    HW322285   2.596   4.498   4.260 -4.8395  0.2944 -1.2553
 5628SOL    MW422286   2.590   4.561   4.320 -0.4081  0.0888 -0.2271
 5629SOL     OW22287   3.887   5.333   5.347  0.2057 -0.1035  0.6560
 5629SOL    HW222288   3.943   5.326   5.424  1.2980  0.3358 -0.0758
 5629SOL    HW322289   3.948   5.350   5.275 -1.0491  3.3816  0.2321
 5629SOL    MW422290   3.903   5.334   5.348  0.1843  0.4143  0.5035
 5630SOL     OW22291   0.343   5.415   1.741  0.3437  0.4780 -0.6064
 5630SOL    HW222292   0.377   5.394   1.654 -0.8870  1.7185 -1.4243
 5630SOL    HW322293   0.280   5.485   1.726 -0.0616  0.5680  1.2715
 5630SOL    MW422294   0.339   5.421   1.728  0.1278  0.6535 -0.4666
 5631SOL     OW22295   2.181   1.390   6.188 -0.7477  0.4826  0.3355
 5631SOL    HW222296   2.205   1.377   6.096  0.0199  0.0204  0.5971
 5631SOL    HW322297   2.104   1.334   6.202 -1.2344  1.0037 -0.1688
 5631SOL    MW422298   2.174   1.381   6.178 -0.7106  0.4903  0.3035
 5632SOL     OW22299   5.746   5.724   1.235 -0.0467 -0.2671  0.0784
 5632SOL    HW222300   5.839   5.700   1.236 -0.2222 -0.9573  0.9872
 5632SOL    HW322301   5.737   5.781   1.158  0.5397 -2.6150 -1.8530
 5632SOL    MW422302   5.757   5.728   1.225  0.0075 -0.6680 -0.0566
 5633SOL     OW22303   0.374   6.010   2.219 -0.9828 -0.4010  0.2826
 5633SOL    HW222304   0.301   6.070   2.231 -0.6222 -0.0699  0.8331
 5633SOL    HW322305   0.450   6.058   2.250 -0.3506 -0.3443 -1.2956
 5633SOL    MW422306   0.374   6.024   2.225 -0.8518 -0.3499  0.1470
 5634SOL     OW22307   1.326   4.677   4.828 -0.2775 -0.2912  0.4402
 5634SOL    HW222308   1.366   4.763   4.814 -0.2482 -0.2502  0.7709
 5634SOL    HW322309   1.255   4.692   4.890  1.1054 -0.8316  2.2801
 5634SOL    MW422310   1.322   4.690   4.834 -0.0912 -0.3571  0.7266
 5635SOL     OW22311   5.047   1.734   6.294 -0.3775  0.4657 -0.3470
 5635SOL    HW222312   5.094   1.653   6.312 -0.7899  0.5701  1.3731
 5635SOL    HW322313   4.963   1.723   6.339  1.0585  3.3989  3.6624
 5635SOL    MW422314   5.042   1.722   6.302 -0.2425  0.8665  0.4089
 5636SOL     OW22315   5.740   0.615   2.226 -0.3030  0.0951  0.3073
 5636SOL    HW222316   5.716   0.619   2.134  0.3494  2.4751  0.1569
 5636SOL    HW322317   5.816   0.557   2.229 -0.1041  0.2869 -0.7204
 5636SOL    MW422318   5.747   0.608   2.215 -0.1907  0.4344  0.1519
 5637SOL     OW22319   5.378   2.512   5.871  0.4990 -0.1780 -0.2712
 5637SOL    HW222320   5.313   2.576   5.902  0.3723  0.3242 -1.5096
 5637SOL    HW322321   5.337   2.427   5.888  0.4727  0.0616  0.9712
 5637SOL    MW422322   5.364   2.509   5.877  0.4788 -0.0801 -0.2707
 5638SOL     OW22323   4.063   3.167   6.161 -0.1251 -0.4760  0.3010
 5638SOL    HW222324   4.140   3.222   6.177 -1.6668  2.0879 -0.5586
 5638SOL    HW322325   4.025   3.153   6.247  0.1720  0.0162  0.5176
 5638SOL    MW422326   4.068   3.172   6.174 -0.2893 -0.0728  0.2162
 5639SOL     OW22327   2.066   3.825   3.601  0.3535 -0.2323 -0.4997
 5639SOL    HW222328   1.973   3.829   3.620  0.6609 -0.6130  1.2920
 5639SOL    HW322329   2.072   3.777   3.517 -0.9324 -4.5041  1.5585
 5639SOL    MW422330   2.055   3.819   3.592  0.2244 -0.8461  0.0082
 5640SOL     OW22331   3.896   5.534   0.070  0.6304  0.5342  0.1503
 5640SOL    HW222332   3.947   5.454   0.084  1.7587  1.2197  0.1261
 5640SOL    HW322333   3.812   5.503   0.037  1.2967 -0.6125 -0.5623
 5640SOL    MW422334   3.892   5.519   0.067  0.8672  0.4734  0.0531
 5641SOL     OW22335   4.407   4.843   1.942  0.3358 -0.0375 -0.1503
 5641SOL    HW222336   4.333   4.853   1.881  0.4494  0.6691 -0.1798
 5641SOL    HW322337   4.380   4.892   2.020  1.1048  0.9410 -0.4730
 5641SOL    MW422338   4.394   4.851   1.944  0.4523  0.1848 -0.1968
 5642SOL     OW22339   5.161   2.692   5.939  0.0989 -0.0087 -1.0175
 5642SOL    HW222340   5.135   2.729   5.855 -0.5522 -0.2654 -0.9345
 5642SOL    HW322341   5.094   2.626   5.958 -0.2827  0.6872  0.1437
 5642SOL    MW422342   5.149   2.688   5.930 -0.0373  0.0492 -0.8533
 5643SOL     OW22343   5.832   2.734   3.504 -0.4935 -0.2448  0.3095
 5643SOL    HW222344   5.871   2.673   3.441 -0.3127 -0.1335  0.3121
 5643SOL    HW322345   5.856   2.821   3.471  2.5881 -0.1676  2.3380
 5643SOL    MW422346   5.841   2.737   3.492 -0.0631 -0.2200  0.5775
 5644SOL     OW22347   4.106   6.311   5.035  0.0895  0.0724 -0.1251
 5644SOL    HW222348   4.098   6.349   5.122  1.6689  1.1708 -0.4076
 5644SOL    HW322349   4.196   6.331   5.008  0.9122 -3.4415 -0.5452
 5644SOL    MW422350   4.117   6.319   5.043  0.4064 -0.2463 -0.2178
 5645SOL     OW22351   2.805   4.533   2.904  0.2069 -0.0441 -0.3279
 5645SOL    HW222352   2.830   4.508   2.993 -2.3736  0.3598  0.5971
 5645SOL    HW322353   2.733   4.595   2.916 -0.1010  0.1417 -2.6964
 5645SOL    MW422354   2.798   4.538   2.917 -0.1742  0.0337 -0.5184
 5646SOL     OW22355   3.679   5.908   4.123  0.4009 -0.2706 -0.0048
 5646SOL    HW222356   3.735   5.850   4.175 -1.2514 -1.1356  0.9006
 5646SOL    HW322357   3.691   5.994   4.163 -0.9477 -0.9448  2.0298
 5646SOL    MW422358   3.688   5.912   4.135  0.0049 -0.4737  0.3831
 5647SOL     OW22359   6.386   0.916   1.218 -0.9040 -0.6856  0.4581
 5647SOL    HW222360   6.463   0.885   1.264 -0.0943  0.1448 -0.2998
 5647SOL    HW322361   6.358   0.994   1.268 -0.5466 -0.2972  0.0543
 5647SOL    MW422362   6.392   0.923   1.231 -0.7500 -0.5248  0.3049
 5648SOL     OW22363   5.956   5.302   6.017 -0.1457 -0.2090  0.1414
 5648SOL    HW222364   5.980   5.240   6.085  0.8236  2.8607  2.8386
 5648SOL    HW322365   6.037   5.351   6.000 -0.5830 -0.2787 -2.6926
 5648SOL    MW422366   5.970   5.300   6.023 -0.0755  0.1868  0.1234
 5649SOL     OW22367   6.020   3.439   5.858 -0.4683 -0.1371  1.1984
 5649SOL    HW222368   6.007   3.492   5.936  0.8755  0.0186  1.3400
 5649SOL    HW322369   6.105   3.398   5.871 -0.1414  0.0303 -0.2632
 5649SOL    MW422370   6.029   3.441   5.870 -0.2479 -0.0945  1.0242
 5650SOL     OW22371   5.903   1.302   2.404 -0.6510  0.1194  0.1785
 5650SOL    HW222372   5.843   1.292   2.479 -1.1165  0.9971 -0.0706
 5650SOL    HW322373   5.990   1.299   2.443 -0.8828  0.2923  0.7215
 5650SOL    MW422374   5.906   1.300   2.419 -0.7430  0.2580  0.2173
 5651SOL     OW22375   1.834   0.276   2.252 -0.1518 -0.2331  0.5248
 5651SOL    HW222376   1.876   0.355   2.285 -1.5897 -0.2345  2.4727
 5651SOL    HW322377   1.746   0.277   2.290 -2.1506 -0.0987 -3.5596
 5651SOL    MW422378   1.828   0.287   2.261 -0.6052 -0.2156  0.2429
 5652SOL     OW22379   5.301   4.559   5.525 -0.0691 -0.3049  0.4209
 5652SOL    HW222380   5.260   4.485   5.570 -0.1666 -1.1018 -0.9321
 5652SOL    HW322381   5.231   4.596   5.471  0.6000 -0.8271 -0.8514
 5652SOL    MW422382   5.286   4.554   5.524  0.0063 -0.4789  0.0746
 5653SOL     OW22383   4.253   3.389   6.225 -0.2270  0.1451  0.0313
 5653SOL    HW222384   4.207   3.405   6.308 -1.3801 -0.6422 -0.4305
 5653SOL    HW322385   4.217   3.455   6.165 -2.5185 -1.8424 -0.9496
 5653SOL    MW422386   4.242   3.400   6.228 -0.6815 -0.2210 -0.1591
 5654SOL     OW22387   6.417   1.189   0.234 -0.1330  0.8013  0.4531
 5654SOL    HW222388   6.462   1.273   0.223  0.4492  0.6699  1.7114
 5654SOL    HW322389   6.482   1.131   0.274 -0.7728 -0.0191  0.3382
 5654SOL    MW422390   6.431   1.193   0.238 -0.1406  0.6758  0.6039
 5655SOL     OW22391   6.249   2.012   5.975 -0.2802 -0.4690 -0.0024
 5655SOL    HW222392   6.188   1.954   6.021  0.8354 -0.9465  0.9435
 5655SOL    HW322393   6.280   2.072   6.043  0.5932 -0.4974 -0.3697
 5655SOL    MW422394   6.245   2.012   5.990 -0.0178 -0.5358  0.0739
 5656SOL     OW22395   2.682   0.076   1.504  0.0780 -0.0749  0.7583
 5656SOL    HW222396   2.651  -0.013   1.518  0.9386 -0.7380 -1.1670
 5656SOL    HW322397   2.619   0.115   1.445 -0.0705  0.4728  1.2667
 5656SOL    MW422398   2.670   0.069   1.498  0.1720 -0.0901  0.5714
 5657SOL     OW22399   6.355   5.052   6.200  0.3596  0.8096  0.1143
 5657SOL    HW222400   6.364   5.116   6.129  0.9389  0.9498  0.3096
 5657SOL    HW322401   6.329   4.971   6.156  0.0523  1.0681 -0.1828
 5657SOL    MW422402   6.353   5.049   6.185  0.3955  0.8622  0.1009
 5658SOL     OW22403   3.404   2.773   0.229 -0.4933 -0.1930 -0.0176
 5658SOL    HW222404   3.350   2.780   0.308  1.4760 -0.3902  1.3978
 5658SOL    HW322405   3.457   2.853   0.230 -0.3380 -0.2740 -1.0737
 5658SOL    MW422406   3.404   2.785   0.240 -0.2130 -0.2297  0.0298
 5659SOL     OW22407   5.752   2.619   5.456 -0.5604 -0.0602 -0.2820
 5659SOL    HW222408   5.761   2.612   5.551  1.2012  0.3956 -0.3816
 5659SOL    HW322409   5.774   2.711   5.437  2.5140 -0.9130 -1.4017
 5659SOL    MW422410   5.756   2.631   5.466  0.0777 -0.1126 -0.4429
 5660SOL     OW22411   4.076   0.702   6.007  0.3368  0.9558 -0.5952
 5660SOL    HW222412   4.056   0.621   5.959 -0.9320  1.6447 -1.2960
 5660SOL    HW322413   4.047   0.684   6.097  0.1017  0.6154 -0.7369
 5660SOL    MW422414   4.069   0.689   6.013  0.1384  1.0018 -0.7064
 5661SOL     OW22415   5.601   6.373   0.543 -0.3997 -0.1521 -0.3651
 5661SOL    HW222416   5.658   6.439   0.502 -0.9723 -0.3573 -1.5409
 5661SOL    HW322417   5.522   6.421   0.567  0.2214  0.1315  1.2632
 5661SOL    MW422418   5.598   6.388   0.541 -0.3933 -0.1418 -0.3054
 5662SOL     OW22419   3.569   1.311   5.523  0.0969 -0.1148 -0.1637
 5662SOL    HW222420   3.646   1.265   5.557 -1.5124 -1.3792  1.9250
 5662SOL    HW322421   3.537   1.363   5.596 -2.5786 -1.7111 -0.0896
 5662SOL    MW422422   3.575   1.312   5.537 -0.4684 -0.4922  0.1217
 5663SOL     OW22423   2.681   1.003   4.807 -0.1564 -0.0023 -0.9046
 5663SOL    HW222424   2.686   0.941   4.879  1.5506  0.5425 -0.4951
 5663SOL    HW322425   2.743   1.072   4.831 -1.0581  1.2202 -1.9398
 5663SOL    MW422426   2.690   1.004   4.820 -0.0501  0.2309 -0.9871
 5664SOL     OW22427   3.332   6.302   2.557 -0.3822  0.0007  0.0861
 5664SOL    HW222428   3.253   6.275   2.602 -0.7429  1.2602  0.2536
 5664SOL    HW322429   3.358   6.384   2.601  0.0903  0.4608 -1.0040
 5664SOL    MW422430   3.325   6.310   2.569 -0.3675  0.2276 -0.0356
 5665SOL     OW22431   2.022   2.379   3.895 -0.4947  0.0010  0.1922
 5665SOL    HW222432   2.112   2.357   3.873 -0.5016  0.6847 -0.5721
 5665SOL    HW322433   2.018   2.370   3.990  0.1060 -0.9886  0.1323
 5665SOL    MW422434   2.033   2.375   3.905 -0.4163 -0.0394  0.0835
 5666SOL     OW22435   1.218   3.058   5.084 -0.0179 -0.2463 -0.3993
 5666SOL    HW222436   1.270   3.024   5.156  0.2798  0.9538 -0.0214
 5666SOL    HW322437   1.212   2.985   5.022 -1.0281 -1.5926  1.2065
 5666SOL    MW422438   1.224   3.044   5.085 -0.1119 -0.2656 -0.1376
 5667SOL     OW22439   1.455   6.395   6.154  0.2398 -0.4391  0.0603
 5667SOL    HW222440   1.365   6.387   6.185 -0.1418  0.7312 -0.6901
 5667SOL    HW322441   1.508   6.397   6.234 -0.6536  1.7633  0.6503
 5667SOL    MW422442   1.450   6.394   6.169  0.0716  0.0059  0.0392
 5668SOL     OW22443   0.013   1.189   5.778  0.0955 -0.0744 -0.0552
 5668SOL    HW222444   0.092   1.138   5.759  0.0696 -0.4371  0.7850
 5668SOL    HW322445   0.045   1.271   5.815  0.1162  0.3390 -0.9475
 5668SOL    MW422446   0.027   1.193   5.780  0.0948 -0.0677 -0.0621
 5669SOL     OW22447   1.173   2.209   5.005 -0.7773  0.5307 -0.2730
 5669SOL    HW222448   1.215   2.158   5.075 -1.5543  2.9301  2.0935
 5669SOL    HW322449   1.093   2.160   4.984 -0.5470 -0.2119  0.5179
 5669SOL    MW422450   1.168   2.196   5.011 -0.8494  0.7493  0.1435
 5670SOL     OW22451   1.843   3.935   5.375 -0.1254  0.4040  0.4055
 5670SOL    HW222452   1.808   4.024   5.375  3.2786  1.9035  0.9350
 5670SOL    HW322453   1.831   3.904   5.464  2.1112  1.9949  1.3679
 5670SOL    MW422454   1.837   3.943   5.387  0.6188  0.8118  0.6024
 5671SOL     OW22455   2.744   3.871   3.567 -0.5128  0.2820  0.2609
 5671SOL    HW222456   2.717   3.962   3.564 -0.7605  0.1988 -0.0458
 5671SOL    HW322457   2.821   3.871   3.624 -0.9321  0.5737  0.8424
 5671SOL    MW422458   2.751   3.883   3.574 -0.6008  0.3095  0.2971
 5672SOL     OW22459   1.279   5.858   3.975 -0.0531  0.3329 -0.1595
 5672SOL    HW222460   1.369   5.885   3.991 -0.5068  3.1214 -1.5474
 5672SOL    HW322461   1.266   5.872   3.881 -1.5943 -1.1793 -0.2290
 5672SOL    MW422462   1.289   5.863   3.964 -0.3163  0.5013 -0.3518
 5673SOL     OW22463   5.476   3.810   3.637  0.4226  0.0653  0.2269
 5673SOL    HW222464   5.423   3.797   3.715  1.6570 -1.0500  0.9026
 5673SOL    HW322465   5.543   3.873   3.664  0.4642  0.1761 -0.1292
 5673SOL    MW422466   5.478   3.817   3.651  0.5910 -0.0673  0.2691
 5674SOL     OW22467   1.075   1.771   1.401 -0.3217  0.6108 -0.1679
 5674SOL    HW222468   0.986   1.753   1.371  0.2661 -1.0098 -1.0509
 5674SOL    HW322469   1.085   1.716   1.479  0.4037 -0.4818 -0.9943
 5674SOL    MW422470   1.065   1.761   1.408 -0.1485  0.2528 -0.3934
 5675SOL     OW22471   5.763   5.777   1.519  0.3714  0.3582 -0.2417
 5675SOL    HW222472   5.827   5.717   1.558  0.7941  0.1849 -1.1709
 5675SOL    HW322473   5.763   5.754   1.426 -3.2825 -1.8108  0.0610
 5675SOL    MW422474   5.772   5.766   1.512 -0.0549  0.0492 -0.3244
 5676SOL     OW22475   3.985   0.452   5.873 -0.0718  0.0347 -0.0791
 5676SOL    HW222476   4.008   0.360   5.880 -0.5085 -0.1435 -0.8762
 5676SOL    HW322477   3.893   0.456   5.900  0.4873  0.5511  1.8825
 5676SOL    MW422478   3.976   0.440   5.877 -0.0557  0.0793  0.0745
 5677SOL     OW22479   6.232   4.172   5.429 -0.1694  0.5010 -0.1736
 5677SOL    HW222480   6.178   4.102   5.392 -0.5668  1.3043 -1.1596
 5677SOL    HW322481   6.197   4.184   5.518  0.9366 -1.5929  0.6141
 5677SOL    MW422482   6.220   4.164   5.436 -0.0759  0.3307 -0.1998
 5678SOL     OW22483   1.041   2.126   1.036 -0.0252  0.0504 -0.3688
 5678SOL    HW222484   1.112   2.190   1.032  1.1232 -1.0981  0.7710
 5678SOL    HW322485   1.061   2.073   1.113 -1.3005 -1.2729 -0.9104
 5678SOL    MW422486   1.053   2.127   1.045 -0.0419 -0.2758 -0.2899
 5679SOL     OW22487   1.543   0.085   1.233 -0.2544  0.1516 -0.3431
 5679SOL    HW222488   1.532   0.160   1.291  2.9056  0.1410  0.4196
 5679SOL    HW322489   1.526   0.009   1.288 -0.1809  0.2071 -0.2446
 5679SOL    MW422490   1.539   0.085   1.248  0.1722  0.1575 -0.2295
 5680SOL     OW22491   4.710   1.598   4.899 -0.2509  0.2946  0.4724
 5680SOL    HW222492   4.626   1.628   4.866 -0.0066  2.0928  1.3695
 5680SOL    HW322493   4.771   1.670   4.880  1.4073 -1.4216 -1.2495
 5680SOL    MW422494   4.707   1.611   4.892  0.0001  0.3054  0.3636
 5681SOL     OW22495   1.124   5.294   0.604  0.0406 -0.0989 -0.8369
 5681SOL    HW222496   1.036   5.276   0.570 -0.0546 -0.7583 -0.2651
 5681SOL    HW322497   1.136   5.230   0.674  0.3936  0.9434  0.0889
 5681SOL    MW422498   1.114   5.283   0.609  0.0746 -0.0484 -0.6393
 5682SOL     OW22499   1.491   4.454   3.947  0.3740  0.4579 -0.3461
 5682SOL    HW222500   1.580   4.421   3.937  0.5078  0.7499 -0.1276
 5682SOL    HW322501   1.501   4.538   3.993  0.0088  0.6162 -0.5493
 5682SOL    MW422502   1.504   4.461   3.952  0.3435  0.5173 -0.3441
 5683SOL     OW22503   2.339   6.004   1.982 -0.1624 -0.5997 -0.2131
 5683SOL    HW222504   2.245   6.005   1.962 -0.1285  0.0527 -0.3495
 5683SOL    HW322505   2.380   6.041   1.904  0.3661 -2.4794 -0.8943
 5683SOL    MW422506   2.332   6.009   1.969 -0.0882 -0.7616 -0.3210
 5684SOL     OW22507   5.596   2.827   6.365 -0.0003 -0.1227  0.0615
 5684SOL    HW222508   5.671   2.886   6.370  0.5868 -0.7766 -0.6469
 5684SOL    HW322509   5.521   2.880   6.390  0.4815  0.9827 -0.7817
 5684SOL    MW422510   5.596   2.842   6.369  0.1407 -0.0631 -0.1432
 5685SOL     OW22511   4.633   1.147   5.451  0.9355 -0.2921 -0.0417
 5685SOL    HW222512   4.613   1.240   5.448  0.2663 -0.4226  0.4597
 5685SOL    HW322513   4.555   1.104   5.416  0.3891 -0.7835  1.7165
 5685SOL    MW422514   4.620   1.153   5.446  0.7751 -0.3741  0.2565
 5686SOL     OW22515   5.405   4.601   0.149 -0.5596  0.5243  0.1788
 5686SOL    HW222516   5.453   4.545   0.210  0.6714 -0.7028 -1.7820
 5686SOL    HW322517   5.336   4.641   0.202 -1.0997 -2.3254  1.8519
 5686SOL    MW422518   5.402   4.599   0.164 -0.4685 -0.0136  0.1409
 5687SOL     OW22519   0.651   0.282   4.151  0.0528 -0.3325 -0.0708
 5687SOL    HW222520   0.636   0.339   4.226  2.6689  1.8253 -1.0444
 5687SOL    HW322521   0.602   0.323   4.079  0.5706 -0.2633 -0.3891
 5687SOL    MW422522   0.642   0.295   4.151  0.4662 -0.0387 -0.2412
 5688SOL     OW22523   3.659   1.245   0.250  0.1265  1.0521  0.3530
 5688SOL    HW222524   3.707   1.230   0.332 -0.1555  0.0410  0.3415
 5688SOL    HW322525   3.567   1.250   0.277  0.0622  1.0556  0.1339
 5688SOL    MW422526   3.653   1.244   0.264  0.0808  0.9191  0.3226
 5689SOL     OW22527   2.008   0.784   2.603  0.0414 -0.1553  0.3015
 5689SOL    HW222528   1.914   0.769   2.613 -0.0591 -0.6629 -1.2049
 5689SOL    HW322529   2.017   0.879   2.602 -0.7916 -0.0365 -1.9954
 5689SOL    MW422530   1.997   0.794   2.604 -0.0818 -0.2066 -0.2003
 5690SOL     OW22531   5.373   1.502   3.939 -0.0447  0.5401 -0.5177
 5690SOL    HW222532   5.332   1.419   3.914  0.6477  0.6070 -1.9524
 5690SOL    HW322533   5.461   1.497   3.902  0.3646  1.4815  0.2925
 5690SOL    MW422534   5.379   1.490   3.931  0.1006  0.6732 -0.6001
 5691SOL     OW22535   6.174   2.239   4.293 -0.6501  0.3728 -0.1508
 5691SOL    HW222536   6.145   2.288   4.216 -0.6796  2.0429  0.8645
 5691SOL    HW322537   6.103   2.249   4.356 -0.5474 -0.8123  0.1883
 5691SOL    MW422538   6.161   2.247   4.291 -0.6404  0.4368  0.0279
 5692SOL     OW22539   1.220   6.033   3.080  0.0478 -0.0732 -0.5701
 5692SOL    HW222540   1.181   6.033   2.993 -0.1439  0.9623 -0.4989
 5692SOL    HW322541   1.247   6.124   3.094 -1.4246  0.1455  1.1117
 5692SOL    MW422542   1.219   6.045   3.070 -0.1718  0.0922 -0.3388
 5693SOL     OW22543   4.055   4.563   2.266 -0.3105 -0.1701  0.2803
 5693SOL    HW222544   4.010   4.647   2.272 -0.0980  0.1856 -2.1716
 5693SOL    HW322545   4.093   4.550   2.353 -1.1446  1.7933  0.9961
 5693SOL    MW422546   4.055   4.572   2.278 -0.3925  0.1359  0.0512
 5694SOL     OW22547   0.071   1.876   2.656 -0.3510 -0.3183  0.4355
 5694SOL    HW222548   0.090   1.799   2.602  0.8083 -0.5413  1.1355
 5694SOL    HW322549   0.079   1.950   2.596  1.0837 -0.5486  0.3054
 5694SOL    MW422550   0.074   1.875   2.641 -0.0087 -0.3781  0.5107
 5695SOL     OW22551   4.276   5.023   3.894  0.0723 -0.1194  0.0231
 5695SOL    HW222552   4.223   5.018   3.973 -1.7089 -0.5913 -1.1468
 5695SOL    HW322553   4.313   5.111   3.895 -0.8360  0.2655  0.8363
 5695SOL    MW422554   4.274   5.034   3.904 -0.2826 -0.1309 -0.0240
 5696SOL     OW22555   4.043   1.282   2.829 -0.1898  0.0962 -0.0456
 5696SOL    HW222556   4.109   1.340   2.868 -0.8353  0.1538  0.9962
 5696SOL    HW322557   4.018   1.326   2.747 -1.7285  2.1143  1.3950
 5696SOL    MW422558   4.049   1.295   2.823 -0.4780  0.3700  0.2819
 5697SOL     OW22559   1.838   5.479   5.836 -0.2447  0.0189 -0.5251
 5697SOL    HW222560   1.853   5.528   5.917 -0.2203 -0.1239 -0.4428
 5697SOL    HW322561   1.743   5.477   5.826 -0.2737 -0.4494 -0.1992
 5697SOL    MW422562   1.827   5.485   5.846 -0.2453 -0.0617 -0.4713
 5698SOL     OW22563   6.028   0.378   0.411 -0.2344 -0.1475  0.4069
 5698SOL    HW222564   6.107   0.403   0.457 -1.0225  3.5749  0.0143
 5698SOL    HW322565   5.956   0.404   0.468 -1.3185 -2.9368  0.5184
 5698SOL    MW422566   6.029   0.385   0.424 -0.4814 -0.0244  0.3698
 5699SOL     OW22567   0.034   6.137   1.223 -0.2181 -0.8578  0.1809
 5699SOL    HW222568  -0.060   6.143   1.244 -0.1905  0.0987  0.0645
 5699SOL    HW322569   0.072   6.094   1.300 -0.5567 -0.0000  0.8456
 5699SOL    MW422570   0.026   6.132   1.236 -0.2591 -0.6185  0.2532
 5700SOL     OW22571   1.624   3.643   0.333 -0.2843 -0.2902 -0.2095
 5700SOL    HW222572   1.605   3.668   0.423 -0.5271 -0.9218 -0.0821
 5700SOL    HW322573   1.720   3.639   0.330 -0.2997 -1.3883  0.3392
 5700SOL    MW422574   1.634   3.646   0.344 -0.3184 -0.5184 -0.1203
 5701SOL     OW22575   1.812   3.474   5.257  0.3105  0.6659  0.1954
 5701SOL    HW222576   1.883   3.536   5.241 -0.2565  0.9836 -1.3271
 5701SOL    HW322577   1.733   3.521   5.230 -0.6482  0.6650  2.7509
 5701SOL    MW422578   1.811   3.488   5.251  0.1092  0.7077  0.3317
 5702SOL     OW22579   0.006   4.635   1.795  0.6924 -0.2620  0.2193
 5702SOL    HW222580   0.026   4.615   1.704 -0.3538  0.9484 -0.2993
 5702SOL    HW322581   0.074   4.696   1.823 -0.0494  0.8450 -0.3508
 5702SOL    MW422582   0.017   4.640   1.787  0.4565  0.0437  0.0757
 5703SOL     OW22583   1.141   0.321   1.613 -0.5586 -0.2796  0.3525
 5703SOL    HW222584   1.061   0.275   1.637 -0.7775  0.3620  0.8491
 5703SOL    HW322585   1.211   0.271   1.657 -0.5546 -1.4670 -0.9285
 5703SOL    MW422586   1.140   0.308   1.622 -0.5870 -0.3516  0.2490
 5704SOL     OW22587   4.929   1.405   0.069 -0.2549 -0.4104 -0.2593
 5704SOL    HW222588   4.972   1.429   0.151  1.4031  1.3052 -1.5497
 5704SOL    HW322589   4.914   1.311   0.077  0.2701 -0.3803  1.7966
 5704SOL    MW422590   4.933   1.396   0.081  0.0331 -0.1801 -0.1583
 5705SOL     OW22591   5.559   5.069   4.605  0.4137 -0.3638 -0.1631
 5705SOL    HW222592   5.625   5.086   4.673  0.9720  0.0501 -0.8022
 5705SOL    HW322593   5.609   5.040   4.529 -0.1177  0.1442 -0.7181
 5705SOL    MW422594   5.574   5.068   4.604  0.4172 -0.2422 -0.3207
 5706SOL     OW22595   2.104   1.339   0.811 -0.1137  0.0255 -0.2045
 5706SOL    HW222596   2.091   1.418   0.863 -0.2882  0.4321 -0.8534
 5706SOL    HW322597   2.053   1.271   0.856 -0.3387  0.3904  0.0924
 5706SOL    MW422598   2.096   1.340   0.824 -0.1664  0.1273 -0.2510
 5707SOL     OW22599   2.532   2.193   1.504 -0.3892  0.4701  0.0180
 5707SOL    HW222600   2.535   2.101   1.532  0.2450  0.7545  0.9236
 5707SOL    HW322601   2.523   2.189   1.409 -4.6672 -0.5665  0.2583
 5707SOL    MW422602   2.531   2.180   1.495 -0.8700  0.3708  0.1692
 5708SOL     OW22603   3.353   1.623   2.711 -0.0445  0.0662  0.3580
 5708SOL    HW222604   3.340   1.528   2.720  3.1003 -0.5306 -0.1693
 5708SOL    HW322605   3.448   1.634   2.715 -0.0399  2.7997 -3.0528
 5708SOL    MW422606   3.364   1.612   2.713  0.3710  0.3481 -0.1616
 5709SOL     OW22607   3.785   1.156   2.529  0.4721 -0.0181  0.4946
 5709SOL    HW222608   3.714   1.096   2.549  1.9269 -2.3393 -0.9222
 5709SOL    HW322609   3.750   1.212   2.459 -0.9851  1.0902  2.0157
 5709SOL    MW422610   3.771   1.156   2.522  0.4718 -0.1781  0.5084
 5710SOL     OW22611   5.268   3.926   0.371 -0.1979  0.5348  0.8588
 5710SOL    HW222612   5.354   3.909   0.410  1.2891  0.3647 -2.2044
 5710SOL    HW322613   5.228   3.839   0.361 -0.5348  0.5692  1.7966
 5710SOL    MW422614   5.274   3.912   0.375 -0.0461  0.5169  0.5784
 5711SOL     OW22615   5.365   5.280   5.025 -0.4235 -0.0144  0.2473
 5711SOL    HW222616   5.337   5.248   4.939  0.9905  1.5196 -0.8481
 5711SOL    HW322617   5.438   5.338   5.006 -0.1438  0.4593  2.5077
 5711SOL    MW422618   5.371   5.284   5.011 -0.2001  0.2505  0.4010
 5712SOL     OW22619   5.272   2.260   4.918 -0.3196  0.1588  0.1770
 5712SOL    HW222620   5.242   2.312   4.993  1.5028  0.0398  1.0322
 5712SOL    HW322621   5.221   2.180   4.924 -2.9743  1.6236 -0.9943
 5712SOL    MW422622   5.261   2.257   4.929 -0.4294  0.3363  0.1353
 5713SOL     OW22623   5.882   4.068   2.753  0.5893 -0.2919  0.0504
 5713SOL    HW222624   5.851   4.091   2.665  0.1930  1.7045  0.6548
 5713SOL    HW322625   5.971   4.102   2.756  0.1961  0.7315  0.7803
 5713SOL    MW422626   5.889   4.076   2.742  0.4852  0.1065  0.2264
 5714SOL     OW22627   1.958   1.555   1.564  0.2894  0.3731  0.3891
 5714SOL    HW222628   1.986   1.470   1.531 -1.8370 -0.7633  1.3283
 5714SOL    HW322629   1.959   1.547   1.659 -1.2513  0.8842  0.4920
 5714SOL    MW422630   1.962   1.543   1.572 -0.1944  0.2906  0.5266
 5715SOL     OW22631   3.076   3.827   6.117  0.4093  1.0030 -0.1734
 5715SOL    HW222632   3.075   3.734   6.143  0.8263  1.4806  1.6825
 5715SOL    HW322633   3.146   3.865   6.169  0.6868  2.2605 -1.4125
 5715SOL    MW422634   3.085   3.820   6.127  0.5009  1.2319 -0.0920
 5716SOL     OW22635   3.567   0.722   0.837  0.1549 -0.6184  0.1548
 5716SOL    HW222636   3.490   0.690   0.884 -0.3657  0.1087 -0.1759
 5716SOL    HW322637   3.642   0.688   0.887 -0.3711  0.4546  1.7655
 5716SOL    MW422638   3.567   0.713   0.850  0.0168 -0.3809  0.3236
 5717SOL     OW22639   2.311   4.819   6.327 -0.0923 -0.1118  0.0452
 5717SOL    HW222640   2.234   4.793   6.276  0.1774 -2.2504  0.6251
 5717SOL    HW322641   2.298   4.777   6.412  1.1186  0.5535  0.5839
 5717SOL    MW422642   2.299   4.810   6.332  0.1030 -0.3062  0.1928
 5718SOL     OW22643   2.842   0.011   0.883 -0.1375  0.1387  0.4804
 5718SOL    HW222644   2.909  -0.006   0.817 -0.4696  1.4423 -0.2324
 5718SOL    HW322645   2.763   0.030   0.832 -1.3972 -2.4923  1.2992
 5718SOL    MW422646   2.840   0.011   0.867 -0.3475 -0.0365  0.4944
 5719SOL     OW22647   0.995   0.830   5.723 -0.6286  0.2104 -0.0498
 5719SOL    HW222648   0.921   0.887   5.741 -1.0816  0.0388 -1.2922
 5719SOL    HW322649   0.956   0.744   5.706  0.0775 -0.6655  2.3565
 5719SOL    MW422650   0.980   0.826   5.723 -0.5952  0.0722  0.1038
 5720SOL     OW22651   0.028   2.063   1.839 -0.1194 -0.6236 -0.0929
 5720SOL    HW222652   0.029   2.118   1.917  1.8632 -0.1295 -0.4052
 5720SOL    HW322653   0.075   1.984   1.865  2.3955  0.3733 -1.2544
 5720SOL    MW422654   0.034   2.060   1.852  0.4740 -0.4269 -0.2873
 5721SOL     OW22655   0.591   1.420   5.028 -0.6328  0.1271 -0.1896
 5721SOL    HW222656   0.685   1.432   5.040 -0.6327 -1.6443  2.4600
 5721SOL    HW322657   0.581   1.331   4.995 -1.3680  0.2973 -0.4442
 5721SOL    MW422658   0.602   1.410   5.025 -0.7298 -0.0842  0.1264
 5722SOL     OW22659   5.700   5.513   0.999 -0.0459 -0.5888  0.1363
 5722SOL    HW222660   5.688   5.548   1.087 -2.3074 -2.4866  0.6981
 5722SOL    HW322661   5.633   5.557   0.947 -0.5118 -1.4143  0.0218
 5722SOL    MW422662   5.690   5.524   1.004 -0.4057 -0.9481  0.1953
 5723SOL     OW22663   1.816   2.522   4.291  0.0204 -0.2666 -0.5035
 5723SOL    HW222664   1.858   2.565   4.366  0.3606 -0.6802 -0.4577
 5723SOL    HW322665   1.751   2.464   4.330 -0.3576  0.1122 -0.5620
 5723SOL    MW422666   1.813   2.520   4.306  0.0154 -0.2712 -0.5052
 5724SOL     OW22667   6.293   0.795   2.914  0.5314  0.3790  0.6779
 5724SOL    HW222668   6.334   0.852   2.850  1.0314  0.2090  0.8483
 5724SOL    HW322669   6.363   0.739   2.946  0.1228 -0.0832  0.7856
 5724SOL    MW422670   6.307   0.795   2.909  0.5434  0.2956  0.7146
 5725SOL     OW22671   3.126   5.061   2.737  0.4131 -0.3320 -0.1740
 5725SOL    HW222672   3.103   4.974   2.768 -1.8901 -0.1258 -1.1371
 5725SOL    HW322673   3.196   5.090   2.796  1.5575 -2.9568 -0.1002
 5725SOL    MW422674   3.132   5.054   2.749  0.2603 -0.6511 -0.2914
 5726SOL     OW22675   0.107   4.693   2.831  0.4117  0.4729 -0.1027
 5726SOL    HW222676   0.182   4.705   2.773  0.5514 -1.8915 -0.5198
 5726SOL    HW322677   0.035   4.740   2.789  0.9396  0.2282 -1.3183
 5726SOL    MW422678   0.107   4.701   2.818  0.4998  0.1286 -0.3181
 5727SOL     OW22679   4.708   4.236   2.937 -0.5535  0.4467 -0.1454
 5727SOL    HW222680   4.725   4.224   2.843  1.5002 -1.3381  0.3754
 5727SOL    HW322681   4.786   4.280   2.969 -0.0992 -1.1923  1.1125
 5727SOL    MW422682   4.721   4.240   2.929 -0.2226 -0.0050  0.0892
 5728SOL     OW22683   4.232   3.585   1.601 -0.0461  0.1799  0.3989
 5728SOL    HW222684   4.183   3.534   1.665  1.0749 -0.0859  1.0870
 5728SOL    HW322685   4.254   3.666   1.646 -0.4252  0.5786 -0.1308
 5728SOL    MW422686   4.229   3.589   1.615  0.0517  0.1975  0.4198
 5729SOL     OW22687   0.130   0.355   3.859 -0.0563 -0.1715 -0.2432
 5729SOL    HW222688   0.210   0.341   3.809  0.1549  1.0375 -0.2893
 5729SOL    HW322689   0.129   0.285   3.924  1.3661  0.1443  0.1516
 5729SOL    MW422690   0.140   0.344   3.861  0.1592  0.0296 -0.1972
 5730SOL     OW22691   3.467   5.479   5.473  0.5792 -0.2093 -0.1977
 5730SOL    HW222692   3.559   5.497   5.490  0.1243  0.8448  1.3850
 5730SOL    HW322693   3.428   5.466   5.559 -1.0194  0.8204 -0.7150
 5730SOL    MW422694   3.474   5.480   5.487  0.3083  0.0656 -0.0571
 5731SOL     OW22695   2.368   0.849   3.732 -0.0762 -0.0325  0.4993
 5731SOL    HW222696   2.423   0.900   3.672 -0.6503  0.6252  0.5239
 5731SOL    HW322697   2.386   0.886   3.819 -0.5737  0.2021  0.5048
 5731SOL    MW422698   2.378   0.860   3.736 -0.2176  0.0852  0.5033
 5732SOL     OW22699   0.727   2.655   0.965  0.5450 -0.0952  0.1095
 5732SOL    HW222700   0.717   2.690   1.054  1.2815  1.2675 -0.3199
 5732SOL    HW322701   0.799   2.592   0.972  0.2879 -0.3508  0.5613
 5732SOL    MW422702   0.735   2.651   0.978  0.6083  0.0508  0.1125
 5733SOL     OW22703   0.773   5.409   1.690  0.2975 -0.6424  0.3306
 5733SOL    HW222704   0.837   5.389   1.621 -0.0869 -1.3437  0.1652
 5733SOL    HW322705   0.724   5.327   1.701 -0.5987 -0.1083  0.4273
 5733SOL    MW422706   0.775   5.396   1.682  0.1285 -0.6645  0.3216
 5734SOL     OW22707   2.138   1.222   5.220  0.6407 -0.1314 -0.4397
 5734SOL    HW222708   2.206   1.180   5.273  0.1523 -0.6055 -0.1882
 5734SOL    HW322709   2.066   1.238   5.280  0.9780  1.5184 -0.4184
 5734SOL    MW422710   2.138   1.218   5.235  0.6208  0.0237 -0.4037
 5735SOL     OW22711   1.328   5.032   5.628  1.3536 -0.2595 -0.1175
 5735SOL    HW222712   1.325   5.078   5.544  0.7524 -0.5027 -0.2385
 5735SOL    HW322713   1.355   5.099   5.691  1.5612 -0.0134 -0.4646
 5735SOL    MW422714   1.331   5.047   5.625  1.3017 -0.2591 -0.1793
 5736SOL     OW22715   5.852   1.771   0.746 -0.5756  0.1869  0.0042
 5736SOL    HW222716   5.869   1.722   0.666  0.3511 -0.4054  0.5436
 5736SOL    HW322717   5.935   1.815   0.765  0.0596 -1.6834  1.9788
 5736SOL    MW422718   5.866   1.770   0.738 -0.3695 -0.1380  0.3359
 5737SOL     OW22719   5.325   2.738   0.548  0.0521 -0.5662  0.1471
 5737SOL    HW222720   5.241   2.700   0.522  0.7032 -2.4280  0.6205
 5737SOL    HW322721   5.302   2.808   0.610 -1.1260 -1.6426  0.9791
 5737SOL    MW422722   5.311   2.742   0.553 -0.0174 -0.9538  0.3193
 5738SOL     OW22723   0.444   2.348   1.610 -1.0169 -0.5139  0.6031
 5738SOL    HW222724   0.536   2.363   1.591 -1.3564  0.2787 -0.4907
 5738SOL    HW322725   0.443   2.265   1.657  0.2097 -0.7601  0.2389
 5738SOL    MW422726   0.456   2.339   1.614 -0.8999 -0.4418  0.4108
 5739SOL     OW22727   0.054   3.171   1.223 -0.1520 -0.3427 -0.3615
 5739SOL    HW222728   0.000   3.100   1.189  0.1105 -0.0560 -1.4114
 5739SOL    HW322729   0.031   3.247   1.170 -1.1438  0.6524  1.3635
 5739SOL    MW422730   0.044   3.172   1.212 -0.2482 -0.1736 -0.2725
 5740SOL     OW22731   0.325   4.119   0.110  0.0262  0.2192 -0.5636
 5740SOL    HW222732   0.233   4.092   0.101 -0.1077  1.0127 -1.8221
 5740SOL    HW322733   0.334   4.194   0.051  1.7867 -0.6058 -1.4213
 5740SOL    MW422734   0.314   4.125   0.101  0.2408  0.2151 -0.8428
 5741SOL     OW22735   6.057   0.108   5.451 -0.0600  0.1499 -0.5791
 5741SOL    HW222736   6.026   0.084   5.363 -0.6047 -0.4197 -0.2443
 5741SOL    HW322737   6.112   0.185   5.437  1.4800 -1.0728 -1.6693
 5741SOL    MW422738   6.060   0.115   5.437  0.0713 -0.0866 -0.6788
 5742SOL     OW22739   6.254   6.213   4.657 -0.1224 -0.2476 -0.5008
 5742SOL    HW222740   6.283   6.187   4.569 -1.4648  0.7542 -1.2748
 5742SOL    HW322741   6.176   6.266   4.642 -1.4255 -1.4901  1.4047
 5742SOL    MW422742   6.248   6.217   4.643 -0.4715 -0.2793 -0.3515
 5743SOL     OW22743   2.159   5.110   1.118 -0.6102 -0.1040 -0.2072
 5743SOL    HW222744   2.225   5.091   1.185  0.6760 -0.9661 -1.6405
 5743SOL    HW322745   2.079   5.069   1.151 -0.1334 -0.0970  1.0070
 5743SOL    MW422746   2.157   5.102   1.131 -0.3776 -0.2168 -0.2361
 5744SOL     OW22747   6.416   3.341   3.559  0.1041  0.0855  0.3158
 5744SOL    HW222748   6.444   3.410   3.498  1.1433  0.0475  0.7234
 5744SOL    HW322749   6.493   3.325   3.614 -1.6579  2.3964  3.8380
 5744SOL    MW422750   6.430   3.348   3.558  0.0087  0.3854  0.8343
 5745SOL     OW22751   0.840   1.119   0.650 -0.1122  0.0063 -0.7553
 5745SOL    HW222752   0.746   1.135   0.664 -0.5432 -1.8216 -1.2429
 5745SOL    HW322753   0.876   1.205   0.632 -1.5294  0.8827  0.3723
 5745SOL    MW422754   0.832   1.132   0.649 -0.3561 -0.1193 -0.6709
 5746SOL     OW22755   2.952   5.889   1.682 -0.4992  0.0665  0.1606
 5746SOL    HW222756   3.013   5.835   1.632  0.8960  1.4224  0.3265
 5746SOL    HW322757   2.920   5.832   1.752  2.6274 -0.0208  1.6893
 5746SOL    MW422758   2.956   5.874   1.685  0.0974  0.2339  0.3841
 5747SOL     OW22759   5.676   5.681   1.972  0.0137  0.4798  0.2286
 5747SOL    HW222760   5.631   5.695   1.889  1.4296  0.6059 -0.5508
 5747SOL    HW322761   5.755   5.735   1.967  0.3137  0.2092  1.5091
 5747SOL    MW422762   5.680   5.690   1.961  0.2401  0.4607  0.2947
 5748SOL     OW22763   5.591   2.909   0.791  0.0684  0.1039  0.9741
 5748SOL    HW222764   5.604   2.996   0.754  0.2673 -0.2359  0.2358
 5748SOL    HW322765   5.611   2.920   0.884  1.0927  0.6280  0.7102
 5748SOL    MW422766   5.595   2.922   0.799  0.2298  0.1282  0.8418
 5749SOL     OW22767  -0.001   2.836   1.587 -0.4224 -0.2810  0.0264
 5749SOL    HW222768  -0.012   2.929   1.569 -0.1089  0.3425  2.7386
 5749SOL    HW322769  -0.078   2.811   1.637 -0.5236 -1.5204 -0.7054
 5749SOL    MW422770  -0.012   2.845   1.591 -0.3944 -0.3623  0.2877
 5750SOL     OW22771   5.674   5.848   0.940 -0.3559  0.5428  0.0634
 5750SOL    HW222772   5.582   5.830   0.919 -0.3155  1.1085 -0.6436
 5750SOL    HW322773   5.693   5.930   0.895  0.9375 -0.3312 -1.0749
 5750SOL    MW422774   5.664   5.857   0.932 -0.1799  0.5021 -0.1801
 5751SOL     OW22775   5.247   3.204   2.245 -0.4197 -0.5983  0.3798
 5751SOL    HW222776   5.326   3.257   2.251 -1.3032  0.6879  1.1396
 5751SOL    HW322777   5.248   3.149   2.323 -0.0504 -0.9210  0.1496
 5751SOL    MW422778   5.257   3.204   2.256 -0.4875 -0.4712  0.4497
 5752SOL     OW22779   4.180   5.311   6.401 -0.3776 -0.1869 -0.2401
 5752SOL    HW222780   4.260   5.259   6.394  0.2878  0.7917 -0.1038
 5752SOL    HW322781   4.199   5.392   6.353 -0.2011  1.3169  2.1917
 5752SOL    MW422782   4.193   5.315   6.393 -0.2665  0.1406  0.0987
 5753SOL     OW22783   3.423   2.967   5.533  0.0540 -0.6492 -0.2161
 5753SOL    HW222784   3.365   2.921   5.472  0.7690 -0.2919 -1.1696
 5753SOL    HW322785   3.467   3.033   5.480  2.3254 -1.7498  0.1867
 5753SOL    MW422786   3.421   2.969   5.518  0.4480 -0.7472 -0.2888
 5754SOL     OW22787   3.397   1.127   0.549  0.0773  0.6822 -0.6371
 5754SOL    HW222788   3.377   1.151   0.458 -0.4530  0.3166 -0.6175
 5754SOL    HW322789   3.312   1.120   0.592  0.3038  0.3955 -0.2251
 5754SOL    MW422790   3.384   1.129   0.543  0.0372  0.5961 -0.5801
 5755SOL     OW22791   0.374   4.940   2.698 -0.2896 -0.2172 -0.2154
 5755SOL    HW222792   0.467   4.963   2.700  0.1125 -1.7265 -0.2589
 5755SOL    HW322793   0.335   5.003   2.638  1.3001 -1.4535 -2.7288
 5755SOL    MW422794   0.381   4.951   2.690 -0.0268 -0.5794 -0.5528
 5756SOL     OW22795   3.632   0.195   0.816 -0.3543 -0.2700 -0.0224
 5756SOL    HW222796   3.604   0.194   0.724 -0.9358  1.7989  0.0914
 5756SOL    HW322797   3.707   0.254   0.818 -1.1320  0.7366  1.0118
 5756SOL    MW422798   3.638   0.203   0.804 -0.5336  0.1358  0.1290
 5757SOL     OW22799   3.074   2.070   4.024 -0.9749 -0.3285  0.3269
 5757SOL    HW222800   3.138   2.136   3.996 -2.0568  0.2019 -0.9854
 5757SOL    HW322801   3.077   2.073   4.119  2.3447 -1.6907  0.4054
 5757SOL    MW422802   3.083   2.079   4.033 -0.6797 -0.4382  0.1641
 5758SOL     OW22803   0.160   1.400   4.018 -0.1320 -0.6449 -0.1099
 5758SOL    HW222804   0.171   1.329   3.955 -2.6690 -2.2089  1.0052
 5758SOL    HW322805   0.093   1.457   3.978  0.6596  0.2042 -0.2499
 5758SOL    MW422806   0.152   1.398   4.004 -0.3623 -0.7392  0.0188
 5759SOL     OW22807   0.978   4.190   5.842  0.4999 -0.7384 -0.4214
 5759SOL    HW222808   1.046   4.226   5.900  0.4899 -1.0825 -0.1911
 5759SOL    HW322809   0.904   4.250   5.852  0.6820 -0.5007 -0.4821
 5759SOL    MW422810   0.978   4.203   5.851  0.5226 -0.7524 -0.3990
 5760SOL     OW22811   5.902   0.275   1.463  0.3576  0.0823 -0.2389
 5760SOL    HW222812   5.956   0.295   1.387 -1.4182 -0.0618 -1.5911
 5760SOL    HW322813   5.885   0.360   1.504  2.4092  0.0333  0.8274
 5760SOL    MW422814   5.907   0.289   1.459  0.3940  0.0569 -0.2766
 5761SOL     OW22815   2.688   4.280   0.392  0.5738  0.3562  0.0132
 5761SOL    HW222816   2.721   4.349   0.334  1.0193  0.0451 -0.1176
 5761SOL    HW322817   2.602   4.310   0.420  1.1858  1.4557  0.7827
 5761SOL    MW422818   2.681   4.293   0.388  0.7133  0.4602  0.0975
 5762SOL     OW22819   2.933   0.956   1.844 -0.3864  0.0659  0.1759
 5762SOL    HW222820   2.859   1.012   1.867 -0.8595 -0.6495  0.4277
 5762SOL    HW322821   3.009   1.014   1.849 -0.8607  0.6807  0.4457
 5762SOL    MW422822   2.933   0.971   1.848 -0.5114  0.0527  0.2447
 5763SOL     OW22823   5.216   1.893   3.671  0.3517 -0.4563  0.2260
 5763SOL    HW222824   5.153   1.906   3.600 -1.3275 -0.5374  1.6309
 5763SOL    HW322825   5.213   1.799   3.688  0.2088 -0.3440  0.8466
 5763SOL    MW422826   5.207   1.882   3.663  0.1113 -0.4522  0.4932
 5764SOL     OW22827   4.750   2.364   5.521 -0.2639 -0.3279 -0.9590
 5764SOL    HW222828   4.735   2.385   5.429  0.6549  0.3906 -0.9516
 5764SOL    HW322829   4.818   2.424   5.550 -0.4065 -0.6616  0.1512
 5764SOL    MW422830   4.757   2.374   5.513 -0.1615 -0.2771 -0.8116
 5765SOL     OW22831   5.216   5.859   2.138  0.0198 -0.1682  0.3198
 5765SOL    HW222832   5.236   5.818   2.223 -3.0512 -2.7820 -0.0369
 5765SOL    HW322833   5.121   5.860   2.134  0.0509  1.5956 -2.3748
 5765SOL    MW422834   5.206   5.854   2.149 -0.3812 -0.2804 -0.0828
 5766SOL     OW22835   6.205   1.954   2.358  0.1945 -0.7064  0.4685
 5766SOL    HW222836   6.218   1.859   2.361 -0.7297 -0.8255  1.2721
 5766SOL    HW322837   6.278   1.990   2.409  0.8559 -0.9377 -0.2960
 5766SOL    MW422838   6.216   1.946   2.365  0.1598 -0.7526  0.4737
 5767SOL     OW22839   5.517   4.374   0.283  0.1228 -0.0661  0.2318
 5767SOL    HW222840   5.468   4.362   0.364  0.8037 -2.4539  0.3597
 5767SOL    HW322841   5.474   4.317   0.220  1.6110 -0.8288 -0.1451
 5767SOL    MW422842   5.505   4.365   0.285  0.4090 -0.4817  0.1990
 5768SOL     OW22843   6.262   4.913   4.204 -0.2795 -0.5488 -0.4871
 5768SOL    HW222844   6.271   4.869   4.120 -1.2831  0.3573 -1.0871
 5768SOL    HW322845   6.192   4.977   4.191  0.5930  0.6808  0.5888
 5768SOL    MW422846   6.254   4.916   4.191 -0.2968 -0.2670 -0.4243
 5769SOL     OW22847   3.112   1.131   1.118  0.2187  0.3957 -0.2457
 5769SOL    HW222848   3.092   1.219   1.086 -1.0823  0.7190  1.3045
 5769SOL    HW322849   3.044   1.076   1.079 -0.5416  0.5576  0.7986
 5769SOL    MW422850   3.100   1.135   1.109 -0.0533  0.4597  0.0966
 5770SOL     OW22851   4.741   4.316   2.422 -0.3000  0.1127 -0.2608
 5770SOL    HW222852   4.729   4.269   2.505 -0.2544  1.2017  0.3813
 5770SOL    HW322853   4.799   4.260   2.371  1.1737  0.2666  1.1614
 5770SOL    MW422854   4.747   4.302   2.426 -0.0995  0.2767  0.0115
 5771SOL     OW22855   1.772   4.502   5.880  0.3741 -0.8600 -0.6765
 5771SOL    HW222856   1.781   4.593   5.909  0.0551 -1.6984  2.3869
 5771SOL    HW322857   1.861   4.468   5.880  0.2466 -1.2652  0.9665
 5771SOL    MW422858   1.785   4.509   5.884  0.3152 -1.0240 -0.0556
 5772SOL     OW22859   3.571   1.048   3.466 -0.3110  0.3521 -0.2945
 5772SOL    HW222860   3.623   0.977   3.503  0.0343 -0.4547 -2.2182
 5772SOL    HW322861   3.495   1.055   3.524 -0.0291 -1.1392  0.3019
 5772SOL    MW422862   3.568   1.040   3.479 -0.2282  0.0489 -0.4696
 5773SOL     OW22863   2.420   0.861   3.226 -0.4726 -0.3532  0.2768
 5773SOL    HW222864   2.426   0.956   3.221 -1.5687 -0.0426  3.0122
 5773SOL    HW322865   2.507   0.832   3.253 -0.8706  0.2405  2.3735
 5773SOL    MW422866   2.432   0.870   3.229 -0.6697 -0.2339  0.9143
 5774SOL     OW22867   3.164   2.485   0.830 -0.1099 -0.1573 -0.1138
 5774SOL    HW222868   3.090   2.507   0.886 -1.2099 -1.5023 -0.9616
 5774SOL    HW322869   3.235   2.542   0.859 -1.6271  1.5621  0.3691
 5774SOL    MW422870   3.164   2.495   0.841 -0.4552 -0.1079 -0.1619
 5775SOL     OW22871   4.455   5.811   5.351  0.6634 -0.0957  0.5786
 5775SOL    HW222872   4.390   5.817   5.282  2.6988 -0.6945 -1.4939
 5775SOL    HW322873   4.478   5.902   5.371 -0.4627  0.1039  1.0611
 5775SOL    MW422874   4.449   5.823   5.345  0.7834 -0.1483  0.3688
 5776SOL     OW22875   0.419   0.296   2.245  0.0475  0.4818  0.4053
 5776SOL    HW222876   0.363   0.220   2.233  0.3258  0.0721  1.5826
 5776SOL    HW322877   0.483   0.269   2.310  0.1466  1.7204  0.8550
 5776SOL    MW422878   0.420   0.283   2.252  0.0973  0.5912  0.6200
 5777SOL     OW22879   0.296   1.610   5.449  0.1441  0.1179 -0.0712
 5777SOL    HW222880   0.277   1.701   5.426 -1.4235 -0.0504  0.4372
 5777SOL    HW322881   0.350   1.616   5.527 -0.1736  0.6158  0.1198
 5777SOL    MW422882   0.301   1.623   5.456 -0.1047  0.1614  0.0210
 5778SOL     OW22883   3.192   6.172   6.187  0.0675  0.7038  0.1516
 5778SOL    HW222884   3.286   6.181   6.171  0.7046 -1.2507  2.2395
 5778SOL    HW322885   3.156   6.258   6.165  1.6915  0.5302 -4.1661
 5778SOL    MW422886   3.200   6.185   6.182  0.3658  0.4231 -0.1426
 5779SOL     OW22887   3.017   0.917   3.966 -0.6203  0.2043 -0.3908
 5779SOL    HW222888   3.084   0.978   3.936 -1.2332 -0.1725 -2.7866
 5779SOL    HW322889   3.066   0.844   4.004  0.5823 -0.8302 -3.5180
 5779SOL    MW422890   3.032   0.916   3.967 -0.5425  0.0181 -1.1195
 5780SOL     OW22891   5.754   0.289   5.856 -0.3148  0.4152  0.4273
 5780SOL    HW222892   5.847   0.290   5.877 -0.4278  1.6086  0.9741
 5780SOL    HW322893   5.716   0.228   5.920  0.1538 -0.5369 -0.1810
 5780SOL    MW422894   5.761   0.281   5.867 -0.2679  0.4471  0.4192
 5781SOL     OW22895   2.996   5.569   2.496 -0.6079 -0.3266  0.1455
 5781SOL    HW222896   2.926   5.538   2.553 -0.0658 -1.3219  0.2801
 5781SOL    HW322897   3.036   5.642   2.544 -1.7102  0.4435 -0.0548
 5781SOL    MW422898   2.992   5.575   2.510 -0.6818 -0.3563  0.1368
 5782SOL     OW22899   2.808   2.336   3.069 -0.1736  0.6067 -0.4393
 5782SOL    HW222900   2.819   2.427   3.097 -0.9604  0.0986  1.6839
 5782SOL    HW322901   2.869   2.286   3.123 -0.7848 -0.2876 -0.5485
 5782SOL    MW422902   2.817   2.341   3.080 -0.3580  0.4217 -0.1736
 5783SOL     OW22903   3.492   1.123   6.137 -0.1034  0.0968  0.1403
 5783SOL    HW222904   3.544   1.181   6.082  1.4582 -0.8605  0.5186
 5783SOL    HW322905   3.457   1.058   6.076  1.4933 -0.8697  0.1801
 5783SOL    MW422906   3.494   1.122   6.121  0.3133 -0.1570  0.1955
 5784SOL     OW22907   0.769   5.672   5.542  0.4766  0.1576  0.5772
 5784SOL    HW222908   0.681   5.660   5.578  0.4344  0.1765  0.4826
 5784SOL    HW322909   0.781   5.767   5.540  1.0506  0.1374  1.8993
 5784SOL    MW422910   0.759   5.683   5.546  0.5468  0.1574  0.7391
 5785SOL     OW22911   4.950   1.711   4.235  0.1508  0.3031  0.3377
 5785SOL    HW222912   5.019   1.752   4.182  0.4716  0.7939  1.1269
 5785SOL    HW322913   4.929   1.630   4.187  2.0592 -0.4385  0.6272
 5785SOL    MW422914   4.957   1.705   4.221  0.4449  0.2700  0.4800
 5786SOL     OW22915   4.926   3.455   0.579  0.6397 -0.5005 -0.4891
 5786SOL    HW222916   4.969   3.500   0.506  2.1670  0.9577  1.1911
 5786SOL    HW322917   4.839   3.495   0.584  1.1677  0.6860 -0.4343
 5786SOL    MW422918   4.920   3.466   0.570  0.9108 -0.1516 -0.2602
 5787SOL     OW22919   2.431   1.329   2.784  0.1874  0.7080  0.2078
 5787SOL    HW222920   2.476   1.247   2.766  1.3128  1.2436  0.4757
 5787SOL    HW322921   2.456   1.386   2.711 -1.5799  0.4582 -0.6398
 5787SOL    MW422922   2.441   1.326   2.772  0.1027  0.7457  0.1313
 5788SOL     OW22923   4.401   2.123   2.596 -0.2861  0.2696  0.4357
 5788SOL    HW222924   4.372   2.066   2.667  0.8776 -1.2774 -0.2679
 5788SOL    HW322925   4.320   2.145   2.549 -0.6286 -4.3435 -1.7981
 5788SOL    MW422926   4.386   2.118   2.599 -0.1777 -0.5431  0.0481
 5789SOL     OW22927   2.942   5.424   5.788 -0.7994 -0.0417 -0.3695
 5789SOL    HW222928   2.928   5.358   5.720 -0.2395  0.0633 -0.5924
 5789SOL    HW322929   2.932   5.508   5.742 -0.8399  0.0292 -0.2302
 5789SOL    MW422930   2.939   5.426   5.773 -0.7309 -0.0185 -0.3805
 5790SOL     OW22931   0.851   3.928   3.901  0.2580 -0.6884 -0.3738
 5790SOL    HW222932   0.825   3.959   3.814  1.7846 -0.0768 -0.6428
 5790SOL    HW322933   0.796   3.977   3.962  0.2885  0.0653 -0.9426
 5790SOL    MW422934   0.840   3.939   3.898  0.4635 -0.5082 -0.4844
 5791SOL     OW22935   0.478   2.569   1.387  0.1656 -0.3071  0.0174
 5791SOL    HW222936   0.562   2.528   1.408 -0.1133 -0.2246  1.3465
 5791SOL    HW322937   0.412   2.509   1.423 -0.3639 -0.4175 -1.0877
 5791SOL    MW422938   0.480   2.555   1.395  0.0589 -0.3108  0.0469
 5792SOL     OW22939   0.226   3.275   0.667 -0.5860  0.1962 -0.1318
 5792SOL    HW222940   0.150   3.330   0.649 -0.4375  0.6897  0.7138
 5792SOL    HW322941   0.231   3.215   0.592 -1.7919  0.1637 -0.1985
 5792SOL    MW422942   0.217   3.274   0.655 -0.7255  0.2570 -0.0290
 5793SOL     OW22943   5.154   3.531   4.504  0.3347  0.1138  0.1050
 5793SOL    HW222944   5.117   3.446   4.480  2.5984 -0.8617 -0.0785
 5793SOL    HW322945   5.078   3.582   4.531 -1.0392 -2.0981  0.7049
 5793SOL    MW422946   5.139   3.527   4.504  0.4521 -0.3067  0.1599
 5794SOL     OW22947   1.113   3.520   0.374 -0.2696  0.1695 -0.4297
 5794SOL    HW222948   1.087   3.428   0.362  0.1337  0.1646 -1.3547
 5794SOL    HW322949   1.202   3.524   0.339 -0.1706  0.8547 -0.1153
 5794SOL    MW422950   1.121   3.508   0.368 -0.2033  0.2593 -0.5103
 5795SOL     OW22951   4.665   5.531   3.699  0.1956 -0.6079 -0.4163
 5795SOL    HW222952   4.709   5.610   3.732 -0.9013 -0.6110  1.1983
 5795SOL    HW322953   4.721   5.500   3.629  1.6667  0.5345  0.1833
 5795SOL    MW422954   4.678   5.538   3.694  0.2450 -0.4576 -0.1242
 5796SOL     OW22955   5.632   0.846   0.532  0.1844  0.0590  0.4023
 5796SOL    HW222956   5.691   0.778   0.500  0.3092  0.7706 -0.9133
 5796SOL    HW322957   5.556   0.798   0.564  0.8430 -0.7737  0.7705
 5796SOL    MW422958   5.630   0.830   0.532  0.2878  0.0430  0.2773
 5797SOL     OW22959   3.643   4.638   3.883  0.2249  0.0648 -0.0730
 5797SOL    HW222960   3.727   4.614   3.921 -0.8077 -2.3225  0.9014
 5797SOL    HW322961   3.607   4.556   3.850 -1.4435  1.1336 -1.0787
 5797SOL    MW422962   3.650   4.624   3.883 -0.1315 -0.1092 -0.0771
 5798SOL     OW22963   2.058   0.625   5.592  0.0636  0.1056 -0.4804
 5798SOL    HW222964   2.022   0.694   5.648 -0.0816 -0.9206  0.7326
 5798SOL    HW322965   1.981   0.583   5.553 -0.0313 -1.0399  0.8500
 5798SOL    MW422966   2.043   0.628   5.594  0.0319 -0.1810 -0.1448
 5799SOL     OW22967   1.381   3.055   5.748 -0.2660  0.3536 -0.7389
 5799SOL    HW222968   1.349   2.967   5.767 -1.4396  0.8436 -0.4158
 5799SOL    HW322969   1.305   3.103   5.716  0.4004  1.2094 -1.0917
 5799SOL    MW422970   1.367   3.050   5.746 -0.3329  0.5312 -0.7428
 5800SOL     OW22971   4.970   1.884   5.069 -0.1842  0.1781  0.1928
 5800SOL    HW222972   4.961   1.815   5.003 -2.1824 -3.0265  3.4278
 5800SOL    HW322973   4.885   1.926   5.073 -0.2454 -0.0046  1.0284
 5800SOL    MW422974   4.958   1.880   5.061 -0.4559 -0.2688  0.7299
 5801SOL     OW22975   4.442   5.932   0.632  0.1604 -0.3139  0.0655
 5801SOL    HW222976   4.358   5.978   0.629  1.0429  1.4376  1.0028
 5801SOL    HW322977   4.470   5.939   0.723  1.3295 -0.8610 -0.2343
 5801SOL    MW422978   4.434   5.939   0.643  0.4310 -0.1550  0.1496
 5802SOL     OW22979   5.848   2.282   3.989  0.4149  0.1418  0.2576
 5802SOL    HW222980   5.860   2.211   3.926  0.6786 -0.4176  0.9257
 5802SOL    HW322981   5.936   2.315   4.006  0.4713 -0.5018  1.2303
 5802SOL    MW422982   5.861   2.277   3.983  0.4572 -0.0169  0.4741
 5803SOL     OW22983   3.350   3.177   6.166  0.0732 -0.4829  0.2223
 5803SOL    HW222984   3.441   3.152   6.153 -0.2743 -1.8371  0.2016
 5803SOL    HW322985   3.340   3.259   6.118  0.6277 -1.6767 -2.0729
 5803SOL    MW422986   3.361   3.185   6.158  0.1005 -0.8191 -0.0832
 5804SOL     OW22987   1.897   1.765   1.126 -0.7042  0.1749 -0.0030
 5804SOL    HW222988   1.835   1.710   1.173 -0.6237  0.1051  0.0228
 5804SOL    HW322989   1.879   1.854   1.156  2.3299 -0.2260  3.7150
 5804SOL    MW422990   1.887   1.769   1.136 -0.2933  0.1128  0.4909
 5805SOL     OW22991   3.427   2.812   2.733 -0.1861  0.4295  0.5375
 5805SOL    HW222992   3.494   2.814   2.665 -1.1036  2.1966 -0.3878
 5805SOL    HW322993   3.446   2.889   2.787 -0.7031  0.2040  1.0456
 5805SOL    MW422994   3.439   2.822   2.731 -0.3754  0.6329  0.4825
 5806SOL     OW22995   1.358   2.456   2.295  0.2587 -0.3186  0.7899
 5806SOL    HW222996   1.381   2.466   2.388 -3.5651  2.5006  1.7201
 5806SOL    HW322997   1.376   2.542   2.257 -2.9195  0.3103  0.3760
 5806SOL    MW422998   1.363   2.469   2.302 -0.6651  0.1364  0.8580
 5807SOL     OW22999   1.722   2.311   0.806  0.6573 -0.4096  0.3820
 5807SOL    HW223000   1.657   2.267   0.860  0.1377  0.6407  0.6357
 5807SOL    HW323001   1.759   2.378   0.863  0.5613  0.2820 -0.3541
 5807SOL    MW423002   1.718   2.314   0.820  0.5761 -0.1797  0.3183
 5808SOL     OW23003   2.911   2.289   0.446 -0.2352 -0.2226  0.0971
 5808SOL    HW223004   2.922   2.195   0.460  0.3113 -0.0485  0.8884
 5808SOL    HW323005   2.934   2.303   0.354  1.2520 -0.6321  0.3773
 5808SOL    MW423006   2.915   2.279   0.436  0.0331 -0.2537  0.2384
 5809SOL     OW23007   3.428   2.301   4.885  0.1063 -0.9279  0.0000
 5809SOL    HW223008   3.502   2.244   4.867  0.8208 -0.0501  0.0766
 5809SOL    HW323009   3.381   2.307   4.802  1.1376 -0.0745 -0.5492
 5809SOL    MW423010   3.431   2.295   4.872  0.3366 -0.6995 -0.0623
 5810SOL     OW23011   2.906   3.158   1.678 -0.3079 -0.3995  0.5384
 5810SOL    HW223012   2.879   3.067   1.665  0.0675 -0.7465  2.0187
 5810SOL    HW323013   2.910   3.169   1.773 -1.2140  1.4370  0.4100
 5810SOL    MW423014   2.903   3.147   1.689 -0.3779 -0.2029  0.7168
 5811SOL     OW23015   2.373   5.081   0.144 -0.4258  0.1070  0.2086
 5811SOL    HW223016   2.409   5.002   0.185 -0.1504  0.3063  0.3479
 5811SOL    HW323017   2.438   5.149   0.161  0.1167  0.0070 -1.3078
 5811SOL    MW423018   2.386   5.079   0.152 -0.3179  0.1201  0.0269
 5812SOL     OW23019   5.095   3.280   3.544 -0.2263 -0.2040 -0.2939
 5812SOL    HW223020   5.138   3.322   3.618 -0.6253 -1.0364  0.4226
 5812SOL    HW323021   5.113   3.338   3.470  0.0908  0.6899  0.4662
 5812SOL    MW423022   5.103   3.293   3.544 -0.2371 -0.1959 -0.0991
 5813SOL     OW23023   3.162   1.819   3.437  0.3310 -0.1927  0.0792
 5813SOL    HW223024   3.222   1.884   3.475  1.2807 -0.5166 -0.8035
 5813SOL    HW323025   3.114   1.867   3.370 -0.9573  0.2468  1.2798
 5813SOL    MW423026   3.164   1.834   3.433  0.2863 -0.1775  0.1211
 5814SOL     OW23027   4.306   6.193   5.533 -0.5194 -0.5783 -0.4647
 5814SOL    HW223028   4.313   6.098   5.538 -0.6100 -0.6108 -0.9511
 5814SOL    HW323029   4.315   6.214   5.440 -1.6530 -0.2101 -0.5108
 5814SOL    MW423030   4.308   6.183   5.521 -0.6809 -0.5340 -0.5349
 5815SOL     OW23031   3.192   2.667   0.421 -0.4140 -0.5051  0.0493
 5815SOL    HW223032   3.183   2.586   0.471  1.2638 -0.6804  0.1309
 5815SOL    HW323033   3.185   2.737   0.487  0.5660 -0.6920  0.3662
 5815SOL    MW423034   3.190   2.666   0.436 -0.0633 -0.5529  0.1019
 5816SOL     OW23035   2.926   4.075   4.655 -0.2036  0.0708 -0.0290
 5816SOL    HW223036   2.864   4.122   4.598  0.1790  2.6324  1.4967
 5816SOL    HW323037   3.010   4.118   4.640  0.2138 -0.2125  1.3496
 5816SOL    MW423038   2.929   4.087   4.645 -0.0980  0.3714  0.3541
 5817SOL     OW23039   6.371   1.074   1.645 -0.8127 -0.7296  0.1238
 5817SOL    HW223040   6.286   1.101   1.680 -1.0481 -0.8567 -0.3386
 5817SOL    HW323041   6.386   0.988   1.684 -0.2606 -0.1336  1.2609
 5817SOL    MW423042   6.361   1.066   1.655 -0.7709 -0.6678  0.2128
 5818SOL     OW23043   5.031   0.927   0.278 -0.5637  0.0539  0.5829
 5818SOL    HW223044   5.015   0.839   0.245  0.5421 -0.8850  2.4178
 5818SOL    HW323045   4.953   0.948   0.329 -0.1592 -0.5483  1.4735
 5818SOL    MW423046   5.019   0.918   0.281 -0.3644 -0.1495  0.9425
 5819SOL     OW23047   5.741   5.369   1.344  0.4046 -0.2981  0.2508
 5819SOL    HW223048   5.695   5.293   1.308  0.7698 -1.2513  1.6959
 5819SOL    HW323049   5.820   5.376   1.290  1.0592 -1.8455  0.9368
 5819SOL    MW423050   5.746   5.360   1.332  0.5391 -0.6280  0.5319
 5820SOL     OW23051   3.453   3.335   4.506 -0.5263  0.4184  0.2754
 5820SOL    HW223052   3.438   3.241   4.512  1.2848 -0.0071 -0.7804
 5820SOL    HW323053   3.411   3.361   4.424 -0.0579  0.2723 -0.0192
 5820SOL    MW423054   3.446   3.326   4.496 -0.2256  0.3430  0.0973
 5821SOL     OW23055   1.780   6.272   2.008  0.0017 -0.1156 -0.0856
 5821SOL    HW223056   1.856   6.310   2.053 -0.5405  1.0328 -0.1126
 5821SOL    HW323057   1.775   6.182   2.042  1.9474 -0.5547 -0.8159
 5821SOL    MW423058   1.789   6.265   2.018  0.1869 -0.0220 -0.1855
 5822SOL     OW23059   5.660   5.044   5.088  0.0534  0.0676 -0.0794
 5822SOL    HW223060   5.617   5.122   5.125 -0.1790 -0.5121  0.8952
 5822SOL    HW323061   5.740   5.034   5.139  0.2552 -0.1396 -0.4325
 5822SOL    MW423062   5.665   5.053   5.100  0.0494 -0.0363  0.0026
 5823SOL     OW23063   2.155   2.538   3.188  0.0448 -0.1617 -0.1370
 5823SOL    HW223064   2.105   2.579   3.117 -0.7098  0.7081  0.8482
 5823SOL    HW323065   2.088   2.500   3.245  0.2814  2.1825  1.9305
 5823SOL    MW423066   2.139   2.539   3.187 -0.0236  0.2623  0.2657
 5824SOL     OW23067   6.198   5.707   2.536 -0.6000 -0.6593 -0.2170
 5824SOL    HW223068   6.258   5.681   2.607 -1.4822  0.1687  0.8776
 5824SOL    HW323069   6.230   5.792   2.507 -0.9550 -0.4286  0.0532
 5824SOL    MW423070   6.210   5.715   2.542 -0.7632 -0.5196 -0.0369
 5825SOL     OW23071   4.356   2.463   4.201 -0.0941  0.2741 -0.8872
 5825SOL    HW223072   4.357   2.426   4.112 -0.8386 -0.8320 -0.4555
 5825SOL    HW323073   4.445   2.450   4.233  0.0544  0.2519 -1.2985
 5825SOL    MW423074   4.368   2.456   4.193 -0.1727  0.1252 -0.8845
 5826SOL     OW23075   6.164   6.157   3.457  0.6060 -0.2099  0.6276
 5826SOL    HW223076   6.140   6.133   3.367 -1.0773  0.8722  0.7398
 5826SOL    HW323077   6.203   6.244   3.448  1.9379 -0.7694  0.7900
 5826SOL    MW423078   6.166   6.166   3.444  0.5596 -0.1410  0.6639
 5827SOL     OW23079   5.303   1.700   5.773 -0.0045 -0.2397 -0.0522
 5827SOL    HW223080   5.243   1.646   5.824 -0.8145  0.1177 -0.6013
 5827SOL    HW323081   5.338   1.762   5.837 -3.6376  2.5160 -0.3823
 5827SOL    MW423082   5.300   1.701   5.788 -0.5907  0.1710 -0.1682
 5828SOL     OW23083   1.433   4.371   0.033  0.6876  0.7433  0.3336
 5828SOL    HW223084   1.392   4.295   0.074 -0.8270  0.8764 -0.8305
 5828SOL    HW323085   1.387   4.446   0.072 -0.2342  0.8943 -0.9861
 5828SOL    MW423086   1.421   4.371   0.044  0.3662  0.7808  0.0059
 5829SOL     OW23087   2.116   5.973   6.342  0.0297  0.5441 -0.0193
 5829SOL    HW223088   2.127   6.035   6.414 -2.0297  1.3652 -0.3480
 5829SOL    HW323089   2.126   6.026   6.263 -1.7314  0.4979 -0.3032
 5829SOL    MW423090   2.119   5.988   6.341 -0.4743  0.6464 -0.1001
 5830SOL     OW23091   0.107   0.848   5.862  0.2121 -0.5690  0.0296
 5830SOL    HW223092   0.173   0.790   5.900 -0.0604 -0.7945  0.1622
 5830SOL    HW323093   0.024   0.812   5.892  0.0510  0.0249  0.3076
 5830SOL    MW423094   0.105   0.836   5.871  0.1549 -0.5204  0.0837
 5831SOL     OW23095   2.724   6.310   5.144 -0.1573  0.7074  0.1181
 5831SOL    HW223096   2.814   6.342   5.136  1.1215 -2.7593 -1.7160
 5831SOL    HW323097   2.727   6.244   5.214 -0.2511 -1.9342 -2.1697
 5831SOL    MW423098   2.736   6.305   5.152 -0.0009 -0.0985 -0.4258
 5832SOL     OW23099   2.553   0.816   2.108  0.0031  0.5555  0.5858
 5832SOL    HW223100   2.612   0.785   2.040  1.4143 -0.1707  2.0840
 5832SOL    HW323101   2.560   0.912   2.104  1.2735  0.4862  0.6897
 5832SOL    MW423102   2.562   0.825   2.099  0.3569  0.4505  0.7972
 5833SOL     OW23103   5.019   3.884   3.580  0.5101  0.2804 -0.2914
 5833SOL    HW223104   5.048   3.924   3.498 -0.7127  0.6065 -0.5820
 5833SOL    HW323105   5.075   3.923   3.647  1.4672  0.0751 -0.9479
 5833SOL    MW423106   5.030   3.894   3.578  0.4750  0.2964 -0.4164
 5834SOL     OW23107   5.815   1.955   2.519 -0.4647 -0.0122 -0.4397
 5834SOL    HW223108   5.725   1.927   2.509 -0.4809  0.1425 -0.7141
 5834SOL    HW323109   5.827   1.962   2.614 -0.1705 -1.8970 -0.2875
 5834SOL    MW423110   5.805   1.952   2.531 -0.4280 -0.2405 -0.4558
 5835SOL     OW23111   2.459   2.995   6.052 -0.1654 -0.1579 -0.2213
 5835SOL    HW223112   2.525   2.954   5.997  0.1292 -0.1604  0.1347
 5835SOL    HW323113   2.377   2.954   6.025  0.0504 -0.5572 -0.2700
 5835SOL    MW423114   2.457   2.984   6.041 -0.0981 -0.2109 -0.1808
 5836SOL     OW23115   3.114   3.952   2.337 -0.4965  0.5798 -0.4269
 5836SOL    HW223116   3.110   3.901   2.256  0.7509  0.6346 -0.5438
 5836SOL    HW323117   3.055   3.907   2.397 -0.7608  0.0323 -1.0807
 5836SOL    MW423118   3.105   3.940   2.334 -0.3668  0.5148 -0.5286
 5837SOL     OW23119   2.021   4.584   0.468  0.4766 -0.0752 -0.3050
 5837SOL    HW223120   2.063   4.524   0.408  0.2776 -1.1822  0.6286
 5837SOL    HW323121   2.038   4.548   0.555 -0.7891  0.4775  0.2036
 5837SOL    MW423122   2.029   4.572   0.472  0.2834 -0.1483 -0.1147
 5838SOL     OW23123   5.422   1.951   0.432  0.0033  0.2909 -0.5804
 5838SOL    HW223124   5.361   1.907   0.491 -0.1092  2.5428  1.1269
 5838SOL    HW323125   5.454   2.026   0.482  1.6197  1.0764 -2.6337
 5838SOL    MW423126   5.418   1.955   0.446  0.2017  0.6917 -0.6260
 5839SOL     OW23127   0.558   5.791   3.074 -0.0736 -0.1326 -0.4768
 5839SOL    HW223128   0.476   5.791   3.122 -0.7567  0.4270 -1.5868
 5839SOL    HW323129   0.608   5.718   3.110 -1.4900 -1.1484 -0.5056
 5839SOL    MW423130   0.554   5.781   3.085 -0.3506 -0.1928 -0.6271
 5840SOL     OW23131   2.512   3.824   3.722  0.2694  0.2398  0.7102
 5840SOL    HW223132   2.584   3.847   3.663 -0.8798 -0.1209 -0.9087
 5840SOL    HW323133   2.525   3.730   3.739  0.3957  0.2573  0.7107
 5840SOL    MW423134   2.524   3.814   3.716  0.1345  0.1945  0.4967
 5841SOL     OW23135   3.078   4.123   1.760 -0.5600 -0.1877  0.1362
 5841SOL    HW223136   3.115   4.102   1.846 -2.4073  2.9017  1.8781
 5841SOL    HW323137   3.146   4.174   1.716  0.0689 -1.0345  0.1104
 5841SOL    MW423138   3.092   4.127   1.766 -0.7208  0.1082  0.3626
 5842SOL     OW23139   5.385   0.832   1.710  0.4864 -0.3128 -0.0929
 5842SOL    HW223140   5.302   0.821   1.756 -0.6378  0.7435 -1.7788
 5842SOL    HW323141   5.415   0.742   1.693  0.2760 -0.7137  1.4636
 5842SOL    MW423142   5.378   0.819   1.714  0.3104 -0.2263 -0.1100
 5843SOL     OW23143   0.057   2.564   0.020  0.3829 -0.0570  0.1834
 5843SOL    HW223144   0.128   2.602  -0.033 -0.2281  2.6416  1.1375
 5843SOL    HW323145   0.102   2.504   0.080  1.6871  0.4888 -0.2029
 5843SOL    MW423146   0.073   2.561   0.021  0.4744  0.3711  0.2583
 5844SOL     OW23147   0.698   3.482   3.773 -0.1800 -0.1704  0.1709
 5844SOL    HW223148   0.771   3.544   3.777 -0.3276 -0.0351  0.8687
 5844SOL    HW323149   0.703   3.445   3.685 -1.4540  2.4863 -1.1215
 5844SOL    MW423150   0.708   3.485   3.762 -0.3675  0.1980  0.0924
 5845SOL     OW23151   3.379   0.533   5.124  0.7011  0.1814  0.8611
 5845SOL    HW223152   3.327   0.530   5.044 -0.5122  0.4341  1.6041
 5845SOL    HW323153   3.456   0.479   5.105  0.1520 -0.2486 -0.2596
 5845SOL    MW423154   3.382   0.526   5.111  0.4686  0.1580  0.8113
 5846SOL     OW23155   5.128   6.263   2.328 -0.8376 -0.9317 -0.4682
 5846SOL    HW223156   5.068   6.227   2.263 -1.3456  0.7531 -0.9635
 5846SOL    HW323157   5.142   6.354   2.301 -0.4379 -0.4201  1.3297
 5846SOL    MW423158   5.122   6.270   2.316 -0.8519 -0.6419 -0.2963
 5847SOL     OW23159   5.267   5.655   1.967 -0.0101 -0.3166  0.3571
 5847SOL    HW223160   5.299   5.579   2.015 -1.1674 -0.1088  1.5070
 5847SOL    HW323161   5.239   5.716   2.035 -1.1860  0.2043 -0.5631
 5847SOL    MW423162   5.268   5.653   1.982 -0.3179 -0.2204  0.3874
 5848SOL     OW23163   4.052   2.688   4.487  0.4665  0.1998 -0.2067
 5848SOL    HW223164   4.011   2.604   4.468  0.6847  0.1735 -0.5780
 5848SOL    HW323165   3.996   2.753   4.443  1.3437  0.0829 -1.5564
 5848SOL    MW423166   4.039   2.686   4.479  0.6110  0.1809 -0.4338
 5849SOL     OW23167   1.308   3.982   2.117 -0.3741  0.0606 -0.4223
 5849SOL    HW223168   1.382   3.933   2.155  1.4178  2.6193 -0.3579
 5849SOL    HW323169   1.345   4.023   2.039 -1.9753  0.7491 -0.8454
 5849SOL    MW423170   1.323   3.981   2.112 -0.3490  0.4890 -0.4696
 5850SOL     OW23171   4.722   1.333   3.428  0.4207 -0.8877 -0.4854
 5850SOL    HW223172   4.732   1.428   3.424  0.1847 -0.8915 -1.7892
 5850SOL    HW323173   4.701   1.314   3.519  1.2007  0.2320 -0.0529
 5850SOL    MW423174   4.720   1.343   3.439  0.4925 -0.7405 -0.6003
 5851SOL     OW23175   0.107   0.554   1.002 -0.2365 -0.4667  0.1605
 5851SOL    HW223176   0.050   0.539   0.927  0.8242  0.3284 -0.8505
 5851SOL    HW323177   0.189   0.512   0.979  0.7976  1.5704 -0.0872
 5851SOL    MW423178   0.110   0.547   0.989  0.0399 -0.0931 -0.0056
 5852SOL     OW23179   5.960   3.996   1.405 -0.0439 -0.4079 -0.3827
 5852SOL    HW223180   5.871   4.023   1.383  0.1256  1.6533  1.1606
 5852SOL    HW323181   5.982   4.046   1.483  1.8105 -2.2782  0.3993
 5852SOL    MW423182   5.951   4.006   1.412  0.2231 -0.3827 -0.0759
 5853SOL     OW23183   6.272   6.290   6.066  0.0991  0.1360  0.5309
 5853SOL    HW223184   6.206   6.351   6.100 -0.3092  0.1312 -0.2157
 5853SOL    HW323185   6.356   6.332   6.085 -0.1671  0.8231  0.2521
 5853SOL    MW423186   6.274   6.304   6.073  0.0101  0.2260  0.3956
 5854SOL     OW23187   3.245   0.011   5.646 -0.8260 -0.2790  0.0673
 5854SOL    HW223188   3.316  -0.044   5.614 -0.0639 -0.7599  2.4050
 5854SOL    HW323189   3.174  -0.050   5.666 -0.4583 -0.2758  1.4198
 5854SOL    MW423190   3.245  -0.004   5.644 -0.6769 -0.3420  0.5542
 5855SOL     OW23191   2.311   4.531   3.764  1.0905 -0.0707 -0.3148
 5855SOL    HW223192   2.271   4.597   3.707  0.0177  0.3071  0.8219
 5855SOL    HW323193   2.265   4.450   3.744  0.0239  0.2604  0.6348
 5855SOL    MW423194   2.300   4.529   3.754  0.8082  0.0228 -0.0395
 5856SOL     OW23195   2.769   2.579   3.211  0.2413  0.7727  0.1504
 5856SOL    HW223196   2.703   2.624   3.159  0.2754 -0.0996 -0.6747
 5856SOL    HW323197   2.850   2.628   3.195  0.4457  0.0128 -1.3592
 5856SOL    MW423198   2.771   2.591   3.202  0.2728  0.5574 -0.1577
 5857SOL     OW23199   2.669   5.910   5.630  0.4898  0.2072  0.1543
 5857SOL    HW223200   2.606   5.950   5.691  2.0666  0.1432  1.9084
 5857SOL    HW323201   2.616   5.885   5.554 -1.6896 -0.1972  1.6998
 5857SOL    MW423202   2.653   5.912   5.628  0.4103  0.1454  0.5896
 5858SOL     OW23203   3.364   1.927   1.076 -0.1776  0.2580  0.3935
 5858SOL    HW223204   3.371   1.899   1.167  2.1599  0.3838  0.3093
 5858SOL    HW323205   3.313   2.008   1.080  0.2669  0.4955  1.6507
 5858SOL    MW423206   3.358   1.934   1.088  0.1894  0.3059  0.5482
 5859SOL     OW23207   0.897   0.374   4.949  0.6096 -0.1656 -0.4495
 5859SOL    HW223208   0.875   0.445   4.888  0.5831  0.3953  0.2017
 5859SOL    HW323209   0.921   0.300   4.892 -2.5695 -0.7456 -1.2410
 5859SOL    MW423210   0.897   0.373   4.933  0.1866 -0.1681 -0.4680
 5860SOL     OW23211   1.694   5.020   6.040  0.0037 -0.4894 -0.3207
 5860SOL    HW223212   1.710   5.071   6.119  0.9403  0.2478 -0.9656
 5860SOL    HW323213   1.613   4.972   6.058 -1.1704  1.5691  0.1556
 5860SOL    MW423214   1.685   5.021   6.053 -0.0276 -0.1205 -0.3430
 5861SOL     OW23215   5.575   4.432   3.478 -0.5312  0.0250  0.2053
 5861SOL    HW223216   5.549   4.342   3.456 -0.2380 -0.2962  1.1370
 5861SOL    HW323217   5.502   4.485   3.447 -1.4641 -0.6940  1.1028
 5861SOL    MW423218   5.562   4.427   3.471 -0.6156 -0.1123  0.4467
 5862SOL     OW23219   5.096   2.834   2.411 -0.0380 -0.1669 -0.2239
 5862SOL    HW223220   5.173   2.790   2.374  0.5785  0.8295 -0.1616
 5862SOL    HW323221   5.075   2.782   2.489  0.8555 -0.2114  0.0081
 5862SOL    MW423222   5.104   2.821   2.417  0.1612 -0.0413 -0.1851
 5863SOL     OW23223   3.840   5.960   5.963 -0.4807  0.9271  0.0706
 5863SOL    HW223224   3.875   5.965   6.052 -0.5091  1.3515  0.0635
 5863SOL    HW323225   3.912   5.987   5.907  0.2311 -1.4370 -0.2303
 5863SOL    MW423226   3.854   5.964   5.968 -0.3905  0.6712  0.0300
 5864SOL     OW23227   4.475   1.929   0.166 -0.3407 -0.2740 -0.5958
 5864SOL    HW223228   4.494   1.967   0.080  0.4410 -0.3439 -0.4664
 5864SOL    HW323229   4.559   1.894   0.195 -0.4530  0.2901  0.4609
 5864SOL    MW423230   4.489   1.930   0.159 -0.2524 -0.2088 -0.4393
 5865SOL     OW23231   4.067   4.042   0.704  0.0679  0.1153 -0.0757
 5865SOL    HW223232   4.069   4.138   0.700 -2.1087  0.2723  1.0861
 5865SOL    HW323233   4.018   4.022   0.784  0.6808 -1.9856 -0.1678
 5865SOL    MW423234   4.060   4.052   0.714 -0.1384 -0.1411  0.0655
 5866SOL     OW23235   0.986   2.727   3.820  0.1998  0.0545  0.0214
 5866SOL    HW223236   1.048   2.658   3.799 -0.8952 -0.4345 -1.8631
 5866SOL    HW323237   0.947   2.700   3.903 -1.2560 -2.4618 -1.3451
 5866SOL    MW423238   0.989   2.714   3.828 -0.1368 -0.3420 -0.4075
 5867SOL     OW23239   4.973   3.314   4.420 -0.7337  0.0220 -0.2468
 5867SOL    HW223240   5.005   3.229   4.391  0.6219  0.5559 -0.3904
 5867SOL    HW323241   4.929   3.351   4.342  1.0790  0.5835 -1.0477
 5867SOL    MW423242   4.971   3.308   4.406 -0.3157  0.1665 -0.3714
 5868SOL     OW23243   4.691   0.660   3.587 -0.6786 -0.1668 -0.4074
 5868SOL    HW223244   4.664   0.590   3.527  1.4202 -2.0236  0.6756
 5868SOL    HW323245   4.611   0.682   3.635 -1.2530 -2.5740 -0.1021
 5868SOL    MW423246   4.677   0.653   3.585 -0.4774 -0.7294 -0.2242
 5869SOL     OW23247   0.606   0.471   4.380 -0.3582  0.4661 -0.4991
 5869SOL    HW223248   0.542   0.541   4.395 -1.4752 -0.1066 -2.2759
 5869SOL    HW323249   0.691   0.515   4.387 -0.6663  0.8395  4.1252
 5869SOL    MW423250   0.609   0.486   4.383 -0.5463  0.4398 -0.1234
 5870SOL     OW23251   1.442   2.037   3.202  0.5930 -0.6488  0.2028
 5870SOL    HW223252   1.493   2.048   3.282  1.3249 -0.2387 -0.3080
 5870SOL    HW323253   1.449   1.944   3.182  0.6100 -0.7084  0.4798
 5870SOL    MW423254   1.449   2.026   3.210  0.6918 -0.6026  0.1719
 5871SOL     OW23255   5.609   4.237   5.308 -0.0817 -0.1256 -0.4496
 5871SOL    HW223256   5.593   4.306   5.372  1.6814 -0.1986  0.1219
 5871SOL    HW323257   5.572   4.158   5.348  0.9489 -0.1599  0.4927
 5871SOL    MW423258   5.602   4.236   5.322  0.2869 -0.1398 -0.2498
 5872SOL     OW23259   4.680   3.021   5.044  0.1665 -0.2376 -0.0807
 5872SOL    HW223260   4.753   2.964   5.020 -0.7660 -1.3697 -0.3118
 5872SOL    HW323261   4.602   2.969   5.026 -0.6891  0.6026  1.0577
 5872SOL    MW423262   4.680   3.006   5.038 -0.0694 -0.2761  0.0390
 5873SOL     OW23263   2.401   3.996   2.715 -0.4994 -0.5488 -0.1556
 5873SOL    HW223264   2.425   4.003   2.623 -2.1650 -1.6581 -0.7194
 5873SOL    HW323265   2.315   4.039   2.720 -0.4528 -0.5512  0.8678
 5873SOL    MW423266   2.393   4.003   2.704 -0.7130 -0.6955 -0.0950
 5874SOL     OW23267   3.475   5.023   0.679 -0.1172 -0.1796 -0.0168
 5874SOL    HW223268   3.568   5.042   0.673 -0.0461 -0.5702 -0.1585
 5874SOL    HW323269   3.450   4.994   0.592 -0.4263  0.1669 -0.0438
 5874SOL    MW423270   3.484   5.021   0.667 -0.1486 -0.1854 -0.0391
 5875SOL     OW23271   4.358   0.429   3.259  0.5390  0.1182  0.2736
 5875SOL    HW223272   4.352   0.422   3.354 -0.1687 -0.2585  0.2032
 5875SOL    HW323273   4.280   0.478   3.234 -0.6766 -2.0449 -0.3569
 5875SOL    MW423274   4.347   0.435   3.268  0.2852 -0.2169  0.1811
 5876SOL     OW23275   2.327   1.620   2.455 -0.3224  0.0804  0.6159
 5876SOL    HW223276   2.265   1.599   2.525  0.4159 -1.9067  0.7269
 5876SOL    HW323277   2.292   1.575   2.378 -1.6766  3.0371 -0.6788
 5876SOL    MW423278   2.314   1.611   2.454 -0.4037  0.2083  0.4597
 5877SOL     OW23279   4.861   2.943   2.334  0.0351  0.3153 -0.1344
 5877SOL    HW223280   4.949   2.910   2.353 -0.2335 -0.4064 -0.1212
 5877SOL    HW323281   4.875   3.034   2.307  0.8712 -0.0333 -0.9288
 5877SOL    MW423282   4.875   2.950   2.333  0.1100  0.1741 -0.2374
 5878SOL     OW23283   5.169   2.501   1.168  0.1769 -0.3659 -0.4473
 5878SOL    HW223284   5.115   2.445   1.224 -0.1384  0.7537  0.4090
 5878SOL    HW323285   5.245   2.447   1.147  0.1062 -0.9535  0.7257
 5878SOL    MW423286   5.172   2.486   1.173  0.1260 -0.2957 -0.1796
 5879SOL     OW23287   2.144   5.375   6.225  0.1413  0.3209  0.0969
 5879SOL    HW223288   2.133   5.469   6.240 -1.2891  0.8638 -3.3934
 5879SOL    HW323289   2.161   5.368   6.131 -0.0902 -2.9485  0.2097
 5879SOL    MW423290   2.145   5.387   6.215 -0.0780 -0.0388 -0.3487
 5880SOL     OW23291   4.819   0.558   1.359 -0.2201  0.0424 -1.0085
 5880SOL    HW223292   4.843   0.465   1.359 -1.0518 -0.1891 -0.2721
 5880SOL    HW323293   4.887   0.600   1.411  0.2385 -0.1326 -1.4628
 5880SOL    MW423294   4.831   0.551   1.366 -0.2693 -0.0112 -0.9713
 5881SOL     OW23295   6.257   1.077   3.011  0.4423 -0.1044 -0.4131
 5881SOL    HW223296   6.251   1.003   2.951 -0.6868  0.4959 -1.0789
 5881SOL    HW323297   6.166   1.108   3.020  0.4506 -0.6106  2.1722
 5881SOL    MW423298   6.244   1.072   3.005  0.2944 -0.0920 -0.1599
 5882SOL     OW23299   3.498   3.754   3.162 -0.1501 -0.0124  0.0296
 5882SOL    HW223300   3.456   3.687   3.107 -1.6299 -0.5819  1.7598
 5882SOL    HW323301   3.452   3.835   3.140 -0.1550 -0.0658 -0.1671
 5882SOL    MW423302   3.486   3.756   3.152 -0.3460 -0.0946  0.2319
 5883SOL     OW23303   0.374   3.248   5.742  0.0880  0.3930  0.4290
 5883SOL    HW223304   0.404   3.174   5.690  0.8445  0.4045  0.8483
 5883SOL    HW323305   0.309   3.211   5.802 -0.4346  0.2954 -0.1831
 5883SOL    MW423306   0.369   3.233   5.743  0.1188  0.3816  0.4035
 5884SOL     OW23307   3.916   5.797   0.229 -0.3939  0.1372  0.0187
 5884SOL    HW223308   3.835   5.844   0.208 -0.5736 -0.8617 -1.7713
 5884SOL    HW323309   3.889   5.706   0.240  0.4893 -0.2419 -0.7799
 5884SOL    MW423310   3.902   5.791   0.228 -0.3011 -0.0446 -0.3228
 5885SOL     OW23311   1.001   5.925   3.250  0.0226  0.3682 -0.0125
 5885SOL    HW223312   1.024   5.953   3.339 -0.6648 -0.8983  0.5961
 5885SOL    HW323313   1.076   5.953   3.197  0.2603  1.5195  0.8743
 5885SOL    MW423314   1.014   5.932   3.255 -0.0368  0.3530  0.1848
 5886SOL     OW23315   1.356   5.310   4.940 -0.1402  0.1553  0.2815
 5886SOL    HW223316   1.299   5.234   4.931  0.0727 -0.0538  0.6293
 5886SOL    HW323317   1.444   5.272   4.951  0.4223  0.4831 -2.3764
 5886SOL    MW423318   1.360   5.295   4.940 -0.0379  0.1709 -0.0233
 5887SOL     OW23319   0.230   3.922   5.387  0.8475  0.2619  0.4738
 5887SOL    HW223320   0.235   3.962   5.301  1.5929 -0.7869  0.0122
 5887SOL    HW323321   0.308   3.952   5.433  0.3301  1.0152  0.8939
 5887SOL    MW423322   0.241   3.931   5.382  0.8776  0.2229  0.4683
 5888SOL     OW23323   3.222   6.136   0.710 -1.1444  0.3176  0.0750
 5888SOL    HW223324   3.289   6.108   0.773 -0.4092 -1.2280 -1.3173
 5888SOL    HW323325   3.236   6.231   0.701 -0.8075  0.4399  1.6797
 5888SOL    MW423326   3.233   6.145   0.717 -1.0029  0.1298  0.1030
 5889SOL     OW23327   5.283   6.038   4.528 -0.0692  0.0029 -0.2221
 5889SOL    HW223328   5.296   6.054   4.435  2.2230  0.7527  0.1734
 5889SOL    HW323329   5.287   5.943   4.537  2.7174  0.0173 -0.5675
 5889SOL    MW423330   5.285   6.028   4.517  0.6009  0.1037 -0.2155
 5890SOL     OW23331   1.865   4.875   5.153  0.6568 -0.1012 -0.3521
 5890SOL    HW223332   1.848   4.837   5.239 -2.4114  0.9823 -0.3564
 5890SOL    HW323333   1.900   4.802   5.101  3.2789 -0.6176  1.8793
 5890SOL    MW423334   1.868   4.860   5.157  0.5979 -0.0264 -0.0583
 5891SOL     OW23335   4.954   6.359   5.070 -0.3217 -0.1697  0.5991
 5891SOL    HW223336   4.990   6.347   4.982  1.2600  0.5393  1.1200
 5891SOL    HW323337   4.872   6.310   5.069 -0.4602  0.0324 -1.3475
 5891SOL    MW423338   4.948   6.351   5.058 -0.1313 -0.0495  0.4110
 5892SOL     OW23339   0.186   0.619   4.423 -0.7303 -0.2501  0.1846
 5892SOL    HW223340   0.162   0.634   4.332  0.2933 -0.9793 -0.2249
 5892SOL    HW323341   0.120   0.667   4.474  1.1279  4.0547 -0.9267
 5892SOL    MW423342   0.174   0.628   4.418 -0.3500  0.2217 -0.0161
 5893SOL     OW23343   0.518   0.831   0.411 -0.2621 -0.5909  0.8560
 5893SOL    HW223344   0.537   0.740   0.388  0.3009 -0.9294  2.4499
 5893SOL    HW323345   0.480   0.825   0.499 -1.2897  0.6441  0.5116
 5893SOL    MW423346   0.516   0.818   0.420 -0.3234 -0.4726  1.0209
 5894SOL     OW23347   5.890   5.559   2.306  0.3872  0.1048 -0.1871
 5894SOL    HW223348   5.927   5.641   2.273  0.9588 -0.5521 -1.2339
 5894SOL    HW323349   5.962   5.519   2.356 -0.8795  1.7778  3.3498
 5894SOL    MW423350   5.905   5.564   2.308  0.2955  0.2389  0.1414
 5895SOL     OW23351   1.591   5.565   6.392  0.4384  0.2495  0.4456
 5895SOL    HW223352   1.535   5.593   6.464  0.8316 -0.6044  1.1049
 5895SOL    HW323353   1.659   5.512   6.434  2.1133  1.7621 -0.2513
 5895SOL    MW423354   1.592   5.562   6.407  0.7112  0.3364  0.4407
 5896SOL     OW23355   4.044   1.530   4.305 -0.2304  0.4534 -0.3512
 5896SOL    HW223356   4.117   1.591   4.312 -1.6414  2.0894  1.1507
 5896SOL    HW323357   4.013   1.518   4.395 -1.0819 -1.1408 -0.8071
 5896SOL    MW423358   4.049   1.537   4.318 -0.5289  0.4589 -0.2132
 5897SOL     OW23359   0.167   4.171   5.679  0.0785  0.4726 -0.1361
 5897SOL    HW223360   0.149   4.166   5.585  2.1184 -0.1930 -0.5422
 5897SOL    HW323361   0.091   4.215   5.716 -0.8814  0.5165 -2.0680
 5897SOL    MW423362   0.155   4.176   5.671  0.2210  0.3906 -0.4446
 5898SOL     OW23363   0.921   1.506   2.816 -0.6926 -0.6095  0.3144
 5898SOL    HW223364   0.970   1.582   2.843  0.7333 -1.5085  0.3402
 5898SOL    HW323365   0.837   1.513   2.862 -0.6537  0.9966  0.1810
 5898SOL    MW423366   0.916   1.517   2.825 -0.4993 -0.5162  0.3002
 5899SOL     OW23367   0.850   5.200   0.312  0.2874 -0.0506  0.0342
 5899SOL    HW223368   0.803   5.270   0.265  0.6918  2.1665  2.6676
 5899SOL    HW323369   0.931   5.190   0.263 -0.1615  0.7000 -0.9197
 5899SOL    MW423370   0.854   5.208   0.299  0.2816  0.3410  0.2558
 5900SOL     OW23371   3.025   2.633   1.992  0.0216  0.1832  0.5377
 5900SOL    HW223372   2.941   2.594   1.966 -0.1171  0.8269 -0.0084
 5900SOL    HW323373   3.043   2.699   1.925  0.9409  0.0938  0.6821
 5900SOL    MW423374   3.016   2.637   1.980  0.1246  0.2563  0.4847
 5901SOL     OW23375   3.509   5.355   3.891 -0.2445 -0.0344 -0.0126
 5901SOL    HW223376   3.501   5.332   3.799 -0.6060  1.5753 -0.4051
 5901SOL    HW323377   3.487   5.448   3.895  1.3321  0.3211  1.4544
 5901SOL    MW423378   3.505   5.364   3.880 -0.0842  0.2249  0.1292
 5902SOL     OW23379   1.679   5.558   1.894  0.1938  0.0514  0.6425
 5902SOL    HW223380   1.748   5.491   1.891  0.6308  0.4934 -2.2594
 5902SOL    HW323381   1.716   5.632   1.845 -1.5724  1.1074  0.8275
 5902SOL    MW423382   1.693   5.559   1.887  0.0184  0.2490  0.2840
 5903SOL     OW23383   1.078   4.569   1.351 -0.0903  0.2294 -0.0081
 5903SOL    HW223384   1.031   4.584   1.433  0.1324 -0.4593  0.2505
 5903SOL    HW323385   1.074   4.474   1.338 -1.7783  0.4617 -1.7850
 5903SOL    MW423386   1.071   4.558   1.360 -0.2837  0.1692 -0.2084
 5904SOL     OW23387   2.797   4.648   1.503  0.0040 -0.0698 -0.1600
 5904SOL    HW223388   2.734   4.580   1.526  0.2522 -0.1508  0.3002
 5904SOL    HW323389   2.750   4.705   1.442  0.3767 -1.6550 -2.0099
 5904SOL    MW423390   2.782   4.647   1.498  0.0859 -0.2896 -0.3433
 5905SOL     OW23391   5.391   5.480   3.439  0.4586  0.2199 -0.1694
 5905SOL    HW223392   5.431   5.512   3.358  0.8718 -0.4115 -0.2210
 5905SOL    HW323393   5.400   5.385   3.434  1.6870  0.2430  1.2484
 5905SOL    MW423394   5.397   5.472   3.427  0.6752  0.1396  0.0108
 5906SOL     OW23395   2.587   1.725   0.720  0.1118 -0.1569  0.6893
 5906SOL    HW223396   2.536   1.648   0.692  2.4059 -1.7201  0.5312
 5906SOL    HW323397   2.542   1.799   0.680 -1.0868 -1.5883 -0.7868
 5906SOL    MW423398   2.574   1.724   0.711  0.2563 -0.5520  0.4737
 5907SOL     OW23399   3.516   5.648   3.882  0.2259 -0.2966  0.0208
 5907SOL    HW223400   3.506   5.700   3.962  0.1628 -2.2149  1.3022
 5907SOL    HW323401   3.605   5.668   3.851 -0.6865  2.6237 -1.1063
 5907SOL    MW423402   3.527   5.658   3.888  0.0972 -0.1644  0.0412
 5908SOL     OW23403   6.021   0.634   3.573  0.1199 -0.2952  0.2797
 5908SOL    HW223404   6.080   0.570   3.532  0.2140 -0.1938  0.2550
 5908SOL    HW323405   6.057   0.719   3.548 -0.5381 -0.2247 -0.4539
 5908SOL    MW423406   6.034   0.637   3.564  0.0455 -0.2725  0.1797
 5909SOL     OW23407   4.055   3.866   1.385 -0.1321  0.1001  0.6277
 5909SOL    HW223408   3.988   3.925   1.350  0.5771 -0.1325 -1.2136
 5909SOL    HW323409   4.008   3.812   1.449 -1.4214  0.7492  0.2645
 5909SOL    MW423410   4.040   3.867   1.389 -0.2087  0.1551  0.3368
 5910SOL     OW23411   2.149   1.457   0.269  0.1009  0.3166 -0.4676
 5910SOL    HW223412   2.059   1.432   0.253 -0.3940  1.1822  0.7938
 5910SOL    HW323413   2.168   1.427   0.358  1.2218 -0.2823 -0.8871
 5910SOL    MW423414   2.140   1.450   0.278  0.1835  0.3518 -0.3565
 5911SOL     OW23415   4.657   4.680   6.233  0.2552  0.7972 -0.1568
 5911SOL    HW223416   4.625   4.753   6.180  0.4328  1.6076  0.8065
 5911SOL    HW323417   4.734   4.647   6.186 -1.3278 -0.5012 -1.9603
 5911SOL    MW423418   4.663   4.685   6.220  0.0698  0.7328 -0.2677
 5912SOL     OW23419   2.519   2.354   3.716 -0.2056  0.3877 -0.6731
 5912SOL    HW223420   2.607   2.319   3.730 -0.4138  0.6945  1.8089
 5912SOL    HW323421   2.464   2.305   3.777 -1.9848 -0.4732 -2.8543
 5912SOL    MW423422   2.523   2.343   3.726 -0.4678  0.3146 -0.6334
 5913SOL     OW23423   5.606   4.857   4.163  0.0561 -0.0231 -0.0851
 5913SOL    HW223424   5.631   4.897   4.080  0.5633 -2.3327 -1.1271
 5913SOL    HW323425   5.600   4.763   4.144  0.2365 -0.6474  2.5005
 5913SOL    MW423426   5.608   4.850   4.150  0.1468 -0.4102  0.1185
 5914SOL     OW23427   3.014   5.498   1.555 -0.1607  0.2046  0.0561
 5914SOL    HW223428   2.957   5.566   1.519  0.4879  2.1465  2.3792
 5914SOL    HW323429   3.103   5.529   1.537  0.1487 -0.2980  0.6476
 5914SOL    MW423430   3.018   5.511   1.548 -0.0343  0.3945  0.4406
 5915SOL     OW23431   1.191   3.635   5.411 -0.3283 -0.4163  0.5485
 5915SOL    HW223432   1.210   3.688   5.333 -2.8789  0.7155  0.6128
 5915SOL    HW323433   1.165   3.550   5.376  2.4598 -1.2970  0.3946
 5915SOL    MW423434   1.190   3.631   5.396 -0.2969 -0.3832  0.5367
 5916SOL     OW23435   4.404   4.277   0.212 -0.0114  0.5952  0.0577
 5916SOL    HW223436   4.317   4.247   0.187  0.2626  0.8884 -1.3259
 5916SOL    HW323437   4.420   4.354   0.156  0.6829  1.2193  1.0768
 5916SOL    MW423438   4.395   4.283   0.201  0.1164  0.7162  0.0096
 5917SOL     OW23439   5.147   5.679   1.084  0.0725 -0.2786  0.2171
 5917SOL    HW223440   5.229   5.721   1.111  0.1336 -1.1528  1.4496
 5917SOL    HW323441   5.144   5.693   0.990  0.4229  1.8992  0.4577
 5917SOL    MW423442   5.158   5.687   1.075  0.1268 -0.1066  0.4114
 5918SOL     OW23443   0.504   5.656   5.595  0.2056  0.3250 -0.0037
 5918SOL    HW223444   0.487   5.629   5.504 -0.7457 -0.9275  0.5135
 5918SOL    HW323445   0.472   5.746   5.599 -1.3660 -0.1704 -0.5057
 5918SOL    MW423446   0.497   5.664   5.583 -0.1272  0.0944 -0.0017
 5919SOL     OW23447   2.971   1.677   0.170 -0.9486  0.1600  0.1384
 5919SOL    HW223448   2.902   1.621   0.135 -0.8565  0.0198  0.1799
 5919SOL    HW323449   3.051   1.647   0.127 -0.5293 -1.1953  1.7097
 5919SOL    MW423450   2.972   1.665   0.160 -0.8812 -0.0373  0.3512
 5920SOL     OW23451   2.154   4.304   3.714 -0.7857 -0.3891 -0.3107
 5920SOL    HW223452   2.131   4.264   3.798  1.1715 -1.2251 -0.1209
 5920SOL    HW323453   2.097   4.262   3.650 -1.0650 -1.0456  0.3616
 5920SOL    MW423454   2.143   4.293   3.717 -0.5643 -0.5860 -0.1970
 5921SOL     OW23455   6.196   1.122   5.224 -0.1055 -0.2263 -0.2895
 5921SOL    HW223456   6.119   1.174   5.247  1.0151  0.8140  1.3052
 5921SOL    HW323457   6.206   1.133   5.130 -1.2817  0.5059 -0.3422
 5921SOL    MW423458   6.187   1.130   5.215 -0.1128  0.0075 -0.0860
 5922SOL     OW23459   2.527   1.761   2.811  0.2919  0.3585 -0.4068
 5922SOL    HW223460   2.474   1.727   2.883  0.0805 -0.1161 -0.7864
 5922SOL    HW323461   2.466   1.812   2.758  0.6375  1.4727  0.2416
 5922SOL    MW423462   2.512   1.763   2.813  0.3096  0.4429 -0.3713
 5923SOL     OW23463   3.189   1.026   1.557  0.4717  0.8250 -0.1309
 5923SOL    HW223464   3.230   1.091   1.614  1.0928  0.4380 -0.1311
 5923SOL    HW323465   3.234   1.035   1.473  1.7756 -0.7679  0.3518
 5923SOL    MW423466   3.200   1.036   1.553  0.7257  0.5638 -0.0672
 5924SOL     OW23467   3.874   4.533   5.175 -0.3299 -0.2546 -0.0621
 5924SOL    HW223468   3.961   4.554   5.140  0.5680 -4.2472 -0.6339
 5924SOL    HW323469   3.814   4.582   5.119  1.4333  0.7755 -1.1724
 5924SOL    MW423470   3.878   4.542   5.163  0.0212 -0.6455 -0.2840
 5925SOL     OW23471   6.153   0.814   1.415  0.5715 -0.1297 -0.5215
 5925SOL    HW223472   6.207   0.735   1.421 -1.0702 -1.2429  0.0702
 5925SOL    HW323473   6.195   0.865   1.345  2.5753 -0.7648  0.1277
 5925SOL    MW423474   6.166   0.810   1.407  0.6193 -0.3603 -0.3577
 5926SOL     OW23475   2.287   1.530   1.303  0.1183  0.4861  0.2230
 5926SOL    HW223476   2.288   1.601   1.239  1.5826  0.8127  0.5684
 5926SOL    HW323477   2.213   1.550   1.361 -0.8139  0.5368 -0.9524
 5926SOL    MW423478   2.277   1.542   1.303  0.1885  0.5359  0.1135
 5927SOL     OW23479   6.376   0.330   3.620 -0.6696 -0.1646 -0.6557
 5927SOL    HW223480   6.356   0.237   3.627 -1.7967  0.1202  0.5278
 5927SOL    HW323481   6.426   0.350   3.699  1.0198 -0.0719 -1.7110
 5927SOL    MW423482   6.380   0.320   3.631 -0.5954 -0.1148 -0.6388
 5928SOL     OW23483   4.445   4.074   4.407  0.0981  1.1218  0.1257
 5928SOL    HW223484   4.499   4.019   4.464  0.6641 -0.3094 -1.6756
 5928SOL    HW323485   4.499   4.152   4.392  1.6262 -0.1377 -1.3807
 5928SOL    MW423486   4.459   4.077   4.413  0.3744  0.7668 -0.3107
 5929SOL     OW23487   3.230   5.526   1.337 -0.3157 -0.0496 -0.2430
 5929SOL    HW223488   3.274   5.483   1.264 -1.4752  0.0143 -0.9984
 5929SOL    HW323489   3.301   5.551   1.396  0.5001 -1.6766 -0.4934
 5929SOL    MW423490   3.245   5.524   1.335 -0.3610 -0.2558 -0.3757
 5930SOL     OW23491   0.930   0.559   5.555  0.0155 -0.3112  0.0011
 5930SOL    HW223492   0.961   0.589   5.469  1.4882 -0.4642  0.4525
 5930SOL    HW323493   0.854   0.615   5.574  0.6695  0.8542 -0.6770
 5930SOL    MW423494   0.924   0.571   5.546  0.2961 -0.1776 -0.0288
 5931SOL     OW23495   0.081   1.657   1.050 -0.2597 -0.5960  0.2245
 5931SOL    HW223496   0.075   1.662   1.145  0.7115 -1.9183  0.3863
 5931SOL    HW323497  -0.009   1.638   1.022 -0.7786  0.9108  0.7505
 5931SOL    MW423498   0.068   1.655   1.059 -0.2000 -0.5717  0.3152
 5932SOL     OW23499   2.107   0.925   4.296  0.5558  0.1834 -0.2093
 5932SOL    HW223500   2.145   0.872   4.366  0.0454  0.1257  0.0344
 5932SOL    HW323501   2.107   1.014   4.332 -1.3134 -0.0922  0.5998
 5932SOL    MW423502   2.112   0.930   4.310  0.2419  0.1394 -0.0704
 5933SOL     OW23503   0.747   0.684   0.870 -0.2989 -0.7907  0.2109
 5933SOL    HW223504   0.698   0.709   0.949  0.3676 -0.9504  0.6909
 5933SOL    HW323505   0.765   0.591   0.882  1.1364 -0.4992  0.6463
 5933SOL    MW423506   0.743   0.675   0.882 -0.0216 -0.7733  0.3317
 5934SOL     OW23507   2.260   0.459   3.475 -1.1379  0.1680  0.0765
 5934SOL    HW223508   2.207   0.392   3.431 -0.1227  0.7314 -2.1132
 5934SOL    HW323509   2.265   0.531   3.413 -0.0312  1.2317  1.3331
 5934SOL    MW423510   2.253   0.459   3.461 -0.8580  0.3827 -0.0466
 5935SOL     OW23511   5.106   2.818   4.917 -0.6993  0.1055  0.0438
 5935SOL    HW223512   5.098   2.913   4.905  1.9257  0.1999 -1.7239
 5935SOL    HW323513   5.176   2.807   4.981 -0.3026 -0.6324 -0.5049
 5935SOL    MW423514   5.114   2.829   4.923 -0.3006  0.0206 -0.2618
 5936SOL     OW23515   2.824   0.866   0.083 -0.7228 -0.2915  0.0152
 5936SOL    HW223516   2.823   0.953   0.042 -2.5106 -1.2444 -2.1982
 5936SOL    HW323517   2.762   0.873   0.155 -1.4007  0.1103 -0.5887
 5936SOL    MW423518   2.815   0.878   0.087 -1.0481 -0.3642 -0.3565
 5937SOL     OW23519   5.761   2.909   5.416 -0.1980 -0.2928  0.5459
 5937SOL    HW223520   5.712   2.901   5.497 -0.8142 -2.4429  0.0231
 5937SOL    HW323521   5.696   2.937   5.351  0.4411  2.1783  0.8670
 5937SOL    MW423522   5.746   2.911   5.418 -0.1950 -0.2504  0.5193
 5938SOL     OW23523   2.844   3.678   1.278 -0.2680  0.1432 -0.3438
 5938SOL    HW223524   2.805   3.692   1.192  1.2060 -0.7417 -1.2108
 5938SOL    HW323525   2.874   3.587   1.276 -1.8683 -0.5302  1.8345
 5938SOL    MW423526   2.843   3.668   1.267 -0.2847 -0.0624 -0.1708
 5939SOL     OW23527   2.973   1.151   3.631  0.1363 -0.2056  0.8033
 5939SOL    HW223528   2.965   1.211   3.556  1.0875  0.3261  1.1096
 5939SOL    HW323529   2.884   1.120   3.646 -0.2200  0.3976  0.0294
 5939SOL    MW423530   2.960   1.155   3.623  0.2148 -0.0559  0.7416
 5940SOL     OW23531   1.911   0.132   4.185 -0.6478  0.6630  0.0720
 5940SOL    HW223532   1.930   0.100   4.274 -1.0528  0.8399  0.2242
 5940SOL    HW323533   1.837   0.190   4.196 -0.8585  0.4935 -0.4232
 5940SOL    MW423534   1.904   0.135   4.199 -0.7290  0.6640  0.0267
 5941SOL     OW23535   1.764   6.415   5.251  0.1138  0.1086  0.6773
 5941SOL    HW223536   1.758   6.502   5.291 -0.5130 -0.3015  1.5036
 5941SOL    HW323537   1.858   6.397   5.246  0.3554  1.6145 -1.2827
 5941SOL    MW423538   1.776   6.424   5.256  0.0629  0.2531  0.5277
 5942SOL     OW23539   4.271   5.858   6.266  0.3174 -0.2714 -0.9705
 5942SOL    HW223540   4.186   5.900   6.255 -0.3137 -1.1951  0.0935
 5942SOL    HW323541   4.317   5.872   6.183  0.3754  2.9569 -0.5042
 5942SOL    MW423542   4.266   5.865   6.254  0.2418  0.0327 -0.7686
 5943SOL     OW23543   2.434   6.037   1.319  0.0198 -0.1317 -0.0786
 5943SOL    HW223544   2.359   5.981   1.299 -0.2042 -0.3839  1.3753
 5943SOL    HW323545   2.507   5.976   1.331  0.3896  0.0881 -1.1224
 5943SOL    MW423546   2.434   6.021   1.318  0.0391 -0.1359 -0.0245
 5944SOL     OW23547   0.808   6.310   1.699 -0.6004 -0.0366  1.2240
 5944SOL    HW223548   0.823   6.284   1.608  0.8231  1.9538  0.8306
 5944SOL    HW323549   0.714   6.296   1.713 -0.6108 -1.5543 -0.1323
 5944SOL    MW423550   0.797   6.305   1.689 -0.4140  0.0257  0.9931
 5945SOL     OW23551   4.612   3.142   6.254  0.2535 -0.4409 -0.2467
 5945SOL    HW223552   4.705   3.139   6.279  0.1550 -0.4833  0.1225
 5945SOL    HW323553   4.576   3.060   6.288 -0.2926  0.3432  1.1417
 5945SOL    MW423554   4.620   3.131   6.262  0.1685 -0.3430 -0.0148
 5946SOL     OW23555   2.459   5.810   4.413 -0.0104 -0.4615  0.6348
 5946SOL    HW223556   2.365   5.799   4.393 -0.3659 -1.1634  2.5025
 5946SOL    HW323557   2.503   5.758   4.346 -1.1503 -2.9976  1.6870
 5946SOL    MW423558   2.452   5.802   4.401 -0.2077 -0.8887  1.0201
 5947SOL     OW23559   4.136   5.829   2.549 -0.1139 -0.3017 -0.6224
 5947SOL    HW223560   4.128   5.911   2.598 -2.1374 -0.2474 -0.9337
 5947SOL    HW323561   4.199   5.848   2.480 -1.5583  1.4950 -1.5327
 5947SOL    MW423562   4.143   5.842   2.546 -0.5714 -0.0575 -0.7835
 5948SOL     OW23563   0.570   3.300   3.350 -0.4624 -0.1758 -0.2776
 5948SOL    HW223564   0.613   3.226   3.307  1.3550  0.6829 -0.0338
 5948SOL    HW323565   0.622   3.315   3.429 -1.3846  0.7641  0.1690
 5948SOL    MW423566   0.582   3.292   3.355 -0.3443  0.0615 -0.1865
 5949SOL     OW23567   1.933   1.257   6.240  0.0102  0.6463  0.5674
 5949SOL    HW223568   1.911   1.164   6.251 -0.2669  0.5069 -0.9589
 5949SOL    HW323569   1.851   1.297   6.211  0.2860  1.2532  0.6265
 5949SOL    MW423570   1.919   1.250   6.238  0.0100  0.7080  0.3738
 5950SOL     OW23571   6.292   3.586   5.795 -0.0574 -0.5101 -0.0096
 5950SOL    HW223572   6.387   3.596   5.797 -0.0109 -0.8375  2.0019
 5950SOL    HW323573   6.278   3.492   5.808 -0.6459 -0.4739 -0.3751
 5950SOL    MW423574   6.302   3.575   5.797 -0.1289 -0.5485  0.2076
 5951SOL     OW23575   6.156   2.474   5.182  0.1272 -0.6676 -0.3905
 5951SOL    HW223576   6.238   2.435   5.212  0.6828  0.6107 -0.1396
 5951SOL    HW323577   6.104   2.484   5.262  0.4648  0.1488 -0.2600
 5951SOL    MW423578   6.160   2.470   5.197  0.2451 -0.3912 -0.3402
 5952SOL     OW23579   4.683   2.955   1.834  0.0410  0.6437  0.0933
 5952SOL    HW223580   4.695   2.933   1.927 -1.5070 -1.9355 -0.2138
 5952SOL    HW323581   4.770   2.983   1.805  0.5156  1.7071  2.3217
 5952SOL    MW423582   4.696   2.956   1.842 -0.1006  0.4437  0.3468
 5953SOL     OW23583   3.605   2.069   3.464  0.3103  0.0180  0.2429
 5953SOL    HW223584   3.566   2.042   3.381  1.3638  1.9509 -0.9687
 5953SOL    HW323585   3.687   2.019   3.469  0.9324  0.9299 -0.6139
 5953SOL    MW423586   3.611   2.059   3.454  0.5314  0.3934 -0.0300
 5954SOL     OW23587   5.388   1.390   2.611  0.4210 -0.3501  0.1388
 5954SOL    HW223588   5.336   1.325   2.563 -0.2041  0.4458 -0.2766
 5954SOL    HW323589   5.479   1.371   2.587  0.4409 -2.2941  1.5282
 5954SOL    MW423590   5.393   1.379   2.602  0.3412 -0.5016  0.2673
 5955SOL     OW23591   3.428   2.988   3.336  0.3146  0.4254 -0.0703
 5955SOL    HW223592   3.356   3.048   3.321 -0.1018 -0.0920 -0.1564
 5955SOL    HW323593   3.496   3.042   3.376 -0.2766  0.8276  0.4043
 5955SOL    MW423594   3.428   3.003   3.340  0.1817  0.4102 -0.0191
 5956SOL     OW23595   0.209   4.247   1.624  0.4384 -0.0981 -0.2450
 5956SOL    HW223596   0.130   4.298   1.645  1.1650  0.7597  0.4871
 5956SOL    HW323597   0.264   4.308   1.575  1.1587 -0.3111  0.2984
 5956SOL    MW423598   0.206   4.262   1.620  0.6293 -0.0130 -0.0767
 5957SOL     OW23599   1.852   1.881   2.968 -0.1835 -0.2101  0.1339
 5957SOL    HW223600   1.844   1.903   3.061 -1.0693 -1.1738  0.2930
 5957SOL    HW323601   1.764   1.892   2.933 -0.0941 -0.9524 -0.3444
 5957SOL    MW423602   1.839   1.886   2.976 -0.2885 -0.4352  0.0918
 5958SOL     OW23603   6.211   0.761   1.052  0.1438  0.4083 -0.4486
 5958SOL    HW223604   6.244   0.726   0.969  0.3383 -0.7124  0.0877
 5958SOL    HW323605   6.278   0.823   1.080  2.0283 -1.9627  0.7232
 5958SOL    MW423606   6.224   0.764   1.045  0.4181 -0.0524 -0.2233
 5959SOL     OW23607   2.276   1.933   1.418 -0.3437  0.0023  0.1299
 5959SOL    HW223608   2.252   2.000   1.482  1.3055  0.4344  0.3306
 5959SOL    HW323609   2.205   1.870   1.422 -1.3163  1.0997  0.8446
 5959SOL    MW423610   2.263   1.934   1.427 -0.2544  0.2041  0.2507
 5960SOL     OW23611   3.463   0.783   4.861 -0.1564  0.3393 -0.5938
 5960SOL    HW223612   3.519   0.781   4.938 -0.1522  0.1636 -0.6017
 5960SOL    HW323613   3.450   0.691   4.837 -0.3479  0.3820 -0.6632
 5960SOL    MW423614   3.469   0.770   4.868 -0.1811  0.3218 -0.6040
 5961SOL     OW23615   4.407   4.633   4.256 -0.4067  1.1121 -0.4345
 5961SOL    HW223616   4.350   4.708   4.242 -3.4409 -0.5828  1.6087
 5961SOL    HW323617   4.375   4.567   4.195 -0.1123  0.3916  0.1702
 5961SOL    MW423618   4.396   4.634   4.246 -0.7682  0.7934 -0.0851
 5962SOL     OW23619   3.772   6.129   4.237 -0.4817 -0.4792  0.1101
 5962SOL    HW223620   3.730   6.207   4.202 -1.5873 -1.8192 -1.7591
 5962SOL    HW323621   3.749   6.128   4.330 -1.0365  1.0161  0.0038
 5962SOL    MW423622   3.763   6.139   4.245 -0.7008 -0.4587 -0.1505
 5963SOL     OW23623   3.720   0.390   4.791  0.4288 -0.8254  0.2444
 5963SOL    HW223624   3.788   0.456   4.804 -0.0535 -0.5331  1.4053
 5963SOL    HW323625   3.720   0.339   4.872 -1.5909  0.0196  0.8361
 5963SOL    MW423626   3.729   0.392   4.803  0.0987 -0.6754  0.4756
 5964SOL     OW23627   0.609   0.873   3.264 -0.6215 -0.6277 -0.2574
 5964SOL    HW223628   0.627   0.810   3.194  0.5653  2.0879 -2.5797
 5964SOL    HW323629   0.519   0.902   3.246 -0.5889 -0.4846 -0.1854
 5964SOL    MW423630   0.599   0.868   3.252 -0.4606 -0.2505 -0.5543
 5965SOL     OW23631   5.525   6.408   4.077  0.3191  0.0823  0.3341
 5965SOL    HW223632   5.473   6.356   4.138 -0.3626  1.0267  0.5776
 5965SOL    HW323633   5.612   6.413   4.118  0.0284  0.2291  0.9462
 5965SOL    MW423634   5.530   6.401   4.090  0.1908  0.2263  0.4470
 5966SOL     OW23635   2.795   0.522   3.494 -0.8002  0.4706 -0.5567
 5966SOL    HW223636   2.831   0.435   3.511  2.2514  2.0321  2.1257
 5966SOL    HW323637   2.713   0.524   3.544 -0.6187 -0.6368 -0.1901
 5966SOL    MW423638   2.789   0.511   3.503 -0.3737  0.5305 -0.1544
 5967SOL     OW23639   1.984   1.588   6.013 -0.1818 -0.0762  0.3796
 5967SOL    HW223640   2.067   1.624   5.983 -1.4065  3.2822  0.6204
 5967SOL    HW323641   1.919   1.625   5.953 -1.7342 -0.7448  1.5828
 5967SOL    MW423642   1.986   1.597   6.001 -0.5482  0.2787  0.5701
 5968SOL     OW23643   4.185   2.689   2.150 -0.2716  0.4806 -0.6097
 5968SOL    HW223644   4.131   2.714   2.075 -0.3282  0.0400 -0.7197
 5968SOL    HW323645   4.122   2.651   2.212 -0.1093  0.0705 -0.6907
 5968SOL    MW423646   4.169   2.687   2.148 -0.2576  0.3684 -0.6349
 5969SOL     OW23647   2.322   0.024   2.629  0.4999  0.0589  1.2786
 5969SOL    HW223648   2.246   0.077   2.655  1.7977  2.4763  0.4973
 5969SOL    HW323649   2.352  -0.016   2.711 -1.7770 -1.3066  1.5397
 5969SOL    MW423650   2.316   0.026   2.643  0.3708  0.1977  1.2100
 5970SOL     OW23651   3.970   4.774   1.959 -0.2565 -0.3378  0.0465
 5970SOL    HW223652   3.918   4.723   1.896 -0.0465 -1.5373  0.8075
 5970SOL    HW323653   4.038   4.713   1.988 -1.6970 -0.6837  3.1576
 5970SOL    MW423654   3.972   4.759   1.955 -0.4189 -0.5417  0.5574
 5971SOL     OW23655   0.346   4.674   1.300 -0.5011 -0.0118 -0.0515
 5971SOL    HW223656   0.300   4.641   1.223 -0.5023 -1.8957  0.6811
 5971SOL    HW323657   0.327   4.609   1.368 -1.4123  2.1128  1.8792
 5971SOL    MW423658   0.337   4.661   1.299 -0.6215  0.0200  0.2999
 5972SOL     OW23659   1.755   2.257   1.710  0.6037  0.0118  0.4627
 5972SOL    HW223660   1.762   2.173   1.663  1.9088 -0.1812  0.9593
 5972SOL    HW323661   1.727   2.232   1.799  0.0859  0.1949  0.3543
 5972SOL    MW423662   1.752   2.242   1.716  0.7075  0.0105  0.5140
 5973SOL     OW23663   1.726   2.097   0.055  0.3094  0.2878 -0.7459
 5973SOL    HW223664   1.648   2.151   0.045 -0.7374 -0.7123  1.3491
 5973SOL    HW323665   1.699   2.010   0.024  0.8097  0.1091 -0.6950
 5973SOL    MW423666   1.712   2.093   0.050  0.2373  0.1323 -0.4627
 5974SOL     OW23667   0.866   0.159   5.909  0.3824 -0.4443  0.2256
 5974SOL    HW223668   0.840   0.244   5.874  0.6069 -1.2066 -1.9185
 5974SOL    HW323669   0.869   0.172   6.004 -0.7860  1.5834  0.0308
 5974SOL    MW423670   0.863   0.172   5.917  0.2578 -0.2774 -0.0830
 5975SOL     OW23671   1.080   3.558   3.338  0.7090 -0.0724  0.6838
 5975SOL    HW223672   1.166   3.546   3.297  1.1807  0.8107  1.3676
 5975SOL    HW323673   1.100   3.573   3.430 -0.0279  1.9143  0.5704
 5975SOL    MW423674   1.094   3.558   3.345  0.6740  0.3062  0.7591
 5976SOL     OW23675   5.561   3.253   1.752 -0.1980 -0.2161 -0.0636
 5976SOL    HW223676   5.563   3.215   1.664  0.6234 -0.3306 -0.0031
 5976SOL    HW323677   5.505   3.195   1.802 -1.0765  0.1222 -0.6280
 5976SOL    MW423678   5.554   3.241   1.747 -0.2056 -0.1866 -0.1301
 5977SOL     OW23679   2.119   3.043   1.948 -0.4239  0.2114  0.0306
 5977SOL    HW223680   2.181   3.105   1.985  0.2825  0.2006 -1.0754
 5977SOL    HW323681   2.173   2.984   1.895 -1.4643  0.9067 -1.9287
 5977SOL    MW423682   2.134   3.043   1.946 -0.4680  0.3017 -0.3738
 5978SOL     OW23683   3.633   4.133   3.698  0.1910 -0.2803 -0.0976
 5978SOL    HW223684   3.629   4.081   3.778  0.8446  0.5282  0.4803
 5978SOL    HW323685   3.653   4.222   3.729  0.7567 -0.0182 -1.1798
 5978SOL    MW423686   3.635   4.138   3.713  0.3519 -0.1390 -0.1642
 5979SOL     OW23687   0.523   3.190   1.109  0.5286 -0.1422  0.1484
 5979SOL    HW223688   0.587   3.261   1.099  0.1004  0.1594 -0.5034
 5979SOL    HW323689   0.438   3.234   1.112  0.3589 -0.5104  1.4036
 5979SOL    MW423690   0.520   3.205   1.108  0.4497 -0.1509  0.2280
 5980SOL     OW23691   0.719   3.475   3.120 -0.4615 -0.1992  0.4474
 5980SOL    HW223692   0.712   3.429   3.036  2.8075  2.0697 -1.2521
 5980SOL    HW323693   0.768   3.414   3.176  0.3081 -0.4099 -0.4284
 5980SOL    MW423694   0.725   3.461   3.116  0.0713  0.0723  0.1076
 5981SOL     OW23695   5.939   0.659   1.325 -0.3362  0.3340 -0.6994
 5981SOL    HW223696   5.945   0.661   1.230 -0.3865 -2.8160 -0.8605
 5981SOL    HW323697   6.010   0.715   1.355 -1.2949  2.6863 -2.5333
 5981SOL    MW423698   5.949   0.667   1.317 -0.4693  0.2287 -0.9626
 5982SOL     OW23699   0.020   0.153   6.260  0.0348  0.3417  0.4543
 5982SOL    HW223700   0.097   0.117   6.305  0.6889  1.3672  0.1824
 5982SOL    HW323701   0.007   0.239   6.300 -1.1472  0.0666  0.6855
 5982SOL    MW423702   0.029   0.159   6.271 -0.0349  0.4407  0.4489
 5983SOL     OW23703   2.472   6.313   0.876 -0.1145  0.3998 -0.0323
 5983SOL    HW223704   2.520   6.364   0.811 -0.1468  2.3049  1.3414
 5983SOL    HW323705   2.511   6.339   0.960  0.1846 -2.2410  0.7370
 5983SOL    MW423706   2.484   6.323   0.879 -0.0793  0.3027  0.2504
 5984SOL     OW23707   0.882   1.464   2.182  0.7794 -0.1504  0.3721
 5984SOL    HW223708   0.853   1.422   2.264  1.5016  0.6135  1.0338
 5984SOL    HW323709   0.815   1.439   2.118 -0.0697 -0.3632  1.3027
 5984SOL    MW423710   0.869   1.455   2.184  0.7626 -0.0777  0.5822
 5985SOL     OW23711   2.540   2.641   3.649  0.1055  0.3604 -0.1689
 5985SOL    HW223712   2.539   2.677   3.560  0.9787  0.5195 -0.1234
 5985SOL    HW323713   2.536   2.546   3.636  1.0643  0.3472 -0.4163
 5985SOL    MW423714   2.539   2.633   3.635  0.3472  0.3797 -0.1956
 5986SOL     OW23715   2.623   3.946   4.660 -0.1486 -0.1290  0.0797
 5986SOL    HW223716   2.546   3.920   4.610 -0.3518  1.1203 -0.2924
 5986SOL    HW323717   2.694   3.891   4.627 -0.5929 -0.3164 -0.5673
 5986SOL    MW423718   2.622   3.936   4.649 -0.2340  0.0111 -0.0547
 5987SOL     OW23719   0.168   1.211   3.048  0.7233 -0.1186  0.5008
 5987SOL    HW223720   0.119   1.258   2.981  0.3539 -0.5451  0.4631
 5987SOL    HW323721   0.121   1.228   3.130  1.3165  0.6065  0.7060
 5987SOL    MW423722   0.156   1.219   3.050  0.7528 -0.0792  0.5229
 5988SOL     OW23723   0.046   0.826   3.525  0.5723 -0.5943 -0.3057
 5988SOL    HW223724   0.077   0.775   3.451 -1.7641 -2.3897 -0.1605
 5988SOL    HW323725   0.119   0.883   3.548  1.8281 -0.9566 -3.0977
 5988SOL    MW423726   0.060   0.827   3.518  0.4297 -0.8790 -0.6549
 5989SOL     OW23727   1.982   4.719   5.754 -0.3277 -0.2417 -0.1468
 5989SOL    HW223728   1.967   4.710   5.848 -0.1122 -0.7665 -0.1581
 5989SOL    HW323729   1.905   4.767   5.722 -0.4725 -0.1897  0.2756
 5989SOL    MW423730   1.970   4.724   5.762 -0.3184 -0.3041 -0.0926
 5990SOL     OW23731   1.486   5.289   3.673 -1.0380  0.5819  0.5981
 5990SOL    HW223732   1.516   5.323   3.757  0.1310  0.2589  0.3178
 5990SOL    HW323733   1.409   5.236   3.695  0.4458 -1.1850  1.7621
 5990SOL    MW423734   1.480   5.286   3.687 -0.6880  0.3061  0.7147
 5991SOL     OW23735   5.746   3.638   4.878  0.4549 -0.3638  0.3916
 5991SOL    HW223736   5.674   3.694   4.847  1.8086  0.4487 -1.5061
 5991SOL    HW323737   5.727   3.624   4.971 -1.2325  1.2385  0.3604
 5991SOL    MW423738   5.734   3.644   4.886  0.4109 -0.0452  0.1371
 5992SOL     OW23739   3.890   6.288   2.117  0.1436 -0.2370 -0.2875
 5992SOL    HW223740   3.964   6.227   2.117  0.0146 -0.3968 -0.4624
 5992SOL    HW323741   3.901   6.340   2.196 -0.2901 -1.1566  0.3958
 5992SOL    MW423742   3.901   6.286   2.127  0.0694 -0.3794 -0.2204
 5993SOL     OW23743   3.273   2.463   4.220 -0.1204 -0.7435  0.0239
 5993SOL    HW223744   3.292   2.529   4.153  2.5255 -1.8170 -0.4173
 5993SOL    HW323745   3.295   2.506   4.302 -2.0694  0.1228  0.1451
 5993SOL    MW423746   3.279   2.478   4.222 -0.0284 -0.7708 -0.0183
 5994SOL     OW23747   1.158   5.522   3.759 -0.3445 -0.5368 -0.1028
 5994SOL    HW223748   1.124   5.451   3.704  0.1672  0.0319 -1.1763
 5994SOL    HW323749   1.117   5.601   3.723  0.6051 -0.0672 -0.1893
 5994SOL    MW423750   1.148   5.523   3.747 -0.1517 -0.3998 -0.2558
 5995SOL     OW23751   3.265   1.204   5.605 -0.1055 -0.2384  0.3755
 5995SOL    HW223752   3.203   1.253   5.659 -1.6958  0.1079 -1.6440
 5995SOL    HW323753   3.285   1.263   5.532  0.6283 -1.3235 -0.3252
 5995SOL    MW423754   3.259   1.218   5.602 -0.2185 -0.3359  0.0166
 5996SOL     OW23755   4.938   0.699   5.692 -0.2857  0.0588  0.3953
 5996SOL    HW223756   4.942   0.755   5.614  1.6068 -0.3901  0.1158
 5996SOL    HW323757   4.964   0.613   5.661  0.5620 -0.1183  1.5196
 5996SOL    MW423758   4.942   0.695   5.678  0.0758 -0.0238  0.5067
 5997SOL     OW23759   1.579   2.026   1.172 -0.4853  0.4242  0.2263
 5997SOL    HW223760   1.599   2.098   1.232  0.5238 -0.0274  0.4486
 5997SOL    HW323761   1.549   2.069   1.092 -1.0273  1.0537  0.7505
 5997SOL    MW423762   1.578   2.041   1.170 -0.4237  0.4476  0.3248
 5998SOL     OW23763   5.808   2.629   2.633  0.0253  0.0169 -0.4239
 5998SOL    HW223764   5.755   2.661   2.560  0.9775 -1.9788 -2.1015
 5998SOL    HW323765   5.753   2.563   2.675  0.4752 -0.8209 -1.1053
 5998SOL    MW423766   5.794   2.624   2.629  0.2103 -0.3569 -0.7351
 5999SOL     OW23767   0.433   4.186   4.180  0.4061 -0.3591 -0.2658
 5999SOL    HW223768   0.414   4.093   4.187  0.5776 -0.4010 -0.3451
 5999SOL    HW323769   0.492   4.205   4.252 -0.9394  0.0443  0.7736
 5999SOL    MW423770   0.438   4.176   4.190  0.2512 -0.3114 -0.1391
 6000SOL     OW23771   4.006   4.724   5.408  0.1664  0.4333 -0.4712
 6000SOL    HW223772   3.948   4.650   5.390 -0.4750  1.1928 -1.6597
 6000SOL    HW323773   3.961   4.799   5.369  2.0215  1.0135 -1.5975
 6000SOL    MW423774   3.992   4.724   5.400  0.3266  0.6100 -0.7766
 6001SOL     OW23775   1.703   6.186   2.933  0.2215 -0.0805 -0.3020
 6001SOL    HW223776   1.651   6.118   2.975  0.1442 -0.1621 -0.5291
 6001SOL    HW323777   1.783   6.191   2.985 -0.0374  0.0882  0.0830
 6001SOL    MW423778   1.707   6.178   2.945  0.1772 -0.0690 -0.2811
 6002SOL     OW23779   3.231   6.030   0.033  0.2975  0.1007  0.0719
 6002SOL    HW223780   3.237   6.065  -0.056  1.9089 -0.5148 -0.0862
 6002SOL    HW323781   3.158   5.969   0.029 -0.6124  1.1726 -0.4191
 6002SOL    MW423782   3.222   6.027   0.021  0.3901  0.1609 -0.0137
 6003SOL     OW23783   6.095   2.296   3.609 -0.2442 -0.3303  0.0780
 6003SOL    HW223784   6.002   2.317   3.608 -0.5452 -1.5669  0.3340
 6003SOL    HW323785   6.134   2.360   3.669 -0.9905 -0.0557  0.2737
 6003SOL    MW423786   6.088   2.307   3.617 -0.3824 -0.4572  0.1376
 6004SOL     OW23787   2.749   5.077   0.014 -0.0916 -0.1504  0.0225
 6004SOL    HW223788   2.740   5.101   0.106 -1.0022 -1.7140  0.3874
 6004SOL    HW323789   2.666   5.104  -0.026 -0.5199 -1.2493  0.1235
 6004SOL    MW423790   2.737   5.084   0.020 -0.2683 -0.5017  0.0839
 6005SOL     OW23791   5.467   4.905   4.975 -0.0229 -0.2644  0.4466
 6005SOL    HW223792   5.538   4.952   5.019  0.6197 -1.9918  1.3565
 6005SOL    HW323793   5.387   4.933   5.020  0.1238  1.2606 -0.2031
 6005SOL    MW423794   5.466   4.915   4.987  0.0812 -0.2911  0.4810
 6006SOL     OW23795   1.273   2.335   4.743 -0.2228  0.7297 -0.0477
 6006SOL    HW223796   1.261   2.298   4.831 -2.3476  1.8028  0.1696
 6006SOL    HW323797   1.215   2.410   4.740  2.6200  3.0735 -1.0892
 6006SOL    MW423798   1.264   2.340   4.754 -0.1281  1.1805 -0.1564
 6007SOL     OW23799   3.041   4.060   5.736  0.4411 -0.4706  0.0151
 6007SOL    HW223800   2.999   4.040   5.653 -1.0577  2.5610 -0.0902
 6007SOL    HW323801   3.130   4.086   5.713 -0.1802  1.0493 -0.7861
 6007SOL    MW423802   3.047   4.061   5.722  0.1614  0.1299 -0.1045
 6008SOL     OW23803   3.086   2.076   4.303 -0.2407 -0.0612 -0.1933
 6008SOL    HW223804   3.151   2.006   4.314 -0.7589 -0.3759  1.1089
 6008SOL    HW323805   3.138   2.156   4.309  0.3438 -0.3047 -1.5869
 6008SOL    MW423806   3.102   2.077   4.306 -0.2319 -0.1349 -0.2054
 6009SOL     OW23807   1.080   3.146   3.152 -0.7308  0.1857  0.1937
 6009SOL    HW223808   1.005   3.100   3.113 -0.4398  1.1875 -1.6914
 6009SOL    HW323809   1.076   3.234   3.114 -0.2576  1.1895  2.3534
 6009SOL    MW423810   1.070   3.151   3.142 -0.6299  0.4503  0.2299
 6010SOL     OW23811   3.223   0.828   1.254 -0.5270 -0.3381 -0.1862
 6010SOL    HW223812   3.168   0.840   1.176 -0.2448 -0.5864 -0.4261
 6010SOL    HW323813   3.263   0.915   1.268  1.0722 -0.7855 -1.5924
 6010SOL    MW423814   3.221   0.841   1.245 -0.2788 -0.4299 -0.4033
 6011SOL     OW23815   3.407   3.794   1.674 -0.5514 -0.1082  0.3159
 6011SOL    HW223816   3.449   3.841   1.602  0.0569  0.6913  1.1634
 6011SOL    HW323817   3.314   3.815   1.667 -0.9391 -2.0766 -1.7211
 6011SOL    MW423818   3.400   3.803   1.664 -0.5223 -0.2624  0.1589
 6012SOL     OW23819   1.858   5.919   5.583 -0.2033 -0.4205  0.2706
 6012SOL    HW223820   1.885   5.830   5.603  2.3312  0.0587 -0.6169
 6012SOL    HW323821   1.918   5.974   5.633 -2.5213  0.8453  1.7843
 6012SOL    MW423822   1.870   5.915   5.592 -0.1747 -0.1903  0.3532
 6013SOL     OW23823   4.484   3.452   4.846 -0.1753 -0.2718  0.2412
 6013SOL    HW223824   4.436   3.384   4.798 -0.2150  0.7055 -1.1711
 6013SOL    HW323825   4.561   3.406   4.882 -0.8057 -1.2961  0.3286
 6013SOL    MW423826   4.488   3.437   4.844 -0.2637 -0.2780  0.0664
 6014SOL     OW23827   2.778   1.285   0.226 -0.0039  0.2511  0.0836
 6014SOL    HW223828   2.690   1.287   0.263  0.5092 -0.7050  1.4514
 6014SOL    HW323829   2.836   1.275   0.302  1.1405 -1.2235 -0.9197
 6014SOL    MW423830   2.774   1.284   0.241  0.2148 -0.0696  0.1317
 6015SOL     OW23831   5.315   1.254   5.881  0.3581  0.1631  0.2627
 6015SOL    HW223832   5.292   1.341   5.912  1.4937  0.9611 -1.0717
 6015SOL    HW323833   5.395   1.232   5.929  0.6099  0.2542 -0.1207
 6015SOL    MW423834   5.322   1.262   5.892  0.5411  0.2804  0.0361
 6016SOL     OW23835   3.627   3.103   3.467 -0.1143  0.3684  0.3075
 6016SOL    HW223836   3.607   3.172   3.529 -1.9513  0.5055 -0.3831
 6016SOL    HW323837   3.647   3.149   3.385 -1.9881  0.1399 -0.3361
 6016SOL    MW423838   3.627   3.118   3.464 -0.6039  0.3564  0.1315
 6017SOL     OW23839   5.214   1.722   1.266  0.5475 -0.5396 -1.1209
 6017SOL    HW223840   5.168   1.648   1.306 -1.4515  1.2698  0.1524
 6017SOL    HW323841   5.304   1.690   1.253  0.2135 -2.6150  0.9299
 6017SOL    MW423842   5.220   1.708   1.270  0.2397 -0.5747 -0.6823
 6018SOL     OW23843   6.397   1.623   5.228 -0.2949  0.1707  0.1005
 6018SOL    HW223844   6.309   1.604   5.194  0.5074  0.3063 -2.2000
 6018SOL    HW323845   6.424   1.541   5.269 -1.1185 -0.1826 -0.0411
 6018SOL    MW423846   6.389   1.609   5.229 -0.2977  0.1420 -0.2217
 6019SOL     OW23847   4.858   0.181   0.600 -0.6113  1.1013  0.5960
 6019SOL    HW223848   4.805   0.113   0.643  0.7376  1.1588  2.4827
 6019SOL    HW323849   4.862   0.252   0.664  0.9606  1.4499  0.1587
 6019SOL    MW423850   4.852   0.181   0.614 -0.2259  1.1549  0.7872
 6020SOL     OW23851   2.024   0.316   0.049 -0.0369  0.4735 -0.7999
 6020SOL    HW223852   1.943   0.350   0.088 -0.0580 -0.0135 -0.3992
 6020SOL    HW323853   2.092   0.376   0.078 -0.3258  1.1673 -1.5475
 6020SOL    MW423854   2.022   0.328   0.058 -0.0778  0.5008 -0.8457
 6021SOL     OW23855   3.869   1.893   1.672  0.1342  0.2829 -0.2446
 6021SOL    HW223856   3.933   1.890   1.744 -0.8124  3.1773  0.8824
 6021SOL    HW323857   3.871   1.985   1.643 -3.1531  0.3984 -0.4614
 6021SOL    MW423858   3.878   1.905   1.678 -0.4244  0.6800 -0.1245
 6022SOL     OW23859   2.763   3.085   0.215  0.0278 -0.2962 -0.1667
 6022SOL    HW223860   2.806   3.170   0.219 -1.6689  0.6526 -1.0428
 6022SOL    HW323861   2.710   3.080   0.295  0.4074 -0.6974  0.0642
 6022SOL    MW423862   2.761   3.095   0.226 -0.1460 -0.2239 -0.2518
 6023SOL     OW23863   3.368   4.518   6.336 -0.1686  0.2297  0.1254
 6023SOL    HW223864   3.404   4.597   6.297 -0.6698  0.7181  0.6458
 6023SOL    HW323865   3.278   4.541   6.359  0.0742 -0.0807  1.4602
 6023SOL    MW423866   3.361   4.531   6.334 -0.2027  0.2532  0.3701
 6024SOL     OW23867   5.634   4.111   2.914  0.6379  0.9075 -0.0536
 6024SOL    HW223868   5.626   4.032   2.969 -1.5889  1.3596  0.3587
 6024SOL    HW323869   5.719   4.101   2.870 -0.1222 -2.4063 -1.0602
 6024SOL    MW423870   5.644   4.099   2.916  0.2438  0.5299 -0.1320
 6025SOL     OW23871   4.707   5.060   3.856 -0.6943 -0.2332  0.5447
 6025SOL    HW223872   4.758   5.097   3.928 -2.2967 -0.5139  1.8687
 6025SOL    HW323873   4.642   5.005   3.898 -1.6683 -0.4355 -1.1287
 6025SOL    MW423874   4.705   5.058   3.871 -1.0342 -0.2969  0.4986
 6026SOL     OW23875   5.247   3.710   5.525  0.0328 -0.1924  0.5143
 6026SOL    HW223876   5.278   3.640   5.468 -1.6856 -0.9831  0.4777
 6026SOL    HW323877   5.164   3.678   5.560 -0.2075  1.3326  1.4700
 6026SOL    MW423878   5.240   3.697   5.522 -0.2256 -0.0955  0.6356
 6027SOL     OW23879   0.027   5.441   6.380  0.0669  0.3684  0.7427
 6027SOL    HW223880  -0.069   5.448   6.374 -0.0815 -1.0484  1.0966
 6027SOL    HW323881   0.048   5.476   6.467 -0.4865 -1.8961  1.8832
 6027SOL    MW423882   0.017   5.447   6.391 -0.0257 -0.1173  0.9399
 6028SOL     OW23883   5.376   5.324   3.853  0.2325 -0.5814  0.1972
 6028SOL    HW223884   5.420   5.405   3.828 -0.5449 -0.1621  0.1650
 6028SOL    HW323885   5.421   5.256   3.804  3.6479 -0.7934  3.2050
 6028SOL    MW423886   5.388   5.326   3.843  0.5805 -0.5540  0.5898
 6029SOL     OW23887   4.475   1.162   2.919 -0.5053  0.2134 -0.5645
 6029SOL    HW223888   4.531   1.212   2.859 -0.4102  0.4797 -0.2552
 6029SOL    HW323889   4.421   1.107   2.862 -1.7329  1.8103 -1.0082
 6029SOL    MW423890   4.475   1.161   2.904 -0.6547  0.4593 -0.5822
 6030SOL     OW23891   4.592   4.633   3.047 -0.3354  0.6101 -0.1664
 6030SOL    HW223892   4.504   4.599   3.029  0.0489 -0.2636 -0.4152
 6030SOL    HW323893   4.615   4.598   3.133  0.7312 -1.1953 -1.1333
 6030SOL    MW423894   4.583   4.624   3.056 -0.1440  0.2566 -0.3268
 6031SOL     OW23895   5.724   1.557   3.575 -0.2480  0.0098 -0.5555
 6031SOL    HW223896   5.772   1.505   3.511 -0.1067  0.4838 -0.8384
 6031SOL    HW323897   5.653   1.500   3.604 -0.3596 -0.1809 -1.1967
 6031SOL    MW423898   5.721   1.543   3.571 -0.2441  0.0472 -0.6774
 6032SOL     OW23899   0.731   3.375   1.028  0.0219  0.8437 -0.6512
 6032SOL    HW223900   0.806   3.316   1.030 -1.0271 -0.5484 -0.9080
 6032SOL    HW323901   0.733   3.414   0.940  0.8392  1.3688 -0.4066
 6032SOL    MW423902   0.741   3.372   1.017 -0.0087  0.7293 -0.6528
 6033SOL     OW23903   5.129   0.359   2.932 -0.2223 -0.6090 -0.1328
 6033SOL    HW223904   5.195   0.290   2.938 -0.7173 -1.2303 -1.4452
 6033SOL    HW323905   5.170   0.426   2.877 -0.0453 -0.2026  0.4826
 6033SOL    MW423906   5.143   0.359   2.926 -0.2643 -0.6373 -0.2248
 6034SOL     OW23907   1.656   1.814   1.507 -0.4733  0.5588 -0.4382
 6034SOL    HW223908   1.659   1.737   1.565 -0.1075 -0.0637 -1.2558
 6034SOL    HW323909   1.611   1.782   1.428 -0.0132  1.0844 -0.9201
 6034SOL    MW423910   1.651   1.799   1.504 -0.3643  0.5460 -0.6097
 6035SOL     OW23911   6.002   3.517   4.104  0.4015  0.0912 -0.6792
 6035SOL    HW223912   5.944   3.592   4.116  0.7858  0.4326 -0.9359
 6035SOL    HW323913   6.007   3.506   4.009 -0.9901 -1.3098 -0.6305
 6035SOL    MW423914   5.995   3.525   4.093  0.2686 -0.0486 -0.7067
 6036SOL     OW23915   4.588   2.648   4.797 -0.2193 -0.0028  0.3624
 6036SOL    HW223916   4.555   2.612   4.715  0.3962  1.5854 -0.6289
 6036SOL    HW323917   4.673   2.685   4.775  0.4223 -0.4636  1.9689
 6036SOL    MW423918   4.595   2.648   4.783 -0.0534  0.1459  0.4436
 6037SOL     OW23919   2.130   0.642   1.984 -0.3828  0.2497 -0.2120
 6037SOL    HW223920   2.047   0.635   2.032  0.4941  0.2852  1.3703
 6037SOL    HW323921   2.170   0.555   1.993  0.4096  0.6569  0.3252
 6037SOL    MW423922   2.124   0.630   1.992 -0.1626  0.3081  0.0676
 6038SOL     OW23923   2.012   6.105   4.388 -0.5941  0.0609 -0.7929
 6038SOL    HW223924   1.977   6.028   4.341 -1.5528 -0.9384  1.4188
 6038SOL    HW323925   1.954   6.176   4.363 -1.1649 -0.4804 -1.0426
 6038SOL    MW423926   2.000   6.104   4.378 -0.7959 -0.1424 -0.5341
 6039SOL     OW23927   6.237   1.699   4.751  0.1748 -0.6702 -0.0535
 6039SOL    HW223928   6.187   1.733   4.677  1.5482 -1.1006 -1.2340
 6039SOL    HW323929   6.192   1.619   4.776 -1.5810  0.6137  1.0575
 6039SOL    MW423930   6.225   1.693   4.745  0.1244 -0.5576 -0.0626
 6040SOL     OW23931   3.653   0.077   5.979 -0.0740 -0.1576  0.2349
 6040SOL    HW223932   3.712   0.079   5.904  1.1615 -0.1597  1.1811
 6040SOL    HW323933   3.692   0.014   6.040 -0.4857  0.5906  1.3237
 6040SOL    MW423934   3.666   0.069   5.977  0.0347 -0.0591  0.5034
 6041SOL     OW23935   6.353   0.576   0.307  0.5353 -0.3387  0.1716
 6041SOL    HW223936   6.263   0.569   0.272  0.5770 -0.7491  0.1340
 6041SOL    HW323937   6.388   0.487   0.299  2.0189  0.3655 -2.6853
 6041SOL    MW423938   6.345   0.563   0.301  0.7365 -0.2999 -0.2103
 6042SOL     OW23939   4.268   1.526   0.879  0.2724 -0.8711 -0.0099
 6042SOL    HW223940   4.247   1.487   0.964  0.9256 -3.3175 -0.8882
 6042SOL    HW323941   4.256   1.620   0.892 -2.2853 -1.3624  2.0146
 6042SOL    MW423942   4.264   1.533   0.892  0.0211 -1.2587  0.1413
 6043SOL     OW23943   3.074   0.688   2.680 -0.8103 -0.0329  0.0128
 6043SOL    HW223944   3.054   0.636   2.603  0.6569 -1.6880  0.6936
 6043SOL    HW323945   3.057   0.630   2.754  0.4624  0.5563  0.8114
 6043SOL    MW423946   3.069   0.674   2.680 -0.4488 -0.1736  0.2080
 6044SOL     OW23947   5.123   1.328   5.289  0.0137  0.2685 -0.2851
 6044SOL    HW223948   5.074   1.304   5.211 -0.4601  0.8950 -0.1889
 6044SOL    HW323949   5.215   1.320   5.263 -0.1352  1.2619 -1.1635
 6044SOL    MW423950   5.128   1.324   5.275 -0.0684  0.4822 -0.3883
 6045SOL     OW23951   4.221   3.044   0.859 -0.3070  0.7562 -0.4150
 6045SOL    HW223952   4.282   2.999   0.917 -0.9476 -1.6347 -1.4601
 6045SOL    HW323953   4.233   3.003   0.774 -2.2093  1.3407 -1.0366
 6045SOL    MW423954   4.230   3.033   0.856 -0.6425  0.5179 -0.6349
 6046SOL     OW23955   4.103   5.682   1.603 -0.1046  0.4885  0.0275
 6046SOL    HW223956   4.038   5.671   1.533 -0.2035 -2.0672  0.4338
 6046SOL    HW323957   4.174   5.622   1.580  0.7174  0.9913  1.1619
 6046SOL    MW423958   4.104   5.673   1.591 -0.0092  0.2177  0.2308
 6047SOL     OW23959   2.254   0.266   1.700 -0.0541  0.3107  0.2794
 6047SOL    HW223960   2.183   0.271   1.636 -0.1987 -1.1786  0.2822
 6047SOL    HW323961   2.226   0.323   1.772 -0.4113  1.1168 -0.4873
 6047SOL    MW423962   2.241   0.274   1.701 -0.1203  0.2205  0.1786
 6048SOL     OW23963   5.388   0.117   3.239  0.9014 -0.1595  0.0019
 6048SOL    HW223964   5.431   0.047   3.289  1.8520  0.4465  0.0553
 6048SOL    HW323965   5.440   0.195   3.258 -0.3078  0.6286  0.1649
 6048SOL    MW423966   5.400   0.118   3.248  0.8673  0.0245  0.0304
 6049SOL     OW23967   3.898   2.560   1.483  0.0362  0.5215 -0.1715
 6049SOL    HW223968   3.984   2.579   1.445 -0.4857  0.8996 -1.1984
 6049SOL    HW323969   3.842   2.544   1.408 -0.4827 -1.1865  0.5164
 6049SOL    MW423970   3.902   2.560   1.468 -0.1011  0.3460 -0.2162
 6050SOL     OW23971   4.734   2.498   0.824 -0.1818 -0.1091  0.0786
 6050SOL    HW223972   4.791   2.423   0.841  1.1481  0.5387 -1.2015
 6050SOL    HW323973   4.763   2.530   0.738 -2.6858  0.1089 -0.7507
 6050SOL    MW423974   4.746   2.493   0.815 -0.3367  0.0051 -0.1997
 6051SOL     OW23975   4.781   6.338   2.556  0.1902 -0.3755  0.7289
 6051SOL    HW223976   4.831   6.358   2.635  0.1839 -0.0257  0.6458
 6051SOL    HW323977   4.689   6.343   2.584  0.1217  1.7384  0.2518
 6051SOL    MW423978   4.775   6.341   2.570  0.1803 -0.0505  0.6550
 6052SOL     OW23979   2.615   1.674   3.193 -0.0240  0.3148  0.2461
 6052SOL    HW223980   2.608   1.581   3.172  0.5864 -0.0848  1.6777
 6052SOL    HW323981   2.525   1.702   3.209 -0.0806 -0.4725  1.4628
 6052SOL    MW423982   2.602   1.665   3.192  0.0491  0.1582  0.5955
 6053SOL     OW23983   1.347   3.824   3.984 -0.1885  0.4935  0.2563
 6053SOL    HW223984   1.361   3.731   4.003 -0.2661  0.7024  1.4038
 6053SOL    HW323985   1.291   3.855   4.056  2.7387  2.2754  1.9470
 6053SOL    MW423986   1.341   3.816   3.996  0.1875  0.7562  0.6308
 6054SOL     OW23987   3.867   0.572   1.205  0.3706 -0.0643  0.2779
 6054SOL    HW223988   3.831   0.606   1.123  1.9506 -1.8714 -1.2823
 6054SOL    HW323989   3.958   0.601   1.205  1.7634 -3.8072 -1.0837
 6054SOL    MW423990   3.874   0.580   1.194  0.7629 -0.7966 -0.1076
 6055SOL     OW23991   3.264   5.737   1.552  0.2036 -0.4088  0.0172
 6055SOL    HW223992   3.335   5.800   1.537 -2.4947  3.4267  1.6887
 6055SOL    HW323993   3.294   5.684   1.626  1.6643  0.4658  0.1017
 6055SOL    MW423994   3.277   5.738   1.559  0.0403  0.2126  0.2489
 6056SOL     OW23995   0.861   3.559   4.334  0.5024  0.2463 -1.0610
 6056SOL    HW223996   0.873   3.501   4.259 -2.3490  1.2843 -2.4949
 6056SOL    HW323997   0.856   3.500   4.409 -1.6257 -1.4127 -2.3754
 6056SOL    MW423998   0.862   3.543   4.334 -0.1546  0.1644 -1.4236
 6057SOL     OW23999   5.637   0.831   2.629 -0.1782 -0.2951  0.2734
 6057SOL    HW224000   5.659   0.752   2.579 -2.7040 -1.7695  1.2598
 6057SOL    HW324001   5.618   0.799   2.717 -1.2109  1.4212  0.7227
 6057SOL    MW424002   5.637   0.816   2.634 -0.6477 -0.2632  0.4628
 6058SOL     OW24003   2.469   5.237   4.825  0.0859  0.0669 -0.5786
 6058SOL    HW224004   2.414   5.283   4.760  1.2661  0.3610 -1.4079
 6058SOL    HW324005   2.559   5.260   4.800  0.5957 -0.5329  0.6496
 6058SOL    MW424006   2.474   5.246   4.813  0.3089  0.0266 -0.5260
 6059SOL     OW24007   3.797   2.680   3.983 -0.2039  0.5568  0.8217
 6059SOL    HW224008   3.797   2.663   3.889  2.5283 -0.3647  0.8981
 6059SOL    HW324009   3.705   2.699   4.004 -1.3689 -1.7675 -1.5609
 6059SOL    MW424010   3.785   2.680   3.974  0.0028  0.1285  0.5174
 6060SOL     OW24011   2.331   4.925   3.356 -0.0584  0.4183 -0.7586
 6060SOL    HW224012   2.244   4.956   3.330 -0.5926  1.0291  1.4822
 6060SOL    HW324013   2.366   4.997   3.409  1.2206 -0.4080 -0.4463
 6060SOL    MW424014   2.324   4.939   3.360  0.0399  0.3899 -0.4217
 6061SOL     OW24015   6.101   3.647   1.704  0.1436 -0.8236 -0.4850
 6061SOL    HW224016   6.066   3.728   1.743  1.6230 -1.2141  1.8298
 6061SOL    HW324017   6.035   3.623   1.638 -1.3461  1.1643  0.1519
 6061SOL    MW424018   6.087   3.655   1.700  0.1423 -0.6128 -0.0955
 6062SOL     OW24019   0.987   1.379   5.353 -0.2073  0.4183  0.2288
 6062SOL    HW224020   0.900   1.402   5.322 -0.1311 -0.0318 -0.3449
 6062SOL    HW324021   1.014   1.307   5.297  1.0067  1.3071 -0.3886
 6062SOL    MW424022   0.979   1.373   5.341 -0.0370  0.4762  0.0717
 6063SOL     OW24023   4.244   2.368   1.077  0.2727  0.4736 -0.1179
 6063SOL    HW224024   4.338   2.366   1.093  0.3420  0.0869 -0.5344
 6063SOL    HW324025   4.233   2.431   1.005  0.1046  1.2393  0.5689
 6063SOL    MW424026   4.255   2.376   1.069  0.2597  0.5236 -0.0823
 6064SOL     OW24027   1.731   3.912   4.496  0.4356 -0.4605 -0.1370
 6064SOL    HW224028   1.776   3.907   4.412  1.8513  1.5704  0.4082
 6064SOL    HW324029   1.655   3.854   4.487  0.1898  0.1697 -3.0156
 6064SOL    MW424030   1.727   3.904   4.484  0.5900 -0.1094 -0.4449
 6065SOL     OW24031   2.063   6.073   1.910 -0.4244  0.9118 -0.0150
 6065SOL    HW224032   1.976   6.048   1.879  0.0358 -0.2987 -0.3822
 6065SOL    HW324033   2.079   6.159   1.871 -1.6775  1.4019  0.5191
 6065SOL    MW424034   2.054   6.081   1.900 -0.5290  0.8168  0.0070
 6066SOL     OW24035   2.576   2.274   1.771 -0.5541  0.0683  0.3123
 6066SOL    HW224036   2.640   2.207   1.792  1.7396  1.9865 -0.0562
 6066SOL    HW324037   2.534   2.243   1.691  0.7102 -0.7562 -0.0588
 6066SOL    MW424038   2.579   2.261   1.763 -0.0847  0.2126  0.2147
 6067SOL     OW24039   1.704   4.196   6.154 -0.0597 -0.7911 -0.5977
 6067SOL    HW224040   1.629   4.144   6.185  1.4029 -2.2617  0.6285
 6067SOL    HW324041   1.741   4.235   6.233  0.5431 -0.1681 -1.1771
 6067SOL    MW424042   1.699   4.194   6.168  0.2128 -0.9029 -0.5123
 6068SOL     OW24043   1.556   5.827   2.601  0.1333 -0.3085  0.0764
 6068SOL    HW224044   1.608   5.903   2.624  0.2532 -0.2403 -0.3987
 6068SOL    HW324045   1.532   5.841   2.509  0.2624 -0.9005 -0.0563
 6068SOL    MW424046   1.559   5.839   2.592  0.1661 -0.3776 -0.0038
 6069SOL     OW24047   0.049   1.048   5.249  0.3372 -0.0418  0.1915
 6069SOL    HW224048  -0.020   1.113   5.233  1.5335  1.3578  0.5442
 6069SOL    HW324049   0.033   0.979   5.183  0.4256  1.7360 -1.7997
 6069SOL    MW424050   0.038   1.047   5.238  0.5067  0.3774 -0.0247
 6070SOL     OW24051   2.381   4.129   1.290 -0.2076  0.1950  0.4310
 6070SOL    HW224052   2.323   4.152   1.217  0.3729 -0.6812 -0.3356
 6070SOL    HW324053   2.366   4.197   1.355 -1.6312  0.3239 -0.0056
 6070SOL    MW424054   2.372   4.141   1.289 -0.3188  0.0964  0.2722
 6071SOL     OW24055   0.365   3.893   2.371 -1.0242 -0.3923  0.1921
 6071SOL    HW224056   0.353   3.985   2.395 -1.5219 -0.7995  1.6280
 6071SOL    HW324057   0.440   3.864   2.423  0.4594 -0.2969 -1.7931
 6071SOL    MW424058   0.373   3.901   2.381 -0.8941 -0.4334  0.1196
 6072SOL     OW24059   3.739   4.944   3.054  0.8731  0.2321  0.3313
 6072SOL    HW224060   3.826   4.983   3.048  1.1778 -0.4694  0.0178
 6072SOL    HW324061   3.724   4.908   2.967 -0.4409  1.7838 -0.1315
 6072SOL    MW424062   3.749   4.945   3.042  0.7399  0.3443  0.2289
 6073SOL     OW24063   3.866   0.279   2.366  0.5226  0.3313  0.2168
 6073SOL    HW224064   3.856   0.185   2.381  0.9165  0.5222  1.9423
 6073SOL    HW324065   3.783   0.306   2.327  1.0253 -0.9943 -1.9549
 6073SOL    MW424066   3.854   0.270   2.363  0.6409  0.1816  0.1579
 6074SOL     OW24067   2.289   3.291   3.768  0.1768 -0.3491 -0.1464
 6074SOL    HW224068   2.241   3.248   3.839  0.7969 -2.4414 -0.8948
 6074SOL    HW324069   2.286   3.228   3.696  2.0344  0.4377 -0.9910
 6074SOL    MW424070   2.283   3.277   3.768  0.5037 -0.5213 -0.3566
 6075SOL     OW24071   3.737   1.328   6.399 -0.5633 -0.1608 -0.2607
 6075SOL    HW224072   3.695   1.243   6.411 -0.5495 -0.3900 -1.6151
 6075SOL    HW324073   3.665   1.386   6.374 -0.4723  0.0717  0.0213
 6075SOL    MW424074   3.722   1.324   6.397 -0.5495 -0.1603 -0.4022
 6076SOL     OW24075   1.719   0.115   1.012  0.8975 -0.8465  0.3927
 6076SOL    HW224076   1.671   0.110   1.094  1.2515  1.6369  0.8212
 6076SOL    HW324077   1.809   0.137   1.037  0.3209  3.7371 -0.5852
 6076SOL    MW424078   1.724   0.117   1.026  0.8681  0.0859  0.3202
 6077SOL     OW24079   2.175   3.817   5.032  0.1565 -0.1477 -0.8834
 6077SOL    HW224080   2.246   3.829   5.095  1.3341  1.2254 -2.3898
 6077SOL    HW324081   2.212   3.760   4.965 -0.9493 -1.2515 -0.6053
 6077SOL    MW424082   2.189   3.811   5.032  0.1660 -0.1121 -1.0455
 6078SOL     OW24083   2.047   4.915   4.586  0.6866  0.0192 -0.4458
 6078SOL    HW224084   1.951   4.919   4.584  0.5734 -0.7576  1.4943
 6078SOL    HW324085   2.073   4.997   4.629  1.0592  1.1472 -2.6666
 6078SOL    MW424086   2.038   4.926   4.591  0.7209  0.0655 -0.4829
 6079SOL     OW24087   3.498   6.118   2.928 -0.0219 -0.1240 -0.2177
 6079SOL    HW224088   3.565   6.128   2.997 -0.3445 -0.5809  0.1686
 6079SOL    HW324089   3.540   6.152   2.849 -0.8489  3.8744  0.8411
 6079SOL    MW424090   3.512   6.124   2.927 -0.1736  0.3433 -0.0271
 6080SOL     OW24091   1.809   3.927   2.402 -0.3715 -0.0784  0.8464
 6080SOL    HW224092   1.775   4.016   2.407 -1.2871 -0.3977  0.4872
 6080SOL    HW324093   1.744   3.874   2.449 -0.2986 -0.6812  0.2791
 6080SOL    MW424094   1.796   3.931   2.409 -0.4827 -0.2000  0.7242
 6081SOL     OW24095   4.693   1.560   0.331 -0.4943 -0.0043  0.1244
 6081SOL    HW224096   4.657   1.487   0.280 -0.2455 -0.1201  0.1093
 6081SOL    HW324097   4.766   1.521   0.380 -2.2383 -0.4678  2.4998
 6081SOL    MW424098   4.698   1.545   0.331 -0.6915 -0.0807  0.4358
 6082SOL     OW24099   1.962   4.282   2.474 -0.1396 -0.1571 -0.1025
 6082SOL    HW224100   2.044   4.302   2.519  0.1856 -0.0729 -0.7279
 6082SOL    HW324101   1.928   4.368   2.448  0.1477 -0.2643 -0.8457
 6082SOL    MW424102   1.968   4.296   2.477 -0.0588 -0.1601 -0.2831
 6083SOL     OW24103   3.200   1.565   6.118 -0.3112 -0.4489  0.6596
 6083SOL    HW224104   3.157   1.646   6.147 -1.4125 -0.5163 -0.7017
 6083SOL    HW324105   3.196   1.568   6.023  0.2130 -1.8203  0.5703
 6083SOL    MW424106   3.194   1.576   6.110 -0.3873 -0.6387  0.4682
 6084SOL     OW24107   3.613   3.903   3.863 -0.4660 -0.0828  0.0136
 6084SOL    HW224108   3.699   3.862   3.852  0.7384  1.8787  1.4996
 6084SOL    HW324109   3.605   3.917   3.957 -3.6193 -2.5312  0.2754
 6084SOL    MW424110   3.623   3.899   3.874 -0.7232 -0.1471  0.2442
 6085SOL     OW24111   1.598   4.316   4.799  0.1212  0.1954  0.2120
 6085SOL    HW224112   1.683   4.274   4.818 -0.8933 -1.8001  0.6217
 6085SOL    HW324113   1.580   4.369   4.876 -0.1836 -1.4603  1.3279
 6085SOL    MW424114   1.607   4.317   4.812 -0.0529 -0.2863  0.4133
 6086SOL     OW24115   0.238   1.335   0.392  0.7606 -0.1669 -0.2220
 6086SOL    HW224116   0.207   1.418   0.429  0.5724 -0.1741 -0.3573
 6086SOL    HW324117   0.199   1.268   0.448  0.7370 -0.1686 -0.2401
 6086SOL    MW424118   0.229   1.337   0.404  0.7327 -0.1681 -0.2422
 6087SOL     OW24119   6.207   4.995   2.172  0.0223 -0.0100  0.3882
 6087SOL    HW224120   6.160   4.924   2.216 -0.3640 -2.2494 -3.2145
 6087SOL    HW324121   6.139   5.040   2.122  0.8797  0.2274 -0.5787
 6087SOL    MW424122   6.192   4.991   2.171  0.0844 -0.2742 -0.2147
 6088SOL     OW24123   5.444   3.625   0.925 -0.5242  0.3375 -0.2901
 6088SOL    HW224124   5.457   3.608   0.831 -1.1576  0.9569 -0.5009
 6088SOL    HW324125   5.459   3.541   0.967 -1.5851 -0.2807 -1.0869
 6088SOL    MW424126   5.448   3.612   0.918 -0.7478  0.3377 -0.4230
 6089SOL     OW24127   0.847   0.883   4.274  0.2346  0.6843 -0.0564
 6089SOL    HW224128   0.829   0.951   4.339 -0.7155  0.7776 -0.3895
 6089SOL    HW324129   0.905   0.924   4.211  1.5214  0.4605  0.9409
 6089SOL    MW424130   0.852   0.897   4.274  0.2791  0.6671  0.0312
 6090SOL     OW24131   6.285   3.513   3.752  0.3413  0.1018  0.2377
 6090SOL    HW224132   6.348   3.476   3.690  1.3060  2.0868 -0.0431
 6090SOL    HW324133   6.330   3.508   3.837 -0.2769 -1.0124  0.5177
 6090SOL    MW424134   6.299   3.507   3.755  0.3870  0.2167  0.2376
 6091SOL     OW24135   3.478   4.503   4.675  0.0272 -0.5040 -0.1915
 6091SOL    HW224136   3.407   4.477   4.616 -0.0360 -0.3361 -0.1901
 6091SOL    HW324137   3.536   4.427   4.677  0.0158 -0.5209 -0.4481
 6091SOL    MW424138   3.476   4.490   4.667  0.0174 -0.4841 -0.2251
 6092SOL     OW24139   0.292   4.724   5.140  0.3108  0.0876  0.0832
 6092SOL    HW224140   0.370   4.763   5.100 -0.4732  0.6765 -0.9009
 6092SOL    HW324141   0.219   4.767   5.097 -0.5725 -0.5970  0.8651
 6092SOL    MW424142   0.293   4.735   5.129  0.0908  0.0750  0.0565
 6093SOL     OW24143   2.163   2.840   6.353 -0.4396  0.4530 -0.6314
 6093SOL    HW224144   2.195   2.888   6.429  1.2081 -0.8081 -0.4657
 6093SOL    HW324145   2.232   2.850   6.288 -0.6394 -0.6194 -1.0281
 6093SOL    MW424146   2.177   2.848   6.355 -0.2486  0.1451 -0.6619
 6094SOL     OW24147   4.983   3.469   2.150 -0.3915 -0.1487 -0.2129
 6094SOL    HW224148   5.008   3.561   2.152 -0.5803 -0.0933  1.7827
 6094SOL    HW324149   5.058   3.424   2.112  0.7626  0.5773  1.1321
 6094SOL    MW424150   4.996   3.475   2.146 -0.2642 -0.0456  0.2279
 6095SOL     OW24151   0.092   6.403   3.239  0.5766 -0.5418  1.0304
 6095SOL    HW224152   0.090   6.353   3.157  0.5223 -2.5876  2.1993
 6095SOL    HW324153   0.125   6.489   3.214  0.2753 -1.0056 -1.1784
 6095SOL    MW424154   0.096   6.408   3.225  0.5297 -0.8729  0.8932
 6096SOL     OW24155   1.718   1.853   2.635 -0.0861  0.3776 -0.4261
 6096SOL    HW224156   1.690   1.868   2.544 -0.0319 -0.7180 -0.6294
 6096SOL    HW324157   1.801   1.807   2.628 -0.6457 -0.7559  0.1646
 6096SOL    MW424158   1.725   1.849   2.622 -0.1528  0.0835 -0.3750
 6097SOL     OW24159   5.249   3.961   0.879 -0.3210 -0.7468  0.4466
 6097SOL    HW224160   5.194   4.038   0.887 -0.2581 -0.7077  0.5066
 6097SOL    HW324161   5.196   3.889   0.912 -0.1868 -0.6429  0.8911
 6097SOL    MW424162   5.235   3.962   0.884 -0.2950 -0.7279  0.5131
 6098SOL     OW24163   0.490   6.187   4.270  0.1946 -0.5656  0.6616
 6098SOL    HW224164   0.454   6.198   4.358 -0.3034 -0.2651  0.4219
 6098SOL    HW324165   0.467   6.097   4.246 -2.2777  0.2457 -0.3107
 6098SOL    MW424166   0.483   6.176   4.278 -0.1973 -0.4189  0.5017
 6099SOL     OW24167   3.334   3.784   4.779  0.3232  0.2047 -0.3062
 6099SOL    HW224168   3.349   3.868   4.736 -0.2991 -0.5735 -2.1243
 6099SOL    HW324169   3.420   3.744   4.786  0.3952  0.2000 -1.1621
 6099SOL    MW424170   3.347   3.790   4.774  0.2506  0.1014 -0.6590
 6100SOL     OW24171   0.063   1.655   3.252  0.2980 -0.2107 -0.3138
 6100SOL    HW224172   0.126   1.596   3.295 -0.1833 -1.0435 -0.7259
 6100SOL    HW324173   0.094   1.660   3.161  0.1033 -0.1574 -0.3764
 6100SOL    MW424174   0.075   1.648   3.246  0.2088 -0.3135 -0.3765
 6101SOL     OW24175   0.142   0.647   5.259 -0.1915 -0.2210 -0.4871
 6101SOL    HW224176   0.125   0.562   5.301 -0.6077  0.1726  0.1553
 6101SOL    HW324177   0.133   0.711   5.330  1.2631  0.2689 -0.7080
 6101SOL    MW424178   0.139   0.644   5.274 -0.0545 -0.1045 -0.4314
 6102SOL     OW24179   2.546   6.042   5.135 -0.5137  0.0104 -0.2491
 6102SOL    HW224180   2.594   6.049   5.053 -1.4767 -0.0711 -0.8433
 6102SOL    HW324181   2.525   6.133   5.159 -0.9929 -0.0107 -0.5712
 6102SOL    MW424182   2.549   6.055   5.128 -0.7040 -0.0031 -0.3700
 6103SOL     OW24183   6.199   0.160   0.312  0.6723  0.1118 -0.5924
 6103SOL    HW224184   6.109   0.191   0.314  0.6099  0.5443 -3.8562
 6103SOL    HW324185   6.191   0.066   0.294  0.8484  0.1167 -0.7021
 6103SOL    MW424186   6.186   0.152   0.310  0.6873  0.1695 -1.0375
 6104SOL     OW24187   0.989   2.043   4.837 -0.0223  0.4483  0.3635
 6104SOL    HW224188   1.034   2.043   4.753 -1.1682  0.2281 -0.2844
 6104SOL    HW324189   1.026   1.970   4.885 -2.5892 -2.6064 -1.8541
 6104SOL    MW424190   1.000   2.034   4.832 -0.5122  0.0162 -0.0145
 6105SOL     OW24191   5.540   4.946   3.087 -0.5697  0.1919 -0.1889
 6105SOL    HW224192   5.615   4.988   3.130  0.0345 -0.3832 -0.6426
 6105SOL    HW324193   5.562   4.853   3.087 -1.6835 -0.0843  0.4120
 6105SOL    MW424194   5.553   4.939   3.092 -0.6369  0.0796 -0.1695
 6106SOL     OW24195   3.357   0.625   2.675 -0.1570 -0.3181 -0.4730
 6106SOL    HW224196   3.404   0.679   2.610 -1.0241 -1.3576 -2.0340
 6106SOL    HW324197   3.269   0.662   2.677  0.0756  0.2104  0.7559
 6106SOL    MW424198   3.351   0.637   2.666 -0.2407 -0.3855 -0.5168
 6107SOL     OW24199   2.905   1.561   5.847  0.3041  0.2238  0.7481
 6107SOL    HW224200   2.861   1.563   5.932 -0.0262  1.4272  0.5654
 6107SOL    HW324201   2.864   1.631   5.797  1.5112  0.5107  0.1116
 6107SOL    MW424202   2.894   1.570   5.852  0.4198  0.4204  0.6400
 6108SOL     OW24203   3.566   3.649   1.386 -0.6952 -0.9101  0.2614
 6108SOL    HW224204   3.547   3.742   1.370  0.0881 -0.6899  0.5761
 6108SOL    HW324205   3.607   3.619   1.306  2.3096 -0.0602  1.3607
 6108SOL    MW424206   3.569   3.658   1.374 -0.1954 -0.7689  0.4480
 6109SOL     OW24207   5.890   4.134   0.994 -0.2775 -0.2762 -0.3540
 6109SOL    HW224208   5.947   4.205   1.023 -0.2243  0.7766 -2.7766
 6109SOL    HW324209   5.802   4.161   1.019 -0.0674 -0.3059  0.4379
 6109SOL    MW424210   5.886   4.147   1.001 -0.2428 -0.1412 -0.5692
 6110SOL     OW24211   3.277   6.071   2.181  0.6137 -0.5195 -0.3491
 6110SOL    HW224212   3.316   6.155   2.157  2.1663 -0.2826  2.5557
 6110SOL    HW324213   3.194   6.069   2.133  0.9834  2.2090 -1.2788
 6110SOL    MW424214   3.271   6.082   2.172  0.8673 -0.1282 -0.0885
 6111SOL     OW24215   3.582   3.842   2.095 -0.1140 -0.1191 -0.2507
 6111SOL    HW224216   3.521   3.819   2.165 -1.3334  0.6488 -1.0234
 6111SOL    HW324217   3.609   3.757   2.058 -1.6843 -0.4575 -0.6826
 6111SOL    MW424218   3.578   3.828   2.099 -0.4821 -0.0624 -0.4097
 6112SOL     OW24219   2.511   4.711   6.182 -0.8667 -0.5342  0.5985
 6112SOL    HW224220   2.464   4.695   6.101 -0.2457  0.1544  0.0904
 6112SOL    HW324221   2.455   4.771   6.231 -1.3794 -1.1782  0.8195
 6112SOL    MW424222   2.497   4.717   6.178 -0.8524 -0.5283  0.5606
 6113SOL     OW24223   6.088   1.080   3.294  0.2566 -0.3231  0.4532
 6113SOL    HW224224   6.071   1.157   3.240  0.9119  0.0858  0.8287
 6113SOL    HW324225   6.139   1.022   3.238  1.0139  0.1396  0.6599
 6113SOL    MW424226   6.092   1.082   3.279  0.4430 -0.2081  0.5300
 6114SOL     OW24227   6.044   0.584   5.277  0.1920  0.2141 -0.0100
 6114SOL    HW224228   5.984   0.556   5.208 -0.6412 -1.8700  1.4625
 6114SOL    HW324229   6.073   0.671   5.249 -1.3423  0.1274 -2.1543
 6114SOL    MW424230   6.040   0.592   5.264 -0.1203 -0.0723 -0.0986
 6115SOL     OW24231   3.092   3.178   3.878  0.1071  0.0801  0.2328
 6115SOL    HW224232   3.011   3.141   3.911 -1.1681  1.7365 -0.8504
 6115SOL    HW324233   3.065   3.235   3.806  2.2551  0.5482 -0.2818
 6115SOL    MW424234   3.078   3.181   3.873  0.2222  0.3604  0.0220
 6116SOL     OW24235   2.277   5.278   3.773 -0.3550 -0.3507 -0.1056
 6116SOL    HW224236   2.327   5.229   3.708  1.2787 -0.7481  1.3501
 6116SOL    HW324237   2.298   5.235   3.856 -0.0385  1.8705  1.0436
 6116SOL    MW424238   2.287   5.266   3.775 -0.0977 -0.1100  0.2381
 6117SOL     OW24239   3.869   0.755   4.906 -0.4250 -0.1373  0.3008
 6117SOL    HW224240   3.880   0.832   4.850  1.2621  0.1650  0.9817
 6117SOL    HW324241   3.780   0.765   4.942 -0.2995  1.4483  0.2727
 6117SOL    MW424242   3.858   0.767   4.904 -0.1858  0.1118  0.3869
 6118SOL     OW24243   6.053   6.289   3.072  0.4700  0.2627  0.3772
 6118SOL    HW224244   6.092   6.376   3.084  0.5174  0.2292  0.4687
 6118SOL    HW324245   6.048   6.278   2.977 -1.5331  1.2570  0.3134
 6118SOL    MW424246   6.058   6.299   3.061  0.2119  0.3895  0.3808
 6119SOL     OW24247   4.437   1.334   5.635  0.6882 -0.0394  0.3901
 6119SOL    HW224248   4.456   1.421   5.670 -2.8242  0.2694  2.0044
 6119SOL    HW324249   4.463   1.274   5.705 -1.5952  0.2036  1.5457
 6119SOL    MW424250   4.443   1.338   5.649 -0.0765  0.0334  0.7556
 6120SOL     OW24251   2.169   4.151   2.721  0.3375 -0.5599 -0.3293
 6120SOL    HW224252   2.135   4.238   2.698  1.3760 -0.0982 -0.1706
 6120SOL    HW324253   2.109   4.090   2.677 -0.4251  0.2277 -0.4148
 6120SOL    MW424254   2.156   4.155   2.712  0.3739 -0.3951 -0.3197
 6121SOL     OW24255   6.331   6.108   3.697  0.0535 -0.0756 -0.4136
 6121SOL    HW224256   6.418   6.069   3.692 -0.0757 -0.3409 -0.6200
 6121SOL    HW324257   6.292   6.090   3.611  0.3427  1.3457 -0.8641
 6121SOL    MW424258   6.338   6.101   3.685  0.0746  0.0769 -0.5003
 6122SOL     OW24259   0.793   5.109   5.028 -0.2309 -0.4565 -0.7213
 6122SOL    HW224260   0.817   5.187   4.978  0.1777  0.0913  0.3034
 6122SOL    HW324261   0.700   5.120   5.048 -0.1537 -0.2006 -0.5099
 6122SOL    MW424262   0.784   5.120   5.024 -0.1668 -0.3505 -0.5582
 6123SOL     OW24263   1.312   5.840   3.349 -0.4131 -0.4295  0.7016
 6123SOL    HW224264   1.237   5.784   3.328  0.7507 -2.2889  1.2508
 6123SOL    HW324265   1.388   5.786   3.328  0.9722  2.5325 -3.1851
 6123SOL    MW424266   1.312   5.825   3.343 -0.0768 -0.2840  0.2612
 6124SOL     OW24267   4.123   1.810   2.479  0.0088 -0.2924 -0.1635
 6124SOL    HW224268   4.064   1.755   2.530  0.8328 -0.5754  0.5023
 6124SOL    HW324269   4.202   1.816   2.532 -0.4829  2.6349  0.4546
 6124SOL    MW424270   4.125   1.804   2.493  0.0526  0.0565  0.0059
 6125SOL     OW24271   0.820   2.294   0.557 -0.3258  0.1992 -0.3551
 6125SOL    HW224272   0.755   2.228   0.581  0.1184  0.1395  0.7478
 6125SOL    HW324273   0.888   2.286   0.624  1.0377 -0.0319 -1.7081
 6125SOL    MW424274   0.821   2.284   0.569 -0.0873  0.1609 -0.3881
 6126SOL     OW24275   2.706   5.714   6.391 -0.3806 -0.0613 -0.0433
 6126SOL    HW224276   2.661   5.683   6.313  0.7967 -0.3227 -0.6310
 6126SOL    HW324277   2.719   5.808   6.376 -0.9570  0.0704  0.2501
 6126SOL    MW424278   2.702   5.722   6.379 -0.3013 -0.0784 -0.0821
 6127SOL     OW24279   3.144   3.110   2.830  0.2763 -0.0949 -0.1678
 6127SOL    HW224280   3.089   3.036   2.804  0.6129 -0.1117 -0.8536
 6127SOL    HW324281   3.147   3.105   2.926 -0.6261 -0.2951 -0.1412
 6127SOL    MW424282   3.137   3.100   2.839  0.2016 -0.1235 -0.2548
 6128SOL     OW24283   4.360   4.360   3.723 -0.5015 -0.0264  0.1680
 6128SOL    HW224284   4.271   4.337   3.698 -0.7156  0.5102  0.4292
 6128SOL    HW324285   4.352   4.441   3.773  0.0736 -0.2794  0.6988
 6128SOL    MW424286   4.347   4.367   3.726 -0.4539  0.0110  0.2725
 6129SOL     OW24287   0.783   2.815   0.761  0.0587 -0.2495 -0.4209
 6129SOL    HW224288   0.771   2.901   0.803  1.9725  0.1495 -0.5930
 6129SOL    HW324289   0.726   2.756   0.810  1.4579  0.3998  2.1525
 6129SOL    MW424290   0.774   2.819   0.773  0.4958 -0.1112 -0.1041
 6130SOL     OW24291   3.906   5.708   1.368  0.0855  0.5118 -0.0063
 6130SOL    HW224292   3.821   5.721   1.409  0.2314 -0.2779  0.5611
 6130SOL    HW324293   3.908   5.615   1.344  0.5312  0.6636 -0.6118
 6130SOL    MW424294   3.895   5.697   1.370  0.1636  0.4277 -0.0114
 6131SOL     OW24295   1.128   5.448   5.948  0.0911  0.3976  0.3319
 6131SOL    HW224296   1.118   5.543   5.939  1.2605  0.4924 -0.2656
 6131SOL    HW324297   1.175   5.437   6.030 -1.0804  0.2426  0.9981
 6131SOL    MW424298   1.133   5.459   5.957  0.0908  0.3897  0.3410
 6132SOL     OW24299   3.937   1.702   2.168 -0.4387  0.4243 -0.4072
 6132SOL    HW224300   3.975   1.790   2.164 -0.6662  0.5314 -0.2880
 6132SOL    HW324301   3.876   1.700   2.094 -2.1745  1.2142  0.9350
 6132SOL    MW424302   3.934   1.714   2.158 -0.6978  0.5426 -0.2144
 6133SOL     OW24303   2.303   6.150   5.906 -0.0166  0.1050 -0.4549
 6133SOL    HW224304   2.289   6.162   6.000 -1.4334  1.8697 -0.8401
 6133SOL    HW324305   2.262   6.226   5.865 -2.0285 -1.9909 -2.7050
 6133SOL    MW424306   2.296   6.162   5.913 -0.4690  0.0613 -0.8026
 6134SOL     OW24307   3.151   1.172   4.451 -0.7017 -0.0125 -0.3809
 6134SOL    HW224308   3.149   1.267   4.461  0.0314  0.4021 -3.4108
 6134SOL    HW324309   3.230   1.145   4.497 -0.2064  1.0188 -0.6019
 6134SOL    MW424310   3.161   1.181   4.459 -0.5396  0.1783 -0.8098
 6135SOL     OW24311   2.766   5.400   4.356  0.0242 -0.0805 -0.0257
 6135SOL    HW224312   2.774   5.461   4.283  2.4497 -0.3695 -0.0719
 6135SOL    HW324313   2.761   5.314   4.314 -0.7792 -0.1133  0.1156
 6135SOL    MW424314   2.766   5.396   4.341  0.2382 -0.1229 -0.0132
 6136SOL     OW24315   6.260   3.675   0.991  0.2467  0.4042  0.3724
 6136SOL    HW224316   6.188   3.736   0.976  1.2402  1.2598 -1.1715
 6136SOL    HW324317   6.286   3.690   1.082 -0.6199  1.0757  0.5231
 6136SOL    MW424318   6.254   3.685   1.001  0.2634  0.6057  0.1886
 6137SOL     OW24319   5.206   5.262   2.345  1.1168  0.2957  0.0938
 6137SOL    HW224320   5.254   5.189   2.383 -1.0746 -0.7730  0.9609
 6137SOL    HW324321   5.238   5.339   2.393  1.1031 -0.5455  1.5090
 6137SOL    MW424322   5.217   5.263   2.357  0.8259  0.0437  0.3949
 6138SOL     OW24323   1.350   4.474   0.538 -0.1618 -0.2134  0.2127
 6138SOL    HW224324   1.286   4.543   0.556 -1.5327 -1.2366 -0.5487
 6138SOL    HW324325   1.346   4.417   0.615  0.5284  0.2239  0.5762
 6138SOL    MW424326   1.341   4.476   0.550 -0.2516 -0.2907  0.1602
 6139SOL     OW24327   1.849   3.711   5.626 -0.2986  0.0697 -0.1314
 6139SOL    HW224328   1.835   3.619   5.605 -0.3663 -0.3065  1.4165
 6139SOL    HW324329   1.911   3.710   5.699 -0.3358  1.2405 -0.0646
 6139SOL    MW424330   1.855   3.699   5.633 -0.3125  0.1746  0.0817
 6140SOL     OW24331   2.207   2.612   3.958  0.0103  0.4631 -0.0118
 6140SOL    HW224332   2.134   2.550   3.952 -0.8068  1.4326 -0.4666
 6140SOL    HW324333   2.221   2.639   3.867 -0.1280  1.4710  0.2595
 6140SOL    MW424334   2.199   2.607   3.945 -0.1158  0.7240 -0.0360
 6141SOL     OW24335   3.111   3.472   1.768  0.7309  0.4754 -0.5120
 6141SOL    HW224336   3.053   3.437   1.835  0.2334  0.8561 -0.7378
 6141SOL    HW324337   3.169   3.398   1.745 -0.0658 -0.0937 -0.7225
 6141SOL    MW424338   3.111   3.457   1.774  0.5602  0.4506 -0.5696
 6142SOL     OW24339   3.887   3.605   2.581  0.0587  0.5545 -0.0689
 6142SOL    HW224340   3.843   3.658   2.648 -0.5375 -1.2999  1.0633
 6142SOL    HW324341   3.853   3.638   2.498  0.6816  2.7951  0.4872
 6142SOL    MW424342   3.877   3.617   2.579  0.0623  0.6054  0.1539
 6143SOL     OW24343   3.795   1.731   2.408  0.0590 -0.7433  0.2367
 6143SOL    HW224344   3.831   1.718   2.320  0.2809 -1.2250  0.3909
 6143SOL    HW324345   3.735   1.805   2.400  1.9306  0.8507  0.1925
 6143SOL    MW424346   3.792   1.739   2.395  0.3352 -0.5965  0.2512
 6144SOL     OW24347   1.815   4.469   4.547 -0.0777  0.0957  0.4242
 6144SOL    HW224348   1.824   4.467   4.642  0.6896  0.1624  0.3626
 6144SOL    HW324349   1.817   4.377   4.521  0.2271  0.0990  0.4327
 6144SOL    MW424350   1.817   4.457   4.556  0.0638  0.1050  0.4172
 6145SOL     OW24351   2.297   5.126   2.082 -0.1624  0.3102  0.1209
 6145SOL    HW224352   2.357   5.167   2.020 -0.2535  0.6324  0.2441
 6145SOL    HW324353   2.307   5.177   2.163  1.3579 -1.2484  0.9807
 6145SOL    MW424354   2.306   5.138   2.085  0.0261  0.1471  0.2506
 6146SOL     OW24355   4.035   0.172   5.949 -0.2050  0.7397  0.5151
 6146SOL    HW224356   4.011   0.169   6.041 -1.1437  0.1097  0.2604
 6146SOL    HW324357   3.969   0.120   5.904 -1.6730  3.5982 -0.9263
 6146SOL    MW424358   4.023   0.165   5.955 -0.5225  1.0337  0.2913
 6147SOL     OW24359   2.018   3.261   1.745 -0.7645 -0.0929 -0.3194
 6147SOL    HW224360   1.929   3.291   1.765 -0.5447 -0.2599  0.9690
 6147SOL    HW324361   2.048   3.220   1.826 -0.0023 -1.2481 -1.1672
 6147SOL    MW424362   2.010   3.260   1.758 -0.6350 -0.2673 -0.2613
 6148SOL     OW24363   2.112   3.812   3.019  0.5820  0.2866 -0.0266
 6148SOL    HW224364   2.102   3.717   3.015 -1.8123  0.4884 -0.9836
 6148SOL    HW324365   2.028   3.846   2.986  1.3984  2.7324  0.1967
 6148SOL    MW424366   2.099   3.804   3.014  0.3739  0.6359 -0.1234
 6149SOL     OW24367   0.601   0.731   1.611  0.4361 -0.2545 -0.2755
 6149SOL    HW224368   0.651   0.747   1.691 -1.2206 -0.1413  0.7796
 6149SOL    HW324369   0.652   0.773   1.542  2.4607 -1.2765  0.5076
 6149SOL    MW424370   0.614   0.738   1.612  0.4847 -0.3744 -0.0330
 6150SOL     OW24371   6.194   0.085   3.879 -0.4915  0.2170  0.4793
 6150SOL    HW224372   6.191  -0.009   3.896  0.9513  0.5063  2.6165
 6150SOL    HW324373   6.102   0.110   3.866 -0.7941 -1.6632 -1.5842
 6150SOL    MW424374   6.181   0.076   3.879 -0.3411  0.0071  0.4890
 6151SOL     OW24375   5.599   5.434   5.776 -0.3752 -0.2617  0.1430
 6151SOL    HW224376   5.577   5.345   5.802  1.2804 -1.1512 -1.3029
 6151SOL    HW324377   5.681   5.425   5.728  0.3532  2.1833  0.8103
 6151SOL    MW424378   5.607   5.421   5.773 -0.0606 -0.0565  0.0403
 6152SOL     OW24379   4.455   5.597   3.528 -0.3452  0.6166 -0.0624
 6152SOL    HW224380   4.454   5.682   3.484 -1.9882  0.7814  0.2202
 6152SOL    HW324381   4.536   5.597   3.578  1.4665  0.5316 -2.8073
 6152SOL    MW424382   4.465   5.609   3.529 -0.3229  0.6272 -0.3873
 6153SOL     OW24383   6.179   4.686   3.968 -0.0084  0.1681 -0.1333
 6153SOL    HW224384   6.114   4.651   3.907  0.9358 -0.2869 -0.8895
 6153SOL    HW324385   6.259   4.693   3.917  0.9739 -0.7957  1.2063
 6153SOL    MW424386   6.181   4.683   3.953  0.2458 -0.0191 -0.0564
 6154SOL     OW24387   5.631   1.168   6.267  0.1928  0.1721  0.1674
 6154SOL    HW224388   5.613   1.146   6.175  0.2847 -0.1261  0.2192
 6154SOL    HW324389   5.554   1.138   6.314  0.6250 -0.7287  0.3342
 6154SOL    MW424390   5.619   1.161   6.261  0.2620  0.0139  0.1963
 6155SOL     OW24391   0.495   4.918   5.501 -0.6374 -0.2978  0.3387
 6155SOL    HW224392   0.510   4.843   5.442 -1.0440 -0.5999  0.6143
 6155SOL    HW324393   0.578   4.929   5.547 -0.2159  0.1287 -0.5016
 6155SOL    MW424394   0.508   4.909   5.499 -0.6354 -0.2814  0.2642
 6156SOL     OW24395   5.163   1.528   5.520 -0.4262 -0.3598 -0.2091
 6156SOL    HW224396   5.252   1.561   5.519  0.1748 -1.9099 -0.9285
 6156SOL    HW324397   5.163   1.455   5.458 -2.2973 -0.1432 -0.5323
 6156SOL    MW424398   5.175   1.522   5.512 -0.5938 -0.5358 -0.3467
 6157SOL     OW24399   5.033   2.698   5.348 -0.6911 -0.1739 -0.2399
 6157SOL    HW224400   4.948   2.738   5.327  0.1649  2.3290  0.6718
 6157SOL    HW324401   5.087   2.713   5.270 -0.3483  0.5656  0.1278
 6157SOL    MW424402   5.029   2.705   5.335 -0.5330  0.2539 -0.0711
 6158SOL     OW24403   2.722   3.307   3.711 -0.0239 -0.4634  0.2109
 6158SOL    HW224404   2.762   3.385   3.752 -2.9889  0.8396  0.8686
 6158SOL    HW324405   2.688   3.256   3.785 -0.6769 -0.8806 -0.3697
 6158SOL    MW424406   2.723   3.311   3.726 -0.5012 -0.3465  0.2211
 6159SOL     OW24407   4.006   5.515   1.035 -0.0534  0.0919 -0.3104
 6159SOL    HW224408   4.060   5.572   0.981 -1.0598  0.6074 -0.7943
 6159SOL    HW324409   3.994   5.436   0.982 -0.9669  0.5616 -0.8227
 6159SOL    MW424410   4.012   5.512   1.021 -0.3067  0.2219 -0.4419
 6160SOL     OW24411   0.356   0.814   5.107 -0.3360 -0.3785 -0.1500
 6160SOL    HW224412   0.278   0.772   5.143  1.3229 -1.7856  2.0184
 6160SOL    HW324413   0.337   0.908   5.114 -1.1636 -0.6377  2.0511
 6160SOL    MW424414   0.343   0.821   5.113 -0.2263 -0.5984  0.4265
 6161SOL     OW24415   3.027   5.223   1.493 -0.4161 -0.4179  0.2628
 6161SOL    HW224416   3.048   5.219   1.586 -2.2622 -0.8512  0.7100
 6161SOL    HW324417   3.004   5.315   1.478 -1.2131 -0.5586  0.5352
 6161SOL    MW424418   3.027   5.235   1.503 -0.7648 -0.4937  0.3577
 6162SOL     OW24419   3.053   2.215   4.741  0.2019 -0.4783  0.5112
 6162SOL    HW224420   3.026   2.238   4.830 -0.9020 -2.3748  0.7378
 6162SOL    HW324421   3.077   2.122   4.747  1.3539 -0.3053 -0.9248
 6162SOL    MW424422   3.052   2.206   4.754  0.2083 -0.7057  0.3516
 6163SOL     OW24423   1.310   2.517   6.356 -0.2906  0.0558  0.4185
 6163SOL    HW224424   1.399   2.537   6.328 -0.2326 -0.9153 -0.1517
 6163SOL    HW324425   1.310   2.422   6.369 -1.3216  0.0073  0.1255
 6163SOL    MW424426   1.322   2.507   6.354 -0.4189 -0.0787  0.3046
 6164SOL     OW24427   1.326   4.685   1.331  0.0792 -1.0181  0.9954
 6164SOL    HW224428   1.389   4.625   1.370  0.3204 -0.7679  1.0014
 6164SOL    HW324429   1.241   4.645   1.347  0.1627 -0.8722  1.8654
 6164SOL    MW424430   1.323   4.672   1.338  0.1220 -0.9658  1.1110
 6165SOL     OW24431   1.814   2.187   3.388  0.2604  0.6305 -0.0336
 6165SOL    HW224432   1.862   2.140   3.457 -0.8377 -1.7071 -0.7379
 6165SOL    HW324433   1.864   2.267   3.374  2.6148 -0.5658  0.9028
 6165SOL    MW424434   1.827   2.191   3.395  0.4262  0.1642 -0.0030
 6166SOL     OW24435   6.087   4.403   5.366  0.3001  0.5999 -0.6461
 6166SOL    HW224436   6.109   4.425   5.275  2.9061  1.4683  0.1003
 6166SOL    HW324437   6.129   4.318   5.380 -1.8601 -0.5528 -0.7962
 6166SOL    MW424438   6.096   4.395   5.355  0.3589  0.5624 -0.5674
 6167SOL     OW24439   3.188   1.588   3.107 -0.6048 -0.1150  0.3845
 6167SOL    HW224440   3.208   1.495   3.115  0.3653 -0.0519 -0.9339
 6167SOL    HW324441   3.098   1.591   3.075 -0.5232 -0.6167  0.1059
 6167SOL    MW424442   3.179   1.576   3.104 -0.4660 -0.1729  0.1738
 6168SOL     OW24443   1.437   1.814   0.886  0.2087  0.2164 -0.2841
 6168SOL    HW224444   1.488   1.819   0.805  0.4276  1.5193 -0.0895
 6168SOL    HW324445   1.491   1.761   0.945  0.6242  0.2912 -0.5892
 6168SOL    MW424446   1.451   1.807   0.883  0.2924  0.3981 -0.2987
 6169SOL     OW24447   5.113   5.674   0.038 -0.0655 -0.5164  0.5901
 6169SOL    HW224448   5.098   5.603  -0.024 -2.6478  0.2777  0.1783
 6169SOL    HW324449   5.172   5.734  -0.007  1.3534 -1.8540  0.5596
 6169SOL    MW424450   5.119   5.672   0.024 -0.2190 -0.5881  0.5317
 6170SOL     OW24451   4.325   3.599   2.197 -0.5552 -0.4101 -0.3037
 6170SOL    HW224452   4.244   3.636   2.162 -0.7852  0.2748  0.8804
 6170SOL    HW324453   4.385   3.596   2.122 -1.9168 -1.7283 -1.3902
 6170SOL    MW424454   4.322   3.604   2.183 -0.7652 -0.4937 -0.2908
 6171SOL     OW24455   6.401   2.824   5.201 -0.5939  0.2427  0.3728
 6171SOL    HW224456   6.387   2.912   5.164  2.3871  0.6907  0.0039
 6171SOL    HW324457   6.426   2.770   5.126  0.8872 -0.0279  1.0165
 6171SOL    MW424458   6.402   2.829   5.186 -0.0052  0.2661  0.4091
 6172SOL     OW24459   3.982   2.938   2.496 -0.5930 -0.2457 -0.3636
 6172SOL    HW224460   4.064   2.934   2.446 -1.2078 -0.4086 -1.3924
 6172SOL    HW324461   4.009   2.955   2.586  0.5547 -0.0228 -0.7383
 6172SOL    MW424462   3.996   2.940   2.502 -0.5227 -0.2377 -0.5487
 6173SOL     OW24463   0.051   2.554   5.478  0.7298 -0.9555  0.3026
 6173SOL    HW224464   0.028   2.490   5.545 -2.2419 -0.4733 -0.0942
 6173SOL    HW324465  -0.002   2.631   5.500  1.9942  0.3240 -0.9035
 6173SOL    MW424466   0.041   2.556   5.490  0.5045 -0.7231  0.0911
 6174SOL     OW24467   5.620   4.239   3.740 -0.3700 -0.1919  0.4919
 6174SOL    HW224468   5.702   4.271   3.777 -0.0641  0.3017 -0.5611
 6174SOL    HW324469   5.642   4.153   3.704 -0.2031  0.1089 -0.1409
 6174SOL    MW424470   5.633   4.232   3.740 -0.3076 -0.0871  0.2695
 6175SOL     OW24471   5.918   3.007   3.347  0.5535 -0.4961  0.2295
 6175SOL    HW224472   5.823   3.022   3.349  1.0126  3.1409  0.3717
 6175SOL    HW324473   5.940   3.004   3.254  0.4755  0.1443  0.1876
 6175SOL    MW424474   5.908   3.008   3.335  0.6038  0.0682  0.2427
 6176SOL     OW24475   4.159   3.375   2.073 -0.9753 -0.2632 -0.0190
 6176SOL    HW224476   4.200   3.434   2.136 -0.7378  0.6690 -1.0097
 6176SOL    HW324477   4.073   3.356   2.111 -0.7743  0.1542  0.6578
 6176SOL    MW424478   4.153   3.381   2.086 -0.9175 -0.0851 -0.0604
 6177SOL     OW24479   5.919   1.161   6.289 -0.4281  0.3782 -0.2051
 6177SOL    HW224480   5.827   1.188   6.288  0.0329  2.1898  1.5231
 6177SOL    HW324481   5.966   1.234   6.247  0.1685 -1.0264 -2.1295
 6177SOL    MW424482   5.913   1.174   6.283 -0.2886  0.4319 -0.2310
 6178SOL     OW24483   4.667   2.402   6.328  0.0627 -0.4113 -0.0042
 6178SOL    HW224484   4.722   2.454   6.386  1.0912 -2.3302  0.8547
 6178SOL    HW324485   4.578   2.421   6.356  0.3659  1.2368 -0.0745
 6178SOL    MW424486   4.663   2.411   6.339  0.2384 -0.4470  0.0998
 6179SOL     OW24487   6.314   0.224   4.581 -0.2731 -0.3090 -0.3236
 6179SOL    HW224488   6.374   0.300   4.580 -1.9274  1.1100  1.3366
 6179SOL    HW324489   6.343   0.173   4.656  0.6539 -1.2318 -1.2703
 6179SOL    MW424490   6.326   0.228   4.591 -0.3690 -0.2435 -0.2295
 6180SOL     OW24491   5.470   2.594   5.625 -0.0537  0.5996 -0.2438
 6180SOL    HW224492   5.415   2.565   5.698 -0.4622 -0.6261 -0.9967
 6180SOL    HW324493   5.509   2.676   5.654  0.1182 -0.0708  1.4989
 6180SOL    MW424494   5.468   2.601   5.638 -0.0849  0.3494 -0.1132
 6181SOL     OW24495   0.473   5.277   5.676 -0.5403 -0.2886 -0.1087
 6181SOL    HW224496   0.430   5.362   5.687 -2.8606 -1.2145 -1.3644
 6181SOL    HW324497   0.515   5.283   5.590 -0.8336 -0.4572 -0.2643
 6181SOL    MW424498   0.473   5.289   5.666 -0.8851 -0.4330 -0.2949
 6182SOL     OW24499   0.614   2.134   3.112 -0.0219 -0.1627 -0.2279
 6182SOL    HW224500   0.611   2.198   3.041 -1.0194  0.7347  0.5769
 6182SOL    HW324501   0.531   2.086   3.104  0.1528 -0.4985 -0.0551
 6182SOL    MW424502   0.602   2.136   3.102 -0.1305 -0.0886 -0.0989
 6183SOL     OW24503   5.047   6.312   4.805 -0.5523 -0.0025  0.2475
 6183SOL    HW224504   5.113   6.380   4.792 -0.0190 -0.4650  0.4409
 6183SOL    HW324505   4.997   6.310   4.723  1.1990 -1.2380 -0.8654
 6183SOL    MW424506   5.049   6.320   4.792 -0.2509 -0.2265  0.1262
 6184SOL     OW24507   6.149   5.892   4.550 -1.0066 -0.4577  1.0425
 6184SOL    HW224508   6.111   5.805   4.541 -1.3987 -0.1392 -0.6879
 6184SOL    HW324509   6.228   5.890   4.496 -0.9559  0.2239  1.0779
 6184SOL    MW424510   6.155   5.880   4.542 -1.0517 -0.3258  0.8189
 6185SOL     OW24511   0.811   5.966   1.732 -0.6002 -0.1588  0.3583
 6185SOL    HW224512   0.833   6.002   1.819 -0.3500 -0.5417  0.4560
 6185SOL    HW324513   0.851   5.879   1.732 -0.2253  0.0104 -0.3091
 6185SOL    MW424514   0.819   5.959   1.744 -0.5177 -0.1870  0.2831
 6186SOL     OW24515   0.135   1.015   6.071 -0.0678 -0.0367  0.1728
 6186SOL    HW224516   0.096   0.967   5.998 -0.7060 -0.2562  0.6473
 6186SOL    HW324517   0.208   1.063   6.032 -0.7676  0.3309 -0.7356
 6186SOL    MW424518   0.139   1.015   6.056 -0.2443 -0.0171  0.1156
 6187SOL     OW24519   6.341   4.829   1.423 -0.0637  0.0405  0.1449
 6187SOL    HW224520   6.282   4.806   1.495 -1.3951 -2.1688 -1.5307
 6187SOL    HW324521   6.415   4.871   1.466 -0.4545 -1.8227  2.9096
 6187SOL    MW424522   6.343   4.832   1.438 -0.2909 -0.4968  0.2886
 6188SOL     OW24523   0.398   5.078   0.900  0.7459 -0.5321 -0.1072
 6188SOL    HW224524   0.348   5.085   0.818  0.6172  0.1979  0.0206
 6188SOL    HW324525   0.386   4.988   0.928  0.5502 -0.7107 -0.7475
 6188SOL    MW424526   0.390   5.067   0.893  0.7031 -0.4593 -0.1748
 6189SOL     OW24527   5.620   1.843   5.220  0.6102 -0.0796 -0.0520
 6189SOL    HW224528   5.695   1.784   5.212  1.2113  0.6173  0.3587
 6189SOL    HW324529   5.642   1.918   5.165  0.1817  0.1090  0.0283
 6189SOL    MW424530   5.633   1.845   5.211  0.6330  0.0373  0.0128
 6190SOL     OW24531   4.522   1.869   1.666 -0.2606  0.2635  0.3485
 6190SOL    HW224532   4.574   1.937   1.623  2.7949 -1.7281  0.6139
 6190SOL    HW324533   4.467   1.917   1.728 -0.4307  2.6986 -1.5259
 6190SOL    MW424534   4.522   1.884   1.668  0.1201  0.3220  0.1362
 6191SOL     OW24535   3.221   2.203   2.147 -0.2871  0.2206  0.3310
 6191SOL    HW224536   3.150   2.194   2.084 -0.0367 -0.3088  0.1203
 6191SOL    HW324537   3.235   2.115   2.181  2.1730 -0.3148 -1.7399
 6191SOL    MW424538   3.213   2.190   2.143  0.0705  0.0801  0.0300
 6192SOL     OW24539   2.617   5.337   3.181 -0.7851  0.6915 -0.7774
 6192SOL    HW224540   2.638   5.384   3.262  0.2829  2.4843 -2.0075
 6192SOL    HW324541   2.577   5.403   3.125 -1.0238 -0.3830 -1.9053
 6192SOL    MW424542   2.615   5.352   3.185 -0.6757  0.7863 -1.0885
 6193SOL     OW24543   5.663   2.906   1.403  0.1648 -0.0035 -0.0875
 6193SOL    HW224544   5.620   2.985   1.437 -0.4560  0.0385 -0.9291
 6193SOL    HW324545   5.727   2.940   1.340  1.5772 -0.0578  1.2707
 6193SOL    MW424546   5.666   2.921   1.399  0.2692 -0.0051 -0.0193
 6194SOL     OW24547   1.591   1.559   4.400  0.5243  0.3499  0.3792
 6194SOL    HW224548   1.602   1.466   4.418  1.0317  0.1498 -0.8543
 6194SOL    HW324549   1.631   1.572   4.314 -2.1867  1.1197 -0.8845
 6194SOL    MW424550   1.598   1.549   4.391  0.2336  0.4251  0.0497
 6195SOL     OW24551   3.751   3.820   0.393  0.7516 -0.7170  0.2157
 6195SOL    HW224552   3.718   3.896   0.345  3.9501  0.1809 -0.7679
 6195SOL    HW324553   3.806   3.773   0.330 -0.0548 -3.1572  1.2066
 6195SOL    MW424554   3.754   3.824   0.378  1.0672 -0.9205  0.2167
 6196SOL     OW24555   2.554   1.607   0.077 -0.1547  0.4854 -0.0481
 6196SOL    HW224556   2.500   1.528   0.075 -1.3543  1.2646  0.2982
 6196SOL    HW324557   2.539   1.649  -0.007  0.1399  0.5562 -0.0655
 6196SOL    MW424558   2.545   1.602   0.066 -0.2741  0.5975 -0.0047
 6197SOL     OW24559   1.824   0.673   3.467  0.2275 -0.2593 -0.3102
 6197SOL    HW224560   1.895   0.626   3.510  0.3399  0.2702  0.0898
 6197SOL    HW324561   1.861   0.758   3.444 -0.1923 -0.0837 -0.3550
 6197SOL    MW424562   1.838   0.678   3.470  0.1869 -0.1662 -0.2633
 6198SOL     OW24563   6.335   3.927   2.226  0.2294 -0.2847  0.2645
 6198SOL    HW224564   6.396   4.001   2.215  1.3308 -0.8781  1.9016
 6198SOL    HW324565   6.311   3.931   2.319 -2.3569 -0.0209 -0.3603
 6198SOL    MW424566   6.340   3.938   2.237  0.0335 -0.3282  0.3981
 6199SOL     OW24567   0.031   2.053   6.288  0.3212  0.0921  0.0041
 6199SOL    HW224568   0.071   2.068   6.373  1.1939  1.3619 -0.5986
 6199SOL    HW324569   0.003   2.140   6.259 -1.0711 -0.4909 -0.4844
 6199SOL    MW424570   0.033   2.066   6.295  0.2526  0.1827 -0.1399
 6200SOL     OW24571   3.669   0.495   5.184  0.6118 -0.1162 -0.0002
 6200SOL    HW224572   3.706   0.409   5.164 -3.0971 -1.4953 -1.9980
 6200SOL    HW324573   3.634   0.486   5.272 -0.3602 -0.9430 -0.4532
 6200SOL    MW424574   3.669   0.482   5.193 -0.0058 -0.4072 -0.3235
 6201SOL     OW24575   2.229   1.753   5.097  0.3597 -0.4244  0.7568
 6201SOL    HW224576   2.154   1.809   5.077  1.0250  0.4340  0.6286
 6201SOL    HW324577   2.192   1.664   5.100 -0.4708 -0.1449 -0.4218
 6201SOL    MW424578   2.214   1.748   5.094  0.3379 -0.2743  0.5844
 6202SOL     OW24579   6.099   4.132   0.128  0.3680  0.0531 -0.2588
 6202SOL    HW224580   6.110   4.169   0.040  0.3291 -0.7127 -0.5901
 6202SOL    HW324581   6.186   4.102   0.152 -0.0870 -2.1767 -1.1560
 6202SOL    MW424582   6.112   4.133   0.119  0.3029 -0.3421 -0.4209
 6203SOL     OW24583   4.387   5.761   0.333  0.0840  0.1831 -0.8256
 6203SOL    HW224584   4.368   5.706   0.409  1.2000  0.3726 -0.3826
 6203SOL    HW324585   4.306   5.763   0.284 -1.1096  1.1816  1.0636
 6203SOL    MW424586   4.374   5.754   0.337  0.0738  0.3398 -0.5179
 6204SOL     OW24587   3.338   3.648   4.152 -0.1654  0.2761  0.0152
 6204SOL    HW224588   3.427   3.640   4.118 -0.5188 -1.0425 -0.6530
 6204SOL    HW324589   3.326   3.572   4.209 -1.7232 -1.1119 -2.0083
 6204SOL    MW424590   3.348   3.637   4.155 -0.4176 -0.0810 -0.3399
 6205SOL     OW24591   1.793   3.008   1.665 -0.4387  0.1168  0.7707
 6205SOL    HW224592   1.862   2.959   1.620  0.8440  0.3166  2.4106
 6205SOL    HW324593   1.720   2.947   1.672  0.0195 -0.5197  0.1016
 6205SOL    MW424594   1.793   2.994   1.660 -0.2090  0.0592  0.8988
 6206SOL     OW24595   2.184   3.765   0.391 -0.3975 -0.1522 -0.7086
 6206SOL    HW224596   2.092   3.740   0.400  0.0554 -2.2363 -1.3062
 6206SOL    HW324597   2.187   3.820   0.312 -0.8864 -1.7027 -1.8528
 6206SOL    MW424598   2.172   3.769   0.382 -0.4022 -0.6317 -0.9384
 6207SOL     OW24599   5.566   0.254   4.525 -0.1893 -0.3185 -0.0962
 6207SOL    HW224600   5.592   0.290   4.610 -1.4379  0.9444 -0.2294
 6207SOL    HW324601   5.631   0.186   4.508  1.5623  1.0610  0.7201
 6207SOL    MW424602   5.578   0.250   4.534 -0.1229  0.0301 -0.0061
 6208SOL     OW24603   1.720   3.052   3.969  0.0724 -0.2095 -0.2975
 6208SOL    HW224604   1.631   3.065   4.002 -0.3902 -0.5023 -1.3784
 6208SOL    HW324605   1.734   2.958   3.976 -0.5471 -0.4829 -2.1069
 6208SOL    MW424606   1.710   3.041   3.974 -0.0704 -0.2842 -0.6789
 6209SOL     OW24607   3.027   0.971   6.241  0.2400  0.0860  0.4871
 6209SOL    HW224608   3.053   1.059   6.271 -0.7330  0.3601  0.5418
 6209SOL    HW324609   3.050   0.971   6.148  1.7714 -0.2023  0.8281
 6209SOL    MW424610   3.034   0.983   6.233  0.3136  0.0841  0.5393
 6210SOL     OW24611   1.875   5.948   6.063  0.4743  0.0642  0.2432
 6210SOL    HW224612   1.799   5.901   6.097  0.8307  0.5093  1.7284
 6210SOL    HW324613   1.875   6.031   6.111 -0.5107  1.9752 -2.7345
 6210SOL    MW424614   1.865   5.953   6.074  0.3913  0.3751  0.0463
 6211SOL     OW24615   1.968   5.063   2.546 -0.4107  0.1956  0.1737
 6211SOL    HW224616   2.045   5.116   2.563  1.8671 -2.4310 -1.1049
 6211SOL    HW324617   1.951   5.074   2.453  1.1203 -2.3104 -0.5204
 6211SOL    MW424618   1.976   5.071   2.536  0.0918 -0.4816 -0.0865
 6212SOL     OW24619   0.487   3.027   5.987 -0.2574 -0.0585  0.3737
 6212SOL    HW224620   0.526   3.050   6.071 -0.5657  1.7871  0.0706
 6212SOL    HW324621   0.415   3.090   5.976 -0.2603 -0.2985 -1.2367
 6212SOL    MW424622   0.482   3.039   5.996 -0.2985  0.1533  0.1213
 6213SOL     OW24623   1.805   1.942   3.239  0.2034  0.1497 -0.2593
 6213SOL    HW224624   1.843   1.887   3.307  0.4193 -0.2685 -0.7060
 6213SOL    HW324625   1.832   2.031   3.261 -0.4730  0.1379  0.6895
 6213SOL    MW424626   1.814   1.947   3.251  0.1427  0.0930 -0.1930
 6214SOL     OW24627   6.064   5.475   1.055 -0.0032 -0.1419  0.4894
 6214SOL    HW224628   6.147   5.458   1.100 -0.0234  0.0101  0.5840
 6214SOL    HW324629   6.012   5.396   1.071  1.1415 -1.5287 -1.9632
 6214SOL    MW424630   6.069   5.462   1.063  0.1452 -0.3049  0.1783
 6215SOL     OW24631   0.682   4.457   1.005  0.2432  0.4112 -0.2877
 6215SOL    HW224632   0.592   4.431   1.026  0.0072  0.6930 -0.9293
 6215SOL    HW324633   0.737   4.388   1.043 -0.3222 -0.5662 -1.2091
 6215SOL    MW424634   0.678   4.445   1.013  0.1375  0.3194 -0.4939
 6216SOL     OW24635   4.433   4.248   0.855  0.0371  0.3815  0.0501
 6216SOL    HW224636   4.457   4.225   0.945  0.1866 -0.7519 -0.2577
 6216SOL    HW324637   4.515   4.278   0.815  0.4249 -0.9964 -0.2519
 6216SOL    MW424638   4.447   4.249   0.861  0.1080  0.0502 -0.0303
 6217SOL     OW24639   4.358   2.056   5.392 -0.4999 -0.6625  0.2819
 6217SOL    HW224640   4.356   2.020   5.480  2.8838 -0.7589  0.4792
 6217SOL    HW324641   4.400   2.142   5.403 -0.5206 -0.4402 -1.1754
 6217SOL    MW424642   4.364   2.063   5.405 -0.0562 -0.6459  0.1157
 6218SOL     OW24643   5.826   2.887   4.460  0.1833  0.3507 -0.5418
 6218SOL    HW224644   5.736   2.908   4.485  0.2000  0.9814 -1.0041
 6218SOL    HW324645   5.838   2.929   4.375  1.4448  1.6958  0.2619
 6218SOL    MW424646   5.816   2.895   4.452  0.3519  0.6114 -0.4968
 6219SOL     OW24647   2.320   4.792   1.237 -0.9274  0.1059 -0.0081
 6219SOL    HW224648   2.336   4.745   1.318  1.6854 -0.3125 -0.6857
 6219SOL    HW324649   2.229   4.771   1.215 -1.8472  0.5158  2.9242
 6219SOL    MW424650   2.310   4.783   1.245 -0.7040  0.1048  0.2893
 6220SOL     OW24651   4.991   2.427   3.047  0.0511 -0.2363  0.9005
 6220SOL    HW224652   5.010   2.521   3.043  1.7101 -0.5943 -0.2429
 6220SOL    HW324653   4.993   2.407   3.141  0.4038  0.7323  1.1150
 6220SOL    MW424654   4.994   2.437   3.059  0.3165 -0.1558  0.7779
 6221SOL     OW24655   6.026   2.656   1.485 -0.4325 -0.2243  0.2634
 6221SOL    HW224656   5.945   2.701   1.510 -0.7450 -0.4371 -0.3431
 6221SOL    HW324657   6.032   2.668   1.391  1.3924  1.6464  0.5510
 6221SOL    MW424658   6.016   2.663   1.476 -0.2330 -0.0056  0.2213
 6222SOL     OW24659   6.050   4.977   5.822 -0.2885  0.1363 -0.0023
 6222SOL    HW224660   5.970   4.974   5.875  0.5128 -1.1899  1.2221
 6222SOL    HW324661   6.030   4.924   5.745 -0.6373 -0.0883  0.2387
 6222SOL    MW424662   6.037   4.970   5.819 -0.2288 -0.0683  0.1911
 6223SOL     OW24663   2.092   4.039   5.265 -0.2151  0.1901 -0.6012
 6223SOL    HW224664   2.162   3.974   5.273 -0.4848 -0.1324 -0.8721
 6223SOL    HW324665   2.016   3.998   5.308 -0.8668 -0.3711 -2.2061
 6223SOL    MW424666   2.091   4.025   5.272 -0.3366  0.0735 -0.8487
 6224SOL     OW24667   3.675   3.250   4.367 -0.1181  0.1275 -0.3390
 6224SOL    HW224668   3.755   3.269   4.417  0.2449 -3.4731  0.6751
 6224SOL    HW324669   3.604   3.271   4.428  0.0834  1.0150 -0.3834
 6224SOL    MW424670   3.676   3.256   4.382 -0.0436 -0.2305 -0.2111
 6225SOL     OW24671   4.576   5.574   4.230 -0.2250  0.0058 -0.3197
 6225SOL    HW224672   4.579   5.533   4.316  0.5493  0.9784  0.1391
 6225SOL    HW324673   4.662   5.555   4.192 -0.0990  0.6500 -0.3616
 6225SOL    MW424674   4.588   5.566   4.236 -0.1062  0.2191 -0.2647
 6226SOL     OW24675   5.517   5.460   4.887  0.2931 -0.4726  0.0521
 6226SOL    HW224676   5.450   5.521   4.857 -0.3120 -0.3445  1.5999
 6226SOL    HW324677   5.582   5.516   4.930 -0.0534 -0.8659  1.1011
 6226SOL    MW424678   5.517   5.476   4.889  0.1676 -0.5076  0.3947
 6227SOL     OW24679   0.841   4.390   0.403 -0.1043  0.2046 -0.5228
 6227SOL    HW224680   0.826   4.304   0.364 -0.2320 -1.3660  2.6531
 6227SOL    HW324681   0.760   4.438   0.385 -1.0736 -1.2436 -0.2530
 6227SOL    MW424682   0.828   4.385   0.395 -0.2490 -0.1937 -0.0682
 6228SOL     OW24683   6.137   5.706   1.966 -0.6071  0.4205  0.0080
 6228SOL    HW224684   6.060   5.666   2.004 -0.9242  0.9725 -0.0506
 6228SOL    HW324685   6.156   5.782   2.021 -0.9721  1.1275 -0.8051
 6228SOL    MW424686   6.130   5.711   1.978 -0.6971  0.5866 -0.1070
 6229SOL     OW24687   3.064   5.655   2.896  0.1004  0.2719 -0.2922
 6229SOL    HW224688   3.048   5.560   2.893 -0.4363  0.3671 -0.6279
 6229SOL    HW324689   3.038   5.686   2.809 -1.7379  1.0188  0.4590
 6229SOL    MW424690   3.058   5.646   2.884 -0.2130  0.3830 -0.2374
 6230SOL     OW24691   2.631   5.256   3.486  0.1046 -0.3655 -0.0815
 6230SOL    HW224692   2.692   5.202   3.436 -0.0118 -2.0143  1.4689
 6230SOL    HW324693   2.684   5.292   3.557  0.6596  3.2414 -2.0646
 6230SOL    MW424694   2.646   5.254   3.489  0.1625 -0.1072 -0.1386
 6231SOL     OW24695   5.201   0.797   5.818  0.2647  0.3531 -0.1220
 6231SOL    HW224696   5.117   0.757   5.800  0.0957  0.6089  0.0934
 6231SOL    HW324697   5.187   0.890   5.800  0.6942  0.3013 -0.7754
 6231SOL    MW424698   5.188   0.804   5.813  0.2990  0.3800 -0.1798
 6232SOL     OW24699   2.737   6.229   5.860  0.0941  0.4260  0.2213
 6232SOL    HW224700   2.665   6.166   5.862  2.2151 -2.2146  2.4697
 6232SOL    HW324701   2.719   6.284   5.784 -3.0743 -1.4957 -0.6074
 6232SOL    MW424702   2.725   6.228   5.850 -0.0441 -0.1759  0.4087
 6233SOL     OW24703   0.026   4.541   2.360  0.0423  0.0701  0.4664
 6233SOL    HW224704   0.068   4.623   2.331  2.0028 -0.9587  0.2087
 6233SOL    HW324705  -0.066   4.564   2.371  0.4599  2.2100  0.0033
 6233SOL    MW424706   0.019   4.555   2.358  0.3560  0.2167  0.3713
 6234SOL     OW24707   5.814   5.100   0.940 -0.1191  0.1239 -0.2135
 6234SOL    HW224708   5.742   5.156   0.911 -0.6659 -0.0928  0.6994
 6234SOL    HW324709   5.779   5.012   0.940  0.0766  0.0364  0.4179
 6234SOL    MW424710   5.800   5.096   0.936 -0.1654  0.0838 -0.0097
 6235SOL     OW24711   3.844   4.201   5.782  0.2082 -0.3287  0.1244
 6235SOL    HW224712   3.781   4.268   5.809 -0.4679  0.1272 -2.2723
 6235SOL    HW324713   3.903   4.247   5.721 -0.4106 -1.8940 -1.7668
 6235SOL    MW424714   3.844   4.216   5.777  0.0374 -0.4751 -0.4414
 6236SOL     OW24715   4.774   2.808   5.264  0.6094 -0.5290  0.2633
 6236SOL    HW224716   4.834   2.881   5.279 -0.9869  0.8250  0.3891
 6236SOL    HW324717   4.779   2.791   5.170 -0.5157  1.1931 -0.1587
 6236SOL    MW424718   4.782   2.815   5.254  0.2503 -0.1231  0.2242
 6237SOL     OW24719   2.696   5.168   2.661  0.2931  0.1936  0.3644
 6237SOL    HW224720   2.711   5.074   2.667  0.5927  0.2170  0.0077
 6237SOL    HW324721   2.603   5.179   2.681  0.6581  0.0151  2.4819
 6237SOL    MW424722   2.686   5.157   2.665  0.3808  0.1732  0.5967
 6238SOL     OW24723   3.947   4.763   1.120  0.8048 -0.4064  0.1229
 6238SOL    HW224724   4.024   4.812   1.090  0.6346 -0.5472 -0.5566
 6238SOL    HW324725   3.897   4.745   1.040  0.5307 -1.1164  0.4464
 6238SOL    MW424726   3.951   4.767   1.106  0.7462 -0.5186  0.0759
 6239SOL     OW24727   1.267   0.978   1.069 -0.7563  0.4869  0.1527
 6239SOL    HW224728   1.273   0.908   1.005 -0.2306  0.0808  0.6393
 6239SOL    HW324729   1.316   0.946   1.145 -0.0203  1.6079  0.1757
 6239SOL    MW424730   1.274   0.965   1.071 -0.5898  0.5812  0.2200
 6240SOL     OW24731   4.315   2.978   0.068 -0.2923 -0.9071  0.0779
 6240SOL    HW224732   4.305   2.981   0.163  0.8597  2.5935  0.2291
 6240SOL    HW324733   4.237   3.023   0.035 -0.1653 -1.1670 -0.5926
 6240SOL    MW424734   4.303   2.985   0.076 -0.1236 -0.4795  0.0094
 6241SOL     OW24735   2.053   0.107   4.462 -0.2109  0.3483  0.3257
 6241SOL    HW224736   2.089   0.151   4.539 -0.5970 -0.2172  0.8398
 6241SOL    HW324737   2.129   0.094   4.404 -0.0205  1.2831  0.3512
 6241SOL    MW424738   2.068   0.111   4.464 -0.2367  0.3970  0.3969
 6242SOL     OW24739   1.680   1.773   4.559 -0.1544 -0.1675 -0.1288
 6242SOL    HW224740   1.664   1.753   4.651 -0.6082 -0.8233 -0.3478
 6242SOL    HW324741   1.640   1.701   4.511  1.9336 -0.9922 -0.7692
 6242SOL    MW424742   1.673   1.761   4.565  0.0612 -0.3628 -0.2422
 6243SOL     OW24743   1.323   6.348   3.118  0.1717 -0.4573 -0.2814
 6243SOL    HW224744   1.339   6.311   3.031 -0.0891 -3.5171  0.8308
 6243SOL    HW324745   1.229   6.368   3.118  0.3664  0.5675 -0.9890
 6243SOL    MW424746   1.312   6.346   3.107  0.1630 -0.7258 -0.2280
 6244SOL     OW24747   2.821   2.390   5.928 -0.4580  0.0056  0.3581
 6244SOL    HW224748   2.813   2.449   6.002 -0.1711  2.2958 -1.3419
 6244SOL    HW324749   2.736   2.391   5.886 -1.1023 -2.4821  1.4023
 6244SOL    MW424750   2.809   2.398   5.932 -0.5051 -0.0205  0.2715
 6245SOL     OW24751   2.136   2.432   1.198  0.2660 -0.5945  0.2732
 6245SOL    HW224752   2.079   2.451   1.272  0.0446  0.2297 -0.0900
 6245SOL    HW324753   2.096   2.358   1.154 -0.1876 -0.4129  0.3749
 6245SOL    MW424754   2.124   2.425   1.202  0.1770 -0.4618  0.2387
 6246SOL     OW24755   1.471   3.098   4.293 -0.0064 -0.0792 -0.0661
 6246SOL    HW224756   1.540   3.157   4.263  0.7779 -1.3251 -0.8135
 6246SOL    HW324757   1.490   3.085   4.386 -0.3698  1.0623  0.1799
 6246SOL    MW424758   1.483   3.104   4.301  0.0491 -0.0929 -0.1323
 6247SOL     OW24759   6.341   4.878   0.704  0.1149  0.5514 -0.2236
 6247SOL    HW224760   6.260   4.883   0.652 -0.8089 -0.2875  1.0809
 6247SOL    HW324761   6.380   4.965   0.696 -1.6185  1.4036  0.2210
 6247SOL    MW424762   6.336   4.890   0.696 -0.2357  0.5531  0.0072
 6248SOL     OW24763   5.576   1.154   1.211 -0.0061  0.2605  0.4984
 6248SOL    HW224764   5.661   1.154   1.168 -0.2569 -1.7572 -0.0589
 6248SOL    HW324765   5.597   1.169   1.304  0.8254  1.1057  0.1910
 6248SOL    MW424766   5.590   1.156   1.218  0.0705  0.1058  0.3843
 6249SOL     OW24767   4.154   4.826   0.342  0.5410  0.2312  0.5564
 6249SOL    HW224768   4.216   4.767   0.386 -0.4091 -1.8495 -0.7317
 6249SOL    HW324769   4.080   4.832   0.403  0.5054 -0.1919  0.5604
 6249SOL    MW424770   4.153   4.819   0.356  0.4110 -0.0992  0.3870
 6250SOL     OW24771   2.634   4.047   1.310 -0.4609 -0.7894 -0.3106
 6250SOL    HW224772   2.622   3.969   1.363  0.0472 -0.4120  0.3774
 6250SOL    HW324773   2.546   4.083   1.300 -0.3905  0.1378  1.8632
 6250SOL    MW424774   2.621   4.042   1.315 -0.3845 -0.6173  0.0670
 6251SOL     OW24775   0.817   4.150   0.254 -0.6044  0.0032  0.1766
 6251SOL    HW224776   0.890   4.089   0.258  0.4300  1.2653  1.8773
 6251SOL    HW324777   0.793   4.153   0.161  1.0894 -0.9027 -0.3256
 6251SOL    MW424778   0.823   4.143   0.242 -0.2445  0.0502  0.3347
 6252SOL     OW24779   1.553   5.830   1.386  0.3237 -0.5402  0.1238
 6252SOL    HW224780   1.604   5.877   1.320 -0.0126 -2.3888 -1.5672
 6252SOL    HW324781   1.471   5.879   1.392  0.8445  0.3601  0.1133
 6252SOL    MW424782   1.549   5.843   1.378  0.3481 -0.6653 -0.1007
 6253SOL     OW24783   2.235   3.557   5.871  0.3788  0.4286  0.0440
 6253SOL    HW224784   2.164   3.597   5.821 -0.3579 -0.1078  0.6409
 6253SOL    HW324785   2.255   3.476   5.823  0.5018  0.5106 -0.0457
 6253SOL    MW424786   2.228   3.551   5.858  0.2979  0.3686  0.1109
 6254SOL     OW24787   1.960   4.375   3.054 -0.0386  0.6546  0.0458
 6254SOL    HW224788   1.877   4.422   3.047 -0.1581  0.3614 -0.6970
 6254SOL    HW324789   2.025   4.442   3.075 -0.5236  0.8257  1.0189
 6254SOL    MW424790   1.958   4.390   3.056 -0.1183  0.6385  0.0761
 6255SOL     OW24791   5.526   6.276   0.172 -0.1144  0.7464 -0.0245
 6255SOL    HW224792   5.453   6.214   0.172  0.1847  0.3433 -1.5329
 6255SOL    HW324793   5.488   6.357   0.137  0.0454  0.6707 -0.3807
 6255SOL    MW424794   5.511   6.278   0.167 -0.0539  0.6833 -0.2705
 6256SOL     OW24795   6.416   1.514   1.859  0.4491 -0.5401 -0.2905
 6256SOL    HW224796   6.338   1.517   1.803  1.2757  0.3996 -1.4661
 6256SOL    HW324797   6.403   1.585   1.922  0.1150 -0.7348 -0.1383
 6256SOL    MW424798   6.404   1.524   1.860  0.5140 -0.4418 -0.4255
 6257SOL     OW24799   0.585   3.584   4.202 -0.4855 -0.7203  0.5864
 6257SOL    HW224800   0.653   3.557   4.263  0.1968  1.7134  1.0085
 6257SOL    HW324801   0.521   3.630   4.256 -0.3274  0.6615 -0.3376
 6257SOL    MW424802   0.586   3.586   4.217 -0.3746 -0.2169  0.5202
 6258SOL     OW24803   1.406   1.853   0.432  0.3671  0.8384  0.0389
 6258SOL    HW224804   1.462   1.904   0.490  1.6089  0.4859 -0.8056
 6258SOL    HW324805   1.415   1.763   0.463 -0.7899  0.9397  0.7155
 6258SOL    MW424806   1.414   1.848   0.444  0.3783  0.8053  0.0167
 6259SOL     OW24807   6.383   5.523   1.824  0.1121  0.7032  0.1161
 6259SOL    HW224808   6.290   5.532   1.846  0.2114  0.9648  0.4229
 6259SOL    HW324809   6.388   5.437   1.781  0.0248 -0.1395  1.7123
 6259SOL    MW424810   6.371   5.513   1.821  0.1137  0.6265  0.3672
 6260SOL     OW24811   1.656   0.013   3.097  0.0969 -0.3547  0.2646
 6260SOL    HW224812   1.635  -0.053   3.031 -0.3597  0.1725 -0.1241
 6260SOL    HW324813   1.579   0.069   3.102  1.1671  1.3275 -0.8448
 6260SOL    MW424814   1.643   0.012   3.089  0.1779 -0.0632  0.0669
 6261SOL     OW24815   0.188   4.942   6.090  0.4738  0.2016 -0.0997
 6261SOL    HW224816   0.257   5.006   6.071 -0.0173  0.3205 -1.6022
 6261SOL    HW324817   0.118   4.993   6.130 -0.1148  0.7360 -1.7354
 6261SOL    MW424818   0.188   4.957   6.093  0.3314  0.2878 -0.5138
 6262SOL     OW24819   3.466   4.205   6.306  0.3942 -0.5118  0.4882
 6262SOL    HW224820   3.373   4.187   6.299  0.5517 -1.4209  0.6094
 6262SOL    HW324821   3.480   4.226   6.398 -0.0052  1.6104  0.1210
 6262SOL    MW424822   3.456   4.205   6.317  0.3623 -0.3517  0.4557
 6263SOL     OW24823   4.242   0.390   1.561 -0.3450  0.0873  0.5286
 6263SOL    HW224824   4.190   0.382   1.640  0.9501  1.5783  1.5945
 6263SOL    HW324825   4.306   0.459   1.581  1.7133 -1.2943 -0.8635
 6263SOL    MW424826   4.244   0.398   1.574  0.0975  0.1018  0.4856
 6264SOL     OW24827   1.092   5.219   2.373  0.2994 -0.4103 -0.0557
 6264SOL    HW224828   1.000   5.235   2.354  0.2003 -0.8638  0.0475
 6264SOL    HW324829   1.106   5.127   2.349  0.4664 -0.6522  0.9257
 6264SOL    MW424830   1.082   5.209   2.367  0.3084 -0.5021  0.0874
 6265SOL     OW24831   4.080   3.983   0.317  0.0446 -0.3805  0.2058
 6265SOL    HW224832   4.156   4.007   0.370  0.3772  1.4931 -1.0340
 6265SOL    HW324833   4.007   4.030   0.358 -0.4083 -1.8803  1.1716
 6265SOL    MW424834   4.080   3.993   0.330  0.0288 -0.3312  0.1697
 6266SOL     OW24835   4.823   3.118   1.424 -0.5033  0.8755 -0.0413
 6266SOL    HW224836   4.894   3.111   1.361  0.9953  0.2966  1.6255
 6266SOL    HW324837   4.840   3.201   1.469 -0.8868  0.7246  0.3872
 6266SOL    MW424838   4.834   3.128   1.422 -0.3562  0.7792  0.2352
 6267SOL     OW24839   3.343   3.516   1.502 -0.2194 -0.0562  0.2920
 6267SOL    HW224840   3.315   3.586   1.562  0.0811 -0.2649  0.6776
 6267SOL    HW324841   3.416   3.555   1.453 -1.2239  0.5301 -0.7980
 6267SOL    MW424842   3.349   3.531   1.504 -0.3123 -0.0064  0.1991
 6268SOL     OW24843   4.516   2.335   2.733  0.1728 -0.2011 -0.0617
 6268SOL    HW224844   4.492   2.255   2.686  0.9283 -1.6250  1.8743
 6268SOL    HW324845   4.433   2.380   2.748 -0.2684 -0.6272 -1.0918
 6268SOL    MW424846   4.502   2.330   2.729  0.2143 -0.4452  0.0578
 6269SOL     OW24847   0.295   5.091   0.652  0.3508 -0.1939 -0.1157
 6269SOL    HW224848   0.253   5.175   0.635 -0.0161 -0.5532 -1.0578
 6269SOL    HW324849   0.226   5.026   0.640  0.8271 -0.6880 -0.2460
 6269SOL    MW424850   0.280   5.093   0.648  0.3652 -0.3065 -0.2572
 6270SOL     OW24851   1.629   2.444   3.557 -0.1784  0.0567  0.0158
 6270SOL    HW224852   1.649   2.452   3.464 -0.0523  0.5867  0.0886
 6270SOL    HW324853   1.619   2.534   3.588  1.9378  0.0105  0.9976
 6270SOL    MW424854   1.630   2.457   3.549  0.1175  0.1205  0.1549
 6271SOL     OW24855   4.579   0.280   3.145  0.0073  0.5116 -0.0617
 6271SOL    HW224856   4.526   0.351   3.181  1.0063  0.6345  1.2527
 6271SOL    HW324857   4.523   0.239   3.079 -1.8043  0.5212  1.3848
 6271SOL    MW424858   4.565   0.284   3.141 -0.0999  0.5291  0.3026
 6272SOL     OW24859   5.183   1.628   3.720 -0.3494  0.4160 -0.3630
 6272SOL    HW224860   5.246   1.574   3.767  0.8495  0.4503 -1.8516
 6272SOL    HW324861   5.111   1.568   3.699  1.2063 -0.8608 -2.4844
 6272SOL    MW424862   5.182   1.613   3.723  0.0140  0.2521 -0.8393
 6273SOL     OW24863   0.497   2.133   3.728  0.6328 -0.3210  0.4332
 6273SOL    HW224864   0.453   2.166   3.806  0.0119 -0.0756 -0.0093
 6273SOL    HW324865   0.570   2.082   3.761 -0.8356 -1.9802  1.2396
 6273SOL    MW424866   0.501   2.131   3.743  0.3571 -0.5075  0.4812
 6274SOL     OW24867   2.977   0.328   2.277 -0.2648 -0.2799  0.4884
 6274SOL    HW224868   3.001   0.304   2.188 -2.5425  2.5855 -1.0784
 6274SOL    HW324869   2.901   0.273   2.298  0.0793 -0.7307  0.5738
 6274SOL    MW424870   2.970   0.318   2.268 -0.5199  0.0387  0.2930
 6275SOL     OW24871   0.801   4.870   2.467  0.4057  0.3784  0.0891
 6275SOL    HW224872   0.833   4.828   2.386 -0.4112  0.5435 -0.3264
 6275SOL    HW324873   0.757   4.800   2.514 -1.5407  0.8688 -0.9128
 6275SOL    MW424874   0.800   4.855   2.462  0.0411  0.4649 -0.0979
 6276SOL     OW24875   4.918   2.686   2.105  0.0600  0.8853 -0.1468
 6276SOL    HW224876   4.847   2.654   2.050 -1.4361  2.8914  0.4942
 6276SOL    HW324877   4.918   2.781   2.091  3.3478  0.8902 -0.9239
 6276SOL    MW424878   4.909   2.694   2.096  0.2964  1.1506 -0.1647
 6277SOL     OW24879   4.576   1.505   1.507  0.1529 -0.6921  0.1234
 6277SOL    HW224880   4.648   1.556   1.543  0.5334 -0.8755 -0.3627
 6277SOL    HW324881   4.524   1.569   1.457 -1.4342 -0.0443  2.4641
 6277SOL    MW424882   4.579   1.520   1.505 -0.0063 -0.6308  0.3681
 6278SOL     OW24883   0.120   3.461   3.109  0.0142 -0.2554  0.4008
 6278SOL    HW224884   0.192   3.402   3.132 -1.7865 -2.0609  1.7779
 6278SOL    HW324885   0.073   3.415   3.039  0.1232  0.8412 -0.4049
 6278SOL    MW424886   0.123   3.447   3.103 -0.2090 -0.3489  0.4762
 6279SOL     OW24887   1.243   0.613   5.724 -0.5143  0.1997  0.8390
 6279SOL    HW224888   1.225   0.536   5.670  1.6046  1.8865 -2.5460
 6279SOL    HW324889   1.333   0.601   5.754 -1.4097 -0.3495  3.6431
 6279SOL    MW424890   1.252   0.601   5.721 -0.3529  0.3498  0.7624
 6280SOL     OW24891   2.681   2.437   4.521  0.2234  0.2047  0.7871
 6280SOL    HW224892   2.767   2.398   4.536  0.4982 -0.6769 -2.4528
 6280SOL    HW324893   2.686   2.474   4.433 -2.1075  1.9381  1.2983
 6280SOL    MW424894   2.693   2.437   4.512 -0.0479  0.3171  0.4271
 6281SOL     OW24895   4.111   3.462   1.815 -0.6401 -0.1781  0.5805
 6281SOL    HW224896   4.144   3.424   1.897 -2.0024 -0.8774  0.8301
 6281SOL    HW324897   4.020   3.434   1.811 -0.6841  0.1273 -1.0268
 6281SOL    MW424898   4.104   3.454   1.825 -0.8257 -0.2301  0.4014
 6282SOL     OW24899   5.688   5.921   3.433  0.7854  0.0635 -0.1672
 6282SOL    HW224900   5.742   6.001   3.436 -1.2755  1.5672 -0.5666
 6282SOL    HW324901   5.632   5.934   3.356 -0.9350 -0.8526  0.8825
 6282SOL    MW424902   5.687   5.934   3.423  0.2865  0.1411 -0.0814
 6283SOL     OW24903   3.028   0.402   6.390  0.2764 -1.0623 -0.1954
 6283SOL    HW224904   2.958   0.444   6.340  0.4941 -0.8803 -0.3487
 6283SOL    HW324905   2.986   0.326   6.431 -0.0944 -0.7566  0.0005
 6283SOL    MW424906   3.013   0.397   6.389  0.2562 -0.9979 -0.1898
 6284SOL     OW24907   2.660   2.449   0.460 -0.2711 -0.0986  0.1308
 6284SOL    HW224908   2.660   2.492   0.545 -1.7701  1.1409 -0.4525
 6284SOL    HW324909   2.736   2.392   0.462  0.8095  1.3051  1.6000
 6284SOL    MW424910   2.670   2.447   0.471 -0.3263  0.2501  0.2477
 6285SOL     OW24911   2.520   4.878   0.249  0.2138 -0.0213  0.1227
 6285SOL    HW224912   2.608   4.854   0.278  0.0667 -1.3259 -0.4229
 6285SOL    HW324913   2.463   4.817   0.297 -0.2679 -0.1522 -0.6110
 6285SOL    MW424914   2.524   4.866   0.259  0.1308 -0.2107 -0.0461
 6286SOL     OW24915   0.383   2.355   1.934 -0.3513  0.2365 -0.7730
 6286SOL    HW224916   0.348   2.284   1.881 -0.9197 -0.3316  0.3302
 6286SOL    HW324917   0.473   2.329   1.954 -0.7821 -0.5583  0.2351
 6286SOL    MW424918   0.390   2.342   1.930 -0.4832  0.0567 -0.4944
 6287SOL     OW24919   0.711   3.806   3.039 -0.0858 -0.2791  0.8683
 6287SOL    HW224920   0.757   3.847   3.112  2.7223 -1.5477 -0.0400
 6287SOL    HW324921   0.630   3.772   3.077  0.3747  0.7757  2.9373
 6287SOL    MW424922   0.707   3.807   3.054  0.3455 -0.3073  1.0214
 6288SOL     OW24923   0.843   4.661   5.532  0.0700  0.2008  1.0441
 6288SOL    HW224924   0.925   4.645   5.579 -0.1637  0.8843  1.7147
 6288SOL    HW324925   0.790   4.583   5.550  1.1850 -1.0788 -0.8545
 6288SOL    MW424926   0.847   4.649   5.541  0.1863  0.1221  0.8821
 6289SOL     OW24927   5.644   1.083   4.028 -0.2061 -0.7995  0.1469
 6289SOL    HW224928   5.614   1.170   4.055  2.7889 -0.0510  1.4964
 6289SOL    HW324929   5.625   1.026   4.102  0.4665 -0.6027  0.4818
 6289SOL    MW424930   5.638   1.087   4.041  0.2778 -0.6748  0.3691
 6290SOL     OW24931   2.139   6.332   1.798 -0.1500  0.5184  0.2008
 6290SOL    HW224932   2.194   6.362   1.871 -0.3747  0.3705  0.4317
 6290SOL    HW324933   2.191   6.352   1.720  0.6826 -0.5197  0.4536
 6290SOL    MW424934   2.153   6.339   1.797 -0.0698  0.3619  0.2646
 6291SOL     OW24935   3.950   4.798   3.872 -0.5371 -0.0371 -0.3087
 6291SOL    HW224936   3.965   4.818   3.779  1.6186 -0.9577 -0.2201
 6291SOL    HW324937   3.928   4.882   3.911  0.6205  0.7667 -1.2992
 6291SOL    MW424938   3.949   4.811   3.865 -0.1000 -0.0525 -0.4277
 6292SOL     OW24939   0.012   6.054   2.082  0.0827  0.6630 -0.5966
 6292SOL    HW224940   0.069   6.106   2.138 -0.3880  0.5039  0.0433
 6292SOL    HW324941   0.069   5.987   2.045  0.4929  1.0515 -0.6643
 6292SOL    MW424942   0.027   6.052   2.085  0.0747  0.6933 -0.5211
 6293SOL     OW24943   3.184   0.147   3.909  0.0388 -0.4804  0.0187
 6293SOL    HW224944   3.177   0.057   3.941  1.7962 -0.6323  0.0386
 6293SOL    HW324945   3.268   0.178   3.941  0.7249  0.2356 -2.2527
 6293SOL    MW424946   3.194   0.139   3.917  0.3612 -0.4059 -0.2783
 6294SOL     OW24947   0.030   6.361   0.154 -0.1476 -0.9598 -0.3480
 6294SOL    HW224948  -0.065   6.372   0.141 -0.0559  2.2778  0.7232
 6294SOL    HW324949   0.064   6.344   0.067 -1.5147  0.0976 -1.1385
 6294SOL    MW424950   0.022   6.360   0.141 -0.3159 -0.3931 -0.3110
 6295SOL     OW24951   4.071   2.658   3.661 -0.4397 -0.0470  0.0230
 6295SOL    HW224952   4.065   2.663   3.566  1.0338 -0.0941 -0.0964
 6295SOL    HW324953   4.114   2.573   3.678 -1.6294 -0.5166  0.7850
 6295SOL    MW424954   4.076   2.647   3.651 -0.4023 -0.1152  0.1078
 6296SOL     OW24955   3.849   6.323   1.169 -0.4435 -0.1294 -0.3541
 6296SOL    HW224956   3.793   6.351   1.096 -0.8131 -0.1022 -0.0597
 6296SOL    HW324957   3.811   6.366   1.246  1.2327  1.6423 -0.4327
 6296SOL    MW424958   3.836   6.333   1.169 -0.2711  0.1079 -0.3256
 6297SOL     OW24959   1.301   2.315   3.858  0.4595 -0.5018  0.2083
 6297SOL    HW224960   1.329   2.304   3.767 -1.2724  1.1772 -0.5873
 6297SOL    HW324961   1.361   2.381   3.893  1.8265 -1.9235  0.6820
 6297SOL    MW424962   1.313   2.322   3.850  0.4114 -0.4679  0.1658
 6298SOL     OW24963   2.396   3.904   0.501 -0.1426 -0.1548  0.7614
 6298SOL    HW224964   2.465   3.844   0.526 -0.6407 -0.3605  1.7232
 6298SOL    HW324965   2.318   3.849   0.491  0.0324 -0.0745 -1.3311
 6298SOL    MW424966   2.395   3.889   0.503 -0.1853 -0.1713  0.6122
 6299SOL     OW24967   4.466   1.258   6.419  0.0147 -0.2451 -0.1176
 6299SOL    HW224968   4.372   1.273   6.414 -0.0809 -0.7690  0.0128
 6299SOL    HW324969   4.475   1.163   6.411  0.5515 -0.1722 -0.3893
 6299SOL    MW424970   4.455   1.247   6.418  0.0729 -0.3046 -0.1362
 6300SOL     OW24971   6.060   6.116   2.140  0.1214  0.3733  0.2866
 6300SOL    HW224972   6.118   6.179   2.097  1.1002 -0.6580  0.0270
 6300SOL    HW324973   5.975   6.129   2.100  0.7439  0.2426 -1.1379
 6300SOL    MW424974   6.057   6.126   2.129  0.3327  0.2200  0.0644
 6301SOL     OW24975   5.549   3.520   1.821 -0.8428 -0.0748 -0.4123
 6301SOL    HW224976   5.557   3.427   1.802  0.4743  0.1377 -0.9982
 6301SOL    HW324977   5.485   3.552   1.757  0.2081 -0.2077 -1.5588
 6301SOL    MW424978   5.541   3.512   1.810 -0.5303 -0.0643 -0.6409
 6302SOL     OW24979   5.414   4.835   2.074  0.4257  0.3243  0.0823
 6302SOL    HW224980   5.361   4.825   2.153  1.1821  0.2425  0.5997
 6302SOL    HW324981   5.383   4.767   2.014 -0.4480  0.6672  0.1375
 6302SOL    MW424982   5.403   4.824   2.077  0.4103  0.3587  0.1579
 6303SOL     OW24983   5.519   6.257   1.718  0.2739 -0.2692 -0.9915
 6303SOL    HW224984   5.487   6.342   1.749  1.8838 -0.9741  3.3588
 6303SOL    HW324985   5.592   6.278   1.660  1.5330  1.4512  1.0738
 6303SOL    MW424986   5.524   6.271   1.715  0.6525 -0.1352 -0.1451
 6304SOL     OW24987   2.748   3.900   4.004 -0.2276 -0.0465 -0.5547
 6304SOL    HW224988   2.764   3.928   4.095 -2.2001 -1.4098  0.2975
 6304SOL    HW324989   2.722   3.981   3.959 -1.5600  0.3194  0.7454
 6304SOL    MW424990   2.746   3.915   4.010 -0.6637 -0.1781 -0.2707
 6305SOL     OW24991   5.871   1.573   6.245  0.3426  0.0664 -0.1721
 6305SOL    HW224992   5.922   1.590   6.324  0.8124 -1.3621 -0.1502
 6305SOL    HW324993   5.800   1.516   6.274 -0.7348  1.2514 -0.3939
 6305SOL    MW424994   5.869   1.568   6.259  0.2625  0.0343 -0.1985
 6306SOL     OW24995   2.276   2.669   1.133 -0.5267  0.1484 -0.5940
 6306SOL    HW224996   2.212   2.707   1.073 -1.0717  0.8273  0.3901
 6306SOL    HW324997   2.254   2.576   1.136 -1.5940  0.4109 -0.1216
 6306SOL    MW424998   2.265   2.661   1.126 -0.7394  0.2726 -0.4018
 6307SOL     OW24999   5.598   0.961   4.997 -0.1738 -0.2459  0.6023
 6307SOL    HW225000   5.542   0.912   4.937  0.7018 -0.8994  0.2837
 6307SOL    HW325001   5.669   0.900   5.018 -1.1053 -0.5347  3.3581
 6307SOL    MW425002   5.600   0.947   4.992 -0.1812 -0.3703  0.9239
 6308SOL     OW25003   2.683   0.040   2.571  0.3851 -0.5331  0.7814
 6308SOL    HW225004   2.710   0.072   2.657  0.3299 -0.3229  0.7192
 6308SOL    HW325005   2.709  -0.052   2.571  0.7807 -0.4239  0.8605
 6308SOL    MW425006   2.690   0.032   2.582  0.4300 -0.4910  0.7836
 6309SOL     OW25007   5.065   5.063   3.533  0.1039 -0.0832 -0.8712
 6309SOL    HW225008   5.086   5.028   3.447  0.8711 -0.5061 -0.5199
 6309SOL    HW325009   4.978   5.027   3.553  0.7176 -1.5020 -0.6736
 6309SOL    MW425010   5.056   5.053   3.525  0.2861 -0.3262 -0.7988
 6310SOL     OW25011   1.964   0.090   2.491 -0.5193 -1.1986 -0.7747
 6310SOL    HW225012   1.955   0.177   2.452  0.1931 -0.4337  0.6679
 6310SOL    HW325013   2.002   0.036   2.422  0.5674  0.0716 -1.2087
 6310SOL    MW425014   1.968   0.094   2.477 -0.2820 -0.9301 -0.6416
 6311SOL     OW25015   2.261   4.279   3.388  0.2339 -0.3049  0.0283
 6311SOL    HW225016   2.298   4.245   3.469  0.0424  0.7642  0.5794
 6311SOL    HW325017   2.226   4.364   3.412  0.4280  0.1486 -1.2510
 6311SOL    MW425018   2.261   4.285   3.402  0.2342 -0.1040 -0.0678
 6312SOL     OW25019   4.609   3.351   3.465  0.5158 -0.6164  0.8528
 6312SOL    HW225020   4.529   3.346   3.518  0.0139 -0.8114  0.0938
 6312SOL    HW325021   4.679   3.324   3.525  0.2364  0.9719  1.9464
 6312SOL    MW425022   4.608   3.347   3.480  0.4127 -0.4325  0.8970
 6313SOL     OW25023   0.054   3.375   0.149  0.5831 -0.0612  0.7392
 6313SOL    HW225024  -0.025   3.409   0.107  1.5055  1.7444  0.3903
 6313SOL    HW325025   0.024   3.296   0.195 -1.1886 -0.0209 -0.2485
 6313SOL    MW425026   0.039   3.369   0.150  0.4711  0.1823  0.5628
 6314SOL     OW25027   0.090   0.140   4.062  0.2688  0.1603  0.4848
 6314SOL    HW225028   0.043   0.158   4.143 -1.3121 -0.9402 -0.1425
 6314SOL    HW325029   0.087   0.044   4.053  1.1138  0.1993 -0.4849
 6314SOL    MW425030   0.084   0.130   4.071  0.1717  0.0202  0.2741
 6315SOL     OW25031   3.496   3.594   5.141 -0.8266 -0.1039 -0.5121
 6315SOL    HW225032   3.531   3.577   5.053 -0.1858  0.4637 -0.3807
 6315SOL    HW325033   3.401   3.591   5.131 -0.7546 -0.0872 -1.2212
 6315SOL    MW425034   3.488   3.592   5.128 -0.7325 -0.0268 -0.5883
 6316SOL     OW25035   4.049   2.217   3.613 -0.0202 -0.3794  1.1097
 6316SOL    HW225036   4.101   2.298   3.617  1.3679 -0.9961 -1.7420
 6316SOL    HW325037   3.987   2.232   3.542 -1.5926 -0.8756  2.3415
 6316SOL    MW425038   4.048   2.230   3.604 -0.0445 -0.5262  0.8960
 6317SOL     OW25039   0.215   2.483   1.429 -0.2045  0.0473  0.5057
 6317SOL    HW225040   0.244   2.450   1.514  0.8588 -3.0257 -0.9077
 6317SOL    HW325041   0.124   2.456   1.422 -0.2019  0.0246  0.5627
 6317SOL    MW425042   0.207   2.475   1.439 -0.0639 -0.3612  0.3268
 6318SOL     OW25043   1.362   0.107   0.808 -0.2714 -0.3040 -0.2055
 6318SOL    HW225044   1.410   0.125   0.727 -0.7496 -1.7859 -0.8615
 6318SOL    HW325045   1.401   0.025   0.840  0.4596  0.6667  1.5274
 6318SOL    MW425046   1.374   0.098   0.801 -0.2380 -0.3714 -0.0634
 6319SOL     OW25047   4.942   0.518   6.306 -0.0574 -0.1168  0.0132
 6319SOL    HW225048   5.035   0.540   6.298  0.4973 -0.1875  4.0657
 6319SOL    HW325049   4.896   0.592   6.266  1.6376 -0.3877 -2.6737
 6319SOL    MW425050   4.948   0.531   6.300  0.2394 -0.1619  0.1934
 6320SOL     OW25051   3.162   2.935   0.106  0.1312 -0.4413 -0.4491
 6320SOL    HW225052   3.079   2.904   0.140 -0.0495 -0.5450 -0.9762
 6320SOL    HW325053   3.228   2.875   0.142  0.3927  1.4407  2.5442
 6320SOL    MW425054   3.160   2.923   0.115  0.1419 -0.2067 -0.1237
 6321SOL     OW25055   2.464   1.401   5.684 -0.4398  0.3842 -0.1660
 6321SOL    HW225056   2.539   1.457   5.705 -0.4566  0.2179  0.3380
 6321SOL    HW325057   2.491   1.313   5.708 -0.2084  0.0790 -1.4857
 6321SOL    MW425058   2.477   1.397   5.690 -0.4115  0.3220 -0.2736
 6322SOL     OW25059   5.490   3.634   0.625 -0.3929  0.1824  0.3063
 6322SOL    HW225060   5.397   3.657   0.623 -0.5538 -0.4934  0.0401
 6322SOL    HW325061   5.500   3.564   0.562  0.2422  0.0252  0.5672
 6322SOL    MW425062   5.479   3.628   0.617 -0.3303  0.0725  0.3056
 6323SOL     OW25063   5.652   3.315   5.267 -0.1436  0.2723  0.7780
 6323SOL    HW225064   5.671   3.388   5.208 -0.2608 -1.4861 -1.5877
 6323SOL    HW325065   5.719   3.250   5.246 -0.1813 -0.4403  2.6617
 6323SOL    MW425066   5.664   3.316   5.257 -0.1640 -0.0537  0.7144
 6324SOL     OW25067   3.004   4.745   2.709  0.3757  0.6054 -0.3607
 6324SOL    HW225068   3.009   4.682   2.780 -1.2241 -0.6402 -1.2960
 6324SOL    HW325069   3.082   4.727   2.655  0.0203 -0.4824 -0.5293
 6324SOL    MW425070   3.015   4.734   2.711  0.1178  0.2975 -0.5064
 6325SOL     OW25071   4.871   3.170   5.984  0.3014 -0.1056 -0.8107
 6325SOL    HW225072   4.888   3.109   6.055  0.6466  1.8959  0.9485
 6325SOL    HW325073   4.784   3.147   5.952  0.9014 -2.2184 -1.0235
 6325SOL    MW425074   4.861   3.159   5.989  0.4261 -0.1203 -0.6067
 6326SOL     OW25075   1.511   6.152   4.804  0.3411 -0.0429  0.0756
 6326SOL    HW225076   1.565   6.208   4.860  2.1749  0.7874 -2.3402
 6326SOL    HW325077   1.443   6.210   4.770  0.5870  0.0204 -0.3065
 6326SOL    MW425078   1.509   6.167   4.807  0.6155  0.0750 -0.2936
 6327SOL     OW25079   3.817   3.875   4.640 -0.1479  0.2382  0.2627
 6327SOL    HW225080   3.907   3.907   4.654 -0.2634  0.9214 -0.4567
 6327SOL    HW325081   3.784   3.857   4.728  1.0096 -0.9504  0.4884
 6327SOL    MW425082   3.825   3.877   4.654 -0.0104  0.1715  0.1976
 6328SOL     OW25083   1.145   0.380   5.576 -0.0300 -0.0193 -0.2409
 6328SOL    HW225084   1.118   0.292   5.604  2.1750  0.0243  2.3999
 6328SOL    HW325085   1.065   0.432   5.582 -0.8816 -1.3376  0.3554
 6328SOL    MW425086   1.131   0.375   5.580  0.1485 -0.1875  0.1862
 6329SOL     OW25087   0.777   4.050   3.291 -0.3018  0.3162 -0.1713
 6329SOL    HW225088   0.716   4.066   3.218 -1.3528  1.1741  0.8447
 6329SOL    HW325089   0.722   4.059   3.369  1.3779  2.5269  0.8601
 6329SOL    MW425090   0.761   4.053   3.292 -0.2188  0.7211  0.0988
 6330SOL     OW25091   5.367   0.201   2.952  0.0340  0.5387  0.0087
 6330SOL    HW225092   5.369   0.161   2.865  1.7658  2.2164 -0.8001
 6330SOL    HW325093   5.431   0.151   3.003  0.0093  0.4034 -0.0915
 6330SOL    MW425094   5.376   0.189   2.947  0.2592  0.7422 -0.1112
 6331SOL     OW25095   0.065   2.362   3.704 -0.5835 -0.1674  0.6054
 6331SOL    HW225096   0.047   2.403   3.619  0.1495 -0.3091  0.3814
 6331SOL    HW325097   0.084   2.271   3.684 -2.5336 -0.7365  1.1373
 6331SOL    MW425098   0.065   2.356   3.690 -0.7441 -0.2612  0.6460
 6332SOL     OW25099   2.957   5.314   4.783 -0.0556  0.1403  0.1683
 6332SOL    HW225100   2.890   5.374   4.815  1.5776  2.1129  0.1066
 6332SOL    HW325101   2.949   5.316   4.688  0.7949  1.3283  0.0940
 6332SOL    MW425102   2.947   5.322   4.775  0.2721  0.5573  0.1503
 6333SOL     OW25103   5.082   2.364   4.477  0.2339 -0.4536 -0.2546
 6333SOL    HW225104   5.076   2.398   4.566  0.1487  1.9363 -1.1181
 6333SOL    HW325105   5.176   2.368   4.456  0.2052 -0.6322 -0.4213
 6333SOL    MW425106   5.094   2.369   4.486  0.2188 -0.1618 -0.3905
 6334SOL     OW25107   1.393   6.227   2.027  0.0103  0.2728 -0.2020
 6334SOL    HW225108   1.443   6.187   1.955  1.5288  1.2562  0.2413
 6334SOL    HW325109   1.459   6.274   2.078 -0.8017 -1.3463  2.5408
 6334SOL    MW425110   1.409   6.228   2.024  0.1035  0.1889  0.2184
 6335SOL     OW25111   0.197   3.929   5.871  0.2410  0.1758 -0.0115
 6335SOL    HW225112   0.175   3.940   5.779 -2.1867 -1.4995  0.2708
 6335SOL    HW325113   0.232   4.014   5.898  1.7631  0.4760 -2.6006
 6335SOL    MW425114   0.199   3.941   5.863  0.1215 -0.0056 -0.3159
 6336SOL     OW25115   2.966   3.952   3.403  0.0548 -0.2705  0.0149
 6336SOL    HW225116   2.995   3.888   3.338 -1.0611  0.2228 -1.0187
 6336SOL    HW325117   2.871   3.941   3.407 -0.1539  1.2227 -0.1154
 6336SOL    MW425118   2.957   3.942   3.395 -0.1200 -0.0084 -0.1387
 6337SOL     OW25119   2.761   1.130   6.425 -0.1169  0.3317 -0.2733
 6337SOL    HW225120   2.675   1.101   6.457 -0.5056  1.6858 -0.0117
 6337SOL    HW325121   2.797   1.181   6.498  0.3074  0.9201 -0.8909
 6337SOL    MW425122   2.754   1.133   6.439 -0.1122  0.5880 -0.3203
 6338SOL     OW25123   4.651   2.456   4.260 -0.1614  0.0339  0.5570
 6338SOL    HW225124   4.677   2.457   4.168 -1.8899  0.9326  0.0443
 6338SOL    HW325125   4.697   2.530   4.298  1.3213 -0.9064  0.6791
 6338SOL    MW425126   4.661   2.465   4.253 -0.1938  0.0284  0.5054
 6339SOL     OW25127   0.365   3.383   4.114 -0.2570 -0.1262 -0.1234
 6339SOL    HW225128   0.424   3.451   4.147 -0.5244  1.1071 -2.0097
 6339SOL    HW325129   0.327   3.344   4.193  0.6032  1.2903  1.0523
 6339SOL    MW425130   0.368   3.387   4.129 -0.1788  0.2234 -0.2171
 6340SOL     OW25131   3.989   2.907   3.428  0.4025 -0.5633  0.0841
 6340SOL    HW225132   4.000   2.812   3.421  1.5066 -0.3380 -1.9691
 6340SOL    HW325133   4.061   2.935   3.484 -0.3616 -0.9961  1.3081
 6340SOL    MW425134   4.000   2.898   3.434  0.4473 -0.5907 -0.0253
 6341SOL     OW25135   0.632   3.446   1.442  0.2360  0.2079  0.0585
 6341SOL    HW225136   0.547   3.433   1.486  0.6132  0.5470  0.9172
 6341SOL    HW325137   0.651   3.362   1.401 -0.8075  0.3036 -0.6786
 6341SOL    MW425138   0.623   3.433   1.442  0.1481  0.2652  0.0746
 6342SOL     OW25139   4.481   5.991   3.090 -0.0519 -0.6504  0.2792
 6342SOL    HW225140   4.423   5.948   3.027  0.5109 -0.4783 -0.3730
 6342SOL    HW325141   4.422   6.025   3.158 -0.7055 -0.5680 -0.3157
 6342SOL    MW425142   4.465   5.990   3.090 -0.0639 -0.6168  0.1147
 6343SOL     OW25143   6.016   2.613   6.217  0.0963 -0.4578  0.1756
 6343SOL    HW225144   6.108   2.607   6.244  0.3781  0.8157 -0.3714
 6343SOL    HW325145   5.966   2.606   6.298  0.8376  1.7012  0.9123
 6343SOL    MW425146   6.022   2.611   6.231  0.2313 -0.0050  0.2006
 6344SOL     OW25147   2.025   6.109   3.717 -0.3193  0.1567  0.5122
 6344SOL    HW225148   2.010   6.041   3.782  1.5252 -1.0107 -0.2250
 6344SOL    HW325149   1.943   6.113   3.668 -1.4262  0.4363  2.2688
 6344SOL    MW425150   2.012   6.101   3.719 -0.2220  0.0395  0.6467
 6345SOL     OW25151   5.857   1.410   5.562  0.1461  0.3299 -0.0758
 6345SOL    HW225152   5.816   1.497   5.563  0.5488  0.5250 -0.2331
 6345SOL    HW325153   5.786   1.350   5.584 -0.3138  0.6257 -0.7048
 6345SOL    MW425154   5.842   1.414   5.565  0.1386  0.3946 -0.1795
 6346SOL     OW25155   1.506   1.008   3.274  0.1561 -0.0460 -0.2629
 6346SOL    HW225156   1.581   1.036   3.327 -0.6056 -0.5727  1.1442
 6346SOL    HW325157   1.431   1.052   3.314 -0.4726 -0.6431 -0.7607
 6346SOL    MW425158   1.506   1.018   3.286 -0.0274 -0.1942 -0.1430
 6347SOL     OW25159   0.056   5.623   3.500 -0.3593 -0.3348 -0.1655
 6347SOL    HW225160   0.033   5.621   3.593  0.9089 -1.3255  0.1641
 6347SOL    HW325161  -0.025   5.646   3.455 -1.9857 -3.4836  0.8930
 6347SOL    MW425162   0.043   5.626   3.506 -0.4066 -0.8809  0.0176
 6348SOL     OW25163   2.673   5.817   2.005  0.5474 -0.3700  0.2137
 6348SOL    HW225164   2.605   5.815   2.073 -0.8663 -0.4403 -1.1381
 6348SOL    HW325165   2.703   5.908   2.004  0.5635 -0.3604  0.9002
 6348SOL    MW425166   2.668   5.829   2.014  0.3630 -0.3780  0.1260
 6349SOL     OW25167   5.004   5.831   5.596  0.3627 -0.4287  0.0792
 6349SOL    HW225168   4.908   5.834   5.589  0.4153  0.1137 -0.5258
 6349SOL    HW325169   5.032   5.919   5.571  0.8802  0.3039  2.9024
 6349SOL    MW425170   4.995   5.843   5.591  0.4379 -0.2605  0.3719
 6350SOL     OW25171   0.711   6.381   0.702 -0.7091 -0.4449  0.4057
 6350SOL    HW225172   0.781   6.360   0.764  0.9989 -0.7741 -1.5247
 6350SOL    HW325173   0.634   6.392   0.757  0.9772  0.7345  2.7273
 6350SOL    MW425174   0.710   6.379   0.718 -0.2613 -0.3327  0.4573
 6351SOL     OW25175   3.714   3.021   2.457  0.1320 -0.0836  0.5111
 6351SOL    HW225176   3.679   2.935   2.480  0.7369 -0.9499 -1.5573
 6351SOL    HW325177   3.809   3.009   2.453  0.0938 -0.2666 -2.8566
 6351SOL    MW425178   3.722   3.008   2.459  0.2068 -0.2221 -0.2062
 6352SOL     OW25179   2.563   1.542   1.025  0.5265 -0.6130 -0.5281
 6352SOL    HW225180   2.613   1.600   1.081  0.4242  0.5402 -1.6008
 6352SOL    HW325181   2.471   1.565   1.042  0.3809 -1.7762  0.4196
 6352SOL    MW425182   2.557   1.553   1.034  0.4938 -0.6143 -0.5446
 6353SOL     OW25183   5.413   2.662   4.394 -0.4095  0.2791 -0.4318
 6353SOL    HW225184   5.383   2.572   4.412  0.5490 -0.4050 -2.0675
 6353SOL    HW325185   5.387   2.678   4.303 -0.9117  1.8414 -0.0495
 6353SOL    MW425186   5.405   2.652   4.385 -0.3493  0.3950 -0.5972
 6354SOL     OW25187   0.081   3.430   2.272 -0.2592  0.2736 -0.1478
 6354SOL    HW225188   0.133   3.406   2.195 -0.7351 -1.6624  0.0980
 6354SOL    HW325189   0.085   3.526   2.274  1.8961  0.2676 -1.0979
 6354SOL    MW425190   0.089   3.440   2.262 -0.0376  0.0174 -0.2407
 6355SOL     OW25191   1.200   0.874   3.069  0.4924  0.1583 -0.0441
 6355SOL    HW225192   1.188   0.944   3.134  1.3183 -0.2106  0.5224
 6355SOL    HW325193   1.291   0.883   3.041  0.4334 -0.3347 -0.3901
 6355SOL    MW425194   1.210   0.885   3.074  0.5936  0.0446 -0.0150
 6356SOL     OW25195   3.006   4.205   4.229 -0.1822  0.1810 -0.3871
 6356SOL    HW225196   3.064   4.225   4.302 -1.6954  2.2540  0.3405
 6356SOL    HW325197   2.935   4.268   4.236 -1.4041 -0.8176 -2.5337
 6356SOL    MW425198   3.004   4.216   4.239 -0.5431  0.3227 -0.5743
 6357SOL     OW25199   5.904   6.410   3.813 -0.0501  0.0594 -0.5343
 6357SOL    HW225200   5.867   6.481   3.866  0.9800 -0.0701  0.3925
 6357SOL    HW325201   5.917   6.449   3.727 -0.1587  0.7881 -0.2299
 6357SOL    MW425202   5.900   6.425   3.809  0.0714  0.1385 -0.3719
 6358SOL     OW25203   0.790   0.790   1.408 -0.4841 -0.2492 -0.1267
 6358SOL    HW225204   0.870   0.777   1.458 -0.9192 -1.1186  0.3604
 6358SOL    HW325205   0.784   0.885   1.396  0.6739 -0.1799 -0.2813
 6358SOL    MW425206   0.799   0.801   1.413 -0.3887 -0.3548 -0.0828
 6359SOL     OW25207   3.179   2.542   1.197  0.1206  0.0353 -0.4957
 6359SOL    HW225208   3.110   2.478   1.214  0.6237 -0.4869 -0.3739
 6359SOL    HW325209   3.191   2.588   1.280  0.2528 -0.2141 -0.3730
 6359SOL    MW425210   3.172   2.540   1.210  0.2045 -0.0665 -0.4634
 6360SOL     OW25211   1.182   6.227   3.874 -0.0418 -0.6472  0.0052
 6360SOL    HW225212   1.232   6.172   3.813 -0.2515  1.0338 -1.7999
 6360SOL    HW325213   1.227   6.217   3.958  0.0137 -3.3890 -0.2479
 6360SOL    MW425214   1.194   6.218   3.877 -0.0621 -0.7871 -0.2664
 6361SOL     OW25215   5.863   2.296   6.338  0.2414  0.4931 -0.0916
 6361SOL    HW225216   5.920   2.253   6.273  1.0907  2.6476 -0.8389
 6361SOL    HW325217   5.921   2.354   6.386 -0.9289  1.0147  0.7263
 6361SOL    MW425218   5.878   2.298   6.336  0.1990  0.8462 -0.0823
 6362SOL     OW25219   3.719   1.339   5.256 -0.3350 -0.0761 -0.1175
 6362SOL    HW225220   3.654   1.401   5.225  0.6238  0.8435 -0.3651
 6362SOL    HW325221   3.698   1.325   5.348 -0.9118  0.1584 -0.2092
 6362SOL    MW425222   3.708   1.345   5.264 -0.2846  0.0762 -0.1623
 6363SOL     OW25223   5.434   0.254   3.667  0.0392 -0.3090  0.0788
 6363SOL    HW225224   5.466   0.234   3.755 -1.6199 -3.2456  0.1215
 6363SOL    HW325225   5.363   0.317   3.682  0.1204 -0.3673  0.7675
 6363SOL    MW425226   5.429   0.260   3.681 -0.1690 -0.7042  0.1753
 6364SOL     OW25227   6.345   4.355   4.686 -0.2304 -0.4775 -0.8543
 6364SOL    HW225228   6.272   4.333   4.629 -0.7864 -0.1826 -0.2724
 6364SOL    HW325229   6.393   4.423   4.639 -1.4171  0.6939 -0.4348
 6364SOL    MW425230   6.341   4.361   4.672 -0.4603 -0.2840 -0.7222
 6365SOL     OW25231   2.714   5.451   4.850  0.0166 -0.3047  0.6419
 6365SOL    HW225232   2.631   5.469   4.894  0.3421 -2.3517  2.2405
 6365SOL    HW325233   2.689   5.407   4.769 -0.4982  0.3238  0.4547
 6365SOL    MW425234   2.699   5.448   4.845 -0.0083 -0.4918  0.8281
 6366SOL     OW25235   0.455   1.554   4.674  0.2627  0.1815 -0.6610
 6366SOL    HW225236   0.543   1.556   4.637  0.1932  2.2093 -0.8257
 6366SOL    HW325237   0.469   1.540   4.768  0.8621  1.6419 -0.5080
 6366SOL    MW425238   0.469   1.552   4.681  0.3326  0.6417 -0.6625
 6367SOL     OW25239   4.968   5.081   5.008 -0.3493  0.0006 -0.2628
 6367SOL    HW225240   4.953   5.175   5.000  1.2254  0.2676 -0.5009
 6367SOL    HW325241   4.966   5.048   4.918  1.9416  0.3429 -0.5081
 6367SOL    MW425242   4.966   5.089   4.995  0.1607  0.0810 -0.3266
 6368SOL     OW25243   2.621   2.863   5.815  0.1947 -0.8571 -0.1863
 6368SOL    HW225244   2.599   2.792   5.754 -0.6934 -0.2697 -0.5710
 6368SOL    HW325245   2.678   2.822   5.880  0.7451 -1.6213 -1.1243
 6368SOL    MW425246   2.625   2.848   5.815  0.1501 -0.8804 -0.3609
 6369SOL     OW25247   1.720   4.490   3.000 -0.0640 -0.2566  0.3753
 6369SOL    HW225248   1.729   4.581   3.026 -3.4408 -0.0761  1.3904
 6369SOL    HW325249   1.658   4.453   3.063 -0.8403 -2.5320 -1.5612
 6369SOL    MW425250   1.713   4.497   3.011 -0.6119 -0.5330  0.2537
 6370SOL     OW25251   5.985   1.937   6.358 -0.0882  0.3371  0.1850
 6370SOL    HW225252   5.900   1.980   6.367  0.8429  2.6248 -0.9501
 6370SOL    HW325253   6.046   1.994   6.405  1.2987  0.6422 -1.8314
 6370SOL    MW425254   5.982   1.950   6.365  0.2176  0.6792 -0.2308
 6371SOL     OW25255   0.043   0.345   6.062 -0.0051  0.9534 -0.0703
 6371SOL    HW225256  -0.026   0.350   5.997 -1.8515 -0.0111  1.6904
 6371SOL    HW325257   0.022   0.267   6.113  1.9262  1.1098  1.0462
 6371SOL    MW425258   0.031   0.335   6.060  0.0061  0.8468  0.3093
 6372SOL     OW25259   3.338   4.569   5.785 -0.5773  0.0701  0.0676
 6372SOL    HW225260   3.318   4.497   5.844  0.2651  0.4697  0.8790
 6372SOL    HW325261   3.260   4.624   5.786 -0.8758 -0.3514  0.1649
 6372SOL    MW425262   3.325   4.567   5.793 -0.5056  0.0672  0.1875
 6373SOL     OW25263   1.172   0.687   0.697  0.5060  0.2500  0.2622
 6373SOL    HW225264   1.185   0.775   0.662 -0.6260  0.4472  0.2890
 6373SOL    HW325265   1.226   0.630   0.642 -0.5958  0.6645 -1.3034
 6373SOL    MW425266   1.180   0.691   0.685  0.2112  0.3307  0.0592
 6374SOL     OW25267   2.496   2.571   6.137 -0.2606 -0.5105  0.5794
 6374SOL    HW225268   2.586   2.560   6.169 -0.5426 -3.3511  0.6768
 6374SOL    HW325269   2.499   2.541   6.046 -0.8661  0.7884  0.1008
 6374SOL    MW425270   2.509   2.566   6.129 -0.3777 -0.7139  0.5291
 6375SOL     OW25271   5.383   1.807   5.085  0.3281 -0.4172 -0.1992
 6375SOL    HW225272   5.415   1.818   4.995  2.0733  2.4506  0.6185
 6375SOL    HW325273   5.462   1.805   5.138 -0.7044 -1.0854  1.3793
 6375SOL    MW425274   5.398   1.808   5.080  0.4221 -0.1270  0.1169
 6376SOL     OW25275   3.006   0.052   0.625 -0.2936 -0.0448  0.0458
 6376SOL    HW225276   2.935   0.044   0.561 -1.0196  0.7859  0.7246
 6376SOL    HW325277   3.057  -0.029   0.615 -1.4469 -0.7455 -0.3165
 6376SOL    MW425278   3.003   0.040   0.615 -0.5416 -0.0277  0.0875
 6377SOL     OW25279   2.046   2.497   6.099  0.2800 -0.7485 -0.2393
 6377SOL    HW225280   1.996   2.429   6.054  2.6705 -3.4247  0.8304
 6377SOL    HW325281   2.119   2.516   6.040 -0.3174  1.0109 -0.5071
 6377SOL    MW425282   2.049   2.491   6.085  0.5166 -0.8695 -0.1335
 6378SOL     OW25283   1.703   2.219   3.720  0.0914 -0.3989  0.5495
 6378SOL    HW225284   1.673   2.297   3.675 -0.4255 -1.0051 -0.1721
 6378SOL    HW325285   1.796   2.211   3.696  0.0774 -0.1588  0.4189
 6378SOL    MW425286   1.712   2.228   3.711  0.0213 -0.4472  0.4371
 6379SOL     OW25287   5.623   0.709   0.147 -0.0405 -0.3016  0.0986
 6379SOL    HW225288   5.623   0.742   0.237  0.3874 -0.8227  0.2939
 6379SOL    HW325289   5.711   0.725   0.115  0.1512 -1.1376  0.1637
 6379SOL    MW425290   5.635   0.715   0.155  0.0412 -0.4807  0.1329
 6380SOL     OW25291   4.637   6.375   1.443  0.0369  0.1649  0.0054
 6380SOL    HW225292   4.648   6.319   1.366 -1.1088 -0.0661 -0.0034
 6380SOL    HW325293   4.574   6.441   1.416  1.2969  1.4374  0.0509
 6380SOL    MW425294   4.630   6.376   1.429  0.0520  0.3023  0.0103
 6381SOL     OW25295   3.246   2.365   0.110  0.0735 -0.4985  0.3516
 6381SOL    HW225296   3.167   2.318   0.138  0.9661 -0.5067  3.1212
 6381SOL    HW325297   3.222   2.457   0.114 -0.0638 -0.5315  0.2869
 6381SOL    MW425298   3.232   2.371   0.114  0.1732 -0.5039  0.7085
 6382SOL     OW25299   6.401   5.775   1.789 -0.0657 -0.0017  0.0201
 6382SOL    HW225300   6.395   5.680   1.784 -1.1468  0.0538  0.0517
 6382SOL    HW325301   6.464   5.791   1.860 -0.5243 -0.6930  0.6051
 6382SOL    MW425302   6.408   5.765   1.798 -0.2688 -0.0856  0.1015
 6383SOL     OW25303   5.744   5.867   0.521  0.1889 -0.2782  0.2658
 6383SOL    HW225304   5.836   5.884   0.537  0.8225 -0.2603 -2.7750
 6383SOL    HW325305   5.698   5.943   0.556  1.2672 -0.3697  1.9551
 6383SOL    MW425306   5.750   5.879   0.527  0.4148 -0.2879  0.0875
 6384SOL     OW25307   0.341   6.060   0.229 -0.2506 -0.2784  0.3702
 6384SOL    HW225308   0.371   5.969   0.227 -0.1599 -0.2426 -0.0803
 6384SOL    HW325309   0.356   6.089   0.319 -0.0385 -0.6292  0.4483
 6384SOL    MW425310   0.347   6.052   0.240 -0.2106 -0.3199  0.3211
 6385SOL     OW25311   2.458   3.015   5.412 -0.0827  0.4658  0.0884
 6385SOL    HW225312   2.375   3.057   5.387  0.2481  1.0913  0.0352
 6385SOL    HW325313   2.440   2.976   5.498 -0.2666  1.1018  0.3442
 6385SOL    MW425314   2.444   3.016   5.420 -0.0633  0.6322  0.1151
 6386SOL     OW25315   6.192   4.247   3.261 -0.2333  0.5618 -0.4271
 6386SOL    HW225316   6.149   4.197   3.191  2.3973  0.2917 -1.9790
 6386SOL    HW325317   6.209   4.332   3.221  1.4222  0.3592 -0.1912
 6386SOL    MW425318   6.188   4.251   3.246  0.3322  0.4994 -0.6008
 6387SOL     OW25319   3.207   4.404   4.892 -0.0039  0.2558  0.0180
 6387SOL    HW225320   3.135   4.464   4.911 -0.7550 -0.6032 -0.0225
 6387SOL    HW325321   3.217   4.352   4.972  2.3581  2.0717  1.0287
 6387SOL    MW425322   3.199   4.405   4.905  0.2086  0.3820  0.1460
 6388SOL     OW25323   1.820   4.184   4.623  0.5242 -0.8555  0.7712
 6388SOL    HW225324   1.887   4.116   4.631  2.1682  0.1070 -2.6965
 6388SOL    HW325325   1.752   4.145   4.568  0.9593 -0.1582 -0.3169
 6388SOL    MW425326   1.820   4.170   4.616  0.7985 -0.6365  0.1701
 6389SOL     OW25327   4.471   1.860   3.557  0.2589 -0.2441 -0.6323
 6389SOL    HW225328   4.520   1.779   3.543  1.0557 -0.2918  1.9388
 6389SOL    HW325329   4.478   1.907   3.474  0.8366 -2.2363 -1.7812
 6389SOL    MW425330   4.478   1.856   3.544  0.4402 -0.5133 -0.4447
 6390SOL     OW25331   3.162   4.445   0.654  0.1211 -0.0210 -0.4402
 6390SOL    HW225332   3.115   4.472   0.576 -1.5759  1.0206  0.8783
 6390SOL    HW325333   3.240   4.401   0.621  0.1901  1.6405 -2.7045
 6390SOL    MW425334   3.166   4.443   0.640 -0.0937  0.3356 -0.5650
 6391SOL     OW25335   0.398   0.791   1.897 -0.0459 -0.1832 -0.4195
 6391SOL    HW225336   0.464   0.723   1.907  1.3547  0.8695 -1.9825
 6391SOL    HW325337   0.367   0.781   1.806  0.8681  1.7932 -0.9963
 6391SOL    MW425338   0.402   0.781   1.886  0.2595  0.2165 -0.7018
 6392SOL     OW25339   3.389   6.108   4.272  0.7788 -0.2587  0.2723
 6392SOL    HW225340   3.320   6.050   4.302  0.3667 -0.3052 -0.7342
 6392SOL    HW325341   3.449   6.115   4.347  0.0476 -0.7539  0.9184
 6392SOL    MW425342   3.388   6.102   4.286  0.6280 -0.3302  0.2248
 6393SOL     OW25343   3.179   4.816   4.212  0.2615  0.0194  0.3371
 6393SOL    HW225344   3.214   4.897   4.250 -1.0494  1.4732 -1.3574
 6393SOL    HW325345   3.256   4.768   4.182  1.0223  2.0437 -1.2110
 6393SOL    MW425346   3.193   4.821   4.213  0.1889  0.4783 -0.0907
 6394SOL     OW25347   1.819   4.755   5.399 -0.4663  0.1972  0.7995
 6394SOL    HW225348   1.872   4.680   5.425 -0.7295 -0.0931  0.5075
 6394SOL    HW325349   1.760   4.770   5.473  0.3375  0.8274  1.3342
 6394SOL    MW425350   1.818   4.747   5.412 -0.3950  0.2420  0.8315
 6395SOL     OW25351   5.157   5.486   5.050 -0.1814 -0.3696 -0.2393
 6395SOL    HW225352   5.217   5.412   5.046  0.9565  0.5740 -2.4759
 6395SOL    HW325353   5.201   5.555   5.000 -1.9711  1.2467  0.2966
 6395SOL    MW425354   5.170   5.485   5.043 -0.2674 -0.0318 -0.4637
 6396SOL     OW25355   3.982   1.565   4.608  0.0116 -0.4328 -0.2404
 6396SOL    HW225356   3.905   1.600   4.651  0.7349  1.1378 -0.1490
 6396SOL    HW325357   3.963   1.472   4.594 -1.8032 -0.1052 -0.0695
 6396SOL    MW425358   3.970   1.557   4.612 -0.1324 -0.1823 -0.2058
 6397SOL     OW25359   3.987   0.535   2.802  0.0329 -0.2378 -0.0339
 6397SOL    HW225360   3.917   0.530   2.738  0.4020  0.1858 -0.4876
 6397SOL    HW325361   4.029   0.620   2.785  0.3400 -0.2627  0.5529
 6397SOL    MW425362   3.983   0.546   2.791  0.1222 -0.1852 -0.0164
 6398SOL     OW25363   1.477   0.285   1.393 -0.0609  0.0290 -0.2287
 6398SOL    HW225364   1.402   0.225   1.402 -1.2172  1.3907 -0.3331
 6398SOL    HW325365   1.513   0.292   1.481 -0.3113 -0.3271 -0.0968
 6398SOL    MW425366   1.472   0.278   1.406 -0.2465  0.1617 -0.2251
 6399SOL     OW25367   3.243   6.219   3.043  0.1862 -0.1223  0.8293
 6399SOL    HW225368   3.324   6.190   3.001 -1.0695 -2.3530 -0.2383
 6399SOL    HW325369   3.225   6.304   3.003  2.2613  0.7092  1.5278
 6399SOL    MW425370   3.251   6.226   3.032  0.2943 -0.3069  0.7806
 6400SOL     OW25371   2.544   0.788   2.635  0.1540 -0.1215  0.0789
 6400SOL    HW225372   2.574   0.804   2.546 -0.7369  3.3380  0.2608
 6400SOL    HW325373   2.453   0.760   2.624  0.5139 -1.2795 -0.1050
 6400SOL    MW425374   2.536   0.786   2.622  0.0839  0.1822  0.0786
 6401SOL     OW25375   2.971   5.376   2.257 -0.3181 -0.5444 -0.0773
 6401SOL    HW225376   2.998   5.432   2.330 -1.8225  1.5809 -1.0427
 6401SOL    HW325377   2.907   5.316   2.295  0.6194 -1.0288  0.7904
 6401SOL    MW425378   2.966   5.376   2.272 -0.3929 -0.3279 -0.0902
 6402SOL     OW25379   4.321   1.511   0.302  0.3033  0.3847 -0.2552
 6402SOL    HW225380   4.390   1.445   0.298  0.0741  0.1903 -1.5642
 6402SOL    HW325381   4.340   1.569   0.229  0.5480  1.8392  0.9310
 6402SOL    MW425382   4.332   1.510   0.292  0.3054  0.5509 -0.2714
 6403SOL     OW25383   2.045   0.586   3.602 -0.8773 -0.0861  0.2386
 6403SOL    HW225384   2.066   0.558   3.691  0.4392  0.9405  0.2831
 6403SOL    HW325385   2.109   0.542   3.546 -3.2253 -2.7632 -0.6104
 6403SOL    MW425386   2.056   0.577   3.606 -1.0134 -0.3039  0.1324
 6404SOL     OW25387   4.997   0.353   0.174 -0.5288 -0.0567 -0.4162
 6404SOL    HW225388   4.985   0.311   0.089  0.1518 -0.5886 -0.2545
 6404SOL    HW325389   4.934   0.425   0.174  0.0892  0.5063 -1.7293
 6404SOL    MW425390   4.987   0.357   0.163 -0.3574 -0.0526 -0.5681
 6405SOL     OW25391   6.201   3.419   0.091 -0.3894  0.1369 -0.0733
 6405SOL    HW225392   6.164   3.452   0.173  0.6000 -1.9046  1.3139
 6405SOL    HW325393   6.140   3.350   0.064 -0.1321  0.0570 -0.4549
 6405SOL    MW425394   6.188   3.414   0.099 -0.2249 -0.1430  0.0594
 6406SOL     OW25395   1.565   0.376   6.342  0.0724 -0.2587  0.0366
 6406SOL    HW225396   1.499   0.353   6.407  0.0163  1.3817  0.6041
 6406SOL    HW325397   1.627   0.432   6.389  1.7297 -1.5182 -0.5673
 6406SOL    MW425398   1.564   0.380   6.357  0.2837 -0.2085  0.0318
 6407SOL     OW25399   6.101   2.272   0.291  0.6925 -0.0781 -0.4408
 6407SOL    HW225400   6.066   2.185   0.270 -1.6722  0.8075 -0.4716
 6407SOL    HW325401   6.038   2.309   0.353  1.7924  1.5179 -0.2118
 6407SOL    MW425402   6.088   2.265   0.296  0.5256  0.2493 -0.4146
 6408SOL     OW25403   5.737   4.073   0.549  0.5112  0.7551 -0.4662
 6408SOL    HW225404   5.678   4.127   0.602  1.4640  1.5917 -0.2011
 6408SOL    HW325405   5.682   4.004   0.513  0.0381 -0.7105  2.7457
 6408SOL    MW425406   5.722   4.071   0.552  0.5745  0.6721 -0.0074
 6409SOL     OW25407   3.954   2.099   0.619 -0.0760  0.2960 -0.3714
 6409SOL    HW225408   3.941   2.016   0.663  0.0105  0.4551 -0.0395
 6409SOL    HW325409   3.979   2.160   0.689 -1.1301  0.8416 -0.4559
 6409SOL    MW425410   3.956   2.096   0.634 -0.2037  0.3890 -0.3388
 6410SOL     OW25411   1.562   6.358   6.407  0.2689 -0.4012  0.2722
 6410SOL    HW225412   1.504   6.355   6.483  1.9074 -0.2512  1.5971
 6410SOL    HW325413   1.585   6.266   6.392 -1.7498 -0.7039 -1.5020
 6410SOL    MW425414   1.557   6.345   6.415  0.2187 -0.4213  0.2129
 6411SOL     OW25415   3.782   6.056   5.484 -0.3757  0.2244 -0.3194
 6411SOL    HW225416   3.702   6.044   5.432 -0.1243  0.8101 -0.8727
 6411SOL    HW325417   3.842   5.990   5.450 -0.7619 -0.5133  0.4059
 6411SOL    MW425418   3.779   6.046   5.472 -0.3935  0.2043 -0.2967
 6412SOL     OW25419   4.275   1.355   2.979  0.3488  0.0737  0.1540
 6412SOL    HW225420   4.292   1.410   2.903  2.8684  1.5662  1.6634
 6412SOL    HW325421   4.331   1.278   2.966  0.3077  0.0351  0.2024
 6412SOL    MW425422   4.285   1.352   2.967  0.6758  0.2656  0.3595
 6413SOL     OW25423   0.413   2.944   0.999 -0.6959  0.3909  0.9685
 6413SOL    HW225424   0.457   3.028   1.010 -1.5136  0.6591  2.5035
 6413SOL    HW325425   0.390   2.917   1.088 -0.6721 -1.3472  0.4921
 6413SOL    MW425426   0.416   2.951   1.012 -0.8006  0.1970  1.1082
 6414SOL     OW25427   0.169   0.229   0.799 -0.0815  0.0760 -0.2013
 6414SOL    HW225428   0.129   0.142   0.808 -0.2904  0.2691  0.9851
 6414SOL    HW325429   0.158   0.251   0.707 -1.2289 -0.5954 -0.2550
 6414SOL    MW425430   0.162   0.220   0.788 -0.2604  0.0129 -0.0518
 6415SOL     OW25431   5.624   4.877   1.155 -0.2988  0.7771 -0.2688
 6415SOL    HW225432   5.648   4.946   1.217  0.0588  0.6857 -0.3018
 6415SOL    HW325433   5.694   4.878   1.090 -1.3825  1.8376 -1.4862
 6415SOL    MW425434   5.636   4.886   1.155 -0.3946  0.9050 -0.4338
 6416SOL     OW25435   1.477   0.382   2.211 -0.2142 -0.6955 -0.2869
 6416SOL    HW225436   1.450   0.471   2.231 -2.5275 -1.4760  0.4047
 6416SOL    HW325437   1.524   0.353   2.289  0.5848 -0.0920 -0.5331
 6416SOL    MW425438   1.480   0.390   2.224 -0.4140 -0.7188 -0.2281
 6417SOL     OW25439   4.091   2.539   0.047  0.6271 -0.3858  0.1502
 6417SOL    HW225440   4.038   2.619   0.054  0.4366 -0.5068  0.0896
 6417SOL    HW325441   4.032   2.468   0.071  0.4270 -0.6419 -1.0570
 6417SOL    MW425442   4.076   2.541   0.051  0.5756 -0.4356 -0.0171
 6418SOL     OW25443   6.131   4.183   2.803  0.4048 -0.0290 -0.1690
 6418SOL    HW225444   6.209   4.203   2.855  1.1879 -0.8945 -0.9716
 6418SOL    HW325445   6.162   4.182   2.712 -0.7982  0.7970 -0.6166
 6418SOL    MW425446   6.145   4.186   2.798  0.3494 -0.0342 -0.3340
 6419SOL     OW25447   1.062   1.582   5.531 -0.5751 -0.4315  0.2352
 6419SOL    HW225448   1.036   1.516   5.468  0.4014 -1.1621  0.5713
 6419SOL    HW325449   0.983   1.633   5.547 -1.0593 -0.8038 -0.8800
 6419SOL    MW425450   1.048   1.580   5.524 -0.5102 -0.5770  0.1324
 6420SOL     OW25451   1.131   4.316   2.393  0.1531 -0.7359 -0.9993
 6420SOL    HW225452   1.101   4.238   2.346 -0.2415 -1.3140  0.1568
 6420SOL    HW325453   1.060   4.335   2.455 -0.0428  0.9356 -1.6787
 6420SOL    MW425454   1.117   4.308   2.395  0.0752 -0.5916 -0.9364
 6421SOL     OW25455   3.633   1.295   2.336 -0.2010  0.5481 -0.1205
 6421SOL    HW225456   3.551   1.280   2.383 -0.1155 -1.6749 -0.5976
 6421SOL    HW325457   3.628   1.387   2.309 -2.5822  0.4625 -0.1826
 6421SOL    MW425458   3.621   1.305   2.338 -0.5039  0.2435 -0.1917
 6422SOL     OW25459   5.080   4.500   1.055  0.2421  0.1434 -0.3040
 6422SOL    HW225460   5.108   4.591   1.062 -0.6455  0.4431 -0.5617
 6422SOL    HW325461   5.130   4.465   0.982  0.7865  0.3423 -0.0348
 6422SOL    MW425462   5.090   4.508   1.046  0.1968  0.2092 -0.3025
 6423SOL     OW25463   5.524   1.502   5.181  0.2152  0.0360  0.0439
 6423SOL    HW225464   5.472   1.576   5.214  0.7692  0.1943  0.5890
 6423SOL    HW325465   5.477   1.425   5.211  0.8940  0.1763  1.5556
 6423SOL    MW425466   5.511   1.502   5.189  0.3779  0.0754  0.3152
 6424SOL     OW25467   0.956   6.191   5.674  0.2554 -0.0007  0.3746
 6424SOL    HW225468   0.912   6.231   5.749  1.4591  3.1560 -0.4249
 6424SOL    HW325469   0.928   6.243   5.599 -0.8827 -3.0372 -1.5086
 6424SOL    MW425470   0.947   6.203   5.674  0.2641  0.0151  0.0206
 6425SOL     OW25471   0.445   4.472   2.703 -0.1909  0.4219  0.0506
 6425SOL    HW225472   0.399   4.548   2.668  0.1195  0.3095 -0.6239
 6425SOL    HW325473   0.521   4.509   2.748 -0.8202  0.5945  0.9960
 6425SOL    MW425474   0.449   4.487   2.704 -0.2330  0.4299  0.0864
 6426SOL     OW25475   5.655   0.149   1.094 -0.1996  0.1356 -0.3520
 6426SOL    HW225476   5.668   0.103   1.011  0.2841 -1.5014  0.5719
 6426SOL    HW325477   5.710   0.102   1.156 -1.4049  0.5953  1.1440
 6426SOL    MW425478   5.664   0.137   1.091 -0.2948 -0.0197 -0.0327
 6427SOL     OW25479   4.874   0.032   2.285  0.3768  0.7245 -0.4800
 6427SOL    HW225480   4.842  -0.041   2.339 -0.0454  0.2660 -1.3436
 6427SOL    HW325481   4.905  -0.010   2.205  1.0001  1.4090 -0.5983
 6427SOL    MW425482   4.874   0.017   2.282  0.4033  0.7543 -0.6095
 6428SOL     OW25483   2.148   2.251   5.296 -0.4729 -0.3427  0.2283
 6428SOL    HW225484   2.233   2.217   5.269 -0.8936 -1.6526  0.4718
 6428SOL    HW325485   2.152   2.255   5.391 -0.0634  1.3479  0.1667
 6428SOL    MW425486   2.159   2.247   5.305 -0.4744 -0.2925  0.2523
 6429SOL     OW25487   1.135   2.305   3.469  0.2329  0.0098 -0.0850
 6429SOL    HW225488   1.127   2.243   3.396 -0.2628 -2.0554  1.5941
 6429SOL    HW325489   1.223   2.290   3.504 -0.1962 -0.4498  0.8669
 6429SOL    MW425490   1.145   2.295   3.464  0.1108 -0.3233  0.2621
 6430SOL     OW25491   2.344   4.210   1.965  0.4379  0.2121 -0.3559
 6430SOL    HW225492   2.412   4.234   1.901  0.3852  0.8909 -0.1696
 6430SOL    HW325493   2.336   4.287   2.021  2.0824 -1.1211  1.8840
 6430SOL    MW425494   2.352   4.223   1.964  0.6480  0.1258 -0.0358
 6431SOL     OW25495   3.858   2.864   1.274  0.3408 -0.3206  0.2118
 6431SOL    HW225496   3.780   2.846   1.326  0.3268 -0.9920 -0.0358
 6431SOL    HW325497   3.908   2.927   1.327  1.2062 -2.3122  1.8980
 6431SOL    MW425498   3.855   2.870   1.288  0.4531 -0.6719  0.4016
 6432SOL     OW25499   4.299   6.239   1.909 -0.2991 -0.2271  0.8571
 6432SOL    HW225500   4.387   6.273   1.919  0.2197 -0.9699 -0.8257
 6432SOL    HW325501   4.251   6.308   1.863  0.5116 -1.2817 -1.7464
 6432SOL    MW425502   4.304   6.253   1.904 -0.1237 -0.4642  0.2916
 6433SOL     OW25503   2.699   5.800   3.031  0.2402 -0.2300 -0.0326
 6433SOL    HW225504   2.760   5.811   3.104 -0.5180 -0.1288  0.6008
 6433SOL    HW325505   2.755   5.780   2.955  1.0125 -0.6327  0.6300
 6433SOL    MW425506   2.714   5.799   3.030  0.2420 -0.2698  0.1384
 6434SOL     OW25507   5.122   0.553   3.155 -0.5413 -0.6020  0.5327
 6434SOL    HW225508   5.029   0.569   3.172 -0.6156 -0.9921  0.5075
 6434SOL    HW325509   5.122   0.485   3.088 -0.2419  0.3589 -0.4811
 6434SOL    MW425510   5.109   0.546   3.148 -0.5116 -0.5267  0.3956
 6435SOL     OW25511   3.717   4.984   4.723 -0.0587 -0.1750  0.4756
 6435SOL    HW225512   3.660   5.056   4.751  1.4884  0.2776  2.7314
 6435SOL    HW325513   3.659   4.907   4.723 -1.3107  0.7177 -0.2207
 6435SOL    MW425514   3.702   4.983   4.727 -0.0198  0.0025  0.6814
 6436SOL     OW25515   2.068   2.963   3.809 -0.2447  0.1615 -0.0836
 6436SOL    HW225516   2.105   2.955   3.897  2.0399 -1.5562 -1.1148
 6436SOL    HW325517   2.013   2.885   3.799 -0.2744  0.2107 -0.3021
 6436SOL    MW425518   2.065   2.952   3.819  0.0528 -0.0587 -0.2485
 6437SOL     OW25519   5.351   4.839   6.083 -0.1260 -0.3489  0.2037
 6437SOL    HW225520   5.415   4.819   6.151  1.2086  0.8994 -0.6382
 6437SOL    HW325521   5.266   4.825   6.125  0.6729 -0.6008  1.7984
 6437SOL    MW425522   5.348   4.834   6.097  0.1555 -0.2175  0.3030
 6438SOL     OW25523   2.616   3.324   4.198  0.6597  0.2677 -0.1181
 6438SOL    HW225524   2.585   3.413   4.212 -0.9212 -0.4573  1.5587
 6438SOL    HW325525   2.711   3.330   4.204  0.5650  1.7826  0.2628
 6438SOL    MW425526   2.624   3.336   4.201  0.4386  0.3720  0.1534
 6439SOL     OW25527   0.376   0.313   6.331 -0.3623 -0.1515 -0.6179
 6439SOL    HW225528   0.397   0.379   6.264 -0.6023  0.6427  0.0656
 6439SOL    HW325529   0.381   0.361   6.413 -2.0963 -0.5974 -0.2128
 6439SOL    MW425530   0.379   0.328   6.333 -0.6227 -0.1056 -0.4742
 6440SOL     OW25531   5.437   0.897   2.064 -0.3516 -0.7015  0.1233
 6440SOL    HW225532   5.360   0.840   2.055 -0.2274 -0.9319  0.4727
 6440SOL    HW325533   5.445   0.910   2.159 -1.5241  1.4795 -0.0232
 6440SOL    MW425534   5.427   0.891   2.075 -0.4899 -0.4442  0.1501
 6441SOL     OW25535   1.395   4.551   3.650 -0.2825 -0.5387  0.0165
 6441SOL    HW225536   1.480   4.595   3.649 -0.6681  0.2714  0.9064
 6441SOL    HW325537   1.375   4.540   3.743 -1.9671  0.9534 -0.1031
 6441SOL    MW425538   1.403   4.556   3.662 -0.5556 -0.2349  0.1181
 6442SOL     OW25539   6.411   3.880   0.526 -0.1244  0.1024  0.1361
 6442SOL    HW225540   6.412   3.824   0.603  2.2987  0.3103  0.3029
 6442SOL    HW325541   6.480   3.845   0.470 -3.5801 -1.9434 -3.4466
 6442SOL    MW425542   6.420   3.868   0.529 -0.2607 -0.1401 -0.3146
 6443SOL     OW25543   6.022   6.418   6.124  0.6601 -0.3519 -0.3190
 6443SOL    HW225544   5.989   6.395   6.211  0.1987  0.0079 -0.3909
 6443SOL    HW325545   5.990   6.348   6.067 -0.1106  0.0626 -0.4105
 6443SOL    MW425546   6.013   6.406   6.128  0.4975 -0.2498 -0.3406
 6444SOL     OW25547   4.766   0.683   5.914  0.1247  0.4416 -0.3962
 6444SOL    HW225548   4.804   0.717   5.994  2.1650  0.1742 -1.1870
 6444SOL    HW325549   4.841   0.672   5.855 -1.1397 -0.5759 -1.8878
 6444SOL    MW425550   4.781   0.686   5.917  0.2271  0.2720 -0.6973
 6445SOL     OW25551   5.652   1.920   5.478 -0.2886  0.4964 -0.0750
 6445SOL    HW225552   5.564   1.924   5.514  0.0054 -1.4555  0.9897
 6445SOL    HW325553   5.640   1.893   5.387 -0.7881 -0.3258  0.2227
 6445SOL    MW425554   5.639   1.917   5.471 -0.3157  0.1304  0.1048
 6446SOL     OW25555   1.917   3.041   4.792  0.0128  0.2782  0.7056
 6446SOL    HW225556   1.836   3.092   4.799 -0.2556 -0.1039  0.4626
 6446SOL    HW325557   1.938   3.043   4.699 -0.3375 -0.5524  0.5982
 6446SOL    MW425558   1.909   3.048   4.781 -0.0688  0.1182  0.6594
 6447SOL     OW25559   6.015   5.630   4.568 -0.4305  0.5084  0.4526
 6447SOL    HW225560   5.966   5.550   4.586  0.1972 -0.0926 -0.3890
 6447SOL    HW325561   6.097   5.619   4.616 -0.3824  0.6997  0.4164
 6447SOL    MW425562   6.020   5.618   4.577 -0.3414  0.4544  0.3368
 6448SOL     OW25563   0.486   1.331   3.017  0.1584 -0.5524  0.0661
 6448SOL    HW225564   0.415   1.324   2.953 -0.9362  0.5269  1.0823
 6448SOL    HW325565   0.531   1.247   3.013 -0.9397 -1.1248 -0.8968
 6448SOL    MW425566   0.482   1.319   3.008 -0.1309 -0.4855  0.0732
 6449SOL     OW25567   5.250   4.013   2.742  0.1432  0.1864  0.2301
 6449SOL    HW225568   5.168   4.057   2.765 -0.0550  0.3146 -0.6823
 6449SOL    HW325569   5.313   4.084   2.731  0.5127  0.0600  1.3998
 6449SOL    MW425570   5.247   4.028   2.743  0.1658  0.1867  0.2641
 6450SOL     OW25571   6.252   5.434   4.306  0.2905 -0.6674 -0.4205
 6450SOL    HW225572   6.248   5.393   4.220 -0.8405  0.3573 -0.8869
 6450SOL    HW325573   6.182   5.500   4.304  0.1966 -0.6847  1.3125
 6450SOL    MW425574   6.242   5.437   4.294  0.1289 -0.5345 -0.2533
 6451SOL     OW25575   4.948   3.995   5.131 -0.3313  0.4717  0.6439
 6451SOL    HW225576   4.906   3.932   5.189  0.1502 -0.4031  0.0733
 6451SOL    HW325577   4.878   4.055   5.105 -1.0225 -0.3888  0.4625
 6451SOL    MW425578   4.933   3.994   5.135 -0.3589  0.2427  0.5447
 6452SOL     OW25579   0.191   1.632   3.012 -0.2673  0.3235  0.6058
 6452SOL    HW225580   0.171   1.587   2.930 -2.5254  1.1168  0.6656
 6452SOL    HW325581   0.275   1.676   2.995 -0.3231 -0.1276 -1.0126
 6452SOL    MW425582   0.200   1.632   2.999 -0.5726  0.3686  0.4001
 6453SOL     OW25583   3.420   4.442   4.348  0.3021 -0.0612 -0.1197
 6453SOL    HW225584   3.509   4.424   4.379 -0.5977 -1.4137  1.8735
 6453SOL    HW325585   3.404   4.533   4.373  0.6977 -0.1922  0.6617
 6453SOL    MW425586   3.430   4.452   4.355  0.2356 -0.2569  0.2464
 6454SOL     OW25587   4.737   1.338   1.328 -0.2065 -0.0613  0.5875
 6454SOL    HW225588   4.810   1.310   1.384 -0.4372 -0.8983  0.4853
 6454SOL    HW325589   4.680   1.388   1.387 -0.8455 -1.5898  1.3349
 6454SOL    MW425590   4.739   1.341   1.343 -0.3213 -0.3734  0.6726
 6455SOL     OW25591   3.905   0.365   0.769 -0.3410 -0.6119 -0.5543
 6455SOL    HW225592   3.993   0.359   0.807 -0.1377  1.7554 -0.4833
 6455SOL    HW325593   3.912   0.321   0.685  0.4114 -1.9954  0.1950
 6455SOL    MW425594   3.918   0.358   0.763 -0.2149 -0.4821 -0.4461
 6456SOL     OW25595   3.273   1.576   1.255  0.5087  0.6225 -0.1316
 6456SOL    HW225596   3.317   1.540   1.178  0.8628  1.5251 -0.3558
 6456SOL    HW325597   3.316   1.660   1.271 -2.2017  2.3846 -1.4027
 6456SOL    MW425598   3.284   1.582   1.247  0.1978  0.9741 -0.3289
 6457SOL     OW25599   4.209   2.921   2.347 -0.2530  0.0778 -0.4119
 6457SOL    HW225600   4.210   2.860   2.273  0.0725  0.5684 -0.8234
 6457SOL    HW325601   4.298   2.956   2.350 -0.1667 -0.1788  0.4268
 6457SOL    MW425602   4.221   2.918   2.338 -0.1987  0.1087 -0.3556
 6458SOL     OW25603   1.496   2.955   1.157 -0.0703 -0.2236 -0.5265
 6458SOL    HW225604   1.569   2.987   1.210 -0.2502  0.6800 -0.8028
 6458SOL    HW325605   1.515   2.986   1.068  0.1004 -1.4996 -0.9560
 6458SOL    MW425606   1.508   2.963   1.152 -0.0716 -0.2727 -0.6196
 6459SOL     OW25607   2.676   6.193   5.390 -0.4302 -0.1978 -0.0487
 6459SOL    HW225608   2.593   6.150   5.412 -0.9311 -0.1178 -1.6473
 6459SOL    HW325609   2.743   6.130   5.417 -0.8997  0.2926  2.5270
 6459SOL    MW425610   2.674   6.179   5.396 -0.5583 -0.1226  0.0802
 6460SOL     OW25611   5.023   3.020   1.260  0.7418 -0.0446 -1.1435
 6460SOL    HW225612   4.952   2.986   1.205  1.4201 -1.7953 -1.0009
 6460SOL    HW325613   5.080   2.945   1.274  0.3600  0.1648  2.3446
 6460SOL    MW425614   5.021   3.006   1.255  0.7809 -0.2479 -0.6645
 6461SOL     OW25615   6.366   0.840   1.836  0.7801  0.1854 -0.0903
 6461SOL    HW225616   6.295   0.784   1.805  0.3567 -0.0730  1.2871
 6461SOL    HW325617   6.446   0.798   1.804  0.3292  0.5242 -1.7255
 6461SOL    MW425618   6.368   0.827   1.828  0.6647  0.1960 -0.1243
 6462SOL     OW25619   6.218   4.771   4.867  0.1452 -0.5220  0.2911
 6462SOL    HW225620   6.162   4.698   4.841  0.6127 -0.9978  0.6077
 6462SOL    HW325621   6.281   4.779   4.795  0.1879 -0.5307  0.3275
 6462SOL    MW425622   6.219   4.763   4.854  0.2125 -0.5859  0.3376
 6463SOL     OW25623   0.467   2.205   4.807 -0.1211  0.1830 -0.5802
 6463SOL    HW225624   0.421   2.131   4.767 -2.4828  0.9742  0.4920
 6463SOL    HW325625   0.498   2.171   4.891  1.4936 -0.3985 -1.3730
 6463SOL    MW425626   0.465   2.191   4.813 -0.2196  0.2107 -0.5433
 6464SOL     OW25627   1.968   3.943   2.650  0.3733  0.0132 -0.1621
 6464SOL    HW225628   2.023   3.865   2.647  1.3392  0.5626  1.6439
 6464SOL    HW325629   1.919   3.941   2.568  2.0522 -1.2606 -1.2090
 6464SOL    MW425630   1.969   3.933   2.639  0.7222 -0.0824 -0.0620
 6465SOL     OW25631   4.381   1.742   1.989 -0.7966  0.0640 -0.0881
 6465SOL    HW225632   4.420   1.828   2.006  0.6169 -0.4991 -0.3336
 6465SOL    HW325633   4.340   1.718   2.072  0.2416  0.2638  0.5113
 6465SOL    MW425634   4.381   1.750   2.002 -0.4731  0.0161 -0.0414
 6466SOL     OW25635   1.391   6.012   0.031 -0.4347 -0.2133  0.4895
 6466SOL    HW225636   1.322   6.075   0.053 -0.9395 -0.6345  0.1204
 6466SOL    HW325637   1.347   5.927   0.029 -0.4881 -0.1926 -2.3652
 6466SOL    MW425638   1.376   6.009   0.034 -0.5084 -0.2662  0.0642
 6467SOL     OW25639   5.231   5.020   5.070 -0.2960  0.2705 -0.4085
 6467SOL    HW225640   5.144   5.060   5.058 -0.7700  0.0674  1.8862
 6467SOL    HW325641   5.286   5.092   5.102  0.3459  0.3525 -1.6678
 6467SOL    MW425642   5.227   5.035   5.073 -0.2738  0.2545 -0.2719
 6468SOL     OW25643   1.509   2.137   2.407 -0.7474  0.7928 -0.1689
 6468SOL    HW225644   1.495   2.154   2.500 -0.2428 -0.5219  0.1623
 6468SOL    HW325645   1.428   2.096   2.377 -0.0157 -1.1009  0.3062
 6468SOL    MW425646   1.497   2.134   2.415 -0.5843  0.3695 -0.0625
 6469SOL     OW25647   0.585   6.339   4.944 -0.0725  0.1033 -0.2466
 6469SOL    HW225648   0.547   6.324   4.857  1.3511  2.1643 -1.2810
 6469SOL    HW325649   0.590   6.434   4.952  0.7329 -0.0670  1.6997
 6469SOL    MW425650   0.580   6.349   4.933  0.2216  0.3527 -0.1263
 6470SOL     OW25651   6.088   5.087   2.688  0.3969 -0.5753 -0.9711
 6470SOL    HW225652   6.067   4.996   2.705 -1.2100  0.0558  0.7481
 6470SOL    HW325653   6.126   5.119   2.771 -3.6159  1.4936  0.3567
 6470SOL    MW425654   6.090   5.080   2.701 -0.3445 -0.2191 -0.5691
 6471SOL     OW25655   0.608   1.212   0.227  0.1769  0.3642 -0.3965
 6471SOL    HW225656   0.589   1.267   0.303  0.8517 -0.3237  0.2871
 6471SOL    HW325657   0.523   1.182   0.196 -0.0106 -0.9638  1.3178
 6471SOL    MW425658   0.594   1.216   0.233  0.2412  0.0983 -0.0802
 6472SOL     OW25659   5.381   6.322   6.101 -0.2603  0.3848 -0.1945
 6472SOL    HW225660   5.379   6.238   6.055 -1.3798  0.6709 -0.6967
 6472SOL    HW325661   5.448   6.311   6.168  1.1866 -0.1548 -1.6702
 6472SOL    MW425662   5.390   6.310   6.104 -0.2171  0.3513 -0.4555
 6473SOL     OW25663   2.527   4.976   5.352 -0.3000  0.1169  0.1827
 6473SOL    HW225664   2.601   4.930   5.313  1.2801  2.8973 -0.3303
 6473SOL    HW325665   2.455   4.963   5.290  0.6767  0.0212 -0.9562
 6473SOL    MW425666   2.527   4.968   5.339  0.0373  0.4711 -0.0352
 6474SOL     OW25667   6.257   1.396   0.433  0.1212 -0.1413  0.0538
 6474SOL    HW225668   6.182   1.455   0.420  2.1438  2.3163 -1.6789
 6474SOL    HW325669   6.323   1.429   0.372  2.3410 -2.7074  0.8879
 6474SOL    MW425670   6.256   1.408   0.423  0.6809 -0.1556 -0.0648
 6475SOL     OW25671   2.764   2.090   1.811  0.0287 -0.7516 -0.1345
 6475SOL    HW225672   2.741   1.997   1.815 -1.5251 -0.3978 -0.3895
 6475SOL    HW325673   2.821   2.098   1.734 -1.8259 -1.1294 -1.6324
 6475SOL    MW425674   2.768   2.079   1.801 -0.4210 -0.7547 -0.3658
 6476SOL     OW25675   3.640   1.389   0.842  0.1749 -0.0917 -0.2648
 6476SOL    HW225676   3.692   1.427   0.912  2.2293 -0.8120 -1.3150
 6476SOL    HW325677   3.653   1.295   0.851 -4.4724 -0.7910  2.0227
 6476SOL    MW425678   3.649   1.382   0.852 -0.1672 -0.2790 -0.1015
 6477SOL     OW25679   3.215   3.974   3.612 -0.0086 -0.5785  0.2600
 6477SOL    HW225680   3.135   4.024   3.631  0.6705 -0.0607  1.9007
 6477SOL    HW325681   3.283   4.040   3.603  0.3275 -1.0420 -0.7774
 6477SOL    MW425682   3.213   3.989   3.613  0.1253 -0.5713  0.3396
 6478SOL     OW25683   5.586   3.614   3.020 -0.1376  0.3700  0.3190
 6478SOL    HW225684   5.599   3.695   3.069 -1.4479  0.0656  1.2102
 6478SOL    HW325685   5.548   3.553   3.083 -0.4640 -0.5080 -0.6926
 6478SOL    MW425686   5.583   3.617   3.035 -0.3535  0.2140  0.3031
 6479SOL     OW25687   5.323   2.450   5.382 -0.1205 -0.2308 -0.4198
 6479SOL    HW225688   5.315   2.471   5.475 -1.4778 -0.7765 -0.3906
 6479SOL    HW325689   5.383   2.375   5.380  0.4862  0.2378 -0.0585
 6479SOL    MW425690   5.330   2.443   5.394 -0.2195 -0.2410 -0.3683
 6480SOL     OW25691   2.866   3.001   4.243 -0.1245  0.1031  0.2137
 6480SOL    HW225692   2.790   2.946   4.223  1.5396 -1.1822 -3.3408
 6480SOL    HW325693   2.854   3.080   4.192 -0.6338  1.4818  2.3374
 6480SOL    MW425694   2.855   3.004   4.234  0.0279  0.1154  0.0249
 6481SOL     OW25695   5.970   5.692   5.306 -0.5792  0.2076  0.0852
 6481SOL    HW225696   5.893   5.636   5.298 -1.5164  1.6279 -1.4374
 6481SOL    HW325697   6.023   5.673   5.228  0.1337 -0.0611  0.6253
 6481SOL    MW425698   5.967   5.682   5.295 -0.6088  0.3595 -0.0444
 6482SOL     OW25699   2.660   2.600   0.713  0.0839 -0.0896  0.3377
 6482SOL    HW225700   2.582   2.641   0.751  0.3571  0.6970  0.0741
 6482SOL    HW325701   2.710   2.673   0.676  1.0380 -0.5700  0.6539
 6482SOL    MW425702   2.656   2.615   0.713  0.2458 -0.0492  0.3446
 6483SOL     OW25703   0.306   3.825   3.796  0.4675  0.2392  0.5442
 6483SOL    HW225704   0.378   3.781   3.842  0.1863 -0.2317  0.5383
 6483SOL    HW325705   0.250   3.859   3.866  0.2191 -0.1844  0.5578
 6483SOL    MW425706   0.308   3.824   3.812  0.3976  0.1212  0.5452
 6484SOL     OW25707   6.397   0.315   0.264  0.6089 -0.1787 -0.0412
 6484SOL    HW225708   6.322   0.259   0.284  0.3643  0.9773  2.7629
 6484SOL    HW325709   6.473   0.263   0.288  0.4960 -0.0817  0.5379
 6484SOL    MW425710   6.397   0.301   0.269  0.5618 -0.0134  0.4052
 6485SOL     OW25711   5.075   3.700   1.253 -0.3096 -0.3860  0.2488
 6485SOL    HW225712   4.994   3.694   1.304  0.0976  1.1791  1.1313
 6485SOL    HW325713   5.123   3.774   1.291  1.1827 -0.7738 -0.7686
 6485SOL    MW425714   5.071   3.709   1.264 -0.0590 -0.2307  0.2310
 6486SOL     OW25715   5.859   4.533   0.462  0.0028 -0.5018  0.3070
 6486SOL    HW225716   5.777   4.568   0.427  0.7185  0.2358 -0.7162
 6486SOL    HW325717   5.876   4.455   0.408 -0.1561 -0.7994  0.6878
 6486SOL    MW425718   5.851   4.527   0.450  0.0763 -0.4437  0.2223
 6487SOL     OW25719   4.550   3.193   2.346  0.1023  0.4023  0.2918
 6487SOL    HW225720   4.635   3.208   2.389  0.2511 -1.4360  0.6925
 6487SOL    HW325721   4.499   3.271   2.369  1.3064  1.0261  0.9864
 6487SOL    MW425722   4.554   3.206   2.355  0.2808  0.2421  0.4363
 6488SOL     OW25723   3.643   3.713   5.742  0.0329  0.7306  0.2955
 6488SOL    HW225724   3.642   3.806   5.766  1.9121  0.6806  0.7078
 6488SOL    HW325725   3.721   3.703   5.689  1.5690 -1.1513  2.7070
 6488SOL    MW425726   3.653   3.724   5.738  0.4835  0.4757  0.6680
 6489SOL     OW25727   4.505   6.316   4.166 -0.0743 -0.5401  0.0985
 6489SOL    HW225728   4.436   6.251   4.181 -0.2752 -0.6151 -1.0951
 6489SOL    HW325729   4.462   6.386   4.119  0.6093 -0.4674 -0.4287
 6489SOL    MW425730   4.490   6.316   4.162 -0.0106 -0.5404 -0.1285
 6490SOL     OW25731   5.335   4.128   2.363 -0.1010 -0.5229 -0.0128
 6490SOL    HW225732   5.415   4.078   2.381  0.5213  0.0402 -1.0861
 6490SOL    HW325733   5.361   4.220   2.378 -1.7683 -0.4852  3.9903
 6490SOL    MW425734   5.349   4.134   2.368 -0.2389 -0.4436  0.3737
 6491SOL     OW25735   3.413   2.039   1.572 -0.3697  0.1600  0.1010
 6491SOL    HW225736   3.457   2.116   1.608 -0.3451  0.0553  0.2949
 6491SOL    HW325737   3.370   2.071   1.493 -1.3189  0.6375  0.7905
 6491SOL    MW425738   3.413   2.053   1.567 -0.4917  0.2092  0.2175
 6492SOL     OW25739   1.415   4.264   0.734 -0.4667  0.3900  0.3803
 6492SOL    HW225740   1.510   4.258   0.741 -0.3512 -1.9853 -1.5700
 6492SOL    HW325741   1.384   4.261   0.824  1.2850 -2.0166  1.0112
 6492SOL    MW425742   1.423   4.263   0.747 -0.2204 -0.2409  0.2062
 6493SOL     OW25743   0.767   0.423   1.861 -0.1109 -0.3786  0.1134
 6493SOL    HW225744   0.831   0.395   1.926 -0.9912 -4.2250 -0.4280
 6493SOL    HW325745   0.820   0.455   1.788  1.2587 -2.6117  0.0256
 6493SOL    MW425746   0.782   0.424   1.860 -0.0463 -1.1807  0.0304
 6494SOL     OW25747   0.255   1.437   1.006 -0.2872  0.4495 -0.3550
 6494SOL    HW225748   0.204   1.519   1.010 -1.6629 -0.4059  0.7859
 6494SOL    HW325749   0.327   1.451   1.067 -1.6325  0.1573  1.3921
 6494SOL    MW425750   0.258   1.450   1.015 -0.6462  0.2981  0.0261
 6495SOL     OW25751   4.033   3.558   1.389  0.3085  0.2634 -0.5672
 6495SOL    HW225752   3.990   3.632   1.346 -3.0026 -0.4238  1.2489
 6495SOL    HW325753   4.099   3.598   1.445 -2.0658  2.0969  1.1372
 6495SOL    MW425754   4.036   3.573   1.391 -0.4416  0.4146 -0.1027
 6496SOL     OW25755   2.760   4.275   4.533 -0.0820  0.6064 -0.4260
 6496SOL    HW225756   2.827   4.330   4.574  1.7864 -0.6321 -1.6756
 6496SOL    HW325757   2.694   4.263   4.602  1.4021  1.1486  1.1712
 6496SOL    MW425758   2.760   4.280   4.548  0.3603  0.5145 -0.3802
 6497SOL     OW25759   1.179   5.619   0.408 -0.0889  0.1855 -0.2805
 6497SOL    HW225760   1.258   5.565   0.411  0.5136  0.9664 -1.4251
 6497SOL    HW325761   1.139   5.607   0.494  0.3588 -1.5583 -0.2865
 6497SOL    MW425762   1.184   5.610   0.420  0.0496  0.0584 -0.4323
 6498SOL     OW25763   4.157   4.043   6.303 -0.1384 -1.0105 -0.0172
 6498SOL    HW225764   4.097   4.098   6.254 -0.0852  0.0722  1.0861
 6498SOL    HW325765   4.241   4.051   6.258  0.2247  0.9908  0.9204
 6498SOL    MW425766   4.160   4.051   6.291 -0.0835 -0.6036  0.2521
 6499SOL     OW25767   1.021   0.764   1.590 -0.2277 -0.0324 -0.3488
 6499SOL    HW225768   1.100   0.747   1.539 -0.7367  0.5173 -1.3584
 6499SOL    HW325769   1.042   0.843   1.641  1.1478 -1.8892  2.2453
 6499SOL    MW425770   1.034   0.773   1.590 -0.1134 -0.2049 -0.1397
 6500SOL     OW25771   2.540   0.178   3.707 -0.4770 -0.2473  0.0783
 6500SOL    HW225772   2.450   0.191   3.735  0.1544 -0.4833  2.4646
 6500SOL    HW325773   2.535   0.107   3.643 -1.8690 -1.0466  1.0213
 6500SOL    MW425774   2.528   0.170   3.702 -0.5774 -0.3839  0.5176
 6501SOL     OW25775   0.473   1.912   5.347  0.1360 -0.1634  0.1642
 6501SOL    HW225776   0.433   1.926   5.261 -0.4804  0.4551  0.5439
 6501SOL    HW325777   0.504   1.822   5.345 -1.3558 -0.6814 -0.1098
 6501SOL    MW425778   0.472   1.902   5.335 -0.1422 -0.1502  0.1782
 6502SOL     OW25779   2.149   0.825   1.523 -0.3643 -0.0535 -0.1220
 6502SOL    HW225780   2.193   0.883   1.462  2.0266 -1.4589  0.1318
 6502SOL    HW325781   2.185   0.848   1.609 -0.0638 -1.2681  0.1008
 6502SOL    MW425782   2.159   0.835   1.526 -0.0092 -0.3992 -0.0591
 6503SOL     OW25783   2.701   2.800   2.348  0.6280 -0.3101 -0.3557
 6503SOL    HW225784   2.675   2.734   2.412 -0.9431  0.7537  0.1770
 6503SOL    HW325785   2.632   2.800   2.283  0.8427  0.4799 -0.5968
 6503SOL    MW425786   2.689   2.792   2.348  0.4490 -0.0655 -0.3172
 6504SOL     OW25787   2.275   5.464   4.734  0.6106  0.2528  0.3488
 6504SOL    HW225788   2.338   5.514   4.681  2.0608 -0.1095  1.6767
 6504SOL    HW325789   2.239   5.528   4.796 -0.9248  0.6249 -0.8450
 6504SOL    MW425790   2.278   5.479   4.735  0.5994  0.2541  0.3665
 6505SOL     OW25791   1.803   1.831   4.137 -0.2202 -0.2907 -0.2675
 6505SOL    HW225792   1.841   1.820   4.224 -1.0797  1.2827  0.3398
 6505SOL    HW325793   1.864   1.891   4.092 -0.3502 -0.2377 -0.3721
 6505SOL    MW425794   1.816   1.837   4.142 -0.3508 -0.0761 -0.2012
 6506SOL     OW25795   0.775   2.668   2.521  0.1937  0.4675 -0.3653
 6506SOL    HW225796   0.858   2.631   2.552  0.0533 -2.3432 -2.8921
 6506SOL    HW325797   0.800   2.734   2.457  0.5308 -0.4089 -1.1571
 6506SOL    MW425798   0.789   2.672   2.517  0.2197 -0.0190 -0.8031
 6507SOL     OW25799   2.203   0.312   4.953  0.4341 -0.3741 -0.1241
 6507SOL    HW225800   2.293   0.340   4.973  0.5274 -1.4599  1.0540
 6507SOL    HW325801   2.198   0.223   4.985 -0.5691 -0.9359 -1.7276
 6507SOL    MW425802   2.214   0.304   4.960  0.3140 -0.5915 -0.1802
 6508SOL     OW25803   0.241   5.367   3.502  0.0858 -0.2562 -0.2637
 6508SOL    HW225804   0.215   5.411   3.583 -2.2257 -1.2291 -0.3794
 6508SOL    HW325805   0.273   5.437   3.446  2.6156  0.3312  1.7190
 6508SOL    MW425806   0.242   5.382   3.505  0.1146 -0.3071 -0.0174
 6509SOL     OW25807   3.659   3.556   0.378  0.6002  0.5114 -0.4229
 6509SOL    HW225808   3.740   3.509   0.398 -1.0089 -1.1063  3.1597
 6509SOL    HW325809   3.680   3.648   0.394  2.3711  0.4807 -2.2328
 6509SOL    MW425810   3.672   3.562   0.383  0.6215  0.2939 -0.1890
 6510SOL     OW25811   0.485   1.039   4.065 -0.0809 -0.2492 -0.2502
 6510SOL    HW225812   0.450   1.090   4.138  0.0898 -1.7357  0.9250
 6510SOL    HW325813   0.408   1.009   4.017 -0.2139  0.2838 -0.3771
 6510SOL    MW425814   0.470   1.042   4.068 -0.0759 -0.3750 -0.1119
 6511SOL     OW25815   4.037   0.055   4.100  0.1585  0.5314 -0.2089
 6511SOL    HW225816   4.107   0.017   4.154  0.0453 -1.3800 -1.2936
 6511SOL    HW325817   4.004  -0.019   4.049 -2.7286  1.3521  0.2929
 6511SOL    MW425818   4.042   0.040   4.100 -0.2374  0.3875 -0.2858
 6512SOL     OW25819   0.380   0.010   5.267  0.1891 -0.4442  0.3183
 6512SOL    HW225820   0.476   0.015   5.269  0.1869 -0.2445  2.4774
 6512SOL    HW325821   0.351   0.101   5.261  0.1155 -0.5110 -0.4440
 6512SOL    MW425822   0.389   0.023   5.266  0.1791 -0.4267  0.5026
 6513SOL     OW25823   3.732   1.705   0.487 -0.0575 -0.2208 -0.5901
 6513SOL    HW225824   3.664   1.690   0.553 -1.0239 -0.9459 -1.7209
 6513SOL    HW325825   3.813   1.715   0.538 -0.7186 -1.0932  0.6800
 6513SOL    MW425826   3.734   1.705   0.502 -0.2723 -0.4316 -0.5717
 6514SOL     OW25827   5.366   4.213   6.053  0.5536  0.9003  0.1493
 6514SOL    HW225828   5.433   4.252   5.997  1.7280  0.1561  0.9832
 6514SOL    HW325829   5.287   4.263   6.034  1.1288  1.2690 -1.4824
 6514SOL    MW425830   5.365   4.225   6.043  0.7844  0.8508  0.0441
 6515SOL     OW25831   3.988   0.749   0.122 -0.1230  0.1435 -0.1052
 6515SOL    HW225832   3.979   0.838   0.158 -0.3107 -0.1188  0.5160
 6515SOL    HW325833   3.915   0.700   0.162  0.2319 -0.3942 -0.1114
 6515SOL    MW425834   3.977   0.754   0.132 -0.1009  0.0380 -0.0241
 6516SOL     OW25835   4.877   5.811   0.210  0.0200 -0.0179 -0.2969
 6516SOL    HW225836   4.917   5.823   0.296 -1.3187  2.5762  0.0609
 6516SOL    HW325837   4.927   5.740   0.170  1.0025 -0.9740  2.4072
 6516SOL    MW425838   4.889   5.803   0.216 -0.0270  0.1982  0.1071
 6517SOL     OW25839   3.861   2.253   3.403 -0.4488  0.2542  0.5816
 6517SOL    HW225840   3.777   2.217   3.431 -0.7497  1.0247  0.7033
 6517SOL    HW325841   3.864   2.236   3.309 -0.1243 -0.9818  0.8039
 6517SOL    MW425842   3.850   2.246   3.394 -0.4457  0.1928  0.6270
 6518SOL     OW25843   0.038   0.464   4.844 -0.0114  0.3577  0.1859
 6518SOL    HW225844  -0.053   0.466   4.815  0.4251 -1.8271 -1.5406
 6518SOL    HW325845   0.088   0.440   4.766  2.0751  1.5037  1.0919
 6518SOL    MW425846   0.032   0.461   4.830  0.3215  0.2206  0.0776
 6519SOL     OW25847   4.563   2.571   5.909 -0.9285 -0.0161 -0.1791
 6519SOL    HW225848   4.518   2.493   5.877 -1.3775  0.7871 -1.5587
 6519SOL    HW325849   4.641   2.578   5.854  0.6205 -1.0036  1.7296
 6519SOL    MW425850   4.568   2.561   5.898 -0.7833 -0.0404 -0.1093
 6520SOL     OW25851   2.930   4.445   1.731  0.0579 -0.2384  0.4555
 6520SOL    HW225852   2.955   4.520   1.785 -0.3710 -0.5349  1.0677
 6520SOL    HW325853   2.908   4.376   1.793 -3.5815  0.3604  0.0529
 6520SOL    MW425854   2.931   4.445   1.746 -0.4789 -0.1985  0.4832
 6521SOL     OW25855   2.380   4.039   4.338  0.4243 -0.5070  0.0308
 6521SOL    HW225856   2.431   3.964   4.367  0.9478  0.1467  0.8520
 6521SOL    HW325857   2.434   4.081   4.272  0.3113 -0.6160 -0.1322
 6521SOL    MW425858   2.394   4.035   4.333  0.4784 -0.4351  0.1176
 6522SOL     OW25859   3.183   2.676   1.464 -0.3706 -0.5103 -0.1091
 6522SOL    HW225860   3.092   2.668   1.494 -0.7588 -1.5328 -1.4327
 6522SOL    HW325861   3.231   2.610   1.514 -0.7237 -1.1791 -0.6271
 6522SOL    MW425862   3.177   2.666   1.474 -0.4684 -0.7335 -0.3521
 6523SOL     OW25863   1.348   3.750   4.485 -0.5553  0.1781 -0.4781
 6523SOL    HW225864   1.259   3.728   4.511 -0.2016 -1.1667 -0.3626
 6523SOL    HW325865   1.374   3.821   4.544 -0.4855 -1.4584  1.5503
 6523SOL    MW425866   1.340   3.757   4.496 -0.4994 -0.2153 -0.1952
 6524SOL     OW25867   3.187   5.614   0.986 -0.1127 -0.2957  0.4775
 6524SOL    HW225868   3.175   5.538   0.928  1.7284 -0.5349  0.3528
 6524SOL    HW325869   3.123   5.678   0.954 -0.1155 -0.9508 -0.9236
 6524SOL    MW425870   3.177   5.612   0.974  0.1298 -0.4137  0.2762
 6525SOL     OW25871   5.078   1.043   1.408  0.1972  0.6905  0.0729
 6525SOL    HW225872   5.054   1.040   1.316  0.4100  0.5611  0.0218
 6525SOL    HW325873   5.073   0.952   1.438 -0.1392  0.7682  0.2586
 6525SOL    MW425874   5.074   1.031   1.400  0.1809  0.6837  0.0906
 6526SOL     OW25875   5.807   0.018   3.217  0.4454  0.2679 -0.3827
 6526SOL    HW225876   5.899  -0.002   3.198  0.0138 -0.3627 -1.9780
 6526SOL    HW325877   5.759  -0.059   3.185 -0.7334  1.1507 -0.7873
 6526SOL    MW425878   5.813   0.005   3.210  0.2329  0.3012 -0.6466
 6527SOL     OW25879   5.339   1.284   0.717  0.3337 -0.3716  0.4454
 6527SOL    HW225880   5.369   1.289   0.808  3.4713  1.4177 -0.5321
 6527SOL    HW325881   5.414   1.248   0.670 -1.0962 -0.8972 -1.5353
 6527SOL    MW425882   5.353   1.280   0.723  0.5590 -0.2049  0.0551
 6528SOL     OW25883   1.346   0.733   3.976 -0.3447 -0.2551  0.4429
 6528SOL    HW225884   1.428   0.712   3.930 -0.2664  0.1855  0.3727
 6528SOL    HW325885   1.286   0.760   3.906 -0.6303 -0.8235  0.4690
 6528SOL    MW425886   1.349   0.734   3.961 -0.3721 -0.2720  0.4371
 6529SOL     OW25887   5.734   4.996   4.383 -0.2164  0.0417 -0.4841
 6529SOL    HW225888   5.795   4.940   4.433 -3.2218 -0.9087  2.5064
 6529SOL    HW325889   5.716   4.946   4.304  1.1087 -0.7433 -0.3328
 6529SOL    MW425890   5.740   4.982   4.379 -0.4381 -0.1872 -0.0696
 6530SOL     OW25891   1.253   5.609   2.899 -0.4533  0.0238 -0.5102
 6530SOL    HW225892   1.252   5.669   2.824 -3.3616  0.6298 -0.1124
 6530SOL    HW325893   1.223   5.525   2.864 -2.0629  0.3718 -0.0458
 6530SOL    MW425894   1.249   5.606   2.884 -1.0494  0.1497 -0.3965
 6531SOL     OW25895   5.694   3.839   6.212 -0.7194 -0.5739  0.0620
 6531SOL    HW225896   5.621   3.814   6.156 -0.4395  0.0262 -0.5708
 6531SOL    HW325897   5.737   3.756   6.232 -0.7139 -0.7794 -0.7595
 6531SOL    MW425898   5.690   3.824   6.207 -0.6818 -0.5218 -0.1299
 6532SOL     OW25899   4.508   1.327   1.717  0.1731 -0.3700 -0.0712
 6532SOL    HW225900   4.604   1.323   1.723  0.3702 -0.4142 -2.3011
 6532SOL    HW325901   4.491   1.398   1.655 -1.3106  0.2010  0.9166
 6532SOL    MW425902   4.519   1.336   1.710  0.0033 -0.3005 -0.2351
 6533SOL     OW25903   4.286   4.228   5.543  0.4134 -0.9856 -0.1101
 6533SOL    HW225904   4.344   4.298   5.572  0.2605 -2.0740  3.1565
 6533SOL    HW325905   4.345   4.157   5.516  0.5389 -0.3694 -1.5884
 6533SOL    MW425906   4.302   4.228   5.543  0.4097 -1.0479  0.1259
 6534SOL     OW25907   5.583   0.517   4.041 -0.3055  0.0967 -0.6375
 6534SOL    HW225908   5.521   0.469   3.987 -0.2287  0.4963 -1.0820
 6534SOL    HW325909   5.596   0.461   4.118  0.6548 -1.1396 -1.6614
 6534SOL    MW425910   5.576   0.504   4.044 -0.1687 -0.0137 -0.8312
 6535SOL     OW25911   0.582   5.305   0.907  0.5286 -0.3077  0.0905
 6535SOL    HW225912   0.541   5.222   0.882  0.5995 -0.6386  1.0402
 6535SOL    HW325913   0.670   5.302   0.868  0.3043 -0.4000 -0.4054
 6535SOL    MW425914   0.588   5.294   0.898  0.5084 -0.3635  0.1504
 6536SOL     OW25915   4.116   3.635   1.102 -0.0870  0.0802 -0.2455
 6536SOL    HW225916   4.130   3.622   1.008 -0.8282 -0.5756 -0.2731
 6536SOL    HW325917   4.026   3.607   1.118 -0.4746  1.6111  0.4148
 6536SOL    MW425918   4.106   3.629   1.092 -0.2360  0.1957 -0.1620
 6537SOL     OW25919   2.815   5.914   2.570  0.0448  0.7288  0.3784
 6537SOL    HW225920   2.909   5.906   2.588  0.4199 -1.7027 -2.0271
 6537SOL    HW325921   2.775   5.845   2.623 -0.0688  0.3080 -0.2374
 6537SOL    MW425922   2.822   5.904   2.579  0.0793  0.3525 -0.0202
 6538SOL     OW25923   2.451   4.313   5.970  0.3693 -0.7396 -0.4419
 6538SOL    HW225924   2.507   4.317   5.893  0.2232 -1.6819 -0.6096
 6538SOL    HW325925   2.431   4.404   5.989 -0.1384 -0.5140 -1.9167
 6538SOL    MW425926   2.456   4.325   5.962  0.2830 -0.8342 -0.6586
 6539SOL     OW25927   5.132   1.061   5.786 -0.1443 -0.2742  0.2350
 6539SOL    HW225928   5.144   1.096   5.698  3.2261 -3.4323 -0.7807
 6539SOL    HW325929   5.204   1.099   5.837 -0.5263 -0.4774  0.9421
 6539SOL    MW425930   5.143   1.071   5.781  0.2500 -0.7177  0.1943
 6540SOL     OW25931   0.837   5.266   6.256  0.1280  0.1672 -0.6165
 6540SOL    HW225932   0.894   5.190   6.240 -1.8613 -2.1872  2.3269
 6540SOL    HW325933   0.840   5.316   6.174  0.2883 -3.9639 -3.4561
 6540SOL    MW425934   0.845   5.262   6.243 -0.1133 -0.6885 -0.6028
 6541SOL     OW25935   2.065   2.039   3.851 -0.2918 -0.6668  0.1514
 6541SOL    HW225936   1.995   1.984   3.816  0.3127 -0.1802 -1.9612
 6541SOL    HW325937   2.146   1.995   3.825  0.1994 -0.2833  0.9753
 6541SOL    MW425938   2.066   2.026   3.843 -0.1473 -0.5520 -0.0186
 6542SOL     OW25939   5.018   4.018   6.266 -0.2629 -0.4302 -0.2871
 6542SOL    HW225940   4.957   3.946   6.281 -1.5967  0.3337 -1.8133
 6542SOL    HW325941   5.090   3.978   6.218 -0.4067 -0.9738 -0.0672
 6542SOL    MW425942   5.020   4.003   6.262 -0.4578 -0.4012 -0.4594
 6543SOL     OW25943   3.181   0.241   2.443  0.0219  0.2615 -0.1726
 6543SOL    HW225944   3.135   0.276   2.367  0.5291 -0.6807 -0.9460
 6543SOL    HW325945   3.270   0.278   2.437 -0.0922  0.6259  0.2848
 6543SOL    MW425946   3.187   0.250   2.432  0.0738  0.1853 -0.2143
 6544SOL     OW25947   4.246   5.536   2.311  0.3974  0.1557 -0.0087
 6544SOL    HW225948   4.188   5.586   2.254 -0.4046  0.8633  1.3658
 6544SOL    HW325949   4.334   5.554   2.278 -0.0672 -0.0663 -1.4597
 6544SOL    MW425950   4.250   5.545   2.299  0.2303  0.2197 -0.0188
 6545SOL     OW25951   0.652   5.517   2.661 -0.0291  0.3312  0.5647
 6545SOL    HW225952   0.726   5.476   2.707 -0.4865 -0.1383  0.8914
 6545SOL    HW325953   0.652   5.607   2.694  1.1995  0.7222 -0.4279
 6545SOL    MW425954   0.662   5.524   2.672  0.0727  0.3209  0.4768
 6546SOL     OW25955   1.038   1.889   3.221 -0.0573 -0.0870  0.1317
 6546SOL    HW225956   1.007   1.912   3.133 -1.8535 -0.8430  0.5240
 6546SOL    HW325957   1.099   1.959   3.244  0.3603  0.1980 -1.6517
 6546SOL    MW425958   1.042   1.901   3.212 -0.2392 -0.1491 -0.0519
 6547SOL     OW25959   0.655   4.565   0.077  0.2213 -0.3587  0.1662
 6547SOL    HW225960   0.623   4.500   0.014 -3.3783 -0.8438  2.2169
 6547SOL    HW325961   0.600   4.642   0.062  0.8555  0.3282  1.2107
 6547SOL    MW425962   0.643   4.567   0.067 -0.1700 -0.3321  0.5745
 6548SOL     OW25963   5.359   1.652   4.187 -0.1968  0.7411  0.6097
 6548SOL    HW225964   5.383   1.582   4.127 -1.3763  0.7572  0.0816
 6548SOL    HW325965   5.435   1.710   4.189  0.0058  0.5353 -0.5663
 6548SOL    MW425966   5.372   1.651   4.180 -0.3257  0.7160  0.3849
 6549SOL     OW25967   4.033   3.870   1.818 -0.0645 -0.4675  0.1426
 6549SOL    HW225968   4.021   3.965   1.821  1.3935 -0.2609  0.4566
 6549SOL    HW325969   3.971   3.839   1.752 -0.9963  0.6244  0.4955
 6549SOL    MW425970   4.023   3.878   1.809  0.0049 -0.2962  0.2306
 6550SOL     OW25971   0.234   5.232   6.293  0.0651 -0.2788  0.1156
 6550SOL    HW225972   0.152   5.250   6.338 -0.6803  0.7536 -1.5281
 6550SOL    HW325973   0.284   5.314   6.300 -0.7376  0.4857 -2.1727
 6550SOL    MW425974   0.230   5.245   6.300 -0.1391 -0.0417 -0.4032
 6551SOL     OW25975   3.071   1.011   5.475  0.4346 -0.0672 -0.1300
 6551SOL    HW225976   3.112   1.024   5.389  0.8125  0.6246  0.1436
 6551SOL    HW325977   3.099   1.087   5.526  1.2055 -1.0617  0.9825
 6551SOL    MW425978   3.080   1.023   5.470  0.5862 -0.1071  0.0529
 6552SOL     OW25979   2.591   1.046   5.486  0.4668 -0.0537  0.7341
 6552SOL    HW225980   2.596   0.952   5.507 -1.1877 -0.4813 -0.5225
 6552SOL    HW325981   2.671   1.064   5.437  0.9963 -0.7138  1.3355
 6552SOL    MW425982   2.602   1.036   5.482  0.3184 -0.1972  0.6477
 6553SOL     OW25983   2.169   5.749   4.414  0.3117 -0.5668  0.1938
 6553SOL    HW225984   2.107   5.789   4.353  0.5804  0.5594  0.6420
 6553SOL    HW325985   2.131   5.664   4.435 -0.8883 -0.0459  0.1647
 6553SOL    MW425986   2.156   5.743   4.409  0.1888 -0.3495  0.2491
 6554SOL     OW25987   2.969   1.385   6.247 -0.0894 -0.0127  0.1476
 6554SOL    HW225988   3.021   1.458   6.213  0.0982  0.3427  1.1787
 6554SOL    HW325989   2.904   1.426   6.304 -0.9280 -0.5378 -0.4141
 6554SOL    MW425990   2.967   1.400   6.250 -0.1753 -0.0351  0.2095
 6555SOL     OW25991   4.085   5.822   0.460 -0.8971  0.0741 -0.1512
 6555SOL    HW225992   4.018   5.808   0.393  0.4161  0.4736 -1.5924
 6555SOL    HW325993   4.068   5.911   0.492 -1.3233  0.0067 -0.1870
 6555SOL    MW425994   4.074   5.832   0.456 -0.7801  0.1179 -0.3460
 6556SOL     OW25995   4.644   1.227   5.158  0.6423  0.1290 -0.1074
 6556SOL    HW225996   4.662   1.199   5.247 -1.2773  1.2789  0.6965
 6556SOL    HW325997   4.715   1.288   5.138  0.3771  0.8868  1.1499
 6556SOL    MW425998   4.656   1.232   5.167  0.3541  0.3807  0.1645
 6557SOL     OW25999   4.487   6.052   6.346  0.5303  0.0339  0.3426
 6557SOL    HW226000   4.427   5.977   6.350  1.3218 -0.6014  0.5181
 6557SOL    HW326001   4.477   6.085   6.257  0.7540 -0.7756  0.0080
 6557SOL    MW426002   4.478   6.046   6.335  0.6642 -0.1567  0.3216
 6558SOL     OW26003   5.904   3.868   3.190 -0.4619  0.5981  0.3905
 6558SOL    HW226004   5.936   3.920   3.264  0.2327 -0.5530  0.9271
 6558SOL    HW326005   5.933   3.916   3.112  1.4430  0.3116  0.8732
 6558SOL    MW426006   5.912   3.881   3.189 -0.1189  0.4085  0.5250
 6559SOL     OW26007   0.105   0.751   4.832  0.7284 -0.1953 -0.0423
 6559SOL    HW226008   0.047   0.781   4.902 -0.4688  1.3027 -1.5747
 6559SOL    HW326009   0.099   0.655   4.835  0.0760 -0.1316  1.3560
 6559SOL    MW426010   0.096   0.742   4.842  0.4844  0.0108 -0.0600
 6560SOL     OW26011   4.434   0.866   1.934  0.1830 -0.2049 -0.0795
 6560SOL    HW226012   4.384   0.861   1.853 -2.0106  2.1441  0.9826
 6560SOL    HW326013   4.465   0.957   1.937  2.9072 -1.0461  0.3083
 6560SOL    MW426014   4.432   0.878   1.924  0.2530 -0.0060  0.1118
 6561SOL     OW26015   2.728   4.234   0.784  0.1572 -0.3908  0.0366
 6561SOL    HW226016   2.744   4.301   0.718 -1.5574 -2.3335 -2.6191
 6561SOL    HW326017   2.799   4.171   0.773  2.1713  1.1659  3.0079
 6561SOL    MW426018   2.739   4.235   0.774  0.1967 -0.4417  0.0782
 6562SOL     OW26019   6.107   1.598   3.405  0.1996 -0.1690  0.9024
 6562SOL    HW226020   6.094   1.692   3.400 -2.0062 -0.2842  2.8350
 6562SOL    HW326021   6.149   1.584   3.490  2.0398 -0.8624 -0.0588
 6562SOL    MW426022   6.111   1.608   3.416  0.1514 -0.2757  1.0306
 6563SOL     OW26023   2.295   5.809   5.381 -0.1255  0.0626 -0.0501
 6563SOL    HW226024   2.259   5.886   5.338 -1.1294  0.8588  2.0347
 6563SOL    HW326025   2.278   5.737   5.321 -0.4827  1.2458 -1.4112
 6563SOL    MW426026   2.288   5.810   5.368 -0.3051  0.3238  0.0454
 6564SOL     OW26027   1.846   1.989   1.635 -0.8782 -0.1984  0.2703
 6564SOL    HW226028   1.793   1.913   1.615  3.3393 -3.0148 -1.6894
 6564SOL    HW326029   1.888   1.969   1.719  1.8814 -1.3171 -1.2271
 6564SOL    MW426030   1.845   1.977   1.643  0.0423 -0.7176 -0.1858
 6565SOL     OW26031   1.345   4.595   0.190 -0.1298  0.1275 -0.6832
 6565SOL    HW226032   1.305   4.516   0.226  1.3609 -0.1456  0.4737
 6565SOL    HW326033   1.273   4.641   0.147 -1.6344 -0.4332  1.1105
 6565SOL    MW426034   1.330   4.591   0.189 -0.1316  0.0175 -0.2939
 6566SOL     OW26035   2.942   1.028   3.201 -0.2144 -0.1445  0.2967
 6566SOL    HW226036   2.918   1.118   3.175  0.8822  0.3527  0.9625
 6566SOL    HW326037   2.991   0.995   3.126  0.7304  0.3810  0.6664
 6566SOL    MW426038   2.945   1.036   3.187  0.0550 -0.0096  0.4333
 6567SOL     OW26039   4.679   1.151   4.904  0.3528  0.0414 -0.0181
 6567SOL    HW226040   4.772   1.175   4.908  1.1868 -2.5346 -1.6143
 6567SOL    HW326041   4.645   1.171   4.991  2.2393  1.5793  0.4266
 6567SOL    MW426042   4.687   1.157   4.916  0.7117 -0.0956 -0.1700
 6568SOL     OW26043   6.241   2.798   4.496 -0.1481  0.9502 -0.0975
 6568SOL    HW226044   6.205   2.740   4.429  2.2870 -0.0465 -0.6573
 6568SOL    HW326045   6.180   2.791   4.569 -1.3036 -0.2646 -1.1278
 6568SOL    MW426046   6.228   2.789   4.497  0.0207  0.6585 -0.3073
 6569SOL     OW26047   6.066   5.616   5.056  0.0653  0.8663  0.0488
 6569SOL    HW226048   6.120   5.547   5.019  2.2859  2.2187  0.5786
 6569SOL    HW326049   6.013   5.648   4.983 -2.0932 -2.2135  0.0735
 6569SOL    MW426050   6.066   5.611   5.042  0.0735  0.6384  0.1219
 6570SOL     OW26051   2.431   3.079   2.256  0.4016  0.1650 -0.0657
 6570SOL    HW226052   2.518   3.120   2.251 -0.2006  1.3137 -1.8557
 6570SOL    HW326053   2.448   2.986   2.239  1.5498 -0.1112  2.1764
 6570SOL    MW426054   2.445   3.072   2.253  0.4737  0.2801 -0.0060
 6571SOL     OW26055   1.962   1.028   4.590 -0.5055 -0.1957 -0.4034
 6571SOL    HW226056   1.995   1.077   4.666 -2.9257  0.4833  0.2923
 6571SOL    HW326057   1.995   1.076   4.515 -0.8447  1.1473  0.2644
 6571SOL    MW426058   1.971   1.041   4.590 -0.8696  0.0711 -0.2235
 6572SOL     OW26059   6.100   0.503   0.189 -0.2036 -0.0668  0.0103
 6572SOL    HW226060   6.030   0.562   0.160 -0.6632 -0.0857  1.0560
 6572SOL    HW326061   6.065   0.459   0.266  0.7617 -0.4864  0.2283
 6572SOL    MW426062   6.086   0.505   0.195 -0.1369 -0.1247  0.1770
 6573SOL     OW26063   1.809   0.530   5.460 -0.1264  0.6112 -0.2680
 6573SOL    HW226064   1.811   0.464   5.391  0.7942  0.8292 -0.4551
 6573SOL    HW326065   1.791   0.481   5.540 -3.1451  0.5538 -0.8550
 6573SOL    MW426066   1.807   0.515   5.462 -0.4032  0.6324 -0.3701
 6574SOL     OW26067   2.508   5.778   1.764 -0.1649 -0.2566  0.1366
 6574SOL    HW226068   2.413   5.794   1.758  0.2052  2.5661  0.3033
 6574SOL    HW326069   2.534   5.821   1.846  1.4014 -0.0782 -0.4217
 6574SOL    MW426070   2.499   5.786   1.774  0.0906  0.1394  0.0849
 6575SOL     OW26071   5.891   4.298   1.745 -0.3559 -0.1597 -0.3397
 6575SOL    HW226072   5.873   4.353   1.669  1.4781  0.1233 -0.6004
 6575SOL    HW326073   5.809   4.249   1.758 -1.2989  1.0518 -1.3982
 6575SOL    MW426074   5.878   4.298   1.737 -0.2384  0.0374 -0.5138
 6576SOL     OW26075   0.257   3.297   1.030 -1.0281  0.1059  0.1019
 6576SOL    HW226076   0.181   3.263   0.984 -0.7745  0.0902 -0.3098
 6576SOL    HW326077   0.226   3.316   1.119 -1.4271 -0.2141  0.0311
 6576SOL    MW426078   0.243   3.295   1.036 -1.0473  0.0616  0.0382
 6577SOL     OW26079   2.595   0.029   0.699  0.0696 -0.1373  0.5916
 6577SOL    HW226080   2.532   0.101   0.705  1.2869  1.0476 -0.4287
 6577SOL    HW326081   2.631   0.035   0.611  1.4841 -0.8955  1.0916
 6577SOL    MW426082   2.591   0.039   0.689  0.4169 -0.0810  0.5230
 6578SOL     OW26083   2.590   3.125   0.437 -0.4374 -0.2581 -0.3508
 6578SOL    HW226084   2.599   3.220   0.429 -0.3904 -0.1178  1.0776
 6578SOL    HW326085   2.583   3.110   0.532  1.9070 -1.8930 -0.3809
 6578SOL    MW426086   2.590   3.136   0.449 -0.1219 -0.4553 -0.1663
 6579SOL     OW26087   5.675   5.200   0.269  0.0777 -0.4986 -0.0304
 6579SOL    HW226088   5.634   5.286   0.274  1.5342  0.3783 -1.9196
 6579SOL    HW326089   5.694   5.176   0.359  0.4517  1.5564  0.4757
 6579SOL    MW426090   5.672   5.208   0.281  0.3192 -0.1118 -0.2129
 6580SOL     OW26091   5.283   0.070   5.685  0.2557  0.2213  0.7066
 6580SOL    HW226092   5.343   0.139   5.655  0.9200 -0.4251  0.5230
 6580SOL    HW326093   5.281   0.080   5.780 -0.2673  0.9828  0.6265
 6580SOL    MW426094   5.291   0.081   5.694  0.2744  0.2365  0.6718
 6581SOL     OW26095   0.181   5.677   3.895  0.1504  0.2966  0.4833
 6581SOL    HW226096   0.111   5.743   3.893  0.9986  1.2038 -0.4250
 6581SOL    HW326097   0.178   5.642   3.984 -0.9962  0.8241  0.6654
 6581SOL    MW426098   0.171   5.681   3.907  0.1110  0.4859  0.3875
 6582SOL     OW26099   5.613   2.896   1.747 -0.1845  0.5814 -0.3837
 6582SOL    HW226100   5.659   2.960   1.692 -0.4913 -0.2171 -1.5994
 6582SOL    HW326101   5.634   2.811   1.708 -1.8514  0.1253 -0.3537
 6582SOL    MW426102   5.622   2.893   1.735 -0.4449  0.4159 -0.5401
 6583SOL     OW26103   0.092   6.125   5.916 -0.0178  0.4222  0.4328
 6583SOL    HW226104   0.061   6.044   5.958 -0.7309  0.8849  0.8197
 6583SOL    HW326105   0.015   6.159   5.870  0.6560  0.1267 -0.9527
 6583SOL    MW426106   0.078   6.119   5.915 -0.0230  0.4442  0.3011
 6584SOL     OW26107   2.051   5.492   4.384  0.5527  0.0922 -0.1371
 6584SOL    HW226108   1.988   5.506   4.454  0.1326  1.7428 -0.7857
 6584SOL    HW326109   2.001   5.449   4.314  0.4769  0.1940 -0.1459
 6584SOL    MW426110   2.036   5.488   4.384  0.4873  0.3234 -0.2238
 6585SOL     OW26111   0.731   3.242   2.944  0.3248 -0.5413 -0.5257
 6585SOL    HW226112   0.637   3.241   2.924  0.3236 -0.5036 -0.5232
 6585SOL    HW326113   0.773   3.267   2.861  0.5124 -2.8800 -1.1941
 6585SOL    MW426114   0.724   3.245   2.930  0.3494 -0.8449 -0.6136
 6586SOL     OW26115   5.228   5.998   4.140  0.3737 -0.3119 -0.3759
 6586SOL    HW226116   5.271   5.931   4.087 -1.3033 -1.4409 -0.3913
 6586SOL    HW326117   5.180   6.051   4.078 -0.9503 -1.1501 -0.1113
 6586SOL    MW426118   5.228   5.996   4.125 -0.0223 -0.5714 -0.3430
 6587SOL     OW26119   1.829   0.097   3.900 -0.6455 -0.3134  0.4603
 6587SOL    HW226120   1.748   0.146   3.915 -0.9342 -0.5496 -0.2376
 6587SOL    HW326121   1.862   0.076   3.987 -0.3869  1.3148  0.7872
 6587SOL    MW426122   1.822   0.100   3.913 -0.6495 -0.1297  0.4113
 6588SOL     OW26123   2.009   5.682   1.132 -0.6147 -0.0180 -1.1250
 6588SOL    HW226124   1.992   5.736   1.055  0.8577 -0.2626 -1.6535
 6588SOL    HW326125   2.045   5.600   1.096 -1.8461 -0.9668 -0.2836
 6588SOL    MW426126   2.011   5.678   1.117 -0.5829 -0.1755 -1.0838
 6589SOL     OW26127   4.671   1.954   4.567  0.4036  0.0969 -0.1989
 6589SOL    HW226128   4.636   1.878   4.520 -0.3712 -0.5906  1.3926
 6589SOL    HW326129   4.764   1.955   4.546  0.8799 -2.5545  1.2709
 6589SOL    MW426130   4.679   1.944   4.558  0.3642 -0.3436  0.2050
 6590SOL     OW26131   1.707   2.781   4.049 -0.3448 -0.1818  0.1274
 6590SOL    HW226132   1.639   2.756   4.112 -1.9518  0.3401 -1.3329
 6590SOL    HW326133   1.744   2.698   4.019  0.4625 -0.4395  1.7372
 6590SOL    MW426134   1.703   2.767   4.054 -0.4503 -0.1469  0.1471
 6591SOL     OW26135   0.351   5.001   5.740 -0.5137  0.9088  0.4106
 6591SOL    HW226136   0.339   5.095   5.730 -2.6914  0.7712  1.2651
 6591SOL    HW326137   0.373   4.970   5.652  1.5832  2.3201  0.3569
 6591SOL    MW426138   0.353   5.009   5.727 -0.5244  1.0769  0.5163
 6592SOL     OW26139   0.330   0.823   1.610 -0.2205  0.1335  0.3256
 6592SOL    HW226140   0.424   0.805   1.601 -0.3108 -0.2905  0.1950
 6592SOL    HW326141   0.324   0.918   1.618  0.2668  0.1148  0.9789
 6592SOL    MW426142   0.342   0.833   1.610 -0.1681  0.0751  0.3946
 6593SOL     OW26143   6.110   0.118   3.192 -0.1643  0.0495  0.2883
 6593SOL    HW226144   6.164   0.091   3.266 -1.1049 -0.6194  0.7577
 6593SOL    HW326145   6.136   0.209   3.175 -0.1911  0.3437  1.6873
 6593SOL    MW426146   6.120   0.127   3.200 -0.2919  0.0001  0.5348
 6594SOL     OW26147   4.101   5.809   5.601 -0.6685  0.4624 -0.6003
 6594SOL    HW226148   4.184   5.854   5.616 -0.5264 -0.5036  1.9244
 6594SOL    HW326149   4.060   5.859   5.530  1.9462  1.0626 -1.8217
 6594SOL    MW426150   4.107   5.822   5.593 -0.3048  0.4142 -0.4283
 6595SOL     OW26151   0.281   2.005   5.523 -0.5335 -0.2874  0.0816
 6595SOL    HW226152   0.238   1.957   5.595  1.1824  0.0521  1.4121
 6595SOL    HW326153   0.344   1.942   5.487 -1.7550 -0.6372 -1.5552
 6595SOL    MW426154   0.284   1.990   5.528 -0.4683 -0.2887  0.0412
 6596SOL     OW26155   6.071   1.798   5.518  0.3210 -0.7146  0.0284
 6596SOL    HW226156   6.051   1.888   5.490 -0.5855 -0.6378  0.8412
 6596SOL    HW326157   6.047   1.744   5.443  1.3813 -0.2486 -0.6716
 6596SOL    MW426158   6.065   1.803   5.504  0.3413 -0.6430  0.0433
 6597SOL     OW26159   5.847   1.655   1.019  0.0702  0.0542  0.3744
 6597SOL    HW226160   5.837   1.678   0.927 -0.3657 -1.9642 -0.1338
 6597SOL    HW326161   5.936   1.620   1.026 -0.7259 -2.2259  0.0745
 6597SOL    MW426162   5.857   1.653   1.008 -0.0924 -0.5130  0.2678
 6598SOL     OW26163   6.045   5.080   4.260 -0.5104  0.1507 -0.0290
 6598SOL    HW226164   6.041   5.160   4.208 -0.2563  2.0073  2.6254
 6598SOL    HW326165   5.960   5.039   4.246 -1.5113  2.0274  0.1719
 6598SOL    MW426166   6.033   5.085   4.251 -0.6089  0.6433  0.3477
 6599SOL     OW26167   5.248   0.759   1.043 -0.2802  0.2642  0.0766
 6599SOL    HW226168   5.330   0.804   1.063 -0.4678  0.2539  0.9167
 6599SOL    HW326169   5.190   0.828   1.011 -0.4970  0.6098  1.1545
 6599SOL    MW426170   5.251   0.774   1.042 -0.3335  0.3084  0.3297
 6600SOL     OW26171   4.758   2.359   1.359  0.6305 -0.0762 -0.9322
 6600SOL    HW226172   4.734   2.444   1.322 -1.3390  0.0633  0.4904
 6600SOL    HW326173   4.775   2.377   1.452 -1.7534 -1.4492 -0.1493
 6600SOL    MW426174   4.757   2.373   1.367  0.0562 -0.2390 -0.6412
 6601SOL     OW26175   4.285   5.153   3.163 -0.0817  0.3299  0.4143
 6601SOL    HW226176   4.309   5.068   3.128 -0.3007 -0.1874  1.4658
 6601SOL    HW326177   4.354   5.212   3.134 -0.3617 -0.0133 -1.0250
 6601SOL    MW426178   4.297   5.149   3.155 -0.1476  0.2164  0.3632
 6602SOL     OW26179   2.937   6.411   2.166  0.2392 -0.3156  0.3271
 6602SOL    HW226180   2.945   6.363   2.084  1.5195  0.0408  0.2376
 6602SOL    HW326181   3.024   6.408   2.205 -0.3465 -0.5044  1.6973
 6602SOL    MW426182   2.949   6.404   2.161  0.3308 -0.2935  0.4961
 6603SOL     OW26183   2.293   1.867   0.248  0.1946  0.1811 -0.2034
 6603SOL    HW226184   2.239   1.932   0.292 -1.9813 -1.4544 -0.3408
 6603SOL    HW326185   2.231   1.804   0.211  2.1497 -1.2057 -1.3262
 6603SOL    MW426186   2.278   1.867   0.249  0.1655 -0.2176 -0.3697
 6604SOL     OW26187   2.450   3.628   2.672  0.0806  0.3486  0.6903
 6604SOL    HW226188   2.443   3.575   2.751  2.3098 -0.3335  0.5125
 6604SOL    HW326189   2.529   3.681   2.685 -0.2261  1.1797 -0.5508
 6604SOL    MW426190   2.460   3.628   2.684  0.3342  0.3682  0.5031
 6605SOL     OW26191   6.120   0.653   2.740 -0.6934 -0.3429  0.6015
 6605SOL    HW226192   6.149   0.725   2.796 -0.5257 -1.6383  2.2528
 6605SOL    HW326193   6.144   0.573   2.788 -0.5004 -1.5356 -1.3482
 6605SOL    MW426194   6.127   0.652   2.753 -0.6458 -0.6712  0.5621
 6606SOL     OW26195   3.723   1.655   1.718  0.1435  0.5899  0.4219
 6606SOL    HW226196   3.776   1.735   1.721  0.2083  0.5802 -0.2128
 6606SOL    HW326197   3.784   1.587   1.687 -0.0855  0.4473  0.2774
 6606SOL    MW426198   3.738   1.656   1.714  0.1218  0.5698  0.3191
 6607SOL     OW26199   1.418   6.318   2.866  0.3005 -0.3689 -0.5421
 6607SOL    HW226200   1.508   6.293   2.846  0.0598 -0.7825 -1.1832
 6607SOL    HW326201   1.375   6.319   2.781 -1.1337 -3.6136 -0.0389
 6607SOL    MW426202   1.424   6.315   2.852  0.0795 -0.8516 -0.5603
 6608SOL     OW26203   0.107   0.764   1.436 -0.7239 -0.1080  0.0430
 6608SOL    HW226204   0.062   0.703   1.495 -0.1113 -2.7561 -2.0432
 6608SOL    HW326205   0.196   0.770   1.470 -1.0814  0.5473  0.8905
 6608SOL    MW426206   0.113   0.757   1.448 -0.6903 -0.3709 -0.1204
 6609SOL     OW26207   3.222   0.818   6.414 -0.1147  0.0888  0.0563
 6609SOL    HW226208   3.151   0.770   6.457 -0.5938  1.3856  0.7748
 6609SOL    HW326209   3.178   0.881   6.357  0.4999 -0.2365 -0.8080
 6609SOL    MW426210   3.207   0.820   6.412 -0.0968  0.2169  0.0370
 6610SOL     OW26211   0.488   5.286   1.169  0.2322  0.8251 -0.6782
 6610SOL    HW226212   0.394   5.302   1.162  0.3479  1.9189  0.0371
 6610SOL    HW326213   0.525   5.323   1.088  0.2809  2.5451  0.0928
 6610SOL    MW426214   0.481   5.293   1.157  0.2539  1.1964 -0.4821
 6611SOL     OW26215   4.143   2.327   2.188  0.0476  0.0707 -0.3001
 6611SOL    HW226216   4.206   2.341   2.259 -1.4666  0.1171  1.0725
 6611SOL    HW326217   4.150   2.234   2.167 -1.1085 -0.4628  1.5231
 6611SOL    MW426218   4.152   2.317   2.194 -0.3047  0.0064  0.1215
 6612SOL     OW26219   0.492   2.587   1.090 -0.2690 -0.3096  0.1325
 6612SOL    HW226220   0.571   2.586   1.035 -0.7193  0.8388 -0.5629
 6612SOL    HW326221   0.514   2.645   1.162 -0.3431 -0.3105  0.1555
 6612SOL    MW426222   0.505   2.595   1.092 -0.3382 -0.1582  0.0438
 6613SOL     OW26223   3.668   3.503   3.716  0.1700 -0.2133  0.1912
 6613SOL    HW226224   3.687   3.493   3.623  2.3428 -0.8570  0.6458
 6613SOL    HW326225   3.596   3.566   3.719 -0.4589 -0.7518 -1.9310
 6613SOL    MW426226   3.661   3.510   3.704  0.3737 -0.3693 -0.0288
 6614SOL     OW26227   5.798   4.769   5.281  0.3562  0.2097 -0.1091
 6614SOL    HW226228   5.720   4.814   5.316  0.3224  0.1014 -0.0467
 6614SOL    HW326229   5.829   4.827   5.212 -0.4356 -0.2765 -0.8955
 6614SOL    MW426230   5.792   4.783   5.277  0.2473  0.1313 -0.2046
 6615SOL     OW26231   2.952   0.762   3.467  0.7643 -0.0234 -0.1544
 6615SOL    HW226232   2.991   0.768   3.380  0.1843 -1.0346 -0.4952
 6615SOL    HW326233   2.933   0.669   3.479  1.0005  0.0701  1.1284
 6615SOL    MW426234   2.955   0.750   3.457  0.7189 -0.1445 -0.0301
 6616SOL     OW26235   4.182   3.701   4.656 -0.3193 -0.4776  0.5141
 6616SOL    HW226236   4.277   3.701   4.646 -0.3502 -0.9248  0.1926
 6616SOL    HW326237   4.164   3.628   4.715 -0.3974  0.1739  1.3235
 6616SOL    MW426238   4.192   3.692   4.662 -0.3337 -0.4507  0.5785
 6617SOL     OW26239   5.087   2.367   4.006 -0.4247 -0.4729 -0.3884
 6617SOL    HW226240   5.086   2.462   4.018 -0.9143 -0.4399 -0.6964
 6617SOL    HW326241   5.103   2.333   4.094  0.7786 -0.0811 -0.4385
 6617SOL    MW426242   5.089   2.375   4.019 -0.3305 -0.4169 -0.4356
 6618SOL     OW26243   6.161   0.141   0.613 -0.1129  0.8620 -0.0703
 6618SOL    HW226244   6.205   0.067   0.654 -0.3772  0.3803 -0.6306
 6618SOL    HW326245   6.151   0.115   0.521  0.9436  2.1215 -0.5707
 6618SOL    MW426246   6.165   0.128   0.606 -0.0084  0.9647 -0.2102
 6619SOL     OW26247   0.484   1.582   1.128  0.2004  0.2837 -0.2431
 6619SOL    HW226248   0.461   1.673   1.149  1.9886  0.4836  1.0267
 6619SOL    HW326249   0.511   1.544   1.211 -0.0324 -1.2919 -0.8519
 6619SOL    MW426250   0.485   1.589   1.142  0.4056  0.1022 -0.1559
 6620SOL     OW26251   4.918   1.452   6.183 -0.3248  0.0677  0.7407
 6620SOL    HW226252   4.892   1.423   6.270 -0.4077  0.8703  0.9908
 6620SOL    HW326253   4.878   1.388   6.124 -0.8410 -0.0922  1.2521
 6620SOL    MW426254   4.909   1.440   6.187 -0.4039  0.1525  0.8412
 6621SOL     OW26255   3.368   2.094   5.870  0.3955  0.2140  0.0456
 6621SOL    HW226256   3.333   2.005   5.879  1.5042 -0.3029 -0.6034
 6621SOL    HW326257   3.452   2.092   5.917  0.2287  1.0465  0.4036
 6621SOL    MW426258   3.375   2.082   5.878  0.5198  0.2556  0.0072
 6622SOL     OW26259   5.564   4.030   2.538 -0.3127 -0.4321  0.2701
 6622SOL    HW226260   5.652   4.016   2.502 -0.5940  0.0082 -0.6084
 6622SOL    HW326261   5.536   3.943   2.568  0.7261 -0.4400  1.2972
 6622SOL    MW426262   5.572   4.016   2.537 -0.2127 -0.3751  0.2897
 6623SOL     OW26263   0.041   6.095   0.297 -0.1689  0.3448 -0.2374
 6623SOL    HW226264   0.024   6.175   0.248  0.2784  1.1822  0.9266
 6623SOL    HW326265   0.133   6.075   0.280 -0.0401  0.5807  0.1899
 6623SOL    MW426266   0.051   6.103   0.288 -0.0929  0.4864 -0.0274
 6624SOL     OW26267   0.162   0.804   0.858 -0.1531  0.3575  0.1413
 6624SOL    HW226268   0.231   0.759   0.809  0.8409  0.0547  1.7267
 6624SOL    HW326269   0.132   0.738   0.922 -1.5104  0.6794 -0.1328
 6624SOL    MW426270   0.167   0.789   0.860 -0.2010  0.3600  0.3143
 6625SOL     OW26271   1.008   4.874   4.589  0.1578 -0.4670  0.3674
 6625SOL    HW226272   0.946   4.816   4.633 -1.6254  0.2738 -1.0454
 6625SOL    HW326273   0.987   4.961   4.621  1.2192 -0.3069  0.6782
 6625SOL    MW426274   0.997   4.878   4.599  0.0625 -0.3482  0.2220
 6626SOL     OW26275   3.832   2.635   0.997 -0.7325 -0.3437  0.5208
 6626SOL    HW226276   3.870   2.704   0.943  1.1670 -0.7452  1.2698
 6626SOL    HW326277   3.743   2.666   1.015 -0.6944  0.8205 -0.9920
 6626SOL    MW426278   3.825   2.648   0.992 -0.4768 -0.2431  0.4200
 6627SOL     OW26279   1.153   1.958   3.586 -0.6939 -0.9760  0.6615
 6627SOL    HW226280   1.198   1.987   3.666 -0.2571  0.3058 -0.0194
 6627SOL    HW326281   1.065   1.992   3.595 -0.7450 -1.1310  0.7515
 6627SOL    MW426282   1.148   1.966   3.598 -0.6430 -0.8273  0.5835
 6628SOL     OW26283   3.178   4.405   2.905 -0.3693  0.1239  0.6053
 6628SOL    HW226284   3.273   4.401   2.898 -0.3596  1.5698 -0.7324
 6628SOL    HW326285   3.151   4.314   2.914  0.9517 -0.8247 -3.0106
 6628SOL    MW426286   3.187   4.393   2.905 -0.1937  0.1895 -0.0483
 6629SOL     OW26287   1.048   5.251   1.871 -0.0402 -0.9601  0.8207
 6629SOL    HW226288   0.982   5.205   1.819  0.2079 -0.1879 -0.2178
 6629SOL    HW326289   1.001   5.325   1.909  0.4031  0.1314 -0.6866
 6629SOL    MW426290   1.033   5.254   1.869  0.0510 -0.7142  0.4848
 6630SOL     OW26291   2.938   2.274   5.429  0.3011 -0.8797 -0.6400
 6630SOL    HW226292   2.959   2.245   5.518 -0.9236 -0.4089 -0.1712
 6630SOL    HW326293   2.852   2.236   5.411  0.8795 -1.6492 -1.9669
 6630SOL    MW426294   2.930   2.265   5.439  0.2158 -0.9191 -0.7533
 6631SOL     OW26295   0.330   0.110   5.612 -0.3412 -0.3953  0.0190
 6631SOL    HW226296   0.403   0.055   5.583 -1.2662 -1.2340 -0.7925
 6631SOL    HW326297   0.355   0.198   5.586  0.2101 -0.7262 -0.6082
 6631SOL    MW426298   0.343   0.114   5.605 -0.3905 -0.5496 -0.1708
 6632SOL     OW26299   1.759   3.931   5.111  0.6092  0.2360  0.2549
 6632SOL    HW226300   1.794   3.895   5.030 -0.7128 -1.4278  0.3698
 6632SOL    HW326301   1.794   3.874   5.179 -0.6458 -0.2033  0.5512
 6632SOL    MW426302   1.768   3.919   5.109  0.2692 -0.0415  0.3092
 6633SOL     OW26303   5.793   3.110   1.253 -0.0858 -0.0529  0.0863
 6633SOL    HW226304   5.757   3.193   1.285  0.7830 -0.4668  2.3219
 6633SOL    HW326305   5.886   3.128   1.240 -0.0964 -0.4061 -0.5237
 6633SOL    MW426306   5.801   3.124   1.255  0.0274 -0.1541  0.3008
 6634SOL     OW26307   0.665   0.124   0.405 -0.1131  0.1155 -0.9004
 6634SOL    HW226308   0.735   0.142   0.468  0.9411 -0.3156 -1.8917
 6634SOL    HW326309   0.696   0.048   0.356 -1.5129 -0.3784 -1.0697
 6634SOL    MW426310   0.679   0.116   0.407 -0.1587 -0.0066 -1.0535
 6635SOL     OW26311   4.361   2.949   1.432 -0.3820 -0.0267  0.5491
 6635SOL    HW226312   4.271   2.943   1.465  0.5852 -1.3348  3.2597
 6635SOL    HW326313   4.375   3.042   1.418 -1.4079  0.4660  2.4783
 6635SOL    MW426314   4.351   2.960   1.434 -0.3897 -0.1343  1.1613
 6636SOL     OW26315   1.776   3.076   3.483  0.0457  0.4088  0.3314
 6636SOL    HW226316   1.780   2.981   3.480  0.6899  0.4484 -0.2531
 6636SOL    HW326317   1.823   3.100   3.563 -0.8362  0.2061  0.9224
 6636SOL    MW426318   1.783   3.067   3.493  0.0143  0.3873  0.3323
 6637SOL     OW26319   0.650   1.907   1.053 -0.0011 -0.1855 -0.2030
 6637SOL    HW226320   0.740   1.909   1.021 -0.1090 -1.9278 -0.7433
 6637SOL    HW326321   0.657   1.883   1.145  0.0840 -0.2964 -0.2395
 6637SOL    MW426322   0.662   1.904   1.061 -0.0041 -0.4300 -0.2791
 6638SOL     OW26323   3.730   1.029   3.040 -0.3726 -0.4768  0.2081
 6638SOL    HW226324   3.716   1.116   3.003  1.0126 -0.0381  0.6594
 6638SOL    HW326325   3.648   1.008   3.084 -0.5683  0.8004  0.4872
 6638SOL    MW426326   3.717   1.038   3.041 -0.2157 -0.2504  0.3044
 6639SOL     OW26327   2.522   0.693   5.053  0.3511 -0.2264  0.0128
 6639SOL    HW226328   2.602   0.738   5.080  0.8084 -0.4747 -0.8826
 6639SOL    HW326329   2.528   0.689   4.957 -0.0477 -1.4945  0.0223
 6639SOL    MW426330   2.533   0.698   5.044  0.3588 -0.4265 -0.1041
 6640SOL     OW26331   3.929   3.790   0.630 -0.5119  0.4791  0.4050
 6640SOL    HW226332   3.994   3.859   0.643  0.6142 -0.2691 -0.9451
 6640SOL    HW326333   3.878   3.818   0.555  0.0758 -0.2164 -0.2719
 6640SOL    MW426334   3.931   3.803   0.622 -0.2858  0.2886  0.1375
 6641SOL     OW26335   5.657   4.504   5.982 -0.0822  0.0011 -0.6742
 6641SOL    HW226336   5.742   4.547   5.976 -0.1338  0.2423  0.1551
 6641SOL    HW326337   5.594   4.570   5.954  0.0284 -0.2975 -1.6466
 6641SOL    MW426338   5.660   4.518   5.978 -0.0744 -0.0065 -0.6931
 6642SOL     OW26339   3.321   6.204   4.952  0.1517 -0.3168 -0.1612
 6642SOL    HW226340   3.339   6.114   4.925  0.4415 -0.2535 -0.1756
 6642SOL    HW326341   3.228   6.203   4.975 -0.0484 -0.4258 -0.9410
 6642SOL    MW426342   3.311   6.192   4.952  0.1636 -0.3228 -0.2660
 6643SOL     OW26343   2.003   5.896   2.115 -0.2827 -0.1142 -0.6400
 6643SOL    HW226344   2.014   5.967   2.052  2.7249  0.4542  0.3365
 6643SOL    HW326345   2.012   5.816   2.063  0.2541  0.3126 -1.2248
 6643SOL    MW426346   2.006   5.895   2.100  0.1850  0.0171 -0.5883
 6644SOL     OW26347   1.048   5.032   3.173  0.2209  0.0396 -1.1190
 6644SOL    HW226348   1.052   4.967   3.104 -0.8538 -0.0721 -1.0996
 6644SOL    HW326349   1.003   4.988   3.245  0.1108  0.5760 -0.8485
 6644SOL    MW426350   1.043   5.018   3.174  0.0646  0.0957 -1.0807
 6645SOL     OW26351   1.699   3.420   4.048 -0.3085 -0.4070 -0.3575
 6645SOL    HW226352   1.758   3.441   3.976  0.2550  1.4698  0.6056
 6645SOL    HW326353   1.729   3.473   4.121 -1.0048 -2.0816  1.2398
 6645SOL    MW426354   1.711   3.429   4.048 -0.3260 -0.3803 -0.0197
 6646SOL     OW26355   5.780   2.725   1.591  0.2555 -0.1427 -0.1711
 6646SOL    HW226356   5.742   2.791   1.532  1.3649  0.3877 -0.3136
 6646SOL    HW326357   5.746   2.642   1.559 -2.8407  0.4140  1.2217
 6646SOL    MW426358   5.770   2.723   1.579 -0.0066  0.0008 -0.0062
 6647SOL     OW26359   3.639   0.747   2.045 -0.1262  0.1816  0.0703
 6647SOL    HW226360   3.569   0.759   2.108 -1.3128  2.3039 -1.5018
 6647SOL    HW326361   3.689   0.829   2.049  1.1516 -0.5640 -0.1359
 6647SOL    MW426362   3.637   0.759   2.054 -0.1142  0.3632 -0.1643
 6648SOL     OW26363   2.444   3.661   2.105  0.2407  0.2814 -0.0273
 6648SOL    HW226364   2.370   3.606   2.131 -0.0948  1.5361  1.8182
 6648SOL    HW326365   2.433   3.671   2.010  0.2875 -2.7015 -0.4729
 6648SOL    MW426366   2.433   3.655   2.096  0.2026  0.0534  0.1574
 6649SOL     OW26367   1.441   1.486   5.148 -0.5092  0.4287 -0.1987
 6649SOL    HW226368   1.447   1.508   5.055  1.0281  2.9772  0.4089
 6649SOL    HW326369   1.529   1.456   5.171 -0.9436 -0.4273  0.3864
 6649SOL    MW426370   1.454   1.485   5.139 -0.3637  0.6520 -0.0413
 6650SOL     OW26371   4.515   3.380   6.131 -0.5408 -0.0240 -0.4067
 6650SOL    HW226372   4.426   3.376   6.167 -0.2005 -1.2441  0.3611
 6650SOL    HW326373   4.556   3.298   6.159  1.2806  1.1200  0.4916
 6650SOL    MW426374   4.509   3.369   6.140 -0.2556 -0.0340 -0.1869
 6651SOL     OW26375   1.762   2.510   2.828 -0.1545  0.1390 -0.1512
 6651SOL    HW226376   1.806   2.429   2.854 -1.8403 -0.7280  0.1160
 6651SOL    HW326377   1.784   2.521   2.736  1.5898  0.4030  0.2610
 6651SOL    MW426378   1.771   2.501   2.819 -0.1468  0.0595 -0.0616
 6652SOL     OW26379   5.719   5.308   2.819  0.0027 -0.0905 -0.0914
 6652SOL    HW226380   5.655   5.238   2.826 -0.6158  0.5305  0.5008
 6652SOL    HW326381   5.672   5.387   2.843  1.2197  0.2557  1.2654
 6652SOL    MW426382   5.705   5.309   2.823  0.0817  0.0371  0.1657
 6653SOL     OW26383   2.951   3.913   1.444  0.6940 -0.6918 -0.8274
 6653SOL    HW226384   2.922   3.835   1.397  1.8126 -0.7955 -1.3861
 6653SOL    HW326385   2.973   3.976   1.375 -1.0943  0.4971 -0.3787
 6653SOL    MW426386   2.950   3.911   1.429  0.6056 -0.5486 -0.8419
 6654SOL     OW26387   1.601   6.079   0.476  0.2245  0.2433 -0.9034
 6654SOL    HW226388   1.561   6.036   0.552  1.6690 -0.2341 -0.3582
 6654SOL    HW326389   1.686   6.035   0.467  0.0687  0.2895 -2.8280
 6654SOL    MW426390   1.607   6.067   0.485  0.3945  0.1864 -1.0854
 6655SOL     OW26391   2.616   1.751   6.265  0.9494  0.2035 -0.1170
 6655SOL    HW226392   2.687   1.812   6.286  0.8605  0.5053 -0.6738
 6655SOL    HW326393   2.537   1.804   6.268  0.7836 -0.0573  0.1601
 6655SOL    MW426394   2.615   1.766   6.268  0.9158  0.2089 -0.1539
 6656SOL     OW26395   5.617   0.304   6.228  0.0570  0.0034 -0.1668
 6656SOL    HW226396   5.526   0.311   6.258  0.5992  0.4503  1.4626
 6656SOL    HW326397   5.639   0.391   6.195 -0.0048 -0.0072 -0.2346
 6656SOL    MW426398   5.608   0.316   6.228  0.1204  0.0610  0.0393
 6657SOL     OW26399   2.974   5.765   0.473  0.0697  0.0325  0.6978
 6657SOL    HW226400   2.973   5.731   0.563  0.0709  0.2794  0.7916
 6657SOL    HW326401   3.005   5.855   0.482  0.8182 -0.1829  0.3660
 6657SOL    MW426402   2.978   5.772   0.486  0.1686  0.0366  0.6664
 6658SOL     OW26403   1.521   0.032   3.764  0.1654 -0.3955  0.3124
 6658SOL    HW226404   1.517  -0.064   3.769  0.6545 -0.5230 -1.1619
 6658SOL    HW326405   1.443   0.057   3.714  0.4404 -0.0922  0.0310
 6658SOL    MW426406   1.510   0.022   3.758  0.2662 -0.3723  0.0808
 6659SOL     OW26407   5.875   5.799   4.151 -0.1672 -0.3678  0.8799
 6659SOL    HW226408   5.930   5.734   4.194  0.1454 -1.2441 -0.7814
 6659SOL    HW326409   5.798   5.806   4.208  0.0666 -1.7386  1.4028
 6659SOL    MW426410   5.872   5.792   4.164 -0.0951 -0.6642  0.7297
 6660SOL     OW26411   5.565   5.907   3.148  0.2617 -0.1505 -0.0933
 6660SOL    HW226412   5.567   5.875   3.058  1.1120  0.2972 -0.2484
 6660SOL    HW326413   5.472   5.922   3.166  0.0933 -0.1135 -0.9435
 6660SOL    MW426414   5.553   5.905   3.139  0.3517 -0.0866 -0.2260
 6661SOL     OW26415   3.551   5.878   2.433  0.4364 -0.1973  0.2142
 6661SOL    HW226416   3.551   5.973   2.427  3.6338 -0.1601 -1.0684
 6661SOL    HW326417   3.598   5.859   2.515  0.6728 -0.6358 -0.0158
 6661SOL    MW426418   3.557   5.888   2.443  0.8895 -0.2502  0.0147
 6662SOL     OW26419   2.805   2.280   1.538  0.1105  0.6782  0.3069
 6662SOL    HW226420   2.819   2.312   1.628 -0.2813 -1.8509  1.3284
 6662SOL    HW326421   2.712   2.257   1.534 -0.1813  1.8976 -1.2037
 6662SOL    MW426422   2.795   2.281   1.549  0.0203  0.5054  0.2424
 6663SOL     OW26423   0.823   1.023   3.167 -0.2332 -0.1672  0.5573
 6663SOL    HW226424   0.768   0.963   3.217  0.0752 -1.0376 -0.1239
 6663SOL    HW326425   0.845   1.093   3.228 -0.7571 -0.6518  1.3083
 6663SOL    MW426426   0.819   1.025   3.182 -0.2616 -0.3460  0.5665
 6664SOL     OW26427   4.313   3.681   6.408 -0.0120 -0.1125 -0.0158
 6664SOL    HW226428   4.252   3.739   6.363 -0.5765 -0.3816  0.3864
 6664SOL    HW326429   4.379   3.659   6.343  1.3378  2.5227  0.3107
 6664SOL    MW426430   4.314   3.686   6.394  0.0916  0.1997  0.0803
 6665SOL     OW26431   2.577   6.408   3.524 -0.1287  0.4919  0.5224
 6665SOL    HW226432   2.573   6.314   3.507 -2.1329  0.4725  0.8522
 6665SOL    HW326433   2.574   6.449   3.438  1.0437  0.2652  0.3639
 6665SOL    MW426434   2.576   6.401   3.510 -0.2384  0.4595  0.5450
 6666SOL     OW26435   1.748   1.216   3.752 -0.3848  0.1712  0.1811
 6666SOL    HW226436   1.818   1.282   3.756 -1.6973  1.5611  1.9162
 6666SOL    HW326437   1.794   1.134   3.734  1.5749  1.1783  0.2345
 6666SOL    MW426438   1.764   1.214   3.750 -0.2994  0.4874  0.4170
 6667SOL     OW26439   6.225   5.192   5.795 -0.2992 -0.4941  0.4789
 6667SOL    HW226440   6.164   5.122   5.819 -0.2992 -0.2646  1.1548
 6667SOL    HW326441   6.170   5.270   5.785 -0.0429 -0.0912  1.9147
 6667SOL    MW426442   6.210   5.193   5.797 -0.2654 -0.4107  0.7575
 6668SOL     OW26443   4.195   5.288   2.862  0.2945 -0.5231  0.0794
 6668SOL    HW226444   4.159   5.321   2.945  0.5829  0.1054 -0.0366
 6668SOL    HW326445   4.248   5.360   2.829 -0.6093 -0.3969 -1.1515
 6668SOL    MW426446   4.197   5.302   2.869  0.2133 -0.4235 -0.0983
 6669SOL     OW26447   4.161   4.418   5.987  0.9461 -0.2492  0.0020
 6669SOL    HW226448   4.173   4.466   5.905  0.1018 -0.3710 -0.2014
 6669SOL    HW326449   4.134   4.330   5.960  0.8987 -0.3616  0.4092
 6669SOL    MW426450   4.159   4.413   5.973  0.8285 -0.2801  0.0289
 6670SOL     OW26451   2.335   1.963   6.410  0.1141  0.5517  0.0845
 6670SOL    HW226452   2.302   1.931   6.494 -0.4115  0.9967  0.0579
 6670SOL    HW326453   2.400   2.030   6.433 -0.2205  0.8624  0.1451
 6670SOL    MW426454   2.339   1.968   6.424  0.0006  0.6514  0.0890
 6671SOL     OW26455   0.628   3.834   2.472  0.3154  0.6175 -0.5014
 6671SOL    HW226456   0.682   3.849   2.395 -0.1132 -1.6840 -1.3254
 6671SOL    HW326457   0.679   3.775   2.527  0.3133  1.6650  0.6659
 6671SOL    MW426458   0.642   3.828   2.469  0.2586  0.4521 -0.4561
 6672SOL     OW26459   0.754   1.706   2.157  0.1811 -0.2677  0.0122
 6672SOL    HW226460   0.801   1.631   2.191 -0.0105 -0.1023  0.6541
 6672SOL    HW326461   0.743   1.764   2.232 -1.3270 -0.4454 -0.0410
 6672SOL    MW426462   0.758   1.704   2.171 -0.0432 -0.2693  0.0898
 6673SOL     OW26463   3.441   5.775   0.275  0.1062  0.6540  0.5412
 6673SOL    HW226464   3.466   5.684   0.260  0.1615  1.0390 -2.0662
 6673SOL    HW326465   3.395   5.773   0.359 -1.1989 -2.0603 -0.1137
 6673SOL    MW426466   3.438   5.763   0.284 -0.0587  0.3467  0.1108
 6674SOL     OW26467   2.286   3.369   0.214 -0.5198  0.2065 -0.5858
 6674SOL    HW226468   2.269   3.404   0.301 -0.7644 -2.3031  0.4586
 6674SOL    HW326469   2.205   3.321   0.191 -1.2185  2.3232 -3.0563
 6674SOL    MW426470   2.273   3.367   0.222 -0.6443  0.1547 -0.7739
 6675SOL     OW26471   5.095   4.206   0.941 -0.2357  0.2332 -0.7295
 6675SOL    HW226472   5.072   4.251   1.022 -0.1889 -0.4944 -0.3007
 6675SOL    HW326473   5.132   4.274   0.885  0.4322  0.6098  0.1416
 6675SOL    MW426474   5.097   4.221   0.945 -0.1414  0.1869 -0.5580
 6676SOL     OW26475   6.184   3.059   1.880 -0.1067 -0.0547 -0.8547
 6676SOL    HW226476   6.178   3.150   1.852 -1.1450  0.3269  0.5086
 6676SOL    HW326477   6.098   3.021   1.860  0.1919 -0.6452 -1.0604
 6676SOL    MW426478   6.172   3.066   1.874 -0.2043 -0.0823 -0.7020
 6677SOL     OW26479   5.128   3.526   0.766 -0.0887 -0.3715  0.0686
 6677SOL    HW226480   5.058   3.491   0.712 -0.7395  2.1461 -0.8338
 6677SOL    HW326481   5.188   3.452   0.779 -1.1539 -1.6723 -2.0437
 6677SOL    MW426482   5.127   3.512   0.761 -0.3151 -0.2110 -0.3291
 6678SOL     OW26483   2.139   2.824   4.380 -0.1860 -0.1188 -0.2559
 6678SOL    HW226484   2.085   2.762   4.429 -1.2797  0.7055 -0.3724
 6678SOL    HW326485   2.146   2.900   4.437 -1.7848  1.0092 -1.4376
 6678SOL    MW426486   2.133   2.826   4.394 -0.5412  0.1388 -0.4272
 6679SOL     OW26487   4.422   5.462   2.799 -0.3341 -0.0487 -0.2216
 6679SOL    HW226488   4.472   5.543   2.813 -1.6841  0.6068  1.0637
 6679SOL    HW326489   4.483   5.392   2.821  0.1025  0.7232  1.1306
 6679SOL    MW426490   4.437   5.463   2.804 -0.4546  0.1396  0.1264
 6680SOL     OW26491   2.624   6.273   2.353  0.4294 -0.0344  0.3056
 6680SOL    HW226492   2.562   6.221   2.405  0.2177  1.8209  2.0123
 6680SOL    HW326493   2.709   6.256   2.394  0.7820 -0.9829 -0.7602
 6680SOL    MW426494   2.627   6.264   2.365  0.4480  0.0852  0.3902
 6681SOL     OW26495   3.041   4.074   0.513  0.1950  0.2865  0.0016
 6681SOL    HW226496   2.952   4.043   0.499 -1.2525  2.9391  2.2723
 6681SOL    HW326497   3.068   4.111   0.429 -0.4414 -1.3319 -0.9522
 6681SOL    MW426498   3.033   4.075   0.500 -0.0800  0.4229  0.1754
 6682SOL     OW26499   3.497   5.902   0.656  0.1342  0.3102 -0.3832
 6682SOL    HW226500   3.542   5.827   0.694 -0.8068  0.5007  1.1812
 6682SOL    HW326501   3.461   5.950   0.731 -2.5110  0.2586 -1.4826
 6682SOL    MW426502   3.498   5.899   0.671 -0.3390  0.3285 -0.3218
 6683SOL     OW26503   6.300   5.863   4.789  0.4535 -0.0389 -0.6115
 6683SOL    HW226504   6.255   5.875   4.705  0.9767 -0.4114 -0.9477
 6683SOL    HW326505   6.250   5.916   4.851 -1.1731 -1.3575 -0.7215
 6683SOL    MW426506   6.287   5.872   4.786  0.3079 -0.2620 -0.6703
 6684SOL     OW26507   1.388   5.727   4.286 -0.4488  0.0023 -0.4058
 6684SOL    HW226508   1.376   5.819   4.265  0.4250  0.6304  1.6329
 6684SOL    HW326509   1.429   5.727   4.373 -1.0765 -2.3103 -0.0424
 6684SOL    MW426510   1.392   5.739   4.295 -0.4163 -0.2200 -0.0889
 6685SOL     OW26511   6.054   3.774   1.258  0.0259 -0.0745 -0.3713
 6685SOL    HW226512   6.058   3.860   1.300 -0.6573  1.5964 -3.4355
 6685SOL    HW326513   6.031   3.793   1.167  2.8794 -3.2578 -1.9719
 6685SOL    MW426514   6.051   3.788   1.252  0.3122 -0.2741 -0.9868
 6686SOL     OW26515   6.387   5.268   3.446  0.6241  0.5209 -0.5098
 6686SOL    HW226516   6.472   5.288   3.484 -1.0044  0.4777  3.6508
 6686SOL    HW326517   6.329   5.337   3.479 -1.6816 -1.5438  0.0553
 6686SOL    MW426518   6.390   5.280   3.455  0.1050  0.2428  0.1137
 6687SOL     OW26519   3.432   2.968   0.494 -0.4345 -0.4898  0.0962
 6687SOL    HW226520   3.479   2.989   0.574 -0.8380 -0.7287  0.4020
 6687SOL    HW326521   3.341   2.958   0.522 -0.7837  0.6095 -0.5881
 6687SOL    MW426522   3.426   2.969   0.508 -0.5338 -0.3763  0.0463
 6688SOL     OW26523   4.945   1.978   3.527  0.3482  0.2477  0.0939
 6688SOL    HW226524   5.002   2.045   3.488  0.5861  0.8101  1.3576
 6688SOL    HW326525   4.879   2.028   3.574 -1.0128 -0.4092 -1.0441
 6688SOL    MW426526   4.944   1.994   3.528  0.2000  0.2352  0.1105
 6689SOL     OW26527   2.770   2.569   3.806 -0.3810 -0.3042  0.0109
 6689SOL    HW226528   2.807   2.647   3.848 -1.2873 -0.7456  1.7455
 6689SOL    HW326529   2.689   2.600   3.766 -1.0922 -0.4394  1.2839
 6689SOL    MW426530   2.764   2.583   3.806 -0.5944 -0.3802  0.4077
 6690SOL     OW26531   3.098   0.134   0.275 -0.6580  0.0254 -0.0922
 6690SOL    HW226532   3.032   0.082   0.229 -1.6371  0.9242  0.2597
 6690SOL    HW326533   3.154   0.070   0.317 -1.3743 -0.7564 -0.3047
 6690SOL    MW426534   3.096   0.119   0.274 -0.8817  0.0408 -0.0738
 6691SOL     OW26535   1.390   1.924   4.650  0.0862  0.0341 -0.4913
 6691SOL    HW226536   1.414   1.928   4.557  1.2462  3.0522 -0.1728
 6691SOL    HW326537   1.445   1.990   4.692 -1.5947 -0.0575  2.0913
 6691SOL    MW426538   1.400   1.933   4.643  0.0175  0.4202 -0.1086
 6692SOL     OW26539   4.126   3.584   5.343  0.5065  0.2282  0.1425
 6692SOL    HW226540   4.208   3.535   5.358  0.9550  1.2480  1.2190
 6692SOL    HW326541   4.059   3.531   5.387  0.3943 -1.0540 -1.4642
 6692SOL    MW426542   4.128   3.570   5.351  0.5508  0.1936  0.0725
 6693SOL     OW26543   2.619   4.691   2.584 -0.2656 -0.1133 -0.1887
 6693SOL    HW226544   2.684   4.621   2.580 -0.5608 -0.3949 -0.1635
 6693SOL    HW326545   2.660   4.760   2.637 -0.0910 -0.3920  0.0413
 6693SOL    MW426546   2.633   4.691   2.590 -0.2815 -0.1872 -0.1550
 6694SOL     OW26547   0.387   3.571   2.989  0.2055  0.0948  0.1538
 6694SOL    HW226548   0.413   3.623   3.064  0.2675  0.5220 -0.1608
 6694SOL    HW326549   0.316   3.620   2.948  0.2613 -0.0652 -0.1424
 6694SOL    MW426550   0.381   3.584   2.993  0.2210  0.1300  0.0732
 6695SOL     OW26551   1.049   4.538   3.065 -0.2523  0.1349  0.0618
 6695SOL    HW226552   1.058   4.486   3.145 -0.5062 -1.7726 -1.0757
 6695SOL    HW326553   0.969   4.588   3.077 -0.2766 -0.1249  1.0139
 6695SOL    MW426554   1.040   4.538   3.077 -0.2890 -0.1510  0.0373
 6696SOL     OW26555   2.482   2.311   5.518  0.4632 -0.3354 -0.5346
 6696SOL    HW226556   2.425   2.293   5.593 -0.6494  2.0617 -0.7206
 6696SOL    HW326557   2.555   2.361   5.555  0.0961  0.5397 -0.9615
 6696SOL    MW426558   2.484   2.315   5.533  0.2679  0.0963 -0.6154
 6697SOL     OW26559   6.212   5.314   4.552 -0.8506 -0.3068  0.2787
 6697SOL    HW226560   6.121   5.344   4.559 -0.7640 -0.0422  0.2698
 6697SOL    HW326561   6.239   5.338   4.463 -0.5575  0.2179  0.5065
 6697SOL    MW426562   6.204   5.321   4.541 -0.8005 -0.2027  0.3076
 6698SOL     OW26563   5.577   1.361   2.211 -0.0332 -0.4895  0.2842
 6698SOL    HW226564   5.604   1.439   2.164  1.9736 -0.5947  1.1635
 6698SOL    HW326565   5.595   1.380   2.303 -0.0319 -1.7718  0.5777
 6698SOL    MW426566   5.583   1.374   2.217  0.2317 -0.6726  0.4389
 6699SOL     OW26567   0.260   5.211   3.925  0.0498 -0.3341 -0.2484
 6699SOL    HW226568   0.350   5.179   3.920  0.7929  1.0769  2.1033
 6699SOL    HW326569   0.256   5.282   3.861  0.1488 -1.2866 -1.3430
 6699SOL    MW426570   0.271   5.216   3.916  0.1609 -0.2736 -0.0825
 6700SOL     OW26571   3.465   3.908   0.285  0.2214  0.1907 -0.0622
 6700SOL    HW226572   3.474   3.817   0.256  1.6672  0.3221 -0.1089
 6700SOL    HW326573   3.531   3.956   0.234 -0.5266  1.2694 -0.0443
 6700SOL    MW426574   3.475   3.902   0.274  0.3135  0.3503 -0.0660
 6701SOL     OW26575   1.217   1.676   2.683  0.3819  0.1121  0.3421
 6701SOL    HW226576   1.277   1.730   2.632 -0.6104  0.7381 -0.1929
 6701SOL    HW326577   1.143   1.661   2.624  0.8624 -2.3190  0.2648
 6701SOL    MW426578   1.215   1.681   2.668  0.3144 -0.1260  0.2613
 6702SOL     OW26579   6.268   5.703   3.316 -0.0031  0.2301 -0.3288
 6702SOL    HW226580   6.327   5.640   3.273 -0.4503 -0.8693  0.6253
 6702SOL    HW326581   6.180   5.668   3.301 -0.1706 -0.2600  1.5341
 6702SOL    MW426582   6.264   5.690   3.308 -0.0842  0.0204  0.0429
 6703SOL     OW26583   5.543   0.690   4.337 -0.0790  0.2804  0.4475
 6703SOL    HW226584   5.589   0.608   4.357 -1.0476 -0.1227  1.0888
 6703SOL    HW326585   5.476   0.698   4.406 -0.1542  1.4947  0.2632
 6703SOL    MW426586   5.540   0.680   4.349 -0.2168  0.3874  0.5078
 6704SOL     OW26587   5.195   4.827   3.630  0.2529  0.0430  0.5800
 6704SOL    HW226588   5.277   4.875   3.621  0.7641 -0.6057  1.6150
 6704SOL    HW326589   5.128   4.887   3.598  0.8414  1.5118  1.9932
 6704SOL    MW426590   5.197   4.841   3.624  0.3980  0.1512  0.9030
 6705SOL     OW26591   0.112   6.002   4.823 -0.4373 -0.0789  0.7074
 6705SOL    HW226592   0.032   5.949   4.823  1.1688 -2.9641 -3.1188
 6705SOL    HW326593   0.175   5.950   4.872  0.1206  0.2570  0.3475
 6705SOL    MW426594   0.110   5.988   4.829 -0.1518 -0.4153  0.1551
 6706SOL     OW26595   5.933   3.399   1.523  0.2645  0.2662  0.0073
 6706SOL    HW226596   5.999   3.330   1.518  1.8715  1.8396 -1.6285
 6706SOL    HW326597   5.915   3.408   1.617  2.2863 -0.2940  0.4906
 6706SOL    MW426598   5.939   3.391   1.535  0.7433  0.3999 -0.1448
 6707SOL     OW26599   3.734   5.191   0.405 -0.9243 -0.0191  0.2882
 6707SOL    HW226600   3.796   5.152   0.344 -0.0114 -2.1316  2.4155
 6707SOL    HW326601   3.734   5.132   0.481 -1.9799  2.4325  2.3494
 6707SOL    MW426602   3.742   5.178   0.407 -0.9431  0.0257  0.8408
 6708SOL     OW26603   5.483   4.736   6.317 -0.2020  0.4613  0.0516
 6708SOL    HW226604   5.520   4.651   6.290 -1.0320  0.1620 -0.1689
 6708SOL    HW326605   5.463   4.724   6.409 -1.7132 -0.1056 -0.3283
 6708SOL    MW426606   5.485   4.723   6.325 -0.5109  0.3470 -0.0276
 6709SOL     OW26607   1.951   0.965   2.883  0.5951  0.0119 -0.3335
 6709SOL    HW226608   1.932   1.004   2.968  1.9377 -1.5045  0.7258
 6709SOL    HW326609   2.042   0.990   2.865  0.4490 -0.0119 -1.1309
 6709SOL    MW426610   1.961   0.973   2.892  0.7530 -0.1913 -0.2990
 6710SOL     OW26611   0.694   2.302   4.679  1.0016  0.0808 -0.0247
 6710SOL    HW226612   0.704   2.254   4.596  1.4282 -0.2788  0.2284
 6710SOL    HW326613   0.624   2.256   4.725  2.5489 -1.4152  0.9634
 6710SOL    MW426614   0.686   2.289   4.674  1.2621 -0.1640  0.1391
 6711SOL     OW26615   6.118   5.958   0.041  0.5483 -0.3123  0.4044
 6711SOL    HW226616   6.052   5.991  -0.019  1.3362  1.4480  0.4540
 6711SOL    HW326617   6.082   5.973   0.128  0.8600  0.3924  0.4241
 6711SOL    MW426618   6.105   5.964   0.045  0.6934  0.0129  0.4135
 6712SOL     OW26619   0.699   0.792   6.173 -0.3512 -0.4365  0.1296
 6712SOL    HW226620   0.736   0.773   6.087  0.6172 -1.2359  0.7077
 6712SOL    HW326621   0.605   0.800   6.157 -0.5430 -3.0907 -0.6436
 6712SOL    MW426622   0.691   0.790   6.159 -0.2487 -0.8922  0.1039
 6713SOL     OW26623   3.125   5.473   4.047  0.1093  0.8233 -0.0739
 6713SOL    HW226624   3.204   5.472   4.101  0.6108  1.9371 -0.7579
 6713SOL    HW326625   3.141   5.542   3.982 -0.6215 -0.2337 -1.4200
 6713SOL    MW426626   3.137   5.482   4.046  0.0790  0.8308 -0.3417
 6714SOL     OW26627   0.601   2.151   5.941 -0.1640  0.2376 -0.5347
 6714SOL    HW226628   0.541   2.152   5.866 -0.0124 -0.0609 -0.6622
 6714SOL    HW326629   0.680   2.194   5.909 -0.1438  0.2224 -0.5050
 6714SOL    MW426630   0.603   2.157   5.927 -0.1414  0.1962 -0.5476
 6715SOL     OW26631   4.762   5.554   2.900 -0.0556 -0.2030  0.3022
 6715SOL    HW226632   4.731   5.466   2.879  0.4809  0.0311 -1.6639
 6715SOL    HW326633   4.787   5.549   2.992 -2.3104 -1.4040  0.9153
 6715SOL    MW426634   4.761   5.542   2.909 -0.2823 -0.3306  0.1237
 6716SOL     OW26635   2.462   1.146   3.237 -0.0903  0.5151  0.8533
 6716SOL    HW226636   2.396   1.193   3.186 -2.8465 -2.6345  1.1478
 6716SOL    HW326637   2.468   1.195   3.319  0.6506  2.8202 -0.4922
 6716SOL    MW426638   2.454   1.158   3.241 -0.3562  0.4036  0.7146
 6717SOL     OW26639   2.105   0.363   1.155  0.3032 -0.1418 -0.3837
 6717SOL    HW226640   2.057   0.280   1.156 -0.2503  0.1774  0.0422
 6717SOL    HW326641   2.179   0.347   1.095 -0.9830 -0.2723 -2.0194
 6717SOL    MW426642   2.108   0.350   1.147  0.0605 -0.1169 -0.5433
 6718SOL     OW26643   4.040   4.148   2.997 -0.0403  0.4252  0.2896
 6718SOL    HW226644   4.056   4.064   2.956  0.1120  0.9021 -0.6634
 6718SOL    HW326645   3.948   4.146   3.022 -0.0730  0.0369  0.1345
 6718SOL    MW426646   4.030   4.137   2.995 -0.0246  0.4369  0.1434
 6719SOL     OW26647   5.917   1.657   3.762  0.1217 -0.4362  0.8226
 6719SOL    HW226648   6.011   1.641   3.755  0.2932  0.7323  0.0482
 6719SOL    HW326649   5.881   1.626   3.678  0.3408  2.1465 -0.3259
 6719SOL    MW426650   5.924   1.651   3.750  0.1732  0.0587  0.5689
 6720SOL     OW26651   5.218   4.546   3.702  0.2201 -0.9527  0.3406
 6720SOL    HW226652   5.193   4.637   3.684  0.8093 -0.9590 -0.5927
 6720SOL    HW326653   5.302   4.553   3.748  0.8389 -1.0269 -0.7318
 6720SOL    MW426654   5.226   4.559   3.706  0.3795 -0.9634  0.0760
 6721SOL     OW26655   1.767   4.179   1.482 -0.5074 -0.5218  0.2420
 6721SOL    HW226656   1.830   4.119   1.441 -1.4920 -1.2708 -0.2337
 6721SOL    HW326657   1.682   4.137   1.469 -1.0584  0.1758  1.3835
 6721SOL    MW426658   1.764   4.165   1.475 -0.7100 -0.5286  0.3298
 6722SOL     OW26659   0.127   0.649   3.348  0.0853 -0.2223  0.1949
 6722SOL    HW226660   0.130   0.562   3.386  0.1743 -1.4477 -2.4190
 6722SOL    HW326661   0.206   0.655   3.294 -1.2875  0.3235 -1.8814
 6722SOL    MW426662   0.138   0.639   3.346 -0.0841 -0.3120 -0.4239
 6723SOL     OW26663   4.327   5.076   0.212  0.1688 -0.3182  0.7702
 6723SOL    HW226664   4.360   5.150   0.261  0.1650 -2.5479  4.5392
 6723SOL    HW326665   4.235   5.068   0.238  0.0393 -1.3959  0.0886
 6723SOL    MW426666   4.319   5.084   0.222  0.1513 -0.7546  1.1775
 6724SOL     OW26667   3.543   0.711   3.936  0.3422 -0.0190 -0.5482
 6724SOL    HW226668   3.467   0.670   3.894 -0.6656  0.1382  1.0719
 6724SOL    HW326669   3.618   0.669   3.894 -0.6021 -3.3310  0.7375
 6724SOL    MW426670   3.543   0.700   3.925  0.0846 -0.4352 -0.1648
 6725SOL     OW26671   4.914   2.205   2.868 -0.0223  0.0887 -0.1283
 6725SOL    HW226672   4.937   2.261   2.943  0.3560  0.7574 -0.7289
 6725SOL    HW326673   4.901   2.266   2.795 -0.8458 -0.5194 -0.5068
 6725SOL    MW426674   4.916   2.220   2.868 -0.0811  0.0967 -0.2575
 6726SOL     OW26675   6.382   2.371   0.995 -0.1394  1.2771 -0.3162
 6726SOL    HW226676   6.438   2.298   1.021  0.8153  2.1336  0.1196
 6726SOL    HW326677   6.443   2.437   0.962 -0.6074  3.1150  2.1896
 6726SOL    MW426678   6.397   2.370   0.994 -0.0752  1.6326  0.0719
 6727SOL     OW26679   3.258   0.184   0.530  0.1466  0.0233  0.3221
 6727SOL    HW226680   3.325   0.166   0.464  1.2160  0.7576  1.1693
 6727SOL    HW326681   3.176   0.183   0.481  0.9607  1.2623 -1.1818
 6727SOL    MW426682   3.256   0.182   0.515  0.3951  0.2837  0.2355
 6728SOL     OW26683   4.792   4.979   3.588  0.3085  0.0601 -0.2038
 6728SOL    HW226684   4.821   4.888   3.592 -1.0558 -0.3997 -0.1419
 6728SOL    HW326685   4.758   4.997   3.675  0.0222  0.4308 -0.3910
 6728SOL    MW426686   4.791   4.969   3.600  0.0907  0.0483 -0.2203
 6729SOL     OW26687   3.307   4.468   3.578 -0.1609 -0.0887  0.2730
 6729SOL    HW226688   3.213   4.456   3.568 -0.1411  0.4617 -0.6896
 6729SOL    HW326689   3.333   4.520   3.502  0.6136  1.4506  1.5329
 6729SOL    MW426690   3.298   4.473   3.567 -0.0561  0.1870  0.3122
 6730SOL     OW26691   1.640   5.531   4.994 -0.2565  0.5771  0.1078
 6730SOL    HW226692   1.589   5.497   5.068 -0.3486  1.6241  0.5502
 6730SOL    HW326693   1.578   5.585   4.945  0.1622  1.0361  0.0720
 6730SOL    MW426694   1.625   5.534   4.997 -0.2134  0.7758  0.1614
 6731SOL     OW26695   5.335   4.809   4.282 -0.4401 -0.3164  0.5032
 6731SOL    HW226696   5.419   4.832   4.242 -0.2453  0.1443  1.1661
 6731SOL    HW326697   5.284   4.771   4.210  0.5647 -1.2170  0.2370
 6731SOL    MW426698   5.339   4.807   4.267 -0.2818 -0.3745  0.5555
 6732SOL     OW26699   4.532   5.970   0.891  0.7581 -0.2690  0.4383
 6732SOL    HW226700   4.505   6.028   0.963 -1.4648  0.9548 -1.2680
 6732SOL    HW326701   4.518   5.881   0.926 -1.2335  0.2953  1.2261
 6732SOL    MW426702   4.527   5.966   0.905  0.2021 -0.0331  0.3171
 6733SOL     OW26703   0.574   5.297   0.570  0.0824 -0.2412  0.1913
 6733SOL    HW226704   0.546   5.225   0.513  0.1027  1.6266 -2.3227
 6733SOL    HW326705   0.670   5.290   0.570  0.0914 -0.1422 -0.1579
 6733SOL    MW426706   0.583   5.286   0.563  0.0863  0.0183 -0.1865
 6734SOL     OW26707   1.388   5.474   0.539  0.1236  0.1143 -0.0408
 6734SOL    HW226708   1.391   5.425   0.621  2.2446  0.9084  0.4128
 6734SOL    HW326709   1.462   5.535   0.544 -1.3431  2.1336 -1.3595
 6734SOL    MW426710   1.398   5.476   0.550  0.2100  0.4855 -0.1549
 6735SOL     OW26711   0.772   2.281   0.275 -0.4762 -0.3383  0.0808
 6735SOL    HW226712   0.731   2.367   0.265 -1.5669 -0.8977 -0.4690
 6735SOL    HW326713   0.816   2.285   0.360 -1.4671  0.3839  0.5786
 6735SOL    MW426714   0.772   2.293   0.285 -0.7508 -0.3168  0.0739
 6736SOL     OW26715   5.763   5.348   6.200  0.0846  0.5509  0.2346
 6736SOL    HW226716   5.691   5.411   6.209 -1.9066 -1.4401 -0.8920
 6736SOL    HW326717   5.823   5.390   6.139 -0.7920  1.6921  0.1173
 6736SOL    MW426718   5.761   5.362   6.193 -0.2938  0.4388  0.0705
 6737SOL     OW26719   4.482   2.931   4.715 -0.1763 -0.2911  0.0866
 6737SOL    HW226720   4.435   2.890   4.642 -0.5170 -0.3278  0.3243
 6737SOL    HW326721   4.534   2.860   4.753 -2.1857 -1.0098  1.6688
 6737SOL    MW426722   4.483   2.916   4.710 -0.4864 -0.3908  0.3267
 6738SOL     OW26723   0.397   3.899   4.562  0.3109 -0.5353 -0.4320
 6738SOL    HW226724   0.445   3.847   4.626  1.1287 -0.0464 -0.6430
 6738SOL    HW326725   0.305   3.875   4.576  0.5069 -0.6556  0.7157
 6738SOL    MW426726   0.391   3.889   4.572  0.4447 -0.4866 -0.3084
 6739SOL     OW26727   5.935   0.971   3.848 -0.1179 -0.0864  0.4552
 6739SOL    HW226728   5.938   0.980   3.943 -1.2129  0.8791  0.4196
 6739SOL    HW326729   5.956   0.879   3.832 -1.3138 -0.6234  1.7403
 6739SOL    MW426730   5.938   0.960   3.859 -0.4202 -0.0299  0.6201
 6740SOL     OW26731   3.948   1.882   6.057 -0.2284  0.1598  0.2405
 6740SOL    HW226732   4.000   1.853   6.132 -1.4620  1.4301  1.6409
 6740SOL    HW326733   3.996   1.957   6.022 -0.2917  0.3343  0.5268
 6740SOL    MW426734   3.961   1.888   6.062 -0.3995  0.3504  0.4631
 6741SOL     OW26735   3.392   2.029   3.845  0.2565  0.4167 -0.7119
 6741SOL    HW226736   3.487   2.019   3.851  0.1256 -0.2960  0.8362
 6741SOL    HW326737   3.357   1.957   3.899 -1.2029 -0.1856 -2.3762
 6741SOL    MW426738   3.400   2.018   3.853  0.0467  0.2432 -0.7272
 6742SOL     OW26739   3.293   5.793   0.506 -0.2135 -0.2456  0.0059
 6742SOL    HW226740   3.362   5.822   0.566 -0.6141  1.9573 -0.4953
 6742SOL    HW326741   3.230   5.866   0.505 -2.4478 -2.0436  0.2323
 6742SOL    MW426742   3.294   5.806   0.514 -0.5612 -0.1922 -0.0304
 6743SOL     OW26743   3.457   4.095   3.337  0.3340  0.4844 -0.0121
 6743SOL    HW226744   3.438   4.152   3.411  1.1937  1.1132 -0.2486
 6743SOL    HW326745   3.507   4.022   3.375 -0.5281  0.0186  0.2482
 6743SOL    MW426746   3.461   4.093   3.352  0.3337  0.5059 -0.0090
 6744SOL     OW26747   3.920   1.293   4.620 -0.6990 -0.5268 -0.5641
 6744SOL    HW226748   3.827   1.272   4.609 -1.7251  1.5097  2.7707
 6744SOL    HW326749   3.955   1.218   4.669 -1.5834  0.3149  1.4542
 6744SOL    MW426750   3.912   1.280   4.625 -0.9511 -0.1471  0.1422
 6745SOL     OW26751   6.214   0.358   5.080  0.0254 -0.4222  0.2752
 6745SOL    HW226752   6.224   0.334   4.987 -0.1473 -1.7804  0.5870
 6745SOL    HW326753   6.130   0.320   5.105  0.4584 -0.7867  1.1994
 6745SOL    MW426754   6.205   0.350   5.071  0.0597 -0.6495  0.4383
 6746SOL     OW26755   0.074   4.233   4.383 -0.2208  0.2001  0.3035
 6746SOL    HW226756   0.091   4.148   4.341 -0.2648  0.7158 -0.8059
 6746SOL    HW326757   0.160   4.274   4.391 -0.3321  0.5820 -0.3679
 6746SOL    MW426758   0.087   4.227   4.378 -0.2413  0.3185  0.0685
 6747SOL     OW26759   6.316   3.880   4.961  0.0338  0.8259 -0.3815
 6747SOL    HW226760   6.276   3.966   4.980 -1.2044  0.6855 -2.0891
 6747SOL    HW326761   6.406   3.900   4.938 -0.0357  1.5952 -0.0207
 6747SOL    MW426762   6.322   3.894   4.961 -0.1388  0.9089 -0.5592
 6748SOL     OW26763   4.501   6.310   2.258  0.3246 -0.0377  0.4328
 6748SOL    HW226764   4.537   6.379   2.315  1.4651  0.2855 -0.6335
 6748SOL    HW326765   4.406   6.320   2.265  0.4686  1.1393  0.9032
 6748SOL    MW426766   4.493   6.321   2.267  0.4941  0.1603  0.3542
 6749SOL     OW26767   1.765   4.196   3.712  0.7248  0.4534 -0.5408
 6749SOL    HW226768   1.845   4.172   3.665 -0.5669 -0.2019 -2.5036
 6749SOL    HW326769   1.771   4.291   3.721  1.5723  0.4536 -0.9578
 6749SOL    MW426770   1.776   4.205   3.707  0.6662  0.3669 -0.8548
 6750SOL     OW26771   5.713   4.601   3.678  0.1640  0.4007 -0.0996
 6750SOL    HW226772   5.660   4.529   3.644 -0.9006  1.6461 -1.2239
 6750SOL    HW326773   5.737   4.652   3.600  0.9375  1.2309  0.6529
 6750SOL    MW426774   5.709   4.599   3.663  0.1256  0.6746 -0.1486
 6751SOL     OW26775   2.541   2.450   5.884  0.0759 -0.7828 -0.3105
 6751SOL    HW226776   2.519   2.493   5.801 -0.4051  1.2198  0.7868
 6751SOL    HW326777   2.506   2.361   5.875 -0.4110 -0.4590 -2.0506
 6751SOL    MW426778   2.533   2.444   5.872 -0.0518 -0.4758 -0.3953
 6752SOL     OW26779   2.458   1.274   6.017  0.6159  0.2688  0.5597
 6752SOL    HW226780   2.443   1.225   5.936 -2.4008 -0.9006  1.6756
 6752SOL    HW326781   2.552   1.266   6.033  1.3458  0.6078 -2.7818
 6752SOL    MW426782   2.468   1.266   6.008  0.3142  0.1593  0.2661
 6753SOL     OW26783   3.356   3.547   0.435  0.0871 -0.2223 -0.3800
 6753SOL    HW226784   3.317   3.460   0.432  1.4588 -0.8974  0.4027
 6753SOL    HW326785   3.431   3.543   0.376 -0.0533  0.5557 -0.6288
 6753SOL    MW426786   3.361   3.535   0.427  0.2496 -0.2087 -0.3095
 6754SOL     OW26787   1.216   3.828   1.911 -0.0801  0.4897  0.1541
 6754SOL    HW226788   1.259   3.856   1.831 -1.0189  0.8076 -0.2576
 6754SOL    HW326789   1.263   3.873   1.981  0.5025  0.5105 -0.2478
 6754SOL    MW426790   1.228   3.838   1.910 -0.1271  0.5344  0.0467
 6755SOL     OW26791   2.195   2.572   1.831  0.2131 -0.4151  0.3628
 6755SOL    HW226792   2.113   2.620   1.829  0.0792 -0.6239  0.6679
 6755SOL    HW326793   2.203   2.543   1.922  0.3467 -0.8731  0.2095
 6755SOL    MW426794   2.186   2.574   1.843  0.2131 -0.5030  0.3828
 6756SOL     OW26795   5.813   3.164   2.540 -0.3361 -0.0774 -0.6614
 6756SOL    HW226796   5.851   3.096   2.596 -0.4361 -0.7191 -1.3521
 6756SOL    HW326797   5.864   3.243   2.560  1.2019 -0.8466 -1.3667
 6756SOL    MW426798   5.825   3.165   2.550 -0.1463 -0.2635 -0.8456
 6757SOL     OW26799   5.264   2.692   5.132  0.1500  0.2207 -0.0688
 6757SOL    HW226800   5.299   2.621   5.079  1.0110  1.1082 -0.7402
 6757SOL    HW326801   5.337   2.717   5.190  0.1544  1.0897 -0.4227
 6757SOL    MW426802   5.278   2.686   5.133  0.2642  0.4524 -0.2040
 6758SOL     OW26803   5.513   2.651   5.295 -0.0450  0.1127 -0.1687
 6758SOL    HW226804   5.459   2.585   5.338 -1.7908  0.9391 -1.0044
 6758SOL    HW326805   5.578   2.674   5.361 -0.9891 -0.5801  1.0605
 6758SOL    MW426806   5.514   2.645   5.310 -0.3999  0.1303 -0.1168
 6759SOL     OW26807   5.645   5.773   3.945  0.2044  0.3309  0.0465
 6759SOL    HW226808   5.669   5.864   3.962 -0.2072  0.1511  1.7748
 6759SOL    HW326809   5.702   5.721   4.002 -0.4918 -0.4150  0.0875
 6759SOL    MW426810   5.656   5.778   3.955  0.0582  0.2088  0.2799
 6760SOL     OW26811   4.868   3.769   4.798  0.0470 -0.1524  0.0883
 6760SOL    HW226812   4.923   3.847   4.795 -0.6866  0.3660 -2.9152
 6760SOL    HW326813   4.794   3.794   4.853  0.6987  0.6185  0.6293
 6760SOL    MW426814   4.865   3.782   4.805  0.0362  0.0177 -0.2366
 6761SOL     OW26815   0.449   4.074   5.461 -0.0145 -0.0753  0.3568
 6761SOL    HW226816   0.478   4.060   5.551 -0.8133  0.3747  0.6923
 6761SOL    HW326817   0.435   4.169   5.454  2.9909  0.3804 -1.1558
 6761SOL    MW426818   0.451   4.085   5.472  0.2766  0.0442  0.2015
 6762SOL     OW26819   0.718   4.943   3.185  0.4632  0.0865 -0.5522
 6762SOL    HW226820   0.736   4.967   3.094 -0.0939 -0.7484 -0.8986
 6762SOL    HW326821   0.625   4.965   3.197  0.1632 -1.0822 -0.6251
 6762SOL    MW426822   0.708   4.949   3.175  0.3501 -0.1778 -0.6075
 6763SOL     OW26823   1.260   6.057   0.972 -0.4197 -0.4903  0.1779
 6763SOL    HW226824   1.344   6.090   0.939  0.1919 -2.3123 -0.2413
 6763SOL    HW326825   1.215   6.024   0.894 -1.2146 -0.1759  0.4991
 6763SOL    MW426826   1.265   6.057   0.957 -0.4439 -0.6892  0.1650
 6764SOL     OW26827   4.378   3.275   5.746  0.2532 -0.0014 -0.0390
 6764SOL    HW226828   4.374   3.179   5.745 -0.6553 -0.0091  1.5660
 6764SOL    HW326829   4.463   3.295   5.786  0.8489 -0.0918 -1.1934
 6764SOL    MW426830   4.389   3.265   5.751  0.2119 -0.0143  0.0205
 6765SOL     OW26831   6.190   2.735   1.710  0.1478 -1.2415 -0.4634
 6765SOL    HW226832   6.138   2.778   1.777  1.3795 -1.1649  0.4893
 6765SOL    HW326833   6.131   2.727   1.635 -0.3541  1.4956 -0.4830
 6765SOL    MW426834   6.176   2.740   1.709  0.2441 -0.8703 -0.3403
 6766SOL     OW26835   3.752   0.827   1.414  0.0805  0.5605 -0.2064
 6766SOL    HW226836   3.693   0.769   1.461  0.2667  0.8341  0.3740
 6766SOL    HW326837   3.734   0.914   1.449  0.7006  0.6717 -0.1500
 6766SOL    MW426838   3.742   0.831   1.425  0.1869  0.6112 -0.1224
 6767SOL     OW26839   1.153   3.417   4.713 -1.1548 -0.1809 -0.2652
 6767SOL    HW226840   1.132   3.325   4.702  0.7166 -0.6742 -0.1185
 6767SOL    HW326841   1.113   3.461   4.638 -2.4123 -1.0325 -0.1126
 6767SOL    MW426842   1.145   3.411   4.702 -1.0738 -0.3584 -0.2257
 6768SOL     OW26843   5.537   5.759   6.218 -0.2175 -0.1447  0.5183
 6768SOL    HW226844   5.546   5.786   6.309  0.1141 -0.9740  0.7382
 6768SOL    HW326845   5.457   5.804   6.188 -0.7781 -0.4856  1.4457
 6768SOL    MW426846   5.527   5.769   6.226 -0.2477 -0.2991  0.6696
 6769SOL     OW26847   0.862   4.683   4.791  0.1483 -0.3197 -0.3659
 6769SOL    HW226848   0.796   4.745   4.762 -0.3052 -0.5169  0.2298
 6769SOL    HW326849   0.870   4.699   4.885  1.6275  0.3443 -0.5803
 6769SOL    MW426850   0.854   4.693   4.799  0.2836 -0.2581 -0.3156
 6770SOL     OW26851   2.255   3.435   4.188 -0.0880 -0.4604  0.4091
 6770SOL    HW226852   2.231   3.364   4.128 -0.9066 -0.8743  1.2099
 6770SOL    HW326853   2.291   3.503   4.130 -0.9582 -0.8030 -0.5751
 6770SOL    MW426854   2.257   3.434   4.172 -0.3108 -0.5602  0.3849
 6771SOL     OW26855   4.134   5.380   5.731  0.3731 -0.0573  0.9249
 6771SOL    HW226856   4.092   5.423   5.805 -0.5640 -0.4037  0.6014
 6771SOL    HW326857   4.134   5.287   5.754  2.2795  0.0431  1.5656
 6771SOL    MW426858   4.129   5.373   5.744  0.5010 -0.0898  0.9667
 6772SOL     OW26859   2.018   2.820   3.296  0.2276  0.0355 -0.2898
 6772SOL    HW226860   2.021   2.772   3.213  1.5722  0.2088 -0.3589
 6772SOL    HW326861   1.973   2.902   3.275  2.0455  0.8443 -1.2915
 6772SOL    MW426862   2.013   2.824   3.282  0.6448  0.1650 -0.4311
 6773SOL     OW26863   4.046   5.690   2.187  1.1852  0.0953 -0.1790
 6773SOL    HW226864   3.991   5.705   2.264  1.6413  0.0753  0.1551
 6773SOL    HW326865   3.991   5.640   2.127  0.5647  0.7811 -0.1863
 6773SOL    MW426866   4.032   5.685   2.189  1.1635  0.1832 -0.1359
 6774SOL     OW26867   1.530   4.640   1.694  0.1736  0.0152  0.1560
 6774SOL    HW226868   1.450   4.591   1.712  1.0702 -1.6568 -0.2093
 6774SOL    HW326869   1.542   4.632   1.599  0.0334  1.4575  0.0042
 6774SOL    MW426870   1.521   4.632   1.684  0.2734 -0.0151  0.0878
 6775SOL     OW26871   1.507   5.364   3.374  0.5151  0.3254  0.1402
 6775SOL    HW226872   1.529   5.354   3.466  0.4899 -0.3375  0.0817
 6775SOL    HW326873   1.570   5.309   3.327  0.4675  0.5789 -0.2294
 6775SOL    MW426874   1.518   5.355   3.380  0.5055  0.2714  0.0837
 6776SOL     OW26875   2.618   1.333   5.425 -0.5142 -0.3500  0.3238
 6776SOL    HW226876   2.686   1.368   5.482  0.3841 -0.3410 -0.7262
 6776SOL    HW326877   2.592   1.250   5.466  0.0505 -0.3019  0.7892
 6776SOL    MW426878   2.623   1.327   5.438 -0.3212 -0.3425  0.2467
 6777SOL     OW26879   1.079   5.189   0.877 -0.0129  0.2957 -0.2982
 6777SOL    HW226880   1.049   5.099   0.892  2.7582 -0.3483  2.4328
 6777SOL    HW326881   0.998   5.238   0.860 -2.1748 -1.9761  2.3017
 6777SOL    MW426882   1.064   5.183   0.877  0.0675 -0.0890  0.4052
 6778SOL     OW26883   1.388   4.811   2.037  0.4126 -0.1492  0.1325
 6778SOL    HW226884   1.371   4.717   2.034  0.6891 -0.2125  0.5116
 6778SOL    HW326885   1.332   4.847   1.968 -0.3683 -0.4905  0.5624
 6778SOL    MW426886   1.378   4.804   2.027  0.3461 -0.2026  0.2392
 6779SOL     OW26887   0.772   1.005   5.802  0.6676  0.2996 -0.1757
 6779SOL    HW226888   0.699   0.991   5.742  0.6152 -1.1574  0.1879
 6779SOL    HW326889   0.739   1.068   5.866 -0.2702 -0.3290 -0.0309
 6779SOL    MW426890   0.758   1.011   5.802  0.5370  0.0244 -0.1086
 6780SOL     OW26891   5.060   4.110   1.697 -0.2553  0.0365 -0.1194
 6780SOL    HW226892   5.000   4.177   1.663 -0.3110 -0.4738 -1.0391
 6780SOL    HW326893   5.147   4.147   1.683 -0.2698 -0.2434 -0.9953
 6780SOL    MW426894   5.064   4.124   1.691 -0.2645 -0.0677 -0.3563
 6781SOL     OW26895   0.292   0.982   1.097  0.7244  0.0173  0.0174
 6781SOL    HW226896   0.240   0.911   1.059 -0.3247  0.0454  1.3146
 6781SOL    HW326897   0.234   1.058   1.092  1.3716  0.4955 -0.2390
 6781SOL    MW426898   0.277   0.983   1.091  0.6714  0.0841  0.1547
 6782SOL     OW26899   0.360   3.465   3.563 -0.1563 -0.0578  0.3547
 6782SOL    HW226900   0.390   3.431   3.648 -0.4822  0.2496  0.5951
 6782SOL    HW326901   0.276   3.507   3.582 -0.5680 -0.6010 -0.2522
 6782SOL    MW426902   0.353   3.466   3.577 -0.2536 -0.0889  0.3064
 6783SOL     OW26903   0.238   5.827   6.198 -0.2573  0.1390  0.0269
 6783SOL    HW226904   0.317   5.808   6.148  0.2120 -2.1381  1.4629
 6783SOL    HW326905   0.263   5.896   6.258  0.2167  0.3994 -0.4622
 6783SOL    MW426906   0.251   5.833   6.199 -0.1328 -0.1271  0.1519
 6784SOL     OW26907   4.287   5.027   1.563  0.2287 -0.3932  0.1779
 6784SOL    HW226908   4.375   5.021   1.528 -0.0042  1.4654 -0.8645
 6784SOL    HW326909   4.275   4.946   1.613  1.8425 -1.5093 -1.1460
 6784SOL    MW426910   4.297   5.015   1.565  0.4109 -0.2953 -0.1343
 6785SOL     OW26911   0.135   6.125   0.766  0.1223 -0.5603 -0.0381
 6785SOL    HW226912   0.052   6.079   0.777  0.0767 -0.1354  1.6599
 6785SOL    HW326913   0.182   6.109   0.848  0.5788  1.4123  0.1285
 6785SOL    MW426914   0.130   6.117   0.779  0.1765 -0.2440  0.2079
 6786SOL     OW26915   1.726   0.153   5.728  0.5917  0.0095  0.0203
 6786SOL    HW226916   1.661   0.087   5.704 -1.3199  1.1162  1.8268
 6786SOL    HW326917   1.734   0.145   5.823  0.5720  2.0918  0.2420
 6786SOL    MW426918   1.718   0.143   5.737  0.3369  0.4303  0.2879
 6787SOL     OW26919   2.348   5.988   4.751 -0.6427 -0.0397  0.2840
 6787SOL    HW226920   2.401   5.910   4.770  0.8173  0.6223 -0.8504
 6787SOL    HW326921   2.411   6.061   4.755 -1.6643  0.9052 -0.2265
 6787SOL    MW426922   2.364   5.988   4.754 -0.5848  0.1723  0.0670
 6788SOL     OW26923   0.790   0.127   1.093 -0.1054 -0.0545  0.4310
 6788SOL    HW226924   0.814   0.043   1.055 -1.3437  0.3471 -1.3697
 6788SOL    HW326925   0.864   0.185   1.070 -0.5796  0.0408 -0.9554
 6788SOL    MW426926   0.803   0.124   1.085 -0.3313  0.0111  0.0105
 6789SOL     OW26927   0.959   3.621   2.996  0.0375  0.0970 -0.0658
 6789SOL    HW226928   1.025   3.670   3.045 -1.0356  1.1734  0.3440
 6789SOL    HW326929   0.876   3.644   3.037 -0.7897  0.2075 -1.7080
 6789SOL    MW426930   0.957   3.630   3.008 -0.2132  0.2536 -0.2284
 6790SOL     OW26931   4.330   2.742   1.872  0.6469  0.0333 -0.0526
 6790SOL    HW226932   4.261   2.808   1.863  1.4838  0.8023 -1.0658
 6790SOL    HW326933   4.391   2.760   1.801  1.5784 -1.0341  0.4279
 6790SOL    MW426934   4.329   2.753   1.862  0.8802 -0.0061 -0.1229
 6791SOL     OW26935   5.642   0.781   3.138  0.3045  0.1433 -0.1100
 6791SOL    HW226936   5.548   0.778   3.159  0.0143 -0.9189 -1.4013
 6791SOL    HW326937   5.672   0.864   3.174 -1.2419  0.7203 -0.0773
 6791SOL    MW426938   5.633   0.791   3.145  0.0622  0.0793 -0.2760
 6792SOL     OW26939   4.028   3.064   4.881  0.4233  0.3043 -0.1034
 6792SOL    HW226940   4.117   3.028   4.883  0.7592  1.0250 -1.0561
 6792SOL    HW326941   3.998   3.048   4.791  0.0626  1.1683 -0.1410
 6792SOL    MW426942   4.036   3.057   4.869  0.4200  0.5134 -0.2340
 6793SOL     OW26943   4.808   5.949   0.813 -0.5732  0.2900  1.0433
 6793SOL    HW226944   4.718   5.972   0.835 -0.2329  0.9770  1.7682
 6793SOL    HW326945   4.838   6.022   0.759  0.1383  1.0247  2.3791
 6793SOL    MW426946   4.800   5.962   0.809 -0.4344  0.4775  1.3152
 6794SOL     OW26947   0.169   1.833   1.894 -0.4735  0.0151  0.3474
 6794SOL    HW226948   0.214   1.869   1.971 -1.2481  2.2531 -0.1528
 6794SOL    HW326949   0.095   1.784   1.931  1.5110 -2.6264  1.1129
 6794SOL    MW426950   0.165   1.831   1.909 -0.3138 -0.0382  0.3824
 6795SOL     OW26951   5.649   0.081   5.568  0.1652  0.3267 -0.4046
 6795SOL    HW226952   5.582   0.060   5.502  2.4098 -1.1889 -2.3769
 6795SOL    HW326953   5.723   0.112   5.517  1.4964  0.5521  1.5763
 6795SOL    MW426954   5.650   0.082   5.553  0.6369  0.1565 -0.4035
 6796SOL     OW26955   2.473   1.460   4.760 -0.3443  0.0303 -0.0775
 6796SOL    HW226956   2.411   1.389   4.777 -0.3340 -0.2759 -1.1909
 6796SOL    HW326957   2.425   1.540   4.780 -0.0505 -0.2910  2.1105
 6796SOL    MW426958   2.459   1.461   4.765 -0.3042 -0.0525  0.0643
 6797SOL     OW26959   4.043   3.206   0.265 -0.0563 -0.1061 -0.0929
 6797SOL    HW226960   4.139   3.211   0.264  0.0427 -1.2467  0.6904
 6797SOL    HW326961   4.014   3.296   0.283  0.8147  0.4459 -1.3572
 6797SOL    MW426962   4.052   3.219   0.267  0.0716 -0.1837 -0.1564
 6798SOL     OW26963   2.384   5.549   0.347 -0.5295 -0.1923 -0.1960
 6798SOL    HW226964   2.462   5.598   0.322 -0.7047  0.3222  0.2471
 6798SOL    HW326965   2.418   5.470   0.388 -0.2433 -0.7707 -1.5063
 6798SOL    MW426966   2.399   5.545   0.349 -0.5148 -0.2007 -0.3105
 6799SOL     OW26967   3.302   1.486   2.175 -0.2888 -0.4193 -0.2473
 6799SOL    HW226968   3.297   1.568   2.126  0.2438  0.8911  1.7343
 6799SOL    HW326969   3.217   1.478   2.217  0.4940  0.6078  1.6767
 6799SOL    MW426970   3.290   1.496   2.174 -0.1152 -0.1109  0.2680
 6800SOL     OW26971   0.865   3.963   4.833  0.4761 -0.3903 -0.0697
 6800SOL    HW226972   0.865   4.056   4.854  0.1553 -0.2936 -0.4606
 6800SOL    HW326973   0.795   3.926   4.887 -0.4599 -0.1134 -1.0349
 6800SOL    MW426974   0.856   3.970   4.843  0.3102 -0.3410 -0.2486
 6801SOL     OW26975   4.067   4.091   3.738  0.0576  0.4453  0.2637
 6801SOL    HW226976   4.042   4.008   3.698 -0.3380  0.7385 -0.1107
 6801SOL    HW326977   4.061   4.154   3.666  3.5328  0.2866 -0.3582
 6801SOL    MW426978   4.063   4.088   3.723  0.4639  0.4630  0.1323
 6802SOL     OW26979   3.901   4.009   5.265 -0.1654  0.2395 -0.7829
 6802SOL    HW226980   3.972   4.063   5.228  0.6546 -0.2135  0.0717
 6802SOL    HW326981   3.852   4.070   5.321 -0.2775  0.4854 -1.1441
 6802SOL    MW426982   3.904   4.024   5.268 -0.0720  0.2122 -0.7178
 6803SOL     OW26983   4.328   3.100   4.916 -0.3000 -0.0289 -0.5221
 6803SOL    HW226984   4.364   3.148   4.991 -0.2235 -1.9333  0.7495
 6803SOL    HW326985   4.395   3.034   4.896 -0.7543 -0.1649 -1.6690
 6803SOL    MW426986   4.342   3.097   4.923 -0.3499 -0.2981 -0.5057
 6804SOL     OW26987   4.255   2.934   0.607  0.4222 -0.1298 -0.0206
 6804SOL    HW226988   4.299   2.849   0.603 -0.1328 -0.4705  0.8533
 6804SOL    HW326989   4.317   2.995   0.569  0.5334 -1.0441 -1.3668
 6804SOL    MW426990   4.269   2.931   0.602  0.3636 -0.2954 -0.0829
 6805SOL     OW26991   2.533   1.523   0.508 -0.0079 -0.0258  0.6027
 6805SOL    HW226992   2.623   1.496   0.525 -0.4314 -1.4899  0.6453
 6805SOL    HW326993   2.541   1.607   0.463  1.3109  1.2004  2.8975
 6805SOL    MW426994   2.546   1.530   0.504  0.1102 -0.0572  0.9111
 6806SOL     OW26995   1.576   1.338   0.626 -0.3487 -0.1584 -0.2266
 6806SOL    HW226996   1.514   1.265   0.636 -0.1276 -0.3030  0.0891
 6806SOL    HW326997   1.527   1.415   0.655 -0.2030 -0.3517  0.5369
 6806SOL    MW426998   1.561   1.338   0.631 -0.3003 -0.2030 -0.0842
 6807SOL     OW26999   2.443   4.885   3.102 -0.3855 -0.3726 -0.7698
 6807SOL    HW227000   2.406   4.897   3.190 -0.9356  0.6044 -1.1217
 6807SOL    HW327001   2.508   4.955   3.094 -0.0357 -0.7185 -0.9946
 6807SOL    MW427002   2.447   4.896   3.113 -0.4119 -0.2894 -0.8459
 6808SOL     OW27003   5.939   2.101   5.126 -0.3265 -0.4430 -0.1119
 6808SOL    HW227004   5.976   2.175   5.077 -0.3286  1.2671  2.2703
 6808SOL    HW327005   5.850   2.094   5.093  0.0307 -0.1510 -1.1914
 6808SOL    MW427006   5.932   2.110   5.115 -0.2797 -0.1789  0.0600
 6809SOL     OW27007   1.093   1.083   2.778  0.3137 -0.0039  0.0302
 6809SOL    HW227008   1.114   1.164   2.825 -0.0108  0.4442 -0.5859
 6809SOL    HW327009   1.041   1.033   2.841  1.8410 -0.4459  0.9923
 6809SOL    MW427010   1.089   1.087   2.793  0.4724 -0.0031  0.0758
 6810SOL     OW27011   2.969   2.370   1.262 -0.5266 -0.8157  0.0989
 6810SOL    HW227012   2.916   2.433   1.309  0.4931 -1.8086  2.7812
 6810SOL    HW327013   2.962   2.289   1.313 -0.1628 -2.3250 -2.0775
 6810SOL    MW427014   2.961   2.368   1.275 -0.3441 -1.1459  0.1656
 6811SOL     OW27015   0.989   4.310   5.311  0.1023 -0.3991  0.3958
 6811SOL    HW227016   0.982   4.288   5.404 -0.8982 -1.8873 -0.0150
 6811SOL    HW327017   0.966   4.230   5.265 -4.0267  1.4127 -1.1851
 6811SOL    MW427018   0.985   4.297   5.317 -0.5745 -0.3564  0.1330
 6812SOL     OW27019   0.709   4.590   1.926  0.1153  0.4118 -0.3909
 6812SOL    HW227020   0.799   4.618   1.942  0.5509 -1.4340  0.7324
 6812SOL    HW327021   0.661   4.615   2.005  0.5349 -1.8814  0.6759
 6812SOL    MW427022   0.715   4.597   1.938  0.2281 -0.1343 -0.1019
 6813SOL     OW27023   2.719   1.480   2.206  0.3360 -0.1215  0.5444
 6813SOL    HW227024   2.804   1.472   2.162  0.5858 -0.2078  1.0364
 6813SOL    HW327025   2.728   1.557   2.261  0.3048 -0.4769  1.0545
 6813SOL    MW427026   2.732   1.489   2.207  0.3649 -0.1798  0.6766
 6814SOL     OW27027   2.502   1.290   0.309 -0.3277 -0.9052 -0.5496
 6814SOL    HW227028   2.456   1.305   0.226 -1.8549 -0.5258  0.3108
 6814SOL    HW327029   2.497   1.374   0.355  1.1715 -0.8947 -0.3644
 6814SOL    MW427030   2.495   1.303   0.304 -0.3314 -0.8537 -0.4116
 6815SOL     OW27031   4.388   5.140   0.633 -0.7088  0.1314  0.0664
 6815SOL    HW227032   4.432   5.216   0.670 -0.6846  0.5486 -0.7841
 6815SOL    HW327033   4.302   5.172   0.606 -1.2409 -0.4834  0.9726
 6815SOL    MW427034   4.383   5.154   0.634 -0.7758  0.1054  0.0737
 6816SOL     OW27035   4.786   1.142   2.598 -0.0161  0.4333 -0.3419
 6816SOL    HW227036   4.790   1.059   2.645 -1.1720  0.7589  0.3769
 6816SOL    HW327037   4.737   1.200   2.655 -1.8555  0.7372 -2.1194
 6816SOL    MW427038   4.780   1.139   2.611 -0.4113  0.5164 -0.4816
 6817SOL     OW27039   2.838   4.160   0.046  0.0166  0.0452  0.2297
 6817SOL    HW227040   2.841   4.202  -0.041  0.2467  1.1004  0.7315
 6817SOL    HW327041   2.747   4.167   0.073 -0.7789 -3.0128 -1.1757
 6817SOL    MW427042   2.827   4.166   0.038 -0.0580 -0.2190  0.1105
 6818SOL     OW27043   2.145   4.212   5.045  0.2429  0.5062  0.0122
 6818SOL    HW227044   2.152   4.166   5.129  0.8865  1.6693  0.6166
 6818SOL    HW327045   2.178   4.149   4.981 -3.5824 -1.8343  0.0130
 6818SOL    MW427046   2.150   4.198   5.047 -0.1769  0.3508  0.0920
 6819SOL     OW27047   4.498   3.196   1.321 -0.1672 -0.0342 -0.0713
 6819SOL    HW227048   4.587   3.231   1.323  0.3965 -1.4510  2.1072
 6819SOL    HW327049   4.444   3.271   1.295  1.4313  1.3624  0.4232
 6819SOL    MW427050   4.502   3.211   1.317  0.1181 -0.0368  0.2814
 6820SOL     OW27051   3.208   5.150   1.093 -0.0743 -0.4036 -0.3170
 6820SOL    HW227052   3.133   5.206   1.070  0.5554  1.2903  1.4919
 6820SOL    HW327053   3.170   5.063   1.106 -1.6393  0.2837 -0.0256
 6820SOL    MW427054   3.193   5.146   1.091 -0.1977 -0.0894 -0.0399
 6821SOL     OW27055   0.032   3.549   2.623 -0.5482 -0.7766 -0.1588
 6821SOL    HW227056   0.117   3.582   2.593 -0.7603  1.4346  1.4068
 6821SOL    HW327057   0.050   3.511   2.709 -0.8849 -1.8066 -0.5351
 6821SOL    MW427058   0.045   3.548   2.631 -0.6206 -0.6208 -0.0019
 6822SOL     OW27059   3.193   0.398   1.248 -0.4115 -0.0934 -0.4021
 6822SOL    HW227060   3.180   0.316   1.296  1.9333  0.5827  1.6505
 6822SOL    HW327061   3.244   0.374   1.171  0.5001 -0.5696  0.3313
 6822SOL    MW427062   3.198   0.384   1.244  0.0181 -0.0671 -0.0345
 6823SOL     OW27063   1.046   0.019   1.270  0.0850 -0.1833  0.0492
 6823SOL    HW227064   1.022   0.097   1.221  0.6382  0.7108  1.1528
 6823SOL    HW327065   1.106  -0.028   1.212 -1.4519 -0.6244 -1.2626
 6823SOL    MW427066   1.051   0.023   1.256 -0.0448 -0.1236  0.0217
 6824SOL     OW27067   5.863   1.234   0.493  0.2593 -0.6690 -0.4472
 6824SOL    HW227068   5.908   1.285   0.426  1.4206 -0.8651  0.1431
 6824SOL    HW327069   5.932   1.212   0.556 -0.8528 -0.1545  1.0186
 6824SOL    MW427070   5.878   1.238   0.493  0.2658 -0.6270 -0.1759
 6825SOL     OW27071   2.158   2.699   1.416  0.3648 -0.2500 -0.3725
 6825SOL    HW227072   2.160   2.683   1.321 -1.7422  0.8505 -0.6509
 6825SOL    HW327073   2.171   2.613   1.455 -0.3334 -0.9735 -1.6842
 6825SOL    MW427074   2.160   2.686   1.408 -0.0053 -0.2002 -0.5823
 6826SOL     OW27075   4.290   4.499   0.868  0.5836  0.3925  0.5244
 6826SOL    HW227076   4.322   4.409   0.862 -0.9608 -0.0928 -2.4939
 6826SOL    HW327077   4.216   4.494   0.929 -1.7952 -1.2896 -2.2594
 6826SOL    MW427078   4.284   4.487   0.875  0.0660  0.1065 -0.2411
 6827SOL     OW27079   2.337   5.312   2.269 -0.0401  0.1029 -0.0570
 6827SOL    HW227080   2.329   5.402   2.235 -0.7409  0.0148 -0.1270
 6827SOL    HW327081   2.431   5.300   2.279  0.0461  0.9943  0.3416
 6827SOL    MW427082   2.348   5.323   2.266 -0.1212  0.2089 -0.0137
 6828SOL     OW27083   6.264   3.988   1.374  0.1436  0.5406  0.3947
 6828SOL    HW227084   6.217   3.973   1.292 -1.2156  0.2678  1.1901
 6828SOL    HW327085   6.328   4.056   1.352  0.0800  0.1946 -0.9768
 6828SOL    MW427086   6.266   3.995   1.360 -0.0441  0.4589  0.3187
 6829SOL     OW27087   3.955   1.906   4.663 -0.5904  0.3697  0.1107
 6829SOL    HW227088   3.879   1.849   4.649  2.2915 -3.1590 -3.2025
 6829SOL    HW327089   4.009   1.860   4.727  1.3085 -0.2906 -1.8488
 6829SOL    MW427090   3.952   1.893   4.669  0.0403 -0.1830 -0.5850
 6830SOL     OW27091   1.022   3.454   5.873 -0.3547  0.3605 -1.0062
 6830SOL    HW227092   0.978   3.417   5.950  0.3512  0.5441 -0.5086
 6830SOL    HW327093   1.087   3.514   5.909  2.7954 -2.4452 -1.5222
 6830SOL    MW427094   1.025   3.457   5.888  0.1541  0.0145 -1.0087
 6831SOL     OW27095   0.335   1.554   1.910  0.0173  0.4542 -0.1475
 6831SOL    HW227096   0.261   1.569   1.851  0.5445 -1.8396 -1.5496
 6831SOL    HW327097   0.352   1.460   1.901  1.2904  0.3930  2.3342
 6831SOL    MW427098   0.327   1.543   1.901  0.2548  0.1435 -0.0051
 6832SOL     OW27099   5.556   1.912   2.150 -0.2374 -0.7275 -0.3151
 6832SOL    HW227100   5.587   1.822   2.141  0.9644 -0.4100  0.4194
 6832SOL    HW327101   5.468   1.911   2.111 -0.4633 -2.3314  0.1427
 6832SOL    MW427102   5.548   1.900   2.144 -0.1087 -0.8972 -0.1578
 6833SOL     OW27103   0.719   2.191   6.372 -0.1777 -0.3521  0.4117
 6833SOL    HW227104   0.783   2.262   6.365  3.0915 -3.0844 -0.5055
 6833SOL    HW327105   0.698   2.186   6.465 -0.1884  1.5069  0.5420
 6833SOL    MW427106   0.725   2.200   6.383  0.2522 -0.4673  0.3079
 6834SOL     OW27107   2.311   2.851   3.276 -0.5793 -0.4931  0.0664
 6834SOL    HW227108   2.320   2.837   3.182  0.4908 -3.3416  0.4768
 6834SOL    HW327109   2.223   2.821   3.297 -0.4193 -0.9437  0.1077
 6834SOL    MW427110   2.301   2.845   3.266 -0.4170 -0.9284  0.1260
 6835SOL     OW27111   1.955   0.140   1.189 -0.4567  0.0572  0.3286
 6835SOL    HW227112   1.928   0.149   1.280 -0.6115 -0.1354  0.3009
 6835SOL    HW327113   1.998   0.055   1.185 -0.8743 -0.1464  0.1159
 6835SOL    MW427114   1.957   0.130   1.201 -0.5322  0.0050  0.2969
 6836SOL     OW27115   1.194   3.910   5.563  0.4332  0.1865 -0.0084
 6836SOL    HW227116   1.207   3.884   5.654 -0.4040  2.0549  0.6946
 6836SOL    HW327117   1.250   3.987   5.552  1.3889 -0.6390 -1.4520
 6836SOL    MW427118   1.203   3.917   5.574  0.4488  0.3241 -0.1061
 6837SOL     OW27119   0.030   1.831   0.648 -0.3159  0.0682 -0.1874
 6837SOL    HW227120   0.122   1.853   0.635 -0.8952  3.4755  0.6040
 6837SOL    HW327121   0.017   1.835   0.742 -1.0142 -1.9235 -0.1508
 6837SOL    MW427122   0.041   1.834   0.658 -0.4844  0.2549 -0.0781
 6838SOL     OW27123   5.307   4.423   2.152  0.1872  0.1458  0.0010
 6838SOL    HW227124   5.372   4.450   2.086  0.4025  0.5298  0.3606
 6838SOL    HW327125   5.284   4.334   2.127  0.8551  0.0014 -0.1405
 6838SOL    MW427126   5.313   4.415   2.140  0.3038  0.1774  0.0297
 6839SOL     OW27127   4.947   4.292   3.063  0.0789  0.3504  0.1173
 6839SOL    HW227128   4.981   4.381   3.074  1.6477 -0.2566  0.5051
 6839SOL    HW327129   4.947   4.255   3.151 -0.4883 -0.0693 -0.0518
 6839SOL    MW427130   4.951   4.299   3.076  0.2111  0.2149  0.1461
 6840SOL     OW27131   0.191   5.812   1.975 -0.1227 -0.4452  0.0039
 6840SOL    HW227132   0.279   5.847   1.960 -0.1047  0.7966  2.3697
 6840SOL    HW327133   0.205   5.736   2.032 -0.5769  0.4497  1.3761
 6840SOL    MW427134   0.204   5.807   1.981 -0.1802 -0.1633  0.4971
 6841SOL     OW27135   4.604   5.062   4.540  0.3733 -0.1539  0.0660
 6841SOL    HW227136   4.638   5.083   4.627 -0.5795 -2.5929  1.1198
 6841SOL    HW327137   4.522   5.015   4.557 -1.6674  2.2245 -2.2807
 6841SOL    MW427138   4.598   5.059   4.554 -0.0216 -0.1619 -0.1046
 6842SOL     OW27139   1.119   0.530   3.663 -0.2227 -0.3399  0.1055
 6842SOL    HW227140   1.185   0.475   3.621 -1.1973 -1.4578 -0.0174
 6842SOL    HW327141   1.080   0.474   3.730 -1.1064  0.2794  0.1200
 6842SOL    MW427142   1.123   0.516   3.666 -0.4678 -0.4057  0.0912
 6843SOL     OW27143   1.830   5.790   0.941 -0.3479 -0.9974 -0.5917
 6843SOL    HW227144   1.755   5.815   0.995 -0.9625  1.2740 -2.3100
 6843SOL    HW327145   1.792   5.740   0.869 -0.3961  0.6916 -1.8048
 6843SOL    MW427146   1.815   5.787   0.939 -0.4353 -0.4749 -0.9784
 6844SOL     OW27147   1.559   1.184   5.504  0.2569  0.3183 -0.4172
 6844SOL    HW227148   1.608   1.139   5.435  0.0928  1.4943 -1.3291
 6844SOL    HW327149   1.497   1.240   5.457  1.3263  2.5061  0.6061
 6844SOL    MW427150   1.557   1.185   5.489  0.3763  0.7621 -0.4025
 6845SOL     OW27151   6.095   2.729   2.902 -0.5149  0.4219  0.0803
 6845SOL    HW227152   6.039   2.681   2.964 -1.0243 -0.5645 -1.0989
 6845SOL    HW327153   6.183   2.722   2.939 -0.6828 -0.8588  0.2952
 6845SOL    MW427154   6.099   2.722   2.915 -0.6043  0.1228 -0.0469
 6846SOL     OW27155   2.061   5.737   6.097  0.2461 -0.1310 -0.8424
 6846SOL    HW227156   2.078   5.730   6.191 -1.2821  2.6422 -0.2777
 6846SOL    HW327157   1.993   5.804   6.089 -3.2682 -3.5649 -3.6094
 6846SOL    MW427158   2.054   5.745   6.109 -0.4192 -0.2182 -1.1330
 6847SOL     OW27159   4.937   4.656   4.104  0.5167  0.0753 -0.0688
 6847SOL    HW227160   4.941   4.623   4.014  2.6962 -1.4249  0.5003
 6847SOL    HW327161   4.980   4.589   4.157  1.2943  1.9133  1.7994
 6847SOL    MW427162   4.943   4.643   4.099  0.9069  0.1199  0.2528
 6848SOL     OW27163   5.201   3.879   4.462 -0.8273 -0.2827 -0.0366
 6848SOL    HW227164   5.147   3.958   4.459 -2.3809 -1.3133 -0.2109
 6848SOL    HW327165   5.139   3.808   4.475  0.3737 -1.6352 -1.3000
 6848SOL    MW427166   5.186   3.880   4.463 -0.8738 -0.5971 -0.2263
 6849SOL     OW27167   4.151   4.550   1.408  0.1559 -0.2560  0.3646
 6849SOL    HW227168   4.071   4.600   1.391 -0.1428 -0.8966 -0.1415
 6849SOL    HW327169   4.168   4.565   1.501 -0.5813 -0.1557  0.4932
 6849SOL    MW427170   4.142   4.559   1.418  0.0192 -0.3273  0.3148
 6850SOL     OW27171   3.822   2.470   0.264 -0.0938 -0.5506  0.4673
 6850SOL    HW227172   3.817   2.462   0.360  0.7887 -0.2703  0.5457
 6850SOL    HW327173   3.737   2.437   0.233 -1.2967  1.4031  1.4673
 6850SOL    MW427174   3.810   2.465   0.273 -0.1361 -0.2559  0.6096
 6851SOL     OW27175   4.816   1.152   4.042 -0.9686  0.0258 -0.0272
 6851SOL    HW227176   4.851   1.076   4.088  1.6114  1.6302  0.8656
 6851SOL    HW327177   4.738   1.177   4.092 -0.2057 -0.3343  1.3890
 6851SOL    MW427178   4.810   1.145   4.054 -0.5275  0.1900  0.2774
 6852SOL     OW27179   0.220   5.179   1.863 -0.0495  0.4416 -0.2181
 6852SOL    HW227180   0.269   5.231   1.799  0.9371  0.7023  0.7196
 6852SOL    HW327181   0.243   5.218   1.948 -1.1959 -0.0003  0.3181
 6852SOL    MW427182   0.229   5.191   1.866 -0.0706  0.4177 -0.0236
 6853SOL     OW27183   0.373   5.118   3.526 -0.3271 -0.0775  0.1849
 6853SOL    HW227184   0.415   5.105   3.440  2.5291  1.9301  1.1043
 6853SOL    HW327185   0.306   5.184   3.510  1.3272  1.5725 -0.3261
 6853SOL    MW427186   0.370   5.125   3.512  0.2680  0.4051  0.2388
 6854SOL     OW27187   5.633   0.333   4.777  0.2302 -0.7504  0.9548
 6854SOL    HW227188   5.567   0.402   4.782  0.9521 -0.0077  0.6614
 6854SOL    HW327189   5.711   0.373   4.816  2.1521  0.4992 -3.5541
 6854SOL    MW427190   5.635   0.348   4.783  0.5790 -0.4876  0.3212
 6855SOL     OW27191   3.314   3.724   1.211 -0.8716 -0.1412 -0.4937
 6855SOL    HW227192   3.243   3.778   1.174 -0.1080  1.3721  0.1611
 6855SOL    HW327193   3.345   3.774   1.287  1.5876 -0.2363 -1.3510
 6855SOL    MW427194   3.308   3.738   1.216 -0.4464  0.0459 -0.5204
 6856SOL     OW27195   1.847   2.208   6.261 -0.3595 -0.1402  0.1118
 6856SOL    HW227196   1.813   2.169   6.342  0.4066  0.3449  0.6843
 6856SOL    HW327197   1.821   2.299   6.266 -0.8116 -0.2363 -0.4750
 6856SOL    MW427198   1.839   2.215   6.272 -0.3180 -0.0889  0.1099
 6857SOL     OW27199   3.207   0.055   5.339  0.6167  0.7134 -0.1609
 6857SOL    HW227200   3.184  -0.032   5.371  0.1998  0.7764 -0.2748
 6857SOL    HW327201   3.126   0.106   5.348  0.7047  0.9389 -0.6014
 6857SOL    MW427202   3.193   0.050   5.345  0.5733  0.7515 -0.2340
 6858SOL     OW27203   0.258   6.090   4.560  0.1131 -0.1144  0.3888
 6858SOL    HW227204   0.235   6.053   4.646 -1.7062 -1.8291 -0.7384
 6858SOL    HW327205   0.309   6.022   4.517 -2.0366 -0.8328 -1.1783
 6858SOL    MW427206   0.261   6.076   4.566 -0.4106 -0.4354  0.0334
 6859SOL     OW27207   5.067   1.831   6.049  0.9086  0.1032  0.0856
 6859SOL    HW227208   5.056   1.791   6.136 -0.4747  2.3686  1.0600
 6859SOL    HW327209   5.159   1.857   6.046  0.7644  0.8673  1.3375
 6859SOL    MW427210   5.078   1.829   6.060  0.7071  0.5029  0.3793
 6860SOL     OW27211   3.092   5.870   1.375 -0.4326 -0.2352  0.3160
 6860SOL    HW227212   3.138   5.814   1.438  1.4404  1.2097  0.3402
 6860SOL    HW327213   3.160   5.895   1.312 -1.3760  1.3545 -0.1277
 6860SOL    MW427214   3.107   5.866   1.375 -0.3100  0.1652  0.2607
 6861SOL     OW27215   5.390   6.282   0.985  0.3439 -0.3848 -0.0262
 6861SOL    HW227216   5.464   6.343   0.976  0.2960 -0.2400  0.5471
 6861SOL    HW327217   5.313   6.336   0.969  0.2620 -0.1412  1.1200
 6861SOL    MW427218   5.390   6.297   0.981  0.3268 -0.3335  0.2006
 6862SOL     OW27219   4.097   1.210   2.188 -0.0266  0.1711 -0.6157
 6862SOL    HW227220   4.129   1.204   2.098  0.0634  1.8117 -0.7139
 6862SOL    HW327221   4.173   1.192   2.242  0.2954  0.7521 -0.8665
 6862SOL    MW427222   4.111   1.207   2.183  0.0278  0.4642 -0.6617
 6863SOL     OW27223   0.246   1.013   0.236  0.3152  0.4171 -0.2373
 6863SOL    HW227224   0.308   0.967   0.179  2.6934  1.3863  1.3962
 6863SOL    HW327225   0.231   0.952   0.308 -0.2110  0.4006 -0.3615
 6863SOL    MW427226   0.252   0.999   0.238  0.5595  0.5428 -0.0381
 6864SOL     OW27227   0.807   2.208   3.400 -0.1279 -0.3832  0.2063
 6864SOL    HW227228   0.761   2.125   3.385 -0.4681 -0.6340  2.3099
 6864SOL    HW327229   0.859   2.222   3.321 -0.3524 -2.4101 -0.3437
 6864SOL    MW427230   0.808   2.199   3.388 -0.2024 -0.6837  0.4113
 6865SOL     OW27231   1.923   2.289   5.926  0.2851 -0.2932 -0.9222
 6865SOL    HW227232   1.950   2.200   5.947 -1.1922 -0.8404 -1.2377
 6865SOL    HW327233   1.926   2.293   5.830 -1.0512 -0.4875 -0.9857
 6865SOL    MW427234   1.927   2.278   5.916 -0.0861 -0.3911 -0.9722
 6866SOL     OW27235   2.955   0.916   1.035  0.1360 -0.3572  0.3527
 6866SOL    HW227236   2.894   0.866   1.090 -0.0475 -0.3056  0.1983
 6866SOL    HW327237   2.985   0.853   0.969 -0.9595  0.0081 -0.5351
 6866SOL    MW427238   2.951   0.901   1.034 -0.0327 -0.3022  0.2152
 6867SOL     OW27239   0.591   1.529   3.555 -0.3551  0.1930 -0.2561
 6867SOL    HW227240   0.544   1.452   3.587  0.9298 -0.5016  0.0273
 6867SOL    HW327241   0.656   1.494   3.494  1.1134  0.8776  0.8437
 6867SOL    MW427242   0.593   1.514   3.551  0.0082  0.1917 -0.0736
 6868SOL     OW27243   1.383   1.127   2.531  0.1692  0.5964  0.7600
 6868SOL    HW227244   1.359   1.056   2.590  2.9783 -1.2869 -0.1174
 6868SOL    HW327245   1.325   1.116   2.456 -0.2509 -0.0284  1.1707
 6868SOL    MW427246   1.372   1.116   2.529  0.4844  0.2655  0.6984
 6869SOL     OW27247   5.618   0.683   2.876 -0.2494  0.2576 -0.5234
 6869SOL    HW227248   5.610   0.588   2.880  0.6837  0.0861 -1.7956
 6869SOL    HW327249   5.626   0.711   2.967 -1.0337 -0.8225 -0.1016
 6869SOL    MW427250   5.618   0.674   2.888 -0.2297  0.0925 -0.6356
 6870SOL     OW27251   1.806   4.860   4.356 -0.5006 -0.2748 -0.0923
 6870SOL    HW227252   1.761   4.876   4.439 -0.1526 -1.6686  0.4029
 6870SOL    HW327253   1.851   4.776   4.369  1.6794  0.7088 -0.7956
 6870SOL    MW427254   1.806   4.851   4.369 -0.1670 -0.3289 -0.1197
 6871SOL     OW27255   0.208   4.556   1.079 -0.6770 -0.3928 -0.2322
 6871SOL    HW227256   0.139   4.579   1.017 -0.8405 -0.4731 -0.0801
 6871SOL    HW327257   0.162   4.518   1.154 -0.5326  0.3261  0.2350
 6871SOL    MW427258   0.193   4.554   1.081 -0.6795 -0.3085 -0.1505
 6872SOL     OW27259   3.067   5.748   2.096 -0.2615 -0.1266 -0.7549
 6872SOL    HW227260   2.989   5.725   2.147 -0.4418 -0.0579 -1.0000
 6872SOL    HW327261   3.085   5.670   2.043  0.6183 -0.6395  0.2694
 6872SOL    MW427262   3.059   5.735   2.096 -0.1692 -0.1852 -0.6521
 6873SOL     OW27263   1.132   3.604   3.593 -0.0182  0.0776  0.0286
 6873SOL    HW227264   1.212   3.655   3.606  0.1245  0.1977 -1.1307
 6873SOL    HW327265   1.074   3.630   3.664  1.2806 -0.6591  1.3934
 6873SOL    MW427266   1.135   3.614   3.604  0.1720 -0.0038  0.0557
 6874SOL     OW27267   2.054   4.960   5.492  0.3429 -0.2581 -0.6448
 6874SOL    HW227268   2.031   4.869   5.513  1.5763 -0.0841  1.8125
 6874SOL    HW327269   1.979   5.011   5.524 -1.3476 -0.4145 -3.9131
 6874SOL    MW427270   2.041   4.955   5.499  0.2826 -0.2558 -0.7518
 6875SOL     OW27271   5.047   5.556   5.584  0.0487 -0.0001 -0.8045
 6875SOL    HW227272   5.045   5.651   5.598 -0.1677  0.1029 -1.5034
 6875SOL    HW327273   4.990   5.521   5.652  0.5015  0.3307 -0.2461
 6875SOL    MW427274   5.039   5.564   5.595  0.0799  0.0571 -0.8231
 6876SOL     OW27275   4.499   4.432   2.317  0.3274 -0.3599  0.5806
 6876SOL    HW227276   4.581   4.391   2.345  0.7941 -0.5592 -0.9874
 6876SOL    HW327277   4.525   4.519   2.286  0.3647 -1.2150 -2.0350
 6876SOL    MW427278   4.513   4.438   2.317  0.3939 -0.4990  0.0286
 6877SOL     OW27279   1.068   2.185   0.064  0.4291  0.3288  0.2242
 6877SOL    HW227280   1.042   2.206   0.154 -1.4000  0.4912 -0.2997
 6877SOL    HW327281   1.005   2.231   0.010  0.2720 -1.3535 -1.1060
 6877SOL    MW427282   1.056   2.193   0.069  0.1671  0.1283 -0.0204
 6878SOL     OW27283   5.568   4.901   5.379 -0.0492 -0.3573  0.2520
 6878SOL    HW227284   5.569   4.992   5.409  0.3310 -0.6265  1.0765
 6878SOL    HW327285   5.564   4.849   5.459  0.2648 -1.0839 -0.1908
 6878SOL    MW427286   5.568   4.906   5.394  0.0424 -0.4887  0.3024
 6879SOL     OW27287   1.288   5.545   5.061 -0.1005  0.1655 -0.0842
 6879SOL    HW227288   1.336   5.465   5.037  0.3365  0.3395  0.2013
 6879SOL    HW327289   1.326   5.613   5.006 -0.7714  0.1000 -0.6397
 6879SOL    MW427290   1.299   5.543   5.051 -0.1314  0.1798 -0.1198
 6880SOL     OW27291   2.649   2.031   6.045  0.4561 -0.3446 -0.7422
 6880SOL    HW227292   2.638   2.098   5.978  0.0280  1.9726  1.4925
 6880SOL    HW327293   2.561   2.015   6.079  0.9470  0.6710  1.1584
 6880SOL    MW427294   2.636   2.037   6.041  0.4644  0.0951 -0.1966
 6881SOL     OW27295   5.527   2.644   0.716 -0.0213  0.4520 -0.0320
 6881SOL    HW227296   5.564   2.727   0.743 -0.3768  0.4880  0.3496
 6881SOL    HW327297   5.471   2.665   0.641  1.0972  0.3272 -0.9357
 6881SOL    MW427298   5.524   2.657   0.710  0.0794  0.4403 -0.1009
 6882SOL     OW27299   0.479   2.931   3.567 -0.0778 -0.3830 -0.9372
 6882SOL    HW227300   0.464   2.843   3.534 -1.7111 -1.4031  2.1258
 6882SOL    HW327301   0.574   2.942   3.566  0.0881 -1.6730 -2.4507
 6882SOL    MW427302   0.489   2.921   3.562 -0.2714 -0.6878 -0.7328
 6883SOL     OW27303   4.997   1.282   1.793  0.0431  0.1458  0.4576
 6883SOL    HW227304   5.033   1.360   1.836 -2.3326  2.2846 -1.1353
 6883SOL    HW327305   4.922   1.257   1.848 -0.4122  0.2484 -0.1083
 6883SOL    MW427306   4.992   1.289   1.806 -0.3304  0.4415  0.1728
 6884SOL     OW27307   0.775   2.422   3.578 -0.2008  0.1499 -0.0815
 6884SOL    HW227308   0.857   2.471   3.572 -0.7098  0.9176 -1.1831
 6884SOL    HW327309   0.778   2.362   3.503 -0.0211 -0.8214  0.6944
 6884SOL    MW427310   0.786   2.421   3.567 -0.2442  0.1230 -0.1245
 6885SOL     OW27311   0.204   5.363   0.617  0.1465 -0.7703 -0.3195
 6885SOL    HW227312   0.147   5.425   0.573 -0.4072 -0.7645  0.4034
 6885SOL    HW327313   0.247   5.413   0.686  0.0214 -1.0835 -0.0093
 6885SOL    MW427314   0.202   5.378   0.620  0.0569 -0.8109 -0.1832
 6886SOL     OW27315   5.227   1.199   4.106  0.0399  0.9349 -0.5696
 6886SOL    HW227316   5.310   1.241   4.126 -0.9406  2.1763  1.1350
 6886SOL    HW327317   5.230   1.116   4.153  0.3566  0.9208 -0.6135
 6886SOL    MW427318   5.238   1.194   4.114 -0.0477  1.0968 -0.3505
 6887SOL     OW27319   5.938   5.296   4.108  0.1510  0.0136 -0.0234
 6887SOL    HW227320   5.892   5.348   4.174  1.9881 -0.7190  1.9646
 6887SOL    HW327321   5.969   5.359   4.044  1.4692  1.3032  1.7951
 6887SOL    MW427322   5.936   5.311   4.109  0.5673  0.0871  0.4789
 6888SOL     OW27323   2.963   0.810   2.110  0.2980 -0.1174  0.8426
 6888SOL    HW227324   2.998   0.882   2.058  0.0828  0.4938  1.5241
 6888SOL    HW327325   2.894   0.851   2.164  0.2286 -0.8141  1.2924
 6888SOL    MW427326   2.958   0.825   2.110  0.2604 -0.1286  0.9919
 6889SOL     OW27327   5.318   1.661   3.035 -0.2931 -0.0585  0.5251
 6889SOL    HW227328   5.326   1.626   2.947  0.8856 -0.4131  0.7499
 6889SOL    HW327329   5.320   1.756   3.024  1.0314 -0.0966  0.2334
 6889SOL    MW427330   5.320   1.669   3.022  0.0372 -0.1103  0.5163
 6890SOL     OW27331   3.646   0.614   6.267  0.5906 -0.2079  0.1758
 6890SOL    HW227332   3.583   0.684   6.282  0.1596 -0.4881 -0.2841
 6890SOL    HW327333   3.611   0.539   6.316 -0.0162 -0.6797 -0.9573
 6890SOL    MW427334   3.633   0.613   6.276  0.4537 -0.3071 -0.0343
 6891SOL     OW27335   2.835   5.944   2.300 -0.6160 -0.3344  0.2627
 6891SOL    HW227336   2.799   5.867   2.255  2.2899 -1.5365 -0.2172
 6891SOL    HW327337   2.816   5.929   2.392  0.8212 -2.2535  0.3069
 6891SOL    MW427338   2.828   5.932   2.306 -0.0430 -0.7462  0.2052
 6892SOL     OW27339   3.676   3.027   3.962  0.2673  0.1082  0.5350
 6892SOL    HW227340   3.661   3.039   4.056  2.9430  0.2568  1.0043
 6892SOL    HW327341   3.628   3.099   3.922 -1.3306 -0.2350  1.7063
 6892SOL    MW427342   3.667   3.038   3.969  0.4095  0.0825  0.7514
 6893SOL     OW27343   4.251   3.663   2.929 -0.4657  0.1596 -0.4351
 6893SOL    HW227344   4.286   3.626   2.849 -1.3441 -0.1186 -0.7068
 6893SOL    HW327345   4.220   3.587   2.979 -0.5342  0.3829 -0.1354
 6893SOL    MW427346   4.251   3.648   2.925 -0.5906  0.1524 -0.4314
 6894SOL     OW27347   1.561   3.716   4.727  0.0045  0.6377 -0.0177
 6894SOL    HW227348   1.520   3.747   4.808  1.2466 -0.1299  0.9309
 6894SOL    HW327349   1.516   3.633   4.707  1.4430 -0.5508  1.3908
 6894SOL    MW427350   1.550   3.709   4.735  0.3582  0.3797  0.2933
 6895SOL     OW27351   0.113   4.999   3.783  0.8528 -0.4489  0.4674
 6895SOL    HW227352   0.147   5.085   3.808  2.2140 -0.5409 -0.9135
 6895SOL    HW327353   0.091   5.007   3.691 -0.8654 -1.0618  0.7818
 6895SOL    MW427354   0.115   5.011   3.774  0.8057 -0.5419  0.3267
 6896SOL     OW27355   4.055   5.168   4.138 -0.9431 -0.2979  0.0287
 6896SOL    HW227356   4.148   5.165   4.162 -0.4941 -0.8658 -1.6081
 6896SOL    HW327357   4.016   5.096   4.187  0.7917 -4.3636 -3.8013
 6896SOL    MW427358   4.062   5.158   4.148 -0.6550 -0.9093 -0.6926
 6897SOL     OW27359   6.193   2.578   0.367  0.1474 -0.9562 -0.0824
 6897SOL    HW227360   6.159   2.548   0.452  1.8242 -1.5065  0.4345
 6897SOL    HW327361   6.288   2.571   0.376  0.4397  0.7624 -1.3638
 6897SOL    MW427362   6.201   2.573   0.380  0.4072 -0.8021 -0.1833
 6898SOL     OW27363   2.800   5.006   0.304 -0.0087  0.5050  0.2243
 6898SOL    HW227364   2.750   5.073   0.351  0.5154  1.1183 -0.0804
 6898SOL    HW327365   2.888   5.043   0.296 -0.3132  0.8689 -2.1293
 6898SOL    MW427366   2.805   5.020   0.309  0.0203  0.6339 -0.1264
 6899SOL     OW27367   4.337   5.855   4.572 -0.2676  0.5875 -0.4756
 6899SOL    HW227368   4.323   5.893   4.659  1.3294  0.4240 -0.1164
 6899SOL    HW327369   4.310   5.763   4.582 -0.6819  0.7204 -0.3361
 6899SOL    MW427370   4.332   5.848   4.585 -0.1116  0.5834 -0.4098
 6900SOL     OW27371   4.370   5.313   5.525 -0.8159 -0.3802  0.7402
 6900SOL    HW227372   4.332   5.372   5.589  1.0820 -0.6217  2.1867
 6900SOL    HW327373   4.296   5.283   5.472 -2.0501  1.9174  1.0687
 6900SOL    MW427374   4.356   5.317   5.526 -0.7283 -0.1089  0.9744
 6901SOL     OW27375   1.015   2.964   3.692  1.2071 -0.1479  0.3731
 6901SOL    HW227376   1.072   2.947   3.617  0.0682 -0.0852 -0.5334
 6901SOL    HW327377   1.001   2.878   3.732  1.3921 -0.2545  0.2086
 6901SOL    MW427378   1.021   2.951   3.688  1.0813 -0.1537  0.2318
 6902SOL     OW27379   0.068   4.319   2.509 -0.3430  0.1077 -0.3987
 6902SOL    HW227380  -0.017   4.275   2.514 -0.6201  0.7298  1.1357
 6902SOL    HW327381   0.050   4.400   2.462 -0.8511  0.7035  0.7692
 6902SOL    MW427382   0.055   4.324   2.504 -0.4466  0.2684 -0.0421
 6903SOL     OW27383   5.045   5.294   1.130  0.1602  0.1530  0.2267
 6903SOL    HW227384   5.099   5.241   1.188 -0.8142 -0.0533  0.9643
 6903SOL    HW327385   4.985   5.340   1.188  0.0393  0.9671 -0.5203
 6903SOL    MW427386   5.045   5.293   1.145  0.0157  0.2332  0.2255
 6904SOL     OW27387   4.500   2.282   1.393  0.3451 -0.1627  0.2753
 6904SOL    HW227388   4.456   2.361   1.425 -2.1337 -1.4993  0.4817
 6904SOL    HW327389   4.590   2.309   1.376  0.1721  2.1460  2.4529
 6904SOL    MW427390   4.506   2.296   1.395 -0.0048 -0.0344  0.5898
 6905SOL     OW27391   5.584   6.355   5.803  0.4757  0.1382 -0.0110
 6905SOL    HW227392   5.528   6.313   5.737  0.5752  0.5882 -0.3924
 6905SOL    HW327393   5.626   6.427   5.755  0.2529  0.7126  0.6473
 6905SOL    MW427394   5.582   6.359   5.788  0.4594  0.2734  0.0255
 6906SOL     OW27395   1.306   0.273   4.130  0.5285 -1.2859 -0.4414
 6906SOL    HW227396   1.234   0.231   4.082  0.0440 -0.3188 -0.5837
 6906SOL    HW327397   1.298   0.239   4.219 -2.6268  1.6442  0.6666
 6906SOL    MW427398   1.295   0.263   4.135  0.0483 -0.7717 -0.3140
 6907SOL     OW27399   4.052   4.120   1.275 -0.2646 -0.4574  0.0406
 6907SOL    HW227400   4.043   4.183   1.204  0.3588 -2.8001 -2.3046
 6907SOL    HW327401   4.105   4.164   1.340  0.3138  1.3671 -1.5585
 6907SOL    MW427402   4.058   4.134   1.274 -0.1061 -0.5258 -0.4798
 6908SOL     OW27403   0.024   5.326   0.832  0.3374  0.1854 -0.5889
 6908SOL    HW227404   0.069   5.345   0.749 -0.0939  0.8748 -0.6757
 6908SOL    HW327405   0.094   5.331   0.897  0.7516 -0.7278 -0.9372
 6908SOL    MW427406   0.039   5.329   0.829  0.3352  0.1559 -0.6463
 6909SOL     OW27407   5.306   5.438   0.872  0.0659 -0.3679  0.0321
 6909SOL    HW227408   5.372   5.375   0.841  0.7843 -0.4584  1.6435
 6909SOL    HW327409   5.324   5.447   0.966  0.0271  2.3048 -0.1393
 6909SOL    MW427410   5.317   5.431   0.881  0.1556 -0.0272  0.2221
 6910SOL     OW27411   3.171   1.793   2.861  0.1475  0.5017  0.5410
 6910SOL    HW227412   3.250   1.748   2.830  0.7403  1.2472  0.9152
 6910SOL    HW327413   3.120   1.725   2.904  0.2118 -0.1567 -0.3926
 6910SOL    MW427414   3.175   1.778   2.862  0.2342  0.5132  0.4672
 6911SOL     OW27415   4.226   1.181   0.202 -0.0199 -0.0572 -0.5565
 6911SOL    HW227416   4.220   1.199   0.296  2.2554  0.9037 -0.5322
 6911SOL    HW327417   4.172   1.250   0.162 -0.1655  0.1669  0.0062
 6911SOL    MW427418   4.218   1.193   0.209  0.2611  0.0991 -0.4790
 6912SOL     OW27419   1.952   5.090   5.889  0.2564  0.3248  0.1518
 6912SOL    HW227420   1.862   5.087   5.922  0.4659 -3.3355  0.8138
 6912SOL    HW327421   1.942   5.090   5.793 -0.5241 -1.3423  0.1998
 6912SOL    MW427422   1.938   5.090   5.880  0.1811 -0.3781  0.2454
 6913SOL     OW27423   5.241   4.836   4.579  0.3519  0.2864 -0.0458
 6913SOL    HW227424   5.313   4.828   4.642  0.1485 -0.6464  0.0847
 6913SOL    HW327425   5.283   4.831   4.493  0.5187  0.4912  0.0240
 6913SOL    MW427426   5.256   4.834   4.576  0.3470  0.1903 -0.0194
 6914SOL     OW27427   1.762   4.983   4.618  0.5070 -0.0864  0.4940
 6914SOL    HW227428   1.745   4.912   4.680 -1.5512  0.3739  0.5210
 6914SOL    HW327429   1.768   5.062   4.672 -1.5092  0.3478  0.1329
 6914SOL    MW427430   1.761   4.984   4.633 -0.0306  0.0316  0.4499
 6915SOL     OW27431   3.016   5.263   3.262  0.0841  0.2022  0.0283
 6915SOL    HW227432   2.941   5.209   3.238 -0.4367  1.1540 -0.5780
 6915SOL    HW327433   3.010   5.273   3.357  0.6802 -1.4826  0.2635
 6915SOL    MW427434   3.006   5.257   3.272  0.0941  0.1055 -0.0206
 6916SOL     OW27435   3.425   2.647   2.309 -0.1584  0.1366 -0.2133
 6916SOL    HW227436   3.434   2.569   2.364  1.1604  0.9002  0.6847
 6916SOL    HW327437   3.368   2.618   2.237 -1.7381 -0.9432  1.3788
 6916SOL    MW427438   3.419   2.633   2.307 -0.1928  0.0949  0.1152
 6917SOL     OW27439   3.002   1.271   0.402 -0.1358 -0.1991  0.6916
 6917SOL    HW227440   3.047   1.296   0.321 -0.4338 -0.8977  0.3044
 6917SOL    HW327441   3.003   1.175   0.402  1.1183 -0.2263  2.2210
 6917SOL    MW427442   3.008   1.262   0.391 -0.0097 -0.2949  0.8423
 6918SOL     OW27443   0.539   1.863   3.985 -0.0919 -0.3139  0.1007
 6918SOL    HW227444   0.589   1.925   3.932 -1.4090  0.6651 -0.0717
 6918SOL    HW327445   0.599   1.836   4.054  0.7784  0.5331 -0.3000
 6918SOL    MW427446   0.553   1.868   3.987 -0.1508 -0.0730  0.0251
 6919SOL     OW27447   5.805   5.780   0.250  0.1235  0.0553 -0.4026
 6919SOL    HW227448   5.778   5.815   0.335 -3.3744 -2.0373 -0.4737
 6919SOL    HW327449   5.900   5.770   0.258 -0.1175 -0.8037  3.5970
 6919SOL    MW427450   5.814   5.783   0.262 -0.3698 -0.3341  0.1158
 6920SOL     OW27451   3.070   3.670   4.813  0.5365 -0.0826  0.6658
 6920SOL    HW227452   3.146   3.728   4.808  0.8240 -0.5358 -0.4627
 6920SOL    HW327453   3.092   3.606   4.880  1.1856 -0.2644  0.2802
 6920SOL    MW427454   3.083   3.669   4.821  0.6600 -0.1664  0.4660
 6921SOL     OW27455   1.036   0.492   1.251  0.4889  0.2821  0.1763
 6921SOL    HW227456   0.952   0.496   1.297 -0.4730 -0.8261 -1.3676
 6921SOL    HW327457   1.036   0.570   1.195 -0.2935 -0.5215 -1.0010
 6921SOL    MW427458   1.025   0.503   1.249  0.2588  0.0298 -0.1827
 6922SOL     OW27459   0.006   2.108   2.460  0.0333 -0.7921 -0.2239
 6922SOL    HW227460  -0.048   2.186   2.445  2.0660  0.9128  0.8420
 6922SOL    HW327461   0.074   2.113   2.393 -0.7964 -2.6978 -1.2955
 6922SOL    MW427462   0.008   2.119   2.449  0.1920 -0.8186 -0.2246
 6923SOL     OW27463   0.991   5.323   0.054 -0.0015 -0.2971  0.1523
 6923SOL    HW227464   1.014   5.230   0.052  1.1516 -0.0310 -1.8100
 6923SOL    HW327465   0.932   5.335  -0.020 -0.3291  0.4826  0.5315
 6923SOL    MW427466   0.987   5.313   0.044  0.1074 -0.1591 -0.0566
 6924SOL     OW27467   1.084   0.259   0.517 -0.2923  0.7288  0.3712
 6924SOL    HW227468   1.108   0.175   0.477  0.3723  0.5667  1.0909
 6924SOL    HW327469   1.002   0.242   0.563 -0.2198  0.5045  0.4173
 6924SOL    MW427470   1.076   0.246   0.518 -0.1950  0.6778  0.4722
 6925SOL     OW27471   4.923   0.984   1.164 -0.1156  0.0642 -0.6251
 6925SOL    HW227472   4.840   0.947   1.196 -0.2957  0.3204 -0.7967
 6925SOL    HW327473   4.897   1.054   1.105  0.1868 -0.9559 -2.0363
 6925SOL    MW427474   4.909   0.988   1.160 -0.0995 -0.0366 -0.8340
 6926SOL     OW27475   1.342   1.996   2.821 -0.1190 -0.3218  0.5457
 6926SOL    HW227476   1.260   2.034   2.853 -0.7532 -0.1178 -1.2164
 6926SOL    HW327477   1.320   1.961   2.735  1.3742 -1.3537  0.5459
 6926SOL    MW427478   1.328   1.996   2.814 -0.0057 -0.4310  0.3132
 6927SOL     OW27479   2.004   0.073   3.248  0.4002 -0.0352 -0.1982
 6927SOL    HW227480   1.986   0.044   3.337  0.4885 -0.9871 -0.4678
 6927SOL    HW327481   2.097   0.050   3.234 -0.2308 -2.2758 -1.3480
 6927SOL    MW427482   2.014   0.066   3.258  0.3286 -0.4564 -0.3854
 6928SOL     OW27483   1.674   1.140   3.475  0.0082  0.1147 -0.6651
 6928SOL    HW227484   1.668   1.223   3.430  2.8436  1.3055  0.8605
 6928SOL    HW327485   1.682   1.163   3.568 -1.0918 -1.9909  0.0317
 6928SOL    MW427486   1.674   1.154   3.481  0.2372 -0.0060 -0.3719
 6929SOL     OW27487   3.298   3.525   0.896 -0.3721  0.3504 -0.1134
 6929SOL    HW227488   3.357   3.535   0.822 -0.8839 -2.9218 -1.1245
 6929SOL    HW327489   3.354   3.501   0.970 -0.1207  0.8652 -0.1353
 6929SOL    MW427490   3.313   3.523   0.896 -0.4065 -0.0134 -0.2497
 6930SOL     OW27491   1.151   6.101   6.083 -0.3027  0.4304 -0.1082
 6930SOL    HW227492   1.172   6.099   5.990  2.7653 -2.1515  0.4717
 6930SOL    HW327493   1.076   6.042   6.092  0.4850 -0.7266 -0.8044
 6930SOL    MW427494   1.144   6.093   6.072  0.2060 -0.0629 -0.1235
 6931SOL     OW27495   2.609   0.372   6.168  0.6876 -0.7771  0.6704
 6931SOL    HW227496   2.635   0.332   6.085 -0.7746 -0.2147 -0.0946
 6931SOL    HW327497   2.517   0.347   6.179 -0.0286  1.6134  0.6073
 6931SOL    MW427498   2.600   0.363   6.159  0.4002 -0.3875  0.5611
 6932SOL     OW27499   1.897   3.452   3.798 -0.4949  0.2105  0.9787
 6932SOL    HW227500   1.898   3.361   3.769 -0.7743  0.7802 -0.9981
 6932SOL    HW327501   1.989   3.475   3.810 -0.3859 -0.1420  0.8240
 6932SOL    MW427502   1.909   3.443   3.796 -0.5174  0.2392  0.6975
 6933SOL     OW27503   3.869   1.475   0.198  0.2747 -0.0634  0.2104
 6933SOL    HW227504   3.863   1.462   0.293 -1.4995 -0.6140  0.0636
 6933SOL    HW327505   3.792   1.430   0.163  0.6013  0.5989 -1.4435
 6933SOL    MW427506   3.858   1.468   0.206  0.0837 -0.0487 -0.0272
 6934SOL     OW27507   3.676   3.898   5.177  0.2296  0.1964  0.1133
 6934SOL    HW227508   3.759   3.939   5.202  0.5312  0.1022 -0.7170
 6934SOL    HW327509   3.668   3.824   5.237  0.7910  0.1526  0.1405
 6934SOL    MW427510   3.686   3.894   5.188  0.3435  0.1782  0.0074
 6935SOL     OW27511   3.915   2.543   5.357 -0.0147 -0.6349 -0.3085
 6935SOL    HW227512   3.922   2.582   5.444  1.1873 -1.0711 -0.1835
 6935SOL    HW327513   3.837   2.583   5.319 -1.0555 -1.0564  1.2721
 6935SOL    MW427514   3.906   2.554   5.363  0.0065 -0.7480 -0.0835
 6936SOL     OW27515   4.492   2.693   2.721  0.1837  0.2383 -0.0904
 6936SOL    HW227516   4.456   2.626   2.663 -0.5198 -0.3124  0.9774
 6936SOL    HW327517   4.579   2.711   2.684 -0.0996 -0.3758 -1.0940
 6936SOL    MW427518   4.499   2.687   2.708  0.0535  0.0846 -0.0819
 6937SOL     OW27519   2.078   0.301   1.443 -0.2060 -0.4557  0.1143
 6937SOL    HW227520   2.107   0.323   1.355 -0.7793 -0.8545 -0.1840
 6937SOL    HW327521   2.006   0.361   1.462  0.1570 -0.1245  0.4586
 6937SOL    MW427522   2.072   0.312   1.434 -0.2338 -0.4646  0.1204
 6938SOL     OW27523   4.985   4.759   0.266  0.4628  0.5782  0.5701
 6938SOL    HW227524   4.917   4.733   0.328 -0.6887  0.9152 -0.5084
 6938SOL    HW327525   4.948   4.739   0.180  0.3957  3.6110 -0.2277
 6938SOL    MW427526   4.971   4.753   0.262  0.3020  1.0228  0.3225
 6939SOL     OW27527   4.788   3.655   3.797 -0.2339  0.1480 -0.8837
 6939SOL    HW227528   4.854   3.653   3.728 -0.3458 -0.2879 -0.9838
 6939SOL    HW327529   4.713   3.699   3.757 -0.6142 -0.8727 -1.3425
 6939SOL    MW427530   4.787   3.660   3.782 -0.2988 -0.0442 -0.9575
 6940SOL     OW27531   5.392   3.511   5.388 -0.4412 -0.2854  0.1610
 6940SOL    HW227532   5.387   3.437   5.449  1.6964 -1.3304 -0.8325
 6940SOL    HW327533   5.378   3.472   5.302 -0.8694  0.7531 -0.2605
 6940SOL    MW427534   5.389   3.496   5.385 -0.2156 -0.2863 -0.0257
 6941SOL     OW27535   0.278   1.196   5.387  0.1790 -0.2508  0.3399
 6941SOL    HW227536   0.289   1.281   5.342  0.8361 -0.5572 -0.1033
 6941SOL    HW327537   0.199   1.159   5.349  0.0083  0.0715  0.3780
 6941SOL    MW427538   0.269   1.203   5.376  0.2432 -0.2487  0.2864
 6942SOL     OW27539   3.641   1.219   2.067 -0.2008  0.7426  0.1281
 6942SOL    HW227540   3.644   1.249   2.157 -1.4865  0.0151  0.4410
 6942SOL    HW327541   3.552   1.240   2.038 -0.3550 -0.5688 -0.4043
 6942SOL    MW427542   3.629   1.226   2.075 -0.3908  0.4736  0.0991
 6943SOL     OW27543   6.308   2.542   5.917  0.3299  0.4774  0.4505
 6943SOL    HW227544   6.222   2.508   5.943  0.1022 -1.2056 -2.0860
 6943SOL    HW327545   6.371   2.492   5.969 -0.1455 -1.3882 -0.6779
 6943SOL    MW427546   6.305   2.531   5.927  0.2371  0.0092 -0.0330
 6944SOL     OW27547   5.273   0.562   0.399 -0.1304  0.1495  0.5001
 6944SOL    HW227548   5.293   0.637   0.455  3.3716 -0.7248  0.6602
 6944SOL    HW327549   5.275   0.598   0.310  1.0459  0.3984  0.6032
 6944SOL    MW427550   5.276   0.577   0.395  0.4868  0.0670  0.5348
 6945SOL     OW27551   1.511   3.390   2.167 -0.1692 -0.0121 -0.6016
 6945SOL    HW227552   1.458   3.437   2.103  1.5919 -0.4080 -2.4767
 6945SOL    HW327553   1.577   3.453   2.195 -0.1494 -0.2292 -0.1501
 6945SOL    MW427554   1.513   3.404   2.162  0.0658 -0.0930 -0.7894
 6946SOL     OW27555   5.015   2.301   6.335 -0.5317 -0.3021  0.6807
 6946SOL    HW227556   5.087   2.249   6.373  0.1903  1.4409  1.8021
 6946SOL    HW327557   4.943   2.291   6.398 -1.6436 -2.6306 -0.7858
 6946SOL    MW427558   5.015   2.293   6.348 -0.5831 -0.3793  0.6352
 6947SOL     OW27559   3.842   5.028   0.199  0.2338 -0.2638  0.2010
 6947SOL    HW227560   3.936   5.014   0.195  0.5134  0.6029  2.4274
 6947SOL    HW327561   3.825   5.092   0.130  0.7468 -2.4986 -2.1365
 6947SOL    MW427562   3.852   5.035   0.189  0.3384 -0.4443  0.1864
 6948SOL     OW27563   1.581   5.865   1.062  0.1850 -0.5089  0.4995
 6948SOL    HW227564   1.548   5.878   0.973  1.2185 -0.4545  0.1042
 6948SOL    HW327565   1.505   5.835   1.112 -0.3353 -0.8493 -0.4728
 6948SOL    MW427566   1.567   5.863   1.056  0.2527 -0.5466  0.3191
 6949SOL     OW27567   4.368   1.370   4.791  0.1660 -0.5162  0.0859
 6949SOL    HW227568   4.277   1.399   4.797  0.6931  1.7687 -1.6974
 6949SOL    HW327569   4.406   1.390   4.876 -0.1337  1.9959 -0.2964
 6949SOL    MW427570   4.361   1.376   4.803  0.1960  0.1167 -0.1998
 6950SOL     OW27571   1.611   1.393   3.954 -0.0118 -0.3376 -0.1860
 6950SOL    HW227572   1.539   1.337   3.981  1.1483 -1.1942  1.3460
 6950SOL    HW327573   1.682   1.333   3.932  1.7418  0.3615  2.8363
 6950SOL    MW427574   1.611   1.378   3.955  0.3727 -0.3584  0.4149
 6951SOL     OW27575   6.270   0.899   2.207 -0.1638 -0.3563 -0.8224
 6951SOL    HW227576   6.198   0.837   2.215 -2.2570  1.9757 -0.4920
 6951SOL    HW327577   6.240   0.963   2.143  0.7392  1.7577  0.7351
 6951SOL    MW427578   6.257   0.899   2.200 -0.3208  0.2303 -0.5733
 6952SOL     OW27579   2.863   1.491   4.957  0.2790 -0.2466 -0.4099
 6952SOL    HW227580   2.832   1.569   4.912  0.7479  0.9299  1.2344
 6952SOL    HW327581   2.955   1.484   4.933  0.2996 -0.1451 -0.3607
 6952SOL    MW427582   2.871   1.500   4.948  0.3436 -0.0780 -0.1865
 6953SOL     OW27583   4.130   1.792   5.798 -0.5175  0.2388  0.3584
 6953SOL    HW227584   4.047   1.830   5.767 -0.2903  0.2931 -0.2028
 6953SOL    HW327585   4.186   1.791   5.720 -1.1641 -3.1191 -0.2247
 6953SOL    MW427586   4.126   1.797   5.783 -0.5729 -0.1971  0.2075
 6954SOL     OW27587   6.332   5.360   3.819  0.4059  0.1161 -0.0261
 6954SOL    HW227588   6.259   5.311   3.782  0.0260  0.6287  0.0256
 6954SOL    HW327589   6.324   5.347   3.914  2.6580 -3.0155 -0.1133
 6954SOL    MW427590   6.322   5.352   3.827  0.6529 -0.2294 -0.0308
 6955SOL     OW27591   0.214   3.675   1.477  0.0971 -0.0924  0.0252
 6955SOL    HW227592   0.271   3.741   1.439 -0.5071  0.1289 -0.5121
 6955SOL    HW327593   0.131   3.720   1.492 -1.2858 -1.3479 -2.9953
 6955SOL    MW427594   0.211   3.690   1.474 -0.1651 -0.2289 -0.4442
 6956SOL     OW27595   4.301   1.963   2.798 -0.3885  0.6822  0.8498
 6956SOL    HW227596   4.318   2.006   2.882 -0.5742 -1.6228  2.1264
 6956SOL    HW327597   4.207   1.947   2.798 -0.3473  0.4331  0.3016
 6956SOL    MW427598   4.291   1.967   2.809 -0.4076  0.3452  0.9459
 6957SOL     OW27599   2.624   1.433   3.060 -0.2172 -0.5231 -0.4267
 6957SOL    HW227600   2.675   1.359   3.093  1.4249  0.4097 -0.7703
 6957SOL    HW327601   2.579   1.399   2.983 -0.8048 -1.5947  0.3704
 6957SOL    MW427602   2.624   1.419   3.054 -0.0781 -0.5414 -0.3669
 6958SOL     OW27603   2.731   3.081   5.689 -0.7550  0.1978  0.3060
 6958SOL    HW227604   2.765   3.040   5.610  0.4652 -1.4626  1.6198
 6958SOL    HW327605   2.685   3.012   5.735 -3.9397  1.8017 -0.1862
 6958SOL    MW427606   2.730   3.067   5.685 -1.0142  0.1904  0.4144
 6959SOL     OW27607   2.153   5.934   0.976 -0.4945  0.5328  0.0828
 6959SOL    HW227608   2.160   5.844   0.943 -2.3631  1.3552 -2.8568
 6959SOL    HW327609   2.234   5.976   0.947 -1.1832  0.6828 -1.7143
 6959SOL    MW427610   2.165   5.927   0.968 -0.8319  0.6611 -0.5422
 6960SOL     OW27611   3.985   5.723   6.296 -0.0687 -0.2708 -0.2768
 6960SOL    HW227612   4.006   5.662   6.367  0.2029 -0.9452 -0.9296
 6960SOL    HW327613   3.994   5.672   6.216  1.1324  0.8660 -0.9172
 6960SOL    MW427614   3.989   5.708   6.295  0.1256 -0.2098 -0.4474
 6961SOL     OW27615   1.324   3.520   1.988  0.2591 -0.1406 -0.1785
 6961SOL    HW227616   1.286   3.437   1.960 -0.6306  0.6854 -1.5261
 6961SOL    HW327617   1.289   3.585   1.927  2.0287  1.0319 -0.0336
 6961SOL    MW427618   1.314   3.517   1.976  0.3752  0.1231 -0.3372
 6962SOL     OW27619   5.431   1.076   0.022 -0.4594  0.7499  0.1426
 6962SOL    HW227620   5.476   1.066   0.106  0.1858 -0.4253 -0.3231
 6962SOL    HW327621   5.428   0.988  -0.015 -0.3886  1.3049 -1.2489
 6962SOL    MW427622   5.436   1.063   0.028 -0.3650  0.6681 -0.1024
 6963SOL     OW27623   4.919   0.838   4.455 -0.0329 -0.2437  0.1689
 6963SOL    HW227624   4.851   0.896   4.487 -0.2401  0.8468 -2.0508
 6963SOL    HW327625   4.873   0.758   4.428  0.0503 -0.8500  1.6927
 6963SOL    MW427626   4.904   0.835   4.456 -0.0492 -0.1798  0.0771
 6964SOL     OW27627   3.796   2.223   3.763  0.1604 -0.2800 -0.1488
 6964SOL    HW227628   3.880   2.189   3.731  0.8599 -0.1929  1.5291
 6964SOL    HW327629   3.752   2.147   3.802  0.7387  0.2208  1.5593
 6964SOL    MW427630   3.801   2.209   3.764  0.3290 -0.2024  0.2979
 6965SOL     OW27631   2.966   2.002   1.634 -0.1922 -0.5698  0.0593
 6965SOL    HW227632   3.014   1.973   1.712 -2.3835 -1.5206  1.1249
 6965SOL    HW327633   2.909   1.928   1.613 -2.2296  1.0305 -0.2793
 6965SOL    MW427634   2.965   1.988   1.641 -0.7501 -0.4841  0.1552
 6966SOL     OW27635   5.416   2.223   6.187 -0.1489  0.0547 -0.6711
 6966SOL    HW227636   5.366   2.247   6.109 -0.5957  0.2198 -0.3371
 6966SOL    HW327637   5.486   2.287   6.191  1.3646 -1.3738 -2.2988
 6966SOL    MW427638   5.419   2.235   6.177 -0.0082 -0.1120 -0.8418
 6967SOL     OW27639   0.826   2.760   2.929 -0.0345 -0.0845  0.1009
 6967SOL    HW227640   0.785   2.792   2.848 -0.3129  0.2013  0.3539
 6967SOL    HW327641   0.796   2.670   2.937 -0.9495  0.2487  0.5022
 6967SOL    MW427642   0.816   2.753   2.919 -0.1919 -0.0029  0.1872
 6968SOL     OW27643   2.214   2.485   4.699 -0.3914  0.0422 -0.4081
 6968SOL    HW227644   2.203   2.529   4.783  1.0825  0.6415 -0.5043
 6968SOL    HW327645   2.212   2.392   4.721 -0.9700  0.1838  0.1561
 6968SOL    MW427646   2.212   2.478   4.713 -0.2733  0.1400 -0.3464
 6969SOL     OW27647   0.665   5.270   1.394 -0.3652 -0.4808 -0.0430
 6969SOL    HW227648   0.723   5.195   1.400  1.7025  1.0344  0.1435
 6969SOL    HW327649   0.632   5.268   1.304  2.9683  0.5798 -1.4394
 6969SOL    MW427650   0.668   5.260   1.383  0.3474 -0.1409 -0.2026
 6970SOL     OW27651   4.762   4.093   3.897 -0.1797 -0.0250 -0.2410
 6970SOL    HW227652   4.711   4.103   3.978 -0.3060 -0.2184 -0.2941
 6970SOL    HW327653   4.699   4.058   3.834 -0.1971  0.5767 -0.5592
 6970SOL    MW427654   4.747   4.090   3.899 -0.1986  0.0289 -0.2900
 6971SOL     OW27655   1.958   2.734   1.819 -0.0290  0.3483  0.1565
 6971SOL    HW227656   1.941   2.643   1.797  0.2563  0.3607 -0.1246
 6971SOL    HW327657   1.949   2.781   1.736 -1.3645  0.7549  0.5079
 6971SOL    MW427658   1.955   2.728   1.805 -0.1676  0.4036  0.1658
 6972SOL     OW27659   1.796   2.975   2.840  0.6389  0.2017  0.4051
 6972SOL    HW227660   1.773   2.974   2.932 -1.4738  1.4556 -0.0341
 6972SOL    HW327661   1.768   3.062   2.809 -0.5432 -0.8799 -1.8190
 6972SOL    MW427662   1.789   2.987   2.848  0.2042  0.2244  0.0538
 6973SOL     OW27663   3.113   2.953   3.273  0.2672 -0.5515 -0.0511
 6973SOL    HW227664   3.075   2.881   3.224  1.2146  0.8759 -3.1540
 6973SOL    HW327665   3.038   3.009   3.295 -0.1660 -1.1788  0.1054
 6973SOL    MW427666   3.098   2.951   3.269  0.3351 -0.4459 -0.4398
 6974SOL     OW27667   1.264   4.092   6.063 -0.2560  0.1635 -0.0252
 6974SOL    HW227668   1.299   4.129   5.982 -0.7062  0.8738  0.0934
 6974SOL    HW327669   1.269   4.164   6.126  0.5995 -0.5484  0.7363
 6974SOL    MW427670   1.269   4.106   6.060 -0.2025  0.1633  0.0909
 6975SOL     OW27671   0.202   0.538   1.284 -0.4836 -0.0626  0.3114
 6975SOL    HW227672   0.180   0.619   1.330  2.0016  1.4377 -0.9661
 6975SOL    HW327673   0.180   0.556   1.193  2.1520  0.0841 -0.3601
 6975SOL    MW427674   0.196   0.551   1.278  0.1920  0.1547  0.0542
 6976SOL     OW27675   4.659   5.215   6.057  0.5486  0.6352  0.3713
 6976SOL    HW227676   4.564   5.210   6.047  0.3876  1.1675  1.4722
 6976SOL    HW327677   4.675   5.306   6.083  1.2020  0.1866  1.6133
 6976SOL    MW427678   4.649   5.227   6.059  0.6136  0.6462  0.6804
 6977SOL     OW27679   1.659   2.494   3.290 -0.3468 -0.2380  0.0791
 6977SOL    HW227680   1.574   2.537   3.298 -0.4505 -0.3892 -0.1876
 6977SOL    HW327681   1.642   2.416   3.237  0.1839  0.3823 -1.0591
 6977SOL    MW427682   1.646   2.489   3.284 -0.2905 -0.1761 -0.1063
 6978SOL     OW27683   4.190   0.113   1.777 -0.4041  0.7384  0.2278
 6978SOL    HW227684   4.269   0.164   1.795  0.6544 -1.1355  1.1964
 6978SOL    HW327685   4.147   0.103   1.862 -0.5236 -0.0788  0.0797
 6978SOL    MW427686   4.195   0.119   1.790 -0.2802  0.3834  0.3361
 6979SOL     OW27687   0.317   3.691   5.227 -0.5638  0.2316  0.1712
 6979SOL    HW227688   0.246   3.750   5.254  0.8314  2.1742 -0.2846
 6979SOL    HW327689   0.294   3.665   5.138 -0.7080  0.8378  0.0281
 6979SOL    MW427690   0.304   3.695   5.219 -0.3988  0.5679  0.0922
 6980SOL     OW27691   2.744   6.089   2.087 -0.0893 -0.3146 -0.2784
 6980SOL    HW227692   2.837   6.093   2.064 -0.0900 -1.2068 -0.4524
 6980SOL    HW327693   2.742   6.054   2.176 -0.3215 -1.9480 -0.8982
 6980SOL    MW427694   2.756   6.085   2.095 -0.1200 -0.6478 -0.3831
 6981SOL     OW27695   6.180   2.622   1.006  0.1129 -0.4457 -0.2328
 6981SOL    HW227696   6.190   2.701   0.954 -0.8728 -0.2315 -0.1088
 6981SOL    HW327697   6.255   2.622   1.065 -0.1188  0.6275  0.0663
 6981SOL    MW427698   6.191   2.632   1.007 -0.0477 -0.2759 -0.1770
 6982SOL     OW27699   4.796   4.393   5.293 -0.5984  0.0207 -0.0388
 6982SOL    HW227700   4.710   4.392   5.335  0.4256 -0.9374  2.1762
 6982SOL    HW327701   4.857   4.371   5.363  1.4874  0.7800 -1.5304
 6982SOL    MW427702   4.793   4.390   5.308 -0.1881 -0.0055  0.0566
 6983SOL     OW27703   4.964   1.415   3.870  0.6354  0.4647 -0.0400
 6983SOL    HW227704   5.018   1.348   3.827  1.5474  1.0422  0.1730
 6983SOL    HW327705   4.987   1.409   3.963 -0.7979 -0.2934  0.2897
 6983SOL    MW427706   4.974   1.406   3.877  0.5667  0.4409  0.0316
 6984SOL     OW27707   3.664   5.057   2.606 -0.1168 -0.4371 -0.4083
 6984SOL    HW227708   3.576   5.060   2.644  0.1769  0.2172  0.2449
 6984SOL    HW327709   3.685   5.149   2.588  1.2713 -0.3534  1.4181
 6984SOL    MW427710   3.655   5.070   2.608  0.1051 -0.3398 -0.0811
 6985SOL     OW27711   6.195   5.431   6.107 -0.0362  0.2385 -0.2060
 6985SOL    HW227712   6.260   5.368   6.076 -0.1920  0.0021 -0.0614
 6985SOL    HW327713   6.174   5.401   6.196  0.3335  0.8467  0.0898
 6985SOL    MW427714   6.201   5.419   6.115 -0.0080  0.2876 -0.1479
 6986SOL     OW27715   2.122   5.210   4.683  0.3369  0.7803 -0.1583
 6986SOL    HW227716   2.083   5.211   4.771  2.1066  1.0771  0.6560
 6986SOL    HW327717   2.173   5.291   4.679  1.2381  0.1854 -1.0093
 6986SOL    MW427718   2.123   5.221   4.694  0.6893  0.7409 -0.1632
 6987SOL     OW27719   3.882   2.377   2.293 -0.0083 -0.2100 -0.2233
 6987SOL    HW227720   3.826   2.402   2.219  0.2335  0.5383 -0.1663
 6987SOL    HW327721   3.961   2.340   2.252  0.2046  0.3735 -0.3545
 6987SOL    MW427722   3.885   2.376   2.278  0.0517 -0.0343 -0.2331
 6988SOL     OW27723   0.960   1.271   2.626  0.1700  0.3062  1.0203
 6988SOL    HW227724   0.909   1.322   2.690 -0.8445 -0.9928  1.2718
 6988SOL    HW327725   0.979   1.189   2.671 -1.2490 -0.9760 -0.5898
 6988SOL    MW427726   0.956   1.267   2.641 -0.1510 -0.0344  0.8411
 6989SOL     OW27727   1.149   4.688   5.938 -0.6788  0.1339  0.3891
 6989SOL    HW227728   1.105   4.662   6.018 -1.2832 -0.7975 -0.2257
 6989SOL    HW327729   1.111   4.633   5.870  1.2540 -0.5580 -0.2190
 6989SOL    MW427730   1.138   4.677   5.939 -0.5036 -0.0803  0.2277
 6990SOL     OW27731   2.721   0.527   4.768 -1.0521  0.2833 -0.0039
 6990SOL    HW227732   2.797   0.568   4.811 -0.3640  0.7582 -1.5844
 6990SOL    HW327733   2.750   0.513   4.677 -2.2769 -1.1158 -0.2098
 6990SOL    MW427734   2.735   0.531   4.761 -1.1229  0.1613 -0.2396
 6991SOL     OW27735   1.750   3.173   2.515 -0.7610  0.5042 -0.2180
 6991SOL    HW227736   1.703   3.129   2.444 -0.8318 -1.8930  1.2179
 6991SOL    HW327737   1.843   3.162   2.493 -0.7639 -0.8555  0.3618
 6991SOL    MW427738   1.756   3.166   2.502 -0.7707  0.0085  0.0479
 6992SOL     OW27739   0.328   2.784   3.792 -0.3858  0.3689 -0.2161
 6992SOL    HW227740   0.365   2.780   3.880 -0.6042  1.6089 -0.0506
 6992SOL    HW327741   0.392   2.834   3.741 -1.8652  2.8278  0.1531
 6992SOL    MW427742   0.341   2.790   3.797 -0.6098  0.8569 -0.1456
 6993SOL     OW27743   0.421   3.025   3.091  0.5187  0.3507 -0.6805
 6993SOL    HW227744   0.345   3.024   3.149  1.5288 -0.8889  0.7002
 6993SOL    HW327745   0.452   2.934   3.091  2.4099  0.9518 -0.5899
 6993SOL    MW427746   0.415   3.013   3.099  0.9015  0.2665 -0.4864
 6994SOL     OW27747   6.185   0.463   4.742 -0.1245  0.1786 -0.2467
 6994SOL    HW227748   6.162   0.370   4.741 -0.6337  0.2960 -1.5816
 6994SOL    HW327749   6.204   0.484   4.650  2.0898  0.8978  0.3282
 6994SOL    MW427750   6.184   0.454   4.729  0.1004  0.2890 -0.3470
 6995SOL     OW27751   5.900   2.085   4.797 -0.3730  0.0047  0.5989
 6995SOL    HW227752   5.851   2.167   4.804  0.8341  0.7398  0.6495
 6995SOL    HW327753   5.991   2.110   4.811  0.0340 -1.3271  0.4495
 6995SOL    MW427754   5.905   2.099   4.799 -0.1600 -0.0740  0.5859
 6996SOL     OW27755   4.520   1.808   5.992 -0.3009  0.1210 -0.0630
 6996SOL    HW227756   4.434   1.802   6.032  0.1988 -1.2273  0.8676
 6996SOL    HW327757   4.506   1.859   5.912 -1.8970  0.1353  0.2011
 6996SOL    MW427758   4.507   1.814   5.987 -0.4455 -0.0550  0.0946
 6997SOL     OW27759   2.713   3.165   1.390  0.5580  0.7800 -0.0671
 6997SOL    HW227760   2.757   3.093   1.433  0.8268  0.7285 -0.4280
 6997SOL    HW327761   2.778   3.202   1.331 -0.0601  0.3077 -1.0743
 6997SOL    MW427762   2.727   3.161   1.388  0.5119  0.7109 -0.2476
 6998SOL     OW27763   5.142   3.014   4.297 -1.0268  0.1183 -0.1084
 6998SOL    HW227764   5.218   3.010   4.238 -1.4515  0.3265 -0.6750
 6998SOL    HW327765   5.151   2.937   4.352 -0.4241  0.1162 -0.1983
 6998SOL    MW427766   5.153   3.003   4.296 -1.0033  0.1455 -0.1950
 6999SOL     OW27767   3.881   5.436   1.369  0.3926 -0.1626  0.0347
 6999SOL    HW227768   3.806   5.442   1.310  0.0266  0.2464  0.5370
 6999SOL    HW327769   3.903   5.343   1.371 -1.0898 -0.5146  1.1141
 6999SOL    MW427770   3.874   5.425   1.362  0.1487 -0.1551  0.2434
 7000SOL     OW27771   0.460   2.986   2.385 -0.3502 -0.4232  0.2474
 7000SOL    HW227772   0.434   2.899   2.357 -0.4112 -0.0844 -0.7643
 7000SOL    HW327773   0.387   3.043   2.361  1.2927  0.5774 -2.8596
 7000SOL    MW427774   0.447   2.982   2.378 -0.1415 -0.2465 -0.2960
 7001SOL     OW27775   3.499   5.287   2.354  0.8116 -0.4254  0.2399
 7001SOL    HW227776   3.451   5.250   2.280  0.3826  0.0836  0.2544
 7001SOL    HW327777   3.436   5.285   2.426  1.7155 -2.3924  1.0423
 7001SOL    MW427778   3.484   5.282   2.354  0.8743 -0.6178  0.3477
 7002SOL     OW27779   0.831   6.276   4.676  0.2123 -0.2264 -0.8011
 7002SOL    HW227780   0.840   6.270   4.771 -0.8015  0.3421 -0.6438
 7002SOL    HW327781   0.902   6.333   4.648  1.1313 -1.2189 -0.5220
 7002SOL    MW427782   0.841   6.283   4.685  0.1998 -0.2824 -0.7435
 7003SOL     OW27783   1.542   4.535   2.405  0.1049  0.1404 -0.0839
 7003SOL    HW227784   1.573   4.498   2.323  1.1819 -0.8383  0.7291
 7003SOL    HW327785   1.561   4.629   2.399  1.9371 -0.2137 -0.1925
 7003SOL    MW427786   1.548   4.543   2.394  0.4888 -0.0354  0.0090
 7004SOL     OW27787   4.033   0.551   1.496 -0.0234 -0.4632 -0.2397
 7004SOL    HW227788   4.045   0.570   1.403 -0.9153  1.5882  0.0083
 7004SOL    HW327789   4.104   0.490   1.517  1.5775  0.7671 -1.7626
 7004SOL    MW427790   4.044   0.545   1.486  0.0701 -0.0302 -0.4079
 7005SOL     OW27791   4.677   1.316   2.788 -0.5533  0.0717 -0.5505
 7005SOL    HW227792   4.720   1.325   2.873 -1.8302  1.2606  0.0267
 7005SOL    HW327793   4.655   1.406   2.763 -0.9895 -0.3393 -1.7079
 7005SOL    MW427794   4.680   1.329   2.796 -0.7793  0.1743 -0.6271
 7006SOL     OW27795   4.750   4.573   0.440 -0.1772  0.6249 -0.7664
 7006SOL    HW227796   4.741   4.524   0.359  1.1859  1.2882 -1.3492
 7006SOL    HW327797   4.689   4.646   0.432 -3.2480 -1.5520  0.6724
 7006SOL    MW427798   4.741   4.576   0.429 -0.4025  0.4252 -0.6535
 7007SOL     OW27799   3.134   1.540   3.417 -0.1447  0.3739  0.1751
 7007SOL    HW227800   3.138   1.636   3.417 -1.1001  0.4617  2.3420
 7007SOL    HW327801   3.199   1.514   3.482 -0.3289 -0.4316  0.0371
 7007SOL    MW427802   3.143   1.549   3.425 -0.2950  0.2792  0.4428
 7008SOL     OW27803   0.431   3.939   1.163 -0.7433  0.5405 -0.2233
 7008SOL    HW227804   0.507   3.886   1.138 -1.7874 -1.1052 -0.0457
 7008SOL    HW327805   0.465   4.029   1.165  1.5036 -0.2534  1.0498
 7008SOL    MW427806   0.446   3.944   1.160 -0.5846  0.2186 -0.0319
 7009SOL     OW27807   2.350   3.867   3.431 -0.1453  0.0071 -0.0281
 7009SOL    HW227808   2.423   3.852   3.371  0.0912 -1.9069  0.6537
 7009SOL    HW327809   2.273   3.866   3.375 -0.0413 -2.9514 -0.2861
 7009SOL    MW427810   2.350   3.865   3.415 -0.1003 -0.6358  0.0278
 7010SOL     OW27811   2.668   5.720   5.150 -0.2330  0.2451  0.3897
 7010SOL    HW227812   2.641   5.757   5.234  0.8993  0.4011  0.6953
 7010SOL    HW327813   2.628   5.633   5.148 -0.0940  0.1582  1.1845
 7010SOL    MW427814   2.659   5.714   5.161 -0.0652  0.2542  0.5349
 7011SOL     OW27815   0.631   1.924   6.098 -0.1164  0.4171  0.4939
 7011SOL    HW227816   0.697   1.944   6.164 -1.4293  0.5839  1.8021
 7011SOL    HW327817   0.618   2.007   6.052 -0.0271  0.5906  0.7815
 7011SOL    MW427818   0.638   1.938   6.101 -0.2778  0.4620  0.7045
 7012SOL     OW27819   1.816   5.127   3.285  0.1319  0.6230 -0.1054
 7012SOL    HW227820   1.903   5.167   3.288  0.2527  0.5175 -1.5269
 7012SOL    HW327821   1.777   5.160   3.203 -1.6341  1.5991  1.0486
 7012SOL    MW427822   1.822   5.137   3.274 -0.0851  0.7379 -0.1407
 7013SOL     OW27823   4.467   0.789   0.527 -0.6064 -0.1410 -0.0072
 7013SOL    HW227824   4.535   0.842   0.570 -2.2884  1.1316  1.2377
 7013SOL    HW327825   4.511   0.707   0.505  1.5171  0.8895  0.0682
 7013SOL    MW427826   4.482   0.785   0.529 -0.5481  0.1629  0.1670
 7014SOL     OW27827   3.660   4.317   0.647 -0.2202 -0.1804  0.8210
 7014SOL    HW227828   3.679   4.410   0.658  0.3107 -0.1216 -0.4545
 7014SOL    HW327829   3.686   4.277   0.730  0.5336  0.6617  1.0043
 7014SOL    MW427830   3.666   4.324   0.659 -0.0507 -0.0615  0.6769
 7015SOL     OW27831   3.220   5.383   0.845 -0.4656  0.5461  0.1000
 7015SOL    HW227832   3.204   5.418   0.757 -3.4502  0.0691  0.3527
 7015SOL    HW327833   3.148   5.322   0.860  0.2808  0.1829  2.6636
 7015SOL    MW427834   3.208   5.380   0.835 -0.7609  0.4352  0.4716
 7016SOL     OW27835   3.050   1.459   2.262  0.2259  0.2204 -0.4082
 7016SOL    HW227836   3.007   1.375   2.248  0.0680  0.3695 -0.8581
 7016SOL    HW327837   3.027   1.484   2.352 -0.3376  0.1302 -0.5221
 7016SOL    MW427838   3.041   1.451   2.272  0.1307  0.2282 -0.4826
 7017SOL     OW27839   1.188   4.365   0.220 -0.4069 -0.0906 -0.3414
 7017SOL    HW227840   1.133   4.314   0.161  0.6224 -0.1120 -1.3107
 7017SOL    HW327841   1.178   4.322   0.305 -2.2231  0.1862 -0.3670
 7017SOL    MW427842   1.180   4.352   0.224 -0.5107 -0.0569 -0.4727
 7018SOL     OW27843   0.052   2.396   4.906 -0.0743  0.2532 -0.3434
 7018SOL    HW227844   0.000   2.467   4.945  1.5471  0.2206  2.0903
 7018SOL    HW327845   0.126   2.440   4.864  0.2976  0.0747  0.1190
 7018SOL    MW427846   0.055   2.411   4.905  0.1887  0.2254  0.0387
 7019SOL     OW27847   2.777   2.550   0.027 -0.5144  0.0775  0.2083
 7019SOL    HW227848   2.748   2.459   0.028 -1.1125  0.1395 -2.6592
 7019SOL    HW327849   2.705   2.599   0.068 -0.5697 -0.6314  0.9745
 7019SOL    MW427850   2.764   2.545   0.032 -0.6006 -0.0079 -0.0690
 7020SOL     OW27851   4.063   3.232   1.014  0.3819 -0.3554 -0.3556
 7020SOL    HW227852   4.149   3.191   1.024  0.6150  0.2310  0.1134
 7020SOL    HW327853   4.002   3.159   1.003  0.8230 -0.8110  0.1894
 7020SOL    MW427854   4.066   3.217   1.014  0.4709 -0.3381 -0.2218
 7021SOL     OW27855   3.550   5.225   1.680  0.1681  0.3388  0.3811
 7021SOL    HW227856   3.626   5.275   1.650  1.2042 -1.1344  0.4451
 7021SOL    HW327857   3.520   5.271   1.759  0.7413  1.1504  0.1390
 7021SOL    MW427858   3.556   5.238   1.687  0.3805  0.2515  0.3576
 7022SOL     OW27859   1.382   2.919   0.665 -0.1612  0.0392 -0.1004
 7022SOL    HW227860   1.286   2.923   0.675 -0.5750 -3.2631 -1.2635
 7022SOL    HW327861   1.396   2.935   0.571  0.2714 -0.6121 -0.1539
 7022SOL    MW427862   1.371   2.921   0.654 -0.1587 -0.4824 -0.2609
 7023SOL     OW27863   0.519   5.059   5.060 -0.0036  0.5332 -0.1938
 7023SOL    HW227864   0.536   4.965   5.059 -1.5453  0.2301 -0.6209
 7023SOL    HW327865   0.481   5.076   5.146 -1.3318  0.4206 -0.7296
 7023SOL    MW427866   0.516   5.049   5.071 -0.3823  0.4784 -0.3208
 7024SOL     OW27867   2.779   2.959   4.898 -0.6219 -0.3876  0.3557
 7024SOL    HW227868   2.731   2.978   4.817 -0.8154 -1.2852  0.2468
 7024SOL    HW327869   2.723   2.896   4.944 -0.6467  0.3351  1.3256
 7024SOL    MW427870   2.765   2.953   4.893 -0.6507 -0.4106  0.4693
 7025SOL     OW27871   4.611   1.813   4.007 -0.7461 -0.2103  0.6583
 7025SOL    HW227872   4.653   1.822   4.093 -0.6217 -2.5218  0.9117
 7025SOL    HW327873   4.677   1.772   3.952 -1.2790  0.0013 -0.1515
 7025SOL    MW427874   4.625   1.809   4.011 -0.8000 -0.4873  0.5849
 7026SOL     OW27875   1.135   5.497   1.734  0.4441  0.2925  0.1187
 7026SOL    HW227876   1.210   5.523   1.787 -0.1069  0.0995  1.0083
 7026SOL    HW327877   1.122   5.405   1.755 -0.1529  0.3722  0.0982
 7026SOL    MW427878   1.143   5.488   1.743  0.2926  0.2776  0.2333
 7027SOL     OW27879   4.348   4.568   0.117 -0.1304 -0.0941  0.6992
 7027SOL    HW227880   4.407   4.558   0.042  0.1960  0.2846  0.9024
 7027SOL    HW327881   4.356   4.660   0.142 -0.7041 -0.0718  0.8186
 7027SOL    MW427882   4.357   4.579   0.111 -0.1630 -0.0412  0.7417
 7028SOL     OW27883   5.933   1.710   2.454 -0.3948 -0.6056 -0.4287
 7028SOL    HW227884   5.915   1.803   2.470  1.3236  0.0283 -1.7294
 7028SOL    HW327885   5.880   1.663   2.518 -1.0506  1.2866  0.4902
 7028SOL    MW427886   5.924   1.716   2.464 -0.2546 -0.2723 -0.4791
 7029SOL     OW27887   4.303   3.989   3.881  0.5083 -0.2364  0.2094
 7029SOL    HW227888   4.228   4.022   3.831  0.6716 -2.9397 -2.0933
 7029SOL    HW327889   4.379   4.019   3.833  0.6644 -3.2240 -1.6819
 7029SOL    MW427890   4.303   3.997   3.868  0.5504 -0.9873 -0.3440
 7030SOL     OW27891   4.267   0.232   4.225  0.0788 -0.3161  0.0125
 7030SOL    HW227892   4.278   0.315   4.179  0.7908 -0.0268  0.6924
 7030SOL    HW327893   4.292   0.250   4.316 -0.9999 -0.9500  0.4674
 7030SOL    MW427894   4.272   0.245   4.231  0.0304 -0.3616  0.1622
 7031SOL     OW27895   5.747   3.589   4.377 -0.1488  0.4483  0.1343
 7031SOL    HW227896   5.796   3.514   4.342  0.0972 -0.1617  1.6869
 7031SOL    HW327897   5.660   3.581   4.339 -0.0696 -0.5375  0.1231
 7031SOL    MW427898   5.742   3.578   4.368 -0.1059  0.2377  0.3377
 7032SOL     OW27899   1.193   6.122   3.415 -0.5364  0.1337  0.0194
 7032SOL    HW227900   1.226   6.052   3.358 -1.9909  0.3671 -1.1827
 7032SOL    HW327901   1.250   6.196   3.398  0.2465 -0.3836  0.3587
 7032SOL    MW427902   1.205   6.122   3.405 -0.6250  0.0963 -0.0945
 7033SOL     OW27903   3.452   4.807   5.323 -0.2914 -0.4221 -0.0926
 7033SOL    HW227904   3.441   4.736   5.386 -1.7441 -0.1270  0.0396
 7033SOL    HW327905   3.507   4.871   5.367 -2.2485  0.3257  1.4391
 7033SOL    MW427906   3.458   4.806   5.337 -0.7412 -0.2845  0.1269
 7034SOL     OW27907   4.342   2.635   3.268  0.5438 -0.2929  0.1055
 7034SOL    HW227908   4.414   2.637   3.204 -1.4013  1.3128 -2.2246
 7034SOL    HW327909   4.346   2.721   3.311  0.5406 -0.5428  0.6143
 7034SOL    MW427910   4.352   2.647   3.265  0.2868 -0.1140 -0.1348
 7035SOL     OW27911   0.810   4.405   0.693  0.1882  0.0609  0.3447
 7035SOL    HW227912   0.825   4.407   0.599 -0.3930 -1.8662  0.1518
 7035SOL    HW327913   0.790   4.495   0.717 -3.7696  0.1105 -2.1554
 7035SOL    MW427914   0.809   4.417   0.684 -0.4106 -0.1868 -0.0106
 7036SOL     OW27915   2.229   0.732   5.935  0.8391  0.4209  0.4065
 7036SOL    HW227916   2.282   0.790   5.989 -0.5210  1.3751  0.7731
 7036SOL    HW327917   2.157   0.704   5.992 -0.4077  1.1357 -0.7620
 7036SOL    MW427918   2.227   0.736   5.949  0.4952  0.6411  0.3007
 7037SOL     OW27919   4.796   0.925   0.427 -0.1348 -0.2204  0.1968
 7037SOL    HW227920   4.745   0.894   0.502 -1.2277  0.6969 -0.1441
 7037SOL    HW327921   4.733   0.930   0.355  0.8896 -1.0649 -0.8067
 7037SOL    MW427922   4.781   0.922   0.428 -0.1439 -0.2108  0.0194
 7038SOL     OW27923   5.141   1.849   4.096 -0.6788  0.4695 -0.0240
 7038SOL    HW227924   5.223   1.803   4.078 -1.3975 -0.5573 -0.8709
 7038SOL    HW327925   5.138   1.919   4.030 -0.5299  0.4461 -0.0563
 7038SOL    MW427926   5.151   1.852   4.085 -0.7540  0.3310 -0.1400
 7039SOL     OW27927   4.475   5.961   3.735  0.5062  0.1928 -0.1212
 7039SOL    HW227928   4.505   6.046   3.766  0.9738 -0.5509  1.6528
 7039SOL    HW327929   4.413   5.931   3.802 -1.3187  0.0265 -1.7896
 7039SOL    MW427930   4.471   5.968   3.748  0.3271  0.0727 -0.1072
 7040SOL     OW27931   3.757   2.745   6.128  0.8243  0.9104  0.4731
 7040SOL    HW227932   3.720   2.658   6.114 -0.7815  1.7569 -0.9018
 7040SOL    HW327933   3.845   2.728   6.162  0.6005 -1.2380  0.1333
 7040SOL    MW427934   3.764   2.731   6.131  0.5829  0.7386  0.2469
 7041SOL     OW27935   3.030   2.157   5.663  0.1024  0.5963 -0.3023
 7041SOL    HW227936   3.032   2.171   5.758  0.6427  0.2482 -0.2587
 7041SOL    HW327937   3.122   2.143   5.639  0.1401  1.9839 -1.0800
 7041SOL    MW427938   3.043   2.157   5.672  0.1787  0.7335 -0.3991
 7042SOL     OW27939   2.357   4.627   1.456  0.1420 -0.5342  0.1289
 7042SOL    HW227940   2.267   4.629   1.491 -0.4954 -1.1152 -1.4156
 7042SOL    HW327941   2.400   4.701   1.498 -1.9825  1.7570 -1.4519
 7042SOL    MW427942   2.351   4.637   1.467 -0.2224 -0.3085 -0.2835
 7043SOL     OW27943   3.167   3.920   3.998  0.0025 -0.0899  0.1458
 7043SOL    HW227944   3.205   3.862   3.932  0.0044  0.3860 -0.2853
 7043SOL    HW327945   3.220   4.000   3.992 -0.2425  0.0959  0.4530
 7043SOL    MW427946   3.179   3.923   3.988 -0.0296 -0.0026  0.1295
 7044SOL     OW27947   5.717   3.692   0.985 -0.9000 -0.0888 -0.1367
 7044SOL    HW227948   5.742   3.626   1.049 -1.1250 -0.5855 -0.5529
 7044SOL    HW327949   5.625   3.675   0.966 -0.7038 -0.2862 -0.9743
 7044SOL    MW427950   5.708   3.681   0.991 -0.9038 -0.1803 -0.3021
 7045SOL     OW27951   5.317   3.615   0.293  0.1503  0.7785 -0.0479
 7045SOL    HW227952   5.403   3.643   0.261  0.6695 -1.8431 -1.2007
 7045SOL    HW327953   5.272   3.581   0.216 -1.0989  0.1269  0.9216
 7045SOL    MW427954   5.322   3.614   0.279  0.0540  0.3466 -0.0721
 7046SOL     OW27955   6.374   2.473   4.191 -0.7233 -0.2383 -0.1828
 7046SOL    HW227956   6.335   2.405   4.136  0.4505 -0.5501 -0.6509
 7046SOL    HW327957   6.303   2.499   4.250 -1.3561 -1.4728 -0.3608
 7046SOL    MW427958   6.359   2.467   4.191 -0.6519 -0.4423 -0.2681
 7047SOL     OW27959   1.301   0.211   1.067  0.0884 -0.5727 -0.3200
 7047SOL    HW227960   1.312   0.174   0.980 -1.8982 -1.1248 -0.3966
 7047SOL    HW327961   1.353   0.155   1.124 -1.1942 -2.2748 -0.7351
 7047SOL    MW427962   1.309   0.199   1.063 -0.3429 -0.8701 -0.3849
 7048SOL     OW27963   3.862   6.386   3.266 -0.3934  0.4679 -0.3353
 7048SOL    HW227964   3.896   6.463   3.311  1.0475  0.0091 -0.6132
 7048SOL    HW327965   3.877   6.314   3.327  0.6471  0.0063 -1.1091
 7048SOL    MW427966   3.868   6.387   3.280 -0.0660  0.3464 -0.4741
 7049SOL     OW27967   1.282   1.162   1.639  0.6423  0.1059 -0.4753
 7049SOL    HW227968   1.195   1.161   1.600  0.2751  0.6940  0.3023
 7049SOL    HW327969   1.271   1.211   1.721  1.3353 -1.2933  0.5013
 7049SOL    MW427970   1.269   1.168   1.645  0.6853 -0.0011 -0.2438
 7050SOL     OW27971   1.153   1.967   0.461  0.9163  0.3946 -0.7407
 7050SOL    HW227972   1.241   1.928   0.466  0.2263 -1.3028 -1.4652
 7050SOL    HW327973   1.106   1.930   0.535  0.8494  1.4892 -0.2112
 7050SOL    MW427974   1.159   1.957   0.472  0.8164  0.3151 -0.7665
 7051SOL     OW27975   5.524   2.301   0.470 -0.1788 -0.2305  0.1506
 7051SOL    HW227976   5.512   2.382   0.419  1.4705  0.1171  0.2568
 7051SOL    HW327977   5.559   2.331   0.554  0.7331 -1.0484  0.0827
 7051SOL    MW427978   5.527   2.316   0.474  0.1592 -0.2925  0.1557
 7052SOL     OW27979   5.773   0.170   2.199  0.0799  0.2851 -0.2128
 7052SOL    HW227980   5.720   0.098   2.164 -0.0770 -0.2966  1.1638
 7052SOL    HW327981   5.745   0.246   2.149 -0.9576 -0.3033 -0.5675
 7052SOL    MW427982   5.763   0.170   2.188 -0.0777  0.1307 -0.0780
 7053SOL     OW27983   1.417   2.711   2.133 -0.2078  0.2660 -0.7052
 7053SOL    HW227984   1.490   2.747   2.183  0.1044 -2.9216  1.4228
 7053SOL    HW327985   1.345   2.772   2.147  0.4611  0.5110  2.0886
 7053SOL    MW427986   1.417   2.723   2.141 -0.0783 -0.1223 -0.0559
 7054SOL     OW27987   0.661   2.109   5.404  0.2006  0.0949 -0.0897
 7054SOL    HW227988   0.599   2.179   5.386 -0.1683  0.5749  2.6256
 7054SOL    HW327989   0.617   2.029   5.376 -0.0233  0.7559 -1.7262
 7054SOL    MW427990   0.647   2.108   5.398  0.1224  0.2454  0.0527
 7055SOL     OW27991   1.469   3.998   5.122  0.4032  0.9201  0.1568
 7055SOL    HW227992   1.452   4.054   5.047 -1.0620  0.4469  0.1029
 7055SOL    HW327993   1.560   3.971   5.112 -0.2426 -0.6656 -2.5572
 7055SOL    MW427994   1.479   4.002   5.111  0.1247  0.6484 -0.2084
 7056SOL     OW27995   1.845   6.374   1.765  0.3373  0.1440 -0.1000
 7056SOL    HW227996   1.816   6.302   1.822  0.8636  1.2750  1.7033
 7056SOL    HW327997   1.941   6.373   1.773  0.3709  0.7560 -0.4187
 7056SOL    MW427998   1.854   6.364   1.774  0.4112  0.3739  0.0959
 7057SOL     OW27999   6.177   4.700   0.851  0.0725 -0.2352  0.5829
 7057SOL    HW228000   6.189   4.694   0.945  0.6945  1.3980  0.6278
 7057SOL    HW328001   6.246   4.759   0.821  0.7595 -1.7877 -1.0901
 7057SOL    MW428002   6.187   4.707   0.859  0.2452 -0.2245  0.3681
 7058SOL     OW28003   1.421   6.369   1.646  0.0513 -0.0657 -0.2304
 7058SOL    HW228004   1.327   6.365   1.632  0.2978 -0.3370 -2.0613
 7058SOL    HW328005   1.459   6.340   1.563  1.7539 -0.8102  0.7604
 7058SOL    MW428006   1.414   6.365   1.633  0.3085 -0.1997 -0.3412
 7059SOL     OW28007   1.395   2.437   1.187 -0.0166  0.3620 -0.1255
 7059SOL    HW228008   1.370   2.515   1.236 -2.1044 -0.1563 -0.2464
 7059SOL    HW328009   1.387   2.365   1.251 -0.1170  0.0121 -0.5234
 7059SOL    MW428010   1.391   2.438   1.202 -0.3053  0.2475 -0.1939
 7060SOL     OW28011   4.096   3.549   3.937  0.1960  0.0787 -0.2378
 7060SOL    HW228012   4.042   3.536   4.014 -0.7180 -0.9208 -1.0211
 7060SOL    HW328013   4.168   3.604   3.967  0.8430 -1.7583  1.7612
 7060SOL    MW428014   4.098   3.555   3.951  0.1608 -0.2955 -0.0774
 7061SOL     OW28015   3.136   2.431   0.551 -0.4608  0.2212 -0.3158
 7061SOL    HW228016   3.072   2.371   0.513  0.5812 -2.5350  1.9281
 7061SOL    HW328017   3.114   2.433   0.644  2.2700 -0.3409  0.4289
 7061SOL    MW428018   3.125   2.423   0.558  0.0369 -0.2166  0.0785
 7062SOL     OW28019   6.008   0.515   5.578 -0.2624 -0.3853 -0.3706
 7062SOL    HW228020   6.050   0.431   5.563 -0.3038 -0.6365  0.8195
 7062SOL    HW328021   6.009   0.558   5.493  2.7160 -0.2276 -0.3790
 7062SOL    MW428022   6.014   0.510   5.565  0.1251 -0.3976 -0.2147
 7063SOL     OW28023   1.547   6.180   3.775  0.3584 -0.2447  0.2552
 7063SOL    HW228024   1.588   6.171   3.861 -0.0243  1.1298  0.6007
 7063SOL    HW328025   1.619   6.171   3.712  0.5968 -1.5411  0.6792
 7063SOL    MW428026   1.562   6.178   3.778  0.3394 -0.2344  0.3567
 7064SOL     OW28027   3.848   1.825   5.234 -0.1459 -0.4232  0.3103
 7064SOL    HW228028   3.853   1.748   5.178  2.8577 -0.3949  0.3842
 7064SOL    HW328029   3.923   1.818   5.292 -0.1685  2.2151  0.8160
 7064SOL    MW428030   3.858   1.814   5.235  0.2474 -0.0713  0.3868
 7065SOL     OW28031   3.663   2.042   1.241 -0.0970 -0.4503 -0.5618
 7065SOL    HW228032   3.641   2.022   1.150  0.2687  1.7476 -1.2170
 7065SOL    HW328033   3.626   2.129   1.255  1.3398 -0.0137  0.8160
 7065SOL    MW428034   3.655   2.051   1.231  0.1408 -0.1027 -0.4665
 7066SOL     OW28035   1.550   5.470   5.807 -0.0570 -0.7762  0.1169
 7066SOL    HW228036   1.472   5.435   5.852  0.1132 -2.0335 -0.5222
 7066SOL    HW328037   1.538   5.565   5.809 -0.2264 -0.7798  2.4949
 7066SOL    MW428038   1.538   5.478   5.813 -0.0569 -0.9426  0.3464
 7067SOL     OW28039   4.522   0.056   5.374  0.2160  0.0343 -0.3446
 7067SOL    HW228040   4.456   0.123   5.390  1.1080  1.3655 -1.9843
 7067SOL    HW328041   4.582   0.063   5.449 -0.7248 -0.2604  0.4533
 7067SOL    MW428042   4.522   0.066   5.386  0.2096  0.1710 -0.4557
 7068SOL     OW28043   0.730   3.335   0.485 -0.0131 -0.4084 -0.6097
 7068SOL    HW228044   0.678   3.359   0.408  0.5313  0.0964 -0.8227
 7068SOL    HW328045   0.819   3.324   0.452  0.3953  0.6515  0.0839
 7068SOL    MW428046   0.735   3.337   0.470  0.1126 -0.2020 -0.5463
 7069SOL     OW28047   1.878   0.841   5.453  0.1285 -0.1012 -0.6214
 7069SOL    HW228048   1.967   0.827   5.421 -0.1803 -1.3345 -1.0161
 7069SOL    HW328049   1.836   0.755   5.446 -0.5886  0.0577  1.1752
 7069SOL    MW428050   1.884   0.827   5.448 -0.0069 -0.2429 -0.4364
 7070SOL     OW28051   0.525   1.952   3.397  0.3584 -0.2142 -0.0481
 7070SOL    HW228052   0.549   1.954   3.489  0.7486  1.0214 -0.1503
 7070SOL    HW328053   0.608   1.939   3.350  0.0790 -1.5318 -0.2213
 7070SOL    MW428054   0.539   1.951   3.403  0.3730 -0.2251 -0.0844
 7071SOL     OW28055   3.126   5.900   6.150 -0.0552 -0.2940  0.0265
 7071SOL    HW228056   3.179   5.868   6.077 -2.5388 -1.0462 -1.5946
 7071SOL    HW328057   3.139   5.994   6.150  1.6061 -0.5029 -0.0106
 7071SOL    MW428058   3.134   5.908   6.140 -0.1637 -0.4208 -0.1923
 7072SOL     OW28059   0.071   0.090   1.853  0.1258 -0.0601  0.2254
 7072SOL    HW228060   0.061   0.074   1.947 -0.9444  1.0722  0.3380
 7072SOL    HW328061   0.007   0.031   1.812  1.5841 -1.5955  0.0789
 7072SOL    MW428062   0.061   0.080   1.860  0.1770 -0.1133  0.2209
 7073SOL     OW28063   1.238   0.007   5.465 -0.0331  0.5169 -0.0030
 7073SOL    HW228064   1.159   0.059   5.449 -0.1935  0.4094  0.4424
 7073SOL    HW328065   1.254   0.015   5.559  0.0649 -0.0711  0.0340
 7073SOL    MW428066   1.230   0.015   5.475 -0.0413  0.4251  0.0607
 7074SOL     OW28067   3.742   4.981   1.230  0.1267 -0.1057  0.0710
 7074SOL    HW228068   3.661   5.029   1.248  0.4286  0.1429  0.8035
 7074SOL    HW328069   3.717   4.889   1.235 -0.1691 -0.0273  0.0327
 7074SOL    MW428070   3.728   4.975   1.233  0.1275 -0.0625  0.1626
 7075SOL     OW28071   5.613   1.170   1.484 -0.5142 -0.6308  0.5013
 7075SOL    HW228072   5.596   1.109   1.556 -0.8297 -0.7092  0.3603
 7075SOL    HW328073   5.577   1.254   1.514 -0.2063 -0.5454  0.6369
 7075SOL    MW428074   5.606   1.173   1.497 -0.5152 -0.6299  0.5006
 7076SOL     OW28075   1.875   5.289   4.262  0.0658 -0.1941 -0.1763
 7076SOL    HW228076   1.826   5.224   4.313  0.8091  0.1824  1.0568
 7076SOL    HW328077   1.895   5.243   4.180 -1.9753 -0.4802 -0.5754
 7076SOL    MW428078   1.871   5.274   4.258 -0.1054 -0.1822 -0.0662
 7077SOL     OW28079   5.752   4.501   0.722  0.1959 -0.5251 -0.0769
 7077SOL    HW228080   5.789   4.496   0.634 -1.0068 -0.3454 -0.6171
 7077SOL    HW328081   5.827   4.510   0.779  1.1332 -2.3266 -0.9342
 7077SOL    MW428082   5.767   4.502   0.718  0.1609 -0.7391 -0.2613
 7078SOL     OW28083   0.589   5.326   5.435  0.2203  0.2442 -0.0269
 7078SOL    HW228084   0.673   5.356   5.399  0.5462  1.1029  1.3729
 7078SOL    HW328085   0.531   5.402   5.427 -0.4127 -0.3192 -0.9108
 7078SOL    MW428086   0.592   5.340   5.429  0.1798  0.2832  0.0412
 7079SOL     OW28087   1.626   3.517   2.863  0.9360 -0.2649  0.3725
 7079SOL    HW228088   1.702   3.562   2.827  0.2926 -0.0370 -0.7531
 7079SOL    HW328089   1.576   3.489   2.786 -0.6809  0.5745  1.0577
 7079SOL    MW428090   1.629   3.519   2.848  0.6378 -0.1241  0.3144
 7080SOL     OW28091   2.058   3.132   1.519 -0.1641 -0.4027 -0.0797
 7080SOL    HW228092   2.031   3.182   1.596 -0.7717 -1.0629  0.1355
 7080SOL    HW328093   2.152   3.150   1.512 -0.0415 -0.5346  0.9730
 7080SOL    MW428094   2.067   3.141   1.529 -0.2281 -0.5072  0.0876
 7081SOL     OW28095   4.939   4.275   3.591  0.7376  0.2440  0.1675
 7081SOL    HW228096   4.938   4.199   3.649  1.6575 -0.6409 -0.9190
 7081SOL    HW328097   5.000   4.336   3.633 -0.0215  0.4098  1.0563
 7081SOL    MW428098   4.947   4.273   3.604  0.7588  0.1491  0.1414
 7082SOL     OW28099   3.777   0.019   3.738 -0.0625 -0.0916  0.1557
 7082SOL    HW228100   3.768  -0.030   3.819  1.1017  0.3431  0.5744
 7082SOL    HW328101   3.714  -0.021   3.678 -0.4568 -0.8556  1.0615
 7082SOL    MW428102   3.768   0.007   3.740  0.0391 -0.1350  0.3305
 7083SOL     OW28103   1.249   6.301   1.134  0.3360 -0.0405 -0.0099
 7083SOL    HW228104   1.265   6.234   1.201 -2.1787 -0.9180 -0.1756
 7083SOL    HW328105   1.282   6.262   1.053 -0.3941 -0.7993  0.0372
 7083SOL    MW428106   1.255   6.287   1.132 -0.0921 -0.2564 -0.0256
 7084SOL     OW28107   3.864   0.929   0.933  0.2886  0.6509  0.6313
 7084SOL    HW228108   3.809   0.870   0.984  1.1170 -0.3556  0.3741
 7084SOL    HW328109   3.802   0.987   0.889 -0.5468 -0.1506  0.7343
 7084SOL    MW428110   3.849   0.929   0.934  0.2877  0.4123  0.6110
 7085SOL     OW28111   4.262   0.557   6.360  0.3881 -0.1663 -0.3557
 7085SOL    HW228112   4.346   0.580   6.321  1.2420 -1.6932  0.4556
 7085SOL    HW328113   4.216   0.640   6.370  1.7470  0.6886 -0.9325
 7085SOL    MW428114   4.267   0.571   6.356  0.6800 -0.2550 -0.3247
 7086SOL     OW28115   4.083   4.312   0.624  0.0301 -0.4120 -0.5981
 7086SOL    HW228116   4.030   4.282   0.550  0.5474  0.3227 -1.2814
 7086SOL    HW328117   4.172   4.320   0.589  0.2384  0.1900  0.0347
 7086SOL    MW428118   4.088   4.309   0.610  0.1258 -0.2356 -0.6048
 7087SOL     OW28119   1.336   6.268   0.575 -0.1309  0.4318  0.6245
 7087SOL    HW228120   1.364   6.181   0.603 -0.8542  0.3586  1.1452
 7087SOL    HW328121   1.413   6.324   0.587  0.8284 -0.4200 -1.1553
 7087SOL    MW428122   1.350   6.264   0.580 -0.0998  0.3098  0.4584
 7088SOL     OW28123   0.210   5.176   5.161 -0.1627  0.3128  0.3539
 7088SOL    HW228124   0.278   5.124   5.203 -1.0275 -0.2403  1.1146
 7088SOL    HW328125   0.138   5.115   5.146 -0.4353  0.8362 -0.6165
 7088SOL    MW428126   0.209   5.161   5.164 -0.3128  0.3089  0.3262
 7089SOL     OW28127   2.063   5.343   2.420 -0.8722  0.1791  0.2692
 7089SOL    HW228128   2.156   5.327   2.407 -0.8997  0.6359 -0.5619
 7089SOL    HW328129   2.045   5.422   2.368 -1.7270  0.0752  0.3951
 7089SOL    MW428130   2.073   5.351   2.411 -0.9886  0.2257  0.1761
 7090SOL     OW28131   5.764   2.857   2.848  0.0433 -0.5847 -0.4236
 7090SOL    HW228132   5.761   2.762   2.836  1.4183 -0.9250  1.4007
 7090SOL    HW328133   5.831   2.888   2.787 -1.1299 -0.5983 -1.7713
 7090SOL    MW428134   5.772   2.849   2.839  0.0699 -0.6314 -0.3607
 7091SOL     OW28135   0.116   4.878   5.830  0.0455 -0.0614 -0.3781
 7091SOL    HW228136   0.180   4.925   5.777  0.9830 -1.0737 -0.1775
 7091SOL    HW328137   0.129   4.912   5.919  0.0240  0.0225 -0.4071
 7091SOL    MW428138   0.126   4.889   5.835  0.1663 -0.1839 -0.3555
 7092SOL     OW28139   3.173   2.256   2.640 -0.1477  0.1601  0.4917
 7092SOL    HW228140   3.181   2.350   2.653  0.7813  0.0790  0.5843
 7092SOL    HW328141   3.090   2.233   2.680 -0.5742  0.9991  0.1232
 7092SOL    MW428142   3.163   2.265   2.647 -0.0814  0.2601  0.4553
 7093SOL     OW28143   3.176   6.398   2.315  0.2566  0.5029 -0.3861
 7093SOL    HW228144   3.183   6.486   2.352 -0.0157  0.7665 -0.9361
 7093SOL    HW328145   3.218   6.341   2.379  0.0713  0.9824  0.1718
 7093SOL    MW428146   3.182   6.403   2.328  0.1962  0.6010 -0.3851
 7094SOL     OW28147   6.301   5.950   2.437  0.6231  0.0578  0.2494
 7094SOL    HW228148   6.335   6.036   2.461  0.4747 -0.2165  1.4758
 7094SOL    HW328149   6.297   5.953   2.341  1.5392  1.0578  0.2153
 7094SOL    MW428150   6.305   5.962   2.427  0.7244  0.1536  0.4067
 7095SOL     OW28151   5.555   5.514   2.611  0.4078 -0.5757  0.2081
 7095SOL    HW228152   5.604   5.442   2.571 -1.0921 -0.5724 -1.8145
 7095SOL    HW328153   5.578   5.590   2.558 -1.3860 -0.5012 -0.5260
 7095SOL    MW428154   5.565   5.514   2.598 -0.0268 -0.5654 -0.1556
 7096SOL     OW28155   2.163   2.231   4.415 -0.1606 -0.1079 -0.0789
 7096SOL    HW228156   2.128   2.268   4.334 -0.4961  2.9920  1.3360
 7096SOL    HW328157   2.257   2.247   4.410 -0.0420 -0.7974 -0.2308
 7096SOL    MW428158   2.171   2.238   4.404 -0.1892  0.2101  0.0877
 7097SOL     OW28159   0.899   1.451   1.700  0.1472  0.0940 -0.4893
 7097SOL    HW228160   0.964   1.520   1.683 -2.1788  3.3646  2.4333
 7097SOL    HW328161   0.858   1.435   1.616  1.1619  1.8794 -1.3838
 7097SOL    MW428162   0.902   1.458   1.687 -0.0258  0.7611 -0.2217
 7098SOL     OW28163   3.782   5.693   3.838 -0.6348  0.2712  0.7152
 7098SOL    HW228164   3.830   5.673   3.918 -0.8723 -1.3030  0.4905
 7098SOL    HW328165   3.802   5.785   3.821  2.7416 -0.4392  0.3164
 7098SOL    MW428166   3.791   5.702   3.847 -0.2207 -0.0302  0.6330
 7099SOL     OW28167   1.539   2.876   3.375  0.3528 -0.1472  0.6258
 7099SOL    HW228168   1.506   2.891   3.287  0.6345  0.5496  0.6271
 7099SOL    HW328169   1.500   2.947   3.427 -0.2173 -0.8485  1.1718
 7099SOL    MW428170   1.529   2.888   3.371  0.3148 -0.1478  0.6980
 7100SOL     OW28171   6.230   5.809   4.194  0.4330  0.3743 -0.1691
 7100SOL    HW228172   6.194   5.801   4.106 -2.6627 -0.8905  1.0691
 7100SOL    HW328173   6.297   5.741   4.199  0.5093  0.3325 -1.4529
 7100SOL    MW428174   6.234   5.799   4.183  0.0346  0.2019 -0.1751
 7101SOL     OW28175   5.207   0.912   3.308 -0.3606  0.0163 -0.3835
 7101SOL    HW228176   5.271   0.852   3.270  0.6835  0.9828 -0.2097
 7101SOL    HW328177   5.147   0.856   3.357 -0.7156 -1.0873 -1.9954
 7101SOL    MW428178   5.207   0.897   3.310 -0.2697 -0.0018 -0.5732
 7102SOL     OW28179   4.628   2.174   1.866  0.5356 -0.4322 -0.8071
 7102SOL    HW228180   4.589   2.237   1.805 -0.3487  0.6846  0.8183
 7102SOL    HW328181   4.694   2.224   1.913 -0.6483 -0.4643  0.9884
 7102SOL    MW428182   4.632   2.189   1.864  0.2627 -0.2891 -0.3558
 7103SOL     OW28183   5.395   0.702   2.373 -0.3229  0.5129 -0.2757
 7103SOL    HW228184   5.391   0.610   2.346 -0.3732  0.3777  0.1808
 7103SOL    HW328185   5.337   0.706   2.449 -0.7476  1.0402 -0.6218
 7103SOL    MW428186   5.387   0.690   2.380 -0.3856  0.5647 -0.2612
 7104SOL     OW28187   1.154   4.262   4.697  0.1276  0.9813 -0.4985
 7104SOL    HW228188   1.164   4.173   4.730 -0.7104  1.0553 -0.0086
 7104SOL    HW328189   1.216   4.269   4.625 -1.4768 -0.7780 -2.1433
 7104SOL    MW428190   1.164   4.251   4.692 -0.1947  0.7590 -0.6509
 7105SOL     OW28191   6.167   1.077   3.738 -0.0369  0.0570  0.3359
 7105SOL    HW228192   6.099   1.043   3.797 -0.8088 -0.6813 -0.9250
 7105SOL    HW328193   6.171   1.012   3.668  0.3275  1.2776 -0.7925
 7105SOL    MW428194   6.158   1.064   3.737 -0.0907  0.1206  0.0207
 7106SOL     OW28195   2.435   3.908   3.969  0.3773  0.4519  0.4261
 7106SOL    HW228196   2.463   3.874   3.884  1.1361 -2.1947  1.6332
 7106SOL    HW328197   2.434   3.831   4.026  1.3645  2.3516  3.2086
 7106SOL    MW428198   2.439   3.893   3.966  0.6077  0.3533  0.9525
 7107SOL     OW28199   0.628   2.543   5.805  0.1729 -0.3840  0.0808
 7107SOL    HW228200   0.654   2.636   5.802 -0.5932 -0.1421  0.6424
 7107SOL    HW328201   0.624   2.516   5.713 -0.6421  0.4486 -0.1460
 7107SOL    MW428202   0.631   2.552   5.792 -0.0357 -0.2423  0.1250
 7108SOL     OW28203   2.717   4.005   2.779 -0.2405  0.5090  0.5185
 7108SOL    HW228204   2.638   4.045   2.815  0.3793  1.2815  1.0659
 7108SOL    HW328205   2.767   4.079   2.744  0.8854  0.2139  1.4614
 7108SOL    MW428206   2.713   4.020   2.779 -0.0102  0.5720  0.7151
 7109SOL     OW28207   5.709   4.010   3.620  0.1834  0.6158  0.4005
 7109SOL    HW228208   5.777   3.989   3.555  0.3234 -0.5142  0.9062
 7109SOL    HW328209   5.748   3.986   3.704 -0.3963  1.0972  0.8146
 7109SOL    MW428210   5.723   4.004   3.622  0.1254  0.5302  0.5218
 7110SOL     OW28211   2.212   5.355   5.452 -0.0758 -0.7522 -0.2963
 7110SOL    HW228212   2.241   5.403   5.530 -1.8878  0.0451 -0.0597
 7110SOL    HW328213   2.292   5.321   5.413  0.9734 -0.1938  1.2875
 7110SOL    MW428214   2.226   5.356   5.457 -0.1765 -0.5734 -0.0561
 7111SOL     OW28215   0.066   4.571   1.534 -0.7248  0.2214 -0.1790
 7111SOL    HW228216   0.027   4.649   1.493 -0.7169 -0.6205 -1.8789
 7111SOL    HW328217   0.102   4.521   1.460  0.4377 -0.7573  1.0098
 7111SOL    MW428218   0.066   4.575   1.519 -0.5704 -0.0188 -0.2464
 7112SOL     OW28219   5.555   1.269   1.834 -0.3070 -0.2634 -0.3255
 7112SOL    HW228220   5.577   1.195   1.778 -0.6685 -0.9170  0.3728
 7112SOL    HW328221   5.612   1.339   1.804 -0.9326 -0.3917 -1.9242
 7112SOL    MW428222   5.566   1.268   1.823 -0.4372 -0.3666 -0.4443
 7113SOL     OW28223   2.762   1.886   2.794  0.3102  0.4968  0.4772
 7113SOL    HW228224   2.792   1.858   2.880 -0.3212 -2.1812 -0.0621
 7113SOL    HW328225   2.686   1.831   2.776  0.2322  1.1878 -1.6549
 7113SOL    MW428226   2.756   1.875   2.803  0.2166  0.2347  0.1248
 7114SOL     OW28227   5.423   4.051   1.900  0.7525  0.4315 -0.1570
 7114SOL    HW228228   5.383   3.976   1.855  0.2423  0.7986 -0.3307
 7114SOL    HW328229   5.355   4.082   1.959  1.7867 -0.7316  1.7512
 7114SOL    MW428230   5.409   4.045   1.902  0.8217  0.3264  0.0718
 7115SOL     OW28231   3.336   5.190   2.123  0.2647 -0.2108 -0.6084
 7115SOL    HW228232   3.247   5.225   2.115  0.9103  1.4643 -0.8108
 7115SOL    HW328233   3.333   5.106   2.078 -1.3467 -0.4429 -0.1260
 7115SOL    MW428234   3.324   5.184   2.116  0.1373 -0.0204 -0.5714
 7116SOL     OW28235   0.154   1.107   0.573  0.3279  0.6786 -0.2096
 7116SOL    HW228236   0.160   1.147   0.660 -0.1836 -0.3499  0.3297
 7116SOL    HW328237   0.061   1.086   0.563  0.9464 -4.1468  1.4017
 7116SOL    MW428238   0.142   1.110   0.583  0.3420 -0.0937  0.0742
 7117SOL     OW28239   5.580   5.815   2.866  0.0285 -0.5908 -0.5228
 7117SOL    HW228240   5.606   5.875   2.796  0.9209  0.2267  0.4646
 7117SOL    HW328241   5.649   5.749   2.868  0.4525 -0.1515  0.0872
 7117SOL    MW428242   5.593   5.814   2.857  0.2022 -0.4250 -0.3121
 7118SOL     OW28243   6.342   1.948   1.199 -0.4066 -0.0288  0.0325
 7118SOL    HW228244   6.400   2.007   1.151 -0.9704 -0.4767 -1.2392
 7118SOL    HW328245   6.269   1.932   1.139 -0.1534 -2.2193  0.2282
 7118SOL    MW428246   6.340   1.954   1.185 -0.4476 -0.3769 -0.1094
 7119SOL     OW28247   5.577   6.007   1.874 -0.0735  0.2375  0.2087
 7119SOL    HW228248   5.564   6.012   1.968 -2.3635 -0.0027 -0.0325
 7119SOL    HW328249   5.546   6.092   1.841  0.7555  0.3391 -0.3370
 7119SOL    MW428250   5.571   6.019   1.882 -0.2663  0.2192  0.1049
 7120SOL     OW28251   3.551   4.677   6.211 -0.0840 -0.3562  0.3767
 7120SOL    HW228252   3.554   4.680   6.115 -2.2626 -0.2179  0.2487
 7120SOL    HW328253   3.614   4.610   6.235 -1.2347 -2.1727 -1.3504
 7120SOL    MW428254   3.560   4.668   6.201 -0.5233 -0.5776  0.1319
 7121SOL     OW28255   4.761   2.522   3.669 -0.5724  0.3815 -0.1513
 7121SOL    HW228256   4.809   2.465   3.729 -0.9940 -0.1836 -0.3418
 7121SOL    HW328257   4.825   2.586   3.640  0.0222 -0.2663 -0.2887
 7121SOL    MW428258   4.776   2.523   3.673 -0.5496  0.2214 -0.1946
 7122SOL     OW28259   6.296   2.825   5.868 -0.4700  0.3233 -0.5388
 7122SOL    HW228260   6.301   2.742   5.916  1.2852  0.1385 -0.9419
 7122SOL    HW328261   6.228   2.811   5.802  1.1734 -1.6247 -1.9808
 7122SOL    MW428262   6.288   2.812   5.866 -0.0216  0.0419 -0.7823
 7123SOL     OW28263   4.923   1.840   0.925  0.3888 -0.2432 -0.0577
 7123SOL    HW228264   5.012   1.815   0.950  0.3017  0.1849  0.7230
 7123SOL    HW328265   4.923   1.837   0.830  1.3205  0.0167 -0.0776
 7123SOL    MW428266   4.935   1.836   0.916  0.5002 -0.1524  0.0427
 7124SOL     OW28267   5.751   4.908   0.525 -0.2223  0.2041  0.3845
 7124SOL    HW228268   5.711   4.993   0.543 -0.3202  0.4139 -0.7406
 7124SOL    HW328269   5.676   4.849   0.516 -0.1646  0.0498  0.8876
 7124SOL    MW428270   5.736   4.911   0.526 -0.2276  0.2114  0.3024
 7125SOL     OW28271   0.247   4.764   1.880  0.2887  0.1252  0.1543
 7125SOL    HW228272   0.281   4.680   1.911 -0.7677 -0.5482 -0.4280
 7125SOL    HW328273   0.287   4.776   1.794  1.5783  0.9605  0.8394
 7125SOL    MW428274   0.257   4.755   1.872  0.3195  0.1465  0.1679
 7126SOL     OW28275   4.302   3.159   1.971 -0.7153 -0.2498  0.0800
 7126SOL    HW228276   4.275   3.179   1.881  0.7008  1.0411 -0.1008
 7126SOL    HW328277   4.252   3.219   2.025  1.0468  1.5571 -0.1875
 7126SOL    MW428278   4.292   3.169   1.966 -0.2960  0.1589  0.0208
 7127SOL     OW28279   3.522   1.566   3.423 -0.0454 -0.3206 -0.1076
 7127SOL    HW228280   3.517   1.492   3.362 -1.9553 -0.8919  0.6653
 7127SOL    HW328281   3.472   1.636   3.381 -0.6639 -0.4397  0.4157
 7127SOL    MW428282   3.515   1.565   3.409 -0.3790 -0.4117  0.0634
 7128SOL     OW28283   2.071   4.717   6.221  0.5118 -0.4824 -0.3657
 7128SOL    HW228284   2.009   4.775   6.177  0.2489 -0.0879  0.4997
 7128SOL    HW328285   2.036   4.708   6.310 -0.0939 -2.8855 -0.7681
 7128SOL    MW428286   2.058   4.723   6.227  0.3972 -0.7474 -0.3046
 7129SOL     OW28287   5.767   3.861   1.617  0.1530 -0.1369  0.2796
 7129SOL    HW228288   5.760   3.894   1.527 -0.7476  0.0067  0.3900
 7129SOL    HW328289   5.855   3.886   1.646 -0.2960  1.6767  0.1714
 7129SOL    MW428290   5.778   3.868   1.609 -0.0251  0.1214  0.2799
 7130SOL     OW28291   0.167   4.080   0.529  0.1265  0.2333  0.0671
 7130SOL    HW228292   0.081   4.038   0.528 -0.4578  0.9910  3.5765
 7130SOL    HW328293   0.229   4.009   0.515 -0.9970 -0.4918 -1.5093
 7130SOL    MW428294   0.164   4.065   0.527 -0.0988  0.2376  0.3222
 7131SOL     OW28295   2.831   6.281   1.161  0.0409  0.2185 -0.3669
 7131SOL    HW228296   2.867   6.192   1.168  0.1673  0.0599 -2.4926
 7131SOL    HW328297   2.822   6.296   1.067 -1.3097  1.9442 -0.0053
 7131SOL    MW428298   2.835   6.271   1.150 -0.1206  0.4253 -0.5996
 7132SOL     OW28299   1.681   4.628   6.171 -0.5402  0.7420 -0.1247
 7132SOL    HW228300   1.657   4.703   6.225 -0.6064  1.5582 -1.2671
 7132SOL    HW328301   1.597   4.593   6.140 -0.6382 -0.9785  1.9015
 7132SOL    MW428302   1.667   4.633   6.174 -0.5619  0.6227 -0.0081
 7133SOL     OW28303   1.949   1.046   1.795  0.2614  0.2800 -0.0725
 7133SOL    HW228304   1.904   1.059   1.711 -1.0236  0.2195  0.5784
 7133SOL    HW328305   1.980   1.134   1.818 -3.3653  1.3429  1.5208
 7133SOL    MW428306   1.947   1.059   1.787 -0.3866  0.4122  0.2236
 7134SOL     OW28307   1.583   6.161   6.035 -0.0511  0.3428 -0.1156
 7134SOL    HW228308   1.525   6.085   6.029 -2.0006  1.6814  0.7017
 7134SOL    HW328309   1.533   6.226   6.085  0.3968  3.1440 -2.9577
 7134SOL    MW428310   1.568   6.160   6.041 -0.2493  0.8890 -0.3828
 7135SOL     OW28311   6.144   3.690   2.154  0.1423  0.0701  0.8304
 7135SOL    HW228312   6.183   3.654   2.074 -0.3372  0.0534  0.6009
 7135SOL    HW328313   6.218   3.726   2.203  0.5313 -0.5630  0.7144
 7135SOL    MW428314   6.159   3.690   2.150  0.1304 -0.0156  0.7848
 7136SOL     OW28315   0.022   4.323   5.860  0.1029 -0.0080 -0.1021
 7136SOL    HW228316  -0.035   4.295   5.931  0.6657  0.2985  0.4833
 7136SOL    HW328317   0.059   4.406   5.891  0.3401  0.1389 -0.7644
 7136SOL    MW428318   0.019   4.330   5.874  0.2085  0.0518 -0.1122
 7137SOL     OW28319   2.792   1.474   0.023 -1.0209  0.2125 -0.3724
 7137SOL    HW228320   2.792   1.401   0.085 -0.0881  0.3608 -0.1827
 7137SOL    HW328321   2.709   1.519   0.039 -1.7231 -0.9208 -0.6491
 7137SOL    MW428322   2.781   1.470   0.033 -0.9905  0.0825 -0.3838
 7138SOL     OW28323   0.091   4.906   4.542 -0.4032 -0.7594  0.2089
 7138SOL    HW228324   0.060   4.826   4.585  1.4442 -1.7746 -0.2370
 7138SOL    HW328325   0.142   4.951   4.610 -0.1116 -0.7843  0.0113
 7138SOL    MW428326   0.094   4.901   4.557 -0.1210 -0.8966  0.1240
 7139SOL     OW28327   3.977   4.752   2.639 -0.1388 -0.4646  0.0530
 7139SOL    HW228328   4.032   4.744   2.717  0.4927 -1.9367 -0.5024
 7139SOL    HW328329   3.945   4.663   2.623  0.9992 -0.5475 -2.2226
 7139SOL    MW428330   3.980   4.739   2.647  0.0947 -0.6697 -0.3205
 7140SOL     OW28331   1.687   2.418   6.079  0.2288  0.3621  0.0774
 7140SOL    HW228332   1.662   2.498   6.032  0.4806  0.7289  0.5574
 7140SOL    HW328333   1.754   2.378   6.024 -0.5208  0.0110 -0.6068
 7140SOL    MW428334   1.693   2.424   6.065  0.1631  0.3642  0.0504
 7141SOL     OW28335   5.044   3.531   5.318  0.2969 -0.0679  0.4996
 7141SOL    HW228336   5.070   3.458   5.262 -1.7022  0.0519 -0.6765
 7141SOL    HW328337   5.070   3.609   5.269 -0.3276  0.0246  0.3075
 7141SOL    MW428338   5.051   3.531   5.304 -0.0493 -0.0399  0.3191
 7142SOL     OW28339   3.523   5.380   0.375  0.4866 -0.4398  0.4821
 7142SOL    HW228340   3.580   5.304   0.368  0.1317 -0.7586  1.0208
 7142SOL    HW328341   3.574   5.451   0.336  0.6861 -1.0172 -0.3312
 7142SOL    MW428342   3.537   5.379   0.369  0.4661 -0.5581  0.4459
 7143SOL     OW28343   0.554   2.756   3.083  0.1578  0.3495  0.2483
 7143SOL    HW228344   0.633   2.733   3.034 -0.7823 -1.0116 -0.6802
 7143SOL    HW328345   0.505   2.674   3.089 -2.1136  1.5416 -0.9092
 7143SOL    MW428346   0.558   2.742   3.077 -0.2659  0.3272 -0.0269
 7144SOL     OW28347   1.265   0.254   2.063  0.2536 -0.2900 -0.4808
 7144SOL    HW228348   1.293   0.232   1.974 -0.7294  0.9281 -1.1319
 7144SOL    HW328349   1.338   0.303   2.100 -0.0178  0.7635 -1.2867
 7144SOL    MW428350   1.278   0.258   2.056  0.0881  0.0097 -0.6730
 7145SOL     OW28351   1.610   2.247   3.115 -0.6362 -0.0255 -0.1619
 7145SOL    HW228352   1.546   2.183   3.147 -0.7931  0.1970 -0.0330
 7145SOL    HW328353   1.566   2.288   3.040  0.0040 -1.0554 -1.1368
 7145SOL    MW428354   1.596   2.244   3.109 -0.5725 -0.1320 -0.2735
 7146SOL     OW28355   1.777   3.248   0.517  1.1648  0.1533 -0.5591
 7146SOL    HW228356   1.757   3.271   0.608  0.0831 -0.4951 -0.6220
 7146SOL    HW328357   1.852   3.304   0.494 -0.1546  2.1907 -0.1059
 7146SOL    MW428358   1.785   3.258   0.526  0.8480  0.3366 -0.5076
 7147SOL     OW28359   5.125   4.365   6.045  0.3790  0.7059  0.3653
 7147SOL    HW228360   5.099   4.357   6.137  1.5518 -0.1210  0.6450
 7147SOL    HW328361   5.077   4.295   6.001  0.7852  0.2954  0.5719
 7147SOL    MW428362   5.115   4.355   6.051  0.5873  0.5427  0.4295
 7148SOL     OW28363   2.532   3.158   4.407  0.4990  0.4333  0.1391
 7148SOL    HW228364   2.465   3.220   4.437  0.0371 -0.2848  0.6109
 7148SOL    HW328365   2.583   3.208   4.344 -0.1024  1.1833  0.2243
 7148SOL    MW428366   2.530   3.173   4.403  0.3587  0.4375  0.2126
 7149SOL     OW28367   0.032   3.236   1.841 -0.0499  0.1341  0.4515
 7149SOL    HW228368   0.093   3.291   1.891  0.0067 -1.1745  1.9294
 7149SOL    HW328369   0.054   3.146   1.868 -0.0325 -0.6664 -1.9799
 7149SOL    MW428370   0.043   3.231   1.852 -0.0402 -0.1442  0.3257
 7150SOL     OW28371   2.680   4.769   1.743 -0.1962 -0.1579 -0.2268
 7150SOL    HW228372   2.603   4.798   1.695 -0.0806  1.4838  0.5096
 7150SOL    HW328373   2.742   4.741   1.675 -0.5628  0.7777 -0.9635
 7150SOL    MW428374   2.678   4.769   1.728 -0.2293  0.1821 -0.2268
 7151SOL     OW28375   0.040   5.159   0.352 -0.1765 -0.4752 -0.2437
 7151SOL    HW228376   0.049   5.140   0.445  1.0243  1.3818  0.0872
 7151SOL    HW328377   0.004   5.079   0.314 -3.0475 -0.4995  2.1550
 7151SOL    MW428378   0.037   5.146   0.359 -0.3969 -0.2334  0.1164
 7152SOL     OW28379   0.353   3.642   1.829  0.2470  0.2693  0.6853
 7152SOL    HW228380   0.444   3.651   1.858 -0.0696  0.5377  1.6239
 7152SOL    HW328381   0.315   3.578   1.890 -0.8269  1.9282  1.8237
 7152SOL    MW428382   0.360   3.635   1.841  0.0635  0.5235  0.9594
 7153SOL     OW28383   0.970   3.101   2.424  0.0705  0.4564  0.4245
 7153SOL    HW228384   0.951   3.016   2.384  0.6104 -0.2055  1.5057
 7153SOL    HW328385   0.884   3.138   2.444 -0.1708  0.2154 -0.1537
 7153SOL    MW428386   0.956   3.094   2.421  0.1099  0.3373  0.4909
 7154SOL     OW28387   0.134   4.972   2.018  0.2325 -0.4424  0.0494
 7154SOL    HW228388   0.155   4.887   1.979 -2.4421 -1.0672 -0.2238
 7154SOL    HW328389   0.167   5.036   1.954 -0.8737 -1.3831 -1.5322
 7154SOL    MW428390   0.142   4.969   2.004 -0.2663 -0.6489 -0.1953
 7155SOL     OW28391   3.908   2.612   3.042 -0.1048 -0.0598 -0.3549
 7155SOL    HW228392   3.876   2.701   3.051  1.2625  0.2824  1.8643
 7155SOL    HW328393   3.860   2.562   3.108 -0.0092 -0.7107 -0.7659
 7155SOL    MW428394   3.898   2.617   3.052  0.0882 -0.1005 -0.1163
 7156SOL     OW28395   4.660   3.237   5.534 -0.3015 -0.4543  0.2738
 7156SOL    HW228396   4.678   3.318   5.582 -0.1722 -0.6548  0.5736
 7156SOL    HW328397   4.657   3.170   5.602 -1.6916 -0.5189  0.1781
 7156SOL    MW428398   4.662   3.239   5.550 -0.4678 -0.4893  0.3007
 7157SOL     OW28399   3.232   3.448   2.774  0.3044 -0.1472 -0.2450
 7157SOL    HW228400   3.160   3.417   2.829  1.6073  0.5254  1.9898
 7157SOL    HW328401   3.198   3.525   2.729 -0.2968  0.3786  1.0608
 7157SOL    MW428402   3.218   3.454   2.775  0.3970  0.0109  0.2221
 7158SOL     OW28403   0.289   0.093   4.328  0.2458  0.4728 -0.4968
 7158SOL    HW228404   0.233   0.015   4.333  0.1992  0.5839  2.3662
 7158SOL    HW328405   0.374   0.059   4.301 -0.0301 -0.4045 -0.3033
 7158SOL    MW428406   0.293   0.078   4.325  0.2032  0.3717 -0.0935
 7159SOL     OW28407   4.476   2.982   2.563 -0.7578  0.0022  0.2959
 7159SOL    HW228408   4.492   3.036   2.486 -0.7414 -0.5146 -0.0730
 7159SOL    HW328409   4.465   2.893   2.528  0.4305 -0.4401  0.9786
 7159SOL    MW428410   4.477   2.977   2.548 -0.5988 -0.1243  0.3373
 7160SOL     OW28411   2.951   5.571   0.042 -0.5323  0.3741 -0.5445
 7160SOL    HW228412   2.862   5.606   0.030 -0.5321  0.4635 -0.2888
 7160SOL    HW328413   2.958   5.555   0.136 -0.7451 -0.8948 -0.7277
 7160SOL    MW428414   2.940   5.573   0.052 -0.5603  0.2185 -0.5349
 7161SOL     OW28415   2.541   0.405   1.605  0.2646  0.5618  0.0186
 7161SOL    HW228416   2.543   0.383   1.698  0.4699  0.7465  0.0582
 7161SOL    HW328417   2.461   0.455   1.593  0.0329  0.1940  0.0181
 7161SOL    MW428418   2.531   0.409   1.615  0.2611  0.5376  0.0238
 7162SOL     OW28419   1.276   2.713   4.035 -0.4129 -0.9226  0.0811
 7162SOL    HW228420   1.334   2.748   3.966  2.0669 -1.3449  1.7982
 7162SOL    HW328421   1.205   2.777   4.041  0.7845  0.5965 -0.9506
 7162SOL    MW428422   1.275   2.726   4.026  0.0722 -0.7779  0.1715
 7163SOL     OW28423   5.620   2.036   6.171  0.2949  0.7241  0.0967
 7163SOL    HW228424   5.644   2.045   6.263 -0.2138 -0.1243  0.3230
 7163SOL    HW328425   5.543   2.092   6.160  1.1144  1.8457 -0.1412
 7163SOL    MW428426   5.613   2.044   6.181  0.3359  0.7601  0.0952
 7164SOL     OW28427   5.736   5.102   3.222  0.5511  0.2072  0.0106
 7164SOL    HW228428   5.765   5.128   3.135 -0.0553 -0.4538 -0.4059
 7164SOL    HW328429   5.758   5.175   3.278  1.7858  0.2747 -0.5322
 7164SOL    MW428430   5.743   5.115   3.218  0.6340  0.1289 -0.1160
 7165SOL     OW28431   5.424   2.781   3.722  0.0815 -0.1313  0.0104
 7165SOL    HW228432   5.469   2.722   3.662 -1.4571  0.0614 -1.4264
 7165SOL    HW328433   5.413   2.862   3.673 -1.1881  0.0477  0.5429
 7165SOL    MW428434   5.428   2.784   3.707 -0.2890 -0.0822 -0.1089
 7166SOL     OW28435   0.857   1.402   5.810  0.4236 -0.1878 -0.7822
 7166SOL    HW228436   0.930   1.456   5.842 -0.3935 -0.9325  2.7654
 7166SOL    HW328437   0.894   1.352   5.737  2.6872  1.2823 -0.7395
 7166SOL    MW428438   0.872   1.403   5.804  0.6144 -0.0921 -0.3085
 7167SOL     OW28439   0.902   4.725   1.183 -0.3667  0.5727  0.4689
 7167SOL    HW228440   0.961   4.696   1.253  3.6350  1.4690 -2.2058
 7167SOL    HW328441   0.827   4.666   1.189  1.5878 -1.9322  3.0204
 7167SOL    MW428442   0.900   4.714   1.193  0.4191  0.3605  0.4527
 7168SOL     OW28443   5.165   4.825   0.932 -0.1370  0.1407 -0.0277
 7168SOL    HW228444   5.149   4.915   0.904 -0.9103 -0.2912 -1.0342
 7168SOL    HW328445   5.231   4.833   1.001 -1.0519  1.5748  0.7480
 7168SOL    MW428446   5.172   4.838   0.937 -0.3597  0.2729 -0.0582
 7169SOL     OW28447   6.319   0.528   2.333  0.2012  0.0426 -0.2400
 7169SOL    HW228448   6.360   0.571   2.258  0.6536 -0.2084 -0.1468
 7169SOL    HW328449   6.327   0.591   2.405  3.0163 -1.0118  0.5377
 7169SOL    MW428450   6.326   0.542   2.333  0.6323 -0.1296 -0.1251
 7170SOL     OW28451   0.041   5.712   2.710  0.0094  0.5272 -0.3282
 7170SOL    HW228452   0.031   5.630   2.660 -1.7213  0.3082  0.2949
 7170SOL    HW328453   0.123   5.701   2.758  1.8778  0.8337 -3.2065
 7170SOL    MW428454   0.050   5.699   2.710  0.0276  0.5387 -0.6257
 7171SOL     OW28455   1.720   6.060   0.848 -0.6069 -0.3364 -0.1234
 7171SOL    HW228456   1.738   6.134   0.907  0.1214 -0.0759 -0.6578
 7171SOL    HW328457   1.803   6.012   0.844 -1.1295 -1.3117  0.3774
 7171SOL    MW428458   1.733   6.064   0.856 -0.5797 -0.4307 -0.1278
 7172SOL     OW28459   3.832   3.608   1.177  0.1591  0.0752  0.3605
 7172SOL    HW228460   3.831   3.516   1.152  1.4386  0.0222  0.4551
 7172SOL    HW328461   3.798   3.654   1.099  1.8028 -0.2970 -0.6291
 7172SOL    MW428462   3.827   3.602   1.163  0.5447  0.0191  0.2424
 7173SOL     OW28463   0.649   2.276   2.320  0.4945 -0.1381 -0.5934
 7173SOL    HW228464   0.606   2.353   2.356 -1.2751 -2.1464  1.9477
 7173SOL    HW328465   0.743   2.295   2.325  0.1145  2.5216 -1.8863
 7173SOL    MW428466   0.656   2.288   2.325  0.2109 -0.0522 -0.4287
 7174SOL     OW28467   5.717   1.571   1.373  0.6279  0.1406 -0.4327
 7174SOL    HW228468   5.639   1.537   1.418  0.5924 -2.1835 -2.0770
 7174SOL    HW328469   5.756   1.631   1.436 -1.5786  0.0949  1.0966
 7174SOL    MW428470   5.712   1.574   1.387  0.3321 -0.1721 -0.4479
 7175SOL     OW28471   0.886   5.074   1.740 -0.3980 -0.0470 -0.1430
 7175SOL    HW228472   0.903   4.999   1.797 -0.1137 -0.0078 -0.1773
 7175SOL    HW328473   0.792   5.091   1.751 -0.2867  0.1624  0.5690
 7175SOL    MW428474   0.875   5.066   1.749 -0.3458 -0.0142 -0.0536
 7176SOL     OW28475   3.163   4.687   5.551  0.0010 -0.3934 -0.3987
 7176SOL    HW228476   3.198   4.753   5.611  0.7375  0.0803 -1.3191
 7176SOL    HW328477   3.084   4.656   5.594  0.9970 -0.7581  1.2690
 7176SOL    MW428478   3.157   4.692   5.565  0.2296 -0.3790 -0.3001
 7177SOL     OW28479   5.318   5.750   4.497  0.5009  0.2496 -0.7528
 7177SOL    HW228480   5.349   5.714   4.414 -0.9277  1.0568 -1.6995
 7177SOL    HW328481   5.244   5.695   4.521  1.2764 -0.3541  0.3412
 7177SOL    MW428482   5.312   5.738   4.489  0.4148  0.2765 -0.7333
 7178SOL     OW28483   2.316   1.585   0.722 -0.2035 -0.4880 -0.3708
 7178SOL    HW228484   2.271   1.653   0.671 -3.2333 -1.2508  1.0659
 7178SOL    HW328485   2.260   1.507   0.712  0.4493 -1.3514  2.0407
 7178SOL    MW428486   2.302   1.584   0.714 -0.5171 -0.7026  0.1369
 7179SOL     OW28487   3.097   2.601   3.694  0.2015 -0.0383 -0.0234
 7179SOL    HW228488   3.190   2.578   3.688  0.2493  0.3863 -1.3708
 7179SOL    HW328489   3.053   2.519   3.714  0.9850  0.0325  2.3192
 7179SOL    MW428490   3.104   2.588   3.696  0.3112  0.0271  0.1079
 7180SOL     OW28491   3.030   6.269   5.724  0.5108 -0.0899  0.1311
 7180SOL    HW228492   2.942   6.301   5.745  0.8038  0.0849  1.1400
 7180SOL    HW328493   3.032   6.179   5.756  0.9576  0.1765  0.8997
 7180SOL    MW428494   3.019   6.261   5.731  0.6084 -0.0317  0.3656
 7181SOL     OW28495   4.077   2.714   5.181 -0.5649 -0.2028 -0.0931
 7181SOL    HW228496   4.038   2.644   5.234 -2.4562  0.1683 -0.8894
 7181SOL    HW328497   4.135   2.668   5.120 -2.9085 -1.3830 -1.6271
 7181SOL    MW428498   4.079   2.699   5.180 -1.1237 -0.3095 -0.4006
 7182SOL     OW28499   1.080   4.958   5.890 -0.0553 -0.0532 -0.0668
 7182SOL    HW228500   0.987   4.945   5.874 -0.1209  1.6042 -1.2834
 7182SOL    HW328501   1.118   4.871   5.882 -0.9312 -0.2530 -3.7533
 7182SOL    MW428502   1.073   4.945   5.887 -0.1795  0.1391 -0.7137
 7183SOL     OW28503   0.699   1.200   5.990  0.5561  0.1300 -0.2949
 7183SOL    HW228504   0.784   1.214   6.030  0.9789  0.8949 -1.4259
 7183SOL    HW328505   0.680   1.281   5.943 -1.2924  0.3952  0.7766
 7183SOL    MW428506   0.708   1.212   5.989  0.3680  0.2659 -0.3028
 7184SOL     OW28507   4.397   1.066   5.313  0.3654  0.3406  0.2765
 7184SOL    HW228508   4.394   1.039   5.221 -0.1775  0.0212  0.3814
 7184SOL    HW328509   4.330   1.134   5.320  0.4878  0.4495  0.4127
 7184SOL    MW428510   4.388   1.072   5.302  0.3099  0.3128  0.3083
 7185SOL     OW28511   0.083   1.214   4.198 -0.3493 -0.2190 -0.0984
 7185SOL    HW228512   0.052   1.150   4.134  0.1698 -0.7069  0.1294
 7185SOL    HW328513   0.124   1.282   4.146 -2.3450  0.7801 -0.4588
 7185SOL    MW428514   0.085   1.214   4.183 -0.5441 -0.1515 -0.1159
 7186SOL     OW28515   3.712   2.977   1.711 -0.0922 -0.2136  0.2286
 7186SOL    HW228516   3.621   2.991   1.686 -0.2416 -0.4944  0.5994
 7186SOL    HW328517   3.710   2.973   1.807  0.3812  0.2651  0.2662
 7186SOL    MW428518   3.700   2.979   1.720 -0.0495 -0.1875  0.2825
 7187SOL     OW28519   0.575   5.064   2.394 -0.3707  0.0232 -0.4135
 7187SOL    HW228520   0.641   5.026   2.451  0.2629  0.5335 -0.7785
 7187SOL    HW328521   0.532   5.130   2.448  0.2249  0.5035 -0.5083
 7187SOL    MW428522   0.578   5.068   2.408 -0.2085  0.1539 -0.4741
 7188SOL     OW28523   2.162   4.482   4.770 -0.4672 -0.1732  0.1218
 7188SOL    HW228524   2.188   4.571   4.794 -0.6113  0.1851 -1.0306
 7188SOL    HW328525   2.068   4.480   4.785 -0.3925 -0.2924  0.6090
 7188SOL    MW428526   2.153   4.493   4.775 -0.4764 -0.1416  0.0340
 7189SOL     OW28527   5.980   0.964   2.958  0.3200 -0.5130 -0.1025
 7189SOL    HW228528   5.963   0.872   2.979  0.3461  0.0583  2.7904
 7189SOL    HW328529   5.908   1.011   3.000  0.3607  0.8259 -1.4732
 7189SOL    MW428530   5.968   0.958   2.966  0.3288 -0.2610  0.0983
 7190SOL     OW28531   5.253   0.391   0.106 -0.0995 -0.3998  0.0891
 7190SOL    HW228532   5.304   0.343   0.171  1.9763  2.0993  0.4630
 7190SOL    HW328533   5.169   0.409   0.149  0.6888 -0.0816  1.5568
 7190SOL    MW428534   5.248   0.387   0.120  0.2784 -0.0281  0.3321
 7191SOL     OW28535   0.551   4.663   5.355 -0.1613  0.2670  0.2741
 7191SOL    HW228536   0.597   4.580   5.343  2.4974  1.4378  1.5119
 7191SOL    HW328537   0.461   4.638   5.376  0.1322 -2.2083 -1.0488
 7191SOL    MW428538   0.545   4.648   5.356  0.2282  0.0949  0.2629
 7192SOL     OW28539   0.072   5.010   1.557  0.1311 -0.0378 -0.8000
 7192SOL    HW228540   0.022   5.024   1.637  0.1903 -0.1219 -0.7490
 7192SOL    HW328541   0.158   4.978   1.586 -0.2248 -1.1576 -0.9464
 7192SOL    MW428542   0.077   5.008   1.571  0.0920 -0.1966 -0.8126
 7193SOL     OW28543   4.722   6.232   5.026  0.5938  0.1427  0.2360
 7193SOL    HW228544   4.675   6.313   5.045  0.3134  0.3851 -1.3392
 7193SOL    HW328545   4.679   6.197   4.947  1.0417 -1.2745  0.5847
 7193SOL    MW428546   4.710   6.238   5.018  0.6159 -0.0123  0.0741
 7194SOL     OW28547   5.334   6.013   3.241  0.1939  0.4170 -0.8221
 7194SOL    HW228548   5.267   6.081   3.228 -1.8291 -1.4733 -0.8315
 7194SOL    HW328549   5.302   5.963   3.316  1.2012 -1.0220 -1.3165
 7194SOL    MW428550   5.321   6.016   3.249  0.0599 -0.0223 -0.8885
 7195SOL     OW28551   0.916   2.956   5.530  0.0892 -0.4854 -0.2864
 7195SOL    HW228552   0.918   2.994   5.618 -1.9095  1.5453 -1.0194
 7195SOL    HW328553   0.915   3.031   5.471 -2.5827 -1.6143 -1.8879
 7195SOL    MW428554   0.916   2.971   5.534 -0.5270 -0.3664 -0.5944
 7196SOL     OW28555   6.110   5.624   0.704  0.2228 -0.0694 -0.4183
 7196SOL    HW228556   6.126   5.530   0.707 -0.5806 -0.2152 -0.4265
 7196SOL    HW328557   6.064   5.644   0.785  1.6004  0.5710  0.2372
 7196SOL    MW428558   6.106   5.614   0.715  0.2985 -0.0042 -0.3329
 7197SOL     OW28559   4.714   1.459   5.426  0.0420  0.6294 -0.0386
 7197SOL    HW228560   4.784   1.433   5.487 -0.0663 -0.2311 -0.2618
 7197SOL    HW328561   4.759   1.475   5.343  0.0457  0.6084 -0.0408
 7197SOL    MW428562   4.729   1.457   5.423  0.0282  0.5131 -0.0684
 7198SOL     OW28563   0.561   4.820   4.248 -0.0283  0.0903 -0.0584
 7198SOL    HW228564   0.473   4.827   4.211  0.2563  0.3208 -0.7119
 7198SOL    HW328565   0.548   4.788   4.337 -0.7738  0.1547 -0.1439
 7198SOL    MW428566   0.548   4.817   4.255 -0.0891  0.1292 -0.1559
 7199SOL     OW28567   4.162   0.605   3.161 -0.4233 -0.0162 -0.4481
 7199SOL    HW228568   4.220   0.662   3.110 -2.3444  0.8353 -1.8455
 7199SOL    HW328569   4.103   0.567   3.096 -2.8657  0.9353  1.0685
 7199SOL    MW428570   4.162   0.608   3.145 -0.9990  0.2217 -0.4323
 7200SOL     OW28571   2.144   5.662   0.513 -0.4220 -0.4971  0.5601
 7200SOL    HW228572   2.113   5.596   0.575 -0.0897 -1.9246 -0.7108
 7200SOL    HW328573   2.221   5.621   0.472  0.8322  1.3767  0.9019
 7200SOL    MW428574   2.150   5.648   0.515 -0.2127 -0.4382  0.4375
 7201SOL     OW28575   4.145   4.871   3.324  0.1679  0.5202 -0.3495
 7201SOL    HW228576   4.093   4.944   3.359 -1.6069 -0.9884  0.3186
 7201SOL    HW328577   4.221   4.867   3.382 -0.4902  0.8772  0.5673
 7201SOL    MW428578   4.148   4.880   3.336 -0.1531  0.3683 -0.1404
 7202SOL     OW28579   4.113   3.303   1.317 -0.4234 -0.1333 -0.7270
 7202SOL    HW228580   4.093   3.312   1.224 -3.1314  0.6606 -0.1769
 7202SOL    HW328581   4.082   3.385   1.356  1.1172 -0.2375  0.8265
 7202SOL    MW428582   4.106   3.315   1.310 -0.5775 -0.0423 -0.4495
 7203SOL     OW28583   5.035   3.250   3.904  0.3563 -0.2431  0.0651
 7203SOL    HW228584   5.025   3.156   3.889 -0.7620 -0.5168  2.0953
 7203SOL    HW328585   4.948   3.286   3.890  0.7244  0.4549 -0.4634
 7203SOL    MW428586   5.022   3.242   3.900  0.2574 -0.1871  0.2633
 7204SOL     OW28587   3.823   5.901   1.006 -0.5065 -0.2002  0.1443
 7204SOL    HW228588   3.878   5.898   1.085 -0.5783 -0.3876  0.1865
 7204SOL    HW328589   3.766   5.825   1.013  0.2336 -0.8491 -0.6346
 7204SOL    MW428590   3.823   5.891   1.017 -0.4183 -0.3105  0.0471
 7205SOL     OW28591   0.390   1.274   1.881  0.4670  0.3822  0.2658
 7205SOL    HW228592   0.442   1.231   1.949  0.1097  0.3305  0.5074
 7205SOL    HW328593   0.353   1.202   1.830  0.4427  0.4162  0.2354
 7205SOL    MW428594   0.392   1.259   1.883  0.4167  0.3799  0.2937
 7206SOL     OW28595   0.409   1.500   2.393 -0.3518 -0.6928  0.5019
 7206SOL    HW228596   0.417   1.529   2.303  1.3786 -0.5452  0.6799
 7206SOL    HW328597   0.344   1.429   2.390 -3.2097  1.7471 -0.2294
 7206SOL    MW428598   0.401   1.495   2.381 -0.5006 -0.3514  0.4289
 7207SOL     OW28599   0.775   6.302   2.612  0.2479  0.2518 -0.1072
 7207SOL    HW228600   0.782   6.208   2.630 -0.2406  0.2647  0.1605
 7207SOL    HW328601   0.865   6.333   2.613  0.4264 -0.2484 -0.3789
 7207SOL    MW428602   0.788   6.293   2.615  0.2070  0.1875 -0.1078
 7208SOL     OW28603   1.992   2.780   6.125 -0.1843 -0.1682 -0.7210
 7208SOL    HW228604   1.966   2.690   6.107 -1.2784  0.5271 -2.9888
 7208SOL    HW328605   2.075   2.773   6.172 -0.5243 -2.3385 -0.3481
 7208SOL    MW428606   1.999   2.767   6.129 -0.3735 -0.3628 -0.9710
 7209SOL     OW28607   0.664   2.984   0.186 -0.0190 -0.3608 -0.0483
 7209SOL    HW228608   0.661   2.893   0.159  0.2035 -0.0548 -1.1694
 7209SOL    HW328609   0.691   2.982   0.278 -0.2699 -1.4260  0.0087
 7209SOL    MW428610   0.667   2.972   0.195 -0.0227 -0.4610 -0.1887
 7210SOL     OW28611   5.901   4.697   3.204 -0.2237 -0.1637 -0.0460
 7210SOL    HW228612   5.984   4.704   3.157 -0.3601 -0.6483 -0.3662
 7210SOL    HW328613   5.888   4.603   3.217 -0.4028 -0.0547  0.5807
 7210SOL    MW428614   5.910   4.686   3.199 -0.2653 -0.2133 -0.0055
 7211SOL     OW28615   4.326   5.027   5.842  0.2740 -0.1455  0.0256
 7211SOL    HW228616   4.371   5.066   5.767  0.1219 -0.4142 -0.2074
 7211SOL    HW328617   4.350   5.083   5.916  0.1148  0.3488 -0.2903
 7211SOL    MW428618   4.335   5.040   5.842  0.2329 -0.1157 -0.0469
 7212SOL     OW28619   3.332   2.518   3.382 -0.2718  0.1592 -0.6215
 7212SOL    HW228620   3.380   2.460   3.442 -0.1912  1.7795  0.9444
 7212SOL    HW328621   3.240   2.495   3.395 -0.2565  0.5086  0.1579
 7212SOL    MW428622   3.326   2.507   3.392 -0.2592  0.4191 -0.3121
 7213SOL     OW28623   0.000   1.162   3.283 -0.1106  0.1542 -0.3450
 7213SOL    HW228624  -0.059   1.225   3.324 -0.5613  0.0364 -0.8097
 7213SOL    HW328625  -0.057   1.099   3.240  0.3494  0.5493 -1.5720
 7213SOL    MW428626  -0.015   1.162   3.283 -0.1094  0.1908 -0.5682
 7214SOL     OW28627   0.727   3.671   5.869  0.0907  0.0090  0.1996
 7214SOL    HW228628   0.809   3.720   5.857 -0.3232  0.2311 -2.3776
 7214SOL    HW328629   0.744   3.586   5.826 -1.4484  0.6332 -1.8023
 7214SOL    MW428630   0.740   3.666   5.861 -0.1670  0.1206 -0.4045
 7215SOL     OW28631   3.602   6.017   5.865  0.3659 -0.5282 -0.6136
 7215SOL    HW228632   3.689   5.990   5.895  0.4729 -1.6079 -1.8277
 7215SOL    HW328633   3.617   6.101   5.821  0.8940 -0.9545 -1.2674
 7215SOL    MW428634   3.615   6.024   5.863  0.4497 -0.7269 -0.8600
 7216SOL     OW28635   3.501   0.723   0.320 -0.0583 -0.4382 -0.0075
 7216SOL    HW228636   3.504   0.656   0.388 -1.9909  0.8997  1.4877
 7216SOL    HW328637   3.550   0.796   0.356 -0.5285  0.0432 -0.3391
 7216SOL    MW428638   3.508   0.724   0.334 -0.3753 -0.1982  0.1460
 7217SOL     OW28639   5.305   5.796   5.432  0.4253  0.2151 -0.2726
 7217SOL    HW228640   5.396   5.767   5.431  0.0359 -1.0331 -0.2030
 7217SOL    HW328641   5.256   5.727   5.388 -0.5434  0.6907  0.0214
 7217SOL    MW428642   5.310   5.783   5.426  0.2461  0.1131 -0.2246
 7218SOL     OW28643   3.133   5.638   3.800 -0.3293  0.1055 -0.0649
 7218SOL    HW228644   3.083   5.692   3.738  0.4229 -1.0033 -1.7359
 7218SOL    HW328645   3.161   5.562   3.748  1.4925 -0.2221  1.2890
 7218SOL    MW428646   3.130   5.635   3.785  0.0103 -0.0840 -0.1068
 7219SOL     OW28647   2.847   3.822   4.534 -0.2002 -0.2549  0.4396
 7219SOL    HW228648   2.841   3.832   4.439  0.8684 -2.5243  0.0674
 7219SOL    HW328649   2.920   3.880   4.559  1.9587 -2.2729 -0.7273
 7219SOL    MW428650   2.856   3.831   4.525  0.2257 -0.8206  0.2366
 7220SOL     OW28651   2.692   5.600   3.757 -0.0020 -0.3147  0.2571
 7220SOL    HW228652   2.597   5.587   3.749 -0.0675  0.8070 -1.4068
 7220SOL    HW328653   2.716   5.646   3.676  2.1760 -1.6733  0.0644
 7220SOL    MW428654   2.683   5.604   3.745  0.2768 -0.3460  0.0121
 7221SOL     OW28655   3.475   1.989   3.220  0.4958 -0.5413 -0.2344
 7221SOL    HW228656   3.429   2.018   3.142 -1.3638 -1.7614  0.3522
 7221SOL    HW328657   3.448   1.898   3.231  1.8233 -0.8157  1.0584
 7221SOL    MW428658   3.466   1.981   3.211  0.4256 -0.7385  0.0136
 7222SOL     OW28659   3.252   4.837   4.891 -0.0634  0.5551 -0.0158
 7222SOL    HW228660   3.287   4.911   4.941 -2.5457  1.2101  0.9198
 7222SOL    HW328661   3.221   4.776   4.957 -0.2144 -0.2063 -0.7758
 7222SOL    MW428662   3.252   4.839   4.906 -0.4108  0.5410  0.0074
 7223SOL     OW28663   3.029   2.710   1.063  0.1642  0.2706  0.3816
 7223SOL    HW228664   3.089   2.646   1.101  0.0355 -0.5141 -0.7157
 7223SOL    HW328665   2.966   2.658   1.013 -0.6786  1.1730  0.4737
 7223SOL    MW428666   3.029   2.695   1.062  0.0360  0.2861  0.2490
 7224SOL     OW28667   5.316   5.688   4.879  0.5709 -0.1321  0.6602
 7224SOL    HW228668   5.302   5.762   4.939  1.0318 -0.2794  0.9545
 7224SOL    HW328669   5.377   5.721   4.813 -2.2538  1.0507 -1.5954
 7224SOL    MW428670   5.322   5.702   4.878  0.2590  0.0045  0.4014
 7225SOL     OW28671   0.037   1.220   6.239  0.4631  0.0648  0.5138
 7225SOL    HW228672   0.127   1.227   6.272  0.3363 -1.1144  1.1640
 7225SOL    HW328673   0.042   1.158   6.166  0.3444  0.8121 -0.1356
 7225SOL    MW428674   0.049   1.213   6.234  0.4307  0.0078  0.5139
 7226SOL     OW28675   2.095   2.798   0.950 -0.1402  0.0030 -0.4094
 7226SOL    HW228676   2.112   2.796   0.856 -0.8747  0.8008 -0.5765
 7226SOL    HW328677   2.014   2.848   0.958 -0.7569 -1.1059  0.5638
 7226SOL    MW428678   2.087   2.805   0.939 -0.3185 -0.0380 -0.3030
 7227SOL     OW28679   1.028   2.541   5.531 -0.4235  0.1373 -0.1550
 7227SOL    HW228680   1.023   2.482   5.606 -1.8682  1.2000  0.6069
 7227SOL    HW328681   1.115   2.581   5.538 -0.9846  1.1387  1.6922
 7227SOL    MW428682   1.039   2.538   5.542 -0.6881  0.4096  0.1892
 7228SOL     OW28683   5.184   0.701   2.556  0.7567  0.2226 -0.7089
 7228SOL    HW228684   5.187   0.760   2.631 -1.5451 -0.3725 -0.0582
 7228SOL    HW328685   5.211   0.616   2.592  3.5709  0.6766 -1.5297
 7228SOL    MW428686   5.188   0.698   2.571  0.8243  0.2040 -0.7313
 7229SOL     OW28687   1.333   1.547   5.524  0.0096 -0.3446  0.0488
 7229SOL    HW228688   1.243   1.557   5.554  0.1824 -0.4589  0.6185
 7229SOL    HW328689   1.353   1.628   5.477  0.1450  0.3721  1.3182
 7229SOL    MW428690   1.324   1.559   5.522  0.0503 -0.2651  0.2914
 7230SOL     OW28691   1.982   0.840   5.754 -0.4346  0.0180 -0.0782
 7230SOL    HW228692   1.977   0.923   5.707  0.2369  0.5139  0.7081
 7230SOL    HW328693   2.046   0.855   5.823 -2.0601 -0.3822  1.6128
 7230SOL    MW428694   1.990   0.853   5.757 -0.5605  0.0307  0.2486
 7231SOL     OW28695   4.952   2.953   2.016  0.0299 -0.3734 -0.0047
 7231SOL    HW228696   4.930   3.016   2.085 -0.4420 -0.6661  0.1194
 7231SOL    HW328697   5.029   2.990   1.974  1.8054 -1.3531  2.1768
 7231SOL    MW428698   4.959   2.966   2.020  0.2019 -0.5413  0.2995
 7232SOL     OW28699   3.709   1.475   4.204  0.1115  0.5622 -0.1638
 7232SOL    HW228700   3.638   1.533   4.178 -1.9004 -1.4194  0.6041
 7232SOL    HW328701   3.733   1.429   4.123  0.2641  0.9616 -0.3481
 7232SOL    MW428702   3.703   1.476   4.190 -0.1338  0.3534 -0.0868
 7233SOL     OW28703   1.811   4.857   1.583 -0.2755  0.5067  0.0715
 7233SOL    HW228704   1.740   4.851   1.647  0.0467  1.1285  0.4980
 7233SOL    HW328705   1.809   4.773   1.537  0.6008 -0.6939  2.0740
 7233SOL    MW428706   1.802   4.845   1.585 -0.1174  0.4304  0.3920
 7234SOL     OW28707   5.296   0.625   4.975 -0.6113  0.0119  0.1102
 7234SOL    HW228708   5.227   0.611   4.911 -0.3812 -0.1590 -0.1025
 7234SOL    HW328709   5.267   0.578   5.053 -0.6647 -0.1815 -0.0260
 7234SOL    MW428710   5.283   0.617   4.977 -0.5880 -0.0362  0.0642
 7235SOL     OW28711   5.645   6.408   2.532  0.1472 -0.1540  0.0895
 7235SOL    HW228712   5.690   6.340   2.483 -1.2305 -1.5468  0.6721
 7235SOL    HW328713   5.553   6.401   2.506 -0.4830 -0.3809  2.1820
 7235SOL    MW428714   5.639   6.398   2.522 -0.1177 -0.3677  0.4424
 7236SOL     OW28715   2.034   1.804   6.212 -0.2977  0.0936  0.6138
 7236SOL    HW228716   1.993   1.730   6.167  0.7701 -0.1598  0.0158
 7236SOL    HW328717   2.115   1.768   6.250  1.0437  1.2371 -0.9834
 7236SOL    MW428718   2.040   1.790   6.211  0.0202  0.2110  0.3242
 7237SOL     OW28719   0.855   5.354   0.853  0.4296 -0.0565  0.2896
 7237SOL    HW228720   0.844   5.449   0.850  1.3342  0.0569  0.3674
 7237SOL    HW328721   0.861   5.327   0.761 -0.9289 -0.1865  0.2210
 7237SOL    MW428722   0.855   5.363   0.840  0.3697 -0.0587  0.2909
 7238SOL     OW28723   6.006   5.166   4.909  0.2263 -0.3821  0.4948
 7238SOL    HW228724   5.922   5.168   4.862  0.4467 -0.7628  0.0871
 7238SOL    HW328725   5.990   5.107   4.983 -0.0565  0.0533  0.7913
 7238SOL    MW428726   5.993   5.159   4.912  0.2181 -0.3749  0.4801
 7239SOL     OW28727   3.500   4.462   5.023  0.1291  0.3722 -0.1440
 7239SOL    HW228728   3.447   4.507   5.090  2.7567  1.6402  1.2162
 7239SOL    HW328729   3.452   4.477   4.941 -0.8605  2.7938  0.7752
 7239SOL    MW428730   3.486   4.470   5.021  0.3452  0.8590  0.1567
 7240SOL     OW28731   2.501   3.660   4.950  0.5999  0.0645  0.4652
 7240SOL    HW228732   2.560   3.591   4.922 -1.0839 -0.6200 -1.6143
 7240SOL    HW328733   2.556   3.738   4.955  1.8769 -0.7536 -0.3192
 7240SOL    MW428734   2.516   3.661   4.947  0.5463 -0.1338  0.0873
 7241SOL     OW28735   2.805   3.549   3.821 -0.2430  0.7895 -0.4550
 7241SOL    HW228736   2.738   3.550   3.889  0.1664  0.0830 -0.0309
 7241SOL    HW328737   2.848   3.635   3.828  0.7390  0.2180  1.1449
 7241SOL    MW428738   2.802   3.561   3.831 -0.0594  0.6209 -0.1880
 7242SOL     OW28739   4.674   0.675   0.050 -0.1830  0.1792 -0.6980
 7242SOL    HW228740   4.645   0.672  -0.042 -1.1019  0.3758 -0.4279
 7242SOL    HW328741   4.634   0.598   0.090 -0.6649  0.6692 -0.2212
 7242SOL    MW428742   4.665   0.665   0.043 -0.3678  0.2698 -0.5994
 7243SOL     OW28743   0.202   1.806   5.718  0.5282  0.4927 -0.4741
 7243SOL    HW228744   0.129   1.862   5.744 -1.0416 -0.7832 -1.9380
 7243SOL    HW328745   0.221   1.754   5.796 -1.9164 -0.9783 -0.7625
 7243SOL    MW428746   0.195   1.806   5.732 -0.0014  0.1303 -0.7053
 7244SOL     OW28747   5.294   2.847   2.995 -0.3818  0.1155  0.1559
 7244SOL    HW228748   5.372   2.892   2.961  0.2197 -0.2201  1.0391
 7244SOL    HW328749   5.220   2.894   2.958  0.2354  1.4740  0.6078
 7244SOL    MW428750   5.295   2.859   2.985 -0.2210  0.2504  0.3320
 7245SOL     OW28751   1.601   5.487   2.350  0.1340 -0.0021 -0.0541
 7245SOL    HW228752   1.682   5.526   2.318 -0.3863  0.9413 -0.2737
 7245SOL    HW328753   1.538   5.502   2.279 -0.3495 -0.3104  0.3025
 7245SOL    MW428754   1.603   5.494   2.336  0.0016  0.0817 -0.0360
 7246SOL     OW28755   3.220   2.864   0.881  0.0665  0.1332 -0.0445
 7246SOL    HW228756   3.298   2.809   0.890  0.9070  1.3658  0.4598
 7246SOL    HW328757   3.152   2.817   0.929  1.2758  0.4758  2.1336
 7246SOL    MW428758   3.221   2.850   0.888  0.3369  0.3410  0.3094
 7247SOL     OW28759   1.717   4.980   1.933  0.0626  0.3129  0.0258
 7247SOL    HW228760   1.693   4.926   2.009  0.2641  2.9921  2.1250
 7247SOL    HW328761   1.813   4.985   1.937  0.0625  0.6159 -0.3016
 7247SOL    MW428762   1.727   4.973   1.944  0.0892  0.7064  0.2596
 7248SOL     OW28763   5.394   6.354   2.142  0.9545  0.5461 -0.1026
 7248SOL    HW228764   5.420   6.335   2.232  1.2783  0.7058 -0.1617
 7248SOL    HW328765   5.337   6.281   2.118  1.1873  0.2977  0.0947
 7248SOL    MW428766   5.390   6.342   2.151  1.0279  0.5344 -0.0843
 7249SOL     OW28767   2.556   2.741   5.385 -0.7166  0.0252 -0.0904
 7249SOL    HW228768   2.502   2.820   5.394 -2.7415 -1.4994  2.3848
 7249SOL    HW328769   2.497   2.677   5.344  0.3958 -0.7015 -0.5938
 7249SOL    MW428770   2.541   2.743   5.380 -0.8370 -0.2718  0.1698
 7250SOL     OW28771   2.553   0.461   0.204  0.5168 -1.0101  0.4609
 7250SOL    HW228772   2.575   0.535   0.147 -0.6280 -1.2392 -0.3149
 7250SOL    HW328773   2.634   0.410   0.209  1.4013  0.3831  1.2018
 7250SOL    MW428774   2.567   0.464   0.197  0.4825 -0.8565  0.4563
 7251SOL     OW28775   6.156   2.982   3.828  0.1470 -0.5847  0.1792
 7251SOL    HW228776   6.188   3.037   3.757 -0.1314 -0.6051  0.0389
 7251SOL    HW328777   6.154   3.040   3.905 -2.0900  0.1823 -0.3911
 7251SOL    MW428778   6.160   2.997   3.829 -0.1849 -0.4862  0.0854
 7252SOL     OW28779   0.627   0.225   6.349 -0.2501  0.5757 -0.0103
 7252SOL    HW228780   0.669   0.304   6.317  0.8147  0.0166 -0.0546
 7252SOL    HW328781   0.535   0.247   6.356 -0.2211  1.3153 -1.6083
 7252SOL    MW428782   0.621   0.238   6.346 -0.1058  0.5995 -0.2270
 7253SOL     OW28783   6.330   4.298   0.401  0.8846 -0.2039 -0.3207
 7253SOL    HW228784   6.324   4.203   0.394 -0.2641 -0.2402  0.9437
 7253SOL    HW328785   6.253   4.331   0.355  0.3302  0.0317  0.7483
 7253SOL    MW428786   6.319   4.290   0.394  0.6599 -0.1776 -0.0129
 7254SOL     OW28787   2.989   0.174   1.747 -1.0739 -0.1814  0.4154
 7254SOL    HW228788   3.010   0.248   1.690  0.0291 -1.5571 -1.0270
 7254SOL    HW328789   3.006   0.096   1.694  0.6877 -1.5458  2.7919
 7254SOL    MW428790   2.994   0.174   1.733 -0.6960 -0.5429  0.5387
 7255SOL     OW28791   2.925   3.780   2.483 -0.6210  0.0846  0.1660
 7255SOL    HW228792   2.965   3.700   2.519 -0.9646 -0.5236 -0.7653
 7255SOL    HW328793   2.842   3.788   2.530 -0.6399 -0.1822  0.1835
 7255SOL    MW428794   2.920   3.770   2.494 -0.6688 -0.0308  0.0454
 7256SOL     OW28795   1.179   5.183   5.151 -0.0281 -0.1696 -0.1251
 7256SOL    HW228796   1.257   5.236   5.134 -1.1975  1.0972 -1.8327
 7256SOL    HW328797   1.109   5.247   5.167 -0.8296 -1.2655  1.0429
 7256SOL    MW428798   1.180   5.199   5.151 -0.2881 -0.1471 -0.1963
 7257SOL     OW28799   1.910   0.955   3.442 -0.4098  0.1259 -0.4167
 7257SOL    HW228800   1.852   1.030   3.455 -1.1379 -0.5967  0.6562
 7257SOL    HW328801   1.959   0.949   3.524 -0.5467 -0.7303 -0.3922
 7257SOL    MW428802   1.909   0.964   3.455 -0.5239 -0.0824 -0.2719
 7258SOL     OW28803   1.368   4.134   1.887  0.3386 -0.5382 -0.1274
 7258SOL    HW228804   1.340   4.095   1.803  1.7748 -0.9416 -0.4558
 7258SOL    HW328805   1.448   4.181   1.865 -0.1146  0.6643  0.7428
 7258SOL    MW428806   1.375   4.135   1.873  0.4683 -0.4328 -0.0559
 7259SOL     OW28807   3.528   5.503   5.035 -0.4919 -0.5834  0.0793
 7259SOL    HW228808   3.590   5.436   5.066 -0.3731 -0.8270 -0.6540
 7259SOL    HW328809   3.455   5.453   5.000 -1.8425 -0.2929  2.2890
 7259SOL    MW428810   3.527   5.487   5.035 -0.6544 -0.5772  0.2741
 7260SOL     OW28811   2.285   3.199   1.197 -0.4115 -0.1369 -0.3112
 7260SOL    HW228812   2.348   3.211   1.126 -0.1950 -1.3372 -0.3410
 7260SOL    HW328813   2.247   3.286   1.210 -1.5817 -0.1419 -2.9545
 7260SOL    MW428814   2.288   3.212   1.189 -0.5374 -0.2959 -0.6639
 7261SOL     OW28815   0.134   5.549   4.973  0.5471  0.2098 -0.0722
 7261SOL    HW228816   0.122   5.611   4.901 -2.1663  1.1051  1.0106
 7261SOL    HW328817   0.087   5.470   4.945  1.1618 -0.1551 -0.0845
 7261SOL    MW428818   0.126   5.547   4.960  0.2702  0.2798  0.0690
 7262SOL     OW28819   1.814   2.870   2.014  0.1847  0.0905  0.5156
 7262SOL    HW228820   1.863   2.829   1.943  0.5318  0.2130  0.6848
 7262SOL    HW328821   1.729   2.893   1.975  0.2740 -0.0895  0.2163
 7262SOL    MW428822   1.809   2.868   2.000  0.2423  0.0829  0.4984
 7263SOL     OW28823   4.808   1.328   3.034 -0.1394  0.4542  0.0925
 7263SOL    HW228824   4.725   1.316   3.080 -0.2490  0.8234 -0.0025
 7263SOL    HW328825   4.827   1.243   2.995  1.3723 -0.7362  3.1146
 7263SOL    MW428826   4.799   1.315   3.035  0.0456  0.3458  0.4787
 7264SOL     OW28827   1.161   1.769   0.896  0.0361 -0.2049  0.5024
 7264SOL    HW228828   1.154   1.776   0.991  0.3082  0.4153  0.4846
 7264SOL    HW328829   1.253   1.783   0.877 -0.0086 -0.3608  0.1489
 7264SOL    MW428830   1.172   1.772   0.906  0.0661 -0.1436  0.4534
 7265SOL     OW28831   5.170   0.090   4.631  0.5436  0.9125  0.0499
 7265SOL    HW228832   5.168   0.136   4.547 -0.4721  1.3307  0.2811
 7265SOL    HW328833   5.116   0.145   4.689  1.2384  0.6331  0.9763
 7265SOL    MW428834   5.162   0.104   4.628  0.5013  0.9308  0.2026
 7266SOL     OW28835   0.529   4.063   3.845 -0.1389 -0.0555 -0.7155
 7266SOL    HW228836   0.446   4.090   3.806 -0.0090 -0.0426 -0.9862
 7266SOL    HW328837   0.566   4.144   3.882 -0.1073 -0.0039 -0.8584
 7266SOL    MW428838   0.523   4.077   3.845 -0.1176 -0.0470 -0.7701
 7267SOL     OW28839   5.311   5.497   2.467  0.5737 -0.1017 -0.7915
 7267SOL    HW228840   5.400   5.485   2.501  0.3037 -0.7612 -0.2989
 7267SOL    HW328841   5.305   5.591   2.451  1.2491  0.0006 -0.5175
 7267SOL    MW428842   5.322   5.508   2.469  0.6271 -0.1752 -0.6904
 7268SOL     OW28843   4.481   5.214   4.084  0.3606 -0.9100  0.7366
 7268SOL    HW228844   4.566   5.176   4.106  0.2713 -1.4813  0.1182
 7268SOL    HW328845   4.484   5.226   3.989  0.1593  0.0862  0.8392
 7268SOL    MW428846   4.493   5.211   4.075  0.3223 -0.8540  0.6685
 7269SOL     OW28847   5.103   2.370   3.569 -0.0115  0.2445 -0.3401
 7269SOL    HW228848   5.041   2.335   3.505  0.3413  0.3816 -0.7692
 7269SOL    HW328849   5.185   2.326   3.548  0.5587  1.6219 -1.1790
 7269SOL    MW428850   5.106   2.360   3.558  0.1103  0.4443 -0.5074
 7270SOL     OW28851   5.635   3.500   2.106  0.2051  0.0273 -0.0001
 7270SOL    HW228852   5.725   3.525   2.087  0.2232  1.3233  1.6339
 7270SOL    HW328853   5.594   3.494   2.019  1.7895 -0.4508 -0.7687
 7270SOL    MW428854   5.641   3.502   2.092  0.4165  0.1352  0.1140
 7271SOL     OW28855   1.306   1.114   4.955  0.1443 -0.6195  0.5503
 7271SOL    HW228856   1.381   1.172   4.966  0.0693 -0.2950 -0.5376
 7271SOL    HW328857   1.244   1.140   5.024 -0.4337  1.4697 -0.6759
 7271SOL    MW428858   1.308   1.125   4.966  0.0581 -0.3011  0.2450
 7272SOL     OW28859   1.124   3.284   5.640  0.0043 -0.0158  0.1350
 7272SOL    HW228860   1.098   3.355   5.699  1.4802 -0.4217  1.3464
 7272SOL    HW328861   1.082   3.206   5.677 -0.1520 -0.0574 -0.1316
 7272SOL    MW428862   1.115   3.283   5.653  0.1784 -0.0748  0.2596
 7273SOL     OW28863   2.485   2.494   2.666 -0.6082 -0.0976  0.1624
 7273SOL    HW228864   2.571   2.495   2.708 -1.7256 -0.8711  2.6323
 7273SOL    HW328865   2.462   2.587   2.657  0.4558  0.1170 -0.5492
 7273SOL    MW428866   2.493   2.506   2.670 -0.6152 -0.1714  0.3944
 7274SOL     OW28867   4.479   3.472   1.682  0.3805  0.2057 -0.0518
 7274SOL    HW228868   4.488   3.377   1.683  1.9270  0.2642 -2.3735
 7274SOL    HW328869   4.388   3.487   1.655 -0.2053 -0.5623  1.3979
 7274SOL    MW428870   4.468   3.461   1.679  0.5072  0.1121 -0.1669
 7275SOL     OW28871   0.291   3.637   2.543  0.0354  0.2859  0.1466
 7275SOL    HW228872   0.343   3.583   2.603 -1.3635 -1.5060 -0.1603
 7275SOL    HW328873   0.324   3.616   2.456  0.8486  1.5136  0.1385
 7275SOL    MW428874   0.302   3.627   2.540 -0.0419  0.2114  0.1050
 7276SOL     OW28875   4.093   6.027   5.836  0.5420 -0.2280 -0.0805
 7276SOL    HW228876   4.086   6.098   5.772  0.6432  0.2373  0.4187
 7276SOL    HW328877   4.146   6.064   5.907  0.3942 -0.7228  0.2914
 7276SOL    MW428878   4.099   6.041   5.837  0.5359 -0.2319  0.0344
 7277SOL     OW28879   3.359   0.281   4.524  0.1106 -0.1489 -0.1460
 7277SOL    HW228880   3.280   0.300   4.472  0.0283 -0.7027 -0.2252
 7277SOL    HW328881   3.360   0.186   4.533 -0.3468 -0.0071  1.6340
 7277SOL    MW428882   3.349   0.271   4.518  0.0394 -0.2032  0.0784
 7278SOL     OW28883   2.680   2.740   2.781  0.0565  0.2701  0.2415
 7278SOL    HW228884   2.721   2.658   2.755 -1.0066 -0.9204  2.0764
 7278SOL    HW328885   2.614   2.757   2.713  1.2082  0.3573 -0.8734
 7278SOL    MW428886   2.676   2.731   2.769  0.0682  0.1245  0.3365
 7279SOL     OW28887   0.320   0.409   5.833 -0.2114  0.2080 -0.2568
 7279SOL    HW228888   0.365   0.375   5.756 -0.1110 -1.0846  0.3527
 7279SOL    HW328889   0.280   0.333   5.874  0.4835  0.7191  1.4632
 7279SOL    MW428890   0.321   0.395   5.828 -0.1065  0.1049  0.0506
 7280SOL     OW28891   4.159   4.173   2.333  0.1591  0.2802 -0.1490
 7280SOL    HW228892   4.152   4.078   2.344 -0.9434  0.4048  0.3487
 7280SOL    HW328893   4.252   4.192   2.347  0.8449 -0.9857 -2.4937
 7280SOL    MW428894   4.171   4.163   2.336  0.1041  0.1296 -0.3927
 7281SOL     OW28895   6.364   4.704   4.641 -0.4402  0.0303 -0.5256
 7281SOL    HW228896   6.304   4.737   4.574 -2.4329 -2.2217  0.0037
 7281SOL    HW328897   6.424   4.647   4.592 -1.3340 -0.9057 -0.5848
 7281SOL    MW428898   6.364   4.701   4.625 -0.8210 -0.3903 -0.4636
 7282SOL     OW28899   0.260   0.341   2.635  0.0837  0.1520  0.3757
 7282SOL    HW228900   0.320   0.347   2.709 -2.0524 -0.5772  2.2969
 7282SOL    HW328901   0.238   0.248   2.631  0.4263  0.1240 -1.4463
 7282SOL    MW428902   0.265   0.329   2.644 -0.1529  0.0521  0.3888
 7283SOL     OW28903   1.333   5.534   5.572 -0.2898  0.0134 -0.4297
 7283SOL    HW228904   1.303   5.618   5.605 -0.4056  0.2137 -1.0302
 7283SOL    HW328905   1.315   5.472   5.643 -2.6845  0.0170 -0.9482
 7283SOL    MW428906   1.326   5.537   5.586 -0.6211  0.0403 -0.5773
 7284SOL     OW28907   2.563   3.448   0.924 -0.0103  0.1915 -0.1556
 7284SOL    HW228908   2.656   3.427   0.919  0.0888  0.4960  0.3889
 7284SOL    HW328909   2.520   3.364   0.937  0.2148  0.0932 -0.0503
 7284SOL    MW428910   2.569   3.434   0.925  0.0325  0.2187 -0.0699
 7285SOL     OW28911   4.837   2.164   4.182 -0.1996  0.6161  0.0127
 7285SOL    HW228912   4.807   2.193   4.268  1.0315  0.9473  0.3551
 7285SOL    HW328913   4.775   2.204   4.121 -2.0175 -0.8808  0.7844
 7285SOL    MW428914   4.825   2.173   4.185 -0.2770  0.4623  0.1597
 7286SOL     OW28915   0.181   1.688   4.168 -0.0409 -0.2665  1.0371
 7286SOL    HW228916   0.258   1.631   4.177  0.4576 -0.1977 -1.7876
 7286SOL    HW328917   0.216   1.776   4.178  0.4915 -0.1877 -1.0579
 7286SOL    MW428918   0.196   1.692   4.170  0.0951 -0.2470  0.3880
 7287SOL     OW28919   4.000   5.607   6.034  0.1675 -0.8951  0.6816
 7287SOL    HW228920   4.062   5.648   5.974  0.4671  0.4720  1.8773
 7287SOL    HW328921   4.010   5.513   6.018  0.0754 -0.5816 -1.5272
 7287SOL    MW428922   4.010   5.600   6.024  0.1949 -0.6733  0.5479
 7288SOL     OW28923   4.337   2.151   4.648 -0.1786  0.0547  0.5033
 7288SOL    HW228924   4.381   2.098   4.715  0.5075 -0.9711 -0.7202
 7288SOL    HW328925   4.277   2.091   4.605 -0.9396  0.8197  0.4750
 7288SOL    MW428926   4.335   2.136   4.651 -0.1885  0.0203  0.3382
 7289SOL     OW28927   2.756   2.968   3.740  0.2182  0.1781 -0.2512
 7289SOL    HW228928   2.817   2.903   3.775  0.4035  0.8025  0.6237
 7289SOL    HW328929   2.778   2.974   3.647 -1.5787 -2.9372 -1.0097
 7289SOL    MW428930   2.767   2.960   3.732  0.0055 -0.1505 -0.2359
 7290SOL     OW28931   3.666   4.346   4.395 -0.2956 -0.6841  0.0472
 7290SOL    HW228932   3.676   4.269   4.340  1.0998 -1.4568  1.2913
 7290SOL    HW328933   3.682   4.313   4.484  2.4534  1.3664  0.4361
 7290SOL    MW428934   3.669   4.331   4.400  0.2512 -0.5155  0.2626
 7291SOL     OW28935   1.608   2.018   4.175 -0.4695 -0.5080 -0.0246
 7291SOL    HW228936   1.680   1.956   4.183  0.7235  0.8157 -0.1224
 7291SOL    HW328937   1.591   2.024   4.081 -0.9970 -1.1038  0.0212
 7291SOL    MW428938   1.615   2.011   4.164 -0.3817 -0.4120 -0.0315
 7292SOL     OW28939   0.886   4.545   4.513  0.0819  0.0225 -0.4274
 7292SOL    HW228940   0.939   4.568   4.589 -0.1038  0.1980 -0.3513
 7292SOL    HW328941   0.868   4.452   4.523  0.5615 -0.0897 -0.5677
 7292SOL    MW428942   0.891   4.536   4.524  0.1207  0.0308 -0.4359
 7293SOL     OW28943   5.207   0.751   2.031  0.1225  0.4927  0.1629
 7293SOL    HW228944   5.235   0.667   1.995 -0.2407 -0.1482  1.3108
 7293SOL    HW328945   5.154   0.727   2.108 -1.9570  1.7145 -0.8236
 7293SOL    MW428946   5.204   0.736   2.037 -0.1998  0.5693  0.1842
 7294SOL     OW28947   4.611   5.325   4.422 -0.5265 -0.0016  0.4733
 7294SOL    HW228948   4.587   5.233   4.429  0.1084 -0.0725  1.7680
 7294SOL    HW328949   4.626   5.354   4.512 -0.2962  1.2568  0.0537
 7294SOL    MW428950   4.609   5.317   4.434 -0.4123  0.1550  0.5888
 7295SOL     OW28951   3.345   3.081   3.740 -0.3497 -0.1502  0.0569
 7295SOL    HW228952   3.406   3.153   3.758 -0.0906 -0.0793 -1.0119
 7295SOL    HW328953   3.278   3.088   3.808  1.5257 -1.0659  2.1127
 7295SOL    MW428954   3.344   3.091   3.751 -0.0681 -0.2617  0.1872
 7296SOL     OW28955   4.959   1.281   1.506  0.9463 -0.1661 -0.0208
 7296SOL    HW228956   4.961   1.311   1.597 -2.6688 -2.1539  0.9106
 7296SOL    HW328957   4.993   1.192   1.509 -0.0554 -0.5689 -0.4398
 7296SOL    MW428958   4.964   1.273   1.518  0.3372 -0.4815  0.0468
 7297SOL     OW28959   6.087   5.834   5.829  0.0673  0.0965  0.0196
 7297SOL    HW228960   6.070   5.924   5.857 -0.8875  0.0253 -0.2804
 7297SOL    HW328961   6.147   5.799   5.894  1.8525  1.4791 -0.8137
 7297SOL    MW428962   6.093   5.841   5.841  0.1769  0.2695 -0.1299
 7298SOL     OW28963   0.816   6.317   5.900 -0.3068  0.0535 -0.8912
 7298SOL    HW228964   0.720   6.319   5.895 -0.2995  2.1152 -1.1757
 7298SOL    HW328965   0.841   6.409   5.904  1.5934 -0.4815  0.9501
 7298SOL    MW428966   0.806   6.330   5.900 -0.0551  0.2550 -0.6858
 7299SOL     OW28967   2.451   0.971   3.972  0.5915 -0.1727  0.6523
 7299SOL    HW228968   2.480   1.061   3.982  0.5193 -0.1749  0.8810
 7299SOL    HW328969   2.510   0.920   4.027 -0.9242  0.0145  2.5803
 7299SOL    MW428970   2.463   0.976   3.980  0.3820 -0.1483  0.9369
 7300SOL     OW28971   1.019   1.254   0.977 -0.0397  0.3024  0.1637
 7300SOL    HW228972   1.061   1.196   0.913  2.7234  0.9831  1.2319
 7300SOL    HW328973   1.019   1.340   0.935 -4.0531 -0.2010 -1.3789
 7300SOL    MW428974   1.025   1.258   0.963 -0.2046  0.3258  0.1011
 7301SOL     OW28975   0.733   1.330   0.026 -0.2121  0.0776  0.9993
 7301SOL    HW228976   0.694   1.296   0.107  0.9897 -1.2065  1.0724
 7301SOL    HW328977   0.679   1.292  -0.044 -0.4421  0.1098  1.1579
 7301SOL    MW428978   0.720   1.321   0.027 -0.0839 -0.0876  1.0298
 7302SOL     OW28979   2.646   1.284   4.243  0.0492 -0.5106 -0.6558
 7302SOL    HW228980   2.669   1.228   4.317  0.5462 -0.1140 -0.5094
 7302SOL    HW328981   2.628   1.369   4.282 -0.4941 -0.5097 -0.9024
 7302SOL    MW428982   2.647   1.288   4.258  0.0431 -0.4581 -0.6690
 7303SOL     OW28983   6.376   1.724   2.019  0.6334 -0.0737 -0.1727
 7303SOL    HW228984   6.402   1.726   2.111 -1.7213 -0.6379  0.5784
 7303SOL    HW328985   6.291   1.768   2.017  1.3416  1.3307 -2.3657
 7303SOL    MW428986   6.368   1.730   2.031  0.4162  0.0371 -0.3630
 7304SOL     OW28987   2.572   3.335   2.516 -0.4313  0.0087 -0.0492
 7304SOL    HW228988   2.530   3.339   2.602 -0.2483  1.1036  0.0054
 7304SOL    HW328989   2.555   3.421   2.477 -1.3891 -0.8173 -1.5416
 7304SOL    MW428990   2.564   3.347   2.522 -0.5335  0.0442 -0.2389
 7305SOL     OW28991   0.747   0.968   2.185 -0.4152 -0.1763  0.1253
 7305SOL    HW228992   0.719   0.877   2.186 -1.3841  0.0856 -0.7876
 7305SOL    HW328993   0.697   1.010   2.254 -0.8304 -0.1120 -0.2093
 7305SOL    MW428994   0.737   0.962   2.194 -0.5978 -0.1332 -0.0393
 7306SOL     OW28995   2.060   5.284   3.276 -0.1020  0.6019 -0.1577
 7306SOL    HW228996   2.146   5.300   3.317 -0.0849  0.3964 -0.1137
 7306SOL    HW328997   2.005   5.356   3.308 -0.1278  0.3611  0.3438
 7306SOL    MW428998   2.064   5.296   3.286 -0.1031  0.5430 -0.0857
 7307SOL     OW28999   2.585   5.521   5.763 -0.1095 -0.2408  0.8968
 7307SOL    HW229000   2.603   5.447   5.821  0.9715 -0.4653  0.2902
 7307SOL    HW329001   2.489   5.526   5.761 -0.1945 -1.3412  1.3089
 7307SOL    MW429002   2.574   5.512   5.770  0.0219 -0.4156  0.8712
 7308SOL     OW29003   4.458   5.702   0.979  0.0311 -0.1253 -0.3187
 7308SOL    HW229004   4.401   5.751   1.038  0.2528 -1.4461  1.0533
 7308SOL    HW329005   4.545   5.711   1.017  0.2762 -0.5350 -0.7710
 7308SOL    MW429006   4.462   5.710   0.992  0.0927 -0.3536 -0.1973
 7309SOL     OW29007   3.365   4.713   2.218  0.0357 -0.1331  0.1057
 7309SOL    HW229008   3.366   4.790   2.275 -0.5724 -1.0208  1.3508
 7309SOL    HW329009   3.313   4.740   2.142  1.5249  1.3283 -0.4639
 7309SOL    MW429010   3.358   4.726   2.216  0.1519 -0.0574  0.1948
 7310SOL     OW29011   6.305   0.944   0.809  0.0685 -0.6357 -0.3530
 7310SOL    HW229012   6.380   0.889   0.831 -0.1508 -1.4623 -1.5426
 7310SOL    HW329013   6.261   0.897   0.738 -2.3981 -0.9305  1.2287
 7310SOL    MW429014   6.309   0.930   0.802 -0.2858 -0.7837 -0.3012
 7311SOL     OW29015   5.636   1.571   3.037  0.0143 -0.4145 -0.0254
 7311SOL    HW229016   5.699   1.594   3.106  0.4637 -0.9416 -0.2562
 7311SOL    HW329017   5.553   1.561   3.084  0.4380 -1.4009  0.5489
 7311SOL    MW429018   5.634   1.573   3.053  0.1295 -0.6142  0.0199
 7312SOL     OW29019   2.935   2.216   2.747 -0.3940  0.6239 -0.2572
 7312SOL    HW229020   2.847   2.179   2.747  0.2921 -1.1108  0.4356
 7312SOL    HW329021   2.945   2.254   2.835  0.0021 -0.3846  0.1474
 7312SOL    MW429022   2.925   2.216   2.759 -0.2512  0.2620 -0.1124
 7313SOL     OW29023   6.340   2.616   4.995 -0.3295  0.5552 -0.7473
 7313SOL    HW229024   6.255   2.599   5.035  1.0537 -0.9935  1.7869
 7313SOL    HW329025   6.321   2.673   4.920 -3.7107 -0.8158 -1.0859
 7313SOL    MW429026   6.326   2.621   4.990 -0.5931  0.1700 -0.4576
 7314SOL     OW29027   1.849   1.762   5.174 -0.0008 -0.8608 -0.4549
 7314SOL    HW229028   1.757   1.779   5.196  0.1804 -0.8208  0.2882
 7314SOL    HW329029   1.897   1.784   5.254  1.1544  3.2661 -2.0359
 7314SOL    MW429030   1.843   1.768   5.188  0.1756 -0.3110 -0.5655
 7315SOL     OW29031   3.245   3.297   0.716 -0.0859 -0.1447  0.0548
 7315SOL    HW229032   3.187   3.226   0.743  2.2076 -1.0657  3.2277
 7315SOL    HW329033   3.232   3.365   0.783  0.7163  0.6553 -0.5740
 7315SOL    MW429034   3.235   3.296   0.728  0.3226 -0.1607  0.3905
 7316SOL     OW29035   4.216   5.422   3.970  0.1723  0.1263  0.0390
 7316SOL    HW229036   4.301   5.440   3.930  0.2216 -1.2194 -0.5012
 7316SOL    HW329037   4.183   5.346   3.923 -0.8654 -0.0191  0.9632
 7316SOL    MW429038   4.223   5.414   3.958  0.0419 -0.0704  0.0897
 7317SOL     OW29039   2.710   0.212   5.955 -0.0872 -0.5111  0.1500
 7317SOL    HW229040   2.649   0.142   5.933 -0.9326  0.1936  0.2158
 7317SOL    HW329041   2.692   0.281   5.892 -1.2394  0.7827  1.8050
 7317SOL    MW429042   2.700   0.212   5.944 -0.3507 -0.2475  0.3770
 7318SOL     OW29043   3.883   0.240   5.521  0.5047  0.1750  0.4776
 7318SOL    HW229044   3.976   0.217   5.515  0.4580 -0.0334  0.5552
 7318SOL    HW329045   3.881   0.315   5.580  0.4949 -0.6325  1.5251
 7318SOL    MW429046   3.895   0.247   5.528  0.4973  0.0409  0.6260
 7319SOL     OW29047   1.061   4.836   2.602  0.4221  0.0915  0.2914
 7319SOL    HW229048   1.107   4.775   2.545  1.0249 -0.1038  0.9739
 7319SOL    HW329049   0.976   4.850   2.559 -0.3082 -2.3270  0.8273
 7319SOL    MW429050   1.056   4.830   2.589  0.4053 -0.2534  0.4521
 7320SOL     OW29051   5.321   0.183   1.523  0.0754  0.3993 -0.8086
 7320SOL    HW229052   5.379   0.158   1.451 -0.2239 -0.8701 -0.6303
 7320SOL    HW329053   5.379   0.191   1.598  0.2789  0.9666 -1.0233
 7320SOL    MW429054   5.336   0.181   1.523  0.0627  0.3066 -0.8134
 7321SOL     OW29055   3.146   5.281   4.294  0.0550  0.1968 -0.5449
 7321SOL    HW229056   3.215   5.347   4.293  0.8354 -0.5468  1.1250
 7321SOL    HW329057   3.192   5.197   4.297 -0.9176 -0.3848 -1.1793
 7321SOL    MW429058   3.161   5.279   4.294  0.0296  0.0220 -0.4083
 7322SOL     OW29059   3.427   0.373   2.548 -0.1384 -0.2854  0.4884
 7322SOL    HW229060   3.397   0.459   2.576  0.5586 -0.4908  2.0026
 7322SOL    HW329061   3.447   0.383   2.455  1.6276  1.7028  1.0063
 7322SOL    MW429062   3.426   0.386   2.540  0.1866 -0.0502  0.7565
 7323SOL     OW29063   3.377   3.111   2.675  0.1425 -0.0079  0.4117
 7323SOL    HW229064   3.445   3.150   2.730 -0.3934  0.6565  0.6252
 7323SOL    HW329065   3.299   3.109   2.731 -0.0207 -0.7431  0.1644
 7323SOL    MW429066   3.375   3.116   2.690  0.0502 -0.0172  0.4072
 7324SOL     OW29067   6.129   5.801   1.684  0.0025  0.2619  0.6307
 7324SOL    HW229068   6.172   5.779   1.767 -0.2234  0.6428  0.8551
 7324SOL    HW329069   6.186   5.764   1.617 -0.7637 -1.6948  0.9932
 7324SOL    MW429070   6.142   5.793   1.686 -0.1284  0.0540  0.7081
 7325SOL     OW29071   3.235   1.033   2.168  0.1863  0.1762  0.7039
 7325SOL    HW229072   3.254   0.978   2.092  0.8893  1.4514 -0.0784
 7325SOL    HW329073   3.280   0.989   2.240 -0.2146 -0.8749  0.3342
 7325SOL    MW429074   3.244   1.020   2.167  0.2262  0.2058  0.5519
 7326SOL     OW29075   2.270   5.154   4.055  0.5392  0.3738  0.7113
 7326SOL    HW229076   2.205   5.106   4.106  0.4905  1.1211  1.3737
 7326SOL    HW329077   2.353   5.112   4.076  0.2957 -0.5381 -0.0838
 7326SOL    MW429078   2.273   5.142   4.065  0.5006  0.3521  0.6938
 7327SOL     OW29079   4.960   0.683   0.693  0.5376 -0.6655 -0.2075
 7327SOL    HW229080   5.008   0.611   0.653  0.8673 -0.5266 -0.0663
 7327SOL    HW329081   4.994   0.762   0.649  1.3370 -0.4572  0.7456
 7327SOL    MW429082   4.971   0.684   0.682  0.6866 -0.6197 -0.0631
 7328SOL     OW29083   1.756   4.684   2.673  0.1159 -0.1469 -0.0448
 7328SOL    HW229084   1.663   4.663   2.679  0.0092 -0.4704 -2.2220
 7328SOL    HW329085   1.763   4.773   2.709 -0.9069 -0.3357  0.6577
 7328SOL    MW429086   1.745   4.693   2.679 -0.0331 -0.2145 -0.2394
 7329SOL     OW29087   5.046   1.172   5.500  0.8214  0.7465  0.2690
 7329SOL    HW229088   5.073   1.223   5.423 -0.5150  0.3695 -0.4693
 7329SOL    HW329089   4.969   1.218   5.533 -0.9650 -1.2324 -0.9432
 7329SOL    MW429090   5.040   1.185   5.494  0.4094  0.4357  0.0116
 7330SOL     OW29091   5.642   0.710   1.930 -0.5138  0.1151  0.3824
 7330SOL    HW229092   5.704   0.766   1.884 -0.6568 -0.4167 -0.4722
 7330SOL    HW329093   5.573   0.770   1.958 -1.3956  0.2010 -1.7697
 7330SOL    MW429094   5.641   0.726   1.928 -0.6491  0.0563 -0.0143
 7331SOL     OW29095   5.791   1.565   4.885  0.3077  0.0815  0.2661
 7331SOL    HW229096   5.783   1.635   4.820  1.5455 -0.5358 -0.5780
 7331SOL    HW329097   5.711   1.514   4.875 -0.2313  0.9002  0.3255
 7331SOL    MW429098   5.779   1.568   4.875  0.3999  0.1080  0.1626
 7332SOL     OW29099   2.566   2.936   6.323  0.5244  0.2045 -0.1555
 7332SOL    HW229100   2.509   2.957   6.249 -0.8544 -2.9572 -0.1717
 7332SOL    HW329101   2.647   2.984   6.305  0.6060 -1.0214 -4.2845
 7332SOL    MW429102   2.569   2.945   6.311  0.3532 -0.3744 -0.7024
 7333SOL     OW29103   4.346   1.772   5.598 -0.0194  0.2025 -0.4353
 7333SOL    HW229104   4.427   1.804   5.639 -0.4813  2.2421 -0.9924
 7333SOL    HW329105   4.377   1.720   5.524  0.8209  0.9350 -0.6282
 7333SOL    MW429106   4.361   1.770   5.593  0.0305  0.5683 -0.5342
 7334SOL     OW29107   3.420   4.649   0.536  0.6040 -0.6407 -0.7294
 7334SOL    HW229108   3.400   4.737   0.504 -1.7184 -0.2937  1.3733
 7334SOL    HW329109   3.358   4.593   0.489  1.9145 -1.1800 -1.8817
 7334SOL    MW429110   3.409   4.653   0.526  0.4705 -0.6661 -0.6040
 7335SOL     OW29111   1.783   3.614   4.270 -0.3534 -0.1118  0.1778
 7335SOL    HW229112   1.857   3.651   4.221 -0.0441  0.0856  0.7839
 7335SOL    HW329113   1.723   3.687   4.281 -0.4250 -0.1572  0.0863
 7335SOL    MW429114   1.785   3.628   4.265 -0.3221 -0.0918  0.2457
 7336SOL     OW29115   1.050   0.485   6.370  0.3722 -0.2556  0.5140
 7336SOL    HW229116   1.104   0.562   6.389 -0.1102  0.0816  0.5289
 7336SOL    HW329117   1.096   0.413   6.414  1.1658 -0.0952 -0.0283
 7336SOL    MW429118   1.064   0.486   6.379  0.4132 -0.1900  0.4444
 7337SOL     OW29119   0.464   4.287   2.222  0.0086  0.2232  0.0435
 7337SOL    HW229120   0.550   4.248   2.238  0.4582  1.5961  1.2413
 7337SOL    HW329121   0.433   4.245   2.142  1.4818 -0.8245 -0.0211
 7337SOL    MW429122   0.471   4.277   2.213  0.2623  0.2661  0.1930
 7338SOL     OW29123   6.408   0.773   4.273  0.1833 -0.8803  0.2143
 7338SOL    HW229124   6.478   0.837   4.286 -0.2961 -0.2096 -0.3958
 7338SOL    HW329125   6.393   0.774   4.178  0.6048 -2.3819  0.0974
 7338SOL    MW429126   6.415   0.782   4.262  0.1757 -0.9899  0.1184
 7339SOL     OW29127   2.820   1.089   5.332  0.2536 -0.3181 -0.4341
 7339SOL    HW229128   2.837   1.172   5.286 -1.2370 -0.4046 -1.1962
 7339SOL    HW329129   2.892   1.081   5.394  0.0565  1.9217  0.1682
 7339SOL    MW429130   2.832   1.099   5.334  0.0310 -0.0340 -0.4552
 7340SOL     OW29131   1.412   3.078   3.783  0.2603 -0.6087  0.3304
 7340SOL    HW229132   1.404   3.114   3.871 -1.7009 -0.1906  0.0173
 7340SOL    HW329133   1.429   2.985   3.796  0.0703 -0.5310  1.1493
 7340SOL    MW429134   1.413   3.071   3.796 -0.0235 -0.5433  0.3972
 7341SOL     OW29135   4.442   5.192   6.371 -0.0252  0.4709 -0.2163
 7341SOL    HW229136   4.520   5.186   6.426  0.0056  0.7846 -0.2246
 7341SOL    HW329137   4.431   5.104   6.334  0.3137  0.4234 -0.2006
 7341SOL    MW429138   4.450   5.179   6.373  0.0236  0.5061 -0.2153
 7342SOL     OW29139   5.657   3.548   2.519  0.1435  0.2412  0.1883
 7342SOL    HW229140   5.635   3.619   2.579  1.5976  0.3279  0.6524
 7342SOL    HW329141   5.752   3.547   2.516  0.1237  0.0297 -1.8952
 7342SOL    MW429142   5.667   3.557   2.526  0.3328  0.2248 -0.0253
 7343SOL     OW29143   3.063   4.639   6.087  0.1081  0.3642  0.4550
 7343SOL    HW229144   2.972   4.669   6.091 -0.7991 -2.0275 -0.5603
 7343SOL    HW329145   3.081   4.604   6.174  0.0768  0.8481  0.6585
 7343SOL    MW429146   3.053   4.638   6.099 -0.0157  0.1125  0.3479
 7344SOL     OW29147   6.339   0.083   2.131 -0.2892 -0.2777 -0.4609
 7344SOL    HW229148   6.286   0.161   2.117 -0.7196 -0.3167  0.8353
 7344SOL    HW329149   6.371   0.092   2.220 -1.7916 -2.4303  0.3678
 7344SOL    MW429150   6.336   0.095   2.141 -0.5442 -0.5669 -0.1805
 7345SOL     OW29151   0.280   5.146   0.205  0.0911  0.0700 -0.0613
 7345SOL    HW229152   0.197   5.145   0.253  1.4569 -0.4270  2.4594
 7345SOL    HW329153   0.290   5.236   0.175 -1.6239 -0.0047 -0.9605
 7345SOL    MW429154   0.270   5.157   0.207  0.0450 -0.0055  0.1526
 7346SOL     OW29155   2.527   0.540   2.264 -0.0385  0.3165  0.1677
 7346SOL    HW229156   2.523   0.470   2.330 -3.3832 -0.2905 -0.4999
 7346SOL    HW329157   2.621   0.553   2.248  0.7714 -1.9272  2.4849
 7346SOL    MW429158   2.539   0.532   2.270 -0.3729 -0.0596  0.3853
 7347SOL     OW29159   4.840   2.721   0.952 -0.6022  0.2286  0.2588
 7347SOL    HW229160   4.931   2.728   0.921 -1.3792  1.7233 -1.9230
 7347SOL    HW329161   4.803   2.649   0.901 -1.3617  1.4276 -0.9413
 7347SOL    MW429162   4.847   2.712   0.941 -0.8049  0.5840 -0.1874
 7348SOL     OW29163   2.854   5.163   0.630 -0.3972  0.2719  0.1509
 7348SOL    HW229164   2.774   5.171   0.578 -1.8322  1.4407  2.3782
 7348SOL    HW329165   2.835   5.092   0.691  1.0803 -0.7816 -0.5608
 7348SOL    MW429166   2.841   5.155   0.631 -0.3916  0.2871  0.3509
 7349SOL     OW29167   5.643   0.697   5.333 -0.3073  0.3503  0.0267
 7349SOL    HW229168   5.717   0.738   5.378 -2.1408  1.7628  1.8949
 7349SOL    HW329169   5.647   0.605   5.360  1.6773 -0.0084 -1.2563
 7349SOL    MW429170   5.653   0.690   5.342 -0.2873  0.4893  0.1039
 7350SOL     OW29171   2.985   5.435   6.067  0.7714  0.9422  0.1070
 7350SOL    HW229172   2.962   5.525   6.091 -0.6943  0.8166 -0.7595
 7350SOL    HW329173   2.965   5.429   5.974 -1.3787 -0.9282  0.6153
 7350SOL    MW429174   2.979   5.446   6.058  0.2943  0.6788  0.0598
 7351SOL     OW29175   2.223   3.443   1.758  0.4973  0.4615 -0.1264
 7351SOL    HW229176   2.197   3.523   1.805 -0.3198 -0.8854  1.8247
 7351SOL    HW329177   2.145   3.388   1.759  0.9444 -0.2577 -1.7603
 7351SOL    MW429178   2.209   3.447   1.765  0.4485  0.1889 -0.0846
 7352SOL     OW29179   5.522   3.407   3.242  0.0487 -0.5715 -0.0217
 7352SOL    HW229180   5.462   3.348   3.288  0.3223  0.2632  1.4509
 7352SOL    HW329181   5.609   3.369   3.256  0.2877  0.4069  1.3843
 7352SOL    MW429182   5.526   3.394   3.250  0.1163 -0.3323  0.3581
 7353SOL     OW29183   3.036   2.795   5.907 -0.3159  0.8654 -0.2247
 7353SOL    HW229184   3.109   2.845   5.943 -0.5322  0.5901  0.6214
 7353SOL    HW329185   3.043   2.807   5.812  1.1372  0.4096 -0.1987
 7353SOL    MW429186   3.046   2.803   5.899 -0.1527  0.7689 -0.1096
 7354SOL     OW29187   2.942   2.871   0.271 -0.2181 -0.0579  0.0880
 7354SOL    HW229188   2.897   2.787   0.281 -0.4388  0.1461  0.9318
 7354SOL    HW329189   2.886   2.922   0.212  0.4219 -0.8375 -1.2325
 7354SOL    MW429190   2.929   2.867   0.265 -0.1628 -0.1338  0.0251
 7355SOL     OW29191   5.804   4.968   2.389 -0.0616  0.3159 -0.2272
 7355SOL    HW229192   5.746   4.931   2.322 -0.6419  2.0116 -0.7135
 7355SOL    HW329193   5.887   4.920   2.378 -1.3893 -2.4455  0.7475
 7355SOL    MW429194   5.807   4.957   2.379 -0.3134  0.1753 -0.1627
 7356SOL     OW29195   2.302   1.958   3.490  0.3986 -0.4138 -0.5600
 7356SOL    HW229196   2.342   1.906   3.421 -1.4047  0.0003 -2.0014
 7356SOL    HW329197   2.274   2.038   3.446 -2.0879 -0.7379  0.2647
 7356SOL    MW429198   2.304   1.962   3.475 -0.1674 -0.4019 -0.6413
 7357SOL     OW29199   1.955   2.124   4.572 -0.8517  0.0539  0.8961
 7357SOL    HW229200   2.021   2.148   4.508 -0.6251 -0.0838  1.0751
 7357SOL    HW329201   1.873   2.121   4.523 -0.4027 -2.0068  0.1606
 7357SOL    MW429202   1.953   2.127   4.557 -0.7626 -0.2361  0.8227
 7358SOL     OW29203   3.578   2.155   0.024  0.0860 -0.0129  0.3058
 7358SOL    HW229204   3.501   2.160  -0.032 -0.2579  0.0908  0.7835
 7358SOL    HW329205   3.548   2.186   0.109  0.3210 -1.2168  0.8472
 7358SOL    MW429206   3.564   2.160   0.028  0.0716 -0.1580  0.4403
 7359SOL     OW29207   4.614   1.646   3.469  0.4534  0.2418 -0.2037
 7359SOL    HW229208   4.643   1.657   3.379  0.3953 -0.7980 -0.3598
 7359SOL    HW329209   4.691   1.664   3.523  1.1706 -1.5215 -0.5708
 7359SOL    MW429210   4.628   1.650   3.464  0.5403 -0.1280 -0.2727
 7360SOL     OW29211   6.338   0.736   2.503 -0.1020  0.3318 -0.4532
 7360SOL    HW229212   6.342   0.709   2.595 -1.2167  1.5906 -0.0074
 7360SOL    HW329213   6.291   0.819   2.504  0.6653  0.8352 -2.0793
 7360SOL    MW429214   6.332   0.744   2.515 -0.1478  0.5643 -0.6089
 7361SOL     OW29215   5.373   5.217   5.302 -0.4242  0.5619  0.0358
 7361SOL    HW229216   5.441   5.240   5.366  1.8225 -1.3598 -1.4612
 7361SOL    HW329217   5.397   5.266   5.223 -1.7582  1.0848 -0.0642
 7361SOL    MW429218   5.385   5.226   5.300 -0.3038  0.3773 -0.1749
 7362SOL     OW29219   3.998   6.026   2.364 -0.4800 -0.1200  0.0668
 7362SOL    HW229220   4.061   5.991   2.427 -0.1083  0.7009  0.1724
 7362SOL    HW329221   4.050   6.050   2.288 -0.6753  0.4150  0.0913
 7362SOL    MW429222   4.013   6.025   2.362 -0.4567  0.0589  0.0840
 7363SOL     OW29223   1.221   3.167   4.205 -0.0927 -0.4993 -0.3613
 7363SOL    HW229224   1.299   3.136   4.251 -0.1046 -0.0693 -0.0455
 7363SOL    HW329225   1.209   3.256   4.237 -0.9144 -0.6802 -0.1538
 7363SOL    MW429226   1.230   3.175   4.215 -0.2027 -0.4665 -0.2922
 7364SOL     OW29227   1.468   0.020   2.184  0.6255 -0.8177  0.1122
 7364SOL    HW229228   1.514   0.062   2.111  1.6218 -1.0095  0.6149
 7364SOL    HW329229   1.375   0.025   2.160  1.0228 -3.3366 -2.5548
 7364SOL    MW429230   1.462   0.026   2.171  0.8094 -1.1753 -0.1734
 7365SOL     OW29231   3.751   1.337   3.967  0.5438  0.3404  0.3969
 7365SOL    HW229232   3.786   1.258   4.008 -0.1689  0.7156  1.8120
 7365SOL    HW329233   3.710   1.306   3.886 -0.1257 -0.8107  1.1497
 7365SOL    MW429234   3.750   1.322   3.962  0.3615  0.2380  0.6829
 7366SOL     OW29235   2.077   4.587   1.076  0.4494  0.1698  0.7002
 7366SOL    HW229236   2.126   4.639   1.013  1.7133 -0.1341  1.3927
 7366SOL    HW329237   2.013   4.539   1.024  2.6678 -1.5167 -0.6690
 7366SOL    MW429238   2.075   4.587   1.061  0.9088 -0.0928  0.6109
 7367SOL     OW29239   1.672   0.977   0.048  0.3981 -0.4424  0.6233
 7367SOL    HW229240   1.728   1.047   0.082  1.2874 -0.6984 -0.2561
 7367SOL    HW329241   1.715   0.949  -0.033 -0.8265 -0.8951  0.1002
 7367SOL    MW429242   1.685   0.983   0.042  0.3538 -0.5359  0.4383
 7368SOL     OW29243   4.238   6.027   5.172 -0.5129 -0.0048 -0.3454
 7368SOL    HW229244   4.280   6.112   5.175  0.9430 -0.6391 -1.6555
 7368SOL    HW329245   4.162   6.039   5.114 -0.6886  0.5357 -0.0090
 7368SOL    MW429246   4.233   6.039   5.165 -0.3440 -0.0172 -0.4739
 7369SOL     OW29247   1.728   4.842   5.656 -0.1755  0.3695 -0.0533
 7369SOL    HW229248   1.635   4.828   5.639 -0.1735  0.6853 -0.3305
 7369SOL    HW329249   1.749   4.924   5.611  0.7242 -0.7346 -1.7776
 7369SOL    MW429250   1.719   4.851   5.648 -0.0566  0.2655 -0.3174
 7370SOL     OW29251   2.935   5.213   4.483  0.5569  0.0566  0.0493
 7370SOL    HW229252   2.998   5.242   4.417  0.5754 -0.6078 -0.2350
 7370SOL    HW329253   2.921   5.120   4.463 -0.3479  0.1415  0.2354
 7370SOL    MW429254   2.941   5.205   4.471  0.4400 -0.0198  0.0363
 7371SOL     OW29255   1.685   0.459   2.639 -0.0306 -0.3551 -0.0218
 7371SOL    HW229256   1.780   0.461   2.633 -0.0199  0.9814  0.2491
 7371SOL    HW329257   1.661   0.544   2.676 -1.3712 -0.3639 -0.7731
 7371SOL    MW429258   1.694   0.470   2.643 -0.2060 -0.1800 -0.0852
 7372SOL     OW29259   6.336   3.395   6.155  0.0140 -0.1310 -0.1350
 7372SOL    HW229260   6.260   3.453   6.163 -0.8559 -1.2725  0.1455
 7372SOL    HW329261   6.355   3.393   6.062  0.8323  1.5516 -0.0322
 7372SOL    MW429262   6.328   3.402   6.144  0.0072 -0.0596 -0.0844
 7373SOL     OW29263   4.443   5.690   2.514 -0.4692 -0.3507 -0.5407
 7373SOL    HW229264   4.526   5.674   2.471 -0.9645 -0.5563 -1.4466
 7373SOL    HW329265   4.399   5.755   2.459 -1.4629 -1.2371 -0.8263
 7373SOL    MW429266   4.448   5.697   2.501 -0.6657 -0.4948 -0.6979
 7374SOL     OW29267   2.662   4.847   1.358 -0.3753 -0.4628  0.2100
 7374SOL    HW229268   2.597   4.888   1.300 -0.5900 -2.7151 -1.2721
 7374SOL    HW329269   2.733   4.910   1.362 -1.9811  1.4111  0.6404
 7374SOL    MW429270   2.663   4.861   1.351 -0.6155 -0.5128  0.0713
 7375SOL     OW29271   2.833   2.967   2.926 -0.0195  0.1690  0.5224
 7375SOL    HW229272   2.880   2.918   2.858  0.9638 -0.2798  1.4911
 7375SOL    HW329273   2.741   2.960   2.901  0.2632 -0.5447 -0.3932
 7375SOL    MW429274   2.827   2.960   2.913  0.1475  0.0157  0.5294
 7376SOL     OW29275   0.047   3.267   4.282  0.2133 -0.1334  0.7368
 7376SOL    HW229276   0.077   3.220   4.205 -0.5936 -1.0635  0.9725
 7376SOL    HW329277  -0.018   3.209   4.322  0.4442  0.4427  1.9828
 7376SOL    MW429278   0.042   3.253   4.277  0.1373 -0.1801  0.9323
 7377SOL     OW29279   0.988   5.180   4.212  0.4575 -0.2812 -0.3974
 7377SOL    HW229280   1.014   5.111   4.274 -1.3188 -0.0096  0.7228
 7377SOL    HW329281   1.045   5.254   4.234 -1.3904  0.4754  2.3431
 7377SOL    MW429282   0.999   5.181   4.223 -0.0207 -0.1455  0.1120
 7378SOL     OW29283   2.246   0.017   0.924 -0.0706 -0.8249  0.9719
 7378SOL    HW229284   2.328  -0.028   0.901 -1.1218 -1.2350 -2.5010
 7378SOL    HW329285   2.218  -0.025   1.006  2.7278 -1.2059  1.8445
 7378SOL    MW429286   2.253   0.005   0.932  0.1599 -0.9293  0.6288
 7379SOL     OW29287   1.596   4.922   5.057 -0.0505  0.5103 -0.0721
 7379SOL    HW229288   1.678   4.872   5.065 -0.0733  0.6196  0.8469
 7379SOL    HW329289   1.539   4.885   5.124  0.3631  2.6025  1.5263
 7379SOL    MW429290   1.599   4.911   5.067  0.0010  0.8007  0.2600
 7380SOL     OW29291   6.393   5.707   5.429 -0.3301 -0.3299  0.0921
 7380SOL    HW229292   6.453   5.736   5.498 -0.6849  0.7796 -0.0524
 7380SOL    HW329293   6.444   5.644   5.378 -0.1569 -1.4225  1.5377
 7380SOL    MW429294   6.408   5.702   5.432 -0.3540 -0.3277  0.2638
 7381SOL     OW29295   0.416   5.723   3.733 -0.0736  0.1044 -0.4771
 7381SOL    HW229296   0.339   5.688   3.777  0.0500 -0.5394 -0.7560
 7381SOL    HW329297   0.392   5.726   3.641  1.2721 -3.2642 -1.1180
 7381SOL    MW429298   0.403   5.719   3.727  0.1202 -0.4250 -0.5984
 7382SOL     OW29299   3.502   5.198   5.341 -0.3850 -0.1054  0.5935
 7382SOL    HW229300   3.563   5.226   5.273 -1.5779  0.4593 -0.2653
 7382SOL    HW329301   3.498   5.273   5.401 -2.2061  0.9773 -0.7604
 7382SOL    MW429302   3.510   5.212   5.340 -0.7826  0.1120  0.3016
 7383SOL     OW29303   3.694   4.171   5.414  0.0724 -0.0342 -0.4414
 7383SOL    HW229304   3.614   4.151   5.463  0.0227 -0.1469 -0.5688
 7383SOL    HW329305   3.664   4.188   5.325  0.0485  1.1092 -0.2375
 7383SOL    MW429306   3.679   4.171   5.409  0.0627  0.1018 -0.4313
 7384SOL     OW29307   4.134   1.530   1.662 -0.1560  0.2031  0.3140
 7384SOL    HW229308   4.153   1.437   1.646 -1.4812  0.0366 -0.4809
 7384SOL    HW329309   4.219   1.569   1.683  0.1821 -1.5974  2.8532
 7384SOL    MW429310   4.147   1.523   1.663 -0.2862 -0.0564  0.5442
 7385SOL     OW29311   5.561   3.242   0.154 -0.2575  0.6200  0.3364
 7385SOL    HW229312   5.623   3.312   0.169 -1.2040  1.5127  0.1793
 7385SOL    HW329313   5.482   3.286   0.121 -0.5688 -0.5866 -0.6243
 7385SOL    MW429314   5.559   3.257   0.151 -0.4234  0.5785  0.1889
 7386SOL     OW29315   4.725   5.061   4.782 -0.1293  0.4808  0.2056
 7386SOL    HW229316   4.709   5.056   4.876  1.4628 -0.4762  0.4798
 7386SOL    HW329317   4.732   4.969   4.754 -0.9189  0.7416 -0.9193
 7386SOL    MW429318   4.724   5.048   4.791 -0.0234  0.3890  0.0933
 7387SOL     OW29319   0.345   5.439   5.116 -0.4058 -0.3737  0.3300
 7387SOL    HW229320   0.268   5.481   5.079 -0.8419 -1.0367  0.4605
 7387SOL    HW329321   0.318   5.349   5.132  0.4255 -0.6399  0.2995
 7387SOL    MW429322   0.331   5.433   5.114 -0.3537 -0.4963  0.3432
 7388SOL     OW29323   6.289   4.210   6.079  0.4607  0.0442 -0.4441
 7388SOL    HW229324   6.233   4.234   6.153  1.6543 -0.3350  0.5913
 7388SOL    HW329325   6.325   4.125   6.102  1.5885  0.3493 -1.0352
 7388SOL    MW429326   6.286   4.202   6.092  0.7670  0.0344 -0.3855
 7389SOL     OW29327   1.379   4.917   0.008 -0.3485 -0.5396  0.0686
 7389SOL    HW229328   1.312   4.882  -0.051 -0.0000  1.3364 -1.5436
 7389SOL    HW329329   1.329   4.961   0.078 -0.7609 -1.7077  0.5361
 7389SOL    MW429330   1.363   4.918   0.010 -0.3569 -0.4462 -0.0824
 7390SOL     OW29331   5.816   4.390   4.125 -0.7253  0.1952 -0.0509
 7390SOL    HW229332   5.901   4.428   4.148 -1.4840  1.6755  0.4610
 7390SOL    HW329333   5.827   4.358   4.036  0.3554  0.4377 -0.0187
 7390SOL    MW429334   5.829   4.391   4.116 -0.6828  0.4225  0.0209
 7391SOL     OW29335   2.028   5.201   2.063 -0.5975  0.2981 -0.4488
 7391SOL    HW229336   1.991   5.162   2.142 -1.3525 -0.1191 -0.9875
 7391SOL    HW329337   2.121   5.179   2.066 -0.5199  0.7329  0.5753
 7391SOL    MW429338   2.035   5.193   2.074 -0.6869  0.3004 -0.3848
 7392SOL     OW29339   2.363   0.532   3.789  0.7140 -0.2404 -0.2593
 7392SOL    HW229340   2.428   0.534   3.719  1.2166  0.8593  0.2093
 7392SOL    HW329341   2.327   0.621   3.791  0.5353 -0.3219  0.7077
 7392SOL    MW429342   2.367   0.544   3.780  0.7567 -0.1060 -0.0699
 7393SOL     OW29343   6.345   3.128   3.116 -0.0987  0.0526  0.3714
 7393SOL    HW229344   6.297   3.187   3.174  0.0154 -0.9427  1.5220
 7393SOL    HW329345   6.437   3.137   3.143  0.3970  1.6932 -1.5894
 7393SOL    MW429346   6.351   3.137   3.127 -0.0182  0.1378  0.2645
 7394SOL     OW29347   5.646   1.516   3.890 -0.3845  0.4509  0.1832
 7394SOL    HW229348   5.702   1.594   3.894  0.5628 -0.2164 -0.0092
 7394SOL    HW329349   5.706   1.442   3.889 -1.2772 -0.3044  0.4043
 7394SOL    MW429350   5.661   1.517   3.891 -0.3773  0.2632  0.1870
 7395SOL     OW29351   1.424   4.166   5.820  0.0971  0.3903  0.3933
 7395SOL    HW229352   1.473   4.084   5.829 -0.6957 -0.0615  0.6817
 7395SOL    HW329353   1.491   4.233   5.803  0.8218 -0.1912  0.9269
 7395SOL    MW429354   1.440   4.164   5.819  0.0881  0.2539  0.5017
 7396SOL     OW29355   1.591   4.809   2.420 -0.1910 -0.3466 -0.2939
 7396SOL    HW229356   1.632   4.824   2.505  1.8807 -1.6912 -0.9789
 7396SOL    HW329357   1.519   4.872   2.416 -0.6221 -0.5386  2.6015
 7396SOL    MW429358   1.587   4.819   2.431  0.0254 -0.5493 -0.0023
 7397SOL     OW29359   2.610   1.827   1.839  0.1922 -0.5427 -0.4155
 7397SOL    HW229360   2.545   1.888   1.804 -1.9069 -1.8944  0.9007
 7397SOL    HW329361   2.653   1.791   1.761 -1.6027 -0.5907 -1.4421
 7397SOL    MW429362   2.607   1.830   1.824 -0.3216 -0.7274 -0.3773
 7398SOL     OW29363   4.644   4.881   4.261 -0.4142 -0.0703  0.4045
 7398SOL    HW229364   4.587   4.928   4.322 -1.1999  0.1311 -0.4634
 7398SOL    HW329365   4.702   4.831   4.317 -1.4201 -0.2529  1.3256
 7398SOL    MW429366   4.644   4.881   4.276 -0.6506 -0.0678  0.4115
 7399SOL     OW29367   3.784   0.976   2.076 -0.0145  0.0669 -0.4143
 7399SOL    HW229368   3.862   0.979   2.132  0.7779 -0.8958 -1.4165
 7399SOL    HW329369   3.751   1.066   2.075  1.8571  0.7974 -0.9892
 7399SOL    MW429370   3.790   0.988   2.083  0.3370  0.0362 -0.6224
 7400SOL     OW29371   3.377   0.304   1.053  0.4850 -0.2904 -0.0033
 7400SOL    HW229372   3.414   0.308   0.965 -1.3225  1.9386 -0.7529
 7400SOL    HW329373   3.453   0.289   1.110  1.7139 -1.5681 -1.8615
 7400SOL    MW429374   3.392   0.302   1.049  0.4086 -0.1649 -0.3474
 7401SOL     OW29375   4.637   4.171   4.673  0.1253  1.3336  0.3925
 7401SOL    HW229376   4.692   4.157   4.595 -0.0718  0.9304  0.3236
 7401SOL    HW329377   4.583   4.247   4.650  0.7778  1.8548  0.5329
 7401SOL    MW429378   4.637   4.179   4.659  0.1854  1.3491  0.4019
 7402SOL     OW29379   3.873   5.017   5.054 -0.4815  0.6047 -0.1653
 7402SOL    HW229380   3.787   4.974   5.052 -0.0361 -0.2881 -1.5443
 7402SOL    HW329381   3.899   5.013   5.146 -0.7372 -1.6112 -0.1197
 7402SOL    MW429382   3.865   5.011   5.066 -0.4565  0.1945 -0.3412
 7403SOL     OW29383   2.995   3.093   5.922  0.1232 -0.0705 -0.5664
 7403SOL    HW229384   3.076   3.087   5.870 -0.4413 -0.6103 -1.4136
 7403SOL    HW329385   2.925   3.072   5.860 -0.6847  0.5060  0.1260
 7403SOL    MW429386   2.996   3.089   5.907 -0.0579 -0.0657 -0.5868
 7404SOL     OW29387   5.826   2.654   2.036  0.1536  0.1806 -0.3526
 7404SOL    HW229388   5.850   2.736   1.991 -1.0614 -0.5028 -2.4205
 7404SOL    HW329389   5.742   2.674   2.077 -0.7642 -0.3006 -1.8951
 7404SOL    MW429390   5.818   2.667   2.035 -0.1278  0.0270 -0.8289
 7405SOL     OW29391   5.933   3.100   0.947 -0.3146  0.1962  0.6024
 7405SOL    HW229392   5.896   3.013   0.932  0.7199 -0.3004  0.8440
 7405SOL    HW329393   5.858   3.153   0.974 -1.1869 -0.3081 -0.7209
 7405SOL    MW429394   5.918   3.095   0.948 -0.2932  0.0642  0.4597
 7406SOL     OW29395   5.019   1.212   0.623 -0.4661 -0.0483  0.3050
 7406SOL    HW229396   5.104   1.253   0.636 -0.2536 -0.2633 -0.4058
 7406SOL    HW329397   4.981   1.260   0.549 -1.7798  1.3531  1.7980
 7406SOL    MW429398   5.025   1.224   0.615 -0.6114  0.1082  0.4082
 7407SOL     OW29399   4.946   2.492   5.000 -0.4390 -0.0802  0.5587
 7407SOL    HW229400   4.973   2.468   4.911 -0.7944 -1.2857  0.7618
 7407SOL    HW329401   4.895   2.573   4.988  0.8653  0.6721 -0.1299
 7407SOL    MW429402   4.943   2.500   4.986 -0.3138 -0.1400  0.4947
 7408SOL     OW29403   4.808   4.569   1.774 -0.1756 -0.4220 -0.3107
 7408SOL    HW229404   4.889   4.560   1.724  0.4830 -0.1115  0.6668
 7408SOL    HW329405   4.786   4.480   1.801 -0.0945 -0.4889 -0.4675
 7408SOL    MW429406   4.815   4.556   1.771 -0.0780 -0.3899 -0.2024
 7409SOL     OW29407   5.859   3.572   2.928 -0.1806  0.5109 -0.0024
 7409SOL    HW229408   5.855   3.486   2.886 -0.6611  0.4907  0.0715
 7409SOL    HW329409   5.767   3.593   2.948 -0.1350  1.3116 -0.5712
 7409SOL    MW429410   5.846   3.564   2.925 -0.2380  0.6139 -0.0677
 7410SOL     OW29411   2.851   0.024   4.142  0.1312 -0.3058  0.2975
 7410SOL    HW229412   2.763  -0.003   4.116  0.9437 -3.2540  0.2198
 7410SOL    HW329413   2.881  -0.046   4.200  2.1720  0.9773  0.8867
 7410SOL    MW429414   2.843   0.011   4.146  0.5076 -0.5255  0.3650
 7411SOL     OW29415   4.222   2.423   3.686  0.0340  0.1434 -0.1289
 7411SOL    HW229416   4.309   2.438   3.651 -0.5163  1.3005 -1.0434
 7411SOL    HW329417   4.238   2.377   3.769  1.4252 -1.0350 -1.0020
 7411SOL    MW429418   4.236   2.419   3.693  0.1449  0.1406 -0.3648
 7412SOL     OW29419   5.986   2.373   2.662 -0.4433 -0.2645 -0.1379
 7412SOL    HW229420   5.904   2.410   2.629  0.5102  2.0546 -0.1022
 7412SOL    HW329421   6.022   2.326   2.587 -0.4054  1.2503 -1.1216
 7412SOL    MW429422   5.980   2.372   2.648 -0.3125  0.2413 -0.2630
 7413SOL     OW29423   3.634   1.019   4.860  0.8426  0.0276 -0.2088
 7413SOL    HW229424   3.598   0.930   4.854 -0.6417  0.6308 -0.6784
 7413SOL    HW329425   3.715   1.015   4.809 -0.4679 -0.4728 -2.4146
 7413SOL    MW429426   3.640   1.007   4.853  0.4738  0.0411 -0.5618
 7414SOL     OW29427   2.840   3.742   4.942 -0.1609  0.1889 -0.4546
 7414SOL    HW229428   2.929   3.731   4.911  0.0291  0.2857  0.0470
 7414SOL    HW329429   2.829   3.837   4.950  0.2255  0.1341  0.9839
 7414SOL    MW429430   2.850   3.753   4.939 -0.0849  0.1944 -0.1986
 7415SOL     OW29431   5.021   1.854   1.526 -0.2296 -0.1241  0.1765
 7415SOL    HW229432   5.056   1.765   1.526  0.6954  0.2269 -0.2993
 7415SOL    HW329433   5.096   1.910   1.507 -0.7972  0.7663  0.4664
 7415SOL    MW429434   5.036   1.850   1.523 -0.1824  0.0397  0.1520
 7416SOL     OW29435   0.343   0.446   0.960  0.1308  0.3489  0.3085
 7416SOL    HW229436   0.329   0.360   0.999  1.2333  0.3648  0.7741
 7416SOL    HW329437   0.415   0.433   0.898  0.7460  1.0517  0.8521
 7416SOL    MW429438   0.351   0.433   0.957  0.3575  0.4437  0.4417
 7417SOL     OW29439   6.197   0.365   3.103  0.6529  0.0529 -0.2872
 7417SOL    HW229440   6.182   0.392   3.012  1.3183 -1.4746 -0.8928
 7417SOL    HW329441   6.219   0.446   3.149  1.5189  0.7090 -1.7745
 7417SOL    MW429442   6.198   0.379   3.097  0.8550 -0.0621 -0.5633
 7418SOL     OW29443   5.191   2.927   6.364 -0.3313 -0.8867 -0.1562
 7418SOL    HW229444   5.273   2.973   6.381  0.0684 -1.6861  0.1147
 7418SOL    HW329445   5.217   2.847   6.319 -1.0939 -0.4337 -1.4777
 7418SOL    MW429446   5.205   2.923   6.360 -0.3792 -0.9324 -0.2948
 7419SOL     OW29447   0.498   1.443   3.960  0.3346  0.7791  0.0359
 7419SOL    HW229448   0.425   1.402   3.914 -0.5633  1.5021  0.7592
 7419SOL    HW329449   0.559   1.372   3.977 -0.4794  0.0384 -0.0577
 7419SOL    MW429450   0.496   1.428   3.956  0.1088  0.7767  0.1190
 7420SOL     OW29451   3.328   0.048   1.553  0.0942 -0.2876 -0.5712
 7420SOL    HW229452   3.329  -0.047   1.551  3.8143 -0.4495  1.3394
 7420SOL    HW329453   3.292   0.070   1.639  0.1711 -0.0145 -0.6062
 7420SOL    MW429454   3.323   0.039   1.564  0.5951 -0.2729 -0.3237
 7421SOL     OW29455   5.758   3.563   6.278 -0.1220 -0.3644 -0.0454
 7421SOL    HW229456   5.741   3.469   6.284 -0.8058 -0.1782  1.1796
 7421SOL    HW329457   5.790   3.587   6.364 -0.4222  0.6187 -0.2011
 7421SOL    MW429458   5.760   3.554   6.290 -0.2518 -0.2101  0.0957
 7422SOL     OW29459   2.619   3.725   0.540 -0.4860  0.3212 -0.0574
 7422SOL    HW229460   2.682   3.768   0.599 -1.1799 -0.5125  1.3241
 7422SOL    HW329461   2.669   3.710   0.459  0.0602  2.8416 -0.2973
 7422SOL    MW429462   2.634   3.729   0.537 -0.5055  0.5437  0.0932
 7423SOL     OW29463   2.397   0.946   6.008  0.5005  0.2730 -0.8106
 7423SOL    HW229464   2.379   1.019   6.068  1.2480  0.4784 -0.8196
 7423SOL    HW329465   2.377   0.981   5.921 -0.5726 -0.0211 -0.6883
 7423SOL    MW429466   2.392   0.960   6.004  0.4575  0.2613 -0.7957
 7424SOL     OW29467   6.128   4.476   3.602 -0.2339  0.5940 -0.1333
 7424SOL    HW229468   6.151   4.417   3.674  0.7209  0.0181 -0.8751
 7424SOL    HW329469   6.059   4.430   3.555 -0.1638  0.5108 -0.1552
 7424SOL    MW429470   6.122   4.462   3.605 -0.0987  0.5071 -0.2340
 7425SOL     OW29471   2.618   1.472   3.891 -0.1945  0.0271 -0.5573
 7425SOL    HW229472   2.702   1.518   3.890 -1.1227  1.7812 -0.7732
 7425SOL    HW329473   2.553   1.541   3.902 -1.6132 -1.3159 -0.2625
 7425SOL    MW429474   2.621   1.487   3.892 -0.5042  0.0813 -0.5469
 7426SOL     OW29475   3.398   5.842   2.913  0.2219 -0.5358 -0.0759
 7426SOL    HW229476   3.320   5.879   2.873  2.1993 -0.4023 -4.3484
 7426SOL    HW329477   3.455   5.917   2.930  0.4757 -0.8526  0.5067
 7426SOL    MW429478   3.395   5.856   2.910  0.5163 -0.5600 -0.5628
 7427SOL     OW29479   6.005   5.013   1.322 -0.0616 -0.2427 -0.3702
 7427SOL    HW229480   6.079   4.986   1.268  0.9024 -1.0597  1.3135
 7427SOL    HW329481   5.992   4.942   1.384 -0.9035  0.8318  0.7411
 7427SOL    MW429482   6.013   5.000   1.323 -0.0455 -0.2087 -0.0014
 7428SOL     OW29483   6.266   5.339   0.209  0.1084 -0.2925 -0.4104
 7428SOL    HW229484   6.340   5.285   0.236  0.9404  0.4569 -1.1236
 7428SOL    HW329485   6.261   5.326   0.114 -0.4214 -0.0172 -0.4222
 7428SOL    MW429486   6.275   5.330   0.200  0.1483 -0.1573 -0.5061
 7429SOL     OW29487   4.107   5.152   0.563 -0.0464  0.4023  0.1493
 7429SOL    HW229488   4.042   5.159   0.633 -1.1972  1.3418 -0.9615
 7429SOL    HW329489   4.060   5.178   0.484  0.5841 -2.7554 -1.3955
 7429SOL    MW429490   4.092   5.157   0.562 -0.1150  0.1096 -0.2011
 7430SOL     OW29491   2.947   3.312   0.145  0.2486  0.1970 -0.2403
 7430SOL    HW229492   2.937   3.398   0.104  0.3905 -0.2974 -1.3238
 7430SOL    HW329493   3.009   3.265   0.090  1.3377 -0.0992  1.1708
 7430SOL    MW429494   2.953   3.317   0.132  0.4110  0.0927 -0.1971
 7431SOL     OW29495   5.051   2.155   6.115  0.1421  0.2244 -0.4712
 7431SOL    HW229496   5.038   2.213   6.189  2.7750 -0.9327  1.0618
 7431SOL    HW329497   5.062   2.068   6.154  1.7704 -0.3997 -2.1463
 7431SOL    MW429498   5.051   2.151   6.130  0.7043 -0.0106 -0.4900
 7432SOL     OW29499   2.209   2.314   3.564  0.8106  0.1904 -0.1023
 7432SOL    HW229500   2.234   2.301   3.655 -1.0829  2.8466  0.9231
 7432SOL    HW329501   2.266   2.384   3.532 -0.8721  1.8251  0.2789
 7432SOL    MW429502   2.219   2.321   3.572  0.3388  0.7565  0.0833
 7433SOL     OW29503   2.959   3.931   6.402 -0.0461  0.1009  1.0641
 7433SOL    HW229504   2.899   3.886   6.342 -0.9194  1.7405  0.6244
 7433SOL    HW329505   2.912   4.011   6.426  2.0047  1.4968  0.6554
 7433SOL    MW429506   2.945   3.936   6.397  0.1092  0.5014  0.9522
 7434SOL     OW29507   3.621   1.275   4.577  0.5802  0.3119 -0.0026
 7434SOL    HW229508   3.605   1.293   4.670  0.5384 -0.7905  0.2209
 7434SOL    HW329509   3.613   1.360   4.535  5.4725  1.8778  1.5912
 7434SOL    MW429510   3.618   1.288   4.584  1.2201  0.3730  0.2371
 7435SOL     OW29511   5.288   3.637   2.012 -0.3919 -0.4019 -0.0387
 7435SOL    HW229512   5.255   3.548   2.002 -1.7247 -0.0956  1.1336
 7435SOL    HW329513   5.342   3.634   2.091  2.6266 -0.9019 -1.9584
 7435SOL    MW429514   5.290   3.625   2.021 -0.1695 -0.4275 -0.1373
 7436SOL     OW29515   1.654   4.826   2.144 -0.0496 -0.0635 -0.3586
 7436SOL    HW229516   1.565   4.815   2.111 -0.9938  2.2662  1.2003
 7436SOL    HW329517   1.649   4.799   2.236  1.1779 -1.0058 -0.5318
 7436SOL    MW429518   1.642   4.821   2.152 -0.0123  0.1195 -0.1757
 7437SOL     OW29519   1.074   4.414   4.908  0.4627 -0.1399  0.0020
 7437SOL    HW229520   1.136   4.376   4.971 -0.5783 -2.2976 -0.1545
 7437SOL    HW329521   1.114   4.399   4.823  1.3408  1.7431  0.0454
 7437SOL    MW429522   1.087   4.407   4.905  0.4412 -0.1762 -0.0129
 7438SOL     OW29523   2.501   5.597   0.815 -0.0342  0.3234  0.0691
 7438SOL    HW229524   2.553   5.645   0.751  0.3517  0.3828  0.4166
 7438SOL    HW329525   2.564   5.540   0.859 -0.3574  0.0244  0.1504
 7438SOL    MW429526   2.516   5.596   0.812 -0.0259  0.2918  0.1257
 7439SOL     OW29527   1.721   5.139   6.292  0.2102  0.1389 -0.5683
 7439SOL    HW229528   1.755   5.068   6.348  1.0032 -0.1924 -1.4410
 7439SOL    HW329529   1.792   5.202   6.287  0.9677 -0.8031 -2.8336
 7439SOL    MW429530   1.735   5.138   6.299  0.4147 -0.0291 -0.9823
 7440SOL     OW29531   0.494   3.344   0.304 -0.0033 -0.4079  0.1565
 7440SOL    HW229532   0.440   3.274   0.268 -2.1785  0.3860  1.6833
 7440SOL    HW329533   0.468   3.350   0.396  2.1255  0.5930  0.7495
 7440SOL    MW429534   0.484   3.335   0.311 -0.0094 -0.1711  0.4362
 7441SOL     OW29535   6.369   6.326   1.681  0.8164  0.5165 -0.4500
 7441SOL    HW229536   6.275   6.334   1.695  0.6168  0.0752 -1.4457
 7441SOL    HW329537   6.389   6.235   1.704  1.3937  1.1571  1.7823
 7441SOL    MW429538   6.359   6.315   1.686  0.8662  0.5428 -0.2869
 7442SOL     OW29539   3.835   3.171   5.302 -0.2259  0.6362 -0.1859
 7442SOL    HW229540   3.771   3.170   5.231 -1.7759 -0.4450  1.1525
 7442SOL    HW329541   3.852   3.078   5.319 -0.1830  0.8715  1.1018
 7442SOL    MW429542   3.829   3.158   5.295 -0.4248  0.5246  0.1606
 7443SOL     OW29543   3.086   2.537   2.628  0.3482 -0.6543 -0.1146
 7443SOL    HW229544   3.125   2.611   2.582 -0.3559 -1.4039 -2.0298
 7443SOL    HW329545   3.076   2.566   2.719  2.9847  0.4418 -0.1072
 7443SOL    MW429546   3.090   2.550   2.634  0.6031 -0.6086 -0.3663
 7444SOL     OW29547   1.619   5.205   5.033  0.2100 -0.0403  0.4021
 7444SOL    HW229548   1.693   5.221   5.090  1.9966 -1.2026 -1.4419
 7444SOL    HW329549   1.607   5.110   5.035 -0.5183  0.0301 -0.1601
 7444SOL    MW429550   1.627   5.194   5.040  0.3496 -0.1843  0.0847
 7445SOL     OW29551   2.803   4.802   0.850 -0.3063  0.1140 -0.2185
 7445SOL    HW229552   2.886   4.758   0.831  1.1011  1.6691  1.7495
 7445SOL    HW329553   2.758   4.743   0.910 -0.2760 -0.4153 -0.7155
 7445SOL    MW429554   2.808   4.789   0.856 -0.1166  0.2494 -0.0244
 7446SOL     OW29555   2.825   2.985   2.514 -0.2280 -0.0209 -0.1551
 7446SOL    HW229556   2.804   2.928   2.439  0.0022  0.8068 -0.8593
 7446SOL    HW329557   2.902   3.034   2.486 -1.0606  1.4299  0.0093
 7446SOL    MW429558   2.832   2.984   2.500 -0.3075  0.2797 -0.2263
 7447SOL     OW29559   4.122   4.536   1.711  0.0406  0.2118  0.4143
 7447SOL    HW229560   4.161   4.500   1.791 -0.2478 -0.9064  0.0678
 7447SOL    HW329561   4.032   4.556   1.736 -1.0250 -2.9655 -0.3245
 7447SOL    MW429562   4.115   4.534   1.725 -0.1380 -0.3550  0.2711
 7448SOL     OW29563   2.180   6.394   5.857 -0.1121 -0.0441 -0.2070
 7448SOL    HW229564   2.228   6.458   5.805  0.6902  0.8168  1.5028
 7448SOL    HW329565   2.091   6.396   5.822  0.0120  1.6757 -0.5126
 7448SOL    MW429566   2.175   6.403   5.846  0.0101  0.2964 -0.0218
 7449SOL     OW29567   0.536   2.117   0.222 -0.2980  0.3571 -0.0465
 7449SOL    HW229568   0.609   2.147   0.276  0.2152  1.0927 -1.1140
 7449SOL    HW329569   0.483   2.195   0.208  0.3286  0.5254 -1.7374
 7449SOL    MW429570   0.539   2.131   0.227 -0.1476  0.4763 -0.4105
 7450SOL     OW29571   4.771   5.689   5.847  0.4265  0.3622 -0.5495
 7450SOL    HW229572   4.697   5.635   5.876  2.1815 -0.7182  2.3014
 7450SOL    HW329573   4.731   5.753   5.788 -2.3609 -1.6813 -1.1139
 7450SOL    MW429574   4.756   5.691   5.843  0.2903 -0.0500 -0.2478
 7451SOL     OW29575   3.287   5.932   1.201 -0.3988 -0.2595  0.4580
 7451SOL    HW229576   3.355   5.954   1.265 -0.8464 -3.0111  2.0381
 7451SOL    HW329577   3.334   5.889   1.130 -0.3032 -0.8562  0.8744
 7451SOL    MW429578   3.302   5.929   1.200 -0.4452 -0.7013  0.7214
 7452SOL     OW29579   5.566   4.479   1.656 -0.1760 -0.2558  0.0793
 7452SOL    HW229580   5.546   4.474   1.562 -0.1293 -0.7812  0.0968
 7452SOL    HW329581   5.561   4.572   1.676 -1.6143 -0.2646 -0.1338
 7452SOL    MW429582   5.563   4.491   1.646 -0.3596 -0.3262  0.0535
 7453SOL     OW29583   1.066   0.339   2.520  0.2850  0.0939  0.0545
 7453SOL    HW229584   1.067   0.301   2.432 -0.6873  3.2679 -1.4874
 7453SOL    HW329585   1.123   0.416   2.514 -0.8468  1.1470  1.7871
 7453SOL    MW429586   1.074   0.344   2.507  0.0074  0.6516  0.0797
 7454SOL     OW29587   0.647   0.743   1.115 -0.1480  0.5080  0.2470
 7454SOL    HW229588   0.587   0.812   1.145 -0.8603 -0.4177  1.0373
 7454SOL    HW329589   0.723   0.751   1.172 -0.2241  0.6539  0.3280
 7454SOL    MW429590   0.649   0.753   1.127 -0.2521  0.4051  0.3620
 7455SOL     OW29591   1.558   4.928   1.715  0.1493 -0.7592 -0.0003
 7455SOL    HW229592   1.608   4.936   1.796  1.7452 -1.1889 -0.9104
 7455SOL    HW329593   1.540   4.834   1.707 -2.5636 -0.4528  1.2847
 7455SOL    MW429594   1.562   4.917   1.725  0.0020 -0.7755  0.0491
 7456SOL     OW29595   1.048   2.320   0.727 -0.4906 -0.1335  0.4732
 7456SOL    HW229596   1.096   2.239   0.743 -1.1858 -0.9172 -1.1445
 7456SOL    HW329597   1.023   2.352   0.814 -1.0072 -2.1575  1.1129
 7456SOL    MW429598   1.051   2.314   0.740 -0.6505 -0.5039  0.3442
 7457SOL     OW29599   5.925   2.841   1.827 -0.3346  0.3914  0.3205
 7457SOL    HW229600   5.881   2.793   1.757  2.1557 -0.8062 -0.5247
 7457SOL    HW329601   5.869   2.918   1.842 -1.8780 -0.2573 -1.6795
 7457SOL    MW429602   5.912   2.845   1.820 -0.2097  0.1478 -0.0549
 7458SOL     OW29603   4.132   0.609   1.914 -0.2298 -0.1542 -0.0127
 7458SOL    HW229604   4.213   0.587   1.960  0.7388  2.1274 -0.5064
 7458SOL    HW329605   4.107   0.528   1.870  2.0227 -0.8181 -0.1877
 7458SOL    MW429606   4.140   0.595   1.915  0.1952  0.0592 -0.1009
 7459SOL     OW29607   2.014   5.196   3.645  0.2411 -0.0883 -0.4648
 7459SOL    HW229608   2.079   5.265   3.659  0.4361 -0.7226  2.4124
 7459SOL    HW329609   2.036   5.159   3.559  1.1606  2.2910 -1.3431
 7459SOL    MW429610   2.026   5.200   3.636  0.3881  0.1419 -0.2010
 7460SOL     OW29611   4.539   2.591   5.093  0.3673  0.3955  0.1117
 7460SOL    HW229612   4.445   2.577   5.105  0.5942 -0.3618  1.1538
 7460SOL    HW329613   4.545   2.656   5.023 -0.9030 -0.4066 -0.7850
 7460SOL    MW429614   4.528   2.598   5.085  0.2296  0.1897  0.1309
 7461SOL     OW29615   2.937   0.261   0.933  0.2445  0.2049  0.0051
 7461SOL    HW229616   2.906   0.176   0.901  0.6543  0.4654 -1.1206
 7461SOL    HW329617   2.910   0.263   1.025 -0.1141 -0.9754 -0.0586
 7461SOL    MW429618   2.929   0.250   0.941  0.2513  0.0835 -0.1518
 7462SOL     OW29619   2.967   0.541   1.180 -0.1103 -0.3963  0.0284
 7462SOL    HW229620   3.049   0.493   1.167  0.1693  0.2846 -0.8211
 7462SOL    HW329621   2.933   0.555   1.092 -0.4226  0.5654  0.2903
 7462SOL    MW429622   2.973   0.537   1.167 -0.1146 -0.1796 -0.0491
 7463SOL     OW29623   2.319   5.620   2.472 -0.1156 -0.1485  0.3849
 7463SOL    HW229624   2.273   5.657   2.397 -2.8095 -2.1548  0.9011
 7463SOL    HW329625   2.254   5.621   2.543  1.9012  0.3952  2.3595
 7463SOL    MW429626   2.304   5.625   2.472 -0.2049 -0.3415  0.7135
 7464SOL     OW29627   3.891   3.185   0.743  0.3523 -0.5085  0.4402
 7464SOL    HW229628   3.928   3.225   0.821 -1.8545  0.5543  0.9996
 7464SOL    HW329629   3.965   3.177   0.682  1.3572  2.2181  1.2024
 7464SOL    MW429630   3.906   3.189   0.745  0.1937 -0.0085  0.6145
 7465SOL     OW29631   6.347   4.754   2.073 -0.0741  0.3627 -0.5228
 7465SOL    HW229632   6.320   4.844   2.089  1.8999  0.9811 -0.4073
 7465SOL    HW329633   6.433   4.746   2.116 -0.2945 -1.6362 -0.3522
 7465SOL    MW429634   6.355   4.765   2.081  0.1573  0.1806 -0.4851
 7466SOL     OW29635   1.217   2.518   2.788  0.2995 -0.8501 -0.0551
 7466SOL    HW229636   1.191   2.610   2.791  2.0234 -0.1496 -2.8753
 7466SOL    HW329637   1.309   2.520   2.762  0.1433 -3.3834 -1.0784
 7466SOL    MW429638   1.226   2.531   2.785  0.5064 -1.0919 -0.5622
 7467SOL     OW29639   1.910   6.099   4.964 -0.3704  0.0165  0.2314
 7467SOL    HW229640   1.892   6.095   4.870 -1.2910  1.4803  0.3118
 7467SOL    HW329641   1.832   6.139   5.002  0.4089  0.4240  1.4833
 7467SOL    MW429642   1.898   6.104   4.956 -0.3890  0.2634  0.4072
 7468SOL     OW29643   4.943   2.761   0.158 -0.1399 -0.1048  0.3133
 7468SOL    HW229644   4.876   2.778   0.224 -0.5592  0.4558 -0.2387
 7468SOL    HW329645   4.894   2.751   0.077  0.3154 -1.5002  0.1967
 7468SOL    MW429646   4.928   2.762   0.156 -0.1351 -0.2150  0.2251
 7469SOL     OW29647   2.668   3.194   6.400 -0.3438 -0.0921  0.1746
 7469SOL    HW229648   2.613   3.264   6.435  0.0003 -0.3253  1.2047
 7469SOL    HW329649   2.696   3.144   6.477  0.8673 -0.2959 -0.3724
 7469SOL    MW429650   2.664   3.197   6.415 -0.1386 -0.1497  0.2384
 7470SOL     OW29651   4.348   4.003   0.447 -0.2173  0.2267 -0.0318
 7470SOL    HW229652   4.400   4.083   0.442  0.2092 -0.0076  0.4902
 7470SOL    HW329653   4.340   3.985   0.541  1.7394 -1.6362 -0.1450
 7470SOL    MW429654   4.354   4.011   0.459  0.0972 -0.0500  0.0221
 7471SOL     OW29655   5.194   0.427   4.383  0.5263 -0.3781  0.2039
 7471SOL    HW229656   5.164   0.491   4.319 -0.8591 -0.3933  0.8199
 7471SOL    HW329657   5.260   0.473   4.434  1.6100 -0.3452 -1.1648
 7471SOL    MW429658   5.199   0.442   4.381  0.4865 -0.3758  0.1046
 7472SOL     OW29659   6.079   1.134   0.705 -0.0445  0.2963 -0.1670
 7472SOL    HW229660   6.024   1.056   0.699  0.7117 -0.3565  0.9450
 7472SOL    HW329661   6.119   1.128   0.792  2.8478 -0.0098 -1.4027
 7472SOL    MW429662   6.077   1.123   0.716  0.4369  0.1698 -0.1833
 7473SOL     OW29663   1.325   6.136   5.012  0.6738 -0.3901  0.5140
 7473SOL    HW229664   1.282   6.222   5.017  1.2297 -0.0815  0.0034
 7473SOL    HW329665   1.391   6.146   4.944  1.0997 -1.0696  0.8199
 7473SOL    MW429666   1.328   6.149   5.004  0.8034 -0.4391  0.4870
 7474SOL     OW29667   5.319   1.951   2.999 -0.4750  0.3589 -0.1707
 7474SOL    HW229668   5.397   1.966   3.052 -0.2092  0.1415 -0.4910
 7474SOL    HW329669   5.246   1.959   3.060 -0.1253 -0.8747  0.4483
 7474SOL    MW429670   5.320   1.954   3.014 -0.3938  0.1674 -0.1313
 7475SOL     OW29671   5.850   4.846   3.976  0.0398  0.7078 -0.2025
 7475SOL    HW229672   5.884   4.827   4.063 -1.3794  1.2248  0.4929
 7475SOL    HW329673   5.831   4.940   3.977  2.3240  1.2988 -1.9348
 7475SOL    MW429674   5.852   4.856   3.987  0.1539  0.8540 -0.3393
 7476SOL     OW29675   2.323   4.427   2.869  0.1659  0.3599 -0.2571
 7476SOL    HW229676   2.284   4.351   2.912  0.7332  0.3012  0.1614
 7476SOL    HW329677   2.406   4.395   2.832 -0.2413  0.4431 -1.2811
 7476SOL    MW429678   2.329   4.413   2.870  0.1870  0.3632 -0.3370
 7477SOL     OW29679   3.523   3.812   0.684  0.1819 -0.0363  0.1820
 7477SOL    HW229680   3.600   3.868   0.691  1.7783 -2.1606  0.8009
 7477SOL    HW329681   3.467   3.856   0.620  1.6859  1.8158  0.0510
 7477SOL    MW429682   3.525   3.825   0.676  0.5910 -0.0722  0.2464
 7478SOL     OW29683   2.873   6.182   6.355  0.1598  0.5927 -0.4369
 7478SOL    HW229684   2.845   6.236   6.281 -0.8627  0.9556  0.1975
 7478SOL    HW329685   2.816   6.208   6.427  0.8061 -0.1112  0.3514
 7478SOL    MW429686   2.862   6.192   6.355  0.1101  0.5477 -0.2492
 7479SOL     OW29687   0.051   5.519   2.526  0.2995  0.2305  0.4323
 7479SOL    HW229688   0.075   5.438   2.572 -0.4553  0.0031  0.4453
 7479SOL    HW329689   0.111   5.524   2.452 -0.0967 -0.7165  0.0295
 7479SOL    MW429690   0.062   5.509   2.523  0.1476  0.0756  0.3809
 7480SOL     OW29691   0.756   3.856   1.373  0.1637 -0.2549 -0.1121
 7480SOL    HW229692   0.803   3.930   1.410 -0.7807  0.4420 -0.2750
 7480SOL    HW329693   0.760   3.788   1.441 -1.1617  0.8468  1.1187
 7480SOL    MW429694   0.763   3.857   1.387 -0.1358 -0.0176  0.0288
 7481SOL     OW29695   5.474   3.337   1.043  0.0203 -0.2934 -0.3526
 7481SOL    HW229696   5.429   3.299   0.967  0.8816  1.2645 -1.7159
 7481SOL    HW329697   5.566   3.334   1.020  0.1693  1.8639 -0.2018
 7481SOL    MW429698   5.480   3.332   1.030  0.1536  0.1968 -0.5126
 7482SOL     OW29699   2.702   4.946   3.510  0.1119 -0.4278  0.1075
 7482SOL    HW229700   2.666   4.989   3.588  0.2814  2.8154 -1.4695
 7482SOL    HW329701   2.773   4.891   3.544 -0.6608 -0.1341  2.3590
 7482SOL    MW429702   2.707   4.944   3.525  0.0324  0.0389  0.1965
 7483SOL     OW29703   0.803   5.273   4.415 -0.1323 -0.2015  0.3219
 7483SOL    HW229704   0.858   5.241   4.344 -0.2089 -2.4706  1.1977
 7483SOL    HW329705   0.855   5.342   4.456  1.4205 -1.2413  0.1772
 7483SOL    MW429706   0.817   5.278   4.411  0.0624 -0.6381  0.4184
 7484SOL     OW29707   1.277   3.336   0.592 -0.1356  0.4543 -0.1606
 7484SOL    HW229708   1.187   3.358   0.566  0.0374  0.3396 -0.8830
 7484SOL    HW329709   1.322   3.319   0.509  1.0503  2.3519  0.0465
 7484SOL    MW429710   1.271   3.336   0.578  0.0437  0.6895 -0.2286
 7485SOL     OW29711   5.707   3.337   1.381  0.3595 -0.1099 -0.7232
 7485SOL    HW229712   5.776   3.364   1.442 -0.3006 -0.0507  0.0182
 7485SOL    HW329713   5.635   3.397   1.399 -1.1768 -2.2932  1.0079
 7485SOL    MW429714   5.707   3.348   1.392  0.0697 -0.3901 -0.3970
 7486SOL     OW29715   5.650   1.406   0.172  0.1630 -0.1576 -0.3729
 7486SOL    HW229716   5.621   1.321   0.205 -2.6354  0.8327  0.0029
 7486SOL    HW329717   5.665   1.392   0.079 -1.6806 -0.8064 -0.6145
 7486SOL    MW429718   5.648   1.393   0.164 -0.4494 -0.1126 -0.3552
 7487SOL     OW29719   4.414   4.708   0.752 -0.2416  0.2439 -0.4182
 7487SOL    HW229720   4.356   4.644   0.793  0.5413 -0.1985  0.0102
 7487SOL    HW329721   4.384   4.793   0.785 -0.6025  0.0142 -0.1586
 7487SOL    MW429722   4.402   4.711   0.762 -0.1859  0.1552 -0.3275
 7488SOL     OW29723   1.030   2.450   5.261  0.8964 -0.5844  0.2175
 7488SOL    HW229724   1.052   2.358   5.254 -0.7834 -1.1139  1.1660
 7488SOL    HW329725   1.047   2.473   5.352  3.3082  0.6661 -0.4686
 7488SOL    MW429726   1.035   2.441   5.272  0.9929 -0.4892  0.2521
 7489SOL     OW29727   2.276   0.740   2.292  0.4340  0.4184  0.4743
 7489SOL    HW229728   2.281   0.670   2.228 -0.5482  0.3958  0.3995
 7489SOL    HW329729   2.311   0.817   2.247 -0.0298  0.3507 -0.0089
 7489SOL    MW429730   2.281   0.741   2.278  0.2432  0.4065  0.4006
 7490SOL     OW29731   1.957   6.094   2.788  0.5034  0.0246  0.1340
 7490SOL    HW229732   1.976   6.027   2.854  0.6028 -0.6162 -0.5352
 7490SOL    HW329733   1.880   6.140   2.823 -0.4083 -1.3154 -0.0209
 7490SOL    MW429734   1.949   6.091   2.802  0.3962 -0.2367  0.0253
 7491SOL     OW29735   0.804   1.219   2.881  0.4058  0.1609 -0.1665
 7491SOL    HW229736   0.753   1.291   2.844  2.3594  1.4124 -0.5985
 7491SOL    HW329737   0.741   1.167   2.931 -1.8636 -0.1915 -3.1605
 7491SOL    MW429738   0.789   1.222   2.883  0.3641  0.2796 -0.6185
 7492SOL     OW29739   6.261   4.143   5.037 -0.1924 -0.4655  0.0218
 7492SOL    HW229740   6.203   4.171   4.967 -0.3740  0.5338  0.5608
 7492SOL    HW329741   6.203   4.125   5.111  0.1052 -0.3371  0.2875
 7492SOL    MW429742   6.246   4.144   5.037 -0.1771 -0.3167  0.1279
 7493SOL     OW29743   4.342   4.751   5.167 -0.5973 -0.4349  0.2114
 7493SOL    HW229744   4.317   4.704   5.246 -0.4888 -1.8838 -0.5905
 7493SOL    HW329745   4.419   4.705   5.135  0.6453  1.4192  0.3702
 7493SOL    MW429746   4.349   4.739   5.173 -0.4190 -0.3814  0.1266
 7494SOL     OW29747   3.695   4.322   3.992  0.4143  0.1454 -0.0048
 7494SOL    HW229748   3.601   4.302   4.000  0.5525 -0.9567 -0.8300
 7494SOL    HW329749   3.738   4.237   3.996  1.2145  0.4301 -1.6990
 7494SOL    MW429750   3.688   4.308   3.993  0.5381  0.0376 -0.3372
 7495SOL     OW29751   4.021   5.317   3.087 -0.5598 -0.0675  0.1024
 7495SOL    HW229752   3.948   5.308   3.027 -1.0092  0.9467  0.4799
 7495SOL    HW329753   4.074   5.238   3.073  1.9499  2.0446 -5.0675
 7495SOL    MW429754   4.019   5.305   3.077 -0.2880  0.3450 -0.5299
 7496SOL     OW29755   3.854   2.574   4.719  0.5373  0.1767 -0.5018
 7496SOL    HW229756   3.762   2.554   4.698  0.8934 -1.7675 -0.3912
 7496SOL    HW329757   3.872   2.654   4.669 -1.0941  0.3909 -0.8348
 7496SOL    MW429758   3.844   2.582   4.710  0.3691 -0.0516 -0.5311
 7497SOL     OW29759   5.714   5.185   0.554 -0.0572  0.3926 -0.3048
 7497SOL    HW229760   5.771   5.261   0.547  0.4827 -0.1378 -4.0364
 7497SOL    HW329761   5.629   5.221   0.579  0.8736  1.7355  1.1001
 7497SOL    MW429762   5.710   5.200   0.556  0.1368  0.4998 -0.6118
 7498SOL     OW29763   2.602   5.995   0.132  0.5278  0.0774  0.2960
 7498SOL    HW229764   2.544   5.990   0.056 -0.0429  0.2580  0.7147
 7498SOL    HW329765   2.614   6.088   0.147 -1.7272  0.1526  2.1790
 7498SOL    MW429766   2.596   6.006   0.124  0.1550  0.1112  0.5997
 7499SOL     OW29767   3.169   4.258   0.317  0.3745 -0.2964  0.3055
 7499SOL    HW229768   3.113   4.294   0.248  0.9845 -2.1620 -1.2776
 7499SOL    HW329769   3.211   4.182   0.276  0.8835 -1.4176  2.7013
 7499SOL    MW429770   3.167   4.253   0.303  0.5222 -0.6905  0.4127
 7500SOL     OW29771   2.156   2.276   2.390 -0.1176 -0.0828 -0.0224
 7500SOL    HW229772   2.233   2.263   2.445  0.9593  1.4252 -1.1006
 7500SOL    HW329773   2.153   2.198   2.335 -0.2243 -0.8243  1.0161
 7500SOL    MW429774   2.166   2.264   2.390  0.0104  0.0183 -0.0276
 7501SOL     OW29775   2.422   6.097   3.219  0.1508  0.3399  0.4502
 7501SOL    HW229776   2.362   6.023   3.225 -1.0548  1.0192 -1.9337
 7501SOL    HW329777   2.481   6.086   3.293 -0.9773 -2.0903  1.0918
 7501SOL    MW429778   2.422   6.086   3.230 -0.1571  0.1089  0.2203
 7502SOL     OW29779   0.521   5.017   1.204  0.0375  0.0011 -0.3527
 7502SOL    HW229780   0.492   5.105   1.179  0.6335 -0.0419 -1.2324
 7502SOL    HW329781   0.597   5.000   1.149  0.4171 -0.7508  0.3877
 7502SOL    MW429782   0.527   5.026   1.193  0.1663 -0.1038 -0.3711
 7503SOL     OW29783   0.858   2.176   4.113 -0.0743  0.0966  0.5866
 7503SOL    HW229784   0.916   2.184   4.037  0.2273  4.0821  1.0247
 7503SOL    HW329785   0.898   2.108   4.167  2.2301  0.2736 -0.7476
 7503SOL    MW429786   0.871   2.168   4.110  0.2695  0.6458  0.4684
 7504SOL     OW29787   0.149   0.374   4.570  0.2296  0.3577  0.7516
 7504SOL    HW229788   0.225   0.322   4.595 -0.6581 -1.8694 -0.8769
 7504SOL    HW329789   0.186   0.449   4.524  1.5011  0.3739  1.7379
 7504SOL    MW429790   0.164   0.377   4.567  0.2803  0.0660  0.6669
 7505SOL     OW29791   2.132   0.101   0.179 -0.3328  0.0543 -0.0909
 7505SOL    HW229792   2.098   0.183   0.143 -0.1468 -0.8007 -2.3124
 7505SOL    HW329793   2.053   0.051   0.202 -0.4526  0.4036  0.2946
 7505SOL    MW429794   2.117   0.105   0.178 -0.3241 -0.0124 -0.3331
 7506SOL     OW29795   4.660   2.916   5.958 -0.3208 -0.1870 -0.0430
 7506SOL    HW229796   4.591   2.868   6.003 -0.2937 -0.6057 -0.4453
 7506SOL    HW329797   4.735   2.914   6.019 -0.8446  0.8212  0.6774
 7506SOL    MW429798   4.661   2.909   5.972 -0.3863 -0.1092 -0.0010
 7507SOL     OW29799   5.255   4.708   1.870 -0.2201  0.3026 -0.0334
 7507SOL    HW229800   5.309   4.720   1.792 -0.3410 -0.3963 -0.2311
 7507SOL    HW329801   5.214   4.793   1.885  1.6708  1.1502  0.6788
 7507SOL    MW429802   5.257   4.720   1.862  0.0134  0.3222  0.0345
 7508SOL     OW29803   5.000   4.608   3.388  0.1416  0.2515  0.5491
 7508SOL    HW229804   4.953   4.607   3.471 -2.0513 -1.1422 -0.6111
 7508SOL    HW329805   5.041   4.695   3.385 -0.4465  0.6538  2.6745
 7508SOL    MW429806   4.999   4.619   3.399 -0.2253  0.1207  0.6764
 7509SOL     OW29807   6.376   5.013   1.820 -0.1679  0.2437 -0.8469
 7509SOL    HW229808   6.329   4.931   1.803 -0.4465  0.0131  0.8726
 7509SOL    HW329809   6.434   4.993   1.894  0.1406  1.4599 -0.7370
 7509SOL    MW429810   6.377   5.000   1.827 -0.1640  0.3738 -0.6055
 7510SOL     OW29811   4.442   0.277   5.815 -0.0469 -0.1229  0.1133
 7510SOL    HW229812   4.403   0.323   5.889 -1.9488 -1.3255 -0.0494
 7510SOL    HW329813   4.441   0.185   5.841  0.7895 -0.3890 -0.7610
 7510SOL    MW429814   4.437   0.271   5.828 -0.1875 -0.3167 -0.0235
 7511SOL     OW29815   3.975   3.827   2.216 -0.5263  0.1147 -0.1097
 7511SOL    HW229816   3.921   3.892   2.171 -2.1086 -1.3998 -0.4939
 7511SOL    HW329817   4.025   3.785   2.146  0.0282  0.4677  0.0650
 7511SOL    MW429818   3.974   3.830   2.201 -0.6619 -0.0386 -0.1374
 7512SOL     OW29819   1.540   6.275   2.381  0.3106 -0.0191  0.2782
 7512SOL    HW229820   1.533   6.340   2.311  1.2507 -1.2038 -0.9643
 7512SOL    HW329821   1.629   6.241   2.374 -0.0170 -1.1324  1.1938
 7512SOL    MW429822   1.551   6.279   2.371  0.3914 -0.3223  0.2351
 7513SOL     OW29823   4.230   3.071   3.549  0.2399 -0.4879 -0.8739
 7513SOL    HW229824   4.158   3.134   3.549  1.8225  1.4424 -1.4693
 7513SOL    HW329825   4.254   3.060   3.641 -0.0891 -0.2715 -0.7629
 7513SOL    MW429826   4.224   3.078   3.561  0.4053 -0.2046 -0.9378
 7514SOL     OW29827   3.396   1.250   6.374  0.3890 -0.8811 -0.0907
 7514SOL    HW229828   3.430   1.205   6.296 -0.0361 -1.9001  0.2948
 7514SOL    HW329829   3.401   1.185   6.443 -0.3864 -0.3773  0.4546
 7514SOL    MW429830   3.401   1.236   6.373  0.2306 -0.9491  0.0321
 7515SOL     OW29831   4.073   3.151   4.242  0.2043 -0.1159 -0.5688
 7515SOL    HW229832   4.137   3.094   4.199  0.0018 -0.3546 -0.5562
 7515SOL    HW329833   4.040   3.207   4.172  2.4227  1.9464 -0.1285
 7515SOL    MW429834   4.077   3.151   4.227  0.4703  0.1247 -0.5090
 7516SOL     OW29835   1.436   5.801   4.579  0.2190  0.5972  0.1657
 7516SOL    HW229836   1.363   5.862   4.593 -2.4207 -2.2302 -0.1964
 7516SOL    HW329837   1.514   5.854   4.591 -1.8308  4.2240 -0.9348
 7516SOL    MW429838   1.436   5.816   4.582 -0.3998  0.7027 -0.0273
 7517SOL     OW29839   0.417   4.387   1.031  0.0654  0.1157  0.4652
 7517SOL    HW229840   0.340   4.440   1.051 -2.1219 -2.2933 -0.9113
 7517SOL    HW329841   0.411   4.370   0.937  1.1174 -1.8121  0.6998
 7517SOL    MW429842   0.406   4.392   1.021 -0.0844 -0.4565  0.3146
 7518SOL     OW29843   1.767   2.819   0.243 -0.2729 -0.2702  0.0275
 7518SOL    HW229844   1.812   2.824   0.159  1.2155  0.9083  0.8528
 7518SOL    HW329845   1.819   2.759   0.296 -1.0011 -0.7294  0.2508
 7518SOL    MW429846   1.780   2.812   0.239 -0.1726 -0.1753  0.1659
 7519SOL     OW29847   0.317   3.060   0.483 -0.2619  0.0207 -0.7181
 7519SOL    HW229848   0.331   3.026   0.395  2.8747  0.6469 -0.5705
 7519SOL    HW329849   0.365   3.000   0.540 -2.1197 -0.2924  0.6355
 7519SOL    MW429850   0.325   3.047   0.479 -0.0932  0.0620 -0.5200
 7520SOL     OW29851   6.329   2.114   5.493  0.5540  0.1270  0.0521
 7520SOL    HW229852   6.351   2.200   5.455 -0.5534  1.0104  1.3070
 7520SOL    HW329853   6.357   2.051   5.427 -0.0419  1.5320 -1.6193
 7520SOL    MW429854   6.336   2.117   5.479  0.3293  0.4289 -0.0028
 7521SOL     OW29855   6.293   0.786   0.551 -0.3092 -0.3154 -0.2216
 7521SOL    HW229856   6.324   0.705   0.592  0.8794  1.1216  1.8791
 7521SOL    HW329857   6.366   0.815   0.497  0.3719  0.7331  1.1993
 7521SOL    MW429858   6.307   0.779   0.549 -0.0625  0.0125  0.2430
 7522SOL     OW29859   6.334   4.031   3.817 -0.4360 -0.2684  0.0513
 7522SOL    HW229860   6.393   4.069   3.882 -0.4294 -1.0485  0.5222
 7522SOL    HW329861   6.352   4.079   3.737 -0.1009  0.3935  0.5115
 7522SOL    MW429862   6.344   4.043   3.815 -0.3910 -0.2840  0.1742
 7523SOL     OW29863   4.950   5.862   1.050  0.1298 -0.1858 -1.2297
 7523SOL    HW229864   4.955   5.900   0.962  2.6513  0.5995 -0.8304
 7523SOL    HW329865   5.034   5.820   1.063 -0.0776 -0.0742  0.9031
 7523SOL    MW429866   4.961   5.862   1.040  0.4351 -0.0675 -0.8956
 7524SOL     OW29867   4.419   0.728   3.756 -0.4289 -0.5767  0.0889
 7524SOL    HW229868   4.356   0.783   3.710  1.5825  0.0238 -2.1312
 7524SOL    HW329869   4.435   0.773   3.839 -0.9284  0.6504 -0.4686
 7524SOL    MW429870   4.413   0.741   3.761 -0.2294 -0.3356 -0.2776
 7525SOL     OW29871   2.632   2.527   1.825 -0.0869  0.2154 -0.2414
 7525SOL    HW229872   2.637   2.553   1.733 -0.5065 -0.1176 -0.3608
 7525SOL    HW329873   2.601   2.436   1.823 -1.1539  0.5443  0.2603
 7525SOL    MW429874   2.628   2.519   1.812 -0.2830  0.2148 -0.1910
 7526SOL     OW29875   6.084   2.339   5.644  0.7840  0.0310 -0.1789
 7526SOL    HW229876   6.085   2.373   5.733  0.3291  0.3725 -0.3008
 7526SOL    HW329877   6.083   2.244   5.655 -1.6879  0.0189  0.2515
 7526SOL    MW429878   6.084   2.331   5.657  0.3978  0.0745 -0.1382
 7527SOL     OW29879   4.892   4.172   2.233 -0.0174  0.2357  0.1187
 7527SOL    HW229880   4.818   4.115   2.211 -1.0396  1.7734 -0.5969
 7527SOL    HW329881   4.886   4.245   2.172  1.7804  0.6979  0.4207
 7527SOL    MW429882   4.881   4.174   2.222  0.0849  0.4996  0.0642
 7528SOL     OW29883   1.437   0.919   5.287  0.7990 -0.2984  0.0493
 7528SOL    HW229884   1.420   0.839   5.338 -0.8720  0.6727  1.0925
 7528SOL    HW329885   1.361   0.974   5.303  1.4108  1.0821 -1.5423
 7528SOL    MW429886   1.425   0.915   5.296  0.6592  0.0119 -0.0230
 7529SOL     OW29887   4.594   4.338   5.470 -0.5631  0.0145 -0.1152
 7529SOL    HW229888   4.674   4.296   5.499 -1.3822 -1.2402  0.4255
 7529SOL    HW329889   4.581   4.410   5.531 -0.1436 -0.1259  0.1450
 7529SOL    MW429890   4.602   4.342   5.481 -0.6158 -0.1696 -0.0096
 7530SOL     OW29891   0.495   2.889   0.579 -0.3647  0.3946 -0.0996
 7530SOL    HW229892   0.444   2.836   0.518 -1.8150 -0.0157  1.4162
 7530SOL    HW329893   0.583   2.851   0.575 -0.4258  0.3578 -1.8620
 7530SOL    MW429894   0.500   2.877   0.570 -0.5641  0.3356 -0.1321
 7531SOL     OW29895   1.051   4.836   3.003  0.1645  0.0318 -0.3616
 7531SOL    HW229896   1.117   4.769   3.024  0.7876  0.1154 -1.9122
 7531SOL    HW329897   0.974   4.786   2.976  0.4368 -0.0767 -0.9556
 7531SOL    MW429898   1.050   4.820   3.002  0.2826  0.0285 -0.6446
 7532SOL     OW29899   3.296   3.154   5.280  0.8795 -0.1887  0.2887
 7532SOL    HW229900   3.217   3.138   5.332  0.2918 -1.5815 -0.9627
 7532SOL    HW329901   3.342   3.070   5.280  0.6541 -0.3630 -1.7180
 7532SOL    MW429902   3.292   3.141   5.287  0.7722 -0.3954 -0.1412
 7533SOL     OW29903   1.088   4.672   0.038  0.3616 -0.0090 -0.2835
 7533SOL    HW229904   1.023   4.734   0.068  2.5412  1.8298  0.9929
 7533SOL    HW329905   1.058   4.587   0.070 -0.9553  0.8925  0.9743
 7533SOL    MW429906   1.076   4.669   0.046  0.4754  0.3526  0.0509
 7534SOL     OW29907   5.823   1.404   3.357 -0.8835  0.0333 -0.0733
 7534SOL    HW229908   5.816   1.330   3.417  0.1394 -1.1242 -1.3374
 7534SOL    HW329909   5.880   1.373   3.287  0.4646  2.3698 -0.1068
 7534SOL    MW429910   5.829   1.390   3.356 -0.5707  0.1888 -0.2445
 7535SOL     OW29911   3.378   5.812   4.585 -0.5903 -0.3984  0.1948
 7535SOL    HW229912   3.352   5.721   4.593  0.0200 -0.5034  1.0711
 7535SOL    HW329913   3.474   5.810   4.582 -0.5972  0.0557 -1.9883
 7535SOL    MW429914   3.387   5.800   4.585 -0.5107 -0.3523  0.0224
 7536SOL     OW29915   1.251   2.417   6.084 -0.3861  0.4194  0.4694
 7536SOL    HW229916   1.212   2.331   6.098  1.6720 -1.1484 -2.4046
 7536SOL    HW329917   1.282   2.444   6.171  0.2779 -2.4699  1.2316
 7536SOL    MW429918   1.250   2.409   6.098 -0.0269 -0.1687  0.1908
 7537SOL     OW29919   4.173   4.934   1.061 -0.4229 -0.0198 -0.5290
 7537SOL    HW229920   4.248   4.963   1.008 -0.3825  0.9985  0.0594
 7537SOL    HW329921   4.158   5.006   1.122  0.1158 -1.5188  1.4849
 7537SOL    MW429922   4.181   4.947   1.062 -0.3465 -0.0832 -0.1857
 7538SOL     OW29923   4.361   0.101   4.007 -0.5439 -0.2035 -0.4242
 7538SOL    HW229924   4.319   0.138   4.085  1.0503  1.7441 -0.4159
 7538SOL    HW329925   4.295   0.112   3.938 -1.1142  0.2014  0.1661
 7538SOL    MW429926   4.346   0.108   4.009 -0.4088  0.1069 -0.3452
 7539SOL     OW29927   4.194   5.415   1.512  0.3120 -0.6948  0.3010
 7539SOL    HW229928   4.152   5.365   1.582  1.0470 -1.0376  0.5039
 7539SOL    HW329929   4.270   5.362   1.486 -0.1332 -0.7433 -0.9912
 7539SOL    MW429930   4.198   5.401   1.518  0.3503 -0.7465  0.1573
 7540SOL     OW29931   4.652   3.006   5.710  0.3740  0.1828  0.4364
 7540SOL    HW229932   4.650   2.969   5.798  2.2519 -0.4085  0.2678
 7540SOL    HW329933   4.654   2.930   5.652 -0.6363  0.5707 -0.1306
 7540SOL    MW429934   4.652   2.991   5.714  0.4885  0.1560  0.3393
 7541SOL     OW29935   0.255   6.023   6.393 -0.4830  0.4663 -0.8325
 7541SOL    HW229936   0.305   6.029   6.475 -0.8186  0.8156 -0.6528
 7541SOL    HW329937   0.205   6.104   6.390  0.8188  1.2613 -2.2374
 7541SOL    MW429938   0.255   6.034   6.404 -0.3555  0.6173 -0.9941
 7542SOL     OW29939   1.805   2.034   4.809  0.5570 -0.7103 -0.0118
 7542SOL    HW229940   1.869   2.020   4.740  0.4251  0.1167 -0.3237
 7542SOL    HW329941   1.812   1.957   4.866 -0.3179 -2.1109 -1.7135
 7542SOL    MW429942   1.814   2.022   4.808  0.4242 -0.7860 -0.2775
 7543SOL     OW29943   1.186   2.918   3.481 -0.4299  0.5789 -0.3201
 7543SOL    HW229944   1.148   2.890   3.398 -0.6182  0.5587 -0.2296
 7543SOL    HW329945   1.245   2.990   3.458 -0.3211  0.4335 -0.4952
 7543SOL    MW429946   1.189   2.924   3.467 -0.4404  0.5570 -0.3312
 7544SOL     OW29947   2.980   0.739   1.409 -0.1766  0.7745  0.6756
 7544SOL    HW229948   2.972   0.661   1.354 -1.3215  1.8457 -0.7747
 7544SOL    HW329949   3.044   0.793   1.364 -1.5043  1.8879  0.0496
 7544SOL    MW429950   2.987   0.736   1.396 -0.5028  1.0627  0.4016
 7545SOL     OW29951   3.735   3.710   3.301 -0.1575  0.2669  0.6219
 7545SOL    HW229952   3.660   3.703   3.242  0.9274 -1.1107 -0.6936
 7545SOL    HW329953   3.738   3.802   3.326 -2.0330  0.4295  0.4056
 7545SOL    MW429954   3.725   3.721   3.296 -0.2618  0.1066  0.4198
 7546SOL     OW29955   6.418   1.451   3.736 -0.5780  0.2631  1.0458
 7546SOL    HW229956   6.410   1.357   3.719  0.1863  0.4826 -0.6838
 7546SOL    HW329957   6.502   1.475   3.698 -2.1663  2.2616 -1.5056
 7546SOL    MW429958   6.428   1.442   3.729 -0.6867  0.5557  0.4810
 7547SOL     OW29959   2.269   0.005   4.295  0.0316 -0.0290  0.6128
 7547SOL    HW229960   2.291  -0.056   4.366 -1.3190  2.2901  3.2271
 7547SOL    HW329961   2.341   0.068   4.294 -0.5695  0.6867  0.8819
 7547SOL    MW429962   2.281   0.005   4.304 -0.2259  0.3714  0.9932
 7548SOL     OW29963   3.922   5.409   2.167  0.3604 -0.2861  0.1784
 7548SOL    HW229964   3.867   5.438   2.240 -0.3401  0.7860 -0.7402
 7548SOL    HW329965   3.990   5.355   2.208 -0.4472 -0.3257  1.5238
 7548SOL    MW429966   3.924   5.406   2.183  0.1615 -0.1499  0.2347
 7549SOL     OW29967   0.435   1.440   5.943  0.1040 -0.6144 -0.3370
 7549SOL    HW229968   0.444   1.520   5.995  0.7973  0.8242 -2.5015
 7549SOL    HW329969   0.341   1.422   5.942  0.1117 -1.0560  1.8281
 7549SOL    MW429970   0.424   1.449   5.950  0.1965 -0.4829 -0.3369
 7550SOL     OW29971   3.121   4.890   5.362 -0.3646 -0.2389 -0.0963
 7550SOL    HW229972   3.125   4.815   5.421 -0.7139  0.4109  0.7687
 7550SOL    HW329973   3.099   4.852   5.277 -0.3625 -1.1355  0.2958
 7550SOL    MW429974   3.119   4.875   5.358 -0.4104 -0.2714  0.0696
 7551SOL     OW29975   3.418   5.319   6.351 -0.5247 -0.0237 -0.1350
 7551SOL    HW229976   3.421   5.344   6.259  0.7308 -1.1438 -0.4357
 7551SOL    HW329977   3.477   5.244   6.357  0.4197  0.8098  1.8147
 7551SOL    MW429978   3.426   5.313   6.340 -0.2344 -0.0615  0.0826
 7552SOL     OW29979   2.148   3.484   4.866  0.2951 -0.1824  0.1889
 7552SOL    HW229980   2.201   3.459   4.941  1.7001 -0.9612 -0.9924
 7552SOL    HW329981   2.188   3.436   4.792 -0.0412  1.7332 -1.3095
 7552SOL    MW429982   2.161   3.474   4.866  0.4361 -0.0324 -0.1646
 7553SOL     OW29983   0.188   3.861   4.918 -0.1283  0.0373 -0.0407
 7553SOL    HW229984   0.233   3.779   4.940 -1.1906 -0.3230  0.8814
 7553SOL    HW329985   0.188   3.863   4.822  1.1249 -0.3471 -0.0614
 7553SOL    MW429986   0.194   3.850   4.908 -0.1031 -0.0610  0.0782
 7554SOL     OW29987   6.117   0.325   6.399 -0.2048 -0.0613  0.0813
 7554SOL    HW229988   6.102   0.390   6.467 -0.1505  1.1380 -1.0110
 7554SOL    HW329989   6.029   0.291   6.379 -0.3244  0.1930  0.1696
 7554SOL    MW429990   6.103   0.329   6.405 -0.2134  0.1305 -0.0512
 7555SOL     OW29991   0.821   5.245   2.358  0.1164 -0.3373  0.3832
 7555SOL    HW229992   0.824   5.331   2.316 -0.2937 -1.2332 -1.5973
 7555SOL    HW329993   0.729   5.230   2.377  0.1107 -0.5925  0.1613
 7555SOL    MW429994   0.810   5.255   2.355  0.0615 -0.4892  0.0926
 7556SOL     OW29995   0.933   1.000   5.476 -0.2878 -0.2082 -0.0263
 7556SOL    HW229996   0.891   0.926   5.520 -0.7842 -0.2702 -0.5861
 7556SOL    HW329997   0.929   1.072   5.539  1.0848 -0.9058  0.9082
 7556SOL    MW429998   0.927   1.000   5.490 -0.1722 -0.3084  0.0231
 7557SOL     OW29999   1.206   0.858   3.754  0.4970 -0.2510 -0.3402
 7557SOL    HW230000   1.287   0.898   3.721  1.1067 -1.2316 -0.0554
 7557SOL    HW330001   1.188   0.786   3.693 -0.7379  0.5672 -0.9971
 7557SOL    MW430002   1.214   0.854   3.742  0.4145 -0.2724 -0.3893
 7558SOL     OW30003   4.604   6.409   5.883  0.3236  0.0803 -0.4952
 7558SOL    HW230004   4.689   6.451   5.870  1.5308 -2.3022 -0.8692
 7558SOL    HW330005   4.562   6.413   5.797 -0.7466  2.7007  0.0487
 7558SOL    MW430006   4.610   6.415   5.870  0.3417  0.1117 -0.4728
 7559SOL     OW30007   3.765   2.399   2.040  0.4304  0.0220  0.0341
 7559SOL    HW230008   3.819   2.476   2.024  1.8023 -0.5888  1.4386
 7559SOL    HW330009   3.820   2.325   2.016  0.1836 -0.6187  1.3314
 7559SOL    MW430010   3.779   2.399   2.035  0.5788 -0.1431  0.3906
 7560SOL     OW30011   4.180   1.247   5.630 -0.6958 -0.1114  0.5993
 7560SOL    HW230012   4.273   1.271   5.621 -0.6515 -1.0370 -2.3878
 7560SOL    HW330013   4.139   1.325   5.667  0.8804  1.3301 -0.5280
 7560SOL    MW430014   4.187   1.261   5.634 -0.4820 -0.0434  0.0565
 7561SOL     OW30015   5.602   3.801   4.030  0.0629 -0.4380  0.0743
 7561SOL    HW230016   5.532   3.791   3.964 -0.6004 -1.5507  0.9086
 7561SOL    HW330017   5.591   3.890   4.063 -0.7727 -0.4833 -0.0449
 7561SOL    MW430018   5.591   3.811   4.025 -0.1349 -0.5908  0.1687
 7562SOL     OW30019   4.539   0.523   5.173 -0.4849 -0.0926  0.5892
 7562SOL    HW230020   4.554   0.601   5.225  1.5863  0.4946 -0.7816
 7562SOL    HW330021   4.488   0.553   5.097 -0.5298 -0.2722  0.5456
 7562SOL    MW430022   4.534   0.537   5.170 -0.2176 -0.0388  0.4026
 7563SOL     OW30023   1.051   5.833   4.562  0.4043  0.4975 -0.1285
 7563SOL    HW230024   1.106   5.910   4.557  0.2070  0.5750 -1.5944
 7563SOL    HW330025   0.966   5.861   4.528 -0.7099  0.4758  2.4017
 7563SOL    MW430026   1.047   5.847   4.556  0.2313  0.5049  0.0119
 7564SOL     OW30027   0.775   5.564   0.379 -0.2724 -0.4549 -0.7673
 7564SOL    HW230028   0.792   5.634   0.441 -1.4463  0.1196 -1.0636
 7564SOL    HW330029   0.854   5.560   0.324  0.8917 -1.1444  0.8760
 7564SOL    MW430030   0.788   5.573   0.380 -0.2737 -0.4701 -0.5895
 7565SOL     OW30031   3.441   1.477   1.013 -0.3459  0.5113  1.0149
 7565SOL    HW230032   3.480   1.551   1.059  0.3840  1.3529 -0.8586
 7565SOL    HW330033   3.508   1.448   0.952 -0.7273 -1.5414  1.5063
 7565SOL    MW430034   3.455   1.483   1.011 -0.2999  0.3515  0.8326
 7566SOL     OW30035   6.349   4.742   2.573 -0.1096  0.4191  0.0974
 7566SOL    HW230036   6.418   4.686   2.536  0.0331  1.1848 -0.8403
 7566SOL    HW330037   6.273   4.685   2.581  0.3254 -0.1657  0.1184
 7566SOL    MW430038   6.348   4.727   2.569 -0.0334  0.4430 -0.0235
 7567SOL     OW30039   1.511   2.289   0.026 -0.6191 -0.5515 -0.1274
 7567SOL    HW230040   1.466   2.313   0.106 -0.9256  0.9167 -0.7172
 7567SOL    HW330041   1.535   2.372  -0.015  0.4960 -1.2717 -1.0286
 7567SOL    MW430042   1.509   2.303   0.031 -0.5124 -0.4528 -0.3241
 7568SOL     OW30043   1.811   2.659   1.319  0.7830 -0.1188 -0.1074
 7568SOL    HW230044   1.859   2.589   1.362 -1.2220 -1.1309  0.6072
 7568SOL    HW330045   1.728   2.664   1.366 -0.4130  0.5567 -2.1686
 7568SOL    MW430046   1.806   2.650   1.331  0.3607 -0.1632 -0.2850
 7569SOL     OW30047   6.397   1.647   3.983  0.2240 -0.4795 -0.1603
 7569SOL    HW230048   6.420   1.694   3.903 -0.5021  0.4402  0.1510
 7569SOL    HW330049   6.453   1.686   4.050 -2.6182  2.4444  0.8025
 7569SOL    MW430050   6.407   1.658   3.981 -0.2468  0.0276  0.0078
 7570SOL     OW30051   1.768   4.467   2.203  0.0258  0.3385  0.2685
 7570SOL    HW230052   1.816   4.499   2.279  0.2591 -0.3989  0.4379
 7570SOL    HW330053   1.797   4.523   2.131 -1.6128  2.3137  1.0425
 7570SOL    MW430054   1.778   4.479   2.203 -0.1597  0.5018  0.3930
 7571SOL     OW30055   3.299   6.410   0.727  0.1449  0.1977 -0.5083
 7571SOL    HW230056   3.269   6.456   0.805  1.0151 -0.5451  0.2927
 7571SOL    HW330057   3.287   6.473   0.655  1.1659  1.6311  0.5174
 7571SOL    MW430058   3.293   6.425   0.727  0.3944  0.2888 -0.2673
 7572SOL     OW30059   4.556   5.878   4.226  0.1715  0.0274  0.4540
 7572SOL    HW230060   4.527   5.787   4.232  0.5085 -0.0088  2.0027
 7572SOL    HW330061   4.609   5.891   4.305  1.3080  1.1642 -0.4606
 7572SOL    MW430062   4.559   5.868   4.237  0.3659  0.1726  0.5377
 7573SOL     OW30063   2.261   4.287   1.491  0.1382  0.4711  0.3570
 7573SOL    HW230064   2.231   4.198   1.513  1.0624 -0.1099 -0.6416
 7573SOL    HW330065   2.201   4.316   1.422  0.7684 -0.0068 -0.4119
 7573SOL    MW430066   2.249   4.279   1.485  0.3433  0.3314  0.1238
 7574SOL     OW30067   2.773   4.658   4.776 -0.1507 -0.1421  0.3366
 7574SOL    HW230068   2.831   4.730   4.751  1.2403 -1.1206  0.6461
 7574SOL    HW330069   2.786   4.591   4.709 -0.0532 -0.8289  1.0237
 7574SOL    MW430070   2.783   4.659   4.764  0.0457 -0.3618  0.4681
 7575SOL     OW30071   0.135   0.604   6.063 -0.2041 -0.4514  0.5015
 7575SOL    HW230072   0.094   0.518   6.065  1.2803 -1.2316 -0.6099
 7575SOL    HW330073   0.123   0.639   6.151 -1.0704 -1.6729  0.8857
 7575SOL    MW430074   0.128   0.597   6.075 -0.1225 -0.7155  0.4056
 7576SOL     OW30075   0.912   6.140   3.804 -0.8136  0.2379 -0.6524
 7576SOL    HW230076   0.891   6.073   3.870 -1.1275  1.0447  0.0933
 7576SOL    HW330077   1.004   6.161   3.821 -0.7803  0.1587 -0.7359
 7576SOL    MW430078   0.921   6.134   3.815 -0.8506  0.3339 -0.5650
 7577SOL     OW30079   5.295   2.426   3.809  0.1235 -0.0346 -0.3410
 7577SOL    HW230080   5.241   2.396   3.882  2.1570 -2.4067  0.3195
 7577SOL    HW330081   5.248   2.396   3.731  0.1845 -1.6384  0.2004
 7577SOL    MW430082   5.282   2.418   3.808  0.3999 -0.5592 -0.1824
 7578SOL     OW30083   4.497   3.392   3.984  0.1465 -0.4344 -0.0186
 7578SOL    HW230084   4.473   3.360   3.897 -0.5139  1.2771 -0.5032
 7578SOL    HW330085   4.495   3.314   4.040  0.7165 -1.5951 -1.5447
 7578SOL    MW430086   4.494   3.377   3.980  0.1345 -0.3617 -0.2839
 7579SOL     OW30087   2.364   6.263   5.205 -0.1842 -0.4518  0.4992
 7579SOL    HW230088   2.381   6.234   5.294  1.0453  0.7234  0.6818
 7579SOL    HW330089   2.379   6.358   5.207  2.1683 -0.6703 -1.4061
 7579SOL    MW430090   2.369   6.272   5.217  0.2884 -0.3256  0.2719
 7580SOL     OW30091   4.185   3.729   0.325 -0.0590  0.0920  0.1512
 7580SOL    HW230092   4.273   3.753   0.297 -0.0876  0.9718  0.7691
 7580SOL    HW330093   4.131   3.806   0.306 -0.0155  0.8690  2.8012
 7580SOL    MW430094   4.189   3.742   0.319 -0.0570  0.3106  0.5824
 7581SOL     OW30095   0.252   0.627   4.088 -0.6220 -0.1532 -0.2581
 7581SOL    HW230096   0.167   0.600   4.053 -0.0864 -0.4374 -1.3615
 7581SOL    HW330097   0.311   0.556   4.065 -0.1782 -0.2155  0.9943
 7581SOL    MW430098   0.248   0.614   4.081 -0.4928 -0.1989 -0.2384
 7582SOL     OW30099   0.709   2.868   6.354 -0.2157  0.8607  0.7477
 7582SOL    HW230100   0.755   2.808   6.413  0.3276  1.0640  0.5383
 7582SOL    HW330101   0.680   2.814   6.281 -0.8393  0.6184  1.1766
 7582SOL    MW430102   0.711   2.853   6.352 -0.2263  0.8556  0.7766
 7583SOL     OW30103   4.831   0.803   2.069 -0.4027  0.7057 -0.5347
 7583SOL    HW230104   4.758   0.744   2.048  0.4438 -0.3108 -0.7367
 7583SOL    HW330105   4.802   0.850   2.147 -1.6815  1.0782 -1.2099
 7583SOL    MW430106   4.817   0.801   2.077 -0.4597  0.6208 -0.6505
 7584SOL     OW30107   2.109   5.869   2.392 -0.3468 -0.2686  0.6452
 7584SOL    HW230108   2.149   5.953   2.415  1.1884 -0.4906 -1.0221
 7584SOL    HW330109   2.088   5.877   2.299 -0.6807 -1.5411  0.6024
 7584SOL    MW430110   2.112   5.881   2.383 -0.1883 -0.4658  0.4196
 7585SOL     OW30111   5.185   0.524   6.104 -0.2991  0.1993  0.3162
 7585SOL    HW230112   5.224   0.503   6.020 -1.2398  0.8449 -0.2979
 7585SOL    HW330113   5.207   0.617   6.118  2.1222 -0.5082  2.0657
 7585SOL    MW430114   5.193   0.534   6.095 -0.1038  0.1911  0.4660
 7586SOL     OW30115   4.855   2.003   0.427  0.0093 -0.3195  0.1565
 7586SOL    HW230116   4.908   2.044   0.359 -0.6971  2.6269  1.2294
 7586SOL    HW330117   4.771   1.984   0.384  0.2703 -0.4217 -0.3091
 7586SOL    MW430118   4.851   2.006   0.413 -0.0494  0.0557  0.2367
 7587SOL     OW30119   4.678   4.017   3.299 -0.3227 -0.4161 -0.4838
 7587SOL    HW230120   4.638   3.995   3.215  0.1456  2.4884 -1.5725
 7587SOL    HW330121   4.659   3.941   3.355 -1.7216 -1.9060 -2.8057
 7587SOL    MW430122   4.670   4.004   3.296 -0.4455 -0.2295 -0.9338
 7588SOL     OW30123   0.964   1.653   3.435 -0.0239  0.1461 -0.6527
 7588SOL    HW230124   1.008   1.710   3.371  1.2133 -0.6944 -0.5837
 7588SOL    HW330125   1.024   1.650   3.509 -0.9127  0.1800  0.0746
 7588SOL    MW430126   0.978   1.660   3.436  0.0221  0.0397 -0.5476
 7589SOL     OW30127   4.379   1.568   5.425 -0.7992  0.3143 -0.0955
 7589SOL    HW230128   4.440   1.608   5.363 -0.0503 -0.8523 -0.1475
 7589SOL    HW330129   4.427   1.494   5.462 -0.6802  1.8169  3.0016
 7589SOL    MW430130   4.393   1.563   5.422 -0.6847  0.3586  0.3062
 7590SOL     OW30131   5.777   5.714   3.696 -0.0001 -0.1978 -0.3552
 7590SOL    HW230132   5.728   5.746   3.772  0.1490  2.4990 -1.2842
 7590SOL    HW330133   5.730   5.751   3.621  0.6011 -1.7430 -1.5373
 7590SOL    MW430134   5.764   5.724   3.696  0.0989 -0.0459 -0.6337
 7591SOL     OW30135   2.473   3.557   6.340  0.5121 -0.1532 -0.3445
 7591SOL    HW230136   2.453   3.643   6.375  1.0530 -0.0874 -0.1951
 7591SOL    HW330137   2.483   3.501   6.417 -0.7742 -0.5727 -0.4553
 7591SOL    MW430138   2.471   3.561   6.355  0.4137 -0.1999 -0.3394
 7592SOL     OW30139   2.994   4.566   0.472  0.0305 -0.6427  0.2056
 7592SOL    HW230140   3.008   4.653   0.511 -1.9914  0.3657 -1.1186
 7592SOL    HW330141   2.931   4.524   0.531  0.4845 -0.9379  0.4800
 7592SOL    MW430142   2.987   4.572   0.485 -0.1764 -0.5486  0.0671
 7593SOL     OW30143   2.419   4.562   4.018 -0.2663 -0.1070 -0.3328
 7593SOL    HW230144   2.370   4.555   3.937 -1.5778  0.3569  0.4049
 7593SOL    HW330145   2.399   4.480   4.065 -1.9452  0.9097  0.8184
 7593SOL    MW430146   2.410   4.550   4.014 -0.6609  0.0883 -0.0836
 7594SOL     OW30147   2.043   4.414   1.318  0.2481 -0.2444  0.0306
 7594SOL    HW230148   2.005   4.337   1.276  2.2092 -0.5001 -1.4085
 7594SOL    HW330149   2.072   4.470   1.246  3.2058 -0.4291  0.9454
 7594SOL    MW430150   2.042   4.411   1.303  0.8971 -0.3025 -0.0386
 7595SOL     OW30151   1.055   6.166   4.358 -0.3470  0.1927  0.2611
 7595SOL    HW230152   1.086   6.245   4.314 -2.2853  0.7371 -0.2247
 7595SOL    HW330153   0.977   6.140   4.308 -0.2795 -1.4923  0.9814
 7595SOL    MW430154   1.049   6.173   4.346 -0.5938  0.0422  0.2921
 7596SOL     OW30155   0.780   0.358   5.730  0.3935  0.1747  0.0781
 7596SOL    HW230156   0.844   0.426   5.709 -0.2726  0.4359 -1.2114
 7596SOL    HW330157   0.723   0.397   5.797  1.4501 -0.0033  1.1144
 7596SOL    MW430158   0.781   0.372   5.736  0.4450  0.1857  0.0447
 7597SOL     OW30159   4.705   0.348   5.788 -0.0640 -0.3901  0.2458
 7597SOL    HW230160   4.677   0.429   5.745  0.7084  0.3156  1.0361
 7597SOL    HW330161   4.624   0.299   5.802 -0.5005  0.0802 -0.5591
 7597SOL    MW430162   4.690   0.352   5.784 -0.0197 -0.2349  0.2438
 7598SOL     OW30163   2.444   1.132   1.539  0.0141  0.0731  0.1572
 7598SOL    HW230164   2.381   1.178   1.594  1.1332  0.3333  1.2903
 7598SOL    HW330165   2.468   1.195   1.471 -2.3787 -0.6989 -1.5268
 7598SOL    MW430166   2.439   1.146   1.537 -0.1540  0.0056  0.0845
 7599SOL     OW30167   4.900   1.107   2.896  0.1544 -0.1111 -0.1562
 7599SOL    HW230168   4.979   1.079   2.942  0.3996  0.8577  0.0296
 7599SOL    HW330169   4.865   1.026   2.857 -1.2004 -1.4713  3.3466
 7599SOL    MW430170   4.906   1.092   2.897  0.0080 -0.1627  0.3305
 7600SOL     OW30171   2.683   1.198   0.630  0.3241  0.6045 -0.1180
 7600SOL    HW230172   2.705   1.156   0.713  0.4882  2.3304  0.7502
 7600SOL    HW330173   2.614   1.261   0.653  1.1216  1.8694 -1.0625
 7600SOL    MW430174   2.677   1.201   0.644  0.4510  0.9991 -0.1281
 7601SOL     OW30175   6.340   1.465   0.709 -0.1860 -0.0951  0.2457
 7601SOL    HW230176   6.361   1.379   0.745 -0.4039 -0.2957 -0.1037
 7601SOL    HW330177   6.322   1.449   0.616  0.3069  0.4056  0.0512
 7601SOL    MW430178   6.341   1.452   0.701 -0.1497 -0.0555  0.1740
 7602SOL     OW30179   3.627   4.536   0.997 -0.6030  0.1583  0.2478
 7602SOL    HW230180   3.663   4.619   0.965  1.4387 -0.1525  1.5743
 7602SOL    HW330181   3.542   4.528   0.953  0.8623  0.9846 -3.0216
 7602SOL    MW430182   3.621   4.546   0.987 -0.1403  0.2263 -0.0086
 7603SOL     OW30183   4.993   0.921   3.748 -0.3040 -0.3164 -0.1685
 7603SOL    HW230184   4.973   0.890   3.660  0.4164  0.8213 -0.7580
 7603SOL    HW330185   4.909   0.952   3.782 -0.0990  2.2598 -1.7354
 7603SOL    MW430186   4.979   0.921   3.741 -0.1819  0.1736 -0.4530
 7604SOL     OW30187   3.551   4.720   5.918  0.2674 -0.3037  0.0569
 7604SOL    HW230188   3.493   4.657   5.876 -1.4577  0.1713  1.5776
 7604SOL    HW330189   3.639   4.691   5.896 -0.5133 -0.9185 -2.5544
 7604SOL    MW430190   3.555   4.708   5.910 -0.0632 -0.3221 -0.0870
 7605SOL     OW30191   0.734   6.039   2.648 -0.0574 -0.2642  0.1625
 7605SOL    HW230192   0.646   6.026   2.683  0.0590 -3.1913 -0.3813
 7605SOL    HW330193   0.792   6.003   2.715  0.8282  2.0237  0.7057
 7605SOL    MW430194   0.730   6.032   2.661  0.0748 -0.3486  0.1624
 7606SOL     OW30195   1.653   5.642   2.793  0.3151  0.1957 -0.2648
 7606SOL    HW230196   1.615   5.702   2.730 -0.7748  1.3199  1.3770
 7606SOL    HW330197   1.686   5.699   2.863 -1.4063 -1.0716  1.7005
 7606SOL    MW430198   1.653   5.657   2.794 -0.0558  0.1768  0.2111
 7607SOL     OW30199   5.459   4.566   4.385  0.0499 -0.3824  0.3097
 7607SOL    HW230200   5.531   4.588   4.444 -0.0595 -1.7810  0.9956
 7607SOL    HW330201   5.396   4.637   4.396  1.1484  0.6772 -0.0322
 7607SOL    MW430202   5.461   4.578   4.394  0.1804 -0.4271  0.3551
 7608SOL     OW30203   2.877   4.978   5.452  0.3793 -0.1371  0.3673
 7608SOL    HW230204   2.820   4.954   5.379  0.6250  0.5803 -0.0609
 7608SOL    HW330205   2.965   4.963   5.420  0.5182  0.9170  0.2475
 7608SOL    MW430206   2.881   4.973   5.438  0.4301  0.0967  0.2950
 7609SOL     OW30207   1.690   6.163   4.007  0.6148 -0.3045 -0.0652
 7609SOL    HW230208   1.781   6.185   3.986 -0.3003  1.3143 -2.9352
 7609SOL    HW330209   1.665   6.226   4.075  1.7667 -1.1881  1.2225
 7609SOL    MW430210   1.699   6.175   4.013  0.6461 -0.2075 -0.2740
 7610SOL     OW30211   0.769   1.974   5.649 -0.1065  0.5432 -0.5858
 7610SOL    HW230212   0.863   1.992   5.656  0.0102 -0.0275 -0.5693
 7610SOL    HW330213   0.733   2.049   5.602  0.3829  0.6968 -0.7204
 7610SOL    MW430214   0.777   1.986   5.644 -0.0265  0.4882 -0.6014
 7611SOL     OW30215   3.757   0.827   3.555  0.1069  0.2732 -0.5529
 7611SOL    HW230216   3.747   0.767   3.482  0.4075  1.4469 -1.6031
 7611SOL    HW330217   3.843   0.867   3.541 -0.2695  1.2638 -0.1387
 7611SOL    MW430218   3.767   0.825   3.543  0.0969  0.5588 -0.6368
 7612SOL     OW30219   3.853   5.160   2.045 -0.9673  0.1543 -0.6013
 7612SOL    HW230220   3.936   5.120   2.072 -0.0532  0.9684 -2.0917
 7612SOL    HW330221   3.857   5.249   2.080 -0.7991  0.4730 -1.4062
 7612SOL    MW430222   3.865   5.167   2.053 -0.8245  0.3038 -0.9041
 7613SOL     OW30223   2.414   1.293   3.786 -0.1698 -0.1419  0.6034
 7613SOL    HW230224   2.397   1.266   3.876 -0.2358 -0.1156  0.5991
 7613SOL    HW330225   2.480   1.362   3.793 -1.5755  1.2538  0.7937
 7613SOL    MW430226   2.420   1.299   3.799 -0.3640  0.0458  0.6279
 7614SOL     OW30227   5.625   6.085   6.322 -0.8126  0.5614  1.1933
 7614SOL    HW230228   5.719   6.090   6.342 -0.8705 -1.2854  2.1369
 7614SOL    HW330229   5.596   6.006   6.366 -2.1776 -0.6890 -1.7340
 7614SOL    MW430230   5.634   6.076   6.331 -1.0004  0.1528  0.9316
 7615SOL     OW30231   1.282   0.807   2.299 -0.0655 -0.1900 -0.6736
 7615SOL    HW230232   1.350   0.872   2.316  2.1243 -1.8011 -2.5127
 7615SOL    HW330233   1.237   0.839   2.221 -0.9810  0.5139  0.1207
 7615SOL    MW430234   1.285   0.820   2.291  0.1026 -0.3097 -0.8115
 7616SOL     OW30235   1.592   0.812   3.627  0.1693 -0.3948 -0.2365
 7616SOL    HW230236   1.571   0.754   3.700 -2.6718 -0.5626 -1.0371
 7616SOL    HW330237   1.589   0.755   3.550 -0.1169  0.3535 -0.7933
 7616SOL    MW430238   1.589   0.797   3.626 -0.2433 -0.3182 -0.4156
 7617SOL     OW30239   1.589   1.143   5.088  0.0001 -0.3933  0.1484
 7617SOL    HW230240   1.680   1.125   5.114  0.1034 -2.5175 -1.4905
 7617SOL    HW330241   1.537   1.084   5.142 -0.7536  2.2734  2.6619
 7617SOL    MW430242   1.594   1.133   5.099 -0.0857 -0.3218  0.2638
 7618SOL     OW30243   4.427   3.963   1.021  0.4478  0.4829 -1.1062
 7618SOL    HW230244   4.453   3.946   1.112 -0.3502  0.3918 -0.8823
 7618SOL    HW330245   4.331   3.958   1.023  0.4547 -0.1653 -2.0914
 7618SOL    MW430246   4.418   3.960   1.034  0.3434  0.3853 -1.2067
 7619SOL     OW30247   2.236   5.563   3.011 -0.0770  0.2534 -0.6363
 7619SOL    HW230248   2.243   5.468   3.008 -0.0024  0.1988  0.6645
 7619SOL    HW330249   2.142   5.580   3.007 -0.0427  0.1904 -1.9747
 7619SOL    MW430250   2.224   5.553   3.010 -0.0626  0.2379 -0.6413
 7620SOL     OW30251   3.546   0.866   6.295  0.6238  0.2402 -0.0907
 7620SOL    HW230252   3.480   0.917   6.249  0.0756 -0.0605  0.3556
 7620SOL    HW330253   3.596   0.931   6.345 -0.3084  0.3225  0.7713
 7620SOL    MW430254   3.544   0.882   6.296  0.4285  0.2114  0.0819
 7621SOL     OW30255   5.375   4.023   3.457 -1.4100  0.1212  0.0440
 7621SOL    HW230256   5.290   4.028   3.415 -1.2625  0.2485 -0.2427
 7621SOL    HW330257   5.372   3.942   3.508 -1.7874  0.2507  0.2301
 7621SOL    MW430258   5.364   4.013   3.458 -1.4403  0.1551  0.0307
 7622SOL     OW30259   4.658   0.976   3.039  0.7641  0.2141 -0.1543
 7622SOL    HW230260   4.629   0.893   3.002  1.0597  0.3093 -0.6151
 7622SOL    HW330261   4.596   1.040   3.004  0.9473  0.2812 -0.3629
 7622SOL    MW430262   4.646   0.974   3.029  0.8272  0.2355 -0.2426
 7623SOL     OW30263   2.588   4.253   6.202  0.1145  0.1113  0.0402
 7623SOL    HW230264   2.541   4.260   6.119 -0.5789 -0.0901  0.4039
 7623SOL    HW330265   2.537   4.306   6.263  1.0096  0.8329  0.1803
 7623SOL    MW430266   2.575   4.261   6.199  0.1411  0.1800  0.1067
 7624SOL     OW30267   0.845   4.810   5.061 -0.4124 -0.8851  0.1058
 7624SOL    HW230268   0.934   4.784   5.037 -0.8251 -0.6988 -1.7759
 7624SOL    HW330269   0.847   4.906   5.055 -0.8211 -0.8996 -0.2413
 7624SOL    MW430270   0.857   4.820   5.057 -0.5208 -0.8625 -0.1883
 7625SOL     OW30271   4.310   3.163   2.684 -0.0175  0.0934 -0.2320
 7625SOL    HW230272   4.224   3.147   2.646  0.4742  1.8176 -2.2429
 7625SOL    HW330273   4.372   3.132   2.618  0.8576  1.8773 -0.3267
 7625SOL    MW430274   4.307   3.157   2.670  0.1629  0.5563 -0.5098
 7626SOL     OW30275   0.377   0.999   0.835 -0.2623  0.0611  0.2257
 7626SOL    HW230276   0.368   0.991   0.930 -1.4309 -0.5742  0.0848
 7626SOL    HW330277   0.310   0.940   0.800 -0.2829  0.7695 -0.9888
 7626SOL    MW430278   0.367   0.990   0.843 -0.4192  0.0707  0.0469
 7627SOL     OW30279   2.382   4.760   5.519  0.0952  0.0781 -0.5300
 7627SOL    HW230280   2.421   4.842   5.487 -1.9937  1.7607  0.9406
 7627SOL    HW330281   2.316   4.738   5.453  0.0016  0.1133 -0.4479
 7627SOL    MW430282   2.379   4.768   5.506 -0.1927  0.3047 -0.3251
 7628SOL     OW30283   2.031   1.181   0.082 -0.1951  0.0928  0.1562
 7628SOL    HW230284   2.007   1.240   0.010 -0.2824 -1.5755 -1.2537
 7628SOL    HW330285   1.951   1.168   0.131 -0.0601  1.5202  0.8063
 7628SOL    MW430286   2.017   1.187   0.079 -0.1888  0.0610  0.0559
 7629SOL     OW30287   4.427   1.336   4.526  0.4731 -0.1486 -0.2688
 7629SOL    HW230288   4.411   1.368   4.615 -1.0553 -0.1427 -0.5269
 7629SOL    HW330289   4.502   1.278   4.535 -1.2285 -2.2235  1.5329
 7629SOL    MW430290   4.435   1.333   4.539  0.0470 -0.4215 -0.0652
 7630SOL     OW30291   4.997   5.962   1.527  0.4097  0.4834 -0.2027
 7630SOL    HW230292   4.925   5.976   1.465  1.1580  1.2631 -0.9213
 7630SOL    HW330293   5.073   6.002   1.485  1.0666  0.5027  0.9670
 7630SOL    MW430294   4.998   5.969   1.513  0.5951  0.5888 -0.1432
 7631SOL     OW30295   5.085   3.824   3.125 -0.0390  0.3370 -0.1880
 7631SOL    HW230296   5.017   3.791   3.066 -0.0774  1.5837 -0.8756
 7631SOL    HW330297   5.144   3.873   3.068  0.0890  1.3112  0.7666
 7631SOL    MW430298   5.083   3.826   3.109 -0.0272  0.6300 -0.1528
 7632SOL     OW30299   0.997   5.376   1.456  0.0134 -0.0725 -0.9353
 7632SOL    HW230300   1.071   5.337   1.504  0.0510  0.3317 -0.6619
 7632SOL    HW330301   0.945   5.301   1.427  0.2797 -0.3405 -0.7214
 7632SOL    MW430302   1.000   5.361   1.459  0.0535 -0.0545 -0.8710
 7633SOL     OW30303   2.910   0.651   0.925 -0.9719  0.1350  0.7373
 7633SOL    HW230304   2.858   0.681   0.850  1.6171  0.7712 -0.9520
 7633SOL    HW330305   2.983   0.603   0.885  0.1686 -0.0160  2.8908
 7633SOL    MW430306   2.913   0.649   0.910 -0.4798  0.1990  0.7985
 7634SOL     OW30307   0.128   3.868   4.645 -0.4676  0.2099  0.0940
 7634SOL    HW230308   0.087   3.952   4.626 -0.1618  0.4139  0.3374
 7634SOL    HW330309   0.067   3.803   4.609  0.4106  0.5820 -2.2185
 7634SOL    MW430310   0.114   3.870   4.638 -0.3114  0.2859 -0.1790
 7635SOL     OW30311   2.417   5.528   3.764 -0.0010  0.0557  0.3863
 7635SOL    HW230312   2.439   5.504   3.854 -0.0486 -2.0746 -0.1212
 7635SOL    HW330313   2.351   5.464   3.738  0.3809  0.3172 -1.3239
 7635SOL    MW430314   2.411   5.516   3.773  0.0431 -0.1908  0.0937
 7636SOL     OW30315   4.419   1.826   2.377 -0.7819 -0.2765  0.4890
 7636SOL    HW230316   4.477   1.769   2.326 -0.8816 -0.4691  0.5856
 7636SOL    HW330317   4.476   1.895   2.410 -0.7565 -0.0254 -0.0631
 7636SOL    MW430318   4.434   1.827   2.374 -0.7917 -0.2688  0.4289
 7637SOL     OW30319   6.384   2.825   2.736 -0.2173  0.3079 -0.1606
 7637SOL    HW230320   6.410   2.778   2.657  0.2006 -0.3052  0.3292
 7637SOL    HW330321   6.462   2.876   2.760 -0.4578  0.7612 -0.3314
 7637SOL    MW430322   6.398   2.826   2.729 -0.1939  0.2869 -0.1185
 7638SOL     OW30323   2.485   6.347   6.357  0.2519  0.2937  0.3113
 7638SOL    HW230324   2.459   6.312   6.442 -0.2584 -0.3012 -0.0851
 7638SOL    HW330325   2.411   6.402   6.331 -0.3669 -0.9063 -0.5350
 7638SOL    MW430326   2.472   6.350   6.365  0.1029  0.0569  0.1473
 7639SOL     OW30327   5.171   1.718   0.354  0.2186  0.2165  0.1791
 7639SOL    HW230328   5.249   1.721   0.300  0.0137  0.5133 -0.1043
 7639SOL    HW330329   5.105   1.765   0.304 -0.2376 -0.3232  0.2639
 7639SOL    MW430330   5.172   1.725   0.341  0.1314  0.1845  0.1529
 7640SOL     OW30331   5.518   5.479   6.200 -0.1996 -0.3940 -0.3538
 7640SOL    HW230332   5.446   5.468   6.138  0.2009  1.1306 -1.1349
 7640SOL    HW330333   5.541   5.571   6.194  1.4699 -0.7351  0.2691
 7640SOL    MW430334   5.511   5.489   6.191  0.0735 -0.2379 -0.3746
 7641SOL     OW30335   0.079   4.165   2.089 -0.1724  0.1852 -0.0042
 7641SOL    HW230336   0.101   4.137   2.000  1.1545 -0.3670  0.4692
 7641SOL    HW330337   0.104   4.258   2.091 -1.5587  0.5919 -0.6166
 7641SOL    MW430338   0.085   4.174   2.078 -0.1802  0.1660 -0.0226
 7642SOL     OW30339   4.130   2.922   6.045 -0.3474  0.5726  0.2372
 7642SOL    HW230340   4.102   3.008   6.078 -0.5929  0.5121  0.1904
 7642SOL    HW330341   4.093   2.916   5.957 -1.3451 -0.0645  0.6761
 7642SOL    MW430342   4.121   2.933   6.038 -0.5114  0.4806  0.2889
 7643SOL     OW30343   4.631   1.486   0.024  0.2816 -0.2275 -0.4033
 7643SOL    HW230344   4.718   1.461   0.054  1.5125  2.0146 -1.8130
 7643SOL    HW330345   4.585   1.404   0.013  1.7432 -1.4292  1.6326
 7643SOL    MW430346   4.637   1.472   0.027  0.6368 -0.0902 -0.3207
 7644SOL     OW30347   3.154   3.105   1.970  0.1417  0.2196 -1.1535
 7644SOL    HW230348   3.178   3.189   2.011  0.1339 -0.6265  0.7033
 7644SOL    HW330349   3.064   3.120   1.939 -0.9895  0.1275  1.7314
 7644SOL    MW430350   3.145   3.118   1.972 -0.0086  0.0958 -0.5279
 7645SOL     OW30351   0.884   0.108   2.930 -0.3396 -0.1969 -0.1861
 7645SOL    HW230352   0.917   0.190   2.895 -1.2377 -0.4292 -1.6658
 7645SOL    HW330353   0.793   0.103   2.899 -0.2081 -1.8885 -0.4354
 7645SOL    MW430354   0.876   0.118   2.921 -0.4407 -0.4507 -0.4142
 7646SOL     OW30355   2.080   5.592   2.077 -0.8831 -0.2395  0.1586
 7646SOL    HW230356   2.023   5.599   2.153 -1.5606  3.0484 -0.5237
 7646SOL    HW330357   2.169   5.602   2.111 -0.9979 -0.9860  0.7105
 7646SOL    MW430358   2.084   5.594   2.091 -0.9876  0.0958  0.1414
 7647SOL     OW30359   6.092   6.377   1.837 -0.5053  0.3853 -0.4532
 7647SOL    HW230360   6.082   6.457   1.888  0.6281 -0.1240  0.5945
 7647SOL    HW330361   6.141   6.317   1.893  0.9547 -0.1419 -2.1807
 7647SOL    MW430362   6.097   6.379   1.851 -0.1631  0.2486 -0.5429
 7648SOL     OW30363   0.252   4.022   5.137 -0.1709  0.5127 -1.1577
 7648SOL    HW230364   0.199   4.093   5.099 -0.4702  0.6226 -0.5504
 7648SOL    HW330365   0.239   3.948   5.078 -0.1209  0.8676 -1.6165
 7648SOL    MW430366   0.243   4.022   5.124 -0.2038  0.5740 -1.1381
 7649SOL     OW30367   4.372   3.460   5.383  0.2463  0.0482 -0.0601
 7649SOL    HW230368   4.393   3.368   5.395 -3.4895 -0.9196  0.1216
 7649SOL    HW330369   4.387   3.499   5.469  0.3922 -0.7129  0.2671
 7649SOL    MW430370   4.377   3.453   5.396 -0.2273 -0.1799  0.0071
 7650SOL     OW30371   0.211   1.115   1.707  0.1276 -0.0233  0.1178
 7650SOL    HW230372   0.117   1.106   1.696  0.2689 -0.3377 -0.8867
 7650SOL    HW330373   0.244   1.134   1.620  0.9818  0.2237  0.4847
 7650SOL    MW430374   0.203   1.116   1.694  0.2590 -0.0322  0.0337
 7651SOL     OW30375   4.734   0.980   1.535  0.0281 -0.0809 -0.2799
 7651SOL    HW230376   4.781   0.966   1.617 -0.4630  0.1246  0.0433
 7651SOL    HW330377   4.794   1.031   1.481 -0.5896  2.0261  0.9035
 7651SOL    MW430378   4.748   0.985   1.538 -0.1182  0.2242 -0.0812
 7652SOL     OW30379   3.065   3.741   3.234  0.0414  0.2980 -0.1719
 7652SOL    HW230380   3.103   3.757   3.148  2.3408 -1.6890  0.3678
 7652SOL    HW330381   3.020   3.657   3.226  1.5306 -0.6402  0.8826
 7652SOL    MW430382   3.064   3.732   3.221  0.5413 -0.0879  0.0384
 7653SOL     OW30383   1.030   4.907   0.933 -0.5774  0.1685 -0.6204
 7653SOL    HW230384   0.985   4.900   1.017 -0.3506 -0.4348 -0.5411
 7653SOL    HW330385   1.123   4.898   0.955 -0.4712  0.6170 -0.8697
 7653SOL    MW430386   1.036   4.905   0.947 -0.5335  0.1481 -0.6428
 7654SOL     OW30387   1.209   3.765   3.123  0.1699  0.0110 -0.2626
 7654SOL    HW230388   1.197   3.799   3.211 -0.0807 -0.9389  0.0852
 7654SOL    HW330389   1.302   3.774   3.105  0.6085 -1.7146  0.9348
 7654SOL    MW430390   1.219   3.771   3.132  0.1947 -0.3420 -0.0587
 7655SOL     OW30391   5.546   2.891   4.512  0.0163 -0.1469  0.2031
 7655SOL    HW230392   5.579   2.938   4.435 -0.1335 -0.9033 -0.3356
 7655SOL    HW330393   5.507   2.811   4.476 -0.3404 -0.3569  1.0413
 7655SOL    MW430394   5.545   2.887   4.497 -0.0506 -0.2744  0.2426
 7656SOL     OW30395   0.357   2.555   3.095  0.2830  0.7706 -0.2395
 7656SOL    HW230396   0.310   2.480   3.132 -0.5089  1.7946  0.9029
 7656SOL    HW330397   0.291   2.625   3.091  1.5879  2.1541  1.0871
 7656SOL    MW430398   0.342   2.554   3.099  0.3507  1.0882  0.0862
 7657SOL     OW30399   3.578   6.312   3.593  0.3634  0.2376  0.4580
 7657SOL    HW230400   3.489   6.338   3.570  0.8126  1.0338 -0.4043
 7657SOL    HW330401   3.605   6.253   3.522 -0.3644 -2.1052  1.9910
 7657SOL    MW430402   3.569   6.307   3.581  0.3267  0.0335  0.5465
 7658SOL     OW30403   1.560   1.814   5.234  0.1588  0.0739  0.2440
 7658SOL    HW230404   1.550   1.721   5.213  1.0794 -0.0539  0.3585
 7658SOL    HW330405   1.560   1.818   5.329  1.0838  0.0781  0.2486
 7658SOL    MW430406   1.558   1.803   5.244  0.4023  0.0576  0.2597
 7659SOL     OW30407   2.636   4.256   2.951  0.7370 -0.0480  0.5395
 7659SOL    HW230408   2.712   4.314   2.941  0.3425  0.6869  1.6935
 7659SOL    HW330409   2.616   4.257   3.044 -0.2099 -0.8589  0.3642
 7659SOL    MW430410   2.643   4.264   2.962  0.5600 -0.0581  0.6686
 7660SOL     OW30411   1.477   2.264   2.141  0.2172 -0.3302  0.0555
 7660SOL    HW230412   1.527   2.231   2.215  1.0291 -0.0501 -0.3537
 7660SOL    HW330413   1.430   2.339   2.176  0.6975 -0.1204  0.2644
 7660SOL    MW430414   1.478   2.270   2.155  0.3877 -0.2656  0.0290
 7661SOL     OW30415   1.155   5.671   4.800  0.4768 -0.2149  0.1220
 7661SOL    HW230416   1.188   5.734   4.864 -0.2064 -1.9137  2.2399
 7661SOL    HW330417   1.093   5.721   4.746 -0.5737  0.8108  2.1777
 7661SOL    MW430418   1.151   5.686   4.801  0.2481 -0.3037  0.6726
 7662SOL     OW30419   3.599   5.769   4.920 -0.2648  0.2670 -0.3884
 7662SOL    HW230420   3.545   5.696   4.948  3.0588 -2.4625 -0.4953
 7662SOL    HW330421   3.626   5.812   5.002 -0.9243  0.3969 -0.2351
 7662SOL    MW430422   3.595   5.765   4.934  0.0867 -0.0760 -0.3823
 7663SOL     OW30423   5.833   6.063   1.203 -0.1697  0.2114  0.5669
 7663SOL    HW230424   5.814   6.032   1.292 -2.6582  0.4408  0.1985
 7663SOL    HW330425   5.880   6.146   1.217 -3.9305  2.3979  1.9318
 7663SOL    MW430426   5.836   6.070   1.217 -0.9942  0.5302  0.6984
 7664SOL     OW30427   6.098   0.850   5.318  0.1777  0.6668  0.0593
 7664SOL    HW230428   6.026   0.858   5.381  1.0724  1.3693  1.0124
 7664SOL    HW330429   6.151   0.928   5.331  0.8629  0.3994 -0.9788
 7664SOL    MW430430   6.095   0.861   5.328  0.3862  0.7242  0.0481
 7665SOL     OW30431   5.278   4.452   2.670  0.0385  0.5400  0.5377
 7665SOL    HW230432   5.355   4.396   2.682 -1.1115 -1.1782  0.1894
 7665SOL    HW330433   5.274   4.503   2.751  1.7692  0.9987  0.3836
 7665SOL    MW430434   5.288   4.452   2.682  0.1151  0.3738  0.4714
 7666SOL     OW30435   2.601   0.078   0.252  0.2758 -0.4241  0.2983
 7666SOL    HW230436   2.655   0.150   0.218  0.0063 -0.3155  0.0927
 7666SOL    HW330437   2.538   0.120   0.310 -2.2027  0.0501 -2.4839
 7666SOL    MW430438   2.600   0.093   0.255 -0.0868 -0.3472 -0.0959
 7667SOL     OW30439   3.652   4.868   3.530 -0.0168 -0.3811  0.0906
 7667SOL    HW230440   3.638   4.900   3.619 -0.0973  0.1307 -0.1022
 7667SOL    HW330441   3.655   4.948   3.476 -0.6266 -0.7225 -0.4557
 7667SOL    MW430442   3.651   4.883   3.535 -0.1079 -0.3586 -0.0069
 7668SOL     OW30443   6.368   0.907   0.106 -0.0294 -0.5098  0.4247
 7668SOL    HW230444   6.389   0.988   0.152 -0.7118 -1.7440  3.0939
 7668SOL    HW330445   6.345   0.935   0.018 -0.1614  2.1929  1.2307
 7668SOL    MW430446   6.368   0.921   0.101 -0.1368 -0.3160  0.8832
 7669SOL     OW30447   5.443   4.673   5.862 -0.3680 -0.0893 -0.6461
 7669SOL    HW230448   5.373   4.609   5.856  0.7144 -1.3946  0.0905
 7669SOL    HW330449   5.423   4.725   5.940 -0.3648 -0.6508 -0.2722
 7669SOL    MW430450   5.431   4.672   5.871 -0.2247 -0.3356 -0.4996
 7670SOL     OW30451   1.285   0.967   1.844  0.1940  0.1991 -0.4333
 7670SOL    HW230452   1.351   1.015   1.893  0.2258 -1.6055  1.4015
 7670SOL    HW330453   1.277   1.015   1.761  3.5186  0.6741 -0.5823
 7670SOL    MW430454   1.292   0.980   1.839  0.6368  0.0237 -0.2109
 7671SOL     OW30455   5.225   4.953   5.489 -0.2528 -0.0324 -0.1144
 7671SOL    HW230456   5.317   4.929   5.478 -0.1715  0.1891  0.0805
 7671SOL    HW330457   5.201   4.920   5.575 -0.6785 -1.0908 -0.6206
 7671SOL    MW430458   5.234   4.946   5.499 -0.2982 -0.1428 -0.1555
 7672SOL     OW30459   0.149   1.117   4.580  0.2875 -0.3429  0.0299
 7672SOL    HW230460   0.152   1.051   4.511  2.4305 -1.0489  0.7201
 7672SOL    HW330461   0.066   1.163   4.566  1.1712  0.4223 -3.7744
 7672SOL    MW430462   0.138   1.114   4.569  0.6868 -0.3351 -0.3810
 7673SOL     OW30463   2.868   3.839   5.592  0.1950 -0.2149 -0.2072
 7673SOL    HW230464   2.840   3.748   5.591  0.3692 -0.2652 -1.1677
 7673SOL    HW330465   2.879   3.862   5.500 -0.0183  0.8303  0.0138
 7673SOL    MW430466   2.865   3.830   5.579  0.1899 -0.0836 -0.3048
 7674SOL     OW30467   5.974   0.453   2.174 -0.2907  0.1432 -0.1479
 7674SOL    HW230468   6.047   0.419   2.225 -0.5833  2.1947  1.8289
 7674SOL    HW330469   6.012   0.526   2.125 -0.2347 -1.2035 -2.2233
 7674SOL    MW430470   5.989   0.458   2.175 -0.3219  0.2362 -0.1609
 7675SOL     OW30471   4.874   3.015   2.634 -0.2776  0.0793  0.1901
 7675SOL    HW230472   4.874   2.952   2.706 -0.6520  0.1668  0.2681
 7675SOL    HW330473   4.844   2.964   2.558  1.8697 -0.4949 -0.3442
 7675SOL    MW430474   4.870   3.000   2.633 -0.0437  0.0151  0.1299
 7676SOL     OW30475   4.389   3.953   5.501 -0.4778  0.0513  0.2853
 7676SOL    HW230476   4.362   3.933   5.412 -0.8873  1.5516  0.0428
 7676SOL    HW330477   4.403   3.867   5.542 -2.4914 -0.7186 -0.5279
 7676SOL    MW430478   4.387   3.939   5.495 -0.7975  0.1477  0.1460
 7677SOL     OW30479   0.557   0.918   4.566 -0.1522  0.2053 -0.2811
 7677SOL    HW230480   0.537   0.833   4.527  0.3377  0.4627 -1.1172
 7677SOL    HW330481   0.480   0.939   4.618  0.5941 -1.7786  1.8048
 7677SOL    MW430482   0.545   0.909   4.567  0.0109 -0.0225 -0.1162
 7678SOL     OW30483   2.938   2.604   1.568  0.1801 -0.1772 -0.4156
 7678SOL    HW230484   2.869   2.573   1.510  0.5478 -0.4245 -0.7279
 7678SOL    HW330485   2.948   2.536   1.634  1.4878 -1.1134 -1.5169
 7678SOL    MW430486   2.930   2.591   1.569  0.4011 -0.3334 -0.6021
 7679SOL     OW30487   1.817   3.211   5.138  0.5424 -0.1596  0.1441
 7679SOL    HW230488   1.827   3.294   5.186 -1.6540  0.7323 -0.8030
 7679SOL    HW330489   1.882   3.217   5.067  0.0193  1.0445 -0.2636
 7679SOL    MW430490   1.827   3.223   5.135  0.1836  0.1170 -0.0346
 7680SOL     OW30491   1.765   0.400   3.002  0.4591 -0.3060  0.4473
 7680SOL    HW230492   1.796   0.472   3.056  0.3759  0.8555 -1.0130
 7680SOL    HW330493   1.832   0.332   3.011  2.3272  1.2803 -0.8638
 7680SOL    MW430494   1.778   0.400   3.010  0.6946  0.0566  0.0817
 7681SOL     OW30495   1.213   0.925   0.564 -0.0438 -0.2951 -0.5032
 7681SOL    HW230496   1.285   0.890   0.511 -0.0580 -1.1599  0.0227
 7681SOL    HW330497   1.159   0.973   0.502  2.0822  2.2171 -0.5616
 7681SOL    MW430498   1.216   0.927   0.549  0.2348 -0.0777 -0.4415
 7682SOL     OW30499   4.531   4.023   0.213  0.1079  0.2770 -0.4740
 7682SOL    HW230500   4.471   4.098   0.207  0.1922  0.2701 -1.6457
 7682SOL    HW330501   4.583   4.040   0.291  0.0846  1.4097 -0.6890
 7682SOL    MW430502   4.530   4.036   0.223  0.1159  0.4256 -0.6570
 7683SOL     OW30503   5.850   6.092   2.752  0.1340  0.4753 -0.1737
 7683SOL    HW230504   5.818   6.129   2.833  0.0809  0.0458  0.0077
 7683SOL    HW330505   5.930   6.046   2.777  0.9035  1.5328 -0.6171
 7683SOL    MW430506   5.857   6.090   2.766  0.2285  0.5582 -0.2082
 7684SOL     OW30507   2.386   4.947   4.886  0.1799  0.4693  0.0234
 7684SOL    HW230508   2.448   5.018   4.868 -0.6679  1.4613  0.8452
 7684SOL    HW330509   2.440   4.869   4.895  0.9416  0.4507 -3.4968
 7684SOL    MW430510   2.401   4.946   4.885  0.1685  0.5977 -0.3327
 7685SOL     OW30511   0.355   1.151   4.284 -0.1226 -0.2866  0.3315
 7685SOL    HW230512   0.392   1.226   4.330  0.8832 -0.6910  0.2064
 7685SOL    HW330513   0.268   1.180   4.255  0.3714  0.9236  0.0375
 7685SOL    MW430514   0.348   1.164   4.286  0.0753 -0.1803  0.2762
 7686SOL     OW30515   1.284   4.537   1.764  0.2084  0.6406 -0.1788
 7686SOL    HW230516   1.281   4.476   1.691 -2.6827 -0.0876  0.4099
 7686SOL    HW330517   1.263   4.622   1.725  0.2523  0.5422 -0.4182
 7686SOL    MW430518   1.281   4.540   1.750 -0.1673  0.5316 -0.1327
 7687SOL     OW30519   2.508   3.546   3.764 -0.3369  0.3546  0.2779
 7687SOL    HW230520   2.451   3.559   3.688  0.3189 -2.2724 -0.7757
 7687SOL    HW330521   2.541   3.457   3.754  1.4675  0.6781  2.5472
 7687SOL    MW430522   2.505   3.536   3.752 -0.0123  0.0506  0.4383
 7688SOL     OW30523   3.595   0.350   5.442 -0.0455 -0.3844 -0.1087
 7688SOL    HW230524   3.657   0.325   5.511 -0.5102 -0.4778  0.2844
 7688SOL    HW330525   3.514   0.305   5.466 -0.2248 -0.3799 -0.6953
 7688SOL    MW430526   3.593   0.341   5.454 -0.1305 -0.3961 -0.1342
 7689SOL     OW30527   1.937   2.446   3.351 -0.0121  0.2807  0.1308
 7689SOL    HW230528   1.852   2.477   3.320 -0.7986 -1.4461  0.4285
 7689SOL    HW330529   1.943   2.478   3.441  0.9103  2.6943 -0.7100
 7689SOL    MW430530   1.927   2.454   3.359  0.0059  0.3713  0.0591
 7690SOL     OW30531   0.644   4.093   3.032 -0.1189  0.1381  0.3186
 7690SOL    HW230532   0.684   4.150   2.967  3.1356  0.1763  2.1388
 7690SOL    HW330533   0.667   4.004   3.004 -1.6053 -0.1026 -0.2727
 7690SOL    MW430534   0.652   4.089   3.020  0.1144  0.1114  0.4807
 7691SOL     OW30535   5.378   3.055   4.854 -0.4667 -1.0777 -0.0217
 7691SOL    HW230536   5.422   2.977   4.887 -1.9179 -1.9400 -0.0444
 7691SOL    HW330537   5.374   3.043   4.759  1.0919  0.0072 -0.2593
 7691SOL    MW430538   5.383   3.043   4.846 -0.4525 -1.0484 -0.0560
 7692SOL     OW30539   3.089   5.714   5.821  0.2021 -0.1017  0.2541
 7692SOL    HW230540   3.002   5.703   5.782  0.5162 -0.1768 -0.4465
 7692SOL    HW330541   3.150   5.697   5.749  0.8235 -1.2756  1.0255
 7692SOL    MW430542   3.086   5.710   5.807  0.3255 -0.2665  0.2634
 7693SOL     OW30543   1.328   3.253   0.339  0.3443  0.1002  0.0475
 7693SOL    HW230544   1.415   3.292   0.332  1.1542 -1.7245 -0.5932
 7693SOL    HW330545   1.344   3.159   0.345 -1.5659 -0.2318  0.6979
 7693SOL    MW430546   1.342   3.246   0.339  0.1991 -0.1843  0.0488
 7694SOL     OW30547   6.305   0.631   5.106 -0.1220  0.3424 -0.7234
 7694SOL    HW230548   6.397   0.628   5.134 -0.1244 -0.3615 -0.7677
 7694SOL    HW330549   6.271   0.544   5.126 -0.3587  0.0949 -2.0951
 7694SOL    MW430550   6.313   0.619   5.112 -0.1535  0.2169 -0.9103
 7695SOL     OW30551   4.506   4.458   6.329 -0.6264 -1.0038 -0.3245
 7695SOL    HW230552   4.529   4.540   6.284  1.6730 -2.9207 -2.9674
 7695SOL    HW330553   4.462   4.405   6.262 -1.1611 -2.3549  1.0346
 7695SOL    MW430554   4.503   4.462   6.314 -0.3936 -1.4350 -0.4939
 7696SOL     OW30555   5.467   4.770   1.662  0.2225  0.0517  0.3390
 7696SOL    HW230556   5.466   4.863   1.682  0.5251  0.4948 -1.4753
 7696SOL    HW330557   5.515   4.764   1.579 -1.3190 -1.4917 -0.5033
 7696SOL    MW430558   5.473   4.781   1.653  0.0590 -0.0935 -0.0115
 7697SOL     OW30559   1.304   4.964   1.829  0.4184 -0.0111 -0.3307
 7697SOL    HW230560   1.388   4.964   1.782  1.1526 -0.6732  0.9424
 7697SOL    HW330561   1.243   5.004   1.767  1.4450 -0.4381 -1.6809
 7697SOL    MW430562   1.307   4.969   1.814  0.6507 -0.1548 -0.3409
 7698SOL     OW30563   3.429   5.347   6.039 -0.2465  0.1676 -0.4688
 7698SOL    HW230564   3.367   5.277   6.016  1.7163 -1.8009 -0.0633
 7698SOL    HW330565   3.393   5.425   5.997 -3.5991 -0.5722  0.6777
 7698SOL    MW430566   3.416   5.348   6.031 -0.4299 -0.1898 -0.2641
 7699SOL     OW30567   0.206   1.645   2.525 -0.3010 -0.3015 -0.1183
 7699SOL    HW230568   0.176   1.580   2.589  1.3237  0.5313  1.5770
 7699SOL    HW330569   0.275   1.599   2.476 -0.2633 -0.3638 -0.0089
 7699SOL    MW430570   0.211   1.630   2.527 -0.0816 -0.1999  0.1198
 7700SOL     OW30571   0.931   1.859   4.531 -0.2872 -0.0631 -0.3684
 7700SOL    HW230572   1.000   1.924   4.542 -1.4960  1.3032 -0.6418
 7700SOL    HW330573   0.962   1.802   4.461  0.9886 -0.0734  0.1846
 7700SOL    MW430574   0.944   1.860   4.523 -0.2784  0.1158 -0.3315
 7701SOL     OW30575   4.819   2.336   2.385 -0.4247 -0.6619  0.1959
 7701SOL    HW230576   4.758   2.275   2.342  0.1282 -0.3751 -1.0371
 7701SOL    HW330577   4.899   2.330   2.333 -0.2803  0.9554  0.1792
 7701SOL    MW430578   4.821   2.327   2.372 -0.3327 -0.4107  0.0310
 7702SOL     OW30579   1.223   2.812   2.440 -0.1006  0.1906  0.1073
 7702SOL    HW230580   1.203   2.805   2.347 -0.1844 -0.6921  0.1807
 7702SOL    HW330581   1.171   2.742   2.481  0.3222  0.2429  0.7519
 7702SOL    MW430582   1.214   2.802   2.433 -0.0559  0.0811  0.2020
 7703SOL     OW30583   3.958   0.231   4.715  0.4769 -0.0195 -0.3712
 7703SOL    HW230584   3.937   0.168   4.784  2.4469 -0.2377  0.0881
 7703SOL    HW330585   3.911   0.311   4.740 -1.8819 -1.1607 -0.8536
 7703SOL    MW430586   3.949   0.233   4.727  0.4256 -0.1988 -0.3743
 7704SOL     OW30587   1.546   6.154   1.786 -0.2558  0.1118 -0.2367
 7704SOL    HW230588   1.492   6.092   1.736  1.7569 -0.2667 -2.0883
 7704SOL    HW330589   1.515   6.240   1.757 -1.4204 -0.0235  0.5236
 7704SOL    MW430590   1.535   6.157   1.775 -0.1439  0.0440 -0.3807
 7705SOL     OW30591   6.181   6.082   4.920 -0.8464  0.4737 -0.3166
 7705SOL    HW230592   6.215   6.124   5.000  1.2977 -1.5627 -0.0430
 7705SOL    HW330593   6.230   6.123   4.849 -1.2592  0.8234 -0.4066
 7705SOL    MW430594   6.192   6.093   4.921 -0.6180  0.2511 -0.2924
 7706SOL     OW30595   4.511   5.888   5.007 -0.0592  0.1060 -0.2168
 7706SOL    HW230596   4.502   5.802   5.046  1.0013 -0.1026 -0.3903
 7706SOL    HW330597   4.423   5.911   4.977 -0.1883 -1.2917 -0.9707
 7706SOL    MW430598   4.498   5.880   5.008  0.0637 -0.1059 -0.3391
 7707SOL     OW30599   3.309   1.587   0.383  0.1845  0.1346 -0.6159
 7707SOL    HW230600   3.246   1.618   0.448 -0.1379  0.5758 -1.1231
 7707SOL    HW330601   3.338   1.502   0.416  0.4212  0.5781  0.3588
 7707SOL    MW430602   3.304   1.580   0.396  0.1732  0.2513 -0.5542
 7708SOL     OW30603   0.761   2.473   3.243  0.0214  0.3845 -0.1576
 7708SOL    HW230604   0.675   2.439   3.268 -0.7263  1.7752 -0.7401
 7708SOL    HW330605   0.761   2.563   3.274  1.7796  0.0490  0.9602
 7708SOL    MW430606   0.750   2.480   3.250  0.1547  0.5238 -0.0870
 7709SOL     OW30607   3.085   4.461   3.282  0.2259  0.3873 -0.6276
 7709SOL    HW230608   3.101   4.401   3.355 -0.2072  1.2284  0.1789
 7709SOL    HW330609   3.037   4.535   3.321 -0.8481  0.4261 -1.9403
 7709SOL    MW430610   3.081   4.463   3.297  0.0271  0.5034 -0.6944
 7710SOL     OW30611   0.788   6.096   6.284  0.3445 -0.1635  0.1629
 7710SOL    HW230612   0.745   6.181   6.286 -0.6132 -0.4824 -2.6854
 7710SOL    HW330613   0.717   6.032   6.290  0.9511 -0.7811  1.1033
 7710SOL    MW430614   0.773   6.099   6.285  0.2982 -0.2871 -0.0888
 7711SOL     OW30615   4.304   1.525   3.712  0.1136 -0.3193  0.4076
 7711SOL    HW230616   4.302   1.601   3.771  0.5508  0.7545 -0.9059
 7711SOL    HW330617   4.227   1.473   3.737 -2.3179  2.3633 -0.9083
 7711SOL    MW430618   4.293   1.528   3.723 -0.1496  0.1763  0.0607
 7712SOL     OW30619   1.474   3.167   1.904  0.4614  0.1889  0.1798
 7712SOL    HW230620   1.455   3.223   1.829 -0.9970 -1.9416 -1.1614
 7712SOL    HW330621   1.413   3.195   1.972 -0.3465  0.1674 -0.5196
 7712SOL    MW430622   1.464   3.178   1.903  0.1624 -0.0950 -0.0894
 7713SOL     OW30623   3.769   4.596   0.121 -0.3452 -0.0294  0.0112
 7713SOL    HW230624   3.795   4.655   0.192 -0.2836  0.7747 -0.6511
 7713SOL    HW330625   3.678   4.575   0.138 -0.0827 -0.5614  0.8032
 7713SOL    MW430626   3.760   4.601   0.133 -0.3025  0.0065  0.0283
 7714SOL     OW30627   3.697   1.777   1.426  0.1811  0.0323  0.0528
 7714SOL    HW230628   3.761   1.798   1.494 -1.4575  0.1567  1.6155
 7714SOL    HW330629   3.662   1.862   1.399  0.7921 -0.0185 -0.9610
 7714SOL    MW430630   3.701   1.791   1.431  0.0455  0.0420  0.1252
 7715SOL     OW30631   4.729   1.815   0.217  0.3012 -0.0350  0.2168
 7715SOL    HW230632   4.709   1.734   0.263 -2.3582 -0.4502 -1.4393
 7715SOL    HW330633   4.746   1.788   0.127 -1.2223  1.2244 -0.5108
 7715SOL    MW430634   4.728   1.801   0.211 -0.2507  0.0764 -0.0977
 7716SOL     OW30635   4.379   3.416   2.426 -0.4056  0.9146  0.1512
 7716SOL    HW230636   4.373   3.498   2.377 -2.1268 -0.0077 -1.2973
 7716SOL    HW330637   4.390   3.443   2.517  1.3830  2.7032 -0.5070
 7716SOL    MW430638   4.380   3.431   2.432 -0.3967  1.0289 -0.1267
 7717SOL     OW30639   1.158   1.528   5.922  0.5501  0.7581  0.5281
 7717SOL    HW230640   1.108   1.606   5.898  0.1939  0.1888 -0.7016
 7717SOL    HW330641   1.240   1.536   5.874 -0.3513 -0.6178 -1.3773
 7717SOL    MW430642   1.162   1.539   5.912  0.3841  0.5014  0.1144
 7718SOL     OW30643   3.722   4.546   5.672  0.4728 -0.0551 -0.5271
 7718SOL    HW230644   3.755   4.485   5.607 -0.4755  0.1118 -1.1929
 7718SOL    HW330645   3.685   4.490   5.741  0.7268 -0.2342 -0.5377
 7718SOL    MW430646   3.721   4.530   5.673  0.3812 -0.0567 -0.6163
 7719SOL     OW30647   4.937   5.435   4.583 -0.0721 -0.1161  0.5360
 7719SOL    HW230648   4.962   5.374   4.514 -0.3160  1.2032 -0.7695
 7719SOL    HW330649   5.014   5.491   4.595 -0.7612  1.0463 -0.2527
 7719SOL    MW430650   4.950   5.434   4.576 -0.1952  0.2113  0.2597
 7720SOL     OW30651   2.240   1.020   0.169 -0.0430 -0.7330  0.0580
 7720SOL    HW230652   2.174   1.070   0.121 -0.0636 -0.7749  0.0423
 7720SOL    HW330653   2.318   1.024   0.114 -0.3617 -1.6439 -0.4817
 7720SOL    MW430654   2.242   1.027   0.155 -0.0877 -0.8587 -0.0153
 7721SOL     OW30655   3.191   0.495   4.906 -1.0017  0.1191 -0.5936
 7721SOL    HW230656   3.187   0.419   4.848  1.2776  0.0935 -0.8166
 7721SOL    HW330657   3.129   0.557   4.869 -1.2982 -0.7934 -1.6911
 7721SOL    MW430658   3.183   0.493   4.893 -0.7401 -0.0047 -0.7678
 7722SOL     OW30659   0.521   2.282   6.182  0.6793 -0.0062  1.0429
 7722SOL    HW230660   0.587   2.241   6.238  0.5795 -0.0384  1.1351
 7722SOL    HW330661   0.523   2.230   6.101 -1.2360 -1.8167  2.0581
 7722SOL    MW430662   0.530   2.270   6.178  0.4134 -0.2493  1.1890
 7723SOL     OW30663   1.234   4.129   1.162 -0.3203  0.5755  0.3134
 7723SOL    HW230664   1.200   4.052   1.116 -1.1985  0.0196  1.8222
 7723SOL    HW330665   1.328   4.128   1.144 -0.4292 -0.4645 -0.2458
 7723SOL    MW430666   1.242   4.119   1.154 -0.4505  0.3649  0.4387
 7724SOL     OW30667   5.348   2.306   2.810  0.1599 -0.2287  0.0759
 7724SOL    HW230668   5.349   2.215   2.779 -0.8735 -0.2500  0.0805
 7724SOL    HW330669   5.378   2.300   2.901 -2.0932 -0.8803  0.8274
 7724SOL    MW430670   5.352   2.293   2.818 -0.2737 -0.3175  0.1757
 7725SOL     OW30671   0.444   0.033   5.973 -0.2400  0.2032  0.0738
 7725SOL    HW230672   0.516   0.094   5.985  1.1041 -1.4873  1.2916
 7725SOL    HW330673   0.374   0.084   5.934  0.4227  2.7560  1.9810
 7725SOL    MW430674   0.444   0.048   5.970  0.0248  0.3169  0.4861
 7726SOL     OW30675   4.391   4.189   4.063 -0.1904 -0.1589  0.1910
 7726SOL    HW230676   4.358   4.272   4.029  0.8741 -0.0154 -0.5325
 7726SOL    HW330677   4.358   4.123   4.002 -0.7964 -0.2433  0.6032
 7726SOL    MW430678   4.382   4.192   4.051 -0.1299 -0.1511  0.1499
 7727SOL     OW30679   3.699   0.809   1.130 -0.1182  0.4675  0.0175
 7727SOL    HW230680   3.621   0.758   1.151  0.0591  0.0567 -0.3288
 7727SOL    HW330681   3.755   0.800   1.207  0.1318 -0.2791 -0.2501
 7727SOL    MW430682   3.697   0.801   1.143 -0.0618  0.3148 -0.0635
 7728SOL     OW30683   2.253   0.562   4.666 -0.3362 -0.2433  0.5930
 7728SOL    HW230684   2.192   0.510   4.717 -1.5423 -0.4407 -0.9561
 7728SOL    HW330685   2.301   0.499   4.612 -1.3736  0.1507 -0.8461
 7728SOL    MW430686   2.251   0.547   4.665 -0.6322 -0.2173  0.1988
 7729SOL     OW30687   4.071   3.956   4.661  0.3007 -0.0041 -0.9358
 7729SOL    HW230688   4.120   3.875   4.656  0.4124  0.1078 -1.9283
 7729SOL    HW330689   4.108   4.011   4.591  1.2680  1.4908  0.6642
 7729SOL    MW430690   4.082   3.953   4.651  0.4430  0.2079 -0.8557
 7730SOL     OW30691   2.315   4.949   5.154 -0.3373  0.0609 -0.3049
 7730SOL    HW230692   2.326   4.970   5.061  0.1331 -0.4306 -0.3672
 7730SOL    HW330693   2.223   4.969   5.173 -1.3254 -2.7012 -1.6515
 7730SOL    MW430694   2.304   4.954   5.144 -0.4056 -0.3684 -0.4908
 7731SOL     OW30695   0.250   3.782   0.754 -0.6029 -0.2372 -0.5144
 7731SOL    HW230696   0.294   3.831   0.685 -0.6408  0.0374 -0.3439
 7731SOL    HW330697   0.281   3.692   0.743  0.9224  0.1523  0.3256
 7731SOL    MW430698   0.260   3.776   0.743 -0.4067 -0.1495 -0.3811
 7732SOL     OW30699   4.819   6.089   3.145  0.3752  0.3261 -0.2046
 7732SOL    HW230700   4.761   6.151   3.189  0.9135 -0.4731  1.7515
 7732SOL    HW330701   4.783   6.003   3.166  0.0639 -0.0971 -2.2593
 7732SOL    MW430702   4.807   6.086   3.154  0.4052  0.1648 -0.2176
 7733SOL     OW30703   5.201   5.547   4.063 -0.3544  0.3353  0.1813
 7733SOL    HW230704   5.234   5.481   4.124 -0.0433  1.1384  0.9049
 7733SOL    HW330705   5.157   5.612   4.119  2.1612  2.4598 -0.0938
 7733SOL    MW430706   5.200   5.547   4.078  0.0186  0.7216  0.2405
 7734SOL     OW30707   0.357   1.565   6.350  0.0307  0.3150 -0.2676
 7734SOL    HW230708   0.398   1.600   6.272  0.4498  0.2823 -0.0614
 7734SOL    HW330709   0.302   1.637   6.383 -1.0745 -0.0507 -1.2408
 7734SOL    MW430710   0.355   1.579   6.344 -0.0598  0.2625 -0.3688
 7735SOL     OW30711   2.463   4.288   1.714  0.0901 -0.1468 -0.0543
 7735SOL    HW230712   2.554   4.292   1.683 -0.4646  1.5473 -1.5952
 7735SOL    HW330713   2.415   4.247   1.642 -0.6311  0.5239  0.0364
 7735SOL    MW430714   2.469   4.283   1.701 -0.0783  0.1652 -0.2457
 7736SOL     OW30715   1.350   2.664   3.521 -0.3560 -0.4307 -0.0014
 7736SOL    HW230716   1.421   2.704   3.471 -0.1236 -0.8314  0.0011
 7736SOL    HW330717   1.282   2.731   3.525  0.4696  0.3867  0.9749
 7736SOL    MW430718   1.350   2.678   3.515 -0.2164 -0.3757  0.1277
 7737SOL     OW30719   0.016   4.148   0.805 -0.3479  0.1704  0.1880
 7737SOL    HW230720   0.052   4.092   0.736  2.1605 -0.2804  1.7472
 7737SOL    HW330721   0.019   4.236   0.768  1.2270 -0.0234 -0.2175
 7737SOL    MW430722   0.021   4.152   0.791  0.1908  0.0854  0.3402
 7738SOL     OW30723   0.913   4.924   3.382  0.4833  0.2696 -0.2371
 7738SOL    HW230724   0.910   4.835   3.418  1.4761  0.3442  0.0364
 7738SOL    HW330725   0.838   4.927   3.322  0.7998 -0.9530 -0.7236
 7738SOL    MW430726   0.902   4.913   3.379  0.6561  0.1181 -0.2652
 7739SOL     OW30727   4.406   4.060   6.169 -0.2150  0.7094  0.1175
 7739SOL    HW230728   4.413   4.147   6.129  0.5401 -0.0177 -1.4233
 7739SOL    HW330729   4.485   4.054   6.224  0.0775  0.7593 -0.2880
 7739SOL    MW430730   4.418   4.071   6.171 -0.0768  0.6201 -0.1393
 7740SOL     OW30731   5.579   2.630   0.204  0.1629 -0.6226 -0.3951
 7740SOL    HW230732   5.631   2.620   0.284 -0.6502  1.1402  0.3981
 7740SOL    HW330733   5.643   2.644   0.135  0.8404  2.0814  0.6500
 7740SOL    MW430734   5.594   2.630   0.206  0.1450 -0.0333 -0.1526
 7741SOL     OW30735   3.266   4.930   4.601 -0.0266 -0.1294 -0.6494
 7741SOL    HW230736   3.278   5.024   4.613  0.9352 -0.1565 -1.2665
 7741SOL    HW330737   3.231   4.899   4.684 -1.4377  0.9417 -0.8056
 7741SOL    MW430738   3.263   4.938   4.613 -0.0859  0.0084 -0.7514
 7742SOL     OW30739   0.846   6.403   3.932  0.2691 -0.1079  0.0573
 7742SOL    HW230740   0.838   6.316   3.892 -0.4894 -0.4060  0.8175
 7742SOL    HW330741   0.771   6.451   3.898  1.1407  0.5390 -1.0128
 7742SOL    MW430742   0.835   6.397   3.922  0.2840 -0.0619  0.0164
 7743SOL     OW30743   0.271   4.659   6.187  0.3192 -0.0758 -0.0187
 7743SOL    HW230744   0.253   4.745   6.148 -1.3473 -0.2920  0.1836
 7743SOL    HW330745   0.323   4.679   6.265 -0.6985  0.8398  0.4586
 7743SOL    MW430746   0.275   4.673   6.192 -0.0349  0.0165  0.0710
 7744SOL     OW30747   6.008   1.356   6.117  0.0163 -0.6878 -0.9675
 7744SOL    HW230748   5.960   1.430   6.155 -0.3232 -0.8048 -1.1645
 7744SOL    HW330749   6.097   1.367   6.149 -0.0480 -0.2355 -0.9322
 7744SOL    MW430750   6.013   1.367   6.126 -0.0370 -0.6436 -0.9888
 7745SOL     OW30751   1.602   5.407   5.493 -0.2406  0.7149  0.1663
 7745SOL    HW230752   1.538   5.425   5.562 -0.2237  1.0377  0.0980
 7745SOL    HW330753   1.663   5.481   5.497  0.1364  0.4001  0.2412
 7745SOL    MW430754   1.601   5.419   5.502 -0.1886  0.7159  0.1672
 7746SOL     OW30755   2.622   6.141   3.441 -0.5274  0.0763  0.3566
 7746SOL    HW230756   2.712   6.165   3.419 -0.0702 -1.5824  0.2922
 7746SOL    HW330757   2.631   6.067   3.502 -1.8448 -0.0479  0.4332
 7746SOL    MW430758   2.635   6.134   3.446 -0.6409 -0.1589  0.3582
 7747SOL     OW30759   2.995   6.060   4.117  0.3721 -0.0999 -0.2429
 7747SOL    HW230760   2.905   6.066   4.084 -0.2875 -0.7795  1.3327
 7747SOL    HW330761   3.044   6.022   4.044 -0.8613 -0.8090 -0.7367
 7747SOL    MW430762   2.989   6.056   4.103  0.1223 -0.2831 -0.1002
 7748SOL     OW30763   5.351   0.738   0.608 -0.5524  0.4155 -0.3316
 7748SOL    HW230764   5.293   0.814   0.596 -0.3063  0.6701  0.0983
 7748SOL    HW330765   5.313   0.690   0.681  0.0157  0.8078  0.2249
 7748SOL    MW430766   5.338   0.742   0.616 -0.4450  0.5008 -0.2015
 7749SOL     OW30767   5.724   2.082   4.215 -0.3226 -0.4031 -0.6056
 7749SOL    HW230768   5.736   2.139   4.139  1.4952 -0.5480 -0.4769
 7749SOL    HW330769   5.768   2.128   4.286 -1.5488 -0.5265  0.2503
 7749SOL    MW430770   5.732   2.095   4.214 -0.2445 -0.4385 -0.4757
 7750SOL     OW30771   0.903   1.109   1.200 -0.3085 -0.4383  0.6471
 7750SOL    HW230772   0.945   1.027   1.175 -2.3947 -1.2804 -0.3465
 7750SOL    HW330773   0.930   1.171   1.132 -2.3960 -1.5759 -1.3643
 7750SOL    MW430774   0.912   1.107   1.188 -0.8591 -0.6995  0.2507
 7751SOL     OW30775   0.067   5.511   5.263 -0.1172 -0.1967 -0.1133
 7751SOL    HW230776   0.027   5.426   5.247 -2.1584  0.5517  0.7686
 7751SOL    HW330777   0.049   5.562   5.184  0.1585 -0.2323 -0.2011
 7751SOL    MW430778   0.060   5.506   5.251 -0.3502 -0.1026 -0.0085
 7752SOL     OW30779   1.805   6.024   1.769  0.4563 -0.0483 -0.4715
 7752SOL    HW230780   1.778   5.932   1.767 -0.5267  0.2331 -0.6249
 7752SOL    HW330781   1.723   6.073   1.778  0.8000  0.8741 -1.9555
 7752SOL    MW430782   1.790   6.019   1.770  0.3719  0.1105 -0.6876
 7753SOL     OW30783   4.541   0.200   0.948  0.0970  0.0146  0.3261
 7753SOL    HW230784   4.449   0.175   0.950 -0.2708  1.0824 -1.2995
 7753SOL    HW330785   4.541   0.295   0.961  1.1062 -0.1472  1.7821
 7753SOL    MW430786   4.529   0.209   0.950  0.1816  0.1342  0.3037
 7754SOL     OW30787   6.188   3.547   1.932  0.3115  0.3506  0.3424
 7754SOL    HW230788   6.161   3.587   1.849 -1.2448  2.3881  1.7273
 7754SOL    HW330789   6.283   3.560   1.935  0.5369 -0.5764 -1.4842
 7754SOL    MW430790   6.197   3.554   1.921  0.1359  0.4972  0.2841
 7755SOL     OW30791   2.731   5.114   4.879  0.0206 -0.1508 -0.4969
 7755SOL    HW230792   2.775   5.165   4.811 -0.4671  1.9113  0.6305
 7755SOL    HW330793   2.686   5.044   4.831  1.8812 -0.4333 -1.9763
 7755SOL    MW430794   2.731   5.112   4.864  0.2018  0.0840 -0.5434
 7756SOL     OW30795   0.823   4.026   0.987  0.0387 -0.5883  0.2653
 7756SOL    HW230796   0.861   3.995   0.904 -1.7266  1.5121 -1.4561
 7756SOL    HW330797   0.806   3.946   1.036  3.6055 -1.7993 -0.1508
 7756SOL    MW430798   0.826   4.011   0.982  0.2764 -0.4710 -0.0167
 7757SOL     OW30799   5.272   4.580   3.119  0.6411  0.3320 -0.3320
 7757SOL    HW230800   5.236   4.504   3.166  0.5542 -0.0829 -1.0518
 7757SOL    HW330801   5.199   4.642   3.113  0.9277  0.8211  0.9490
 7757SOL    MW430802   5.257   4.578   3.124  0.6675  0.3418 -0.2580
 7758SOL     OW30803   2.763   3.574   5.575  0.7417  0.4549 -0.1756
 7758SOL    HW230804   2.674   3.603   5.556  1.2929  1.1210 -1.9856
 7758SOL    HW330805   2.762   3.553   5.668 -1.1500  1.0033 -0.0263
 7758SOL    MW430806   2.752   3.575   5.584  0.5649  0.6152 -0.3947
 7759SOL     OW30807   2.995   2.032   0.483  0.0070  0.4238 -0.2612
 7759SOL    HW230808   2.966   1.975   0.412  0.9094  1.7999 -1.8093
 7759SOL    HW330809   2.929   2.021   0.551 -0.1107 -2.0517 -0.6968
 7759SOL    MW430810   2.982   2.023   0.483  0.1105  0.2787 -0.5229
 7760SOL     OW30811   3.529   0.944   3.210 -0.6856  0.4607 -0.0413
 7760SOL    HW230812   3.461   0.877   3.218  1.2047 -1.5704  0.0263
 7760SOL    HW330813   3.535   0.982   3.298 -2.4062  1.4247 -0.3057
 7760SOL    MW430814   3.521   0.940   3.223 -0.6632  0.3199 -0.0673
 7761SOL     OW30815   5.550   3.403   3.592  0.0052 -0.1135  0.2235
 7761SOL    HW230816   5.596   3.465   3.536  0.9140 -1.0720 -0.1146
 7761SOL    HW330817   5.501   3.348   3.531  0.4696 -0.7353  0.4024
 7761SOL    MW430818   5.549   3.404   3.576  0.1864 -0.3220  0.2025
 7762SOL     OW30819   1.233   0.679   3.283  0.4450  0.7963 -0.5889
 7762SOL    HW230820   1.192   0.714   3.362 -2.5085 -0.3481 -1.5085
 7762SOL    HW330821   1.212   0.743   3.214  1.5508  0.9251 -0.8427
 7762SOL    MW430822   1.225   0.692   3.284  0.2012  0.6623 -0.7437
 7763SOL     OW30823   5.357   5.390   0.281 -0.2906 -0.3980  0.7592
 7763SOL    HW230824   5.382   5.385   0.189  1.9222 -1.6256  1.3511
 7763SOL    HW330825   5.431   5.432   0.324 -1.8932  1.5037  1.8453
 7763SOL    MW430826   5.370   5.395   0.275 -0.2101 -0.3090  0.9806
 7764SOL     OW30827   3.147   5.169   0.586  0.2142  0.2950  0.1230
 7764SOL    HW230828   3.051   5.176   0.593 -0.0309 -1.7916 -0.6392
 7764SOL    HW330829   3.170   5.225   0.512 -0.3672  0.9701  0.4358
 7764SOL    MW430830   3.137   5.178   0.577  0.1051  0.1087  0.0637
 7765SOL     OW30831   6.083   2.401   4.054 -0.3552  0.4115  0.2449
 7765SOL    HW230832   6.056   2.492   4.069 -0.0050  0.3813  1.1307
 7765SOL    HW330833   6.133   2.404   3.972  0.4716  1.2094  0.7486
 7765SOL    MW430834   6.086   2.414   4.045 -0.1999  0.5128  0.4282
 7766SOL     OW30835   5.186   4.586   5.834 -0.4157 -0.1917  0.8554
 7766SOL    HW230836   5.093   4.609   5.823 -0.6639 -2.1636 -2.5090
 7766SOL    HW330837   5.187   4.491   5.833  1.6581 -0.2020  0.6989
 7766SOL    MW430838   5.174   4.577   5.832 -0.1748 -0.4532  0.3909
 7767SOL     OW30839   0.990   4.639   0.862  0.2933  0.6251  0.5006
 7767SOL    HW230840   0.897   4.625   0.847  0.7435 -0.6071 -1.7159
 7767SOL    HW330841   0.996   4.726   0.901 -1.7099  1.3369 -0.6169
 7767SOL    MW430842   0.979   4.649   0.865  0.0884  0.5564  0.0607
 7768SOL     OW30843   0.798   5.909   4.467 -0.3542 -0.5330  0.5508
 7768SOL    HW230844   0.814   5.952   4.383  0.1808 -1.3529  0.2111
 7768SOL    HW330845   0.734   5.841   4.447 -1.4406  0.2956  1.1455
 7768SOL    MW430846   0.792   5.905   4.453 -0.4269 -0.5319  0.5844
 7769SOL     OW30847   5.565   3.278   2.828  0.1209 -0.2933 -0.7040
 7769SOL    HW230848   5.515   3.355   2.856  0.1445  0.2678 -2.1280
 7769SOL    HW330849   5.546   3.270   2.734  0.8886 -1.4523 -0.7790
 7769SOL    MW430850   5.556   3.287   2.819  0.2253 -0.3722 -0.9018
 7770SOL     OW30851   4.893   5.647   6.173 -0.0346 -0.5012  0.1584
 7770SOL    HW230852   4.821   5.585   6.165 -0.0637 -0.3228 -1.2154
 7770SOL    HW330853   4.959   5.601   6.224 -0.4945 -1.2451  0.0952
 7770SOL    MW430854   4.892   5.633   6.179 -0.0992 -0.5758 -0.0312
 7771SOL     OW30855   0.893   4.702   2.814 -0.2365  0.7043  0.9081
 7771SOL    HW230856   0.916   4.610   2.807 -1.4579  0.5223 -1.6555
 7771SOL    HW330857   0.957   4.747   2.759 -1.3267  1.0369 -0.1202
 7771SOL    MW430858   0.904   4.696   2.806 -0.5415  0.7242  0.4342
 7772SOL     OW30859   0.565   3.950   0.840  0.8036 -0.4500  0.2599
 7772SOL    HW230860   0.602   4.035   0.814  0.5453 -0.3904  0.0888
 7772SOL    HW330861   0.640   3.901   0.872  0.7352  0.3814  1.7853
 7772SOL    MW430862   0.580   3.955   0.841  0.7605 -0.3325  0.4386
 7773SOL     OW30863   0.034   2.576   1.672 -0.2543  0.1049  0.4783
 7773SOL    HW230864  -0.015   2.534   1.602 -0.6451  2.0538 -0.4902
 7773SOL    HW330865   0.029   2.670   1.652 -0.6110  0.7665  3.2728
 7773SOL    MW430866   0.027   2.583   1.660 -0.3529  0.4494  0.7192
 7774SOL     OW30867   5.904   3.686   0.086 -0.4443 -0.0237  0.3994
 7774SOL    HW230868   5.864   3.767   0.119 -0.3983  0.4294 -0.6213
 7774SOL    HW330869   5.939   3.643   0.164 -0.0276  1.1828  0.9006
 7774SOL    MW430870   5.903   3.691   0.101 -0.3832  0.1953  0.3308
 7775SOL     OW30871   2.345   1.150   6.239  0.0894  0.0029  1.2617
 7775SOL    HW230872   2.377   1.215   6.176 -0.5516 -1.1043 -0.2711
 7775SOL    HW330873   2.250   1.160   6.237 -0.0601 -1.3816  0.5111
 7775SOL    MW430874   2.337   1.160   6.231 -0.0149 -0.3259  0.9605
 7776SOL     OW30875   1.906   2.947   6.414  0.1185 -0.0641  0.3737
 7776SOL    HW230876   1.976   2.897   6.372 -0.3912  0.4153 -1.1300
 7776SOL    HW330877   1.922   3.038   6.388 -1.5290 -0.0521 -0.7685
 7776SOL    MW430878   1.917   2.953   6.405 -0.1661  0.0007  0.0246
 7777SOL     OW30879   3.353   5.429   5.740 -0.7120 -0.5068  0.5438
 7777SOL    HW230880   3.257   5.427   5.733 -0.7128 -0.1797  0.4606
 7777SOL    HW330881   3.371   5.496   5.806 -0.5504 -0.7970  0.8012
 7777SOL    MW430882   3.343   5.437   5.748 -0.6908 -0.5019  0.5668
 7778SOL     OW30883   1.839   0.349   4.929 -0.1832  0.4103 -0.5207
 7778SOL    HW230884   1.867   0.357   5.020  0.4775 -0.7811 -0.5918
 7778SOL    HW330885   1.897   0.408   4.880 -0.6852  1.2173 -0.1530
 7778SOL    MW430886   1.851   0.358   4.934 -0.1622  0.3596 -0.4816
 7779SOL     OW30887   2.556   3.499   3.330  0.7425 -0.3225  0.1388
 7779SOL    HW230888   2.591   3.414   3.303  1.5501 -0.6749  2.1125
 7779SOL    HW330889   2.595   3.515   3.415 -0.9467  1.1226  0.7078
 7779SOL    MW430890   2.566   3.490   3.337  0.6262 -0.1783  0.4743
 7780SOL     OW30891   4.316   0.337   1.255  0.1943 -0.1903  0.2206
 7780SOL    HW230892   4.234   0.354   1.301  0.5800  1.2984  0.4050
 7780SOL    HW330893   4.339   0.421   1.215  0.4385 -1.1655 -1.7902
 7780SOL    MW430894   4.308   0.350   1.256  0.2774 -0.1226 -0.0204
 7781SOL     OW30895   1.446   1.165   6.420 -0.1526  0.3052  0.0290
 7781SOL    HW230896   1.524   1.111   6.434 -1.4226 -1.4357  0.8622
 7781SOL    HW330897   1.453   1.195   6.330  1.2270 -0.2382 -0.0661
 7781SOL    MW430898   1.457   1.162   6.410 -0.1381  0.0038  0.1264
 7782SOL     OW30899   1.996   4.933   1.965 -0.4649 -0.2023  0.6846
 7782SOL    HW230900   2.072   4.886   1.931 -0.3807  0.5463 -0.2143
 7782SOL    HW330901   2.020   5.026   1.958 -1.0941  0.0128  1.2647
 7782SOL    MW430902   2.009   4.939   1.959 -0.5368 -0.0752  0.6426
 7783SOL     OW30903   6.125   2.818   0.499  0.6506 -0.2111  0.1743
 7783SOL    HW230904   6.132   2.727   0.470 -0.0017 -0.4633  0.7656
 7783SOL    HW330905   6.154   2.817   0.590  1.1972  0.2834  0.0077
 7783SOL    MW430906   6.129   2.806   0.507  0.6367 -0.1791  0.2303
 7784SOL     OW30907   3.064   2.832   4.103  0.1354 -0.3617  0.6045
 7784SOL    HW230908   2.994   2.897   4.109  0.6533  0.2164  0.5459
 7784SOL    HW330909   3.059   2.785   4.186 -0.5184 -0.5385  0.4713
 7784SOL    MW430910   3.054   2.835   4.115  0.1174 -0.3087  0.5792
 7785SOL     OW30911   6.179   4.651   1.137  0.0148 -0.7487 -0.0993
 7785SOL    HW230912   6.220   4.735   1.158  0.2433 -0.9335  0.2128
 7785SOL    HW330913   6.207   4.593   1.208  0.3084 -1.2292 -0.5942
 7785SOL    MW430914   6.188   4.655   1.149  0.0837 -0.8365 -0.1234
 7786SOL     OW30915   2.448   1.561   6.037  0.4907  0.3520  0.0427
 7786SOL    HW230916   2.429   1.467   6.030 -2.1510  0.9115 -1.6648
 7786SOL    HW330917   2.425   1.583   6.127 -0.8345 -0.2928 -0.1161
 7786SOL    MW430918   2.442   1.551   6.048 -0.0327  0.3408 -0.2035
 7787SOL     OW30919   1.911   5.789   4.832 -0.0238  0.3838 -0.0770
 7787SOL    HW230920   1.984   5.822   4.780 -1.5372  0.5850 -2.2153
 7787SOL    HW330921   1.885   5.708   4.787 -0.9039  0.1408  0.8431
 7787SOL    MW430922   1.917   5.782   4.819 -0.3396  0.3783 -0.2378
 7788SOL     OW30923   2.223   2.126   5.925  0.4616  0.4771 -0.1782
 7788SOL    HW230924   2.292   2.078   5.970  0.0706  0.0573 -0.0231
 7788SOL    HW330925   2.145   2.072   5.936  0.2994  0.4964 -1.1227
 7788SOL    MW430926   2.222   2.112   5.932  0.3886  0.4242 -0.2824
 7789SOL     OW30927   0.870   1.720   3.925 -0.0949 -0.6787  0.0570
 7789SOL    HW230928   0.811   1.648   3.902 -0.8724 -0.2373  0.6362
 7789SOL    HW330929   0.831   1.797   3.883  0.5986 -0.5419 -0.3561
 7789SOL    MW430930   0.857   1.721   3.916 -0.1060 -0.6024  0.0789
 7790SOL     OW30931   3.168   4.955   0.275 -0.0937 -0.0621 -0.1785
 7790SOL    HW230932   3.108   4.881   0.286 -0.8284  0.8808  3.6159
 7790SOL    HW330933   3.114   5.025   0.239  0.1977 -0.8032 -2.1604
 7790SOL    MW430934   3.153   4.954   0.272 -0.1522 -0.0355  0.0607
 7791SOL     OW30935   5.788   6.165   4.236  0.2145  0.0039 -0.6856
 7791SOL    HW230936   5.711   6.118   4.270  0.2880 -0.6912 -1.4344
 7791SOL    HW330937   5.861   6.132   4.287  0.1203  0.0811 -0.5009
 7791SOL    MW430938   5.787   6.154   4.247  0.2118 -0.0776 -0.7601
 7792SOL     OW30939   0.427   1.568   4.182  0.0361  0.1275 -0.3039
 7792SOL    HW230940   0.443   1.512   4.107 -0.6904  0.3447 -0.6304
 7792SOL    HW330941   0.416   1.508   4.256 -0.5177 -0.1517 -0.6100
 7792SOL    MW430942   0.427   1.553   4.182 -0.1328  0.1193 -0.3874
 7793SOL     OW30943   5.460   2.077   4.409  0.4306  0.2632  0.1455
 7793SOL    HW230944   5.368   2.051   4.404 -0.0949  2.0154  0.2040
 7793SOL    HW330945   5.508   1.994   4.409 -1.1572 -0.6947  0.5800
 7793SOL    MW430946   5.454   2.062   4.408  0.1518  0.3680  0.2106
 7794SOL     OW30947   5.819   3.061   1.642 -0.4635 -0.0893  0.1408
 7794SOL    HW230948   5.816   3.105   1.727 -1.6976 -0.0708  0.0986
 7794SOL    HW330949   5.901   3.091   1.603  0.3064 -0.3537  1.4540
 7794SOL    MW430950   5.829   3.070   1.648 -0.5247 -0.1217  0.3085
 7795SOL     OW30951   0.244   3.977   3.049  0.2954  0.3820  0.2414
 7795SOL    HW230952   0.281   4.035   3.115  1.3668 -0.8980  0.8394
 7795SOL    HW330953   0.260   4.022   2.966 -0.4095  1.6736  0.7784
 7795SOL    MW430954   0.251   3.990   3.047  0.3437  0.3835  0.3912
 7796SOL     OW30955   1.361   4.317   4.187  0.2151  0.2745  0.5774
 7796SOL    HW230956   1.392   4.320   4.097  1.0306 -1.0142  0.7767
 7796SOL    HW330957   1.425   4.370   4.236  1.4126 -1.2773  0.7814
 7796SOL    MW430958   1.374   4.324   4.182  0.4807 -0.1003  0.6306
 7797SOL     OW30959   6.416   5.152   0.039 -0.2064  0.4377  0.2221
 7797SOL    HW230960   6.388   5.082   0.098 -1.6063  1.2953  0.6397
 7797SOL    HW330961   6.379   5.128  -0.046 -1.6507  1.1589  0.5990
 7797SOL    MW430962   6.407   5.140   0.035 -0.5816  0.6460  0.3269
 7798SOL     OW30963   6.024   5.922   2.900 -0.0118 -0.6864 -0.4550
 7798SOL    HW230964   6.019   5.873   2.818 -0.9442 -0.1019 -0.7603
 7798SOL    HW330965   6.118   5.930   2.918  0.1799 -1.3610 -1.1317
 7798SOL    MW430966   6.036   5.917   2.892 -0.1096 -0.6983 -0.5846
 7799SOL     OW30967   5.410   5.350   0.013  0.0053 -0.0617 -0.2804
 7799SOL    HW230968   5.453   5.407  -0.050 -0.1081  0.1945 -0.1286
 7799SOL    HW330969   5.356   5.292  -0.040  0.6283 -0.4677 -0.4801
 7799SOL    MW430970   5.408   5.350  -0.002  0.0725 -0.0815 -0.2867
 7800SOL     OW30971   1.318   2.634   0.588 -0.4597  0.5003  0.4254
 7800SOL    HW230972   1.393   2.585   0.622 -0.7072 -0.2877 -0.1156
 7800SOL    HW330973   1.345   2.726   0.592  0.8351  0.1874 -0.4776
 7800SOL    MW430974   1.331   2.640   0.593 -0.3215  0.3551  0.2349
 7801SOL     OW30975   4.941   2.140   5.512  0.1657 -0.2934 -0.3554
 7801SOL    HW230976   4.908   2.229   5.517 -0.7124 -0.6171 -0.1489
 7801SOL    HW330977   4.998   2.131   5.588 -3.0823 -1.1937  2.2211
 7801SOL    MW430978   4.944   2.150   5.523 -0.3787 -0.4549  0.0118
 7802SOL     OW30979   5.581   6.063   6.039  0.2673  0.4514 -0.0299
 7802SOL    HW230980   5.581   6.083   6.133  0.6590  0.8330 -0.1102
 7802SOL    HW330981   5.634   5.983   6.032 -1.6824 -0.9597  0.3461
 7802SOL    MW430982   5.588   6.055   6.051  0.0617  0.3156  0.0091
 7803SOL     OW30983   3.796   1.086   5.130 -0.7601 -0.0415 -0.1976
 7803SOL    HW230984   3.806   1.170   5.176  1.2691  0.0983 -0.7644
 7803SOL    HW330985   3.729   1.102   5.064 -0.9823  0.8839  0.2349
 7803SOL    MW430986   3.789   1.099   5.127 -0.5217  0.0990 -0.2153
 7804SOL     OW30987   1.043   0.266   1.116 -0.7421  0.6662 -0.8885
 7804SOL    HW230988   1.033   0.338   1.179 -2.9747 -1.2228  1.1311
 7804SOL    HW330989   1.137   0.251   1.112 -0.2424  3.2562 -0.9545
 7804SOL    MW430990   1.054   0.274   1.124 -0.9707  0.7587 -0.6307
 7805SOL     OW30991   4.831   0.948   1.800 -0.0242 -0.6096  0.1105
 7805SOL    HW230992   4.925   0.933   1.807 -0.3791 -3.5229 -0.2263
 7805SOL    HW330993   4.798   0.929   1.888 -0.5348 -2.1799 -0.3872
 7805SOL    MW430994   4.839   0.944   1.813 -0.1384 -1.2011  0.0004
 7806SOL     OW30995   1.710   1.031   2.439  0.6464 -0.0253 -0.5156
 7806SOL    HW230996   1.781   1.052   2.378  0.7989  0.6590 -0.1082
 7806SOL    HW330997   1.738   1.067   2.523  0.0501 -0.2081 -0.2285
 7806SOL    MW430998   1.723   1.039   2.442  0.5878  0.0409 -0.4240
 7807SOL     OW30999   1.831   1.778   4.887 -0.4716  0.4294  0.2441
 7807SOL    HW231000   1.740   1.758   4.865 -0.5728 -1.3880  2.0421
 7807SOL    HW331001   1.831   1.788   4.983  1.1590  0.8080  0.2355
 7807SOL    MW431002   1.819   1.777   4.897 -0.2698  0.2396  0.4802
 7808SOL     OW31003   6.292   6.237   5.136  0.1124 -0.0757 -0.6046
 7808SOL    HW231004   6.374   6.224   5.088  0.4944 -0.9054  0.2366
 7808SOL    HW331005   6.316   6.222   5.228 -0.9244 -0.0394 -0.3206
 7808SOL    MW431006   6.306   6.234   5.142  0.0260 -0.1804 -0.4561
 7809SOL     OW31007   0.842   5.929   3.973 -0.1208  0.6271  0.3847
 7809SOL    HW231008   0.902   5.865   4.012 -1.7765 -1.1325  0.2547
 7809SOL    HW331009   0.768   5.876   3.942 -1.0766  2.5151 -0.7784
 7809SOL    MW431010   0.840   5.913   3.974 -0.4654  0.6440  0.2141
 7810SOL     OW31011   5.377   5.109   2.487  0.2700 -0.8491 -0.0437
 7810SOL    HW231012   5.465   5.144   2.479 -0.4104  0.9056 -0.2649
 7810SOL    HW331013   5.351   5.127   2.578 -0.3951  0.0082 -0.3916
 7810SOL    MW431014   5.385   5.116   2.498  0.0925 -0.5045 -0.1188
 7811SOL     OW31015   3.939   4.196   2.544 -0.2099 -0.0028 -0.5456
 7811SOL    HW231016   3.853   4.159   2.527 -0.5506  0.7740 -0.5640
 7811SOL    HW331017   3.978   4.207   2.457  0.0450 -0.6447 -0.5219
 7811SOL    MW431018   3.933   4.193   2.530 -0.2212  0.0150 -0.5449
 7812SOL     OW31019   1.016   2.948   6.143  0.3634 -0.2015  0.1089
 7812SOL    HW231020   0.939   2.900   6.112 -0.2087 -0.4239  1.7709
 7812SOL    HW331021   1.057   2.889   6.206  1.9031 -0.0627 -0.7046
 7812SOL    MW431022   1.011   2.934   6.147  0.4910 -0.2125  0.2209
 7813SOL     OW31023   1.545   6.112   3.277 -0.0301  0.1577  0.0918
 7813SOL    HW231024   1.622   6.169   3.265 -1.2046  1.9755  0.7241
 7813SOL    HW331025   1.575   6.043   3.336  1.1069  0.8571  0.3673
 7813SOL    MW431026   1.559   6.111   3.283 -0.0350  0.4898  0.2116
 7814SOL     OW31027   1.292   0.686   1.775  0.0643 -0.1004 -0.4939
 7814SOL    HW231028   1.298   0.700   1.681 -2.7369 -0.0345 -0.7703
 7814SOL    HW331029   1.282   0.773   1.812  1.7190 -0.0784 -0.0231
 7814SOL    MW431030   1.291   0.699   1.768 -0.0870 -0.0888 -0.4683
 7815SOL     OW31031   4.732   3.817   1.212 -0.1096  0.0252  0.3842
 7815SOL    HW231032   4.679   3.879   1.262  1.0695  0.7285  0.8079
 7815SOL    HW331033   4.680   3.797   1.134 -0.6759  1.2610  0.4319
 7815SOL    MW431034   4.718   3.822   1.208 -0.0288  0.2811  0.4464
 7816SOL     OW31035   4.896   6.175   2.877 -0.7728  0.3894  0.0189
 7816SOL    HW231036   4.903   6.134   2.963 -1.1531  1.4841  0.5875
 7816SOL    HW331037   4.947   6.256   2.885 -0.6790  0.4241 -0.8326
 7816SOL    MW431038   4.904   6.180   2.889 -0.8106  0.5384 -0.0184
 7817SOL     OW31039   0.172   2.474   6.052 -0.2048  0.0832  0.0954
 7817SOL    HW231040   0.141   2.557   6.086  1.8461  1.4768 -1.1908
 7817SOL    HW331041   0.251   2.496   6.003  1.0818 -2.7747  0.6466
 7817SOL    MW431042   0.178   2.488   6.050  0.2356 -0.1100 -0.0016
 7818SOL     OW31043   5.199   5.994   0.670 -0.5923  0.3620  0.3659
 7818SOL    HW231044   5.289   6.002   0.700 -0.7019 -0.4714  0.9499
 7818SOL    HW331045   5.151   6.059   0.722 -0.1752  1.6380 -0.7564
 7818SOL    MW431046   5.204   6.004   0.681 -0.5517  0.4204  0.2949
 7819SOL     OW31047   3.820   2.399   4.005 -0.4660  0.0625  0.0208
 7819SOL    HW231048   3.824   2.347   3.925 -1.7408 -1.2555  0.7675
 7819SOL    HW331049   3.800   2.488   3.975 -1.9495 -0.5975 -1.0873
 7819SOL    MW431050   3.818   2.404   3.991 -0.8299 -0.1985 -0.0269
 7820SOL     OW31051   3.875   0.018   0.450  0.6103 -0.3246  0.0655
 7820SOL    HW231052   3.959   0.050   0.417 -0.4396  2.0379 -0.5391
 7820SOL    HW331053   3.839  -0.033   0.378  0.0720  1.5430 -1.0725
 7820SOL    MW431054   3.881   0.016   0.436  0.4007  0.2335 -0.1644
 7821SOL     OW31055   1.319   0.199   2.535 -0.4244 -0.3356  0.3713
 7821SOL    HW231056   1.236   0.244   2.525  0.6901  1.7088 -0.2795
 7821SOL    HW331057   1.355   0.234   2.617 -1.0997 -2.8379  1.8531
 7821SOL    MW431058   1.313   0.209   2.545 -0.3665 -0.3960  0.4809
 7822SOL     OW31059   5.825   2.030   3.854 -0.0687 -0.2725 -0.4940
 7822SOL    HW231060   5.778   1.954   3.887  0.2742  0.8191  2.9910
 7822SOL    HW331061   5.909   1.996   3.825 -0.6655 -1.4482 -0.8844
 7822SOL    MW431062   5.830   2.016   3.855 -0.1022 -0.2836 -0.0857
 7823SOL     OW31063   2.180   5.120   5.682  0.1278 -0.2056 -0.0168
 7823SOL    HW231064   2.174   5.207   5.641 -0.0881  0.1377  0.7248
 7823SOL    HW331065   2.145   5.060   5.616  0.7499  0.2053 -0.7330
 7823SOL    MW431066   2.175   5.124   5.668  0.1814 -0.1061 -0.0134
 7824SOL     OW31067   3.852   0.637   0.478 -0.3625  0.4682  0.3122
 7824SOL    HW231068   3.873   0.725   0.509 -0.3524  0.0944  1.4098
 7824SOL    HW331069   3.930   0.586   0.498 -1.2476 -0.3270  1.9568
 7824SOL    MW431070   3.865   0.642   0.485 -0.4779  0.3139  0.6740
 7825SOL     OW31071   0.938   5.994   3.571 -0.5097 -0.0639 -0.3495
 7825SOL    HW231072   0.923   6.050   3.647 -0.1992  0.5999 -0.7704
 7825SOL    HW331073   0.954   5.907   3.608  0.0670  0.3384  0.3640
 7825SOL    MW431074   0.938   5.990   3.586 -0.3926  0.0768 -0.3109
 7826SOL     OW31075   2.548   3.347   3.062 -0.1724  0.1484  0.6065
 7826SOL    HW231076   2.637   3.313   3.047 -0.5015 -0.1664 -0.7436
 7826SOL    HW331077   2.503   3.277   3.108 -0.1305 -0.2875  0.0031
 7826SOL    MW431078   2.554   3.334   3.066 -0.2103  0.0493  0.3487
 7827SOL     OW31079   1.982   3.051   4.472 -0.7793 -0.1363  0.3278
 7827SOL    HW231080   1.923   3.013   4.407 -0.5260 -0.9945  0.5796
 7827SOL    HW331081   1.955   3.142   4.480 -0.7405  0.0089 -1.0625
 7827SOL    MW431082   1.971   3.058   4.465 -0.7407 -0.2304  0.1776
 7828SOL     OW31083   0.234   4.555   4.792  0.1602 -0.0058 -0.0777
 7828SOL    HW231084   0.244   4.461   4.810  0.7785  0.3782  1.7539
 7828SOL    HW331085   0.312   4.595   4.830  0.8168  1.1052 -2.4216
 7828SOL    MW431086   0.246   4.548   4.799  0.3284  0.1915 -0.1453
 7829SOL     OW31087   4.978   5.856   0.450 -0.3044 -0.0438  0.4824
 7829SOL    HW231088   5.036   5.906   0.507 -0.6915 -1.1917  1.9415
 7829SOL    HW331089   4.936   5.793   0.508 -0.7978 -1.2001 -1.0769
 7829SOL    MW431090   4.980   5.855   0.465 -0.4206 -0.3478  0.4692
 7830SOL     OW31091   2.618   0.760   4.022 -0.1916 -0.4776  0.4595
 7830SOL    HW231092   2.703   0.764   3.978 -0.3306 -3.3017 -0.2076
 7830SOL    HW331093   2.639   0.761   4.115  0.6735 -2.1118  0.3039
 7830SOL    MW431094   2.632   0.761   4.028 -0.0958 -1.0658  0.3510
 7831SOL     OW31095   3.963   6.246   3.962 -0.5696 -0.5666  0.3866
 7831SOL    HW231096   3.872   6.219   3.976 -0.3046 -0.5091  2.4776
 7831SOL    HW331097   3.983   6.214   3.874 -2.8545  0.1439 -0.4828
 7831SOL    MW431098   3.953   6.238   3.952 -0.8361 -0.4652  0.5478
 7832SOL     OW31099   3.036   2.338   3.836  0.1052  0.1209  0.1554
 7832SOL    HW231100   3.045   2.279   3.761  0.4491  0.2705  0.0780
 7832SOL    HW331101   3.116   2.324   3.887 -0.3405 -0.3361  0.7522
 7832SOL    MW431102   3.048   2.328   3.833  0.0918  0.0803  0.2239
 7833SOL     OW31103   1.772   0.416   5.717  0.0642 -0.0152 -0.8377
 7833SOL    HW231104   1.759   0.323   5.702  2.5846 -0.6250  0.2320
 7833SOL    HW331105   1.838   0.421   5.786 -2.3158  2.5848  1.5665
 7833SOL    MW431106   1.779   0.405   5.724  0.0827  0.2474 -0.3794
 7834SOL     OW31107   6.378   6.193   2.750  0.0575 -0.3567  0.3330
 7834SOL    HW231108   6.428   6.248   2.810 -1.2194  0.2475  0.9034
 7834SOL    HW331109   6.384   6.105   2.786 -1.0086  0.0623  1.5968
 7834SOL    MW431110   6.385   6.189   2.763 -0.2516 -0.2217  0.5750
 7835SOL     OW31111   2.466   2.224   0.049 -0.0820  0.1912  0.2346
 7835SOL    HW231112   2.483   2.251  -0.041  0.3802  1.2258  0.6173
 7835SOL    HW331113   2.371   2.235   0.060 -0.1941 -0.2901 -0.2303
 7835SOL    MW431114   2.456   2.229   0.039 -0.0358  0.2642  0.2237
 7836SOL     OW31115   4.656   5.871   0.010 -0.0441 -0.1853  0.3682
 7836SOL    HW231116   4.702   5.877   0.094  0.8720  0.1803 -0.1558
 7836SOL    HW331117   4.622   5.959  -0.006  0.5477 -0.0288 -0.0664
 7836SOL    MW431118   4.658   5.883   0.019  0.1548 -0.1164  0.2417
 7837SOL     OW31119   3.350   1.637   4.411  0.4706  0.6764  0.3711
 7837SOL    HW231120   3.434   1.592   4.424 -0.4424 -0.8115  1.3924
 7837SOL    HW331121   3.287   1.566   4.400 -0.8325  1.7456  0.7776
 7837SOL    MW431122   3.353   1.622   4.411  0.1782  0.6212  0.5595
 7838SOL     OW31123   5.244   3.321   6.109  0.1550  0.3218 -0.4105
 7838SOL    HW231124   5.154   3.336   6.140 -0.5383 -1.5983 -1.2898
 7838SOL    HW331125   5.297   3.321   6.188 -0.8905 -0.1562  0.3177
 7838SOL    MW431126   5.239   3.323   6.123 -0.0744  0.0054 -0.4304
 7839SOL     OW31127   4.119   0.629   5.670 -0.4968 -0.2538  0.5228
 7839SOL    HW231128   4.075   0.646   5.587 -1.4987  0.0998  1.1054
 7839SOL    HW331129   4.066   0.562   5.713  0.0486 -0.4838  0.8507
 7839SOL    MW431130   4.106   0.623   5.665 -0.5570 -0.2375  0.6430
 7840SOL     OW31131   6.396   5.530   3.130  0.0492  0.6349 -0.2764
 7840SOL    HW231132   6.341   5.572   3.064 -0.6106  1.5231  0.8009
 7840SOL    HW331133   6.390   5.436   3.111  2.6175  0.9749 -3.5692
 7840SOL    MW431134   6.388   5.523   3.119  0.3010  0.7969 -0.5687
 7841SOL     OW31135   3.211   3.327   2.514  0.1150 -0.1756  0.0953
 7841SOL    HW231136   3.202   3.419   2.492 -2.2274 -0.4447 -0.2895
 7841SOL    HW331137   3.221   3.326   2.609 -0.6637  0.4373  0.1879
 7841SOL    MW431138   3.212   3.339   2.524 -0.2968 -0.1302  0.0568
 7842SOL     OW31139   1.418   4.672   5.887  0.8935 -0.2544 -0.0761
 7842SOL    HW231140   1.449   4.585   5.912  0.6616 -0.3081  0.0251
 7842SOL    HW331141   1.323   4.669   5.902  0.7641 -0.2450 -0.8324
 7842SOL    MW431142   1.409   4.660   5.892  0.8458 -0.2602 -0.1625
 7843SOL     OW31143   5.000   3.017   3.523  0.5813 -0.0156  0.5013
 7843SOL    HW231144   4.921   3.004   3.575  0.0500  0.1142 -0.2600
 7843SOL    HW331145   5.030   3.105   3.546 -0.8351  0.9000 -0.9311
 7843SOL    MW431146   4.994   3.027   3.533  0.3243  0.1223  0.2119
 7844SOL     OW31147   2.211   0.927   4.816 -0.0063 -0.7794 -0.0618
 7844SOL    HW231148   2.249   0.919   4.729 -0.1081  0.0869 -0.1983
 7844SOL    HW331149   2.139   0.864   4.817 -0.2964 -0.4705 -0.7695
 7844SOL    MW431150   2.206   0.918   4.805 -0.0580 -0.6243 -0.1732
 7845SOL     OW31151   1.559   4.533   4.978  0.4022  0.1767  0.1059
 7845SOL    HW231152   1.484   4.569   4.931 -1.3045 -0.6498  2.0881
 7845SOL    HW331153   1.560   4.579   5.062 -0.2805 -2.4681  1.6685
 7845SOL    MW431154   1.549   4.544   4.983  0.0869 -0.2813  0.5736
 7846SOL     OW31155   2.334   5.020   1.743 -0.5999  0.0400  0.2367
 7846SOL    HW231156   2.282   4.946   1.773  0.0033 -0.3145  0.4241
 7846SOL    HW331157   2.277   5.065   1.680 -0.3954 -1.4993 -1.1201
 7846SOL    MW431158   2.319   5.016   1.739 -0.4934 -0.2099  0.0824
 7847SOL     OW31159   1.039   4.540   5.742 -0.0462 -0.6514  0.0655
 7847SOL    HW231160   0.961   4.489   5.767 -0.0546 -0.8279 -0.3013
 7847SOL    HW331161   1.107   4.474   5.729  0.2609 -0.4666  0.7262
 7847SOL    MW431162   1.038   4.524   5.744 -0.0068 -0.6503  0.1042
 7848SOL     OW31163   2.267   2.291   3.850  0.0783 -0.3198  0.1021
 7848SOL    HW231164   2.231   2.203   3.858  0.2493 -0.2360  2.4799
 7848SOL    HW331165   2.322   2.302   3.928  2.6731  0.7522 -1.7136
 7848SOL    MW431166   2.270   2.281   3.861  0.4432 -0.1673  0.1763
 7849SOL     OW31167   3.701   4.272   0.924  0.6932  0.0145  0.8383
 7849SOL    HW231168   3.675   4.363   0.942 -1.2435 -0.3035 -0.0502
 7849SOL    HW331169   3.637   4.219   0.972  0.1623 -0.8409 -0.7251
 7849SOL    MW431170   3.689   4.277   0.933  0.3676 -0.1403  0.5148
 7850SOL     OW31171   0.979   1.245   5.601 -0.3278  0.0397  0.0598
 7850SOL    HW231172   1.064   1.207   5.620  0.8351  2.6998  0.6043
 7850SOL    HW331173   0.989   1.288   5.516  0.3505  3.9602  1.9043
 7850SOL    MW431174   0.991   1.246   5.592 -0.0848  0.9079  0.3750
 7851SOL     OW31175   0.732   3.668   1.576  0.7492  0.7860 -0.0213
 7851SOL    HW231176   0.699   3.588   1.536  0.6601  1.2691 -0.9263
 7851SOL    HW331177   0.793   3.637   1.643 -0.2363 -0.0667  0.5164
 7851SOL    MW431178   0.736   3.654   1.580  0.6074  0.7372 -0.0698
 7852SOL     OW31179   5.088   6.330   0.667  0.6901 -0.0917  0.1641
 7852SOL    HW231180   5.057   6.405   0.615  2.4237  0.5202 -0.0720
 7852SOL    HW331181   5.164   6.297   0.617  1.0140 -0.8975  1.1705
 7852SOL    MW431182   5.094   6.336   0.653  0.9616 -0.1173  0.2657
 7853SOL     OW31183   3.652   4.686   1.237  0.3189 -0.2134 -0.2798
 7853SOL    HW231184   3.657   4.618   1.303  0.2043 -0.3749 -0.4375
 7853SOL    HW331185   3.661   4.639   1.154 -1.9611 -0.3227 -0.5294
 7853SOL    MW431186   3.654   4.671   1.235  0.0030 -0.2492 -0.3335
 7854SOL     OW31187   1.683   6.049   1.249  0.2879  0.4128 -0.2409
 7854SOL    HW231188   1.778   6.045   1.239  0.3058 -1.8157  0.3462
 7854SOL    HW331189   1.649   6.010   1.168 -0.1796  1.6585 -0.6739
 7854SOL    MW431190   1.691   6.043   1.237  0.2286  0.2832 -0.2206
 7855SOL     OW31191   0.853   5.537   3.546 -0.5417 -0.1702 -0.0366
 7855SOL    HW231192   0.820   5.520   3.634  0.7546 -1.2945  0.2639
 7855SOL    HW331193   0.774   5.547   3.492 -1.4200  2.1502  1.4834
 7855SOL    MW431194   0.838   5.536   3.551 -0.4865 -0.0124  0.2036
 7856SOL     OW31195   1.457   3.770   6.311 -0.2959 -0.3174  0.3800
 7856SOL    HW231196   1.407   3.696   6.346 -0.2102 -1.6700 -2.1248
 7856SOL    HW331197   1.549   3.745   6.323 -0.2670 -0.5990 -0.3431
 7856SOL    MW431198   1.463   3.757   6.317 -0.2808 -0.5330 -0.0459
 7857SOL     OW31199   3.867   0.872   1.801 -0.3033 -0.9320 -0.2311
 7857SOL    HW231200   3.883   0.917   1.718 -0.8447 -2.3796 -1.1584
 7857SOL    HW331201   3.860   0.943   1.865  0.3343  0.2134 -1.3668
 7857SOL    MW431202   3.869   0.888   1.798 -0.2906 -0.9719 -0.5033
 7858SOL     OW31203   3.957   5.462   2.472  0.3285 -0.4927  0.4988
 7858SOL    HW231204   3.887   5.398   2.487 -0.2134 -0.3697 -1.3099
 7858SOL    HW331205   3.912   5.546   2.467  0.7418 -0.2713  0.4682
 7858SOL    MW431206   3.942   5.465   2.473  0.3115 -0.4472  0.2561
 7859SOL     OW31207   4.884   4.688   6.423  0.0657  0.7721  0.9758
 7859SOL    HW231208   4.821   4.732   6.366 -0.2329 -1.3171 -0.4443
 7859SOL    HW331209   4.969   4.719   6.393 -0.0568 -0.5215 -0.9708
 7859SOL    MW431210   4.887   4.698   6.411  0.0101  0.3258  0.5316
 7860SOL     OW31211   1.458   4.049   6.247  0.0208 -0.2401  0.1667
 7860SOL    HW231212   1.396   4.053   6.174  1.7064 -0.7807 -1.3963
 7860SOL    HW331213   1.485   3.957   6.250  0.9363  0.0321  0.6167
 7860SOL    MW431214   1.453   4.038   6.237  0.3640 -0.2755  0.0199
 7861SOL     OW31215   5.226   3.553   5.946 -0.0160 -0.2672 -0.6434
 7861SOL    HW231216   5.243   3.488   6.015  1.5736 -1.5218 -2.1139
 7861SOL    HW331217   5.309   3.560   5.899  0.2856  3.8489  0.1716
 7861SOL    MW431218   5.239   3.545   5.949  0.2335  0.1103 -0.7299
 7862SOL     OW31219   1.287   5.292   0.294 -0.0923  0.4259  0.1991
 7862SOL    HW231220   1.216   5.235   0.324  0.4874 -0.2901  0.2385
 7862SOL    HW331221   1.346   5.299   0.370 -0.0418  0.8977  0.1218
 7862SOL    MW431222   1.286   5.286   0.308 -0.0092  0.3936  0.1941
 7863SOL     OW31223   4.168   2.138   1.905  0.1298  0.1025  0.0371
 7863SOL    HW231224   4.117   2.196   1.961  1.6924  1.0514  0.5655
 7863SOL    HW331225   4.166   2.180   1.818 -0.3891 -0.1354 -0.0688
 7863SOL    MW431226   4.161   2.151   1.901  0.2675  0.1963  0.0929
 7864SOL     OW31227   0.318   3.181   1.368 -0.0406  0.7093  0.1895
 7864SOL    HW231228   0.225   3.176   1.345  0.0116 -0.4270  0.1742
 7864SOL    HW331229   0.331   3.272   1.394 -1.2587  0.7931  0.5878
 7864SOL    MW431230   0.307   3.192   1.369 -0.1944  0.5705  0.2400
 7865SOL     OW31231   6.190   3.300   1.754  0.2617  0.7763  0.1448
 7865SOL    HW231232   6.172   3.381   1.707 -0.7348  0.5665  0.1442
 7865SOL    HW331233   6.282   3.307   1.779  0.8064  0.9056 -1.7707
 7865SOL    MW431234   6.199   3.311   1.751  0.2021  0.7657 -0.1080
 7866SOL     OW31235   3.430   0.557   0.610  0.0581 -0.3334  0.4597
 7866SOL    HW231236   3.452   0.627   0.672  0.5097 -0.3849  0.3567
 7866SOL    HW331237   3.337   0.572   0.590  0.4576  1.0217 -0.5495
 7866SOL    MW431238   3.421   0.569   0.615  0.1704 -0.1614  0.3130
 7867SOL     OW31239   3.325   1.795   0.831  0.1236  0.1118 -0.2328
 7867SOL    HW231240   3.232   1.814   0.821  0.3294  0.5267 -1.5551
 7867SOL    HW331241   3.354   1.851   0.903 -0.3132  1.2232 -0.8966
 7867SOL    MW431242   3.317   1.805   0.839  0.0931  0.3132 -0.4949
 7868SOL     OW31243   5.619   3.169   6.180  0.3771  0.1884  0.6057
 7868SOL    HW231244   5.633   3.220   6.100 -0.8160 -0.0036  0.2662
 7868SOL    HW331245   5.697   3.188   6.233  2.0340 -0.9494 -1.2466
 7868SOL    MW431246   5.631   3.178   6.176  0.4383  0.0129  0.3165
 7869SOL     OW31247   4.768   1.710   1.574 -0.2268 -0.3615  0.4473
 7869SOL    HW231248   4.823   1.765   1.518  0.0608 -0.0679  1.0134
 7869SOL    HW331249   4.769   1.753   1.659 -0.7791 -0.7290  0.6452
 7869SOL    MW431250   4.775   1.723   1.577 -0.2617 -0.3713  0.5481
 7870SOL     OW31251   4.293   6.236   3.010 -0.1242  0.0489  0.0508
 7870SOL    HW231252   4.382   6.205   2.997  0.1992  1.0994 -0.3925
 7870SOL    HW331253   4.290   6.265   3.101 -0.2480 -0.6890  0.2872
 7870SOL    MW431254   4.304   6.236   3.020 -0.0978  0.0901  0.0235
 7871SOL     OW31255   0.910   3.104   5.747 -0.2187 -0.5978 -0.1532
 7871SOL    HW231256   0.977   3.116   5.814 -0.2668 -1.8110  0.1310
 7871SOL    HW331257   0.833   3.149   5.782 -0.5859 -2.1368  1.1647
 7871SOL    MW431258   0.909   3.112   5.761 -0.2735 -0.9609  0.0581
 7872SOL     OW31259   0.670   2.798   4.724 -0.5432  0.3228  0.4169
 7872SOL    HW231260   0.749   2.799   4.778  0.3119 -0.2640 -0.7690
 7872SOL    HW331261   0.672   2.712   4.682 -0.7475  1.0639 -1.1566
 7872SOL    MW431262   0.681   2.787   4.726 -0.4573  0.3432  0.0528
 7873SOL     OW31263   4.205   0.217   3.790  0.7710  0.5071  0.0568
 7873SOL    HW231264   4.171   0.192   3.704 -0.4296  0.3124  0.5556
 7873SOL    HW331265   4.245   0.303   3.776  2.0921 -0.2591 -1.0191
 7873SOL    MW431266   4.206   0.225   3.777  0.7869  0.3803 -0.0193
 7874SOL     OW31267   5.010   5.914   2.704 -0.6302 -0.4150 -0.1837
 7874SOL    HW231268   5.081   5.933   2.766 -1.2285  0.6039  0.2052
 7874SOL    HW331269   4.946   5.984   2.718 -1.3938 -0.9239 -1.0243
 7874SOL    MW431270   5.011   5.926   2.714 -0.8099 -0.3477 -0.2433
 7875SOL     OW31271   2.569   3.937   4.924  0.0006 -0.2672  0.6357
 7875SOL    HW231272   2.478   3.967   4.932  0.3296  0.7685  0.5727
 7875SOL    HW331273   2.581   3.923   4.830 -0.3354 -1.2369  0.7186
 7875SOL    MW431274   2.558   3.939   4.912 -0.0003 -0.2585  0.6383
 7876SOL     OW31275   3.348   1.136   3.625  0.2522 -0.2722 -0.1730
 7876SOL    HW231276   3.324   1.229   3.624 -0.5111 -0.4580  0.5439
 7876SOL    HW331277   3.323   1.105   3.712  1.4946 -0.9022 -0.0230
 7876SOL    MW431278   3.341   1.144   3.636  0.3154 -0.3799 -0.0586
 7877SOL     OW31279   0.688   3.195   5.884 -0.2257 -0.3384 -0.2284
 7877SOL    HW231280   0.642   3.243   5.815  0.5542  0.4671 -0.2048
 7877SOL    HW331281   0.624   3.131   5.915 -1.8591  1.6987  0.8289
 7877SOL    MW431282   0.674   3.192   5.879 -0.3383  0.0366 -0.0858
 7878SOL     OW31283   2.339   4.347   4.142 -0.2580  0.0755  0.0237
 7878SOL    HW231284   2.259   4.332   4.092 -1.8088  2.7417  1.4782
 7878SOL    HW331285   2.308   4.365   4.231  2.2932 -3.2888  1.8003
 7878SOL    MW431286   2.324   4.348   4.148 -0.1260 -0.0166  0.4500
 7879SOL     OW31287   0.280   5.955   2.845  0.1538  0.1688  0.4326
 7879SOL    HW231288   0.187   5.949   2.867  0.4057 -0.2616  1.4474
 7879SOL    HW331289   0.286   5.919   2.757 -0.7086  0.6496  0.1667
 7879SOL    MW431290   0.269   5.950   2.837  0.0733  0.1754  0.5314
 7880SOL     OW31291   3.316   4.593   3.299  0.4429  0.0689  0.1469
 7880SOL    HW231292   3.239   4.539   3.285 -0.2178  0.6395  1.4394
 7880SOL    HW331293   3.368   4.582   3.219 -0.9272 -0.3760 -0.7128
 7880SOL    MW431294   3.313   4.584   3.286  0.1749  0.0855  0.2040
 7881SOL     OW31295   2.958   0.665   4.856 -0.7314  0.0501  0.4021
 7881SOL    HW231296   2.963   0.711   4.940 -1.5450  0.5233  0.2056
 7881SOL    HW331297   3.004   0.722   4.794  3.2212 -1.9772  1.1370
 7881SOL    MW431298   2.965   0.679   4.859 -0.3172 -0.1549  0.4732
 7882SOL     OW31299   2.986   1.748   5.066  0.5393 -0.3542  0.5355
 7882SOL    HW231300   3.065   1.801   5.067  0.0558  0.5677 -1.9427
 7882SOL    HW331301   2.988   1.705   4.980 -1.5590 -0.4192  0.4773
 7882SOL    MW431302   2.997   1.749   5.055  0.1986 -0.2411  0.2008
 7883SOL     OW31303   1.393   5.556   3.592 -0.3808 -0.2491 -0.4995
 7883SOL    HW231304   1.303   5.558   3.622 -0.1097  0.4253  0.2773
 7883SOL    HW331305   1.424   5.468   3.614 -0.8035 -0.4431 -0.6702
 7883SOL    MW431306   1.385   5.544   3.599 -0.4008 -0.1857 -0.4196
 7884SOL     OW31307   5.776   3.600   5.608  0.6762 -0.0531 -0.0860
 7884SOL    HW231308   5.762   3.507   5.591 -0.2832 -0.1253  0.9322
 7884SOL    HW331309   5.867   3.606   5.637  0.7007 -0.7082 -0.0144
 7884SOL    MW431310   5.786   3.589   5.610  0.5529 -0.1490  0.0578
 7885SOL     OW31311   3.725   6.225   5.711  0.2055  0.5696  0.3741
 7885SOL    HW231312   3.774   6.187   5.638 -0.7219 -1.6482  0.8301
 7885SOL    HW331313   3.653   6.272   5.670  0.3091  0.2619 -0.1639
 7885SOL    MW431314   3.722   6.226   5.696  0.0968  0.2364  0.3633
 7886SOL     OW31315   2.355   0.625   4.182  0.3727  0.4040 -0.3329
 7886SOL    HW231316   2.419   0.580   4.127  0.7241 -0.4462  0.7374
 7886SOL    HW331317   2.407   0.688   4.232  0.6195 -1.0821  1.3883
 7886SOL    MW431318   2.370   0.627   4.181  0.4516  0.0957  0.0354
 7887SOL     OW31319   3.965   5.204   0.781  0.6690 -0.2201 -0.0566
 7887SOL    HW231320   4.020   5.212   0.859  1.0061 -2.1277 -0.0451
 7887SOL    HW331321   3.927   5.291   0.769  0.5169  0.1015  2.2789
 7887SOL    MW431322   3.967   5.217   0.790  0.6934 -0.4293  0.2531
 7888SOL     OW31323   6.101   2.466   0.621  0.0503 -0.3536 -0.1902
 7888SOL    HW231324   6.169   2.406   0.650 -0.7851 -1.1407  0.1879
 7888SOL    HW331325   6.031   2.457   0.687 -0.7432 -0.1519 -0.9871
 7888SOL    MW431326   6.101   2.457   0.634 -0.1646 -0.4308 -0.2454
 7889SOL     OW31327   0.819   0.202   0.617  0.5867  0.3825  0.8575
 7889SOL    HW231328   0.757   0.272   0.639 -0.3908  0.2418 -1.1556
 7889SOL    HW331329   0.784   0.125   0.661 -1.0583  0.1898 -0.6498
 7889SOL    MW431330   0.806   0.201   0.626  0.2407  0.3385  0.3930
 7890SOL     OW31331   3.610   5.400   1.193  0.2474 -0.2576  0.1624
 7890SOL    HW231332   3.525   5.411   1.151  0.8725  1.1492 -0.8314
 7890SOL    HW331333   3.662   5.352   1.128  1.4259  2.5072 -1.1180
 7890SOL    MW431334   3.606   5.395   1.179  0.4854  0.2928 -0.1376
 7891SOL     OW31335   1.842   3.290   4.517  0.5139 -0.3710  0.0919
 7891SOL    HW231336   1.883   3.376   4.510 -0.5213 -0.0095 -2.8089
 7891SOL    HW331337   1.783   3.297   4.593  1.5570  0.9256  0.8274
 7891SOL    MW431338   1.840   3.302   4.526  0.5149 -0.1522 -0.1938
 7892SOL     OW31339   3.535   0.329   3.835  0.2729 -0.6641  0.1365
 7892SOL    HW231340   3.469   0.327   3.766  0.6835  0.9531 -0.3553
 7892SOL    HW331341   3.609   0.281   3.799  1.3384  1.9990 -1.5731
 7892SOL    MW431342   3.536   0.323   3.821  0.4676 -0.0994 -0.1539
 7893SOL     OW31343   2.680   5.322   3.994  0.7889 -0.1454 -0.2077
 7893SOL    HW231344   2.744   5.388   4.021 -0.0493  1.1756 -1.3588
 7893SOL    HW331345   2.699   5.306   3.902 -0.9263  0.7603 -0.7527
 7893SOL    MW431346   2.691   5.328   3.986  0.4520  0.1484 -0.4315
 7894SOL     OW31347   4.028   1.386   5.455  0.6323 -0.0803 -0.3363
 7894SOL    HW231348   4.087   1.331   5.507 -0.2556  0.8887  1.7898
 7894SOL    HW331349   3.943   1.344   5.464  0.0955  1.1631  0.6770
 7894SOL    MW431350   4.025   1.373   5.463  0.4443  0.2116  0.0779
 7895SOL     OW31351   4.431   4.939   6.275  0.6941  0.4341  0.3169
 7895SOL    HW231352   4.472   4.889   6.347 -1.0368 -0.6639  0.5886
 7895SOL    HW331353   4.340   4.909   6.274  0.4571  1.1201 -1.7629
 7895SOL    MW431354   4.425   4.928   6.285  0.4345  0.3798  0.0783
 7896SOL     OW31355   1.705   5.812   3.004 -0.2449  0.0372  0.2648
 7896SOL    HW231356   1.627   5.859   3.034  0.2843  0.5735  0.8341
 7896SOL    HW331357   1.778   5.860   3.042  0.4054 -0.0281 -0.8450
 7896SOL    MW431358   1.704   5.825   3.013 -0.0893  0.0993  0.1935
 7897SOL     OW31359   4.429   3.443   3.685  0.5708  0.0343 -0.3064
 7897SOL    HW231360   4.352   3.443   3.628 -0.5431  1.9933  1.0525
 7897SOL    HW331361   4.456   3.535   3.687  0.8391 -0.0585  1.9394
 7897SOL    MW431362   4.422   3.455   3.677  0.4592  0.2805  0.1692
 7898SOL     OW31363   5.509   5.717   4.686 -0.7829 -0.8218 -0.0099
 7898SOL    HW231364   5.450   5.728   4.612 -1.4614 -0.4365  0.5820
 7898SOL    HW331365   5.592   5.689   4.646 -0.2552  2.1072 -1.2060
 7898SOL    MW431366   5.512   5.715   4.671 -0.8028 -0.3845 -0.0896
 7899SOL     OW31367   4.248   5.103   1.831 -0.0474 -0.0972 -0.4963
 7899SOL    HW231368   4.292   5.083   1.749  0.5365 -1.6118  0.1486
 7899SOL    HW331369   4.247   5.199   1.835 -2.5373  0.1592 -3.5468
 7899SOL    MW431370   4.254   5.113   1.821 -0.2989 -0.2632 -0.8137
 7900SOL     OW31371   2.473   3.375   1.852  0.3427 -0.2346  0.6444
 7900SOL    HW231372   2.483   3.308   1.785  0.7411  0.0119  0.4514
 7900SOL    HW331373   2.393   3.422   1.828  0.8296  0.2695 -0.0381
 7900SOL    MW431374   2.463   3.372   1.840  0.4595 -0.1356  0.5289
 7901SOL     OW31375   4.230   6.382   2.203  0.2099 -0.6379  0.3800
 7901SOL    HW231376   4.269   6.465   2.229  3.2025 -1.0719 -2.0766
 7901SOL    HW331377   4.182   6.352   2.280 -0.2954  2.9034  1.6114
 7901SOL    MW431378   4.229   6.389   2.217  0.5381 -0.2279  0.2184
 7902SOL     OW31379   5.958   1.322   5.065  0.4195  0.1173 -0.3983
 7902SOL    HW231380   5.882   1.283   5.022 -0.8293  1.5804  0.3758
 7902SOL    HW331381   5.993   1.384   5.001  0.1778  0.3640 -0.2937
 7902SOL    MW431382   5.952   1.325   5.051  0.2228  0.3429 -0.2823
 7903SOL     OW31383   4.834   5.253   5.523 -0.4966 -0.8941  0.4307
 7903SOL    HW231384   4.786   5.307   5.461  0.1745  0.0995  0.7339
 7903SOL    HW331385   4.925   5.255   5.491 -0.1101 -0.2144  1.5214
 7903SOL    MW431386   4.840   5.261   5.511 -0.3570 -0.6734  0.6146
 7904SOL     OW31387   5.628   2.834   3.129 -0.6425 -0.1499 -0.6711
 7904SOL    HW231388   5.611   2.922   3.096 -2.7614 -0.7906 -1.4555
 7904SOL    HW331389   5.690   2.846   3.200 -0.8739  1.9699 -0.7758
 7904SOL    MW431390   5.634   2.847   3.134 -0.9526  0.0453 -0.7884
 7905SOL     OW31391   4.683   0.128   5.600  0.0952 -0.2832  0.6224
 7905SOL    HW231392   4.677   0.223   5.606  1.8510 -0.1567  1.0289
 7905SOL    HW331393   4.776   0.109   5.615 -0.5792 -2.2501  2.9329
 7905SOL    MW431394   4.695   0.138   5.602  0.2378 -0.5260  0.9809
 7906SOL     OW31395   5.277   1.186   2.441 -0.1022  0.1537  0.6746
 7906SOL    HW231396   5.332   1.108   2.435  0.4203  0.3726  2.1286
 7906SOL    HW331397   5.290   1.231   2.358 -0.6583 -1.4407 -0.3269
 7906SOL    MW431398   5.286   1.181   2.430 -0.1066 -0.0278  0.7343
 7907SOL     OW31399   5.854   4.025   4.356  0.0770  0.5581 -0.2630
 7907SOL    HW231400   5.770   4.011   4.313  0.2450 -1.0463 -0.1098
 7907SOL    HW331401   5.869   3.946   4.407  1.9642  0.5437 -0.7578
 7907SOL    MW431402   5.845   4.013   4.357  0.3481  0.3445 -0.3081
 7908SOL     OW31403   3.537   3.566   1.845 -0.2660 -0.0682  0.4966
 7908SOL    HW231404   3.449   3.594   1.870 -1.5278 -1.2249 -2.3353
 7908SOL    HW331405   3.535   3.470   1.849  1.3534 -0.1042  1.7459
 7908SOL    MW431406   3.525   3.557   1.849 -0.2188 -0.2255  0.2878
 7909SOL     OW31407   5.528   5.074   2.841 -0.4181  0.2186 -0.2809
 7909SOL    HW231408   5.564   5.024   2.768  2.0388  0.9927  0.2680
 7909SOL    HW331409   5.531   5.014   2.916 -0.7007  0.1477 -0.3261
 7909SOL    MW431410   5.533   5.060   2.841 -0.1312  0.3114 -0.2144
 7910SOL     OW31411   5.764   5.360   4.801 -0.3788  0.9798 -0.7275
 7910SOL    HW231412   5.671   5.380   4.806 -0.0465  2.5585 -0.0846
 7910SOL    HW331413   5.792   5.355   4.892  0.1784  0.5800 -0.9156
 7910SOL    MW431414   5.756   5.362   4.814 -0.2614  1.1353 -0.6675
 7911SOL     OW31415   5.794   1.589   5.196  0.2336 -0.7492  0.0934
 7911SOL    HW231416   5.715   1.536   5.197  1.7355 -3.1852 -1.0856
 7911SOL    HW331417   5.815   1.599   5.103  0.6616  0.9669  0.3391
 7911SOL    MW431418   5.786   1.583   5.184  0.4882 -0.8442 -0.0298
 7912SOL     OW31419   1.387   2.871   5.265  0.3988 -0.0222 -0.1121
 7912SOL    HW231420   1.318   2.887   5.329  1.7570  1.2146  1.1118
 7912SOL    HW331421   1.466   2.857   5.318  1.3781  0.0313 -1.5018
 7912SOL    MW431422   1.388   2.871   5.280  0.7072  0.1480 -0.1340
 7913SOL     OW31423   2.339   3.359   1.526  0.5250 -0.4385 -0.4477
 7913SOL    HW231424   2.301   3.416   1.593  0.6828 -1.0329  0.1529
 7913SOL    HW331425   2.413   3.317   1.569  1.9981  0.8067 -1.6325
 7913SOL    MW431426   2.344   3.361   1.540  0.7402 -0.3526 -0.5248
 7914SOL     OW31427   0.954   1.379   0.625  0.0513 -0.0658 -0.1008
 7914SOL    HW231428   0.945   1.457   0.571 -2.0511  0.2445  0.6098
 7914SOL    HW331429   0.983   1.411   0.710  0.9568 -0.2846 -0.3151
 7914SOL    MW431430   0.956   1.393   0.629 -0.1066 -0.0538 -0.0353
 7915SOL     OW31431   3.767   0.477   5.645  0.0054 -0.2410 -0.9852
 7915SOL    HW231432   3.776   0.552   5.586 -0.9444  0.3079 -0.4527
 7915SOL    HW331433   3.692   0.499   5.700  0.9348 -0.6675  0.5216
 7915SOL    MW431434   3.759   0.490   5.645  0.0027 -0.2248 -0.7161
 7916SOL     OW31435   2.029   3.085   5.463 -0.0687  1.1062 -0.4181
 7916SOL    HW231436   1.996   3.025   5.396 -1.1323  1.2712 -0.0574
 7916SOL    HW331437   2.066   3.027   5.530 -1.5085  0.7952  0.1517
 7916SOL    MW431438   2.029   3.069   5.463 -0.3990  1.0869 -0.2954
 7917SOL     OW31439   4.099   4.542   4.999  0.7391  0.5555 -0.2015
 7917SOL    HW231440   4.069   4.632   4.988  0.6885  0.5249 -0.3112
 7917SOL    HW331441   4.191   4.544   4.972  1.0737  0.8217  0.8825
 7917SOL    MW431442   4.107   4.554   4.994  0.7766  0.5866 -0.0730
 7918SOL     OW31443   5.396   0.835   5.338  0.3339  0.3103  0.1177
 7918SOL    HW231444   5.366   0.794   5.418  1.2732 -1.1075 -0.2070
 7918SOL    HW331445   5.481   0.793   5.320 -0.6313 -0.7199 -2.5293
 7918SOL    MW431446   5.404   0.824   5.346  0.3305 -0.0127 -0.2744
 7919SOL     OW31447   1.921   3.242   6.359  0.1346  0.1297  0.4925
 7919SOL    HW231448   1.915   3.249   6.264  0.2014 -2.1914  0.2574
 7919SOL    HW331449   1.831   3.242   6.390  0.0021 -1.3818  0.1751
 7919SOL    MW431450   1.908   3.243   6.351  0.1260 -0.3760  0.4196
 7920SOL     OW31451   6.374   3.114   0.237 -0.4520  0.6404  0.6828
 7920SOL    HW231452   6.446   3.057   0.209  0.9635  2.1766  1.0273
 7920SOL    HW331453   6.364   3.097   0.330  0.0108  0.9863  0.7984
 7920SOL    MW431454   6.382   3.104   0.245 -0.2042  0.8887  0.7435
 7921SOL     OW31455   1.140   2.232   5.540 -0.6929  0.2712  0.1665
 7921SOL    HW231456   1.086   2.233   5.461 -0.1330  0.5481 -0.2225
 7921SOL    HW331457   1.080   2.255   5.611 -1.0334  0.8207 -0.2901
 7921SOL    MW431458   1.125   2.235   5.539 -0.6639  0.3802  0.0549
 7922SOL     OW31459   3.681   5.482   2.675 -0.1210 -0.1755  0.0314
 7922SOL    HW231460   3.656   5.574   2.683 -1.4380 -0.4180 -0.8832
 7922SOL    HW331461   3.637   5.439   2.748 -3.0743 -0.6871 -1.8735
 7922SOL    MW431462   3.671   5.489   2.685 -0.6844 -0.2750 -0.3406
 7923SOL     OW31463   5.717   5.439   3.840  0.6756 -0.4285  0.7687
 7923SOL    HW231464   5.689   5.433   3.932  0.7261 -0.4366  0.7834
 7923SOL    HW331465   5.665   5.512   3.805  0.4462 -0.6122  0.7260
 7923SOL    MW431466   5.706   5.448   3.848  0.6520 -0.4538  0.7650
 7924SOL     OW31467   3.692   3.289   3.265  0.1957  0.2749 -0.2193
 7924SOL    HW231468   3.747   3.348   3.316 -0.2191  0.4580  0.0221
 7924SOL    HW331469   3.727   3.295   3.176  1.1489 -0.3182  0.1012
 7924SOL    MW431470   3.704   3.298   3.260  0.2668  0.2208 -0.1452
 7925SOL     OW31471   4.464   5.865   3.464 -0.1349  0.7888 -0.0161
 7925SOL    HW231472   4.549   5.879   3.424 -0.9675  2.8649 -1.1977
 7925SOL    HW331473   4.474   5.897   3.554  0.9464 -1.2429  0.6488
 7925SOL    MW431474   4.476   5.871   3.470 -0.1021  0.7947 -0.0843
 7926SOL     OW31475   5.688   4.037   5.568 -0.2301 -0.0958  0.0228
 7926SOL    HW231476   5.751   4.105   5.543 -1.9506  1.1314 -1.2254
 7926SOL    HW331477   5.708   3.963   5.511  0.8771 -0.1998  0.5305
 7926SOL    MW431478   5.699   4.036   5.557 -0.3110  0.0524 -0.0749
 7927SOL     OW31479   4.958   0.881   5.456 -0.7953  0.1031 -0.2982
 7927SOL    HW231480   4.960   0.857   5.363  1.5164 -0.2413 -0.2087
 7927SOL    HW331481   5.005   0.963   5.461 -1.5244  0.4870  0.5028
 7927SOL    MW431482   4.964   0.888   5.445 -0.5865  0.1083 -0.1807
 7928SOL     OW31483   4.835   3.118   2.998  0.7810 -0.1750 -0.4155
 7928SOL    HW231484   4.833   3.124   3.093  0.6916 -1.3513 -0.3271
 7928SOL    HW331485   4.750   3.080   2.975  0.5910  0.5910 -1.0071
 7928SOL    MW431486   4.823   3.114   3.007  0.7442 -0.2292 -0.4819
 7929SOL     OW31487   5.548   1.723   5.995 -0.3995 -0.1124 -0.2735
 7929SOL    HW231488   5.628   1.748   6.041  0.7454 -0.0551 -2.1491
 7929SOL    HW331489   5.507   1.657   6.050  2.3867 -2.1707 -0.4717
 7929SOL    MW431490   5.553   1.718   6.008  0.1192 -0.3764 -0.5471
 7930SOL     OW31491   1.535   0.288   4.447 -0.3780 -0.7336 -0.0313
 7930SOL    HW231492   1.539   0.369   4.497 -0.6669 -1.3311  0.9909
 7930SOL    HW331493   1.597   0.300   4.375 -1.9214  1.1972 -1.1374
 7930SOL    MW431494   1.544   0.300   4.444 -0.6197 -0.5577 -0.0424
 7931SOL     OW31495   5.811   0.039   1.831  0.7822  0.4166 -0.1821
 7931SOL    HW231496   5.882   0.084   1.877 -0.2836  0.5474  1.4015
 7931SOL    HW331497   5.757   0.109   1.794  0.1475  0.4039  0.6996
 7931SOL    MW431498   5.813   0.054   1.832  0.5579  0.4322  0.1432
 7932SOL     OW31499   2.138   2.904   5.651  0.1528  0.5580 -0.2217
 7932SOL    HW231500   2.078   2.884   5.723 -0.1265  0.8434 -0.3718
 7932SOL    HW331501   2.201   2.966   5.688 -0.0694  0.8073 -0.2548
 7932SOL    MW431502   2.138   2.910   5.665  0.0867  0.6286 -0.2458
 7933SOL     OW31503   1.547   4.900   3.017 -0.5512 -0.1829  0.2243
 7933SOL    HW231504   1.557   4.991   3.044 -0.1849 -0.0248 -0.4331
 7933SOL    HW331505   1.455   4.879   3.038 -0.7579  0.4648 -0.0246
 7933SOL    MW431506   1.536   4.909   3.024 -0.5302 -0.0766  0.1047
 7934SOL     OW31507   3.631   2.906   4.644 -0.4872 -0.1098 -0.4062
 7934SOL    HW231508   3.554   2.958   4.621 -0.4855 -0.1120 -0.4166
 7934SOL    HW331509   3.608   2.865   4.728 -0.0480  0.8297  0.1917
 7934SOL    MW431510   3.617   2.908   4.652 -0.4290  0.0139 -0.3287
 7935SOL     OW31511   3.340   5.892   5.889  0.3892 -0.1326  0.2586
 7935SOL    HW231512   3.281   5.967   5.876  1.9552  0.8739 -1.6501
 7935SOL    HW331513   3.427   5.929   5.875  1.4665 -1.7255  2.2880
 7935SOL    MW431514   3.344   5.907   5.886  0.7379 -0.2100  0.2745
 7936SOL     OW31515   5.253   3.627   4.891  0.2239 -0.0093  0.2676
 7936SOL    HW231516   5.264   3.592   4.803 -1.4148  1.4981 -0.6262
 7936SOL    HW331517   5.158   3.624   4.906  0.4977 -0.5288  2.1347
 7936SOL    MW431518   5.242   3.622   4.881  0.0438  0.1210  0.3960
 7937SOL     OW31519   0.708   0.585   3.981 -0.2686 -0.2697  0.0687
 7937SOL    HW231520   0.788   0.558   4.026  0.2887  0.4960 -0.4393
 7937SOL    HW331521   0.655   0.626   4.049 -0.0975 -0.4985  0.3421
 7937SOL    MW431522   0.711   0.587   3.996 -0.1725 -0.1989  0.0377
 7938SOL     OW31523   4.197   4.772   2.494  0.4515 -0.3852 -0.3361
 7938SOL    HW231524   4.111   4.765   2.535  0.5508  1.2100  0.2251
 7938SOL    HW331525   4.236   4.685   2.504 -0.2069 -0.5095  1.4359
 7938SOL    MW431526   4.191   4.760   2.501  0.3777 -0.1911 -0.0283
 7939SOL     OW31527   6.152   4.782   5.138 -0.2936  0.5107 -0.0062
 7939SOL    HW231528   6.187   4.782   5.049  2.6968  0.2247  1.0669
 7939SOL    HW331529   6.124   4.691   5.152  1.7476 -0.1434  0.1828
 7939SOL    MW431530   6.153   4.770   5.128  0.3702  0.3867  0.1603
 7940SOL     OW31531   1.276   5.803   2.700  0.0030  0.3661  0.6320
 7940SOL    HW231532   1.368   5.805   2.674 -0.3516  0.1098 -0.7354
 7940SOL    HW331533   1.246   5.894   2.687 -0.1414  0.2655  0.2343
 7940SOL    MW431534   1.284   5.816   2.695 -0.0628  0.3190  0.3991
 7941SOL     OW31535   5.747   0.035   4.261  0.1491  0.1617 -0.3490
 7941SOL    HW231536   5.752  -0.060   4.263 -0.9391  0.0430 -1.5774
 7941SOL    HW331537   5.767   0.063   4.350  1.0351 -1.1720 -0.1080
 7941SOL    MW431538   5.751   0.026   4.273  0.1224 -0.0299 -0.4793
 7942SOL     OW31539   5.662   1.364   0.897 -0.2337  0.2006 -0.2974
 7942SOL    HW231540   5.641   1.363   0.804  1.3027  0.0246 -0.6778
 7942SOL    HW331541   5.580   1.387   0.940 -1.0568 -0.0537 -1.6626
 7942SOL    MW431542   5.649   1.367   0.890 -0.1396  0.1438 -0.5277
 7943SOL     OW31543   4.067   0.896   1.492  0.1295  0.4155 -0.1227
 7943SOL    HW231544   4.002   0.833   1.460 -1.0914  1.5285  0.0761
 7943SOL    HW331545   4.021   0.980   1.490  0.8556  0.9308  2.0603
 7943SOL    MW431546   4.052   0.899   1.487  0.0642  0.6303  0.1916
 7944SOL     OW31547   3.438   6.078   5.480  0.7269  0.5651  0.6451
 7944SOL    HW231548   3.369   6.050   5.420 -0.8294  0.9773  2.1836
 7944SOL    HW331549   3.483   5.996   5.503  0.3201  0.2004  0.1784
 7944SOL    MW431550   3.435   6.063   5.475  0.4679  0.5714  0.7865
 7945SOL     OW31551   3.260   5.316   4.584  0.3461 -0.3179 -0.0564
 7945SOL    HW231552   3.257   5.407   4.616 -0.8833 -0.5912  0.6726
 7945SOL    HW331553   3.178   5.306   4.535  0.2429 -1.1752  0.2884
 7945SOL    MW431554   3.248   5.327   4.582  0.1703 -0.4671  0.0853
 7946SOL     OW31555   3.922   3.692   0.211 -0.3768 -0.9181 -0.5937
 7946SOL    HW231556   4.016   3.677   0.213  0.2451  2.3437  0.7375
 7946SOL    HW331557   3.904   3.724   0.122  0.0941  0.1102 -0.3208
 7946SOL    MW431558   3.932   3.694   0.199 -0.2326 -0.3520 -0.3820
 7947SOL     OW31559   4.652   4.052   2.143  1.0737  0.0372  0.8612
 7947SOL    HW231560   4.589   4.121   2.125  2.5613  1.3301  0.3760
 7947SOL    HW331561   4.600   3.971   2.141 -0.4003  0.9541 -0.3868
 7947SOL    MW431562   4.637   4.050   2.140  1.0755  0.3287  0.6326
 7948SOL     OW31563   5.207   5.511   2.770 -0.7763 -0.4956 -0.3009
 7948SOL    HW231564   5.120   5.550   2.766  0.0207  1.3521 -0.7031
 7948SOL    HW331565   5.230   5.494   2.679 -0.6791 -0.9149 -0.1995
 7948SOL    MW431566   5.198   5.514   2.758 -0.6583 -0.3071 -0.3406
 7949SOL     OW31567   6.310   2.943   6.238  0.2448 -1.0669  0.7015
 7949SOL    HW231568   6.369   2.872   6.210  0.0183 -1.1950  0.5496
 7949SOL    HW331569   6.277   2.980   6.157 -0.0901 -1.1667  0.7921
 7949SOL    MW431570   6.314   2.938   6.224  0.1708 -1.0970  0.6934
 7950SOL     OW31571   5.945   3.195   0.399 -0.0194 -0.1490  0.2448
 7950SOL    HW231572   5.893   3.268   0.432 -0.3348  0.2734 -1.1426
 7950SOL    HW331573   5.881   3.128   0.374  0.0432  0.3891 -1.5019
 7950SOL    MW431574   5.930   3.196   0.400 -0.0527 -0.0223 -0.1687
 7951SOL     OW31575   5.436   4.158   5.673  0.4367  0.0537  0.0633
 7951SOL    HW231576   5.377   4.086   5.697  1.7181 -1.2322 -0.4928
 7951SOL    HW331577   5.521   4.116   5.661  1.0065  1.4987 -1.3250
 7951SOL    MW431578   5.439   4.143   5.675  0.6809  0.0747 -0.1933
 7952SOL     OW31579   2.321   0.466   5.894  0.3164  0.2730  0.3389
 7952SOL    HW231580   2.298   0.558   5.905 -0.4010  0.0868  0.4498
 7952SOL    HW331581   2.415   0.467   5.875  1.0708  0.8008  3.5822
 7952SOL    MW431582   2.331   0.478   5.893  0.3213  0.3181  0.7815
 7953SOL     OW31583   2.225   2.575   5.889 -0.2630 -0.1560 -0.4250
 7953SOL    HW231584   2.207   2.609   5.801 -0.7545  0.1753 -0.1987
 7953SOL    HW331585   2.283   2.500   5.874  1.5055  1.2283 -0.8899
 7953SOL    MW431586   2.231   2.569   5.875 -0.0945  0.0703 -0.4565
 7954SOL     OW31587   0.788   4.021   0.515 -0.2054  0.2880  0.4933
 7954SOL    HW231588   0.799   3.932   0.484 -1.3369  0.0933  0.6009
 7954SOL    HW331589   0.786   4.074   0.435 -0.4872  0.0961  0.3707
 7954SOL    MW431590   0.789   4.017   0.500 -0.3919  0.2370  0.4913
 7955SOL     OW31591   2.407   0.111   5.255 -0.4042 -0.1757 -0.1652
 7955SOL    HW231592   2.361   0.193   5.270  2.1958  1.2237  0.8285
 7955SOL    HW331593   2.418   0.107   5.160  1.6188  2.0251 -0.1171
 7955SOL    MW431594   2.403   0.121   5.245  0.2057  0.2993 -0.0278
 7956SOL     OW31595   2.807   2.195   2.130  0.2747 -0.4184  0.2261
 7956SOL    HW231596   2.756   2.122   2.096  0.5968 -0.7733  0.4990
 7956SOL    HW331597   2.812   2.179   2.224  2.7820 -1.6327 -0.0160
 7956SOL    MW431598   2.801   2.183   2.138  0.6480 -0.6254  0.2302
 7957SOL     OW31599   1.249   3.154   0.095  0.3873  0.1937 -0.5116
 7957SOL    HW231600   1.270   3.196   0.179 -0.6335 -0.9243  0.3350
 7957SOL    HW331601   1.169   3.106   0.112  1.3097 -1.8127 -1.5216
 7957SOL    MW431602   1.241   3.153   0.109  0.3743 -0.2186 -0.5332
 7958SOL     OW31603   2.166   2.002   2.884 -0.2346  0.7368 -0.0347
 7958SOL    HW231604   2.213   1.991   2.801  0.3984 -1.3700  0.5443
 7958SOL    HW331605   2.077   2.023   2.858 -0.2874 -0.8869 -1.3220
 7958SOL    MW431606   2.161   2.003   2.869 -0.1581  0.2446 -0.1281
 7959SOL     OW31607   4.970   4.718   0.592 -0.3243 -0.2993  0.2825
 7959SOL    HW231608   4.900   4.662   0.559 -1.2047  0.3554  0.9709
 7959SOL    HW331609   4.944   4.739   0.681  0.0618  1.0432  0.1122
 7959SOL    MW431610   4.957   4.714   0.599 -0.3895 -0.0358  0.3508
 7960SOL     OW31611   2.841   5.197   2.410  0.5179  0.2420 -0.0684
 7960SOL    HW231612   2.773   5.185   2.477  1.2739  1.6541  1.0068
 7960SOL    HW331613   2.890   5.114   2.411  1.1726  0.5814  1.9428
 7960SOL    MW431614   2.839   5.184   2.419  0.7040  0.4731  0.3388
 7961SOL     OW31615   2.105   1.439   5.419 -0.1732 -0.1945 -0.0051
 7961SOL    HW231616   2.096   1.399   5.506  0.4374  0.4924  0.3918
 7961SOL    HW331617   2.197   1.466   5.415 -0.5991  1.3371 -0.1614
 7961SOL    MW431618   2.116   1.437   5.430 -0.1489  0.0982  0.0267
 7962SOL     OW31619   1.418   1.158   1.384 -0.3112 -0.2803 -0.3518
 7962SOL    HW231620   1.513   1.155   1.392 -0.2562  0.7843 -0.4788
 7962SOL    HW331621   1.386   1.149   1.474 -0.1502 -1.6348 -0.3967
 7962SOL    MW431622   1.426   1.156   1.397 -0.2827 -0.3185 -0.3745
 7963SOL     OW31623   1.217   4.940   0.685  0.1063  0.1273  0.3357
 7963SOL    HW231624   1.270   4.953   0.606  0.9638 -0.3151  0.8247
 7963SOL    HW331625   1.269   4.979   0.755 -0.4118  0.0604  0.7611
 7963SOL    MW431626   1.231   4.947   0.684  0.1510  0.0601  0.4563
 7964SOL     OW31627   3.625   4.135   0.391  0.1508 -0.1817 -0.2606
 7964SOL    HW231628   3.615   4.201   0.460  0.9623  0.6596 -0.9135
 7964SOL    HW331629   3.719   4.116   0.390 -0.2836 -2.8508  1.2301
 7964SOL    MW431630   3.636   4.142   0.400  0.2006 -0.4228 -0.1501
 7965SOL     OW31631   6.338   2.422   3.198 -0.0757 -0.1515  0.2744
 7965SOL    HW231632   6.251   2.392   3.226  0.3638  0.1106  2.0809
 7965SOL    HW331633   6.384   2.341   3.174 -0.1780 -0.5438  1.3179
 7965SOL    MW431634   6.333   2.407   3.199 -0.0312 -0.1687  0.6505
 7966SOL     OW31635   4.062   1.803   1.017  0.1643 -0.5287  0.1901
 7966SOL    HW231636   4.064   1.750   1.096  0.3135 -0.3733  0.2914
 7966SOL    HW331637   4.154   1.811   0.991 -0.0146 -3.6837 -2.0950
 7966SOL    MW431638   4.074   1.797   1.024  0.1603 -0.9245 -0.0981
 7967SOL     OW31639   1.424   1.803   3.006  0.7823  0.0386 -0.3419
 7967SOL    HW231640   1.487   1.755   2.952 -0.6249 -1.0639 -1.0539
 7967SOL    HW331641   1.383   1.864   2.945  0.3619 -0.0421 -0.1428
 7967SOL    MW431642   1.427   1.805   2.991  0.5412 -0.1175 -0.4096
 7968SOL     OW31643   4.442   0.310   4.489  0.1419  0.2915 -0.3853
 7968SOL    HW231644   4.489   0.391   4.466  1.5550 -0.7535 -1.3231
 7968SOL    HW331645   4.460   0.298   4.582  0.2332  0.8604 -0.3243
 7968SOL    MW431646   4.450   0.319   4.498  0.3404  0.2287 -0.5010
 7969SOL     OW31647   3.274   3.183   3.494  0.2974  0.1011 -0.6906
 7969SOL    HW231648   3.185   3.209   3.519 -0.1625 -0.2318 -1.9437
 7969SOL    HW331649   3.300   3.120   3.561  0.4242  1.7488  0.8961
 7969SOL    MW431650   3.266   3.178   3.506  0.2535  0.2746 -0.6466
 7970SOL     OW31651   0.122   3.399   5.409 -0.1814 -0.3307  0.5936
 7970SOL    HW231652   0.112   3.491   5.385 -0.3748  0.4473  3.3290
 7970SOL    HW331653   0.177   3.362   5.340 -0.5082  1.6870 -0.8414
 7970SOL    MW431654   0.128   3.406   5.396 -0.2500  0.0381  0.7652
 7971SOL     OW31655   0.622   4.549   3.320 -0.2265 -0.4345 -0.0525
 7971SOL    HW231656   0.677   4.597   3.258 -1.9691  0.7754 -0.7707
 7971SOL    HW331657   0.551   4.514   3.266 -0.9152 -0.7359  1.0186
 7971SOL    MW431658   0.620   4.551   3.304 -0.5473 -0.3146 -0.0060
 7972SOL     OW31659   2.270   3.278   4.703  0.2784  0.1212 -0.2928
 7972SOL    HW231660   2.273   3.183   4.691 -0.0673  0.1505 -0.6308
 7972SOL    HW331661   2.301   3.313   4.619  0.0143  0.3070 -0.3136
 7972SOL    MW431662   2.274   3.270   4.690  0.1979  0.1496 -0.3401
 7973SOL     OW31663   1.786   0.844   4.650  0.8292 -0.1928 -0.0997
 7973SOL    HW231664   1.797   0.773   4.587 -1.4152  2.2843 -3.6177
 7973SOL    HW331665   1.840   0.915   4.616 -0.0515  1.0937  1.0734
 7973SOL    MW431666   1.795   0.844   4.637  0.4169  0.3037 -0.4090
 7974SOL     OW31667   1.575   3.736   5.678 -0.5463  0.1931  0.0983
 7974SOL    HW231668   1.530   3.752   5.596  0.6778 -1.2395 -0.9099
 7974SOL    HW331669   1.668   3.732   5.654 -0.0561  0.8202  1.7381
 7974SOL    MW431670   1.581   3.737   5.664 -0.3201  0.0868  0.1816
 7975SOL     OW31671   0.948   2.273   3.138  0.9604  0.1534  0.7641
 7975SOL    HW231672   1.040   2.295   3.121  0.8559 -0.2160 -0.3728
 7975SOL    HW331673   0.911   2.352   3.177  1.4869  0.7077  0.1702
 7975SOL    MW431674   0.955   2.286   3.141  1.0161  0.1778  0.5357
 7976SOL     OW31675   4.565   5.288   5.180  1.1193  0.1289  0.6524
 7976SOL    HW231676   4.476   5.318   5.198 -0.4463 -2.3697 -2.0859
 7976SOL    HW331677   4.602   5.357   5.124  0.1770  0.2787  0.1849
 7976SOL    MW431678   4.558   5.301   5.175  0.7884 -0.1810  0.2294
 7977SOL     OW31679   1.273   4.780   0.997  0.3623 -0.2847  0.3846
 7977SOL    HW231680   1.237   4.698   1.031 -0.7293 -0.0719 -0.2152
 7977SOL    HW331681   1.329   4.812   1.068  1.0474 -1.6734  0.5152
 7977SOL    MW431682   1.276   4.773   1.011  0.3087 -0.4399  0.3227
 7978SOL     OW31683   2.380   2.857   2.995 -0.1625  0.1583 -0.0877
 7978SOL    HW231684   2.444   2.786   3.003 -0.2153 -0.1064 -1.6220
 7978SOL    HW331685   2.428   2.926   2.950 -0.1445  1.0890  1.3118
 7978SOL    MW431686   2.395   2.856   2.990 -0.1671  0.2462 -0.1055
 7979SOL     OW31687   1.648   6.064   4.304 -0.2484 -0.8587 -0.2340
 7979SOL    HW231688   1.630   6.014   4.224 -1.8330  0.6595 -0.8723
 7979SOL    HW331689   1.721   6.121   4.280 -0.4373 -0.7100 -0.4558
 7979SOL    MW431690   1.655   6.065   4.290 -0.4824 -0.6387 -0.3475
 7980SOL     OW31691   0.619   0.496   5.192 -0.4026 -0.2751 -0.0983
 7980SOL    HW231692   0.567   0.573   5.216 -1.5945 -1.7293  2.3206
 7980SOL    HW331693   0.565   0.422   5.217  0.4501 -2.0005 -2.9264
 7980SOL    MW431694   0.605   0.497   5.199 -0.4474 -0.6946 -0.1523
 7981SOL     OW31695   6.182   1.326   4.346 -0.3041  0.1068  0.4261
 7981SOL    HW231696   6.194   1.300   4.255 -2.4354 -0.9591  0.3956
 7981SOL    HW331697   6.165   1.420   4.343  1.1649  0.3906 -0.0777
 7981SOL    MW431698   6.181   1.335   4.334 -0.3915  0.0036  0.3556
 7982SOL     OW31699   4.996   2.495   5.986  0.4596 -0.3977  0.4020
 7982SOL    HW231700   5.052   2.496   6.064  1.8860 -0.7245 -0.5921
 7982SOL    HW331701   4.914   2.535   6.016  0.9822 -0.4716  2.0573
 7982SOL    MW431702   4.993   2.500   6.000  0.7168 -0.4505  0.4893
 7983SOL     OW31703   2.986   1.216   2.143 -0.2190  0.0655  0.0511
 7983SOL    HW231704   3.068   1.171   2.164 -0.4683 -0.3466  0.1550
 7983SOL    HW331705   2.987   1.222   2.047  0.8780  1.8753  0.1370
 7983SOL    MW431706   2.997   1.210   2.133 -0.1072  0.2499  0.0761
 7984SOL     OW31707   5.992   1.340   0.071  0.1567 -0.0425 -0.1085
 7984SOL    HW231708   6.069   1.291   0.097  0.4552  0.8770  0.7966
 7984SOL    HW331709   5.951   1.286   0.002  2.7667  0.4793 -2.2132
 7984SOL    MW431710   5.996   1.326   0.065  0.5404  0.1476 -0.2668
 7985SOL     OW31711   0.699   4.960   0.291 -0.4487 -0.4435  0.6875
 7985SOL    HW231712   0.743   5.045   0.289 -1.6317  0.1738  0.0165
 7985SOL    HW331713   0.610   4.979   0.322 -1.4643 -1.0642 -1.6374
 7985SOL    MW431714   0.693   4.973   0.295 -0.7387 -0.4440  0.2922
 7986SOL     OW31715   5.190   2.768   1.275  0.4678  0.4778  0.1302
 7986SOL    HW231716   5.269   2.769   1.330  0.1421 -1.5520  0.7098
 7986SOL    HW331717   5.202   2.693   1.217 -0.0687  1.4665 -1.3005
 7986SOL    MW431718   5.202   2.758   1.275  0.3540  0.3404  0.0179
 7987SOL     OW31719   3.965   5.560   3.995 -0.2226  0.3943  0.0929
 7987SOL    HW231720   4.059   5.545   4.003 -0.2173  0.4684  0.1778
 7987SOL    HW331721   3.925   5.477   4.019 -0.1505  0.0585 -0.9024
 7987SOL    MW431722   3.972   5.547   3.999 -0.2124  0.3597 -0.0272
 7988SOL     OW31723   3.987   2.903   0.486 -0.8975  0.0989 -0.2456
 7988SOL    HW231724   3.988   2.811   0.515 -0.2511  0.0794 -0.3354
 7988SOL    HW331725   4.050   2.947   0.542 -1.0347  0.4497 -0.3629
 7988SOL    MW431726   3.995   2.896   0.497 -0.8303  0.1426 -0.2729
 7989SOL     OW31727   2.366   3.685   1.447 -0.2692 -0.0676 -0.0950
 7989SOL    HW231728   2.276   3.655   1.444  0.1978 -1.5341 -0.0949
 7989SOL    HW331729   2.393   3.692   1.356 -0.1368 -0.4099 -0.0827
 7989SOL    MW431730   2.358   3.682   1.435 -0.1901 -0.3062 -0.0933
 7990SOL     OW31731   5.574   0.345   1.390 -0.1565 -0.1581 -0.7118
 7990SOL    HW231732   5.583   0.432   1.429  0.7762 -0.5056 -0.1085
 7990SOL    HW331733   5.650   0.337   1.332 -0.1144 -0.6574 -0.5931
 7990SOL    MW431734   5.586   0.356   1.387 -0.0279 -0.2698 -0.6166
 7991SOL     OW31735   3.753   1.243   3.356 -0.5981  0.2982 -0.3539
 7991SOL    HW231736   3.686   1.292   3.308 -0.3972  0.7301 -0.1968
 7991SOL    HW331737   3.704   1.172   3.398 -0.8317  0.1374 -0.8898
 7991SOL    MW431738   3.738   1.240   3.355 -0.6024  0.3340 -0.4039
 7992SOL     OW31739   1.331   0.522   0.507 -0.2216 -0.1038  0.2536
 7992SOL    HW231740   1.355   0.608   0.474  0.4731 -0.4867 -0.2956
 7992SOL    HW331741   1.247   0.503   0.467  1.3545 -1.2863 -2.8659
 7992SOL    MW431742   1.323   0.530   0.498  0.0780 -0.3103 -0.2305
 7993SOL     OW31743   4.562   4.888   5.436  0.4900 -0.2416 -0.5388
 7993SOL    HW231744   4.584   4.795   5.445  0.8701 -0.2160 -1.1575
 7993SOL    HW331745   4.639   4.927   5.393  0.5000  0.4365  0.0732
 7993SOL    MW431746   4.575   4.881   5.432  0.5415 -0.1488 -0.5397
 7994SOL     OW31747   5.519   4.457   4.800 -0.1306  0.1465 -0.2683
 7994SOL    HW231748   5.481   4.372   4.824  1.3182 -0.4776 -0.0459
 7994SOL    HW331749   5.456   4.522   4.832 -0.5885 -0.8098  0.8456
 7994SOL    MW431750   5.506   4.454   4.808  0.0001 -0.0620 -0.0920
 7995SOL     OW31751   2.348   4.132   0.700 -0.5456 -0.2016 -0.3830
 7995SOL    HW231752   2.338   4.083   0.618  1.8188  0.3545 -1.1008
 7995SOL    HW331753   2.423   4.092   0.743 -1.0743  0.2337  0.9821
 7995SOL    MW431754   2.356   4.120   0.695 -0.3034 -0.0708 -0.2976
 7996SOL     OW31755   1.822   3.456   5.512 -0.0787  0.5362  0.4444
 7996SOL    HW231756   1.813   3.455   5.417  0.6697  0.0824  0.3748
 7996SOL    HW331757   1.732   3.449   5.544 -0.3308  0.6195 -0.2260
 7996SOL    MW431758   1.809   3.455   5.504 -0.0132  0.4873  0.3468
 7997SOL     OW31759   4.566   4.326   5.859 -0.1340 -0.0960 -0.5400
 7997SOL    HW231760   4.650   4.317   5.905 -0.0400  0.7498 -0.5399
 7997SOL    HW331761   4.554   4.241   5.816 -0.0402 -0.7767  0.7202
 7997SOL    MW431762   4.576   4.314   5.860 -0.1092 -0.0742 -0.3737
 7998SOL     OW31763   2.981   4.626   1.945 -0.6997 -0.3686 -0.1562
 7998SOL    HW231764   2.889   4.629   1.969 -0.9623 -1.0651 -1.0117
 7998SOL    HW331765   3.026   4.599   2.025 -1.2878 -0.5123  0.1339
 7998SOL    MW431766   2.975   4.623   1.959 -0.8120 -0.4795 -0.2308
 7999SOL     OW31767   4.895   4.927   5.634 -0.1046 -0.7056  0.0004
 7999SOL    HW231768   4.876   4.974   5.553 -0.0942 -1.7506 -0.6219
 7999SOL    HW331769   4.853   4.979   5.702  1.6677  1.3779 -0.3705
 7999SOL    MW431770   4.887   4.940   5.632  0.1306 -0.5686 -0.1307
 8000SOL     OW31771   3.504   3.277   1.456 -0.2005 -0.1688  0.6619
 8000SOL    HW231772   3.458   3.358   1.474 -0.4430 -0.1525 -0.0186
 8000SOL    HW331773   3.597   3.301   1.460 -0.2326 -0.1995  2.0072
 8000SOL    MW431774   3.510   3.291   1.459 -0.2367 -0.1707  0.7496
 8001SOL     OW31775   2.907   5.693   6.140 -0.0067  0.3760 -0.6445
 8001SOL    HW231776   2.864   5.717   6.223 -0.5066  2.0401 -1.3409
 8001SOL    HW331777   2.979   5.756   6.131 -0.7386  1.0725 -2.0563
 8001SOL    MW431778   2.911   5.705   6.150 -0.1692  0.6874 -0.9227
 8002SOL     OW31779   2.225   3.219   2.442  0.1382 -0.1873  0.5114
 8002SOL    HW231780   2.200   3.293   2.387 -1.0573 -0.3568  0.7847
 8002SOL    HW331781   2.310   3.191   2.409  0.2173  0.7836 -0.1337
 8002SOL    MW431782   2.233   3.225   2.431 -0.0091 -0.0816  0.4623
 8003SOL     OW31783   0.619   5.055   2.687  0.0951 -0.3293 -0.0389
 8003SOL    HW231784   0.644   5.146   2.668 -0.0484 -0.0992  0.8219
 8003SOL    HW331785   0.673   5.031   2.762  0.5363 -1.1560 -0.6094
 8003SOL    MW431786   0.630   5.064   2.694  0.1344 -0.4080 -0.0006
 8004SOL     OW31787   5.212   0.658   0.154  0.1863 -0.0421 -0.1160
 8004SOL    HW231788   5.269   0.719   0.109  0.8950 -0.0424  0.7557
 8004SOL    HW331789   5.244   0.571   0.126 -0.2067 -0.0356 -0.6057
 8004SOL    MW431790   5.224   0.654   0.144  0.2280 -0.0413 -0.0656
 8005SOL     OW31791   6.419   5.897   4.460  0.2810 -0.4047  0.1925
 8005SOL    HW231792   6.442   5.815   4.417  0.6910  0.8954 -2.2146
 8005SOL    HW331793   6.503   5.933   4.488  0.1234 -0.6365  1.0034
 8005SOL    MW431794   6.433   5.891   4.458  0.3143 -0.2637 -0.0181
 8006SOL     OW31795   0.932   2.953   1.176  0.2234 -0.2810  0.0228
 8006SOL    HW231796   0.940   2.867   1.218 -0.7635  0.1889  1.2696
 8006SOL    HW331797   0.838   2.969   1.175  0.3051  0.1746 -1.5147
 8006SOL    MW431798   0.921   2.944   1.182  0.1040 -0.1589 -0.0156
 8007SOL     OW31799   3.115   1.868   5.622  0.1057 -0.5477 -0.6053
 8007SOL    HW231800   3.029   1.829   5.606  0.5614 -1.6137 -0.4903
 8007SOL    HW331801   3.111   1.898   5.713 -0.8615  1.3220 -1.2154
 8007SOL    MW431802   3.103   1.867   5.632  0.0382 -0.4417 -0.6706
 8008SOL     OW31803   1.825   0.915   3.750  0.2083 -1.0146  0.1168
 8008SOL    HW231804   1.909   0.877   3.727 -0.3158 -2.5869  0.6583
 8008SOL    HW331805   1.769   0.896   3.674  0.2561 -0.2471 -0.1133
 8008SOL    MW431806   1.828   0.907   3.737  0.1455 -1.1208  0.1579
 8009SOL     OW31807   2.937   5.528   3.302  0.0070 -0.0023 -0.0141
 8009SOL    HW231808   2.975   5.444   3.274  2.7638  0.3825  2.0500
 8009SOL    HW331809   2.995   5.594   3.264 -1.3034  0.9061 -0.4651
 8009SOL    MW431810   2.950   5.525   3.293  0.1979  0.1683  0.1987
 8010SOL     OW31811   4.376   3.568   2.688  0.7008  0.3572  0.1668
 8010SOL    HW231812   4.385   3.643   2.629  0.0915 -1.4602 -2.4183
 8010SOL    HW331813   4.458   3.520   2.679 -0.1229 -0.9404 -0.7401
 8010SOL    MW431814   4.388   3.572   2.679  0.5118 -0.0537 -0.2940
 8011SOL     OW31815   1.248   6.426   4.996  0.1188  0.1423  0.1039
 8011SOL    HW231816   1.316   6.461   5.053 -0.0261 -2.3195  1.9714
 8011SOL    HW331817   1.168   6.431   5.049 -0.4261 -0.3313 -0.6562
 8011SOL    MW431818   1.246   6.432   5.010  0.0278 -0.2450  0.2500
 8012SOL     OW31819   6.163   4.786   0.307  0.4742 -0.1619 -0.1174
 8012SOL    HW231820   6.086   4.843   0.315 -0.2136 -1.1204  0.2952
 8012SOL    HW331821   6.167   4.741   0.392  1.6796  0.1001 -0.0246
 8012SOL    MW431822   6.153   4.788   0.320  0.5425 -0.2538 -0.0507
 8013SOL     OW31823   3.710   0.926   6.055  0.7643  0.6176 -0.2136
 8013SOL    HW231824   3.767   0.997   6.085  2.0506 -0.6631  0.5031
 8013SOL    HW331825   3.658   0.902   6.131  0.4187  0.7074 -0.4199
 8013SOL    MW431826   3.711   0.932   6.069  0.8885  0.4605 -0.1463
 8014SOL     OW31827   0.456   2.744   0.102 -0.2051  0.0314 -0.2596
 8014SOL    HW231828   0.404   2.739   0.182  0.1375  0.5692  0.0012
 8014SOL    HW331829   0.518   2.671   0.109  2.3945  2.2331  1.8252
 8014SOL    MW431830   0.457   2.733   0.114  0.1831  0.3928  0.0498
 8015SOL     OW31831   2.988   2.356   4.317 -0.3095  0.4471 -0.1501
 8015SOL    HW231832   3.005   2.426   4.381  1.7048 -0.0005 -0.1254
 8015SOL    HW331833   2.992   2.400   4.232  0.1039  0.5102 -0.0984
 8015SOL    MW431834   2.991   2.371   4.314  0.0108  0.3964 -0.1401
 8016SOL     OW31835   1.518   0.575   5.476 -0.0872  0.2375  0.4273
 8016SOL    HW231836   1.609   0.587   5.450  0.4976 -0.2948  2.0660
 8016SOL    HW331837   1.521   0.575   5.572 -1.6844 -0.7342  0.5075
 8016SOL    MW431838   1.530   0.576   5.485 -0.2208  0.0391  0.6541
 8017SOL     OW31839   6.315   4.546   5.530 -0.2136  0.1708  0.5657
 8017SOL    HW231840   6.239   4.495   5.503  0.5230 -0.2044 -0.9030
 8017SOL    HW331841   6.343   4.592   5.450  1.1450  0.2238  1.0443
 8017SOL    MW431842   6.309   4.546   5.516  0.0628  0.1283  0.4350
 8018SOL     OW31843   0.020   2.136   4.369  0.3372 -0.2509 -0.4217
 8018SOL    HW231844   0.034   2.184   4.451  0.2531 -0.5819 -0.2102
 8018SOL    HW331845  -0.052   2.182   4.326 -0.1153 -0.5151  0.0411
 8018SOL    MW431846   0.012   2.148   4.374  0.2664 -0.3294 -0.3328
 8019SOL     OW31847   0.861   3.496   5.643 -0.2517 -0.0193 -0.5609
 8019SOL    HW231848   0.780   3.452   5.670  0.5070 -1.5213 -0.6464
 8019SOL    HW331849   0.916   3.496   5.721  0.1131 -0.0686 -0.8149
 8019SOL    MW431850   0.858   3.490   5.657 -0.1035 -0.2240 -0.6057
 8020SOL     OW31851   6.163   4.281   3.804  0.2799  0.4712 -0.1597
 8020SOL    HW231852   6.247   4.268   3.758  0.9096 -2.2239  1.5737
 8020SOL    HW331853   6.134   4.193   3.827 -0.7046  1.5716  3.3401
 8020SOL    MW431854   6.171   4.268   3.801  0.2331  0.2608  0.5308
 8021SOL     OW31855   1.322   0.944   4.154 -0.0292 -0.6172 -0.3107
 8021SOL    HW231856   1.373   0.923   4.232  1.7733  0.4185 -1.1416
 8021SOL    HW331857   1.319   0.862   4.104 -0.5511 -1.0859  0.4651
 8021SOL    MW431858   1.328   0.931   4.158  0.1397 -0.5424 -0.3179
 8022SOL     OW31859   2.388   1.357   0.076 -0.6335 -0.4047 -0.7035
 8022SOL    HW231860   2.296   1.352   0.101 -1.0059 -0.5637 -2.0562
 8022SOL    HW331861   2.397   1.293   0.005  0.3389  0.1755 -1.1175
 8022SOL    MW431862   2.377   1.348   0.070 -0.5543 -0.3491 -0.9366
 8023SOL     OW31863   2.922   3.196   2.194 -0.0951 -0.5009 -0.3249
 8023SOL    HW231864   2.943   3.123   2.136  2.3243 -0.7459  0.7437
 8023SOL    HW331865   2.947   3.164   2.281 -2.8514  0.1479  0.8104
 8023SOL    MW431866   2.928   3.182   2.198 -0.1396 -0.4476 -0.0341
 8024SOL     OW31867   0.714   1.401   5.349  0.7200 -0.2176  0.3641
 8024SOL    HW231868   0.697   1.313   5.318  1.9941 -0.5085  0.4175
 8024SOL    HW331869   0.705   1.395   5.444 -0.8111  0.1112  0.2587
 8024SOL    MW431870   0.711   1.389   5.358  0.6861 -0.2126  0.3573
 8025SOL     OW31871   1.970   0.525   4.729 -0.2744  0.3562  0.2227
 8025SOL    HW231872   1.983   0.612   4.766 -1.4105 -0.0707  1.7475
 8025SOL    HW331873   1.922   0.540   4.648  3.4813  1.4295 -2.0231
 8025SOL    MW431874   1.965   0.538   4.723  0.0712  0.4415  0.1276
 8026SOL     OW31875   5.182   4.517   6.393 -0.3966  0.3671 -0.1113
 8026SOL    HW231876   5.221   4.498   6.478 -1.1597  0.6829  0.3191
 8026SOL    HW331877   5.117   4.447   6.381  1.5624 -1.2786 -1.6855
 8026SOL    MW431878   5.178   4.505   6.403 -0.2388  0.1917 -0.2622
 8027SOL     OW31879   1.301   3.438   0.862 -0.1864  0.0313 -0.2711
 8027SOL    HW231880   1.388   3.412   0.891  1.2375  2.6625 -1.7726
 8027SOL    HW331881   1.303   3.425   0.767 -1.7235 -0.5205 -0.2588
 8027SOL    MW431882   1.313   3.433   0.853 -0.2014  0.3057 -0.4676
 8028SOL     OW31883   0.603   3.068   2.601 -0.2659  0.4529 -0.2107
 8028SOL    HW231884   0.553   3.094   2.678  0.7528 -0.9391  0.9734
 8028SOL    HW331885   0.537   3.038   2.538 -1.0519  0.8371  0.4188
 8028SOL    MW431886   0.588   3.068   2.603 -0.2352  0.3199  0.0286
 8029SOL     OW31887   2.134   3.448   5.588 -0.2987 -0.6527 -0.1953
 8029SOL    HW231888   2.041   3.447   5.564  0.1729  2.0362 -2.6684
 8029SOL    HW331889   2.173   3.378   5.537 -0.6086 -0.1525 -1.1502
 8029SOL    MW431890   2.127   3.439   5.578 -0.2774 -0.2319 -0.6476
 8030SOL     OW31891   6.289   3.931   2.945  0.1622 -0.6508  0.2006
 8030SOL    HW231892   6.322   3.899   2.861  0.8954  0.8469 -0.1050
 8030SOL    HW331893   6.337   3.879   3.011  0.6819 -0.8050 -0.2896
 8030SOL    MW431894   6.300   3.920   2.943  0.3275 -0.4735  0.0956
 8031SOL     OW31895   0.317   4.835   3.866  0.5929 -0.0822  0.4260
 8031SOL    HW231896   0.372   4.830   3.788  0.9070  0.4851  0.6050
 8031SOL    HW331897   0.253   4.903   3.846  1.3486  0.8489  1.0632
 8031SOL    MW431898   0.316   4.844   3.853  0.7340  0.1155  0.5337
 8032SOL     OW31899   5.698   0.402   0.427  0.5593 -0.0028 -0.2249
 8032SOL    HW231900   5.749   0.476   0.461  1.5815 -0.7351 -0.1052
 8032SOL    HW331901   5.695   0.416   0.332 -0.2096  0.7623 -0.1030
 8032SOL    MW431902   5.704   0.414   0.419  0.5927  0.0015 -0.1930
 8033SOL     OW31903   1.648   1.475   0.404 -0.2325 -0.6339  0.2540
 8033SOL    HW231904   1.614   1.424   0.331 -0.3835 -0.4248  0.1807
 8033SOL    HW331905   1.618   1.427   0.482 -3.1300  1.0521  0.2860
 8033SOL    MW431906   1.640   1.462   0.405 -0.6347 -0.3839  0.2485
 8034SOL     OW31907   4.737   3.993   2.509  0.4389  0.2785  0.0595
 8034SOL    HW231908   4.677   3.931   2.551 -1.1951 -0.5293 -3.1404
 8034SOL    HW331909   4.821   3.946   2.507  0.0307 -0.5059  0.5134
 8034SOL    MW431910   4.740   3.978   2.515  0.1694  0.0684 -0.3028
 8035SOL     OW31911   1.467   0.196   3.321 -0.4662  0.4813 -0.1465
 8035SOL    HW231912   1.372   0.192   3.322 -0.4569  0.3322  0.6096
 8035SOL    HW331913   1.488   0.288   3.303 -0.7447  0.4966 -0.3951
 8035SOL    MW431914   1.457   0.208   3.319 -0.5017  0.4637 -0.0796
 8036SOL     OW31915   5.487   5.738   5.141 -0.5933  0.3668  0.1785
 8036SOL    HW231916   5.420   5.678   5.174 -0.4812 -1.3157 -2.3338
 8036SOL    HW331917   5.456   5.825   5.165 -2.9313 -0.4443  0.3307
 8036SOL    MW431918   5.474   5.741   5.149 -0.8870  0.0378 -0.1329
 8037SOL     OW31919   2.455   3.331   2.790 -0.5153  0.2357  0.1906
 8037SOL    HW231920   2.369   3.288   2.790 -0.6124  0.4292  0.2946
 8037SOL    HW331921   2.469   3.355   2.882 -0.7381  0.9832  0.0306
 8037SOL    MW431922   2.445   3.328   2.802 -0.5575  0.3598  0.1832
 8038SOL     OW31923   0.364   5.539   1.220  0.0317 -0.7481 -0.6717
 8038SOL    HW231924   0.353   5.505   1.309  0.7702 -1.1319 -0.7168
 8038SOL    HW331925   0.459   5.535   1.204 -0.0621 -0.4179 -1.3743
 8038SOL    MW431926   0.375   5.534   1.230  0.1168 -0.7552 -0.7704
 8039SOL     OW31927   3.266   3.612   1.963 -0.2862 -0.0949  0.1122
 8039SOL    HW231928   3.240   3.700   1.990  0.9794  0.4899 -0.4767
 8039SOL    HW331929   3.203   3.588   1.895 -0.5548  0.4131  0.1796
 8039SOL    MW431930   3.254   3.621   1.958 -0.1546  0.0493  0.0434
 8040SOL     OW31931   6.370   3.108   1.513  0.0260  0.1750 -0.5411
 8040SOL    HW231932   6.428   3.167   1.563  0.3497 -1.1080  0.6634
 8040SOL    HW331933   6.396   3.121   1.422  0.9078  1.0234 -0.1970
 8040SOL    MW431934   6.381   3.118   1.508  0.1851  0.1176 -0.3368
 8041SOL     OW31935   4.653   0.142   1.183  0.1265 -0.2435 -0.0526
 8041SOL    HW231936   4.596   0.148   1.260  2.7882 -0.8914  2.1343
 8041SOL    HW331937   4.601   0.179   1.112 -1.9667  1.8203  2.3442
 8041SOL    MW431938   4.638   0.148   1.184  0.2015 -0.0567  0.5521
 8042SOL     OW31939   3.053   6.228   2.641 -0.4625 -1.0820  0.0602
 8042SOL    HW231940   3.045   6.300   2.704  0.4578 -1.0978  0.2057
 8042SOL    HW331941   3.016   6.263   2.560  3.6797  1.1638 -1.1269
 8042SOL    MW431942   3.047   6.242   2.639  0.2055 -0.7878 -0.0772
 8043SOL     OW31943   3.542   0.161   5.186 -0.5786  0.1166 -0.2376
 8043SOL    HW231944   3.502   0.075   5.173 -2.3475  1.1137 -1.8617
 8043SOL    HW331945   3.592   0.152   5.267 -0.0855 -2.6431 -0.7301
 8043SOL    MW431946   3.543   0.148   5.195 -0.7469 -0.1159 -0.5168
 8044SOL     OW31947   2.530   3.264   3.932  0.2508  0.1727  0.3020
 8044SOL    HW231948   2.447   3.307   3.915 -0.0098 -0.8219 -1.1034
 8044SOL    HW331949   2.545   3.277   4.026 -1.1732  0.8740  0.4595
 8044SOL    MW431950   2.521   3.272   3.942  0.0286  0.1340  0.1374
 8045SOL     OW31951   2.965   4.171   6.010 -0.3739  0.2020  0.0555
 8045SOL    HW231952   2.979   4.265   5.995  2.0665  0.0845  1.0990
 8045SOL    HW331953   3.010   4.129   5.937 -0.8229 -0.1802 -0.0055
 8045SOL    MW431954   2.973   4.178   5.998 -0.1112  0.1361  0.1851
 8046SOL     OW31955   1.606   1.966   1.948  0.2222 -0.1637  0.3089
 8046SOL    HW231956   1.549   1.953   1.872 -1.6400 -0.4814  1.6795
 8046SOL    HW331957   1.631   2.058   1.944  0.1431 -0.1777 -0.6734
 8046SOL    MW431958   1.602   1.976   1.938 -0.0339 -0.2075  0.3601
 8047SOL     OW31959   1.524   3.628   1.759 -0.8474  0.2180 -0.8636
 8047SOL    HW231960   1.506   3.708   1.709 -1.4760  0.5371 -0.1473
 8047SOL    HW331961   1.499   3.650   1.849  0.9431 -0.1033 -0.2562
 8047SOL    MW431962   1.518   3.641   1.764 -0.6941  0.2177 -0.6890
 8048SOL     OW31963   4.185   2.843   0.291  0.8345 -0.0541 -0.2907
 8048SOL    HW231964   4.195   2.749   0.306 -2.9076 -1.0328 -2.5594
 8048SOL    HW331965   4.122   2.871   0.358 -0.8100 -0.0770 -1.7534
 8048SOL    MW431966   4.178   2.834   0.302  0.1238 -0.1862 -0.7830
 8049SOL     OW31967   5.935   5.348   4.591  0.4641  0.4207  0.4017
 8049SOL    HW231968   5.870   5.362   4.660  1.3473  1.8685  0.9808
 8049SOL    HW331969   5.941   5.253   4.583 -0.7261  0.2465  1.2775
 8049SOL    MW431970   5.927   5.337   4.599  0.4236  0.5888  0.5937
 8050SOL     OW31971   4.396   5.282   1.348  0.2492 -0.0708 -0.3433
 8050SOL    HW231972   4.406   5.357   1.289 -1.5298 -0.8935 -1.7825
 8050SOL    HW331973   4.432   5.208   1.299 -1.3669 -0.7873 -0.5063
 8050SOL    MW431974   4.402   5.282   1.334 -0.1987 -0.2739 -0.5547
 8051SOL     OW31975   2.581   0.620   0.425  0.4834  0.0427 -0.6028
 8051SOL    HW231976   2.570   0.553   0.358 -0.1029 -2.8283  2.1195
 8051SOL    HW331977   2.676   0.625   0.438  0.5813  0.4018 -1.3842
 8051SOL    MW431978   2.592   0.612   0.418  0.4189 -0.2887 -0.3468
 8052SOL     OW31979   6.342   2.673   0.702 -0.3376 -0.1083  0.3981
 8052SOL    HW231980   6.410   2.739   0.695  0.3125 -0.8978 -1.3375
 8052SOL    HW331981   6.269   2.718   0.746  0.4922  1.3951  0.3051
 8052SOL    MW431982   6.341   2.688   0.707 -0.1423 -0.0141  0.1568
 8053SOL     OW31983   0.543   5.134   4.325  0.0662  0.5513  0.3464
 8053SOL    HW231984   0.556   5.115   4.418  0.6899  1.4972  0.4721
 8053SOL    HW331985   0.584   5.061   4.279  1.0291  0.7809  0.8154
 8053SOL    MW431986   0.550   5.122   4.331  0.2755  0.7064  0.4249
 8054SOL     OW31987   3.159   4.314   6.245  0.1998 -0.2091  0.4180
 8054SOL    HW231988   3.086   4.352   6.293  0.2680  0.1045  0.2768
 8054SOL    HW331989   3.237   4.342   6.293  0.2117 -0.9895  0.8832
 8054SOL    MW431990   3.160   4.322   6.258  0.2104 -0.2707  0.4608
 8055SOL     OW31991   2.270   0.322   4.024 -0.5549  0.2383  0.0388
 8055SOL    HW231992   2.274   0.335   3.929  0.8788  1.3945  0.2264
 8055SOL    HW331993   2.183   0.355   4.049 -1.0850 -0.4026 -0.9017
 8055SOL    MW431994   2.259   0.328   4.014 -0.4357  0.3063 -0.0606
 8056SOL     OW31995   4.013   4.381   5.645 -0.4546 -0.2792 -0.4692
 8056SOL    HW231996   4.002   4.391   5.550  0.9136 -1.4708 -0.7891
 8056SOL    HW331997   4.107   4.391   5.659 -0.2719 -2.6857  0.4013
 8056SOL    MW431998   4.024   4.384   5.634 -0.2500 -0.7539 -0.3966
 8057SOL     OW31999   5.679   2.789   6.096 -0.0597 -0.5610 -0.0396
 8057SOL    HW232000   5.643   2.801   6.184 -2.0621  0.0562 -0.8739
 8057SOL    HW332001   5.665   2.697   6.077  0.6396 -0.7601  0.3848
 8057SOL    MW432002   5.672   2.779   6.105 -0.2317 -0.5058 -0.0936
 8058SOL     OW32003   1.076   1.910   0.011 -0.2327 -0.1348  0.0938
 8058SOL    HW232004   1.069   2.002   0.037 -0.5429 -0.4434  1.1558
 8058SOL    HW332005   1.148   1.875   0.064 -1.9299 -1.1770  1.8359
 8058SOL    MW432006   1.085   1.918   0.022 -0.4976 -0.3130  0.4638
 8059SOL     OW32007   6.125   2.077   5.733 -0.4910 -0.0052 -0.1983
 8059SOL    HW232008   6.190   2.050   5.668  0.2029  0.7912  0.1457
 8059SOL    HW332009   6.165   2.057   5.817 -1.8403 -2.0699  0.0161
 8059SOL    MW432010   6.139   2.071   5.736 -0.5775 -0.1725 -0.1246
 8060SOL     OW32011   4.879   3.451   4.187 -0.3702  0.3803  0.1051
 8060SOL    HW232012   4.825   3.382   4.148 -0.5734 -0.6953  2.1367
 8060SOL    HW332013   4.969   3.424   4.170 -0.4477  0.4993 -0.5236
 8060SOL    MW432014   4.884   3.438   4.180 -0.4072  0.2541  0.2902
 8061SOL     OW32015   5.214   0.412   3.694 -0.3142  0.0139  0.2208
 8061SOL    HW232016   5.136   0.379   3.739  0.3153 -0.4420  0.9931
 8061SOL    HW332017   5.214   0.506   3.711 -1.5196  0.2863 -1.0745
 8061SOL    MW432018   5.204   0.420   3.702 -0.3902 -0.0103  0.1518
 8062SOL     OW32019   0.550   5.522   6.025  0.3457  0.2553  0.0073
 8062SOL    HW232020   0.627   5.548   5.974  0.2760  0.5297  0.0385
 8062SOL    HW332021   0.477   5.533   5.965  0.2519  0.6772  0.1922
 8062SOL    MW432022   0.551   5.527   6.010  0.3241  0.3471  0.0358
 8063SOL     OW32023   0.666   0.054   5.243  0.7325 -0.2223  0.0169
 8063SOL    HW232024   0.642   0.118   5.310 -0.0258 -1.1408  0.6529
 8063SOL    HW332025   0.676   0.105   5.163 -2.0439  0.4480  0.0007
 8063SOL    MW432026   0.664   0.069   5.242  0.2662 -0.2551  0.0987
 8064SOL     OW32027   4.859   1.926   5.851  0.3758  0.0401  0.0912
 8064SOL    HW232028   4.819   1.842   5.831 -0.1827  0.1268  0.8079
 8064SOL    HW332029   4.919   1.907   5.923 -0.8336  0.5098  1.2453
 8064SOL    MW432030   4.862   1.912   5.858  0.1425  0.1135  0.3380
 8065SOL     OW32031   2.208   6.164   2.660 -0.0045 -0.5242  0.0461
 8065SOL    HW232032   2.237   6.255   2.667  0.6256 -0.6803 -0.5130
 8065SOL    HW332033   2.124   6.162   2.707 -1.2630  0.8932 -1.9853
 8065SOL    MW432034   2.201   6.175   2.667 -0.0874 -0.3578 -0.2957
 8066SOL     OW32035   0.626   0.454   5.933 -0.1812 -0.5498  0.4222
 8066SOL    HW232036   0.664   0.542   5.938 -0.9547 -0.1277 -0.5834
 8066SOL    HW332037   0.552   0.457   5.993  0.0039 -0.6307  0.6551
 8066SOL    MW432038   0.621   0.466   5.941 -0.2589 -0.5048  0.3203
 8067SOL     OW32039   5.172   5.611   3.144 -0.4851 -0.4423 -0.2719
 8067SOL    HW232040   5.234   5.538   3.146  1.6560  1.2634  1.8605
 8067SOL    HW332041   5.218   5.680   3.096 -2.1116 -0.1380 -1.4718
 8067SOL    MW432042   5.186   5.610   3.138 -0.4172 -0.1771 -0.1488
 8068SOL     OW32043   5.275   1.679   3.414  0.3257  0.3547  0.3463
 8068SOL    HW232044   5.200   1.644   3.366 -0.0792 -0.1442  1.3025
 8068SOL    HW332045   5.258   1.654   3.505  0.8645  1.6107  0.8161
 8068SOL    MW432046   5.263   1.671   3.420  0.3433  0.4546  0.5344
 8069SOL     OW32047   5.673   0.103   6.043  0.0159  0.5145  0.4378
 8069SOL    HW232048   5.646   0.165   6.110  1.6272  1.4348  0.2860
 8069SOL    HW332049   5.692   0.022   6.091  2.1302  1.4559  1.2840
 8069SOL    MW432050   5.672   0.100   6.058  0.5074  0.7602  0.5294
 8070SOL     OW32051   2.027   2.720   3.004  0.1270 -0.0807  0.1113
 8070SOL    HW232052   1.932   2.711   3.014  0.1032  0.9993  1.0935
 8070SOL    HW332053   2.040   2.731   2.910 -0.6464 -0.8773 -0.1059
 8070SOL    MW432054   2.016   2.720   2.993  0.0218 -0.0433  0.2122
 8071SOL     OW32055   0.731   4.525   2.455 -0.7759  0.7713  0.1786
 8071SOL    HW232056   0.649   4.479   2.476 -1.3486  2.5443  2.0969
 8071SOL    HW332057   0.800   4.465   2.485 -1.4157 -0.0048  0.1277
 8071SOL    MW432058   0.730   4.511   2.462 -0.9359  0.9028  0.4250
 8072SOL     OW32059   3.479   5.867   2.163 -0.1096  0.1289  0.1011
 8072SOL    HW232060   3.409   5.932   2.172  2.2780  3.2448 -1.5493
 8072SOL    HW332061   3.512   5.855   2.253 -1.1955  0.5108  0.5614
 8072SOL    MW432062   3.474   5.874   2.176  0.0621  0.5904 -0.0559
 8073SOL     OW32063   4.120   4.890   4.669  0.1264 -0.5721 -0.4630
 8073SOL    HW232064   4.117   4.826   4.598 -0.5990 -0.2271 -0.7577
 8073SOL    HW332065   4.207   4.880   4.707 -0.7854 -3.4966  1.1192
 8073SOL    MW432066   4.131   4.880   4.664 -0.0896 -0.9124 -0.2931
 8074SOL     OW32067   1.970   1.999   5.984 -0.4322 -0.5726 -0.0975
 8074SOL    HW232068   1.893   1.977   5.933 -0.7100 -0.6872  0.3666
 8074SOL    HW332069   1.981   1.925   6.043 -0.6466 -0.0324  0.6280
 8074SOL    MW432070   1.962   1.987   5.985 -0.4971 -0.5164  0.0595
 8075SOL     OW32071   3.425   5.651   6.264 -0.5142  0.4776 -0.4007
 8075SOL    HW232072   3.515   5.665   6.234  0.2852 -2.1196  0.5850
 8075SOL    HW332073   3.375   5.638   6.183 -0.0456  1.8075 -0.9465
 8075SOL    MW432074   3.430   5.651   6.249 -0.3469  0.3104 -0.3426
 8076SOL     OW32075   4.887   3.368   4.688 -0.2613  0.8009  0.1451
 8076SOL    HW232076   4.924   3.364   4.599  0.2256 -1.9788  0.3613
 8076SOL    HW332077   4.793   3.373   4.675 -0.2910 -0.9833 -0.6195
 8076SOL    MW432078   4.880   3.368   4.674 -0.2010  0.1987  0.0728
 8077SOL     OW32079   5.770   1.296   5.922  0.1837 -0.0873 -0.0418
 8077SOL    HW232080   5.758   1.382   5.884 -1.3355  0.0192  0.5944
 8077SOL    HW332081   5.842   1.307   5.985  0.0097  0.7020  0.0254
 8077SOL    MW432082   5.778   1.308   5.925 -0.0397  0.0309  0.0510
 8078SOL     OW32083   4.688   3.272   4.932 -0.0473 -0.1476  0.0706
 8078SOL    HW232084   4.698   3.186   4.975  2.1165 -0.8867 -1.7599
 8078SOL    HW332085   4.719   3.335   4.998 -0.1745 -0.8988  0.8744
 8078SOL    MW432086   4.693   3.269   4.947  0.2214 -0.3442 -0.0648
 8079SOL     OW32087   2.283   4.361   5.489 -0.5003 -0.4817  0.2797
 8079SOL    HW232088   2.349   4.295   5.512 -0.1266 -1.3770 -2.8777
 8079SOL    HW332089   2.200   4.313   5.492 -0.6743 -0.1222  1.4410
 8079SOL    MW432090   2.281   4.346   5.492 -0.4740 -0.5524  0.0163
 8080SOL     OW32091   0.538   6.352   0.948  0.5530  0.0077  0.1665
 8080SOL    HW232092   0.470   6.399   0.900  1.2272  1.0625  0.2025
 8080SOL    HW332093   0.500   6.335   1.035 -0.3623 -1.1689 -0.4378
 8080SOL    MW432094   0.524   6.356   0.953  0.5212 -0.0084  0.0916
 8081SOL     OW32095   5.098   4.836   3.014  0.3607  0.4697 -0.4614
 8081SOL    HW232096   5.019   4.781   3.011  0.6287  0.1266 -1.9188
 8081SOL    HW332097   5.077   4.911   2.958  1.3212 -0.0088 -1.5122
 8081SOL    MW432098   5.085   4.839   3.006  0.5228  0.3613 -0.7923
 8082SOL     OW32099   4.804   4.961   2.238 -0.0165 -0.0259  0.3543
 8082SOL    HW232100   4.738   4.908   2.193  0.1359 -1.4245  1.6853
 8082SOL    HW332101   4.888   4.928   2.205  0.1223 -1.5395  2.0578
 8082SOL    MW432102   4.807   4.950   2.227  0.0219 -0.4101  0.7547
 8083SOL     OW32103   4.305   5.440   5.245 -0.2748  0.6000  0.0921
 8083SOL    HW232104   4.267   5.479   5.323  1.8837 -1.7648  2.5460
 8083SOL    HW332105   4.232   5.397   5.201 -1.0460 -2.2338  3.6012
 8083SOL    MW432106   4.291   5.439   5.250 -0.0917 -0.0859  0.8789
 8084SOL     OW32107   0.561   1.617   1.786  0.0279  0.0425 -0.2813
 8084SOL    HW232108   0.475   1.619   1.829  0.5511  1.3182  0.7973
 8084SOL    HW332109   0.544   1.645   1.696 -0.8870 -1.2051 -0.5144
 8084SOL    MW432110   0.548   1.621   1.780 -0.0238  0.0462 -0.1698
 8085SOL     OW32111   1.025   0.320   3.830  0.1170 -0.6058  0.7265
 8085SOL    HW232112   1.033   0.277   3.745  0.5569 -0.3399  0.6309
 8085SOL    HW332113   1.064   0.258   3.892  0.4089 -0.5106  0.6400
 8085SOL    MW432114   1.032   0.306   3.827  0.2136 -0.5581  0.7025
 8086SOL     OW32115   5.587   4.263   5.026  0.3805 -0.4451 -0.3045
 8086SOL    HW232116   5.583   4.253   5.122  1.6369 -1.0754 -0.2944
 8086SOL    HW332117   5.513   4.211   4.994 -0.2384  0.0220  0.3336
 8086SOL    MW432118   5.577   4.255   5.035  0.4646 -0.4666 -0.2189
 8087SOL     OW32119   2.993   2.241   0.188 -0.3458 -0.6469 -0.4607
 8087SOL    HW232120   3.029   2.154   0.170 -0.7037 -0.7054 -0.9135
 8087SOL    HW332121   2.906   2.240   0.147 -0.3905 -0.1124 -0.3841
 8087SOL    MW432122   2.986   2.230   0.180 -0.3989 -0.5841 -0.5104
 8088SOL     OW32123   0.167   1.651   1.341  0.2398  0.5099 -0.1504
 8088SOL    HW232124   0.244   1.701   1.314  0.4936 -0.0836 -0.5678
 8088SOL    HW332125   0.195   1.560   1.337  0.0618  0.3629  1.4806
 8088SOL    MW432126   0.181   1.645   1.337  0.2498  0.4122  0.0097
 8089SOL     OW32127   1.952   3.153   4.131  0.0563  0.0749 -0.5610
 8089SOL    HW232128   1.887   3.135   4.063  1.1852  1.4689 -2.1285
 8089SOL    HW332129   1.966   3.069   4.174 -0.5181 -0.9557 -2.2640
 8089SOL    MW432130   1.945   3.140   4.127  0.1295  0.1229 -0.9925
 8090SOL     OW32131   3.697   0.498   1.412  0.2802  0.0559 -0.3519
 8090SOL    HW232132   3.756   0.539   1.349 -0.2323  0.3620 -0.6451
 8090SOL    HW332133   3.753   0.473   1.485  0.5105  1.9681  0.1755
 8090SOL    MW432134   3.712   0.500   1.413  0.2430  0.3486 -0.3210
 8091SOL     OW32135   5.665   3.313   5.929  0.0139 -0.4374  0.1469
 8091SOL    HW232136   5.760   3.312   5.940  0.0929 -0.6735 -0.5321
 8091SOL    HW332137   5.644   3.405   5.912  0.0299 -0.2651  1.0417
 8091SOL    MW432138   5.674   3.325   5.928  0.0264 -0.4458  0.1754
 8092SOL     OW32139   2.458   0.072   1.688 -0.1158 -0.0768 -0.2489
 8092SOL    HW232140   2.391   0.140   1.679  0.2183  0.3439  0.3974
 8092SOL    HW332141   2.531   0.102   1.635 -1.3441 -1.7686 -3.0973
 8092SOL    MW432142   2.458   0.085   1.680 -0.2338 -0.2445 -0.5395
 8093SOL     OW32143   3.592   1.901   2.775 -0.4985 -0.1657 -0.2376
 8093SOL    HW232144   3.673   1.949   2.789  0.8430 -2.4328  0.3161
 8093SOL    HW332145   3.528   1.945   2.832  0.5308  1.1891 -0.0897
 8093SOL    MW432146   3.594   1.913   2.784 -0.1857 -0.2861 -0.1450
 8094SOL     OW32147   4.390   4.412   3.309 -0.3608  0.0497  0.3712
 8094SOL    HW232148   4.356   4.493   3.271  0.0433 -0.1408 -0.4267
 8094SOL    HW332149   4.347   4.342   3.259 -0.1937 -0.2169  0.5966
 8094SOL    MW432150   4.379   4.413   3.297 -0.2854 -0.0106  0.2957
 8095SOL     OW32151   5.654   5.385   2.230 -0.1300 -0.1096 -0.5830
 8095SOL    HW232152   5.694   5.336   2.158  0.0726  0.3748 -0.8115
 8095SOL    HW332153   5.728   5.433   2.269 -0.2183 -0.4725  0.0297
 8095SOL    MW432154   5.669   5.385   2.225 -0.1149 -0.0936 -0.5323
 8096SOL     OW32155   0.709   5.974   1.462  0.3172  0.5402 -0.0348
 8096SOL    HW232156   0.669   6.056   1.434 -0.2860  0.0300 -0.7265
 8096SOL    HW332157   0.747   5.993   1.547 -0.9598  1.2021  0.4209
 8096SOL    MW432158   0.709   5.987   1.469  0.0691  0.5602 -0.0660
 8097SOL     OW32159   3.072   0.255   1.998  0.1141  0.0018 -1.1725
 8097SOL    HW232160   3.052   0.220   1.912  0.1750 -0.9432 -0.8178
 8097SOL    HW332161   3.164   0.280   1.994 -0.3187  1.5552 -1.8909
 8097SOL    MW432162   3.082   0.254   1.986  0.0651  0.0821 -1.2205
 8098SOL     OW32163   3.628   4.209   2.778 -0.0862  0.3384  0.5572
 8098SOL    HW232164   3.662   4.181   2.693  0.4428 -1.8330  1.4086
 8098SOL    HW332165   3.570   4.282   2.758 -0.5780 -0.6008 -1.7718
 8098SOL    MW432166   3.624   4.215   2.765 -0.0813 -0.0720  0.3623
 8099SOL     OW32167   0.040   0.250   1.524  0.0684  0.1961 -0.0237
 8099SOL    HW232168   0.067   0.237   1.433  0.4751  0.8610 -0.0059
 8099SOL    HW332169   0.105   0.311   1.560 -0.4545  0.4372  0.5333
 8099SOL    MW432170   0.052   0.257   1.517  0.0531  0.3156  0.0522
 8100SOL     OW32171   5.812   4.798   0.965 -0.6126  0.4795 -0.3683
 8100SOL    HW232172   5.868   4.781   0.889  1.3285  1.2371  0.8234
 8100SOL    HW332173   5.840   4.734   1.030 -3.1700 -1.0497 -0.6406
 8100SOL    MW432174   5.823   4.788   0.963 -0.6939  0.3777 -0.2470
 8101SOL     OW32175   3.973   6.370   3.548  0.0434 -0.0040  0.1166
 8101SOL    HW232176   4.030   6.308   3.595  0.7038  0.2228 -0.3613
 8101SOL    HW332177   3.916   6.406   3.616  0.1576 -0.5796  0.5313
 8101SOL    MW432178   3.973   6.367   3.563  0.1456 -0.0500  0.1082
 8102SOL     OW32179   3.590   1.522   4.459 -1.0726  0.3385  0.4115
 8102SOL    HW232180   3.661   1.522   4.395 -0.9417 -1.6395  0.4738
 8102SOL    HW332181   3.607   1.597   4.516  0.3337  0.5342 -0.2342
 8102SOL    MW432182   3.601   1.532   4.458 -0.8698  0.1033  0.3345
 8103SOL     OW32183   2.199   0.207   2.241 -0.0622 -0.0844 -0.8884
 8103SOL    HW232184   2.256   0.140   2.279  1.3703  0.2982 -2.2260
 8103SOL    HW332185   2.134   0.158   2.191  0.0095 -0.4998 -0.5788
 8103SOL    MW432186   2.198   0.192   2.239  0.1362 -0.0888 -1.0240
 8104SOL     OW32187   4.036   5.300   4.610  0.3040 -0.4177 -0.0561
 8104SOL    HW232188   3.980   5.229   4.579 -0.2505  0.1591 -0.3847
 8104SOL    HW332189   4.045   5.284   4.704 -0.7906 -0.2629  0.0881
 8104SOL    MW432190   4.030   5.288   4.619  0.0864 -0.3212 -0.0805
 8105SOL     OW32191   1.787   4.908   3.466  0.0116  0.4542 -0.4150
 8105SOL    HW232192   1.800   4.978   3.402  1.3592 -0.6682 -1.4420
 8105SOL    HW332193   1.748   4.837   3.415  1.6653 -0.6704 -0.1907
 8105SOL    MW432194   1.784   4.908   3.451  0.4076  0.1577 -0.5209
 8106SOL     OW32195   4.775   3.372   3.886 -0.9973  0.4850 -0.0303
 8106SOL    HW232196   4.770   3.466   3.871 -0.2401  0.6422  0.6239
 8106SOL    HW332197   4.693   3.350   3.931 -1.4573  0.7151 -0.7497
 8106SOL    MW432198   4.764   3.382   3.890 -0.9581  0.5361 -0.0389
 8107SOL     OW32199   1.670   3.310   4.306  0.6104 -0.4669 -0.3856
 8107SOL    HW232200   1.707   3.311   4.217  0.3802 -0.2808 -0.4803
 8107SOL    HW332201   1.741   3.279   4.361  1.5801  1.7901 -0.2530
 8107SOL    MW432202   1.684   3.306   4.301  0.7080 -0.1446 -0.3806
 8108SOL     OW32203   2.570   5.284   0.187  0.0448  0.4435 -0.3545
 8108SOL    HW232204   2.613   5.338   0.254  0.1695  0.7279 -0.6616
 8108SOL    HW332205   2.612   5.309   0.105  0.7482 -0.7711 -0.3908
 8108SOL    MW432206   2.581   5.294   0.185  0.1540  0.3208 -0.3998
 8109SOL     OW32207   4.216   3.447   3.500  0.0861  0.1624 -0.0627
 8109SOL    HW232208   4.263   3.415   3.423  1.6856 -1.8622  1.6281
 8109SOL    HW332209   4.158   3.375   3.525  0.3600  0.3596  1.2189
 8109SOL    MW432210   4.215   3.434   3.493  0.3333 -0.0787  0.3294
 8110SOL     OW32211   1.393   1.740   6.080  0.0262  0.6183 -0.5539
 8110SOL    HW232212   1.392   1.835   6.092 -1.7011  0.6375 -0.5768
 8110SOL    HW332213   1.370   1.727   5.988  3.2467  0.2029 -1.4186
 8110SOL    MW432214   1.390   1.750   6.070  0.2232  0.5660 -0.6710
 8111SOL     OW32215   1.454   4.792   5.635 -0.1264  0.0149 -0.0766
 8111SOL    HW232216   1.430   4.759   5.722  0.1826 -0.3554 -0.1266
 8111SOL    HW332217   1.423   4.882   5.634 -0.4659 -0.0955  0.2824
 8111SOL    MW432218   1.447   4.799   5.646 -0.1304 -0.0485 -0.0358
 8112SOL     OW32219   3.863   6.164   1.573  0.2499 -0.9472  0.3580
 8112SOL    HW232220   3.886   6.251   1.606 -0.3769 -0.6475  0.0254
 8112SOL    HW332221   3.939   6.137   1.521 -0.9299  1.0023 -2.6302
 8112SOL    MW432222   3.876   6.172   1.570  0.0115 -0.6504 -0.0802
 8113SOL     OW32223   4.251   2.092   1.057  0.7053 -0.1970 -0.2812
 8113SOL    HW232224   4.287   2.072   0.970  0.5117  0.5465 -0.5379
 8113SOL    HW332225   4.221   2.183   1.050  0.0900 -0.3438  0.3631
 8113SOL    MW432226   4.252   2.101   1.045  0.5986 -0.1182 -0.2301
 8114SOL     OW32227   3.252   3.129   3.081 -0.1426  0.0753  0.7205
 8114SOL    HW232228   3.255   3.209   3.134 -1.8904 -0.3155  1.4938
 8114SOL    HW332229   3.203   3.067   3.135  1.2158 -1.5545  0.1488
 8114SOL    MW432230   3.246   3.132   3.096 -0.1940 -0.1913  0.7471
 8115SOL     OW32231   0.818   6.318   5.458  0.0293  0.1434  0.1966
 8115SOL    HW232232   0.807   6.262   5.380  1.0939 -0.9052  0.7649
 8115SOL    HW332233   0.861   6.397   5.425  0.7899 -0.4393 -0.2461
 8115SOL    MW432234   0.822   6.321   5.443  0.2701 -0.0719  0.2132
 8116SOL     OW32235   2.747   4.156   3.868 -0.0230 -0.2401 -0.3084
 8116SOL    HW232236   2.691   4.177   3.794 -1.9396  1.4310  1.4744
 8116SOL    HW332237   2.776   4.241   3.901  0.6071 -0.9217  0.9754
 8116SOL    MW432238   2.743   4.170   3.863 -0.1927 -0.1096  0.0962
 8117SOL     OW32239   4.243   0.818   3.545 -0.1320  0.2951 -0.0186
 8117SOL    HW232240   4.178   0.757   3.508  0.7677 -1.9726  1.9070
 8117SOL    HW332241   4.312   0.821   3.479 -1.3849  1.4342 -1.3497
 8117SOL    MW432242   4.243   0.810   3.531 -0.1786  0.1462  0.0598
 8118SOL     OW32243   5.304   2.779   2.134  0.0851  0.1572 -0.1838
 8118SOL    HW232244   5.254   2.762   2.054 -1.4400  0.6111  0.6410
 8118SOL    HW332245   5.326   2.872   2.129  2.3897 -0.3755 -1.3494
 8118SOL    MW432246   5.301   2.789   2.123  0.1880  0.1468 -0.2288
 8119SOL     OW32247   0.347   3.624   4.947  0.1710 -0.5692 -0.5151
 8119SOL    HW232248   0.407   3.677   4.895 -0.1761 -0.4297 -0.7727
 8119SOL    HW332249   0.388   3.538   4.950  0.2590 -0.5425 -0.9083
 8119SOL    MW432250   0.360   3.620   4.941  0.1368 -0.5473 -0.6010
 8120SOL     OW32251   3.443   5.217   3.667 -0.2406  0.1608  0.3945
 8120SOL    HW232252   3.527   5.177   3.645 -0.1499  0.4127  0.2812
 8120SOL    HW332253   3.381   5.143   3.670 -0.0366 -0.0111  0.3803
 8120SOL    MW432254   3.446   5.202   3.664 -0.2018  0.1714  0.3777
 8121SOL     OW32255   2.535   0.238   1.137 -0.0194  0.0219 -0.0356
 8121SOL    HW232256   2.493   0.244   1.222  0.4474  1.7242  0.1113
 8121SOL    HW332257   2.470   0.269   1.075  0.2175  0.4301 -0.0846
 8121SOL    MW432258   2.521   0.243   1.140  0.0735  0.3004 -0.0227
 8122SOL     OW32259   3.272   4.822   6.066  0.1938 -0.9369  0.0161
 8122SOL    HW232260   3.348   4.770   6.041  0.9681 -0.3520  1.0519
 8122SOL    HW332261   3.202   4.758   6.081  0.8966 -1.6148  0.4793
 8122SOL    MW432262   3.273   4.807   6.064  0.3887 -0.9491  0.2138
 8123SOL     OW32263   2.553   2.183   4.176 -0.4395 -0.4641  0.3335
 8123SOL    HW232264   2.498   2.251   4.137  2.2737  2.2924  0.9168
 8123SOL    HW332265   2.632   2.182   4.121  0.5232 -1.5615  1.6648
 8123SOL    MW432266   2.556   2.192   4.164  0.0455 -0.2452  0.5861
 8124SOL     OW32267   0.449   0.812   6.057  0.5293  0.1710 -0.6160
 8124SOL    HW232268   0.381   0.820   6.124 -0.0576 -1.4037 -0.9632
 8124SOL    HW332269   0.459   0.900   6.022 -1.7137  0.3678 -0.9044
 8124SOL    MW432270   0.441   0.824   6.061  0.1559 -0.0108 -0.6999
 8125SOL     OW32271   6.382   5.189   1.379 -0.1631 -0.0198 -0.5324
 8125SOL    HW232272   6.291   5.200   1.406  0.0646 -0.9659  0.7321
 8125SOL    HW332273   6.420   5.135   1.448  1.9053  2.0570  0.0657
 8125SOL    MW432274   6.375   5.183   1.391  0.1399  0.1294 -0.2866
 8126SOL     OW32275   1.674   0.659   2.198 -0.0647 -0.0771 -0.2635
 8126SOL    HW232276   1.607   0.652   2.266  0.3966 -0.6937  0.1435
 8126SOL    HW332277   1.632   0.627   2.118 -0.8552  1.3956 -0.4554
 8126SOL    MW432278   1.660   0.654   2.197 -0.1082  0.0359 -0.2351
 8127SOL     OW32279   1.888   5.381   1.880  0.2269 -0.2014 -0.0631
 8127SOL    HW232280   1.957   5.426   1.832 -0.0341  1.1037  0.7321
 8127SOL    HW332281   1.933   5.311   1.928  1.3322  1.6075  1.7208
 8127SOL    MW432282   1.903   5.378   1.880  0.3383  0.2095  0.2772
 8128SOL     OW32283   3.628   2.605   2.812 -0.1555  0.3403  0.1753
 8128SOL    HW232284   3.648   2.698   2.821  1.2963  0.0645  0.0515
 8128SOL    HW332285   3.711   2.561   2.830 -0.9206 -0.9640  0.6829
 8128SOL    MW432286   3.641   2.611   2.816 -0.0649  0.1319  0.2259
 8129SOL     OW32287   3.359   1.817   5.974 -0.1240 -0.0946  0.3300
 8129SOL    HW232288   3.395   1.816   6.062  0.5923  2.8349  0.1803
 8129SOL    HW332289   3.436   1.823   5.917 -0.6472  2.2852 -0.2156
 8129SOL    MW432290   3.374   1.818   5.978 -0.0985  0.6059  0.2383
 8130SOL     OW32291   1.463   3.759   4.985 -0.0654  0.2179 -0.0260
 8130SOL    HW232292   1.446   3.846   5.021 -0.3428 -0.2632  1.0327
 8130SOL    HW332293   1.508   3.712   5.055  1.2230 -0.1070 -1.0410
 8130SOL    MW432294   1.467   3.764   4.999  0.0680  0.1116 -0.0202
 8131SOL     OW32295   5.380   1.048   2.731  0.1864 -0.3829 -0.6968
 8131SOL    HW232296   5.332   1.123   2.694  0.2284  0.3978  0.7569
 8131SOL    HW332297   5.436   1.019   2.660 -1.9908 -0.9728 -2.2947
 8131SOL    MW432298   5.381   1.054   2.717 -0.0953 -0.3577 -0.7159
 8132SOL     OW32299   5.108   5.270   1.833  0.3389  0.5446  0.3082
 8132SOL    HW232300   5.121   5.239   1.922  1.4428  3.1235  1.1358
 8132SOL    HW332301   5.155   5.207   1.778  0.0879 -0.7754  1.5420
 8132SOL    MW432302   5.116   5.257   1.837  0.4514  0.7107  0.5801
 8133SOL     OW32303   4.492   4.840   2.788 -0.2121 -0.8039  0.4194
 8133SOL    HW232304   4.568   4.899   2.783 -1.0230  0.2887  0.4882
 8133SOL    HW332305   4.418   4.898   2.809 -0.9418 -1.9449  1.1236
 8133SOL    MW432306   4.492   4.856   2.790 -0.4153 -0.8103  0.5214
 8134SOL     OW32307   1.034   4.234   6.379 -0.1860 -0.5054 -0.1170
 8134SOL    HW232308   0.940   4.218   6.392  0.0563 -1.5151  0.5370
 8134SOL    HW332309   1.075   4.149   6.399  1.0277  0.3868  1.3795
 8134SOL    MW432310   1.027   4.220   6.383  0.0061 -0.5209  0.1667
 8135SOL     OW32311   0.184   3.063   5.082  0.4697 -0.2956  0.0750
 8135SOL    HW232312   0.191   3.110   4.999 -0.3921 -0.1066  0.1024
 8135SOL    HW332313   0.091   3.067   5.104  0.3898 -1.9862  0.1039
 8135SOL    MW432314   0.172   3.070   5.074  0.3455 -0.4937  0.0824
 8136SOL     OW32315   2.470   2.331   4.394 -0.3208  0.4290 -0.1291
 8136SOL    HW232316   2.515   2.288   4.322 -0.0524 -0.9387  0.8226
 8136SOL    HW332317   2.540   2.354   4.455 -0.7999 -1.3672  1.1802
 8136SOL    MW432318   2.485   2.328   4.393 -0.3486  0.0116  0.1692
 8137SOL     OW32319   4.531   5.334   1.079 -0.2013 -0.1115 -0.2588
 8137SOL    HW232320   4.569   5.269   1.019  1.3524  0.5778 -0.0617
 8137SOL    HW332321   4.479   5.391   1.023 -0.2801 -0.5733 -0.6648
 8137SOL    MW432322   4.529   5.333   1.064 -0.0067 -0.0815 -0.2864
 8138SOL     OW32323   0.813   4.348   4.176  0.1602 -0.3909 -0.3791
 8138SOL    HW232324   0.811   4.438   4.145 -0.8768 -0.0412  0.6088
 8138SOL    HW332325   0.903   4.335   4.205  0.1806  0.5506  0.0387
 8138SOL    MW432326   0.824   4.358   4.176  0.0261 -0.2205 -0.1936
 8139SOL     OW32327   1.889   0.510   1.063 -0.3739 -0.7955  0.2648
 8139SOL    HW232328   1.978   0.477   1.073 -0.0086  0.2035  0.4655
 8139SOL    HW332329   1.867   0.547   1.148 -0.2310  0.6873 -0.3129
 8139SOL    MW432330   1.898   0.511   1.075 -0.3068 -0.4681  0.2150
 8140SOL     OW32331   2.304   1.157   0.440  0.6666  0.3379  0.1251
 8140SOL    HW232332   2.275   1.105   0.365 -2.1504 -0.2399  1.4705
 8140SOL    HW332333   2.371   1.215   0.405 -1.1414  0.7173 -3.0554
 8140SOL    MW432334   2.309   1.157   0.425  0.0564  0.3117 -0.1170
 8141SOL     OW32335   0.068   2.509   3.440 -0.9074 -0.1362  0.0963
 8141SOL    HW232336   0.095   2.598   3.418  0.2904 -0.7617 -1.1133
 8141SOL    HW332337   0.007   2.485   3.370 -0.7792 -0.4714  0.1002
 8141SOL    MW432338   0.064   2.518   3.428 -0.7324 -0.2630 -0.0628
 8142SOL     OW32339   5.238   3.173   5.398  0.8774 -0.2215  0.1366
 8142SOL    HW232340   5.279   3.160   5.313  1.6208  0.5674  0.3493
 8142SOL    HW332341   5.149   3.202   5.379  1.0342 -0.0712 -0.3654
 8142SOL    MW432342   5.232   3.175   5.385  0.9962 -0.0976  0.0984
 8143SOL     OW32343   1.644   0.397   0.985 -0.0962 -0.3774  0.2352
 8143SOL    HW232344   1.726   0.444   0.998 -0.5054  0.3846  0.1286
 8143SOL    HW332345   1.664   0.307   1.009  0.8313 -0.2493 -0.0239
 8143SOL    MW432346   1.658   0.392   0.990 -0.0278 -0.2600  0.1869
 8144SOL     OW32347   4.024   0.389   1.782  0.3884 -0.3095 -0.1173
 8144SOL    HW232348   4.002   0.296   1.790 -0.0855 -0.4424 -2.4565
 8144SOL    HW332349   3.953   0.426   1.730  1.0139  1.2162  0.0750
 8144SOL    MW432350   4.012   0.382   1.776  0.4084 -0.1258 -0.4006
 8145SOL     OW32351   1.442   5.912   1.672  0.0248 -0.0606 -0.5071
 8145SOL    HW232352   1.503   5.851   1.632  0.3396 -1.7173  2.2897
 8145SOL    HW332353   1.361   5.901   1.622  0.9192 -0.6019 -1.8820
 8145SOL    MW432354   1.439   5.903   1.660  0.1844 -0.3506 -0.3195
 8146SOL     OW32355   0.297   2.475   5.567 -0.1497  0.2928  0.3223
 8146SOL    HW232356   0.221   2.511   5.520 -0.2471  0.9194  0.9407
 8146SOL    HW332357   0.322   2.398   5.516 -0.1331  1.0523 -0.8697
 8146SOL    MW432358   0.290   2.470   5.554 -0.1604  0.4757  0.2466
 8147SOL     OW32359   5.356   6.023   0.435  0.1999 -0.1526 -0.2999
 8147SOL    HW232360   5.286   5.977   0.483  0.5998 -0.0959  0.3560
 8147SOL    HW332361   5.340   6.115   0.453  0.8545 -0.1728  0.4564
 8147SOL    MW432362   5.345   6.029   0.444  0.3391 -0.1478 -0.1136
 8148SOL     OW32363   0.826   0.739   2.703  0.3276  0.1107  0.6222
 8148SOL    HW232364   0.868   0.758   2.787  1.7194 -1.1370  0.2484
 8148SOL    HW332365   0.890   0.765   2.638 -0.9391  1.5355 -0.1072
 8148SOL    MW432366   0.840   0.745   2.706  0.3441  0.1340  0.4766
 8149SOL     OW32367   0.231   6.396   0.550 -0.1922  0.2004 -0.3073
 8149SOL    HW232368   0.279   6.318   0.523 -2.8431 -2.0187  0.9039
 8149SOL    HW332369   0.211   6.442   0.468 -1.1326 -2.0428 -1.4284
 8149SOL    MW432370   0.234   6.392   0.536 -0.6660 -0.3883 -0.2954
 8150SOL     OW32371   3.921   5.576   2.810 -0.3954  0.0461  0.6276
 8150SOL    HW232372   3.915   5.671   2.816 -1.2932  0.0872 -0.5982
 8150SOL    HW332373   3.843   5.550   2.761  0.3174 -1.2208  0.1173
 8150SOL    MW432374   3.910   5.585   2.804 -0.4198 -0.1156  0.3985
 8151SOL     OW32375   2.508   1.106   2.088 -0.6691  0.5237 -0.0504
 8151SOL    HW232376   2.418   1.109   2.057 -0.9386  1.6514  0.7823
 8151SOL    HW332377   2.560   1.095   2.009 -1.5492 -0.4679 -0.5063
 8151SOL    MW432378   2.503   1.105   2.073 -0.8208  0.5417 -0.0007
 8152SOL     OW32379   3.919   6.188   4.582 -0.3577  0.1246 -0.2373
 8152SOL    HW232380   3.962   6.145   4.508  1.0418 -1.8537  1.6211
 8152SOL    HW332381   3.825   6.173   4.568 -0.0912 -0.5215 -1.4041
 8152SOL    MW432382   3.912   6.181   4.570 -0.1379 -0.2216 -0.1461
 8153SOL     OW32383   0.742   0.788   5.559  0.1167  0.4582 -0.3008
 8153SOL    HW232384   0.682   0.850   5.600  0.4731 -0.1941  1.2566
 8153SOL    HW332385   0.697   0.762   5.478 -1.5943  0.2099  0.6757
 8153SOL    MW432386   0.728   0.793   5.554 -0.0620  0.3394  0.0335
 8154SOL     OW32387   4.693   2.905   0.244  0.8608 -0.2356  0.9092
 8154SOL    HW232388   4.680   2.812   0.263  2.1138 -0.6218  0.0210
 8154SOL    HW332389   4.648   2.918   0.160  2.7338 -0.6779 -0.2365
 8154SOL    MW432390   4.685   2.894   0.235  1.2732 -0.3449  0.6408
 8155SOL     OW32391   0.582   3.557   1.178  0.1837 -0.0887 -0.4879
 8155SOL    HW232392   0.632   3.502   1.118 -1.8825 -3.2032  0.4098
 8155SOL    HW332393   0.586   3.512   1.262 -2.5104  0.4674  0.0543
 8155SOL    MW432394   0.589   3.544   1.181 -0.4443 -0.4262 -0.2980
 8156SOL     OW32395   1.119   4.499   3.964 -0.5193  0.0661 -0.0341
 8156SOL    HW232396   1.135   4.506   4.058 -0.7574  0.7369 -0.0353
 8156SOL    HW332397   1.146   4.410   3.941  1.4386  0.5361  0.2856
 8156SOL    MW432398   1.124   4.488   3.973 -0.2924  0.2166  0.0079
 8157SOL     OW32399   2.853   5.696   5.635 -0.5545 -0.0498 -0.0832
 8157SOL    HW232400   2.802   5.777   5.631 -0.9308 -0.3293 -1.5651
 8157SOL    HW332401   2.798   5.631   5.591 -0.5347 -1.2841  1.6317
 8157SOL    MW432402   2.839   5.698   5.628 -0.6015 -0.2496 -0.0525
 8158SOL     OW32403   5.820   4.483   1.550  0.3652 -0.3856 -0.1484
 8158SOL    HW232404   5.820   4.461   1.457  1.4552 -1.0834  0.0088
 8158SOL    HW332405   5.727   4.483   1.574  0.1440 -1.5214 -0.9265
 8158SOL    MW432406   5.807   4.480   1.541  0.4798 -0.6275 -0.2303
 8159SOL     OW32407   0.016   1.488   0.235  0.0383  0.9316  0.1334
 8159SOL    HW232408   0.066   1.566   0.258  0.3508  1.2300 -1.4789
 8159SOL    HW332409  -0.041   1.516   0.164 -0.2550 -0.1743 -0.0834
 8159SOL    MW432410   0.015   1.502   0.229  0.0408  0.8251 -0.1079
 8160SOL     OW32411   0.708   4.196   1.597 -0.0823 -0.1324 -0.2094
 8160SOL    HW232412   0.753   4.269   1.639  1.8539 -1.9429  1.0850
 8160SOL    HW332413   0.649   4.162   1.664 -0.1312 -0.4436 -0.4070
 8160SOL    MW432414   0.706   4.201   1.611  0.1667 -0.4123 -0.0647
 8161SOL     OW32415   5.053   6.299   0.312  0.3092  0.0719  0.2466
 8161SOL    HW232416   4.998   6.377   0.324  0.3208  0.1437 -0.1615
 8161SOL    HW332417   4.991   6.227   0.309 -0.0539  0.3670 -2.7853
 8161SOL    MW432418   5.038   6.300   0.313  0.2628  0.1203 -0.2073
 8162SOL     OW32419   2.278   5.900   2.836  0.1801 -0.1321 -0.1770
 8162SOL    HW232420   2.346   5.924   2.899  0.5167  0.1041 -0.6277
 8162SOL    HW332421   2.249   5.984   2.799 -0.4115 -0.2237  0.0646
 8162SOL    MW432422   2.283   5.914   2.840  0.1464 -0.1130 -0.2046
 8163SOL     OW32423   2.146   1.984   4.906  0.3392  0.0587  0.3038
 8163SOL    HW232424   2.165   2.062   4.855 -0.4457 -0.6410 -1.1063
 8163SOL    HW332425   2.101   2.017   4.984 -0.8713  0.9649 -0.7315
 8163SOL    MW432426   2.142   1.998   4.910  0.0760  0.0859 -0.0188
 8164SOL     OW32427   0.587   3.500   4.518 -0.1177  0.0876 -0.1569
 8164SOL    HW232428   0.634   3.575   4.554 -0.8436 -0.2586  1.5767
 8164SOL    HW332429   0.624   3.424   4.562 -1.4379 -0.2960  0.3391
 8164SOL    MW432430   0.598   3.500   4.528 -0.3876 -0.0087  0.1373
 8165SOL     OW32431   4.690   5.490   5.024  0.1615 -0.4571  0.2461
 8165SOL    HW232432   4.740   5.428   4.972 -0.1918 -0.1784 -0.4390
 8165SOL    HW332433   4.755   5.532   5.081  0.7167 -0.1182 -0.6096
 8165SOL    MW432434   4.705   5.488   5.025  0.1881 -0.3756  0.0428
 8166SOL     OW32435   5.933   0.680   1.040  0.1598 -0.4827  0.0324
 8166SOL    HW232436   5.944   0.775   1.034 -0.2296 -0.5228 -1.6649
 8166SOL    HW332437   6.018   0.645   1.014  0.1229 -0.6149  0.0899
 8166SOL    MW432438   5.946   0.688   1.036  0.1035 -0.5055 -0.1839
 8167SOL     OW32439   2.514   4.989   0.657  0.1212  0.0207  0.1629
 8167SOL    HW232440   2.487   4.897   0.666  1.8739 -0.6428 -0.7800
 8167SOL    HW332441   2.476   5.033   0.732 -1.2187 -1.3696  0.3476
 8167SOL    MW432442   2.505   4.982   0.668  0.1757 -0.2503  0.0629
 8168SOL     OW32443   0.630   1.418   5.616  0.4348 -0.0156 -0.5238
 8168SOL    HW232444   0.565   1.486   5.629 -0.4871 -1.0139  0.2833
 8168SOL    HW332445   0.683   1.420   5.696 -0.5996 -1.2589  0.2431
 8168SOL    MW432446   0.629   1.427   5.628  0.1767 -0.3114 -0.3161
 8169SOL     OW32447   3.173   0.249   5.786 -0.0954 -0.2295 -0.6113
 8169SOL    HW232448   3.205   0.180   5.728 -0.6925 -0.5996 -0.4999
 8169SOL    HW332449   3.253   0.284   5.826  0.2388 -0.6535 -0.8911
 8169SOL    MW432450   3.188   0.244   5.784 -0.1301 -0.3343 -0.6336
 8170SOL     OW32451   1.119   1.385   3.219  0.1225  0.4250 -0.3869
 8170SOL    HW232452   1.153   1.468   3.185  0.8483  0.3475  0.1165
 8170SOL    HW332453   1.132   1.391   3.314  1.6062 -0.8872 -0.4764
 8170SOL    MW432454   1.125   1.397   3.227  0.4140  0.2417 -0.3323
 8171SOL     OW32455   0.874   3.022   3.982  0.3204  0.5828  0.3204
 8171SOL    HW232456   0.844   2.964   3.913  0.3651  0.0363  0.7524
 8171SOL    HW332457   0.875   3.109   3.942  3.3875 -0.0801 -1.4051
 8171SOL    MW432458   0.870   3.026   3.967  0.7310  0.4232  0.1498
 8172SOL     OW32459   0.951   4.708   4.272 -0.1862  0.1490 -0.3578
 8172SOL    HW232460   0.883   4.697   4.206 -0.9623  2.3085  0.0141
 8172SOL    HW332461   0.918   4.662   4.349 -1.2903  1.1931 -0.1711
 8172SOL    MW432462   0.938   4.701   4.274 -0.4343  0.5717 -0.2841
 8173SOL     OW32463   1.222   5.672   6.175  0.5501 -0.1659  0.0408
 8173SOL    HW232464   1.313   5.647   6.158  1.0523  1.6083 -0.0133
 8173SOL    HW332465   1.221   5.704   6.265  0.2317  0.9356 -0.3460
 8173SOL    MW432466   1.234   5.673   6.184  0.5744  0.2135 -0.0174
 8174SOL     OW32467   4.456   1.348   0.570  0.4912  0.4492 -0.0401
 8174SOL    HW232468   4.482   1.440   0.580 -1.7055  1.1198  0.1286
 8174SOL    HW332469   4.361   1.351   0.564  0.4333 -1.7148 -1.4844
 8174SOL    MW432470   4.447   1.361   0.570  0.1937  0.2521 -0.2084
 8175SOL     OW32471   3.248   2.996   1.177 -0.3499  0.4702 -0.7523
 8175SOL    HW232472   3.298   3.077   1.188 -1.9976  1.6057 -1.2596
 8175SOL    HW332473   3.283   2.956   1.098  1.1948  0.1111  0.0796
 8175SOL    MW432474   3.259   3.001   1.168 -0.3635  0.5726 -0.7095
 8176SOL     OW32475   0.542   4.183   1.188 -0.4617  0.3294 -0.0399
 8176SOL    HW232476   0.637   4.185   1.175 -0.4932  0.3085 -0.2757
 8176SOL    HW332477   0.509   4.254   1.134 -0.6219  0.0473 -0.3144
 8176SOL    MW432478   0.550   4.193   1.180 -0.4870  0.2894 -0.1072
 8177SOL     OW32479   5.421   2.423   2.028  0.3145 -0.1925 -0.4126
 8177SOL    HW232480   5.497   2.365   2.032  0.5425  0.1039 -0.4332
 8177SOL    HW332481   5.457   2.508   2.003 -0.0748 -0.1439 -0.8205
 8177SOL    MW432482   5.436   2.427   2.025  0.2932 -0.1469 -0.4691
 8178SOL     OW32483   2.812   5.427   0.686 -0.5068  0.0403 -0.4078
 8178SOL    HW232484   2.848   5.339   0.682 -1.5359 -0.3663 -1.1718
 8178SOL    HW332485   2.752   5.432   0.611 -2.7823  0.3329  1.3152
 8178SOL    MW432486   2.809   5.416   0.676 -0.9428  0.0252 -0.2813
 8179SOL     OW32487   5.778   2.046   0.575  0.3758  0.1476 -0.4164
 8179SOL    HW232488   5.707   2.045   0.640 -0.5392 -0.1887 -1.3808
 8179SOL    HW332489   5.858   2.039   0.626 -0.3494 -0.7276  0.6484
 8179SOL    MW432490   5.779   2.045   0.590  0.1594 -0.0123 -0.4032
 8180SOL     OW32491   0.340   0.179   1.053  0.4097 -0.1005 -0.0055
 8180SOL    HW232492   0.423   0.169   1.007  0.9959 -0.3054  1.0657
 8180SOL    HW332493   0.359   0.153   1.143 -0.5998  0.7211  0.4663
 8180SOL    MW432494   0.353   0.174   1.058  0.3538 -0.0192  0.1981
 8181SOL     OW32495   1.039   0.630   5.316 -0.0903  0.7128  0.3385
 8181SOL    HW232496   1.013   0.667   5.232 -0.6149  0.4086  0.3615
 8181SOL    HW332497   1.125   0.669   5.334 -0.9299  2.5208  0.7280
 8181SOL    MW432498   1.047   0.640   5.308 -0.2703  0.9112  0.3929
 8182SOL     OW32499   0.552   6.368   5.541  0.3229  0.3962  0.1490
 8182SOL    HW232500   0.647   6.372   5.529  0.4253 -1.0496  0.2913
 8182SOL    HW332501   0.540   6.341   5.632 -0.2223  0.3233  0.0613
 8182SOL    MW432502   0.563   6.365   5.551  0.2645  0.1958  0.1562
 8183SOL     OW32503   3.824   3.721   3.840  0.2604  0.0180 -0.0193
 8183SOL    HW232504   3.817   3.639   3.792 -0.3437  0.6092 -0.9661
 8183SOL    HW332505   3.899   3.708   3.899  0.0033 -1.2949  0.0413
 8183SOL    MW432506   3.833   3.709   3.842  0.1467 -0.0772 -0.1362
 8184SOL     OW32507   4.516   5.386   2.451 -0.3156 -0.8901 -0.8695
 8184SOL    HW232508   4.520   5.301   2.407 -0.4427 -1.0660 -0.5442
 8184SOL    HW332509   4.603   5.396   2.490 -0.8186 -1.6647  0.5470
 8184SOL    MW432510   4.528   5.376   2.450 -0.3987 -1.0155 -0.6397
 8185SOL     OW32511   5.985   0.050   5.705  0.0390  0.0437 -0.0588
 8185SOL    HW232512   5.993   0.067   5.612  2.0345 -1.0736 -0.1306
 8185SOL    HW332513   6.075   0.046   5.737 -0.5972  0.3344  1.9068
 8185SOL    MW432514   5.998   0.052   5.697  0.2183 -0.0653  0.1910
 8186SOL     OW32515   6.408   4.350   1.771  0.2437 -0.0091 -0.2269
 8186SOL    HW232516   6.444   4.408   1.838 -1.6526 -0.6765  1.5081
 8186SOL    HW332517   6.351   4.406   1.718  0.1334  0.1465  0.0542
 8186SOL    MW432518   6.405   4.365   1.773 -0.0210 -0.0767  0.0391
 8187SOL     OW32519   5.562   2.817   3.442  0.2052 -0.5803 -0.2041
 8187SOL    HW232520   5.629   2.776   3.496 -0.0178 -1.3507 -0.4976
 8187SOL    HW332521   5.594   2.906   3.427  0.7998 -0.7120  0.2696
 8187SOL    MW432522   5.575   2.824   3.447  0.2542 -0.6993 -0.1804
 8188SOL     OW32523   5.004   2.323   1.759  0.4833 -0.0452  0.1973
 8188SOL    HW232524   5.086   2.366   1.782  0.5341  0.4104 -0.7951
 8188SOL    HW332525   4.958   2.386   1.704  0.5548 -1.2448 -1.2930
 8188SOL    MW432526   5.009   2.337   1.755  0.4995 -0.1433 -0.1302
 8189SOL     OW32527   5.643   4.014   5.924 -0.2613  0.0485  0.2101
 8189SOL    HW232528   5.725   3.974   5.895 -0.7292 -0.7948  0.0322
 8189SOL    HW332529   5.658   4.033   6.017  1.2214  2.7241 -0.4821
 8189SOL    MW432530   5.656   4.011   5.933 -0.1274  0.2902  0.0953
 8190SOL     OW32531   2.700   5.193   1.221  0.0760  0.0873 -0.3629
 8190SOL    HW232532   2.649   5.229   1.294  0.6153 -0.4673  0.2949
 8190SOL    HW332533   2.641   5.132   1.178  0.1435 -0.4650  0.3235
 8190SOL    MW432534   2.686   5.190   1.225  0.1561 -0.0587 -0.1855
 8191SOL     OW32535   5.662   0.851   3.787  0.0422  0.2900  0.0557
 8191SOL    HW232536   5.603   0.906   3.839  0.4606  1.3649 -0.5768
 8191SOL    HW332537   5.750   0.881   3.810  0.2320  0.8665 -1.3370
 8191SOL    MW432538   5.666   0.862   3.797  0.1225  0.5079 -0.2115
 8192SOL     OW32539   0.377   4.668   0.445  0.3217  0.4373  0.1762
 8192SOL    HW232540   0.453   4.624   0.406  0.8668  1.7138 -0.2771
 8192SOL    HW332541   0.381   4.645   0.538  0.2930 -0.8388 -0.1138
 8192SOL    MW432542   0.388   4.659   0.452  0.3898  0.4374  0.0781
 8193SOL     OW32543   0.552   0.046   4.243  0.2054 -0.4114  0.2837
 8193SOL    HW232544   0.607  -0.024   4.208 -0.7293 -0.7165 -0.6112
 8193SOL    HW332545   0.594   0.127   4.212  0.5250 -0.6124  0.1848
 8193SOL    MW432546   0.565   0.047   4.234  0.1243 -0.4782  0.1526
 8194SOL     OW32547   0.065   0.049   5.691 -0.1162  0.7045 -0.0311
 8194SOL    HW232548   0.015   0.025   5.613  0.5814 -0.4201 -0.1596
 8194SOL    HW332549   0.148   0.082   5.657 -0.7886  2.7664  0.1751
 8194SOL    MW432550   0.069   0.050   5.676 -0.1129  0.8282 -0.0208
 8195SOL     OW32551   5.932   5.228   1.165  0.5757 -0.0456 -0.5559
 8195SOL    HW232552   5.880   5.184   1.097  0.8619  0.9255 -1.4261
 8195SOL    HW332553   5.965   5.156   1.220 -0.8602 -0.7451 -0.5630
 8195SOL    MW432554   5.930   5.213   1.163  0.4240 -0.0098 -0.6716
 8196SOL     OW32555   2.972   1.830   4.382  0.0348  0.1583  0.4764
 8196SOL    HW232556   2.978   1.925   4.375  0.8682  0.0892  0.2149
 8196SOL    HW332557   2.996   1.798   4.296 -0.4024 -0.2937  0.5151
 8196SOL    MW432558   2.976   1.839   4.370  0.0870  0.0896  0.4470
 8197SOL     OW32559   6.057   0.322   1.249 -0.4839 -0.1238 -0.0114
 8197SOL    HW232560   6.113   0.249   1.275  0.7862  1.1133  0.8378
 8197SOL    HW332561   6.118   0.387   1.214 -1.6733  0.2215 -1.5388
 8197SOL    MW432562   6.073   0.321   1.248 -0.4732  0.0850 -0.1009
 8198SOL     OW32563   0.481   3.484   6.029 -0.1444 -0.2990 -0.0946
 8198SOL    HW232564   0.467   3.579   6.030  0.1562 -0.2588  1.1440
 8198SOL    HW332565   0.396   3.447   6.002 -0.4217  0.2842 -0.0269
 8198SOL    MW432566   0.468   3.492   6.025 -0.1413 -0.2167  0.0778
 8199SOL     OW32567   0.339   0.023   3.645 -0.2116 -0.5275 -0.1196
 8199SOL    HW232568   0.426  -0.005   3.615 -1.2154 -0.8634 -3.0237
 8199SOL    HW332569   0.330   0.112   3.612 -1.0916 -0.6262 -0.1708
 8199SOL    MW432570   0.350   0.031   3.636 -0.4601 -0.5848 -0.5095
 8200SOL     OW32571   2.267   2.090   1.189  0.1057  0.8878 -0.4097
 8200SOL    HW232572   2.354   2.128   1.197  0.3829  0.3270 -0.7139
 8200SOL    HW332573   2.256   2.040   1.270  0.4075  0.2807 -0.7367
 8200SOL    MW432574   2.277   2.088   1.201  0.1821  0.7337 -0.4930
 8201SOL     OW32575   6.409   6.245   0.516 -0.6366 -0.0387 -0.2349
 8201SOL    HW232576   6.487   6.293   0.541 -1.0402  0.1847  0.6406
 8201SOL    HW332577   6.436   6.192   0.440  0.8519 -1.3014  1.0978
 8201SOL    MW432578   6.423   6.244   0.509 -0.4935 -0.1758  0.0565
 8202SOL     OW32579   4.726   2.693   2.568  0.2200  0.2566 -0.5236
 8202SOL    HW232580   4.771   2.632   2.626  0.2233  0.6760 -0.0848
 8202SOL    HW332581   4.749   2.664   2.480  0.6393 -0.0602 -0.3082
 8202SOL    MW432582   4.735   2.681   2.564  0.2758  0.2701 -0.4373
 8203SOL     OW32583   4.797   2.523   2.763  0.0366  0.4138  0.5057
 8203SOL    HW232584   4.714   2.477   2.747 -0.6970  1.6415  0.6712
 8203SOL    HW332585   4.861   2.474   2.711 -1.0805  0.3608 -0.9023
 8203SOL    MW432586   4.795   2.511   2.754 -0.2075  0.5688  0.3418
 8204SOL     OW32587   2.222   2.639   3.664 -0.3983  0.1126  0.3392
 8204SOL    HW232588   2.246   2.726   3.632 -1.4776  1.5050  2.9521
 8204SOL    HW332589   2.304   2.589   3.661  0.3761  1.3822 -0.7303
 8204SOL    MW432590   2.236   2.644   3.660 -0.4385  0.4638  0.5429
 8205SOL     OW32591   2.063   0.481   1.727 -0.2028 -0.4203  0.1024
 8205SOL    HW232592   2.014   0.546   1.776  1.0435  1.3108 -0.8274
 8205SOL    HW332593   2.042   0.499   1.635  1.0220 -0.5930 -0.2337
 8205SOL    MW432594   2.054   0.492   1.721  0.1232 -0.2147 -0.0646
 8206SOL     OW32595   0.369   5.920   4.292 -0.3444  0.1951  0.1170
 8206SOL    HW232596   0.393   5.864   4.367  0.3655 -0.9884 -0.9482
 8206SOL    HW332597   0.408   5.876   4.217 -2.2135  0.6164 -1.1468
 8206SOL    MW432598   0.378   5.907   4.292 -0.4974  0.0945 -0.1903
 8207SOL     OW32599   5.405   2.596   2.695  0.3926 -0.6023 -0.3084
 8207SOL    HW232600   5.341   2.592   2.766  0.0523  3.1292 -0.1954
 8207SOL    HW332601   5.367   2.542   2.625 -2.0619  0.1123  0.3744
 8207SOL    MW432602   5.391   2.589   2.695  0.0239 -0.0157 -0.2034
 8208SOL     OW32603   4.826   2.815   2.862  0.1850  0.1651 -0.2704
 8208SOL    HW232604   4.821   2.728   2.823 -2.1698 -0.8378  1.9533
 8208SOL    HW332605   4.890   2.806   2.933  0.6413  0.5255 -0.6329
 8208SOL    MW432606   4.834   2.802   2.866 -0.0655  0.0803 -0.0248
 8209SOL     OW32607   4.449   3.681   5.610 -0.2498 -1.0646 -0.1444
 8209SOL    HW232608   4.530   3.630   5.614  0.6534  0.1718 -1.4344
 8209SOL    HW332609   4.432   3.707   5.701  2.9918  1.8147 -0.1532
 8209SOL    MW432610   4.457   3.678   5.622  0.2970 -0.5216 -0.3157
 8210SOL     OW32611   0.317   0.951   4.714 -0.1844 -0.3165 -0.4635
 8210SOL    HW232612   0.267   0.891   4.770 -1.1393 -0.6288 -1.6067
 8210SOL    HW332613   0.251   1.007   4.674  0.6318  1.0074 -0.0397
 8210SOL    MW432614   0.301   0.950   4.716 -0.2027 -0.1830 -0.5584
 8211SOL     OW32615   1.496   5.996   3.041  0.0688 -0.3059 -0.4096
 8211SOL    HW232616   1.494   6.038   3.127  1.5039 -1.9798  0.5056
 8211SOL    HW332617   1.404   5.977   3.022 -0.3757  1.0211  0.2420
 8211SOL    MW432618   1.483   5.999   3.050  0.1995 -0.3516 -0.2029
 8212SOL     OW32619   0.826   3.915   1.881  0.2445 -0.6911 -0.2597
 8212SOL    HW232620   0.869   3.868   1.952 -1.2768 -0.4403  0.8585
 8212SOL    HW332621   0.892   3.918   1.812  2.0578 -0.2854  1.3938
 8212SOL    MW432622   0.841   3.909   1.881  0.2830 -0.6045  0.1060
 8213SOL     OW32623   1.948   5.928   3.112 -0.1751 -0.0117 -0.6973
 8213SOL    HW232624   1.965   5.882   3.195  0.0612  0.8757 -0.2321
 8213SOL    HW332625   1.994   5.876   3.046 -0.7409 -0.9873 -0.3503
 8213SOL    MW432626   1.957   5.915   3.114 -0.2186 -0.0233 -0.5901
 8214SOL     OW32627   2.496   5.792   2.675  0.1637 -0.7112  0.5225
 8214SOL    HW232628   2.441   5.839   2.737  0.8235 -0.4980  0.9549
 8214SOL    HW332629   2.434   5.739   2.624 -0.2662 -2.3722  2.6061
 8214SOL    MW432630   2.480   5.791   2.676  0.1941 -0.9022  0.8544
 8215SOL     OW32631   2.740   2.467   2.767  0.1701  0.0259  0.3963
 8215SOL    HW232632   2.733   2.407   2.841 -0.5812 -1.0525 -0.5265
 8215SOL    HW332633   2.816   2.435   2.717  0.7955  0.8680  0.7799
 8215SOL    MW432634   2.749   2.455   2.770  0.1535 -0.0053  0.3251
 8216SOL     OW32635   5.533   0.474   1.811  0.1280  0.1887 -0.0959
 8216SOL    HW232636   5.583   0.552   1.833  0.1747  0.7599 -2.0318
 8216SOL    HW332637   5.442   0.499   1.827  0.2636  0.0350  0.9473
 8216SOL    MW432638   5.527   0.488   1.816  0.1521  0.2438 -0.2136
 8217SOL     OW32639   3.967   5.818   4.668 -0.0097  0.6553  0.2175
 8217SOL    HW232640   4.007   5.872   4.600 -1.5113  0.0679 -1.1680
 8217SOL    HW332641   3.943   5.737   4.624 -0.1291 -0.1393  1.6788
 8217SOL    MW432642   3.969   5.815   4.653 -0.2236  0.4730  0.2275
 8218SOL     OW32643   4.839   5.455   3.512  0.3520 -0.2370 -1.0618
 8218SOL    HW232644   4.817   5.514   3.440  2.2105  0.3952 -1.1628
 8218SOL    HW332645   4.925   5.483   3.541  0.9496 -2.3882 -0.5663
 8218SOL    MW432646   4.847   5.466   3.506  0.6761 -0.4374 -1.0098
 8219SOL     OW32647   1.853   0.664   1.778  0.4735 -0.4468  0.8702
 8219SOL    HW232648   1.883   0.710   1.699  1.1103 -0.4828  1.0816
 8219SOL    HW332649   1.797   0.727   1.823  1.5963  0.2642  1.3246
 8219SOL    MW432650   1.850   0.678   1.774  0.7056 -0.3578  0.9581
 8220SOL     OW32651   5.095   1.064   4.993 -0.2418  0.4839  0.0805
 8220SOL    HW232652   5.106   1.011   5.072 -0.5756 -0.5788 -0.5620
 8220SOL    HW332653   5.184   1.087   4.966  0.0060 -0.9595 -0.4134
 8220SOL    MW432654   5.108   1.060   5.000 -0.2531  0.1532 -0.0694
 8221SOL     OW32655   2.322   3.224   2.045 -0.8441  0.2682 -0.4246
 8221SOL    HW232656   2.364   3.177   2.117 -3.2839 -0.1193  0.8461
 8221SOL    HW332657   2.393   3.241   1.983  1.0170 -0.9022  1.2591
 8221SOL    MW432658   2.337   3.220   2.047 -0.9204  0.0626 -0.0348
 8222SOL     OW32659   1.481   5.582   6.131 -0.4207  0.0747  0.1389
 8222SOL    HW232660   1.504   5.596   6.223  0.0872 -0.2419  0.0649
 8222SOL    HW332661   1.516   5.659   6.086 -0.5985  0.1914  0.1993
 8222SOL    MW432662   1.489   5.594   6.137 -0.3772  0.0483  0.1371
 8223SOL     OW32663   1.188   4.854   6.219 -0.7201 -0.3583  0.0813
 8223SOL    HW232664   1.158   4.767   6.243 -2.0266 -1.1200 -3.6050
 8223SOL    HW332665   1.271   4.839   6.173 -0.2646  0.5285  0.5736
 8223SOL    MW432666   1.195   4.841   6.216 -0.8324 -0.3418 -0.3401
 8224SOL     OW32667   6.236   4.187   2.546 -0.6495  0.0404  0.6002
 8224SOL    HW232668   6.239   4.097   2.514 -1.8472  0.1229  0.1960
 8224SOL    HW332669   6.195   4.236   2.475  2.1200  1.3908 -0.1870
 8224SOL    MW432670   6.231   4.181   2.533 -0.4421  0.2294  0.4430
 8225SOL     OW32671   2.521   1.389   0.781  0.0201  0.0811  0.2008
 8225SOL    HW232672   2.453   1.451   0.753 -1.6316 -1.0626  1.4403
 8225SOL    HW332673   2.540   1.414   0.872 -1.5281 -1.8145  1.1335
 8225SOL    MW432674   2.514   1.401   0.790 -0.4021 -0.3199  0.4874
 8226SOL     OW32675   0.367   5.171   2.134  0.0323  0.5283 -0.0754
 8226SOL    HW232676   0.418   5.252   2.139 -0.1966  0.6681  0.0287
 8226SOL    HW332677   0.287   5.190   2.183  0.5250 -0.1695  1.0377
 8226SOL    MW432678   0.363   5.184   2.141  0.0671  0.4547  0.0852
 8227SOL     OW32679   4.678   2.411   5.257 -0.0125 -0.3742 -0.0475
 8227SOL    HW232680   4.649   2.491   5.213  2.6601  2.0441  2.1525
 8227SOL    HW332681   4.751   2.380   5.203  0.3738  0.0134  0.2357
 8227SOL    MW432682   4.684   2.418   5.244  0.3911 -0.0040  0.2801
 8228SOL     OW32683   6.287   4.619   5.990 -0.3482  0.6250 -0.1049
 8228SOL    HW232684   6.206   4.570   5.979  0.2169 -0.3772  0.1103
 8228SOL    HW332685   6.302   4.660   5.904 -0.1052 -0.7109 -0.7143
 8228SOL    MW432686   6.278   4.618   5.977 -0.2416  0.3165 -0.1569
 8229SOL     OW32687   1.447   4.301   1.499 -0.2109  0.4695 -0.5285
 8229SOL    HW232688   1.482   4.235   1.439  0.2389 -0.3636  0.6208
 8229SOL    HW332689   1.482   4.384   1.466  0.9817 -0.1026 -0.7639
 8229SOL    MW432690   1.456   4.303   1.487  0.0058  0.2841 -0.4080
 8230SOL     OW32691   1.587   2.390   4.395  0.1190  0.1664  0.0876
 8230SOL    HW232692   1.510   2.391   4.338 -0.3892 -2.2150  0.6158
 8230SOL    HW332693   1.552   2.406   4.483  0.4850  0.8002  0.1252
 8230SOL    MW432694   1.572   2.392   4.399  0.1003 -0.0641  0.1622
 8231SOL     OW32695   1.098   0.081   0.840  0.2509 -0.0553  0.0267
 8231SOL    HW232696   1.191   0.079   0.818  0.6840 -1.8622  1.7610
 8231SOL    HW332697   1.067   0.165   0.807  2.9549  1.5042  1.1884
 8231SOL    MW432698   1.106   0.092   0.832  0.6648 -0.0880  0.4088
 8232SOL     OW32699   1.819   4.203   4.953 -0.3561 -0.4320  0.0577
 8232SOL    HW232700   1.770   4.158   5.021  1.7801 -0.5221  1.6293
 8232SOL    HW332701   1.896   4.148   4.938  0.6795  1.0500 -0.3093
 8232SOL    MW432702   1.822   4.190   4.960  0.0624 -0.2483  0.2166
 8233SOL     OW32703   5.648   0.402   0.132  0.4886  0.5481 -0.3767
 8233SOL    HW232704   5.726   0.374   0.086  0.7794 -0.0157  0.4276
 8233SOL    HW332705   5.647   0.497   0.123  2.4386  0.8070  1.3679
 8233SOL    MW432706   5.658   0.410   0.125  0.7842  0.5079 -0.0404
 8234SOL     OW32707   5.096   4.992   0.561 -0.1731 -0.0513  0.3168
 8234SOL    HW232708   5.151   5.003   0.484 -0.3062 -0.0584  0.2201
 8234SOL    HW332709   5.055   4.906   0.549  0.0101 -0.1685  0.5252
 8234SOL    MW432710   5.098   4.982   0.549 -0.1665 -0.0677  0.3315
 8235SOL     OW32711   3.801   2.451   4.988 -0.1365  0.6164  0.5583
 8235SOL    HW232712   3.725   2.486   5.034  0.8774  1.3843  1.7053
 8235SOL    HW332713   3.828   2.521   4.929  0.6183  0.9798  1.3148
 8235SOL    MW432714   3.794   2.464   4.986  0.0968  0.7657  0.8094
 8236SOL     OW32715   4.528   3.899   2.664  0.3161 -0.9419  0.1096
 8236SOL    HW232716   4.474   3.964   2.710  1.0437  0.8487 -1.4193
 8236SOL    HW332717   4.468   3.857   2.603  0.3289  0.1181 -0.6654
 8236SOL    MW432718   4.513   3.902   2.662  0.4138 -0.5658 -0.1944
 8237SOL     OW32719   4.340   4.062   2.781  0.0129 -0.2026 -0.0007
 8237SOL    HW232720   4.343   4.036   2.873  2.3427  1.7275  0.5860
 8237SOL    HW332721   4.255   4.031   2.750 -1.1016 -0.4390  2.9522
 8237SOL    MW432722   4.329   4.055   2.789  0.1732  0.0209  0.4663
 8238SOL     OW32723   5.213   2.258   0.373 -0.0517  0.3485  0.2717
 8238SOL    HW232724   5.302   2.248   0.339  0.2076  1.1361  0.7095
 8238SOL    HW332725   5.224   2.300   0.458 -0.8691  0.8010  0.1667
 8238SOL    MW432726   5.226   2.262   0.380 -0.1253  0.5121  0.3156
 8239SOL     OW32727   3.566   6.150   2.445 -0.3946 -0.2097  0.0076
 8239SOL    HW232728   3.575   6.153   2.350 -0.0333  1.5958  0.0740
 8239SOL    HW332729   3.475   6.177   2.461  0.0127  1.0473  0.2364
 8239SOL    MW432730   3.555   6.154   2.435 -0.2932  0.1944  0.0466
 8240SOL     OW32731   2.025   1.990   1.874  0.1613 -0.1840 -0.2106
 8240SOL    HW232732   1.966   1.929   1.918 -1.0421 -0.0064 -1.5318
 8240SOL    HW332733   2.099   1.936   1.846  1.8493 -0.0620  3.3488
 8240SOL    MW432734   2.027   1.975   1.876  0.2252 -0.1445  0.0847
 8241SOL     OW32735   5.589   2.808   2.471 -0.1473  0.3240  0.6090
 8241SOL    HW232736   5.535   2.859   2.532 -2.2651 -1.0043 -0.0542
 8241SOL    HW332737   5.635   2.875   2.419 -0.2069  1.4913  1.9831
 8241SOL    MW432738   5.588   2.824   2.472 -0.4346  0.3027  0.7028
 8242SOL     OW32739   2.087   4.679   1.549  0.2502  0.1052 -0.2637
 8242SOL    HW232740   2.062   4.589   1.530  0.7661 -0.2787  0.7689
 8242SOL    HW332741   2.027   4.732   1.497 -1.0088 -0.8090  0.2066
 8242SOL    MW432742   2.076   4.674   1.540  0.1522 -0.0661 -0.0654
 8243SOL     OW32743   3.953   4.768   1.397  0.1720  0.0033 -0.7435
 8243SOL    HW232744   3.923   4.775   1.307 -0.3955  1.0060 -0.4948
 8243SOL    HW332745   3.873   4.777   1.450  0.8453  3.2313 -0.0440
 8243SOL    MW432746   3.938   4.770   1.392  0.1860  0.5615 -0.6184
 8244SOL     OW32747   3.711   4.647   4.993  0.6044 -0.4689  0.1307
 8244SOL    HW232748   3.711   4.648   4.897 -2.9722  1.1593 -0.0319
 8244SOL    HW332749   3.642   4.585   5.016  0.4819  0.1820  1.6030
 8244SOL    MW432750   3.702   4.639   4.983  0.1164 -0.1682  0.3035
 8245SOL     OW32751   3.784   3.801   4.959  0.3848 -0.1256  0.5384
 8245SOL    HW232752   3.858   3.745   4.984  0.8417  0.7201  1.1282
 8245SOL    HW332753   3.740   3.821   5.042 -0.5033 -0.5928  0.1988
 8245SOL    MW432754   3.788   3.796   4.973  0.3279 -0.0757  0.5714
 8246SOL     OW32755   4.297   5.698   0.607  0.2686  0.3948 -0.2614
 8246SOL    HW232756   4.234   5.732   0.544 -1.2720 -1.1024  0.3928
 8246SOL    HW332757   4.358   5.770   0.622 -3.1122  3.1240  1.5243
 8246SOL    MW432758   4.297   5.712   0.601 -0.3807  0.5573  0.0605
 8247SOL     OW32759   2.120   3.539   2.971 -0.0963 -0.9279 -0.2979
 8247SOL    HW232760   2.214   3.558   2.972 -0.3296  0.3590  1.0540
 8247SOL    HW332761   2.106   3.490   2.890  2.0227 -2.6952  0.3165
 8247SOL    MW432762   2.131   3.535   2.961  0.1525 -0.9913 -0.0385
 8248SOL     OW32763   4.744   1.676   5.811  0.6477 -0.1612  0.0029
 8248SOL    HW232764   4.826   1.626   5.808  0.6071 -0.1958 -2.0457
 8248SOL    HW332765   4.727   1.699   5.720 -0.6746  1.4324  0.6048
 8248SOL    MW432766   4.753   1.672   5.798  0.4679  0.0445 -0.1880
 8249SOL     OW32767   0.119   5.969   3.159  0.0626  0.5422  0.4492
 8249SOL    HW232768   0.059   5.987   3.231 -2.0082  0.6153 -1.2088
 8249SOL    HW332769   0.206   5.991   3.194 -0.8662  0.6459  2.8572
 8249SOL    MW432770   0.123   5.974   3.173 -0.3332  0.5655  0.5481
 8250SOL     OW32771   2.308   0.040   2.002 -0.2976  0.1990  0.3901
 8250SOL    HW232772   2.314  -0.049   2.038  0.7351 -0.3655 -1.0897
 8250SOL    HW332773   2.269   0.091   2.073  2.4148 -0.6512  2.6669
 8250SOL    MW432774   2.303   0.035   2.016  0.1965  0.0123  0.4952
 8251SOL     OW32775   3.156   4.664   2.991  0.6014  0.5830 -0.1493
 8251SOL    HW232776   3.222   4.702   2.933 -0.3260  0.1368 -1.5162
 8251SOL    HW332777   3.149   4.573   2.964  1.2914 -0.0734  1.7260
 8251SOL    MW432778   3.164   4.657   2.980  0.5701  0.4376 -0.0822
 8252SOL     OW32779   6.076   2.828   5.705  0.0341 -0.4066 -0.3235
 8252SOL    HW232780   6.012   2.761   5.682 -2.1329  0.6253  2.1439
 8252SOL    HW332781   6.045   2.907   5.662  1.2296 -0.4514 -1.3023
 8252SOL    MW432782   6.063   2.829   5.697 -0.0941 -0.2764 -0.1271
 8253SOL     OW32783   0.811   2.453   6.019  0.8934  0.1969 -0.1757
 8253SOL    HW232784   0.749   2.479   5.951 -1.1293  1.4491  1.9878
 8253SOL    HW332785   0.847   2.370   5.988 -1.3048 -0.2092 -1.9123
 8253SOL    MW432786   0.807   2.445   6.006  0.3365  0.3085 -0.1194
 8254SOL     OW32787   4.896   3.723   0.148 -0.6423  0.0352 -0.0806
 8254SOL    HW232788   4.810   3.689   0.128 -1.0274  0.2201  1.1863
 8254SOL    HW332789   4.880   3.805   0.194  0.1683 -0.4993  1.2167
 8254SOL    MW432790   4.883   3.729   0.152 -0.5862 -0.0109  0.2577
 8255SOL     OW32791   0.377   5.942   3.268 -0.7122  0.2272  0.5370
 8255SOL    HW232792   0.430   6.011   3.308  1.8075 -1.7179  0.7143
 8255SOL    HW332793   0.336   5.898   3.343 -0.8066  0.3355  0.5500
 8255SOL    MW432794   0.378   5.946   3.284 -0.3922 -0.0151  0.5621
 8256SOL     OW32795   1.431   0.226   2.795 -0.5215 -0.0319 -0.1472
 8256SOL    HW232796   1.516   0.192   2.769  0.0932  1.4051 -0.1125
 8256SOL    HW332797   1.392   0.156   2.848  0.4596 -0.8667 -0.5002
 8256SOL    MW432798   1.437   0.212   2.799 -0.3109  0.0476 -0.1892
 8257SOL     OW32799   5.264   3.633   3.217  0.3277  0.3103  0.1047
 8257SOL    HW232800   5.215   3.590   3.287  0.7856  1.9802  1.5127
 8257SOL    HW332801   5.198   3.686   3.171 -0.1450 -1.4407 -1.3409
 8257SOL    MW432802   5.249   3.635   3.220  0.3258  0.2996  0.0997
 8258SOL     OW32803   5.263   3.962   6.137  0.1620  0.3072 -0.6237
 8258SOL    HW232804   5.230   3.912   6.062 -0.8867  0.6865 -0.4277
 8258SOL    HW332805   5.299   4.042   6.099  0.5989  0.0217 -0.8152
 8258SOL    MW432806   5.263   3.966   6.122  0.0813  0.3195 -0.6231
 8259SOL     OW32807   5.759   2.998   2.289 -0.2749  0.5188  0.6407
 8259SOL    HW232808   5.833   2.937   2.291  0.1399  0.8742 -1.3000
 8259SOL    HW332809   5.788   3.075   2.337  1.9257  1.9169 -2.5629
 8259SOL    MW432810   5.772   3.000   2.295  0.0702  0.7502 -0.0380
 8260SOL     OW32811   4.505   1.999   4.819 -0.1424  0.2180  0.1675
 8260SOL    HW232812   4.521   2.025   4.910  1.1581 -2.3869  0.7969
 8260SOL    HW332813   4.587   2.016   4.774 -0.8991  1.8408 -0.6614
 8260SOL    MW432814   4.518   2.005   4.825 -0.0706  0.0884  0.1412
 8261SOL     OW32815   5.689   0.588   6.164  0.0915 -0.3282  0.1922
 8261SOL    HW232816   5.782   0.585   6.189  0.0294  0.3545  0.5407
 8261SOL    HW332817   5.690   0.578   6.069  0.4648 -1.0799  0.2612
 8261SOL    MW432818   5.702   0.586   6.155  0.1325 -0.3373  0.2473
 8262SOL     OW32819   1.249   3.341   6.114 -0.3025  0.0621  0.0860
 8262SOL    HW232820   1.202   3.330   6.196 -0.5272 -0.8299 -0.1424
 8262SOL    HW332821   1.209   3.418   6.073  0.3615  1.0014  1.1583
 8262SOL    MW432822   1.237   3.349   6.119 -0.2445  0.0683  0.1974
 8263SOL     OW32823   2.247   2.231   4.815 -0.7752  0.1203  0.4060
 8263SOL    HW232824   2.306   2.280   4.872 -0.9006  1.2805 -0.4337
 8263SOL    HW332825   2.304   2.187   4.753 -0.5740 -1.8740  1.9143
 8263SOL    MW432826   2.262   2.232   4.814 -0.7652  0.0103  0.4942
 8264SOL     OW32827   0.555   4.015   2.680  0.1243  0.0625  0.0808
 8264SOL    HW232828   0.482   4.035   2.740 -0.4588  0.7233 -0.8332
 8264SOL    HW332829   0.519   3.950   2.620 -0.0034  1.0198 -0.9061
 8264SOL    MW432830   0.540   4.009   2.680  0.0305  0.2760 -0.1700
 8265SOL     OW32831   0.596   4.380   6.299  0.1553  0.3561 -0.2918
 8265SOL    HW232832   0.631   4.373   6.211  0.5738  1.5736 -0.2432
 8265SOL    HW332833   0.501   4.379   6.287  0.1499 -1.7468 -0.5251
 8265SOL    MW432834   0.588   4.379   6.286  0.2098  0.2393 -0.3162
 8266SOL     OW32835   0.448   3.012   5.625  0.8761 -0.0090  0.0666
 8266SOL    HW232836   0.495   3.065   5.560  2.1437 -0.0894  0.8887
 8266SOL    HW332837   0.375   2.974   5.576  0.8581  1.2175 -0.9207
 8266SOL    MW432838   0.444   3.014   5.610  1.0410  0.1422  0.0448
 8267SOL     OW32839   3.883   3.022   1.029  0.1801 -0.2782 -0.4830
 8267SOL    HW232840   3.898   2.974   0.947  0.2326 -0.3466 -0.4326
 8267SOL    HW332841   3.902   2.959   1.098 -0.6675 -0.4810 -0.4170
 8267SOL    MW432842   3.887   3.007   1.027  0.0752 -0.3140 -0.4677
 8268SOL     OW32843   5.429   0.375   0.529  0.2811 -0.0467  0.2203
 8268SOL    HW232844   5.522   0.396   0.523  0.5700 -1.6852 -2.0914
 8268SOL    HW332845   5.385   0.442   0.478  0.3419 -0.1317  0.0571
 8268SOL    MW432846   5.435   0.386   0.522  0.3273 -0.2741 -0.1063
 8269SOL     OW32847   6.166   1.965   4.174  0.7480  0.5508 -0.0586
 8269SOL    HW232848   6.199   1.993   4.088 -0.3289  0.4288 -0.5346
 8269SOL    HW332849   6.175   2.043   4.229  0.2585  1.0380 -0.6425
 8269SOL    MW432850   6.171   1.979   4.170  0.5414  0.5990 -0.1984
 8270SOL     OW32851   1.443   1.587   3.529  0.0256  0.2444 -0.2725
 8270SOL    HW232852   1.538   1.581   3.519 -0.1198 -1.4829 -1.0319
 8270SOL    HW332853   1.427   1.562   3.619  0.1670 -1.9127 -0.7950
 8270SOL    MW432854   1.454   1.583   3.539  0.0251 -0.2681 -0.4416
 8271SOL     OW32855   6.102   2.340   1.831 -0.3997  0.2796  0.2650
 8271SOL    HW232856   6.096   2.245   1.831  1.5306  0.1117  0.7381
 8271SOL    HW332857   6.011   2.370   1.834 -1.1812 -1.4930 -2.4219
 8271SOL    MW432858   6.089   2.332   1.831 -0.2481  0.0236 -0.0271
 8272SOL     OW32859   3.140   3.434   4.949  0.1837 -0.1399  0.7130
 8272SOL    HW232860   3.069   3.389   4.903  0.5749  0.9662 -1.0683
 8272SOL    HW332861   3.206   3.366   4.962 -0.7031 -0.9160  1.3843
 8272SOL    MW432862   3.139   3.419   4.945  0.1183 -0.0964  0.5666
 8273SOL     OW32863   5.587   4.150   1.015  0.1703 -0.2054  0.7590
 8273SOL    HW232864   5.521   4.202   1.062  1.8052  1.8063  0.9999
 8273SOL    HW332865   5.543   4.123   0.935 -0.7153  1.8452  0.4761
 8273SOL    MW432866   5.572   4.153   1.011  0.2691  0.3306  0.7535
 8274SOL     OW32867   6.356   4.465   4.950 -0.8184 -0.6793 -0.3349
 8274SOL    HW232868   6.429   4.410   4.977  2.0813  2.6744 -0.5805
 8274SOL    HW332869   6.341   4.442   4.859 -0.0790 -1.4718 -0.2686
 8274SOL    MW432870   6.364   4.455   4.942 -0.3383 -0.3414 -0.3586
 8275SOL     OW32871   2.621   2.140   2.762  0.1784  0.1312 -0.5018
 8275SOL    HW232872   2.578   2.170   2.842 -0.8975 -0.2677 -0.9166
 8275SOL    HW332873   2.654   2.052   2.784  0.9751  0.5199 -0.1202
 8275SOL    MW432874   2.620   2.132   2.776  0.1415  0.1298 -0.5062
 8276SOL     OW32875   2.838   1.349   5.196 -0.5422  0.6467 -0.0147
 8276SOL    HW232876   2.757   1.362   5.244 -0.0901 -0.6676  1.1787
 8276SOL    HW332877   2.830   1.405   5.119 -3.6625 -1.3234 -1.3052
 8276SOL    MW432878   2.827   1.358   5.192 -0.8942  0.2133 -0.0275
 8277SOL     OW32879   3.118   2.108   1.051 -0.2557 -0.1162  0.2137
 8277SOL    HW232880   3.065   2.151   1.118 -0.1782  0.1300  0.1167
 8277SOL    HW332881   3.170   2.178   1.012 -1.1129 -0.0520 -0.8723
 8277SOL    MW432882   3.117   2.123   1.055 -0.3586 -0.0753  0.0577
 8278SOL     OW32883   4.919   0.341   0.853  0.3105 -0.4689  0.0726
 8278SOL    HW232884   5.003   0.316   0.814  0.2074 -1.8232  0.6811
 8278SOL    HW332885   4.920   0.302   0.940  1.0128  3.3724  2.0234
 8278SOL    MW432886   4.930   0.332   0.859  0.3896 -0.1408  0.4103
 8279SOL     OW32887   2.754   1.558   6.089 -0.1734 -0.4403  0.2979
 8279SOL    HW232888   2.693   1.489   6.062  0.2286 -1.2038  1.2919
 8279SOL    HW332889   2.703   1.613   6.149 -0.2916 -0.2645  0.0382
 8279SOL    MW432890   2.739   1.556   6.093 -0.1360 -0.5178  0.3948
 8280SOL     OW32891   3.431   0.711   2.228  0.1820  0.0655  0.1722
 8280SOL    HW232892   3.338   0.713   2.204 -0.6737 -2.7512  2.7110
 8280SOL    HW332893   3.441   0.782   2.291 -0.5457 -0.3726  0.7851
 8280SOL    MW432894   3.420   0.721   2.233 -0.0269 -0.3639  0.5880
 8281SOL     OW32895   3.600   5.680   0.801  0.2986  0.1321  0.2718
 8281SOL    HW232896   3.640   5.637   0.876 -1.4442 -0.0825  1.1220
 8281SOL    HW332897   3.592   5.612   0.735 -1.3696 -0.6145  1.1880
 8281SOL    MW432898   3.604   5.666   0.802 -0.1514  0.0053  0.5048
 8282SOL     OW32899   1.203   4.060   5.203  0.5248 -0.8915 -0.4101
 8282SOL    HW232900   1.130   3.998   5.207  0.3897 -0.7824 -1.0271
 8282SOL    HW332901   1.282   4.006   5.208  0.4026 -1.0352 -0.0395
 8282SOL    MW432902   1.204   4.045   5.204  0.4908 -0.8961 -0.4426
 8283SOL     OW32903   2.004   5.249   0.314 -0.2788 -0.0989 -0.4344
 8283SOL    HW232904   2.085   5.250   0.365  0.3372  3.0884 -1.2648
 8283SOL    HW332905   2.033   5.241   0.223 -1.0668 -0.7800 -0.6421
 8283SOL    MW432906   2.018   5.248   0.309 -0.3015  0.2318 -0.5714
 8284SOL     OW32907   4.673   0.523   3.034 -0.5840 -0.2930 -0.4243
 8284SOL    HW232908   4.662   0.429   3.050 -0.3981 -0.3080 -0.3787
 8284SOL    HW332909   4.726   0.554   3.108  0.7232 -0.4603 -1.2553
 8284SOL    MW432910   4.679   0.515   3.046 -0.3870 -0.3170 -0.5279
 8285SOL     OW32911   0.286   0.487   2.405 -0.1392 -0.0076  0.1025
 8285SOL    HW232912   0.316   0.427   2.336 -1.1639 -1.8738  1.1954
 8285SOL    HW332913   0.277   0.432   2.482 -1.1307  1.5816  1.1855
 8285SOL    MW432914   0.289   0.472   2.406 -0.4052 -0.0441  0.3896
 8286SOL     OW32915   5.715   1.216   4.949  0.3584  0.1048 -0.7862
 8286SOL    HW232916   5.640   1.275   4.946 -0.6994 -1.1386  0.1027
 8286SOL    HW332917   5.677   1.130   4.967  1.9081 -0.7446 -1.3638
 8286SOL    MW432918   5.700   1.212   4.951  0.4233 -0.1713 -0.7451
 8287SOL     OW32919   3.752   5.902   1.699  0.3250  0.1397 -0.3841
 8287SOL    HW232920   3.734   5.923   1.790  0.4428 -0.8815 -0.1112
 8287SOL    HW332921   3.807   5.974   1.668  1.1263 -0.0089  0.6448
 8287SOL    MW432922   3.757   5.914   1.707  0.4463 -0.0146 -0.2123
 8288SOL     OW32923   1.911   4.477   3.729 -0.0270 -0.7623 -0.2783
 8288SOL    HW232924   1.929   4.568   3.749  1.0859 -0.0121 -3.9610
 8288SOL    HW332925   1.997   4.434   3.731 -0.6142 -1.9905  2.1052
 8288SOL    MW432926   1.925   4.483   3.732  0.0424 -0.8254 -0.4497
 8289SOL     OW32927   5.547   4.181   4.614 -0.0373 -0.2892  0.0721
 8289SOL    HW232928   5.518   4.228   4.536  0.1015 -0.4099 -0.0537
 8289SOL    HW332929   5.485   4.109   4.624  1.4190 -1.8574 -1.4517
 8289SOL    MW432930   5.535   4.178   4.605  0.1732 -0.5120 -0.1455
 8290SOL     OW32931   5.044   3.976   4.745 -0.4595 -0.2853  0.1738
 8290SOL    HW232932   5.085   4.001   4.662 -0.4046  0.9292  0.5404
 8290SOL    HW332933   5.008   4.058   4.779 -1.3924 -0.9561  0.8540
 8290SOL    MW432934   5.044   3.990   4.739 -0.5753 -0.2136  0.3119
 8291SOL     OW32935   2.533   0.861   6.267 -0.3498 -0.3840 -0.1740
 8291SOL    HW232936   2.609   0.887   6.216 -0.3170 -0.3069 -0.0861
 8291SOL    HW332937   2.562   0.783   6.315 -0.7028 -1.0800 -1.0627
 8291SOL    MW432938   2.547   0.854   6.267 -0.3921 -0.4656 -0.2796
 8292SOL     OW32939   3.662   0.012   1.366 -0.7648 -0.1276  0.1127
 8292SOL    HW232940   3.634  -0.064   1.417 -2.6374  1.3589  1.4337
 8292SOL    HW332941   3.590   0.027   1.303  0.2276 -0.2485 -1.0948
 8292SOL    MW432942   3.649   0.004   1.364 -0.8810  0.0526  0.1277
 8293SOL     OW32943   0.795   5.934   5.203  0.2557 -0.2332  0.2795
 8293SOL    HW232944   0.719   5.891   5.163  0.2733 -0.1439  0.1481
 8293SOL    HW332945   0.772   6.027   5.202  0.0895 -0.2637  0.8351
 8293SOL    MW432946   0.782   5.941   5.197  0.2361 -0.2254  0.3355
 8294SOL     OW32947   6.009   1.857   1.266 -0.1307 -0.1008 -0.3117
 8294SOL    HW232948   6.040   1.796   1.199  0.0280  1.6928 -1.9609
 8294SOL    HW332949   5.922   1.882   1.237  0.2949  1.3990 -0.3636
 8294SOL    MW432950   6.002   1.852   1.253 -0.0536  0.3338 -0.5361
 8295SOL     OW32951   5.184   5.872   5.050  0.3230  0.3922 -0.3540
 8295SOL    HW232952   5.155   5.937   4.986  1.5278  1.0605 -0.2443
 8295SOL    HW332953   5.144   5.899   5.133  0.2582  0.5971 -0.4538
 8295SOL    MW432954   5.175   5.884   5.053  0.4734  0.5074 -0.3527
 8296SOL     OW32955   4.345   0.663   2.808 -0.1555  0.3907 -0.6596
 8296SOL    HW232956   4.256   0.696   2.796 -1.3370 -1.7437  1.3123
 8296SOL    HW332957   4.372   0.696   2.894 -0.6191 -1.9270  0.4749
 8296SOL    MW432958   4.337   0.671   2.818 -0.3725 -0.1967 -0.2498
 8297SOL     OW32959   0.529   1.862   5.760 -0.2762 -0.0701 -0.1571
 8297SOL    HW232960   0.600   1.922   5.737  1.2226 -1.5513  0.3838
 8297SOL    HW332961   0.464   1.917   5.803  0.1532  1.4677 -1.3992
 8297SOL    MW432962   0.530   1.877   5.763 -0.0218 -0.0626 -0.2496
 8298SOL     OW32963   1.561   3.930   5.888  0.5795 -0.3629  0.4722
 8298SOL    HW232964   1.566   3.877   5.808  2.1304 -0.0782  0.3588
 8298SOL    HW332965   1.501   3.881   5.944 -0.3010 -0.7237 -0.7371
 8298SOL    MW432966   1.554   3.916   5.885  0.6680 -0.3729  0.2977
 8299SOL     OW32967   5.930   6.381   0.595  0.0342 -0.2619 -0.2932
 8299SOL    HW232968   5.867   6.355   0.662 -0.0101  1.3733  0.3582
 8299SOL    HW332969   5.983   6.449   0.638  0.3242  0.4750 -1.7503
 8299SOL    MW432970   5.929   6.387   0.610  0.0666  0.0511 -0.3995
 8300SOL     OW32971   0.105   4.209   6.238  0.0174 -0.0008 -0.2709
 8300SOL    HW232972   0.020   4.248   6.219  0.7667  2.0800  0.3889
 8300SOL    HW332973   0.151   4.208   6.154  0.1094  0.8855 -0.2378
 8300SOL    MW432974   0.100   4.214   6.225  0.1284  0.3906 -0.1795
 8301SOL     OW32975   2.043   4.438   5.880  0.1046 -0.0526  0.2890
 8301SOL    HW232976   2.062   4.344   5.881 -0.6709 -0.2882 -1.9477
 8301SOL    HW332977   2.109   4.476   5.822 -0.2464  0.6283  0.3201
 8301SOL    MW432978   2.055   4.431   5.873 -0.0440  0.0062 -0.0020
 8302SOL     OW32979   0.333   4.903   1.603 -0.1819  0.2144 -0.0696
 8302SOL    HW232980   0.388   4.957   1.547 -1.6950 -1.2227 -3.1931
 8302SOL    HW332981   0.383   4.821   1.612  0.0652  0.4495  0.7318
 8302SOL    MW432982   0.347   4.899   1.597 -0.3489  0.0558 -0.3760
 8303SOL     OW32983   0.960   4.054   1.457  0.6423  0.4247 -0.1122
 8303SOL    HW232984   0.990   3.977   1.505  1.1298  1.3175  1.0592
 8303SOL    HW332985   0.896   4.095   1.515  0.3317  0.8719 -0.7567
 8303SOL    MW432986   0.956   4.049   1.471  0.6656  0.6015 -0.0427
 8304SOL     OW32987   4.719   1.524   4.240  0.3304 -0.2322 -0.4974
 8304SOL    HW232988   4.667   1.448   4.212 -0.5772  0.2164 -0.0764
 8304SOL    HW332989   4.662   1.599   4.223  0.2674  0.1653  1.2682
 8304SOL    MW432990   4.705   1.524   4.234  0.2023 -0.1205 -0.2089
 8305SOL     OW32991   6.199   1.282   4.772 -0.1735  0.2488  0.0492
 8305SOL    HW232992   6.134   1.216   4.750 -0.0013  0.3566 -0.7998
 8305SOL    HW332993   6.147   1.355   4.807 -0.2824 -0.7406  2.1152
 8305SOL    MW432994   6.184   1.283   4.774 -0.1652  0.1325  0.2098
 8306SOL     OW32995   5.087   4.695   2.461  0.1105  0.0810  0.4728
 8306SOL    HW232996   5.059   4.606   2.482 -1.0145  0.2391 -0.2544
 8306SOL    HW332997   5.006   4.747   2.463  0.3715  0.6320 -1.3625
 8306SOL    MW432998   5.073   4.690   2.464 -0.0035  0.1745  0.1347
 8307SOL     OW32999   2.034   2.114   3.543 -0.1575 -0.6260  0.0470
 8307SOL    HW233000   2.106   2.053   3.560 -1.5198 -1.9799  1.3792
 8307SOL    HW333001   2.073   2.201   3.552  1.3227 -1.3154  0.6586
 8307SOL    MW433002   2.048   2.117   3.547 -0.1419 -0.8956  0.3035
 8308SOL     OW33003   3.518   3.913   6.221 -0.6634  0.3645 -0.4668
 8308SOL    HW233004   3.507   4.002   6.253  0.7627 -0.3310  2.3018
 8308SOL    HW333005   3.613   3.904   6.206 -0.1585 -1.5988  2.8098
 8308SOL    MW433006   3.529   3.923   6.223 -0.4086  0.0137  0.3308
 8309SOL     OW33007   2.706   3.586   3.538  0.1641 -0.0226 -0.2650
 8309SOL    HW233008   2.700   3.565   3.631 -0.4793 -1.8830 -0.6793
 8309SOL    HW333009   2.714   3.681   3.535 -0.1864  0.1037  1.6697
 8309SOL    MW433010   2.707   3.596   3.550  0.0330 -0.2514 -0.0644
 8310SOL     OW33011   4.406   2.580   3.929  0.4557 -0.2326  0.0912
 8310SOL    HW233012   4.421   2.613   4.017 -0.5109  0.9891 -0.1779
 8310SOL    HW333013   4.311   2.570   3.923  0.5056 -0.2724 -0.8224
 8310SOL    MW433014   4.395   2.583   3.940  0.3348 -0.0767 -0.0649
 8311SOL     OW33015   4.524   3.151   3.275  0.7509  0.1251 -0.1236
 8311SOL    HW233016   4.512   3.242   3.303  0.7746 -0.1988  1.0093
 8311SOL    HW333017   4.440   3.127   3.236  0.2303  0.1976  0.9123
 8311SOL    MW433018   4.511   3.160   3.274  0.6853  0.0919  0.1625
 8312SOL     OW33019   0.991   1.043   1.680 -0.0616  0.2178 -0.2767
 8312SOL    HW233020   0.959   1.106   1.744 -0.6222  0.2901 -0.6235
 8312SOL    HW333021   1.022   1.097   1.607  1.2412  0.1726  0.2090
 8312SOL    MW433022   0.991   1.058   1.679  0.0363  0.2214 -0.2584
 8313SOL     OW33023   3.504   2.032   2.168  0.3729  0.0024  0.2022
 8313SOL    HW233024   3.553   2.008   2.246 -0.1817 -0.5433  0.3831
 8313SOL    HW333025   3.519   2.126   2.158 -1.9151  0.7273  2.6413
 8313SOL    MW433026   3.513   2.041   2.177 -0.0021  0.0261  0.5479
 8314SOL     OW33027   5.658   5.087   6.116 -0.6737  0.1032 -0.3749
 8314SOL    HW233028   5.720   5.157   6.135  0.7510 -0.7628 -1.6587
 8314SOL    HW333029   5.684   5.015   6.173  0.8912 -0.9799 -2.3168
 8314SOL    MW433030   5.669   5.087   6.126 -0.2792 -0.1539 -0.8005
 8315SOL     OW33031   2.389   4.760   4.235 -0.1974  0.2019  0.4692
 8315SOL    HW233032   2.459   4.695   4.238 -0.1096  0.1208 -1.6145
 8315SOL    HW333033   2.324   4.722   4.175 -1.2737  0.9849  1.1068
 8315SOL    MW433034   2.390   4.746   4.227 -0.3278  0.2945  0.2784
 8316SOL     OW33035   3.160   3.818   2.110  0.3010 -0.0235  0.0719
 8316SOL    HW233036   3.078   3.778   2.079  0.1854 -0.7558  1.2726
 8316SOL    HW333037   3.175   3.890   2.050 -0.2641 -0.9860 -1.2846
 8316SOL    MW433038   3.151   3.822   2.098  0.2112 -0.2471  0.0514
 8317SOL     OW33039   3.649   0.891   5.301 -0.2065  0.2085 -0.0326
 8317SOL    HW233040   3.721   0.951   5.284 -0.2291 -0.1292 -1.4084
 8317SOL    HW333041   3.574   0.948   5.321  0.4196  0.5596  1.5214
 8317SOL    MW433042   3.649   0.906   5.302 -0.1268  0.2102 -0.0091
 8318SOL     OW33043   4.275   2.862   4.554 -0.6418 -0.3528 -0.1256
 8318SOL    HW233044   4.244   2.946   4.522  0.8319  0.8104  1.3387
 8318SOL    HW333045   4.200   2.804   4.546 -1.2514  0.6474 -2.6215
 8318SOL    MW433046   4.261   2.865   4.549 -0.5278 -0.0674 -0.2617
 8319SOL     OW33047   0.167   0.128   0.322 -0.3274  0.1335 -0.1741
 8319SOL    HW233048   0.133   0.064   0.259 -2.7212  1.6484 -0.5675
 8319SOL    HW333049   0.252   0.153   0.287 -1.2858  0.4130 -2.5192
 8319SOL    MW433050   0.174   0.123   0.309 -0.7697  0.3703 -0.5354
 8320SOL     OW33051   1.835   1.815   1.960 -0.3952 -0.7693 -0.1979
 8320SOL    HW233052   1.759   1.872   1.950 -0.3458 -0.6044  0.3182
 8320SOL    HW333053   1.848   1.808   2.055  1.2210  0.5345 -0.2701
 8320SOL    MW433054   1.827   1.821   1.971 -0.1754 -0.5755 -0.1393
 8321SOL     OW33055   1.641   1.135   0.944 -0.1016 -0.0643  0.7281
 8321SOL    HW233056   1.553   1.172   0.953 -0.8573 -1.7240  0.4844
 8321SOL    HW333057   1.634   1.047   0.981  1.4755 -0.2168  0.7318
 8321SOL    MW433058   1.628   1.128   0.950  0.0068 -0.3034  0.6964
 8322SOL     OW33059   5.414   6.242   5.613  0.2992  0.2453 -0.1888
 8322SOL    HW233060   5.403   6.237   5.518  0.3773 -0.7446 -0.1619
 8322SOL    HW333061   5.355   6.312   5.641 -0.2135  0.1037 -0.8964
 8322SOL    MW433062   5.405   6.251   5.604  0.2419  0.0960 -0.2786
 8323SOL     OW33063   2.497   0.565   1.972  0.2265 -0.4173  0.0866
 8323SOL    HW233064   2.464   0.638   1.920 -0.1049 -1.5288 -1.3558
 8323SOL    HW333065   2.490   0.594   2.062 -0.2738  1.1625 -0.4262
 8323SOL    MW433066   2.492   0.578   1.977  0.1167 -0.3555 -0.1714
 8324SOL     OW33067   3.622   0.209   1.941 -0.2295 -0.5144 -0.4426
 8324SOL    HW233068   3.529   0.200   1.963  0.3202 -0.4553  2.2046
 8324SOL    HW333069   3.628   0.293   1.895 -1.2662  0.4207  1.0464
 8324SOL    MW433070   3.611   0.219   1.938 -0.2938 -0.3833  0.1031
 8325SOL     OW33071   3.785   2.751   0.240 -0.2990  0.2914 -0.2085
 8325SOL    HW233072   3.723   2.760   0.168 -1.6049  0.2541  0.8682
 8325SOL    HW333073   3.794   2.656   0.251 -0.8732  0.2878  0.2948
 8325SOL    MW433074   3.778   2.739   0.232 -0.5471  0.2860 -0.0001
 8326SOL     OW33075   5.492   3.518   1.368 -0.4799  0.1125 -0.3486
 8326SOL    HW233076   5.453   3.443   1.324 -2.1190 -0.4971  1.9339
 8326SOL    HW333077   5.458   3.594   1.321  0.1212 -0.5247 -1.8596
 8326SOL    MW433078   5.482   3.518   1.356 -0.6169 -0.0520 -0.2468
 8327SOL     OW33079   2.551   4.143   4.128  0.9480  0.3922 -0.0160
 8327SOL    HW233080   2.531   4.068   4.072  2.1801  0.0048  0.0316
 8327SOL    HW333081   2.499   4.215   4.092  0.9726 -0.0909 -1.0585
 8327SOL    MW433082   2.542   4.143   4.116  1.1138  0.2773 -0.1473
 8328SOL     OW33083   3.509   2.943   6.379 -0.1243  0.5256  0.0609
 8328SOL    HW233084   3.550   2.858   6.396  1.0058  1.1526  0.5987
 8328SOL    HW333085   3.476   2.972   6.464  0.1502  0.9543  0.0252
 8328SOL    MW433086   3.510   2.936   6.392  0.0610  0.6649  0.1272
 8329SOL     OW33087   6.217   1.691   0.470 -0.2217  0.1890 -0.5026
 8329SOL    HW233088   6.290   1.719   0.525 -1.4266  0.3327  1.0767
 8329SOL    HW333089   6.237   1.727   0.384  0.2097  2.6511  0.5484
 8329SOL    MW433090   6.229   1.699   0.466 -0.3237  0.5328 -0.1556
 8330SOL     OW33091   1.089   5.567   0.665  0.3176  0.0702 -0.0668
 8330SOL    HW233092   1.111   5.474   0.668 -1.1204 -0.2886  0.2999
 8330SOL    HW333093   1.092   5.596   0.756 -0.0055  0.1809 -0.0890
 8330SOL    MW433094   1.092   5.558   0.677  0.0852  0.0375 -0.0214
 8331SOL     OW33095   3.774   1.672   3.670 -0.1670 -0.8341 -0.0731
 8331SOL    HW233096   3.802   1.743   3.612 -1.1947  0.4281  0.9188
 8331SOL    HW333097   3.797   1.592   3.623 -0.9331  0.1407 -2.1989
 8331SOL    MW433098   3.781   1.670   3.656 -0.4037 -0.5389 -0.2227
 8332SOL     OW33099   0.348   0.668   3.155  0.2496  0.0334 -0.0365
 8332SOL    HW233100   0.396   0.684   3.074 -0.4316 -2.0624 -0.9268
 8332SOL    HW333101   0.413   0.633   3.216  0.4041 -0.0843 -0.2706
 8332SOL    MW433102   0.363   0.666   3.153  0.1801 -0.2586 -0.1848
 8333SOL     OW33103   5.238   2.448   1.831 -0.4150  0.2028 -0.2949
 8333SOL    HW233104   5.192   2.514   1.882 -0.5938 -1.0937  1.3235
 8333SOL    HW333105   5.315   2.426   1.883 -1.3995 -2.2769  0.2875
 8333SOL    MW433106   5.242   2.454   1.844 -0.5685 -0.2954 -0.0045
 8334SOL     OW33107   4.728   0.821   0.665  0.3499  0.1187  0.0778
 8334SOL    HW233108   4.790   0.888   0.694 -0.6561  0.7551  0.8329
 8334SOL    HW333109   4.777   0.739   0.668  1.3915  0.7176 -0.1661
 8334SOL    MW433110   4.742   0.819   0.669  0.3546  0.2817  0.1453
 8335SOL     OW33111   5.323   2.662   1.654 -0.7944 -0.5486  0.2841
 8335SOL    HW233112   5.365   2.679   1.569  2.0489 -1.5999  1.3666
 8335SOL    HW333113   5.271   2.584   1.639 -0.0426 -0.9318 -0.4270
 8335SOL    MW433114   5.322   2.654   1.640 -0.3201 -0.7379  0.3331
 8336SOL     OW33115   1.864   4.556   2.455  0.8636  0.1758  0.2953
 8336SOL    HW233116   1.802   4.596   2.516 -0.0688 -0.2366 -0.3677
 8336SOL    HW333117   1.941   4.614   2.459 -0.0521  1.4521  0.1517
 8336SOL    MW433118   1.866   4.569   2.464  0.6197  0.2898  0.1889
 8337SOL     OW33119   6.405   3.360   1.028 -0.3653  0.2354  0.0107
 8337SOL    HW233120   6.322   3.353   1.075 -1.8896 -0.4758 -2.5722
 8337SOL    HW333121   6.393   3.436   0.971  0.4946 -0.2861 -0.8742
 8337SOL    MW433122   6.392   3.369   1.027 -0.4530  0.0728 -0.4468
 8338SOL     OW33123   3.693   2.420   3.592 -0.1152 -0.2567  0.1126
 8338SOL    HW233124   3.722   2.506   3.623 -0.0210  0.1088 -0.9541
 8338SOL    HW333125   3.732   2.358   3.654 -1.3371  0.5231  1.7356
 8338SOL    MW433126   3.702   2.423   3.605 -0.2640 -0.1056  0.1860
 8339SOL     OW33127   2.875   2.786   5.251 -0.1216 -0.2016 -0.0213
 8339SOL    HW233128   2.897   2.700   5.288 -1.2547  0.1865  1.6619
 8339SOL    HW333129   2.960   2.824   5.227  0.5136 -1.2208  0.5254
 8339SOL    MW433130   2.890   2.780   5.253 -0.1873 -0.2849  0.2729
 8340SOL     OW33131   3.410   5.795   0.990 -0.2868 -0.4515  0.6518
 8340SOL    HW233132   3.473   5.773   0.922 -1.0726  1.6361 -0.8464
 8340SOL    HW333133   3.350   5.720   0.992  0.4364 -1.0738 -0.0994
 8340SOL    MW433134   3.410   5.782   0.981 -0.2951 -0.2581  0.3550
 8341SOL     OW33135   4.436   6.306   0.730 -1.2324 -0.2449  0.3686
 8341SOL    HW233136   4.407   6.236   0.788 -1.4882 -0.3214  0.1503
 8341SOL    HW333137   4.370   6.374   0.739 -0.5496  0.3357  1.2252
 8341SOL    MW433138   4.424   6.306   0.739 -1.1761 -0.1784  0.4528
 8342SOL     OW33139   5.902   1.196   2.129  0.0080 -0.1717  0.4695
 8342SOL    HW233140   5.814   1.164   2.108 -0.0597  1.0604 -1.4108
 8342SOL    HW333141   5.893   1.238   2.214 -1.2561  0.0094  0.2619
 8342SOL    MW433142   5.889   1.198   2.137 -0.1677  0.0147  0.1940
 8343SOL     OW33143  -0.006   0.267   3.006 -0.4166 -0.5344 -0.5186
 8343SOL    HW233144  -0.056   0.203   2.956  0.2051  0.2142 -2.1619
 8343SOL    HW333145  -0.072   0.321   3.050 -0.9722 -1.3022 -0.3950
 8343SOL    MW433146  -0.021   0.266   3.005 -0.4079 -0.5369 -0.7191
 8344SOL     OW33147   2.272   4.693   2.257 -0.0590  0.4569 -0.2184
 8344SOL    HW233148   2.340   4.638   2.298  0.6879  0.4482 -1.4159
 8344SOL    HW333149   2.263   4.658   2.169 -0.5766  1.3981 -0.5549
 8344SOL    MW433150   2.280   4.681   2.251 -0.0287  0.5799 -0.4208
 8345SOL     OW33151   5.679   4.930   5.666  0.6790 -0.0107 -0.5335
 8345SOL    HW233152   5.700   4.935   5.759 -1.3092  1.0118 -0.1001
 8345SOL    HW333153   5.627   4.851   5.657  2.1649 -0.9615 -1.0893
 8345SOL    MW433154   5.675   4.921   5.677  0.6127 -0.0013 -0.5496
 8346SOL     OW33155   0.659   2.702   0.449  0.1038 -0.6196 -0.0078
 8346SOL    HW233156   0.752   2.723   0.452  0.1616 -0.7377 -0.7981
 8346SOL    HW333157   0.646   2.640   0.521  0.7335 -0.9851 -0.2011
 8346SOL    MW433158   0.669   2.696   0.459  0.1945 -0.6834 -0.1376
 8347SOL     OW33159   0.065   1.914   3.342  0.3990  0.0284  0.5456
 8347SOL    HW233160   0.062   1.832   3.293  1.1622  0.3799 -0.1041
 8347SOL    HW333161   0.019   1.977   3.286  0.3906  0.1990  0.7433
 8347SOL    MW433162   0.058   1.911   3.328  0.4986  0.0973  0.4860
 8348SOL     OW33163   2.119   1.348   0.525 -0.0459  0.1222  0.1037
 8348SOL    HW233164   2.171   1.270   0.509  1.8644  1.2501  0.5455
 8348SOL    HW333165   2.087   1.339   0.615 -0.5734 -0.5289 -0.1403
 8348SOL    MW433166   2.121   1.337   0.535  0.1365  0.1851  0.1298
 8349SOL     OW33167   0.413   1.866   4.756  0.0180 -0.6365  0.4228
 8349SOL    HW233168   0.495   1.886   4.711  0.2465  1.4906  1.6645
 8349SOL    HW333169   0.432   1.786   4.804  1.0030 -0.7859 -0.1724
 8349SOL    MW433170   0.427   1.858   4.756  0.1781 -0.3756  0.5081
 8350SOL     OW33171   0.389   0.318   5.249 -0.5222 -0.4609 -0.1313
 8350SOL    HW233172   0.346   0.354   5.327  0.3369  1.5252 -0.5015
 8350SOL    HW333173   0.336   0.349   5.176  0.4009  0.3547 -0.4776
 8350SOL    MW433174   0.376   0.327   5.250 -0.2870 -0.0912 -0.2258
 8351SOL     OW33175   6.014   2.158   6.156  0.1023  0.0806  0.2860
 8351SOL    HW233176   5.934   2.143   6.106 -0.1187  0.6409  0.4601
 8351SOL    HW333177   6.022   2.082   6.213 -0.2504 -0.0269  0.1919
 8351SOL    MW433178   6.004   2.146   6.157  0.0266  0.1404  0.2966
 8352SOL     OW33179   2.738   4.877   5.225  0.6763  0.0591  0.0755
 8352SOL    HW233180   2.772   4.932   5.155  1.0036  1.2504  1.1478
 8352SOL    HW333181   2.733   4.790   5.186  1.8125  0.4936 -1.1200
 8352SOL    MW433182   2.742   4.873   5.211  0.8694  0.2736  0.0593
 8353SOL     OW33183   2.903   1.527   4.561  0.1513  0.2982 -0.2765
 8353SOL    HW233184   2.854   1.461   4.610  1.5271 -0.5339  0.0263
 8353SOL    HW333185   2.868   1.611   4.592  0.2631 -0.2286  1.3621
 8353SOL    MW433186   2.892   1.529   4.572  0.3476  0.1189 -0.0204
 8354SOL     OW33187   3.606   5.047   2.119 -0.1708 -0.1013  0.5750
 8354SOL    HW233188   3.607   4.976   2.055 -0.4201 -0.4959  1.0017
 8354SOL    HW333189   3.691   5.091   2.108 -1.1132  1.2993 -1.6247
 8354SOL    MW433190   3.618   5.043   2.109 -0.3280  0.0314  0.3411
 8355SOL     OW33191   5.188   4.176   4.230 -0.3316  0.4035 -0.4768
 8355SOL    HW233192   5.140   4.258   4.214 -0.5429  0.3081 -0.3390
 8355SOL    HW333193   5.137   4.109   4.185 -0.4205  0.2762 -0.1878
 8355SOL    MW433194   5.175   4.178   4.222 -0.3712  0.3741 -0.4205
 8356SOL     OW33195   3.705   2.229   2.488 -0.1788  0.0962 -0.9842
 8356SOL    HW233196   3.770   2.271   2.431  0.0417  0.2482 -0.6238
 8356SOL    HW333197   3.622   2.268   2.462 -0.2197 -0.5391 -1.8708
 8356SOL    MW433198   3.703   2.240   2.477 -0.1551  0.0324 -1.0536
 8357SOL     OW33199   5.083   2.624   0.472 -0.1404 -0.1297 -0.3881
 8357SOL    HW233200   5.074   2.564   0.399  0.2265 -0.6902  0.0197
 8357SOL    HW333201   5.003   2.612   0.524 -0.6107  0.5938 -0.9213
 8357SOL    MW433202   5.071   2.615   0.469 -0.1540 -0.1082 -0.4047
 8358SOL     OW33203   6.249   3.573   4.384 -0.4901  0.2703 -0.0927
 8358SOL    HW233204   6.215   3.637   4.320  0.8250 -1.0672 -2.2686
 8358SOL    HW333205   6.344   3.576   4.371 -0.3616 -1.6058  0.2575
 8358SOL    MW433206   6.257   3.582   4.374 -0.2996 -0.1537 -0.3336
 8359SOL     OW33207   3.805   4.000   2.097 -0.3432  0.3309  0.1513
 8359SOL    HW233208   3.721   3.955   2.104  0.7423 -1.8344  0.0778
 8359SOL    HW333209   3.787   4.078   2.044 -1.7746 -1.5812 -2.3987
 8359SOL    MW433210   3.792   4.005   2.091 -0.3889 -0.2071 -0.1949
 8360SOL     OW33211   2.281   5.818   1.238  0.0178 -0.1585 -0.0018
 8360SOL    HW233212   2.245   5.815   1.149  0.6614 -2.2970 -0.2396
 8360SOL    HW333213   2.203   5.825   1.294 -0.5206 -0.7361 -0.6551
 8360SOL    MW433214   2.266   5.819   1.233  0.0317 -0.5168 -0.1194
 8361SOL     OW33215   2.354   2.462   3.002  0.1731  0.1126  0.2417
 8361SOL    HW233216   2.296   2.448   2.927  1.2969 -2.1713 -0.2881
 8361SOL    HW333217   2.303   2.517   3.061 -2.3934 -1.4298 -0.3705
 8361SOL    MW433218   2.339   2.467   3.000 -0.0172 -0.3923  0.0911
 8362SOL     OW33219   5.296   0.485   5.466 -0.1456  0.8863 -0.1011
 8362SOL    HW233220   5.326   0.405   5.507  1.7383  1.1529 -0.8801
 8362SOL    HW333221   5.340   0.555   5.514 -1.0391  1.4284 -0.0347
 8362SOL    MW433222   5.305   0.484   5.478 -0.0149  0.9930 -0.1951
 8363SOL     OW33223   4.271   1.663   4.294  0.0708  0.4518  0.5395
 8363SOL    HW233224   4.366   1.664   4.303  0.3057 -0.3764 -1.3946
 8363SOL    HW333225   4.250   1.747   4.253 -0.0626  0.6892  1.0828
 8363SOL    MW433226   4.281   1.675   4.290  0.0842  0.3738  0.3560
 8364SOL     OW33227   1.698   4.174   2.234  0.1191  0.2065 -0.3353
 8364SOL    HW233228   1.745   4.129   2.164  0.2434  0.3326 -0.3352
 8364SOL    HW333229   1.736   4.262   2.235 -0.0561  0.2826 -0.2748
 8364SOL    MW433230   1.709   4.180   2.225  0.1124  0.2331 -0.3273
 8365SOL     OW33231   1.679   4.290   3.366 -0.1010  0.0999  0.2645
 8365SOL    HW233232   1.626   4.243   3.431 -0.9830 -2.4475 -2.0793
 8365SOL    HW333233   1.741   4.224   3.334  1.1207  1.6215 -0.6381
 8365SOL    MW433234   1.680   4.275   3.371 -0.0562 -0.0354 -0.1638
 8366SOL     OW33235   3.396   4.298   0.556  0.5325  0.4889 -0.4002
 8366SOL    HW233236   3.478   4.313   0.603  0.6720 -1.4510  0.0669
 8366SOL    HW333237   3.377   4.205   0.571 -1.7035  0.8681 -0.5903
 8366SOL    MW433238   3.404   4.287   0.564  0.2559  0.2830 -0.3636
 8367SOL     OW33239   1.766   3.226   1.876 -0.7357 -0.1215 -0.0328
 8367SOL    HW233240   1.799   3.159   1.816  2.4392  2.0087 -0.9611
 8367SOL    HW333241   1.674   3.204   1.889 -0.7750 -2.5354 -3.1414
 8367SOL    MW433242   1.758   3.214   1.869 -0.3220 -0.1589 -0.5654
 8368SOL     OW33243   5.027   2.138   0.219  0.0980  0.6359  0.3088
 8368SOL    HW233244   5.101   2.172   0.271  1.3377  1.4742 -1.8553
 8368SOL    HW333245   5.054   2.050   0.195  0.5537  1.0332 -0.6948
 8368SOL    MW433246   5.041   2.131   0.223  0.3217  0.7990 -0.1091
 8369SOL     OW33247   1.912   4.439   0.109  0.2503 -0.0723 -0.1046
 8369SOL    HW233248   1.843   4.436   0.042  0.3990  0.6982 -0.2959
 8369SOL    HW333249   1.907   4.527   0.145  0.4125 -0.3689  0.6575
 8369SOL    MW433250   1.902   4.450   0.105  0.2913 -0.0098 -0.0293
 8370SOL     OW33251   3.618   3.532   4.621  0.1110 -0.2013 -0.3049
 8370SOL    HW233252   3.580   3.607   4.575 -0.6348 -1.1596 -1.2976
 8370SOL    HW333253   3.566   3.457   4.592  1.0480 -1.1611  0.4113
 8370SOL    MW433254   3.606   3.532   4.611  0.1362 -0.4543 -0.3414
 8371SOL     OW33255   0.536   0.960   5.636 -0.1294 -0.3043 -0.3178
 8371SOL    HW233256   0.451   0.934   5.672  0.2719 -0.6953  0.3669
 8371SOL    HW333257   0.515   1.020   5.565 -0.9557  0.2886  0.4092
 8371SOL    MW433258   0.522   0.964   5.631 -0.1855 -0.2777 -0.1315
 8372SOL     OW33259   0.692   3.196   1.344  0.1225 -0.1140 -0.3455
 8372SOL    HW233260   0.677   3.127   1.409  1.9003 -1.2108 -1.0364
 8372SOL    HW333261   0.627   3.179   1.276 -0.5997 -0.0129  0.2973
 8372SOL    MW433262   0.681   3.184   1.344  0.2618 -0.2454 -0.3519
 8373SOL     OW33263   5.054   3.760   2.153  0.2170  0.2951 -0.3143
 8373SOL    HW233264   5.055   3.811   2.072  0.7437  0.2328 -0.3438
 8373SOL    HW333265   5.145   3.735   2.167  0.1476  0.4284  0.3750
 8373SOL    MW433266   5.066   3.764   2.144  0.2774  0.3045 -0.2272
 8374SOL     OW33267   5.153   0.089   4.125  0.6913  0.0359 -0.5179
 8374SOL    HW233268   5.200   0.050   4.051  0.3423  0.1061 -0.7805
 8374SOL    HW333269   5.217   0.091   4.196  0.8694 -0.5177 -0.6603
 8374SOL    MW433270   5.168   0.084   4.125  0.6688 -0.0279 -0.5713
 8375SOL     OW33271   0.176   2.540   0.941 -0.5147 -0.5518  0.5049
 8375SOL    HW233272   0.239   2.537   0.869  0.5090  1.8806  1.2081
 8375SOL    HW333273   0.222   2.499   1.015  1.3083  3.0650  1.6308
 8375SOL    MW433274   0.191   2.534   0.942 -0.1391  0.2463  0.7462
 8376SOL     OW33275   5.998   6.404   1.556  0.1682 -0.6595 -0.2342
 8376SOL    HW233276   5.904   6.396   1.571  0.2521 -0.8865  0.1877
 8376SOL    HW333277   6.037   6.394   1.643  0.5174  0.4643 -0.2424
 8376SOL    MW433278   5.991   6.402   1.570  0.2254 -0.5412 -0.1796
 8377SOL     OW33279   3.659   0.766   5.548  0.5357 -0.1851  0.3789
 8377SOL    HW233280   3.670   0.828   5.620 -3.2141  1.4018 -0.1686
 8377SOL    HW333281   3.657   0.821   5.469 -1.8537 -1.0315 -0.2300
 8377SOL    MW433282   3.660   0.781   5.547 -0.2743 -0.0874  0.2263
 8378SOL     OW33283   3.859   1.124   4.111 -0.3892 -0.0530  0.2059
 8378SOL    HW233284   3.944   1.159   4.134  0.3220 -2.1730  1.1302
 8378SOL    HW333285   3.809   1.126   4.193 -0.2457 -1.3156  0.3493
 8378SOL    MW433286   3.863   1.129   4.125 -0.2764 -0.4993  0.3468
 8379SOL     OW33287   3.081   6.012   2.834 -0.3830 -0.4984 -0.1723
 8379SOL    HW233288   3.067   6.091   2.780 -0.6585 -0.4573 -0.0428
 8379SOL    HW333289   3.082   6.045   2.924 -0.1092 -0.5925 -0.1403
 8379SOL    MW433290   3.079   6.027   2.839 -0.3832 -0.5054 -0.1510
 8380SOL     OW33291   5.498   0.416   2.854  0.6942  0.1798 -0.2572
 8380SOL    HW233292   5.490   0.404   2.760  1.7281  0.2298 -0.3652
 8380SOL    HW333293   5.451   0.341   2.892 -0.5635  0.6771 -0.7730
 8380SOL    MW433294   5.491   0.404   2.847  0.6647  0.2520 -0.3395
 8381SOL     OW33295   4.128   5.362   1.950 -0.4504  0.7504 -0.3317
 8381SOL    HW233296   4.084   5.357   1.865 -0.6857  0.5352 -0.1969
 8381SOL    HW333297   4.064   5.402   2.008 -0.7639 -0.2678  0.0544
 8381SOL    MW433298   4.114   5.366   1.946 -0.5228  0.5877 -0.2630
 8382SOL     OW33299   3.230   4.228   5.096 -0.5713  0.5986 -0.6512
 8382SOL    HW233300   3.176   4.161   5.054 -1.2678  0.6621  0.1097
 8382SOL    HW333301   3.313   4.183   5.113 -0.8738  0.0580 -0.5543
 8382SOL    MW433302   3.234   4.213   5.093 -0.7031  0.5357 -0.5380
 8383SOL     OW33303   4.787   4.221   5.089  0.4109  0.3819 -0.4090
 8383SOL    HW233304   4.706   4.236   5.040  0.6036  0.7258 -0.6243
 8383SOL    HW333305   4.784   4.284   5.160  0.3055  0.1285 -0.1858
 8383SOL    MW433306   4.776   4.231   5.092  0.4225  0.3939 -0.4080
 8384SOL     OW33307   3.303   1.752   2.075  0.6361 -0.3149 -0.4376
 8384SOL    HW233308   3.238   1.806   2.122  0.2030 -0.8850 -0.3698
 8384SOL    HW333309   3.386   1.797   2.089  0.2757  0.3611 -0.4152
 8384SOL    MW433310   3.305   1.765   2.083  0.5314 -0.3009 -0.4257
 8385SOL     OW33311   2.076   2.355   5.541  0.3735  0.7215 -0.0146
 8385SOL    HW233312   2.074   2.426   5.476  0.4335  0.7619  0.0283
 8385SOL    HW333313   1.985   2.348   5.571  0.3041  0.5541 -0.2636
 8385SOL    MW433314   2.064   2.364   5.536  0.3722  0.7047 -0.0418
 8386SOL     OW33315   4.082   0.985   0.766  0.2872 -0.2337  0.2109
 8386SOL    HW233316   4.023   0.939   0.826  0.8501  0.5366  1.3664
 8386SOL    HW333317   4.169   0.950   0.786  0.6431  0.9053  0.7083
 8386SOL    MW433318   4.085   0.974   0.776  0.4084  0.0182  0.4290
 8387SOL     OW33319   2.182   2.291   0.118 -0.2681 -0.5244 -0.0593
 8387SOL    HW233320   2.160   2.370   0.068 -0.6808  0.6908  1.9232
 8387SOL    HW333321   2.131   2.221   0.077 -0.1160  0.2739 -1.6784
 8387SOL    MW433322   2.173   2.292   0.106 -0.3025 -0.2588 -0.0113
 8388SOL     OW33323   5.748   5.050   4.817 -0.9078  0.3563  0.3595
 8388SOL    HW233324   5.815   4.983   4.804 -2.6200 -1.4734  0.4781
 8388SOL    HW333325   5.743   5.060   4.912 -0.5931  0.7352  0.3385
 8388SOL    MW433326   5.756   5.042   4.828 -1.0922  0.1649  0.3724
 8389SOL     OW33327   4.914   3.481   1.765  0.0013  0.1133 -0.1587
 8389SOL    HW233328   4.991   3.539   1.767 -0.9002  1.3444  1.0710
 8389SOL    HW333329   4.923   3.427   1.843  0.2317 -0.6006 -0.6730
 8389SOL    MW433330   4.926   3.482   1.776 -0.0873  0.1816 -0.0643
 8390SOL     OW33331   3.148   1.720   0.568  1.0349 -0.2294  0.0877
 8390SOL    HW233332   3.052   1.724   0.575  1.0085 -0.7157  0.0554
 8390SOL    HW333333   3.178   1.803   0.604  0.6226 -0.2747  0.5490
 8390SOL    MW433334   3.139   1.731   0.574  0.9771 -0.2995  0.1443
 8391SOL     OW33335   1.214   4.761   3.903  0.5028  0.0445  0.3552
 8391SOL    HW233336   1.305   4.742   3.877 -0.1406  0.0655 -2.2322
 8391SOL    HW333337   1.180   4.677   3.933  0.7790 -0.4929 -0.7714
 8391SOL    MW433338   1.222   4.747   3.903  0.4543 -0.0237 -0.1348
 8392SOL     OW33339   2.632   0.943   2.963 -0.2721  0.3313 -0.6531
 8392SOL    HW233340   2.706   0.913   3.016 -0.5085 -0.7314 -0.9087
 8392SOL    HW333341   2.613   1.030   2.997  0.4520  0.2161  0.0885
 8392SOL    MW433342   2.640   0.951   2.974 -0.2078  0.1759 -0.5890
 8393SOL     OW33343   5.483   5.842   3.602 -0.6470 -0.2525 -0.7925
 8393SOL    HW233344   5.547   5.873   3.538  0.4694  0.3663  0.5820
 8393SOL    HW333345   5.435   5.921   3.629  1.8814  0.4348  2.3550
 8393SOL    MW433346   5.485   5.856   3.597 -0.1661 -0.0802 -0.1959
 8394SOL     OW33347   1.363   2.711   1.241 -0.5925  0.5734  0.0728
 8394SOL    HW233348   1.374   2.799   1.206 -0.8010  0.7174  0.3726
 8394SOL    HW333349   1.428   2.704   1.310 -2.0681  1.2922  1.5923
 8394SOL    MW433350   1.373   2.722   1.245 -0.8147  0.6872  0.3129
 8395SOL     OW33351   4.034   3.095   0.016  0.6088  0.2081 -0.1642
 8395SOL    HW233352   4.027   3.137   0.102  0.1200  0.4967 -0.3401
 8395SOL    HW333353   4.007   3.004   0.033  0.8511  0.1743  0.0529
 8395SOL    MW433354   4.029   3.088   0.030  0.5763  0.2417 -0.1588
 8396SOL     OW33355   4.741   2.749   4.130 -0.1339  0.2173 -0.1552
 8396SOL    HW233356   4.759   2.714   4.043  0.4268 -0.7980  0.3522
 8396SOL    HW333357   4.802   2.822   4.140 -1.3225  1.4316 -1.2264
 8396SOL    MW433358   4.751   2.754   4.120 -0.2167  0.2436 -0.2296
 8397SOL     OW33359   3.485   3.020   2.927 -0.6231  0.2606  0.0350
 8397SOL    HW233360   3.513   2.946   2.981  0.0995  0.8809  0.5404
 8397SOL    HW333361   3.421   3.066   2.980 -3.3432 -1.5942 -1.4291
 8397SOL    MW433362   3.481   3.017   2.941 -0.8867  0.0977 -0.0915
 8398SOL     OW33363   2.439   3.082   1.408  0.2958 -0.5665  0.5012
 8398SOL    HW233364   2.530   3.096   1.380  1.2455 -1.8192  2.7151
 8398SOL    HW333365   2.387   3.118   1.336  2.5159  0.6591 -0.6342
 8398SOL    MW433366   2.444   3.089   1.394  0.7140 -0.5701  0.6435
 8399SOL     OW33367   4.877   1.479   2.539  0.3633 -0.4108  0.3956
 8399SOL    HW233368   4.799   1.493   2.593 -1.0980 -0.3830 -1.6037
 8399SOL    HW333369   4.916   1.399   2.573 -1.5254 -1.3868  0.3886
 8399SOL    MW433370   4.872   1.470   2.551 -0.0787 -0.5359  0.1309
 8400SOL     OW33371   5.732   1.979   1.465  0.3004 -0.1596 -0.0654
 8400SOL    HW233372   5.776   1.894   1.471  1.0059  0.1638 -0.5747
 8400SOL    HW333373   5.642   1.961   1.493  0.2422 -1.2367 -0.8636
 8400SOL    MW433374   5.726   1.965   1.469  0.3858 -0.2590 -0.2379
 8401SOL     OW33375   3.682   0.382   2.188  0.7028  0.1226  0.0466
 8401SOL    HW233376   3.750   0.450   2.188  0.5833  0.2431 -0.0418
 8401SOL    HW333377   3.706   0.325   2.115  0.5491  0.3262 -0.1627
 8401SOL    MW433378   3.694   0.383   2.179  0.6667  0.1654  0.0073
 8402SOL     OW33379   1.836   4.672   0.286 -0.1799 -0.6066  0.4833
 8402SOL    HW233380   1.742   4.675   0.304 -0.6253  0.2809 -1.6456
 8402SOL    HW333381   1.876   4.649   0.370 -2.1264  1.2367  2.0289
 8402SOL    MW433382   1.829   4.670   0.300 -0.4955 -0.2463  0.4063
 8403SOL     OW33383   5.474   3.320   4.874  0.0259 -0.1751 -0.1164
 8403SOL    HW233384   5.447   3.349   4.786  1.0067  0.2213 -0.2922
 8403SOL    HW333385   5.432   3.234   4.883 -1.4417  0.4806 -0.2980
 8403SOL    MW433386   5.465   3.312   4.863 -0.0383 -0.0363 -0.1636
 8404SOL     OW33387   1.423   4.754   4.167 -0.0622 -0.1712  0.2135
 8404SOL    HW233388   1.490   4.705   4.215 -0.2414 -0.3054  0.3309
 8404SOL    HW333389   1.340   4.714   4.194 -0.4407  1.8524  2.3052
 8404SOL    MW433390   1.421   4.742   4.177 -0.1358  0.0780  0.5050
 8405SOL     OW33391   4.618   3.210   4.644 -0.4347 -0.2881 -0.0925
 8405SOL    HW233392   4.571   3.128   4.652  0.3987 -0.9202 -1.2458
 8405SOL    HW333393   4.653   3.227   4.731 -2.0540 -0.2253  0.5783
 8405SOL    MW433394   4.617   3.201   4.656 -0.5384 -0.3632 -0.1561
 8406SOL     OW33395   3.017   3.507   3.995 -0.1408 -0.4420 -0.3133
 8406SOL    HW233396   3.096   3.519   3.942  0.1772  1.2635  0.4723
 8406SOL    HW333397   2.950   3.478   3.933  0.8079 -0.7867 -1.1956
 8406SOL    MW433398   3.019   3.505   3.980  0.0264 -0.2625 -0.3261
 8407SOL     OW33399   0.305   1.293   4.762 -0.1739  0.5030  0.1201
 8407SOL    HW233400   0.281   1.242   4.685  0.7811  0.5555 -0.2196
 8407SOL    HW333401   0.312   1.383   4.731  0.3103  0.5105  0.2451
 8407SOL    MW433402   0.302   1.298   4.748  0.0160  0.5109  0.0918
 8408SOL     OW33403   5.232   3.054   2.510  0.0310  0.5671 -0.3440
 8408SOL    HW233404   5.186   2.982   2.467  0.0297  0.0229  0.5246
 8408SOL    HW333405   5.293   3.010   2.570  1.0898  1.2820 -0.8734
 8408SOL    MW433406   5.234   3.038   2.512  0.1706  0.5896 -0.2993
 8409SOL     OW33407   5.431   2.758   1.425  0.3351  0.5193 -0.3576
 8409SOL    HW233408   5.471   2.677   1.396  0.2867  0.5805 -0.5989
 8409SOL    HW333409   5.502   2.823   1.422  0.8398  0.1130  1.5656
 8409SOL    MW433410   5.445   2.756   1.421  0.3953  0.4738 -0.1357
 8410SOL     OW33411   4.329   0.943   1.392 -0.1586 -0.3715  0.6450
 8410SOL    HW233412   4.373   0.984   1.467 -0.0953  2.0675 -0.6307
 8410SOL    HW333413   4.237   0.939   1.418 -0.3529  1.6474  0.4446
 8410SOL    MW433414   4.323   0.948   1.405 -0.1759  0.2166  0.4503
 8411SOL     OW33415   1.837   5.717   0.671 -0.6226 -0.5645 -0.1198
 8411SOL    HW233416   1.877   5.791   0.626  0.8889 -0.6882  0.9597
 8411SOL    HW333417   1.898   5.644   0.658  0.2460 -0.4379  2.6352
 8411SOL    MW433418   1.850   5.717   0.663 -0.3086 -0.5641  0.3861
 8412SOL     OW33419   1.602   0.750   0.226 -0.6243  0.0923  0.1762
 8412SOL    HW233420   1.586   0.697   0.148  2.1583  0.4442 -0.7203
 8412SOL    HW333421   1.615   0.839   0.193  1.3319  0.1193  0.9184
 8412SOL    MW433422   1.601   0.755   0.211  0.0009  0.1423  0.1559
 8413SOL     OW33423   3.931   4.288   1.078  0.2691 -0.1839  0.4294
 8413SOL    HW233424   3.866   4.275   1.009  0.8432 -0.5988 -0.0395
 8413SOL    HW333425   3.969   4.374   1.058 -0.2096  0.1166  0.7767
 8413SOL    MW433426   3.927   4.298   1.066  0.2817 -0.1990  0.4133
 8414SOL     OW33427   5.417   2.187   0.205 -0.4678 -0.6815 -0.2871
 8414SOL    HW233428   5.450   2.256   0.147 -0.1633  0.1537  0.8502
 8414SOL    HW333429   5.492   2.163   0.259 -1.5471  1.1411  2.2406
 8414SOL    MW433430   5.431   2.193   0.204 -0.5700 -0.3308  0.1965
 8415SOL     OW33431   2.404   3.702   1.846 -0.1170 -0.1477  0.8742
 8415SOL    HW233432   2.451   3.665   1.771 -0.7841 -0.1884  0.4626
 8415SOL    HW333433   2.416   3.797   1.837 -1.9268  0.0015 -0.5047
 8415SOL    MW433434   2.412   3.710   1.835 -0.4438 -0.1334  0.6380
 8416SOL     OW33435   0.696   2.422   1.462  0.1791 -0.1440  0.4279
 8416SOL    HW233436   0.735   2.347   1.417  0.6374  0.2882  0.1058
 8416SOL    HW333437   0.740   2.424   1.547  0.4068 -0.0338  0.3066
 8416SOL    MW433438   0.707   2.412   1.467  0.2696 -0.0724  0.3694
 8417SOL     OW33439   6.132   1.909   5.134  0.1076  0.1287 -0.0585
 8417SOL    HW233440   6.188   1.919   5.057  0.1937  1.8074  0.1774
 8417SOL    HW333441   6.064   1.976   5.123 -0.1787  0.0417  1.0641
 8417SOL    MW433442   6.130   1.920   5.123  0.0812  0.3387  0.1208
 8418SOL     OW33443   0.636   5.994   4.820 -0.4412  0.5131 -0.0732
 8418SOL    HW233444   0.651   6.036   4.735 -0.5939 -0.3976 -0.5732
 8418SOL    HW333445   0.724   5.974   4.853 -0.3604  1.4639  0.3012
 8418SOL    MW433446   0.650   5.997   4.813 -0.4507  0.5184 -0.0898
 8419SOL     OW33447   3.827   5.205   2.901  0.6406  0.1723 -0.0296
 8419SOL    HW233448   3.797   5.122   2.939  1.5545  0.1924  0.7598
 8419SOL    HW333449   3.873   5.180   2.821 -3.2243  0.2630 -2.5402
 8419SOL    MW433450   3.829   5.191   2.895  0.2513  0.1869 -0.2567
 8420SOL     OW33451   0.943   5.810   2.837 -0.9789 -0.2140 -0.1030
 8420SOL    HW233452   0.962   5.767   2.753 -0.6072 -0.2994  0.0229
 8420SOL    HW333453   0.985   5.896   2.829  0.1295 -0.6781  0.4596
 8420SOL    MW433454   0.951   5.816   2.825 -0.7836 -0.2865 -0.0121
 8421SOL     OW33455   2.989   4.206   1.032  0.2652  0.5950  0.1114
 8421SOL    HW233456   3.006   4.201   0.938  0.2953 -0.4903  0.1648
 8421SOL    HW333457   2.971   4.299   1.048 -2.0920  0.5062 -1.3811
 8421SOL    MW433458   2.989   4.218   1.022 -0.0418  0.4401 -0.0785
 8422SOL     OW33459   1.228   5.400   6.303  0.8790 -0.4283 -0.0492
 8422SOL    HW233460   1.280   5.321   6.287 -1.3956 -1.4487 -3.4035
 8422SOL    HW333461   1.155   5.371   6.357  0.3480 -0.5542 -0.8113
 8422SOL    MW433462   1.225   5.386   6.308  0.5088 -0.5795 -0.5923
 8423SOL     OW33463   0.432   5.048   3.238  0.2230  0.0839  0.6619
 8423SOL    HW233464   0.362   5.037   3.174  1.7058  0.8835 -1.1923
 8423SOL    HW333465   0.459   5.139   3.227  1.0610 -0.0025  1.8864
 8423SOL    MW433466   0.426   5.059   3.228  0.5292  0.1780  0.5788
 8424SOL     OW33467   5.911   4.244   5.984  0.2475  0.2422 -0.1474
 8424SOL    HW233468   5.835   4.255   5.927 -0.5775  1.9588  1.1738
 8424SOL    HW333469   5.875   4.246   6.072  1.8252  1.5088  0.5239
 8424SOL    MW433470   5.896   4.246   5.988  0.3468  0.6358  0.1155
 8425SOL     OW33471   0.784   0.302   2.575 -0.3799 -0.1142  0.2134
 8425SOL    HW233472   0.729   0.381   2.575 -0.1016  0.1415 -1.9025
 8425SOL    HW333473   0.871   0.334   2.552 -0.5056 -1.1141 -1.9347
 8425SOL    MW433474   0.788   0.317   2.572 -0.3598 -0.2124 -0.3492
 8426SOL     OW33475   1.167   4.352   1.566 -0.3427  0.1945  0.6244
 8426SOL    HW233476   1.132   4.314   1.485  1.4759  0.4166 -0.3062
 8426SOL    HW333477   1.262   4.340   1.559 -0.0926  0.9450  2.3616
 8426SOL    MW433478   1.175   4.345   1.554 -0.0698  0.3228  0.7309
 8427SOL     OW33479   3.224   5.014   1.927 -0.2839  0.1616 -0.4944
 8427SOL    HW233480   3.275   5.036   1.848  0.0146 -0.8054 -0.5801
 8427SOL    HW333481   3.240   4.921   1.940 -2.8208 -0.4275 -1.1019
 8427SOL    MW433482   3.233   5.005   1.918 -0.5793 -0.0437 -0.5859
 8428SOL     OW33483   5.798   2.371   2.427 -0.2868  0.1438  0.2063
 8428SOL    HW233484   5.849   2.450   2.410  0.4513  0.5512  3.5128
 8428SOL    HW333485   5.715   2.403   2.461 -0.5611 -0.5097  0.1693
 8428SOL    MW433486   5.794   2.385   2.429 -0.2256  0.1114  0.6377
 8429SOL     OW33487   0.924   0.222   4.141 -0.0147  0.3546 -0.3194
 8429SOL    HW233488   0.935   0.172   4.222  0.2270  0.2660 -0.4064
 8429SOL    HW333489   0.829   0.233   4.133  0.0269  2.0470  0.9969
 8429SOL    MW433490   0.913   0.217   4.151  0.0227  0.5662 -0.1572
 8430SOL     OW33491   3.504   4.379   2.326  0.3682  0.0936  0.0428
 8430SOL    HW233492   3.427   4.408   2.374  0.4079  1.1338 -0.4868
 8430SOL    HW333493   3.474   4.303   2.276 -0.4522  0.7608 -0.5116
 8430SOL    MW433494   3.490   4.373   2.326  0.2652  0.3189 -0.1002
 8431SOL     OW33495   1.971   3.986   1.401 -0.0692  0.4952  0.1028
 8431SOL    HW233496   1.959   3.892   1.416  0.9395  0.1375 -1.1171
 8431SOL    HW333497   2.023   4.016   1.475  1.3141 -0.3527 -0.4835
 8431SOL    MW433498   1.976   3.977   1.413  0.2464  0.3361 -0.1356
 8432SOL     OW33499   3.352   5.391   3.411 -0.4768  0.3834 -0.0211
 8432SOL    HW233500   3.391   5.406   3.325  0.1779  2.3986  0.5710
 8432SOL    HW333501   3.415   5.333   3.456 -1.3988 -1.6687 -1.2326
 8432SOL    MW433502   3.366   5.385   3.406 -0.5121  0.3785 -0.1029
 8433SOL     OW33503   1.908   5.481   3.411 -0.4704 -0.6276 -0.1894
 8433SOL    HW233504   1.876   5.558   3.363 -1.2453 -1.0465 -0.3528
 8433SOL    HW333505   1.967   5.517   3.477  0.5607 -0.0219 -1.3860
 8433SOL    MW433506   1.912   5.496   3.413 -0.4366 -0.6029 -0.3688
 8434SOL     OW33507   5.574   1.892   2.423  0.1064  0.3979 -0.1190
 8434SOL    HW233508   5.531   1.807   2.434 -0.7001  0.6549 -1.0849
 8434SOL    HW333509   5.568   1.909   2.329  1.6887  0.7992 -0.1727
 8434SOL    MW433510   5.567   1.883   2.412  0.2088  0.4848 -0.2535
 8435SOL     OW33511   0.439   6.153   3.536  0.5692 -0.5522  0.1849
 8435SOL    HW233512   0.350   6.165   3.504  0.8919  1.4109 -0.1293
 8435SOL    HW333513   0.429   6.138   3.630 -0.2036 -3.1801 -0.2645
 8435SOL    MW433514   0.426   6.153   3.544  0.5098 -0.6399  0.0841
 8436SOL     OW33515   2.159   1.550   2.654 -0.1732  0.3563  0.2530
 8436SOL    HW233516   2.133   1.467   2.613  1.6662  0.2262 -0.7552
 8436SOL    HW333517   2.145   1.536   2.747 -0.5373 -0.8399  0.0469
 8436SOL    MW433518   2.154   1.537   2.661  0.0214  0.1813  0.0928
 8437SOL     OW33519   1.866   6.114   4.673  0.0852 -0.3365  0.7940
 8437SOL    HW233520   1.937   6.059   4.640  0.6090 -0.3567  1.9168
 8437SOL    HW333521   1.787   6.075   4.637  0.6407 -0.1261 -0.7495
 8437SOL    MW433522   1.865   6.101   4.664  0.2276 -0.3114  0.7385
 8438SOL     OW33523   2.849   3.673   0.314  0.1357 -0.1239 -0.0084
 8438SOL    HW233524   2.795   3.654   0.237 -0.5426  0.2969  0.3566
 8438SOL    HW333525   2.939   3.678   0.280 -0.1187 -0.2658 -0.7122
 8438SOL    MW433526   2.854   3.671   0.299  0.0127 -0.0871 -0.0531
 8439SOL     OW33527   5.736   0.563   5.902 -0.0764 -0.1443  0.3798
 8439SOL    HW233528   5.831   0.575   5.889  0.0854 -0.7729  0.9280
 8439SOL    HW333529   5.724   0.468   5.903 -0.5310 -0.0922  1.5296
 8439SOL    MW433530   5.747   0.552   5.900 -0.1150 -0.2204  0.6039
 8440SOL     OW33531   3.080   2.511   5.879 -0.0125 -0.3305  0.1234
 8440SOL    HW233532   3.008   2.451   5.896 -1.1666  0.7502 -0.7652
 8440SOL    HW333533   3.046   2.597   5.907  1.0204  0.1621 -0.0963
 8440SOL    MW433534   3.066   2.515   5.885 -0.0285 -0.1229 -0.0229
 8441SOL     OW33535   0.490   6.342   0.082  0.4272  0.4035 -0.9351
 8441SOL    HW233536   0.549   6.295   0.141  1.5465  0.8998 -1.6312
 8441SOL    HW333537   0.540   6.351  -0.000 -0.4564  1.1986 -1.4039
 8441SOL    MW433538   0.504   6.337   0.079  0.4583  0.5739 -1.0888
 8442SOL     OW33539   2.019   3.541   2.106  0.3235  0.2024  0.4223
 8442SOL    HW233540   2.030   3.593   2.027 -1.2093  0.4201  0.3174
 8442SOL    HW333541   2.010   3.606   2.176  0.1422  0.0440  0.5464
 8442SOL    MW433542   2.019   3.557   2.105  0.0973  0.2102  0.4248
 8443SOL     OW33543   5.460   5.026   1.733 -0.1666  0.0837  0.0430
 8443SOL    HW233544   5.429   5.103   1.684 -0.9326 -0.0310  0.3405
 8443SOL    HW333545   5.451   5.050   1.825 -0.5178 -0.3944  0.1413
 8443SOL    MW433546   5.455   5.039   1.738 -0.3140  0.0055  0.0952
 8444SOL     OW33547   6.064   3.314   2.050  0.7202 -0.2232 -0.2132
 8444SOL    HW233548   6.130   3.371   2.011 -0.9081  1.9699 -0.0007
 8444SOL    HW333549   6.040   3.358   2.132 -1.9883 -0.1118 -0.9654
 8444SOL    MW433550   6.070   3.327   2.056  0.1480  0.0808 -0.2844
 8445SOL     OW33551   2.355   5.346   0.783 -0.5755  0.0603  0.0179
 8445SOL    HW233552   2.398   5.430   0.799 -1.2265  0.9711 -2.5013
 8445SOL    HW333553   2.261   5.365   0.791 -0.7195 -0.4657 -0.3542
 8445SOL    MW433554   2.348   5.359   0.786 -0.6804  0.1111 -0.3636
 8446SOL     OW33555   3.318   1.568   3.821 -0.0193  0.8162  0.1945
 8446SOL    HW233556   3.391   1.630   3.821 -0.2673  1.1111  0.3739
 8446SOL    HW333557   3.307   1.543   3.913  0.4399  0.0754  0.0517
 8446SOL    MW433558   3.326   1.573   3.833  0.0086  0.7574  0.1993
 8447SOL     OW33559   0.877   1.926   0.913 -0.5310 -0.0803  0.0274
 8447SOL    HW233560   0.908   1.881   0.835 -1.4396 -0.4009 -0.1644
 8447SOL    HW333561   0.953   1.976   0.944 -0.3260  0.5463 -1.3952
 8447SOL    MW433562   0.891   1.927   0.907 -0.6238 -0.0399 -0.1856
 8448SOL     OW33563   2.372   6.279   3.834  0.2050 -0.1632 -0.1997
 8448SOL    HW233564   2.337   6.364   3.863  2.5370  0.5575  0.7863
 8448SOL    HW333565   2.346   6.273   3.742  0.5005  1.9493 -0.4844
 8448SOL    MW433566   2.364   6.290   3.825  0.5516  0.2106 -0.1072
 8449SOL     OW33567   2.304   4.211   0.147 -0.0371  0.0892 -0.1523
 8449SOL    HW233568   2.398   4.222   0.134 -0.2261  3.3309  0.3441
 8449SOL    HW333569   2.264   4.260   0.075 -1.2439  1.0420  1.0996
 8449SOL    MW433570   2.311   4.219   0.136 -0.2213  0.6426  0.0783
 8450SOL     OW33571   4.704   3.926   1.589  0.4541  0.1754 -0.8124
 8450SOL    HW233572   4.794   3.908   1.563  0.2986 -0.2748 -1.0390
 8450SOL    HW333573   4.666   3.840   1.607 -0.3324  0.2456 -2.0282
 8450SOL    MW433574   4.711   3.912   1.588  0.3298  0.1252 -1.0027
 8451SOL     OW33575   1.755   1.541   4.150 -0.1486 -0.1474 -0.1925
 8451SOL    HW233576   1.689   1.517   4.084 -0.6623  0.4993  0.0697
 8451SOL    HW333577   1.783   1.629   4.125 -0.5365  0.2089  0.5844
 8451SOL    MW433578   1.750   1.549   4.138 -0.2676 -0.0150 -0.0554
 8452SOL     OW33579   1.544   2.373   1.553  0.4041  0.1672  0.2175
 8452SOL    HW233580   1.460   2.333   1.578  0.5742 -0.7359 -0.5855
 8452SOL    HW333581   1.608   2.333   1.612  0.2989  0.7488  0.7343
 8452SOL    MW433582   1.541   2.362   1.564  0.4127  0.1248  0.1798
 8453SOL     OW33583   4.522   6.189   6.007 -0.1781 -0.1951 -0.7170
 8453SOL    HW233584   4.532   6.251   5.935  1.5266  1.3341  0.6926
 8453SOL    HW333585   4.612   6.164   6.030 -0.7770 -2.4671 -0.5831
 8453SOL    MW433586   4.535   6.194   6.001 -0.0322 -0.2931 -0.5133
 8454SOL     OW33587   4.384   2.838   0.957  0.2074  0.1833  0.4694
 8454SOL    HW233588   4.468   2.859   0.915  0.6844 -2.6583 -0.2283
 8454SOL    HW333589   4.404   2.765   1.015 -2.0226 -1.7351 -0.9962
 8454SOL    MW433590   4.398   2.831   0.959 -0.0239 -0.4447  0.1840
 8455SOL     OW33591   6.182   4.699   3.114  0.6808 -0.1491  0.3591
 8455SOL    HW233592   6.241   4.624   3.109  0.6113 -0.3657  2.0123
 8455SOL    HW333593   6.206   4.743   3.196  1.5928  2.4170 -1.1678
 8455SOL    MW433594   6.193   4.695   3.124  0.7920  0.1609  0.3757
 8456SOL     OW33595   4.586   3.998   3.023 -0.7150  0.4576 -0.1645
 8456SOL    HW233596   4.627   4.071   2.977 -1.2012 -0.1255 -1.5795
 8456SOL    HW333597   4.614   3.920   2.975 -2.0305 -0.0986 -0.0727
 8456SOL    MW433598   4.595   3.997   3.011 -0.9527  0.3073 -0.3391
 8457SOL     OW33599   4.816   3.180   3.290  0.4512  0.2400  0.3854
 8457SOL    HW233600   4.863   3.118   3.345 -1.5941 -2.2300 -0.4409
 8457SOL    HW333601   4.723   3.160   3.306 -0.2286  0.8225 -2.3555
 8457SOL    MW433602   4.810   3.169   3.300  0.0916 -0.0091 -0.0853
 8458SOL     OW33603   6.015   2.460   5.407  0.0228  1.0702 -0.3874
 8458SOL    HW233604   6.053   2.417   5.484 -1.6779  1.3739  0.6583
 8458SOL    HW333605   5.947   2.517   5.442 -1.6317  0.3195 -2.1909
 8458SOL    MW433606   6.011   2.462   5.422 -0.4199  1.0113 -0.4874
 8459SOL     OW33607   2.151   1.675   0.101 -0.0400  0.1669  0.2389
 8459SOL    HW233608   2.148   1.603   0.164 -1.0398  2.3344  2.8866
 8459SOL    HW333609   2.059   1.692   0.080  0.1787  0.7422 -0.2826
 8459SOL    MW433610   2.138   1.667   0.106 -0.1431  0.5288  0.5194
 8460SOL     OW33611   2.625   2.399   3.360 -0.0523  0.2903 -0.3435
 8460SOL    HW233612   2.537   2.435   3.371 -0.2237 -0.4032  0.6395
 8460SOL    HW333613   2.670   2.463   3.305 -0.7180  1.3873  0.3499
 8460SOL    MW433614   2.619   2.412   3.354 -0.1627  0.3435 -0.1223
 8461SOL     OW33615   0.343   3.522   0.758 -0.3495  0.0680  0.0111
 8461SOL    HW233616   0.410   3.539   0.692 -0.4413  0.8594  0.1098
 8461SOL    HW333617   0.291   3.451   0.721  0.8822 -0.9574  0.1940
 8461SOL    MW433618   0.345   3.515   0.745 -0.1991  0.0371  0.0483
 8462SOL     OW33619   6.239   1.098   5.570  0.7248  0.7442  0.0944
 8462SOL    HW233620   6.315   1.138   5.612  0.0766  1.8008  0.2965
 8462SOL    HW333621   6.228   1.149   5.490  0.9165 -0.1567 -0.5201
 8462SOL    MW433622   6.248   1.110   5.565  0.6646  0.7647  0.0400
 8463SOL     OW33623   4.942   2.744   1.433  0.5564 -0.0825 -0.2769
 8463SOL    HW233624   4.860   2.773   1.394 -0.4529 -1.1285  0.9733
 8463SOL    HW333625   5.005   2.745   1.361 -0.6419  0.3385 -1.3545
 8463SOL    MW433626   4.940   2.748   1.419  0.2651 -0.1649 -0.2541
 8464SOL     OW33627   4.786   2.342   0.437  0.4267 -0.1107 -0.2132
 8464SOL    HW233628   4.859   2.296   0.478 -0.0581 -0.3162  0.4312
 8464SOL    HW333629   4.763   2.287   0.362 -1.0563 -1.7280  1.3276
 8464SOL    MW433630   4.793   2.329   0.432  0.1671 -0.3512  0.0751
 8465SOL     OW33631   4.061   4.261   2.064 -0.6202  0.1791 -0.4199
 8465SOL    HW233632   4.000   4.330   2.088  2.5390  3.0380  0.1505
 8465SOL    HW333633   4.090   4.224   2.148  0.6115  0.9545 -0.4834
 8465SOL    MW433634   4.057   4.265   2.078 -0.0409  0.6586 -0.3530
 8466SOL     OW33635   2.917   4.197   2.745  0.1590 -0.0459  0.4308
 8466SOL    HW233636   2.953   4.283   2.722 -1.2522  0.4378 -0.0862
 8466SOL    HW333637   2.989   4.136   2.730  0.8192  0.8892 -0.3495
 8466SOL    MW433638   2.931   4.201   2.740  0.0599  0.1413  0.2597
 8467SOL     OW33639   6.106   0.343   2.436  0.0607 -0.2439 -0.3266
 8467SOL    HW233640   6.167   0.284   2.480 -1.8303  0.9459  4.5532
 8467SOL    HW333641   6.154   0.425   2.428  0.3786 -0.4280 -0.3331
 8467SOL    MW433642   6.120   0.346   2.441 -0.1468 -0.1112  0.3164
 8468SOL     OW33643   6.140   1.616   4.299  0.6236  0.2803 -0.4967
 8468SOL    HW233644   6.233   1.608   4.316  0.5883  1.0846  0.1346
 8468SOL    HW333645   6.134   1.634   4.205  0.9956 -1.3260 -0.8591
 8468SOL    MW433646   6.151   1.617   4.289  0.6680  0.1745 -0.4613
 8469SOL     OW33647   0.915   3.362   4.158  0.2938  0.7208 -0.0099
 8469SOL    HW233648   0.940   3.295   4.222  0.6454  0.5878 -0.2848
 8469SOL    HW333649   0.846   3.321   4.106  0.2940  0.6847  0.0183
 8469SOL    MW433650   0.909   3.348   4.159  0.3402  0.6984 -0.0425
 8470SOL     OW33651   2.034   2.044   5.562  0.1529 -0.1739 -0.1341
 8470SOL    HW233652   2.129   2.044   5.572  0.0106 -0.1162  1.5685
 8470SOL    HW333653   2.010   2.136   5.556  0.0635 -0.0454  1.5828
 8470SOL    MW433654   2.043   2.056   5.563  0.1224 -0.1493  0.3171
 8471SOL     OW33655   0.244   2.754   4.285 -0.0903  0.4232  0.4218
 8471SOL    HW233656   0.265   2.661   4.294  1.0532  0.4630 -1.2389
 8471SOL    HW333657   0.158   2.756   4.243  0.2417  0.0731 -0.2998
 8471SOL    MW433658   0.236   2.742   4.281  0.1044  0.3823  0.1075
 8472SOL     OW33659   5.965   0.703   4.601  0.1967  0.3709 -0.2607
 8472SOL    HW233660   6.028   0.718   4.672 -0.1532 -0.4898  0.2556
 8472SOL    HW333661   6.009   0.734   4.522  1.3048 -0.2900  0.0716
 8472SOL    MW433662   5.979   0.709   4.600  0.2967  0.1701 -0.1488
 8473SOL     OW33663   5.727   6.254   5.181 -0.2242  0.6469 -0.3279
 8473SOL    HW233664   5.820   6.275   5.192  0.8344 -3.5992  0.6321
 8473SOL    HW333665   5.724   6.204   5.100 -1.0810 -1.6909  1.0659
 8473SOL    MW433666   5.739   6.250   5.172 -0.1976 -0.2217 -0.0174
 8474SOL     OW33667   1.250   4.251   3.863 -0.2319 -0.4837 -0.1247
 8474SOL    HW233668   1.201   4.169   3.861 -3.0532  1.0778 -0.9586
 8474SOL    HW333669   1.270   4.269   3.771  2.2605 -1.1709  0.2000
 8474SOL    MW433670   1.246   4.243   3.850 -0.2753 -0.3683 -0.1919
 8475SOL     OW33671   1.029   3.760   4.243  0.2369 -0.3510 -0.4830
 8475SOL    HW233672   1.074   3.692   4.192  1.7067  0.0474  0.2540
 8475SOL    HW333673   0.947   3.718   4.271  1.0982 -1.8185 -0.0775
 8475SOL    MW433674   1.024   3.745   4.240  0.5445 -0.4921 -0.3323
 8476SOL     OW33675   5.879   2.360   0.423  0.8920  0.0026  0.0432
 8476SOL    HW233676   5.816   2.288   0.420  2.3058 -1.4259  1.6367
 8476SOL    HW333677   5.922   2.350   0.508  1.6478  2.3411  0.0084
 8476SOL    MW433678   5.877   2.349   0.434  1.1782  0.1226  0.2489
 8477SOL     OW33679   3.133   2.949   2.208  0.4099 -0.1599  0.1246
 8477SOL    HW233680   3.089   2.864   2.206 -1.2104  0.6541 -1.0653
 8477SOL    HW333681   3.135   2.977   2.117  2.0888  0.5348  0.3400
 8477SOL    MW433682   3.128   2.942   2.196  0.4176  0.0391 -0.0040
 8478SOL     OW33683   3.894   3.364   2.154 -0.1314  0.7017 -0.0276
 8478SOL    HW233684   3.834   3.290   2.149  0.6397  0.0782 -0.1174
 8478SOL    HW333685   3.906   3.379   2.248  1.5331 -0.8097  0.0552
 8478SOL    MW433686   3.888   3.356   2.166  0.1899  0.4200 -0.0285
 8479SOL     OW33687   0.196   3.834   6.173 -0.3026 -0.3146  0.0235
 8479SOL    HW233688   0.110   3.865   6.144 -0.0059  1.6026  1.0163
 8479SOL    HW333689   0.248   3.828   6.092 -1.1763 -0.8761 -0.5089
 8479SOL    MW433690   0.192   3.838   6.158 -0.3787 -0.1358  0.0843
 8480SOL     OW33691   5.668   1.735   1.910 -0.3845  0.1859  0.1788
 8480SOL    HW233692   5.695   1.826   1.897  2.0631 -0.3409  1.0308
 8480SOL    HW333693   5.573   1.736   1.900 -0.4950  2.9503  0.8225
 8480SOL    MW433694   5.659   1.747   1.907 -0.0762  0.4811  0.3761
 8481SOL     OW33695   6.177   4.060   0.802 -0.0460 -0.2440 -0.4531
 8481SOL    HW233696   6.206   3.972   0.778 -0.4026 -1.0884  1.9867
 8481SOL    HW333697   6.258   4.112   0.804  0.2841 -0.7160 -1.0137
 8481SOL    MW433698   6.192   4.055   0.799 -0.0495 -0.4177 -0.2052
 8482SOL     OW33699   4.307   5.714   2.923  0.3905  0.2655 -0.4481
 8482SOL    HW233700   4.232   5.767   2.951  0.2850 -0.6943  1.2184
 8482SOL    HW333701   4.273   5.661   2.851  0.7643  3.0463 -2.9142
 8482SOL    MW433702   4.293   5.714   2.917  0.4259  0.5058 -0.5536
 8483SOL     OW33703   0.419   4.167   3.159 -0.1315 -0.3465  0.0151
 8483SOL    HW233704   0.455   4.151   3.246 -1.4792 -0.5237  0.5664
 8483SOL    HW333705   0.490   4.144   3.099  1.3246  1.1380  1.0743
 8483SOL    MW433706   0.433   4.162   3.162 -0.1172 -0.1740  0.2276
 8484SOL     OW33707   0.830   2.415   4.398 -0.1408  0.1090  0.2696
 8484SOL    HW233708   0.895   2.447   4.461  0.3378 -0.2170 -0.0485
 8484SOL    HW333709   0.838   2.320   4.402 -0.3416  0.0784 -0.0407
 8484SOL    MW433710   0.840   2.407   4.407 -0.1041  0.0619  0.1867
 8485SOL     OW33711   4.852   3.628   1.405 -0.2667 -0.4339  0.2793
 8485SOL    HW233712   4.801   3.683   1.345 -0.7321  0.0169  1.0643
 8485SOL    HW333713   4.805   3.633   1.488  0.2579 -1.2021  0.6387
 8485SOL    MW433714   4.839   3.636   1.408 -0.2589 -0.4758  0.4303
 8486SOL     OW33715   3.257   5.661   0.066 -0.3024  0.2777  0.0803
 8486SOL    HW233716   3.310   5.647  -0.012  1.2905 -0.8043  1.2760
 8486SOL    HW333717   3.307   5.724   0.118 -0.0879 -0.8516  1.2855
 8486SOL    MW433718   3.271   5.667   0.063 -0.0640 -0.0141  0.3971
 8487SOL     OW33719   2.801   1.378   1.785 -0.2966  0.1417 -0.3652
 8487SOL    HW233720   2.755   1.435   1.847  0.7935  1.2320 -0.5061
 8487SOL    HW333721   2.795   1.425   1.702  0.8429  0.1891 -0.4292
 8487SOL    MW433722   2.794   1.392   1.782 -0.0024  0.2918 -0.3922
 8488SOL     OW33723   0.424   1.818   0.860 -0.0435 -0.0522 -0.0784
 8488SOL    HW233724   0.504   1.821   0.912  0.1481 -0.0180 -0.3736
 8488SOL    HW333725   0.453   1.793   0.772 -0.1419  1.4975 -0.5864
 8488SOL    MW433726   0.438   1.815   0.855 -0.0312  0.1567 -0.1844
 8489SOL     OW33727   3.020   3.716   0.679  0.6394 -1.0698 -0.4035
 8489SOL    HW233728   3.056   3.715   0.590 -3.0533 -2.1663 -2.0785
 8489SOL    HW333729   2.954   3.786   0.677  0.8413 -0.7672  1.6554
 8489SOL    MW433730   3.016   3.725   0.667  0.1788 -1.1746 -0.3529
 8490SOL     OW33731   4.187   2.248   3.087 -0.1467  0.1468  0.2678
 8490SOL    HW233732   4.105   2.199   3.087  0.7468 -1.4239  0.3382
 8490SOL    HW333733   4.193   2.285   3.175 -0.4662 -0.2930  0.4755
 8490SOL    MW433734   4.177   2.247   3.099 -0.0709 -0.1184  0.3045
 8491SOL     OW33735   4.949   5.782   4.904 -0.3605  0.2281 -0.3278
 8491SOL    HW233736   5.028   5.802   4.954  0.1690 -0.4620 -0.8620
 8491SOL    HW333737   4.924   5.865   4.864  0.5336  0.3014 -0.7593
 8491SOL    MW433738   4.956   5.796   4.905 -0.1727  0.1467 -0.4552
 8492SOL     OW33739   2.800   1.768   1.637 -0.2432  1.0094 -0.3805
 8492SOL    HW233740   2.857   1.703   1.679 -0.8117  0.3704 -0.5774
 8492SOL    HW333741   2.737   1.715   1.587 -0.9329  1.7075 -0.2624
 8492SOL    MW433742   2.799   1.752   1.636 -0.4092  1.0172 -0.3909
 8493SOL     OW33743   1.253   4.298   5.073 -0.2345 -0.3514 -0.6177
 8493SOL    HW233744   1.221   4.218   5.115 -0.1446  0.0369  0.1999
 8493SOL    HW333745   1.315   4.335   5.135  2.5012 -1.5135 -2.4564
 8493SOL    MW433746   1.257   4.292   5.087  0.1383 -0.4535 -0.7524
 8494SOL     OW33747   0.786   3.235   0.142 -0.0799  0.7276  0.1250
 8494SOL    HW233748   0.725   3.161   0.135 -1.4916  1.6309  2.0586
 8494SOL    HW333749   0.733   3.312   0.122  0.1210  1.6185  2.6488
 8494SOL    MW433750   0.771   3.235   0.139 -0.2397  0.9643  0.7131
 8495SOL     OW33751   1.360   2.881   4.732  0.5208  0.0348  0.0059
 8495SOL    HW233752   1.379   2.829   4.654  0.5108 -0.9536  0.6381
 8495SOL    HW333753   1.284   2.934   4.709  1.0550  0.4172 -0.9374
 8495SOL    MW433754   1.353   2.881   4.719  0.5900 -0.0452 -0.0351
 8496SOL     OW33755   5.894   4.674   1.189 -0.1815  0.1503  0.0918
 8496SOL    HW233756   5.868   4.720   1.269  0.4620  0.3240  0.2090
 8496SOL    HW333757   5.989   4.689   1.183 -0.3701  0.9144 -1.1959
 8496SOL    MW433758   5.903   4.682   1.199 -0.1215  0.2740 -0.0626
 8497SOL     OW33759   3.747   6.320   6.170  0.1588  0.4433 -0.3890
 8497SOL    HW233760   3.817   6.386   6.177  0.3324  0.1045  1.4366
 8497SOL    HW333761   3.794   6.237   6.158  0.3242 -0.1872  3.5209
 8497SOL    MW433762   3.763   6.318   6.169  0.2036  0.3154  0.3677
 8498SOL     OW33763   3.110   3.776   0.176 -0.3664 -0.5426  0.3923
 8498SOL    HW233764   3.140   3.707   0.117 -0.6203  0.3202 -0.7815
 8498SOL    HW333765   3.061   3.837   0.120 -0.1605  0.5895  1.3937
 8498SOL    MW433766   3.107   3.775   0.161 -0.3728 -0.2794  0.3696
 8499SOL     OW33767   3.143   4.542   5.299  0.7747 -0.0495  0.3685
 8499SOL    HW233768   3.111   4.455   5.321  0.1036  0.2586  0.6609
 8499SOL    HW333769   3.154   4.585   5.384  0.8607  0.2308  0.2171
 8499SOL    MW433770   3.140   4.536   5.313  0.6975  0.0282  0.3871
 8500SOL     OW33771   2.614   5.312   2.236  0.2747  0.3329 -0.1401
 8500SOL    HW233772   2.629   5.223   2.266  0.8243  0.1428 -0.9521
 8500SOL    HW333773   2.640   5.311   2.144  0.4086  1.3580 -0.1242
 8500SOL    MW433774   2.620   5.300   2.228  0.3649  0.4431 -0.2451
 8501SOL     OW33775   4.749   4.791   4.686 -0.2555  0.4614  0.9035
 8501SOL    HW233776   4.806   4.752   4.752 -0.0008 -0.9062 -0.0676
 8501SOL    HW333777   4.807   4.809   4.612 -0.4138  2.5728  1.2296
 8501SOL    MW433778   4.764   4.788   4.685 -0.2428  0.5595  0.8184
 8502SOL     OW33779   1.755   1.373   0.982  0.2228 -0.1334 -0.2215
 8502SOL    HW233780   1.693   1.299   0.981 -0.4177  0.3887 -0.0387
 8502SOL    HW333781   1.801   1.364   1.065 -0.1337 -0.1046 -0.0172
 8502SOL    MW433782   1.753   1.362   0.993  0.0912 -0.0607 -0.1704
 8503SOL     OW33783   6.103   6.293   2.780  0.1133 -0.0414  0.5284
 8503SOL    HW233784   6.191   6.258   2.772  0.1187  0.2740 -1.0234
 8503SOL    HW333785   6.051   6.246   2.715 -0.4553  0.9681  0.2181
 8503SOL    MW433786   6.108   6.282   2.771  0.0390  0.1334  0.2827
 8504SOL     OW33787   1.396   6.309   3.400 -0.1209  0.1924  0.4917
 8504SOL    HW233788   1.392   6.367   3.324  0.2112  1.5589  1.4693
 8504SOL    HW333789   1.453   6.237   3.373 -0.3657  0.4186 -0.6884
 8504SOL    MW433790   1.403   6.308   3.386 -0.1094  0.4025  0.4650
 8505SOL     OW33791   4.188   6.375   4.343  0.0442 -0.5711 -0.4051
 8505SOL    HW233792   4.118   6.416   4.394  0.6888 -0.7206  0.6218
 8505SOL    HW333793   4.151   6.291   4.316 -0.0173 -0.8624  0.5500
 8505SOL    MW433794   4.174   6.369   4.346  0.1211 -0.6292 -0.1436
 8506SOL     OW33795   3.504   3.302   1.802  0.4182 -0.3524 -0.3722
 8506SOL    HW233796   3.421   3.271   1.766 -0.3046  2.0386 -0.9569
 8506SOL    HW333797   3.534   3.230   1.858 -1.9404 -1.3601 -0.2628
 8506SOL    MW433798   3.497   3.288   1.805  0.0116 -0.1699 -0.4349
 8507SOL     OW33799   5.663   1.218   5.666  0.1203  0.0200  0.1818
 8507SOL    HW233800   5.583   1.271   5.662 -2.0176 -2.9251  1.2838
 8507SOL    HW333801   5.702   1.239   5.751  0.1892  0.9522 -0.0671
 8507SOL    MW433802   5.658   1.228   5.676 -0.1527 -0.2456  0.2944
 8508SOL     OW33803   3.361   0.052   5.909 -0.0819  0.2963  1.0491
 8508SOL    HW233804   3.354   0.046   5.813  0.8607  0.3440  0.9702
 8508SOL    HW333805   3.454   0.068   5.925  0.3138 -2.5375  2.0885
 8508SOL    MW433806   3.372   0.053   5.898  0.0947 -0.0713  1.1758
 8509SOL     OW33807   4.589   4.790   0.387  0.2706 -0.1104 -0.5583
 8509SOL    HW233808   4.560   4.818   0.300  1.1985 -0.9426 -1.1513
 8509SOL    HW333809   4.510   4.751   0.427  0.2037 -1.1123 -1.6219
 8509SOL    MW433810   4.575   4.788   0.381  0.3842 -0.3524 -0.7768
 8510SOL     OW33811   3.964   1.375   2.593  0.2434  0.4344 -0.4892
 8510SOL    HW233812   3.999   1.398   2.507 -0.0837  0.5610 -0.5944
 8510SOL    HW333813   3.888   1.320   2.574 -1.4522  2.6129 -0.4215
 8510SOL    MW433814   3.958   1.371   2.579 -0.0234  0.7385 -0.4941
 8511SOL     OW33815   4.840   4.487   2.768  0.4921 -0.6738  0.5942
 8511SOL    HW233816   4.896   4.463   2.695  0.1846 -0.1678  0.1843
 8511SOL    HW333817   4.751   4.468   2.738  0.2866  0.4649  0.4506
 8511SOL    MW433818   4.835   4.481   2.755  0.4244 -0.4568  0.5212
 8512SOL     OW33819   3.265   0.732   1.610 -0.0911 -0.4016  0.3399
 8512SOL    HW233820   3.209   0.671   1.658  0.7393 -0.4433  1.2709
 8512SOL    HW333821   3.217   0.815   1.613 -0.6451 -0.7038  0.1242
 8512SOL    MW433822   3.251   0.734   1.617 -0.0546 -0.4469  0.4343
 8513SOL     OW33823   0.650   5.604   1.176 -0.1380 -0.2863  0.3206
 8513SOL    HW233824   0.714   5.535   1.161  0.3352  0.5281 -1.8368
 8513SOL    HW333825   0.630   5.637   1.088 -0.3753  2.2626  1.2588
 8513SOL    MW433826   0.655   5.599   1.162 -0.1069  0.1575  0.1597
 8514SOL     OW33827   5.766   2.331   4.862 -0.6941 -0.1560 -0.2572
 8514SOL    HW233828   5.843   2.344   4.918 -1.5599  0.6831  0.7735
 8514SOL    HW333829   5.694   2.318   4.923 -1.4945 -0.2692 -1.1990
 8514SOL    MW433830   5.767   2.331   4.877 -0.9139 -0.0602 -0.2454
 8515SOL     OW33831   0.205   1.606   3.622 -0.5669 -0.2133  0.0156
 8515SOL    HW233832   0.234   1.608   3.713  0.3378  2.4832 -0.2456
 8515SOL    HW333833   0.286   1.614   3.571 -1.2111  0.1521 -0.9672
 8515SOL    MW433834   0.220   1.607   3.627 -0.5325  0.1907 -0.1486
 8516SOL     OW33835   5.902   0.474   4.834 -0.0245  0.5418 -0.3022
 8516SOL    HW233836   5.843   0.523   4.777  0.2433  1.6685  0.3717
 8516SOL    HW333837   5.989   0.490   4.798  0.0041 -0.0548 -0.5157
 8516SOL    MW433838   5.906   0.482   4.821  0.0146  0.6117 -0.2414
 8517SOL     OW33839   2.575   0.974   1.747 -0.5199 -0.0543  0.2998
 8517SOL    HW233840   2.540   1.013   1.667  1.5890  0.4885 -0.4027
 8517SOL    HW333841   2.517   0.899   1.763 -1.5560  0.3713 -1.1835
 8517SOL    MW433842   2.562   0.969   1.738 -0.3783  0.0735  0.0114
 8518SOL     OW33843   0.719   1.409   1.929 -0.3455 -0.3301  0.3452
 8518SOL    HW233844   0.642   1.465   1.919  0.4325  0.8096  0.5799
 8518SOL    HW333845   0.776   1.434   1.856 -1.0530 -2.6673 -1.1362
 8518SOL    MW433846   0.717   1.420   1.918 -0.3362 -0.4881  0.1807
 8519SOL     OW33847   0.699   4.448   4.795  0.2177 -0.5464  0.4296
 8519SOL    HW233848   0.645   4.465   4.873  0.5629 -0.1346  0.5862
 8519SOL    HW333849   0.774   4.507   4.805  0.1195 -0.2779 -0.3664
 8519SOL    MW433850   0.702   4.458   4.807  0.2503 -0.4567  0.3453
 8520SOL     OW33851   3.130   1.212   6.369  0.4135 -0.6747 -0.4775
 8520SOL    HW233852   3.077   1.275   6.320 -0.2781  0.4864  1.6121
 8520SOL    HW333853   3.221   1.238   6.352  0.1838 -0.1225 -0.9005
 8520SOL    MW433854   3.135   1.224   6.360  0.2919 -0.4486 -0.2576
 8521SOL     OW33855   1.121   0.929   5.249 -0.1279  0.0935  0.3480
 8521SOL    HW233856   1.065   0.882   5.187  0.5451  0.9483 -0.9571
 8521SOL    HW333857   1.068   0.939   5.328 -1.1674 -0.6350 -0.2387
 8521SOL    MW433858   1.107   0.924   5.251 -0.1763  0.1102  0.0984
 8522SOL     OW33859   2.774   2.791   6.030  0.0111  0.2012  0.0267
 8522SOL    HW233860   2.778   2.845   6.109 -0.6239 -0.5115  0.5501
 8522SOL    HW333861   2.862   2.798   5.992  0.2443  0.7480  0.6516
 8522SOL    MW433862   2.786   2.799   6.035 -0.0419  0.1793  0.1782
 8523SOL     OW33863   5.959   0.631   6.241  0.1130 -0.0049 -0.3357
 8523SOL    HW233864   5.968   0.716   6.199  0.3874 -0.0163 -0.2998
 8523SOL    HW333865   6.043   0.588   6.227  0.3164  0.1196  0.5202
 8523SOL    MW433866   5.971   0.636   6.233  0.1760  0.0100 -0.2181
 8524SOL     OW33867   2.164   2.019   2.189 -0.6570  0.3010 -0.0183
 8524SOL    HW233868   2.073   2.045   2.173 -0.7610  1.1246  1.6742
 8524SOL    HW333869   2.160   1.966   2.269  0.1940 -0.8743 -0.7216
 8524SOL    MW433870   2.151   2.015   2.197 -0.5584  0.2546  0.1122
 8525SOL     OW33871   2.269   6.360   3.209  0.2842  0.8024 -0.0220
 8525SOL    HW233872   2.325   6.294   3.248  0.5708  1.2467  0.3260
 8525SOL    HW333873   2.252   6.329   3.120 -2.4529 -1.5533  1.1541
 8525SOL    MW433874   2.274   6.348   3.203 -0.0391  0.5502  0.1791
 8526SOL     OW33875   4.960   2.646   4.365 -0.2160 -0.1830  0.2898
 8526SOL    HW233876   5.000   2.635   4.279  2.1735 -0.2679  1.3438
 8526SOL    HW333877   4.947   2.557   4.397 -1.5281 -0.1620 -0.1303
 8526SOL    MW433878   4.964   2.633   4.358 -0.0738 -0.1914  0.3734
 8527SOL     OW33879   0.453   4.343   3.605  0.6402 -0.4832  0.3995
 8527SOL    HW233880   0.475   4.431   3.572 -1.7918  0.6947  1.6173
 8527SOL    HW333881   0.506   4.333   3.684  0.0066  0.4986  0.9764
 8527SOL    MW433882   0.463   4.354   3.611  0.2357 -0.1982  0.6363
 8528SOL     OW33883   1.025   5.313   5.555  0.0544  0.1637 -0.7780
 8528SOL    HW233884   0.971   5.300   5.477  0.6371 -1.2920 -0.9522
 8528SOL    HW333885   1.011   5.234   5.608 -3.1836  2.5137  2.4315
 8528SOL    MW433886   1.016   5.301   5.552 -0.2959  0.2817 -0.3775
 8529SOL     OW33887   1.592   1.803   3.816  0.4599  0.1160 -0.3701
 8529SOL    HW233888   1.568   1.888   3.853 -2.7165 -0.3007 -1.1567
 8529SOL    HW333889   1.595   1.817   3.722 -0.3029 -0.6457 -0.5244
 8529SOL    MW433890   1.589   1.816   3.809 -0.0599 -0.0395 -0.4943
 8530SOL     OW33891   5.858   2.980   6.343  0.2555 -0.3626  0.1023
 8530SOL    HW233892   5.870   3.075   6.346 -1.2951 -0.1250 -0.2975
 8530SOL    HW333893   5.905   2.952   6.264 -0.4864  0.2951 -0.5901
 8530SOL    MW433894   5.866   2.989   6.333 -0.0469 -0.2445 -0.0418
 8531SOL     OW33895   3.577   2.218   2.742 -0.4998  0.0806  0.7575
 8531SOL    HW233896   3.648   2.237   2.681  0.6529 -0.9170  1.7501
 8531SOL    HW333897   3.520   2.295   2.737 -0.1327  0.2742 -1.1212
 8531SOL    MW433898   3.579   2.231   2.733 -0.2993 -0.0255  0.6406
 8532SOL     OW33899   4.385   1.630   1.741 -0.1505 -0.0122 -0.2738
 8532SOL    HW233900   4.383   1.671   1.827 -0.1164 -0.2736 -0.1497
 8532SOL    HW333901   4.418   1.699   1.683  2.9628 -0.7413  0.4518
 8532SOL    MW433902   4.389   1.645   1.744  0.2648 -0.1429 -0.1617
 8533SOL     OW33903   5.241   2.169   6.400 -0.4565 -0.2196  0.0319
 8533SOL    HW233904   5.289   2.177   6.482 -0.1145 -0.5438 -0.1363
 8533SOL    HW333905   5.302   2.199   6.333 -0.9203  0.5776 -0.0582
 8533SOL    MW433906   5.255   2.174   6.402 -0.4726 -0.1572 -0.0022
 8534SOL     OW33907   3.175   6.041   4.473 -0.0802  0.4064  0.4934
 8534SOL    HW233908   3.167   5.977   4.544 -0.1077 -1.1163 -0.8197
 8534SOL    HW333909   3.110   6.108   4.494 -2.8407 -1.9265  0.0214
 8534SOL    MW433910   3.165   6.041   4.486 -0.4480 -0.1023  0.2579
 8535SOL     OW33911   0.015   1.245   1.935 -0.3415  0.3033 -0.5621
 8535SOL    HW233912   0.024   1.338   1.912 -0.6868  0.3270 -0.6082
 8535SOL    HW333913   0.068   1.199   1.870 -0.9743  0.4002 -1.1637
 8535SOL    MW433914   0.023   1.252   1.923 -0.4705  0.3192 -0.6475
 8536SOL     OW33915   0.819   5.072   4.013 -0.0383  0.2243 -0.0147
 8536SOL    HW233916   0.858   5.102   3.930 -0.0413 -1.9693 -0.8704
 8536SOL    HW333917   0.870   5.116   4.081  1.3674  0.4205 -1.1601
 8536SOL    MW433918   0.831   5.082   4.011  0.1468 -0.0392 -0.2787
 8537SOL     OW33919   3.213   5.123   5.551 -0.2403 -0.9399 -0.0421
 8537SOL    HW233920   3.151   5.110   5.623 -0.6448  1.0913  0.0598
 8537SOL    HW333921   3.171   5.085   5.475 -0.7817 -1.2045  0.3856
 8537SOL    MW433922   3.200   5.117   5.551 -0.3651 -0.7068  0.0278
 8538SOL     OW33923   3.011   2.875   2.710 -0.1285 -0.9151 -0.1685
 8538SOL    HW233924   3.078   2.844   2.649 -0.1091  0.8928 -1.1432
 8538SOL    HW333925   2.937   2.898   2.654 -0.7822 -0.9188  0.6827
 8538SOL    MW433926   3.010   2.874   2.694 -0.2122 -0.6770 -0.1848
 8539SOL     OW33927   5.863   2.270   4.362 -0.3872  0.0040 -0.3085
 8539SOL    HW233928   5.840   2.345   4.307 -1.3151  0.8271  1.1272
 8539SOL    HW333929   5.821   2.289   4.446  1.1185 -1.1325  0.7405
 8539SOL    MW433930   5.854   2.282   4.365 -0.3110 -0.0373  0.0193
 8540SOL     OW33931   5.634   4.662   0.352 -0.6737 -0.1645 -0.2392
 8540SOL    HW233932   5.665   4.661   0.262  0.7124  0.7794  0.1893
 8540SOL    HW333933   5.567   4.730   0.355 -0.5783 -0.0599 -0.5105
 8540SOL    MW433934   5.630   4.671   0.341 -0.4782 -0.0261 -0.2185
 8541SOL     OW33935   2.173   5.603   1.525  0.1971 -0.2385 -0.7109
 8541SOL    HW233936   2.161   5.565   1.612 -0.1842  1.4337  0.0042
 8541SOL    HW333937   2.265   5.589   1.505  0.4747  0.0382  0.3117
 8541SOL    MW433938   2.183   5.596   1.534  0.1834  0.0186 -0.4816
 8542SOL     OW33939   3.868   1.459   0.484 -0.7078 -0.1621 -0.3121
 8542SOL    HW233940   3.805   1.529   0.468 -3.1776 -1.8090  1.4812
 8542SOL    HW333941   3.916   1.487   0.562 -1.0380 -0.0396 -0.1519
 8542SOL    MW433942   3.866   1.472   0.492 -1.0773 -0.3632 -0.0544
 8543SOL     OW33943   4.680   5.743   1.304  0.4400  0.6142  0.1466
 8543SOL    HW233944   4.589   5.714   1.309  0.2471  1.0931 -0.5875
 8543SOL    HW333945   4.723   5.679   1.247  0.1883  1.2987 -0.8382
 8543SOL    MW433946   4.674   5.731   1.297  0.3813  0.7677 -0.0802
 8544SOL     OW33947   1.932   2.471   1.716  0.3538  0.2535 -0.4451
 8544SOL    HW233948   2.003   2.415   1.746 -0.4088  1.0846  3.4061
 8544SOL    HW333949   1.858   2.412   1.704  0.4055 -0.0008  0.4457
 8544SOL    MW433950   1.931   2.456   1.718  0.2600  0.3296  0.1806
 8545SOL     OW33951   4.146   2.258   4.306 -0.6052  0.4929 -0.4985
 8545SOL    HW233952   4.185   2.335   4.264 -0.7056  0.8521  0.0590
 8545SOL    HW333953   4.098   2.293   4.381 -0.4243 -0.1456 -0.0789
 8545SOL    MW433954   4.144   2.272   4.310 -0.5946  0.4560 -0.3696
 8546SOL     OW33955   1.301   6.148   2.374 -0.3937 -0.0384  0.0556
 8546SOL    HW233956   1.265   6.206   2.307  1.8467  0.1211 -1.1079
 8546SOL    HW333957   1.393   6.175   2.382  0.3717 -2.5213  0.4699
 8546SOL    MW433958   1.309   6.160   2.366  0.0029 -0.3449 -0.0432
 8547SOL     OW33959   0.273   4.833   3.484 -0.5341  0.2644  0.2217
 8547SOL    HW233960   0.287   4.922   3.515  0.2688  0.5427 -0.8673
 8547SOL    HW333961   0.242   4.843   3.394  0.5292 -0.5591 -0.2616
 8547SOL    MW433962   0.270   4.846   3.476 -0.2879  0.1925  0.0143
 8548SOL     OW33963   3.344   2.891   1.412 -0.2817  0.1139 -0.8712
 8548SOL    HW233964   3.288   2.823   1.451  0.2921  0.3178  0.3811
 8548SOL    HW333965   3.303   2.911   1.328 -1.7381 -0.1813 -0.2682
 8548SOL    MW433966   3.331   2.884   1.406 -0.3981  0.1019 -0.6264
 8549SOL     OW33967   0.389   4.314   0.765  0.0795 -0.3667 -0.2192
 8549SOL    HW233968   0.350   4.352   0.686  1.5114  2.0602  0.1270
 8549SOL    HW333969   0.465   4.266   0.733 -0.9473 -1.8695 -0.5251
 8549SOL    MW433970   0.394   4.313   0.750  0.1329 -0.2448 -0.2139
 8550SOL     OW33971   1.975   1.085   5.627 -0.1519  0.4693 -0.3674
 8550SOL    HW233972   2.070   1.077   5.624  0.1971  2.5529  1.6661
 8550SOL    HW333973   1.953   1.146   5.556  0.0787  0.3348 -0.5541
 8550SOL    MW433974   1.984   1.092   5.617 -0.0755  0.7264 -0.1238
 8551SOL     OW33975   1.985   2.507   3.621 -0.0150  0.4347 -0.0119
 8551SOL    HW233976   2.015   2.436   3.677  1.2862  0.1602 -1.0215
 8551SOL    HW333977   2.058   2.569   3.620 -0.1983  0.6440 -1.0412
 8551SOL    MW433978   1.999   2.506   3.629  0.1325  0.4261 -0.2809
 8552SOL     OW33979   5.173   0.066   1.091  0.8854 -0.2733 -0.1724
 8552SOL    HW233980   5.160  -0.005   1.154  0.1156 -0.3027 -0.3582
 8552SOL    HW333981   5.088   0.108   1.084  1.4356  0.9549  0.2559
 8552SOL    MW433982   5.160   0.062   1.098  0.8564 -0.1151 -0.1404
 8553SOL     OW33983   6.122   1.692   4.004  0.4673 -0.5664  0.1934
 8553SOL    HW233984   6.114   1.783   4.032  0.8365 -0.0155 -1.3452
 8553SOL    HW333985   6.217   1.678   3.995  0.3636 -0.3860 -1.6141
 8553SOL    MW433986   6.134   1.702   4.006  0.5023 -0.4699 -0.2481
 8554SOL     OW33987   0.880   5.140   3.539 -0.3053  0.1344  0.2034
 8554SOL    HW233988   0.910   5.065   3.488 -0.1552  0.2009  0.1930
 8554SOL    HW333989   0.786   5.125   3.551 -0.1530 -0.4109  0.7994
 8554SOL    MW433990   0.872   5.128   3.534 -0.2654  0.0712  0.2807
 8555SOL     OW33991   3.420   4.980   0.929 -0.1309  0.5474 -0.2374
 8555SOL    HW233992   3.419   5.006   0.837 -0.5220 -0.2699 -0.4711
 8555SOL    HW333993   3.385   5.057   0.975  1.0524  1.3549 -0.6440
 8555SOL    MW433994   3.415   4.994   0.923 -0.0264  0.5461 -0.3219
 8556SOL     OW33995   2.176   3.419   6.090  0.4012  0.4107 -0.2589
 8556SOL    HW233996   2.257   3.373   6.109 -0.4846 -1.0441  0.1608
 8556SOL    HW333997   2.196   3.473   6.013  1.6131 -0.2806 -0.4510
 8556SOL    MW433998   2.189   3.420   6.082  0.4442  0.1276 -0.2289
 8557SOL     OW33999   3.248   1.045   3.877 -0.1632  0.3341 -0.0561
 8557SOL    HW234000   3.330   1.014   3.917 -0.7858 -0.0624  0.9592
 8557SOL    HW334001   3.240   1.136   3.905  0.3380  0.6363 -0.8548
 8557SOL    MW434002   3.258   1.053   3.886 -0.1792  0.3216 -0.0275
 8558SOL     OW34003   4.231   4.572   5.416 -0.0494 -0.0154  0.1368
 8558SOL    HW234004   4.243   4.559   5.510 -0.2736  2.2355  0.5296
 8558SOL    HW334005   4.162   4.638   5.410 -0.6338 -0.7512 -1.6489
 8558SOL    MW434006   4.224   4.579   5.428 -0.1561  0.1845 -0.0470
 8559SOL     OW34007   4.247   0.293   6.386 -0.2636  0.7178  0.1760
 8559SOL    HW234008   4.265   0.384   6.367 -2.3842  0.6455 -2.9426
 8559SOL    HW334009   4.152   0.289   6.397 -0.2345 -1.1498  0.1244
 8559SOL    MW434010   4.237   0.304   6.385 -0.5395  0.4618 -0.2422
 8560SOL     OW34011   5.852   2.195   3.298  0.1824  0.6213  0.2467
 8560SOL    HW234012   5.859   2.131   3.369 -2.3870  0.3366  0.3237
 8560SOL    HW334013   5.839   2.141   3.220  0.9555  1.0038 -0.1630
 8560SOL    MW434014   5.852   2.179   3.297 -0.0546  0.6342  0.2028
 8561SOL     OW34015   3.025   2.100   5.229  0.0583  0.2428  0.3506
 8561SOL    HW234016   2.994   2.177   5.277  1.8724  1.7464 -0.7327
 8561SOL    HW334017   3.094   2.063   5.286  0.8186  0.8436 -0.1580
 8561SOL    MW434018   3.030   2.105   5.243  0.3980  0.5204  0.1405
 8562SOL     OW34019   4.874   5.154   2.668  0.2034 -0.2109 -0.4467
 8562SOL    HW234020   4.906   5.190   2.585  0.7100  0.8363  0.1804
 8562SOL    HW334021   4.806   5.091   2.642 -0.4626  0.9307 -1.6258
 8562SOL    MW434022   4.869   5.151   2.653  0.1824  0.0779 -0.5195
 8563SOL     OW34023   5.788   0.552   1.545  0.2106  0.3907 -0.1019
 8563SOL    HW234024   5.695   0.559   1.525  0.4548 -1.2868 -2.3207
 8563SOL    HW334025   5.832   0.587   1.467  1.4784  1.7790  1.1764
 8563SOL    MW434026   5.782   0.558   1.532  0.4101  0.3526 -0.2260
 8564SOL     OW34027   4.445   0.073   3.589 -0.3961  0.1378  0.2256
 8564SOL    HW234028   4.399   0.011   3.646  0.2897  0.0709  0.7135
 8564SOL    HW334029   4.504   0.120   3.647  1.5419 -1.0593 -0.6627
 8564SOL    MW434030   4.447   0.071   3.604 -0.0499 -0.0289  0.1728
 8565SOL     OW34031   3.889   5.731   2.430  0.2316 -0.3039 -0.1781
 8565SOL    HW234032   3.964   5.755   2.485  0.3973 -1.8558  0.3085
 8565SOL    HW334033   3.863   5.813   2.388  2.0000  0.3273 -0.1120
 8565SOL    MW434034   3.895   5.745   2.431  0.4868 -0.4254 -0.1052
 8566SOL     OW34035   5.441   4.213   2.714  0.0389  0.5129 -0.6217
 8566SOL    HW234036   5.476   4.181   2.631  2.6762  2.7777 -0.5315
 8566SOL    HW334037   5.492   4.168   2.781 -0.8781 -0.0024 -0.2421
 8566SOL    MW434038   5.452   4.203   2.712  0.2659  0.7437 -0.5597
 8567SOL     OW34039   0.235   1.784   6.428 -0.1957 -0.6853  0.8241
 8567SOL    HW234040   0.304   1.849   6.422 -0.0974 -0.7549  1.1992
 8567SOL    HW334041   0.167   1.816   6.368 -0.0957 -0.3036  0.9111
 8567SOL    MW434042   0.235   1.797   6.419 -0.1695 -0.6442  0.8851
 8568SOL     OW34043   4.839   6.196   0.671  0.1571  0.0902  0.5475
 8568SOL    HW234044   4.799   6.260   0.731  1.9379  0.7186  1.1489
 8568SOL    HW334045   4.923   6.236   0.648  0.8552 -1.5743  0.0984
 8568SOL    MW434046   4.844   6.210   0.676  0.4842 -0.0465  0.5676
 8569SOL     OW34047   3.927   3.454   0.359  0.1728  0.0675 -0.2076
 8569SOL    HW234048   3.930   3.526   0.295  4.8041 -0.0211 -0.4853
 8569SOL    HW334049   3.957   3.493   0.441  0.0036 -0.9953  0.3795
 8569SOL    MW434050   3.932   3.469   0.361  0.7615 -0.0844 -0.1668
 8570SOL     OW34051   4.052   5.393   5.140 -0.0859 -0.2322 -0.7156
 8570SOL    HW234052   4.039   5.326   5.073  1.3919 -0.9555 -0.3110
 8570SOL    HW334053   4.023   5.474   5.099 -2.0300 -1.1006 -1.1727
 8570SOL    MW434054   4.046   5.395   5.126 -0.1474 -0.4422 -0.7225
 8571SOL     OW34055   2.109   1.192   4.397  0.4010 -0.2481  0.2853
 8571SOL    HW234056   2.057   1.264   4.361  1.0000  0.1864  0.2712
 8571SOL    HW334057   2.181   1.235   4.442 -0.5788 -0.7531  2.4685
 8571SOL    MW434058   2.111   1.207   4.398  0.3508 -0.2574  0.5715
 8572SOL     OW34059   3.637   0.859   4.433  0.3253  0.0628  0.5373
 8572SOL    HW234060   3.720   0.821   4.464  1.8073  1.6815 -1.1896
 8572SOL    HW334061   3.611   0.802   4.361  2.5416  2.0662 -2.0466
 8572SOL    MW434062   3.645   0.846   4.428  0.8132  0.5407 -0.0314
 8573SOL     OW34063   2.099   2.574   2.547  0.2048  0.2157  0.5719
 8573SOL    HW234064   2.008   2.544   2.540  0.0748  1.0166 -2.2941
 8573SOL    HW334065   2.093   2.662   2.584 -0.3818  0.9555 -1.2161
 8573SOL    MW434066   2.086   2.582   2.551  0.1103  0.4189 -0.0421
 8574SOL     OW34067   5.977   5.550   0.017  0.3317  0.4198 -0.4513
 8574SOL    HW234068   6.060   5.581   0.053 -0.8109  1.9229  1.0530
 8574SOL    HW334069   5.971   5.591  -0.070  1.4472 -0.2712 -0.8718
 8574SOL    MW434070   5.987   5.559   0.010  0.3281  0.5269 -0.3083
 8575SOL     OW34071   0.723   2.754   3.361  0.2656  0.2900  0.2914
 8575SOL    HW234072   0.690   2.738   3.450  0.7694  0.6030  0.5395
 8575SOL    HW334073   0.686   2.839   3.337 -0.2009  0.0201  0.0374
 8575SOL    MW434074   0.714   2.763   3.370  0.2705  0.2957  0.2907
 8576SOL     OW34075   0.477   2.101   2.672  0.2567 -0.0529 -0.0736
 8576SOL    HW234076   0.476   2.009   2.698  1.9765  0.0834  0.6181
 8576SOL    HW334077   0.395   2.137   2.706  0.5893 -0.8301  1.6261
 8576SOL    MW434078   0.466   2.094   2.680  0.5275 -0.1375  0.2419
 8577SOL     OW34079   3.878   0.609   2.096 -0.3138 -0.2648 -0.1406
 8577SOL    HW234080   3.943   0.637   2.032  0.1687 -1.0598 -0.0072
 8577SOL    HW334081   3.795   0.646   2.064  0.0755  0.1257 -0.7127
 8577SOL    MW434082   3.875   0.618   2.084 -0.1988 -0.3182 -0.1984
 8578SOL     OW34083   1.708   1.008   0.439  0.0609 -0.1210 -0.2179
 8578SOL    HW234084   1.716   1.045   0.527 -2.2100  0.8031 -0.3481
 8578SOL    HW334085   1.775   0.940   0.436  0.2411 -0.1370  2.2044
 8578SOL    MW434086   1.718   1.004   0.451 -0.2149 -0.0012  0.0845
 8579SOL     OW34087   2.196   3.101   5.888  0.3799  0.5286  0.2748
 8579SOL    HW234088   2.235   3.187   5.871 -2.2301  2.0476  1.2289
 8579SOL    HW334089   2.116   3.121   5.938 -0.9027 -2.3851 -0.4012
 8579SOL    MW434090   2.190   3.115   5.892 -0.1337  0.3446  0.3115
 8580SOL     OW34091   3.951   0.943   5.385 -0.4213  0.0285  0.0230
 8580SOL    HW234092   3.954   0.971   5.293 -0.1144  2.8637  0.7978
 8580SOL    HW334093   4.041   0.914   5.404 -0.5595 -0.8597 -0.6261
 8580SOL    MW434094   3.964   0.943   5.375 -0.3990  0.2854  0.0396
 8581SOL     OW34095   4.854   2.496   1.592  0.4949  0.2693  0.1674
 8581SOL    HW234096   4.776   2.528   1.636 -0.7065 -0.6489 -1.1806
 8581SOL    HW334097   4.885   2.570   1.541 -0.4124  0.2322 -0.4693
 8581SOL    MW434098   4.848   2.510   1.591  0.2167  0.1433 -0.0944
 8582SOL     OW34099   0.299   2.566   1.747 -0.1205  0.8218 -0.1440
 8582SOL    HW234100   0.349   2.487   1.729  1.3159  1.2585  1.6204
 8582SOL    HW334101   0.211   2.547   1.714  0.4470 -1.1131 -0.6519
 8582SOL    MW434102   0.294   2.553   1.740  0.1439  0.6241  0.0218
 8583SOL     OW34103   5.349   2.392   4.427  0.1415  0.1105 -0.7303
 8583SOL    HW234104   5.379   2.356   4.511 -0.4006  0.6634 -0.2803
 8583SOL    HW334105   5.402   2.348   4.361  1.5583  0.6549 -0.0116
 8583SOL    MW434106   5.360   2.382   4.430  0.2569  0.2553 -0.5761
 8584SOL     OW34107   4.520   5.306   3.215 -0.1603 -0.1716 -0.2116
 8584SOL    HW234108   4.556   5.296   3.304  0.9544  0.3563 -0.5835
 8584SOL    HW334109   4.577   5.253   3.160 -1.2100 -0.9828 -0.5458
 8584SOL    MW434110   4.533   5.298   3.220 -0.1517 -0.2089 -0.3048
 8585SOL     OW34111   5.967   6.127   4.457  0.4690 -0.3435 -0.4072
 8585SOL    HW234112   6.013   6.206   4.485  1.6901  0.3383 -3.8640
 8585SOL    HW334113   6.019   6.055   4.493  1.0635  0.4005  0.2662
 8585SOL    MW434114   5.980   6.128   4.466  0.7085 -0.1554 -0.7744
 8586SOL     OW34115   0.500   2.051   2.396 -0.0944  0.5399  0.2036
 8586SOL    HW234116   0.474   2.073   2.485 -1.4342  0.7162 -0.2000
 8586SOL    HW334117   0.546   2.129   2.364  0.7932  0.3004  0.8826
 8586SOL    MW434118   0.502   2.065   2.403 -0.1540  0.5315  0.2400
 8587SOL     OW34119   3.246   3.569   0.057  0.2417  0.4273  0.2575
 8587SOL    HW234120   3.240   3.477   0.083  0.4097  0.4781  0.4839
 8587SOL    HW334121   3.322   3.602   0.105 -0.2451  0.8693  0.7396
 8587SOL    MW434122   3.255   3.561   0.067  0.1996  0.4923  0.3510
 8588SOL     OW34123   0.356   0.559   4.812  0.3215 -0.1687 -0.5855
 8588SOL    HW234124   0.323   0.500   4.880  0.5548 -0.1887 -0.4879
 8588SOL    HW334125   0.289   0.626   4.804 -0.0320 -0.5450 -0.8242
 8588SOL    MW434126   0.343   0.560   4.820  0.3057 -0.2210 -0.6041
 8589SOL     OW34127   4.169   1.031   3.078  0.3065  0.4447  0.0079
 8589SOL    HW234128   4.095   1.015   3.019 -0.2984 -1.1819  1.1395
 8589SOL    HW334129   4.130   1.075   3.154  0.6991  0.5469  0.1543
 8589SOL    MW434130   4.154   1.035   3.080  0.2785  0.2436  0.1765
 8590SOL     OW34131   1.737   4.127   2.929 -0.1291 -0.6005 -0.8967
 8590SOL    HW234132   1.767   4.196   2.989 -0.2017 -0.4723 -1.0063
 8590SOL    HW334133   1.758   4.161   2.841 -0.5709 -0.5199 -0.9729
 8590SOL    MW434134   1.744   4.141   2.925 -0.1970 -0.5730 -0.9212
 8591SOL     OW34135   5.374   0.797   4.139  0.0619  0.6629  0.2184
 8591SOL    HW234136   5.309   0.735   4.106  1.2855 -0.7419  0.3443
 8591SOL    HW334137   5.445   0.742   4.171  0.3683  2.0869  2.1247
 8591SOL    MW434138   5.375   0.782   4.139  0.2637  0.6654  0.4865
 8592SOL     OW34139   4.042   0.929   5.808  0.5485  0.4767  0.1653
 8592SOL    HW234140   4.064   0.855   5.865 -0.9101 -0.1590 -0.0587
 8592SOL    HW334141   4.102   0.921   5.734  1.1545  0.1874  0.6790
 8592SOL    MW434142   4.053   0.918   5.806  0.4360  0.3547  0.2035
 8593SOL     OW34143   5.617   4.444   5.491  0.2140 -0.2592  0.0871
 8593SOL    HW234144   5.555   4.491   5.548 -1.7976  0.6263 -2.6317
 8593SOL    HW334145   5.696   4.499   5.491  0.4833 -0.5456  2.3220
 8593SOL    MW434146   5.619   4.458   5.499 -0.0158 -0.1802  0.0232
 8594SOL     OW34147   2.360   0.206   6.071  0.8962  0.9720  0.0825
 8594SOL    HW234148   2.336   0.249   5.989  2.7121  1.3002 -0.3235
 8594SOL    HW334149   2.399   0.124   6.044 -0.0933  0.2569  0.7386
 8594SOL    MW434150   2.362   0.201   6.057  1.0052  0.9210  0.1155
 8595SOL     OW34151   2.704   5.770   4.723 -0.1001 -0.5272 -0.0942
 8595SOL    HW234152   2.751   5.766   4.639  0.9288  0.3153  0.4173
 8595SOL    HW334153   2.754   5.714   4.781 -0.1130 -0.1528  0.2826
 8595SOL    MW434154   2.717   5.762   4.720  0.0339 -0.3666  0.0230
 8596SOL     OW34155   0.125   4.094   1.387 -0.1641  0.2325 -0.0695
 8596SOL    HW234156   0.188   4.023   1.403 -1.4981 -0.5317  2.3094
 8596SOL    HW334157   0.132   4.150   1.464 -0.4315  1.7298 -1.0883
 8596SOL    MW434158   0.135   4.092   1.399 -0.3754  0.3292  0.1100
 8597SOL     OW34159   1.292   2.790   5.729 -0.3109  0.7060 -0.6157
 8597SOL    HW234160   1.208   2.778   5.773  0.1648  0.5953  0.2927
 8597SOL    HW334161   1.304   2.709   5.678 -1.5157  1.4271 -2.1018
 8597SOL    MW434162   1.283   2.777   5.728 -0.4071  0.7865 -0.6919
 8598SOL     OW34163   4.676   2.898   1.334 -0.3094  0.0827  0.0222
 8598SOL    HW234164   4.721   2.966   1.385 -0.3938 -0.3704  0.7165
 8598SOL    HW334165   4.583   2.917   1.346 -0.3620 -0.7753  1.1095
 8598SOL    MW434166   4.670   2.910   1.342 -0.3275 -0.0903  0.2572
 8599SOL     OW34167   0.579   6.404   4.510  0.0817  0.5313 -0.1282
 8599SOL    HW234168   0.597   6.314   4.539 -1.9618 -0.2626 -1.0997
 8599SOL    HW334169   0.555   6.394   4.418  0.3114  2.1608 -0.3843
 8599SOL    MW434170   0.578   6.391   4.501 -0.1576  0.6415 -0.2901
 8600SOL     OW34171   4.443   3.728   0.805 -0.2922  0.2320 -0.2793
 8600SOL    HW234172   4.396   3.811   0.809 -3.3086 -1.3191 -0.1932
 8600SOL    HW334173   4.447   3.708   0.712 -0.5634 -0.0065 -0.2424
 8600SOL    MW434174   4.437   3.736   0.793 -0.7259 -0.0041 -0.2630
 8601SOL     OW34175   5.156   0.268   0.715 -0.2089  0.3744  0.2054
 8601SOL    HW234176   5.239   0.302   0.749 -0.2872 -1.6648  2.7337
 8601SOL    HW334177   5.177   0.182   0.679 -0.9786  0.5479 -0.7172
 8601SOL    MW434178   5.170   0.261   0.715 -0.3208  0.1283  0.4172
 8602SOL     OW34179   3.649   2.795   4.941 -0.0120  0.0627  0.4756
 8602SOL    HW234180   3.611   2.710   4.962  0.0850 -0.9177 -2.7274
 8602SOL    HW334181   3.741   2.787   4.969 -0.1637 -0.6386  0.8062
 8602SOL    MW434182   3.656   2.782   4.947 -0.0192 -0.1592  0.0966
 8603SOL     OW34183   6.152   5.838   5.465  0.2235 -0.2157  0.0769
 8603SOL    HW234184   6.093   5.801   5.400 -0.6915  0.5024  0.4767
 8603SOL    HW334185   6.234   5.791   5.452  0.3155  0.4255 -2.1319
 8603SOL    MW434186   6.155   5.827   5.454  0.1149 -0.0363 -0.1618
 8604SOL     OW34187   2.897   1.570   3.880  0.1665 -0.3953  0.0790
 8604SOL    HW234188   2.907   1.631   3.806  0.5917 -1.6461 -0.9459
 8604SOL    HW334189   2.953   1.495   3.856 -0.4787 -1.2621  1.2025
 8604SOL    MW434190   2.906   1.568   3.867  0.1375 -0.6747  0.0920
 8605SOL     OW34191   0.539   1.631   2.594 -0.0316 -0.4612  0.1268
 8605SOL    HW234192   0.490   1.567   2.541 -1.5035 -0.3660  1.2992
 8605SOL    HW334193   0.472   1.693   2.623  0.1891 -1.7751  3.9820
 8605SOL    MW434194   0.524   1.631   2.591 -0.1966 -0.6220  0.7901
 8606SOL     OW34195   4.483   6.192   2.633 -0.1238 -0.0213 -0.0339
 8606SOL    HW234196   4.500   6.198   2.727  0.3812  1.2769 -0.1862
 8606SOL    HW334197   4.407   6.248   2.618 -1.1286 -1.3821 -0.2033
 8606SOL    MW434198   4.475   6.200   2.643 -0.1897 -0.0296 -0.0764
 8607SOL     OW34199   2.415   6.343   2.864 -0.4890  0.1797 -0.2375
 8607SOL    HW234200   2.451   6.411   2.921  0.2556 -1.1911  0.9951
 8607SOL    HW334201   2.329   6.323   2.901 -0.6900  0.4035 -0.5749
 8607SOL    MW434202   2.409   6.349   2.876 -0.4173  0.0283 -0.1194
 8608SOL     OW34203   0.249   5.631   2.886  0.2502 -0.7495  0.7282
 8608SOL    HW234204   0.338   5.656   2.860 -0.1236  0.3842  0.4739
 8608SOL    HW334205   0.243   5.659   2.977 -0.0150 -0.3429  0.5878
 8608SOL    MW434206   0.260   5.638   2.895  0.1659 -0.5463  0.6761
 8609SOL     OW34207   1.586   1.849   5.503 -0.5839  0.5125 -0.3282
 8609SOL    HW234208   1.547   1.843   5.590 -1.0608  1.7938 -0.4408
 8609SOL    HW334209   1.623   1.937   5.498  0.9612 -0.1211 -0.8112
 8609SOL    MW434210   1.586   1.860   5.514 -0.4430  0.5979 -0.4068
 8610SOL     OW34211   5.014   2.452   4.745  0.7112 -0.2077 -0.1668
 8610SOL    HW234212   4.980   2.363   4.737 -0.1633  0.0502  0.4652
 8610SOL    HW334213   4.949   2.506   4.699  0.0078  0.3488  1.4234
 8610SOL    MW434214   5.001   2.447   4.738  0.5030 -0.1003  0.1264
 8611SOL     OW34215   1.126   2.952   4.082  0.6389 -0.1518 -0.2588
 8611SOL    HW234216   1.163   3.036   4.109  0.3603  0.1311 -0.7447
 8611SOL    HW334217   1.044   2.974   4.039  0.3178 -0.7124  0.0460
 8611SOL    MW434218   1.120   2.966   4.080  0.5598 -0.1884 -0.2827
 8612SOL     OW34219   2.503   0.929   0.941  0.1402 -0.1956  0.1709
 8612SOL    HW234220   2.589   0.966   0.920  0.0407 -0.4277 -0.6530
 8612SOL    HW334221   2.504   0.922   1.037  0.2473  1.7539  0.3581
 8612SOL    MW434222   2.515   0.933   0.951  0.1412  0.0310  0.0869
 8613SOL     OW34223   2.230   4.732   4.478 -0.2009  0.5607  0.6340
 8613SOL    HW234224   2.171   4.808   4.480 -1.2228 -0.2003  0.4017
 8613SOL    HW334225   2.263   4.730   4.388 -0.7398  0.3204  0.4369
 8613SOL    MW434226   2.226   4.742   4.466 -0.4068  0.4286  0.5773
 8614SOL     OW34227   3.924   3.475   6.373  0.3238 -0.7784 -0.2529
 8614SOL    HW234228   3.878   3.408   6.422  0.8096  0.1271  1.5315
 8614SOL    HW334229   4.004   3.492   6.424 -0.4614  2.1525  0.2034
 8614SOL    MW434230   3.929   3.468   6.386  0.2843 -0.2722  0.0428
 8615SOL     OW34231   3.037   0.998   0.413 -0.3112 -0.6440 -0.0870
 8615SOL    HW234232   3.098   0.939   0.370 -0.5383 -1.2329  0.3805
 8615SOL    HW334233   3.027   0.962   0.501 -0.0808  0.3610  0.3706
 8615SOL    MW434234   3.044   0.986   0.419 -0.3108 -0.5891  0.0351
 8616SOL     OW34235   0.429   1.050   2.585  0.4838  0.2570 -0.1561
 8616SOL    HW234236   0.344   1.016   2.560  0.1893  1.0222 -0.2289
 8616SOL    HW334237   0.467   0.983   2.642 -0.7894  0.5730  1.1120
 8616SOL    MW434238   0.423   1.037   2.589  0.2769  0.3996  0.0016
 8617SOL     OW34239   2.392   3.290   5.797 -0.1770 -0.1677  0.0173
 8617SOL    HW234240   2.454   3.271   5.867 -0.3990 -0.0875  0.2377
 8617SOL    HW334241   2.427   3.369   5.755 -0.1060 -0.1476  0.1144
 8617SOL    MW434242   2.405   3.298   5.801 -0.1969 -0.1545  0.0592
 8618SOL     OW34243   5.285   0.098   2.697 -0.2600 -0.0216  0.5832
 8618SOL    HW234244   5.199   0.128   2.668 -0.7614 -0.3698  1.6244
 8618SOL    HW334245   5.320   0.048   2.624 -1.7221 -1.3712  0.7583
 8618SOL    MW434246   5.278   0.095   2.684 -0.5191 -0.2456  0.7436
 8619SOL     OW34247   1.411   5.593   1.768  0.1900 -0.1783  0.0021
 8619SOL    HW234248   1.487   5.566   1.821  1.4208  0.9230 -1.1388
 8619SOL    HW334249   1.444   5.598   1.679 -1.1208  0.7608 -0.4628
 8619SOL    MW434250   1.425   5.590   1.763  0.1795  0.0909 -0.2098
 8620SOL     OW34251   4.620   4.058   6.375  0.0254 -0.1701  0.7146
 8620SOL    HW234252   4.584   4.042   6.462  0.8212 -0.4384  1.0001
 8620SOL    HW334253   4.657   4.146   6.380  2.2954 -1.0857  1.4461
 8620SOL    MW434254   4.620   4.068   6.387  0.4299 -0.3263  0.8488
 8621SOL     OW34255   0.163   5.588   6.178 -0.0001  0.0428  0.5629
 8621SOL    HW234256   0.103   5.544   6.238 -1.1244  1.2635  0.3772
 8621SOL    HW334257   0.162   5.679   6.206  0.6170  0.3585 -0.3863
 8621SOL    MW434258   0.155   5.594   6.190 -0.0670  0.2455  0.4132
 8622SOL     OW34259   3.701   5.446   3.286 -0.2760 -0.3861  0.2185
 8622SOL    HW234260   3.794   5.441   3.309  1.0858 -0.7230 -4.3986
 8622SOL    HW334261   3.689   5.537   3.258 -1.0400 -0.6133 -0.2008
 8622SOL    MW434262   3.712   5.457   3.285 -0.1971 -0.4606 -0.4460
 8623SOL     OW34263   2.141   2.119   0.362  0.6018 -0.0757 -0.1358
 8623SOL    HW234264   2.167   2.191   0.305  0.2242 -2.2362 -3.3738
 8623SOL    HW334265   2.047   2.108   0.346  0.4593 -0.7261  0.9905
 8623SOL    MW434266   2.132   2.127   0.352  0.5332 -0.4465 -0.4144
 8624SOL     OW34267   2.625   2.082   0.910  0.2720  0.1494 -0.5950
 8624SOL    HW234268   2.631   2.093   1.005 -1.4320  0.9262 -0.5405
 8624SOL    HW334269   2.537   2.047   0.896  1.2402 -1.9876 -1.7599
 8624SOL    MW434270   2.614   2.079   0.921  0.1749 -0.0301 -0.7415
 8625SOL     OW34271   1.675   5.349   4.527 -0.1008  0.2259 -0.0213
 8625SOL    HW234272   1.643   5.313   4.444  1.4126 -0.8756 -0.1841
 8625SOL    HW334273   1.621   5.426   4.542  0.0138  0.8704 -2.3902
 8625SOL    MW434274   1.664   5.354   4.518  0.1140  0.1656 -0.3553
 8626SOL     OW34275   2.941   3.003   0.514 -0.5656  0.3712 -0.1447
 8626SOL    HW234276   2.947   3.096   0.492 -1.3017  0.5212  0.2499
 8626SOL    HW334277   2.942   2.958   0.430  4.7013  0.3369 -0.3917
 8626SOL    MW434278   2.942   3.009   0.500  0.0322  0.3865 -0.1252
 8627SOL     OW34279   1.965   6.076   1.160 -0.3234  0.2531 -0.2487
 8627SOL    HW234280   2.032   6.079   1.228 -0.9905 -0.7284  0.4730
 8627SOL    HW334281   1.998   6.013   1.096 -1.2096 -1.4602  0.8831
 8627SOL    MW434282   1.978   6.068   1.161 -0.5283 -0.1024 -0.0041
 8628SOL     OW34283   3.725   6.227   0.782 -0.1222  0.3536  0.4533
 8628SOL    HW234284   3.674   6.260   0.856 -0.8754 -1.2539  0.6875
 8628SOL    HW334285   3.665   6.233   0.707  0.6063  1.8876 -0.0401
 8628SOL    MW434286   3.710   6.232   0.782 -0.1254  0.3439  0.4191
 8629SOL     OW34287   4.400   5.567   1.647  0.6318 -0.2147 -0.3722
 8629SOL    HW234288   4.325   5.509   1.636 -0.6324  1.1179  0.7451
 8629SOL    HW334289   4.473   5.509   1.665 -0.0482 -1.5686 -1.7947
 8629SOL    MW434290   4.400   5.552   1.648  0.3753 -0.2175 -0.4125
 8630SOL     OW34291   3.001   1.066   2.778 -0.1823  0.0606 -0.2626
 8630SOL    HW234292   3.050   1.043   2.699 -0.3159  1.6395 -0.8440
 8630SOL    HW334293   3.013   0.991   2.837  1.3494 -0.3995 -1.1115
 8630SOL    MW434294   3.009   1.053   2.776  0.0022  0.2082 -0.4513
 8631SOL     OW34295   2.822   3.119   3.981 -0.0593  0.0736 -0.3267
 8631SOL    HW234296   2.741   3.159   4.013  0.0871 -0.1065  0.2971
 8631SOL    HW334297   2.798   3.079   3.898 -0.3775  0.8453 -0.6117
 8631SOL    MW434298   2.808   3.119   3.974 -0.0820  0.1517 -0.2820
 8632SOL     OW34299   1.942   2.389   4.645 -0.3353 -0.8760  0.8049
 8632SOL    HW234300   2.034   2.415   4.641 -0.4379 -0.6789 -1.3127
 8632SOL    HW334301   1.943   2.296   4.620 -0.6138 -1.2189  2.0035
 8632SOL    MW434302   1.955   2.380   4.641 -0.3856 -0.8952  0.6836
 8633SOL     OW34303   2.489   6.105   1.765  0.3000 -0.2089 -0.4833
 8633SOL    HW234304   2.430   6.104   1.690  0.8427  1.0464 -0.9446
 8633SOL    HW334305   2.555   6.171   1.744  0.7985 -0.2425  0.8492
 8633SOL    MW434306   2.490   6.114   1.752  0.4373 -0.0477 -0.3684
 8634SOL     OW34307   3.966   0.517   4.797  0.2721 -0.5137 -0.1869
 8634SOL    HW234308   4.058   0.515   4.771 -0.1427  2.7576 -2.4495
 8634SOL    HW334309   3.959   0.592   4.856 -0.7432 -1.5541  1.0692
 8634SOL    MW434310   3.977   0.526   4.801  0.0834 -0.2193 -0.3197
 8635SOL     OW34311   2.118   3.926   2.238 -0.0999 -0.1112 -0.1097
 8635SOL    HW234312   2.069   4.005   2.262  0.8187  0.5609 -0.3914
 8635SOL    HW334313   2.074   3.856   2.287 -1.3734  0.4446 -0.4020
 8635SOL    MW434314   2.105   3.927   2.248 -0.1468  0.0508 -0.1854
 8636SOL     OW34315   4.744   0.440   2.266  0.1071  0.0170 -0.0916
 8636SOL    HW234316   4.811   0.408   2.327 -0.8843 -1.7850  0.1304
 8636SOL    HW334317   4.672   0.468   2.322  0.1026  0.5767 -0.3730
 8636SOL    MW434318   4.744   0.439   2.281 -0.0243 -0.1469 -0.0995
 8637SOL     OW34319   1.651   4.942   0.212 -0.3043  0.1986 -0.1461
 8637SOL    HW234320   1.614   5.030   0.208  0.0201  0.4202  1.1678
 8637SOL    HW334321   1.733   4.952   0.259  0.2854 -0.6510 -0.9486
 8637SOL    MW434322   1.657   4.955   0.218 -0.1837  0.1158 -0.0786
 8638SOL     OW34323   2.127   4.537   3.393 -0.0428  0.0811  0.4658
 8638SOL    HW234324   2.128   4.532   3.298 -0.4810  0.0970  0.4593
 8638SOL    HW334325   2.035   4.532   3.417 -0.0240  1.2474  0.8295
 8638SOL    MW434326   2.115   4.536   3.384 -0.0981  0.2370  0.5130
 8639SOL     OW34327   5.002   1.677   5.256  0.4785  0.8133  0.3160
 8639SOL    HW234328   5.003   1.758   5.205  0.3832  0.5844 -0.0573
 8639SOL    HW334329   5.001   1.705   5.347  2.5099  1.2388  0.2499
 8639SOL    MW434330   5.002   1.691   5.261  0.7339  0.8393  0.2580
 8640SOL     OW34331   4.839   0.288   1.393 -0.0496  0.2120 -0.0363
 8640SOL    HW234332   4.758   0.257   1.353  0.2563 -0.4868 -0.1295
 8640SOL    HW334333   4.884   0.209   1.419  0.5217  0.6062  0.1828
 8640SOL    MW434334   4.834   0.274   1.391  0.0661  0.1718 -0.0197
 8641SOL     OW34335   1.136   0.101   3.979 -0.3347  0.2249  0.2949
 8641SOL    HW234336   1.041   0.087   3.979 -0.7338  2.0591 -2.5865
 8641SOL    HW334337   1.170   0.028   3.926 -0.4898  0.9496 -0.8402
 8641SOL    MW434338   1.128   0.089   3.972 -0.4078  0.5625 -0.2350
 8642SOL     OW34339   2.526   2.504   1.178  0.2127 -0.5504 -0.2780
 8642SOL    HW234340   2.509   2.598   1.183 -1.2932 -0.7929 -0.1723
 8642SOL    HW334341   2.498   2.480   1.090 -0.2716 -1.0415  0.0039
 8642SOL    MW434342   2.520   2.513   1.167 -0.0499 -0.6472 -0.2269
 8643SOL     OW34343   0.743   5.603   0.835  0.8829  0.3236  0.5520
 8643SOL    HW234344   0.652   5.630   0.849  1.5319  2.7376  0.6504
 8643SOL    HW334345   0.794   5.682   0.855  2.8253 -0.2239 -1.8072
 8643SOL    MW434346   0.738   5.617   0.839  1.2248  0.5699  0.2538
 8644SOL     OW34347   0.149   1.406   5.901 -0.6993  0.0570  0.0125
 8644SOL    HW234348   0.088   1.466   5.944 -2.2949 -1.7982  0.4977
 8644SOL    HW334349   0.148   1.433   5.809 -0.4126  1.5168  0.4170
 8644SOL    MW434350   0.141   1.417   5.894 -0.8720  0.0048  0.1299
 8645SOL     OW34351   3.357   0.938   2.397 -0.0783 -0.5735 -0.6823
 8645SOL    HW234352   3.274   0.920   2.440  0.2470  0.2701  0.3343
 8645SOL    HW334353   3.395   1.011   2.446  1.2987 -0.9934 -1.0647
 8645SOL    MW434354   3.351   0.945   2.409  0.1463 -0.5176 -0.5987
 8646SOL     OW34355   4.533   3.657   1.046 -0.0018 -0.2432 -0.2854
 8646SOL    HW234356   4.491   3.679   0.963  0.1931  0.5784 -0.1805
 8646SOL    HW334357   4.465   3.668   1.111  0.1497  0.2595 -0.2097
 8646SOL    MW434358   4.519   3.661   1.043  0.0439 -0.0685 -0.2616
 8647SOL     OW34359   2.700   3.040   1.094 -0.1185 -0.3777 -0.4462
 8647SOL    HW234360   2.742   2.995   1.020  1.0027 -1.5870  0.8759
 8647SOL    HW334361   2.641   2.975   1.131 -0.7749  0.2694 -0.3439
 8647SOL    MW434362   2.698   3.026   1.089 -0.0572 -0.4519 -0.2583
 8648SOL     OW34363   2.908   2.989   1.947 -0.1987 -0.3348 -0.4719
 8648SOL    HW234364   2.816   3.009   1.930 -0.4409 -1.4757 -0.5570
 8648SOL    HW334365   2.926   2.912   1.894  0.9094  0.0734 -0.7151
 8648SOL    MW434366   2.898   2.982   1.938 -0.0845 -0.4315 -0.5152
 8649SOL     OW34367   1.302   3.561   5.654  0.2671 -0.3746 -0.5511
 8649SOL    HW234368   1.280   3.634   5.713 -1.2449 -0.2787 -1.1758
 8649SOL    HW334369   1.253   3.580   5.574 -2.0696 -3.2015  0.0383
 8649SOL    MW434370   1.292   3.573   5.651 -0.2407 -0.7349 -0.5557
 8650SOL     OW34371   5.783   0.409   1.196 -0.1020  0.0757  0.5007
 8650SOL    HW234372   5.877   0.391   1.209 -0.3317 -0.3348  1.7973
 8650SOL    HW334373   5.756   0.344   1.131  0.2725 -0.6183  1.0135
 8650SOL    MW434374   5.792   0.398   1.189 -0.0829 -0.0700  0.7394
 8651SOL     OW34375   6.290   6.202   4.388 -0.1320  0.1748  0.5300
 8651SOL    HW234376   6.251   6.284   4.358  0.2459 -0.2118 -1.1083
 8651SOL    HW334377   6.325   6.161   4.309  1.6284 -0.5560  1.6256
 8651SOL    MW434378   6.289   6.207   4.374  0.1502  0.0274  0.4584
 8652SOL     OW34379   1.496   0.271   5.511  0.1060  0.0005 -0.3448
 8652SOL    HW234380   1.467   0.233   5.428  0.8912  1.4838 -1.3467
 8652SOL    HW334381   1.487   0.366   5.498  1.4425  0.3034  0.7835
 8652SOL    MW434382   1.491   0.279   5.498  0.3859  0.2362 -0.3281
 8653SOL     OW34383   5.307   4.830   1.356  0.1260  0.2240 -0.1978
 8653SOL    HW234384   5.220   4.793   1.368  0.4063 -0.3643  0.0604
 8653SOL    HW334385   5.329   4.867   1.442  0.4642 -0.3685 -0.0212
 8653SOL    MW434386   5.299   4.830   1.369  0.2076  0.0682 -0.1404
 8654SOL     OW34387   2.771   4.434   0.602 -0.2701  0.7108 -0.3790
 8654SOL    HW234388   2.706   4.503   0.591  0.6140  1.4350 -1.1658
 8654SOL    HW334389   2.761   4.379   0.524 -1.3995 -0.4599  0.5329
 8654SOL    MW434390   2.761   4.436   0.590 -0.3025  0.6519 -0.3625
 8655SOL     OW34391   6.173   1.943   1.504  0.3016 -0.4731 -0.1163
 8655SOL    HW234392   6.126   1.964   1.424 -0.8760 -0.7304  0.4892
 8655SOL    HW334393   6.224   1.865   1.482 -2.9438 -2.9160  0.3695
 8655SOL    MW434394   6.174   1.935   1.491 -0.2820 -0.8294  0.0277
 8656SOL     OW34395   4.607   6.047   5.455  0.3165 -0.4037 -0.6914
 8656SOL    HW234396   4.676   6.103   5.491 -0.3645  0.2887 -0.4424
 8656SOL    HW334397   4.629   6.038   5.362  1.1555 -0.8156 -0.4640
 8656SOL    MW434398   4.619   6.053   5.447  0.3374 -0.3667 -0.6285
 8657SOL     OW34399   3.998   1.611   3.358  0.5331  0.3678  0.3694
 8657SOL    HW234400   4.050   1.671   3.412  1.3390  0.4458 -0.4712
 8657SOL    HW334401   3.977   1.538   3.417  0.6021  0.8887  1.0453
 8657SOL    MW434402   4.002   1.609   3.373  0.6486  0.4468  0.3476
 8658SOL     OW34403   5.506   1.112   3.014  0.0231 -0.4299 -0.4275
 8658SOL    HW234404   5.488   1.063   2.934 -0.3330 -1.3538  0.2029
 8658SOL    HW334405   5.426   1.163   3.028 -1.1821 -2.5610  0.9505
 8658SOL    MW434406   5.493   1.112   3.005 -0.1829 -0.8330 -0.1625
 8659SOL     OW34407   0.307   6.074   1.884 -0.4235 -0.0241 -0.1278
 8659SOL    HW234408   0.385   6.043   1.837 -0.4158  0.4366 -0.4146
 8659SOL    HW334409   0.342   6.123   1.959 -0.4186  1.4657 -1.0741
 8659SOL    MW434410   0.322   6.076   1.888 -0.4218  0.2332 -0.2905
 8660SOL     OW34411   6.250   0.481   0.561 -0.2114 -0.0236 -0.3429
 8660SOL    HW234412   6.294   0.512   0.481  1.6865  0.5216  0.8393
 8660SOL    HW334413   6.310   0.418   0.599 -0.7634  0.2128  0.9939
 8660SOL    MW434414   6.264   0.477   0.556 -0.0339  0.0795 -0.0105
 8661SOL     OW34415   0.364   6.154   0.485  0.3904 -0.3549  0.3636
 8661SOL    HW234416   0.455   6.154   0.515  0.9965 -1.6058 -1.2881
 8661SOL    HW334417   0.326   6.077   0.526 -0.2959  0.7711  1.9393
 8661SOL    MW434418   0.371   6.144   0.494  0.3798 -0.3714  0.3536
 8662SOL     OW34419   0.481   4.656   1.663  0.2273 -0.5299  0.2576
 8662SOL    HW234420   0.558   4.708   1.636 -0.9742  1.8928  1.1940
 8662SOL    HW334421   0.518   4.587   1.718  2.0484 -1.7050 -2.1964
 8662SOL    MW434422   0.496   4.654   1.666  0.3091 -0.3653  0.0573
 8663SOL     OW34423   6.247   1.519   3.165  0.2266 -0.2126  0.3439
 8663SOL    HW234424   6.188   1.553   3.232  0.3892 -1.5725  1.2247
 8663SOL    HW334425   6.329   1.566   3.179 -0.4600  1.2714 -0.5120
 8663SOL    MW434426   6.250   1.530   3.176  0.1574 -0.1962  0.3472
 8664SOL     OW34427   5.916   3.605   3.203  0.0578  0.2683 -0.2162
 8664SOL    HW234428   5.899   3.699   3.190  0.4406  0.1394 -1.9472
 8664SOL    HW334429   5.912   3.568   3.115 -0.8250 -1.4930  0.5161
 8664SOL    MW434430   5.913   3.613   3.189 -0.0081  0.0189 -0.3480
 8665SOL     OW34431   1.326   3.520   6.381 -0.1779  0.0250 -0.8593
 8665SOL    HW234432   1.405   3.485   6.339  0.0100 -1.5975  0.7174
 8665SOL    HW334433   1.254   3.481   6.332  0.0386 -1.5418 -0.0226
 8665SOL    MW434434   1.327   3.510   6.369 -0.1245 -0.3958 -0.5409
 8666SOL     OW34435   0.716   1.589   4.515  0.1514 -0.0187 -0.0507
 8666SOL    HW234436   0.746   1.630   4.596  0.4362 -1.8180  0.8116
 8666SOL    HW334437   0.788   1.531   4.490  0.6349  1.4480 -2.3694
 8666SOL    MW434438   0.729   1.587   4.522  0.2528 -0.0626 -0.2428
 8667SOL     OW34439   6.192   4.072   4.614  0.4704  0.8332  0.2310
 8667SOL    HW234440   6.274   4.022   4.614 -0.8184 -1.4431 -0.0406
 8667SOL    HW334441   6.165   4.075   4.523  0.2554  1.5588  0.3172
 8667SOL    MW434442   6.199   4.066   4.602  0.2720  0.6286  0.2065
 8668SOL     OW34443   4.299   5.296   4.478  0.1341  0.3619  0.8664
 8668SOL    HW234444   4.314   5.362   4.411  1.8719 -0.7967  0.0347
 8668SOL    HW334445   4.210   5.312   4.509 -0.7055  0.9904 -1.6600
 8668SOL    MW434446   4.289   5.307   4.473  0.2526  0.2920  0.4233
 8669SOL     OW34447   2.515   1.005   3.543 -0.1948  0.6436 -0.2372
 8669SOL    HW234448   2.572   0.983   3.469 -1.0635  3.8345 -2.0660
 8669SOL    HW334449   2.576   1.034   3.611  0.5545  1.9701 -1.3951
 8669SOL    MW434450   2.531   1.006   3.542 -0.2106  1.2396 -0.6313
 8670SOL     OW34451   3.914   1.828   4.087 -0.5251 -0.3973  0.5141
 8670SOL    HW234452   4.004   1.862   4.092 -0.1847 -1.0506 -0.8028
 8670SOL    HW334453   3.925   1.735   4.069 -1.4807 -0.5570  0.7382
 8670SOL    MW434454   3.928   1.820   4.085 -0.6063 -0.5046  0.3699
 8671SOL     OW34455   6.334   5.272   5.265  1.1183  0.2670  0.2161
 8671SOL    HW234456   6.300   5.255   5.353 -0.2743 -0.8653 -0.5077
 8671SOL    HW334457   6.362   5.187   5.233  0.1749  0.3911 -1.0133
 8671SOL    MW434458   6.333   5.259   5.272  0.8101  0.1340 -0.0416
 8672SOL     OW34459   5.508   5.606   3.211 -0.1669  0.4202 -0.1799
 8672SOL    HW234460   5.528   5.561   3.129  0.1281  0.3910 -0.0910
 8672SOL    HW334461   5.567   5.682   3.212 -0.6472  0.8082 -0.3226
 8672SOL    MW434462   5.518   5.610   3.200 -0.1913  0.4676 -0.1870
 8673SOL     OW34463   2.837   2.916   0.871  0.3066  0.1375 -0.0461
 8673SOL    HW234464   2.801   2.897   0.785  0.2828  1.7693 -0.4278
 8673SOL    HW334465   2.913   2.972   0.854  0.1692  0.6674  0.9986
 8673SOL    MW434466   2.842   2.921   0.857  0.2853  0.4228  0.0413
 8674SOL     OW34467   3.848   0.735   2.349 -0.4435 -0.0392  0.2721
 8674SOL    HW234468   3.867   0.715   2.258 -1.7277  0.9201 -0.2445
 8674SOL    HW334469   3.891   0.819   2.365 -0.2648 -0.1799  0.5356
 8674SOL    MW434470   3.856   0.743   2.340 -0.5894  0.0688  0.2387
 8675SOL     OW34471   3.163   0.504   6.031  0.2593 -0.4896 -0.4679
 8675SOL    HW234472   3.091   0.446   6.057  0.0089  0.6725  1.7068
 8675SOL    HW334473   3.235   0.481   6.090  0.8628 -0.0029 -1.0035
 8675SOL    MW434474   3.163   0.493   6.042  0.3059 -0.2721 -0.2516
 8676SOL     OW34475   4.646   1.572   2.665  0.1565  0.6949 -0.5236
 8676SOL    HW234476   4.661   1.666   2.655 -0.1761  1.0173  1.5774
 8676SOL    HW334477   4.554   1.565   2.693 -0.1189 -0.3504 -1.6084
 8676SOL    MW434478   4.636   1.584   2.667  0.0763  0.5995 -0.3895
 8677SOL     OW34479   1.701   2.420   1.127 -0.2023  0.1033  0.0675
 8677SOL    HW234480   1.741   2.506   1.113 -0.7984  0.3014 -0.4984
 8677SOL    HW334481   1.607   2.435   1.117 -0.4239 -0.3792  1.2452
 8677SOL    MW434482   1.694   2.433   1.124 -0.3102  0.0658  0.1482
 8678SOL     OW34483   6.075   4.300   2.358  0.7388 -0.2881  0.0754
 8678SOL    HW234484   5.998   4.266   2.403  1.1258  0.6832  1.5496
 8678SOL    HW334485   6.063   4.273   2.267 -1.4729  0.0633  0.1930
 8678SOL    MW434486   6.063   4.292   2.352  0.4981 -0.1136  0.2854
 8679SOL     OW34487   6.034   6.119   6.007 -0.1804 -0.3165  0.4696
 8679SOL    HW234488   6.113   6.172   5.996  0.1692 -1.0537 -0.7008
 8679SOL    HW334489   5.968   6.163   5.952 -0.6871  0.4436  1.6393
 8679SOL    MW434490   6.035   6.132   5.998 -0.2011 -0.3135  0.4695
 8680SOL     OW34491   2.583   6.387   4.068  0.3279  0.0536  0.2609
 8680SOL    HW234492   2.517   6.454   4.055 -0.7767 -0.8098  1.1891
 8680SOL    HW334493   2.552   6.313   4.015  1.8642  0.4322 -1.2738
 8680SOL    MW434494   2.570   6.386   4.059  0.3849 -0.0104  0.1808
 8681SOL     OW34495   0.611   5.886   6.315  0.8650 -0.2087 -0.0639
 8681SOL    HW234496   0.672   5.818   6.287  1.1897  0.1616 -0.2725
 8681SOL    HW334497   0.595   5.867   6.408 -0.3047 -1.5061 -0.5141
 8681SOL    MW434498   0.617   5.875   6.324  0.7535 -0.3310 -0.1508
 8682SOL     OW34499   1.444   4.899   5.315 -0.0987  0.0614  0.6260
 8682SOL    HW234500   1.355   4.887   5.349  0.8778 -1.5741  2.8626
 8682SOL    HW334501   1.478   4.975   5.363 -0.1931  0.5885 -0.1151
 8682SOL    MW434502   1.437   4.908   5.325  0.0177 -0.0849  0.8233
 8683SOL     OW34503   3.838   0.059   5.770  0.4854 -0.0357 -0.4677
 8683SOL    HW234504   3.853   0.090   5.681 -1.3088  1.8144 -0.2084
 8683SOL    HW334505   3.803  -0.029   5.759 -2.8828  1.3029 -1.9383
 8683SOL    MW434506   3.835   0.051   5.757 -0.1957  0.3851 -0.6275
 8684SOL     OW34507   2.749   1.200   2.808  0.2134 -0.3944 -0.8204
 8684SOL    HW234508   2.677   1.151   2.769 -0.1004  0.3535 -1.1826
 8684SOL    HW334509   2.827   1.147   2.790 -0.2065 -1.0908 -0.6235
 8684SOL    MW434510   2.750   1.186   2.801  0.1166 -0.3876 -0.8422
 8685SOL     OW34511   2.920   3.354   1.944  0.5508  0.2959 -0.2286
 8685SOL    HW234512   2.841   3.409   1.948  1.2788  1.3561 -0.1878
 8685SOL    HW334513   2.948   3.347   2.036  1.9519  2.0918 -0.4719
 8685SOL    MW434514   2.913   3.360   1.957  0.8317  0.6727 -0.2553
 8686SOL     OW34515   4.678   5.993   5.192  0.2109 -0.2138 -0.2059
 8686SOL    HW234516   4.626   5.950   5.124  0.0063 -0.3531  0.0339
 8686SOL    HW334517   4.688   6.083   5.162  1.1911 -0.5788 -1.0253
 8686SOL    MW434518   4.672   5.999   5.179  0.3132 -0.2803 -0.2824
 8687SOL     OW34519   1.846   5.898   6.419 -0.3471 -0.1656  0.1307
 8687SOL    HW234520   1.845   5.941   6.504 -1.7685  0.1219 -0.0014
 8687SOL    HW334521   1.936   5.907   6.388  0.2660 -0.5887  1.7427
 8687SOL    MW434522   1.857   5.905   6.426 -0.4538 -0.1835  0.3260
 8688SOL     OW34523   0.293   4.815   4.141 -0.6986  0.3134  0.0626
 8688SOL    HW234524   0.230   4.881   4.171 -0.2767  0.3813  0.8310
 8688SOL    HW334525   0.306   4.835   4.048 -1.6848  0.3938 -0.0645
 8688SOL    MW434526   0.287   4.826   4.133 -0.7730  0.3329  0.1472
 8689SOL     OW34527   3.925   0.113   6.193  0.2782 -0.2539  0.1164
 8689SOL    HW234528   3.909   0.192   6.244 -0.7406  0.1133 -0.7387
 8689SOL    HW334529   3.997   0.069   6.239  0.8306  1.1284  0.6389
 8689SOL    MW434530   3.933   0.117   6.206  0.2167 -0.0230  0.0725
 8690SOL     OW34531   3.148   0.591   0.525  0.0798 -0.1050 -0.2477
 8690SOL    HW234532   3.137   0.521   0.461  0.5790 -0.5934  0.1896
 8690SOL    HW334533   3.168   0.669   0.473  1.3071 -0.6642 -0.6676
 8690SOL    MW434534   3.150   0.592   0.510  0.3076 -0.2432 -0.2454
 8691SOL     OW34535   0.833   5.356   1.129  0.7154  0.1936  0.2721
 8691SOL    HW234536   0.827   5.334   1.036  0.8684 -0.0127  0.3104
 8691SOL    HW334537   0.920   5.394   1.139  0.0801  1.8291  0.0004
 8691SOL    MW434538   0.844   5.358   1.118  0.6518  0.3822  0.2413
 8692SOL     OW34539   2.056   4.946   3.450  0.1343  0.6885  0.2371
 8692SOL    HW234540   2.099   4.874   3.496  0.3920  0.7316  0.0657
 8692SOL    HW334541   1.963   4.923   3.453  0.2539  0.1215 -0.2054
 8692SOL    MW434542   2.050   4.933   3.457  0.1841  0.6194  0.1561
 8693SOL     OW34543   1.531   0.411   5.182 -0.0614  0.7748  0.0015
 8693SOL    HW234544   1.513   0.466   5.106 -0.8289 -0.8873 -1.0651
 8693SOL    HW334545   1.447   0.405   5.228  0.1827  1.0283  0.4914
 8693SOL    MW434546   1.517   0.418   5.178 -0.1305  0.5890 -0.0746
 8694SOL     OW34547   5.596   3.911   3.120 -0.2873  0.7432  0.4740
 8694SOL    HW234548   5.539   3.868   3.184 -1.7668  2.2688  0.2269
 8694SOL    HW334549   5.684   3.905   3.158 -0.4608 -2.0355  0.6626
 8694SOL    MW434550   5.600   3.904   3.133 -0.5054  0.5779  0.4663
 8695SOL     OW34551   5.537   3.131   1.497 -0.3547 -0.4839 -0.3326
 8695SOL    HW234552   5.609   3.167   1.446  1.6230 -0.8143  2.0480
 8695SOL    HW334553   5.458   3.156   1.448  0.7749  5.9740  0.2646
 8695SOL    MW434554   5.536   3.139   1.484  0.0552  0.3245  0.0603
 8696SOL     OW34555   0.788   5.067   2.122  0.0209  0.2544  0.4273
 8696SOL    HW234556   0.782   5.125   2.199  0.3951  1.4556 -0.4250
 8696SOL    HW334557   0.698   5.058   2.092 -0.3394 -1.4104  1.8180
 8696SOL    MW434558   0.775   5.074   2.128  0.0227  0.1932  0.4984
 8697SOL     OW34559   0.523   6.202   3.275  0.4632 -0.2759 -0.1129
 8697SOL    HW234560   0.502   6.201   3.368  0.1063  1.3545 -0.1385
 8697SOL    HW334561   0.599   6.144   3.266  0.3520 -0.6319  1.1457
 8697SOL    MW434562   0.530   6.195   3.286  0.4014 -0.1078  0.0498
 8698SOL     OW34563   6.297   2.893   4.834  0.0802  0.1069 -0.1069
 8698SOL    HW234564   6.327   2.976   4.871 -0.7417  1.0817 -1.5296
 8698SOL    HW334565   6.344   2.886   4.750  1.1563 -1.5507  0.5787
 8698SOL    MW434566   6.307   2.903   4.827  0.1138  0.0168 -0.2042
 8699SOL     OW34567   4.498   1.360   3.866 -0.0437 -0.4050 -0.5643
 8699SOL    HW234568   4.465   1.277   3.832 -1.1317 -0.3570  0.3095
 8699SOL    HW334569   4.447   1.427   3.820 -1.5970 -0.3425  1.1440
 8699SOL    MW434570   4.487   1.358   3.855 -0.3922 -0.3904 -0.2236
 8700SOL     OW34571   5.816   1.987   5.755  0.1004  0.4317  0.0960
 8700SOL    HW234572   5.787   1.961   5.667  0.6519 -0.1776  0.0855
 8700SOL    HW334573   5.911   1.985   5.750  0.1675 -1.3505  1.1898
 8700SOL    MW434574   5.825   1.983   5.743  0.1820  0.1162  0.2389
 8701SOL     OW34575   1.709   2.159   4.460  0.2478  0.1081 -0.0869
 8701SOL    HW234576   1.669   2.086   4.412 -2.1929  0.8737  0.6522
 8701SOL    HW334577   1.671   2.238   4.420 -1.7572  0.7855  2.8335
 8701SOL    MW434578   1.699   2.160   4.448 -0.3387  0.2985  0.3959
 8702SOL     OW34579   2.504   3.739   0.926  0.4969  0.3034  0.3309
 8702SOL    HW234580   2.498   3.649   0.895  1.6274  0.9657 -2.1013
 8702SOL    HW334581   2.597   3.752   0.944  0.5586  1.2946 -0.5480
 8702SOL    MW434582   2.516   3.729   0.924  0.6542  0.5216 -0.1060
 8703SOL     OW34583   4.516   6.123   1.520 -0.2446  0.0494  0.0625
 8703SOL    HW234584   4.449   6.099   1.584 -1.3785  1.4307 -0.5298
 8703SOL    HW334585   4.548   6.208   1.550  1.4552 -0.6972  0.4635
 8703SOL    MW434586   4.511   6.131   1.532 -0.1699  0.1332  0.0372
 8704SOL     OW34587   2.956   6.245   4.319  0.4224 -0.2070 -0.0434
 8704SOL    HW234588   2.862   6.245   4.334  0.4856 -0.1301  0.3473
 8704SOL    HW334589   2.971   6.170   4.262 -0.1548  0.9879 -1.8546
 8704SOL    MW434590   2.946   6.235   4.313  0.3546 -0.0392 -0.2309
 8705SOL     OW34591   1.097   4.648   0.339  0.0170 -0.2403 -0.3741
 8705SOL    HW234592   1.095   4.555   0.316 -1.2055 -0.7416  1.4891
 8705SOL    HW334593   1.102   4.649   0.434  0.9809  1.6377 -0.4030
 8705SOL    MW434594   1.097   4.635   0.348 -0.0171 -0.0586 -0.1321
 8706SOL     OW34595   6.041   3.598   2.702  0.0802 -0.2054 -0.4419
 8706SOL    HW234596   5.989   3.595   2.783 -2.1946 -2.0766 -1.8620
 8706SOL    HW334597   6.006   3.672   2.653 -1.3885 -1.5316 -1.4467
 8706SOL    MW434598   6.030   3.607   2.706 -0.4137 -0.6272 -0.7618
 8707SOL     OW34599   1.496   1.785   2.160  0.3596 -0.2124 -0.1502
 8707SOL    HW234600   1.508   1.705   2.107  1.7359  0.6706 -1.2507
 8707SOL    HW334601   1.516   1.856   2.100 -1.6756  1.0371  0.5894
 8707SOL    MW434602   1.500   1.784   2.145  0.2727  0.0689 -0.1978
 8708SOL     OW34603   0.009   4.392   0.689  0.9928 -0.3901  0.3787
 8708SOL    HW234604   0.040   4.438   0.611  0.9511 -0.7196  0.1658
 8708SOL    HW334605  -0.085   4.383   0.677  0.5919  1.6907  1.5949
 8708SOL    MW434606   0.001   4.397   0.678  0.9344 -0.1590  0.5111
 8709SOL     OW34607   4.601   4.909   3.313 -0.4252  0.2566 -0.9154
 8709SOL    HW234608   4.677   4.967   3.323 -1.0327  1.1662 -1.4456
 8709SOL    HW334609   4.626   4.829   3.359 -0.0663  1.3939  0.9838
 8709SOL    MW434610   4.614   4.906   3.320 -0.4580  0.5266 -0.7348
 8710SOL     OW34611   2.860   1.702   0.567  0.6382 -0.5786  0.5185
 8710SOL    HW234612   2.787   1.726   0.624 -0.1588  1.2827 -1.1414
 8710SOL    HW334613   2.854   1.607   0.559 -1.8118 -0.4703  0.2351
 8710SOL    MW434614   2.850   1.693   0.573  0.2098 -0.3187  0.2621
 8711SOL     OW34615   4.285   6.345   3.279 -0.9198 -0.2075 -0.1350
 8711SOL    HW234616   4.368   6.390   3.295 -0.4624 -0.0691 -2.4985
 8711SOL    HW334617   4.224   6.415   3.259 -0.8701 -0.4576 -1.2037
 8711SOL    MW434618   4.288   6.360   3.279 -0.8529 -0.2222 -0.5879
 8712SOL     OW34619   3.516   2.558   0.649  0.1932  0.1585 -0.1399
 8712SOL    HW234620   3.558   2.614   0.585  0.7973 -0.0315  0.0873
 8712SOL    HW334621   3.466   2.495   0.597 -1.4608  1.6051 -0.3941
 8712SOL    MW434622   3.515   2.557   0.634  0.0547  0.3243 -0.1435
 8713SOL     OW34623   0.830   5.470   5.335  0.0548  0.3320 -0.0207
 8713SOL    HW234624   0.806   5.535   5.402 -0.1183  0.0136  0.2291
 8713SOL    HW334625   0.831   5.520   5.253 -1.4749  0.3682 -0.0429
 8713SOL    MW434626   0.827   5.485   5.333 -0.1698  0.2948  0.0094
 8714SOL     OW34627   5.667   6.117   0.639  0.5869 -0.0924 -0.5425
 8714SOL    HW234628   5.651   6.201   0.596  1.8691  0.6353  0.3363
 8714SOL    HW334629   5.716   6.139   0.718 -0.7734 -1.4839  0.7715
 8714SOL    MW434630   5.671   6.131   0.643  0.5766 -0.1800 -0.2532
 8715SOL     OW34631   1.895   2.971   5.228  1.0270  0.1557  0.2846
 8715SOL    HW234632   1.917   2.921   5.150  1.4788 -0.0965  0.5659
 8715SOL    HW334633   1.873   3.058   5.196 -0.6112 -0.4249 -0.3013
 8715SOL    MW434634   1.895   2.976   5.214  0.8705  0.0458  0.2444
 8716SOL     OW34635   2.874   5.637   4.981 -0.3782  0.3040  0.1506
 8716SOL    HW234636   2.833   5.564   4.934 -1.1877  1.8059 -1.5943
 8716SOL    HW334637   2.810   5.661   5.047 -0.2219 -0.3774  0.5624
 8716SOL    MW434638   2.860   5.630   4.983 -0.4644  0.4122 -0.0253
 8717SOL     OW34639   2.772   5.073   0.925 -0.9257  0.4772  0.4835
 8717SOL    HW234640   2.679   5.098   0.920 -1.3534 -1.2295 -0.9840
 8717SOL    HW334641   2.772   4.980   0.906  0.9934  0.1633  1.8246
 8717SOL    MW434642   2.759   5.064   0.922 -0.7289  0.2106  0.4668
 8718SOL     OW34643   5.078   3.167   5.802 -0.1482  0.1687 -0.2745
 8718SOL    HW234644   5.017   3.153   5.874 -0.0830 -1.4807 -0.4959
 8718SOL    HW334645   5.164   3.143   5.838 -0.0709 -0.3640 -0.7863
 8718SOL    MW434646   5.082   3.162   5.816 -0.1294 -0.1192 -0.3712
 8719SOL     OW34647   4.566   2.000   3.786  0.5775  0.2486  0.0171
 8719SOL    HW234648   4.526   1.942   3.723  2.6012 -0.0886 -1.0445
 8719SOL    HW334649   4.600   1.942   3.854  1.2746  0.3001 -0.2773
 8719SOL    MW434650   4.566   1.985   3.787  0.9365  0.2109 -0.1618
 8720SOL     OW34651   3.228   4.859   5.782  0.0798 -0.2396  0.1470
 8720SOL    HW234652   3.166   4.932   5.775 -0.2821 -0.7182 -2.3166
 8720SOL    HW334653   3.245   4.852   5.876 -0.3607  2.5956  0.5308
 8720SOL    MW434654   3.222   4.868   5.794 -0.0261  0.0713 -0.1274
 8721SOL     OW34655   4.985   3.786   0.516  0.0656  0.1413  0.0516
 8721SOL    HW234656   5.069   3.785   0.562  0.9130 -2.1715 -1.3729
 8721SOL    HW334657   5.000   3.842   0.440  0.3196 -0.2021 -0.1559
 8721SOL    MW434658   4.998   3.793   0.512  0.2109 -0.2092 -0.1637
 8722SOL     OW34659   4.206   2.554   0.372  0.6962  0.1176 -0.0762
 8722SOL    HW234660   4.144   2.517   0.310  1.6742 -1.0399 -0.3992
 8722SOL    HW334661   4.156   2.563   0.453 -0.0454 -0.2694 -0.4810
 8722SOL    MW434662   4.191   2.550   0.375  0.7274 -0.0862 -0.1722
 8723SOL     OW34663   4.704   5.033   5.087 -0.0016 -0.1678  0.4615
 8723SOL    HW234664   4.794   5.056   5.066  0.0131 -0.6460 -0.0272
 8723SOL    HW334665   4.667   5.113   5.124  0.4007  0.2741 -0.0641
 8723SOL    MW434666   4.711   5.047   5.089  0.0534 -0.1726  0.3277
 8724SOL     OW34667   5.848   0.681   0.775  0.2356  0.6232 -0.4721
 8724SOL    HW234668   5.764   0.635   0.769  0.9284 -0.6221 -0.9158
 8724SOL    HW334669   5.858   0.699   0.869 -0.5478  0.8379 -0.4193
 8724SOL    MW434670   5.838   0.677   0.787  0.2237  0.4872 -0.5237
 8725SOL     OW34671   2.614   3.416   0.426  0.2253  0.4341 -0.6610
 8725SOL    HW234672   2.544   3.423   0.491  1.4410 -2.4233  1.1804
 8725SOL    HW334673   2.694   3.431   0.476  1.1009  3.6279 -2.7082
 8725SOL    MW434674   2.615   3.419   0.441  0.5013  0.4785 -0.6881
 8726SOL     OW34675   4.523   1.914   1.171  0.0095 -0.5428 -0.2002
 8726SOL    HW234676   4.560   1.969   1.102 -2.0079  0.6146 -0.4435
 8726SOL    HW334677   4.468   1.974   1.222  1.3431 -1.3614  2.3970
 8726SOL    MW434678   4.521   1.929   1.169 -0.0807 -0.4981  0.1103
 8727SOL     OW34679   3.442   0.614   3.457 -0.0167 -0.1812 -0.0667
 8727SOL    HW234680   3.537   0.613   3.455 -0.0041 -1.4171  0.3501
 8727SOL    HW334681   3.418   0.685   3.397  1.1617  0.8448  0.6302
 8727SOL    MW434682   3.451   0.623   3.449  0.1404 -0.2089  0.0803
 8728SOL     OW34683   3.241   1.330   3.249  0.0887 -0.2624  0.2121
 8728SOL    HW234684   3.199   1.401   3.297  0.2405 -1.0789  1.6051
 8728SOL    HW334685   3.206   1.250   3.288 -0.5641 -1.0042 -1.7424
 8728SOL    MW434686   3.231   1.328   3.260  0.0226 -0.4680  0.1381
 8729SOL     OW34687   5.850   6.311   5.897  0.1904 -0.5278 -0.1975
 8729SOL    HW234688   5.756   6.329   5.906  0.0160 -1.8243  0.8267
 8729SOL    HW334689   5.883   6.384   5.844 -1.5347 -0.4867 -1.2980
 8729SOL    MW434690   5.842   6.323   5.891 -0.0602 -0.6934 -0.2076
 8730SOL     OW34691   1.982   3.676   0.092 -0.2607 -0.1104  0.1602
 8730SOL    HW234692   1.905   3.665   0.036 -0.3166  1.1036 -0.0216
 8730SOL    HW334693   2.051   3.627   0.046 -0.2151  1.1499 -1.1938
 8730SOL    MW434694   1.981   3.668   0.078 -0.2620  0.2160 -0.0424
 8731SOL     OW34695   4.830   4.360   5.967 -0.0904  0.0279 -0.1279
 8731SOL    HW234696   4.845   4.441   6.015 -1.9637  0.5955 -0.4193
 8731SOL    HW334697   4.850   4.382   5.876  1.4524 -0.4651  0.0688
 8731SOL    MW434698   4.835   4.373   5.962 -0.1340  0.0377 -0.1404
 8732SOL     OW34699   3.513   1.065   2.588 -0.2358  0.3885 -0.3587
 8732SOL    HW234700   3.528   1.010   2.665  1.3319  0.2598 -0.7192
 8732SOL    HW334701   3.491   1.151   2.624  2.2449  0.8061  0.3093
 8732SOL    MW434702   3.512   1.069   2.603  0.2984  0.4266 -0.3181
 8733SOL     OW34703   6.023   6.350   4.623  0.4684 -0.6045  0.1861
 8733SOL    HW234704   5.983   6.326   4.707 -0.8710 -0.8931 -0.4984
 8733SOL    HW334705   6.017   6.446   4.621  0.5207 -0.5948  0.4210
 8733SOL    MW434706   6.017   6.360   4.634  0.2986 -0.6413  0.1268
 8734SOL     OW34707   4.606   0.639   2.014  0.6084 -0.1384 -0.2032
 8734SOL    HW234708   4.560   0.620   2.096  1.1062  1.7254  0.5577
 8734SOL    HW334709   4.546   0.693   1.963  0.4172 -1.0448 -0.9740
 8734SOL    MW434710   4.592   0.644   2.018  0.6488 -0.0121 -0.2045
 8735SOL     OW34711   1.971   5.869   4.238 -0.6407 -0.2355  0.0095
 8735SOL    HW234712   1.904   5.817   4.281 -1.7276  1.3657  0.3588
 8735SOL    HW334713   1.967   5.843   4.146 -0.1623 -1.7551  0.4025
 8735SOL    MW434714   1.961   5.859   4.231 -0.7210 -0.2247  0.1074
 8736SOL     OW34715   0.557   1.262   1.601 -0.5088  0.2222  0.0282
 8736SOL    HW234716   0.628   1.318   1.572 -1.0480  1.4286  0.9298
 8736SOL    HW334717   0.528   1.301   1.684 -1.7386 -0.6611  0.0468
 8736SOL    MW434718   0.562   1.274   1.608 -0.7422  0.2649  0.1496
 8737SOL     OW34719   3.240   4.024   1.960 -0.0781 -0.5511 -0.2432
 8737SOL    HW234720   3.246   4.091   2.028 -0.0208 -1.0872  0.2879
 8737SOL    HW334721   3.330   4.013   1.928  0.2918 -1.8590  1.1413
 8737SOL    MW434722   3.253   4.031   1.964 -0.0218 -0.7944  0.0096
 8738SOL     OW34723   0.763   3.740   0.839  0.1903  0.3763  0.0715
 8738SOL    HW234724   0.793   3.733   0.930  0.9986 -1.8603 -0.3217
 8738SOL    HW334725   0.843   3.731   0.787 -0.3591  0.9802 -0.9006
 8738SOL    MW434726   0.778   3.738   0.844  0.2245  0.1609 -0.1086
 8739SOL     OW34727   4.992   1.661   4.567  0.3129  0.0309 -0.0710
 8739SOL    HW234728   5.011   1.640   4.475  0.3667 -0.2493  0.0052
 8739SOL    HW334729   4.898   1.644   4.577 -0.0885  1.7106 -0.5289
 8739SOL    MW434730   4.982   1.656   4.556  0.2670  0.2155 -0.1214
 8740SOL     OW34731   0.313   3.230   0.084  0.2716  0.5533 -0.0905
 8740SOL    HW234732   0.230   3.271   0.107  0.4349 -0.3361  2.3805
 8740SOL    HW334733   0.348   3.283   0.012 -2.8022  0.4297 -1.8130
 8740SOL    MW434734   0.307   3.242   0.077 -0.1124  0.4197  0.0083
 8741SOL     OW34735   2.370   5.887   3.601  0.4033  0.1051 -0.0197
 8741SOL    HW234736   2.459   5.854   3.615  0.6027  0.3894 -0.5645
 8741SOL    HW334737   2.315   5.833   3.658  1.0137  0.4206  0.8834
 8741SOL    MW434738   2.375   5.875   3.610  0.5102  0.1842  0.0276
 8742SOL     OW34739   4.936   4.813   1.079 -0.1251 -0.4174  0.0275
 8742SOL    HW234740   5.012   4.835   1.026 -0.5618 -0.0859 -0.4766
 8742SOL    HW334741   4.972   4.776   1.159  0.7181  2.6626  1.2065
 8742SOL    MW434742   4.951   4.811   1.082 -0.0715  0.0327  0.1166
 8743SOL     OW34743   5.092   4.857   5.258  0.3437  0.2645 -0.1145
 8743SOL    HW234744   5.156   4.903   5.204 -0.0344  1.3938  0.3547
 8743SOL    HW334745   5.113   4.884   5.348 -1.3074  1.3957 -0.0118
 8743SOL    MW434746   5.103   4.867   5.263  0.0759  0.5628 -0.0390
 8744SOL     OW34747   5.549   1.096   0.522  0.3264 -0.2803 -0.3090
 8744SOL    HW234748   5.592   1.012   0.538  1.8147  0.3317 -0.8636
 8744SOL    HW334749   5.607   1.161   0.563 -0.2571  0.5584 -0.7791
 8744SOL    MW434750   5.562   1.093   0.530  0.4458 -0.0889 -0.4442
 8745SOL     OW34751   0.329   0.151   3.883  0.4412  0.1577  0.2773
 8745SOL    HW234752   0.335   0.105   3.799 -0.4922  0.1435  0.2130
 8745SOL    HW334753   0.297   0.084   3.944  0.2692  0.4039  0.4549
 8745SOL    MW434754   0.326   0.136   3.880  0.2954  0.1883  0.2922
 8746SOL     OW34755   3.189   5.383   3.677  0.5748 -0.1755 -0.0781
 8746SOL    HW234756   3.279   5.369   3.649  0.4342  0.3614 -0.8547
 8746SOL    HW334757   3.181   5.336   3.760  1.5301 -0.3223 -0.0618
 8746SOL    MW434758   3.200   5.375   3.684  0.6823 -0.1240 -0.1784
 8747SOL     OW34759   0.280   5.379   2.765 -0.0579  0.3592 -0.2577
 8747SOL    HW234760   0.240   5.456   2.807  0.7820  0.7341 -0.1402
 8747SOL    HW334761   0.363   5.367   2.811  1.6194  1.6831 -2.7625
 8747SOL    MW434762   0.285   5.387   2.777  0.2742  0.5833 -0.5727
 8748SOL     OW34763   5.588   6.375   6.284  0.8469 -0.0724  0.8117
 8748SOL    HW234764   5.626   6.301   6.331  0.3368 -0.3261  0.8212
 8748SOL    HW334765   5.502   6.388   6.324 -0.8808 -2.1318 -1.8732
 8748SOL    MW434766   5.582   6.367   6.296  0.5516 -0.3776  0.4587
 8749SOL     OW34767   2.088   6.093   1.422 -0.3349  0.2314 -0.1107
 8749SOL    HW234768   2.038   6.170   1.450 -0.3732  0.6557 -1.2596
 8749SOL    HW334769   2.045   6.019   1.464 -0.9557  0.7445  0.1665
 8749SOL    MW434770   2.076   6.094   1.431 -0.4219  0.3551 -0.2257
 8750SOL     OW34771   2.715   1.716   4.869  0.1254  0.3260  0.3559
 8750SOL    HW234772   2.690   1.726   4.961  0.7158 -2.3031  0.8754
 8750SOL    HW334773   2.633   1.694   4.824  0.3808 -2.3984  1.0348
 8750SOL    MW434774   2.701   1.714   4.876  0.2370 -0.3803  0.5140
 8751SOL     OW34775   5.653   4.758   2.226 -0.3382  0.7781  0.0071
 8751SOL    HW234776   5.571   4.775   2.180 -0.0208  1.5139 -0.3024
 8751SOL    HW334777   5.719   4.752   2.157 -0.4443 -2.2448  0.0120
 8751SOL    MW434778   5.651   4.759   2.211 -0.3103  0.4763 -0.0331
 8752SOL     OW34779   1.331   6.167   4.102 -0.1261 -0.0566  0.7787
 8752SOL    HW234780   1.287   6.227   4.162 -1.2134  1.7474 -1.6413
 8752SOL    HW334781   1.336   6.084   4.150 -0.8227  1.2849  3.3353
 8752SOL    MW434782   1.326   6.164   4.116 -0.3615  0.3584  0.7967
 8753SOL     OW34783   1.198   5.685   2.426  0.2274 -0.0817 -0.1204
 8753SOL    HW234784   1.219   5.724   2.510  2.2723 -1.4364  0.0737
 8753SOL    HW334785   1.220   5.592   2.436 -1.2744 -0.6568 -1.5894
 8753SOL    MW434786   1.204   5.678   2.438  0.2991 -0.3363 -0.2886
 8754SOL     OW34787   4.824   0.138   4.478 -0.0957  0.9412  0.5021
 8754SOL    HW234788   4.759   0.126   4.409 -0.3644  0.8888  0.7623
 8754SOL    HW334789   4.773   0.160   4.556  0.1648  0.5025  0.8017
 8754SOL    MW434790   4.809   0.139   4.479 -0.0968  0.8764  0.5759
 8755SOL     OW34791   1.081   1.202   3.505 -0.6049  0.5329 -0.7942
 8755SOL    HW234792   0.991   1.172   3.489 -1.1021  0.8179  1.2723
 8755SOL    HW334793   1.073   1.266   3.575  1.4104 -0.7729  0.7384
 8755SOL    MW434794   1.068   1.207   3.512 -0.4046  0.3982 -0.3194
 8756SOL     OW34795   3.695   1.814   4.569  0.7459 -0.5984  0.1906
 8756SOL    HW234796   3.662   1.860   4.492 -0.2012 -1.6479 -0.0593
 8756SOL    HW334797   3.640   1.846   4.641  0.5588 -0.7934  0.1379
 8756SOL    MW434798   3.683   1.824   4.569  0.5962 -0.7626  0.1506
 8757SOL     OW34799   1.377   1.581   5.790 -0.1052  0.1328  0.2810
 8757SOL    HW234800   1.351   1.545   5.705  0.2505 -0.5654  0.4639
 8757SOL    HW334801   1.465   1.548   5.805  0.0012  0.6059  0.7271
 8757SOL    MW434802   1.385   1.572   5.781 -0.0442  0.1031  0.3640
 8758SOL     OW34803   3.134   3.843   1.031 -0.4297 -0.4746 -0.1741
 8758SOL    HW234804   3.190   3.867   0.957 -1.4554 -0.0750 -0.8537
 8758SOL    HW334805   3.094   3.760   1.004 -0.3344 -0.6450  0.2071
 8758SOL    MW434806   3.136   3.835   1.017 -0.5525 -0.4443 -0.2135
 8759SOL     OW34807   1.042   6.311   5.168  0.9434 -0.2947 -0.5125
 8759SOL    HW234808   0.969   6.264   5.127  1.4534 -1.1764 -0.4266
 8759SOL    HW334809   1.068   6.256   5.241 -0.4633  1.6150  1.5614
 8759SOL    MW434810   1.036   6.298   5.172  0.8251 -0.1591 -0.2275
 8760SOL     OW34811   1.765   3.801   3.372 -0.1370  0.2211 -0.4739
 8760SOL    HW234812   1.776   3.765   3.284  0.7881  0.8196 -0.6147
 8760SOL    HW334813   1.760   3.724   3.429  0.6539 -0.1540 -0.8964
 8760SOL    MW434814   1.766   3.786   3.368  0.0894  0.2506 -0.5482
 8761SOL     OW34815   4.419   2.892   5.340  0.1182  0.8712  0.0357
 8761SOL    HW234816   4.481   2.856   5.402 -1.8238  1.7116  2.6351
 8761SOL    HW334817   4.447   2.983   5.328 -1.0147  1.4977  1.8690
 8761SOL    MW434818   4.431   2.900   5.347 -0.2875  1.0647  0.6205
 8762SOL     OW34819   0.816   1.527   1.083 -0.2310 -0.0746 -0.2506
 8762SOL    HW234820   0.795   1.436   1.060 -2.2182  0.1773  0.4624
 8762SOL    HW334821   0.750   1.579   1.038 -1.0291  0.7796  1.7912
 8762SOL    MW434822   0.805   1.522   1.074 -0.5985  0.0713  0.1129
 8763SOL     OW34823   5.892   4.761   1.453 -0.5977 -0.0016  0.0917
 8763SOL    HW234824   5.893   4.825   1.524  1.3510  0.6751 -0.4798
 8763SOL    HW334825   5.919   4.679   1.495  1.0021  0.4933  0.0999
 8763SOL    MW434826   5.895   4.759   1.468 -0.1295  0.1530  0.0174
 8764SOL     OW34827   3.065   1.201   0.709  0.0074 -0.0645  0.3808
 8764SOL    HW234828   2.991   1.245   0.753 -1.8693 -1.0164 -1.6256
 8764SOL    HW334829   3.065   1.238   0.621  0.9667 -1.1935 -0.1158
 8764SOL    MW434830   3.055   1.212   0.704 -0.1136 -0.3391  0.0506
 8765SOL     OW34831   5.556   2.541   2.397  0.0579 -0.2096  0.2195
 8765SOL    HW234832   5.544   2.631   2.427 -1.3183  0.1007 -1.1569
 8765SOL    HW334833   5.478   2.495   2.427 -0.6840 -0.2137 -1.6029
 8765SOL    MW434834   5.544   2.547   2.405 -0.2215 -0.1692 -0.2025
 8766SOL     OW34835   0.744   1.927   4.854 -0.0283 -0.1308 -0.3980
 8766SOL    HW234836   0.748   1.870   4.777 -1.5558  0.1496 -0.7084
 8766SOL    HW334837   0.825   1.978   4.850  0.5894 -1.1243 -1.0099
 8766SOL    MW434838   0.755   1.926   4.844 -0.1484 -0.2249 -0.5197
 8767SOL     OW34839   6.189   5.618   2.950  0.0039 -0.5496  0.0873
 8767SOL    HW234840   6.214   5.586   2.863  2.9071  0.5550  0.4066
 8767SOL    HW334841   6.202   5.712   2.945 -1.4625 -0.2514  1.2659
 8767SOL    MW434842   6.194   5.626   2.938  0.1935 -0.3645  0.2849
 8768SOL     OW34843   1.476   4.747   3.890 -0.7349  0.3995 -0.1166
 8768SOL    HW234844   1.448   4.733   3.981 -0.3146 -0.5690 -0.1182
 8768SOL    HW334845   1.524   4.830   3.892  0.7543 -0.4392  0.9206
 8768SOL    MW434846   1.479   4.756   3.903 -0.4830  0.1611  0.0200
 8769SOL     OW34847   2.261   6.229   4.492  0.6523  0.3430  0.2086
 8769SOL    HW234848   2.236   6.270   4.575 -0.9930  1.6782 -0.8618
 8769SOL    HW334849   2.184   6.178   4.467 -0.2727  2.6431 -2.0597
 8769SOL    MW434850   2.247   6.227   4.500  0.3132  0.8227 -0.2319
 8770SOL     OW34851   1.028   4.595   6.178  0.0501 -0.0250 -0.3431
 8770SOL    HW234852   1.021   4.570   6.270 -0.3422 -0.3838 -0.4647
 8770SOL    HW334853   0.942   4.633   6.157  0.0410 -0.2018 -0.6335
 8770SOL    MW434854   1.015   4.597   6.187 -0.0028 -0.0956 -0.3974
 8771SOL     OW34855   3.102   4.605   6.367 -0.7002  0.3430 -0.2184
 8771SOL    HW234856   3.121   4.698   6.379  0.9090 -0.0176  0.3770
 8771SOL    HW334857   3.047   4.582   6.442 -2.8494  1.2085 -1.4425
 8771SOL    MW434858   3.098   4.614   6.378 -0.7715  0.4096 -0.3014
 8772SOL     OW34859   5.158   0.392   2.107 -0.0333  0.1920  0.1120
 8772SOL    HW234860   5.131   0.304   2.082 -0.3089  0.4940 -0.7038
 8772SOL    HW334861   5.075   0.440   2.119  0.1157  0.5022 -0.0758
 8772SOL    MW434862   5.143   0.387   2.105 -0.0500  0.2728 -0.0204
 8773SOL     OW34863   3.058   0.873   5.957  0.3829  0.0454 -0.4369
 8773SOL    HW234864   3.133   0.816   5.939  0.7213  0.7008 -1.1709
 8773SOL    HW334865   3.004   0.823   6.018  1.9472 -0.0134  0.9863
 8773SOL    MW434866   3.061   0.858   5.962  0.6339  0.1241 -0.3459
 8774SOL     OW34867   6.109   1.900   0.833 -0.3863 -0.6207  0.0929
 8774SOL    HW234868   6.114   1.961   0.758 -2.3947  1.9932  1.8932
 8774SOL    HW334869   6.089   1.956   0.908 -0.4070 -3.3588  2.2995
 8774SOL    MW434870   6.107   1.916   0.833 -0.6540 -0.6371  0.6216
 8775SOL     OW34871   5.344   6.083   5.919  0.2416  0.5255 -0.3993
 8775SOL    HW234872   5.335   6.013   5.854 -0.3730  0.5973 -0.3909
 8775SOL    HW334873   5.437   6.080   5.944  0.0828 -0.7815  0.1457
 8775SOL    MW434874   5.355   6.073   5.914  0.1396  0.3625 -0.3263
 8776SOL     OW34875   1.170   5.508   5.371 -0.1004  0.2189 -0.5459
 8776SOL    HW234876   1.223   5.524   5.449  2.0916 -3.7642 -0.9801
 8776SOL    HW334877   1.093   5.461   5.403 -1.2271  2.0459 -0.4405
 8776SOL    MW434878   1.167   5.504   5.385  0.0401 -0.0656 -0.5892
 8777SOL     OW34879   5.615   0.240   1.685  0.1001 -0.0309  0.2834
 8777SOL    HW234880   5.619   0.257   1.591 -3.3159  0.4194  0.1086
 8777SOL    HW334881   5.603   0.326   1.725  2.7879 -0.0609  1.3470
 8777SOL    MW434882   5.614   0.254   1.678  0.0040  0.0245  0.4007
 8778SOL     OW34883   5.416   3.151   5.161  0.3390  0.6436  0.4379
 8778SOL    HW234884   5.446   3.061   5.174  0.7079  0.4559 -1.4471
 8778SOL    HW334885   5.487   3.205   5.196 -0.4554  0.2642  2.8063
 8778SOL    MW434886   5.429   3.147   5.167  0.2829  0.5688  0.5017
 8779SOL     OW34887   4.129   2.539   4.746  0.1757 -0.1469  0.0481
 8779SOL    HW234888   4.040   2.574   4.751  0.7028  1.1910  0.3163
 8779SOL    HW334889   4.135   2.479   4.821  0.0714  1.1531  1.1432
 8779SOL    MW434890   4.118   2.535   4.757  0.2315  0.2011  0.2279
 8780SOL     OW34891   0.646   6.160   0.542  0.1847  0.2475  0.0272
 8780SOL    HW234892   0.674   6.237   0.592 -1.3996  0.6510  0.3333
 8780SOL    HW334893   0.669   6.086   0.597 -0.5345  0.6359  0.8781
 8780SOL    MW434894   0.653   6.161   0.556 -0.1192  0.3520  0.1798
 8781SOL     OW34895   4.731   1.044   3.800  0.0968 -0.0211 -0.5369
 8781SOL    HW234896   4.756   1.104   3.870 -2.9115  0.6225  0.1265
 8781SOL    HW334897   4.745   1.094   3.719  1.1156  0.1957 -0.2312
 8781SOL    MW434898   4.736   1.058   3.798 -0.1657  0.0924 -0.4091
 8782SOL     OW34899   1.266   5.144   3.759 -0.1595 -0.4121 -0.1410
 8782SOL    HW234900   1.270   5.097   3.842 -0.3177 -0.3923 -0.1234
 8782SOL    HW334901   1.282   5.077   3.693  1.4538 -0.1929 -0.0256
 8782SOL    MW434902   1.269   5.129   3.761  0.0325 -0.3805 -0.1234
 8783SOL     OW34903   6.275   0.744   5.936  0.0419 -0.0376 -0.3474
 8783SOL    HW234904   6.265   0.678   6.004 -0.3733  1.2609  0.8942
 8783SOL    HW334905   6.274   0.827   5.982 -0.1777  0.8908 -1.9315
 8783SOL    MW434906   6.273   0.746   5.951 -0.0419  0.2562 -0.3926
 8784SOL     OW34907   6.221   5.587   4.740 -0.0159  0.3549 -0.4587
 8784SOL    HW234908   6.300   5.542   4.711  0.7597 -0.6017  2.7390
 8784SOL    HW334909   6.252   5.666   4.784 -0.8686  0.3121  0.2581
 8784SOL    MW434910   6.236   5.592   4.742 -0.0261  0.2231  0.0578
 8785SOL     OW34911   1.626   2.664   3.758  0.2105 -0.0974 -0.1066
 8785SOL    HW234912   1.609   2.622   3.842 -1.1735  0.4186 -0.1039
 8785SOL    HW334913   1.719   2.687   3.760  0.6089 -1.6277  0.5675
 8785SOL    MW434914   1.636   2.661   3.769  0.0805 -0.2313 -0.0173
 8786SOL     OW34915   6.265   2.713   2.413 -0.4252 -0.3914  0.0552
 8786SOL    HW234916   6.236   2.697   2.503 -0.0473  1.0573  0.4643
 8786SOL    HW334917   6.360   2.717   2.419 -0.3984  3.8342  0.4875
 8786SOL    MW434918   6.273   2.712   2.426 -0.3718  0.3573  0.1663
 8787SOL     OW34919   3.229   5.571   6.016 -0.2953  0.1761  0.1682
 8787SOL    HW234920   3.179   5.621   5.951  1.2918 -0.9444 -2.0612
 8787SOL    HW334921   3.171   5.499   6.040 -0.1498 -0.6494 -1.7713
 8787SOL    MW434922   3.215   5.568   6.010 -0.0668 -0.0807 -0.3818
 8788SOL     OW34923   4.163   0.189   3.247 -0.0056 -0.0386 -0.1777
 8788SOL    HW234924   4.099   0.221   3.183  0.3264 -1.9517 -1.5390
 8788SOL    HW334925   4.243   0.236   3.226 -0.1538  0.0688 -0.5073
 8788SOL    MW434926   4.165   0.199   3.236  0.0186 -0.2769 -0.4008
 8789SOL     OW34927   5.438   2.538   4.908  1.0756  0.0626 -0.6672
 8789SOL    HW234928   5.466   2.447   4.896 -0.2716 -0.6507  1.1268
 8789SOL    HW334929   5.388   2.558   4.829  0.6835 -1.0495 -0.7157
 8789SOL    MW434930   5.435   2.529   4.896  0.8461 -0.1782 -0.4369
 8790SOL     OW34931   3.470   6.193   6.103 -0.5088 -0.4186 -0.0138
 8790SOL    HW234932   3.505   6.105   6.085  0.8978 -0.2353  1.5963
 8790SOL    HW334933   3.524   6.252   6.050  0.4377 -0.3047  1.0418
 8790SOL    MW434934   3.482   6.189   6.094 -0.1983 -0.3794  0.3379
 8791SOL     OW34935   0.790   4.923   5.876 -0.4384  0.3839  0.3386
 8791SOL    HW234936   0.777   4.904   5.783 -1.7274  0.3986  0.5020
 8791SOL    HW334937   0.703   4.944   5.909  0.0651  0.7782  1.4681
 8791SOL    MW434938   0.777   4.923   5.868 -0.5421  0.4379  0.5092
 8792SOL     OW34939   1.588   1.200   2.901  0.8052 -0.5051 -0.0794
 8792SOL    HW234940   1.539   1.120   2.917 -0.1209  0.3125  1.3695
 8792SOL    HW334941   1.532   1.270   2.934  2.5165  0.5482  0.7755
 8792SOL    MW434942   1.574   1.198   2.908  0.9088 -0.2582  0.2246
 8793SOL     OW34943   5.281   6.283   0.469 -0.2610  0.4055  0.0049
 8793SOL    HW234944   5.201   6.286   0.416 -1.2577  1.0253  1.4642
 8793SOL    HW334945   5.319   6.370   0.460  0.2238  0.1295 -0.6408
 8793SOL    MW434946   5.275   6.295   0.461 -0.3285  0.4509  0.1123
 8794SOL     OW34947   6.405   4.557   0.467  0.3590 -0.2480 -0.5619
 8794SOL    HW234948   6.337   4.595   0.523  1.5494  0.6262  0.3565
 8794SOL    HW334949   6.375   4.468   0.450 -0.6868 -0.1016  0.3687
 8794SOL    MW434950   6.392   4.551   0.472  0.3781 -0.1133 -0.3179
 8795SOL     OW34951   3.170   3.750   0.438  0.2292  0.3290  0.5536
 8795SOL    HW234952   3.166   3.765   0.343  0.1350  0.9779  0.6565
 8795SOL    HW334953   3.242   3.687   0.449 -2.0781 -2.7367 -0.2838
 8795SOL    MW434954   3.179   3.743   0.427 -0.0877  0.0102  0.4567
 8796SOL     OW34955   5.932   1.396   1.356 -0.0536  0.2675 -0.2272
 8796SOL    HW234956   6.011   1.444   1.381  1.0084 -0.4926 -1.9464
 8796SOL    HW334957   5.861   1.459   1.368  0.6351  0.6869  2.2443
 8796SOL    MW434958   5.934   1.411   1.361  0.1774  0.2225 -0.1279
 8797SOL     OW34959   3.252   4.665   4.436 -0.7077  0.0537  0.0099
 8797SOL    HW234960   3.323   4.727   4.452  2.3375 -2.3609 -2.7857
 8797SOL    HW334961   3.194   4.711   4.375 -0.1137  1.0896  0.1923
 8797SOL    MW434962   3.254   4.679   4.430 -0.2275 -0.1282 -0.3349
 8798SOL     OW34963   6.104   6.153   0.516  0.3012  0.0429 -0.1206
 8798SOL    HW234964   6.091   6.069   0.560  0.7444 -0.9335 -1.7854
 8798SOL    HW334965   6.037   6.210   0.554  0.1417 -0.9705  1.2118
 8798SOL    MW434966   6.094   6.149   0.527  0.3386 -0.2196 -0.1645
 8799SOL     OW34967   1.405   2.493   5.842  0.2144  0.2375 -0.4297
 8799SOL    HW234968   1.384   2.580   5.875  1.0861  0.7802 -1.2436
 8799SOL    HW334969   1.361   2.433   5.902 -0.9117  1.2458 -0.2144
 8799SOL    MW434970   1.397   2.497   5.854  0.1809  0.4422 -0.5087
 8800SOL     OW34971   0.878   2.631   5.095 -0.3954 -0.5069 -0.8200
 8800SOL    HW234972   0.942   2.585   5.150 -1.2727  0.3699  1.0112
 8800SOL    HW334973   0.854   2.567   5.028  2.0869 -0.9796 -1.3503
 8800SOL    MW434974   0.884   2.616   5.093 -0.1836 -0.4536 -0.6484
 8801SOL     OW34975   1.490   2.495   3.970  0.0197 -0.4724 -0.4101
 8801SOL    HW234976   1.429   2.520   4.040  0.3230 -0.6892 -0.0606
 8801SOL    HW334977   1.548   2.430   4.011  1.5754  0.9738 -0.1920
 8801SOL    MW434978   1.490   2.490   3.985  0.2650 -0.3102 -0.3352
 8802SOL     OW34979   3.375   3.003   2.415  0.0339 -0.1199  0.7082
 8802SOL    HW234980   3.371   3.047   2.500  0.9444  0.1101  0.6450
 8802SOL    HW334981   3.458   2.956   2.416  0.2463  0.2052 -0.1931
 8802SOL    MW434982   3.385   3.003   2.426  0.1820 -0.0467  0.5809
 8803SOL     OW34983   2.994   5.814   4.259  0.3420  0.1271 -0.1740
 8803SOL    HW234984   2.979   5.871   4.184 -0.1139 -0.5767 -0.6285
 8803SOL    HW334985   2.972   5.726   4.228 -0.5984 -0.0762  0.9853
 8803SOL    MW434986   2.989   5.810   4.245  0.1577  0.0074 -0.0810
 8804SOL     OW34987   4.472   2.253   0.541 -0.1781  0.3472  0.5885
 8804SOL    HW234988   4.471   2.198   0.462 -2.4746  1.9075 -0.6167
 8804SOL    HW334989   4.560   2.290   0.543 -0.3837  1.2253 -2.0378
 8804SOL    MW434990   4.483   2.251   0.531 -0.5082  0.6689  0.0830
 8805SOL     OW34991   2.986   1.809   2.645  0.0738 -0.8853  0.2748
 8805SOL    HW234992   2.904   1.828   2.690  0.4433 -2.0470  1.4975
 8805SOL    HW334993   3.054   1.822   2.712  0.8394 -0.4562 -0.5685
 8805SOL    MW434994   2.984   1.813   2.660  0.2236 -0.9820  0.3249
 8806SOL     OW34995   4.669   1.701   3.208  0.2242 -0.3633 -0.3560
 8806SOL    HW234996   4.609   1.775   3.208  0.7405  0.0960  0.9743
 8806SOL    HW334997   4.634   1.641   3.143 -1.2009  0.2574 -0.1944
 8806SOL    MW434998   4.657   1.703   3.199  0.1043 -0.2208 -0.1592
 8807SOL     OW34999   1.514   2.420   0.648  0.1108  0.0122  0.5645
 8807SOL    HW235000   1.547   2.410   0.559 -1.5409 -1.6428  0.0695
 8807SOL    HW335001   1.580   2.380   0.704  1.0921  0.9415  0.1049
 8807SOL    MW435002   1.527   2.413   0.644  0.0224 -0.0836  0.4385
 8808SOL     OW35003   5.540   6.098   1.145 -0.0181 -0.3359  0.6229
 8808SOL    HW235004   5.507   6.120   1.058  0.7914  0.8083  0.5768
 8808SOL    HW335005   5.635   6.095   1.133  0.2003  1.1879  1.7312
 8808SOL    MW435006   5.548   6.100   1.132  0.1175  0.0161  0.7630
 8809SOL     OW35007   2.820   2.320   0.813 -0.2797 -0.0321 -0.3126
 8809SOL    HW235008   2.822   2.240   0.760 -0.8850 -0.4422  0.2668
 8809SOL    HW335009   2.765   2.380   0.763  1.8594  0.8091 -1.7942
 8809SOL    MW435010   2.813   2.317   0.799 -0.0773  0.0248 -0.4316
 8810SOL     OW35011   4.516   3.746   3.674  0.0060  0.3097  0.1773
 8810SOL    HW235012   4.581   3.769   3.608  1.2430 -0.6435  1.0144
 8810SOL    HW335013   4.475   3.829   3.698  1.2065  0.9866 -0.0633
 8810SOL    MW435014   4.519   3.760   3.669  0.3276  0.2732  0.2560
 8811SOL     OW35015   1.867   3.190   5.672 -0.1110  0.3868 -0.1729
 8811SOL    HW235016   1.850   3.270   5.624 -0.0129 -1.1279 -2.9118
 8811SOL    HW335017   1.937   3.146   5.624  0.0998 -1.2008  1.4337
 8811SOL    MW435018   1.874   3.195   5.659 -0.0702 -0.0225 -0.3223
 8812SOL     OW35019   0.614   0.046   3.182  0.5841 -0.3942 -0.1119
 8812SOL    HW235020   0.598   0.094   3.263  1.6758  0.6034 -0.4565
 8812SOL    HW335021   0.644  -0.041   3.210 -0.1535 -0.4525  0.5287
 8812SOL    MW435022   0.615   0.041   3.196  0.6308 -0.2703 -0.0729
 8813SOL     OW35023   2.446   6.051   4.007 -0.1642 -0.0481 -0.5519
 8813SOL    HW235024   2.420   6.125   3.951 -0.1842  0.6798  0.3942
 8813SOL    HW335025   2.364   6.012   4.035 -0.1557 -1.2423 -2.0554
 8813SOL    MW435026   2.432   6.056   4.003 -0.1657 -0.1096 -0.6255
 8814SOL     OW35027   4.510   1.628   0.587 -0.1202 -0.0408 -0.3099
 8814SOL    HW235028   4.550   1.650   0.502 -2.4739 -3.3639 -2.5454
 8814SOL    HW335029   4.436   1.688   0.595  0.0426  0.2126 -0.6849
 8814SOL    MW435030   4.506   1.639   0.576 -0.4092 -0.4458 -0.6544
 8815SOL     OW35031   0.774   6.336   4.196  1.3089  0.3904  0.3639
 8815SOL    HW235032   0.826   6.394   4.252  0.6617  1.9770 -0.6048
 8815SOL    HW335033   0.797   6.362   4.107  1.0393 -0.9086 -0.1079
 8815SOL    MW435034   0.784   6.347   4.191  1.1880  0.4283  0.1738
 8816SOL     OW35035   6.141   5.740   3.916 -0.0552  0.2007  0.2458
 8816SOL    HW235036   6.095   5.810   3.871  0.6174  0.8281  0.5188
 8816SOL    HW335037   6.087   5.663   3.902 -0.6154  0.6965 -0.3658
 8816SOL    MW435038   6.128   5.739   3.909 -0.0404  0.3489  0.2012
 8817SOL     OW35039   3.839   4.797   5.976 -0.0533  0.4938 -0.4963
 8817SOL    HW235040   3.883   4.873   6.015  1.9613  0.2372 -2.0980
 8817SOL    HW335041   3.874   4.722   6.023 -0.0601  0.3801 -0.6740
 8817SOL    MW435042   3.849   4.797   5.987  0.2116  0.4450 -0.7311
 8818SOL     OW35043   4.307   1.371   1.939 -0.4711 -0.3048 -0.2183
 8818SOL    HW235044   4.367   1.402   1.871  0.4035 -0.5284  0.4254
 8818SOL    HW335045   4.239   1.438   1.944 -0.1974  0.0294 -0.8681
 8818SOL    MW435046   4.306   1.384   1.930 -0.3196 -0.2902 -0.2191
 8819SOL     OW35047   2.632   6.004   1.064  0.2314 -0.1566 -0.8248
 8819SOL    HW235048   2.621   5.909   1.070 -0.1674 -0.1664 -1.5591
 8819SOL    HW335049   2.545   6.037   1.041  0.5211  0.3136 -1.2737
 8819SOL    MW435050   2.619   5.996   1.062  0.2170 -0.0958 -0.9809
 8820SOL     OW35051   4.477   5.544   2.197 -0.4705  0.6263 -0.0800
 8820SOL    HW235052   4.539   5.521   2.266  0.3918 -0.0321 -1.0333
 8820SOL    HW335053   4.518   5.616   2.150 -0.7976  0.7090 -0.2466
 8820SOL    MW435054   4.490   5.550   2.200 -0.3999  0.5503 -0.2278
 8821SOL     OW35055   5.970   0.897   6.172 -0.3938  0.2724 -0.2248
 8821SOL    HW235056   5.938   0.983   6.200 -0.5198 -0.1853  1.1025
 8821SOL    HW335057   5.952   0.895   6.078 -1.3400  1.2943 -0.0922
 8821SOL    MW435058   5.963   0.908   6.163 -0.5352  0.3469 -0.0322
 8822SOL     OW35059   1.480   6.034   0.718  0.0294  0.2448  0.4171
 8822SOL    HW235060   1.551   6.068   0.773 -0.3920 -0.3205  1.3338
 8822SOL    HW335061   1.470   5.943   0.745 -1.3453  0.4372  0.6135
 8822SOL    MW435062   1.488   6.027   0.729 -0.2076  0.1956  0.5640
 8823SOL     OW35063   2.973   5.273   3.549  0.2038  0.5385 -0.9951
 8823SOL    HW235064   2.988   5.194   3.602 -2.1803  1.2619  0.9272
 8823SOL    HW335065   3.052   5.325   3.562 -0.0243  0.3813  1.4039
 8823SOL    MW435066   2.986   5.269   3.558 -0.1409  0.6132 -0.4249
 8824SOL     OW35067   0.388   5.848   5.797  0.9497 -0.2037 -0.4046
 8824SOL    HW235068   0.378   5.944   5.795 -0.1407 -0.2985  0.0615
 8824SOL    HW335069   0.413   5.828   5.887 -1.9450 -0.6066  0.3985
 8824SOL    MW435070   0.390   5.858   5.809  0.4239 -0.2694 -0.2372
 8825SOL     OW35071   5.629   0.910   5.888 -0.8319  0.1121  0.2058
 8825SOL    HW235072   5.605   0.858   5.812 -1.7383  1.2091 -0.2977
 8825SOL    HW335073   5.725   0.902   5.893 -0.5772  0.9971 -1.8331
 8825SOL    MW435074   5.639   0.902   5.878 -0.9179  0.3736 -0.1296
 8826SOL     OW35075   1.693   5.154   2.653  0.0330  0.7027  0.3836
 8826SOL    HW235076   1.699   5.249   2.657 -1.3685  0.8884 -1.2077
 8826SOL    HW335077   1.773   5.127   2.607 -0.2628  1.2580 -0.4858
 8826SOL    MW435078   1.705   5.163   2.647 -0.1909  0.8005  0.0590
 8827SOL     OW35079   1.506   0.449   1.772 -0.0952 -0.7563 -0.3325
 8827SOL    HW235080   1.435   0.502   1.808  0.5690  0.4680 -0.7920
 8827SOL    HW335081   1.577   0.457   1.836  0.6230  0.3631 -1.2262
 8827SOL    MW435082   1.506   0.457   1.786  0.0872 -0.4471 -0.5110
 8828SOL     OW35083   1.242   0.158   1.395  0.4509  0.3672 -0.1527
 8828SOL    HW235084   1.177   0.101   1.352  1.5447 -0.7772 -0.3440
 8828SOL    HW335085   1.189   0.224   1.440 -0.8358 -0.2729 -0.6585
 8828SOL    MW435086   1.226   0.159   1.395  0.4255  0.1317 -0.2447
 8829SOL     OW35087   4.997   2.365   2.618 -0.2466 -0.6397 -0.0499
 8829SOL    HW235088   4.962   2.351   2.531  1.8789 -3.1329 -0.6323
 8829SOL    HW335089   5.092   2.371   2.605 -0.0028  0.8865  1.9187
 8829SOL    MW435090   5.005   2.364   2.605  0.0660 -0.7673  0.1330
 8830SOL     OW35091   0.131   2.245   5.109 -0.3844  0.0810 -0.1300
 8830SOL    HW235092   0.096   2.301   5.038 -0.8992  0.8582  0.7120
 8830SOL    HW335093   0.106   2.156   5.084 -1.4412  0.4515 -0.4350
 8830SOL    MW435094   0.123   2.241   5.096 -0.5918  0.2325 -0.0592
 8831SOL     OW35095   2.677   1.922   0.118 -0.1189  0.0019 -0.2206
 8831SOL    HW235096   2.721   1.884   0.194  0.7146 -1.6863 -1.4853
 8831SOL    HW335097   2.591   1.882   0.118 -0.3534  0.4930  0.1746
 8831SOL    MW435098   2.672   1.912   0.128 -0.0398 -0.1560 -0.3353
 8832SOL     OW35099   0.155   5.245   4.182  0.0573 -0.5409 -0.3231
 8832SOL    HW235100   0.147   5.153   4.206  0.8614 -0.7266 -0.7487
 8832SOL    HW335101   0.198   5.244   4.096 -0.2144  0.2161 -0.4759
 8832SOL    MW435102   0.159   5.233   4.173  0.1275 -0.4655 -0.3994
 8833SOL     OW35103   4.889   0.410   2.835 -0.3973 -0.1355 -0.1602
 8833SOL    HW235104   4.854   0.470   2.900  0.5199 -0.6674  0.8444
 8833SOL    HW335105   4.971   0.379   2.872 -0.6529 -1.7173 -0.8165
 8833SOL    MW435106   4.895   0.414   2.848 -0.3100 -0.4144 -0.1143
 8834SOL     OW35107   0.419   0.379   5.565  0.1765  0.2835  0.2772
 8834SOL    HW235108   0.512   0.376   5.541  0.0948 -0.4915  0.0318
 8834SOL    HW335109   0.389   0.463   5.532  0.6720  0.3216 -0.0967
 8834SOL    MW435110   0.428   0.390   5.557  0.2311  0.1862  0.1955
 8835SOL     OW35111   3.986   0.334   3.971  0.2796 -0.6070  0.4517
 8835SOL    HW235112   3.985   0.246   4.008 -2.5668 -2.0477 -2.5550
 8835SOL    HW335113   4.054   0.332   3.904 -0.9508 -1.2090 -0.8392
 8835SOL    MW435114   3.995   0.322   3.967 -0.2583 -0.8765 -0.1153
 8836SOL     OW35115   1.417   3.526   4.005  0.2830 -0.4467 -0.1305
 8836SOL    HW235116   1.511   3.511   4.011  0.3013 -0.0167  0.8042
 8836SOL    HW335117   1.392   3.489   3.920  1.7592  1.9792 -1.7553
 8836SOL    MW435118   1.426   3.519   3.994  0.4802 -0.0699 -0.2216
 8837SOL     OW35119   1.386   6.415   0.195 -0.1716  0.4382  0.6113
 8837SOL    HW235120   1.298   6.415   0.232  0.4283  0.1761  2.1191
 8837SOL    HW335121   1.401   6.505   0.167 -0.9796  0.4426  0.1784
 8837SOL    MW435122   1.376   6.427   0.196 -0.1991  0.4042  0.7531
 8838SOL     OW35123   2.183   5.166   2.708 -0.2634  0.2201  0.6232
 8838SOL    HW235124   2.177   5.104   2.781 -1.9470 -0.1218  0.2372
 8838SOL    HW335125   2.112   5.229   2.725 -1.4949 -0.5575 -1.3209
 8838SOL    MW435126   2.173   5.166   2.720 -0.6480  0.0724  0.3157
 8839SOL     OW35127   4.535   0.718   1.394  0.8139  0.3124 -0.5714
 8839SOL    HW235128   4.604   0.759   1.341  1.2797  0.3610  0.0620
 8839SOL    HW335129   4.475   0.790   1.414  1.2821  0.5503 -0.0149
 8839SOL    MW435130   4.536   0.733   1.389  0.9371  0.3502 -0.4144
 8840SOL     OW35131   0.757   5.483   3.804 -0.2703 -0.7349  0.1648
 8840SOL    HW235132   0.817   5.474   3.878  1.3504 -2.1863 -1.2614
 8840SOL    HW335133   0.711   5.399   3.800 -1.8996  0.0733  0.7386
 8840SOL    MW435134   0.759   5.471   3.814 -0.2715 -0.8197  0.0524
 8841SOL     OW35135   5.535   2.026   0.746 -0.3151  0.1042 -0.2473
 8841SOL    HW235136   5.441   2.044   0.742 -0.5045 -0.4781  1.1563
 8841SOL    HW335137   5.566   2.075   0.821  0.2772 -0.6459  0.0115
 8841SOL    MW435138   5.526   2.035   0.755 -0.2620 -0.0716 -0.0280
 8842SOL     OW35139   2.946   0.618   5.416 -0.3491  0.1305 -0.2239
 8842SOL    HW235140   2.991   0.534   5.429  0.4495  0.5155 -0.4559
 8842SOL    HW335141   2.977   0.649   5.331 -0.5309  0.7251 -0.0749
 8842SOL    MW435142   2.956   0.611   5.407 -0.2677  0.2597 -0.2348
 8843SOL     OW35143   2.018   0.584   3.904 -0.0182 -0.1550  0.4386
 8843SOL    HW235144   2.019   0.528   3.982  1.6579  0.9319  1.2676
 8843SOL    HW335145   2.090   0.646   3.919 -1.0388  1.4454 -0.9988
 8843SOL    MW435146   2.028   0.585   3.916  0.0682  0.1996  0.3583
 8844SOL     OW35147   1.688   5.966   5.762 -0.0263 -0.4549  0.2849
 8844SOL    HW235148   1.727   6.045   5.799 -0.3782 -0.7204  1.2497
 8844SOL    HW335149   1.747   5.942   5.690  0.1130  0.6385  0.0163
 8844SOL    MW435150   1.701   5.973   5.757 -0.0543 -0.3456  0.3768
 8845SOL     OW35151   2.368   5.282   3.013  0.2508  0.2551 -0.2094
 8845SOL    HW235152   2.389   5.308   2.923 -1.2134  1.8722 -0.1439
 8845SOL    HW335153   2.454   5.271   3.055  0.9912 -1.7085 -2.0618
 8845SOL    MW435154   2.382   5.284   3.007  0.1553  0.2094 -0.4452
 8846SOL     OW35155   5.221   2.721   0.167 -0.8861  0.7998  0.3426
 8846SOL    HW235156   5.257   2.770   0.242  0.3457 -0.3207  0.5146
 8846SOL    HW335157   5.126   2.734   0.174 -0.6036  4.0430 -0.2617
 8846SOL    MW435158   5.213   2.729   0.178 -0.6863  1.0798  0.2856
 8847SOL     OW35159   0.615   2.075   4.211 -0.4887 -0.2492 -0.1747
 8847SOL    HW235160   0.679   2.128   4.163 -1.3749  1.0139 -0.0212
 8847SOL    HW335161   0.533   2.123   4.201 -1.2972 -1.5326  0.1235
 8847SOL    MW435162   0.613   2.089   4.203 -0.7123 -0.2518 -0.1151
 8848SOL     OW35163   0.359   4.469   1.508 -0.0611  0.2977 -0.2643
 8848SOL    HW235164   0.430   4.426   1.460  1.6079  1.5600  0.9349
 8848SOL    HW335165   0.404   4.523   1.573 -2.1653  0.4397  1.1699
 8848SOL    MW435166   0.375   4.470   1.510 -0.1185  0.4830  0.0831
 8849SOL     OW35167   4.673   1.911   2.157 -0.0176  0.1778 -0.0429
 8849SOL    HW235168   4.640   1.854   2.226  0.2999 -1.4552 -1.1897
 8849SOL    HW335169   4.665   1.859   2.077  2.1669  0.9844 -0.8442
 8849SOL    MW435170   4.667   1.897   2.156  0.3125  0.0688 -0.3000
 8850SOL     OW35171   0.263   1.009   5.708 -0.2407  0.5958 -0.0196
 8850SOL    HW235172   0.245   0.970   5.623 -0.6944 -0.3397  0.4916
 8850SOL    HW335173   0.229   0.945   5.772  1.6261  0.4716  0.9075
 8850SOL    MW435174   0.256   0.995   5.706 -0.0543  0.4560  0.1701
 8851SOL     OW35175   5.649   1.383   2.508 -0.1434 -0.2618 -0.5153
 8851SOL    HW235176   5.657   1.299   2.553 -1.3889 -0.4315 -0.5607
 8851SOL    HW335177   5.689   1.446   2.568 -0.7449 -0.6488  0.3168
 8851SOL    MW435178   5.655   1.380   2.522 -0.3871 -0.3353 -0.4115
 8852SOL     OW35179   4.918   3.192   2.229  0.2930 -0.5038 -0.3500
 8852SOL    HW235180   4.923   3.239   2.146 -0.5280  1.7946  0.8112
 8852SOL    HW335181   4.996   3.220   2.277  0.4253 -1.3111 -0.0746
 8852SOL    MW435182   4.929   3.202   2.224  0.2021 -0.3071 -0.1604
 8853SOL     OW35183   4.870   5.300   4.353 -0.5837 -0.5749  0.2489
 8853SOL    HW235184   4.779   5.315   4.380 -1.1196 -1.4065 -1.0052
 8853SOL    HW335185   4.889   5.373   4.293  0.3403  0.8257  2.1530
 8853SOL    MW435186   4.860   5.312   4.348 -0.5325 -0.4998  0.3346
 8854SOL     OW35187   2.226   3.055   5.160 -0.1296  0.0560 -0.0411
 8854SOL    HW235188   2.176   3.099   5.092  1.1276 -0.6269 -1.4798
 8854SOL    HW335189   2.316   3.086   5.147  0.4817 -1.6038 -0.0036
 8854SOL    MW435190   2.231   3.065   5.150  0.1170 -0.2531 -0.2260
 8855SOL     OW35191   2.356   3.152   3.452  0.3227  0.0591 -0.1325
 8855SOL    HW235192   2.368   3.146   3.358 -0.6066  0.6151 -0.3015
 8855SOL    HW335193   2.320   3.068   3.478 -2.5773  0.9769 -0.8207
 8855SOL    MW435194   2.353   3.140   3.443 -0.1825  0.2535 -0.2456
 8856SOL     OW35195   1.115   1.816   3.926  0.1175 -0.8306  0.0510
 8856SOL    HW235196   1.025   1.793   3.903 -0.2778 -0.0905  0.7956
 8856SOL    HW335197   1.149   1.739   3.971 -0.4963 -0.7419  0.6796
 8856SOL    MW435198   1.108   1.803   3.929 -0.0156 -0.7213  0.2322
 8857SOL     OW35199   6.209   1.660   2.528  0.2956 -0.0543  0.2268
 8857SOL    HW235200   6.201   1.719   2.603  0.7554  1.2860 -0.7369
 8857SOL    HW335201   6.119   1.646   2.499  0.1121 -0.6256  1.0519
 8857SOL    MW435202   6.196   1.666   2.534  0.3320  0.0472  0.2085
 8858SOL     OW35203   5.632   5.087   1.335  0.0468  1.0601  0.0136
 8858SOL    HW235204   5.551   5.140   1.332 -0.7104 -0.1117 -1.2090
 8858SOL    HW335205   5.662   5.096   1.426 -2.4972  0.0360  1.0492
 8858SOL    MW435206   5.625   5.095   1.347 -0.3887  0.7703 -0.0111
 8859SOL     OW35207   0.615   1.553   0.861  0.1312  0.3572 -0.7179
 8859SOL    HW235208   0.546   1.545   0.926 -0.6944  1.3360 -1.4300
 8859SOL    HW335209   0.627   1.464   0.827 -0.5281  0.1102 -0.3211
 8859SOL    MW435210   0.607   1.540   0.865 -0.0647  0.4537 -0.7595
 8860SOL     OW35211   1.772   3.659   3.123 -0.2022 -0.3353 -0.0507
 8860SOL    HW235212   1.689   3.641   3.078 -1.6645 -1.5088  2.8561
 8860SOL    HW335213   1.797   3.575   3.161  1.6515  0.3072  0.2222
 8860SOL    MW435214   1.764   3.645   3.122 -0.1506 -0.4054  0.3688
 8861SOL     OW35215   6.277   1.667   0.897  0.0244  0.7322 -0.0278
 8861SOL    HW235216   6.251   1.745   0.847  0.9442  0.6088 -0.7288
 8861SOL    HW335217   6.321   1.611   0.832 -2.8427 -1.5825 -0.2082
 8861SOL    MW435218   6.280   1.670   0.882 -0.2326  0.4105 -0.1441
 8862SOL     OW35219   5.456   3.042   1.898 -0.1622  0.2353 -0.6516
 8862SOL    HW235220   5.497   2.988   1.831  1.1453 -0.5859  0.7534
 8862SOL    HW335221   5.526   3.060   1.961 -1.8530 -1.0824  1.7801
 8862SOL    MW435222   5.470   3.038   1.898 -0.2128 -0.0469 -0.1454
 8863SOL     OW35223   5.741   5.201   3.694  0.0610  0.1868  0.2457
 8863SOL    HW235224   5.836   5.192   3.687  0.0799  1.1501 -1.3183
 8863SOL    HW335225   5.728   5.288   3.733 -0.1743 -0.1354  0.8889
 8863SOL    MW435226   5.752   5.211   3.698  0.0324  0.2714  0.1242
 8864SOL     OW35227   5.510   3.989   0.812 -0.9061  0.1391  0.0602
 8864SOL    HW235228   5.542   3.912   0.859  1.1402 -1.0104 -2.9100
 8864SOL    HW335229   5.416   3.989   0.826 -0.8037 -2.1902  1.1531
 8864SOL    MW435230   5.502   3.979   0.820 -0.6226 -0.3199 -0.1875
 8865SOL     OW35231   2.230   3.904   1.226  0.3208 -0.4112  0.0315
 8865SOL    HW235232   2.292   3.951   1.282  1.1663 -2.3277  0.7953
 8865SOL    HW335233   2.157   3.882   1.283 -0.9542  1.4681 -0.7650
 8865SOL    MW435234   2.229   3.907   1.241  0.2642 -0.4161  0.0272
 8866SOL     OW35235   0.469   5.711   0.924 -0.3344  0.4193 -0.5283
 8866SOL    HW235236   0.406   5.639   0.926  0.6695 -0.4857 -0.8818
 8866SOL    HW335237   0.472   5.738   0.832 -1.1400  1.3311 -0.3101
 8866SOL    MW435238   0.461   5.705   0.912 -0.3082  0.4202 -0.5461
 8867SOL     OW35239   3.277   4.385   5.973 -0.2607  0.3024  0.3611
 8867SOL    HW235240   3.336   4.314   5.948  0.3445  1.4702 -1.7935
 8867SOL    HW335241   3.248   4.363   6.062  1.3457 -1.6523  0.4545
 8867SOL    MW435242   3.281   4.373   5.981  0.0311  0.1986  0.0891
 8868SOL     OW35243   3.050   3.701   4.180  0.0807  0.3832  0.0571
 8868SOL    HW235244   3.142   3.722   4.195  0.3350  0.7973 -1.8143
 8868SOL    HW335245   3.051   3.649   4.100 -1.1265 -1.6102  1.2690
 8868SOL    MW435246   3.062   3.697   4.171 -0.0450  0.1748 -0.0299
 8869SOL     OW35247   4.475   2.631   1.132  0.1703 -0.3926  0.6172
 8869SOL    HW235248   4.477   2.552   1.079  0.5314  0.2827 -0.4109
 8869SOL    HW335249   4.453   2.601   1.220  2.5759 -1.9463  0.7795
 8869SOL    MW435250   4.472   2.616   1.136  0.5354 -0.5085  0.5030
 8870SOL     OW35251   4.004   4.805   4.909  0.0083  0.4532  0.3600
 8870SOL    HW235252   4.052   4.853   4.841  2.6601 -0.6352  1.3580
 8870SOL    HW335253   3.966   4.873   4.964  0.6790  1.3781 -0.2963
 8870SOL    MW435254   4.005   4.820   4.907  0.4466  0.4316  0.4051
 8871SOL     OW35255   2.728   4.816   2.371 -0.7094 -0.0239 -0.3014
 8871SOL    HW235256   2.668   4.891   2.371 -0.0952  0.4791 -0.4786
 8871SOL    HW335257   2.692   4.756   2.435 -0.5134  0.9999  0.8120
 8871SOL    MW435258   2.715   4.818   2.379 -0.6025  0.1776 -0.1779
 8872SOL     OW35259   3.702   5.303   6.074  0.1719  0.7392 -0.0828
 8872SOL    HW235260   3.610   5.313   6.047  0.3833  0.7859 -0.8021
 8872SOL    HW335261   3.707   5.348   6.158 -0.6153  0.1757  0.2796
 8872SOL    MW435262   3.690   5.310   6.081  0.0959  0.6710 -0.1299
 8873SOL     OW35263   3.569   6.221   1.796 -0.8263  0.2494  0.1072
 8873SOL    HW235264   3.585   6.140   1.844 -0.2099 -0.8136 -1.8030
 8873SOL    HW335265   3.633   6.283   1.831  0.3117 -0.8065 -0.0432
 8873SOL    MW435266   3.579   6.218   1.807 -0.5948 -0.0302 -0.1647
 8874SOL     OW35267   3.433   4.755   4.086 -0.3225 -0.5515 -0.3048
 8874SOL    HW235268   3.407   4.842   4.054  0.6593 -0.6919 -1.5781
 8874SOL    HW335269   3.473   4.713   4.010  0.8200 -1.4663  0.7612
 8874SOL    MW435270   3.435   4.761   4.071 -0.0422 -0.6907 -0.3321
 8875SOL     OW35271   3.954   4.864   3.611 -0.0889 -0.0263  0.1159
 8875SOL    HW235272   3.998   4.945   3.584  1.1606  0.2200  2.5817
 8875SOL    HW335273   3.871   4.866   3.565  0.1796  2.3406 -0.4299
 8875SOL    MW435274   3.949   4.875   3.602  0.1114  0.3185  0.3692
 8876SOL     OW35275   6.408   3.787   3.175  0.3322  0.4050  0.1606
 8876SOL    HW235276   6.435   3.869   3.216 -0.1285  0.2430  0.8065
 8876SOL    HW335277   6.449   3.719   3.229 -0.0452  0.1984  0.1926
 8876SOL    MW435278   6.417   3.788   3.188  0.2216  0.3564  0.2500
 8877SOL     OW35279   2.664   3.331   1.598  0.0484  0.6004  0.5365
 8877SOL    HW235280   2.662   3.293   1.510 -1.8477 -0.7421  1.0872
 8877SOL    HW335281   2.729   3.279   1.646  0.8713  1.1473  0.0422
 8877SOL    MW435282   2.672   3.319   1.593 -0.0932  0.4954  0.5439
 8878SOL     OW35283   3.654   2.702   6.402  0.2202  0.0147 -0.4134
 8878SOL    HW235284   3.607   2.619   6.401  0.8277 -0.3410 -0.3715
 8878SOL    HW335285   3.664   2.725   6.309 -0.0325  0.0941 -0.4222
 8878SOL    MW435286   3.649   2.694   6.389  0.2670 -0.0218 -0.4091
 8879SOL     OW35287   3.039   4.565   3.914  0.1545  0.0581  0.2475
 8879SOL    HW235288   3.043   4.469   3.919 -2.1707 -0.0443  1.8546
 8879SOL    HW335289   3.091   4.587   3.836  1.5584 -2.4010  0.3683
 8879SOL    MW435290   3.046   4.555   3.904  0.0329 -0.2799  0.4755
 8880SOL     OW35291   4.316   0.808   2.290  0.1315  0.1856  0.2019
 8880SOL    HW235292   4.274   0.823   2.206  0.4161 -0.4878 -0.0683
 8880SOL    HW335293   4.365   0.888   2.307  2.1468 -0.5776 -1.5143
 8880SOL    MW435294   4.317   0.820   2.281  0.4350 -0.0039 -0.0602
 8881NA      NA35295   2.514   0.096   1.921  0.0634 -0.4070  0.2445
 8882NA      NA35296   5.718   4.426   4.907 -0.3633 -0.1886  0.3609
 8883NA      NA35297   1.247   1.031   0.018 -0.4299  0.2221 -0.2278
 8884NA      NA35298   1.203   5.697   5.213  0.8539  0.0390 -0.0622
 8885NA      NA35299   4.340   5.489   2.556  0.0044 -0.6594  0.0967
 8886NA      NA35300   0.318   3.880   0.956 -0.2775  0.4103  0.3087
 8887NA      NA35301   6.241   2.904   2.276 -0.0117  0.1409  0.0983
   6.42842   6.42842   6.42842
