A-SYNC WITH FASUDIL
35315
  121NASP     N    1   1.790   1.541   4.632 -0.0588  0.0886  0.3029
  121NASP    H1    2   1.822   1.490   4.551 -0.9876  2.3866 -1.6321
  121NASP    H2    3   1.853   1.619   4.648  0.5139  0.0324 -1.4661
  121NASP    H3    4   1.695   1.570   4.611 -0.5348 -1.9553 -0.5902
  121NASP    CA    5   1.780   1.456   4.749 -0.7435  0.3115  0.8264
  121NASP    HA    6   1.758   1.526   4.830 -0.0930 -0.4700  1.7049
  121NASP    CB    7   1.667   1.348   4.742 -0.2481 -0.4394  0.0552
  121NASP   HB1    8   1.578   1.411   4.747  0.8600  1.1085  2.9552
  121NASP   HB2    9   1.659   1.286   4.831  0.7918 -3.0500 -1.5688
  121NASP    CG   10   1.667   1.260   4.619  0.5216  0.0079 -0.8043
  121NASP   OD1   11   1.750   1.287   4.533  0.6057 -0.1744  0.2771
  121NASP   OD2   12   1.590   1.164   4.607  0.0168 -0.1015 -0.2411
  121NASP     C   13   1.923   1.397   4.781  0.9100 -0.4543  0.1358
  121NASP     O   14   2.005   1.369   4.694 -0.2920 -1.0102  0.2456
  122ASN      N   15   1.937   1.367   4.906  0.0725  0.0595 -0.2427
  122ASN      H   16   1.862   1.387   4.970  1.4452  0.8052  1.2138
  122ASN     CA   17   2.054   1.297   4.954  0.3033 -0.7015 -0.6282
  122ASN     HA   18   2.141   1.357   4.929 -0.1848 -0.5411 -2.0421
  122ASN     CB   19   2.045   1.302   5.108 -0.8097 -0.4781 -0.5605
  122ASN    HB1   20   2.003   1.210   5.149 -1.3288  0.4796  1.2127
  122ASN    HB2   21   1.982   1.382   5.147 -0.0733 -0.0786 -0.1487
  122ASN     CG   22   2.191   1.329   5.173  0.3483  0.1248 -0.3443
  122ASN    OD1   23   2.289   1.270   5.122  0.3497  0.5258 -0.2503
  122ASN    ND2   24   2.204   1.411   5.279  0.1342 -0.3094  0.1794
  122ASN   HD21   25   2.295   1.427   5.318 -0.4045 -1.2913  1.9614
  122ASN   HD22   26   2.123   1.445   5.329  0.2696 -0.8470  0.7763
  122ASN      C   27   2.056   1.148   4.908  0.5627  0.3044  0.3370
  122ASN      O   28   1.959   1.091   4.858  0.3577 -0.1543  0.4544
  123GLU      N   29   2.171   1.079   4.919  0.3848 -0.0133 -0.4642
  123GLU      H   30   2.252   1.131   4.949  0.0332  0.2954 -0.0398
  123GLU     CA   31   2.194   0.938   4.892  0.2909  0.5950 -0.0519
  123GLU     HA   32   2.125   0.912   4.811 -0.1238  1.2625  0.0851
  123GLU     CB   33   2.333   0.921   4.831 -0.8728  0.2447  0.0835
  123GLU    HB1   34   2.418   0.943   4.896 -1.0803  0.5396  0.2572
  123GLU    HB2   35   2.342   0.988   4.745  0.6338  1.2194  0.9540
  123GLU     CG   36   2.367   0.784   4.779  0.0251 -0.2217  0.2662
  123GLU    HG1   37   2.296   0.748   4.705  1.1106 -1.1552 -0.3492
  123GLU    HG2   38   2.354   0.718   4.865 -2.0274  1.8941  1.7270
  123GLU     CD   39   2.507   0.768   4.725  0.0003 -0.1941 -0.1374
  123GLU    OE1   40   2.565   0.659   4.755  0.2182 -0.1442  0.1904
  123GLU    OE2   41   2.557   0.844   4.640 -0.3122  0.1877  0.0303
  123GLU      C   42   2.167   0.841   5.012  0.0375 -0.1248  0.7693
  123GLU      O   43   2.237   0.856   5.115 -0.2420 -0.4430 -0.7514
  124ALA      N   44   2.076   0.746   5.006  0.4731  0.2424  0.0381
  124ALA      H   45   2.039   0.726   4.914  0.2743  1.5221 -0.1727
  124ALA     CA   46   2.016   0.666   5.115 -0.1192 -0.5109  0.1209
  124ALA     HA   47   2.014   0.729   5.204  1.5570  1.6346 -1.2635
  124ALA     CB   48   1.874   0.618   5.081 -0.2452 -0.5682 -0.1835
  124ALA    HB1   49   1.879   0.564   4.987  0.3251  1.5901 -1.4576
  124ALA    HB2   50   1.812   0.706   5.062 -0.3074 -0.3757  0.8307
  124ALA    HB3   51   1.832   0.558   5.162  1.9679 -0.8584  0.8209
  124ALA      C   52   2.111   0.551   5.154 -0.1770 -0.3936 -0.7957
  124ALA      O   53   2.066   0.441   5.181 -0.3192 -0.0270  0.2368
  125TYR      N   54   2.240   0.570   5.150 -0.0935 -0.3602  0.2948
  125TYR      H   55   2.271   0.665   5.141  0.6569 -0.7465 -1.5831
  125TYR     CA   56   2.336   0.467   5.191 -0.7456 -0.1843 -0.4019
  125TYR     HA   57   2.292   0.372   5.222 -1.8300 -0.4445 -2.5513
  125TYR     CB   58   2.427   0.426   5.071 -0.6460  0.2402 -0.1963
  125TYR    HB1   59   2.464   0.517   5.025 -0.4137 -0.0334 -0.5512
  125TYR    HB2   60   2.363   0.375   4.998  0.2013  1.3737 -1.7745
  125TYR     CG   61   2.539   0.334   5.105 -0.4344  0.7941  0.3128
  125TYR    CD1   62   2.511   0.191   5.107 -0.1490 -0.8125  0.6120
  125TYR    HD1   63   2.414   0.157   5.074 -0.7074  3.1260 -2.5443
  125TYR    CE1   64   2.615   0.104   5.134  0.0771 -0.2210  0.1508
  125TYR    HE1   65   2.596  -0.002   5.125  1.1193 -0.3902 -0.2012
  125TYR     CZ   66   2.744   0.154   5.150  0.2610  0.5370 -0.5074
  125TYR     OH   67   2.849   0.070   5.171 -0.3003  0.1212  0.1196
  125TYR     HH   68   2.938   0.102   5.158  0.2646 -1.7327 -0.9893
  125TYR    CE2   69   2.776   0.287   5.129  0.3970 -0.3750  0.0537
  125TYR    HE2   70   2.878   0.322   5.125  0.0613  0.7273  0.6460
  125TYR    CD2   71   2.673   0.385   5.110 -0.1579 -0.2314 -0.6555
  125TYR    HD2   72   2.687   0.492   5.108 -0.7554 -0.1578 -1.2147
  125TYR      C   73   2.433   0.517   5.295  0.0141 -1.0963 -0.1610
  125TYR      O   74   2.445   0.639   5.312 -0.0278 -0.3341 -0.2939
  126GLU      N   75   2.490   0.420   5.373 -0.1651 -1.0392 -0.5334
  126GLU      H   76   2.457   0.329   5.344 -1.1961 -0.7951 -0.1520
  126GLU     CA   77   2.593   0.450   5.476 -0.0381  0.4334  0.1262
  126GLU     HA   78   2.635   0.549   5.460 -0.9838  0.4440 -2.8070
  126GLU     CB   79   2.518   0.457   5.610 -0.0527  1.0945 -0.1551
  126GLU    HB1   80   2.468   0.361   5.626 -0.7459  1.4019 -0.4550
  126GLU    HB2   81   2.449   0.541   5.608 -0.6493  0.6412  0.7995
  126GLU     CG   82   2.601   0.487   5.729 -0.2874 -0.0383 -1.2306
  126GLU    HG1   83   2.673   0.568   5.718  1.9043 -1.2518  2.3243
  126GLU    HG2   84   2.668   0.402   5.746  1.1047  0.9860 -1.4122
  126GLU     CD   85   2.525   0.513   5.863  0.5908  0.5342  0.0210
  126GLU    OE1   86   2.580   0.579   5.950  0.4557 -0.2083 -0.5756
  126GLU    OE2   87   2.411   0.465   5.877  0.0837  0.4798  0.4724
  126GLU      C   88   2.703   0.345   5.472  0.8519  0.2212  0.1209
  126GLU      O   89   2.680   0.224   5.460  0.1484 -0.2475  0.5009
  127MET      N   90   2.826   0.393   5.492  0.2635 -0.0329  0.2154
  127MET      H   91   2.831   0.492   5.508  0.5696 -0.0972  0.5120
  127MET     CA   92   2.944   0.311   5.487  0.4320  0.1548  0.1142
  127MET     HA   93   2.952   0.266   5.389  1.4734 -0.6223  0.5335
  127MET     CB   94   3.064   0.404   5.505  0.3267 -1.1060 -0.0625
  127MET    HB1   95   3.145   0.330   5.509  1.2464 -0.2725 -1.8267
  127MET    HB2   96   3.052   0.460   5.597  1.0891 -1.3095  0.1671
  127MET     CG   97   3.077   0.502   5.388 -0.0520 -0.2592  0.3229
  127MET    HG1   98   3.157   0.567   5.424 -0.7281 -0.5672  2.5119
  127MET    HG2   99   2.992   0.561   5.356  0.0161 -0.0308  0.5591
  127MET     SD  100   3.138   0.420   5.235  0.3487  0.1525 -0.1830
  127MET     CE  101   3.267   0.532   5.170 -0.3285 -0.1604 -0.2878
  127MET    HE1  102   3.323   0.478   5.094  1.0242 -2.1292  1.9643
  127MET    HE2  103   3.341   0.557   5.247  1.7194  1.3872 -2.6140
  127MET    HE3  104   3.211   0.622   5.145 -1.5105 -1.0443 -0.9446
  127MET      C  105   2.948   0.198   5.585 -0.0953  0.3108 -0.6104
  127MET      O  106   2.887   0.214   5.692 -0.2633 -0.2374 -0.1075
  128PRO      N  107   3.015   0.088   5.556  0.0611  0.3602 -0.2731
  128PRO     CD  108   3.093   0.064   5.433  0.4831  0.2299 -0.4678
  128PRO    HD1  109   3.153   0.147   5.396  0.7276 -1.2610 -3.7410
  128PRO    HD2  110   3.022   0.035   5.356  0.3817  2.0345 -1.0937
  128PRO     CG  111   3.184  -0.051   5.477  0.1983  0.2680 -0.3407
  128PRO    HG1  112   3.271  -0.019   5.534  0.6955  2.2146 -2.0815
  128PRO    HG2  113   3.218  -0.108   5.391 -0.1467 -1.5324  0.6540
  128PRO     CB  114   3.087  -0.133   5.566 -0.1471 -0.2741  0.2443
  128PRO    HB1  115   3.009  -0.179   5.505 -1.2336  2.3486 -0.5317
  128PRO    HB2  116   3.139  -0.210   5.623  0.0071 -1.9115 -1.9928
  128PRO     CA  117   3.017  -0.026   5.643  0.4211 -0.4660  0.3359
  128PRO     HA  118   2.916  -0.066   5.651  0.1837 -0.0457 -0.4292
  128PRO      C  119   3.082  -0.016   5.780  0.0845 -0.7118  0.0539
  128PRO      O  120   3.180   0.057   5.796  0.0229  0.1862  0.1579
  129SER      N  121   3.036  -0.089   5.884 -0.8220 -0.4900 -0.3004
  129SER      H  122   2.954  -0.140   5.855 -1.0351  0.3837 -1.3224
  129SER     CA  123   3.117  -0.103   6.011 -0.3810 -0.3731  0.9603
  129SER     HA  124   3.188  -0.021   6.016 -0.2743 -0.3277 -0.7308
  129SER     CB  125   3.037  -0.089   6.137  0.5476 -0.1387  0.2697
  129SER    HB1  126   3.095  -0.137   6.216  0.9158 -0.3850 -0.1430
  129SER    HB2  127   2.938  -0.134   6.132 -0.8752  2.9126 -1.1968
  129SER     OG  128   3.018   0.045   6.169  0.1352  0.0310  0.4953
  129SER    HG1  129   2.929   0.072   6.149 -0.1458  0.2732  1.9605
  129SER      C  130   3.200  -0.236   6.009 -0.4818 -0.4410  0.2144
  129SER      O  131   3.160  -0.329   5.937  0.1914 -0.1195 -0.5585
  130GLU      N  132   3.317  -0.247   6.079  0.0403 -0.8088  0.1401
  130GLU      H  133   3.321  -0.178   6.153  1.9084 -0.1952 -0.4851
  130GLU     CA  134   3.415  -0.358   6.075  0.3157  0.0240 -0.7746
  130GLU     HA  135   3.425  -0.393   5.972  0.1724  1.1787 -1.1992
  130GLU     CB  136   3.557  -0.324   6.130  0.8854 -0.3167  0.3658
  130GLU    HB1  137   3.628  -0.402   6.104  1.6945  0.6717 -0.4412
  130GLU    HB2  138   3.550  -0.316   6.239  0.2058 -0.5131  0.3417
  130GLU     CG  139   3.608  -0.190   6.076 -0.1131 -0.7772 -0.2629
  130GLU    HG1  140   3.534  -0.114   6.100 -1.4582 -1.6447 -1.4883
  130GLU    HG2  141   3.602  -0.188   5.968 -1.2174 -0.6889 -0.2070
  130GLU     CD  142   3.753  -0.151   6.119  0.9272 -0.7848 -0.6906
  130GLU    OE1  143   3.811  -0.070   6.046  0.1687  0.1252  0.7197
  130GLU    OE2  144   3.803  -0.187   6.223 -0.2608 -0.3311  0.2487
  130GLU      C  145   3.368  -0.484   6.136  0.0846 -0.0706 -0.0435
  130GLU      O  146   3.419  -0.588   6.087 -0.1827 -0.5607 -0.4699
  131GLU      N  147   3.270  -0.480   6.227 -0.6202 -0.0151  0.0890
  131GLU      H  148   3.249  -0.399   6.284 -0.0688 -0.0819  0.3958
  131GLU     CA  149   3.198  -0.601   6.268  0.2134 -0.2483 -0.8850
  131GLU     HA  150   3.275  -0.662   6.314  0.4625  0.9863  0.4182
  131GLU     CB  151   3.081  -0.563   6.367 -0.6237 -1.0533 -0.4162
  131GLU    HB1  152   3.001  -0.516   6.312  0.4291  2.7378  0.9870
  131GLU    HB2  153   3.114  -0.486   6.437 -0.2642 -2.8900  1.5748
  131GLU     CG  154   3.039  -0.688   6.448 -0.1966  0.3234  0.3575
  131GLU    HG1  155   3.133  -0.741   6.470 -0.6250 -1.1481 -1.1057
  131GLU    HG2  156   2.988  -0.760   6.384  0.9795  0.3681 -0.6747
  131GLU     CD  157   2.974  -0.657   6.586  0.6336 -0.5088 -0.5723
  131GLU    OE1  158   2.890  -0.562   6.591  0.0929 -0.2370  0.1631
  131GLU    OE2  159   3.003  -0.736   6.674  0.5512 -0.5719 -0.6551
  131GLU      C  160   3.145  -0.684   6.152  0.3387  0.5824 -0.1864
  131GLU      O  161   3.168  -0.805   6.153 -0.2025 -0.0544 -0.1176
  132GLY      N  162   3.065  -0.624   6.064  0.5819  0.3504  0.2126
  132GLY      H  163   3.046  -0.526   6.076 -0.8300  0.3393 -1.5685
  132GLY     CA  164   3.011  -0.677   5.940 -0.2359  0.3297  0.4692
  132GLY    HA1  165   2.974  -0.591   5.884 -2.0660 -1.1548 -0.6956
  132GLY    HA2  166   2.926  -0.742   5.958 -0.0238 -0.6172 -1.7201
  132GLY      C  167   3.112  -0.747   5.851 -0.3229 -0.2042  0.4223
  132GLY      O  168   3.069  -0.820   5.763 -0.0534  0.3167  0.1980
  133TYR      N  169   3.245  -0.736   5.870  0.3010 -0.2597 -0.2408
  133TYR      H  170   3.282  -0.685   5.949 -0.3822  3.0170 -1.8453
  133TYR     CA  171   3.341  -0.814   5.787 -0.0410  0.5279 -0.1413
  133TYR     HA  172   3.300  -0.818   5.687 -2.2747 -0.1560  0.7366
  133TYR     CB  173   3.476  -0.740   5.781  0.2031 -0.1920 -0.5935
  133TYR    HB1  174   3.541  -0.790   5.709  1.8071  0.4940  0.3022
  133TYR    HB2  175   3.520  -0.753   5.880  0.3196  0.5392 -0.5454
  133TYR     CG  176   3.479  -0.591   5.747 -0.0368 -0.2972  0.1495
  133TYR    CD1  177   3.410  -0.542   5.634 -0.1227 -0.8138 -0.5326
  133TYR    HD1  178   3.348  -0.611   5.579 -0.4419 -1.8044  1.0095
  133TYR    CE1  179   3.439  -0.408   5.593 -0.2177 -0.8741  0.1638
  133TYR    HE1  180   3.390  -0.376   5.502 -1.2161 -0.2088  0.9107
  133TYR     CZ  181   3.533  -0.327   5.662 -0.3481 -0.2500  0.1116
  133TYR     OH  182   3.554  -0.197   5.624 -0.7985  0.4483 -0.0686
  133TYR     HH  183   3.625  -0.156   5.675  1.9609 -2.3410 -1.3492
  133TYR    CE2  184   3.602  -0.384   5.772 -0.0582 -0.3920 -0.3821
  133TYR    HE2  185   3.675  -0.326   5.826 -1.3537  1.8639 -0.9378
  133TYR    CD2  186   3.577  -0.515   5.811  0.6019  0.1204 -0.2972
  133TYR    HD2  187   3.634  -0.558   5.891  0.1621  1.0190  0.5272
  133TYR      C  188   3.364  -0.961   5.821 -0.0325 -0.6771 -0.7806
  133TYR      O  189   3.424  -1.031   5.752  0.3776  0.1962  0.2106
  134GLN      N  190   3.329  -1.002   5.947  0.3152 -0.0772  0.0500
  134GLN      H  191   3.262  -0.941   5.991 -0.2321 -0.1188 -0.7089
  134GLN     CA  192   3.377  -1.125   6.014 -0.2269  0.7582 -0.5301
  134GLN     HA  193   3.485  -1.138   6.003 -0.3590 -4.1037  1.2527
  134GLN     CB  194   3.343  -1.119   6.162  0.2018 -0.0491  0.3962
  134GLN    HB1  195   3.374  -1.214   6.207 -0.1164 -1.7381 -2.6618
  134GLN    HB2  196   3.238  -1.100   6.180  0.6956  3.3092  0.2450
  134GLN     CG  197   3.425  -1.004   6.216  0.4833 -0.1730  0.0461
  134GLN    HG1  198   3.394  -0.908   6.175 -2.4439 -0.4132  1.4631
  134GLN    HG2  199   3.530  -1.020   6.189  0.3157 -0.5131 -0.4107
  134GLN     CD  200   3.409  -0.996   6.366 -0.7915 -0.0542 -0.1681
  134GLN    OE1  201   3.469  -1.057   6.447 -0.1411  0.2573  0.4304
  134GLN    NE2  202   3.304  -0.930   6.413  0.7193  0.7553 -0.2005
  134GLN   HE21  203   3.302  -0.915   6.513  0.3252 -2.1019  0.3183
  134GLN   HE22  204   3.238  -0.884   6.352  1.6093  2.7544  0.2855
  134GLN      C  205   3.305  -1.250   5.957 -0.7078  0.5568 -0.1039
  134GLN      O  206   3.179  -1.254   5.949 -0.2308  0.4778  0.3001
  135ASP      N  207   3.391  -1.353   5.951 -0.5524  0.6338  0.4096
  135ASP      H  208   3.489  -1.332   5.957 -0.4336 -0.1973  1.9695
  135ASP     CA  209   3.347  -1.483   5.892  0.1177  0.0142 -0.1345
  135ASP     HA  210   3.268  -1.473   5.818 -0.7813 -1.9266  0.4961
  135ASP     CB  211   3.460  -1.548   5.809 -0.0434 -0.2044 -0.0184
  135ASP    HB1  212   3.476  -1.468   5.736  0.4387  0.1807  0.4986
  135ASP    HB2  213   3.435  -1.644   5.765  0.3036  0.0998 -0.9214
  135ASP     CG  214   3.594  -1.575   5.880 -0.5022  0.1619 -0.1176
  135ASP    OD1  215   3.683  -1.633   5.811  0.1699  0.3900  0.1780
  135ASP    OD2  216   3.600  -1.547   6.003 -0.0733  0.7922 -1.0813
  135ASP      C  217   3.274  -1.577   5.985 -0.1057  0.0207  0.4849
  135ASP      O  218   3.182  -1.652   5.951  0.3816  0.1537  0.5036
  136TYR      N  219   3.322  -1.572   6.107 -0.1692  0.0575  0.4097
  136TYR      H  220   3.380  -1.492   6.127 -1.4184  1.0184  0.3470
  136TYR     CA  221   3.274  -1.645   6.225  0.6573 -0.0964 -0.4940
  136TYR     HA  222   3.321  -1.599   6.312 -2.8798  0.6573  1.1901
  136TYR     CB  223   3.126  -1.612   6.249  0.2190  0.3714 -0.1485
  136TYR    HB1  224   3.079  -1.678   6.321  2.4352  0.5996  1.6303
  136TYR    HB2  225   3.075  -1.634   6.155  1.0302 -3.5637  0.1664
  136TYR     CG  226   3.095  -1.472   6.291 -0.4396  0.3615  0.6341
  136TYR    CD1  227   3.129  -1.434   6.423 -0.3572 -0.3633 -0.6601
  136TYR    HD1  228   3.181  -1.494   6.496 -0.6276  1.8422  1.5000
  136TYR    CE1  229   3.108  -1.298   6.460  0.3138 -0.2058  0.1325
  136TYR    HE1  230   3.148  -1.264   6.554 -0.5281  1.2624 -0.0101
  136TYR     CZ  231   3.053  -1.205   6.371  0.7660 -0.4890  0.4723
  136TYR     OH  232   3.014  -1.082   6.408  0.5174  0.1500  0.0996
  136TYR     HH  233   3.040  -1.059   6.498  0.1020  0.4568  0.1444
  136TYR    CE2  234   3.005  -1.256   6.243  0.0933  0.6663  0.9256
  136TYR    HE2  235   2.936  -1.195   6.186  0.6249  0.4527  0.0201
  136TYR    CD2  236   3.027  -1.389   6.203  0.5703  0.9063 -0.3288
  136TYR    HD2  237   2.988  -1.417   6.106 -0.5187  0.3257  0.2569
  136TYR      C  238   3.300  -1.802   6.224 -0.0224 -0.3231 -0.2074
  136TYR      O  239   3.241  -1.885   6.298 -0.4493  0.8018  0.1490
  137GLU      N  240   3.400  -1.840   6.140 -0.1953 -0.4015  0.5792
  137GLU      H  241   3.447  -1.766   6.092 -2.3122  0.8139  0.2593
  137GLU     CA  242   3.443  -1.984   6.120  0.2993 -0.4273  0.3188
  137GLU     HA  243   3.356  -2.049   6.133 -0.7446  0.8384 -0.0551
  137GLU     CB  244   3.493  -2.008   5.976  1.0141  0.1141 -0.2289
  137GLU    HB1  245   3.528  -2.112   5.975 -0.7198 -0.5718  1.5357
  137GLU    HB2  246   3.570  -1.936   5.949  0.2189  1.7924  1.7001
  137GLU     CG  247   3.371  -2.014   5.877  0.4405  0.3164  0.1590
  137GLU    HG1  248   3.310  -1.924   5.891  0.2626  0.2696 -0.3000
  137GLU    HG2  249   3.311  -2.102   5.898  1.6476 -0.5916 -0.0765
  137GLU     CD  250   3.401  -2.022   5.728  0.3229 -0.1450  0.2693
  137GLU    OE1  251   3.325  -2.077   5.651  0.5056 -0.5990  0.3916
  137GLU    OE2  252   3.511  -1.988   5.689  0.4075  0.4426  0.8210
  137GLU      C  253   3.553  -2.021   6.212 -1.3220 -0.2083 -0.4800
  137GLU      O  254   3.641  -1.935   6.231  0.5160 -0.2642  0.0386
  138PRO      N  255   3.566  -2.146   6.266  0.0745 -0.6369  0.0306
  138PRO     CD  256   3.475  -2.252   6.254  0.6185 -0.0679  0.1791
  138PRO    HD1  257   3.432  -2.251   6.154 -2.4993 -1.3445  1.3907
  138PRO    HD2  258   3.401  -2.234   6.332 -0.0042  0.9308 -0.6269
  138PRO     CG  259   3.554  -2.380   6.280  0.3079 -0.8176  0.4240
  138PRO    HG1  260   3.612  -2.425   6.199  0.9298 -1.7652  1.3639
  138PRO    HG2  261   3.489  -2.456   6.324  0.5360  0.0165  2.3040
  138PRO     CB  262   3.660  -2.327   6.374  0.2768  0.6527  0.1812
  138PRO    HB1  263   3.617  -2.317   6.473 -1.4970  0.0509 -0.4883
  138PRO    HB2  264   3.743  -2.397   6.374  1.0937  1.4617  3.5493
  138PRO     CA  265   3.696  -2.188   6.327  0.7473  0.6879  0.2115
  138PRO     HA  266   3.727  -2.123   6.409  0.2236 -0.9208  1.7381
  138PRO      C  267   3.807  -2.188   6.212 -0.1179  0.0767  0.2328
  138PRO      O  268   3.802  -2.262   6.107  0.0029  0.4426  0.8238
  139GLU      N  269   3.917  -2.123   6.242  0.9299  0.4785  0.2537
  139GLU      H  270   3.917  -2.093   6.339  1.8340 -1.7187  0.9759
  139GLU     CA  271   4.046  -2.138   6.170 -0.0815 -0.2356  0.3288
  139GLU     HA  272   4.027  -2.108   6.067 -1.9103 -0.9334  0.4300
  139GLU     CB  273   4.152  -2.049   6.232  0.0344 -0.3251 -0.7613
  139GLU    HB1  274   4.240  -2.091   6.185  0.3772 -2.2137  1.3755
  139GLU    HB2  275   4.178  -2.061   6.337  1.1795  3.6855 -0.4219
  139GLU     CG  276   4.149  -1.901   6.193  1.0001 -0.7860  0.0224
  139GLU    HG1  277   4.061  -1.851   6.232  1.5979  3.0528 -2.9478
  139GLU    HG2  278   4.130  -1.893   6.086  1.6526 -1.3447 -0.1478
  139GLU     CD  279   4.268  -1.815   6.236  0.2736  0.0148  0.0180
  139GLU    OE1  280   4.272  -1.694   6.205  0.2285  0.1481 -0.1101
  139GLU    OE2  281   4.359  -1.853   6.308  0.0634  0.8607 -0.9437
  139GLU      C  282   4.090  -2.283   6.167 -0.6087 -0.3031 -0.3267
  139GLU      O  283   4.055  -2.367   6.244 -0.1232  0.1489  0.3535
  140CALA     N  284   4.178  -2.309   6.067 -0.4227 -1.0052 -0.3142
  140CALA     H  285   4.208  -2.240   6.000  0.5891 -0.8551  0.2742
  140CALA    CA  286   4.228  -2.447   6.050  0.3045 -0.0267 -0.1479
  140CALA    HA  287   4.145  -2.515   6.067  1.7208 -1.8341 -0.1670
  140CALA    CB  288   4.267  -2.463   5.907  0.3129 -0.3091  0.4300
  140CALA   HB1  289   4.187  -2.425   5.842  1.1564 -0.7437 -0.9127
  140CALA   HB2  290   4.298  -2.566   5.888  0.7803  0.0380 -0.8157
  140CALA   HB3  291   4.356  -2.406   5.880  0.8062 -0.7901  1.0236
  140CALA     C  292   4.339  -2.485   6.143 -0.3952  0.6870  0.6069
  140CALA   OC1  293   4.426  -2.398   6.173  0.1350  0.1964 -0.1691
  140CALA   OC2  294   4.363  -2.605   6.181 -0.2302 -0.0461  0.6960
  141FAS      C  295   3.646   4.865   5.457 -0.7051 -0.1910 -0.3005
  141FAS     C1  296   3.777   4.786   5.432  0.5795 -0.1720  0.6894
  141FAS      N  297   3.870   4.790   5.556  0.4417  0.1398 -0.3720
  141FAS     C2  298   3.935   4.920   5.587 -0.0517 -0.3334  0.6772
  141FAS     C3  299   3.849   5.053   5.580  0.2343  0.5525  0.0700
  141FAS     N1  300   3.786   5.080   5.451  0.0542 -0.0903  0.9698
  141FAS     C4  301   3.656   5.011   5.435  0.3303 -0.3740 -0.0019
  141FAS      S  302   3.774   5.244   5.401  0.1806  0.0742  0.1151
  141FAS      O  303   3.742   5.236   5.258  0.5767  0.5941  0.0345
  141FAS     O1  304   3.672   5.302   5.495 -0.1107 -0.6927  0.1108
  141FAS     C5  305   3.931   5.318   5.408  0.6112  0.0878  1.2281
  141FAS     C6  306   3.943   5.442   5.474 -0.7829  0.1964 -0.0607
  141FAS     C7  307   4.066   5.510   5.482  0.0162 -0.0802 -0.1192
  141FAS     C8  308   4.175   5.463   5.408  0.0339  0.9645 -0.2074
  141FAS     C9  309   4.166   5.336   5.343 -0.1476  0.0812  0.9943
  141FAS    C10  310   4.043   5.265   5.337 -0.5884  0.3619  0.1484
  141FAS    C11  311   4.042   5.136   5.289  0.2515  0.3641 -0.1087
  141FAS    C12  312   4.163   5.086   5.242  0.0099  0.9854 -0.5181
  141FAS     N2  313   4.283   5.153   5.236 -0.3142 -0.1370 -0.3922
  141FAS    C13  314   4.283   5.276   5.285  0.2132 -0.6472 -0.2191
  141FAS      H  315   3.605   4.858   5.559  0.2564 -1.3020  0.0283
  141FAS     H1  316   3.572   4.814   5.394 -0.5173 -0.4093 -0.3465
  141FAS     H2  317   3.832   4.823   5.345  2.0052  0.4420  1.8189
  141FAS     H3  318   3.755   4.681   5.410  0.0745  0.5705 -3.0262
  141FAS     H4  319   3.813   4.754   5.635  0.6503  2.0283  0.7193
  141FAS     H5  320   4.017   4.931   5.515 -2.5463  3.3322 -2.0024
  141FAS     H6  321   3.970   4.925   5.690 -1.8996  1.4315  1.2950
  141FAS     H7  322   3.916   5.138   5.599  0.7114  0.0565  0.6569
  141FAS     H8  323   3.766   5.053   5.652 -0.2492  0.5358 -0.4823
  141FAS     H9  324   3.631   5.029   5.329  3.1803  2.2095 -0.3620
  141FAS    H10  325   3.582   5.065   5.496  2.6565 -0.1145  2.8035
  141FAS    H11  326   3.864   5.494   5.528 -1.8270  0.1269 -1.4666
  141FAS    H12  327   4.072   5.607   5.529 -3.8335  1.4177 -2.2720
  141FAS    H13  328   4.273   5.508   5.415  0.5082 -0.2043  1.3856
  141FAS    H14  329   3.957   5.070   5.276  1.1288 -1.1467  1.4745
  141FAS    H15  330   4.177   4.985   5.202 -0.2130  0.4376  0.7439
  141FAS    H16  331   4.372   5.338   5.278 -1.7352  2.3593 -0.5053
  141FAS    H17  332   3.948   4.723   5.552 -0.3926 -1.0110  1.3326
  142SOL     OW  333   2.216   6.229   1.359  0.3840  0.1802  0.1184
  142SOL    HW2  334   2.203   6.165   1.289  0.6686  0.4760 -0.2073
  142SOL    HW3  335   2.301   6.268   1.341  0.1142  0.8195  0.1762
  142SOL    MW4  336   2.225   6.226   1.347  0.3859  0.3036  0.0831
  143SOL     OW  337   3.075   4.036   4.812 -0.4974 -0.4402 -0.1713
  143SOL    HW2  338   3.096   4.035   4.905 -1.2979  0.0192  0.0218
  143SOL    HW3  339   2.979   4.029   4.808 -0.4798 -0.3966 -0.9541
  143SOL    MW4  340   3.065   4.035   4.824 -0.6007 -0.3739 -0.2491
  144SOL     OW  341   2.526   1.751   0.307 -0.0912  0.0598 -0.1173
  144SOL    HW2  342   2.548   1.768   0.215  1.4460  2.0740  0.5501
  144SOL    HW3  343   2.451   1.807   0.325 -0.5515 -0.5244 -0.1952
  144SOL    MW4  344   2.519   1.760   0.297  0.0509  0.2485 -0.0395
  145SOL     OW  345   4.973   2.228   3.597  0.0570  0.3775 -0.4101
  145SOL    HW2  346   4.901   2.280   3.633  0.5936 -0.4216  1.9975
  145SOL    HW3  347   5.049   2.255   3.648  1.0701 -0.1868 -1.5995
  145SOL    MW4  348   4.973   2.239   3.609  0.2615  0.1976 -0.2494
  146SOL     OW  349   4.674   4.597   2.273  0.1422 -0.8581 -0.2132
  146SOL    HW2  350   4.672   4.508   2.307  0.2779  0.6649  4.5973
  146SOL    HW3  351   4.766   4.621   2.275  0.0047 -0.3021 -0.4291
  146SOL    MW4  352   4.686   4.588   2.278  0.1420 -0.5838  0.3930
  147SOL     OW  353   0.763   3.049   4.578  0.0978 -0.4738  0.2347
  147SOL    HW2  354   0.698   2.979   4.566  0.4188 -0.7355 -0.0185
  147SOL    HW3  355   0.748   3.109   4.505  0.5506 -0.8675 -0.1916
  147SOL    MW4  356   0.753   3.047   4.566  0.1999 -0.5603  0.1450
  148SOL     OW  357   2.098   2.508   3.797 -0.5207  0.0575 -0.4680
  148SOL    HW2  358   2.075   2.476   3.884  0.6859 -1.2350 -0.5867
  148SOL    HW3  359   2.016   2.542   3.761 -1.1547  0.0708  0.9335
  148SOL    MW4  360   2.084   2.509   3.804 -0.4452 -0.1112 -0.2987
  149SOL     OW  361   4.882   3.209   4.786  0.3342 -0.3986  0.1756
  149SOL    HW2  362   4.916   3.298   4.797  1.4482 -0.7417 -0.3517
  149SOL    HW3  363   4.851   3.185   4.874  1.1077  0.0765  0.5915
  149SOL    MW4  364   4.883   3.218   4.799  0.5832 -0.3812  0.1609
  150SOL     OW  365   6.346   3.235   1.416 -0.0717  0.2092 -0.1536
  150SOL    HW2  366   6.395   3.265   1.340 -2.2769  0.0415 -1.7464
  150SOL    HW3  367   6.413   3.216   1.482  1.7912  2.9629 -1.0582
  150SOL    MW4  368   6.361   3.237   1.415 -0.1168  0.5504 -0.4831
  151SOL     OW  369   3.842   2.517   3.494  0.2724  0.0097 -1.0243
  151SOL    HW2  370   3.851   2.525   3.589 -1.2500 -0.9010 -0.7680
  151SOL    HW3  371   3.798   2.598   3.467  1.1010  0.4680 -1.0364
  151SOL    MW4  372   3.837   2.529   3.503  0.1809 -0.0500 -0.9921
  152SOL     OW  373   2.909   5.122   2.177  0.3266 -0.0810 -0.7150
  152SOL    HW2  374   2.887   5.166   2.095  0.6686  1.3839 -0.0568
  152SOL    HW3  375   3.000   5.096   2.167  0.3957  0.1792 -0.7825
  152SOL    MW4  376   2.918   5.125   2.165  0.3808  0.1466 -0.6370
  153SOL     OW  377   0.102   2.093   4.801  0.3179  0.2798  0.1676
  153SOL    HW2  378   0.120   2.186   4.807 -0.9124  0.5692 -0.3742
  153SOL    HW3  379   0.137   2.057   4.883 -0.3163  1.4143  0.9676
  153SOL    MW4  380   0.109   2.100   4.813  0.0719  0.4677  0.2016
  154SOL     OW  381   0.889   4.517   0.835 -0.2645  0.3120  1.5022
  154SOL    HW2  382   0.947   4.523   0.759 -0.7190 -0.5945  1.0670
  154SOL    HW3  383   0.809   4.562   0.809  0.7929  3.0843  2.7079
  154SOL    MW4  384   0.886   4.523   0.822 -0.1850  0.5582  1.6039
  155SOL     OW  385   5.923   4.730   2.478  0.0708  0.4717 -0.5622
  155SOL    HW2  386   5.851   4.676   2.446  0.2138  0.5908 -1.1042
  155SOL    HW3  387   5.972   4.672   2.537 -1.3122  0.8567  0.9986
  155SOL    MW4  388   5.920   4.715   2.481 -0.0928  0.5382 -0.4277
  156SOL     OW  389   1.949   5.154   6.110  0.4531 -0.2794 -0.8931
  156SOL    HW2  390   1.959   5.080   6.170  1.0784  0.2064 -0.3864
  156SOL    HW3  391   1.879   5.126   6.050  1.1590 -1.5655 -1.1619
  156SOL    MW4  392   1.941   5.140   6.110  0.6287 -0.3850 -0.8617
  157SOL     OW  393   0.661   2.266   1.579  0.1040  0.2586 -0.7536
  157SOL    HW2  394   0.722   2.246   1.649 -1.5996  2.5918  1.6101
  157SOL    HW3  395   0.578   2.226   1.607 -0.5946  1.1701 -1.4344
  157SOL    MW4  396   0.658   2.258   1.592 -0.2129  0.6867 -0.5316
  158SOL     OW  397   6.101   0.693   2.305  0.2457  0.5171 -0.0079
  158SOL    HW2  398   6.147   0.679   2.222 -0.5451  0.1073 -0.3978
  158SOL    HW3  399   6.129   0.620   2.361 -0.7980 -0.4212 -0.6537
  158SOL    MW4  400   6.111   0.682   2.301  0.0037  0.3392 -0.1446
  159SOL     OW  401   0.068   1.823   5.925 -0.4037 -0.4041  0.2003
  159SOL    HW2  402   0.134   1.867   5.872 -0.9181 -1.8451 -1.7244
  159SOL    HW3  403   0.010   1.894   5.954 -0.1956  0.4305 -1.3006
  159SOL    MW4  404   0.069   1.839   5.922 -0.4441 -0.4841 -0.2517
  160SOL     OW  405   1.957   0.318   4.126 -0.2991  0.0622 -0.3658
  160SOL    HW2  406   1.962   0.228   4.160  1.7720 -0.0966 -0.9875
  160SOL    HW3  407   2.047   0.340   4.102 -1.2346  1.1531 -3.2323
  160SOL    MW4  408   1.969   0.309   4.128 -0.1493  0.1852 -0.8261
  161SOL     OW  409   2.917   3.401   1.770 -0.3325  0.2319 -0.4708
  161SOL    HW2  410   2.889   3.331   1.828  1.5298  0.0549  0.2852
  161SOL    HW3  411   2.896   3.481   1.817 -2.4871  0.2467 -1.3470
  161SOL    MW4  412   2.911   3.402   1.784 -0.3711  0.2105 -0.4866
  162SOL     OW  413   3.838   2.663   3.099 -0.6060  0.3709 -0.4831
  162SOL    HW2  414   3.758   2.701   3.136 -1.0097 -0.3524 -0.5805
  162SOL    HW3  415   3.806   2.606   3.029 -0.0915 -0.8973  0.2912
  162SOL    MW4  416   3.823   2.661   3.094 -0.5914  0.1081 -0.3938
  163SOL     OW  417   2.082   5.088   1.272  0.1930 -0.5698  0.1651
  163SOL    HW2  418   2.070   5.003   1.315  1.9521 -0.3255  1.2566
  163SOL    HW3  419   1.994   5.119   1.253 -0.5618 -1.6669  1.7185
  163SOL    MW4  420   2.069   5.081   1.275  0.3255 -0.6823  0.5141
  164SOL     OW  421   4.311   4.619   5.454  0.2784  0.9949  0.0831
  164SOL    HW2  422   4.357   4.576   5.526  0.8717  0.6633 -0.4882
  164SOL    HW3  423   4.376   4.676   5.414  0.5134 -0.2174 -1.3504
  164SOL    MW4  424   4.325   4.621   5.458  0.3877  0.7912 -0.1814
  165SOL     OW  425   4.778   2.816   4.578  0.2531 -0.0017  0.5856
  165SOL    HW2  426   4.835   2.891   4.565 -0.7159  0.9263  1.5562
  165SOL    HW3  427   4.838   2.742   4.590  1.2128  0.4996 -0.8753
  165SOL    MW4  428   4.794   2.816   4.578  0.2519  0.1869  0.5209
  166SOL     OW  429   1.114   5.981   1.764 -0.4842 -0.1489 -0.0055
  166SOL    HW2  430   1.164   5.945   1.837  0.1752 -1.0341 -0.8661
  166SOL    HW3  431   1.028   6.003   1.801 -0.2698 -0.8949  0.9563
  166SOL    MW4  432   1.109   5.979   1.778 -0.3689 -0.3641  0.0078
  167SOL     OW  433   2.245   0.462   6.075 -0.2491  0.2937 -0.4288
  167SOL    HW2  434   2.319   0.457   6.015  1.5975  1.5614  1.5819
  167SOL    HW3  435   2.220   0.554   6.075 -2.3883 -0.2145 -1.5951
  167SOL    MW4  436   2.252   0.473   6.067 -0.2877  0.3939 -0.3174
  168SOL     OW  437   3.696   3.365   2.354  0.0275  0.4767  0.4674
  168SOL    HW2  438   3.729   3.374   2.265  0.8875  0.1192  0.7375
  168SOL    HW3  439   3.646   3.284   2.354  1.2897 -0.3397  0.6554
  168SOL    MW4  440   3.694   3.355   2.342  0.3075  0.3219  0.5278
  169SOL     OW  441   6.001   5.269   1.949  0.4340  0.0531  0.3620
  169SOL    HW2  442   5.978   5.256   1.857 -2.8359  0.4894  0.9993
  169SOL    HW3  443   5.937   5.216   1.997  0.7576  1.4375  2.4186
  169SOL    MW4  444   5.989   5.260   1.943  0.0453  0.2933  0.7175
  170SOL     OW  445   6.288   2.951   5.980 -0.5035 -0.1154 -0.3052
  170SOL    HW2  446   6.209   2.993   5.948 -1.0892  0.1169  1.3309
  170SOL    HW3  447   6.257   2.880   6.035  0.3849  0.2957  0.7832
  170SOL    MW4  448   6.273   2.947   5.983 -0.4635 -0.0305  0.0543
  171SOL     OW  449   2.800   3.981   0.998  0.6640 -0.1201  0.0906
  171SOL    HW2  450   2.857   4.049   0.962  0.6120 -0.0157  0.2086
  171SOL    HW3  451   2.787   4.006   1.089  1.1712 -0.6299  0.3122
  171SOL    MW4  452   2.806   3.993   1.005  0.7241 -0.1736  0.1354
  172SOL     OW  453   3.939   1.767   1.688 -0.8150  0.4280 -0.1458
  172SOL    HW2  454   3.984   1.824   1.750 -1.0930 -0.2642  0.7146
  172SOL    HW3  455   4.005   1.703   1.661 -0.9572  0.1262  0.2110
  172SOL    MW4  456   3.953   1.766   1.693 -0.8704  0.2969  0.0148
  173SOL     OW  457   2.964   3.545   5.644 -0.4699  0.1902  0.1297
  173SOL    HW2  458   2.942   3.456   5.617  0.2453  0.6605 -2.2555
  173SOL    HW3  459   3.058   3.541   5.663 -0.7465  0.1196  1.5431
  173SOL    MW4  460   2.973   3.533   5.643 -0.4120  0.2429  0.0015
  174SOL     OW  461   1.287   0.962   3.343  0.3912 -0.6824 -0.3211
  174SOL    HW2  462   1.378   0.984   3.363  0.1725 -1.7722  2.2649
  174SOL    HW3  463   1.250   0.934   3.427 -1.4439 -3.3504 -1.8672
  174SOL    MW4  464   1.294   0.961   3.357  0.1202 -1.1782 -0.1839
  175SOL     OW  465   1.160   6.052   4.333 -0.1421 -0.2509 -0.1938
  175SOL    HW2  466   1.078   6.100   4.344 -0.2850 -0.2871 -1.0060
  175SOL    HW3  467   1.157   5.985   4.401 -0.5724  0.0408  0.0817
  175SOL    MW4  468   1.149   6.049   4.343 -0.2177 -0.2172 -0.2646
  176SOL     OW  469   0.824   1.767   5.816  0.4084 -0.3244 -0.1228
  176SOL    HW2  470   0.897   1.760   5.878  0.5881 -1.2380 -0.4238
  176SOL    HW3  471   0.840   1.697   5.753  0.9765  1.3821 -1.9901
  176SOL    MW4  472   0.836   1.757   5.816  0.5071 -0.2198 -0.4089
  177SOL     OW  473   6.100   5.330   0.720 -0.5214  0.2745  0.2589
  177SOL    HW2  474   6.051   5.251   0.741  2.2097 -2.6733 -3.0912
  177SOL    HW3  475   6.075   5.350   0.630  0.5761  1.8533  0.2741
  177SOL    MW4  476   6.090   5.322   0.711 -0.0163  0.0939 -0.1811
  178SOL     OW  477   0.231   3.532   1.156 -0.0513  0.1187  0.5783
  178SOL    HW2  478   0.299   3.579   1.108  0.9807 -1.8974 -0.0347
  178SOL    HW3  479   0.150   3.555   1.110  0.3331  1.6781  0.6285
  178SOL    MW4  480   0.229   3.541   1.143  0.1356  0.0585  0.5041
  179SOL     OW  481   0.992   0.638   4.665  0.1397  1.0120 -0.0898
  179SOL    HW2  482   0.902   0.632   4.634 -0.2267  1.5299  0.8349
  179SOL    HW3  483   1.045   0.607   4.591 -0.9276 -3.3592  0.6807
  179SOL    MW4  484   0.988   0.633   4.651 -0.0495  0.5036  0.1338
  180SOL     OW  485   3.003   1.692   2.977  0.2815  0.3645  0.1314
  180SOL    HW2  486   3.009   1.597   2.964 -0.7274  0.6600 -3.2612
  180SOL    HW3  487   3.094   1.723   2.974  0.4668 -0.2411 -1.7009
  180SOL    MW4  488   3.016   1.683   2.975  0.1728  0.3236 -0.5579
  181SOL     OW  489   5.850   4.536   3.624  0.6171 -0.0808  0.0252
  181SOL    HW2  490   5.803   4.605   3.671 -0.6087 -1.3543  0.7309
  181SOL    HW3  491   5.839   4.458   3.678  0.9954 -1.1085 -1.3273
  181SOL    MW4  492   5.842   4.535   3.638  0.5053 -0.3844 -0.0601
  182SOL     OW  493   1.512   5.954   1.269  0.0269 -0.0012  0.3105
  182SOL    HW2  494   1.489   5.976   1.359 -1.0021  0.0572  0.0545
  182SOL    HW3  495   1.427   5.948   1.224  0.5302  0.0826 -0.6750
  182SOL    MW4  496   1.498   5.956   1.275 -0.0424  0.0176  0.1467
  183SOL     OW  497   6.021   4.727   4.067 -0.1135 -0.5426  0.2146
  183SOL    HW2  498   5.950   4.784   4.037  0.1372 -0.4675 -0.2581
  183SOL    HW3  499   6.097   4.755   4.014  0.0003 -1.3547 -0.0643
  183SOL    MW4  500   6.022   4.738   4.056 -0.0654 -0.6398  0.1155
  184SOL     OW  501   5.609   4.369   2.120  0.1406  0.1167 -0.2099
  184SOL    HW2  502   5.584   4.292   2.069  0.6115 -0.9772  1.1436
  184SOL    HW3  503   5.702   4.381   2.100 -0.3926  1.6576 -2.0368
  184SOL    MW4  504   5.618   4.360   2.111  0.1324  0.1757 -0.2723
  185SOL     OW  505   6.433   2.676   1.995  0.1616  0.0832  0.2234
  185SOL    HW2  506   6.489   2.663   2.072 -0.4123 -0.7720  0.5096
  185SOL    HW3  507   6.453   2.765   1.966 -1.1655  1.2573  2.6263
  185SOL    MW4  508   6.443   2.686   2.002 -0.0892  0.1253  0.5782
  186SOL     OW  509   2.344   0.304   2.416 -0.0204  0.2207  0.0228
  186SOL    HW2  510   2.412   0.236   2.417 -0.3976 -0.1657  0.6913
  186SOL    HW3  511   2.356   0.350   2.499 -1.9676 -1.3020  1.2450
  186SOL    MW4  512   2.355   0.301   2.427 -0.3271 -0.0312  0.2723
  187SOL     OW  513   0.192   4.805   2.239  0.8421 -0.8681 -0.0445
  187SOL    HW2  514   0.128   4.734   2.234  1.6638 -1.6304 -0.0406
  187SOL    HW3  515   0.211   4.828   2.148  0.6867 -0.7530 -0.0481
  187SOL    MW4  516   0.186   4.799   2.226  0.9300 -0.9535 -0.0444
  188SOL     OW  517   0.208   6.136   6.012 -0.0529 -0.4168 -0.3121
  188SOL    HW2  518   0.170   6.163   6.096 -1.0367 -0.5340 -0.7091
  188SOL    HW3  519   0.238   6.218   5.972 -1.2156 -0.1220 -0.6270
  188SOL    MW4  520   0.207   6.150   6.018 -0.3361 -0.3933 -0.4060
  189SOL     OW  521   6.433   5.892   4.939 -1.0025  0.5150  0.5112
  189SOL    HW2  522   6.522   5.899   4.974 -0.0025  2.3979 -2.1159
  189SOL    HW3  523   6.408   5.982   4.919 -2.2652 -0.2435 -1.6293
  189SOL    MW4  524   6.442   5.905   4.941 -1.0371  0.6634 -0.1179
  190SOL     OW  525   3.679   5.046   4.218 -0.2542 -0.1419 -0.3491
  190SOL    HW2  526   3.671   4.964   4.169 -0.4562 -1.9474  2.4803
  190SOL    HW3  527   3.589   5.067   4.244 -0.1819  0.9347 -0.9077
  190SOL    MW4  528   3.666   5.038   4.215 -0.2713 -0.2381 -0.0495
  191SOL     OW  529   0.429   1.720   0.603  0.1735  0.3258 -0.3458
  191SOL    HW2  530   0.435   1.640   0.550 -2.1007  0.8416 -1.5187
  191SOL    HW3  531   0.399   1.690   0.689 -0.4720 -0.1363 -0.7193
  191SOL    MW4  532   0.426   1.705   0.607 -0.2117  0.3328 -0.5498
  192SOL     OW  533   3.723   4.256   4.667 -0.3896 -0.3407 -0.5891
  192SOL    HW2  534   3.680   4.250   4.582 -1.7102 -0.9044  0.0901
  192SOL    HW3  535   3.674   4.323   4.715  0.9213  0.6576 -0.5697
  192SOL    MW4  536   3.711   4.264   4.662 -0.3909 -0.2834 -0.4969
  193SOL     OW  537   5.873   3.703   1.721 -0.4323 -0.0018  0.0131
  193SOL    HW2  538   5.819   3.722   1.645 -0.4467  0.1262  0.0546
  193SOL    HW3  539   5.810   3.684   1.791 -0.4477  1.0394  0.2957
  193SOL    MW4  540   5.858   3.703   1.721 -0.4362  0.1524  0.0558
  194SOL     OW  541   5.156   6.008   5.346 -0.1211 -0.5129 -0.2369
  194SOL    HW2  542   5.182   5.946   5.278  1.0913 -1.4863  1.0394
  194SOL    HW3  543   5.226   6.074   5.346  0.2986 -0.9437  0.5569
  194SOL    MW4  544   5.169   6.009   5.337  0.0943 -0.6982  0.0362
  195SOL     OW  545   3.667   0.778   6.260  0.3381 -0.0223 -0.2516
  195SOL    HW2  546   3.718   0.749   6.185  1.9609  0.7025  0.5402
  195SOL    HW3  547   3.626   0.860   6.230  1.1279  0.3644 -0.3022
  195SOL    MW4  548   3.668   0.785   6.246  0.6564  0.1244 -0.1538
  196SOL     OW  549   3.803   0.152   4.465 -0.0522 -0.4150 -0.2233
  196SOL    HW2  550   3.776   0.169   4.555 -0.1085 -0.0862 -0.3016
  196SOL    HW3  551   3.721   0.153   4.415  0.0692  0.2485 -0.4092
  196SOL    MW4  552   3.789   0.154   4.470 -0.0436 -0.2841 -0.2582
  197SOL     OW  553   1.303   5.413   2.694  0.5346  0.3718  0.1546
  197SOL    HW2  554   1.350   5.441   2.773  0.8219  0.7115 -0.1351
  197SOL    HW3  555   1.245   5.343   2.725  1.4690 -0.2937  0.4602
  197SOL    MW4  556   1.301   5.407   2.709  0.6958  0.3288  0.1567
  198SOL     OW  557   3.016   4.761   1.305 -0.1077  0.0206 -0.2737
  198SOL    HW2  558   3.029   4.852   1.281 -2.7523  0.1559 -1.4872
  198SOL    HW3  559   3.016   4.762   1.401 -0.9457  1.4537 -0.2591
  198SOL    MW4  560   3.018   4.773   1.315 -0.5672  0.2275 -0.4319
  199SOL     OW  561   5.119   3.189   1.670 -0.3323  0.8439  0.2730
  199SOL    HW2  562   5.166   3.120   1.717 -0.6961  1.1424  1.1057
  199SOL    HW3  563   5.185   3.257   1.655  0.0907  0.2081 -0.7941
  199SOL    MW4  564   5.134   3.189   1.674 -0.3245  0.7994  0.2421
  200SOL     OW  565   6.013   6.188   3.384 -0.0377 -0.3001 -0.2695
  200SOL    HW2  566   5.955   6.167   3.457  0.6955 -0.0813  0.3914
  200SOL    HW3  567   6.052   6.104   3.359  0.6806 -0.1900  0.4462
  200SOL    MW4  568   6.011   6.174   3.391  0.1538 -0.2567 -0.0879
  201SOL     OW  569   5.576   5.333   2.046  0.6643  0.5521 -0.3118
  201SOL    HW2  570   5.604   5.258   2.099  1.6832  1.2294  0.1378
  201SOL    HW3  571   5.583   5.302   1.956 -1.7776 -0.8579 -0.1263
  201SOL    MW4  572   5.580   5.319   2.041  0.4765  0.4554 -0.2280
  202SOL     OW  573   3.461   1.743   1.877 -0.2915 -0.3340  0.5241
  202SOL    HW2  574   3.490   1.701   1.958  2.4167  3.8172  2.0023
  202SOL    HW3  575   3.399   1.810   1.905 -2.1890 -1.1510 -1.3976
  202SOL    MW4  576   3.457   1.746   1.891 -0.1846  0.1059  0.4656
  203SOL     OW  577   3.816   4.152   1.663 -0.8152  0.6766 -0.0642
  203SOL    HW2  578   3.826   4.110   1.748 -0.5165  0.4075 -0.2279
  203SOL    HW3  579   3.902   4.140   1.621 -0.8019  1.2430 -0.2031
  203SOL    MW4  580   3.829   4.145   1.668 -0.7741  0.7158 -0.1042
  204SOL     OW  581   2.460   5.276   5.297  0.3205  0.2241  0.1312
  204SOL    HW2  582   2.508   5.268   5.380 -0.4393 -0.9256  0.4846
  204SOL    HW3  583   2.383   5.219   5.308 -0.7727  1.4726 -0.6692
  204SOL    MW4  584   2.456   5.267   5.310  0.0760  0.2371  0.0722
  205SOL     OW  585   2.827   5.329   0.663 -0.4254  0.2417  0.5257
  205SOL    HW2  586   2.776   5.252   0.638  2.1450 -2.0963  1.8856
  205SOL    HW3  587   2.838   5.378   0.581 -3.2059 -0.0806 -0.1284
  205SOL    MW4  588   2.822   5.325   0.649 -0.4531 -0.1093  0.6188
  206SOL     OW  589   5.147   6.284   4.356  0.4911  0.3118 -0.0516
  206SOL    HW2  590   5.129   6.377   4.342  1.0506  0.4476  0.1129
  206SOL    HW3  591   5.227   6.283   4.409  0.3989 -0.2591  0.0801
  206SOL    MW4  592   5.155   6.296   4.361  0.5528  0.2544 -0.0125
  207SOL     OW  593   1.290   1.429   4.396  0.4762 -0.1295 -0.1651
  207SOL    HW2  594   1.232   1.453   4.468  0.6888 -0.5212  0.1432
  207SOL    HW3  595   1.241   1.362   4.347  0.8363 -0.7966  0.3592
  207SOL    MW4  596   1.276   1.423   4.399  0.5518 -0.2692 -0.0552
  208SOL     OW  597   0.666   2.812   0.908  0.0467  0.2033 -0.1672
  208SOL    HW2  598   0.679   2.721   0.937 -0.3460  0.5330  1.1320
  208SOL    HW3  599   0.575   2.830   0.929  0.3842  1.2025  0.5083
  208SOL    MW4  600   0.656   2.802   0.915  0.0394  0.3786  0.0934
  209SOL     OW  601   6.322   1.734   0.178  0.3571  0.2480 -0.4687
  209SOL    HW2  602   6.319   1.666   0.110 -0.1274  0.1846 -0.3934
  209SOL    HW3  603   6.368   1.694   0.251  0.4154  0.1315 -0.5696
  209SOL    MW4  604   6.327   1.720   0.178  0.3008  0.2243 -0.4720
  210SOL     OW  605   5.885   0.404   1.641  0.4277 -0.4036  0.0037
  210SOL    HW2  606   5.913   0.493   1.619  0.6939 -0.4041  0.3285
  210SOL    HW3  607   5.847   0.370   1.560 -0.0752  0.1569 -0.0026
  210SOL    MW4  608   5.884   0.411   1.628  0.3965 -0.3297  0.0457
  211SOL     OW  609   3.276   1.358   5.424 -0.0732 -0.1112 -0.0835
  211SOL    HW2  610   3.279   1.285   5.485 -1.0471 -2.1888 -2.3379
  211SOL    HW3  611   3.186   1.358   5.392  0.7983 -0.2837 -2.7753
  211SOL    MW4  612   3.264   1.348   5.428 -0.0867 -0.4080 -0.7361
  212SOL     OW  613   6.344   3.926   3.605  0.0281 -0.3604 -0.0922
  212SOL    HW2  614   6.416   3.988   3.590 -1.7956  1.3787 -2.3810
  212SOL    HW3  615   6.358   3.857   3.540 -0.3350 -0.0268 -0.5313
  212SOL    MW4  616   6.356   3.925   3.595 -0.2604 -0.0869 -0.4521
  213SOL     OW  617   0.115   6.266   2.979 -0.1946  0.5112  0.0037
  213SOL    HW2  618   0.094   6.354   2.948 -1.9281 -0.0719 -0.5857
  213SOL    HW3  619   0.109   6.211   2.901  0.7426 -0.1682  0.3876
  213SOL    MW4  620   0.112   6.271   2.965 -0.2997  0.3447 -0.0234
  214SOL     OW  621   0.294   6.426   1.486 -0.3356 -0.0855 -0.5219
  214SOL    HW2  622   0.256   6.504   1.444 -0.6524  0.0223 -0.0346
  214SOL    HW3  623   0.316   6.454   1.574  0.7472 -0.1906 -0.7423
  214SOL    MW4  624   0.292   6.440   1.492 -0.2345 -0.0851 -0.4867
  215SOL     OW  625   5.004   6.114   2.799  0.3745  0.7532  0.2139
  215SOL    HW2  626   4.970   6.037   2.844  0.6185  0.6535  0.2307
  215SOL    HW3  627   5.080   6.082   2.750 -1.0346  0.4270 -1.9028
  215SOL    MW4  628   5.009   6.100   2.798  0.2208  0.6970 -0.0632
  216SOL     OW  629   5.203   6.058   5.609  0.3492 -0.2405 -0.1694
  216SOL    HW2  630   5.176   6.032   5.521 -0.0985  1.6930 -0.6470
  216SOL    HW3  631   5.286   6.013   5.623 -1.9490 -4.8724  0.5690
  216SOL    MW4  632   5.210   6.048   5.599 -0.0131 -0.5965 -0.1350
  217SOL     OW  633   0.992   4.484   3.704 -0.2002 -0.0728 -0.1786
  217SOL    HW2  634   1.083   4.505   3.681  0.2433 -1.0858  0.6175
  217SOL    HW3  635   0.980   4.394   3.674 -0.6513 -0.2566  0.5433
  217SOL    MW4  636   1.003   4.475   3.697 -0.2012 -0.2307  0.0217
  218SOL     OW  637   3.802   3.656   0.478  0.1240  0.6701  0.1953
  218SOL    HW2  638   3.740   3.584   0.466  0.1667  0.6672 -0.0259
  218SOL    HW3  639   3.885   3.622   0.446  0.1490  0.8095  0.1076
  218SOL    MW4  640   3.805   3.642   0.472  0.1329  0.6881  0.1546
  219SOL     OW  641   1.048   1.733   5.973  0.4766  0.4112 -0.3559
  219SOL    HW2  642   1.092   1.767   6.051  0.2477 -1.0595  0.4378
  219SOL    HW3  643   1.107   1.754   5.901 -0.1447  3.4609 -0.1209
  219SOL    MW4  644   1.061   1.740   5.974  0.3645  0.6195 -0.2202
  220SOL     OW  645   2.390   4.995   4.684 -0.6597  0.3874 -0.0612
  220SOL    HW2  646   2.333   4.935   4.733 -1.2264  0.5294 -0.5364
  220SOL    HW3  647   2.375   4.972   4.592  1.2321 -0.6431 -0.1645
  220SOL    MW4  648   2.381   4.984   4.678 -0.4849  0.2702 -0.1376
  221SOL     OW  649   2.397   1.619   6.030 -0.0493 -0.5971 -0.4067
  221SOL    HW2  650   2.367   1.529   6.012  1.1063 -1.1180  0.2074
  221SOL    HW3  651   2.488   1.621   6.002 -0.9346  1.4123 -3.6815
  221SOL    MW4  652   2.405   1.607   6.024 -0.0136 -0.4007 -0.7578
  222SOL     OW  653   0.428   3.098   5.125 -0.2083  0.7591 -0.5575
  222SOL    HW2  654   0.382   3.064   5.201  1.9918 -1.3856 -0.0920
  222SOL    HW3  655   0.505   3.143   5.160  0.8978 -0.3490 -1.4600
  222SOL    MW4  656   0.432   3.100   5.139  0.2279  0.3299 -0.6151
  223SOL     OW  657   6.020   2.665   4.221 -0.4179  0.2913  0.0303
  223SOL    HW2  658   6.011   2.735   4.286 -0.3068 -0.0374  0.3958
  223SOL    HW3  659   6.088   2.697   4.161 -3.9445  3.0021 -2.9918
  223SOL    MW4  660   6.028   2.679   4.221 -0.8686  0.6056 -0.3202
  224SOL     OW  661   2.128   2.865   5.695 -0.8903 -0.3428 -0.5119
  224SOL    HW2  662   2.091   2.878   5.607 -1.1907 -1.0358 -0.4958
  224SOL    HW3  663   2.057   2.823   5.744 -0.0945 -1.6867 -0.4769
  224SOL    MW4  664   2.114   2.861   5.690 -0.8249 -0.6115 -0.5052
  225SOL     OW  665   6.132   2.488   4.392  0.0104  0.1175 -0.2554
  225SOL    HW2  666   6.109   2.402   4.356  0.6506  0.4557 -1.5501
  225SOL    HW3  667   6.112   2.549   4.321  1.9867  0.7442 -0.3471
  225SOL    MW4  668   6.127   2.485   4.378  0.3556  0.2448 -0.4383
  226SOL     OW  669   3.710   2.485   6.000 -0.5783  0.1086  0.0487
  226SOL    HW2  670   3.735   2.541   6.073 -0.7011 -1.1921  1.1220
  226SOL    HW3  671   3.781   2.497   5.936  0.6300 -0.3115  1.2654
  226SOL    MW4  672   3.723   2.494   6.001 -0.4351 -0.1185  0.3509
  227SOL     OW  673   4.202   5.864   2.965 -0.0161  0.3835  0.3171
  227SOL    HW2  674   4.164   5.785   3.002  0.9504 -0.6956 -0.8983
  227SOL    HW3  675   4.238   5.837   2.881 -1.2466  2.5232 -0.9855
  227SOL    MW4  676   4.202   5.850   2.959 -0.0509  0.5235 -0.0151
  228SOL     OW  677   3.395   1.367   0.119 -0.1650 -0.1489 -0.5990
  228SOL    HW2  678   3.303   1.347   0.105  0.4021 -1.6922 -2.4464
  228SOL    HW3  679   3.434   1.284   0.144  0.6849  0.5877  0.6764
  228SOL    MW4  680   3.388   1.354   0.121  0.0220 -0.2553 -0.6745
  229SOL     OW  681   5.696   6.006   3.304 -0.1007  0.3914  0.1584
  229SOL    HW2  682   5.637   5.982   3.233  1.3522  0.8582 -1.2817
  229SOL    HW3  683   5.677   6.098   3.321 -0.9968  0.0687  0.9415
  229SOL    MW4  684   5.686   6.015   3.297 -0.0272  0.4104  0.0717
  230SOL     OW  685   2.695   5.524   3.627 -0.3829 -0.2684  0.4849
  230SOL    HW2  686   2.735   5.457   3.683 -0.4569 -0.6851  0.0468
  230SOL    HW3  687   2.607   5.489   3.609 -1.1072  0.7991  1.7381
  230SOL    MW4  688   2.689   5.510   3.632 -0.4882 -0.1825  0.5925
  231SOL     OW  689   2.534   2.744   0.658 -0.1854  0.1389 -0.0860
  231SOL    HW2  690   2.566   2.688   0.728  0.1630 -0.6854 -0.8784
  231SOL    HW3  691   2.613   2.779   0.617 -0.3075 -0.7147 -1.1036
  231SOL    MW4  692   2.549   2.741   0.662 -0.1555 -0.0825 -0.3248
  232SOL     OW  693   2.731   4.057   6.233 -0.2529  0.1480 -0.0145
  232SOL    HW2  694   2.662   4.026   6.292 -0.8710  0.1618 -0.7220
  232SOL    HW3  695   2.712   4.149   6.219  0.6062  0.4630  0.7224
  232SOL    MW4  696   2.720   4.065   6.239 -0.2211  0.1914 -0.0106
  233SOL     OW  697   4.841   4.337   0.227 -0.0416 -0.1612 -0.4224
  233SOL    HW2  698   4.799   4.252   0.242  0.1262 -0.0410  0.8615
  233SOL    HW3  699   4.865   4.336   0.135 -1.5121 -0.8430 -0.8359
  233SOL    MW4  700   4.838   4.325   0.217 -0.2135 -0.2353 -0.3076
  234SOL     OW  701   1.510   0.801   3.506  0.0971 -0.4494  0.3116
  234SOL    HW2  702   1.478   0.711   3.507 -0.1709 -0.4013  3.0357
  234SOL    HW3  703   1.592   0.797   3.458  0.7913 -2.4500  1.5525
  234SOL    MW4  704   1.516   0.789   3.500  0.1533 -0.7070  0.8347
  235SOL     OW  705   0.682   5.056   5.245  0.1229  0.6828  0.6486
  235SOL    HW2  706   0.599   5.102   5.230 -0.8009 -1.1937 -0.4759
  235SOL    HW3  707   0.703   5.073   5.336 -2.3651 -0.0525  1.4442
  235SOL    MW4  708   0.674   5.065   5.255 -0.3273  0.3382  0.6052
  236SOL     OW  709   4.604   5.764   4.951 -0.0817 -0.1091 -0.0216
  236SOL    HW2  710   4.644   5.732   4.870 -1.4017  0.7772 -1.0730
  236SOL    HW3  711   4.614   5.859   4.946  1.3178 -0.1194  1.7001
  236SOL    MW4  712   4.611   5.772   4.940 -0.0712  0.0065  0.0668
  237SOL     OW  713   3.199   3.144   5.104  0.7233 -0.0386 -0.6631
  237SOL    HW2  714   3.267   3.128   5.038  2.4655  3.3434  0.1114
  237SOL    HW3  715   3.243   3.132   5.188 -0.1903  0.2642 -0.1270
  237SOL    MW4  716   3.213   3.140   5.106  0.8326  0.4475 -0.4902
  238SOL     OW  717   5.596   2.150   0.382 -0.5041  0.2153  0.6480
  238SOL    HW2  718   5.588   2.055   0.371 -0.8351  0.2987  0.1188
  238SOL    HW3  719   5.672   2.162   0.438 -0.1603 -0.3443  0.3049
  238SOL    MW4  720   5.605   2.139   0.388 -0.5024  0.1525  0.5329
  239SOL     OW  721   0.111   4.551   1.341  0.2916  0.4049 -0.3515
  239SOL    HW2  722   0.161   4.519   1.416  0.5204 -0.1220 -0.7265
  239SOL    HW3  723   0.128   4.645   1.340  2.7917  0.0239 -1.5372
  239SOL    MW4  724   0.120   4.559   1.351  0.6516  0.2851 -0.5574
  240SOL     OW  725   1.649   2.151   3.558 -0.4329 -0.5191  0.1354
  240SOL    HW2  726   1.557   2.127   3.549 -0.3573 -0.1511 -2.3447
  240SOL    HW3  727   1.683   2.093   3.627 -2.2519 -1.4226  0.3161
  240SOL    MW4  728   1.642   2.140   3.566 -0.6629 -0.5897 -0.1680
  241SOL     OW  729   0.068   4.553   4.919 -0.3802 -0.8344  0.7429
  241SOL    HW2  730   0.063   4.606   4.840  2.5795  0.4114  1.2572
  241SOL    HW3  731   0.011   4.597   4.982  1.7583  1.7775  1.0668
  241SOL    MW4  732   0.060   4.566   4.917  0.2924 -0.3254  0.8535
  242SOL     OW  733   5.505   2.364   3.791  0.0548  0.5329 -0.3033
  242SOL    HW2  734   5.553   2.285   3.764 -0.0338  1.2360 -2.7789
  242SOL    HW3  735   5.552   2.395   3.868  0.1431 -1.8440  0.7009
  242SOL    MW4  736   5.518   2.358   3.798  0.0548  0.3121 -0.4974
  243SOL     OW  737   3.668   5.734   6.132 -0.0025  0.3519  0.2550
  243SOL    HW2  738   3.584   5.773   6.105 -0.0803 -1.7901 -3.3032
  243SOL    HW3  739   3.734   5.787   6.087  0.4174  0.5521  1.0850
  243SOL    MW4  740   3.665   5.746   6.122  0.0427  0.0957 -0.1049
  244SOL     OW  741   2.859   2.264   6.240 -0.6623 -0.2651  0.2481
  244SOL    HW2  742   2.923   2.237   6.306  0.0282  1.2516  0.2432
  244SOL    HW3  743   2.911   2.301   6.169 -1.4730 -0.6138 -0.5590
  244SOL    MW4  744   2.874   2.265   6.239 -0.6781 -0.1110  0.1410
  245SOL     OW  745   5.770   1.414   2.239 -0.2308  0.2245  0.1892
  245SOL    HW2  746   5.788   1.503   2.208 -0.1723  0.3149  0.4757
  245SOL    HW3  747   5.853   1.386   2.278 -0.4234  0.2733  0.6414
  245SOL    MW4  748   5.784   1.422   2.240 -0.2485  0.2428  0.2867
  246SOL     OW  749   5.280   5.453   1.466 -0.0736 -0.0453  0.1359
  246SOL    HW2  750   5.264   5.464   1.559  0.4736 -0.8749  0.3404
  246SOL    HW3  751   5.278   5.541   1.430  1.2683  0.4497  1.2006
  246SOL    MW4  752   5.278   5.466   1.473  0.1756 -0.0895  0.3034
  247SOL     OW  753   0.230   0.370   4.321 -0.1431 -0.2167 -0.0855
  247SOL    HW2  754   0.160   0.334   4.266  0.7693  0.0697 -1.4727
  247SOL    HW3  755   0.191   0.447   4.361 -0.9983 -0.7383  0.1275
  247SOL    MW4  756   0.215   0.375   4.319 -0.1356 -0.2477 -0.2404
  248SOL     OW  757   0.872   5.558   6.163  0.1285  0.2844  0.4457
  248SOL    HW2  758   0.909   5.587   6.246  0.2549  4.3565 -0.7923
  248SOL    HW3  759   0.938   5.582   6.098 -1.8152  1.6169 -1.1867
  248SOL    MW4  760   0.886   5.565   6.165 -0.1113  0.9974  0.0670
  249SOL     OW  761   2.406   0.841   4.105  0.4017  0.3903  0.6387
  249SOL    HW2  762   2.391   0.929   4.071 -0.4211  0.7351  1.8601
  249SOL    HW3  763   2.501   0.836   4.117  0.3729  1.4271  1.3839
  249SOL    MW4  764   2.417   0.852   4.102  0.2894  0.5726  0.8981
  250SOL     OW  765   1.817   4.433   0.872  0.0484  0.3086 -0.4763
  250SOL    HW2  766   1.827   4.400   0.783  0.0208  0.8909 -0.6973
  250SOL    HW3  767   1.891   4.395   0.920 -0.8956 -1.4228 -0.3141
  250SOL    MW4  768   1.828   4.424   0.867 -0.0798  0.1570 -0.4840
  251SOL     OW  769   4.932   0.497   2.749  0.3617  0.0893 -0.1441
  251SOL    HW2  770   4.956   0.564   2.813 -0.3336 -1.4649  1.8065
  251SOL    HW3  771   4.988   0.423   2.769  0.8049 -0.1408 -1.9996
  251SOL    MW4  772   4.943   0.496   2.760  0.3285 -0.1461 -0.1316
  252SOL     OW  773   3.377   2.569   3.734  0.0162 -0.0725  0.4435
  252SOL    HW2  774   3.344   2.658   3.740  0.3666  0.0966 -0.0507
  252SOL    HW3  775   3.434   2.559   3.810  0.0924  0.1772  0.4201
  252SOL    MW4  776   3.380   2.579   3.745  0.0725 -0.0172  0.3752
  253SOL     OW  777   0.502   1.778   3.300 -0.1380 -0.3018 -0.8274
  253SOL    HW2  778   0.551   1.711   3.252 -0.0042 -1.6651  1.0772
  253SOL    HW3  779   0.538   1.861   3.270  1.9013 -1.1915 -0.9907
  253SOL    MW4  780   0.513   1.780   3.289  0.1487 -0.5991 -0.5977
  254SOL     OW  781   0.162   4.570   3.246 -0.3292  0.1517 -0.3055
  254SOL    HW2  782   0.114   4.522   3.314  0.2643  0.4077  0.2908
  254SOL    HW3  783   0.138   4.661   3.260 -0.6091  0.1526 -0.7699
  254SOL    MW4  784   0.152   4.576   3.257 -0.2878  0.1856 -0.2881
  255SOL     OW  785   2.942   5.202   4.703  0.3174  0.0772 -0.3246
  255SOL    HW2  786   3.005   5.247   4.759  0.1327  0.4207 -0.3913
  255SOL    HW3  787   2.859   5.206   4.752  0.1189  0.5218 -0.6930
  255SOL    MW4  788   2.939   5.208   4.717  0.2668  0.1812 -0.3820
  256SOL     OW  789   1.473   1.339   2.312  0.2857 -0.1595  0.3136
  256SOL    HW2  790   1.544   1.348   2.249 -1.2113 -0.2983 -1.4664
  256SOL    HW3  791   1.447   1.429   2.332  0.3091 -0.1306  0.2134
  256SOL    MW4  792   1.479   1.352   2.306  0.0913 -0.1740  0.0655
  257SOL     OW  793   0.938   4.427   4.345 -0.0120 -0.4450  0.3802
  257SOL    HW2  794   0.963   4.386   4.428  2.0174  1.6597  0.9367
  257SOL    HW3  795   1.019   4.428   4.294  0.0926  2.6503  0.4088
  257SOL    MW4  796   0.952   4.422   4.350  0.2696  0.2410  0.4574
  258SOL     OW  797   4.609   0.784   4.829  0.2914  0.5393 -0.6858
  258SOL    HW2  798   4.679   0.768   4.766  1.1975  1.3567  0.0939
  258SOL    HW3  799   4.564   0.700   4.837  0.9179  0.1164 -1.5020
  258SOL    MW4  800   4.612   0.771   4.821  0.4936  0.5914 -0.6906
  259SOL     OW  801   4.432   1.349   2.576  0.0960 -0.0603 -0.2008
  259SOL    HW2  802   4.501   1.301   2.530  1.1935  2.4987 -1.4271
  259SOL    HW3  803   4.392   1.404   2.508 -2.8697 -1.0574  0.5852
  259SOL    MW4  804   4.435   1.350   2.561 -0.1505  0.1458 -0.2589
  260SOL     OW  805   5.466   4.878   1.090  0.0219  0.1299 -0.0809
  260SOL    HW2  806   5.382   4.876   1.135  1.5484  1.0135  3.1781
  260SOL    HW3  807   5.494   4.787   1.086 -0.2597  0.0065  0.6316
  260SOL    MW4  808   5.459   4.866   1.096  0.1862  0.2302  0.4431
  261SOL     OW  809   4.029   0.895   6.371 -0.2905 -0.0369 -0.2956
  261SOL    HW2  810   4.025   0.912   6.277  1.1977  1.7575 -0.0863
  261SOL    HW3  811   4.122   0.894   6.392 -0.5923 -0.6046  1.1528
  261SOL    MW4  812   4.041   0.897   6.362 -0.1340  0.1250 -0.0769
  262SOL     OW  813   1.926   0.386   1.278 -0.3570 -0.2761  0.3895
  262SOL    HW2  814   1.854   0.437   1.241  1.5724  2.0834 -0.3816
  262SOL    HW3  815   1.938   0.422   1.366 -0.3160 -0.8833  0.6381
  262SOL    MW4  816   1.918   0.398   1.285 -0.0971 -0.0449  0.3205
  263SOL     OW  817   2.106   1.420   0.486  0.0465 -0.0771  0.3194
  263SOL    HW2  818   2.129   1.508   0.455 -1.8724  1.0616  1.8331
  263SOL    HW3  819   2.157   1.409   0.567 -1.2775  0.6117  1.2958
  263SOL    MW4  820   2.116   1.430   0.493 -0.3814  0.1640  0.6479
  264SOL     OW  821   5.560   1.537   4.345  0.1862  0.2465  0.2712
  264SOL    HW2  822   5.517   1.621   4.360 -1.4105 -0.2234 -1.2599
  264SOL    HW3  823   5.560   1.526   4.250 -0.5980 -1.9044  0.4521
  264SOL    MW4  824   5.554   1.546   4.335 -0.1279 -0.0993  0.0931
  265SOL     OW  825   6.211   3.617   3.601  0.1638 -0.1909 -0.3351
  265SOL    HW2  826   6.159   3.540   3.578 -0.2794 -0.5373  1.6413
  265SOL    HW3  827   6.219   3.613   3.697 -0.7410  2.7623 -0.0441
  265SOL    MW4  828   6.205   3.606   3.611 -0.0141  0.1531 -0.0360
  266SOL     OW  829   0.118   0.454   6.255 -0.5690 -0.0405 -0.5074
  266SOL    HW2  830   0.048   0.517   6.272 -1.5011 -1.1151 -0.2495
  266SOL    HW3  831   0.185   0.504   6.208 -0.7316  1.4369  0.7857
  266SOL    MW4  832   0.118   0.469   6.251 -0.7134  0.0126 -0.3028
  267SOL     OW  833   1.096   4.351   0.428  0.1231 -0.5284  0.2888
  267SOL    HW2  834   1.062   4.263   0.410 -1.8783  0.1564  0.4396
  267SOL    HW3  835   1.163   4.365   0.361 -0.6177 -1.5748 -0.7152
  267SOL    MW4  836   1.100   4.341   0.417 -0.2387 -0.5761  0.1762
  268SOL     OW  837   5.348   0.792   0.286 -0.5339  0.0787  0.0040
  268SOL    HW2  838   5.383   0.712   0.248  0.7236  1.1031 -1.0934
  268SOL    HW3  839   5.354   0.857   0.216  0.6553  1.7175  1.5030
  268SOL    MW4  840   5.353   0.790   0.272 -0.2111  0.4301  0.0570
  269SOL     OW  841   6.153   3.103   2.008 -0.1618 -0.1527  0.1973
  269SOL    HW2  842   6.216   3.164   1.969  0.7234  0.0344  1.8034
  269SOL    HW3  843   6.199   3.019   2.008 -0.2122 -0.1862  0.6368
  269SOL    MW4  844   6.168   3.100   2.003 -0.0517 -0.1324  0.4672
  270SOL     OW  845   0.308   0.305   0.152 -0.1869 -0.4966 -0.4415
  270SOL    HW2  846   0.335   0.289   0.061 -1.3959  0.2678 -0.9570
  270SOL    HW3  847   0.292   0.399   0.156 -0.1479 -0.5292  0.5655
  270SOL    MW4  848   0.309   0.315   0.140 -0.3413 -0.4000 -0.3766
  271SOL     OW  849   6.246   5.197   4.920  0.0455 -0.1368  0.0796
  271SOL    HW2  850   6.151   5.204   4.930 -0.0784  1.2727 -1.4916
  271SOL    HW3  851   6.259   5.186   4.825  1.4274 -1.3151  0.3661
  271SOL    MW4  852   6.235   5.197   4.909  0.2115 -0.1063 -0.0899
  272SOL     OW  853   3.057   2.170   4.643 -0.7127 -0.2057 -0.4615
  272SOL    HW2  854   3.064   2.106   4.572 -0.2653 -0.4697 -0.1873
  272SOL    HW3  855   3.069   2.118   4.722  0.2194  0.3054 -0.2599
  272SOL    MW4  856   3.060   2.155   4.644 -0.5307 -0.1731 -0.3987
  273SOL     OW  857   5.928   5.491   0.936 -0.8422  0.5445 -0.0041
  273SOL    HW2  858   5.907   5.523   1.024 -0.8453  0.8324 -0.1082
  273SOL    HW3  859   5.848   5.505   0.886 -1.9056 -2.3973  0.6775
  273SOL    MW4  860   5.915   5.497   0.941 -0.9829  0.1943  0.0721
  274SOL     OW  861   1.963   2.923   2.320 -0.1957 -0.2237  0.1899
  274SOL    HW2  862   1.956   2.975   2.400 -1.1633  1.0672 -0.6879
  274SOL    HW3  863   1.953   2.987   2.249  0.8650 -1.2958 -0.9765
  274SOL    MW4  864   1.961   2.938   2.321 -0.1834 -0.1948 -0.0798
  275SOL     OW  865   3.958   0.330   1.299 -0.1355  0.1374  0.5174
  275SOL    HW2  866   3.940   0.244   1.337  0.0054 -0.0470  0.1762
  275SOL    HW3  867   3.983   0.311   1.208  3.2475  0.2493  1.3096
  275SOL    MW4  868   3.959   0.316   1.292  0.3294  0.1278  0.5769
  276SOL     OW  869   4.763   0.842   5.924  0.1307  0.0253 -0.1501
  276SOL    HW2  870   4.808   0.783   5.984  0.0528 -1.5055 -1.5179
  276SOL    HW3  871   4.692   0.790   5.887 -1.9164  1.9254  0.8448
  276SOL    MW4  872   4.759   0.828   5.927 -0.1497  0.0740 -0.1993
  277SOL     OW  873   3.429   5.763   0.172 -0.4648  0.2523  0.0629
  277SOL    HW2  874   3.501   5.723   0.222 -0.5071  1.3758  1.0565
  277SOL    HW3  875   3.461   5.767   0.082  1.4465  2.3382  0.7722
  277SOL    MW4  876   3.443   5.758   0.167 -0.2182  0.6758  0.2876
  278SOL     OW  877   2.414   3.969   3.889 -0.3717  0.4348 -0.5473
  278SOL    HW2  878   2.389   4.060   3.905 -0.9520  0.4931 -1.7288
  278SOL    HW3  879   2.449   3.968   3.800 -1.4069 -0.6958 -0.9630
  278SOL    MW4  880   2.416   3.981   3.880 -0.5849  0.2933 -0.7580
  279SOL     OW  881   1.916   4.268   4.571  0.8701 -0.3221 -0.1816
  279SOL    HW2  882   1.961   4.184   4.563 -1.3091 -1.5167 -0.8852
  279SOL    HW3  883   1.953   4.321   4.500  3.2171 -0.1440  1.0806
  279SOL    MW4  884   1.927   4.264   4.560  0.8922 -0.4562 -0.1079
  280SOL     OW  885   3.580   4.911   1.114  0.2593  0.7351  0.1570
  280SOL    HW2  886   3.592   4.980   1.180 -0.2072 -0.2679  1.3460
  280SOL    HW3  887   3.488   4.917   1.089  0.3861  0.9810 -0.2558
  280SOL    MW4  888   3.569   4.921   1.120  0.2145  0.6352  0.2594
  281SOL     OW  889   1.492   6.448   0.265  0.0282 -0.0245  0.7546
  281SOL    HW2  890   1.496   6.355   0.245 -0.2191 -0.0791  0.9555
  281SOL    HW3  891   1.570   6.465   0.318  2.0164  0.5950 -2.1353
  281SOL    MW4  892   1.503   6.438   0.269  0.2579  0.0500  0.3998
  282SOL     OW  893   4.584   4.114   5.135  0.0928  0.7152 -0.3194
  282SOL    HW2  894   4.592   4.192   5.080  0.0051 -0.0236 -1.4140
  282SOL    HW3  895   4.626   4.045   5.084  0.6112  0.1403  0.8511
  282SOL    MW4  896   4.591   4.115   5.121  0.1496  0.5419 -0.3094
  283SOL     OW  897   4.087   0.887   3.893 -0.0478  0.0559 -0.5186
  283SOL    HW2  898   4.042   0.806   3.917  1.2446 -0.1154  1.5311
  283SOL    HW3  899   4.138   0.864   3.815 -0.8563 -0.6565 -0.8518
  283SOL    MW4  900   4.088   0.874   3.886  0.0160 -0.0607 -0.2921
  284SOL     OW  901   3.671   0.378   0.140  0.0015  0.2330 -0.3090
  284SOL    HW2  902   3.732   0.449   0.161  0.7821 -1.1035  2.4614
  284SOL    HW3  903   3.584   0.414   0.162  0.4346  0.2551  1.5541
  284SOL    MW4  904   3.667   0.392   0.146  0.1617  0.0596  0.3023
  285SOL     OW  905   5.156   0.244   0.631 -0.1466  0.3450 -0.0065
  285SOL    HW2  906   5.231   0.299   0.611  0.8902 -1.1739 -0.4552
  285SOL    HW3  907   5.138   0.260   0.723  0.5143  0.9774  0.0205
  285SOL    MW4  908   5.163   0.253   0.640  0.0774  0.2280 -0.0622
  286SOL     OW  909   0.656   5.791   3.833 -0.0068  1.0188  0.0261
  286SOL    HW2  910   0.681   5.811   3.743  0.3070  0.2579 -0.0643
  286SOL    HW3  911   0.734   5.750   3.871  0.0079  1.7010  0.7777
  286SOL    MW4  912   0.670   5.789   3.827  0.0366  1.0084  0.1134
  287SOL     OW  913   2.548   2.879   2.359  0.4353  0.3486 -0.6503
  287SOL    HW2  914   2.593   2.954   2.321  0.5503 -0.5562 -2.4162
  287SOL    HW3  915   2.460   2.883   2.322  0.0412  0.3208  0.2667
  287SOL    MW4  916   2.543   2.889   2.349  0.3984  0.2256 -0.7623
  288SOL     OW  917   0.917   5.364   4.006 -0.1308 -0.0308  0.3031
  288SOL    HW2  918   0.947   5.308   4.077  1.2164  0.5210  0.1894
  288SOL    HW3  919   0.865   5.432   4.049 -0.1551 -0.2656  0.6477
  288SOL    MW4  920   0.914   5.366   4.021  0.0437  0.0110  0.3335
  289SOL     OW  921   4.515   1.001   6.271 -0.0325  0.6129  0.1128
  289SOL    HW2  922   4.566   1.024   6.193 -0.4971  1.2910  0.0058
  289SOL    HW3  923   4.490   0.910   6.256  0.0320  0.6841 -0.4455
  289SOL    MW4  924   4.519   0.992   6.258 -0.0853  0.7118  0.0250
  290SOL     OW  925   0.840   5.126   0.248  0.2242  0.1891 -0.3527
  290SOL    HW2  926   0.795   5.047   0.276 -0.2400  0.9323  1.1201
  290SOL    HW3  927   0.903   5.144   0.318  0.9787  0.6238 -1.1139
  290SOL    MW4  928   0.842   5.118   0.261  0.2625  0.3445 -0.2588
  291SOL     OW  929   2.084   3.068   1.405 -0.0567  0.7245  0.3835
  291SOL    HW2  930   2.166   3.019   1.407 -0.1379  0.4896 -1.0181
  291SOL    HW3  931   2.025   3.016   1.351 -0.6323  1.6295  0.1082
  291SOL    MW4  932   2.087   3.055   1.398 -0.1434  0.8129  0.1622
  292SOL     OW  933   5.240   5.347   0.565  0.3235  0.1612 -0.0331
  292SOL    HW2  934   5.304   5.276   0.563  1.3649  1.0773 -1.4071
  292SOL    HW3  935   5.210   5.350   0.656  0.2904 -1.9675  0.0729
  292SOL    MW4  936   5.245   5.338   0.577  0.4566  0.0012 -0.2004
  293SOL     OW  937   1.407   0.767   5.361 -0.2381  0.1041 -0.3222
  293SOL    HW2  938   1.362   0.835   5.413  1.0417  0.4142  0.4344
  293SOL    HW3  939   1.420   0.808   5.275 -1.5652 -0.0700 -0.6207
  293SOL    MW4  940   1.403   0.782   5.357 -0.2443  0.1221 -0.2618
  294SOL     OW  941   1.310   2.241   6.147 -0.1518  0.7618 -0.8605
  294SOL    HW2  942   1.299   2.334   6.127  1.2494  0.9572 -0.8183
  294SOL    HW3  943   1.327   2.200   6.062  0.9351  0.8271 -0.6894
  294SOL    MW4  944   1.311   2.248   6.133  0.1764  0.7962 -0.8324
  295SOL     OW  945   1.273   1.350   0.944  0.3741 -0.4166 -0.4765
  295SOL    HW2  946   1.220   1.272   0.930 -0.7903  0.5000 -1.4799
  295SOL    HW3  947   1.316   1.366   0.860  2.6365 -1.3525  0.4088
  295SOL    MW4  948   1.272   1.342   0.931  0.5190 -0.4191 -0.4921
  296SOL     OW  949   6.395   5.014   3.111  0.6595 -0.3846 -0.1721
  296SOL    HW2  950   6.402   5.105   3.142 -0.0795  0.0093 -1.1393
  296SOL    HW3  951   6.409   5.019   3.017  0.4529 -1.2587 -0.2588
  296SOL    MW4  952   6.398   5.027   3.103  0.5347 -0.4480 -0.3112
  297SOL     OW  953   4.161   1.460   1.875  0.0239 -0.2782 -0.2513
  297SOL    HW2  954   4.169   1.485   1.783  1.2610  0.4034  0.0094
  297SOL    HW3  955   4.199   1.372   1.878  0.8900  0.0853 -0.2441
  297SOL    MW4  956   4.167   1.451   1.863  0.3014 -0.1403 -0.2160
  298SOL     OW  957   2.312   1.754   6.263  0.0282 -0.3705  0.0365
  298SOL    HW2  958   2.325   1.694   6.336  0.5266 -0.0989  0.1694
  298SOL    HW3  959   2.337   1.704   6.186  0.4582 -0.3272  0.1491
  298SOL    MW4  960   2.317   1.739   6.262  0.1507 -0.3289  0.0689
  299SOL     OW  961   3.067   3.290   4.166  0.1557  0.0012  0.2566
  299SOL    HW2  962   3.106   3.244   4.092 -1.1109 -1.5857  0.5198
  299SOL    HW3  963   3.140   3.307   4.226  0.6095 -2.2313  0.4104
  299SOL    MW4  964   3.082   3.286   4.164  0.0484 -0.5028  0.3116
  300SOL     OW  965   2.424   2.126   1.031  0.0820  1.2516  0.0097
  300SOL    HW2  966   2.344   2.076   1.051 -0.3704  2.3041  1.0189
  300SOL    HW3  967   2.410   2.159   0.943  0.1999 -0.0156 -0.5064
  300SOL    MW4  968   2.411   2.124   1.022  0.0379  1.2232  0.0747
  301SOL     OW  969   0.153   4.435   3.014  0.5927 -0.6019 -0.1945
  301SOL    HW2  970   0.153   4.484   3.096  0.0367  0.0413 -0.5655
  301SOL    HW3  971   0.243   4.441   2.982  0.0550  2.3357 -1.4626
  301SOL    MW4  972   0.164   4.442   3.020  0.4484 -0.1294 -0.4108
  302SOL     OW  973   3.735   2.514   4.528  0.4921  0.1235  0.5756
  302SOL    HW2  974   3.784   2.595   4.543  0.2144  0.3077  0.4917
  302SOL    HW3  975   3.677   2.507   4.603 -0.4163  0.6910 -0.0579
  302SOL    MW4  976   3.734   2.524   4.540  0.3356  0.2227  0.4810
  303SOL     OW  977   1.895   1.430   1.773 -0.2686 -0.1881  0.3052
  303SOL    HW2  978   1.808   1.469   1.779  0.5629  2.1148 -1.1511
  303SOL    HW3  979   1.920   1.414   1.864 -0.5193  3.3677  1.1634
  303SOL    MW4  980   1.887   1.433   1.786 -0.1920  0.5849  0.2263
  304SOL     OW  981   2.865   3.622   1.943  0.0690 -0.2288  0.2055
  304SOL    HW2  982   2.923   3.575   2.002  0.1778 -1.6453 -0.9730
  304SOL    HW3  983   2.895   3.713   1.947  0.8512 -0.5282  1.3730
  304SOL    MW4  984   2.877   3.628   1.951  0.1866 -0.4552  0.2040
  305SOL     OW  985   1.754   3.517   0.775  0.4926 -0.0773 -0.2984
  305SOL    HW2  986   1.810   3.593   0.762  0.4700 -0.1136 -0.6347
  305SOL    HW3  987   1.801   3.462   0.837 -0.1914  0.9108  1.1353
  305SOL    MW4  988   1.768   3.520   0.781  0.3994  0.0483 -0.1536
  306SOL     OW  989   0.074   6.293   3.452  0.3426  0.1936 -0.3464
  306SOL    HW2  990   0.088   6.216   3.396  2.3311 -0.3468  0.8097
  306SOL    HW3  991   0.028   6.258   3.528 -2.3179  0.9197 -1.4925
  306SOL    MW4  992   0.070   6.278   3.455  0.2539  0.2181 -0.3451
  307SOL     OW  993   3.948   6.048   4.678 -0.0851  0.4078  0.2865
  307SOL    HW2  994   3.980   6.034   4.589 -2.1978  0.5030 -0.5519
  307SOL    HW3  995   3.853   6.036   4.671 -0.1296 -1.6163  2.9502
  307SOL    MW4  996   3.940   6.045   4.665 -0.3697  0.1533  0.5273
  308SOL     OW  997   1.760   2.621   5.467  0.1524 -0.1407 -0.5334
  308SOL    HW2  998   1.794   2.544   5.512 -0.4698  0.5728  1.2911
  308SOL    HW3  999   1.747   2.685   5.537 -0.5716  1.1728 -1.8123
  308SOL    MW4 1000   1.763   2.620   5.482 -0.0253  0.1268 -0.4614
  309SOL     OW 1001   1.684   3.890   5.521 -0.1111  0.3813 -0.0961
  309SOL    HW2 1002   1.624   3.844   5.461  0.2154 -1.0670  0.6369
  309SOL    HW3 1003   1.768   3.892   5.475 -0.1455  0.3091 -0.1617
  309SOL    MW4 1004   1.687   3.884   5.507 -0.0726  0.1807 -0.0081
  310SOL     OW 1005   5.263   3.895   0.881 -0.0095 -0.2024 -0.5345
  310SOL    HW2 1006   5.328   3.963   0.862 -0.0520 -0.2276 -0.7788
  310SOL    HW3 1007   5.240   3.909   0.973  1.2329 -0.9601 -0.0825
  310SOL    MW4 1008   5.268   3.906   0.890  0.1488 -0.3057 -0.5071
  311SOL     OW 1009   1.197   0.242   0.828  0.3621 -0.5833 -0.1102
  311SOL    HW2 1010   1.206   0.222   0.735  0.7308  0.2815 -0.2702
  311SOL    HW3 1011   1.170   0.159   0.868  0.5305 -1.0449 -0.9321
  311SOL    MW4 1012   1.195   0.229   0.821  0.4330 -0.5301 -0.2397
  312SOL     OW 1013   4.988   4.126   4.186 -0.1172  0.7995  0.3071
  312SOL    HW2 1014   4.961   4.034   4.192 -0.2332  0.9046  2.0599
  312SOL    HW3 1015   5.050   4.128   4.114 -0.9798 -0.4246 -0.5184
  312SOL    MW4 1016   4.993   4.114   4.177 -0.2463  0.6519  0.4294
  313SOL     OW 1017   2.277   2.008   2.852 -0.0205 -0.1972 -0.0776
  313SOL    HW2 1018   2.299   1.957   2.774 -0.0335 -0.5798  0.1626
  313SOL    HW3 1019   2.347   1.987   2.915  0.3443  0.6117 -0.2088
  313SOL    MW4 1020   2.289   1.999   2.850  0.0259 -0.1410 -0.0632
  314SOL     OW 1021   0.022   4.754   4.731 -0.6566  0.2589 -0.1241
  314SOL    HW2 1022  -0.005   4.832   4.780 -0.0243  0.7047 -0.4602
  314SOL    HW3 1023  -0.043   4.746   4.661 -1.2588 -0.0722  0.4716
  314SOL    MW4 1024   0.010   4.763   4.728 -0.6526  0.2740 -0.0898
  315SOL     OW 1025   1.778   3.960   6.316 -0.2900 -0.2026  0.4750
  315SOL    HW2 1026   1.754   3.934   6.405  1.7295  0.6425  1.3121
  315SOL    HW3 1027   1.773   3.879   6.265  1.9060 -1.4831  2.1374
  315SOL    MW4 1028   1.774   3.946   6.321  0.2662 -0.2600  0.8048
  316SOL     OW 1029   4.767   1.830   0.231  0.0889 -0.1763  0.5233
  316SOL    HW2 1030   4.828   1.828   0.305  1.7545 -2.6777 -0.7453
  316SOL    HW3 1031   4.683   1.802   0.268  0.4380  0.3770  1.7775
  316SOL    MW4 1032   4.764   1.826   0.246  0.3547 -0.4333  0.5214
  317SOL     OW 1033   5.792   1.099   4.363 -0.4261  0.1069  0.1494
  317SOL    HW2 1034   5.809   1.021   4.415  0.6693  1.5021  2.0091
  317SOL    HW3 1035   5.857   1.095   4.292 -0.6544 -0.8582 -0.0136
  317SOL    MW4 1036   5.803   1.088   4.360 -0.3117  0.1636  0.3732
  318SOL     OW 1037   3.084   2.633   4.639 -0.0589  0.0145  0.3971
  318SOL    HW2 1038   2.997   2.598   4.660 -0.4977  0.5123 -0.5639
  318SOL    HW3 1039   3.143   2.583   4.695 -0.7270 -1.8582 -0.4886
  318SOL    MW4 1040   3.080   2.622   4.649 -0.2049 -0.1669  0.1535
  319SOL     OW 1041   3.010   6.103   2.586  0.2248 -0.0727 -0.2058
  319SOL    HW2 1042   2.965   6.182   2.557 -2.6111 -1.1944  0.8559
  319SOL    HW3 1043   3.014   6.110   2.681  1.0764 -0.6335 -0.1859
  319SOL    MW4 1044   3.005   6.114   2.595 -0.0370 -0.2947 -0.0631
  320SOL     OW 1045   1.249   2.457   2.658  0.6430  0.0333 -0.2307
  320SOL    HW2 1046   1.171   2.457   2.603  0.0974 -1.4374  0.4916
  320SOL    HW3 1047   1.224   2.408   2.736  2.6340 -1.5859 -0.5186
  320SOL    MW4 1048   1.235   2.451   2.661  0.8337 -0.3744 -0.1734
  321SOL     OW 1049   3.703   3.420   5.648 -0.9567  0.2256  0.5340
  321SOL    HW2 1050   3.703   3.507   5.688 -1.1956  0.7990 -0.6628
  321SOL    HW3 1051   3.790   3.386   5.665  0.4660  2.1949 -1.9877
  321SOL    MW4 1052   3.714   3.427   5.655 -0.8005  0.5611  0.0434
  322SOL     OW 1053   6.041   1.028   3.486  0.6317  0.2134 -0.0270
  322SOL    HW2 1054   5.948   1.006   3.493  0.6255  0.6015  1.2336
  322SOL    HW3 1055   6.043   1.115   3.446  0.3330  1.1465  1.8816
  322SOL    MW4 1056   6.029   1.036   3.482  0.5915  0.3877  0.3911
  323SOL     OW 1057   0.253   5.826   4.697 -0.0436  0.0062 -0.0456
  323SOL    HW2 1058   0.267   5.921   4.699  1.1334  0.0787 -3.7172
  323SOL    HW3 1059   0.158   5.816   4.688 -0.2321  0.7901  0.9511
  323SOL    MW4 1060   0.242   5.837   4.696  0.0869  0.1192 -0.3985
  324SOL     OW 1061   4.312   3.857   5.023  0.1425 -0.2673 -0.3079
  324SOL    HW2 1062   4.238   3.917   5.031 -0.5385 -0.7150 -2.5134
  324SOL    HW3 1063   4.355   3.883   4.941  0.1292 -2.4296 -1.0585
  324SOL    MW4 1064   4.308   3.869   5.013  0.0509 -0.6117 -0.6980
  325SOL     OW 1065   6.292   4.074   0.349  0.0563  0.0813 -0.4713
  325SOL    HW2 1066   6.268   4.142   0.412 -0.0571  1.1808 -1.6695
  325SOL    HW3 1067   6.211   4.054   0.303 -0.0704 -1.3979  0.3261
  325SOL    MW4 1068   6.279   4.080   0.351  0.0246  0.0312 -0.5242
  326SOL     OW 1069   2.532   1.936   2.430 -0.0386  0.0251 -0.1456
  326SOL    HW2 1070   2.597   1.882   2.474  1.4090 -0.1213 -2.2932
  326SOL    HW3 1071   2.565   1.944   2.340 -1.7632  1.9859 -0.6761
  326SOL    MW4 1072   2.545   1.930   2.424 -0.0751  0.2645 -0.4990
  327SOL     OW 1073   2.217   4.992   5.805  0.4894  0.1313 -0.4964
  327SOL    HW2 1074   2.309   4.974   5.788  0.9203  1.8458 -0.1322
  327SOL    HW3 1075   2.217   5.058   5.875 -1.0212 -0.1149 -0.2188
  327SOL    MW4 1076   2.229   4.998   5.812  0.3469  0.3250 -0.4117
  328SOL     OW 1077   6.417   3.592   1.001 -0.3966 -0.6218  0.2408
  328SOL    HW2 1078   6.388   3.515   0.953  0.1453 -0.8666  0.3001
  328SOL    HW3 1079   6.360   3.662   0.970 -1.3179 -1.1673  0.6413
  328SOL    MW4 1080   6.406   3.591   0.991 -0.4466 -0.7261  0.3015
  329SOL     OW 1081   5.881   0.484   4.033  0.0529  0.0824 -0.1342
  329SOL    HW2 1082   5.810   0.532   4.076  0.2845 -0.3035  0.6899
  329SOL    HW3 1083   5.844   0.458   3.949  0.1936  2.4182 -0.9827
  329SOL    MW4 1084   5.867   0.487   4.028  0.1020  0.3397 -0.1374
  330SOL     OW 1085   5.591   3.916   0.049 -0.5533 -0.1345 -0.6408
  330SOL    HW2 1086   5.516   3.943  -0.005 -0.8344  0.5921  0.0901
  330SOL    HW3 1087   5.589   3.975   0.124  0.3580 -0.5544 -0.2699
  330SOL    MW4 1088   5.580   3.927   0.052 -0.4701 -0.0940 -0.4955
  331SOL     OW 1089   6.397   2.028   0.874 -0.5102  0.0152  0.0176
  331SOL    HW2 1090   6.355   1.998   0.794  0.8422  1.2337 -1.1832
  331SOL    HW3 1091   6.421   2.119   0.856  3.3662 -0.8185  0.3012
  331SOL    MW4 1092   6.394   2.036   0.861  0.1797  0.0660 -0.1034
  332SOL     OW 1093   0.858   5.453   1.992  0.4237 -0.0411  0.1229
  332SOL    HW2 1094   0.779   5.400   2.002  1.3777 -1.3083  1.3305
  332SOL    HW3 1095   0.860   5.476   1.899 -1.1579 -0.3078  0.0055
  332SOL    MW4 1096   0.848   5.449   1.981  0.3409 -0.2435  0.2668
  333SOL     OW 1097   1.388   0.452   1.629 -0.0188 -0.9293  0.3554
  333SOL    HW2 1098   1.397   0.422   1.719  0.5792 -1.2667  0.1931
  333SOL    HW3 1099   1.473   0.432   1.589  1.5782  3.4154  0.9417
  333SOL    MW4 1100   1.401   0.446   1.635  0.2708 -0.4006  0.4113
  334SOL     OW 1101   2.354   4.980   6.080 -0.1322  0.2847 -0.2888
  334SOL    HW2 1102   2.302   5.057   6.055 -2.6684 -1.6560 -1.3510
  334SOL    HW3 1103   2.322   4.957   6.167  2.1277  1.5422  0.9858
  334SOL    MW4 1104   2.343   4.987   6.088 -0.1686  0.1945 -0.2608
  335SOL     OW 1105   3.403   2.761   4.275 -0.6580 -0.2886 -0.1734
  335SOL    HW2 1106   3.454   2.680   4.279  0.4604  0.3245 -1.2450
  335SOL    HW3 1107   3.319   2.735   4.237 -0.7715 -1.1422  0.6323
  335SOL    MW4 1108   3.399   2.747   4.270 -0.5254 -0.3203 -0.2085
  336SOL     OW 1109   0.109   3.948   3.321  0.1968  0.0365  0.0519
  336SOL    HW2 1110   0.148   3.865   3.350  0.1768  0.5164  1.5229
  336SOL    HW3 1111   0.162   3.974   3.246 -1.3034 -2.5234 -2.0772
  336SOL    MW4 1112   0.121   3.940   3.315 -0.0038 -0.2379 -0.0350
  337SOL     OW 1113   5.835   2.137   1.071 -0.4932  0.1612 -0.1445
  337SOL    HW2 1114   5.903   2.204   1.070 -1.9328  1.7335  0.8802
  337SOL    HW3 1115   5.790   2.147   0.987  1.0844 -1.5600 -1.2658
  337SOL    MW4 1116   5.838   2.147   1.060 -0.4750  0.1416 -0.1572
  338SOL     OW 1117   2.192   2.749   1.921 -0.4884  0.1020 -0.5370
  338SOL    HW2 1118   2.117   2.710   1.967  0.7542 -0.4827  1.0917
  338SOL    HW3 1119   2.223   2.679   1.864 -0.4952 -0.0499 -0.3576
  338SOL    MW4 1120   2.186   2.734   1.920 -0.3254  0.0048 -0.2984
  339SOL     OW 1121   0.339   1.947   0.487  0.6525  0.5385  0.2409
  339SOL    HW2 1122   0.247   1.970   0.498  1.0488  1.7136  1.3478
  339SOL    HW3 1123   0.355   1.877   0.551  0.6557  0.6986  0.4144
  339SOL    MW4 1124   0.329   1.941   0.497  0.7052  0.7146  0.4098
  340SOL     OW 1125   2.224   1.159   0.080 -0.7760  0.6688  0.0905
  340SOL    HW2 1126   2.275   1.184   0.158  0.1321  1.3387 -0.6858
  340SOL    HW3 1127   2.169   1.086   0.109  0.7312 -0.1813  0.9533
  340SOL    MW4 1128   2.224   1.153   0.094 -0.4573  0.6450  0.1019
  341SOL     OW 1129   5.001   5.390   0.349 -0.1507  0.5814 -0.3422
  341SOL    HW2 1130   5.088   5.429   0.348  0.1848 -0.1280  0.3139
  341SOL    HW3 1131   4.981   5.377   0.441 -1.8843  2.7332 -0.3311
  341SOL    MW4 1132   5.010   5.393   0.361 -0.3351  0.7717 -0.2542
  342SOL     OW 1133   3.950   5.238   2.690 -0.0443  0.1407  0.4625
  342SOL    HW2 1134   3.908   5.171   2.636 -0.3451 -0.4247  1.3827
  342SOL    HW3 1135   3.999   5.291   2.627 -2.6295  1.2696 -0.7831
  342SOL    MW4 1136   3.951   5.237   2.674 -0.4251  0.2151  0.4196
  343SOL     OW 1137   5.469   1.997   3.448  0.0537  0.2426  0.0770
  343SOL    HW2 1138   5.455   2.091   3.434  1.0576  0.7131  1.9260
  343SOL    HW3 1139   5.523   1.970   3.375  1.9856  1.7309  0.8688
  343SOL    MW4 1140   5.474   2.006   3.437  0.4411  0.5011  0.4254
  344SOL     OW 1141   4.403   3.481   5.384 -0.2875  0.0634 -0.0638
  344SOL    HW2 1142   4.353   3.427   5.323 -2.8177  1.2470  0.8180
  344SOL    HW3 1143   4.374   3.570   5.366 -1.1718  0.4489  2.8133
  344SOL    MW4 1144   4.393   3.485   5.374 -0.7380  0.2705  0.4321
  345SOL     OW 1145   4.850   4.810   5.138 -0.0558 -0.3350 -0.5864
  345SOL    HW2 1146   4.769   4.857   5.122  0.3043  0.6343  0.3016
  345SOL    HW3 1147   4.834   4.763   5.220 -0.3698 -1.7021 -1.4012
  345SOL    MW4 1148   4.837   4.810   5.147 -0.0497 -0.3875 -0.5767
  346SOL     OW 1149   5.728   1.915   2.103 -0.6465 -0.0724 -0.1740
  346SOL    HW2 1150   5.762   1.916   2.014  0.5072  0.2800  0.2430
  346SOL    HW3 1151   5.722   1.822   2.126  0.6432 -0.1444 -0.0598
  346SOL    MW4 1152   5.732   1.903   2.094 -0.3241 -0.0354 -0.1039
  347SOL     OW 1153   0.415   5.648   3.756  0.2396  0.1410 -0.2969
  347SOL    HW2 1154   0.473   5.700   3.812  0.9599  0.6686 -1.4711
  347SOL    HW3 1155   0.470   5.577   3.724 -0.1844 -0.2064 -0.2554
  347SOL    MW4 1156   0.430   5.646   3.759  0.2787  0.1648 -0.4464
  348SOL     OW 1157   1.513   1.801   0.138 -0.5666  0.2558 -0.0128
  348SOL    HW2 1158   1.562   1.719   0.143 -0.8443  0.0255 -0.8793
  348SOL    HW3 1159   1.543   1.852   0.213  0.1510 -0.3387  0.1122
  348SOL    MW4 1160   1.523   1.797   0.149 -0.5086  0.1470 -0.1106
  349SOL     OW 1161   4.982   1.451   2.058 -0.0055 -0.2021  0.1228
  349SOL    HW2 1162   4.945   1.488   2.138  0.3544 -1.8919  1.1171
  349SOL    HW3 1163   4.911   1.456   1.994 -0.5276  0.5521  0.7423
  349SOL    MW4 1164   4.968   1.457   2.060 -0.0269 -0.3255  0.3358
  350SOL     OW 1165   1.617   1.768   4.739 -0.3076 -0.1309  0.6804
  350SOL    HW2 1166   1.664   1.850   4.727  0.6761 -0.6304  0.9631
  350SOL    HW3 1167   1.529   1.785   4.707  0.4102  0.4554 -1.1146
  350SOL    MW4 1168   1.612   1.781   4.733 -0.0831 -0.1194  0.4809
  351SOL     OW 1169   6.079   3.856   5.387 -0.4341 -0.3542  0.3991
  351SOL    HW2 1170   6.006   3.819   5.436  1.2088  0.6141  3.8358
  351SOL    HW3 1171   6.105   3.785   5.327 -3.6300 -0.9633 -0.4424
  351SOL    MW4 1172   6.073   3.841   5.385 -0.6390 -0.3068  0.7415
  352SOL     OW 1173   0.527   5.421   2.720  0.1341 -0.0926  0.1587
  352SOL    HW2 1174   0.534   5.470   2.801 -1.0891 -0.2520  0.3858
  352SOL    HW3 1175   0.500   5.333   2.748  0.3954 -0.3470 -0.3732
  352SOL    MW4 1176   0.524   5.416   2.734  0.0072 -0.1472  0.1185
  353SOL     OW 1177   2.513   2.420   1.571  0.1371 -0.2821 -0.6304
  353SOL    HW2 1178   2.443   2.355   1.561  1.1445 -1.5886  0.4077
  353SOL    HW3 1179   2.590   2.379   1.531  1.2143 -0.4993  1.5147
  353SOL    MW4 1180   2.514   2.406   1.564  0.4121 -0.4831 -0.2104
  354SOL     OW 1181   1.380   5.028   2.833 -0.5465 -0.2092  0.0960
  354SOL    HW2 1182   1.328   5.060   2.759  0.3695  1.2524  0.0399
  354SOL    HW3 1183   1.421   4.947   2.800 -0.0574  0.4830 -1.0487
  354SOL    MW4 1184   1.379   5.021   2.819 -0.3611  0.0750 -0.0624
  355SOL     OW 1185   2.608   0.478   3.663 -0.0651 -0.2068 -0.4125
  355SOL    HW2 1186   2.557   0.456   3.585 -0.8835 -1.3356  0.4076
  355SOL    HW3 1187   2.556   0.444   3.735  0.3569  1.4074  0.6868
  355SOL    MW4 1188   2.594   0.471   3.662 -0.1174 -0.1428 -0.1592
  356SOL     OW 1189   0.447   2.238   3.241 -0.1839  0.6387  0.0603
  356SOL    HW2 1190   0.482   2.325   3.261 -0.7643  0.9589 -0.2870
  356SOL    HW3 1191   0.354   2.253   3.222 -0.3909 -0.1151  0.4211
  356SOL    MW4 1192   0.439   2.251   3.241 -0.2878  0.5815  0.0621
  357SOL     OW 1193   3.784   0.843   0.076 -0.0665 -0.7207  0.4739
  357SOL    HW2 1194   3.864   0.853   0.026 -0.2649 -0.5585  0.1853
  357SOL    HW3 1195   3.723   0.801   0.015 -1.1244  1.7689 -0.2860
  357SOL    MW4 1196   3.786   0.839   0.061 -0.2322 -0.3708  0.3356
  358SOL     OW 1197   4.973   0.627   3.735 -0.2551  0.1112  0.0974
  358SOL    HW2 1198   5.020   0.563   3.787  0.5813  0.3895 -0.2931
  358SOL    HW3 1199   4.913   0.670   3.796  0.2361 -0.0254  0.6715
  358SOL    MW4 1200   4.971   0.624   3.750 -0.0800  0.1299  0.1216
  359SOL     OW 1201   5.021   1.276   0.954  0.1187 -0.3335 -0.4059
  359SOL    HW2 1202   5.039   1.255   0.862  0.0611  0.1141 -0.5236
  359SOL    HW3 1203   5.070   1.210   1.004  0.7085 -0.1619 -0.7511
  359SOL    MW4 1204   5.030   1.264   0.948  0.1889 -0.2518 -0.4670
  360SOL     OW 1205   1.214   5.726   2.179  1.2939  0.2079  0.1708
  360SOL    HW2 1206   1.304   5.703   2.203  1.1381 -0.6413 -0.0483
  360SOL    HW3 1207   1.222   5.774   2.097  1.6125  0.9330  0.6061
  360SOL    MW4 1208   1.227   5.730   2.172  1.3154  0.1915  0.1993
  361SOL     OW 1209   2.765   4.049   2.864 -0.0447 -0.1208  0.0743
  361SOL    HW2 1210   2.737   4.132   2.825  0.2542  0.2144  0.5667
  361SOL    HW3 1211   2.778   3.991   2.789  1.6577  0.8433 -0.4457
  361SOL    MW4 1212   2.763   4.053   2.849  0.2194  0.0506  0.0706
  362SOL     OW 1213   5.102   4.248   4.735 -0.2934 -0.5775 -0.1764
  362SOL    HW2 1214   5.187   4.210   4.753  0.0045  0.2685  0.2531
  362SOL    HW3 1215   5.052   4.177   4.693  1.1507 -0.5789 -1.9978
  362SOL    MW4 1216   5.106   4.233   4.732 -0.0635 -0.4661 -0.3600
  363SOL     OW 1217   2.129   2.033   1.537  0.7779 -0.3837 -0.2718
  363SOL    HW2 1218   2.189   2.102   1.508  1.3420 -0.9228 -0.4229
  363SOL    HW3 1219   2.144   1.961   1.475 -0.9351 -0.0940 -1.0819
  363SOL    MW4 1220   2.139   2.033   1.525  0.6263 -0.4166 -0.3986
  364SOL     OW 1221   2.704   3.102   4.700 -0.7086 -0.0554 -0.3223
  364SOL    HW2 1222   2.790   3.116   4.740 -1.0457  0.6190  0.1960
  364SOL    HW3 1223   2.702   3.010   4.677  1.2029  0.4134 -2.8117
  364SOL    MW4 1224   2.715   3.092   4.702 -0.5009  0.0954 -0.5824
  365SOL     OW 1225   5.196   0.306   5.068  0.6033  0.2243  0.0879
  365SOL    HW2 1226   5.199   0.250   4.990 -1.8424 -1.4301  1.0673
  365SOL    HW3 1227   5.122   0.364   5.054  0.9784  0.8430  0.6082
  365SOL    MW4 1228   5.187   0.306   5.056  0.3301  0.0877  0.2858
  366SOL     OW 1229   0.357   0.643   2.043 -0.0762  0.3686 -0.0126
  366SOL    HW2 1230   0.335   0.726   2.000 -1.5277 -0.3668 -0.7708
  366SOL    HW3 1231   0.447   0.625   2.015 -0.5971  0.4656 -1.8955
  366SOL    MW4 1232   0.366   0.652   2.034 -0.3364  0.2844 -0.3611
  367SOL     OW 1233   5.227   1.061   1.027 -0.3139  0.3710  0.2770
  367SOL    HW2 1234   5.252   1.039   1.116 -0.3794  1.2545  0.5258
  367SOL    HW3 1235   5.274   1.142   1.007  0.2619 -0.1979 -0.7554
  367SOL    MW4 1236   5.236   1.069   1.036 -0.2466  0.4125  0.1736
  368SOL     OW 1237   6.098   3.802   4.529 -0.0597 -0.5236 -0.3092
  368SOL    HW2 1238   6.118   3.720   4.575  1.6439  0.2880  0.4617
  368SOL    HW3 1239   6.004   3.814   4.541 -0.2283 -2.0348  0.1004
  368SOL    MW4 1240   6.088   3.792   4.536  0.1428 -0.6159 -0.1534
  369SOL     OW 1241   6.434   4.168   5.826 -0.1201  0.8005  0.2468
  369SOL    HW2 1242   6.466   4.167   5.736  1.0504  2.3333  0.5959
  369SOL    HW3 1243   6.340   4.186   5.818 -0.3690 -0.7482 -0.6954
  369SOL    MW4 1244   6.425   4.170   5.813  0.0015  0.7984  0.1686
  370SOL     OW 1245   1.451   3.448   2.829  0.0402  0.0807 -0.0622
  370SOL    HW2 1246   1.453   3.538   2.798 -0.6696  0.2928  0.4606
  370SOL    HW3 1247   1.358   3.429   2.841  0.2190 -0.4541  0.5748
  370SOL    MW4 1248   1.439   3.457   2.827 -0.0299  0.0382  0.0909
  371SOL     OW 1249   4.957   2.842   2.137 -0.1657  0.1636 -0.2008
  371SOL    HW2 1250   4.993   2.919   2.094 -0.1389  0.6392  0.6698
  371SOL    HW3 1251   5.018   2.772   2.115 -0.0698  0.4276 -0.8067
  371SOL    MW4 1252   4.970   2.843   2.128 -0.1495  0.2612 -0.1659
  372SOL     OW 1253   5.349   0.814   0.914 -0.4322 -0.8331 -0.0215
  372SOL    HW2 1254   5.320   0.805   0.823 -1.1506  1.2666 -0.0442
  372SOL    HW3 1255   5.304   0.892   0.946 -1.4800 -2.4266  2.6713
  372SOL    MW4 1256   5.339   0.823   0.906 -0.6652 -0.7663  0.3308
  373SOL     OW 1257   4.434   0.195   2.276 -0.2647  0.2931  0.0090
  373SOL    HW2 1258   4.399   0.284   2.274  0.7824  0.7419  0.4205
  373SOL    HW3 1259   4.529   0.207   2.272 -0.1334 -0.8586 -0.9100
  373SOL    MW4 1260   4.442   0.208   2.275 -0.1092  0.2004 -0.0579
  374SOL     OW 1261   2.577   0.091   4.131  0.1215  0.2198  0.3550
  374SOL    HW2 1262   2.659   0.140   4.117  0.3644 -0.2139  0.2542
  374SOL    HW3 1263   2.594   0.037   4.208  0.5228 -1.1153 -0.6327
  374SOL    MW4 1264   2.590   0.091   4.139  0.2065 -0.0136  0.2114
  375SOL     OW 1265   3.420   1.286   5.000 -0.4704 -0.0822 -0.2870
  375SOL    HW2 1266   3.417   1.250   5.088 -1.3157  2.6448  0.9180
  375SOL    HW3 1267   3.497   1.245   4.960  0.8279 -0.3324  2.2468
  375SOL    MW4 1268   3.430   1.276   5.006 -0.4107  0.2446  0.2063
  376SOL     OW 1269   3.006   1.413   2.874  0.5551 -0.2914 -0.2645
  376SOL    HW2 1270   2.916   1.397   2.904  0.7610  1.6416  1.6560
  376SOL    HW3 1271   3.041   1.326   2.855 -0.9466 -1.3125  1.3348
  376SOL    MW4 1272   2.999   1.399   2.876  0.3841 -0.1711  0.1999
  377SOL     OW 1273   4.695   2.881   4.831 -0.7415  0.2206  0.0337
  377SOL    HW2 1274   4.724   2.848   4.746  2.1085  0.1368  0.9145
  377SOL    HW3 1275   4.630   2.817   4.861  1.0351 -1.9461 -0.4597
  377SOL    MW4 1276   4.691   2.868   4.824 -0.1311 -0.0763  0.0848
  378SOL     OW 1277   5.156   3.054   4.872  0.0451 -0.3021 -0.4998
  378SOL    HW2 1278   5.065   3.065   4.902  0.3118  1.0608 -0.1159
  378SOL    HW3 1279   5.204   3.035   4.953  0.0607 -1.3442 -0.7487
  378SOL    MW4 1280   5.150   3.053   4.887  0.0823 -0.2597 -0.4820
  379SOL     OW 1281   3.112   4.560   4.386  0.1135  0.3486 -0.4937
  379SOL    HW2 1282   3.194   4.517   4.410 -0.6068 -1.4393 -1.0848
  379SOL    HW3 1283   3.087   4.609   4.465  1.6364  0.7917 -0.2529
  379SOL    MW4 1284   3.120   4.561   4.400  0.2194  0.1711 -0.5399
  380SOL     OW 1285   2.737   5.870   6.372 -0.6608 -0.8938 -0.1432
  380SOL    HW2 1286   2.785   5.881   6.454  1.6277 -0.8795 -1.4093
  380SOL    HW3 1287   2.649   5.902   6.392  0.3903  1.1242  1.7444
  380SOL    MW4 1288   2.731   5.876   6.385 -0.2201 -0.6257 -0.0612
  381SOL     OW 1289   5.241   2.968   3.129 -0.1890 -0.0497 -0.4218
  381SOL    HW2 1290   5.157   2.985   3.171 -0.3419 -2.1685  0.2639
  381SOL    HW3 1291   5.306   2.991   3.196 -0.2149  1.3156 -0.8502
  381SOL    MW4 1292   5.239   2.973   3.144 -0.2125 -0.1491 -0.3879
  382SOL     OW 1293   0.511   4.576   1.851  0.3217  0.1393 -0.0067
  382SOL    HW2 1294   0.453   4.639   1.809 -0.4608 -2.3964 -3.0797
  382SOL    HW3 1295   0.598   4.597   1.817  0.0802 -0.3564 -0.9444
  382SOL    MW4 1296   0.515   4.587   1.841  0.1866 -0.2606 -0.5358
  383SOL     OW 1297   6.146   5.714   4.230 -0.0228 -0.2952 -0.1853
  383SOL    HW2 1298   6.087   5.706   4.155 -0.0443  0.3056 -0.2412
  383SOL    HW3 1299   6.090   5.708   4.306 -0.1421  0.1459 -0.2365
  383SOL    MW4 1300   6.131   5.712   4.230 -0.0414 -0.1577 -0.1994
  384SOL     OW 1301   3.120   0.364   1.569 -0.2272 -0.4477 -0.1622
  384SOL    HW2 1302   3.186   0.316   1.519 -1.3659 -1.0313 -1.1555
  384SOL    HW3 1303   3.151   0.455   1.569  2.0460 -1.1177  1.8832
  384SOL    MW4 1304   3.133   0.370   1.563 -0.0775 -0.6131 -0.0234
  385SOL     OW 1305   1.100   1.710   1.827  0.1923 -0.3458  0.4485
  385SOL    HW2 1306   1.150   1.683   1.750 -0.4828  0.2024 -0.2105
  385SOL    HW3 1307   1.010   1.680   1.809 -0.2692  1.0147  0.3504
  385SOL    MW4 1308   1.094   1.703   1.814  0.0423 -0.0939  0.3486
  386SOL     OW 1309   2.439   1.732   4.533  0.5176 -0.1309 -0.3049
  386SOL    HW2 1310   2.394   1.657   4.571 -0.2227 -0.5943 -1.9896
  386SOL    HW3 1311   2.529   1.726   4.566  0.3853 -1.5621 -0.1517
  386SOL    MW4 1312   2.445   1.722   4.542  0.4024 -0.3808 -0.5070
  387SOL     OW 1313   5.741   0.239   2.002  0.1234  0.1088 -0.5152
  387SOL    HW2 1314   5.649   0.215   1.997 -0.5378  2.4961 -1.0440
  387SOL    HW3 1315   5.782   0.192   1.929 -0.7878 -0.4993 -0.6551
  387SOL    MW4 1316   5.734   0.230   1.992 -0.0840  0.3436 -0.6034
  388SOL     OW 1317   5.079   4.602   4.902  0.5861  0.2765 -0.1694
  388SOL    HW2 1318   5.015   4.672   4.889  0.1326 -0.2255 -0.6801
  388SOL    HW3 1319   5.026   4.523   4.909  1.2166 -0.7076 -4.1094
  388SOL    MW4 1320   5.064   4.601   4.901  0.6094  0.0804 -0.7566
  389SOL     OW 1321   5.162   1.759   6.405 -0.2190 -0.0561  0.4386
  389SOL    HW2 1322   5.130   1.821   6.471 -0.5081  0.2291  0.0309
  389SOL    HW3 1323   5.084   1.711   6.377 -0.2504  0.4269 -0.3315
  389SOL    MW4 1324   5.148   1.760   6.410 -0.2613  0.0453  0.2832
  390SOL     OW 1325   3.611   0.897   4.143  0.0135 -0.1817  0.3804
  390SOL    HW2 1326   3.542   0.958   4.116  0.8706  0.0628 -1.3995
  390SOL    HW3 1327   3.683   0.954   4.170  0.2114 -0.4225  0.3555
  390SOL    MW4 1328   3.611   0.913   4.143  0.1527 -0.1812  0.1423
  391SOL     OW 1329   6.090   2.883   0.608 -0.1105  0.3521 -0.0704
  391SOL    HW2 1330   6.152   2.867   0.537 -1.2309 -0.1687 -0.9664
  391SOL    HW3 1331   6.004   2.872   0.567 -0.7828 -0.8666  1.5827
  391SOL    MW4 1332   6.086   2.880   0.593 -0.3470  0.1226  0.0295
  392SOL     OW 1333   1.230   4.457   4.987 -0.6630 -0.9311 -0.6120
  392SOL    HW2 1334   1.298   4.491   5.045  0.7964 -2.1604 -1.5329
  392SOL    HW3 1335   1.150   4.500   5.017  0.5272  0.7461  0.3542
  392SOL    MW4 1336   1.228   4.467   4.999 -0.3134 -0.8720 -0.6060
  393SOL     OW 1337   2.532   2.503   5.508  0.2140 -0.2173  0.6066
  393SOL    HW2 1338   2.513   2.572   5.572 -1.3872  0.8801 -0.9454
  393SOL    HW3 1339   2.627   2.503   5.501  0.2755  1.8738  0.6781
  393SOL    MW4 1340   2.542   2.512   5.515  0.0109  0.2034  0.4112
  394SOL     OW 1341   3.734   1.072   4.553 -0.1550  0.2946  0.3424
  394SOL    HW2 1342   3.694   0.993   4.517  0.9617  0.6702 -1.8594
  394SOL    HW3 1343   3.771   1.044   4.637  2.2330 -2.1754 -1.3778
  394SOL    MW4 1344   3.734   1.058   4.560  0.3074  0.0183 -0.1751
  395SOL     OW 1345   2.013   2.465   6.159 -0.0431  0.2451 -0.1845
  395SOL    HW2 1346   2.021   2.425   6.073  0.2131  2.0178 -1.0505
  395SOL    HW3 1347   2.016   2.559   6.141 -0.1317  0.6569  1.7560
  395SOL    MW4 1348   2.015   2.472   6.145 -0.0210  0.5333 -0.0428
  396SOL     OW 1349   4.308   0.034   1.166 -0.1146  0.2093 -0.0598
  396SOL    HW2 1350   4.353   0.117   1.182 -0.1118  0.2664 -0.3473
  396SOL    HW3 1351   4.285   0.038   1.073  1.3392 -0.8068 -0.4998
  396SOL    MW4 1352   4.311   0.046   1.155  0.0775  0.0828 -0.1558
  397SOL     OW 1353   0.256   3.689   5.944 -0.2308  0.0217  0.7313
  397SOL    HW2 1354   0.170   3.731   5.944  0.1332  0.7978  1.4635
  397SOL    HW3 1355   0.272   3.666   6.035 -0.8473 -2.6874  0.2382
  397SOL    MW4 1356   0.247   3.692   5.956 -0.2641 -0.2333  0.7628
  398SOL     OW 1357   1.119   1.331   5.149  0.0141 -0.2001  0.0084
  398SOL    HW2 1358   1.042   1.312   5.095 -0.3767 -0.2992  0.5958
  398SOL    HW3 1359   1.097   1.297   5.236 -0.0464  1.4898  0.6755
  398SOL    MW4 1360   1.106   1.324   5.153 -0.0455  0.0098  0.1739
  399SOL     OW 1361   2.288   5.270   4.682  0.9481  0.1997 -0.4661
  399SOL    HW2 1362   2.196   5.244   4.686  0.4941  1.8562  2.3459
  399SOL    HW3 1363   2.337   5.187   4.683 -0.4877 -0.6703 -0.6778
  399SOL    MW4 1364   2.283   5.256   4.682  0.6987  0.3034 -0.1230
  400SOL     OW 1365   4.680   5.120   3.361 -0.1676 -0.2999  0.1797
  400SOL    HW2 1366   4.600   5.115   3.413 -0.4118 -2.1112 -0.3052
  400SOL    HW3 1367   4.709   5.029   3.353  1.2496  0.2018 -0.7238
  400SOL    MW4 1368   4.673   5.107   3.367 -0.0128 -0.4727 -0.0035
  401SOL     OW 1369   4.435   2.242   4.357  0.0710  0.2398 -0.8910
  401SOL    HW2 1370   4.366   2.226   4.422 -0.2934  0.8071 -1.1269
  401SOL    HW3 1371   4.388   2.262   4.276  0.4939  1.1661 -0.9243
  401SOL    MW4 1372   4.419   2.243   4.355  0.0787  0.4368 -0.9265
  402SOL     OW 1373   6.176   3.120   1.090  0.6885 -0.0712  0.8953
  402SOL    HW2 1374   6.229   3.073   1.154  0.5397 -0.5103  0.7017
  402SOL    HW3 1375   6.161   3.056   1.020 -0.3867 -0.0705  1.1045
  402SOL    MW4 1376   6.181   3.105   1.089  0.5270 -0.1291  0.8973
  403SOL     OW 1377   5.215   0.770   1.238 -0.4600 -0.0653 -0.6855
  403SOL    HW2 1378   5.227   0.768   1.333  1.7582 -2.7922 -0.8901
  403SOL    HW3 1379   5.293   0.725   1.203 -2.2032 -1.0554 -3.6546
  403SOL    MW4 1380   5.227   0.764   1.246 -0.3973 -0.5557 -1.1042
  404SOL     OW 1381   1.245   0.935   5.503 -0.2103 -0.1778 -0.1354
  404SOL    HW2 1382   1.263   1.028   5.519  0.7665 -0.1641 -1.2279
  404SOL    HW3 1383   1.296   0.889   5.569 -0.4782  0.0478  0.2333
  404SOL    MW4 1384   1.254   0.941   5.514 -0.1167 -0.1462 -0.2309
  405SOL     OW 1385   1.718   0.729   2.017  0.2793  0.0841  0.4307
  405SOL    HW2 1386   1.724   0.825   2.017  1.5607  0.0221  1.0432
  405SOL    HW3 1387   1.625   0.711   2.034 -0.1435  1.2051 -0.5049
  405SOL    MW4 1388   1.706   0.739   2.019  0.3926  0.2238  0.3881
  406SOL     OW 1389   4.129   2.737   5.466 -0.4545  0.8312 -0.0662
  406SOL    HW2 1390   4.170   2.676   5.526 -1.6795  0.0505  0.0334
  406SOL    HW3 1391   4.193   2.750   5.396  0.1098 -0.0016  0.2885
  406SOL    MW4 1392   4.143   2.731   5.464 -0.5417  0.6183 -0.0063
  407SOL     OW 1393   0.424   2.893   5.982  0.1926 -0.0812 -0.0680
  407SOL    HW2 1394   0.341   2.938   5.994 -1.1147 -2.4530  0.3257
  407SOL    HW3 1395   0.477   2.919   6.057 -0.9599 -0.1460  0.7858
  407SOL    MW4 1396   0.420   2.903   5.993 -0.1320 -0.4027  0.0966
  408SOL     OW 1397   5.700   3.998   3.175 -0.0683  0.7352  0.1699
  408SOL    HW2 1398   5.736   3.930   3.118 -1.0662 -0.0026  0.3934
  408SOL    HW3 1399   5.703   3.961   3.263  0.4469  1.4413  0.4618
  408SOL    MW4 1400   5.705   3.984   3.179 -0.1320  0.7310  0.2379
  409SOL     OW 1401   3.313   1.072   1.326  0.5379  0.3259 -0.1017
  409SOL    HW2 1402   3.225   1.041   1.306  0.2529 -0.4076  2.0440
  409SOL    HW3 1403   3.339   1.022   1.403  2.1295  1.7896  0.3691
  409SOL    MW4 1404   3.305   1.061   1.334  0.7103  0.4223  0.2435
  410SOL     OW 1405   0.830   6.122   6.157 -0.2220  0.4555  0.3600
  410SOL    HW2 1406   0.839   6.037   6.113 -0.0401  1.2413 -1.1874
  410SOL    HW3 1407   0.770   6.172   6.101 -0.7333  1.1894  1.5186
  410SOL    MW4 1408   0.823   6.117   6.144 -0.2654  0.6560  0.3087
  411SOL     OW 1409   1.408   1.206   0.122  0.2261 -0.5482  0.4151
  411SOL    HW2 1410   1.408   1.264   0.045 -1.5013  0.9829  1.4753
  411SOL    HW3 1411   1.500   1.189   0.140  0.7689  1.3935 -0.3346
  411SOL    MW4 1412   1.420   1.211   0.114  0.0698 -0.0900  0.4560
  412SOL     OW 1413   0.626   5.780   6.369  0.0175 -0.2599 -0.2233
  412SOL    HW2 1414   0.600   5.747   6.283 -0.5405 -0.1384 -0.1081
  412SOL    HW3 1415   0.604   5.874   6.365 -0.8528 -0.4298  0.3606
  412SOL    MW4 1416   0.620   5.788   6.357 -0.1709 -0.2663 -0.1311
  413SOL     OW 1417   5.122   4.951   3.137 -0.5390 -0.3304  0.1560
  413SOL    HW2 1418   5.138   4.857   3.138 -1.9613 -0.5965  0.3449
  413SOL    HW3 1419   5.074   4.968   3.219 -0.0492  0.6049  0.2616
  413SOL    MW4 1420   5.118   4.941   3.148 -0.6620 -0.2421  0.1949
  414SOL     OW 1421   2.088   5.420   5.723 -0.1717  0.2445 -0.4712
  414SOL    HW2 1422   2.004   5.383   5.750  0.3457 -0.5593  0.0960
  414SOL    HW3 1423   2.136   5.346   5.687  0.6636  0.4734  0.1423
  414SOL    MW4 1424   2.083   5.405   5.722  0.0068  0.1687 -0.3155
  415SOL     OW 1425   6.147   2.131   0.016  0.3666 -0.1424 -0.1793
  415SOL    HW2 1426   6.109   2.190  -0.049 -0.9018 -0.4186  0.2684
  415SOL    HW3 1427   6.184   2.059  -0.035  0.2195  0.1035 -0.6350
  415SOL    MW4 1428   6.147   2.129   0.001  0.1799 -0.1464 -0.1804
  416SOL     OW 1429   5.278   5.144   4.750 -0.5116 -0.0873  0.2868
  416SOL    HW2 1430   5.283   5.176   4.840  0.0827 -0.5070  0.4056
  416SOL    HW3 1431   5.352   5.085   4.741 -0.1151  0.5486 -0.7294
  416SOL    MW4 1432   5.288   5.141   4.761 -0.3809 -0.0588  0.1684
  417SOL     OW 1433   5.489   4.557   2.663 -0.5515  0.0476 -0.5008
  417SOL    HW2 1434   5.432   4.481   2.670 -0.1146 -0.1826  0.7127
  417SOL    HW3 1435   5.455   4.619   2.727 -0.2093  0.4092 -0.6660
  417SOL    MW4 1436   5.477   4.555   2.672 -0.4487  0.0649 -0.3625
  418SOL     OW 1437   4.864   5.747   3.538 -0.1198  0.4038  0.8087
  418SOL    HW2 1438   4.857   5.685   3.465  3.1544  1.3143 -0.4584
  418SOL    HW3 1439   4.777   5.785   3.546 -1.6336 -2.5675  0.0680
  418SOL    MW4 1440   4.852   5.744   3.530  0.1125  0.1319  0.5438
  419SOL     OW 1441   6.270   3.153   5.343 -0.1370  1.5033 -0.2981
  419SOL    HW2 1442   6.307   3.070   5.313  0.0854  1.3891  0.2840
  419SOL    HW3 1443   6.207   3.176   5.275 -0.8979  0.3711 -0.0171
  419SOL    MW4 1444   6.266   3.145   5.330 -0.2080  1.3389 -0.1843
  420SOL     OW 1445   2.094   0.984   4.043  0.4770 -0.8056  0.0899
  420SOL    HW2 1446   2.118   1.020   3.958  0.6164 -0.8099  0.1270
  420SOL    HW3 1447   2.090   0.889   4.029  1.0535 -0.8496  0.2245
  420SOL    MW4 1448   2.096   0.976   4.030  0.5715 -0.8120  0.1125
  421SOL     OW 1449   0.466   6.309   5.678 -0.1663  0.3405  0.6354
  421SOL    HW2 1450   0.534   6.363   5.637 -0.8921  0.2291 -0.7469
  421SOL    HW3 1451   0.501   6.220   5.674 -0.0168  0.3925  0.7449
  421SOL    MW4 1452   0.480   6.305   5.672 -0.2423  0.3326  0.4675
  422SOL     OW 1453   1.970   1.655   1.259  0.2345 -0.3423  0.0318
  422SOL    HW2 1454   2.006   1.629   1.174 -1.7194  0.9581 -1.2540
  422SOL    HW3 1455   1.941   1.572   1.298 -1.9587 -0.7101 -2.1189
  422SOL    MW4 1456   1.971   1.640   1.253 -0.3126 -0.2192 -0.4216
  423SOL     OW 1457   4.547   4.346   2.666  0.0048 -0.5750 -0.5066
  423SOL    HW2 1458   4.470   4.390   2.631 -0.7871 -1.7646 -0.3309
  423SOL    HW3 1459   4.590   4.412   2.720 -1.8162 -0.3466  0.7742
  423SOL    MW4 1460   4.542   4.360   2.668 -0.3399 -0.7018 -0.3144
  424SOL     OW 1461   0.968   1.875   0.339  0.4462  0.4048 -0.4094
  424SOL    HW2 1462   0.921   1.796   0.314  0.4720  0.1581  0.3079
  424SOL    HW3 1463   0.942   1.892   0.430 -0.6230  1.9973 -0.9725
  424SOL    MW4 1464   0.959   1.867   0.348  0.3085  0.5824 -0.3890
  425SOL     OW 1465   4.184   1.672   0.656 -0.6027  0.0888  0.1129
  425SOL    HW2 1466   4.211   1.761   0.682  0.0335 -0.2573  0.6765
  425SOL    HW3 1467   4.128   1.642   0.727  1.0580 -0.8226  1.1075
  425SOL    MW4 1468   4.180   1.680   0.669 -0.2997 -0.0771  0.3185
  426SOL     OW 1469   5.603   1.651   5.555 -0.8210  0.0321 -0.2340
  426SOL    HW2 1470   5.583   1.607   5.637  0.2066 -0.5831 -0.2927
  426SOL    HW3 1471   5.519   1.684   5.524 -1.1036  1.0349  1.4915
  426SOL    MW4 1472   5.589   1.650   5.562 -0.7227  0.0832 -0.0141
  427SOL     OW 1473   3.218   3.369   1.709  0.4283 -0.4241  0.1757
  427SOL    HW2 1474   3.128   3.371   1.740 -0.2477  1.4761 -1.6349
  427SOL    HW3 1475   3.254   3.454   1.734  1.6946 -1.1101  0.7668
  427SOL    MW4 1476   3.211   3.381   1.716  0.5061 -0.2639  0.0148
  428SOL     OW 1477   0.221   5.587   6.368  0.1907 -0.3526  0.3454
  428SOL    HW2 1478   0.307   5.594   6.409  0.9625 -2.1703 -0.8039
  428SOL    HW3 1479   0.223   5.502   6.325 -1.8177  0.0234 -0.5830
  428SOL    MW4 1480   0.233   5.577   6.368  0.0275 -0.5428  0.0713
  429SOL     OW 1481   2.450   4.033   5.106 -0.0351 -0.1949  0.1274
  429SOL    HW2 1482   2.538   4.054   5.136 -0.9759  0.8364  2.3502
  429SOL    HW3 1483   2.401   4.011   5.185 -1.8123 -0.6907 -1.0322
  429SOL    MW4 1484   2.455   4.033   5.120 -0.3937 -0.1242  0.2677
  430SOL     OW 1485   2.776   4.147   2.266  0.0354  0.3725 -0.1826
  430SOL    HW2 1486   2.699   4.166   2.320 -0.8085  0.7994 -1.4874
  430SOL    HW3 1487   2.849   4.188   2.312 -1.0128  2.8065 -0.5475
  430SOL    MW4 1488   2.775   4.155   2.279 -0.2142  0.7500 -0.4029
  431SOL     OW 1489   4.130   2.034   5.386  0.4224  0.1279  0.0955
  431SOL    HW2 1490   4.064   1.966   5.397  1.0801 -0.3436  1.3736
  431SOL    HW3 1491   4.082   2.110   5.353 -0.4933 -0.6356 -0.3643
  431SOL    MW4 1492   4.115   2.035   5.383  0.3883 -0.0350  0.2035
  432SOL     OW 1493   2.157   3.337   0.946 -0.0883 -0.2275 -0.3390
  432SOL    HW2 1494   2.122   3.420   0.979  2.6825  1.3228 -0.9059
  432SOL    HW3 1495   2.161   3.349   0.851  0.9970 -0.6825 -0.3735
  432SOL    MW4 1496   2.153   3.350   0.938  0.4205 -0.0830 -0.4183
  433SOL     OW 1497   5.329   2.427   3.249  0.3610  0.3829 -0.1528
  433SOL    HW2 1498   5.281   2.366   3.195  1.6205 -1.1340  0.3618
  433SOL    HW3 1499   5.420   2.420   3.219  0.4933  2.3207 -0.3495
  433SOL    MW4 1500   5.335   2.418   3.238  0.5447  0.4384 -0.1109
  434SOL     OW 1501   4.330   4.297   1.254 -0.2836  0.4858 -0.2115
  434SOL    HW2 1502   4.388   4.318   1.181  0.0991  1.1284  0.2666
  434SOL    HW3 1503   4.261   4.243   1.216  1.0775 -1.0423 -0.6365
  434SOL    MW4 1504   4.328   4.292   1.240 -0.0535  0.3690 -0.2045
  435SOL     OW 1505   2.818   0.842   6.227 -0.4772  0.1783 -0.2449
  435SOL    HW2 1506   2.824   0.759   6.180  0.9045  0.4764 -0.6491
  435SOL    HW3 1507   2.898   0.845   6.281 -0.3061  1.4104 -0.5353
  435SOL    MW4 1508   2.830   0.832   6.228 -0.2723  0.3802 -0.3365
  436SOL     OW 1509   2.447   4.455   2.652 -0.2240  0.0097  0.1691
  436SOL    HW2 1510   2.409   4.373   2.684  0.0127  0.4131  1.5242
  436SOL    HW3 1511   2.440   4.516   2.725 -0.1357  1.1347 -0.7171
  436SOL    MW4 1512   2.441   4.452   2.666 -0.1811  0.2113  0.2309
  437SOL     OW 1513   5.081   1.256   6.050 -0.1867  0.8115  0.1126
  437SOL    HW2 1514   5.002   1.307   6.065 -0.5079  0.4108 -0.1823
  437SOL    HW3 1515   5.131   1.308   5.987  0.0850  1.3672  0.7703
  437SOL    MW4 1516   5.077   1.270   6.044 -0.1932  0.8319  0.1605
  438SOL     OW 1517   2.778   0.210   2.088 -1.0367  0.4049  0.0723
  438SOL    HW2 1518   2.685   0.228   2.076 -1.2885  0.4440  1.7591
  438SOL    HW3 1519   2.822   0.293   2.072 -1.2593  0.3420 -0.9106
  438SOL    MW4 1520   2.771   0.223   2.085 -1.0993  0.4018  0.1652
  439SOL     OW 1521   4.033   1.130   1.594 -0.1099  0.3080  0.7201
  439SOL    HW2 1522   3.984   1.075   1.532  0.5378 -1.6494  1.8817
  439SOL    HW3 1523   4.007   1.219   1.571  0.0746 -0.3057 -2.3439
  439SOL    MW4 1524   4.023   1.134   1.583 -0.0001 -0.0312  0.4691
  440SOL     OW 1525   2.283   3.105   4.868 -0.5418  0.5190  0.1302
  440SOL    HW2 1526   2.201   3.084   4.914 -0.3823 -2.9597 -0.8802
  440SOL    HW3 1527   2.351   3.062   4.919 -0.2457 -2.5339 -2.5502
  440SOL    MW4 1528   2.281   3.097   4.881 -0.4817 -0.3428 -0.3567
  441SOL     OW 1529   4.216   4.571   5.031 -0.3441 -0.0558 -0.3477
  441SOL    HW2 1530   4.244   4.509   4.963  1.8769  1.3305 -0.7887
  441SOL    HW3 1531   4.239   4.527   5.113 -0.7568 -0.6878 -0.5563
  441SOL    MW4 1532   4.223   4.557   5.033 -0.1055  0.0437 -0.4334
  442SOL     OW 1533   0.039   2.029   3.314  0.9355 -0.0435 -0.5534
  442SOL    HW2 1534   0.083   2.053   3.232  0.6610 -1.3413 -1.0964
  442SOL    HW3 1535  -0.051   2.060   3.302  0.4575 -1.6872 -1.4472
  442SOL    MW4 1536   0.033   2.036   3.302  0.8362 -0.4316 -0.7430
  443SOL     OW 1537   0.431   1.631   2.652 -0.3201 -1.1768 -0.6846
  443SOL    HW2 1538   0.404   1.711   2.607  1.2784  0.5653  1.1756
  443SOL    HW3 1539   0.512   1.605   2.609  1.7296  1.0311  1.4809
  443SOL    MW4 1540   0.439   1.638   2.641  0.1612 -0.6556 -0.1535
  444SOL     OW 1541   2.190   5.386   2.033  0.0743  0.0530  0.1250
  444SOL    HW2 1542   2.171   5.442   1.958 -3.3381  0.8892  1.4197
  444SOL    HW3 1543   2.124   5.316   2.027  0.2068 -0.2638  1.9103
  444SOL    MW4 1544   2.179   5.384   2.022 -0.3585  0.1215  0.5314
  445SOL     OW 1545   0.240   3.259   2.995  0.1133 -0.4139 -0.3489
  445SOL    HW2 1546   0.295   3.230   3.068  1.1552 -0.4099 -1.1097
  445SOL    HW3 1547   0.271   3.208   2.920 -0.8261 -0.2965 -0.8372
  445SOL    MW4 1548   0.251   3.248   2.995  0.1268 -0.3979 -0.5137
  446SOL     OW 1549   5.448   2.238   5.723  0.2262 -0.6645 -0.3936
  446SOL    HW2 1550   5.494   2.220   5.641 -0.8566  1.5384 -1.5889
  446SOL    HW3 1551   5.384   2.167   5.731  2.2690 -2.5499  0.1709
  446SOL    MW4 1552   5.445   2.226   5.713  0.3528 -0.6226 -0.4768
  447SOL     OW 1553   2.214   0.427   2.209 -0.1141  0.0299  0.0386
  447SOL    HW2 1554   2.250   0.515   2.199 -0.7094  0.4593  1.4278
  447SOL    HW3 1555   2.271   0.385   2.274 -0.9966  0.1057  0.8947
  447SOL    MW4 1556   2.227   0.433   2.217 -0.3091  0.0965  0.3349
  448SOL     OW 1557   1.940   1.849   3.973 -0.2408 -0.6398  0.3979
  448SOL    HW2 1558   1.885   1.884   4.043 -0.6796  0.9683 -0.7048
  448SOL    HW3 1559   1.927   1.754   3.977 -1.0360 -0.4891  1.8381
  448SOL    MW4 1560   1.931   1.841   3.983 -0.4036 -0.4077  0.4424
  449SOL     OW 1561   4.664   3.871   6.048 -0.0425  0.6074 -0.2868
  449SOL    HW2 1562   4.573   3.888   6.074  0.4351  1.8871  0.6678
  449SOL    HW3 1563   4.678   3.779   6.070 -1.1372  0.3524 -0.5699
  449SOL    MW4 1564   4.653   3.861   6.054 -0.1239  0.7426 -0.1982
  450SOL     OW 1565   1.333   6.089   6.145 -0.1615 -0.2070 -0.4815
  450SOL    HW2 1566   1.285   6.161   6.184 -0.5213  0.7038 -2.4578
  450SOL    HW3 1567   1.424   6.119   6.144  0.0015 -0.6498  0.5223
  450SOL    MW4 1568   1.339   6.103   6.150 -0.1874 -0.1453 -0.6098
  451SOL     OW 1569   5.965   0.764   5.329 -0.0037  0.5582  0.2231
  451SOL    HW2 1570   6.035   0.828   5.340 -0.8890  1.4750  0.6493
  451SOL    HW3 1571   5.909   0.801   5.262 -0.6745  0.3590  0.6633
  451SOL    MW4 1572   5.967   0.777   5.322 -0.2090  0.6529  0.3374
  452SOL     OW 1573   5.760   5.846   1.506 -0.6296 -0.6066 -0.1462
  452SOL    HW2 1574   5.850   5.841   1.540 -1.0506 -0.8327  0.9627
  452SOL    HW3 1575   5.712   5.896   1.572 -1.3770 -0.6988 -0.6134
  452SOL    MW4 1576   5.766   5.852   1.519 -0.7837 -0.6486 -0.0615
  453SOL     OW 1577   4.214   4.632   2.363 -0.0851 -0.0398 -0.0065
  453SOL    HW2 1578   4.163   4.687   2.421 -0.7098 -1.1311  0.5042
  453SOL    HW3 1579   4.300   4.675   2.358 -0.4827  0.8384  0.5582
  453SOL    MW4 1580   4.219   4.645   2.370 -0.2200 -0.0679  0.1354
  454SOL     OW 1581   5.504   6.248   1.030 -1.0171 -0.0223 -0.0934
  454SOL    HW2 1582   5.590   6.268   0.994  0.3003  0.2543  2.9447
  454SOL    HW3 1583   5.456   6.331   1.025 -0.6424  0.1723 -0.5726
  454SOL    MW4 1584   5.509   6.262   1.024 -0.7938  0.0399  0.2442
  455SOL     OW 1585   1.107   5.815   4.836 -0.6853 -0.4384 -0.2327
  455SOL    HW2 1586   1.177   5.878   4.817 -1.4752  0.3425 -0.6735
  455SOL    HW3 1587   1.126   5.740   4.780 -0.2380 -0.2065 -0.4003
  455SOL    MW4 1588   1.119   5.814   4.826 -0.7305 -0.3048 -0.3130
  456SOL     OW 1589   4.861   2.195   2.994  0.1466  0.2582  0.2623
  456SOL    HW2 1590   4.836   2.239   3.075 -0.2781  0.5396 -0.0178
  456SOL    HW3 1591   4.956   2.187   2.999  0.1822  0.8261  0.5044
  456SOL    MW4 1592   4.870   2.200   3.005  0.0953  0.3702  0.2573
  457SOL     OW 1593   3.590   4.457   5.043  0.2444  0.0580 -0.1277
  457SOL    HW2 1594   3.614   4.536   4.994 -0.7652  0.6899  0.3347
  457SOL    HW3 1595   3.584   4.487   5.134  1.7488 -1.0145  0.3563
  457SOL    MW4 1596   3.592   4.472   5.049  0.3097 -0.0002 -0.0029
  458SOL     OW 1597   5.735   1.111   4.812  0.5259 -0.2281  0.0565
  458SOL    HW2 1598   5.683   1.106   4.732 -0.5689 -1.6776  0.8198
  458SOL    HW3 1599   5.672   1.099   4.882  1.5696  0.3711  1.1277
  458SOL    MW4 1600   5.720   1.109   4.810  0.5192 -0.3403  0.2986
  459SOL     OW 1601   2.408   5.163   0.434 -0.4895 -0.7073  0.3370
  459SOL    HW2 1602   2.390   5.253   0.459  0.2510 -0.3854 -0.2340
  459SOL    HW3 1603   2.482   5.137   0.488  0.2773 -0.4462 -0.5618
  459SOL    MW4 1604   2.415   5.172   0.444 -0.2906 -0.6304  0.1431
  460SOL     OW 1605   0.133   5.679   0.451  0.1616  0.2972 -0.6028
  460SOL    HW2 1606   0.124   5.690   0.356 -1.3061  1.9442 -0.3215
  460SOL    HW3 1607   0.102   5.590   0.468 -0.1819  0.2159 -1.5939
  460SOL    MW4 1608   0.128   5.668   0.441 -0.0773  0.5037 -0.6965
  461SOL     OW 1609   1.917   2.040   2.317 -0.0717  0.0337  0.4179
  461SOL    HW2 1610   1.935   2.014   2.226 -0.6870  0.2897  0.2221
  461SOL    HW3 1611   1.970   2.119   2.329 -3.5077  2.8875 -1.2851
  461SOL    MW4 1612   1.927   2.047   2.306 -0.6062  0.4440  0.1674
  462SOL     OW 1613   2.655   1.259   4.047 -0.5495  0.4051  0.4641
  462SOL    HW2 1614   2.603   1.181   4.029  2.8821 -1.7896 -0.9680
  462SOL    HW3 1615   2.637   1.317   3.973 -1.3171 -0.0588  0.2714
  462SOL    MW4 1616   2.646   1.256   4.035 -0.1980  0.0543  0.2497
  463SOL     OW 1617   0.080   3.410   2.652 -0.3373  0.0799 -0.3897
  463SOL    HW2 1618   0.015   3.459   2.603 -2.8458 -1.5982  1.0327
  463SOL    HW3 1619   0.059   3.427   2.744  0.9366 -0.8790  0.1127
  463SOL    MW4 1620   0.069   3.418   2.658 -0.5002 -0.2680 -0.1357
  464SOL     OW 1621   0.598   2.469   4.250 -0.3209 -0.3191  0.3428
  464SOL    HW2 1622   0.636   2.431   4.329 -1.7067 -0.9472  0.7334
  464SOL    HW3 1623   0.529   2.527   4.282  1.5900  2.5006 -0.2464
  464SOL    MW4 1624   0.594   2.472   4.264 -0.2516 -0.0300  0.3166
  465SOL     OW 1625   0.948   3.527   1.926 -0.1985  0.3382  0.1153
  465SOL    HW2 1626   0.883   3.505   1.860  0.3229 -0.0932 -0.2546
  465SOL    HW3 1627   1.012   3.582   1.880  0.8186 -0.9443 -0.0740
  465SOL    MW4 1628   0.948   3.532   1.911  0.0045  0.1121  0.0415
  466SOL     OW 1629   5.978   3.464   3.879  0.2077  0.0708 -0.3518
  466SOL    HW2 1630   6.003   3.379   3.842  0.3482 -0.0581  0.0345
  466SOL    HW3 1631   6.026   3.469   3.962 -0.8191 -0.0429  0.2631
  466SOL    MW4 1632   5.988   3.454   3.885  0.0908  0.0388 -0.2197
  467SOL     OW 1633   4.072   3.437   2.065  0.1923  0.1206 -0.7150
  467SOL    HW2 1634   4.134   3.437   1.992 -0.5660 -0.5727 -1.3766
  467SOL    HW3 1635   4.095   3.359   2.115  0.1634  0.1292 -0.6887
  467SOL    MW4 1636   4.083   3.427   2.062  0.0885  0.0302 -0.7989
  468SOL     OW 1637   2.221   3.574   5.184  0.0962 -0.7219  0.2003
  468SOL    HW2 1638   2.226   3.587   5.279  2.8918  0.5413 -0.0024
  468SOL    HW3 1639   2.304   3.532   5.162 -0.1761 -0.3142 -1.7785
  468SOL    MW4 1640   2.233   3.570   5.194  0.4291 -0.5014 -0.0875
  469SOL     OW 1641   5.839   5.368   3.548  0.2568  0.1680  0.8084
  469SOL    HW2 1642   5.851   5.320   3.630 -0.3324  0.6398  1.1785
  469SOL    HW3 1643   5.766   5.323   3.505 -0.5214  0.9217  1.3132
  469SOL    MW4 1644   5.831   5.356   3.553  0.0764  0.3297  0.9238
  470SOL     OW 1645   6.026   2.236   5.612  0.9560  0.6010  0.1390
  470SOL    HW2 1646   6.024   2.294   5.688  2.0785 -1.3195  1.7239
  470SOL    HW3 1647   5.943   2.190   5.615  1.3178 -0.0417  0.7203
  470SOL    MW4 1648   6.015   2.237   5.623  1.1519  0.2628  0.4248
  471SOL     OW 1649   3.882   0.550   0.143 -0.3896  0.1714 -0.6036
  471SOL    HW2 1650   3.839   0.631   0.171  1.5185  1.1850 -0.4195
  471SOL    HW3 1651   3.922   0.571   0.059  1.6369  0.0235  0.2732
  471SOL    MW4 1652   3.881   0.563   0.136  0.1295  0.2856 -0.4636
  472SOL     OW 1653   1.182   1.275   1.654  0.4786  0.4428  0.9211
  472SOL    HW2 1654   1.213   1.365   1.649 -0.1201  0.5969 -1.2853
  472SOL    HW3 1655   1.218   1.233   1.576 -0.5776 -0.7815  1.0591
  472SOL    MW4 1656   1.191   1.282   1.643  0.2603  0.3016  0.6482
  473SOL     OW 1657   3.760   0.983   5.921 -0.2400 -0.5057  0.3920
  473SOL    HW2 1658   3.718   0.908   5.880 -0.7685  0.1048 -0.2064
  473SOL    HW3 1659   3.688   1.034   5.959  0.0606 -0.0487  0.3590
  473SOL    MW4 1660   3.745   0.980   5.920 -0.2701 -0.3649  0.3087
  474SOL     OW 1661   2.365   2.879   5.389  0.3272  0.4633  0.6696
  474SOL    HW2 1662   2.385   2.788   5.368 -2.0481  0.2223 -0.9175
  474SOL    HW3 1663   2.434   2.930   5.345  0.8626 -0.4799  0.3950
  474SOL    MW4 1664   2.377   2.874   5.381  0.0844  0.3071  0.4240
  475SOL     OW 1665   1.386   4.614   5.415 -0.9993  0.4205  0.2371
  475SOL    HW2 1666   1.309   4.623   5.470  0.0485 -1.6143  2.2381
  475SOL    HW3 1667   1.425   4.531   5.443  0.4448  0.0328 -2.5900
  475SOL    MW4 1668   1.381   4.604   5.426 -0.6705  0.1009  0.1281
  476SOL     OW 1669   2.861   3.780   5.951 -0.3940  0.0195 -0.7372
  476SOL    HW2 1670   2.774   3.820   5.947 -0.5453 -0.3930 -2.2320
  476SOL    HW3 1671   2.921   3.851   5.930 -0.3876  0.2293 -0.0274
  476SOL    MW4 1672   2.857   3.794   5.947 -0.4132 -0.0072 -0.8408
  477SOL     OW 1673   2.092   1.909   3.747 -0.9231  0.8314 -0.1860
  477SOL    HW2 1674   2.123   1.825   3.715 -3.3693  0.5528 -2.1555
  477SOL    HW3 1675   2.032   1.887   3.818  0.2320  1.1042  0.8996
  477SOL    MW4 1676   2.088   1.895   3.752 -1.0934  0.8306 -0.3026
  478SOL     OW 1677   4.325   1.471   0.797  0.2311 -0.3432 -0.6973
  478SOL    HW2 1678   4.259   1.521   0.748 -0.8596 -2.0357 -1.0748
  478SOL    HW3 1679   4.350   1.528   0.870 -0.3818  1.0194 -1.5152
  478SOL    MW4 1680   4.319   1.485   0.800  0.0063 -0.3867 -0.8550
  479SOL     OW 1681   6.093   1.169   5.849 -0.0519 -0.7012  0.1662
  479SOL    HW2 1682   6.054   1.114   5.917  1.2705  0.4129  1.9046
  479SOL    HW3 1683   6.185   1.144   5.848  0.1490  0.0315 -0.5023
  479SOL    MW4 1684   6.100   1.158   5.858  0.1491 -0.4576  0.3073
  480SOL     OW 1685   1.389   1.189   5.303 -0.2236 -0.3951 -0.1285
  480SOL    HW2 1686   1.390   1.258   5.237  0.4483 -1.0923 -0.8693
  480SOL    HW3 1687   1.374   1.108   5.254 -1.4960 -0.7430  0.7808
  480SOL    MW4 1688   1.387   1.188   5.288 -0.3028 -0.5330 -0.1062
  481SOL     OW 1689   5.263   2.023   5.716  0.2652  0.3923  0.1364
  481SOL    HW2 1690   5.254   2.076   5.637  1.0439  0.7278  0.2635
  481SOL    HW3 1691   5.173   2.013   5.749 -0.3582 -1.5183 -1.9043
  481SOL    MW4 1692   5.250   2.029   5.710  0.2857  0.1845 -0.1161
  482SOL     OW 1693   1.277   3.407   5.751 -0.7586  0.1198 -0.6053
  482SOL    HW2 1694   1.352   3.402   5.691 -0.5091 -0.6680 -0.2436
  482SOL    HW3 1695   1.247   3.316   5.759 -1.4355  0.3562 -0.3374
  482SOL    MW4 1696   1.283   3.394   5.744 -0.8150  0.0471 -0.5222
  483SOL     OW 1697   5.318   4.107   1.716  0.6368  0.1416 -0.1228
  483SOL    HW2 1698   5.383   4.037   1.719  0.1415 -0.3004  0.6439
  483SOL    HW3 1699   5.261   4.083   1.643  0.4928 -0.2402  0.1111
  483SOL    MW4 1700   5.319   4.095   1.706  0.5524  0.0329  0.0092
  484SOL     OW 1701   1.135   3.358   5.339  0.2990 -0.0186 -0.5274
  484SOL    HW2 1702   1.132   3.338   5.245 -0.3657  0.2287 -0.5628
  484SOL    HW3 1703   1.055   3.319   5.374  0.1875  0.5212 -0.1838
  484SOL    MW4 1704   1.124   3.350   5.331  0.1966  0.0852 -0.4867
  485SOL     OW 1705   1.067   6.388   4.216  0.0107 -0.3754 -0.1001
  485SOL    HW2 1706   1.159   6.374   4.196  0.1010  0.2693 -0.1461
  485SOL    HW3 1707   1.037   6.303   4.250  0.5332 -0.6850 -0.3888
  485SOL    MW4 1708   1.075   6.375   4.218  0.0916 -0.3312 -0.1442
  486SOL     OW 1709   3.448   1.716   3.780 -0.7360 -0.7733 -0.2434
  486SOL    HW2 1710   3.482   1.682   3.862  2.9277  0.9045 -0.8410
  486SOL    HW3 1711   3.449   1.811   3.791  1.3016 -0.4056 -2.5694
  486SOL    MW4 1712   3.453   1.724   3.792  0.0162 -0.5035 -0.6292
  487SOL     OW 1713   1.341   2.937   2.359  0.3424 -0.1242  0.5555
  487SOL    HW2 1714   1.412   2.993   2.330  0.9087 -1.1934 -0.1886
  487SOL    HW3 1715   1.385   2.865   2.405 -0.3900  0.2109  1.8324
  487SOL    MW4 1716   1.356   2.935   2.361  0.3205 -0.2210  0.6258
  488SOL     OW 1717   0.378   3.131   2.281 -0.3344  0.5386 -0.5739
  488SOL    HW2 1718   0.296   3.086   2.262  0.6940 -1.8852  0.3562
  488SOL    HW3 1719   0.402   3.102   2.370  2.2554 -0.0492 -1.3694
  488SOL    MW4 1720   0.370   3.121   2.290  0.1430  0.1413 -0.5562
  489SOL     OW 1721   5.353   4.089   6.023  0.3453  0.1369  0.7165
  489SOL    HW2 1722   5.390   4.167   6.066  1.9996 -0.4423  0.3886
  489SOL    HW3 1723   5.297   4.125   5.954 -1.6820  1.0777  2.6769
  489SOL    MW4 1724   5.350   4.104   6.020  0.2961  0.1846  0.9319
  490SOL     OW 1725   6.328   2.265   2.860  0.3530  0.3840  0.4864
  490SOL    HW2 1726   6.245   2.247   2.817 -0.1354 -0.3772  1.6773
  490SOL    HW3 1727   6.371   2.179   2.865  1.3988  0.8296 -0.4687
  490SOL    MW4 1728   6.323   2.251   2.855  0.4265  0.3423  0.5175
  491SOL     OW 1729   3.496   1.434   1.747  0.1425 -0.1275  0.4476
  491SOL    HW2 1730   3.430   1.492   1.710 -0.2652  0.0348  1.4018
  491SOL    HW3 1731   3.447   1.363   1.787  0.6186 -0.8355 -0.1917
  491SOL    MW4 1732   3.481   1.432   1.747  0.1515 -0.1995  0.4892
  492SOL     OW 1733   0.154   3.307   5.069 -0.5474  0.1572  0.5094
  492SOL    HW2 1734   0.240   3.304   5.111 -0.9578 -0.3778  1.3214
  492SOL    HW3 1735   0.094   3.337   5.138 -0.9352  1.1031 -0.2045
  492SOL    MW4 1736   0.157   3.311   5.084 -0.6527  0.2114  0.5223
  493SOL     OW 1737   3.241   0.256   0.765 -0.0553  0.5775  0.2488
  493SOL    HW2 1738   3.184   0.180   0.778 -0.4737  0.5878 -1.3381
  493SOL    HW3 1739   3.324   0.220   0.734 -0.0601  0.7197  0.0666
  493SOL    MW4 1740   3.244   0.241   0.763 -0.1112  0.5976  0.0154
  494SOL     OW 1741   1.368   2.042   0.157 -0.0981 -0.2247  0.0683
  494SOL    HW2 1742   1.424   2.118   0.141 -2.2652  1.0052 -2.4038
  494SOL    HW3 1743   1.418   1.968   0.121  0.8396  0.4677 -0.1098
  494SOL    MW4 1744   1.382   2.042   0.150 -0.2603  0.0289 -0.2814
  495SOL     OW 1745   1.493   0.125   5.320  0.4604 -0.0476  0.0533
  495SOL    HW2 1746   1.464   0.185   5.390  0.3375  0.1519 -0.1678
  495SOL    HW3 1747   1.559   0.175   5.272  1.4627 -0.6321  0.7836
  495SOL    MW4 1748   1.498   0.140   5.323  0.5764 -0.0984  0.1205
  496SOL     OW 1749   1.440   2.876   5.702  0.0195 -0.0316 -0.8030
  496SOL    HW2 1750   1.390   2.896   5.624  1.5595 -0.7985 -2.0471
  496SOL    HW3 1751   1.375   2.873   5.772 -1.3940  0.7099 -2.0227
  496SOL    MW4 1752   1.425   2.878   5.701  0.0362 -0.0350 -1.1281
  497SOL     OW 1753   1.177   0.460   5.740  0.3881  0.2366  0.3062
  497SOL    HW2 1754   1.272   0.466   5.750  0.7174  2.1295 -2.6949
  497SOL    HW3 1755   1.161   0.480   5.648 -2.9405 -0.2256  0.6543
  497SOL    MW4 1756   1.188   0.463   5.729 -0.0076  0.4253 -0.0439
  498SOL     OW 1757   6.129   0.326   6.073  0.0956 -0.0434  0.7039
  498SOL    HW2 1758   6.159   0.349   6.161 -0.3873 -2.0212  1.4246
  498SOL    HW3 1759   6.154   0.235   6.061 -0.4524 -0.0208 -0.9588
  498SOL    MW4 1760   6.136   0.317   6.083 -0.0404 -0.3014  0.5796
  499SOL     OW 1761   4.638   6.238   3.311  0.7437 -0.0744  0.0196
  499SOL    HW2 1762   4.616   6.330   3.318 -0.5796 -0.2874 -0.9918
  499SOL    HW3 1763   4.556   6.192   3.331  0.9806 -0.9770 -0.9734
  499SOL    MW4 1764   4.624   6.244   3.315  0.6003 -0.2216 -0.2449
  500SOL     OW 1765   0.378   1.625   1.299  0.2312  0.3075  0.0240
  500SOL    HW2 1766   0.417   1.610   1.212 -1.6169  0.2087 -0.8256
  500SOL    HW3 1767   0.290   1.658   1.281  0.4685  2.1403  1.8851
  500SOL    MW4 1768   0.372   1.627   1.285  0.0187  0.5363  0.1575
  501SOL     OW 1769   3.677   3.117   5.323  0.0644  0.5922 -0.1073
  501SOL    HW2 1770   3.607   3.082   5.269  1.2139 -0.1360 -1.1858
  501SOL    HW3 1771   3.635   3.140   5.406 -1.3985  0.0490 -0.6727
  501SOL    MW4 1772   3.662   3.116   5.327  0.0230  0.4245 -0.3242
  502SOL     OW 1773   2.336   4.091   0.503  0.0211 -0.2849  0.0113
  502SOL    HW2 1774   2.256   4.041   0.518  0.3276  0.0184  3.5057
  502SOL    HW3 1775   2.404   4.025   0.488 -0.4772 -0.6561 -0.6221
  502SOL    MW4 1776   2.334   4.076   0.503 -0.0042 -0.2938  0.3888
  503SOL     OW 1777   0.110   3.033   2.266 -0.5299 -0.5712 -0.2823
  503SOL    HW2 1778   0.047   3.088   2.312 -0.1015  0.0197 -0.3838
  503SOL    HW3 1779   0.106   3.063   2.175  0.0733 -0.3497 -0.2442
  503SOL    MW4 1780   0.101   3.044   2.260 -0.3938 -0.4640 -0.2907
  504SOL     OW 1781   0.747   0.040   4.993  0.1405  0.2302  0.4662
  504SOL    HW2 1782   0.677  -0.005   4.947 -0.3544  1.5022 -0.0676
  504SOL    HW3 1783   0.775  -0.021   5.060 -0.1082 -1.0974 -0.5937
  504SOL    MW4 1784   0.742   0.026   4.995  0.0424  0.2229  0.2559
  505SOL     OW 1785   5.129   2.996   2.733  0.2849  0.5422 -0.2047
  505SOL    HW2 1786   5.053   3.013   2.788 -0.0007  1.3947 -0.8456
  505SOL    HW3 1787   5.193   3.062   2.760  1.7136 -1.5312  1.9138
  505SOL    MW4 1788   5.128   3.007   2.744  0.4357  0.3811 -0.0098
  506SOL     OW 1789   3.342   2.373   0.312 -0.1728  0.1442 -0.4808
  506SOL    HW2 1790   3.405   2.310   0.346  0.4680  0.9886 -0.1012
  506SOL    HW3 1791   3.257   2.334   0.333  0.1822 -1.1951 -1.3496
  506SOL    MW4 1792   3.339   2.359   0.319 -0.0414  0.0789 -0.5453
  507SOL     OW 1793   3.658   0.068   1.270  0.4871 -0.1381  0.2401
  507SOL    HW2 1794   3.685   0.005   1.204 -1.7132 -1.3410  0.4076
  507SOL    HW3 1795   3.621   0.016   1.341  0.5160  1.2522  1.3408
  507SOL    MW4 1796   3.657   0.053   1.271  0.2006 -0.1134  0.4074
  508SOL     OW 1797   0.746   1.337   0.053 -0.2175 -0.1279 -0.0875
  508SOL    HW2 1798   0.811   1.276   0.088  0.2739  0.5385  0.2052
  508SOL    HW3 1799   0.662   1.298   0.075  0.0851 -0.3027  0.8208
  508SOL    MW4 1800   0.744   1.324   0.061 -0.1127 -0.0630  0.0709
  509SOL     OW 1801   5.154   0.420   2.962  0.7098 -0.0006 -0.4070
  509SOL    HW2 1802   5.229   0.365   2.940  0.1353 -0.6135 -0.8556
  509SOL    HW3 1803   5.146   0.414   3.058 -0.1464 -1.7759 -0.5570
  509SOL    MW4 1804   5.163   0.412   2.972  0.5211 -0.3157 -0.4860
  510SOL     OW 1805   0.948   5.198   4.242 -0.4805  0.0200 -0.1989
  510SOL    HW2 1806   0.949   5.125   4.304 -0.5017  0.0917 -0.1143
  510SOL    HW3 1807   1.006   5.263   4.281 -1.1537  0.4136  0.1655
  510SOL    MW4 1808   0.956   5.197   4.255 -0.5721  0.0814 -0.1396
  511SOL     OW 1809   0.929   4.881   1.016  0.5930 -0.6941  0.1031
  511SOL    HW2 1810   0.944   4.936   1.094  2.4258 -2.2343  0.9174
  511SOL    HW3 1811   0.862   4.819   1.044 -0.5294  0.2724 -0.3866
  511SOL    MW4 1812   0.922   4.880   1.030  0.6867 -0.7698  0.1459
  512SOL     OW 1813   6.153   3.268   2.253  0.1713  0.1388  0.0557
  512SOL    HW2 1814   6.148   3.201   2.184 -0.8219 -1.1031  1.2825
  512SOL    HW3 1815   6.236   3.249   2.297  0.0403 -0.0826  0.2075
  512SOL    MW4 1816   6.163   3.257   2.249  0.0230 -0.0543  0.2376
  513SOL     OW 1817   1.129   0.799   3.109 -0.0519 -0.6743 -0.4903
  513SOL    HW2 1818   1.176   0.843   3.179  0.5181 -1.4026 -0.4027
  513SOL    HW3 1819   1.050   0.764   3.151  0.4481 -1.3885 -0.1263
  513SOL    MW4 1820   1.125   0.800   3.124  0.0893 -0.8647 -0.4307
  514SOL     OW 1821   2.361   3.153   1.167 -0.1347 -0.3738 -0.7008
  514SOL    HW2 1822   2.336   3.234   1.211  2.6654 -0.5726  1.5497
  514SOL    HW3 1823   2.385   3.180   1.079  2.9490  1.8104  0.6448
  514SOL    MW4 1824   2.361   3.167   1.161  0.6416 -0.1118 -0.2263
  515SOL     OW 1825   4.332   5.003   1.093  0.3104 -0.1051  0.1289
  515SOL    HW2 1826   4.299   5.020   1.004  0.6201 -0.4241 -0.0480
  515SOL    HW3 1827   4.297   4.917   1.115  2.1922 -1.0996 -0.6278
  515SOL    MW4 1828   4.323   4.994   1.084  0.5995 -0.2784  0.0058
  516SOL     OW 1829   3.274   2.958   6.009 -0.3029 -0.4085 -0.0986
  516SOL    HW2 1830   3.226   3.029   6.052 -1.0981 -1.8589  1.5300
  516SOL    HW3 1831   3.235   2.953   5.921 -0.5282  0.8630 -0.0887
  516SOL    MW4 1832   3.263   2.967   6.003 -0.4376 -0.4321  0.1176
  517SOL     OW 1833   4.240   2.653   0.550 -0.2265 -0.2905 -0.7244
  517SOL    HW2 1834   4.225   2.748   0.557 -1.6067 -0.4217 -1.6337
  517SOL    HW3 1835   4.309   2.645   0.485  1.3064  0.1505  0.7738
  517SOL    MW4 1836   4.247   2.665   0.542 -0.2064 -0.2496 -0.6467
  518SOL     OW 1837   5.202   0.154   4.320 -0.1203  0.4227 -0.3727
  518SOL    HW2 1838   5.226   0.188   4.406  0.1932  1.3417 -0.8101
  518SOL    HW3 1839   5.200   0.231   4.263 -0.9257 -0.0843 -1.0619
  518SOL    MW4 1840   5.205   0.168   4.324 -0.1852  0.4771 -0.5214
  519SOL     OW 1841   5.777   1.487   5.423 -0.0344  0.3864 -0.0495
  519SOL    HW2 1842   5.727   1.439   5.357 -0.4346 -1.4240  1.4918
  519SOL    HW3 1843   5.713   1.546   5.463  0.4132  2.1866 -1.8113
  519SOL    MW4 1844   5.762   1.489   5.420 -0.0282  0.3851 -0.0786
  520SOL     OW 1845   3.994   0.869   3.388 -0.1695  0.0828 -0.1263
  520SOL    HW2 1846   3.974   0.775   3.390 -0.9185  0.2442  0.8054
  520SOL    HW3 1847   3.943   0.903   3.314 -0.4499 -0.1296 -0.0328
  520SOL    MW4 1848   3.984   0.861   3.379 -0.3053  0.0761  0.0089
  521SOL     OW 1849   0.698   2.378   4.522  0.6425 -0.1934  0.2700
  521SOL    HW2 1850   0.716   2.292   4.484  0.2880  0.1283 -0.6618
  521SOL    HW3 1851   0.729   2.372   4.613 -2.1681 -2.3111  1.2020
  521SOL    MW4 1852   0.705   2.366   4.529  0.2249 -0.4303  0.2701
  522SOL     OW 1853   2.739   2.708   2.872  0.2275  0.2391 -0.6577
  522SOL    HW2 1854   2.812   2.654   2.901 -1.2115 -0.8690  1.1430
  522SOL    HW3 1855   2.691   2.653   2.811 -1.0169 -0.4280  0.8694
  522SOL    MW4 1856   2.742   2.694   2.868 -0.1266  0.0049 -0.2186
  523SOL     OW 1857   0.676   0.785   4.163 -0.2320 -0.1776  0.2000
  523SOL    HW2 1858   0.584   0.792   4.136 -0.5328  1.3704  1.4760
  523SOL    HW3 1859   0.686   0.693   4.188 -1.5515 -0.2853  0.4261
  523SOL    MW4 1860   0.665   0.774   4.163 -0.4458  0.0124  0.3982
  524SOL     OW 1861   0.583   3.557   6.120 -0.2007 -0.0062  0.1223
  524SOL    HW2 1862   0.521   3.626   6.147 -0.3323 -0.2876  0.5480
  524SOL    HW3 1863   0.529   3.495   6.072 -0.2423 -0.2212  0.4415
  524SOL    MW4 1864   0.567   3.558   6.118 -0.2236 -0.0717  0.2206
  525SOL     OW 1865   2.286   3.304   5.783 -0.1035 -0.2158  0.4546
  525SOL    HW2 1866   2.301   3.307   5.877  1.3290  1.1854  0.2274
  525SOL    HW3 1867   2.238   3.386   5.764  2.7127  1.3570 -0.4427
  525SOL    MW4 1868   2.281   3.315   5.793  0.4570  0.1766  0.3062
  526SOL     OW 1869   4.335   2.491   0.771  0.3981 -0.1782 -0.6031
  526SOL    HW2 1870   4.423   2.472   0.738  1.4762  2.4506  0.4927
  526SOL    HW3 1871   4.307   2.567   0.720  0.0917  0.9345  1.1456
  526SOL    MW4 1872   4.343   2.499   0.760  0.4999  0.3155 -0.2278
  527SOL     OW 1873   1.635   3.097   1.589  0.5060 -0.0532 -0.1796
  527SOL    HW2 1874   1.600   3.009   1.572  0.5565 -0.3130  1.0154
  527SOL    HW3 1875   1.676   3.123   1.506  0.5803 -1.1902 -0.5102
  527SOL    MW4 1876   1.635   3.089   1.576  0.5225 -0.2375 -0.0655
  528SOL     OW 1877   4.371   2.744   3.474  0.1037  0.3580 -0.0824
  528SOL    HW2 1878   4.396   2.654   3.456  1.3500  1.0838 -2.5895
  528SOL    HW3 1879   4.454   2.792   3.475 -0.6093  1.6329  0.0647
  528SOL    MW4 1880   4.385   2.739   3.472  0.1741  0.6220 -0.3938
  529SOL     OW 1881   0.675   4.839   1.475  0.3509  0.0794 -0.4053
  529SOL    HW2 1882   0.743   4.814   1.537  0.1271 -0.2512 -0.2926
  529SOL    HW3 1883   0.615   4.765   1.474 -0.5336  0.7500  0.2379
  529SOL    MW4 1884   0.676   4.826   1.483  0.2047  0.1242 -0.3056
  530SOL     OW 1885   4.888   0.916   0.898  0.3239 -0.0005  0.0218
  530SOL    HW2 1886   4.862   0.827   0.875  0.3730  0.3031 -1.2942
  530SOL    HW3 1887   4.809   0.957   0.933  0.1883 -0.4194  0.2085
  530SOL    MW4 1888   4.874   0.910   0.900  0.3124 -0.0157 -0.1272
  531SOL     OW 1889   5.223   5.889   5.102  0.3151  0.1716  0.5280
  531SOL    HW2 1890   5.315   5.885   5.127  0.8812  0.0069 -1.4020
  531SOL    HW3 1891   5.209   5.980   5.076 -0.0854  0.2110  0.8733
  531SOL    MW4 1892   5.233   5.900   5.102  0.3369  0.1551  0.3189
  532SOL     OW 1893   0.368   2.816   1.286  0.0988  0.1114  0.5833
  532SOL    HW2 1894   0.336   2.731   1.317 -1.5878  0.4638 -0.0412
  532SOL    HW3 1895   0.400   2.860   1.364  2.0276 -1.4820  0.7600
  532SOL    MW4 1896   0.368   2.811   1.300  0.1308 -0.0524  0.5242
  533SOL     OW 1897   4.671   3.419   3.365  1.0998  0.6131  0.2667
  533SOL    HW2 1898   4.626   3.499   3.392 -2.2016 -0.4994 -1.4852
  533SOL    HW3 1899   4.628   3.393   3.284  2.5595 -2.5596  0.3758
  533SOL    MW4 1900   4.660   3.426   3.358  0.8568  0.0477  0.0500
  534SOL     OW 1901   4.356   2.289   4.843 -0.0997  0.4001 -0.3036
  534SOL    HW2 1902   4.424   2.298   4.910  0.0080 -1.9514 -0.0064
  534SOL    HW3 1903   4.276   2.271   4.893 -0.4291  0.6482 -0.7398
  534SOL    MW4 1904   4.354   2.288   4.859 -0.1290  0.1226 -0.3219
  535SOL     OW 1905   1.930   1.513   4.198  0.0866 -0.8443 -0.0851
  535SOL    HW2 1906   1.982   1.562   4.262  0.5790 -1.6357  0.1424
  535SOL    HW3 1907   1.970   1.535   4.113 -0.8604  0.5658 -0.1848
  535SOL    MW4 1908   1.942   1.522   4.195  0.0266 -0.7627 -0.0683
  536SOL     OW 1909   0.315   4.888   3.830 -0.0621 -0.0426  0.1938
  536SOL    HW2 1910   0.250   4.842   3.885  1.1812 -2.3686 -0.1566
  536SOL    HW3 1911   0.334   4.826   3.759  1.4296  1.2065 -0.5441
  536SOL    MW4 1912   0.309   4.873   3.828  0.2987 -0.1847  0.0502
  537SOL     OW 1913   5.455   5.026   3.624 -0.2595  0.1926  0.3458
  537SOL    HW2 1914   5.542   5.024   3.663 -0.1510  0.9065  0.1592
  537SOL    HW3 1915   5.417   4.940   3.643  0.7139 -0.3501 -0.1004
  537SOL    MW4 1916   5.461   5.014   3.632 -0.1168  0.2152  0.2623
  538SOL     OW 1917   1.212   2.055   3.722  0.6236  0.4265  0.5438
  538SOL    HW2 1918   1.283   1.995   3.698  1.0445  0.7208  1.0408
  538SOL    HW3 1919   1.137   2.025   3.670  0.2418 -1.8062  2.1787
  538SOL    MW4 1920   1.211   2.043   3.712  0.6287  0.1708  0.8251
  539SOL     OW 1921   3.787   1.488   4.774 -0.0116 -0.3728 -0.4492
  539SOL    HW2 1922   3.791   1.441   4.691  0.1432  0.7959 -1.1212
  539SOL    HW3 1923   3.712   1.547   4.765 -0.8127 -1.1693  0.7602
  539SOL    MW4 1924   3.777   1.490   4.762 -0.0968 -0.3237 -0.3783
  540SOL     OW 1925   5.809   1.027   1.822 -0.1892 -0.0836  0.1988
  540SOL    HW2 1926   5.720   1.029   1.857 -0.5785  1.1325 -0.7820
  540SOL    HW3 1927   5.811   0.949   1.767 -0.3835 -0.5622  0.8519
  540SOL    MW4 1928   5.797   1.017   1.820 -0.2662  0.0137  0.1556
  541SOL     OW 1929   1.984   4.191   3.834  0.6494 -0.3530 -0.0429
  541SOL    HW2 1930   2.003   4.138   3.911  0.2719 -2.0451 -1.0550
  541SOL    HW3 1931   1.890   4.183   3.821  0.8913 -1.3087 -1.4823
  541SOL    MW4 1932   1.974   4.183   3.843  0.6315 -0.7023 -0.3663
  542SOL     OW 1933   2.603   0.802   5.603 -0.8455  0.1549 -0.3282
  542SOL    HW2 1934   2.569   0.883   5.565 -0.6785  0.7372  0.7239
  542SOL    HW3 1935   2.560   0.795   5.688  1.4951  0.8230  0.9860
  542SOL    MW4 1936   2.593   0.811   5.609 -0.5146  0.3199 -0.0160
  543SOL     OW 1937   1.098   4.489   6.145 -0.5643 -0.5303  0.6743
  543SOL    HW2 1938   1.138   4.402   6.151 -2.3369 -1.3512  1.3915
  543SOL    HW3 1939   1.150   4.543   6.204  1.7966 -0.5210 -1.2473
  543SOL    MW4 1940   1.110   4.485   6.154 -0.4867 -0.6374  0.5154
  544SOL     OW 1941   4.489   4.221   5.995  0.2884 -0.0655  0.4471
  544SOL    HW2 1942   4.479   4.150   6.059  1.6180  0.1180  0.8680
  544SOL    HW3 1943   4.411   4.213   5.939 -0.6500 -0.5356  1.7650
  544SOL    MW4 1944   4.477   4.210   5.996  0.3400 -0.1033  0.6765
  545SOL     OW 1945   0.298   1.592   5.595 -0.0392  0.1990 -0.1363
  545SOL    HW2 1946   0.233   1.622   5.532 -0.0637  0.0483 -0.1826
  545SOL    HW3 1947   0.318   1.669   5.648 -2.5102 -0.4005  1.8705
  545SOL    MW4 1948   0.292   1.606   5.594 -0.3684  0.1000  0.1224
  546SOL     OW 1949   3.745   4.568   5.679 -0.0958  0.3874 -0.3434
  546SOL    HW2 1950   3.668   4.517   5.655 -0.7568  1.0405  0.3442
  546SOL    HW3 1951   3.713   4.633   5.741  0.3050  2.8580 -2.5166
  546SOL    MW4 1952   3.731   4.570   5.684 -0.1301  0.7996 -0.5394
  547SOL     OW 1953   6.210   5.706   3.408  0.5102  0.6068  0.1262
  547SOL    HW2 1954   6.127   5.661   3.395 -0.4978  2.3337  0.3213
  547SOL    HW3 1955   6.224   5.756   3.328  2.7112 -1.5875 -1.0040
  547SOL    MW4 1956   6.201   5.707   3.396  0.6676  0.5451  0.0028
  548SOL     OW 1957   0.593   0.632   3.829 -0.0548  0.0397 -0.3510
  548SOL    HW2 1958   0.536   0.626   3.906 -0.2472  0.8411 -0.4222
  548SOL    HW3 1959   0.571   0.555   3.777 -0.7030  0.0662 -0.1255
  548SOL    MW4 1960   0.583   0.621   3.832 -0.1657  0.1490 -0.3306
  549SOL     OW 1961   4.435   2.833   0.885 -0.4976 -0.3206 -0.6237
  549SOL    HW2 1962   4.405   2.902   0.945  2.6135  0.2353  0.4749
  549SOL    HW3 1963   4.436   2.754   0.939  0.0345 -0.3155 -0.6236
  549SOL    MW4 1964   4.431   2.832   0.900 -0.0169 -0.2466 -0.4787
  550SOL     OW 1965   4.454   1.566   2.770  0.2638  0.1402 -0.2712
  550SOL    HW2 1966   4.454   1.489   2.713 -1.4804  0.9480 -1.4521
  550SOL    HW3 1967   4.538   1.562   2.815  0.6009 -1.9500 -0.9739
  550SOL    MW4 1968   4.465   1.555   2.768  0.0781 -0.0290 -0.5197
  551SOL     OW 1969   4.884   0.400   2.400  0.1608 -0.6643  0.4117
  551SOL    HW2 1970   4.867   0.315   2.360  0.8421 -0.4461 -0.3650
  551SOL    HW3 1971   4.816   0.409   2.466  1.2117 -2.6983  1.9012
  551SOL    MW4 1972   4.873   0.390   2.404  0.3894 -0.9038  0.5057
  552SOL     OW 1973   5.210   4.831   1.179 -0.0034 -0.2516 -0.4485
  552SOL    HW2 1974   5.158   4.911   1.170  0.2641  0.1530  1.3415
  552SOL    HW3 1975   5.189   4.798   1.265  1.0145 -1.3173 -0.5835
  552SOL    MW4 1976   5.200   4.838   1.189  0.1662 -0.3388 -0.2302
  553SOL     OW 1977   2.624   6.149   1.217 -0.3156 -0.0045 -0.2827
  553SOL    HW2 1978   2.716   6.172   1.230  0.0938 -1.5989 -0.1009
  553SOL    HW3 1979   2.617   6.133   1.122 -0.0890 -1.0165 -0.1461
  553SOL    MW4 1980   2.635   6.150   1.206 -0.2317 -0.3484 -0.2407
  554SOL     OW 1981   1.023   5.034   3.953 -0.0339  0.6247 -0.1525
  554SOL    HW2 1982   0.946   5.036   4.010  0.0159 -0.3184 -0.0341
  554SOL    HW3 1983   1.008   4.958   3.896 -0.3147  1.8195 -1.7494
  554SOL    MW4 1984   1.011   5.024   3.953 -0.0644  0.6579 -0.3476
  555SOL     OW 1985   4.881   2.361   2.371 -0.0793 -0.7835 -0.2781
  555SOL    HW2 1986   4.940   2.296   2.408  1.0362 -0.7068 -1.8192
  555SOL    HW3 1987   4.896   2.440   2.424  1.3771 -0.7121 -0.7495
  555SOL    MW4 1988   4.891   2.363   2.383  0.2601 -0.7640 -0.5436
  556SOL     OW 1989   2.964   5.672   5.531  0.3738  0.5662  0.4428
  556SOL    HW2 1990   2.887   5.614   5.527  0.0967  0.9823 -0.2769
  556SOL    HW3 1991   3.006   5.649   5.614  0.3399 -0.7625  0.1192
  556SOL    MW4 1992   2.959   5.661   5.542  0.3327  0.4458  0.3051
  557SOL     OW 1993   0.912   5.812   2.183  0.1866 -0.2722 -0.1294
  557SOL    HW2 1994   0.873   5.770   2.107 -0.4118 -0.7547  0.4322
  557SOL    HW3 1995   0.856   5.786   2.256  0.8950 -0.0282  0.5149
  557SOL    MW4 1996   0.900   5.803   2.183  0.2011 -0.3037  0.0297
  558SOL     OW 1997   1.978   4.307   0.268 -0.0972  0.2675 -0.1604
  558SOL    HW2 1998   2.056   4.271   0.226  0.0462  0.6662 -0.2318
  558SOL    HW3 1999   1.980   4.400   0.249 -0.7733  0.2282 -0.4512
  558SOL    MW4 2000   1.989   4.314   0.260 -0.1675  0.3149 -0.2082
  559SOL     OW 2001   1.901   4.824   4.884 -0.0268 -0.8899  0.1052
  559SOL    HW2 2002   1.822   4.870   4.858  0.5835 -0.3784 -0.9298
  559SOL    HW3 2003   1.888   4.734   4.854 -0.2514 -0.8266  0.0102
  559SOL    MW4 2004   1.889   4.819   4.877  0.0241 -0.8140 -0.0439
  560SOL     OW 2005   4.965   3.788   6.329  0.5742 -0.0512  0.4707
  560SOL    HW2 2006   5.042   3.732   6.342  0.6239  0.0515  0.6186
  560SOL    HW3 2007   5.001   3.873   6.305  0.4781 -0.6301 -1.9874
  560SOL    MW4 2008   4.980   3.791   6.327  0.5680 -0.1141  0.1659
  561SOL     OW 2009   0.662   5.320   3.938 -0.7177  0.3679  0.1699
  561SOL    HW2 2010   0.756   5.338   3.935 -0.3439 -0.3996  3.2029
  561SOL    HW3 2011   0.624   5.399   3.977 -0.8335 -0.4080  1.7344
  561SOL    MW4 2012   0.669   5.333   3.943 -0.6837  0.1642  0.7765
  562SOL     OW 2013   5.023   1.364   1.365  0.0402  0.5941  0.1695
  562SOL    HW2 2014   5.000   1.271   1.356  0.1783  0.6579 -0.9646
  562SOL    HW3 2015   5.114   1.368   1.337 -0.4004  1.2979 -1.2306
  562SOL    MW4 2016   5.032   1.352   1.360  0.0003  0.6954 -0.1648
  563SOL     OW 2017   0.788   2.285   1.316 -0.2303 -0.2587 -0.6290
  563SOL    HW2 2018   0.762   2.376   1.302  2.0554  0.8376  1.5134
  563SOL    HW3 2019   0.743   2.259   1.397  0.1344 -0.5682 -0.5180
  563SOL    MW4 2020   0.779   2.293   1.325  0.1194 -0.1549 -0.3317
  564SOL     OW 2021   1.818   2.121   3.139  0.4966 -0.0587 -0.0746
  564SOL    HW2 2022   1.868   2.042   3.156  1.1956  0.0658 -1.4067
  564SOL    HW3 2023   1.839   2.179   3.212  1.2346 -0.5093  0.0769
  564SOL    MW4 2024   1.827   2.118   3.151  0.6862 -0.1017 -0.2304
  565SOL     OW 2025   5.769   1.237   5.645 -0.3766  0.2408 -0.1614
  565SOL    HW2 2026   5.727   1.308   5.694  0.3035  0.6361 -0.1304
  565SOL    HW3 2027   5.707   1.216   5.575 -0.3165  1.3190 -0.5634
  565SOL    MW4 2028   5.755   1.244   5.642 -0.2789  0.4352 -0.2103
  566SOL     OW 2029   1.690   3.084   3.319  0.2909  0.6838 -0.1075
  566SOL    HW2 2030   1.766   3.055   3.370 -0.2192 -0.6721 -0.0619
  566SOL    HW3 2031   1.682   3.020   3.249 -0.9595  0.6451  0.0424
  566SOL    MW4 2032   1.699   3.072   3.317  0.0586  0.4998 -0.0817
  567SOL     OW 2033   1.862   4.778   3.260 -0.4298  0.7841 -0.0056
  567SOL    HW2 2034   1.860   4.715   3.188  0.3083 -0.3847  0.9570
  567SOL    HW3 2035   1.955   4.793   3.277 -0.5232 -0.3899  1.8657
  567SOL    MW4 2036   1.874   4.772   3.253 -0.3447  0.4750  0.3683
  568SOL     OW 2037   3.011   2.415   3.816 -0.1384  0.5300 -0.3699
  568SOL    HW2 2038   2.920   2.418   3.845 -0.0987  1.8800 -0.3369
  568SOL    HW3 2039   3.062   2.426   3.896  0.1231 -1.6481 -0.1734
  568SOL    MW4 2040   3.006   2.417   3.830 -0.0987  0.4208 -0.3397
  569SOL     OW 2041   5.865   2.297   3.914 -0.3461 -0.4941  0.5117
  569SOL    HW2 2042   5.884   2.391   3.906 -0.3011 -0.3612  1.8725
  569SOL    HW3 2043   5.951   2.256   3.923 -0.2879 -0.8307 -1.3363
  569SOL    MW4 2044   5.879   2.304   3.914 -0.3325 -0.5210  0.4474
  570SOL     OW 2045   1.393   0.755   6.167  0.5991  0.1199  0.3370
  570SOL    HW2 2046   1.307   0.734   6.203 -0.1045 -0.2477 -1.4628
  570SOL    HW3 2047   1.443   0.674   6.174  0.3492 -0.0504  0.1443
  570SOL    MW4 2048   1.388   0.742   6.173  0.4733  0.0489  0.0741
  571SOL     OW 2049   1.518   0.668   1.240  0.0084 -0.0109  0.2025
  571SOL    HW2 2050   1.527   0.712   1.155 -1.1694 -1.4414 -0.7096
  571SOL    HW3 2051   1.424   0.652   1.249  0.1195  0.0762  1.7784
  571SOL    MW4 2052   1.507   0.671   1.230 -0.1323 -0.1882  0.2901
  572SOL     OW 2053   2.898   1.173   2.442 -0.3417 -0.3620 -0.0062
  572SOL    HW2 2054   2.971   1.212   2.394 -0.7603 -0.8450 -1.0852
  572SOL    HW3 2055   2.872   1.239   2.505 -0.0684  0.4987 -0.7766
  572SOL    MW4 2056   2.904   1.186   2.444 -0.3609 -0.3122 -0.2502
  573SOL     OW 2057   4.403   0.702   1.148 -0.3662  0.5310 -0.4255
  573SOL    HW2 2058   4.421   0.728   1.239  1.1974 -0.4510 -0.4121
  573SOL    HW3 2059   4.428   0.779   1.096  1.1139  0.2706 -0.1626
  573SOL    MW4 2060   4.409   0.716   1.154  0.0354  0.3671 -0.3891
  574SOL     OW 2061   2.648   1.754   0.985 -0.1242 -0.4401 -0.2767
  574SOL    HW2 2062   2.665   1.828   0.927  0.3205 -0.1289  0.2376
  574SOL    HW3 2063   2.587   1.699   0.937 -1.2051  0.7253 -0.2940
  574SOL    MW4 2064   2.642   1.757   0.971 -0.2082 -0.2453 -0.2111
  575SOL     OW 2065   1.333   1.033   1.126 -0.0771  0.3629  0.4036
  575SOL    HW2 2066   1.301   1.006   1.040 -0.7627  0.9448  0.4582
  575SOL    HW3 2067   1.418   1.073   1.108 -0.6436  1.3749 -0.1598
  575SOL    MW4 2068   1.340   1.035   1.112 -0.2423  0.5732  0.3365
  576SOL     OW 2069   4.809   0.287   4.873  0.5304  0.4138  0.8895
  576SOL    HW2 2070   4.807   0.192   4.887 -0.6704  0.4643  1.1604
  576SOL    HW3 2071   4.888   0.315   4.918  0.9991 -0.4827  0.6557
  576SOL    MW4 2072   4.819   0.278   4.881  0.4338  0.3022  0.8944
  577SOL     OW 2073   1.337   1.541   4.140  0.4062  0.4344 -0.4016
  577SOL    HW2 2074   1.431   1.560   4.137  1.0418 -2.1812 -0.0084
  577SOL    HW3 2075   1.321   1.514   4.230 -0.3496 -0.6254 -0.8323
  577SOL    MW4 2076   1.347   1.540   4.151  0.3904 -0.0505 -0.4065
  578SOL     OW 2077   5.149   2.654   3.060 -0.1041 -0.1184  0.0498
  578SOL    HW2 2078   5.062   2.664   3.021  0.5045  0.5386 -1.1973
  578SOL    HW3 2079   5.137   2.680   3.152 -0.9002  1.5556 -0.4835
  578SOL    MW4 2080   5.136   2.659   3.067 -0.1288  0.1891 -0.1851
  579SOL     OW 2081   1.278   4.636   1.777  0.5442 -0.2407 -0.1305
  579SOL    HW2 2082   1.299   4.650   1.870 -0.9306 -1.0013  0.3534
  579SOL    HW3 2083   1.299   4.545   1.761  0.0785 -0.3158 -0.3282
  579SOL    MW4 2084   1.284   4.626   1.787  0.2882 -0.3510 -0.0928
  580SOL     OW 2085   3.375   1.839   0.647  0.7937  0.2654 -0.3227
  580SOL    HW2 2086   3.368   1.824   0.742 -0.1175 -1.0600 -0.5775
  580SOL    HW3 2087   3.291   1.808   0.612  0.8209  1.4322 -1.4916
  580SOL    MW4 2088   3.363   1.833   0.655  0.6771  0.2445 -0.5105
  581SOL     OW 2089   0.458   5.452   0.837 -0.2251 -0.1138  0.0930
  581SOL    HW2 2090   0.382   5.462   0.779  0.2355 -1.8325 -0.8787
  581SOL    HW3 2091   0.518   5.522   0.811 -0.5735 -0.0632 -0.6004
  581SOL    MW4 2092   0.456   5.463   0.826 -0.2103 -0.3338 -0.1267
  582SOL     OW 2093   5.462   1.855   1.908 -0.3811  0.0782  0.7887
  582SOL    HW2 2094   5.510   1.908   1.844 -0.5592 -0.6566  0.0404
  582SOL    HW3 2095   5.370   1.871   1.889 -0.4566 -1.5792 -0.3787
  582SOL    MW4 2096   5.456   1.864   1.897 -0.4146 -0.2374  0.5360
  583SOL     OW 2097   4.801   4.189   4.449  0.3420  0.4543  0.1192
  583SOL    HW2 2098   4.892   4.164   4.463  0.3054 -0.7690 -1.5580
  583SOL    HW3 2099   4.803   4.255   4.380 -0.1128 -0.7551 -1.0964
  583SOL    MW4 2100   4.813   4.194   4.442  0.2772  0.1333 -0.2625
  584SOL     OW 2101   4.475   4.399   4.241  0.4064  1.0693 -0.0613
  584SOL    HW2 2102   4.475   4.495   4.237 -0.0427  1.0734 -0.0153
  584SOL    HW3 2103   4.393   4.377   4.285  1.0213  0.6955  0.9201
  584SOL    MW4 2104   4.464   4.409   4.246  0.4283  1.0205  0.0743
  585SOL     OW 2105   1.069   0.330   3.249 -0.0344  0.4855  0.3432
  585SOL    HW2 2106   1.027   0.244   3.240  0.3699  0.3268 -0.0844
  585SOL    HW3 2107   1.003   0.392   3.217 -0.3530  0.3428  0.7178
  585SOL    MW4 2108   1.055   0.327   3.244 -0.0231  0.4457  0.3362
  586SOL     OW 2109   0.862   0.166   2.973 -0.0890 -0.1717  0.2387
  586SOL    HW2 2110   0.884   0.239   2.915 -0.1310  2.7723  3.5592
  586SOL    HW3 2111   0.779   0.132   2.939 -0.1343  1.3891 -1.3767
  586SOL    MW4 2112   0.854   0.172   2.961 -0.1005  0.4226  0.4637
  587SOL     OW 2113   2.920   1.707   2.046  0.2601 -0.0019 -0.0756
  587SOL    HW2 2114   2.831   1.676   2.060  0.8712 -1.2363  1.3086
  587SOL    HW3 2115   2.909   1.792   2.003 -1.5541 -0.3639 -0.4148
  587SOL    MW4 2116   2.907   1.714   2.042  0.1014 -0.2126  0.0623
  588SOL     OW 2117   4.117   3.503   5.075 -0.2213 -0.2095 -0.4028
  588SOL    HW2 2118   4.205   3.520   5.042  0.1185  1.5051  1.2077
  588SOL    HW3 2119   4.060   3.554   5.017  0.0210  0.0923 -0.3803
  588SOL    MW4 2120   4.121   3.512   5.063 -0.1445  0.0565 -0.1873
  589SOL     OW 2121   1.133   3.979   5.522 -0.2798 -0.3436 -0.0872
  589SOL    HW2 2122   1.067   3.914   5.547 -1.3568 -0.0894 -2.0469
  589SOL    HW3 2123   1.206   3.927   5.488  0.4544 -0.6131  1.7768
  589SOL    MW4 2124   1.133   3.963   5.521 -0.3251 -0.3456 -0.0998
  590SOL     OW 2125   0.996   0.660   2.682 -0.2295 -0.3066 -0.0967
  590SOL    HW2 2126   0.901   0.671   2.683 -0.1606  0.6141 -1.3548
  590SOL    HW3 2127   1.028   0.718   2.751 -0.5440 -0.1611 -0.0723
  590SOL    MW4 2128   0.988   0.669   2.692 -0.2619 -0.1659 -0.2595
  591SOL     OW 2129   4.441   0.134   4.823  0.0758  0.3052 -0.4291
  591SOL    HW2 2130   4.388   0.062   4.857  0.2928 -0.0706 -0.8738
  591SOL    HW3 2131   4.504   0.092   4.765  0.5297  0.8038 -0.3058
  591SOL    MW4 2132   4.442   0.119   4.820  0.1643  0.3214 -0.4715
  592SOL     OW 2133   1.425   5.488   4.618 -0.7450 -0.3711 -0.2737
  592SOL    HW2 2134   1.456   5.403   4.585 -0.5964 -1.2694  2.0059
  592SOL    HW3 2135   1.470   5.499   4.701 -2.4689  0.8761  0.5483
  592SOL    MW4 2136   1.435   5.478   4.624 -0.9528 -0.3250  0.1355
  593SOL     OW 2137   0.903   1.579   0.293 -0.1540 -0.2425 -0.2806
  593SOL    HW2 2138   0.809   1.572   0.274 -0.1448  0.4594 -0.6136
  593SOL    HW3 2139   0.932   1.489   0.305 -0.8248 -0.4798 -0.4099
  593SOL    MW4 2140   0.894   1.566   0.292 -0.2413 -0.1812 -0.3416
  594SOL     OW 2141   5.856   0.693   4.869  0.6420  0.5207 -0.2008
  594SOL    HW2 2142   5.921   0.632   4.834  2.6219  1.2136  2.0127
  594SOL    HW3 2143   5.880   0.778   4.832  0.2052  0.5719 -0.3719
  594SOL    MW4 2144   5.868   0.696   4.860  0.8456  0.6188  0.0687
  595SOL     OW 2145   1.321   4.738   3.868  0.0595 -0.5160 -0.2899
  595SOL    HW2 2146   1.258   4.706   3.931  0.0375  1.0483  0.5233
  595SOL    HW3 2147   1.307   4.684   3.790 -1.6959 -0.7338  0.1503
  595SOL    MW4 2148   1.311   4.727   3.866 -0.1750 -0.3384 -0.1245
  596SOL     OW 2149   6.121   5.627   0.778  0.4835 -0.8014  0.7214
  596SOL    HW2 2150   6.127   5.538   0.744 -1.9332 -1.4793  1.8234
  596SOL    HW3 2151   6.052   5.622   0.845  0.3604  1.8793  0.8937
  596SOL    MW4 2152   6.113   5.614   0.783  0.1484 -0.5372  0.8895
  597SOL     OW 2153   5.544   0.684   3.833  0.6498 -0.0099 -0.0618
  597SOL    HW2 2154   5.566   0.757   3.891  0.9204 -0.3349  0.2439
  597SOL    HW3 2155   5.621   0.627   3.836  0.0015 -0.8682  0.5631
  597SOL    MW4 2156   5.557   0.686   3.841  0.6000 -0.1660  0.0610
  598SOL     OW 2157   2.547   6.312   4.417  0.5715  0.0216  0.0979
  598SOL    HW2 2158   2.458   6.314   4.451  0.2807  0.7320 -0.6741
  598SOL    HW3 2159   2.537   6.283   4.326  1.1537 -0.1363  0.0805
  598SOL    MW4 2160   2.534   6.308   4.409  0.6099  0.0945 -0.0062
  599SOL     OW 2161   1.909   5.091   2.270 -0.4158 -0.1636  0.4363
  599SOL    HW2 2162   1.904   5.131   2.183 -1.0881 -2.3877 -0.6295
  599SOL    HW3 2163   1.994   5.047   2.271  0.1959  0.9849  1.4745
  599SOL    MW4 2164   1.920   5.090   2.259 -0.4238 -0.3055  0.4326
  600SOL     OW 2165   1.483   3.915   5.265 -0.0532 -0.3392 -0.0684
  600SOL    HW2 2166   1.477   3.884   5.175  2.1400  0.9607 -0.7471
  600SOL    HW3 2167   1.447   4.004   5.262  1.5534  0.3377 -0.0704
  600SOL    MW4 2168   1.477   3.923   5.252  0.4481 -0.0784 -0.1582
  601SOL     OW 2169   5.970   6.009   0.076 -0.4550  0.3660  0.6832
  601SOL    HW2 2170   5.990   5.932   0.024  0.1259 -0.7384  2.4712
  601SOL    HW3 2171   6.023   6.079   0.036  0.7919 -0.6806  0.4427
  601SOL    MW4 2172   5.980   6.008   0.064 -0.2138  0.0822  0.8874
  602SOL     OW 2173   3.957   4.418   1.849 -0.6930  0.6446 -0.5825
  602SOL    HW2 2174   3.989   4.507   1.837 -1.4048  1.1362  0.9602
  602SOL    HW3 2175   3.961   4.379   1.761  1.4410  1.5488 -0.9416
  602SOL    MW4 2176   3.962   4.424   1.836 -0.5054  0.8287 -0.4263
  603SOL     OW 2177   2.340   1.821   5.860  0.3783 -0.0550  0.1506
  603SOL    HW2 2178   2.282   1.883   5.904 -0.9984 -0.5511 -0.8810
  603SOL    HW3 2179   2.342   1.745   5.918 -1.4285 -0.7093 -0.5593
  603SOL    MW4 2180   2.333   1.819   5.873 -0.0417 -0.2068 -0.0792
  604SOL     OW 2181   1.263   2.966   2.819  0.0655  0.3146 -0.6385
  604SOL    HW2 2182   1.169   2.977   2.834 -0.5341 -1.1981 -2.8296
  604SOL    HW3 2183   1.276   2.992   2.728  1.7299  0.1494 -0.4791
  604SOL    MW4 2184   1.252   2.971   2.809  0.2060  0.0932 -0.9066
  605SOL     OW 2185   6.229   6.344   0.962  0.0426  0.3221  0.0888
  605SOL    HW2 2186   6.296   6.411   0.945  0.6081  0.5051  2.6569
  605SOL    HW3 2187   6.155   6.394   0.998  0.8227 -0.3946  2.9578
  605SOL    MW4 2188   6.228   6.360   0.965  0.2202  0.2517  0.8061
  606SOL     OW 2189   2.710   3.543   5.283  1.0580 -0.1785 -0.2198
  606SOL    HW2 2190   2.662   3.560   5.364 -0.9510  2.1002 -1.7465
  606SOL    HW3 2191   2.802   3.542   5.309  0.4402 -0.3925  2.1815
  606SOL    MW4 2192   2.716   3.545   5.297  0.7115  0.0939 -0.1044
  607SOL     OW 2193   4.804   5.441   2.714  0.2895 -0.6510  0.7321
  607SOL    HW2 2194   4.736   5.499   2.749  0.1967 -0.9524  1.0505
  607SOL    HW3 2195   4.762   5.394   2.642  0.3275 -0.4243  0.5596
  607SOL    MW4 2196   4.790   5.443   2.709  0.2823 -0.6609  0.7514
  608SOL     OW 2197   2.518   2.615   2.049 -0.3759 -0.3066  0.8207
  608SOL    HW2 2198   2.598   2.616   2.101  1.3955 -0.5801 -1.7075
  608SOL    HW3 2199   2.531   2.544   1.986  0.5342  3.5949 -4.0273
  608SOL    MW4 2200   2.530   2.606   2.048 -0.0221  0.1720 -0.1525
  609SOL     OW 2201   4.708   5.697   2.508  0.3810  0.5926  0.3214
  609SOL    HW2 2202   4.698   5.787   2.539  0.6895  0.5989  0.4096
  609SOL    HW3 2203   4.645   5.647   2.560 -1.3868  1.0809 -1.2502
  609SOL    MW4 2204   4.698   5.703   2.519  0.1884  0.6578  0.1257
  610SOL     OW 2205   4.640   1.714   5.253  0.1269  0.4178 -0.6842
  610SOL    HW2 2206   4.638   1.787   5.314  2.2409  1.1052 -1.3622
  610SOL    HW3 2207   4.562   1.663   5.274 -0.6661  2.1205  0.7107
  610SOL    MW4 2208   4.630   1.717   5.264  0.3012  0.7332 -0.5896
  611SOL     OW 2209   1.461   3.900   2.208  0.0102  0.4830 -0.0863
  611SOL    HW2 2210   1.400   3.970   2.185  0.9479  1.0521 -0.8819
  611SOL    HW3 2211   1.489   3.864   2.124 -1.8680 -2.1455  0.2846
  611SOL    MW4 2212   1.457   3.905   2.194 -0.1139  0.2113 -0.1423
  612SOL     OW 2213   0.067   1.684   1.264  0.2787  0.4849 -0.4941
  612SOL    HW2 2214  -0.016   1.639   1.284 -0.1367  0.7390 -1.5455
  612SOL    HW3 2215   0.042   1.752   1.201  1.4590 -0.2378 -1.8060
  612SOL    MW4 2216   0.053   1.687   1.258  0.3796  0.4231 -0.8060
  613SOL     OW 2217   1.135   2.082   2.396  0.0302  0.7776 -0.7031
  613SOL    HW2 2218   1.214   2.118   2.438  0.5819 -0.9947 -0.1553
  613SOL    HW3 2219   1.160   2.072   2.304 -0.2993  2.2153 -0.9690
  613SOL    MW4 2220   1.149   2.086   2.390  0.0595  0.7335 -0.6659
  614SOL     OW 2221   1.706   6.107   4.138  0.5893  0.2717 -0.2625
  614SOL    HW2 2222   1.787   6.059   4.121  1.4041  1.3596  0.3524
  614SOL    HW3 2223   1.682   6.083   4.227 -0.6263 -1.2050 -0.9537
  614SOL    MW4 2224   1.714   6.098   4.148  0.5364  0.2204 -0.2725
  615SOL     OW 2225   6.133   2.725   5.821  0.2169  0.6544 -0.5256
  615SOL    HW2 2226   6.063   2.785   5.796  0.4693  0.2909 -2.2128
  615SOL    HW3 2227   6.140   2.664   5.748  1.5589  0.0203  0.0963
  615SOL    MW4 2228   6.125   2.725   5.808  0.4272  0.5228 -0.6662
  616SOL     OW 2229   6.407   1.241   3.267  0.0420 -0.0219 -0.0734
  616SOL    HW2 2230   6.394   1.311   3.203 -0.9574 -0.6019 -0.5394
  616SOL    HW3 2231   6.502   1.232   3.275  0.1745  0.5206 -0.9590
  616SOL    MW4 2232   6.418   1.249   3.260 -0.0724 -0.0268 -0.2517
  617SOL     OW 2233   4.111   1.279   6.315  0.3249 -0.6687  0.2969
  617SOL    HW2 2234   4.044   1.224   6.276  0.9284 -1.7252  0.7165
  617SOL    HW3 2235   4.069   1.365   6.326 -0.8642 -1.2427  0.3315
  617SOL    MW4 2236   4.097   1.283   6.311  0.2477 -0.8838  0.3568
  618SOL     OW 2237   3.761   0.553   2.853  0.4087  0.3832 -0.1378
  618SOL    HW2 2238   3.697   0.624   2.847  1.5877  1.4870 -0.3271
  618SOL    HW3 2239   3.804   0.552   2.768  2.2267  1.2904  0.6964
  618SOL    MW4 2240   3.758   0.562   2.841  0.8041  0.6485 -0.0527
  619SOL     OW 2241   3.469   0.111   0.702 -0.5405 -1.2312 -0.4839
  619SOL    HW2 2242   3.514   0.046   0.757  2.0312  0.0012 -0.9758
  619SOL    HW3 2243   3.423   0.058   0.637 -3.3162 -2.7231  2.3794
  619SOL    MW4 2244   3.469   0.095   0.701 -0.5674 -1.2654 -0.1710
  620SOL     OW 2245   3.719   0.887   1.752  0.4007  0.0457  0.1313
  620SOL    HW2 2246   3.649   0.851   1.807  0.3664 -0.2364 -0.0867
  620SOL    HW3 2247   3.737   0.973   1.788 -1.5785  1.0513 -1.1104
  620SOL    MW4 2248   3.712   0.893   1.764  0.1350  0.1412 -0.0613
  621SOL     OW 2249   3.598   5.297   1.974 -0.4114  0.3791  0.6739
  621SOL    HW2 2250   3.579   5.284   1.881  0.8706  0.8477  0.3348
  621SOL    HW3 2251   3.585   5.391   1.988 -0.9226  0.2571  1.0536
  621SOL    MW4 2252   3.593   5.308   1.964 -0.3097  0.4249  0.6792
  622SOL     OW 2253   4.370   4.144   3.478  0.0774  0.0330 -0.1653
  622SOL    HW2 2254   4.342   4.224   3.433  1.8142 -0.2989 -1.9725
  622SOL    HW3 2255   4.460   4.131   3.449  0.1284 -2.0977  0.8188
  622SOL    MW4 2256   4.378   4.153   3.468  0.3133 -0.2919 -0.2739
  623SOL     OW 2257   3.923   5.931   4.089 -0.2793 -0.1226 -0.0676
  623SOL    HW2 2258   3.856   5.917   4.024  0.1055 -1.8107 -0.1358
  623SOL    HW3 2259   3.949   6.023   4.077 -0.3882 -0.3138 -2.1016
  623SOL    MW4 2260   3.918   5.941   4.079 -0.2429 -0.3706 -0.3450
  624SOL     OW 2261   4.237   5.954   3.807  0.1513 -0.2074  0.4586
  624SOL    HW2 2262   4.208   5.904   3.883 -2.2287  1.6191  0.8882
  624SOL    HW3 2263   4.225   5.895   3.733 -0.6063 -0.9592  1.1602
  624SOL    MW4 2264   4.231   5.940   3.808 -0.2626 -0.0656  0.6078
  625SOL     OW 2265   4.144   2.148   5.038  0.2949  0.6036  0.2668
  625SOL    HW2 2266   4.212   2.084   5.057 -0.2639 -0.1070 -0.0770
  625SOL    HW3 2267   4.064   2.111   5.075  0.0974  1.4784  0.7653
  625SOL    MW4 2268   4.142   2.135   5.045  0.1951  0.6253  0.2872
  626SOL     OW 2269   4.918   5.853   2.873 -0.2253 -0.7599 -0.2837
  626SOL    HW2 2270   4.956   5.831   2.788  2.3457  1.6135  0.1126
  626SOL    HW3 2271   4.979   5.816   2.937 -1.0521 -0.7914  0.5151
  626SOL    MW4 2272   4.931   5.845   2.870  0.0048 -0.4509 -0.1260
  627SOL     OW 2273   4.395   0.283   1.117  0.1455  0.0261 -0.6299
  627SOL    HW2 2274   4.312   0.299   1.072 -0.4136 -0.0549  0.3329
  627SOL    HW3 2275   4.413   0.365   1.164 -0.2312 -0.4699  0.4309
  627SOL    MW4 2276   4.386   0.296   1.118  0.0221 -0.0500 -0.3629
  628SOL     OW 2277   3.314   2.523   5.622  0.2236 -0.2671  0.0259
  628SOL    HW2 2278   3.362   2.584   5.678  0.4081  0.2038 -0.6297
  628SOL    HW3 2279   3.338   2.436   5.655 -0.4830  0.0053  1.3431
  628SOL    MW4 2280   3.323   2.520   5.634  0.1547 -0.1690  0.1132
  629SOL     OW 2281   0.609   6.067   6.364  0.0738  0.1569 -0.3336
  629SOL    HW2 2282   0.660   6.065   6.283  0.0969  1.7579 -0.3858
  629SOL    HW3 2283   0.673   6.078   6.433 -0.1402  1.7475 -0.3643
  629SOL    MW4 2284   0.624   6.068   6.362  0.0487  0.5780 -0.3445
  630SOL     OW 2285   0.900   5.508   0.886 -0.4825 -0.2787  0.1897
  630SOL    HW2 2286   0.872   5.570   0.953 -0.8197 -1.2186  0.9291
  630SOL    HW3 2287   0.922   5.563   0.810 -0.0679  0.7973  1.0686
  630SOL    MW4 2288   0.900   5.523   0.885 -0.4723 -0.2607  0.4032
  631SOL     OW 2289   4.890   5.107   5.463 -0.3016 -0.1794 -0.2932
  631SOL    HW2 2290   4.822   5.090   5.528  0.1737  1.6541  0.7806
  631SOL    HW3 2291   4.971   5.110   5.514  0.3175 -0.3691 -1.2453
  631SOL    MW4 2292   4.892   5.105   5.479 -0.1572  0.0375 -0.2771
  632SOL     OW 2293   2.155   4.208   3.091  0.1398 -0.7133  0.4634
  632SOL    HW2 2294   2.077   4.222   3.037 -0.3763 -0.4037  1.2652
  632SOL    HW3 2295   2.128   4.234   3.179  1.1890 -0.4945  0.7337
  632SOL    MW4 2296   2.141   4.213   3.095  0.2102 -0.6436  0.6048
  633SOL     OW 2297   5.805   1.633   0.474 -0.0402 -0.3482  0.1938
  633SOL    HW2 2298   5.899   1.616   0.471  0.4842  2.1588  0.0199
  633SOL    HW3 2299   5.771   1.595   0.394  1.3302  1.0307 -1.1221
  633SOL    MW4 2300   5.813   1.626   0.463  0.2098  0.1645 -0.0028
  634SOL     OW 2301   2.569   0.446   0.905 -0.3079 -0.2495 -0.2865
  634SOL    HW2 2302   2.502   0.494   0.954  1.9074  2.6768  0.1978
  634SOL    HW3 2303   2.575   0.361   0.950 -1.1828  0.7960  1.9876
  634SOL    MW4 2304   2.561   0.441   0.918 -0.1311  0.2745  0.0774
  635SOL     OW 2305   1.172   4.649   5.592 -0.2442  0.0931 -0.1555
  635SOL    HW2 2306   1.106   4.579   5.590 -1.4159  1.1587 -0.3828
  635SOL    HW3 2307   1.171   4.679   5.683 -0.9038  0.8544 -0.4069
  635SOL    MW4 2308   1.163   4.643   5.604 -0.4858  0.3341 -0.2187
  636SOL     OW 2309   3.167   3.804   5.388  0.4447 -0.6082 -0.0204
  636SOL    HW2 2310   3.156   3.782   5.481  1.9381 -0.3502  0.2456
  636SOL    HW3 2311   3.258   3.832   5.381 -0.0265  0.7020 -1.3147
  636SOL    MW4 2312   3.178   3.805   5.400  0.5796 -0.4013 -0.1561
  637SOL     OW 2313   2.437   6.416   4.696 -0.1207 -0.6390  0.1197
  637SOL    HW2 2314   2.430   6.365   4.776  0.7645 -1.2520 -0.1640
  637SOL    HW3 2315   2.494   6.489   4.718  1.3179 -1.5917 -0.2786
  637SOL    MW4 2316   2.444   6.419   4.709  0.1859 -0.8456  0.0297
  638SOL     OW 2317   2.100   2.025   4.713 -0.0008 -0.4663  0.3274
  638SOL    HW2 2318   2.087   2.120   4.712  2.2220 -0.0515 -2.6517
  638SOL    HW3 2319   2.157   2.010   4.789  1.2154  0.9123 -0.2667
  638SOL    MW4 2320   2.106   2.036   4.723  0.4529 -0.2297 -0.1440
  639SOL     OW 2321   6.047   1.240   3.927  0.2708 -0.3765 -0.3364
  639SOL    HW2 2322   6.078   1.330   3.932 -2.2634  0.5907 -0.0850
  639SOL    HW3 2323   6.092   1.203   3.851  1.9879  0.8054  0.0438
  639SOL    MW4 2324   6.057   1.247   3.918  0.1630 -0.0930 -0.2531
  640SOL     OW 2325   4.966   0.079   6.367 -0.0811  0.5331 -0.6026
  640SOL    HW2 2326   4.985   0.074   6.274  0.6118  0.9759 -0.4910
  640SOL    HW3 2327   4.889   0.024   6.379  1.7744 -2.3087 -0.8533
  640SOL    MW4 2328   4.958   0.071   6.357  0.2551  0.2166 -0.6209
  641SOL     OW 2329   5.517   1.193   4.335  0.1384  0.2567 -0.2217
  641SOL    HW2 2330   5.609   1.174   4.318  0.0827  1.2449 -1.8057
  641SOL    HW3 2331   5.513   1.289   4.339 -0.9935  0.2746 -1.3427
  641SOL    MW4 2332   5.529   1.203   4.334 -0.0183  0.3894 -0.5786
  642SOL     OW 2333   5.074   4.559   4.119 -0.4415 -0.4251 -0.3534
  642SOL    HW2 2334   5.116   4.488   4.167  1.1634  0.2368 -0.6935
  642SOL    HW3 2335   5.079   4.635   4.178 -0.1462 -0.0678 -0.8265
  642SOL    MW4 2336   5.080   4.560   4.133 -0.1908 -0.2906 -0.4607
  643SOL     OW 2337   5.358   2.724   3.876 -0.1849  0.0420 -0.3961
  643SOL    HW2 2338   5.303   2.757   3.805 -0.7493  1.6454  0.7329
  643SOL    HW3 2339   5.372   2.800   3.933  0.3607 -1.1614  1.1410
  643SOL    MW4 2340   5.353   2.738   3.874 -0.1874  0.0948 -0.0443
  644SOL     OW 2341   2.436   5.863   1.933  0.7796  0.0555 -0.2877
  644SOL    HW2 2342   2.408   5.912   1.856 -0.0233  0.4579  0.2389
  644SOL    HW3 2343   2.516   5.906   1.962  0.9797  0.0208 -0.7809
  644SOL    MW4 2344   2.443   5.875   1.927  0.7001  0.1040 -0.2833
  645SOL     OW 2345   5.393   3.000   3.600  0.2417 -0.2534  0.2111
  645SOL    HW2 2346   5.414   2.974   3.510 -0.0560 -0.2963  0.1526
  645SOL    HW3 2347   5.318   2.946   3.623 -0.6129  0.7881 -0.0341
  645SOL    MW4 2348   5.386   2.989   3.591  0.0897 -0.1216  0.1710
  646SOL     OW 2349   4.108   3.080   2.744 -0.6183 -0.5212 -0.2481
  646SOL    HW2 2350   4.177   3.014   2.733  1.3881  1.8062 -3.3504
  646SOL    HW3 2351   4.034   3.046   2.693  0.4350 -0.4250 -1.9136
  646SOL    MW4 2352   4.107   3.067   2.735 -0.2146 -0.2014 -0.8771
  647SOL     OW 2353   0.251   1.769   4.300  0.3167  0.3103 -0.1738
  647SOL    HW2 2354   0.277   1.830   4.232  0.4285 -0.1742 -0.5688
  647SOL    HW3 2355   0.173   1.808   4.340 -0.3310  0.1204 -1.2253
  647SOL    MW4 2356   0.244   1.782   4.297  0.2460  0.2213 -0.3647
  648SOL     OW 2357   6.222   3.622   3.195  0.1210  0.0387 -0.6279
  648SOL    HW2 2358   6.274   3.691   3.155 -0.1642  0.5977 -0.0514
  648SOL    HW3 2359   6.278   3.545   3.192  1.2423  0.7660  0.5070
  648SOL    MW4 2360   6.236   3.621   3.189  0.2313  0.2084 -0.4021
  649SOL     OW 2361   0.013   4.428   1.098 -0.0095  0.1254 -0.1518
  649SOL    HW2 2362   0.038   4.478   1.175  1.0592  0.4961 -0.7124
  649SOL    HW3 2363   0.086   4.440   1.037  0.4499 -2.3251 -0.2140
  649SOL    MW4 2364   0.026   4.436   1.100  0.1921 -0.1490 -0.2340
  650SOL     OW 2365   1.150   2.493   5.264 -0.2998 -0.5167 -0.5640
  650SOL    HW2 2366   1.104   2.458   5.188  1.2648 -0.9803 -1.3336
  650SOL    HW3 2367   1.161   2.418   5.322  1.6626 -1.0206 -1.5136
  650SOL    MW4 2368   1.145   2.478   5.262  0.1655 -0.6443 -0.7908
  651SOL     OW 2369   5.824   1.853   4.111  0.3503 -0.0651 -0.3110
  651SOL    HW2 2370   5.756   1.904   4.069  0.2205  1.3233  1.4798
  651SOL    HW3 2371   5.906   1.890   4.079  0.4188 -2.2732 -3.1222
  651SOL    MW4 2372   5.826   1.864   4.101  0.3422 -0.1732 -0.4456
  652SOL     OW 2373   2.722   6.373   1.478  0.4840  0.4023 -0.6086
  652SOL    HW2 2374   2.790   6.378   1.546  0.3835 -0.1572 -0.4562
  652SOL    HW3 2375   2.652   6.322   1.519  0.2189  0.4724 -0.9698
  652SOL    MW4 2376   2.722   6.367   1.493  0.4357  0.3378 -0.6361
  653SOL     OW 2377   1.089   1.269   2.939  0.6664  0.0009  0.1628
  653SOL    HW2 2378   1.040   1.199   2.895 -0.2909  1.3550 -1.0035
  653SOL    HW3 2379   1.112   1.232   3.024 -2.2922 -0.7693  0.7455
  653SOL    MW4 2380   1.085   1.255   2.944  0.1498  0.0779  0.0858
  654SOL     OW 2381   1.953   5.678   3.066 -0.1067 -0.0539  0.0309
  654SOL    HW2 2382   1.936   5.697   2.974  1.8881  0.2070 -0.3144
  654SOL    HW3 2383   2.042   5.708   3.081 -0.7780  0.9736  2.3715
  654SOL    MW4 2384   1.962   5.684   3.056  0.0679  0.1161  0.2942
  655SOL     OW 2385   3.568   1.004   6.132  0.0771  0.4379  0.0353
  655SOL    HW2 2386   3.588   1.082   6.184 -1.7485  0.0809  1.3480
  655SOL    HW3 2387   3.490   1.027   6.082  0.2346 -0.1539 -0.5063
  655SOL    MW4 2388   3.561   1.017   6.132 -0.1430  0.3127  0.1370
  656SOL     OW 2389   5.527   0.524   0.731 -0.0087  0.0473  0.1862
  656SOL    HW2 2390   5.561   0.460   0.669 -0.1489  0.5577 -0.4294
  656SOL    HW3 2391   5.605   0.571   0.762 -0.1370  1.5719 -1.6223
  656SOL    MW4 2392   5.542   0.522   0.727 -0.0441  0.3158 -0.1336
  657SOL     OW 2393   2.048   4.102   4.945 -0.2088  0.0472 -0.0691
  657SOL    HW2 2394   2.133   4.068   4.916 -1.1832 -2.1765 -0.5287
  657SOL    HW3 2395   2.050   4.195   4.920  1.3393 -0.3925 -1.8185
  657SOL    MW4 2396   2.059   4.110   4.938 -0.1331 -0.3042 -0.3606
  658SOL     OW 2397   1.938   1.287   4.332  0.4379  0.1503 -0.0613
  658SOL    HW2 2398   1.924   1.368   4.283 -1.1272 -0.7651 -1.2095
  658SOL    HW3 2399   1.887   1.297   4.412  0.4100  0.3686 -0.1077
  658SOL    MW4 2400   1.930   1.299   4.336  0.2278  0.0583 -0.2189
  659SOL     OW 2401   4.534   4.985   5.167 -0.0971  0.5290  0.0450
  659SOL    HW2 2402   4.473   5.057   5.182  2.0248  2.4060  0.1305
  659SOL    HW3 2403   4.526   4.931   5.245 -1.9574  0.4219 -0.1621
  659SOL    MW4 2404   4.525   4.987   5.179 -0.0626  0.7625  0.0290
  660SOL     OW 2405   5.379   6.171   5.309  0.4096  0.2650  0.2253
  660SOL    HW2 2406   5.455   6.119   5.282  0.6357  0.4710  0.4697
  660SOL    HW3 2407   5.395   6.192   5.401  0.6223  1.2966 -0.0391
  660SOL    MW4 2408   5.391   6.167   5.317  0.4675  0.4283  0.2226
  661SOL     OW 2409   5.121   3.192   5.305 -0.2993  0.1992 -0.0695
  661SOL    HW2 2410   5.045   3.134   5.300 -1.5886  1.4908  2.2912
  661SOL    HW3 2411   5.186   3.153   5.247 -2.5432 -1.2903 -1.7403
  661SOL    MW4 2412   5.119   3.179   5.297 -0.7654  0.1731  0.0215
  662SOL     OW 2413   5.133   6.253   0.675  0.2924 -0.4073 -0.0432
  662SOL    HW2 2414   5.110   6.284   0.762  0.7766  0.9681 -0.3831
  662SOL    HW3 2415   5.117   6.327   0.617  1.7944 -0.6501 -0.8384
  662SOL    MW4 2416   5.128   6.267   0.679  0.5544 -0.2579 -0.1929
  663SOL     OW 2417   0.939   5.468   4.573 -0.1257 -0.2570  0.0679
  663SOL    HW2 2418   0.919   5.551   4.530 -0.3892 -0.0105  0.6473
  663SOL    HW3 2419   0.857   5.442   4.613  0.1280 -0.4459  0.4725
  663SOL    MW4 2420   0.926   5.476   4.573 -0.1270 -0.2494  0.1977
  664SOL     OW 2421   4.879   3.383   4.538  0.4019  0.1331 -0.2154
  664SOL    HW2 2422   4.972   3.384   4.559  0.1716  0.7205  0.8478
  664SOL    HW3 2423   4.838   3.437   4.605 -0.7692 -0.4965 -0.3891
  664SOL    MW4 2424   4.886   3.390   4.549  0.2170  0.1275 -0.0980
  665SOL     OW 2425   3.375   4.534   1.205  0.0741  0.4881 -0.1057
  665SOL    HW2 2426   3.335   4.495   1.283 -2.4185  0.7081 -1.1673
  665SOL    HW3 2427   3.435   4.600   1.240 -1.6606  1.2479  1.6537
  665SOL    MW4 2428   3.378   4.538   1.220 -0.4837  0.6174 -0.0136
  666SOL     OW 2429   3.971   6.440   1.044  0.0316  0.2025 -0.3197
  666SOL    HW2 2430   3.930   6.524   1.024  0.3741  0.2975 -0.6285
  666SOL    HW3 2431   3.897   6.379   1.053 -0.1611  0.2675 -1.3756
  666SOL    MW4 2432   3.956   6.443   1.043  0.0514  0.2236 -0.4998
  667SOL     OW 2433   0.046   3.149   3.174 -0.7350 -0.4315  0.1912
  667SOL    HW2 2434   0.084   3.079   3.227 -0.2966 -0.2440  0.1347
  667SOL    HW3 2435   0.106   3.158   3.100  0.6890  1.7028  1.4721
  667SOL    MW4 2436   0.059   3.141   3.172 -0.4892 -0.1252  0.3527
  668SOL     OW 2437   0.624   4.783   4.766 -0.2224  0.0493 -0.5559
  668SOL    HW2 2438   0.648   4.868   4.804  0.9646  0.3147 -1.8234
  668SOL    HW3 2439   0.674   4.779   4.685 -0.7174 -1.6299 -0.7978
  668SOL    MW4 2440   0.633   4.794   4.760 -0.1311 -0.1372 -0.7550
  669SOL     OW 2441   2.851   1.842   1.271 -0.0888 -0.0474  0.3188
  669SOL    HW2 2442   2.903   1.892   1.334  0.5003 -0.6528  0.3217
  669SOL    HW3 2443   2.780   1.901   1.246  0.5548  0.7693  0.3771
  669SOL    MW4 2444   2.848   1.857   1.276  0.0738 -0.0196  0.3269
  670SOL     OW 2445   0.220   4.498   2.210  0.4924 -0.1266  0.7020
  670SOL    HW2 2446   0.153   4.456   2.156  0.4257  0.7578  0.0766
  670SOL    HW3 2447   0.300   4.449   2.193  0.5188  0.2794 -0.3876
  670SOL    MW4 2448   0.222   4.486   2.201  0.4871  0.0436  0.4757
  671SOL     OW 2449   2.872   4.538   5.463  0.0686 -0.1198 -0.7941
  671SOL    HW2 2450   2.853   4.626   5.496  0.8050 -0.0991 -0.4027
  671SOL    HW3 2451   2.926   4.498   5.531 -0.9313 -1.1699 -0.5941
  671SOL    MW4 2452   2.877   4.545   5.476  0.0339 -0.2556 -0.7161
  672SOL     OW 2453   0.692   0.444   4.784  0.2192  0.1900  0.1643
  672SOL    HW2 2454   0.763   0.381   4.771  1.9277  1.7217  1.4775
  672SOL    HW3 2455   0.694   0.499   4.706  0.7150  0.4191  0.3325
  672SOL    MW4 2456   0.702   0.443   4.772  0.5100  0.4223  0.3597
  673SOL     OW 2457   2.887   1.099   0.034 -0.2805 -0.1619  0.2495
  673SOL    HW2 2458   2.864   1.191   0.029 -2.3029 -0.6455 -0.1298
  673SOL    HW3 2459   2.979   1.096   0.005 -0.8910  1.4585 -2.1950
  673SOL    MW4 2460   2.896   1.110   0.030 -0.6279 -0.0119 -0.1231
  674SOL     OW 2461   4.767   0.939   4.085 -0.2149  0.2517 -0.0533
  674SOL    HW2 2462   4.806   0.917   4.170 -0.8706  0.0905  0.2173
  674SOL    HW3 2463   4.673   0.948   4.104 -0.1709  1.8559 -0.4277
  674SOL    MW4 2464   4.760   0.937   4.099 -0.2956  0.4421 -0.0670
  675SOL     OW 2465   0.404   5.701   0.425  0.2199 -0.6745  0.0348
  675SOL    HW2 2466   0.312   5.716   0.446 -0.1486  1.4899 -2.6095
  675SOL    HW3 2467   0.452   5.746   0.494 -0.7100 -0.5829  0.6367
  675SOL    MW4 2468   0.398   5.709   0.437  0.0486 -0.3769 -0.2347
  676SOL     OW 2469   0.165   2.575   4.985  0.0250  0.5108  0.5127
  676SOL    HW2 2470   0.102   2.632   4.942 -1.1610 -0.4737  0.9112
  676SOL    HW3 2471   0.248   2.623   4.979 -0.1884  0.7047 -2.3064
  676SOL    MW4 2472   0.168   2.589   4.978 -0.1597  0.4065  0.1933
  677SOL     OW 2473   0.514   2.432   5.520 -0.4094 -0.1248 -0.0957
  677SOL    HW2 2474   0.449   2.468   5.459  0.6832  1.2424 -0.4947
  677SOL    HW3 2475   0.579   2.390   5.463  0.0271  0.1732  0.1768
  677SOL    MW4 2476   0.514   2.431   5.504 -0.2076  0.0949 -0.1124
  678SOL     OW 2477   3.008   2.351   6.000  0.2727 -0.0708 -0.5206
  678SOL    HW2 2478   2.942   2.307   5.946  0.9463 -0.9438 -0.6493
  678SOL    HW3 2479   3.087   2.300   5.987 -0.0533 -1.7531  3.0689
  678SOL    MW4 2480   3.009   2.339   5.991  0.3186 -0.4079 -0.0640
  679SOL     OW 2481   2.006   2.470   5.843  0.4977  0.6731 -0.5971
  679SOL    HW2 2482   2.067   2.489   5.772  0.4932  0.4977 -0.6476
  679SOL    HW3 2483   2.021   2.378   5.864 -0.0530  0.5063 -0.9071
  679SOL    MW4 2484   2.016   2.461   5.836  0.4245  0.6279 -0.6447
  680SOL     OW 2485   2.940   0.572   0.153  0.8367  0.6031  0.2841
  680SOL    HW2 2486   2.995   0.495   0.139  0.8020  0.5972  0.1830
  680SOL    HW3 2487   2.864   0.558   0.097  1.8483  1.7758 -1.4667
  680SOL    MW4 2488   2.937   0.560   0.144  0.9656  0.7570  0.0398
  681SOL     OW 2489   1.404   2.663   4.791  0.0745  0.2854  0.0332
  681SOL    HW2 2490   1.497   2.653   4.811  0.1777  0.6737 -0.2300
  681SOL    HW3 2491   1.361   2.591   4.837  0.4883  0.1958  0.2826
  681SOL    MW4 2492   1.410   2.653   4.799  0.1427  0.3248  0.0314
  682SOL     OW 2493   5.102   6.124   5.004  0.5223 -0.5531 -0.2530
  682SOL    HW2 2494   5.009   6.118   5.024 -0.2747  3.8981 -1.5494
  682SOL    HW3 2495   5.133   6.201   5.053  3.2899 -1.2719 -0.6669
  682SOL    MW4 2496   5.094   6.134   5.013  0.7823 -0.0607 -0.4786
  683SOL     OW 2497   1.975   0.849   3.187 -0.4117  0.6011 -0.1417
  683SOL    HW2 2498   1.923   0.769   3.185  0.7920 -0.2188  0.1374
  683SOL    HW3 2499   2.036   0.839   3.114 -1.7269  2.3470 -1.5838
  683SOL    MW4 2500   1.976   0.837   3.177 -0.4265  0.7233 -0.2951
  684SOL     OW 2501   2.131   4.577   3.644 -0.1540 -0.0750 -0.3654
  684SOL    HW2 2502   2.170   4.642   3.585 -1.4574  0.3632 -0.7727
  684SOL    HW3 2503   2.057   4.542   3.596  0.1193 -1.3911  0.1295
  684SOL    MW4 2504   2.127   4.581   3.630 -0.2899 -0.1908 -0.3539
  685SOL     OW 2505   5.121   0.740   2.553 -0.7560 -0.4617 -0.0660
  685SOL    HW2 2506   5.149   0.648   2.544 -1.6567 -0.5110 -3.9137
  685SOL    HW3 2507   5.178   0.788   2.493 -2.1716  1.0769 -0.2315
  685SOL    MW4 2508   5.132   0.734   2.544 -1.0616 -0.2652 -0.5955
  686SOL     OW 2509   1.357   1.037   4.657 -0.1734 -0.3054  0.4385
  686SOL    HW2 2510   1.447   1.070   4.654 -0.4762  0.4722 -2.0828
  686SOL    HW3 2511   1.363   0.959   4.713  1.9056  0.1209  0.9147
  686SOL    MW4 2512   1.370   1.031   4.664  0.0610 -0.1465  0.1687
  687SOL     OW 2513   5.515   5.415   4.799  0.0963 -0.5658  0.0358
  687SOL    HW2 2514   5.463   5.351   4.848 -3.9571  2.4176  0.1645
  687SOL    HW3 2515   5.526   5.376   4.712 -3.1225 -1.1751 -0.2042
  687SOL    MW4 2516   5.510   5.402   4.794 -0.8632 -0.2526  0.0212
  688SOL     OW 2517   5.748   1.432   6.401 -0.3586 -0.0360 -0.1259
  688SOL    HW2 2518   5.791   1.455   6.483 -0.5637 -2.6765  0.7901
  688SOL    HW3 2519   5.790   1.351   6.373 -0.7699  0.4322 -2.2995
  688SOL    MW4 2520   5.759   1.424   6.408 -0.4399 -0.3226 -0.2918
  689SOL     OW 2521   2.932   0.480   2.096 -0.0025  0.7205  0.0781
  689SOL    HW2 2522   2.928   0.449   2.006  0.1548 -0.0804  0.3458
  689SOL    HW3 2523   3.020   0.458   2.125  0.0847  1.3496  0.2985
  689SOL    MW4 2524   2.943   0.473   2.088  0.0298  0.6978  0.1425
  690SOL     OW 2525   1.768   5.371   1.917  0.1344  0.1376 -0.4168
  690SOL    HW2 2526   1.690   5.326   1.948 -0.5283  1.4978  0.0044
  690SOL    HW3 2527   1.758   5.377   1.823  0.8613 -1.6716 -0.6534
  690SOL    MW4 2528   1.757   5.366   1.909  0.1429  0.0784 -0.3924
  691SOL     OW 2529   0.081   1.616   0.357 -0.5086 -0.6666  0.3950
  691SOL    HW2 2530   0.160   1.668   0.345 -1.3664  1.0039  1.5440
  691SOL    HW3 2531   0.061   1.624   0.450 -2.5665 -0.1920 -0.0273
  691SOL    MW4 2532   0.088   1.624   0.368 -0.8933 -0.3836  0.4909
  692SOL     OW 2533   4.234   0.630   4.858 -0.5024 -0.4293  0.0335
  692SOL    HW2 2534   4.267   0.669   4.777  0.1060 -1.3150 -0.1539
  692SOL    HW3 2535   4.170   0.694   4.890  1.5084  1.4802  0.5293
  692SOL    MW4 2536   4.230   0.644   4.851 -0.1568 -0.2942  0.0742
  693SOL     OW 2537   0.196   5.977   3.953 -0.1841 -0.5659 -0.5419
  693SOL    HW2 2538   0.286   5.966   3.981 -0.5028 -0.7055  0.4543
  693SOL    HW3 2539   0.170   6.063   3.988 -1.4352 -1.8907  2.0455
  693SOL    MW4 2540   0.204   5.987   3.961 -0.3912 -0.7591 -0.0691
  694SOL     OW 2541   3.054   6.197   4.432  0.4276 -0.1266  0.3459
  694SOL    HW2 2542   3.046   6.287   4.400  1.7395 -0.4742 -1.0639
  694SOL    HW3 2543   3.122   6.202   4.500  3.8912 -0.6363 -2.7487
  694SOL    MW4 2544   3.062   6.210   4.437  1.0577 -0.2397 -0.2484
  695SOL     OW 2545   0.733   5.383   0.194  0.4932 -0.3924 -0.6096
  695SOL    HW2 2546   0.806   5.441   0.175  0.7079 -0.9912 -1.6760
  695SOL    HW3 2547   0.774   5.300   0.217  0.2128  0.0034  1.5521
  695SOL    MW4 2548   0.748   5.380   0.195  0.4846 -0.4192 -0.4651
  696SOL     OW 2549   2.085   3.993   0.438 -0.3464  0.3766  0.2577
  696SOL    HW2 2550   2.004   4.039   0.462 -1.9682 -1.6629 -1.0462
  696SOL    HW3 2551   2.116   4.039   0.360  0.9106  2.3700  1.8144
  696SOL    MW4 2552   2.078   4.005   0.431 -0.3945  0.3705  0.2910
  697SOL     OW 2553   1.808   5.845   0.901 -0.2463 -0.6489 -0.2248
  697SOL    HW2 2554   1.782   5.788   0.973 -0.3285 -1.6358 -1.0248
  697SOL    HW3 2555   1.797   5.934   0.936  0.7232 -1.1110  1.3301
  697SOL    MW4 2556   1.803   5.849   0.915 -0.1292 -0.8401 -0.1252
  698SOL     OW 2557   2.485   3.664   4.891 -0.2255 -0.4048 -0.1693
  698SOL    HW2 2558   2.399   3.690   4.856  0.0789  2.1933  0.7540
  698SOL    HW3 2559   2.539   3.650   4.813 -0.5937  1.4293 -0.8230
  698SOL    MW4 2560   2.481   3.666   4.876 -0.2339  0.1800 -0.1337
  699SOL     OW 2561   5.921   2.009   2.758  0.1305  0.3363 -0.3565
  699SOL    HW2 2562   5.921   1.915   2.743  0.7987  0.4185 -0.9418
  699SOL    HW3 2563   5.829   2.033   2.764 -0.0412 -0.3660 -0.1106
  699SOL    MW4 2564   5.909   2.000   2.757  0.1960  0.2545 -0.4013
  700SOL     OW 2565   5.592   5.472   6.168 -0.3052  0.0661  0.1967
  700SOL    HW2 2566   5.683   5.456   6.144 -1.3147 -2.0284 -2.8876
  700SOL    HW3 2567   5.595   5.490   6.262  3.3851  1.5588 -0.0413
  700SOL    MW4 2568   5.604   5.472   6.177  0.0485 -0.0133 -0.2417
  701SOL     OW 2569   1.327   3.286   5.104  0.2165  0.3681  0.0958
  701SOL    HW2 2570   1.341   3.198   5.140 -1.4975  0.1268  0.2715
  701SOL    HW3 2571   1.297   3.270   5.014 -0.0207  0.7734  0.1015
  701SOL    MW4 2572   1.325   3.272   5.097 -0.0409  0.3897  0.1197
  702SOL     OW 2573   2.238   4.873   2.672  0.1531 -0.1455  0.3962
  702SOL    HW2 2574   2.167   4.821   2.634  0.4537 -0.8035  0.7074
  702SOL    HW3 2575   2.219   4.876   2.765 -1.0340  2.1796  0.1605
  702SOL    MW4 2576   2.226   4.866   2.679  0.0361  0.0745  0.4061
  703SOL     OW 2577   2.441   2.919   5.652 -0.8603  0.1604 -0.1518
  703SOL    HW2 2578   2.406   2.900   5.565 -2.9105 -0.4706  0.7497
  703SOL    HW3 2579   2.453   2.834   5.692  0.0919  0.4459  0.1824
  703SOL    MW4 2580   2.438   2.906   5.646 -1.0051  0.1148  0.0113
  704SOL     OW 2581   2.042   6.194   4.751  0.4924  0.6726  0.3318
  704SOL    HW2 2582   2.126   6.163   4.784  1.2168  2.5368  0.3294
  704SOL    HW3 2583   2.057   6.284   4.725 -1.2955  0.7813 -0.5332
  704SOL    MW4 2584   2.055   6.202   4.752  0.3521  0.9329  0.2173
  705SOL     OW 2585   0.515   1.781   4.138  0.4735 -0.4831  0.2192
  705SOL    HW2 2586   0.489   1.706   4.085  1.1954 -1.3410  1.0384
  705SOL    HW3 2587   0.544   1.743   4.221  1.9467  0.5860  0.2415
  705SOL    MW4 2588   0.516   1.766   4.142  0.7631 -0.4552  0.3302
  706SOL     OW 2589   5.590   0.403   0.462  0.2790  0.7414 -0.2945
  706SOL    HW2 2590   5.658   0.462   0.429 -0.2002  0.1662 -2.4097
  706SOL    HW3 2591   5.517   0.413   0.401  0.4609 -2.5990 -1.2645
  706SOL    MW4 2592   5.589   0.412   0.450  0.2398  0.2248 -0.7016
  707SOL     OW 2593   3.027   5.765   3.755 -0.2486  0.0882 -0.4180
  707SOL    HW2 2594   3.012   5.777   3.848  1.9934  0.2500 -0.0248
  707SOL    HW3 2595   2.974   5.832   3.713  0.0277  1.1261  0.8369
  707SOL    MW4 2596   3.018   5.775   3.762  0.0836  0.2465 -0.2005
  708SOL     OW 2597   3.914   3.399   4.742 -0.4797 -0.1034  0.5299
  708SOL    HW2 2598   3.836   3.351   4.714 -1.2184 -0.5326  3.0838
  708SOL    HW3 2599   3.882   3.487   4.760  0.3074  0.6198 -1.4121
  708SOL    MW4 2600   3.899   3.404   4.741 -0.4733 -0.0646  0.6106
  709SOL     OW 2601   3.577   3.467   0.521  0.0911  0.4537 -0.4767
  709SOL    HW2 2602   3.590   3.389   0.575  0.1591  0.3563 -0.6327
  709SOL    HW3 2603   3.554   3.433   0.435  1.1320  0.5794 -0.8242
  709SOL    MW4 2604   3.576   3.452   0.517  0.2374  0.4574 -0.5432
  710SOL     OW 2605   3.354   3.460   3.614 -0.1502 -0.0204 -0.2049
  710SOL    HW2 2606   3.346   3.532   3.676 -0.5975 -0.5183  0.3227
  710SOL    HW3 2607   3.373   3.384   3.668 -2.2721 -0.8085 -0.4889
  710SOL    MW4 2608   3.356   3.459   3.629 -0.4892 -0.1901 -0.1728
  711SOL     OW 2609   1.290   3.924   1.761  0.1674  0.3516  0.0149
  711SOL    HW2 2610   1.250   3.837   1.762  1.4766 -0.2708 -0.2151
  711SOL    HW3 2611   1.216   3.983   1.746 -0.7955 -0.6780  0.5007
  711SOL    MW4 2612   1.275   3.920   1.759  0.2131  0.1336  0.0487
  712SOL     OW 2613   4.505   1.055   1.288 -0.2578  0.2926 -0.9644
  712SOL    HW2 2614   4.417   1.091   1.278 -0.7229 -0.6825 -0.4782
  712SOL    HW3 2615   4.491   0.967   1.324  0.9293  0.2417 -0.6038
  712SOL    MW4 2616   4.491   1.048   1.291 -0.1625  0.1572 -0.8526
  713SOL     OW 2617   2.332   6.108   2.567  0.0115 -0.2381 -0.0558
  713SOL    HW2 2618   2.305   6.120   2.476 -0.1818  1.2345  0.1728
  713SOL    HW3 2619   2.416   6.062   2.561 -0.6894 -1.4817 -0.8954
  713SOL    MW4 2620   2.340   6.103   2.554 -0.1065 -0.2078 -0.1364
  714SOL     OW 2621   3.935   4.002   4.822 -0.0145 -0.5157  0.3830
  714SOL    HW2 2622   3.968   4.058   4.892  0.8278  1.2228 -1.3121
  714SOL    HW3 2623   3.840   4.013   4.825  0.1912  2.8798 -1.2568
  714SOL    MW4 2624   3.927   4.010   4.832  0.1238  0.1617 -0.0570
  715SOL     OW 2625   5.249   5.365   6.036 -0.3684 -0.1115  0.2043
  715SOL    HW2 2626   5.311   5.343   5.966  1.7900  0.2555  1.8739
  715SOL    HW3 2627   5.254   5.461   6.042  0.2463 -0.2056  1.4738
  715SOL    MW4 2628   5.258   5.375   6.028 -0.0025 -0.0755  0.5921
  716SOL     OW 2629   1.575   2.770   3.865  0.6867 -0.0569 -0.1968
  716SOL    HW2 2630   1.631   2.728   3.930  0.0551  1.2560  1.2599
  716SOL    HW3 2631   1.628   2.841   3.830 -0.2390  1.6708  1.7369
  716SOL    MW4 2632   1.589   2.774   3.869  0.4813  0.3443  0.2505
  717SOL     OW 2633   2.335   4.698   3.376  0.3590 -0.5858 -0.0971
  717SOL    HW2 2634   2.391   4.721   3.301  0.0882  2.5401  0.5609
  717SOL    HW3 2635   2.276   4.632   3.341  1.9022 -1.1258 -1.8956
  717SOL    MW4 2636   2.335   4.692   3.361  0.5268 -0.2446 -0.2475
  718SOL     OW 2637   0.538   1.611   1.062  0.0956 -0.6542  0.2333
  718SOL    HW2 2638   0.581   1.693   1.084 -1.1232 -0.3145  1.4411
  718SOL    HW3 2639   0.608   1.556   1.027  0.9867  0.7752 -0.3277
  718SOL    MW4 2640   0.553   1.614   1.060  0.0524 -0.4208  0.3187
  719SOL     OW 2641   4.098   4.649   5.690  0.0586 -0.2272 -0.4694
  719SOL    HW2 2642   4.108   4.570   5.637  1.2423  0.2756 -1.0430
  719SOL    HW3 2643   4.038   4.624   5.760 -3.7440 -0.2231 -3.4158
  719SOL    MW4 2644   4.092   4.635   5.692 -0.2870 -0.1603 -0.9338
  720SOL     OW 2645   5.863   5.630   4.430 -0.0116 -0.0498 -0.0232
  720SOL    HW2 2646   5.872   5.538   4.453  1.2458  0.1487  0.3453
  720SOL    HW3 2647   5.774   5.637   4.395 -1.2502 -0.8106  2.6675
  720SOL    MW4 2648   5.852   5.619   4.428 -0.0091 -0.1240  0.3805
  721SOL     OW 2649   2.262   5.839   4.991 -0.3346  0.1651  0.3848
  721SOL    HW2 2650   2.253   5.922   4.944 -1.8313 -0.8010 -1.1698
  721SOL    HW3 2651   2.184   5.835   5.046 -0.2254 -0.1819  0.5123
  721SOL    MW4 2652   2.251   5.850   4.992 -0.5177 -0.0081  0.1965
  722SOL     OW 2653   5.784   4.255   3.964  0.0920 -0.2099  0.4282
  722SOL    HW2 2654   5.869   4.270   4.006 -0.2975  0.9364  0.8448
  722SOL    HW3 2655   5.791   4.167   3.929  1.9677  0.3487 -0.7729
  722SOL    MW4 2656   5.796   4.245   3.965  0.2881  0.0150  0.3247
  723SOL     OW 2657   5.935   4.103   5.105  0.0180  0.9355  0.3233
  723SOL    HW2 2658   6.014   4.075   5.059  0.6822 -0.3804  2.1508
  723SOL    HW3 2659   5.962   4.109   5.196 -1.7833  1.3616  0.8611
  723SOL    MW4 2660   5.949   4.100   5.111 -0.1321  0.8181  0.6353
  724SOL     OW 2661   1.398   4.349   2.289 -0.1860 -0.0486  0.1619
  724SOL    HW2 2662   1.324   4.389   2.244  0.7936  0.0920 -1.4001
  724SOL    HW3 2663   1.359   4.283   2.346 -1.5746  0.7680  0.2038
  724SOL    MW4 2664   1.383   4.345   2.291 -0.2400  0.0777 -0.0387
  725SOL     OW 2665   4.542   6.134   1.892 -0.0295  0.0014 -0.2473
  725SOL    HW2 2666   4.514   6.075   1.823  1.7357 -0.5825 -0.5149
  725SOL    HW3 2667   4.602   6.195   1.849  1.2053 -0.4515  0.7626
  725SOL    MW4 2668   4.546   6.135   1.877  0.3663 -0.1354 -0.1494
  726SOL     OW 2669   1.395   4.042   6.299 -0.4321 -0.6089  0.4502
  726SOL    HW2 2670   1.446   4.078   6.227  0.0520  0.5132  1.3293
  726SOL    HW3 2671   1.380   3.951   6.274  2.4497 -1.1719  0.3615
  726SOL    MW4 2672   1.400   4.034   6.286  0.0120 -0.5351  0.5545
  727SOL     OW 2673   3.181   2.803   5.505 -0.0692  0.3196  0.1946
  727SOL    HW2 2674   3.112   2.865   5.483 -0.3195  0.3246  0.9519
  727SOL    HW3 2675   3.138   2.739   5.562  0.2550 -0.3881 -0.3388
  727SOL    MW4 2676   3.166   2.803   5.509 -0.0595  0.2269  0.2241
  728SOL     OW 2677   0.629   3.171   2.791  0.3240  0.1815  0.6797
  728SOL    HW2 2678   0.683   3.126   2.855  2.4251  0.0539 -1.0542
  728SOL    HW3 2679   0.667   3.259   2.786  0.3227  0.1283 -0.4978
  728SOL    MW4 2680   0.642   3.177   2.799  0.6010  0.1576  0.2956
  729SOL     OW 2681   0.524   0.416   3.660  0.2595  0.4536 -0.5202
  729SOL    HW2 2682   0.598   0.358   3.671 -0.2608 -0.0105  0.7374
  729SOL    HW3 2683   0.474   0.378   3.588 -1.1576 -1.9212  1.5508
  729SOL    MW4 2684   0.527   0.404   3.652  0.0039  0.0790 -0.0810
  730SOL     OW 2685   6.107   0.604   1.842  0.1698  0.5917  0.1946
  730SOL    HW2 2686   6.036   0.615   1.905 -0.6814 -0.0316 -0.6416
  730SOL    HW3 2687   6.180   0.569   1.894 -0.4706  0.2293  0.8596
  730SOL    MW4 2688   6.107   0.601   1.857 -0.0270  0.4617  0.1720
  731SOL     OW 2689   6.356   3.848   3.081  0.2334  0.3357 -0.2371
  731SOL    HW2 2690   6.390   3.888   3.161 -1.4480  0.3712  0.5102
  731SOL    HW3 2691   6.358   3.919   3.017  1.1925  0.4283 -0.1289
  731SOL    MW4 2692   6.361   3.863   3.083  0.1381  0.3526 -0.1242
  732SOL     OW 2693   4.221   4.009   0.801  0.1537  0.1554  0.6376
  732SOL    HW2 2694   4.314   4.020   0.784  0.0014 -0.2705 -0.5425
  732SOL    HW3 2695   4.186   4.098   0.803  0.5238  0.3006  0.7264
  732SOL    MW4 2696   4.229   4.022   0.799  0.1825  0.1184  0.4936
  733SOL     OW 2697   1.644   0.199   2.024 -0.2684 -0.6053  0.5968
  733SOL    HW2 2698   1.679   0.236   2.105  0.9742 -0.8871  0.2029
  733SOL    HW3 2699   1.701   0.125   2.004 -1.6160 -1.6441  0.3885
  733SOL    MW4 2700   1.656   0.194   2.032 -0.2822 -0.7795  0.5173
  734SOL     OW 2701   5.889   2.428   4.495  0.3083 -0.4301  0.6258
  734SOL    HW2 2702   5.976   2.455   4.466  0.1340 -0.2192  0.2827
  734SOL    HW3 2703   5.893   2.332   4.497 -0.8648 -0.8740 -4.2704
  734SOL    MW4 2704   5.901   2.419   4.491  0.1305 -0.4608 -0.0655
  735SOL     OW 2705   1.737   4.639   2.726  0.3829  0.5844 -0.3629
  735SOL    HW2 2706   1.707   4.549   2.737  1.5293  0.1079 -0.9553
  735SOL    HW3 2707   1.727   4.678   2.813 -1.0708  0.1933 -0.3372
  735SOL    MW4 2708   1.732   4.632   2.739  0.3423  0.4699 -0.4376
  736SOL     OW 2709   2.974   0.342   4.529  0.3507  0.3918 -0.0658
  736SOL    HW2 2710   2.910   0.285   4.486  0.6980 -0.4706  0.5318
  736SOL    HW3 2711   2.941   0.354   4.618 -0.7423  2.7653 -0.7100
  736SOL    MW4 2712   2.961   0.336   4.535  0.2523  0.5911 -0.0719
  737SOL     OW 2713   0.153   2.742   3.948  0.0093 -0.2181  0.0099
  737SOL    HW2 2714   0.101   2.787   4.015 -0.2442 -0.3884 -0.0694
  737SOL    HW3 2715   0.147   2.799   3.871 -0.8579 -0.6930 -0.2955
  737SOL    MW4 2716   0.145   2.756   3.947 -0.1386 -0.3032 -0.0408
  738SOL     OW 2717   5.587   6.286   3.285 -0.0493 -0.3373 -0.4879
  738SOL    HW2 2718   5.493   6.270   3.282  0.2950 -2.8943  0.4102
  738SOL    HW3 2719   5.614   6.292   3.193 -0.9939 -0.0539 -0.7569
  738SOL    MW4 2720   5.578   6.285   3.273 -0.1285 -0.6373 -0.4049
  739SOL     OW 2721   1.516   5.245   1.984 -0.3332 -0.0327 -0.2107
  739SOL    HW2 2722   1.531   5.189   1.908  0.7582  0.2054 -0.1834
  739SOL    HW3 2723   1.479   5.186   2.050 -1.6029 -0.1722 -1.0044
  739SOL    MW4 2724   1.513   5.230   1.983 -0.3567 -0.0197 -0.3118
  740SOL     OW 2725   2.218   1.069   3.808 -0.1082  0.4505 -0.1679
  740SOL    HW2 2726   2.237   0.998   3.747 -0.1334  0.0925  0.2355
  740SOL    HW3 2727   2.193   1.143   3.753 -0.4537  0.0308 -0.5722
  740SOL    MW4 2728   2.217   1.069   3.793 -0.1571  0.3479 -0.1680
  741SOL     OW 2729   2.306   1.407   4.094  0.1172 -0.5048 -0.0272
  741SOL    HW2 2730   2.292   1.324   4.139  0.1542 -0.5497 -0.0981
  741SOL    HW3 2731   2.390   1.439   4.128  0.4919 -0.8753 -0.5714
  741SOL    MW4 2732   2.316   1.401   4.104  0.1715 -0.5596 -0.1084
  742SOL     OW 2733   3.498   4.441   1.700 -0.1101 -0.0274 -0.2869
  742SOL    HW2 2734   3.508   4.376   1.770  1.7044  0.1972 -0.2892
  742SOL    HW3 2735   3.575   4.497   1.709 -0.4607  0.7242 -1.7297
  742SOL    MW4 2736   3.510   4.440   1.711  0.0831  0.1014 -0.4776
  743SOL     OW 2737   0.201   0.268   2.513 -0.3198  0.7956 -0.2173
  743SOL    HW2 2738   0.196   0.179   2.479 -0.3882  1.0395 -0.8667
  743SOL    HW3 2739   0.285   0.302   2.481 -0.1481  0.8585  0.2926
  743SOL    MW4 2740   0.211   0.261   2.505 -0.3062  0.8361 -0.2357
  744SOL     OW 2741   3.252   5.138   4.844 -0.0461  0.3823  0.5290
  744SOL    HW2 2742   3.225   5.050   4.868 -0.2095  0.7909  1.9191
  744SOL    HW3 2743   3.346   5.130   4.826 -0.2768 -0.2736 -0.4431
  744SOL    MW4 2744   3.261   5.125   4.845 -0.0981  0.3497  0.5841
  745SOL     OW 2745   5.378   1.612   5.774  0.7584  0.5497  0.3041
  745SOL    HW2 2746   5.394   1.706   5.778  0.1968  0.6436  0.4965
  745SOL    HW3 2747   5.336   1.591   5.857 -1.8912  0.6881 -0.9054
  745SOL    MW4 2748   5.374   1.621   5.785  0.3347  0.5804  0.1699
  746SOL     OW 2749   0.287   5.214   1.051  0.0957  0.2313  0.1692
  746SOL    HW2 2750   0.356   5.199   0.987  0.9584  1.1220  0.8687
  746SOL    HW3 2751   0.206   5.215   0.999  0.4043 -2.3042 -0.4703
  746SOL    MW4 2752   0.285   5.212   1.036  0.2502  0.0143  0.1771
  747SOL     OW 2753   1.447   5.630   2.541  0.4905 -0.0501  0.0641
  747SOL    HW2 2754   1.463   5.536   2.530  0.4874 -0.5688  3.4114
  747SOL    HW3 2755   1.357   5.635   2.575  0.9154  1.0210  1.1101
  747SOL    MW4 2756   1.437   5.618   2.544  0.5462  0.0228  0.6438
  748SOL     OW 2757   0.842   4.627   6.297 -0.1698 -0.2328 -0.0682
  748SOL    HW2 2758   0.847   4.709   6.247 -1.8324  0.2578  0.5031
  748SOL    HW3 2759   0.829   4.559   6.232 -0.2906  0.1524 -0.4517
  748SOL    MW4 2760   0.841   4.629   6.282 -0.4051 -0.1173 -0.0434
  749SOL     OW 2761   4.535   1.527   0.615 -0.3550  0.1826 -0.2989
  749SOL    HW2 2762   4.505   1.537   0.525 -0.0311  3.0442 -0.1754
  749SOL    HW3 2763   4.461   1.484   0.660 -0.1423 -2.1768 -2.0383
  749SOL    MW4 2764   4.521   1.523   0.609 -0.2842  0.2489 -0.5121
  750SOL     OW 2765   4.376   6.215   0.542 -0.2882 -0.1805 -0.3795
  750SOL    HW2 2766   4.322   6.165   0.481  0.4758 -1.3010 -0.1832
  750SOL    HW3 2767   4.335   6.200   0.628 -0.7934  0.5915 -0.4763
  750SOL    MW4 2768   4.363   6.206   0.546 -0.2540 -0.2265 -0.3664
  751SOL     OW 2769   3.958   2.806   1.744  0.0696 -0.2170 -0.5605
  751SOL    HW2 2770   4.041   2.802   1.697  0.4575 -0.8395  0.1519
  751SOL    HW3 2771   3.939   2.715   1.768 -1.3302 -0.2288 -1.5717
  751SOL    MW4 2772   3.966   2.793   1.741 -0.0639 -0.3007 -0.5999
  752SOL     OW 2773   4.451   6.051   2.817 -0.3288 -0.5671  0.9427
  752SOL    HW2 2774   4.444   6.140   2.850  0.7280 -1.0997  2.7623
  752SOL    HW3 2775   4.503   6.005   2.883  0.3400 -2.1915 -0.6327
  752SOL    MW4 2776   4.457   6.057   2.830 -0.1011 -0.8517  0.9749
  753SOL     OW 2777   0.157   0.586   4.813  0.0917  0.4594  0.5568
  753SOL    HW2 2778   0.119   0.501   4.836 -1.1040  1.4969  2.7466
  753SOL    HW3 2779   0.113   0.612   4.733 -0.7948 -0.2303  0.8093
  753SOL    MW4 2780   0.147   0.578   4.806 -0.1830  0.5053  0.8790
  754SOL     OW 2781   4.265   2.195   1.885  0.4448  0.5280 -0.5211
  754SOL    HW2 2782   4.243   2.288   1.897  0.5411  0.4611  0.1832
  754SOL    HW3 2783   4.263   2.183   1.790  0.0958  1.1691 -0.6040
  754SOL    MW4 2784   4.262   2.206   1.874  0.4115  0.6038 -0.4391
  755SOL     OW 2785   2.035   0.293   0.471 -0.0616 -0.1198 -0.2330
  755SOL    HW2 2786   2.017   0.386   0.457  0.1457  0.0237  0.4028
  755SOL    HW3 2787   2.130   0.285   0.459 -0.3216 -0.6307 -2.2681
  755SOL    MW4 2788   2.045   0.304   0.467 -0.0686 -0.1683 -0.4177
  756SOL     OW 2789   3.797   4.624   1.984 -0.1780  0.0852  0.1643
  756SOL    HW2 2790   3.790   4.582   1.899  1.1974  1.3008 -0.5878
  756SOL    HW3 2791   3.735   4.697   1.980 -1.6687 -1.0700  1.0251
  756SOL    MW4 2792   3.787   4.628   1.973 -0.1932  0.0931  0.1786
  757SOL     OW 2793   6.023   4.506   5.111 -0.2489 -0.0695  0.2384
  757SOL    HW2 2794   5.962   4.442   5.074  0.0168 -0.6130  0.7277
  757SOL    HW3 2795   6.079   4.455   5.170  1.4884  0.1844 -1.1068
  757SOL    MW4 2796   6.022   4.491   5.114  0.0154 -0.1077  0.1255
  758SOL     OW 2797   1.816   5.786   3.804  0.0847  0.4352  0.1840
  758SOL    HW2 2798   1.751   5.837   3.853  0.1990 -0.0281  0.8268
  758SOL    HW3 2799   1.800   5.809   3.712 -0.3465  1.0636  0.4108
  758SOL    MW4 2800   1.805   5.796   3.798  0.0429  0.4570  0.2987
  759SOL     OW 2801   1.948   1.193   2.689  0.1563  0.1940 -0.3028
  759SOL    HW2 2802   1.926   1.109   2.649  0.1241  0.1755 -0.2461
  759SOL    HW3 2803   2.012   1.232   2.630 -0.1051  0.2934 -0.5242
  759SOL    MW4 2804   1.953   1.187   2.676  0.1176  0.2047 -0.3245
  760SOL     OW 2805   3.238   0.624   5.737  0.4976  0.1195 -0.3132
  760SOL    HW2 2806   3.245   0.540   5.691  2.5680  0.1836 -0.2117
  760SOL    HW3 2807   3.232   0.689   5.668  1.5209  0.0651 -0.4616
  760SOL    MW4 2808   3.238   0.622   5.722  0.9058  0.1208 -0.3194
  761SOL     OW 2809   3.581   0.359   2.251 -0.2005 -0.4626 -0.4909
  761SOL    HW2 2810   3.672   0.382   2.270 -0.8868  1.3333  0.8813
  761SOL    HW3 2811   3.579   0.347   2.156  1.7611 -2.0921 -0.3865
  761SOL    MW4 2812   3.592   0.361   2.241 -0.0322 -0.4407 -0.2961
  762SOL     OW 2813   5.039   1.271   2.700 -0.4856 -0.0609  0.1848
  762SOL    HW2 2814   5.037   1.357   2.742 -1.9138  0.1171 -0.1851
  762SOL    HW3 2815   4.959   1.227   2.731  0.4203 -1.4207  0.6805
  762SOL    MW4 2816   5.028   1.276   2.710 -0.5545 -0.2168  0.2014
  763SOL     OW 2817   3.056   0.240   3.007 -0.2881 -0.0899  0.6472
  763SOL    HW2 2818   3.114   0.310   3.037 -0.7990  1.3776 -1.5074
  763SOL    HW3 2819   3.054   0.177   3.079  3.3449  0.1362  1.1414
  763SOL    MW4 2820   3.063   0.241   3.020  0.1238  0.1335  0.4282
  764SOL     OW 2821   0.970   1.749   3.796  0.6035 -0.0243  0.1577
  764SOL    HW2 2822   0.930   1.809   3.859  2.0738  0.0617  1.0490
  764SOL    HW3 2823   1.050   1.719   3.838  0.2479 -2.1336 -0.5444
  764SOL    MW4 2824   0.975   1.753   3.810  0.7506 -0.2912  0.1826
  765SOL     OW 2825   6.280   1.341   6.079 -0.3418  0.2326 -0.3643
  765SOL    HW2 2826   6.224   1.283   6.130  0.9526 -0.5047  0.2816
  765SOL    HW3 2827   6.231   1.359   5.999 -2.4761  1.4910  1.1262
  765SOL    MW4 2828   6.266   1.336   6.075 -0.4526  0.3014 -0.0825
  766SOL     OW 2829   5.033   3.633   2.269 -0.2744 -0.5152  0.4291
  766SOL    HW2 2830   4.997   3.595   2.349  0.0241  0.4853  1.0507
  766SOL    HW3 2831   5.119   3.592   2.259 -0.6699 -1.2934  0.1279
  766SOL    MW4 2832   5.039   3.623   2.278 -0.2872 -0.4858  0.4714
  767SOL     OW 2833   5.139   4.269   0.862 -0.0537  0.4116  0.3146
  767SOL    HW2 2834   5.131   4.363   0.847  0.8866  0.3845 -0.4111
  767SOL    HW3 2835   5.167   4.233   0.778 -1.8780 -0.7348  0.1335
  767SOL    MW4 2836   5.141   4.276   0.849 -0.1704  0.2568  0.1949
  768SOL     OW 2837   5.119   1.067   3.092 -0.8973  0.1265 -0.1499
  768SOL    HW2 2838   5.155   0.987   3.131 -2.2823 -0.4764 -0.0439
  768SOL    HW3 2839   5.135   1.135   3.158 -1.1750 -0.4132  0.4854
  768SOL    MW4 2840   5.126   1.065   3.106 -1.1167 -0.0243 -0.0521
  769SOL     OW 2841   4.977   2.344   4.729  0.2085  0.2906 -0.5616
  769SOL    HW2 2842   5.064   2.307   4.713  0.6628  1.2456 -0.4004
  769SOL    HW3 2843   4.916   2.277   4.698  1.0108 -0.0389 -1.4932
  769SOL    MW4 2844   4.980   2.330   4.723  0.3743  0.3731 -0.6632
  770SOL     OW 2845   1.264   2.117   1.408 -0.3744  0.1473 -0.7213
  770SOL    HW2 2846   1.198   2.186   1.396  0.0306  0.9359  1.2397
  770SOL    HW3 2847   1.216   2.046   1.451 -0.0296  0.6584  0.5576
  770SOL    MW4 2848   1.249   2.117   1.412 -0.2754  0.3188 -0.2938
  771SOL     OW 2849   2.793   0.277   2.529  0.2128  0.0191 -0.1474
  771SOL    HW2 2850   2.804   0.369   2.505 -0.7053  0.2411  0.2291
  771SOL    HW3 2851   2.753   0.279   2.615 -0.2943 -0.7314 -0.3531
  771SOL    MW4 2852   2.789   0.289   2.537  0.0248 -0.0506 -0.1248
  772SOL     OW 2853   3.750   5.916   0.080  0.7196  0.3364  0.0713
  772SOL    HW2 2854   3.706   5.835   0.054 -0.4917  1.4727 -1.6788
  772SOL    HW3 2855   3.719   5.933   0.169  1.3728 -1.3314  0.6573
  772SOL    MW4 2856   3.740   5.907   0.088  0.6460  0.2663 -0.0823
  773SOL     OW 2857   3.776   5.704   5.548 -0.7123  0.2728  0.4472
  773SOL    HW2 2858   3.705   5.760   5.579 -0.4748  0.5257  0.5444
  773SOL    HW3 2859   3.817   5.756   5.478  0.6619  1.0329  1.7496
  773SOL    MW4 2860   3.772   5.719   5.543 -0.4997  0.4064  0.6318
  774SOL     OW 2861   1.794   1.870   1.183 -0.2880  0.4163 -0.0732
  774SOL    HW2 2862   1.792   1.855   1.089  1.0746 -0.8532  0.0613
  774SOL    HW3 2863   1.870   1.821   1.214  0.9985  3.0503  1.3290
  774SOL    MW4 2864   1.804   1.862   1.175  0.0616  0.5963  0.1295
  775SOL     OW 2865   4.251   2.402   2.764  0.1749 -0.0396 -0.4160
  775SOL    HW2 2866   4.318   2.340   2.794  0.1529  0.1399 -0.0008
  775SOL    HW3 2867   4.293   2.450   2.692  0.7285  0.5358  0.2796
  775SOL    MW4 2868   4.265   2.400   2.758  0.2450  0.0600 -0.2695
  776SOL     OW 2869   4.647   3.367   1.635  0.0134 -0.1042  0.0148
  776SOL    HW2 2870   4.640   3.421   1.557 -1.5535 -0.0464  0.1648
  776SOL    HW3 2871   4.605   3.418   1.704  0.7403 -0.4550  0.7437
  776SOL    MW4 2872   4.641   3.381   1.634 -0.0974 -0.1428  0.1308
  777SOL     OW 2873   1.738   0.652   1.410  0.1827 -0.2113  0.2080
  777SOL    HW2 2874   1.728   0.711   1.485 -1.5552 -0.0970 -0.0643
  777SOL    HW3 2875   1.666   0.676   1.352 -0.1903 -2.1830 -0.1940
  777SOL    MW4 2876   1.727   0.663   1.412 -0.0958 -0.4564  0.1190
  778SOL     OW 2877   0.908   4.557   2.669 -0.2966 -0.0892 -0.0422
  778SOL    HW2 2878   0.822   4.592   2.645 -0.5515 -0.8703 -0.2978
  778SOL    HW3 2879   0.889   4.491   2.736  0.3842  1.8995  2.2501
  778SOL    MW4 2880   0.894   4.553   2.674 -0.2404  0.0701  0.2265
  779SOL     OW 2881   2.923   3.428   3.116  0.1762  0.0713 -0.7023
  779SOL    HW2 2882   2.986   3.500   3.106 -0.7565  0.7657 -1.7476
  779SOL    HW3 2883   2.840   3.472   3.132 -0.3371 -0.7964 -0.9741
  779SOL    MW4 2884   2.921   3.443   3.117 -0.0146  0.0484 -0.8761
  780SOL     OW 2885   3.921   2.032   4.365 -0.3673 -0.7195 -0.4358
  780SOL    HW2 2886   3.872   2.106   4.328 -0.5943 -0.8892 -0.4825
  780SOL    HW3 2887   3.952   1.984   4.289 -1.4365 -1.4616 -0.4209
  780SOL    MW4 2888   3.918   2.036   4.350 -0.5383 -0.8398 -0.4400
  781SOL     OW 2889   3.096   2.885   3.995 -0.0882  0.2758  0.6662
  781SOL    HW2 2890   3.021   2.929   4.034  0.5439  0.8015  1.3182
  781SOL    HW3 2891   3.087   2.901   3.901 -1.1197 -0.2056  0.6686
  781SOL    MW4 2892   3.085   2.893   3.988 -0.1409  0.2816  0.7525
  782SOL     OW 2893   3.726   5.994   4.318 -0.1208 -0.5787  0.6306
  782SOL    HW2 2894   3.745   5.931   4.249 -1.1171  0.7693 -0.9275
  782SOL    HW3 2895   3.631   6.002   4.318  0.0034  1.3571  0.3463
  782SOL    MW4 2896   3.716   5.987   4.309 -0.2359 -0.1454  0.3875
  783SOL     OW 2897   1.965   0.371   3.770  0.1889 -0.0858 -0.2926
  783SOL    HW2 2898   2.011   0.289   3.791 -0.1074  0.3333  2.2837
  783SOL    HW3 2899   1.907   0.385   3.844 -1.9753  0.9685 -2.0708
  783SOL    MW4 2900   1.963   0.362   3.782 -0.1358  0.1086 -0.1873
  784SOL     OW 2901   4.810   2.714   1.749  0.0354  0.1618 -0.4858
  784SOL    HW2 2902   4.773   2.799   1.772  0.2930 -0.2988  1.8846
  784SOL    HW3 2903   4.904   2.730   1.742  0.0065  0.2116 -0.7633
  784SOL    MW4 2904   4.818   2.727   1.751  0.0656  0.1076 -0.2097
  785SOL     OW 2905   0.666   0.340   2.123  0.1490 -0.0696  0.0754
  785SOL    HW2 2906   0.667   0.387   2.207 -0.2980  0.3975 -0.1784
  785SOL    HW3 2907   0.660   0.247   2.148 -0.2228  0.0793  0.5523
  785SOL    MW4 2908   0.666   0.334   2.137  0.0410  0.0117  0.1048
  786SOL     OW 2909   4.596   3.498   1.374  0.0199  0.2014  0.1579
  786SOL    HW2 2910   4.692   3.502   1.377  0.1940 -1.0578 -1.5849
  786SOL    HW3 2911   4.569   3.584   1.343  0.5770  0.6063  0.7806
  786SOL    MW4 2912   4.605   3.510   1.370  0.1164  0.0886  0.0101
  787SOL     OW 2913   4.922   3.002   6.001 -0.1148 -0.4654 -0.5306
  787SOL    HW2 2914   4.866   2.978   6.075 -3.1671 -0.8504 -2.8230
  787SOL    HW3 2915   4.962   2.919   5.974  0.1922 -0.4953 -0.0138
  787SOL    MW4 2916   4.920   2.988   6.007 -0.4770 -0.5201 -0.7649
  788SOL     OW 2917   4.603   1.357   5.923 -0.2226  0.2149 -0.0926
  788SOL    HW2 2918   4.534   1.411   5.963  0.2040 -0.5285  1.7407
  788SOL    HW3 2919   4.653   1.322   5.997  2.2543  0.8412 -1.3505
  788SOL    MW4 2920   4.600   1.359   5.938  0.1605  0.1994 -0.0167
  789SOL     OW 2921   1.293   1.191   1.924  0.0925  0.2084  0.5265
  789SOL    HW2 2922   1.279   1.165   1.832  0.3615 -0.5996  0.7070
  789SOL    HW3 2923   1.204   1.199   1.960 -0.0245  0.9339  0.0897
  789SOL    MW4 2924   1.279   1.189   1.916  0.1126  0.1975  0.4927
  790SOL     OW 2925   3.914   1.662   3.709  0.3053  0.0179  0.0344
  790SOL    HW2 2926   3.874   1.581   3.740 -1.2381  0.3762 -0.9050
  790SOL    HW3 2927   3.885   1.728   3.773 -0.6526  0.2789 -0.6492
  790SOL    MW4 2928   3.905   1.660   3.722 -0.0247  0.0996 -0.1797
  791SOL     OW 2929   3.214   3.963   6.187  0.0630 -0.0988  0.6675
  791SOL    HW2 2930   3.159   4.040   6.193 -0.4438 -0.5372  2.0542
  791SOL    HW3 2931   3.209   3.922   6.274 -0.3055 -2.0992 -0.2228
  791SOL    MW4 2932   3.206   3.967   6.199 -0.0525 -0.4206  0.7330
  792SOL     OW 2933   3.141   1.922   5.937 -0.3064  0.3662 -0.2085
  792SOL    HW2 2934   3.104   1.965   6.015 -0.4530  0.8190 -0.5215
  792SOL    HW3 2935   3.127   1.829   5.952 -0.1504  0.4337  0.4036
  792SOL    MW4 2936   3.134   1.916   5.949 -0.3051  0.4349 -0.1690
  793SOL     OW 2937   2.973   3.146   2.142  0.2071 -0.3169 -0.0016
  793SOL    HW2 2938   2.952   3.106   2.227 -1.5009  0.0433 -0.2074
  793SOL    HW3 2939   2.977   3.240   2.160 -3.0125  0.0830 -0.7235
  793SOL    MW4 2940   2.971   3.153   2.156 -0.4430 -0.2166 -0.1240
  794SOL     OW 2941   5.177   6.096   1.854  0.1513 -0.5721 -0.0174
  794SOL    HW2 2942   5.165   6.063   1.943  0.0287  3.2786  1.6115
  794SOL    HW3 2943   5.089   6.100   1.817 -0.4170  1.6366  1.3754
  794SOL    MW4 2944   5.164   6.092   1.861  0.0602  0.2274  0.3813
  795SOL     OW 2945   3.179   5.554   4.012  0.4459  0.4781 -0.3572
  795SOL    HW2 2946   3.261   5.592   4.044  0.7034  2.3895 -2.9644
  795SOL    HW3 2947   3.114   5.579   4.078  1.8051 -0.7504  1.5673
  795SOL    MW4 2948   3.181   5.562   4.025  0.6592  0.5682 -0.4473
  796SOL     OW 2949   0.930   3.233   2.663 -0.0305  0.4861 -0.1362
  796SOL    HW2 2950   0.889   3.210   2.581  0.3330 -0.9033  0.0503
  796SOL    HW3 2951   1.015   3.189   2.661  1.0707  2.4750 -0.0894
  796SOL    MW4 2952   0.936   3.224   2.652  0.1627  0.5652 -0.1054
  797SOL     OW 2953   0.408   4.401   4.717  0.0055  0.6886  0.1073
  797SOL    HW2 2954   0.499   4.403   4.749 -0.7789 -0.3052  2.6399
  797SOL    HW3 2955   0.376   4.490   4.733 -0.4737  0.1453  2.7389
  797SOL    MW4 2956   0.416   4.413   4.724 -0.1612  0.4858  0.7886
  798SOL     OW 2957   2.298   5.495   5.368  0.0047  0.1318 -0.0621
  798SOL    HW2 2958   2.338   5.581   5.351 -0.2453  0.2475 -0.0702
  798SOL    HW3 2959   2.359   5.432   5.330 -0.8625  0.4092 -2.0660
  798SOL    MW4 2960   2.311   5.498   5.361 -0.1427  0.1837 -0.3275
  799SOL     OW 2961   2.863   3.566   4.347 -0.6477 -0.6995  0.3567
  799SOL    HW2 2962   2.825   3.533   4.266 -1.8915 -0.8156  0.9596
  799SOL    HW3 2963   2.897   3.488   4.391  0.8309 -0.5382 -0.4112
  799SOL    MW4 2964   2.863   3.551   4.342 -0.6167 -0.6935  0.3349
  800SOL     OW 2965   4.323   2.928   3.280  0.3982 -0.1482  0.2706
  800SOL    HW2 2966   4.311   2.852   3.337  2.4154 -1.5146 -0.9714
  800SOL    HW3 2967   4.409   2.963   3.304  1.5843 -1.1291 -2.1865
  800SOL    MW4 2968   4.333   2.923   3.290  0.8209 -0.4579 -0.2175
  801SOL     OW 2969   3.826   5.681   0.342 -0.1032  0.4461 -0.0457
  801SOL    HW2 2970   3.840   5.633   0.424 -1.7571 -0.8952 -0.4655
  801SOL    HW3 2971   3.808   5.612   0.277 -2.3082  1.5657 -0.7452
  801SOL    MW4 2972   3.825   5.665   0.344 -0.6124  0.4168 -0.1934
  802SOL     OW 2973   1.605   5.922   3.923 -0.1432  0.0032 -0.0706
  802SOL    HW2 2974   1.642   5.941   4.009 -0.8213  2.0501 -0.1667
  802SOL    HW3 2975   1.530   5.866   3.942 -0.7050  0.9929  0.7983
  802SOL    MW4 2976   1.600   5.917   3.937 -0.3068  0.4038  0.0314
  803SOL     OW 2977   4.772   0.295   0.042 -0.3004  0.2222 -0.6298
  803SOL    HW2 2978   4.735   0.247   0.116 -0.7162  1.1891 -0.1972
  803SOL    HW3 2979   4.860   0.258   0.032 -0.9391 -1.2936 -0.9387
  803SOL    MW4 2980   4.779   0.284   0.050 -0.4395  0.1498 -0.6135
  804SOL     OW 2981   3.268   1.623   5.183 -0.0870  0.7774 -0.2027
  804SOL    HW2 2982   3.189   1.583   5.146 -0.7004 -0.1816  1.9741
  804SOL    HW3 2983   3.238   1.704   5.223  0.7849  2.4446 -2.7080
  804SOL    MW4 2984   3.254   1.628   5.183 -0.0529  0.8708 -0.2461
  805SOL     OW 2985   4.511   2.927   5.115  0.2069  0.0814  0.3500
  805SOL    HW2 2986   4.426   2.893   5.088  0.4305  1.0428 -1.7143
  805SOL    HW3 2987   4.500   3.022   5.114  1.5219  0.2454 -0.7727
  805SOL    MW4 2988   4.498   2.935   5.112  0.4099  0.2299 -0.0705
  806SOL     OW 2989   3.007   2.367   2.417  0.4587  0.3885 -0.1695
  806SOL    HW2 2990   2.961   2.439   2.461  0.4741  0.9383 -1.0232
  806SOL    HW3 2991   3.051   2.409   2.343 -0.0177 -0.5935 -1.0346
  806SOL    MW4 2992   3.007   2.382   2.413  0.3979  0.3314 -0.3963
  807SOL     OW 2993   4.115   3.463   2.986  0.4843  0.0784 -0.1443
  807SOL    HW2 2994   4.036   3.506   3.020  0.9636  1.0035 -0.1885
  807SOL    HW3 2995   4.082   3.405   2.917 -0.2664 -0.3014  0.5192
  807SOL    MW4 2996   4.100   3.461   2.981  0.4485  0.1503 -0.0626
  808SOL     OW 2997   5.159   4.056   1.484 -0.2304  0.0414  0.6909
  808SOL    HW2 2998   5.089   3.991   1.478  0.7845 -0.9917 -0.8037
  808SOL    HW3 2999   5.118   4.138   1.456 -1.0438 -0.3761  0.6356
  808SOL    MW4 3000   5.145   4.058   1.479 -0.2038 -0.1500  0.4864
  809SOL     OW 3001   3.993   2.908   5.147  0.0472 -0.0543  0.1970
  809SOL    HW2 3002   3.960   2.879   5.232  0.7939 -0.4038  0.3759
  809SOL    HW3 3003   3.915   2.913   5.092 -0.4858  0.4098  0.9578
  809SOL    MW4 3004   3.978   2.905   5.151  0.0754 -0.0392  0.3210
  810SOL     OW 3005   4.084   0.994   2.491  0.6112 -0.2646  0.6446
  810SOL    HW2 3006   3.989   0.994   2.496  0.5932 -0.0013  0.3240
  810SOL    HW3 3007   4.111   1.064   2.550  0.6387 -0.8014  1.2774
  810SOL    MW4 3008   4.075   1.003   2.499  0.6124 -0.3007  0.6858
  811SOL     OW 3009   2.684   2.575   3.335  0.2744 -0.2719 -0.2628
  811SOL    HW2 3010   2.666   2.652   3.280 -0.6408 -0.8342 -0.7923
  811SOL    HW3 3011   2.772   2.589   3.368  0.0771  1.0692 -0.2458
  811SOL    MW4 3012   2.693   2.587   3.332  0.1277 -0.1691 -0.3304
  812SOL     OW 3013   3.945   1.918   1.432 -0.8223 -0.2907  0.5598
  812SOL    HW2 3014   3.895   1.864   1.371 -1.2954  0.4851  0.2579
  812SOL    HW3 3015   3.950   1.865   1.512  0.2857 -1.5631 -0.3083
  812SOL    MW4 3016   3.939   1.904   1.435 -0.7386 -0.3563  0.4055
  813SOL     OW 3017   4.923   1.774   1.412  0.1025 -0.0904  0.4947
  813SOL    HW2 3018   4.917   1.749   1.504  1.6878  0.8564  0.8980
  813SOL    HW3 3019   4.924   1.690   1.364 -0.7275 -0.5864  1.3103
  813SOL    MW4 3020   4.922   1.759   1.418  0.2022 -0.0309  0.6555
  814SOL     OW 3021   6.195   2.602   1.412  0.2063 -0.0226 -0.0089
  814SOL    HW2 3022   6.153   2.639   1.334  0.2906  0.0782 -0.0064
  814SOL    HW3 3023   6.161   2.513   1.417 -0.2711  0.1728  0.1927
  814SOL    MW4 3024   6.185   2.595   1.402  0.1544  0.0165  0.0180
  815SOL     OW 3025   4.542   0.107   3.898  0.1428  0.0790 -0.3329
  815SOL    HW2 3026   4.512   0.179   3.953 -1.3865 -0.3851 -0.5017
  815SOL    HW3 3027   4.519   0.134   3.809 -1.2850 -0.9545 -0.3224
  815SOL    MW4 3028   4.535   0.120   3.893 -0.2474 -0.1186 -0.3538
  816SOL     OW 3029   5.467   5.273   4.558  0.1892  0.1469 -0.6956
  816SOL    HW2 3030   5.424   5.332   4.496 -0.4132  0.0310 -0.4012
  816SOL    HW3 3031   5.396   5.241   4.613  0.6784  0.0463 -0.1126
  816SOL    MW4 3032   5.452   5.277   4.557  0.1743  0.1183 -0.5798
  817SOL     OW 3033   3.495   4.131   5.360 -0.0632  0.0990 -0.2238
  817SOL    HW2 3034   3.512   4.126   5.454 -0.4210 -1.4255 -0.2188
  817SOL    HW3 3035   3.412   4.178   5.353 -0.2177 -0.0983  0.2458
  817SOL    MW4 3036   3.486   4.137   5.371 -0.1308 -0.1282 -0.1612
  818SOL     OW 3037   1.658   6.035   4.404  0.3758  1.0208  0.4409
  818SOL    HW2 3038   1.694   6.056   4.491  0.4440  3.7784 -0.1573
  818SOL    HW3 3039   1.566   6.062   4.409 -0.5678 -1.8655  0.5796
  818SOL    MW4 3040   1.651   6.041   4.416  0.2603  1.0038  0.3803
  819SOL     OW 3041   5.865   2.856   6.037 -0.4366 -0.5333 -0.6899
  819SOL    HW2 3042   5.808   2.920   6.080 -0.1715  0.3979 -1.6740
  819SOL    HW3 3043   5.840   2.772   6.075 -0.7208  0.1594  0.7262
  819SOL    MW4 3044   5.854   2.853   6.048 -0.4391 -0.3190 -0.6329
  820SOL     OW 3045   4.845   4.962   3.929  0.5648 -0.2405  0.7576
  820SOL    HW2 3046   4.765   5.010   3.906  2.5597  1.2870 -4.5597
  820SOL    HW3 3047   4.884   5.014   3.999 -0.8848  1.8284  0.1402
  820SOL    MW4 3048   4.839   4.975   3.935  0.6367  0.2340 -0.0254
  821SOL     OW 3049   5.463   1.293   3.197 -0.1647  0.1451  0.2317
  821SOL    HW2 3050   5.532   1.294   3.264  1.9236 -2.0480 -1.6546
  821SOL    HW3 3051   5.467   1.380   3.158  1.3732  0.1713  0.3649
  821SOL    MW4 3052   5.473   1.304   3.201  0.3137 -0.1408  0.0004
  822SOL     OW 3053   6.087   4.509   3.377 -0.0137  0.0204 -0.3348
  822SOL    HW2 3054   6.131   4.524   3.294 -0.2758  0.2006 -0.4415
  822SOL    HW3 3055   5.995   4.533   3.361  0.0685  0.7120  0.1954
  822SOL    MW4 3056   6.080   4.514   3.364 -0.0374  0.1354 -0.2789
  823SOL     OW 3057   3.749   6.423   3.405  0.8292 -0.3902 -0.6449
  823SOL    HW2 3058   3.708   6.431   3.492  1.8183 -0.8324 -0.1164
  823SOL    HW3 3059   3.704   6.349   3.365 -0.6636  0.7324 -1.1256
  823SOL    MW4 3060   3.737   6.414   3.411  0.7627 -0.3004 -0.6386
  824SOL     OW 3061   3.307   1.171   5.609 -0.5099  0.4467  0.5100
  824SOL    HW2 3062   3.262   1.174   5.694  0.4172  0.1519  1.0181
  824SOL    HW3 3063   3.399   1.159   5.631 -0.5856 -2.9164 -0.5901
  824SOL    MW4 3064   3.313   1.170   5.623 -0.3975 -0.0359  0.4319
  825SOL     OW 3065   1.711   3.916   3.454  0.2665  0.1414 -0.3894
  825SOL    HW2 3066   1.787   3.900   3.398  1.0017  1.3897  0.1997
  825SOL    HW3 3067   1.718   3.851   3.524 -0.9185 -1.7422 -1.9214
  825SOL    MW4 3068   1.722   3.905   3.456  0.2072  0.0576 -0.5138
  826SOL     OW 3069   6.120   5.328   5.934 -0.4419 -0.5378  0.0363
  826SOL    HW2 3070   6.139   5.234   5.940  0.2846 -0.4257 -0.4082
  826SOL    HW3 3071   6.181   5.361   5.868 -1.1754  0.1195 -0.3361
  826SOL    MW4 3072   6.130   5.320   5.926 -0.4428 -0.4363 -0.0714
  827SOL     OW 3073   0.525   2.166   2.017 -0.0299 -0.5354 -0.0343
  827SOL    HW2 3074   0.605   2.219   2.015  0.4728 -1.0897  2.3904
  827SOL    HW3 3075   0.553   2.083   2.056 -1.3849 -1.5272 -1.1323
  827SOL    MW4 3076   0.540   2.162   2.022 -0.1424 -0.7394  0.1408
  828SOL     OW 3077   0.750   0.281   3.707  0.3163  0.3022 -0.6339
  828SOL    HW2 3078   0.747   0.215   3.776 -1.3707  0.3604 -0.6094
  828SOL    HW3 3079   0.782   0.234   3.630 -1.6350 -0.8132 -0.8355
  828SOL    MW4 3080   0.753   0.266   3.706 -0.1637  0.1627 -0.6573
  829SOL     OW 3081   0.056   3.087   0.524 -0.1721 -0.0352 -0.3535
  829SOL    HW2 3082   0.152   3.080   0.519 -0.2036 -2.2828  0.8410
  829SOL    HW3 3083   0.033   3.144   0.451  2.1852  2.0720  0.3938
  829SOL    MW4 3084   0.066   3.093   0.514  0.1348 -0.0538 -0.0973
  830SOL     OW 3085   3.280   2.712   6.348 -0.8571  0.4000 -0.2863
  830SOL    HW2 3086   3.316   2.797   6.373  0.9931 -0.4920  0.1846
  830SOL    HW3 3087   3.291   2.657   6.425 -0.8051 -0.6523 -1.0244
  830SOL    MW4 3088   3.286   2.716   6.361 -0.6061  0.1435 -0.3216
  831SOL     OW 3089   6.270   3.839   1.920  0.0246  0.4161 -0.0696
  831SOL    HW2 3090   6.284   3.873   2.009 -1.1238 -0.7061  0.5720
  831SOL    HW3 3091   6.356   3.807   1.893 -0.0057 -1.0552  1.4504
  831SOL    MW4 3092   6.283   3.839   1.928 -0.1309  0.0739  0.2156
  832SOL     OW 3093   2.216   0.341   5.523 -0.2807 -0.9806  0.5289
  832SOL    HW2 3094   2.155   0.414   5.514  1.2358  0.1967 -0.4360
  832SOL    HW3 3095   2.217   0.322   5.617 -0.6140  0.2910  0.7998
  832SOL    MW4 3096   2.208   0.348   5.534 -0.1246 -0.6575  0.4373
  833SOL     OW 3097   5.612   2.898   1.258 -0.5349  0.2164 -0.1124
  833SOL    HW2 3098   5.617   2.962   1.187 -0.2373 -0.8996 -1.1085
  833SOL    HW3 3099   5.593   2.815   1.216  3.0815 -1.2012  0.6448
  833SOL    MW4 3100   5.610   2.896   1.243 -0.0185 -0.1179 -0.1439
  834SOL     OW 3101   5.123   4.625   3.857 -0.0918 -0.2104  0.1211
  834SOL    HW2 3102   5.119   4.549   3.800 -0.4725  0.0254 -0.1760
  834SOL    HW3 3103   5.106   4.590   3.945  4.0905 -1.1795  0.7561
  834SOL    MW4 3104   5.120   4.611   3.861  0.4098 -0.3071  0.1657
  835SOL     OW 3105   0.910   2.804   2.669  0.4970 -0.3407 -0.7432
  835SOL    HW2 3106   0.865   2.721   2.685  1.0204 -0.6433 -0.8487
  835SOL    HW3 3107   0.840   2.864   2.641  0.3513 -1.2023 -2.3476
  835SOL    MW4 3108   0.894   2.801   2.667  0.5468 -0.4943 -0.9688
  836SOL     OW 3109   0.719   0.531   4.266 -0.2232  0.5029  0.4465
  836SOL    HW2 3110   0.787   0.465   4.247 -1.1369  0.3219 -2.6425
  836SOL    HW3 3111   0.637   0.483   4.258 -0.8347  1.3285  1.5361
  836SOL    MW4 3112   0.717   0.516   4.263 -0.4245  0.5880  0.1827
  837SOL     OW 3113   0.814   0.535   1.143  0.8609  0.3918  0.5266
  837SOL    HW2 3114   0.815   0.445   1.110  0.7234  0.6100 -0.0793
  837SOL    HW3 3115   0.859   0.530   1.228 -0.5151 -0.5284  1.2311
  837SOL    MW4 3116   0.820   0.522   1.150  0.6612  0.2992  0.5396
  838SOL     OW 3117   4.440   4.752   1.623 -0.7025 -0.0458  0.5145
  838SOL    HW2 3118   4.354   4.775   1.589 -0.3235 -0.0907 -0.5252
  838SOL    HW3 3119   4.436   4.657   1.636 -0.5212 -0.2001 -0.4568
  838SOL    MW4 3120   4.428   4.742   1.620 -0.6286 -0.0720  0.2492
  839SOL     OW 3121   2.607   5.925   0.691 -0.4544  0.2722 -0.2526
  839SOL    HW2 3122   2.683   5.867   0.680 -0.8566 -0.3885  0.3222
  839SOL    HW3 3123   2.537   5.867   0.718 -0.9639  0.9919  0.0018
  839SOL    MW4 3124   2.608   5.910   0.693 -0.5747  0.2800 -0.1432
  840SOL     OW 3125   2.259   0.110   6.053  0.6214  0.4452 -0.2388
  840SOL    HW2 3126   2.268   0.149   5.967 -0.6454 -0.4145 -0.7957
  840SOL    HW3 3127   2.273   0.016   6.038 -1.3186  0.0575  0.1481
  840SOL    MW4 3128   2.262   0.103   6.040  0.1983  0.2806 -0.2612
  841SOL     OW 3129   3.415   3.704   2.195 -0.9591  0.4362 -0.0938
  841SOL    HW2 3130   3.412   3.677   2.287 -2.5315  0.2771 -0.1577
  841SOL    HW3 3131   3.488   3.654   2.158 -0.5268  0.2428  0.9868
  841SOL    MW4 3132   3.424   3.694   2.202 -1.1095  0.3897  0.0403
  842SOL     OW 3133   5.688   4.370   0.917  0.6492 -0.0681 -0.3442
  842SOL    HW2 3134   5.640   4.345   0.996  1.0652 -0.0597 -0.0837
  842SOL    HW3 3135   5.671   4.299   0.855  2.0853 -1.2316  0.4982
  842SOL    MW4 3136   5.680   4.357   0.919  0.8936 -0.2205 -0.1986
  843SOL     OW 3137   1.011   4.244   3.540  0.6252  0.0382 -0.3006
  843SOL    HW2 3138   1.072   4.268   3.471 -1.4112 -0.2650 -2.3375
  843SOL    HW3 3139   0.930   4.220   3.494 -0.1987 -2.2783  2.0556
  843SOL    MW4 3140   1.008   4.244   3.525  0.2478 -0.3074 -0.2585
  844SOL     OW 3141   0.921   2.911   2.271 -0.3292 -0.0466  0.4638
  844SOL    HW2 3142   0.986   2.861   2.222  0.0437  0.2140  0.6802
  844SOL    HW3 3143   0.939   2.890   2.363 -0.0449  0.6188  0.5677
  844SOL    MW4 3144   0.932   2.902   2.277 -0.2425  0.0756  0.5061
  845SOL     OW 3145   0.080   1.251   2.298 -0.0066  0.5542  0.3786
  845SOL    HW2 3146  -0.000   1.217   2.259  1.5959 -0.3242 -2.4517
  845SOL    HW3 3147   0.063   1.251   2.392 -3.5011  1.0116 -0.1093
  845SOL    MW4 3148   0.067   1.246   2.305 -0.2563  0.4986 -0.0592
  846SOL     OW 3149   3.818   0.152   0.129  0.1269 -0.0726 -0.7223
  846SOL    HW2 3150   3.769   0.106   0.061 -0.2652  0.9930 -1.1662
  846SOL    HW3 3151   3.782   0.240   0.130  0.1536 -0.0467  0.8388
  846SOL    MW4 3152   3.807   0.157   0.120  0.0787  0.0714 -0.5749
  847SOL     OW 3153   5.008   3.812   5.446  0.3863  0.6079  0.0596
  847SOL    HW2 3154   5.088   3.777   5.406 -0.7412 -1.6539 -0.3259
  847SOL    HW3 3155   5.040   3.883   5.503  2.4362  1.1393 -1.6129
  847SOL    MW4 3156   5.023   3.817   5.448  0.5080  0.3796 -0.2120
  848SOL     OW 3157   1.559   6.106   2.289  0.3073 -0.1012 -0.2913
  848SOL    HW2 3158   1.638   6.103   2.343 -0.2995  0.1769  0.6357
  848SOL    HW3 3159   1.581   6.165   2.217  0.9380 -0.0105 -0.0281
  848SOL    MW4 3160   1.572   6.113   2.287  0.3104 -0.0526 -0.1342
  849SOL     OW 3161   1.705   2.851   4.564 -0.5338 -0.1423 -1.0346
  849SOL    HW2 3162   1.753   2.903   4.499  1.4543  0.2273  0.6051
  849SOL    HW3 3163   1.679   2.915   4.630 -2.2154 -0.5632 -1.2584
  849SOL    MW4 3164   1.708   2.866   4.564 -0.4933 -0.1491 -0.8478
  850SOL     OW 3165   2.645   5.697   5.916 -0.4330  0.1564 -0.0885
  850SOL    HW2 3166   2.658   5.609   5.881  0.5168  0.6118 -0.9415
  850SOL    HW3 3167   2.619   5.750   5.841 -0.4507  0.7219  0.3039
  850SOL    MW4 3168   2.643   5.693   5.902 -0.3100  0.2911 -0.1493
  851SOL     OW 3169   5.552   6.133   6.072  0.1150 -0.5962 -0.3570
  851SOL    HW2 3170   5.548   6.160   5.981 -0.1363 -2.0487 -0.8004
  851SOL    HW3 3171   5.463   6.102   6.092  0.4640 -1.3976  0.0146
  851SOL    MW4 3172   5.540   6.133   6.063  0.1279 -0.8936 -0.3665
  852SOL     OW 3173   1.202   1.610   2.724  0.4393  0.0877  0.3548
  852SOL    HW2 3174   1.126   1.622   2.781 -0.1081  1.6302 -0.6448
  852SOL    HW3 3175   1.276   1.603   2.784 -0.1831  1.1805  1.2978
  852SOL    MW4 3176   1.202   1.611   2.739  0.2849  0.4354  0.3473
  853SOL     OW 3177   2.256   5.749   3.399  0.4279 -0.3837 -0.1308
  853SOL    HW2 3178   2.351   5.738   3.392  0.5493 -0.8143  1.6811
  853SOL    HW3 3179   2.240   5.757   3.493 -1.4398 -1.3200 -0.3302
  853SOL    MW4 3180   2.267   5.749   3.411  0.1975 -0.5640  0.0819
  854SOL     OW 3181   1.070   2.941   3.986  0.1262 -0.3855  0.6847
  854SOL    HW2 3182   1.162   2.944   4.009  0.3240 -0.4098 -0.0884
  854SOL    HW3 3183   1.024   2.936   4.070  0.8452 -0.9383  1.0478
  854SOL    MW4 3184   1.076   2.941   4.000  0.2471 -0.4616  0.6306
  855SOL     OW 3185   4.609   5.929   2.993  0.1430 -0.3889  0.2018
  855SOL    HW2 3186   4.689   5.981   3.003 -0.7054  0.8275  0.9824
  855SOL    HW3 3187   4.639   5.846   2.956  1.8502 -0.2266  1.1100
  855SOL    MW4 3188   4.623   5.925   2.989  0.2563 -0.2070  0.4246
  856SOL     OW 3189   0.934   1.696   1.280 -0.8063  0.5743  0.3578
  856SOL    HW2 3190   0.974   1.617   1.317 -1.9265  0.4156  1.2780
  856SOL    HW3 3191   0.848   1.701   1.322 -1.2122  1.6497 -0.5607
  856SOL    MW4 3192   0.928   1.686   1.290 -1.0077  0.6953  0.3580
  857SOL     OW 3193   6.298   3.810   2.677 -0.4055  0.4019 -0.4307
  857SOL    HW2 3194   6.220   3.764   2.646  0.4901 -0.0371 -2.1687
  857SOL    HW3 3195   6.363   3.740   2.689  0.2669  0.9637 -0.7815
  857SOL    MW4 3196   6.296   3.794   2.675 -0.1986  0.4181 -0.7063
  858SOL     OW 3197   5.178   1.886   1.227  0.1246  0.0636 -0.2419
  858SOL    HW2 3198   5.156   1.898   1.135  0.3604  1.3608 -0.1394
  858SOL    HW3 3199   5.094   1.865   1.269 -0.2387  0.9056 -0.5259
  858SOL    MW4 3200   5.164   1.884   1.221  0.1078  0.3458 -0.2659
  859SOL     OW 3201   6.131   4.544   2.271  0.5085  0.6706  0.5188
  859SOL    HW2 3202   6.190   4.483   2.227 -0.0832  1.6671 -1.7932
  859SOL    HW3 3203   6.059   4.489   2.303  0.0406  0.0701 -1.4136
  859SOL    MW4 3204   6.129   4.528   2.270  0.3687  0.7228 -0.0412
  860SOL     OW 3205   0.574   0.477   0.932 -0.3855 -0.1672 -0.0484
  860SOL    HW2 3206   0.521   0.476   1.012  0.5679  0.6040  0.6156
  860SOL    HW3 3207   0.511   0.499   0.863 -1.7732 -3.4382 -0.0106
  860SOL    MW4 3208   0.559   0.480   0.934 -0.4428 -0.4970  0.0442
  861SOL     OW 3209   3.421   2.468   1.888  0.3051  0.1640 -0.6756
  861SOL    HW2 3210   3.498   2.432   1.843  0.8850 -0.4292  0.7445
  861SOL    HW3 3211   3.394   2.399   1.949 -0.6292  0.8385 -0.3061
  861SOL    MW4 3212   3.428   2.454   1.890  0.2584  0.1748 -0.4395
  862SOL     OW 3213   0.888   2.673   5.032 -0.3757  0.1181  0.1562
  862SOL    HW2 3214   0.828   2.618   5.082 -0.0948 -0.6219 -0.2982
  862SOL    HW3 3215   0.836   2.704   4.958 -0.7969  1.2301  0.9002
  862SOL    MW4 3216   0.873   2.670   5.028 -0.3942  0.1672  0.1944
  863SOL     OW 3217   0.215   2.205   4.105 -0.0172  0.2549 -0.0923
  863SOL    HW2 3218   0.172   2.242   4.183 -1.4518  1.1176 -1.2499
  863SOL    HW3 3219   0.219   2.278   4.044 -1.9068 -1.1667 -2.0537
  863SOL    MW4 3220   0.210   2.220   4.108 -0.4558  0.1811 -0.5038
  864SOL     OW 3221   0.488   5.437   3.411  0.1622 -0.1848  0.3151
  864SOL    HW2 3222   0.415   5.496   3.391 -1.3717 -1.8721  0.7176
  864SOL    HW3 3223   0.511   5.458   3.502  1.2641  1.3946 -0.2709
  864SOL    MW4 3224   0.482   5.448   3.421  0.1052 -0.1990  0.2909
  865SOL     OW 3225   0.385   3.216   1.903  0.5225  0.3181  0.0334
  865SOL    HW2 3226   0.339   3.281   1.850  2.1478  0.9851 -0.6213
  865SOL    HW3 3227   0.471   3.255   1.920  0.3515 -0.2115  2.5213
  865SOL    MW4 3228   0.391   3.230   1.898  0.7144  0.3363  0.2753
  866SOL     OW 3229   1.133   3.991   3.620 -0.8604 -0.5399  0.9383
  866SOL    HW2 3230   1.133   3.981   3.715 -2.3661 -1.7263  0.8662
  866SOL    HW3 3231   1.092   4.076   3.605 -0.3623 -0.2251  1.3542
  866SOL    MW4 3232   1.127   4.001   3.630 -0.9933 -0.6549  0.9837
  867SOL     OW 3233   0.362   1.796   3.546  0.7854  0.4234 -0.5716
  867SOL    HW2 3234   0.397   1.722   3.596  0.7303  0.6985 -0.1270
  867SOL    HW3 3235   0.405   1.788   3.461 -1.1857 -1.6701 -1.4852
  867SOL    MW4 3236   0.372   1.785   3.541  0.5181  0.1835 -0.6335
  868SOL     OW 3237   4.193   1.202   2.649  0.2470  0.6444  0.2839
  868SOL    HW2 3238   4.120   1.253   2.685 -0.1706  0.0153  0.3313
  868SOL    HW3 3239   4.252   1.268   2.612 -0.4063  1.1495  0.1244
  868SOL    MW4 3240   4.192   1.218   2.649  0.1057  0.6281  0.2691
  869SOL     OW 3241   5.901   3.420   2.706 -0.2215  0.3916 -0.5701
  869SOL    HW2 3242   5.926   3.343   2.655  0.5134  0.2083  0.0388
  869SOL    HW3 3243   5.968   3.426   2.774  0.4951  2.3398 -1.3696
  869SOL    MW4 3244   5.913   3.410   2.708 -0.0300  0.6244 -0.5953
  870SOL     OW 3245   2.596   5.991   5.023  0.1075 -0.0087  0.6691
  870SOL    HW2 3246   2.691   5.994   5.017  0.1566 -1.2316  0.5032
  870SOL    HW3 3247   2.576   5.899   5.042 -0.9722  0.4628  2.0338
  870SOL    MW4 3248   2.606   5.979   5.025 -0.0285 -0.1078  0.8273
  871SOL     OW 3249   0.817   3.479   2.729  0.2652  0.0306 -0.4879
  871SOL    HW2 3250   0.875   3.407   2.706  0.6584  0.1265  0.1821
  871SOL    HW3 3251   0.739   3.465   2.676  0.9248 -0.0553 -1.4527
  871SOL    MW4 3252   0.814   3.468   2.719  0.4041  0.0320 -0.5268
  872SOL     OW 3253   0.454   6.093   4.888 -0.4254 -0.5405 -0.0726
  872SOL    HW2 3254   0.403   6.091   4.807  0.0639 -1.4185 -0.3671
  872SOL    HW3 3255   0.542   6.065   4.862 -0.0073  0.1240  0.5882
  872SOL    MW4 3256   0.459   6.089   4.874 -0.3057 -0.5686 -0.0243
  873SOL     OW 3257   5.410   1.530   3.445  0.0480  0.0242  0.3101
  873SOL    HW2 3258   5.476   1.469   3.413 -0.3161  0.2568 -0.9572
  873SOL    HW3 3259   5.332   1.477   3.458 -0.1207  0.1088 -0.2976
  873SOL    MW4 3260   5.409   1.515   3.442 -0.0223  0.0660  0.0628
  874SOL     OW 3261   0.631   5.373   0.466 -0.4662 -0.3241 -0.0072
  874SOL    HW2 3262   0.645   5.446   0.526 -0.6229  1.1081 -1.6337
  874SOL    HW3 3263   0.674   5.400   0.385 -1.0440 -1.7904 -0.8471
  874SOL    MW4 3264   0.639   5.386   0.463 -0.5631 -0.3286 -0.3326
  875SOL     OW 3265   4.116   4.722   1.338 -0.0517 -0.0411 -0.0875
  875SOL    HW2 3266   4.197   4.671   1.331  0.2961  0.5762 -0.6889
  875SOL    HW3 3267   4.138   4.794   1.398 -0.2660 -0.0857  0.0436
  875SOL    MW4 3268   4.130   4.725   1.345 -0.0341  0.0345 -0.1495
  876SOL     OW 3269   4.371   4.931   4.925  0.2317 -0.3052 -0.0835
  876SOL    HW2 3270   4.427   5.005   4.945 -0.6807  0.2560  0.4446
  876SOL    HW3 3271   4.408   4.859   4.976  1.5865 -0.4477 -1.1965
  876SOL    MW4 3272   4.384   4.931   4.934  0.2901 -0.2500 -0.1607
  877SOL     OW 3273   4.712   4.185   0.697 -0.1074  0.5271  0.1995
  877SOL    HW2 3274   4.766   4.149   0.626 -1.1153  1.0626 -0.8788
  877SOL    HW3 3275   4.770   4.186   0.773  0.6816 -1.0507 -0.3433
  877SOL    MW4 3276   4.727   4.181   0.698 -0.1363  0.3896 -0.0144
  878SOL     OW 3277   6.359   3.739   2.204  0.5763 -0.1626 -0.2000
  878SOL    HW2 3278   6.419   3.678   2.162  1.7804  1.5665 -1.0975
  878SOL    HW3 3279   6.415   3.811   2.233 -0.9506  1.1016 -0.2860
  878SOL    MW4 3280   6.374   3.740   2.202  0.5337  0.2324 -0.3297
  879SOL     OW 3281   2.705   0.691   0.036  0.1805 -0.4078 -0.1658
  879SOL    HW2 3282   2.732   0.758   0.098  1.2592 -0.7571 -0.2255
  879SOL    HW3 3283   2.744   0.719  -0.047  3.6501 -2.7617  0.4554
  879SOL    MW4 3284   2.714   0.703   0.033  0.7806 -0.7645 -0.0917
  880SOL     OW 3285   2.225   0.736   0.533 -0.1843  0.1214  0.2418
  880SOL    HW2 3286   2.178   0.817   0.554 -2.0370 -0.5317 -1.1273
  880SOL    HW3 3287   2.246   0.744   0.440 -0.9946 -1.2200 -0.0897
  880SOL    MW4 3288   2.222   0.748   0.524 -0.5357 -0.1417  0.0174
  881SOL     OW 3289   3.899   0.829   2.721 -0.2944 -0.2418  0.2288
  881SOL    HW2 3290   3.863   0.915   2.742  0.5318  0.2221 -0.1795
  881SOL    HW3 3291   3.883   0.819   2.627 -0.4858 -0.5779  0.2986
  881SOL    MW4 3292   3.892   0.839   2.712 -0.2107 -0.2249  0.1842
  882SOL     OW 3293   3.663   2.177   6.208 -0.0819 -0.4058  0.0943
  882SOL    HW2 3294   3.628   2.256   6.250 -1.0915 -0.4699 -0.5860
  882SOL    HW3 3295   3.668   2.113   6.279 -2.1327 -0.6312  0.1000
  882SOL    MW4 3296   3.659   2.179   6.223 -0.4857 -0.4440  0.0053
  883SOL     OW 3297   2.334   4.202   4.038  0.1917 -0.2334 -0.3702
  883SOL    HW2 3298   2.266   4.268   4.022  0.6097  1.5707  3.8395
  883SOL    HW3 3299   2.416   4.249   4.030  0.5642 -0.5218  1.3421
  883SOL    MW4 3300   2.336   4.217   4.035  0.2960 -0.0334  0.4112
  884SOL     OW 3301   1.641   5.072   2.374 -0.4223  0.2213  0.5643
  884SOL    HW2 3302   1.619   4.983   2.402 -1.6532 -0.1482 -1.4122
  884SOL    HW3 3303   1.735   5.068   2.354 -0.0418 -0.0968  2.2355
  884SOL    MW4 3304   1.651   5.060   2.375 -0.5345  0.1306  0.5240
  885SOL     OW 3305   5.527   3.333   0.106  0.8489 -0.3677 -0.1621
  885SOL    HW2 3306   5.619   3.359   0.106  0.7952 -0.1004 -1.3068
  885SOL    HW3 3307   5.496   3.351   0.195  1.8456 -0.2734  0.1740
  885SOL    MW4 3308   5.535   3.339   0.118  0.9733 -0.3200 -0.2688
  886SOL     OW 3309   0.684   3.430   4.554 -0.0539 -0.2301 -0.0703
  886SOL    HW2 3310   0.686   3.491   4.480  0.1083  0.4789  0.5185
  886SOL    HW3 3311   0.594   3.435   4.587 -0.3053 -1.0120 -0.5874
  886SOL    MW4 3312   0.672   3.439   4.548 -0.0657 -0.2397 -0.0609
  887SOL     OW 3313   0.385   5.239   0.552  0.6749  0.3857 -0.1220
  887SOL    HW2 3314   0.334   5.285   0.618  2.3275 -1.4456  2.6050
  887SOL    HW3 3315   0.454   5.300   0.528 -0.1105  1.1732 -0.4520
  887SOL    MW4 3316   0.387   5.253   0.557  0.7893  0.2480  0.1942
  888SOL     OW 3317   0.576   2.018   2.389  0.3669 -0.2985 -0.0368
  888SOL    HW2 3318   0.664   2.010   2.427  0.6704  0.5192 -0.5257
  888SOL    HW3 3319   0.587   1.989   2.299  0.1984  0.0763 -0.1776
  888SOL    MW4 3320   0.589   2.013   2.382  0.3847 -0.1412 -0.1199
  889SOL     OW 3321   5.566   3.803   0.837  0.1648 -0.4232  0.1380
  889SOL    HW2 3322   5.586   3.849   0.755 -0.1514 -2.3704 -1.0967
  889SOL    HW3 3323   5.470   3.800   0.839  0.1805 -1.6027 -0.1720
  889SOL    MW4 3324   5.556   3.809   0.826  0.1252 -0.8358 -0.0658
  890SOL     OW 3325   0.245   3.254   6.006  0.3594 -0.1130  0.0608
  890SOL    HW2 3326   0.203   3.172   5.978  1.6727 -0.7949  0.0266
  890SOL    HW3 3327   0.181   3.322   5.984 -1.3411 -1.2190  1.3210
  890SOL    MW4 3328   0.231   3.252   5.999  0.3083 -0.3489  0.2225
  891SOL     OW 3329   4.781   3.219   0.091 -0.4827  0.7984  0.0548
  891SOL    HW2 3330   4.846   3.196   0.158 -1.3860  0.2296  0.7593
  891SOL    HW3 3331   4.748   3.135   0.059 -0.6942  1.0767 -0.4596
  891SOL    MW4 3332   4.785   3.205   0.096 -0.6298  0.7601  0.0799
  892SOL     OW 3333   1.898   2.189   1.557  0.1479 -0.0166  0.4345
  892SOL    HW2 3334   1.881   2.250   1.485  1.3577  0.0245  0.1647
  892SOL    HW3 3335   1.985   2.155   1.540 -0.2243 -1.3004  0.9765
  892SOL    MW4 3336   1.907   2.193   1.545  0.2584 -0.1806  0.4704
  893SOL     OW 3337   2.231   3.568   1.595  0.1521 -0.5861  0.0290
  893SOL    HW2 3338   2.243   3.522   1.678  1.0343 -0.2266  0.1104
  893SOL    HW3 3339   2.319   3.595   1.569 -0.3226  1.0794  0.0157
  893SOL    MW4 3340   2.244   3.566   1.602  0.2058 -0.3190  0.0380
  894SOL     OW 3341   2.933   6.132   3.561  0.3853  0.3722 -0.0801
  894SOL    HW2 3342   3.025   6.126   3.587  0.3429 -1.6077 -0.1940
  894SOL    HW3 3343   2.887   6.149   3.643  0.8240  1.0144  0.0368
  894SOL    MW4 3344   2.939   6.133   3.575  0.4376  0.1957 -0.0797
  895SOL     OW 3345   2.322   0.351   0.743  0.5976 -0.5505  0.3870
  895SOL    HW2 3346   2.383   0.392   0.805 -0.5052  2.0331 -0.1147
  895SOL    HW3 3347   2.364   0.364   0.657  0.3840 -0.8003  0.2443
  895SOL    MW4 3348   2.336   0.358   0.739  0.4239 -0.2426  0.3020
  896SOL     OW 3349   3.907   1.863   5.380 -0.4535 -0.6023 -0.1593
  896SOL    HW2 3350   3.921   1.782   5.331 -0.4111  0.0255 -1.2180
  896SOL    HW3 3351   3.876   1.834   5.466  0.5599 -1.7744 -0.1612
  896SOL    MW4 3352   3.905   1.848   5.385 -0.3142 -0.6741 -0.2992
  897SOL     OW 3353   6.210   4.553   1.041 -0.9172 -0.1426 -0.0719
  897SOL    HW2 3354   6.227   4.630   1.096 -0.7675 -0.0491 -0.2433
  897SOL    HW3 3355   6.283   4.494   1.058 -1.0196 -0.2364  0.0416
  897SOL    MW4 3356   6.222   4.556   1.050 -0.9109 -0.1426 -0.0795
  898SOL     OW 3357   4.967   3.893   1.242 -0.2528  0.9898  0.2675
  898SOL    HW2 3358   5.057   3.909   1.217  0.3856 -1.0522  1.0448
  898SOL    HW3 3359   4.970   3.883   1.337 -0.3639 -3.5312  0.0328
  898SOL    MW4 3360   4.979   3.893   1.251 -0.1833  0.1239  0.3391
  899SOL     OW 3361   5.812   0.271   1.397  0.4477 -0.0652 -0.0379
  899SOL    HW2 3362   5.728   0.288   1.354 -0.1956 -0.3680  1.0665
  899SOL    HW3 3363   5.868   0.237   1.327 -0.4277 -0.1237 -0.7290
  899SOL    MW4 3364   5.808   0.269   1.382  0.2474 -0.1129  0.0166
  900SOL     OW 3365   0.429   0.634   4.616 -0.9320 -0.0204  0.1093
  900SOL    HW2 3366   0.522   0.628   4.596 -0.2719  1.2295  2.4435
  900SOL    HW3 3367   0.409   0.553   4.663 -1.1912 -0.5074 -0.7998
  900SOL    MW4 3368   0.438   0.622   4.619 -0.8791  0.0803  0.2973
  901SOL     OW 3369   0.776   1.748   4.638  0.0594  0.0141 -0.0010
  901SOL    HW2 3370   0.747   1.664   4.675  0.3390 -0.1584 -0.1598
  901SOL    HW3 3371   0.706   1.774   4.579 -0.3753  0.2761  0.6263
  901SOL    MW4 3372   0.763   1.740   4.635  0.0390  0.0259  0.0608
  902SOL     OW 3373   2.400   5.558   5.619 -0.0051 -0.0120 -0.2391
  902SOL    HW2 3374   2.353   5.519   5.545 -0.2378  0.9083 -0.5899
  902SOL    HW3 3375   2.338   5.621   5.655  1.2715  1.8962 -1.2741
  902SOL    MW4 3376   2.385   5.561   5.614  0.1326  0.3612 -0.4219
  903SOL     OW 3377   4.769   5.141   0.956  0.5167 -0.5721 -0.2557
  903SOL    HW2 3378   4.689   5.105   0.917  0.2657 -2.1010  1.5161
  903SOL    HW3 3379   4.824   5.065   0.970  2.2894  0.4473 -1.3175
  903SOL    MW4 3380   4.766   5.126   0.953  0.7174 -0.6393 -0.1620
  904SOL     OW 3381   4.482   3.456   5.688  0.7672  0.3750 -0.4463
  904SOL    HW2 3382   4.488   3.494   5.601  3.8402 -0.0688 -0.5409
  904SOL    HW3 3383   4.572   3.435   5.711 -0.1605 -1.3753  2.0318
  904SOL    MW4 3384   4.495   3.458   5.680  1.0502  0.0855 -0.1318
  905SOL     OW 3385   4.263   1.198   2.927  0.1048  0.3131 -0.3958
  905SOL    HW2 3386   4.237   1.189   2.835 -0.4104  0.6600 -0.2913
  905SOL    HW3 3387   4.281   1.109   2.956 -1.1450  0.0309 -0.4322
  905SOL    MW4 3388   4.262   1.185   2.919 -0.1281  0.3217 -0.3869
  906SOL     OW 3389   2.188   3.812   3.963 -0.5876 -0.3801 -0.1741
  906SOL    HW2 3390   2.206   3.735   3.909 -0.5002 -0.8216  0.4763
  906SOL    HW3 3391   2.262   3.871   3.947  0.0934 -1.0597  0.4568
  906SOL    MW4 3392   2.200   3.810   3.954 -0.4862 -0.5280 -0.0051
  907SOL     OW 3393   2.956   3.934   6.392  0.6037 -0.2341  0.2618
  907SOL    HW2 3394   2.908   4.000   6.441  0.0583 -1.5229  1.5417
  907SOL    HW3 3395   3.047   3.942   6.423  0.7971  0.7131 -0.5093
  907SOL    MW4 3396   2.962   3.944   6.403  0.5572 -0.2792  0.3289
  908SOL     OW 3397   3.285   1.405   2.613 -0.4873 -0.5573 -0.0747
  908SOL    HW2 3398   3.303   1.449   2.697 -1.3499  0.0660 -0.2053
  908SOL    HW3 3399   3.346   1.446   2.552 -0.4681 -0.3792  0.0609
  908SOL    MW4 3400   3.296   1.416   2.616 -0.5985 -0.4516 -0.0741
  909SOL     OW 3401   3.636   2.089   4.053 -0.4129  0.3821 -0.3899
  909SOL    HW2 3402   3.598   2.036   4.123  0.1215  1.7756  1.0147
  909SOL    HW3 3403   3.596   2.056   3.973 -1.3595 -0.9854  0.6083
  909SOL    MW4 3404   3.626   2.078   4.052 -0.4673  0.3855 -0.0729
  910SOL     OW 3405   5.024   3.370   5.115 -0.0413 -0.3186  0.0261
  910SOL    HW2 3406   5.048   3.318   5.192 -1.6199  0.4268  1.0688
  910SOL    HW3 3407   5.011   3.458   5.148  1.7637  0.6193 -1.5789
  910SOL    MW4 3408   5.025   3.375   5.129 -0.0114 -0.0965 -0.0481
  911SOL     OW 3409   6.438   3.158   4.260  0.5715 -0.5485  0.2840
  911SOL    HW2 3410   6.462   3.218   4.190  1.2041 -0.1560  0.8265
  911SOL    HW3 3411   6.464   3.203   4.340  1.7389 -1.8332  0.6669
  911SOL    MW4 3412   6.445   3.172   4.261  0.8090 -0.6662  0.4061
  912SOL     OW 3413   1.314   2.818   1.951 -0.1511 -0.3605 -0.6231
  912SOL    HW2 3414   1.267   2.898   1.973 -0.1341 -0.4198 -0.3658
  912SOL    HW3 3415   1.403   2.847   1.931  0.2520 -0.4596  0.8895
  912SOL    MW4 3416   1.320   2.832   1.952 -0.0957 -0.3814 -0.3896
  913SOL     OW 3417   1.171   1.522   6.277 -0.7624  0.1673 -0.1071
  913SOL    HW2 3418   1.239   1.461   6.307 -0.5097  1.1130  1.3262
  913SOL    HW3 3419   1.122   1.545   6.356 -0.6022  2.1177 -0.5274
  913SOL    MW4 3420   1.174   1.517   6.291 -0.7079  0.5494  0.0265
  914SOL     OW 3421   0.685   6.215   5.174  0.2393  0.6961  0.2200
  914SOL    HW2 3422   0.634   6.137   5.194  0.0521  0.5365 -0.8153
  914SOL    HW3 3423   0.754   6.217   5.240 -0.9507  0.7826  1.4989
  914SOL    MW4 3424   0.687   6.205   5.186  0.0576  0.6865  0.2521
  915SOL     OW 3425   5.373   1.086   2.420  0.3879 -0.1831  0.0085
  915SOL    HW2 3426   5.335   1.078   2.333 -0.4298 -0.7736  0.4031
  915SOL    HW3 3427   5.452   1.032   2.416  2.1887  2.3292 -1.3036
  915SOL    MW4 3428   5.378   1.078   2.408  0.5176  0.0704 -0.1126
  916SOL     OW 3429   5.146   5.068   5.575  0.3035  0.3498 -0.0041
  916SOL    HW2 3430   5.098   5.039   5.653 -2.8186 -0.6574 -2.0895
  916SOL    HW3 3431   5.170   4.986   5.530 -2.7434  0.7110 -2.6528
  916SOL    MW4 3432   5.143   5.053   5.579 -0.5104  0.2646 -0.6287
  917SOL     OW 3433   0.493   6.390   5.246  0.2760 -0.1288  0.4244
  917SOL    HW2 3434   0.561   6.332   5.210 -0.7237 -1.4843  0.6245
  917SOL    HW3 3435   0.418   6.332   5.260 -0.1803  0.8437  2.3739
  917SOL    MW4 3436   0.492   6.374   5.243  0.0839 -0.1793  0.7081
  918SOL     OW 3437   0.472   0.665   3.381  0.2296  0.6044 -0.1682
  918SOL    HW2 3438   0.417   0.595   3.345 -0.7595  1.7581 -0.9466
  918SOL    HW3 3439   0.436   0.681   3.468  0.8188 -0.2209  0.2425
  918SOL    MW4 3440   0.460   0.658   3.388  0.1769  0.6477 -0.2167
  919SOL     OW 3441   1.302   3.776   5.430 -0.0355  0.2411 -0.8521
  919SOL    HW2 3442   1.357   3.704   5.460  0.0767  0.4396 -0.5689
  919SOL    HW3 3443   1.349   3.813   5.355  0.4325  0.6676 -0.3600
  919SOL    MW4 3444   1.316   3.772   5.424  0.0410  0.3236 -0.7498
  920SOL     OW 3445   5.644   2.938   0.453  0.1434  0.0257  0.5701
  920SOL    HW2 3446   5.653   3.007   0.518 -1.8379 -0.3871  1.3649
  920SOL    HW3 3447   5.706   2.870   0.481 -0.8684 -0.2587  2.2362
  920SOL    MW4 3448   5.654   2.938   0.465 -0.2515 -0.0663  0.8948
  921SOL     OW 3449   5.670   0.050   1.144  0.5839 -0.4145 -0.0966
  921SOL    HW2 3450   5.686   0.135   1.103  0.6507 -0.4708 -0.1879
  921SOL    HW3 3451   5.739  -0.006   1.110  1.6951 -0.0282  1.4095
  921SOL    MW4 3452   5.681   0.054   1.134  0.7393 -0.3709  0.0900
  922SOL     OW 3453   3.472   3.787   3.570  0.4153 -0.0307  0.2851
  922SOL    HW2 3454   3.529   3.722   3.531  1.0343  0.6905 -0.0399
  922SOL    HW3 3455   3.528   3.863   3.585 -0.6879  1.1884 -1.2956
  922SOL    MW4 3456   3.487   3.789   3.567  0.3514  0.2253  0.0336
  923SOL     OW 3457   3.281   5.815   4.478  0.5938 -0.5295 -0.0192
  923SOL    HW2 3458   3.330   5.897   4.474 -1.2147  0.5923 -0.4292
  923SOL    HW3 3459   3.319   5.768   4.552  1.0194  1.1414  0.8741
  923SOL    MW4 3460   3.292   5.819   4.487  0.4113 -0.1610  0.0446
  924SOL     OW 3461   3.314   0.881   1.566  0.5732  0.3526 -0.4451
  924SOL    HW2 3462   3.242   0.937   1.598  0.3394  0.8844 -1.8232
  924SOL    HW3 3463   3.378   0.881   1.637 -0.2727  0.8302  0.3373
  924SOL    MW4 3464   3.313   0.889   1.580  0.4307  0.4858 -0.5237
  925SOL     OW 3465   4.708   6.321   6.413 -0.0158 -0.2998  0.5169
  925SOL    HW2 3466   4.732   6.288   6.327  0.4169  2.7993 -0.6610
  925SOL    HW3 3467   4.624   6.365   6.400  1.3886  2.7561  0.8676
  925SOL    MW4 3468   4.700   6.322   6.400  0.2266  0.5123  0.4078
  926SOL     OW 3469   0.379   1.868   3.845  0.0206 -0.1116  0.1319
  926SOL    HW2 3470   0.448   1.933   3.859 -0.8364  0.5629  1.3497
  926SOL    HW3 3471   0.352   1.882   3.754  1.1846 -0.1053 -0.2311
  926SOL    MW4 3472   0.385   1.879   3.835  0.0611 -0.0218  0.2447
  927SOL     OW 3473   4.741   4.742   5.689 -0.1371 -0.0351 -0.0239
  927SOL    HW2 3474   4.808   4.749   5.757  0.4877 -0.7072 -0.5495
  927SOL    HW3 3475   4.658   4.735   5.738 -0.1008  2.8266  0.6215
  927SOL    MW4 3476   4.739   4.742   5.705 -0.0499  0.2538 -0.0081
  928SOL     OW 3477   3.559   1.202   2.538  0.4277 -0.3437  0.5033
  928SOL    HW2 3478   3.534   1.204   2.631  2.9432 -0.6662  1.2621
  928SOL    HW3 3479   3.477   1.216   2.491 -0.7087  1.5078  2.7939
  928SOL    MW4 3480   3.545   1.205   2.544  0.6097 -0.1420  0.9056
  929SOL     OW 3481   5.361   6.008   4.261  0.7264 -0.2215  0.5073
  929SOL    HW2 3482   5.409   6.022   4.343 -1.7494  1.0666  1.8511
  929SOL    HW3 3483   5.393   6.077   4.202  2.0490 -0.7469  0.5910
  929SOL    MW4 3484   5.371   6.019   4.264  0.5742 -0.1209  0.6956
  930SOL     OW 3485   1.025   4.264   1.971 -0.3921 -0.0123  0.3897
  930SOL    HW2 3486   1.047   4.174   1.995 -0.6623 -0.2527 -0.2537
  930SOL    HW3 3487   0.930   4.265   1.964 -0.3056 -0.0667 -1.0784
  930SOL    MW4 3488   1.016   4.252   1.973 -0.4164 -0.0512  0.1111
  931SOL     OW 3489   5.337   4.051   2.188  0.5548 -0.2128  0.0756
  931SOL    HW2 3490   5.326   4.101   2.107 -1.1753 -0.9962 -0.2205
  931SOL    HW3 3491   5.292   3.968   2.171  0.0890 -0.3675  1.8664
  931SOL    MW4 3492   5.330   4.047   2.175  0.2651 -0.3366  0.2728
  932SOL     OW 3493   4.555   6.242   0.849 -0.1110  0.0593 -0.0666
  932SOL    HW2 3494   4.510   6.158   0.836 -0.1769  0.3203 -1.6650
  932SOL    HW3 3495   4.635   6.235   0.797 -0.5088  1.2804 -0.8810
  932SOL    MW4 3496   4.559   6.230   0.840 -0.1722  0.2549 -0.3849
  933SOL     OW 3497   5.231   0.517   1.522 -0.2882 -0.0748 -0.4033
  933SOL    HW2 3498   5.232   0.485   1.612 -1.1875 -2.1491 -1.0859
  933SOL    HW3 3499   5.314   0.487   1.485 -0.7684 -0.9329 -0.8056
  933SOL    MW4 3500   5.242   0.509   1.529 -0.4702 -0.4617 -0.5465
  934SOL     OW 3501   0.124   0.859   5.478  0.5438  0.1228 -0.2269
  934SOL    HW2 3502   0.196   0.798   5.464  0.9511  0.6058 -0.2410
  934SOL    HW3 3503   0.133   0.888   5.568  0.0602 -0.2116 -0.0684
  934SOL    MW4 3504   0.135   0.855   5.488  0.5338  0.1424 -0.2078
  935SOL     OW 3505   2.051   1.016   6.057 -0.0612 -0.5320 -0.2505
  935SOL    HW2 3506   2.087   1.102   6.082  0.7478 -0.8525 -0.2768
  935SOL    HW3 3507   1.976   1.037   6.002 -0.3855  0.1665  0.4416
  935SOL    MW4 3508   2.046   1.030   6.053  0.0028 -0.4821 -0.1627
  936SOL     OW 3509   6.417   3.068   6.348 -0.0093  0.2284  0.0631
  936SOL    HW2 3510   6.426   2.977   6.319 -1.2213  0.5848 -1.5629
  936SOL    HW3 3511   6.505   3.104   6.341  0.1768 -0.3700 -0.9404
  936SOL    MW4 3512   6.430   3.061   6.343 -0.1446  0.1964 -0.2839
  937SOL     OW 3513   5.571   1.453   2.673 -0.7112  0.5050  0.0696
  937SOL    HW2 3514   5.550   1.448   2.580 -3.5241  0.3893  0.6192
  937SOL    HW3 3515   5.560   1.364   2.705  2.9771 -0.0858  0.1337
  937SOL    MW4 3516   5.567   1.441   2.665 -0.5957  0.4118  0.1506
  938SOL     OW 3517   0.440   4.677   2.116 -0.0029  0.4450  0.3061
  938SOL    HW2 3518   0.352   4.646   2.135 -1.3593  2.9991 -1.1005
  938SOL    HW3 3519   0.460   4.643   2.029 -0.7983  1.9996 -0.5278
  938SOL    MW4 3520   0.431   4.669   2.107 -0.2868  0.9871  0.0105
  939SOL     OW 3521   0.014   2.275   0.793  0.4130  0.3231  0.1658
  939SOL    HW2 3522   0.041   2.335   0.862  0.7965 -1.3305  1.5163
  939SOL    HW3 3523  -0.059   2.320   0.749 -0.8002  0.8551  2.5692
  939SOL    MW4 3524   0.008   2.289   0.796  0.3035  0.1751  0.6611
  940SOL     OW 3525   3.437   5.712   4.997  0.3492 -0.2631 -0.0724
  940SOL    HW2 3526   3.477   5.727   5.082  1.1769 -2.4955 -0.0137
  940SOL    HW3 3527   3.350   5.678   5.017  0.0015  0.5257 -0.1718
  940SOL    MW4 3528   3.431   5.710   5.011  0.4125 -0.4536 -0.0778
  941SOL     OW 3529   4.259   3.284   6.285  0.1527 -0.5986 -0.3572
  941SOL    HW2 3530   4.354   3.273   6.293  0.8044  3.8007  0.4477
  941SOL    HW3 3531   4.246   3.307   6.193 -0.2121 -1.4920 -0.5366
  941SOL    MW4 3532   4.270   3.286   6.274  0.1905 -0.1360 -0.2746
  942SOL     OW 3533   5.515   3.302   5.903 -0.5791 -0.3240  0.0539
  942SOL    HW2 3534   5.548   3.243   5.835 -2.0192 -0.0562 -0.9356
  942SOL    HW3 3535   5.422   3.278   5.911 -1.0932  1.4971 -0.0677
  942SOL    MW4 3536   5.507   3.291   5.895 -0.8369 -0.0484 -0.0927
  943SOL     OW 3537   5.378   2.354   4.232  0.7922 -0.5873  0.2966
  943SOL    HW2 3538   5.442   2.372   4.301 -0.5951 -0.0392  1.4853
  943SOL    HW3 3539   5.294   2.352   4.277 -0.3427  1.2512 -1.5555
  943SOL    MW4 3540   5.376   2.356   4.247  0.4594 -0.2724  0.2091
  944SOL     OW 3541   6.058   0.930   1.604 -0.2623 -0.5215 -0.2718
  944SOL    HW2 3542   6.152   0.939   1.586 -0.4320 -1.3315 -1.8026
  944SOL    HW3 3543   6.040   0.837   1.589 -1.0281 -0.6990  1.5709
  944SOL    MW4 3544   6.068   0.919   1.599 -0.3858 -0.6518 -0.2306
  945SOL     OW 3545   3.008   3.498   5.275 -0.1850  0.0834  0.1122
  945SOL    HW2 3546   3.095   3.498   5.316 -0.3555 -0.1018  0.4670
  945SOL    HW3 3547   3.027   3.498   5.181  0.2093  1.8510  0.1677
  945SOL    MW4 3548   3.022   3.498   5.268 -0.1554  0.2922  0.1664
  946SOL     OW 3549   4.682   4.916   0.522  0.1451 -0.3011  0.2581
  946SOL    HW2 3550   4.632   4.932   0.602  1.5991  0.8252  0.9784
  946SOL    HW3 3551   4.723   5.000   0.502  1.9188 -1.2372 -0.1758
  946SOL    MW4 3552   4.681   4.929   0.530  0.5710 -0.2760  0.2959
  947SOL     OW 3553   0.087   1.276   0.301 -0.4423 -0.5225  0.4736
  947SOL    HW2 3554   0.036   1.318   0.232  1.8462  0.4862 -0.7131
  947SOL    HW3 3555   0.118   1.194   0.262 -0.7373 -0.9028  1.0148
  947SOL    MW4 3556   0.084   1.271   0.287 -0.1793 -0.4396  0.3885
  948SOL     OW 3557   5.868   4.115   4.598  0.3535  0.3429 -0.2078
  948SOL    HW2 3558   5.792   4.171   4.615  0.0774 -0.3992  1.1434
  948SOL    HW3 3559   5.919   4.118   4.680 -0.6978 -2.9030  0.7278
  948SOL    MW4 3560   5.865   4.123   4.611  0.1784 -0.1833  0.0939
  949SOL     OW 3561   5.977   4.004   5.794 -0.3364  0.6286 -0.2490
  949SOL    HW2 3562   6.012   3.942   5.859 -1.6289  1.6078  1.4470
  949SOL    HW3 3563   6.023   4.086   5.812  0.7536  0.4517 -1.9460
  949SOL    MW4 3564   5.988   4.006   5.805 -0.3631  0.7344 -0.2491
  950SOL     OW 3565   3.088   3.906   1.662  0.1670 -0.5806  0.2840
  950SOL    HW2 3566   3.041   3.832   1.624 -1.2563  0.0530  0.7582
  950SOL    HW3 3567   3.082   3.975   1.596  1.8663 -0.9662 -0.3455
  950SOL    MW4 3568   3.081   3.905   1.648  0.2034 -0.5479  0.2635
  951SOL     OW 3569   0.017   5.771   4.028 -0.1388 -0.8056  0.1507
  951SOL    HW2 3570  -0.068   5.779   3.985 -0.8089  0.1966  1.5639
  951SOL    HW3 3571   0.071   5.838   3.988  0.1361 -1.6969 -1.0228
  951SOL    MW4 3572   0.013   5.781   4.017 -0.1909 -0.7910  0.1823
  952SOL     OW 3573   2.315   4.140   5.944  0.1299  0.2448  0.1994
  952SOL    HW2 3574   2.318   4.103   6.032 -0.5955  1.6096  0.8165
  952SOL    HW3 3575   2.402   4.178   5.931 -0.3620  1.7396  1.1054
  952SOL    MW4 3576   2.327   4.140   5.954 -0.0307  0.6221  0.4003
  953SOL     OW 3577   1.453   1.570   2.849 -0.5614 -0.1468  0.1486
  953SOL    HW2 3578   1.510   1.593   2.776 -0.8108 -0.8398 -0.2772
  953SOL    HW3 3579   1.461   1.475   2.857 -1.1917 -0.1816  0.4649
  953SOL    MW4 3580   1.461   1.561   2.840 -0.6775 -0.2428  0.1342
  954SOL     OW 3581   0.201   4.647   0.373  0.1786 -0.0378 -0.5549
  954SOL    HW2 3582   0.279   4.684   0.332 -0.7425  0.1491 -2.1870
  954SOL    HW3 3583   0.189   4.562   0.331 -0.3933 -0.1494 -0.1810
  954SOL    MW4 3584   0.210   4.641   0.362 -0.0184 -0.0279 -0.7209
  955SOL     OW 3585   4.269   0.216   5.801  0.1077  0.4241  0.1658
  955SOL    HW2 3586   4.179   0.239   5.776 -0.4260 -1.1707  0.5060
  955SOL    HW3 3587   4.279   0.252   5.889 -0.6806 -0.4861  0.6552
  955SOL    MW4 3588   4.258   0.224   5.810 -0.0668  0.0936  0.2753
  956SOL     OW 3589   3.917   3.730   2.665 -0.3163 -0.4122 -0.2065
  956SOL    HW2 3590   3.857   3.662   2.697 -1.6266 -0.0205 -1.6783
  956SOL    HW3 3591   3.957   3.691   2.588  2.7498 -1.3221  1.6730
  956SOL    MW4 3592   3.914   3.716   2.659 -0.0847 -0.4806 -0.1527
  957SOL     OW 3593   0.430   2.970   1.508 -0.2839  0.1340 -0.2885
  957SOL    HW2 3594   0.525   2.980   1.503 -0.1578 -0.6985  0.1952
  957SOL    HW3 3595   0.417   2.888   1.556 -1.2538  1.4649  1.9137
  957SOL    MW4 3596   0.441   2.961   1.514 -0.3952  0.1998  0.0659
  958SOL     OW 3597   0.576   0.926   5.390  0.1759 -0.1943 -0.3837
  958SOL    HW2 3598   0.586   0.953   5.299 -0.3870 -1.1062 -0.7287
  958SOL    HW3 3599   0.508   0.859   5.388  0.6662 -0.7439  0.6133
  958SOL    MW4 3600   0.568   0.921   5.378  0.1663 -0.3871 -0.2977
  959SOL     OW 3601   1.152   3.657   1.769  0.1687  0.3019  0.3105
  959SOL    HW2 3602   1.081   3.688   1.711  0.8261  0.6682 -0.3217
  959SOL    HW3 3603   1.180   3.575   1.729  1.3545  1.0890 -0.5558
  959SOL    MW4 3604   1.146   3.651   1.756  0.4119  0.4541  0.1128
  960SOL     OW 3605   4.578   3.737   0.609  0.2713  0.0709 -0.3759
  960SOL    HW2 3606   4.551   3.724   0.518  1.5419 -1.2743 -0.6029
  960SOL    HW3 3607   4.674   3.731   0.607  0.2636 -1.3658  1.2280
  960SOL    MW4 3608   4.587   3.734   0.597  0.4379 -0.2961 -0.1943
  961SOL     OW 3609   5.277   4.390   3.682 -0.1663  0.5503 -0.2283
  961SOL    HW2 3610   5.279   4.410   3.589  1.3367 -1.1041 -0.5967
  961SOL    HW3 3611   5.368   4.368   3.704 -0.6612 -0.0104  1.4119
  961SOL    MW4 3612   5.289   4.390   3.673 -0.0333  0.2581 -0.0605
  962SOL     OW 3613   4.754   2.631   2.410 -0.3400 -0.0081 -0.4282
  962SOL    HW2 3614   4.697   2.707   2.421 -0.9530 -0.5548  0.1943
  962SOL    HW3 3615   4.712   2.579   2.342 -0.8406 -0.6341  0.3418
  962SOL    MW4 3616   4.741   2.634   2.402 -0.4869 -0.1628 -0.2445
  963SOL     OW 3617   1.813   5.354   5.500 -0.6460  0.5123 -0.0339
  963SOL    HW2 3618   1.886   5.388   5.450 -0.1672  0.3130  0.5189
  963SOL    HW3 3619   1.814   5.260   5.485  0.1449  0.3056  1.1509
  963SOL    MW4 3620   1.823   5.346   5.492 -0.4785  0.4587  0.1954
  964SOL     OW 3621   0.913   5.132   1.975  0.0772  0.8200 -0.3043
  964SOL    HW2 3622   0.861   5.187   2.034 -0.8591 -0.5795  0.2283
  964SOL    HW3 3623   0.982   5.189   1.944 -0.4910  2.1185  0.7215
  964SOL    MW4 3624   0.915   5.147   1.979 -0.1213  0.8067 -0.0987
  965SOL     OW 3625   2.186   3.153   3.800  0.6737  0.4607  0.0214
  965SOL    HW2 3626   2.229   3.100   3.868 -0.5143  0.9114  1.1644
  965SOL    HW3 3627   2.225   3.122   3.718 -1.2477 -3.5885  0.3834
  965SOL    MW4 3628   2.197   3.142   3.798  0.2635 -0.0141  0.2199
  966SOL     OW 3629   0.091   0.730   5.044  0.5183  0.2810 -0.3297
  966SOL    HW2 3630   0.084   0.822   5.017  0.4536  0.2221 -0.5140
  966SOL    HW3 3631   0.104   0.682   4.962 -2.0901 -0.1838 -0.5378
  966SOL    MW4 3632   0.092   0.736   5.030  0.1656  0.2119 -0.3815
  967SOL     OW 3633   1.912   3.102   3.863 -0.6623  0.0120  0.3425
  967SOL    HW2 3634   1.927   3.111   3.957  1.3293 -0.0316  0.0673
  967SOL    HW3 3635   1.994   3.128   3.822 -0.1832 -3.3497 -1.2034
  967SOL    MW4 3636   1.925   3.106   3.870 -0.3364 -0.4373  0.1022
  968SOL     OW 3637   2.723   4.759   2.989  0.1372  0.5014  0.1031
  968SOL    HW2 3638   2.715   4.757   3.084 -0.2374 -1.4682  0.0927
  968SOL    HW3 3639   2.812   4.789   2.972  1.4427 -2.3479  1.2491
  968SOL    MW4 3640   2.733   4.762   2.999  0.2600 -0.1344  0.2529
  969SOL     OW 3641   0.508   4.521   0.860 -0.1970  0.1287  0.3990
  969SOL    HW2 3642   0.458   4.503   0.781 -0.8185  1.4767  0.4574
  969SOL    HW3 3643   0.552   4.438   0.880 -1.7371 -0.8527 -0.1300
  969SOL    MW4 3644   0.507   4.507   0.852 -0.4822  0.1771  0.3369
  970SOL     OW 3645   5.038   2.720   4.063  0.1777  0.2707 -0.0185
  970SOL    HW2 3646   5.079   2.726   4.149 -0.3213  0.4058  0.2106
  970SOL    HW3 3647   5.028   2.626   4.048 -1.1552  0.2655  0.7576
  970SOL    MW4 3648   5.042   2.709   4.072 -0.0640  0.2878  0.1141
  971SOL     OW 3649   1.191   3.757   0.745 -0.1960  0.8247 -0.8023
  971SOL    HW2 3650   1.276   3.777   0.783  0.1574 -1.1123 -0.4771
  971SOL    HW3 3651   1.191   3.803   0.661  1.4481  0.3752 -1.0871
  971SOL    MW4 3652   1.202   3.766   0.739  0.0676  0.5098 -0.7970
  972SOL     OW 3653   0.933   0.821   3.341 -0.1507 -0.3529 -0.1553
  972SOL    HW2 3654   1.009   0.839   3.397 -0.1023 -2.6283  0.6260
  972SOL    HW3 3655   0.887   0.750   3.386 -4.3669  2.6980  0.9086
  972SOL    MW4 3656   0.937   0.814   3.355 -0.7006 -0.2506  0.0881
  973SOL     OW 3657   3.095   2.351   4.310  0.2452  0.3531 -0.0361
  973SOL    HW2 3658   3.090   2.257   4.294  2.6615  0.4434 -1.9690
  973SOL    HW3 3659   3.164   2.361   4.376 -0.9201  0.7382  1.1670
  973SOL    MW4 3660   3.103   2.340   4.317  0.4103  0.4158 -0.1324
  974SOL     OW 3661   2.218   0.291   1.795 -0.6642  0.2039 -0.3989
  974SOL    HW2 3662   2.293   0.317   1.741 -1.7565 -0.3515 -2.2713
  974SOL    HW3 3663   2.152   0.262   1.732 -2.6972  1.2446  1.1567
  974SOL    MW4 3664   2.219   0.290   1.779 -1.0766  0.2679 -0.4407
  975SOL     OW 3665   1.294   3.318   2.561 -0.6716  0.0011  0.0911
  975SOL    HW2 3666   1.376   3.311   2.608 -0.7351  1.1784  0.4096
  975SOL    HW3 3667   1.229   3.339   2.628 -1.0735 -0.0081 -0.2870
  975SOL    MW4 3668   1.296   3.320   2.576 -0.7330  0.1552  0.0832
  976SOL     OW 3669   4.118   1.750   3.923 -0.5085 -0.3434 -0.3833
  976SOL    HW2 3670   4.143   1.816   3.858 -1.3213 -0.6248 -0.9959
  976SOL    HW3 3671   4.074   1.682   3.872 -1.7500 -0.2567  0.5345
  976SOL    MW4 3672   4.115   1.750   3.908 -0.7795 -0.3691 -0.3430
  977SOL     OW 3673   2.425   0.668   0.718  0.2184  0.2732  0.0106
  977SOL    HW2 3674   2.342   0.681   0.673  0.3180  1.6281  0.1488
  977SOL    HW3 3675   2.492   0.693   0.654  0.3997  1.3217  0.5766
  977SOL    MW4 3676   2.423   0.673   0.704  0.2555  0.5903  0.1035
  978SOL     OW 3677   2.422   1.725   3.888 -0.1920 -0.3233 -0.1044
  978SOL    HW2 3678   2.498   1.683   3.928  0.4441  1.1386  0.3112
  978SOL    HW3 3679   2.459   1.783   3.821 -0.9432  0.2595 -0.0296
  978SOL    MW4 3680   2.437   1.727   3.885 -0.2072 -0.0535 -0.0397
  979SOL     OW 3681   5.779   5.600   3.132 -0.1365 -0.3796  0.1770
  979SOL    HW2 3682   5.720   5.616   3.058  0.4303  2.2403  0.1922
  979SOL    HW3 3683   5.860   5.645   3.107  0.3662 -0.2060  2.0089
  979SOL    MW4 3684   5.782   5.608   3.119  0.0046 -0.0111  0.4207
  980SOL     OW 3685   3.737   5.257   3.528 -0.1114  0.2714 -0.2160
  980SOL    HW2 3686   3.662   5.243   3.586  1.0566  0.3116  1.3624
  980SOL    HW3 3687   3.720   5.200   3.453 -1.5979  0.1044  0.2229
  980SOL    MW4 3688   3.725   5.247   3.526 -0.1534  0.2547  0.0502
  981SOL     OW 3689   4.690   1.501   3.237  0.2758 -0.2407  0.3338
  981SOL    HW2 3690   4.679   1.406   3.234 -0.7200 -0.1185 -2.8132
  981SOL    HW3 3691   4.778   1.516   3.204 -0.3543 -0.0225 -1.3202
  981SOL    MW4 3692   4.700   1.490   3.233  0.0613 -0.1958 -0.2996
  982SOL     OW 3693   1.846   0.943   5.338 -0.1345  0.3009  0.0040
  982SOL    HW2 3694   1.835   0.988   5.254  1.6763 -1.6102 -1.3456
  982SOL    HW3 3695   1.934   0.967   5.367 -0.9206  1.3697  1.7067
  982SOL    MW4 3696   1.856   0.952   5.331  0.0007  0.1898  0.0506
  983SOL     OW 3697   3.109   0.095   4.949  0.0876  0.0396 -0.6088
  983SOL    HW2 3698   3.186   0.072   4.897 -1.1619 -1.1143 -2.0301
  983SOL    HW3 3699   3.079   0.178   4.912  2.5208  2.4111  2.1936
  983SOL    MW4 3700   3.115   0.103   4.937  0.2438  0.2003 -0.4266
  984SOL     OW 3701   1.085   0.238   3.521  0.2539  0.2856  0.4775
  984SOL    HW2 3702   1.095   0.286   3.439 -0.0900 -0.1705  0.1677
  984SOL    HW3 3703   0.997   0.200   3.517  0.1938  0.3491  1.1041
  984SOL    MW4 3704   1.075   0.239   3.510  0.2006  0.2338  0.5193
  985SOL     OW 3705   2.969   4.824   5.272  0.8392  0.3107  0.1635
  985SOL    HW2 3706   2.931   4.807   5.358 -1.0109  0.9888 -0.4605
  985SOL    HW3 3707   2.912   4.778   5.211  2.4530 -0.6311 -0.6876
  985SOL    MW4 3708   2.956   4.816   5.275  0.8080  0.2759 -0.0311
  986SOL     OW 3709   5.419   1.149   4.061  0.3910  0.0935  0.0807
  986SOL    HW2 3710   5.482   1.189   4.121 -0.4598  0.8197  0.4922
  986SOL    HW3 3711   5.334   1.162   4.101 -0.0224 -1.1536 -0.3272
  986SOL    MW4 3712   5.416   1.156   4.074  0.2242  0.0247  0.0811
  987SOL     OW 3713   3.545   4.232   4.136  0.0420  1.0234  0.3326
  987SOL    HW2 3714   3.578   4.234   4.226  0.7610 -3.5022  0.4019
  987SOL    HW3 3715   3.451   4.220   4.146 -0.0841  1.9058  0.3641
  987SOL    MW4 3716   3.537   4.231   4.149  0.1202  0.5427  0.3459
  988SOL     OW 3717   2.331   5.575   2.672  0.2522 -0.2446  0.1337
  988SOL    HW2 3718   2.248   5.570   2.625  1.1507  1.4418 -1.8047
  988SOL    HW3 3719   2.310   5.620   2.754 -1.0041 -1.3812  0.4605
  988SOL    MW4 3720   2.318   5.580   2.677  0.2050 -0.1721 -0.0789
  989SOL     OW 3721   1.767   1.448   1.105 -0.3457  0.5124 -0.1235
  989SOL    HW2 3722   1.716   1.519   1.143 -0.8601 -0.0970  0.3389
  989SOL    HW3 3723   1.713   1.370   1.117  0.5905 -0.1111  0.1669
  989SOL    MW4 3724   1.753   1.447   1.111 -0.2900  0.3497 -0.0241
  990SOL     OW 3725   1.544   4.721   4.817  0.0712  0.1477  0.1626
  990SOL    HW2 3726   1.453   4.742   4.797  0.1800 -0.1687 -0.7315
  990SOL    HW3 3727   1.569   4.659   4.748  0.5606 -0.8053  1.1834
  990SOL    MW4 3728   1.535   4.716   4.805  0.1501 -0.0198  0.1793
  991SOL     OW 3729   3.017   5.138   5.236 -0.3902 -0.2517  0.3098
  991SOL    HW2 3730   2.942   5.079   5.244  0.2700 -1.2589 -0.5951
  991SOL    HW3 3731   3.080   5.089   5.184  0.3105  1.1534 -0.2175
  991SOL    MW4 3732   3.015   5.124   5.230 -0.2107 -0.1992  0.1209
  992SOL     OW 3733   4.221   0.063   5.238  0.0361 -0.1975  0.4598
  992SOL    HW2 3734   4.234  -0.012   5.180 -0.3684  0.6430 -0.7366
  992SOL    HW3 3735   4.309   0.085   5.269  0.1860 -0.9954  0.6304
  992SOL    MW4 3736   4.234   0.056   5.235  0.0025 -0.1919  0.3245
  993SOL     OW 3737   0.146   3.892   2.337  0.4292 -0.1928 -0.3618
  993SOL    HW2 3738   0.100   3.920   2.416  1.4391  0.9240 -0.1357
  993SOL    HW3 3739   0.218   3.837   2.368  0.2137 -0.6068 -0.5872
  993SOL    MW4 3740   0.150   3.888   2.351  0.5340 -0.1001 -0.3617
  994SOL     OW 3741   4.397   1.607   6.337  0.1075  0.3444 -0.0401
  994SOL    HW2 3742   4.311   1.648   6.327  0.3888  1.3775  1.3630
  994SOL    HW3 3743   4.378   1.516   6.360 -0.5962  0.3782 -0.4668
  994SOL    MW4 3744   4.383   1.601   6.339  0.0518  0.4851  0.0887
  995SOL     OW 3745   4.958   3.810   4.452 -0.3547 -0.2320 -0.5123
  995SOL    HW2 3746   5.038   3.780   4.496  1.1023 -0.3577 -3.0068
  995SOL    HW3 3747   4.910   3.729   4.434  0.8242 -0.6332 -2.2174
  995SOL    MW4 3748   4.962   3.795   4.455 -0.0069 -0.3015 -1.0664
  996SOL     OW 3749   2.532   4.337   2.171  0.1710 -0.2442 -0.2907
  996SOL    HW2 3750   2.487   4.280   2.109 -0.1309  0.8157 -1.0972
  996SOL    HW3 3751   2.518   4.297   2.256 -2.5296  0.1457 -0.4618
  996SOL    MW4 3752   2.524   4.325   2.174 -0.2252 -0.0529 -0.4197
  997SOL     OW 3753   4.617   5.458   5.054 -0.5555 -0.2517  0.3686
  997SOL    HW2 3754   4.608   5.519   4.981 -0.7846  2.2406  2.3364
  997SOL    HW3 3755   4.711   5.444   5.063 -0.5469 -0.8817 -0.5971
  997SOL    MW4 3756   4.628   5.464   5.046 -0.5846 -0.0060  0.5008
  998SOL     OW 3757   1.052   0.412   0.525  0.2322  0.4605  0.2084
  998SOL    HW2 3758   1.019   0.350   0.460  0.6647 -1.3779  1.6505
  998SOL    HW3 3759   1.147   0.401   0.521  0.2622  0.3272  1.1335
  998SOL    MW4 3760   1.060   0.402   0.516  0.2932  0.2003  0.5207
  999SOL     OW 3761   5.235   6.041   0.229  0.0176  0.5187 -0.0710
  999SOL    HW2 3762   5.261   6.097   0.302  2.2680  2.1290 -1.9381
  999SOL    HW3 3763   5.211   6.102   0.160 -1.8574 -0.9491 -0.8157
  999SOL    MW4 3764   5.235   6.056   0.230  0.0671  0.5375 -0.4156
 1000SOL     OW 3765   3.251   4.535   0.144 -0.3237  0.1909  0.3035
 1000SOL    HW2 3766   3.283   4.549   0.055  0.0529  2.5203  0.7531
 1000SOL    HW3 3767   3.314   4.473   0.182  0.1834  0.0883 -0.6626
 1000SOL    MW4 3768   3.264   4.528   0.137 -0.2071  0.4847  0.2354
 1001SOL     OW 3769   2.706   3.872   5.389  0.2668  0.5667  0.0397
 1001SOL    HW2 3770   2.631   3.845   5.336  0.2651  2.9660 -1.3390
 1001SOL    HW3 3771   2.782   3.842   5.340  0.2422  0.6724 -0.0627
 1001SOL    MW4 3772   2.706   3.865   5.375  0.2633  0.8972 -0.1557
 1002SOL     OW 3773   4.201   3.333   4.385 -0.1150 -0.1967  0.7048
 1002SOL    HW2 3774   4.249   3.314   4.305 -0.0334 -4.2113  1.4864
 1002SOL    HW3 3775   4.264   3.376   4.442  0.5214  0.5767 -0.5580
 1002SOL    MW4 3776   4.215   3.336   4.382 -0.0203 -0.6244  0.6413
 1003SOL     OW 3777   6.402   2.816   0.898 -0.1017  0.1208  0.2411
 1003SOL    HW2 3778   6.338   2.886   0.892 -0.5655 -0.3064  0.1694
 1003SOL    HW3 3779   6.440   2.810   0.810 -1.5126 -1.0713 -0.3250
 1003SOL    MW4 3780   6.399   2.825   0.886 -0.3491 -0.0928  0.1569
 1004SOL     OW 3781   2.696   0.676   3.275  0.1089 -0.2427  0.7869
 1004SOL    HW2 3782   2.710   0.583   3.255 -0.1479  0.1032 -1.1638
 1004SOL    HW3 3783   2.610   0.679   3.317 -0.6122 -0.7384 -0.5911
 1004SOL    MW4 3784   2.687   0.664   3.278 -0.0201 -0.2625  0.3477
 1005SOL     OW 3785   4.834   1.815   5.082 -0.1909  0.1516  0.2853
 1005SOL    HW2 3786   4.759   1.790   5.136 -0.1423  0.9090  0.7192
 1005SOL    HW3 3787   4.823   1.765   5.001 -0.7213 -0.3584  0.6655
 1005SOL    MW4 3788   4.822   1.805   5.078 -0.2545  0.1842  0.3927
 1006SOL     OW 3789   6.069   4.783   1.912  0.3143  0.3373 -0.7928
 1006SOL    HW2 3790   6.060   4.771   2.006  0.0626  0.6763 -0.7729
 1006SOL    HW3 3791   6.145   4.730   1.888  1.0312  1.0739 -0.2326
 1006SOL    MW4 3792   6.078   4.775   1.921  0.3757  0.4792 -0.7163
 1007SOL     OW 3793   3.535   4.071   0.580  0.2006  0.0252  0.2519
 1007SOL    HW2 3794   3.460   4.058   0.522  0.6611  0.0803 -0.3751
 1007SOL    HW3 3795   3.521   4.158   0.618  0.3296  0.3666 -0.4621
 1007SOL    MW4 3796   3.524   4.081   0.577  0.2784  0.0775  0.0750
 1008SOL     OW 3797   1.854   1.071   4.187 -0.4867 -0.2572 -0.0539
 1008SOL    HW2 3798   1.920   1.055   4.119 -0.2264 -1.2934  0.4280
 1008SOL    HW3 3799   1.894   1.137   4.244 -0.4858  0.2215 -0.6065
 1008SOL    MW4 3800   1.868   1.078   4.186 -0.4522 -0.3308 -0.0632
 1009SOL     OW 3801   0.147   2.377   3.189 -0.1924  0.0904  0.3690
 1009SOL    HW2 3802   0.073   2.375   3.129  0.7979  0.6517 -0.9202
 1009SOL    HW3 3803   0.192   2.459   3.170 -0.0935  0.5093  2.2205
 1009SOL    MW4 3804   0.143   2.387   3.179 -0.0487  0.2197  0.4432
 1010SOL     OW 3805   5.207   2.307   4.545 -0.1301 -0.1156  0.2297
 1010SOL    HW2 3806   5.284   2.362   4.558  0.2280 -0.5618  0.0611
 1010SOL    HW3 3807   5.168   2.339   4.464 -0.1717  0.1716  0.3642
 1010SOL    MW4 3808   5.212   2.318   4.536 -0.0884 -0.1366  0.2252
 1011SOL     OW 3809   4.943   0.157   5.195 -0.6407  0.0941 -0.4600
 1011SOL    HW2 3810   4.882   0.217   5.237  0.5414  1.4030 -0.5030
 1011SOL    HW3 3811   5.022   0.210   5.181 -0.0341 -1.0892 -1.7855
 1011SOL    MW4 3812   4.946   0.172   5.199 -0.4047  0.1106 -0.6405
 1012SOL     OW 3813   2.721   5.712   1.799  0.2322 -0.4839 -0.2062
 1012SOL    HW2 3814   2.727   5.780   1.732  0.8188 -0.3071  0.0219
 1012SOL    HW3 3815   2.627   5.696   1.808  0.0832  0.3323 -0.2237
 1012SOL    MW4 3816   2.709   5.719   1.791  0.2900 -0.3529 -0.1784
 1013SOL     OW 3817   2.477   0.481   0.072  0.3189 -0.1353 -0.7158
 1013SOL    HW2 3818   2.511   0.524  -0.006 -0.4938 -0.1469 -1.0951
 1013SOL    HW3 3819   2.536   0.408   0.088  0.9075  0.2978 -0.8894
 1013SOL    MW4 3820   2.489   0.477   0.064  0.2894 -0.0797 -0.7887
 1014SOL     OW 3821   6.034   1.308   3.405 -0.7220 -0.3265  0.2351
 1014SOL    HW2 3822   6.048   1.308   3.310  0.4168 -1.1291  0.3845
 1014SOL    HW3 3823   6.051   1.398   3.431  1.0387 -0.5275 -0.0751
 1014SOL    MW4 3824   6.038   1.320   3.396 -0.3395 -0.4589  0.2139
 1015SOL     OW 3825   2.618   3.132   0.535 -0.3428 -0.1100  0.5796
 1015SOL    HW2 3826   2.634   3.157   0.444 -1.4436 -0.7060  0.2066
 1015SOL    HW3 3827   2.627   3.214   0.584 -1.5801  0.5837 -0.3032
 1015SOL    MW4 3828   2.621   3.146   0.529 -0.6513 -0.0971  0.4139
 1016SOL     OW 3829   5.013   0.274   1.842  1.0315 -0.1231 -0.0608
 1016SOL    HW2 3830   5.065   0.354   1.843 -0.2589  0.7345  0.1442
 1016SOL    HW3 3831   4.945   0.288   1.908  0.9054 -1.4735  0.1232
 1016SOL    MW4 3832   5.011   0.286   1.851  0.8446 -0.1881 -0.0095
 1017SOL     OW 3833   4.328   5.652   2.021 -0.2033 -0.1062  0.2906
 1017SOL    HW2 3834   4.293   5.730   1.978 -1.2309 -1.0132 -0.5682
 1017SOL    HW3 3835   4.423   5.658   2.009 -0.4531 -0.4077 -2.3141
 1017SOL    MW4 3836   4.336   5.663   2.014 -0.3718 -0.2657 -0.1664
 1018SOL     OW 3837   4.757   0.913   4.634  0.3782 -0.1905 -0.3312
 1018SOL    HW2 3838   4.748   0.967   4.713 -0.4354 -2.3905  1.2032
 1018SOL    HW3 3839   4.835   0.947   4.590  0.4514  1.5780  1.0536
 1018SOL    MW4 3840   4.766   0.924   4.639  0.2805 -0.2474  0.0540
 1019SOL     OW 3841   5.013   5.499   5.294  0.1634 -0.3458 -0.5498
 1019SOL    HW2 3842   5.025   5.585   5.335 -0.9896 -1.5423  2.6249
 1019SOL    HW3 3843   5.102   5.465   5.284  0.6544  1.2485 -2.1082
 1019SOL    MW4 3844   5.026   5.506   5.298  0.0760 -0.2933 -0.3366
 1020SOL     OW 3845   0.684   0.972   1.582 -0.5633  0.0415 -0.2520
 1020SOL    HW2 3846   0.753   0.964   1.517  0.3301 -0.8090  0.7591
 1020SOL    HW3 3847   0.674   1.066   1.596 -2.1702  0.4019 -3.0002
 1020SOL    MW4 3848   0.692   0.983   1.575 -0.6574 -0.0231 -0.4812
 1021SOL     OW 3849   5.524   2.918   2.670 -0.0753 -0.0800  0.6729
 1021SOL    HW2 3850   5.492   2.875   2.749 -1.4413  0.4070  0.4166
 1021SOL    HW3 3851   5.552   3.004   2.699 -1.1714  0.3368  0.5568
 1021SOL    MW4 3852   5.523   2.923   2.684 -0.4002  0.0392  0.6238
 1022SOL     OW 3853   1.481   0.278   0.927 -0.0159 -0.9027  0.5484
 1022SOL    HW2 3854   1.399   0.311   0.888 -0.6110 -1.4076  1.3421
 1022SOL    HW3 3855   1.462   0.187   0.949  1.2816 -1.5150 -0.6663
 1022SOL    MW4 3856   1.467   0.271   0.924  0.0768 -1.0501  0.4928
 1023SOL     OW 3857   2.324   0.228   3.663 -0.4145 -0.6587  0.5334
 1023SOL    HW2 3858   2.381   0.155   3.687 -0.1637 -0.5097  0.3903
 1023SOL    HW3 3859   2.239   0.187   3.646 -0.2729 -0.9174  0.4444
 1023SOL    MW4 3860   2.321   0.213   3.664 -0.3627 -0.6731  0.5028
 1024SOL     OW 3861   1.695   5.525   4.303 -0.7009 -0.2898  0.3729
 1024SOL    HW2 3862   1.671   5.583   4.375 -1.2694  0.6466 -0.5490
 1024SOL    HW3 3863   1.747   5.456   4.344 -1.1244  0.1516  1.6968
 1024SOL    MW4 3864   1.698   5.523   4.318 -0.8318 -0.1080  0.4259
 1025SOL     OW 3865   0.574   2.922   6.234  0.1695  0.0912 -0.5017
 1025SOL    HW2 3866   0.602   3.011   6.214  0.0440  0.4242  0.7543
 1025SOL    HW3 3867   0.510   2.932   6.304  0.8712 -1.0422  0.3348
 1025SOL    MW4 3868   0.570   2.935   6.240  0.2455 -0.0144 -0.2257
 1026SOL     OW 3869   1.284   3.409   4.328 -0.0431 -0.7004 -0.0449
 1026SOL    HW2 3870   1.366   3.397   4.281  0.2765  0.6049  0.1467
 1026SOL    HW3 3871   1.243   3.323   4.327  0.9659 -1.1889 -0.8168
 1026SOL    MW4 3872   1.289   3.396   4.322  0.1322 -0.5927 -0.1215
 1027SOL     OW 3873   2.773   4.764   6.035  0.6708 -0.0981  0.0967
 1027SOL    HW2 3874   2.728   4.849   6.038  0.3187 -0.2677 -0.3078
 1027SOL    HW3 3875   2.713   4.704   6.080  0.5958 -0.2798 -0.2457
 1027SOL    MW4 3876   2.759   4.767   6.042  0.6144 -0.1445 -0.0019
 1028SOL     OW 3877   5.423   4.107   0.837 -0.1078 -0.0570  0.0396
 1028SOL    HW2 3878   5.403   4.162   0.913 -0.8352 -0.3135  0.0431
 1028SOL    HW3 3879   5.504   4.144   0.801 -0.9614  1.4664 -0.3914
 1028SOL    MW4 3880   5.431   4.119   0.842 -0.3164  0.1101 -0.0168
 1029SOL     OW 3881   5.593   4.221   3.055 -0.2255  0.7265  0.5175
 1029SOL    HW2 3882   5.672   4.248   3.008 -1.7393 -1.0859 -3.4910
 1029SOL    HW3 3883   5.620   4.143   3.105  0.3954 -0.5094 -1.6320
 1029SOL    MW4 3884   5.607   4.214   3.056 -0.3433  0.3243 -0.2950
 1030SOL     OW 3885   5.710   3.586   0.599 -0.4195  0.2372  0.1111
 1030SOL    HW2 3886   5.780   3.549   0.545  0.6924  1.3602  0.7050
 1030SOL    HW3 3887   5.686   3.516   0.659 -1.1506 -0.7825 -1.3053
 1030SOL    MW4 3888   5.716   3.572   0.600 -0.3692  0.2508  0.0026
 1031SOL     OW 3889   6.130   1.984   4.633 -0.1549 -0.0975 -0.2394
 1031SOL    HW2 3890   6.171   1.903   4.665 -0.0633  0.3965  0.9588
 1031SOL    HW3 3891   6.193   2.052   4.656 -1.3639  0.6139  1.1410
 1031SOL    MW4 3892   6.144   1.982   4.640 -0.3023  0.0615  0.1008
 1032SOL     OW 3893   4.511   4.715   3.323  0.4430  0.0003 -0.0285
 1032SOL    HW2 3894   4.426   4.755   3.340 -0.5373 -2.1237  0.3744
 1032SOL    HW3 3895   4.513   4.702   3.228 -0.3872 -1.3245  0.1064
 1032SOL    MW4 3896   4.500   4.719   3.313  0.2041 -0.4547  0.0425
 1033SOL     OW 3897   0.131   3.873   4.738  0.7187  0.0831  0.0416
 1033SOL    HW2 3898   0.188   3.832   4.673  0.2341 -1.2935  0.4505
 1033SOL    HW3 3899   0.165   3.841   4.822  0.2935  0.4912  0.3717
 1033SOL    MW4 3900   0.143   3.864   4.741  0.5987 -0.0447  0.1391
 1034SOL     OW 3901   5.531   5.141   4.012 -0.5230  0.0179  0.2198
 1034SOL    HW2 3902   5.443   5.161   3.979  0.3100  0.1623 -2.0588
 1034SOL    HW3 3903   5.519   5.058   4.060 -1.9574  0.2598  0.3517
 1034SOL    MW4 3904   5.518   5.133   4.014 -0.6023  0.0689 -0.0635
 1035SOL     OW 3905   5.398   1.978   2.784 -0.0828  0.6981 -0.3236
 1035SOL    HW2 3906   5.341   1.938   2.851 -0.1778  1.7038  0.2172
 1035SOL    HW3 3907   5.396   2.072   2.805  1.1450  0.8347 -0.7930
 1035SOL    MW4 3908   5.390   1.985   2.796  0.0667  0.8488 -0.3142
 1036SOL     OW 3909   3.014   3.690   4.619 -0.1847 -0.0921 -0.4918
 1036SOL    HW2 3910   3.022   3.599   4.646 -0.8849  0.2740  1.0882
 1036SOL    HW3 3911   3.071   3.698   4.542 -0.4455 -1.9453 -0.9238
 1036SOL    MW4 3912   3.022   3.679   4.612 -0.3115 -0.2883 -0.3404
 1037SOL     OW 3913   5.664   4.646   5.662 -0.1922  0.2015  0.0886
 1037SOL    HW2 3914   5.690   4.738   5.666 -0.5960  0.4424 -1.7359
 1037SOL    HW3 3915   5.569   4.647   5.673 -0.1622 -0.0406  0.3958
 1037SOL    MW4 3916   5.655   4.658   5.664 -0.2415  0.2013 -0.1115
 1038SOL     OW 3917   5.744   2.768   2.554  0.1852 -0.4071  0.0627
 1038SOL    HW2 3918   5.674   2.809   2.605 -0.5427  0.9321 -1.8782
 1038SOL    HW3 3919   5.717   2.677   2.545  0.0669 -0.5407  1.5777
 1038SOL    MW4 3920   5.731   2.761   2.559  0.0736 -0.2480  0.0065
 1039SOL     OW 3921   3.339   2.838   2.050  0.8378  0.3734  0.0183
 1039SOL    HW2 3922   3.291   2.921   2.044 -2.4294 -1.2790  1.2667
 1039SOL    HW3 3923   3.374   2.837   2.139 -1.4982 -0.6509  1.0125
 1039SOL    MW4 3924   3.337   2.849   2.061  0.0986  0.0203  0.3142
 1040SOL     OW 3925   1.557   5.059   0.542 -0.2012 -0.3243 -0.0434
 1040SOL    HW2 3926   1.569   5.103   0.627 -0.3743 -1.6253  0.6833
 1040SOL    HW3 3927   1.463   5.064   0.525 -0.4402 -1.6567  0.7643
 1040SOL    MW4 3928   1.547   5.065   0.551 -0.2555 -0.6717  0.1591
 1041SOL     OW 3929   4.874   1.567   1.244  1.0316  0.4137 -0.0869
 1041SOL    HW2 3930   4.920   1.497   1.290  1.2634  1.2872  1.0589
 1041SOL    HW3 3931   4.927   1.584   1.167  1.6605  0.1806  0.2848
 1041SOL    MW4 3932   4.887   1.560   1.240  1.1451  0.4982  0.1133
 1042SOL     OW 3933   2.860   3.292   5.589 -0.0044 -0.7709  0.1662
 1042SOL    HW2 3934   2.904   3.274   5.506 -1.0728 -2.6288 -0.0461
 1042SOL    HW3 3935   2.829   3.207   5.620 -1.0152  0.0852  1.6878
 1042SOL    MW4 3936   2.862   3.278   5.582 -0.2788 -0.9031  0.3390
 1043SOL     OW 3937   6.194   6.441   0.126 -0.0172  0.0156  0.5358
 1043SOL    HW2 3938   6.176   6.347   0.121 -0.2820  0.1085 -0.4767
 1043SOL    HW3 3939   6.285   6.450   0.098 -0.7903  0.2992 -2.1607
 1043SOL    MW4 3940   6.204   6.430   0.122 -0.1542  0.0653  0.0464
 1044SOL     OW 3941   0.913   1.665   0.998 -0.2686 -0.1692 -0.4562
 1044SOL    HW2 3942   0.895   1.675   1.091  0.2640  0.6060 -0.4302
 1044SOL    HW3 3943   0.859   1.590   0.971 -1.6338  0.5720  0.1271
 1044SOL    MW4 3944   0.903   1.656   1.007 -0.3785  0.0308 -0.3758
 1045SOL     OW 3945   0.536   5.466   4.451 -0.2008  0.3246  0.1927
 1045SOL    HW2 3946   0.521   5.542   4.506 -0.0621  0.6011 -0.1476
 1045SOL    HW3 3947   0.544   5.393   4.513  1.9140  0.9073  0.7076
 1045SOL    MW4 3948   0.535   5.466   4.466  0.0965  0.4380  0.2158
 1046SOL     OW 3949   2.764   5.458   5.857  0.2423 -0.1471 -0.1543
 1046SOL    HW2 3950   2.837   5.465   5.918 -0.5035  0.2026  0.7277
 1046SOL    HW3 3951   2.800   5.482   5.772  1.4819 -1.3686 -0.0066
 1046SOL    MW4 3952   2.778   5.462   5.854  0.3074 -0.2621 -0.0184
 1047SOL     OW 3953   0.969   0.053   3.204  0.0499 -0.1100 -0.0230
 1047SOL    HW2 3954   0.929   0.090   3.126  1.1953  2.3287  0.4670
 1047SOL    HW3 3955   0.947  -0.040   3.200 -2.2765  0.4277 -1.7686
 1047SOL    MW4 3956   0.961   0.045   3.193 -0.1059  0.2827 -0.1887
 1048SOL     OW 3957   0.759   2.397   4.787 -0.2706 -0.6457 -0.0844
 1048SOL    HW2 3958   0.835   2.456   4.795 -0.5631  0.1205 -2.2468
 1048SOL    HW3 3959   0.768   2.336   4.860  1.0609  0.9512  1.1656
 1048SOL    MW4 3960   0.770   2.397   4.798 -0.1335 -0.3339 -0.2048
 1049SOL     OW 3961   5.129   2.525   1.081  0.0926 -0.3457 -0.6634
 1049SOL    HW2 3962   5.115   2.433   1.101 -1.0047  0.1478  1.1143
 1049SOL    HW3 3963   5.078   2.572   1.148  0.6470  1.5445 -1.4949
 1049SOL    MW4 3964   5.120   2.519   1.093  0.0210 -0.0312 -0.5386
 1050SOL     OW 3965   1.890   6.290   0.838 -0.3483 -0.0520  0.3771
 1050SOL    HW2 3966   1.810   6.238   0.838 -0.1734 -0.3561 -1.0140
 1050SOL    HW3 3967   1.950   6.241   0.894 -0.0105 -1.7028 -1.2936
 1050SOL    MW4 3968   1.887   6.276   0.845 -0.2807 -0.3100 -0.0269
 1051SOL     OW 3969   6.174   1.153   3.698  0.5207  0.2397 -0.1011
 1051SOL    HW2 3970   6.248   1.200   3.659  1.4839 -1.7548 -0.7822
 1051SOL    HW3 3971   6.147   1.091   3.631  0.0097 -0.9400  1.1452
 1051SOL    MW4 3972   6.180   1.151   3.684  0.5804 -0.1791 -0.0266
 1052SOL     OW 3973   6.152   0.456   4.101 -0.2176  0.0144 -0.1155
 1052SOL    HW2 3974   6.182   0.545   4.084  0.3260  0.0110  0.7978
 1052SOL    HW3 3975   6.060   0.456   4.075 -0.4617  1.0856  0.7063
 1052SOL    MW4 3976   6.144   0.468   4.095 -0.1781  0.1553  0.1134
 1053SOL     OW 3977   3.067   2.482   2.136 -1.1562 -0.0810 -0.1645
 1053SOL    HW2 3978   3.085   2.548   2.069 -0.7642 -2.0520 -2.0918
 1053SOL    HW3 3979   2.985   2.442   2.110 -1.9449  0.2967  1.5766
 1053SOL    MW4 3980   3.059   2.485   2.124 -1.2086 -0.2912 -0.1891
 1054SOL     OW 3981   1.038   6.085   5.219  0.1836  0.7998 -0.5467
 1054SOL    HW2 3982   1.028   6.053   5.308 -0.2311  3.5241  0.4922
 1054SOL    HW3 3983   0.996   6.019   5.164 -3.0117  0.7856  1.6479
 1054SOL    MW4 3984   1.031   6.072   5.223 -0.2927  1.1574 -0.1201
 1055SOL     OW 3985   4.218   4.264   2.849  0.1324  0.1937  0.3582
 1055SOL    HW2 3986   4.293   4.220   2.808 -0.2426  0.3446 -0.5119
 1055SOL    HW3 3987   4.170   4.303   2.776 -1.2328 -0.5541  0.8234
 1055SOL    MW4 3988   4.222   4.264   2.834 -0.0972  0.1150  0.3048
 1056SOL     OW 3989   1.608   5.057   4.360  0.3141 -0.0546  0.0690
 1056SOL    HW2 3990   1.535   5.003   4.328  0.2594 -0.0833  0.2431
 1056SOL    HW3 3991   1.649   5.004   4.429 -0.9965  0.9490  1.7061
 1056SOL    MW4 3992   1.604   5.042   4.365  0.1340  0.0740  0.3079
 1057SOL     OW 3993   1.770   2.507   2.292  0.2510  0.4824  0.4927
 1057SOL    HW2 3994   1.808   2.534   2.209 -0.5578 -0.7537 -0.3115
 1057SOL    HW3 3995   1.763   2.588   2.343  1.9459  1.0617 -0.1254
 1057SOL    MW4 3996   1.774   2.521   2.288  0.3679  0.3958  0.3051
 1058SOL     OW 3997   0.212   0.975   2.305 -0.1965 -0.6251  0.4792
 1058SOL    HW2 3998   0.184   1.065   2.321 -2.5107 -1.2337  0.0788
 1058SOL    HW3 3999   0.148   0.940   2.243  0.9498 -2.4115  0.2341
 1058SOL    MW4 4000   0.200   0.982   2.299 -0.3506 -0.9411  0.3940
 1059SOL     OW 4001   5.043   2.254   1.176 -0.0633 -0.0376 -0.3840
 1059SOL    HW2 4002   5.013   2.171   1.138  0.6256 -0.5132  0.0806
 1059SOL    HW3 4003   4.966   2.288   1.221 -0.7048  0.2118 -1.6253
 1059SOL    MW4 4004   5.029   2.247   1.177 -0.0571 -0.0675 -0.4865
 1060SOL     OW 4005   6.028   0.089   0.473 -0.4626 -0.1177  0.0319
 1060SOL    HW2 4006   5.946   0.095   0.424 -0.6564  0.4623  0.4141
 1060SOL    HW3 4007   6.092   0.136   0.420 -0.7181  0.6789  0.4252
 1060SOL    MW4 4008   6.026   0.096   0.459 -0.5219  0.0639  0.1342
 1061SOL     OW 4009   2.644   1.820   3.031 -0.1263  0.2868 -0.0642
 1061SOL    HW2 4010   2.732   1.855   3.039 -0.1606  0.2078  0.7004
 1061SOL    HW3 4011   2.652   1.751   2.965  0.7035 -0.7143  1.0456
 1061SOL    MW4 4012   2.656   1.815   3.023 -0.0213  0.1443  0.1831
 1062SOL     OW 4013   3.539   3.075   4.528 -0.0229  0.1890 -0.0674
 1062SOL    HW2 4014   3.615   3.092   4.584  0.5025 -0.5847 -0.5209
 1062SOL    HW3 4015   3.508   2.989   4.557 -1.1952  0.8304  0.6252
 1062SOL    MW4 4016   3.545   3.066   4.539 -0.1082  0.1716 -0.0358
 1063SOL     OW 4017   4.043   2.348   0.296 -0.0334 -0.4697 -0.1399
 1063SOL    HW2 4018   3.979   2.408   0.336  1.2217  0.3274  0.7391
 1063SOL    HW3 4019   4.069   2.391   0.215  0.9821  0.3052  0.5645
 1063SOL    MW4 4020   4.038   2.362   0.291  0.2662 -0.2623  0.0690
 1064SOL     OW 4021   1.043   5.990   5.505 -0.2748  0.2155 -0.4326
 1064SOL    HW2 4022   1.021   6.007   5.596 -0.3363  2.1347 -0.7725
 1064SOL    HW3 4023   1.134   6.020   5.496 -0.0994 -0.4207 -0.9000
 1064SOL    MW4 4024   1.052   5.996   5.516 -0.2598  0.3848 -0.5391
 1065SOL     OW 4025   1.713   0.764   0.698 -0.6582 -0.3727 -0.0416
 1065SOL    HW2 4026   1.741   0.684   0.741  0.1564  0.0020  0.1397
 1065SOL    HW3 4027   1.722   0.746   0.604 -1.5227 -0.8620 -0.0358
 1065SOL    MW4 4028   1.718   0.751   0.691 -0.6648 -0.3878 -0.0169
 1066SOL     OW 4029   2.465   1.722   3.233  0.2453 -0.2387 -0.4597
 1066SOL    HW2 4030   2.382   1.737   3.188 -0.6175 -0.8529  0.8681
 1066SOL    HW3 4031   2.531   1.759   3.174 -1.0131  0.8417 -1.2506
 1066SOL    MW4 4032   2.463   1.729   3.219 -0.0345 -0.1772 -0.3888
 1067SOL     OW 4033   3.642   3.094   6.317  0.3092 -0.1606 -0.0221
 1067SOL    HW2 4034   3.611   3.161   6.257 -1.1432  0.2367  1.1255
 1067SOL    HW3 4035   3.667   3.020   6.261 -1.4671  0.0132 -1.0890
 1067SOL    MW4 4036   3.641   3.093   6.302 -0.1168 -0.0852 -0.0115
 1068SOL     OW 4037   1.490   4.109   5.867  0.0079  0.0937  0.0894
 1068SOL    HW2 4038   1.428   4.037   5.880 -0.1973  0.1275 -0.6501
 1068SOL    HW3 4039   1.535   4.118   5.951  1.3810 -2.1379 -0.3375
 1068SOL    MW4 4040   1.487   4.101   5.880  0.1620 -0.1962 -0.0645
 1069SOL     OW 4041   2.292   5.280   1.328  0.4707 -0.5181 -0.3854
 1069SOL    HW2 4042   2.323   5.294   1.238 -0.3904 -0.0087 -0.6210
 1069SOL    HW3 4043   2.216   5.223   1.318 -0.7505  0.9862 -0.1926
 1069SOL    MW4 4044   2.286   5.275   1.315  0.1959 -0.2524 -0.3911
 1070SOL     OW 4045   2.148   3.212   1.635  0.3988 -0.0640  0.0014
 1070SOL    HW2 4046   2.074   3.271   1.644  0.0729 -0.2673 -1.2130
 1070SOL    HW3 4047   2.134   3.167   1.552  0.5244 -2.0340  0.9861
 1070SOL    MW4 4048   2.137   3.213   1.625  0.3724 -0.3507 -0.0289
 1071SOL     OW 4049   3.150   1.207   3.476 -0.2700  0.2190  0.1581
 1071SOL    HW2 4050   3.213   1.270   3.511  0.4208 -0.0622 -0.5447
 1071SOL    HW3 4051   3.096   1.258   3.415 -1.0641  0.5696  1.1264
 1071SOL    MW4 4052   3.151   1.222   3.472 -0.2836  0.2282  0.1931
 1072SOL     OW 4053   0.941   6.433   2.042 -0.6112  0.5371  0.5403
 1072SOL    HW2 4054   1.025   6.402   2.009  0.9931  2.7723  2.2401
 1072SOL    HW3 4055   0.906   6.359   2.092 -0.3855 -0.8712 -1.2487
 1072SOL    MW4 4056   0.947   6.419   2.044 -0.3698  0.6462  0.5285
 1073SOL     OW 4057   4.493   2.399   1.364 -0.2392 -0.6484  0.6009
 1073SOL    HW2 4058   4.550   2.410   1.288 -0.0200  0.6218  0.9325
 1073SOL    HW3 4059   4.465   2.307   1.359  0.9670 -1.0058 -0.1591
 1073SOL    MW4 4060   4.497   2.388   1.353 -0.0511 -0.5280  0.5444
 1074SOL     OW 4061   5.321   3.550   5.667 -0.1414 -0.2025 -0.1811
 1074SOL    HW2 4062   5.372   3.546   5.747  0.6191 -1.6320 -0.6940
 1074SOL    HW3 4063   5.235   3.582   5.694  1.0368  2.4840  0.6660
 1074SOL    MW4 4064   5.316   3.553   5.681  0.1144 -0.0366 -0.1370
 1075SOL     OW 4065   3.948   4.760   5.906 -0.2655 -0.1059 -0.3926
 1075SOL    HW2 4066   3.904   4.716   5.979 -2.8687  0.4951 -1.5002
 1075SOL    HW3 4067   3.882   4.818   5.869  1.2437  0.2656 -2.7110
 1075SOL    MW4 4068   3.934   4.762   5.911 -0.4099  0.0224 -0.8446
 1076SOL     OW 4069   1.784   5.865   2.201  0.1959 -0.5746  0.3095
 1076SOL    HW2 4070   1.823   5.952   2.209  1.6767 -0.9426 -2.0171
 1076SOL    HW3 4071   1.759   5.841   2.291  0.0602  2.0700  1.0411
 1076SOL    MW4 4072   1.786   5.873   2.214  0.3734 -0.2742  0.0991
 1077SOL     OW 4073   3.102   3.327   3.684  0.3136  0.4123 -0.6578
 1077SOL    HW2 4074   3.176   3.267   3.676  0.1159  0.0224  0.2881
 1077SOL    HW3 4075   3.111   3.386   3.609  0.4891 -0.8061 -1.6308
 1077SOL    MW4 4076   3.113   3.327   3.673  0.3107  0.2001 -0.6614
 1078SOL     OW 4077   0.702   1.337   4.582  0.6760  0.1703  0.1844
 1078SOL    HW2 4078   0.732   1.252   4.549 -0.8486 -0.1769 -0.3997
 1078SOL    HW3 4079   0.670   1.383   4.505  1.8493  1.4727  0.4340
 1078SOL    MW4 4080   0.702   1.332   4.568  0.6296  0.2963  0.1403
 1079SOL     OW 4081   3.390   2.097   1.817  0.3883 -0.5270  0.1885
 1079SOL    HW2 4082   3.353   2.021   1.862 -0.4109 -0.4594 -0.3244
 1079SOL    HW3 4083   3.457   2.130   1.877  0.3248 -1.2691  0.6889
 1079SOL    MW4 4084   3.394   2.091   1.831  0.2744 -0.6160  0.1869
 1080SOL     OW 4085   3.826   2.256   4.195 -0.3485 -0.5476  0.1488
 1080SOL    HW2 4086   3.893   2.300   4.144 -0.7132 -0.3891 -0.1982
 1080SOL    HW3 4087   3.773   2.209   4.131  1.1413 -3.0890  0.6442
 1080SOL    MW4 4088   3.828   2.256   4.180 -0.2000 -0.8620  0.1684
 1081SOL     OW 4089   0.126   5.280   1.308  0.8547  0.1790  0.0232
 1081SOL    HW2 4090   0.159   5.282   1.218 -1.0485 -1.6471 -0.8093
 1081SOL    HW3 4091   0.083   5.195   1.315  1.1700  0.1620  2.7815
 1081SOL    MW4 4092   0.125   5.269   1.297  0.6452 -0.0642  0.2773
 1082SOL     OW 4093   0.865   4.170   1.459 -0.1245 -0.2427 -0.2751
 1082SOL    HW2 4094   0.800   4.229   1.498 -0.6648  0.3017 -1.9036
 1082SOL    HW3 4095   0.852   4.179   1.365  1.1185 -1.5043 -0.6055
 1082SOL    MW4 4096   0.855   4.179   1.452 -0.0318 -0.3373 -0.5336
 1083SOL     OW 4097   4.261   5.653   1.506  0.1918  0.2594  0.2064
 1083SOL    HW2 4098   4.199   5.597   1.554  1.9053 -1.4887  0.4917
 1083SOL    HW3 4099   4.217   5.673   1.424 -0.7795 -0.9168  0.4146
 1083SOL    MW4 4100   4.247   5.648   1.502  0.2897 -0.1264  0.2715
 1084SOL     OW 4101   4.504   4.033   1.701  0.2322  0.4428  0.5447
 1084SOL    HW2 4102   4.490   4.074   1.616  1.5359 -0.3111 -0.0774
 1084SOL    HW3 4103   4.560   4.094   1.749  2.4720 -0.6598 -0.5142
 1084SOL    MW4 4104   4.510   4.046   1.696  0.6997  0.1979  0.3229
 1085SOL     OW 4105   5.565   2.780   3.135 -0.0811 -0.3912  0.5512
 1085SOL    HW2 4106   5.632   2.715   3.118 -0.3876 -1.2626  2.4130
 1085SOL    HW3 4107   5.508   2.778   3.058  1.2659 -0.5720 -0.4613
 1085SOL    MW4 4108   5.566   2.771   3.123  0.0562 -0.5300  0.6632
 1086SOL     OW 4109   2.310   1.365   3.819  0.0435 -0.2417  0.4714
 1086SOL    HW2 4110   2.302   1.387   3.911 -0.2765  1.8837 -0.0179
 1086SOL    HW3 4111   2.254   1.427   3.774  0.7153 -0.7906 -1.2232
 1086SOL    MW4 4112   2.302   1.376   3.825  0.0899 -0.0337  0.1832
 1087SOL     OW 4113   4.643   3.279   5.962  0.4239 -0.0914  1.1796
 1087SOL    HW2 4114   4.608   3.276   6.051 -3.5619 -1.2468 -0.1881
 1087SOL    HW3 4115   4.625   3.369   5.933 -1.7159 -0.6662  0.4991
 1087SOL    MW4 4116   4.636   3.290   5.970 -0.3843 -0.3197  0.9094
 1088SOL     OW 4117   4.760   0.780   5.368 -0.0679  0.5920  0.0658
 1088SOL    HW2 4118   4.744   0.706   5.310 -1.3330  0.6711  0.2813
 1088SOL    HW3 4119   4.673   0.820   5.380  0.2584  0.8985  1.5535
 1088SOL    MW4 4120   4.746   0.776   5.362 -0.1918  0.6429  0.2905
 1089SOL     OW 4121   6.033   5.711   3.065 -0.6369 -0.1054  0.0093
 1089SOL    HW2 4122   6.082   5.709   2.983 -1.2288 -1.0327 -0.3428
 1089SOL    HW3 4123   6.009   5.803   3.077  0.3040  0.1891 -0.3344
 1089SOL    MW4 4124   6.036   5.723   3.056 -0.5908 -0.1889 -0.0825
 1090SOL     OW 4125   1.584   0.592   4.101  0.4853 -0.2389  0.0618
 1090SOL    HW2 4126   1.618   0.516   4.148  0.6768 -0.1134  0.1239
 1090SOL    HW3 4127   1.490   0.590   4.117  0.6088  0.1075  0.8882
 1090SOL    MW4 4128   1.576   0.582   4.109  0.5269 -0.1766  0.1790
 1091SOL     OW 4129   4.582   4.834   3.686  0.5062 -0.0124 -0.2999
 1091SOL    HW2 4130   4.671   4.799   3.685  0.3421 -0.4377 -0.7967
 1091SOL    HW3 4131   4.547   4.807   3.771  0.7065 -0.2284 -0.2835
 1091SOL    MW4 4132   4.589   4.825   3.697  0.5109 -0.0970 -0.3633
 1092SOL     OW 4133   4.167   4.721   3.676  0.0555  0.0738  0.3410
 1092SOL    HW2 4134   4.165   4.812   3.705  0.6712 -0.1503  1.1216
 1092SOL    HW3 4135   4.087   4.682   3.711  0.8563 -0.2314  1.9524
 1092SOL    MW4 4136   4.156   4.728   3.684  0.2424  0.0040  0.6566
 1093SOL     OW 4137   3.356   3.239   3.290 -0.4985  0.4234  0.0007
 1093SOL    HW2 4138   3.407   3.175   3.240  1.5482  0.3149  2.0767
 1093SOL    HW3 4139   3.283   3.261   3.233 -0.8176 -3.0919 -1.1598
 1093SOL    MW4 4140   3.353   3.234   3.276 -0.2706 -0.0547  0.1215
 1094SOL     OW 4141   1.808   3.329   0.980 -0.6138 -0.9039  0.0758
 1094SOL    HW2 4142   1.763   3.249   0.955 -0.6414 -1.1198  0.7861
 1094SOL    HW3 4143   1.859   3.305   1.058 -1.2576 -0.0472  0.7848
 1094SOL    MW4 4144   1.809   3.316   0.987 -0.7024 -0.8194  0.2631
 1095SOL     OW 4145   1.799   6.279   0.036 -0.6160 -0.2814 -0.6008
 1095SOL    HW2 4146   1.871   6.318  -0.014 -1.5315  1.1409 -0.8629
 1095SOL    HW3 4147   1.720   6.306  -0.010 -1.4812  0.8344  1.4136
 1095SOL    MW4 4148   1.798   6.288   0.023 -0.8509  0.0534 -0.3696
 1096SOL     OW 4149   2.980   3.146   2.503 -0.1246  0.0731  0.2973
 1096SOL    HW2 4150   2.886   3.165   2.497 -0.1676 -0.3472 -0.4038
 1096SOL    HW3 4151   3.010   3.200   2.576 -1.0652 -0.3747  1.0468
 1096SOL    MW4 4152   2.972   3.156   2.512 -0.2543 -0.0414  0.3037
 1097SOL     OW 4153   1.603   3.858   4.530  0.3493 -0.5766 -0.2195
 1097SOL    HW2 4154   1.631   3.855   4.622 -1.3560 -0.5783  0.3422
 1097SOL    HW3 4155   1.527   3.916   4.530 -0.0349 -1.0390 -1.5294
 1097SOL    MW4 4156   1.597   3.865   4.542  0.0736 -0.6379 -0.3182
 1098SOL     OW 4157   1.027   3.457   2.188 -0.1474  0.0341 -0.4911
 1098SOL    HW2 4158   0.991   3.483   2.103 -1.4467 -0.3951 -0.0835
 1098SOL    HW3 4159   1.058   3.367   2.173 -0.9790 -0.2850 -0.3490
 1098SOL    MW4 4160   1.027   3.448   2.175 -0.4285 -0.0646 -0.4186
 1099SOL     OW 4161   3.269   2.857   4.518  0.0871 -0.4360  0.5907
 1099SOL    HW2 4162   3.200   2.808   4.562 -0.2300 -1.3555 -0.8767
 1099SOL    HW3 4163   3.312   2.793   4.462  2.4603 -0.0164  1.7906
 1099SOL    MW4 4164   3.266   2.842   4.516  0.3584 -0.5020  0.5554
 1100SOL     OW 4165   3.038   2.178   1.177 -0.5910  0.4334 -0.0693
 1100SOL    HW2 4166   3.119   2.219   1.147 -0.7568  0.5394 -0.3874
 1100SOL    HW3 4167   3.040   2.090   1.140  0.5480 -0.4593  1.9842
 1100SOL    MW4 4168   3.049   2.172   1.168 -0.4626  0.3296  0.1597
 1101SOL     OW 4169   5.573   0.367   1.256  0.0611 -0.1185  0.3924
 1101SOL    HW2 4170   5.567   0.424   1.179 -0.0759  0.1271  0.5858
 1101SOL    HW3 4171   5.518   0.291   1.233  1.9359 -1.2161 -0.7560
 1101SOL    MW4 4172   5.565   0.364   1.243  0.2904 -0.2309  0.2664
 1102SOL     OW 4173   6.312   4.232   4.461  0.0596  0.6787  0.2505
 1102SOL    HW2 4174   6.292   4.325   4.470  2.1374  1.0045  2.5492
 1102SOL    HW3 4175   6.227   4.191   4.444 -1.3093  2.7286  1.6331
 1102SOL    MW4 4176   6.298   4.239   4.460  0.1532  0.9921  0.7362
 1103SOL     OW 4177   4.673   0.291   4.392 -0.1018  0.6443  0.3901
 1103SOL    HW2 4178   4.699   0.212   4.346  0.5531  1.0876 -0.0166
 1103SOL    HW3 4179   4.579   0.300   4.374  0.3140  1.3213 -1.6971
 1103SOL    MW4 4180   4.664   0.282   4.384  0.0395  0.7921  0.0610
 1104SOL     OW 4181   5.583   0.805   6.110  0.7777  0.2086  0.2895
 1104SOL    HW2 4182   5.566   0.755   6.031  0.0868  0.7037  0.1133
 1104SOL    HW3 4183   5.514   0.872   6.112  2.6215  2.2832 -0.4303
 1104SOL    MW4 4184   5.572   0.807   6.100  0.9298  0.5477  0.1713
 1105SOL     OW 4185   6.428   5.604   2.785  0.0244  0.1660 -0.5318
 1105SOL    HW2 4186   6.471   5.555   2.855  3.0986  0.5783 -1.9467
 1105SOL    HW3 4187   6.415   5.539   2.715 -1.8041  0.0453 -0.1229
 1105SOL    MW4 4188   6.432   5.589   2.785  0.1887  0.2045 -0.6645
 1106SOL     OW 4189   5.685   6.022   2.343 -0.2473 -0.7670 -0.2173
 1106SOL    HW2 4190   5.771   6.049   2.374 -1.1629 -0.4004  2.2348
 1106SOL    HW3 4191   5.687   5.926   2.347 -0.1084 -0.7441  0.3648
 1106SOL    MW4 4192   5.697   6.013   2.347 -0.3498 -0.7156  0.1831
 1107SOL     OW 4193   0.384   6.294   3.089  0.1802 -0.1142 -0.0614
 1107SOL    HW2 4194   0.419   6.354   3.024 -0.0017  3.3807  2.7282
 1107SOL    HW3 4195   0.292   6.283   3.064  0.2806  0.5729 -0.7793
 1107SOL    MW4 4196   0.376   6.300   3.077  0.1695  0.4376  0.2119
 1108SOL     OW 4197   1.246   2.852   1.177 -0.7388 -0.6764  0.7784
 1108SOL    HW2 4198   1.169   2.899   1.145 -0.0334 -0.0382 -0.0342
 1108SOL    HW3 4199   1.213   2.766   1.202 -1.7737 -0.2928  0.7733
 1108SOL    MW4 4200   1.232   2.847   1.176 -0.7823 -0.5416  0.6705
 1109SOL     OW 4201   5.512   2.947   5.873  0.2685  0.5400  0.2598
 1109SOL    HW2 4202   5.567   3.007   5.822  1.0324 -0.1512  0.2664
 1109SOL    HW3 4203   5.523   2.862   5.832  1.6207 -0.2314  2.0948
 1109SOL    MW4 4204   5.520   2.944   5.861  0.5477  0.3470  0.5028
 1110SOL     OW 4205   3.689   5.706   4.135 -0.3237 -0.5954  0.2648
 1110SOL    HW2 4206   3.684   5.613   4.112  1.2974 -0.8819  0.9428
 1110SOL    HW3 4207   3.725   5.748   4.057 -0.0101 -0.7162  0.3426
 1110SOL    MW4 4208   3.693   5.699   4.121 -0.0684 -0.6491  0.3645
 1111SOL     OW 4209   4.972   0.578   1.077 -0.3715 -0.6811  0.3883
 1111SOL    HW2 4210   4.891   0.545   1.036  0.2348 -2.2860  0.4089
 1111SOL    HW3 4211   4.943   0.654   1.127 -1.8692 -1.1566  0.3191
 1111SOL    MW4 4212   4.957   0.583   1.078 -0.4891 -0.9555  0.3819
 1112SOL     OW 4213   5.781   1.972   5.277 -0.1904 -0.6683  1.0153
 1112SOL    HW2 4214   5.771   1.894   5.223  1.3326  0.3315 -0.8352
 1112SOL    HW3 4215   5.791   1.938   5.367 -0.3956 -2.5255  0.3790
 1112SOL    MW4 4216   5.781   1.957   5.282 -0.0165 -0.7814  0.6872
 1113SOL     OW 4217   5.355   1.882   4.153 -0.4092  0.4490  0.3437
 1113SOL    HW2 4218   5.259   1.885   4.151 -0.3956  0.7012  0.0166
 1113SOL    HW3 4219   5.383   1.962   4.108 -0.0382 -0.8023 -1.8100
 1113SOL    MW4 4220   5.346   1.893   4.147 -0.3584  0.3172  0.0164
 1114SOL     OW 4221   2.691   4.073   3.394 -0.4808 -0.1964 -0.0040
 1114SOL    HW2 4222   2.758   4.081   3.463  0.0042  0.2826 -0.5220
 1114SOL    HW3 4223   2.736   4.100   3.314 -1.1587 -0.3578 -0.4422
 1114SOL    MW4 4224   2.706   4.078   3.393 -0.5063 -0.1545 -0.1301
 1115SOL     OW 4225   5.642   2.083   5.917 -0.0386  0.5255 -0.3958
 1115SOL    HW2 4226   5.594   2.148   5.866 -2.7255 -0.6783  0.4021
 1115SOL    HW3 4227   5.646   2.119   6.006 -2.2258 -0.5744  0.2386
 1115SOL    MW4 4228   5.636   2.096   5.922 -0.6817  0.2215 -0.2068
 1116SOL     OW 4229   0.420   4.113   1.034 -0.4300  0.5165 -0.1607
 1116SOL    HW2 4230   0.374   4.189   1.069  1.7950  1.8781  0.0257
 1116SOL    HW3 4231   0.487   4.150   0.977 -0.3350 -1.4112 -1.4015
 1116SOL    MW4 4232   0.423   4.128   1.031 -0.1239  0.4418 -0.2998
 1117SOL     OW 4233   5.273   3.026   0.130  0.3432 -0.0460 -0.3591
 1117SOL    HW2 4234   5.257   2.942   0.172 -2.0900 -1.4012 -3.5698
 1117SOL    HW3 4235   5.369   3.035   0.130  0.6284 -2.2783  0.9981
 1117SOL    MW4 4236   5.284   3.016   0.136  0.0598 -0.5193 -0.6037
 1118SOL     OW 4237   6.187   3.730   4.970 -0.4207 -0.1277 -0.1068
 1118SOL    HW2 4238   6.168   3.816   4.934 -1.5685 -0.1733  0.3247
 1118SOL    HW3 4239   6.134   3.725   5.049  1.1368 -0.4866  0.9631
 1118SOL    MW4 4240   6.177   3.740   4.975 -0.3666 -0.1811  0.0913
 1119SOL     OW 4241   4.068   5.502   1.624 -0.0056 -0.4928  0.1531
 1119SOL    HW2 4242   4.077   5.523   1.717  0.1632 -1.1285  0.2823
 1119SOL    HW3 4243   4.069   5.407   1.620  0.8673 -0.4695 -0.5833
 1119SOL    MW4 4244   4.069   5.493   1.635  0.1318 -0.5736  0.0730
 1120SOL     OW 4245   3.051   1.500   5.085 -0.1171 -0.3080 -0.1006
 1120SOL    HW2 4246   3.096   1.431   5.036 -1.6731 -0.9661 -0.6650
 1120SOL    HW3 4247   2.993   1.541   5.021 -0.7715  0.1102  0.7355
 1120SOL    MW4 4248   3.049   1.496   5.070 -0.4088 -0.3396 -0.0647
 1121SOL     OW 4249   1.307   5.675   5.971 -0.3462  0.4448 -0.6331
 1121SOL    HW2 4250   1.328   5.581   5.972 -3.2506 -0.3586 -1.9117
 1121SOL    HW3 4251   1.360   5.711   5.900  0.4367 -0.3370 -0.4618
 1121SOL    MW4 4252   1.317   5.667   5.962 -0.6261  0.2357 -0.7792
 1122SOL     OW 4253   0.112   1.773   0.020  0.0103 -0.2407 -0.3277
 1122SOL    HW2 4254   0.167   1.839   0.063  1.0951 -1.0706 -0.3809
 1122SOL    HW3 4255   0.026   1.784   0.060  0.2120  1.0908 -0.2229
 1122SOL    MW4 4256   0.108   1.783   0.031  0.1800 -0.1745 -0.3209
 1123SOL     OW 4257   2.676   4.567   3.936  0.3984 -0.3028 -0.1004
 1123SOL    HW2 4258   2.649   4.489   3.887 -2.0000  0.7429 -0.5883
 1123SOL    HW3 4259   2.635   4.639   3.890 -0.8214  0.8878  2.6423
 1123SOL    MW4 4260   2.667   4.566   3.923 -0.0790 -0.0078  0.1971
 1124SOL     OW 4261   0.903   3.060   0.814  0.0704 -0.3157  0.1126
 1124SOL    HW2 4262   0.925   2.999   0.744 -0.1350  0.3534 -0.5468
 1124SOL    HW3 4263   0.951   3.140   0.793 -1.2189  0.4218 -0.1479
 1124SOL    MW4 4264   0.912   3.063   0.802 -0.1268 -0.1301 -0.0087
 1125SOL     OW 4265   4.201   3.590   6.218  0.0423  0.2417 -0.0404
 1125SOL    HW2 4266   4.269   3.657   6.225  0.0401  0.5403 -2.2436
 1125SOL    HW3 4267   4.232   3.518   6.274  2.4141  0.1862 -1.2975
 1125SOL    MW4 4268   4.214   3.589   6.226  0.3549  0.2738 -0.4969
 1126SOL     OW 4269   6.006   0.377   2.604  0.3585 -0.1367  0.1744
 1126SOL    HW2 4270   6.036   0.287   2.618  0.6047  0.0499  0.8627
 1126SOL    HW3 4271   6.078   0.419   2.558  0.4729 -0.1365  0.3544
 1126SOL    MW4 4272   6.019   0.370   2.600  0.4061 -0.1121  0.2890
 1127SOL     OW 4273   3.083   2.500   0.691  0.3783  0.2153  0.2568
 1127SOL    HW2 4274   3.005   2.457   0.656  0.8438  0.8853 -1.7076
 1127SOL    HW3 4275   3.153   2.436   0.680  0.4672  0.3131  0.2472
 1127SOL    MW4 4276   3.082   2.486   0.685  0.4515  0.3166 -0.0036
 1128SOL     OW 4277   2.334   3.392   2.244  0.5195 -0.2445  0.0316
 1128SOL    HW2 4278   2.393   3.334   2.196  0.3938 -1.7299  1.5504
 1128SOL    HW3 4279   2.351   3.479   2.209  0.4399 -1.2070 -2.6534
 1128SOL    MW4 4280   2.344   3.396   2.233  0.4924 -0.5675 -0.1223
 1129SOL     OW 4281   3.357   1.536   0.366 -0.4707  0.2183  0.3820
 1129SOL    HW2 4282   3.388   1.480   0.295  0.3325 -1.4834  1.9806
 1129SOL    HW3 4283   3.428   1.535   0.430 -1.1019  1.8198  1.1587
 1129SOL    MW4 4284   3.370   1.528   0.365 -0.4480  0.2051  0.6954
 1130SOL     OW 4285   3.417   0.056   5.899  0.1006 -0.2963  0.1631
 1130SOL    HW2 4286   3.339   0.043   5.845 -0.0728 -0.2851  0.4112
 1130SOL    HW3 4287   3.405  -0.004   5.973 -0.2367  0.5619  0.8129
 1130SOL    MW4 4288   3.405   0.046   5.902  0.0332 -0.1816  0.2816
 1131SOL     OW 4289   4.174   5.359   0.890 -0.2919 -0.3853  0.1755
 1131SOL    HW2 4290   4.120   5.284   0.917  0.2809 -0.7388  0.3572
 1131SOL    HW3 4291   4.260   5.321   0.871  0.0050  0.2276  0.2660
 1131SOL    MW4 4292   4.178   5.344   0.891 -0.1771 -0.3511  0.2114
 1132SOL     OW 4293   2.687   4.964   2.761  0.5431 -0.7074  0.1902
 1132SOL    HW2 4294   2.781   4.955   2.746  0.6538 -1.3377  1.1302
 1132SOL    HW3 4295   2.646   4.925   2.684  1.0070  1.6887 -1.3856
 1132SOL    MW4 4296   2.694   4.958   2.749  0.6189 -0.4745  0.1063
 1133SOL     OW 4297   2.417   1.890   4.109  0.2207 -0.2552  0.2316
 1133SOL    HW2 4298   2.460   1.974   4.090  0.5130  0.0004  1.8826
 1133SOL    HW3 4299   2.415   1.846   4.025  0.3611  1.2717 -0.6194
 1133SOL    MW4 4300   2.423   1.896   4.096  0.2778 -0.0200  0.3372
 1134SOL     OW 4301   4.865   0.500   5.824  0.3279  0.3186  0.0462
 1134SOL    HW2 4302   4.857   0.557   5.748 -0.7912  1.6353  1.0958
 1134SOL    HW3 4303   4.804   0.428   5.807  1.1492 -0.1756 -0.9187
 1134SOL    MW4 4304   4.856   0.498   5.812  0.2886  0.4271  0.0574
 1135SOL     OW 4305   5.532   2.967   4.759 -0.3276 -0.5617 -0.2768
 1135SOL    HW2 4306   5.534   2.992   4.851 -0.5008 -0.8714 -0.1879
 1135SOL    HW3 4307   5.496   2.878   4.759  0.0702 -0.7231 -0.6081
 1135SOL    MW4 4308   5.527   2.958   4.771 -0.2979 -0.6239 -0.3088
 1136SOL     OW 4309   0.546   5.306   5.552 -0.0971 -1.0928  0.0231
 1136SOL    HW2 4310   0.513   5.304   5.641  1.4908  0.7323  0.7317
 1136SOL    HW3 4311   0.494   5.373   5.508 -0.3970 -1.4795 -0.2157
 1136SOL    MW4 4312   0.535   5.315   5.558  0.0728 -0.9030  0.0851
 1137SOL     OW 4313   2.449   1.424   1.733 -0.2218  0.1789  0.0511
 1137SOL    HW2 4314   2.498   1.366   1.791 -0.1685  0.1407 -0.0308
 1137SOL    HW3 4315   2.427   1.369   1.657 -1.9798 -0.3337  0.8874
 1137SOL    MW4 4316   2.453   1.409   1.730 -0.4467  0.1062  0.1507
 1138SOL     OW 4317   6.054   1.624   3.381 -0.4648 -0.3542 -0.4373
 1138SOL    HW2 4318   5.995   1.649   3.310 -0.7885  0.2515  0.0378
 1138SOL    HW3 4319   6.139   1.612   3.339 -1.0455 -1.8969 -1.2562
 1138SOL    MW4 4320   6.057   1.626   3.366 -0.5841 -0.4778 -0.4826
 1139SOL     OW 4321   1.010   4.061   0.349 -0.6672 -0.0449  0.1657
 1139SOL    HW2 4322   1.019   4.073   0.254 -1.1403  0.6345  0.1937
 1139SOL    HW3 4323   1.078   3.999   0.373  0.4222  0.9002 -0.3940
 1139SOL    MW4 4324   1.020   4.055   0.340 -0.5858  0.1694  0.0956
 1140SOL     OW 4325   3.276   2.971   2.460 -0.3573  0.4684  0.4688
 1140SOL    HW2 4326   3.237   2.930   2.537 -0.2147 -1.3935 -0.3722
 1140SOL    HW3 4327   3.206   2.973   2.395 -0.0988  0.6936  0.1919
 1140SOL    MW4 4328   3.262   2.966   2.462 -0.3044  0.2524  0.3213
 1141SOL     OW 4329   5.889   4.724   5.191  0.4571 -0.5696  0.2360
 1141SOL    HW2 4330   5.938   4.761   5.264  0.5967 -1.6984  0.7429
 1141SOL    HW3 4331   5.921   4.634   5.184  0.4079 -0.5009 -1.1886
 1141SOL    MW4 4332   5.899   4.717   5.200  0.4691 -0.7095  0.1149
 1142SOL     OW 4333   5.101   0.458   3.924  0.5316  0.6068 -0.5245
 1142SOL    HW2 4334   5.091   0.375   3.970  1.7548  0.2896 -0.7909
 1142SOL    HW3 4335   5.115   0.523   3.993 -0.9773  0.6927 -0.2860
 1142SOL    MW4 4336   5.102   0.456   3.939  0.4939  0.5763 -0.5282
 1143SOL     OW 4337   5.956   2.202   3.249 -0.5865  0.5910  0.4316
 1143SOL    HW2 4338   5.943   2.277   3.307 -0.5030  0.0236  1.1973
 1143SOL    HW3 4339   5.891   2.213   3.180 -1.0229  1.0081  0.9050
 1143SOL    MW4 4340   5.946   2.214   3.247 -0.6331  0.5712  0.5951
 1144SOL     OW 4341   1.450   6.444   1.429 -1.1654  0.0291  0.1576
 1144SOL    HW2 4342   1.381   6.499   1.465 -1.6069 -0.7458  0.5055
 1144SOL    HW3 4343   1.499   6.502   1.370 -1.0526  1.0457  1.2177
 1144SOL    MW4 4344   1.447   6.459   1.426 -1.2088  0.0610  0.3434
 1145SOL     OW 4345   3.703   1.972   2.853  0.2120  0.2557  0.0013
 1145SOL    HW2 4346   3.704   2.036   2.925  0.4625  1.3820 -0.9809
 1145SOL    HW3 4347   3.788   1.929   2.859  0.5455  0.8866 -0.0828
 1145SOL    MW4 4348   3.715   1.975   2.864  0.2890  0.4875 -0.1394
 1146SOL     OW 4349   3.419   2.697   1.358 -0.1906  0.1376 -0.2905
 1146SOL    HW2 4350   3.429   2.706   1.453  0.4501  1.5756 -0.4690
 1146SOL    HW3 4351   3.325   2.701   1.343 -0.2906  0.0177  0.2685
 1146SOL    MW4 4352   3.408   2.699   1.369 -0.1192  0.3115 -0.2403
 1147SOL     OW 4353   2.131   4.365   5.313 -0.1345  0.1513  0.1020
 1147SOL    HW2 4354   2.049   4.321   5.290  0.0503  0.1629 -0.6083
 1147SOL    HW3 4355   2.107   4.425   5.384 -1.0373  1.1107 -0.9556
 1147SOL    MW4 4356   2.117   4.367   5.319 -0.2293  0.2794 -0.1312
 1148SOL     OW 4357   3.355   1.549   1.269  0.4675 -0.3816  0.0194
 1148SOL    HW2 4358   3.411   1.518   1.198  1.1341 -1.0227  0.8065
 1148SOL    HW3 4359   3.337   1.471   1.321  3.3317  0.6273  2.8553
 1148SOL    MW4 4360   3.360   1.535   1.266  0.9333 -0.3331  0.4974
 1149SOL     OW 4361   0.035   5.109   5.971 -0.0554  0.1039  0.0366
 1149SOL    HW2 4362   0.072   5.059   5.899 -0.2397  0.1312 -0.0773
 1149SOL    HW3 4363   0.069   5.198   5.960 -1.3530  0.5046 -0.9472
 1149SOL    MW4 4364   0.044   5.114   5.960 -0.2509  0.1604 -0.1082
 1150SOL     OW 4365   2.868   2.032   0.561 -0.2197  0.2806  0.2489
 1150SOL    HW2 4366   2.778   2.007   0.584 -0.0279 -0.6983 -0.0454
 1150SOL    HW3 4367   2.921   2.000   0.634  0.3520 -2.5286 -1.2740
 1150SOL    MW4 4368   2.863   2.025   0.574 -0.1190 -0.2192  0.0091
 1151SOL     OW 4369   2.954   0.568   5.003 -0.0304 -0.4905  0.3481
 1151SOL    HW2 4370   2.870   0.605   4.977 -1.0076 -1.5834  1.8340
 1151SOL    HW3 4371   2.995   0.638   5.056  0.1066  0.1121 -0.5318
 1151SOL    MW4 4372   2.949   0.582   5.007 -0.1412 -0.5552  0.4281
 1152SOL     OW 4373   5.166   6.355   0.073 -0.0429  0.1598  0.1204
 1152SOL    HW2 4374   5.100   6.403   0.023 -0.7511  0.4313  1.2887
 1152SOL    HW3 4375   5.189   6.414   0.145 -1.5539 -1.5040  2.1054
 1152SOL    MW4 4376   5.160   6.369   0.076 -0.3357 -0.0239  0.5364
 1153SOL     OW 4377   4.678   4.871   1.526  0.0030  0.6604  0.1011
 1153SOL    HW2 4378   4.712   4.783   1.507 -0.1880  0.7490 -0.6743
 1153SOL    HW3 4379   4.598   4.855   1.576  0.2679  0.4103  0.4549
 1153SOL    MW4 4380   4.672   4.857   1.530  0.0127  0.6391  0.0455
 1154SOL     OW 4381   0.153   1.100   1.880  0.4666 -0.0103 -0.3810
 1154SOL    HW2 4382   0.196   1.185   1.880  1.0307 -0.2895 -0.7474
 1154SOL    HW3 4383   0.168   1.066   1.792  2.4525 -1.5843  0.4904
 1154SOL    MW4 4384   0.160   1.107   1.868  0.8031 -0.2548 -0.3144
 1155SOL     OW 4385   5.685   3.274   3.788 -0.1195 -0.0233  0.0917
 1155SOL    HW2 4386   5.619   3.341   3.773  0.8851  0.5057 -2.5601
 1155SOL    HW3 4387   5.643   3.192   3.763 -0.8761 -0.2428  1.9349
 1155SOL    MW4 4388   5.671   3.272   3.783 -0.0868  0.0175 -0.0150
 1156SOL     OW 4389   6.387   1.831   3.754  0.1447 -0.1817 -0.3451
 1156SOL    HW2 4390   6.437   1.830   3.672  0.5006  1.3933 -0.1809
 1156SOL    HW3 4391   6.299   1.857   3.729  0.0151 -0.5969 -0.3304
 1156SOL    MW4 4392   6.382   1.834   3.740  0.1746 -0.0287 -0.3215
 1157SOL     OW 4393   2.076   3.908   0.952  0.2118 -0.0874  0.3493
 1157SOL    HW2 4394   2.127   3.987   0.937 -0.8899  0.5975  0.1294
 1157SOL    HW3 4395   1.985   3.937   0.948 -0.2368 -1.5119 -0.6169
 1157SOL    MW4 4396   2.070   3.922   0.949  0.0073 -0.1850  0.1928
 1158SOL     OW 4397   2.491   5.303   5.760  0.1790 -0.0916 -0.8327
 1158SOL    HW2 4398   2.538   5.294   5.843  0.9477  0.3684 -1.1994
 1158SOL    HW3 4399   2.469   5.396   5.756 -0.4379 -0.2352 -0.8471
 1158SOL    MW4 4400   2.495   5.314   5.771  0.1990 -0.0498 -0.8830
 1159SOL     OW 4401   2.991   1.368   5.342 -0.1150  0.1558 -0.5706
 1159SOL    HW2 4402   3.022   1.428   5.274  0.2775  0.8590  0.2146
 1159SOL    HW3 4403   2.980   1.285   5.296 -1.1703  0.9335 -1.7860
 1159SOL    MW4 4404   2.994   1.365   5.327 -0.2025  0.3512 -0.6273
 1160SOL     OW 4405   3.393   4.344   0.282  0.2335 -0.0484  0.1747
 1160SOL    HW2 4406   3.390   4.250   0.262 -0.0406  0.1755 -0.8783
 1160SOL    HW3 4407   3.482   4.371   0.258  0.6053 -0.1984  1.3052
 1160SOL    MW4 4408   3.404   4.335   0.276  0.2464 -0.0387  0.1849
 1161SOL     OW 4409   6.204   6.116   6.399  0.1984  0.2440  0.6338
 1161SOL    HW2 4410   6.216   6.177   6.326 -2.3272 -0.3080 -0.3570
 1161SOL    HW3 4411   6.258   6.041   6.377 -0.0670  0.3355 -0.4052
 1161SOL    MW4 4412   6.213   6.114   6.386 -0.1698  0.1832  0.3660
 1162SOL     OW 4413   1.984   3.073   6.101 -0.6621 -0.4873  0.0481
 1162SOL    HW2 4414   1.937   3.157   6.099 -0.6201 -0.4524  0.4984
 1162SOL    HW3 4415   2.029   3.069   6.016 -0.5101  0.0365  0.0979
 1162SOL    MW4 4416   1.984   3.084   6.089 -0.6365 -0.4136  0.1141
 1163SOL     OW 4417   2.411   2.245   0.750  0.5021  0.4939  0.4454
 1163SOL    HW2 4418   2.501   2.278   0.751  0.5958  0.2554  0.0370
 1163SOL    HW3 4419   2.406   2.193   0.670  0.1518  0.0799  0.7361
 1163SOL    MW4 4420   2.422   2.243   0.739  0.4682  0.4078  0.4299
 1164SOL     OW 4421   1.964   0.979   6.322 -0.6448  0.0432  0.8616
 1164SOL    HW2 4422   1.889   1.037   6.326 -0.8548 -0.1631  0.0887
 1164SOL    HW3 4423   1.983   0.971   6.229  0.6491  0.4833  1.0738
 1164SOL    MW4 4424   1.957   0.985   6.310 -0.5018  0.0740  0.7877
 1165SOL     OW 4425   3.234   5.677   2.769 -0.1644 -0.0032 -0.4539
 1165SOL    HW2 4426   3.222   5.753   2.826 -0.7010 -0.2893 -0.1777
 1165SOL    HW3 4427   3.293   5.619   2.819 -1.2387 -0.5963  0.1659
 1165SOL    MW4 4428   3.240   5.679   2.783 -0.3770 -0.1192 -0.3357
 1166SOL     OW 4429   1.405   6.430   0.953  0.4570  0.2431 -0.0267
 1166SOL    HW2 4430   1.316   6.455   0.978  0.1314 -0.4508 -0.4738
 1166SOL    HW3 4431   1.398   6.404   0.861  1.0209 -0.3506  0.0919
 1166SOL    MW4 4432   1.392   6.430   0.944  0.4884  0.0732 -0.0700
 1167SOL     OW 4433   0.721   6.001   4.859 -0.3411 -0.4806 -0.3842
 1167SOL    HW2 4434   0.804   6.047   4.850 -1.1130  1.2566  0.8813
 1167SOL    HW3 4435   0.732   5.921   4.808  1.8834 -0.0056 -0.7249
 1167SOL    MW4 4436   0.733   5.996   4.851 -0.1494 -0.1887 -0.2622
 1168SOL     OW 4437   1.593   3.709   0.549 -0.1888 -0.1874  0.1572
 1168SOL    HW2 4438   1.684   3.732   0.562  0.1159 -1.6134  0.6904
 1168SOL    HW3 4439   1.562   3.682   0.635 -0.8262 -0.6636 -0.2109
 1168SOL    MW4 4440   1.601   3.708   0.562 -0.2327 -0.4384  0.1790
 1169SOL     OW 4441   2.739   4.113   1.236  0.4532 -0.0512  0.5079
 1169SOL    HW2 4442   2.738   4.202   1.271 -0.0606 -0.4436  1.5175
 1169SOL    HW3 4443   2.761   4.058   1.311  1.2904 -0.7447 -0.2201
 1169SOL    MW4 4444   2.742   4.117   1.251  0.4959 -0.1944  0.5451
 1170SOL     OW 4445   3.177   5.983   5.240 -0.0464  0.3253 -0.8757
 1170SOL    HW2 4446   3.127   5.961   5.161  0.1989  0.1337 -0.9826
 1170SOL    HW3 4447   3.112   5.990   5.309 -0.2817  0.6659 -1.1303
 1170SOL    MW4 4448   3.162   5.981   5.238 -0.0451  0.3450 -0.9234
 1171SOL     OW 4449   5.581   2.652   5.068  0.2177 -0.1616  0.1861
 1171SOL    HW2 4450   5.497   2.654   5.113  0.9182 -0.4100  1.5649
 1171SOL    HW3 4451   5.581   2.570   5.019 -0.4889  0.0299 -0.1459
 1171SOL    MW4 4452   5.570   2.642   5.067  0.2169 -0.1691  0.3242
 1172SOL     OW 4453   4.757   0.190   2.253  0.0366 -0.3518 -0.1925
 1172SOL    HW2 4454   4.778   0.106   2.293 -0.6511 -0.6357 -0.4111
 1172SOL    HW3 4455   4.779   0.179   2.160 -0.6600 -0.5197 -0.3470
 1172SOL    MW4 4456   4.762   0.177   2.246 -0.1461 -0.4114 -0.2417
 1173SOL     OW 4457   0.499   1.152   5.592  0.1719 -0.8597  0.1229
 1173SOL    HW2 4458   0.475   1.241   5.618 -1.9338 -1.5034  0.5137
 1173SOL    HW3 4459   0.564   1.164   5.522 -0.2407  0.9795  0.0169
 1173SOL    MW4 4460   0.505   1.165   5.586 -0.1603 -0.7020  0.1605
 1174SOL     OW 4461   4.039   3.145   5.302  0.5853 -0.2528 -0.0359
 1174SOL    HW2 4462   4.040   3.077   5.235  0.0366 -0.2531 -0.0470
 1174SOL    HW3 4463   4.083   3.107   5.377 -0.5027 -0.9476  0.2726
 1174SOL    MW4 4464   4.045   3.131   5.303  0.3694 -0.3446  0.0033
 1175SOL     OW 4465   1.481   0.906   2.275 -0.0465 -0.1533 -0.5111
 1175SOL    HW2 4466   1.429   0.842   2.322 -0.3154  0.5771  0.2173
 1175SOL    HW3 4467   1.434   0.921   2.193  0.8340 -2.0216 -1.4187
 1175SOL    MW4 4468   1.468   0.900   2.270  0.0342 -0.3034 -0.5348
 1176SOL     OW 4469   1.588   1.498   1.874  0.3733  0.0004 -0.1558
 1176SOL    HW2 4470   1.615   1.585   1.902 -0.8116 -0.0681  1.3065
 1176SOL    HW3 4471   1.493   1.499   1.882  0.1867 -0.9029 -1.7491
 1176SOL    MW4 4472   1.579   1.509   1.878  0.1924 -0.1278 -0.1731
 1177SOL     OW 4473   3.634   4.045   1.183  0.6872  0.1244  0.1159
 1177SOL    HW2 4474   3.716   3.995   1.181 -0.7196 -2.3450  0.7123
 1177SOL    HW3 4475   3.594   4.024   1.267 -0.2679  1.8428  0.1382
 1177SOL    MW4 4476   3.640   4.036   1.194  0.3755  0.0253  0.1976
 1178SOL     OW 4477   1.259   5.281   3.292 -0.1883 -0.5085  0.3775
 1178SOL    HW2 4478   1.289   5.365   3.325 -1.2330 -0.2599  0.7488
 1178SOL    HW3 4479   1.338   5.238   3.259  0.3243  0.7028 -0.0309
 1178SOL    MW4 4480   1.273   5.286   3.292 -0.2585 -0.3159  0.3726
 1179SOL     OW 4481   1.651   4.422   2.190 -0.4589 -0.5502  0.1938
 1179SOL    HW2 4482   1.562   4.403   2.220 -1.1159 -2.4227 -2.5545
 1179SOL    HW3 4483   1.698   4.340   2.204 -0.1213 -0.6529 -1.3893
 1179SOL    MW4 4484   1.645   4.409   2.196 -0.5010 -0.8108 -0.3776
 1180SOL     OW 4485   1.556   5.634   0.367 -0.4276  0.0859 -0.0162
 1180SOL    HW2 4486   1.516   5.562   0.415 -1.2039  0.8372  0.4843
 1180SOL    HW3 4487   1.637   5.597   0.331 -0.7519 -0.9904  0.3350
 1180SOL    MW4 4488   1.561   5.620   0.368 -0.5728  0.0430  0.0962
 1181SOL     OW 4489   5.453   1.771   1.472 -0.3170 -0.3412  0.5298
 1181SOL    HW2 4490   5.441   1.740   1.382 -1.0855  0.0612  0.4839
 1181SOL    HW3 4491   5.384   1.727   1.521 -0.2087 -0.1780  0.8279
 1181SOL    MW4 4492   5.442   1.761   1.466 -0.4041 -0.2666  0.5631
 1182SOL     OW 4493   6.389   3.857   5.337  0.1339  0.1410  0.5018
 1182SOL    HW2 4494   6.414   3.883   5.425  0.2077 -1.0564  0.8574
 1182SOL    HW3 4495   6.383   3.939   5.288  1.3195  0.7248  1.2878
 1182SOL    MW4 4496   6.391   3.871   5.342  0.3001  0.0601  0.6525
 1183SOL     OW 4497   5.185   0.712   6.043  0.1208  0.5550 -0.5788
 1183SOL    HW2 4498   5.096   0.687   6.068 -0.0070 -0.5385 -1.9852
 1183SOL    HW3 4499   5.239   0.640   6.075  0.7240  1.8434  1.4497
 1183SOL    MW4 4500   5.180   0.699   6.051  0.1835  0.5807 -0.4967
 1184SOL     OW 4501   3.270   3.133   4.008  0.0888 -0.2214 -0.0034
 1184SOL    HW2 4502   3.225   3.057   4.044 -0.8188  0.1400 -0.3424
 1184SOL    HW3 4503   3.352   3.138   4.057  1.1398 -2.6015 -1.3505
 1184SOL    MW4 4504   3.275   3.124   4.019  0.1077 -0.4877 -0.2259
 1185SOL     OW 4505   2.759   4.518   6.418 -0.3717 -0.2522 -0.1220
 1185SOL    HW2 4506   2.733   4.438   6.464  0.3301 -0.8117 -0.6622
 1185SOL    HW3 4507   2.835   4.491   6.365 -1.3792  0.2657 -1.8939
 1185SOL    MW4 4508   2.766   4.504   6.417 -0.4121 -0.2577 -0.4271
 1186SOL     OW 4509   4.178   0.049   6.175 -0.6385  0.2407 -0.3162
 1186SOL    HW2 4510   4.173   0.139   6.142 -1.1506  0.2888 -0.1176
 1186SOL    HW3 4511   4.138  -0.004   6.105  0.0732  0.1103 -0.6328
 1186SOL    MW4 4512   4.172   0.054   6.161 -0.6122  0.2298 -0.3318
 1187SOL     OW 4513   1.945   2.306   3.323 -0.8842  0.0833  0.1193
 1187SOL    HW2 4514   1.861   2.340   3.354 -0.2604  0.1029  1.9273
 1187SOL    HW3 4515   1.969   2.239   3.387  0.2159 -0.3245 -0.6794
 1187SOL    MW4 4516   1.937   2.302   3.336 -0.6567  0.0321  0.2524
 1188SOL     OW 4517   3.735   3.808   1.415  0.0692  0.4603 -0.1273
 1188SOL    HW2 4518   3.785   3.784   1.493 -0.4122  1.3612  0.4785
 1188SOL    HW3 4519   3.693   3.727   1.388  1.3534 -0.1762 -0.2943
 1188SOL    MW4 4520   3.736   3.794   1.422  0.1751  0.4952 -0.0694
 1189SOL     OW 4521   1.531   1.416   1.580  0.4604  0.3580  0.3492
 1189SOL    HW2 4522   1.553   1.411   1.673 -0.4666  0.8639  0.6010
 1189SOL    HW3 4523   1.591   1.482   1.545  1.6245 -0.6692  0.3227
 1189SOL    MW4 4524   1.542   1.424   1.588  0.4917  0.2892  0.3789
 1190SOL     OW 4525   3.594   2.195   1.991 -0.1525 -0.1529  0.0005
 1190SOL    HW2 4526   3.678   2.177   1.949 -0.1327 -0.6803  0.2497
 1190SOL    HW3 4527   3.615   2.256   2.062  0.1677 -0.9096  0.5789
 1190SOL    MW4 4528   3.608   2.200   1.995 -0.1076 -0.3223  0.1097
 1191SOL     OW 4529   5.255   3.509   1.992 -0.2149  0.5825 -0.7958
 1191SOL    HW2 4530   5.246   3.465   2.077  0.6334  1.4709 -0.2290
 1191SOL    HW3 4531   5.166   3.512   1.957 -0.3349 -1.3355 -0.7377
 1191SOL    MW4 4532   5.242   3.504   1.998 -0.1188  0.4466 -0.7134
 1192SOL     OW 4533   4.931   1.787   0.449  0.0046 -0.0014  0.1872
 1192SOL    HW2 4534   4.959   1.774   0.540 -1.8294 -1.2663  0.6209
 1192SOL    HW3 4535   4.937   1.700   0.409 -1.7914 -0.0420 -0.0957
 1192SOL    MW4 4536   4.935   1.774   0.456 -0.4743 -0.1737  0.2071
 1193SOL     OW 4537   5.792   1.028   5.840  0.0864 -0.5310 -0.1250
 1193SOL    HW2 4538   5.787   1.104   5.782  1.7891  0.5908  1.0868
 1193SOL    HW3 4539   5.859   0.972   5.799  0.0833 -0.5373 -0.1214
 1193SOL    MW4 4540   5.800   1.030   5.827  0.3106 -0.3838  0.0353
 1194SOL     OW 4541   3.100   1.370   3.248  0.7275  0.0331  0.4156
 1194SOL    HW2 4542   3.127   1.462   3.252  2.2806 -0.4341  1.4901
 1194SOL    HW3 4543   3.151   1.333   3.177 -2.6608  0.7527 -2.7117
 1194SOL    MW4 4544   3.110   1.378   3.239  0.4854  0.0664  0.1448
 1195SOL     OW 4545   1.512   6.139   5.282 -0.5820 -0.3080 -0.4040
 1195SOL    HW2 4546   1.558   6.056   5.295  1.0720  0.7249  0.7999
 1195SOL    HW3 4547   1.456   6.147   5.359 -1.0329 -0.4659 -0.7103
 1195SOL    MW4 4548   1.511   6.129   5.294 -0.4233 -0.1926 -0.2856
 1196SOL     OW 4549   3.547   2.482   2.965 -0.8395 -0.1861  0.5534
 1196SOL    HW2 4550   3.537   2.575   2.984 -0.9440 -0.5327  2.3448
 1196SOL    HW3 4551   3.473   2.460   2.909 -1.1254  0.6856  0.5853
 1196SOL    MW4 4552   3.536   2.491   2.960 -0.8910 -0.1168  0.7940
 1197SOL     OW 4553   5.938   4.971   4.423  0.2902 -0.5054 -0.3076
 1197SOL    HW2 4554   5.956   4.880   4.401  0.0654 -0.7551  0.5049
 1197SOL    HW3 4555   5.855   4.990   4.379  0.5033 -0.5908 -0.7489
 1197SOL    MW4 4556   5.930   4.962   4.414  0.2887 -0.5496 -0.2586
 1198SOL     OW 4557   3.954   4.105   2.578  0.8506 -0.2164  0.2038
 1198SOL    HW2 4558   3.866   4.078   2.606 -1.0962  4.4594 -0.4310
 1198SOL    HW3 4559   4.013   4.046   2.623 -2.5270 -4.8857 -0.7257
 1198SOL    MW4 4560   3.950   4.094   2.587  0.1481 -0.2155 -0.0026
 1199SOL     OW 4561   4.240   3.467   1.836  0.1270 -0.4575 -0.1863
 1199SOL    HW2 4562   4.272   3.382   1.807 -1.1791 -0.7308 -0.9426
 1199SOL    HW3 4563   4.295   3.491   1.910  0.2468 -2.1637  0.3003
 1199SOL    MW4 4564   4.251   3.459   1.842 -0.0295 -0.7187 -0.2219
 1200SOL     OW 4565   4.216   2.461   1.942 -0.4348 -0.2117  0.1694
 1200SOL    HW2 4566   4.200   2.492   1.853 -0.7327  1.4998  0.7819
 1200SOL    HW3 4567   4.132   2.428   1.972 -0.6008  0.2125  0.1788
 1200SOL    MW4 4568   4.203   2.461   1.934 -0.4960  0.0701  0.2514
 1201SOL     OW 4569   3.463   5.768   5.266 -0.2811 -0.6793 -0.0331
 1201SOL    HW2 4570   3.370   5.757   5.286 -0.3990  0.4047  0.1050
 1201SOL    HW3 4571   3.508   5.710   5.328 -0.8205 -0.3199  0.7134
 1201SOL    MW4 4572   3.456   5.759   5.277 -0.3679 -0.4889  0.0836
 1202SOL     OW 4573   1.479   4.219   1.994  0.2763 -0.6038 -0.0095
 1202SOL    HW2 4574   1.568   4.245   1.968 -0.0985 -0.0845 -0.7990
 1202SOL    HW3 4575   1.477   4.233   2.089  0.3453  1.5978 -0.2802
 1202SOL    MW4 4576   1.491   4.225   2.003  0.2360 -0.2448 -0.1494
 1203SOL     OW 4577   4.633   6.260   5.106 -0.1074 -0.5319 -0.2749
 1203SOL    HW2 4578   4.579   6.236   5.030 -1.3999 -0.0131  0.4540
 1203SOL    HW3 4579   4.576   6.246   5.181  0.9900 -0.5471  0.5739
 1203SOL    MW4 4580   4.618   6.255   5.106 -0.1331 -0.4654 -0.0667
 1204SOL     OW 4581   1.168   4.437   2.154  0.2402 -0.3078 -0.0570
 1204SOL    HW2 4582   1.105   4.457   2.223 -0.0218 -0.7526 -0.1604
 1204SOL    HW3 4583   1.117   4.390   2.088  0.2871  0.9008 -0.9863
 1204SOL    MW4 4584   1.153   4.433   2.155  0.2118 -0.2070 -0.1933
 1205SOL     OW 4585   3.406   3.543   5.616 -0.4469  0.2344  0.2353
 1205SOL    HW2 4586   3.481   3.598   5.592  0.6118 -0.6589  1.3920
 1205SOL    HW3 4587   3.369   3.585   5.693 -1.1664  0.6701 -0.3299
 1205SOL    MW4 4588   3.411   3.556   5.623 -0.4022  0.1740  0.3133
 1206SOL     OW 4589   3.920   2.062   2.230 -0.0199 -0.3941 -0.1357
 1206SOL    HW2 4590   3.919   2.089   2.138  4.0678 -1.8707 -0.8558
 1206SOL    HW3 4591   3.965   2.133   2.275  0.3586 -0.8237  0.1775
 1206SOL    MW4 4592   3.926   2.075   2.224  0.5694 -0.6456 -0.1894
 1207SOL     OW 4593   4.115   4.270   0.778 -0.4298 -0.0435 -0.0399
 1207SOL    HW2 4594   4.158   4.311   0.853 -1.2146 -0.7281  0.8131
 1207SOL    HW3 4595   4.167   4.297   0.703 -0.3146  1.6399  0.6022
 1207SOL    MW4 4596   4.127   4.279   0.778 -0.5181  0.0883  0.1574
 1208SOL     OW 4597   5.249   2.965   5.765 -0.1390 -0.2343  0.4054
 1208SOL    HW2 4598   5.241   2.914   5.684 -1.4770  0.4033  0.1113
 1208SOL    HW3 4599   5.334   2.939   5.801  0.3380 -0.7832 -1.0291
 1208SOL    MW4 4600   5.259   2.955   5.759 -0.2526 -0.2226  0.1773
 1209SOL     OW 4601   1.084   3.895   4.880  0.9121  0.2088  0.7408
 1209SOL    HW2 4602   1.112   3.835   4.949 -2.2806 -2.1318  0.2140
 1209SOL    HW3 4603   1.102   3.848   4.798 -0.9581  0.2196  0.2789
 1209SOL    MW4 4604   1.090   3.881   4.878  0.2441 -0.0986  0.6103
 1210SOL     OW 4605   6.093   5.500   2.106 -0.1216  0.0748 -0.1251
 1210SOL    HW2 4606   6.165   5.451   2.066 -1.2945 -0.8143 -1.2493
 1210SOL    HW3 4607   6.016   5.444   2.093 -1.2330  1.5234 -0.0659
 1210SOL    MW4 4608   6.092   5.486   2.099 -0.4230  0.1486 -0.2656
 1211SOL     OW 4609   5.368   2.887   0.467 -0.7057  0.4353  0.6655
 1211SOL    HW2 4610   5.315   2.841   0.402 -1.6761 -1.1281  2.4620
 1211SOL    HW3 4611   5.457   2.887   0.431 -1.5788  1.7730 -1.7085
 1211SOL    MW4 4612   5.373   2.881   0.454 -0.9489  0.4055  0.5893
 1212SOL     OW 4613   5.465   0.199   6.330  0.1316  0.0834 -0.1181
 1212SOL    HW2 4614   5.392   0.238   6.378 -1.1925 -1.4655 -0.7925
 1212SOL    HW3 4615   5.530   0.178   6.398  0.6361  2.7717  0.3280
 1212SOL    MW4 4616   5.464   0.201   6.345  0.0235  0.2337 -0.1482
 1213SOL     OW 4617   4.308   3.266   3.330  0.0449 -0.0560 -0.0206
 1213SOL    HW2 4618   4.269   3.215   3.260  0.7879 -0.6565 -0.0152
 1213SOL    HW3 4619   4.259   3.348   3.331 -0.3896 -0.2998 -0.8146
 1213SOL    MW4 4620   4.297   3.270   3.321  0.0856 -0.1674 -0.1246
 1214SOL     OW 4621   2.564   5.549   2.162 -0.0137  0.8959  0.1367
 1214SOL    HW2 4622   2.589   5.632   2.202 -1.9924  0.9364  1.4244
 1214SOL    HW3 4623   2.616   5.484   2.208  0.3101  1.2637  0.3022
 1214SOL    MW4 4624   2.574   5.552   2.173 -0.2320  0.9498  0.3284
 1215SOL     OW 4625   2.185   6.064   6.260 -0.0931  0.4904  0.5790
 1215SOL    HW2 4626   2.189   5.973   6.289 -0.1221 -0.1565 -1.3622
 1215SOL    HW3 4627   2.275   6.086   6.237 -0.5396 -0.1013 -1.9416
 1215SOL    MW4 4628   2.198   6.055   6.261 -0.1559  0.3270 -0.0097
 1216SOL     OW 4629   5.916   0.286   2.344 -0.1613  0.2132 -0.2695
 1216SOL    HW2 4630   5.996   0.300   2.293  0.3293  0.1945  0.4709
 1216SOL    HW3 4631   5.944   0.295   2.435 -0.6931 -1.3305  0.0723
 1216SOL    MW4 4632   5.930   0.289   2.349 -0.1667  0.0070 -0.1267
 1217SOL     OW 4633   2.045   5.675   5.630  0.3553  0.5084  0.2418
 1217SOL    HW2 4634   2.004   5.711   5.709 -0.5290  0.2112 -0.0689
 1217SOL    HW3 4635   2.052   5.581   5.647 -0.1314  0.3962 -0.1519
 1217SOL    MW4 4636   2.041   5.667   5.642  0.1744  0.4544  0.1489
 1218SOL     OW 4637   4.928   5.292   2.955  0.1046  0.2969  0.5041
 1218SOL    HW2 4638   4.910   5.339   2.874 -0.0168 -1.5333 -0.5939
 1218SOL    HW3 4639   4.843   5.257   2.982  0.2556  0.3685  1.1006
 1218SOL    MW4 4640   4.915   5.294   2.948  0.1085  0.0649  0.4379
 1219SOL     OW 4641   0.161   6.417   4.012 -0.1987  0.5001  0.1352
 1219SOL    HW2 4642   0.159   6.452   4.101  0.3529 -0.1085  0.3939
 1219SOL    HW3 4643   0.240   6.364   4.008 -0.5551 -0.0076 -0.5164
 1219SOL    MW4 4644   0.171   6.415   4.023 -0.1729  0.3528  0.0834
 1220SOL     OW 4645   3.468   1.985   3.831 -0.2479  0.3660 -0.0955
 1220SOL    HW2 4646   3.392   2.042   3.821 -0.2520  0.4324  0.2887
 1220SOL    HW3 4647   3.528   2.013   3.762 -0.0481  1.1682  0.3925
 1220SOL    MW4 4648   3.466   1.996   3.820 -0.2221  0.4806  0.0196
 1221SOL     OW 4649   6.399   5.959   3.499  0.4233  0.5155  0.7443
 1221SOL    HW2 4650   6.375   5.939   3.408  1.9493 -2.1621  0.8245
 1221SOL    HW3 4651   6.350   6.038   3.520 -0.9335  0.5186 -2.0028
 1221SOL    MW4 4652   6.389   5.967   3.489  0.4456  0.1627  0.3924
 1222SOL     OW 4653   4.334   0.996   5.219  0.4670  0.0209  0.0850
 1222SOL    HW2 4654   4.397   0.927   5.199 -0.9386 -1.0140 -1.0777
 1222SOL    HW3 4655   4.267   0.952   5.272 -0.4098  0.4773 -0.6063
 1222SOL    MW4 4656   4.333   0.981   5.223  0.1659 -0.0554 -0.1596
 1223SOL     OW 4657   4.524   5.970   5.934  0.1598 -0.4158 -0.2385
 1223SOL    HW2 4658   4.572   5.944   5.855  0.1035 -0.4246 -0.2701
 1223SOL    HW3 4659   4.565   5.919   6.004  1.7011  1.2094  0.1178
 1223SOL    MW4 4660   4.536   5.960   5.933  0.3557 -0.2026 -0.1956
 1224SOL     OW 4661   1.912   6.311   2.666 -0.0907  0.0829  0.4753
 1224SOL    HW2 4662   1.895   6.398   2.701  0.3837 -0.0185  0.9579
 1224SOL    HW3 4663   2.005   6.296   2.681 -0.2578 -0.6829  0.7985
 1224SOL    MW4 4664   1.922   6.320   2.672 -0.0502 -0.0315  0.5816
 1225SOL     OW 4665   4.519   4.842   5.403  0.3556 -0.5682 -0.4798
 1225SOL    HW2 4666   4.609   4.814   5.420  0.1957 -0.3444  0.8116
 1225SOL    HW3 4667   4.504   4.913   5.465 -0.7899 -0.7605 -0.5202
 1225SOL    MW4 4668   4.529   4.847   5.414  0.1833 -0.5640 -0.3148
 1226SOL     OW 4669   6.127   4.267   5.785  0.1320 -0.1141  0.1310
 1226SOL    HW2 4670   6.108   4.277   5.691  2.1954  0.5135 -0.2745
 1226SOL    HW3 4671   6.146   4.355   5.815 -0.3683 -0.3330  1.1219
 1226SOL    MW4 4672   6.127   4.280   5.776  0.3382 -0.0602  0.2082
 1227SOL     OW 4673   0.162   4.935   6.156  0.4505  0.4771  0.5503
 1227SOL    HW2 4674   0.102   4.987   6.101  0.6126 -0.0503 -0.1364
 1227SOL    HW3 4675   0.160   4.979   6.241  0.4657  1.5197  0.0308
 1227SOL    MW4 4676   0.154   4.948   6.160  0.4739  0.5451  0.3912
 1228SOL     OW 4677   6.267   5.749   6.391 -0.3760 -0.3792 -0.0332
 1228SOL    HW2 4678   6.212   5.797   6.330 -0.1086 -0.9695 -0.7567
 1228SOL    HW3 4679   6.321   5.816   6.433 -1.4071  0.1660  0.4600
 1228SOL    MW4 4680   6.267   5.764   6.389 -0.4767 -0.3852 -0.0636
 1229SOL     OW 4681   4.089   5.938   0.477 -0.0477  0.5304  0.1389
 1229SOL    HW2 4682   4.068   5.874   0.409  1.3471  0.6169 -0.4052
 1229SOL    HW3 4683   4.125   6.013   0.429  0.9919  0.5810  0.9470
 1229SOL    MW4 4684   4.091   5.940   0.462  0.2735  0.5485  0.1737
 1230SOL     OW 4685   4.294   4.785   0.573 -0.2637 -0.1743 -0.4906
 1230SOL    HW2 4686   4.269   4.702   0.614 -0.7002  0.3864  0.4031
 1230SOL    HW3 4687   4.364   4.762   0.513 -1.8936 -1.5688 -1.9681
 1230SOL    MW4 4688   4.300   4.771   0.571 -0.5364 -0.2843 -0.5677
 1231SOL     OW 4689   0.223   1.826   5.388 -0.0864 -0.2877 -0.2777
 1231SOL    HW2 4690   0.237   1.915   5.420 -2.8640 -0.4631  1.8201
 1231SOL    HW3 4691   0.152   1.834   5.324 -0.0330 -0.9318 -0.4305
 1231SOL    MW4 4692   0.215   1.838   5.384 -0.4458 -0.3958 -0.0211
 1232SOL     OW 4693   2.395   4.297   0.323  0.0558 -0.0901 -0.4438
 1232SOL    HW2 4694   2.376   4.222   0.378  0.5908 -0.9451 -1.4006
 1232SOL    HW3 4695   2.319   4.305   0.265 -0.0877  0.2324 -0.2155
 1232SOL    MW4 4696   2.382   4.288   0.322  0.1075 -0.1604 -0.5399
 1233SOL     OW 4697   0.101   5.883   5.412 -0.1151 -0.2495  0.0903
 1233SOL    HW2 4698   0.089   5.942   5.485  1.4212  0.3081 -0.0728
 1233SOL    HW3 4699   0.021   5.892   5.360 -1.0437 -0.3488  1.4520
 1233SOL    MW4 4700   0.089   5.892   5.415 -0.0350 -0.1890  0.2484
 1234SOL     OW 4701   2.175   0.729   6.079  0.3127 -0.2951  0.1025
 1234SOL    HW2 4702   2.247   0.790   6.066 -0.3481  1.0416  2.2447
 1234SOL    HW3 4703   2.171   0.716   6.174 -1.2207 -1.6581 -0.0976
 1234SOL    MW4 4704   2.184   0.735   6.090  0.0232 -0.2986  0.3587
 1235SOL     OW 4705   5.254   2.379   0.809  0.2108  0.3511 -0.9155
 1235SOL    HW2 4706   5.279   2.462   0.851 -1.1950 -0.0046  0.7457
 1235SOL    HW3 4707   5.276   2.391   0.717  1.8704  1.8262 -0.3903
 1235SOL    MW4 4708   5.261   2.392   0.803  0.2443  0.4988 -0.6270
 1236SOL     OW 4709   3.407   1.936   5.857  0.4254 -0.1060 -0.4867
 1236SOL    HW2 4710   3.316   1.936   5.886  0.7174  0.5221  0.4653
 1236SOL    HW3 4711   3.437   2.026   5.871  0.9603 -0.1027 -1.5634
 1236SOL    MW4 4712   3.399   1.948   5.863  0.5345 -0.0227 -0.5032
 1237SOL     OW 4713   0.198   1.449   0.671  0.2851 -0.1126 -0.3983
 1237SOL    HW2 4714   0.241   1.497   0.742  0.2287 -0.2910 -0.2398
 1237SOL    HW3 4715   0.140   1.387   0.717  0.9272 -0.8594 -0.5825
 1237SOL    MW4 4716   0.196   1.447   0.687  0.3624 -0.2347 -0.4017
 1238SOL     OW 4717   5.323   4.505   1.225  0.0580 -0.3802  0.2131
 1238SOL    HW2 4718   5.236   4.543   1.233  0.1499  0.0208 -0.6545
 1238SOL    HW3 4719   5.348   4.484   1.315  0.7438  3.2397  1.0000
 1238SOL    MW4 4720   5.315   4.507   1.238  0.1606  0.1503  0.2025
 1239SOL     OW 4721   5.946   3.374   4.641 -0.1359  0.0504 -0.2640
 1239SOL    HW2 4722   6.019   3.318   4.670 -1.0036 -0.4421  1.0501
 1239SOL    HW3 4723   5.976   3.463   4.661  0.1936 -0.1299  0.0678
 1239SOL    MW4 4724   5.960   3.378   4.647 -0.2069 -0.0384 -0.0469
 1240SOL     OW 4725   2.676   1.669   2.794  0.1700  0.2541 -0.0196
 1240SOL    HW2 4726   2.711   1.683   2.706 -0.6662 -0.7347 -0.5303
 1240SOL    HW3 4727   2.585   1.643   2.780  0.3135 -0.9403  1.0784
 1240SOL    MW4 4728   2.669   1.667   2.781  0.0786 -0.0340  0.0578
 1241SOL     OW 4729   0.033   5.813   1.668 -0.6391  0.0703  0.1382
 1241SOL    HW2 4730  -0.007   5.772   1.744 -1.4730  1.2797  0.3590
 1241SOL    HW3 4731  -0.021   5.890   1.650 -0.3964 -0.1229 -1.6016
 1241SOL    MW4 4732   0.021   5.817   1.675 -0.7171  0.2044 -0.0623
 1242SOL     OW 4733   4.006   0.548   4.155 -0.2516  0.0414 -0.1617
 1242SOL    HW2 4734   3.982   0.585   4.070 -1.3901  0.8298  0.4758
 1242SOL    HW3 4735   3.941   0.583   4.216 -0.0037 -1.2289  0.8831
 1242SOL    MW4 4736   3.994   0.558   4.152 -0.3691 -0.0222  0.0602
 1243SOL     OW 4737   1.832   2.670   3.026 -0.2081 -0.4395 -0.5021
 1243SOL    HW2 4738   1.768   2.603   3.000  0.1340 -0.3381 -1.6383
 1243SOL    HW3 4739   1.905   2.620   3.063  0.0678 -0.7142 -1.3957
 1243SOL    MW4 4740   1.833   2.654   3.028 -0.1266 -0.4623 -0.7699
 1244SOL     OW 4741   0.393   2.668   3.683  0.0896 -0.0068 -0.1761
 1244SOL    HW2 4742   0.452   2.691   3.612  2.4645 -0.7422  1.4410
 1244SOL    HW3 4743   0.311   2.646   3.639  1.0382  0.8553 -2.5537
 1244SOL    MW4 4744   0.390   2.668   3.668  0.5281  0.0099 -0.2764
 1245SOL     OW 4745   4.180   1.981   1.304 -0.3113 -0.1895 -0.6904
 1245SOL    HW2 4746   4.136   2.019   1.228 -0.8645 -0.7488 -0.6485
 1245SOL    HW3 4747   4.110   1.961   1.366  0.2080  1.2892  0.4486
 1245SOL    MW4 4748   4.165   1.984   1.302 -0.3158 -0.0682 -0.5346
 1246SOL     OW 4749   3.724   4.173   2.195  0.4363  0.0276 -0.4118
 1246SOL    HW2 4750   3.813   4.140   2.197  0.1761 -0.6788 -0.1284
 1246SOL    HW3 4751   3.693   4.162   2.285 -0.1996 -0.4714 -0.6871
 1246SOL    MW4 4752   3.731   4.168   2.207  0.3180 -0.1314 -0.4107
 1247SOL     OW 4753   2.915   5.737   5.174  0.2980  0.1886 -0.3513
 1247SOL    HW2 4754   2.932   5.817   5.124  0.6430  2.1644  2.6713
 1247SOL    HW3 4755   3.002   5.706   5.200  0.1385 -0.9881 -1.1369
 1247SOL    MW4 4756   2.929   5.743   5.171  0.3225  0.2940 -0.0561
 1248SOL     OW 4757   3.832   1.710   1.287  0.4080  0.1270  0.1863
 1248SOL    HW2 4758   3.797   1.734   1.201  0.1866 -1.9462 -0.3551
 1248SOL    HW3 4759   3.763   1.655   1.326  1.1912 -0.3157  0.9792
 1248SOL    MW4 4760   3.818   1.706   1.281  0.4822 -0.2049  0.2195
 1249SOL     OW 4761   4.834   5.363   3.637 -0.5051 -0.5083 -0.7322
 1249SOL    HW2 4762   4.819   5.273   3.668 -0.6037 -0.1722  0.2378
 1249SOL    HW3 4763   4.807   5.361   3.545  0.0442 -1.6098 -0.8899
 1249SOL    MW4 4764   4.828   5.351   3.629 -0.4456 -0.6093 -0.6251
 1250SOL     OW 4765   3.920   2.919   4.346  0.3352 -0.3638 -0.4722
 1250SOL    HW2 4766   3.901   3.007   4.378  0.2403 -1.1066  1.7053
 1250SOL    HW3 4767   3.842   2.894   4.297 -0.1742  0.2940 -0.0163
 1250SOL    MW4 4768   3.907   2.927   4.344  0.2555 -0.3750 -0.1248
 1251SOL     OW 4769   4.201   1.556   4.722  0.5432 -0.0377  0.1140
 1251SOL    HW2 4770   4.267   1.615   4.759  0.0453  1.7985 -1.7242
 1251SOL    HW3 4771   4.125   1.613   4.706  0.4331 -0.8623 -2.8040
 1251SOL    MW4 4772   4.200   1.572   4.725  0.4630  0.0958 -0.5135
 1252SOL     OW 4773   1.357   3.322   1.380 -0.1383  0.3128  0.4888
 1252SOL    HW2 4774   1.424   3.347   1.444 -0.1339  0.9645  0.2336
 1252SOL    HW3 4775   1.299   3.399   1.375 -0.0202  0.3496 -0.4432
 1252SOL    MW4 4776   1.358   3.336   1.388 -0.1221  0.4036  0.3321
 1253SOL     OW 4777   5.105   3.822   3.077 -0.8051  0.2046 -0.3623
 1253SOL    HW2 4778   5.171   3.850   3.014 -0.5898  0.4630 -0.0235
 1253SOL    HW3 4779   5.151   3.759   3.133 -0.4216  1.4471  0.7745
 1253SOL    MW4 4780   5.120   3.817   3.076 -0.7261  0.4026 -0.1676
 1254SOL     OW 4781   4.334   4.345   1.603 -0.0252  0.3751  0.3538
 1254SOL    HW2 4782   4.398   4.409   1.632 -0.7881  0.5216  1.8056
 1254SOL    HW3 4783   4.383   4.287   1.544  0.7552  2.0518 -0.7425
 1254SOL    MW4 4784   4.348   4.346   1.599 -0.0229  0.6156  0.4007
 1255SOL     OW 4785   6.378   1.022   3.885  0.4841 -0.1817 -0.0059
 1255SOL    HW2 4786   6.438   0.957   3.850 -0.0198 -0.2673 -0.7424
 1255SOL    HW3 4787   6.306   1.024   3.822  1.0521  1.9481 -0.6518
 1255SOL    MW4 4788   6.376   1.014   3.872  0.4926  0.0880 -0.1883
 1256SOL     OW 4789   1.861   5.739   2.796  0.2469 -0.2343  0.2594
 1256SOL    HW2 4790   1.885   5.673   2.731 -0.5125 -1.3222  1.0529
 1256SOL    HW3 4791   1.773   5.714   2.824 -0.1499  1.2668  0.4067
 1256SOL    MW4 4792   1.853   5.727   2.791  0.0943 -0.1798  0.3835
 1257SOL     OW 4793   1.433   4.437   6.324 -0.6334  0.9168 -0.0765
 1257SOL    HW2 4794   1.451   4.511   6.383 -1.7899  1.1359  0.0181
 1257SOL    HW3 4795   1.484   4.365   6.360  0.7563  1.7188 -0.3272
 1257SOL    MW4 4796   1.442   4.437   6.337 -0.6026  1.0515 -0.0971
 1258SOL     OW 4797   4.073   3.856   3.901 -0.0772 -0.4429 -0.3583
 1258SOL    HW2 4798   4.070   3.768   3.937 -0.3544 -0.4753 -0.4594
 1258SOL    HW3 4799   4.158   3.891   3.930 -0.6129 -0.1953  0.9633
 1258SOL    MW4 4800   4.084   3.849   3.909 -0.1845 -0.4145 -0.1973
 1259SOL     OW 4801   2.500   4.469   5.020  0.1618  0.2025 -0.1234
 1259SOL    HW2 4802   2.476   4.429   5.104 -0.7110 -2.2017 -1.4284
 1259SOL    HW3 4803   2.592   4.447   5.009  0.2224  0.3441  0.0800
 1259SOL    MW4 4804   2.509   4.461   5.030  0.0546 -0.0960 -0.2688
 1260SOL     OW 4805   5.396   2.510   2.123 -0.6862  0.1812 -0.2163
 1260SOL    HW2 4806   5.354   2.431   2.156 -0.3368  0.2970  0.5120
 1260SOL    HW3 4807   5.459   2.534   2.190 -1.3223  1.5232 -0.0687
 1260SOL    MW4 4808   5.399   2.502   2.136 -0.7240  0.3736 -0.1007
 1261SOL     OW 4809   4.952   1.172   4.311 -0.1526  0.0699  0.1219
 1261SOL    HW2 4810   4.868   1.219   4.310 -1.3829 -1.9962  0.1446
 1261SOL    HW3 4811   4.954   1.129   4.397  1.0196  0.2210  0.1829
 1261SOL    MW4 4812   4.941   1.173   4.322 -0.1603 -0.1827  0.1330
 1262SOL     OW 4813   2.049   6.386   6.354 -0.3463 -0.0640  0.2280
 1262SOL    HW2 4814   2.054   6.463   6.298 -2.1342 -1.2067 -1.6519
 1262SOL    HW3 4815   2.140   6.361   6.369  0.2360  1.9233  0.2278
 1262SOL    MW4 4816   2.061   6.393   6.349 -0.5054  0.0474 -0.0201
 1263SOL     OW 4817   4.453   1.120   2.272 -0.2062 -0.0399  0.1472
 1263SOL    HW2 4818   4.421   1.072   2.348 -1.1837  1.2947  0.6096
 1263SOL    HW3 4819   4.382   1.180   2.249  0.0569 -0.4271 -1.8424
 1263SOL    MW4 4820   4.439   1.122   2.279 -0.3005  0.0851 -0.0543
 1264SOL     OW 4821   1.380   3.745   6.402 -0.0806  0.4667  0.0289
 1264SOL    HW2 4822   1.396   3.712   6.313  0.2809  0.0929  0.2260
 1264SOL    HW3 4823   1.414   3.676   6.459  2.2787  1.8763  0.4537
 1264SOL    MW4 4824   1.387   3.731   6.398  0.2784  0.6034  0.1109
 1265SOL     OW 4825   1.960   4.913   6.300 -0.6051 -0.5378 -0.1231
 1265SOL    HW2 4826   1.951   4.897   6.394  1.3106 -0.1991  0.1639
 1265SOL    HW3 4827   1.891   4.860   6.260 -0.4643 -1.9526  1.3691
 1265SOL    MW4 4828   1.950   4.904   6.307 -0.3338 -0.6797  0.1116
 1266SOL     OW 4829   3.587   1.910   2.165 -0.5134 -0.6312 -0.3836
 1266SOL    HW2 4830   3.572   2.001   2.137  1.0029 -0.3441 -0.3428
 1266SOL    HW3 4831   3.558   1.909   2.256 -0.4112 -0.1544 -0.3414
 1266SOL    MW4 4832   3.581   1.922   2.173 -0.2999 -0.5304 -0.3727
 1267SOL     OW 4833   1.132   3.695   4.652 -0.4565 -0.1900 -0.0108
 1267SOL    HW2 4834   1.216   3.657   4.625 -0.9923 -0.2177 -1.7847
 1267SOL    HW3 4835   1.106   3.749   4.578 -0.7720  1.9293  1.5795
 1267SOL    MW4 4836   1.140   3.697   4.638 -0.5688  0.0859 -0.0350
 1268SOL     OW 4837   5.184   0.505   6.320  0.1854  0.0053  0.2880
 1268SOL    HW2 4838   5.214   0.450   6.393  0.6826 -1.5420 -1.0186
 1268SOL    HW3 4839   5.252   0.571   6.310 -0.2645  0.7256  1.6833
 1268SOL    MW4 4840   5.197   0.507   6.329  0.1916 -0.1038  0.2997
 1269SOL     OW 4841   3.074   0.500   6.237  0.2035  0.1247 -0.4936
 1269SOL    HW2 4842   3.068   0.584   6.284  1.0193 -0.0015 -0.1352
 1269SOL    HW3 4843   2.984   0.469   6.232 -0.0186  0.6399  0.0887
 1269SOL    MW4 4844   3.061   0.507   6.243  0.2818  0.1760 -0.3695
 1270SOL     OW 4845   2.600   3.310   2.103 -0.0105 -0.2212  0.2051
 1270SOL    HW2 4846   2.638   3.277   2.021  1.3685 -0.1258  0.7635
 1270SOL    HW3 4847   2.638   3.397   2.114 -0.3468 -0.1456  0.8353
 1270SOL    MW4 4848   2.610   3.317   2.094  0.1270 -0.1986  0.3620
 1271SOL     OW 4849   2.752   1.928   3.391 -0.2188  0.4240 -0.3257
 1271SOL    HW2 4850   2.749   1.848   3.443  2.0364  0.3551 -0.2009
 1271SOL    HW3 4851   2.731   1.899   3.302  0.1689 -0.2472 -0.2061
 1271SOL    MW4 4852   2.749   1.914   3.386  0.1299  0.3264 -0.2935
 1272SOL     OW 4853   0.951   3.790   5.639 -0.4904 -0.1733 -0.2138
 1272SOL    HW2 4854   0.915   3.720   5.584 -0.6732 -1.2228  1.1831
 1272SOL    HW3 4855   1.018   3.747   5.692  1.3203  1.2996 -1.2020
 1272SOL    MW4 4856   0.955   3.775   5.639 -0.2756 -0.1175 -0.1598
 1273SOL     OW 4857   5.737   0.052   2.560 -0.1246 -0.2805 -0.3846
 1273SOL    HW2 4858   5.768   0.029   2.472 -0.0871  1.0943 -0.7488
 1273SOL    HW3 4859   5.657   0.001   2.571 -1.1434  0.8630 -1.9726
 1273SOL    MW4 4860   5.731   0.042   2.550 -0.2541  0.0518 -0.6422
 1274SOL     OW 4861   5.897   1.457   2.671  0.1576 -0.0932  0.3588
 1274SOL    HW2 4862   5.805   1.432   2.676 -0.4272  1.9433  0.9028
 1274SOL    HW3 4863   5.898   1.549   2.699  2.2613  0.1319 -0.2875
 1274SOL    MW4 4864   5.885   1.466   2.675  0.3580  0.2052  0.3453
 1275SOL     OW 4865   3.825   1.477   0.825  0.4612 -0.2331  0.2309
 1275SOL    HW2 4866   3.895   1.523   0.872  0.9070 -1.5670  0.9279
 1275SOL    HW3 4867   3.869   1.400   0.786 -0.3804 -0.4310 -0.3622
 1275SOL    MW4 4868   3.840   1.473   0.826  0.4090 -0.4352  0.2446
 1276SOL     OW 4869   4.547   2.815   2.509  0.2874 -0.1890  0.1357
 1276SOL    HW2 4870   4.530   2.903   2.474 -2.1162 -0.5436  0.2416
 1276SOL    HW3 4871   4.606   2.830   2.583 -0.0183  1.3144  0.1079
 1276SOL    MW4 4872   4.553   2.829   2.514 -0.0701 -0.0374  0.1460
 1277SOL     OW 4873   0.927   2.343   2.742  0.0760 -0.6180 -0.0959
 1277SOL    HW2 4874   0.865   2.414   2.724 -0.8068 -1.2422  0.3672
 1277SOL    HW3 4875   0.933   2.339   2.837  2.2236  0.5664 -0.1218
 1277SOL    MW4 4876   0.919   2.352   2.752  0.2429 -0.5441 -0.0382
 1278SOL     OW 4877   0.493   3.475   0.837  0.0151  0.5008  0.0780
 1278SOL    HW2 4878   0.457   3.554   0.877  0.3496  0.5949  0.1957
 1278SOL    HW3 4879   0.544   3.507   0.762  0.4101  0.4242  0.3115
 1278SOL    MW4 4880   0.495   3.490   0.832  0.1114  0.5031  0.1244
 1279SOL     OW 4881   6.193   5.127   2.078  0.1762 -0.1861  0.0206
 1279SOL    HW2 4882   6.275   5.155   2.037  0.3752 -1.0072 -0.1503
 1279SOL    HW3 4883   6.131   5.197   2.058  0.6742  0.1532 -0.3645
 1279SOL    MW4 4884   6.196   5.140   2.070  0.2682 -0.2496 -0.0528
 1280SOL     OW 4885   2.968   4.432   0.955  0.1140 -0.0048  0.0950
 1280SOL    HW2 4886   2.995   4.516   0.917  0.1589 -0.6270 -1.3183
 1280SOL    HW3 4887   2.941   4.453   1.044  2.9566  1.0521  0.8303
 1280SOL    MW4 4888   2.968   4.446   0.961  0.4949  0.0526  0.0055
 1281SOL     OW 4889   5.720   1.294   5.152 -0.0375 -0.1058  0.0593
 1281SOL    HW2 4890   5.658   1.243   5.101  2.2456 -1.5730 -1.4234
 1281SOL    HW3 4891   5.772   1.228   5.199  0.3930  1.0633  1.2880
 1281SOL    MW4 4892   5.719   1.278   5.152  0.3205 -0.1451  0.0258
 1282SOL     OW 4893   5.805   5.904   5.421 -0.0762 -0.8319 -0.3303
 1282SOL    HW2 4894   5.880   5.863   5.378  0.4668 -1.3678  1.0765
 1282SOL    HW3 4895   5.736   5.838   5.417  0.2985 -1.2893  0.5116
 1282SOL    MW4 4896   5.805   5.890   5.414  0.0449 -0.9629 -0.0336
 1283SOL     OW 4897   3.727   3.064   5.756 -0.0717 -0.5002 -0.3206
 1283SOL    HW2 4898   3.656   3.026   5.807 -1.2234  2.2772  0.2927
 1283SOL    HW3 4899   3.753   3.143   5.804  1.7733 -0.1170 -1.8064
 1283SOL    MW4 4900   3.721   3.069   5.769  0.0198 -0.0832 -0.4357
 1284SOL     OW 4901   2.218   0.151   0.273  0.5058  0.5513 -0.3761
 1284SOL    HW2 4902   2.227   0.087   0.345  1.2376 -0.3379 -1.2240
 1284SOL    HW3 4903   2.297   0.139   0.221 -1.0093 -0.4862 -2.6341
 1284SOL    MW4 4904   2.229   0.141   0.276  0.4025  0.2971 -0.7859
 1285SOL     OW 4905   5.459   1.365   0.010  0.1529  0.4543 -0.3633
 1285SOL    HW2 4906   5.552   1.368  -0.010  0.2849  1.2951  0.3502
 1285SOL    HW3 4907   5.433   1.456   0.018 -1.0273  0.2922 -1.8339
 1285SOL    MW4 4908   5.468   1.377   0.008  0.0146  0.5438 -0.4632
 1286SOL     OW 4909   4.332   6.324   4.486 -0.6484  0.1962  0.3841
 1286SOL    HW2 4910   4.349   6.247   4.539 -0.4827  1.5052  2.3217
 1286SOL    HW3 4911   4.239   6.319   4.465 -0.3329 -1.3206 -0.9414
 1286SOL    MW4 4912   4.322   6.313   4.490 -0.5849  0.1688  0.4648
 1287SOL     OW 4913   0.118   0.478   3.610 -0.4529  0.0214  0.4127
 1287SOL    HW2 4914   0.114   0.535   3.687  0.8867 -0.8264  1.1490
 1287SOL    HW3 4915   0.142   0.536   3.538  1.5747  0.3460  1.2736
 1287SOL    MW4 4916   0.121   0.493   3.611 -0.0086 -0.0476  0.6234
 1288SOL     OW 4917   3.251   4.286   4.147  0.0089 -0.4040 -0.3305
 1288SOL    HW2 4918   3.242   4.254   4.237 -0.6875  0.8558  0.0664
 1288SOL    HW3 4919   3.170   4.334   4.131  1.3671  1.9191 -0.5702
 1288SOL    MW4 4920   3.239   4.288   4.157  0.0962  0.0687 -0.3097
 1289SOL     OW 4921   3.627   4.199   5.590  0.2267  0.1456  0.5109
 1289SOL    HW2 4922   3.581   4.281   5.608 -0.8166  0.2892 -2.2563
 1289SOL    HW3 4923   3.569   4.131   5.624  0.3203  0.4866  1.3692
 1289SOL    MW4 4924   3.613   4.201   5.597  0.1014  0.2095  0.2590
 1290SOL     OW 4925   0.289   3.536   5.721 -0.0729  0.5609  0.4090
 1290SOL    HW2 4926   0.305   3.442   5.730  3.5263  1.0987  1.3030
 1290SOL    HW3 4927   0.267   3.565   5.809 -0.1731  0.7117  0.3337
 1290SOL    MW4 4928   0.288   3.527   5.733  0.3887  0.6518  0.5170
 1291SOL     OW 4929   2.130   0.409   1.102 -0.1390 -0.3407 -0.1624
 1291SOL    HW2 4930   2.049   0.419   1.151 -0.0900  1.2495 -0.3521
 1291SOL    HW3 4931   2.199   0.408   1.169  0.1611  4.1622 -0.0500
 1291SOL    MW4 4932   2.129   0.410   1.117 -0.0929  0.4632 -0.1726
 1292SOL     OW 4933   2.613   3.604   2.031 -0.2824 -0.3036  0.1356
 1292SOL    HW2 4934   2.708   3.605   2.033 -0.2718 -0.5941 -0.1797
 1292SOL    HW3 4935   2.590   3.536   1.967 -0.7002  0.9951 -1.1398
 1292SOL    MW4 4936   2.622   3.595   2.023 -0.3361 -0.1706 -0.0743
 1293SOL     OW 4937   0.811   1.618   0.632  0.3706  0.3286 -0.2585
 1293SOL    HW2 4938   0.750   1.632   0.560 -0.4560 -0.3277  0.2854
 1293SOL    HW3 4939   0.771   1.547   0.683  1.2502  0.3551  0.4878
 1293SOL    MW4 4940   0.797   1.611   0.629  0.3776  0.2455 -0.0883
 1294SOL     OW 4941   4.922   4.739   3.028  0.0016  0.5535  0.0794
 1294SOL    HW2 4942   4.861   4.813   3.022 -0.5352  0.1640  0.5541
 1294SOL    HW3 4943   4.902   4.685   2.952 -1.8117 -0.7064  1.3693
 1294SOL    MW4 4944   4.911   4.741   3.017 -0.3085  0.3359  0.3122
 1295SOL     OW 4945   4.378   5.170   3.820  0.1195 -0.5407  0.1631
 1295SOL    HW2 4946   4.313   5.101   3.815  0.5361 -0.8579 -1.4636
 1295SOL    HW3 4947   4.374   5.214   3.734  1.4608 -0.0492  0.3145
 1295SOL    MW4 4948   4.369   5.167   3.808  0.3514 -0.5177 -0.0315
 1296SOL     OW 4949   4.352   3.756   3.642 -0.3142  0.1293  0.1688
 1296SOL    HW2 4950   4.407   3.826   3.677 -0.2962  0.0094  0.3844
 1296SOL    HW3 4951   4.359   3.686   3.706 -0.5286  0.0226  0.0772
 1296SOL    MW4 4952   4.360   3.756   3.655 -0.3401  0.0994  0.1851
 1297SOL     OW 4953   2.207   3.589   5.457 -0.5248 -0.0110 -0.2007
 1297SOL    HW2 4954   2.244   3.541   5.531 -0.0885  0.4363 -0.1217
 1297SOL    HW3 4955   2.116   3.604   5.481 -0.3959  0.0951  0.2288
 1297SOL    MW4 4956   2.200   3.585   5.469 -0.4502  0.0620 -0.1336
 1298SOL     OW 4957   1.681   1.662   1.460  0.0579  0.0122  0.5172
 1298SOL    HW2 4958   1.639   1.666   1.374  1.5413 -1.6454 -0.3393
 1298SOL    HW3 4959   1.764   1.710   1.449  0.2334 -0.1589  1.0400
 1298SOL    MW4 4960   1.687   1.669   1.447  0.2768 -0.2291  0.4732
 1299SOL     OW 4961   4.322   4.872   4.043  0.5295  0.6776 -0.0968
 1299SOL    HW2 4962   4.387   4.934   4.075  1.3717  0.2556 -0.9345
 1299SOL    HW3 4963   4.373   4.807   3.994 -0.4465 -0.0749 -0.1482
 1299SOL    MW4 4964   4.338   4.872   4.041  0.5118  0.5226 -0.2141
 1300SOL     OW 4965   5.527   0.349   2.241  0.1503  0.2896  0.2254
 1300SOL    HW2 4966   5.500   0.320   2.154 -2.0562  1.3813  0.4752
 1300SOL    HW3 4967   5.600   0.408   2.225  0.7336 -0.6405 -0.7283
 1300SOL    MW4 4968   5.533   0.353   2.227 -0.0639  0.3109  0.1325
 1301SOL     OW 4969   3.166   3.633   3.190 -0.7425  0.0915 -0.1156
 1301SOL    HW2 4970   3.192   3.610   3.101  0.5469 -0.7648  0.4558
 1301SOL    HW3 4971   3.107   3.708   3.179 -0.4640  0.1207 -1.6615
 1301SOL    MW4 4972   3.162   3.640   3.177 -0.5356 -0.0176 -0.2442
 1302SOL     OW 4973   2.950   4.160   0.864 -0.3496  0.1652  0.2632
 1302SOL    HW2 4974   3.037   4.119   0.870  0.2837  1.1899 -1.2317
 1302SOL    HW3 4975   2.965   4.252   0.886 -1.2661  0.1486  1.0135
 1302SOL    MW4 4976   2.964   4.167   0.868 -0.3870  0.2982  0.1649
 1303SOL     OW 4977   3.134   2.712   4.216  0.0262  0.4509 -0.4392
 1303SOL    HW2 4978   3.043   2.703   4.243  0.0542 -0.5175 -0.6160
 1303SOL    HW3 4979   3.132   2.775   4.144 -0.5993 -0.0711 -0.8897
 1303SOL    MW4 4980   3.122   2.719   4.210 -0.0526  0.2542 -0.5220
 1304SOL     OW 4981   0.147   3.808   1.958 -0.4367 -0.2461  0.1571
 1304SOL    HW2 4982   0.222   3.854   1.995  1.9329 -2.4543 -1.5354
 1304SOL    HW3 4983   0.137   3.730   2.012 -0.1353 -0.9850 -0.8169
 1304SOL    MW4 4984   0.156   3.804   1.970 -0.0843 -0.6349 -0.1947
 1305SOL     OW 4985   5.588   2.230   2.599 -0.2148 -0.2229  0.6455
 1305SOL    HW2 4986   5.502   2.268   2.618  0.0527 -0.2175  1.8955
 1305SOL    HW3 4987   5.640   2.304   2.567  0.0789  0.3451  2.3517
 1305SOL    MW4 4988   5.583   2.245   2.597 -0.1408 -0.1472  1.0355
 1306SOL     OW 4989   1.783   0.485   4.763  0.6743 -0.1902  0.0173
 1306SOL    HW2 4990   1.789   0.415   4.829 -1.1187  0.8923  1.4332
 1306SOL    HW3 4991   1.867   0.530   4.769  1.3957 -1.4628 -0.0549
 1306SOL    MW4 4992   1.795   0.481   4.773  0.5329 -0.2153  0.1946
 1307SOL     OW 4993   1.915   1.906   2.062 -0.4352 -0.4417 -0.1448
 1307SOL    HW2 4994   1.969   1.871   1.991  0.9911  0.0609  0.6425
 1307SOL    HW3 4995   1.880   1.988   2.028  0.0287 -0.3334 -0.3623
 1307SOL    MW4 4996   1.917   1.912   2.048 -0.1858 -0.3611 -0.0696
 1308SOL     OW 4997   4.379   0.923   2.491 -0.2624  0.8396 -0.0520
 1308SOL    HW2 4998   4.297   0.899   2.534  0.1236  1.1573  0.8705
 1308SOL    HW3 4999   4.418   0.990   2.547 -0.2080  1.9929 -1.3960
 1308SOL    MW4 5000   4.374   0.929   2.504 -0.2043  1.0337 -0.1076
 1309SOL     OW 5001   3.702   5.546   3.509 -0.7880  0.5867 -0.6169
 1309SOL    HW2 5002   3.709   5.450   3.508  1.4222  0.6997 -0.9695
 1309SOL    HW3 5003   3.791   5.576   3.523 -1.1417  2.6357 -2.2700
 1309SOL    MW4 5004   3.715   5.537   3.511 -0.5430  0.8719 -0.8815
 1310SOL     OW 5005   3.287   3.172   5.603 -0.3203 -0.8391 -0.1773
 1310SOL    HW2 5006   3.262   3.191   5.512  0.2083 -1.7595 -0.5243
 1310SOL    HW3 5007   3.382   3.180   5.603 -0.4423  1.1539  0.7822
 1310SOL    MW4 5008   3.296   3.176   5.591 -0.2666 -0.6976 -0.0965
 1311SOL     OW 5009   2.792   1.348   2.127  0.1776  0.3209  0.0020
 1311SOL    HW2 5010   2.775   1.425   2.181 -0.6151  0.7094 -0.7682
 1311SOL    HW3 5011   2.763   1.274   2.180  0.3583  0.6045  0.5003
 1311SOL    MW4 5012   2.786   1.349   2.141  0.0969  0.4096 -0.0339
 1312SOL     OW 5013   0.579   1.638   2.006 -0.5883  0.6349  0.7970
 1312SOL    HW2 5014   0.674   1.649   2.017 -0.7477  0.3695  2.6678
 1312SOL    HW3 5015   0.568   1.627   1.911  1.4190 -0.9749  0.6663
 1312SOL    MW4 5016   0.590   1.638   1.995 -0.3445  0.3875  1.0266
 1313SOL     OW 5017   5.811   1.743   2.734 -0.4449 -0.3901 -0.4005
 1313SOL    HW2 5018   5.745   1.715   2.797  0.5425 -2.0971 -0.0712
 1313SOL    HW3 5019   5.761   1.765   2.655 -1.6858  1.6237  0.8577
 1313SOL    MW4 5020   5.796   1.743   2.732 -0.4784 -0.3496 -0.1911
 1314SOL     OW 5021   3.576   1.565   4.007  0.2103 -0.1260  0.1234
 1314SOL    HW2 5022   3.495   1.517   4.027  0.3185 -0.1862  0.4225
 1314SOL    HW3 5023   3.626   1.505   3.952 -0.2817  0.2126 -0.7052
 1314SOL    MW4 5024   3.572   1.551   4.003  0.1597 -0.0893  0.0536
 1315SOL     OW 5025   4.536   0.478   1.974 -0.2356 -0.1882  0.1520
 1315SOL    HW2 5026   4.615   0.455   2.024  1.2283 -0.8755 -2.2904
 1315SOL    HW3 5027   4.470   0.415   2.002  1.0367 -1.6174  0.0732
 1315SOL    MW4 5028   4.538   0.467   1.984  0.1254 -0.4674 -0.1807
 1316SOL     OW 5029   1.470   3.808   3.275  0.4155 -0.1207  0.1909
 1316SOL    HW2 5030   1.540   3.829   3.337 -0.2202 -1.6271  1.4828
 1316SOL    HW3 5031   1.446   3.718   3.295 -2.0947  0.4271 -0.0020
 1316SOL    MW4 5032   1.476   3.799   3.286  0.0004 -0.2472  0.3359
 1317SOL     OW 5033   5.504   2.615   2.356 -0.2362 -0.3144  0.6641
 1317SOL    HW2 5034   5.546   2.698   2.334  0.7878 -0.4662  1.9178
 1317SOL    HW3 5035   5.411   2.631   2.340  0.3008 -0.5021 -3.7841
 1317SOL    MW4 5036   5.497   2.628   2.351 -0.0303 -0.3592  0.2426
 1318SOL     OW 5037   1.475   5.526   0.099  0.1531 -0.8486  0.2633
 1318SOL    HW2 5038   1.482   5.564   0.187  0.8171  1.8982 -0.8605
 1318SOL    HW3 5039   1.444   5.437   0.114  0.0148 -0.4167  3.2575
 1318SOL    MW4 5040   1.472   5.520   0.113  0.2224 -0.4292  0.5101
 1319SOL     OW 5041   3.116   0.085   2.063 -0.4045  0.1162 -0.1103
 1319SOL    HW2 5042   3.142   0.048   2.148 -2.0454 -0.7728  0.0475
 1319SOL    HW3 5043   3.132   0.179   2.072 -0.0837 -0.0251  1.0117
 1319SOL    MW4 5044   3.121   0.092   2.076 -0.5787 -0.0198  0.0586
 1320SOL     OW 5045   2.492   2.433   1.849  0.2972 -0.2756  0.0505
 1320SOL    HW2 5046   2.519   2.442   1.757 -2.1226  0.1992 -0.6974
 1320SOL    HW3 5047   2.494   2.339   1.865  1.3074 -0.3238 -0.2842
 1320SOL    MW4 5048   2.495   2.422   1.839  0.1112 -0.2193 -0.0924
 1321SOL     OW 5049   3.889   3.241   6.350  0.3608  0.3313  0.3025
 1321SOL    HW2 5050   3.952   3.194   6.296 -0.1882  2.5814 -2.6051
 1321SOL    HW3 5051   3.817   3.180   6.363  1.5972 -1.1001  0.6886
 1321SOL    MW4 5052   3.888   3.227   6.345  0.4515  0.4393 -0.0302
 1322SOL     OW 5053   1.765   3.482   4.243 -0.5933  0.0575  0.3656
 1322SOL    HW2 5054   1.711   3.539   4.299  0.4124 -0.8946  2.4408
 1322SOL    HW3 5055   1.819   3.433   4.305 -1.1755 -2.9298 -1.3269
 1322SOL    MW4 5056   1.765   3.483   4.259 -0.5375 -0.4623  0.4161
 1323SOL     OW 5057   4.229   1.335   6.078  0.0506 -0.4088  0.7208
 1323SOL    HW2 5058   4.192   1.301   6.160 -0.7241 -1.2934  0.0316
 1323SOL    HW3 5059   4.262   1.257   6.032 -0.2488 -0.0324 -0.1615
 1323SOL    MW4 5060   4.229   1.320   6.083 -0.0911 -0.4758  0.5134
 1324SOL     OW 5061   0.044   4.973   3.903 -0.8337 -0.0502  0.1658
 1324SOL    HW2 5062   0.133   4.983   3.868 -0.2980 -0.5138  1.3503
 1324SOL    HW3 5063   0.031   5.050   3.957 -1.3696  0.2834 -0.4273
 1324SOL    MW4 5064   0.054   4.984   3.905 -0.8337 -0.0674  0.2438
 1325SOL     OW 5065   1.269   0.533   2.658 -0.4521  0.3362  0.0938
 1325SOL    HW2 5066   1.190   0.560   2.706  0.1491  2.3668  0.0440
 1325SOL    HW3 5067   1.330   0.507   2.727 -0.6143  0.3170  0.2336
 1325SOL    MW4 5068   1.266   0.533   2.674 -0.3942  0.6016  0.1056
 1326SOL     OW 5069   4.508   6.230   4.018  0.0620 -0.2000 -0.1285
 1326SOL    HW2 5070   4.563   6.152   4.028  0.2034 -0.0348  0.3753
 1326SOL    HW3 5071   4.561   6.289   3.964 -0.3218 -0.7101 -1.1040
 1326SOL    MW4 5072   4.522   6.228   4.012  0.0300 -0.2455 -0.1907
 1327SOL     OW 5073   3.233   2.304   4.955  0.2601  0.4382 -0.6517
 1327SOL    HW2 5074   3.180   2.236   4.913 -0.1177  0.4742 -0.2317
 1327SOL    HW3 5075   3.322   2.269   4.952  0.2458  0.4492 -1.5030
 1327SOL    MW4 5076   3.238   2.291   4.949  0.2084  0.4444 -0.7086
 1328SOL     OW 5077   1.628   0.771   5.953  0.1016  0.3631  0.7625
 1328SOL    HW2 5078   1.712   0.760   5.907 -0.9259 -1.7428 -0.7549
 1328SOL    HW3 5079   1.636   0.715   6.030  0.5238  1.1612  1.3165
 1328SOL    MW4 5080   1.640   0.762   5.957  0.0218  0.1905  0.6354
 1329SOL     OW 5081   4.587   6.401   4.617  0.0717  0.1280 -0.8615
 1329SOL    HW2 5082   4.598   6.309   4.593  0.4441  0.2031 -0.9983
 1329SOL    HW3 5083   4.505   6.428   4.576 -0.9199 -0.5952  0.5903
 1329SOL    MW4 5084   4.578   6.393   4.608 -0.0100  0.0425 -0.6880
 1330SOL     OW 5085   0.668   2.454   3.325  0.1798  0.1829 -0.1895
 1330SOL    HW2 5086   0.750   2.421   3.363  0.3999  0.6126 -0.2786
 1330SOL    HW3 5087   0.677   2.440   3.231  0.0780  0.0715 -0.1822
 1330SOL    MW4 5088   0.680   2.448   3.318  0.1954  0.2249 -0.2003
 1331SOL     OW 5089   4.624   1.851   5.822  0.4999  0.4061  0.1502
 1331SOL    HW2 5090   4.681   1.852   5.745 -0.4460  1.1217 -0.5702
 1331SOL    HW3 5091   4.667   1.792   5.883  1.7650  0.5672 -0.5539
 1331SOL    MW4 5092   4.637   1.843   5.820  0.5420  0.5218 -0.0377
 1332SOL     OW 5093   2.627   1.421   3.843 -0.3172  0.0676 -0.0015
 1332SOL    HW2 5094   2.683   1.359   3.796 -2.3514 -1.8301 -0.0917
 1332SOL    HW3 5095   2.564   1.451   3.778 -0.4263  0.9060  0.4750
 1332SOL    MW4 5096   2.626   1.417   3.828 -0.6000 -0.0722  0.0494
 1333SOL     OW 5097   6.259   4.313   6.183  0.6590  0.0028 -0.3533
 1333SOL    HW2 5098   6.212   4.230   6.173  0.2111  0.3073 -0.8411
 1333SOL    HW3 5099   6.201   4.366   6.237  0.4843  0.3397 -0.8620
 1333SOL    MW4 5100   6.245   4.309   6.189  0.5768  0.0874 -0.4848
 1334SOL     OW 5101   1.039   0.632   0.339  0.3285  0.4693 -0.4035
 1334SOL    HW2 5102   1.038   0.551   0.391  1.8505  0.4546 -0.3510
 1334SOL    HW3 5103   0.975   0.689   0.383  1.0824  0.2178  1.1051
 1334SOL    MW4 5104   1.030   0.629   0.352  0.6288  0.4342 -0.1975
 1335SOL     OW 5105   2.820   5.332   0.353  0.5926  0.6814 -0.1173
 1335SOL    HW2 5106   2.769   5.402   0.314 -0.5722  0.9045  1.6913
 1335SOL    HW3 5107   2.776   5.252   0.325  1.6546  0.6415 -1.8065
 1335SOL    MW4 5108   2.808   5.331   0.344  0.5790  0.7056 -0.1016
 1336SOL     OW 5109   0.168   2.542   1.761  0.7149  0.4588  0.6347
 1336SOL    HW2 5110   0.236   2.584   1.815  0.1997  1.4451  0.5521
 1336SOL    HW3 5111   0.086   2.565   1.805  0.2561  1.5726 -0.7309
 1336SOL    MW4 5112   0.166   2.551   1.774  0.5864  0.7359  0.4436
 1337SOL     OW 5113   1.703   5.328   2.566  0.5239 -0.1790  0.2370
 1337SOL    HW2 5114   1.767   5.264   2.535 -0.8612 -0.9225 -1.2633
 1337SOL    HW3 5115   1.675   5.294   2.651  0.4014 -1.1705 -0.1773
 1337SOL    MW4 5116   1.708   5.315   2.573  0.3250 -0.4079 -0.0156
 1338SOL     OW 5117   0.925   3.935   0.027 -0.3127  0.5191  0.2673
 1338SOL    HW2 5118   1.005   3.888   0.052 -0.8319  0.7069  2.4853
 1338SOL    HW3 5119   0.952   3.991  -0.046  0.7586 -1.7972 -1.2274
 1338SOL    MW4 5120   0.939   3.936   0.021 -0.2398  0.2383  0.3627
 1339SOL     OW 5121   2.522   0.418   1.505 -0.3116  0.0278 -0.3801
 1339SOL    HW2 5122   2.540   0.476   1.431 -0.6764 -0.8611 -1.1931
 1339SOL    HW3 5123   2.536   0.472   1.582 -0.7088  1.2145 -1.1110
 1339SOL    MW4 5124   2.526   0.433   1.505 -0.4121  0.0671 -0.5838
 1340SOL     OW 5125   5.948   4.688   0.345  0.5133 -0.3443  0.1024
 1340SOL    HW2 5126   5.870   4.695   0.401 -0.6144  0.1592 -1.4464
 1340SOL    HW3 5127   5.925   4.739   0.267  1.3526 -2.3751 -1.5450
 1340SOL    MW4 5128   5.934   4.696   0.342  0.4753 -0.5458 -0.3193
 1341SOL     OW 5129   2.562   3.141   3.935 -0.2053 -0.1429 -0.5923
 1341SOL    HW2 5130   2.630   3.078   3.959  0.4299  0.6295 -0.3098
 1341SOL    HW3 5131   2.580   3.161   3.843 -0.2283 -0.1599 -0.6002
 1341SOL    MW4 5132   2.574   3.135   3.926 -0.1245 -0.0432 -0.5561
 1342SOL     OW 5133   0.702   5.906   5.114  0.1377  0.0014 -0.0045
 1342SOL    HW2 5134   0.641   5.832   5.113  0.8175 -0.5846  0.4251
 1342SOL    HW3 5135   0.695   5.945   5.027 -0.2571 -0.5505 -0.2232
 1342SOL    MW4 5136   0.693   5.901   5.103  0.1753 -0.1488  0.0233
 1343SOL     OW 5137   5.614   3.928   3.430 -0.3545  0.3048  0.2163
 1343SOL    HW2 5138   5.626   3.948   3.522 -0.0011  0.4962  0.1283
 1343SOL    HW3 5139   5.549   3.991   3.400  2.0651  2.6371 -0.5057
 1343SOL    MW4 5140   5.607   3.939   3.438  0.0114  0.6378  0.1094
 1344SOL     OW 5141   0.175   4.838   1.320 -0.2820  0.1867  0.2256
 1344SOL    HW2 5142   0.104   4.902   1.318 -0.8194 -0.3799  0.7902
 1344SOL    HW3 5143   0.248   4.882   1.276 -0.8636  0.9121 -0.0375
 1344SOL    MW4 5144   0.176   4.853   1.314 -0.4296  0.2076  0.2654
 1345SOL     OW 5145   5.340   5.255   4.979  0.2012 -0.2807 -0.1468
 1345SOL    HW2 5146   5.263   5.308   4.961  0.9143  1.1400  0.8887
 1345SOL    HW3 5147   5.321   5.211   5.061 -0.0921 -1.1026 -0.6397
 1345SOL    MW4 5148   5.327   5.256   4.987  0.2566 -0.2017 -0.0752
 1346SOL     OW 5149   1.185   5.447   4.009  0.1904  0.2505  0.3034
 1346SOL    HW2 5150   1.214   5.419   3.922 -0.2128  0.4676  0.0964
 1346SOL    HW3 5151   1.094   5.417   4.015 -0.2524  1.4764  0.0801
 1346SOL    MW4 5152   1.177   5.439   3.999  0.0788  0.4409  0.2466
 1347SOL     OW 5153   1.995   6.385   3.036 -0.0008  0.2893 -0.0405
 1347SOL    HW2 5154   2.077   6.369   3.082 -0.3341  0.0491  0.4809
 1347SOL    HW3 5155   1.951   6.299   3.035  0.1200  0.2299 -1.0421
 1347SOL    MW4 5156   2.000   6.371   3.042 -0.0289  0.2498 -0.1038
 1348SOL     OW 5157   0.307   4.070   4.395 -0.6221 -0.0236 -0.3944
 1348SOL    HW2 5158   0.313   4.164   4.408  0.8948 -0.0423 -0.7569
 1348SOL    HW3 5159   0.229   4.044   4.444 -0.0567  1.1627  1.2273
 1348SOL    MW4 5160   0.298   4.079   4.404 -0.3473  0.1305 -0.2283
 1349SOL     OW 5161   3.838   5.669   4.888 -0.7953  0.1217  0.1670
 1349SOL    HW2 5162   3.883   5.634   4.811 -0.4285 -0.5980  0.6950
 1349SOL    HW3 5163   3.749   5.686   4.859 -0.6494 -0.1204 -0.4266
 1349SOL    MW4 5164   3.832   5.667   4.874 -0.7277 -0.0052  0.1583
 1350SOL     OW 5165   0.687   2.648   3.003  0.4155  0.1418  0.0075
 1350SOL    HW2 5166   0.597   2.679   2.991  0.2860 -0.0301  0.5328
 1350SOL    HW3 5167   0.678   2.555   3.023  0.6483  0.3209  0.9959
 1350SOL    MW4 5168   0.674   2.640   3.004  0.4292  0.1428  0.2072
 1351SOL     OW 5169   3.099   1.345   2.337  0.1344 -0.2108 -0.0437
 1351SOL    HW2 5170   3.080   1.400   2.261  0.9718 -0.0631 -0.1557
 1351SOL    HW3 5171   3.089   1.403   2.412  0.5564 -0.0227 -0.1300
 1351SOL    MW4 5172   3.095   1.360   2.337  0.3005 -0.1665 -0.0699
 1352SOL     OW 5173   5.711   4.855   5.036  0.6802  0.1292 -0.4773
 1352SOL    HW2 5174   5.779   4.821   5.095 -0.1170 -0.5069  0.1088
 1352SOL    HW3 5175   5.635   4.799   5.053 -0.3039  1.4401 -0.3936
 1352SOL    MW4 5176   5.710   4.843   5.046  0.4452  0.2183 -0.3889
 1353SOL     OW 5177   1.914   4.821   0.473  0.1143  0.4449 -0.0542
 1353SOL    HW2 5178   1.993   4.807   0.422  0.3513 -0.4802  0.5400
 1353SOL    HW3 5179   1.940   4.803   0.564 -0.3631  1.7818  0.3755
 1353SOL    MW4 5180   1.928   4.816   0.479  0.0826  0.4993  0.0809
 1354SOL     OW 5181   1.593   5.223   2.785  0.6742  0.5318 -0.4073
 1354SOL    HW2 5182   1.530   5.295   2.789  1.8526  1.6228 -0.6177
 1354SOL    HW3 5183   1.539   5.144   2.780 -0.6677  1.4334 -0.8791
 1354SOL    MW4 5184   1.577   5.222   2.785  0.6526  0.7947 -0.4973
 1355SOL     OW 5185   1.212   2.509   3.701  0.2104 -1.2377  0.3710
 1355SOL    HW2 5186   1.168   2.571   3.644 -0.1835 -2.8408 -1.1781
 1355SOL    HW3 5187   1.304   2.538   3.701  0.2103 -1.1303 -1.0535
 1355SOL    MW4 5188   1.219   2.521   3.693  0.1584 -1.4351 -0.0213
 1356SOL     OW 5189   1.260   4.324   1.049  0.0790 -0.0382  0.0950
 1356SOL    HW2 5190   1.237   4.412   1.080 -0.7775 -0.2933  0.1797
 1356SOL    HW3 5191   1.295   4.280   1.126  0.2825  0.1425  0.1083
 1356SOL    MW4 5192   1.262   4.330   1.063 -0.0071 -0.0480  0.1080
 1357SOL     OW 5193   3.347   1.803   0.255 -0.3666 -0.0834 -0.3730
 1357SOL    HW2 5194   3.326   1.786   0.163 -1.3753  0.5363 -0.2685
 1357SOL    HW3 5195   3.342   1.717   0.297  1.9084 -0.7027 -1.1953
 1357SOL    MW4 5196   3.344   1.789   0.248 -0.1995 -0.0833 -0.4677
 1358SOL     OW 5197   6.084   1.174   4.637  0.5420  0.3319 -0.2659
 1358SOL    HW2 5198   6.019   1.228   4.592 -0.7708 -0.2463  0.8648
 1358SOL    HW3 5199   6.156   1.167   4.575 -0.0873  1.7345 -1.2071
 1358SOL    MW4 5200   6.085   1.180   4.623  0.2857  0.4406 -0.2409
 1359SOL     OW 5201   2.007   4.765   0.753 -0.7910 -0.5788  0.0033
 1359SOL    HW2 5202   2.079   4.710   0.785 -1.2408 -1.2882 -0.1950
 1359SOL    HW3 5203   1.935   4.748   0.814 -1.4566 -1.4650 -0.9861
 1359SOL    MW4 5204   2.007   4.755   0.765 -0.9382 -0.7893 -0.1534
 1360SOL     OW 5205   0.528   0.514   1.231  0.3622  0.3779 -0.6338
 1360SOL    HW2 5206   0.620   0.529   1.210  0.6581 -0.4509  0.0028
 1360SOL    HW3 5207   0.523   0.420   1.251 -0.7849  0.2408 -1.4830
 1360SOL    MW4 5208   0.539   0.504   1.231  0.2499  0.2505 -0.6618
 1361SOL     OW 5209   3.028   4.183   6.120  0.4806 -0.5738 -0.1711
 1361SOL    HW2 5210   3.008   4.250   6.185 -1.3818 -0.0033 -1.2383
 1361SOL    HW3 5211   2.951   4.125   6.122 -0.0775 -0.0128 -2.4449
 1361SOL    MW4 5212   3.015   4.184   6.129  0.1612 -0.4245 -0.6119
 1362SOL     OW 5213   2.622   1.970   2.119 -0.4274 -0.0520 -0.2286
 1362SOL    HW2 5214   2.712   1.962   2.086 -0.3879  3.4910 -1.3697
 1362SOL    HW3 5215   2.582   1.885   2.098  2.5470 -1.7488  0.2792
 1362SOL    MW4 5216   2.629   1.957   2.112 -0.0298  0.1916 -0.3121
 1363SOL     OW 5217   4.512   1.967   6.081  0.1422 -0.7864  0.2054
 1363SOL    HW2 5218   4.559   1.917   6.148 -0.4697 -2.1012 -0.3151
 1363SOL    HW3 5219   4.554   1.943   5.999  0.6430  0.5340  0.0523
 1363SOL    MW4 5220   4.524   1.957   6.079  0.1276 -0.7856  0.1165
 1364SOL     OW 5221   4.354   2.453   3.476 -0.0373 -0.1508 -0.1170
 1364SOL    HW2 5222   4.317   2.418   3.558  0.2999 -0.5608 -0.1372
 1364SOL    HW3 5223   4.410   2.383   3.443 -1.0340 -0.4292 -1.2790
 1364SOL    MW4 5224   4.356   2.439   3.483 -0.1243 -0.2416 -0.2730
 1365SOL     OW 5225   1.622   6.387   0.598  0.2566  0.0369 -0.1667
 1365SOL    HW2 5226   1.716   6.404   0.590  0.1118  0.8575 -0.1709
 1365SOL    HW3 5227   1.582   6.474   0.599 -0.4981 -0.3084 -0.0889
 1365SOL    MW4 5228   1.629   6.401   0.597  0.1379  0.0996 -0.1570
 1366SOL     OW 5229   5.860   6.258   4.522  1.0541 -0.1490 -0.2276
 1366SOL    HW2 5230   5.852   6.329   4.458  1.3771 -0.2725 -0.4040
 1366SOL    HW3 5231   5.886   6.182   4.470 -0.9820 -0.8440 -0.3193
 1366SOL    MW4 5232   5.862   6.258   4.507  0.8281 -0.2570 -0.2630
 1367SOL     OW 5233   5.829   3.657   1.169  0.0116 -0.3931  0.9490
 1367SOL    HW2 5234   5.750   3.617   1.206 -0.3947 -1.0720 -0.5979
 1367SOL    HW3 5235   5.893   3.587   1.169 -0.9555 -1.4619 -2.5798
 1367SOL    MW4 5236   5.827   3.643   1.174 -0.1696 -0.6237  0.2793
 1368SOL     OW 5237   1.255   0.073   1.630  0.3352  0.5151 -0.8861
 1368SOL    HW2 5238   1.204   0.153   1.623  2.4447  1.7897 -3.6269
 1368SOL    HW3 5239   1.194   0.003   1.607 -1.3489  1.3116  0.8327
 1368SOL    MW4 5240   1.240   0.074   1.626  0.3913  0.7883 -1.0210
 1369SOL     OW 5241   0.996   2.268   0.727  0.1094  0.1742 -0.2163
 1369SOL    HW2 5242   1.036   2.181   0.738  0.8716  0.5354 -0.0621
 1369SOL    HW3 5243   1.058   2.328   0.768 -1.0968  0.6605  0.9856
 1369SOL    MW4 5244   1.009   2.264   0.734  0.0508  0.2860 -0.0374
 1370SOL     OW 5245   3.302   5.584   4.324 -0.1751  0.1641  0.0331
 1370SOL    HW2 5246   3.303   5.659   4.384 -0.8079  0.5720 -0.4596
 1370SOL    HW3 5247   3.218   5.542   4.341  0.4395 -0.8232  0.7620
 1370SOL    MW4 5248   3.291   5.588   4.334 -0.1775  0.0876  0.0642
 1371SOL     OW 5249   1.772   4.933   3.605 -0.3888  0.3486  0.2980
 1371SOL    HW2 5250   1.725   4.978   3.675 -0.5184  0.1067  0.3702
 1371SOL    HW3 5251   1.840   4.883   3.649  0.1104  0.9019  0.1702
 1371SOL    MW4 5252   1.774   4.932   3.620 -0.3400  0.3897  0.2907
 1372SOL     OW 5253   3.880   2.447   1.344 -0.4287 -0.5699 -0.5169
 1372SOL    HW2 5254   3.883   2.361   1.387 -0.9348 -0.6240 -0.5867
 1372SOL    HW3 5255   3.897   2.428   1.252  0.2983 -0.4943 -0.4068
 1372SOL    MW4 5256   3.883   2.433   1.338 -0.3995 -0.5670 -0.5115
 1373SOL     OW 5257   4.332   0.672   5.856  0.1230  0.1217  0.4899
 1373SOL    HW2 5258   4.304   0.613   5.786 -1.6879  1.4703  0.0196
 1373SOL    HW3 5259   4.362   0.613   5.926  0.0721 -1.2955 -0.6274
 1373SOL    MW4 5260   4.332   0.656   5.856 -0.1227  0.1127  0.2805
 1374SOL     OW 5261   0.826   3.021   4.913  0.1320  0.4728 -0.3943
 1374SOL    HW2 5262   0.804   3.107   4.878  0.0584 -0.3345 -2.4679
 1374SOL    HW3 5263   0.823   2.963   4.837  0.3836 -1.3286  0.9177
 1374SOL    MW4 5264   0.823   3.025   4.898  0.1555  0.1286 -0.4948
 1375SOL     OW 5265   0.295   5.253   1.806  0.5828 -0.2279  0.1936
 1375SOL    HW2 5266   0.209   5.210   1.794 -0.5392  1.3531  1.9895
 1375SOL    HW3 5267   0.337   5.201   1.875 -0.0515  0.4976  1.1491
 1375SOL    MW4 5268   0.289   5.240   1.814  0.3511  0.0764  0.5566
 1376SOL     OW 5269   6.090   0.426   3.149 -0.4430  0.0534  0.0931
 1376SOL    HW2 5270   6.028   0.393   3.214 -1.1298  0.0492 -0.5469
 1376SOL    HW3 5271   6.109   0.350   3.094  0.3446 -0.0097  0.4480
 1376SOL    MW4 5272   6.084   0.412   3.150 -0.4297  0.0445  0.0555
 1377SOL     OW 5273   0.157   5.143   5.613  0.4262 -0.0134 -0.0205
 1377SOL    HW2 5274   0.074   5.171   5.576  0.0179  0.6232  1.3336
 1377SOL    HW3 5275   0.136   5.064   5.663  1.3287 -2.1009 -2.6768
 1377SOL    MW4 5276   0.144   5.136   5.615  0.4914 -0.2049 -0.1923
 1378SOL     OW 5277   4.339   2.221   6.370 -0.2355 -0.2933 -0.6540
 1378SOL    HW2 5278   4.403   2.161   6.408  0.6397  1.0399  0.0363
 1378SOL    HW3 5279   4.301   2.172   6.296  0.2017 -1.8008  0.0826
 1378SOL    MW4 5280   4.342   2.206   6.365 -0.0623 -0.3163 -0.4657
 1379SOL     OW 5281   5.610   4.360   4.941  0.2340  0.2263  0.1183
 1379SOL    HW2 5282   5.535   4.386   4.994  0.8318  1.7022  0.2852
 1379SOL    HW3 5283   5.605   4.265   4.937 -1.6298  0.2851  0.1372
 1379SOL    MW4 5284   5.599   4.351   4.947  0.0670  0.4288  0.1428
 1380SOL     OW 5285   2.099   5.177   4.044  0.6839  0.2709 -0.2998
 1380SOL    HW2 5286   2.189   5.146   4.053  0.9216  0.7385 -0.9881
 1380SOL    HW3 5287   2.049   5.125   4.107  1.1920 -0.9921 -0.9138
 1380SOL    MW4 5288   2.104   5.166   4.053  0.7823  0.1660 -0.4717
 1381SOL     OW 5289   0.322   1.617   5.234  0.5478 -0.1787 -0.1250
 1381SOL    HW2 5290   0.278   1.560   5.297  0.5595 -0.5623 -0.4642
 1381SOL    HW3 5291   0.306   1.705   5.268 -1.2708 -0.2371 -0.7317
 1381SOL    MW4 5292   0.314   1.621   5.247  0.3094 -0.2370 -0.2498
 1382SOL     OW 5293   4.271   2.937   1.936  0.3866 -0.4542  0.4940
 1382SOL    HW2 5294   4.361   2.922   1.909  0.8866  0.3582  1.6094
 1382SOL    HW3 5295   4.246   2.857   1.983  0.1763 -1.0708 -0.6372
 1382SOL    MW4 5296   4.279   2.925   1.939  0.4248 -0.4284  0.4919
 1383SOL     OW 5297   1.868   5.464   0.748 -0.1587 -0.0471 -0.3136
 1383SOL    HW2 5298   1.834   5.414   0.674  2.7480 -0.0367 -1.7897
 1383SOL    HW3 5299   1.868   5.402   0.821  1.2787 -1.5705 -1.5416
 1383SOL    MW4 5300   1.864   5.449   0.748  0.4144 -0.2467 -0.6704
 1384SOL     OW 5301   0.930   0.148   0.683 -0.3098 -0.4485 -0.1757
 1384SOL    HW2 5302   0.907   0.238   0.706  0.8664  0.0654 -0.8793
 1384SOL    HW3 5303   1.016   0.156   0.641 -0.6290 -1.7898 -1.1329
 1384SOL    MW4 5304   0.938   0.161   0.680 -0.1967 -0.5576 -0.3948
 1385SOL     OW 5305   1.684   4.538   3.664 -0.1485 -0.2688 -0.3515
 1385SOL    HW2 5306   1.632   4.613   3.634  1.2716  0.9870  0.1496
 1385SOL    HW3 5307   1.754   4.530   3.598  0.4247 -0.3347  0.2477
 1385SOL    MW4 5308   1.687   4.547   3.651  0.1145 -0.1118 -0.2064
 1386SOL     OW 5309   0.910   2.785   6.128 -0.6133  0.1898 -0.1037
 1386SOL    HW2 5310   0.977   2.853   6.139  0.7086 -0.8945 -1.0720
 1386SOL    HW3 5311   0.862   2.785   6.211  1.7276 -0.1902  1.3409
 1386SOL    MW4 5312   0.913   2.794   6.140 -0.1300 -0.0034 -0.0409
 1387SOL     OW 5313   6.039   4.155   4.410  0.6486  0.7911 -0.1948
 1387SOL    HW2 5314   6.009   4.117   4.327  2.0353  1.2668 -0.9429
 1387SOL    HW3 5315   5.979   4.119   4.476  0.6057 -1.0192 -1.1588
 1387SOL    MW4 5316   6.027   4.145   4.408  0.8259  0.6150 -0.4207
 1388SOL     OW 5317   0.560   0.302   3.137  0.0249 -0.3083 -0.2723
 1388SOL    HW2 5318   0.470   0.333   3.132  0.1419 -0.0812 -1.1366
 1388SOL    HW3 5319   0.573   0.252   3.056  1.2763  1.3224 -1.1386
 1388SOL    MW4 5320   0.550   0.300   3.125  0.2054 -0.0632 -0.5007
 1389SOL     OW 5321   3.199   3.566   2.936 -0.7446  0.4303 -0.3309
 1389SOL    HW2 5322   3.221   3.647   2.890  2.1999  0.2977  0.5725
 1389SOL    HW3 5323   3.276   3.510   2.923 -1.7400 -1.3452  0.9657
 1389SOL    MW4 5324   3.212   3.569   2.928 -0.4874  0.1786 -0.0406
 1390SOL     OW 5325   2.798   1.332   5.047 -0.0095 -0.5586 -0.2799
 1390SOL    HW2 5326   2.879   1.284   5.027  0.6694  0.3239  0.2685
 1390SOL    HW3 5327   2.732   1.264   5.056  1.2208 -1.5678  1.9318
 1390SOL    MW4 5328   2.800   1.317   5.046  0.2424 -0.5753  0.0843
 1391SOL     OW 5329   6.403   6.252   3.802  0.2727  0.0336  0.2978
 1391SOL    HW2 5330   6.362   6.322   3.853 -1.6576  0.6032 -1.8889
 1391SOL    HW3 5331   6.330   6.204   3.764  1.6181 -0.8767 -1.2561
 1391SOL    MW4 5332   6.388   6.255   3.804  0.1955 -0.0114 -0.1957
 1392SOL     OW 5333   3.610   2.031   3.596 -0.3899 -0.0910 -0.3846
 1392SOL    HW2 5334   3.597   2.122   3.572 -0.5568  0.2528  0.9566
 1392SOL    HW3 5335   3.638   1.989   3.514 -0.6094  1.0784 -1.0915
 1392SOL    MW4 5336   3.612   2.037   3.582 -0.4409  0.1086 -0.3009
 1393SOL     OW 5337   6.250   4.016   2.891  0.0922  0.3557  0.2096
 1393SOL    HW2 5338   6.269   3.955   2.820 -0.1612 -1.9846  2.0394
 1393SOL    HW3 5339   6.154   4.021   2.893  0.0991  0.3980  0.4072
 1393SOL    MW4 5340   6.240   4.009   2.882  0.0597  0.0525  0.4771
 1394SOL     OW 5341   1.527   2.686   3.035  0.1037  0.0743  0.0880
 1394SOL    HW2 5342   1.562   2.774   3.049  1.4219  0.1109 -2.8072
 1394SOL    HW3 5343   1.444   2.700   2.990  0.5879 -0.1454 -0.8921
 1394SOL    MW4 5344   1.521   2.700   3.031  0.3415  0.0502 -0.4233
 1395SOL     OW 5345   1.186   0.147   0.575 -0.8508  0.6002  0.4225
 1395SOL    HW2 5346   1.168   0.144   0.481  0.0876  1.0176  0.2079
 1395SOL    HW3 5347   1.234   0.067   0.593 -2.6040 -0.3805  0.9349
 1395SOL    MW4 5348   1.190   0.136   0.565 -0.9583  0.5259  0.4618
 1396SOL     OW 5349   0.732   3.417   3.725  0.1297 -0.4635  0.2853
 1396SOL    HW2 5350   0.708   3.506   3.750  0.2916 -0.3712  0.1152
 1396SOL    HW3 5351   0.759   3.375   3.807  1.4050  0.0754  0.1669
 1396SOL    MW4 5352   0.732   3.423   3.739  0.3193 -0.3802  0.2473
 1397SOL     OW 5353   2.135   5.503   5.974 -0.1911 -0.1346  0.3503
 1397SOL    HW2 5354   2.221   5.542   5.991 -0.7498  0.8060  1.1109
 1397SOL    HW3 5355   2.131   5.495   5.879  0.7183 -0.1697  0.3025
 1397SOL    MW4 5356   2.146   5.507   5.964 -0.1448 -0.0151  0.4444
 1398SOL     OW 5357   2.523   6.313   0.907  0.9130 -0.4451 -0.4128
 1398SOL    HW2 5358   2.544   6.355   0.824  2.3301 -0.0964  0.0925
 1398SOL    HW3 5359   2.587   6.242   0.915 -0.7210 -2.0344 -0.7261
 1398SOL    MW4 5360   2.534   6.309   0.897  0.8844 -0.6088 -0.3875
 1399SOL     OW 5361   5.259   1.963   2.519  0.1479 -0.1649  0.0991
 1399SOL    HW2 5362   5.334   1.985   2.464 -0.0238  0.5099  0.1287
 1399SOL    HW3 5363   5.297   1.949   2.606  0.5669 -2.2747 -0.3732
 1399SOL    MW4 5364   5.274   1.964   2.523  0.1805 -0.3542  0.0407
 1400SOL     OW 5365   2.952   2.365   4.989 -0.3154 -0.5112 -0.3089
 1400SOL    HW2 5366   2.900   2.365   5.069 -0.7243 -1.6926 -0.5589
 1400SOL    HW3 5367   3.041   2.347   5.018 -0.5846 -1.6981 -0.1788
 1400SOL    MW4 5368   2.957   2.363   5.003 -0.4049 -0.8237 -0.3247
 1401SOL     OW 5369   1.207   5.747   5.532 -0.2736 -0.5854 -0.3311
 1401SOL    HW2 5370   1.138   5.811   5.518 -1.1910 -1.0097  1.8382
 1401SOL    HW3 5371   1.249   5.737   5.447 -2.4120  0.2285 -1.5404
 1401SOL    MW4 5372   1.203   5.754   5.519 -0.6768 -0.5340 -0.2044
 1402SOL     OW 5373   2.187   3.794   4.442 -0.1936  0.0501 -0.1008
 1402SOL    HW2 5374   2.274   3.821   4.412 -0.4170  1.0232  0.0942
 1402SOL    HW3 5375   2.132   3.800   4.365 -0.3126  0.4852  0.0143
 1402SOL    MW4 5376   2.191   3.799   4.428 -0.2388  0.2359 -0.0599
 1403SOL     OW 5377   1.272   5.139   3.593  0.0813 -0.1908  0.5115
 1403SOL    HW2 5378   1.266   5.084   3.671  0.8280 -0.3741  0.4498
 1403SOL    HW3 5379   1.311   5.083   3.527 -0.0746  0.1167  0.1539
 1403SOL    MW4 5380   1.277   5.125   3.595  0.1593 -0.1744  0.4562
 1404SOL     OW 5381   5.265   3.468   2.299  0.8438  0.2633 -0.1483
 1404SOL    HW2 5382   5.355   3.438   2.286  1.0087  0.8825 -0.4982
 1404SOL    HW3 5383   5.211   3.392   2.278  1.2991 -0.2626  0.5514
 1404SOL    MW4 5384   5.270   3.454   2.294  0.9256  0.2756 -0.1022
 1405SOL     OW 5385   0.839   0.126   3.492  0.0220 -0.3830 -0.0738
 1405SOL    HW2 5386   0.810   0.146   3.402  1.1748  0.1466 -0.3469
 1405SOL    HW3 5387   0.846   0.031   3.494 -0.6974 -0.4519 -0.3146
 1405SOL    MW4 5388   0.836   0.116   3.480  0.0792 -0.3222 -0.1416
 1406SOL     OW 5389   5.938   5.221   1.048 -0.0674  0.7176  0.6541
 1406SOL    HW2 5390   5.851   5.186   1.032 -0.0869  0.4355  1.3616
 1406SOL    HW3 5391   5.928   5.316   1.037 -0.0641  0.5624 -1.0252
 1406SOL    MW4 5392   5.925   5.229   1.044 -0.0695  0.6599  0.5258
 1407SOL     OW 5393   4.139   5.799   3.997 -0.3174  0.4279 -0.5422
 1407SOL    HW2 5394   4.195   5.764   4.066 -1.3900 -2.4976 -0.9873
 1407SOL    HW3 5395   4.074   5.852   4.044  2.2493  3.3170  0.0318
 1407SOL    MW4 5396   4.138   5.801   4.013 -0.1202  0.4231 -0.5252
 1408SOL     OW 5397   4.679   0.405   4.650  0.9523  0.3442  0.2447
 1408SOL    HW2 5398   4.725   0.372   4.727 -0.5791 -1.0260  0.6290
 1408SOL    HW3 5399   4.699   0.342   4.581  1.3102  0.8866 -0.1601
 1408SOL    MW4 5400   4.687   0.392   4.651  0.7974  0.2350  0.2420
 1409SOL     OW 5401   5.877   5.603   5.761 -0.3336  0.2346 -0.2505
 1409SOL    HW2 5402   5.858   5.534   5.824  0.2385  1.1549  0.9876
 1409SOL    HW3 5403   5.792   5.628   5.725 -0.5349 -1.1625 -0.8041
 1409SOL    MW4 5404   5.864   5.598   5.764 -0.2847  0.1717 -0.1602
 1410SOL     OW 5405   2.711   5.915   2.529 -0.3609 -0.2805 -0.5045
 1410SOL    HW2 5406   2.692   5.977   2.458  0.6434  1.2349  0.4676
 1410SOL    HW3 5407   2.627   5.876   2.551 -0.8753  0.0940 -1.7547
 1410SOL    MW4 5408   2.698   5.918   2.523 -0.2963 -0.0311 -0.5412
 1411SOL     OW 5409   0.271   4.884   5.000  0.3864 -0.8593  0.0170
 1411SOL    HW2 5410   0.320   4.815   5.044  1.4836  0.9788  1.7925
 1411SOL    HW3 5411   0.337   4.944   4.966 -0.5529  0.8461  1.0798
 1411SOL    MW4 5412   0.286   4.883   5.001  0.4073 -0.3918  0.3915
 1412SOL     OW 5413   3.579   2.770   3.217 -0.1575 -0.4442 -0.7029
 1412SOL    HW2 5414   3.629   2.762   3.298 -0.5299 -1.8516 -0.5720
 1412SOL    HW3 5415   3.487   2.768   3.245 -0.3292  1.4276 -0.9945
 1412SOL    MW4 5416   3.573   2.768   3.231 -0.2293 -0.3829 -0.7241
 1413SOL     OW 5417   0.621   5.772   4.181  0.1576  0.2964 -0.4607
 1413SOL    HW2 5418   0.528   5.778   4.203  0.2807  0.2404  0.0912
 1413SOL    HW3 5419   0.639   5.852   4.132 -0.0080  0.6872  0.1019
 1413SOL    MW4 5420   0.611   5.784   4.178  0.1520  0.3406 -0.3136
 1414SOL     OW 5421   2.050   0.062   0.707 -0.0283  0.1529  0.1297
 1414SOL    HW2 5422   2.092   0.095   0.787 -1.4770  1.0032  0.5910
 1414SOL    HW3 5423   2.010  -0.021   0.734  0.2036  0.0099  0.0426
 1414SOL    MW4 5424   2.050   0.055   0.721 -0.1888  0.2462  0.1790
 1415SOL     OW 5425   5.740   2.208   3.058  0.9534  0.2162 -0.0669
 1415SOL    HW2 5426   5.701   2.291   3.085 -0.0357 -0.2841  0.1085
 1415SOL    HW3 5427   5.683   2.176   2.989  0.4980 -0.9696  0.8133
 1415SOL    MW4 5428   5.727   2.215   3.053  0.7628 -0.0063  0.0724
 1416SOL     OW 5429   2.989   1.377   4.586 -0.4073 -0.4327  0.3088
 1416SOL    HW2 5430   2.930   1.320   4.536  0.2365 -0.9063  0.0692
 1416SOL    HW3 5431   3.062   1.320   4.609  0.9159  0.6083 -1.1111
 1416SOL    MW4 5432   2.991   1.362   4.582 -0.1478 -0.3579  0.0898
 1417SOL     OW 5433   3.050   6.184   1.552  0.2277  0.7250 -0.2896
 1417SOL    HW2 5434   3.033   6.277   1.563  0.6805  0.6398  1.2237
 1417SOL    HW3 5435   3.092   6.156   1.633 -1.3470 -1.1352 -0.0287
 1417SOL    MW4 5436   3.053   6.192   1.564  0.0797  0.4683 -0.0555
 1418SOL     OW 5437   0.153   1.002   1.122  0.2337  0.0032 -0.4301
 1418SOL    HW2 5438   0.226   0.976   1.067  1.8659 -0.2138  1.7130
 1418SOL    HW3 5439   0.100   0.922   1.130 -0.5645  0.2902 -2.3794
 1418SOL    MW4 5440   0.155   0.988   1.116  0.3437  0.0125 -0.4045
 1419SOL     OW 5441   0.935   0.806   1.892 -0.2797 -0.2417 -0.6818
 1419SOL    HW2 5442   0.850   0.827   1.931  0.4962 -0.7676  1.4151
 1419SOL    HW3 5443   0.958   0.885   1.843 -0.3841  1.3341  1.6678
 1419SOL    MW4 5444   0.927   0.819   1.891 -0.1911 -0.1032 -0.0951
 1420SOL     OW 5445   6.158   1.897   6.292 -0.0369 -0.2034 -0.4924
 1420SOL    HW2 5446   6.108   1.904   6.210  0.8191 -0.7471 -1.0715
 1420SOL    HW3 5447   6.196   1.810   6.289 -0.8191 -0.6313  0.9793
 1420SOL    MW4 5448   6.156   1.887   6.281 -0.0271 -0.3316 -0.3747
 1421SOL     OW 5449   0.103   5.873   0.681 -1.0197  0.0893  0.3306
 1421SOL    HW2 5450   0.012   5.884   0.710 -1.3082 -1.0932 -0.0507
 1421SOL    HW3 5451   0.095   5.824   0.598  0.0370 -2.3940  1.5868
 1421SOL    MW4 5452   0.090   5.868   0.674 -0.9184 -0.3943  0.4460
 1422SOL     OW 5453   4.258   0.524   4.282  0.2413  0.1257 -0.2807
 1422SOL    HW2 5454   4.181   0.528   4.225  0.6601 -1.8896 -1.0738
 1422SOL    HW3 5455   4.299   0.610   4.273  0.0161  0.0500 -2.6626
 1422SOL    MW4 5456   4.253   0.536   4.274  0.2669 -0.1502 -0.6996
 1423SOL     OW 5457   3.593   1.050   3.719  0.3137 -0.3281 -0.5272
 1423SOL    HW2 5458   3.537   0.990   3.670  0.4663  0.9523 -2.3634
 1423SOL    HW3 5459   3.680   1.038   3.681  0.8334 -0.5641  0.6674
 1423SOL    MW4 5460   3.597   1.040   3.708  0.4024 -0.1903 -0.6119
 1424SOL     OW 5461   3.654   3.521   5.321  0.1330 -0.2793  0.6477
 1424SOL    HW2 5462   3.587   3.460   5.289  0.4625 -0.4970  0.3702
 1424SOL    HW3 5463   3.652   3.594   5.259  0.0465 -0.2115  0.7288
 1424SOL    MW4 5464   3.645   3.523   5.309  0.1650 -0.2991  0.6218
 1425SOL     OW 5465   2.976   1.948   1.511 -0.3131 -0.1219  1.1860
 1425SOL    HW2 5466   2.888   1.945   1.548 -0.6778  2.4879  0.7143
 1425SOL    HW3 5467   3.017   2.023   1.554  0.9702 -0.0566 -0.0738
 1425SOL    MW4 5468   2.970   1.958   1.522 -0.1919  0.2310  0.9576
 1426SOL     OW 5469   3.944   5.574   3.293  0.8231 -0.0475 -0.2066
 1426SOL    HW2 5470   4.005   5.534   3.354  1.7902  0.0473 -1.0994
 1426SOL    HW3 5471   3.944   5.667   3.317 -0.3262 -0.3170  0.9264
 1426SOL    MW4 5472   3.952   5.581   3.304  0.7990 -0.0706 -0.1749
 1427SOL     OW 5473   0.999   5.122   3.474  0.7607 -0.5009 -0.8099
 1427SOL    HW2 5474   1.091   5.136   3.497  0.2699  1.2326  0.2496
 1427SOL    HW3 5475   0.991   5.026   3.467  2.2619 -0.7901  0.7241
 1427SOL    MW4 5476   1.010   5.111   3.476  0.8940 -0.3104 -0.4677
 1428SOL     OW 5477   0.045   1.772   5.188 -0.4047 -0.1777  0.0497
 1428SOL    HW2 5478   0.034   1.687   5.145 -0.1610 -0.4663  0.5437
 1428SOL    HW3 5479  -0.045   1.801   5.207 -0.4918 -0.2897 -0.1898
 1428SOL    MW4 5480   0.031   1.764   5.185 -0.3841 -0.2305  0.0833
 1429SOL     OW 5481   3.685   3.202   0.364  0.1624 -0.2814 -0.1375
 1429SOL    HW2 5482   3.777   3.220   0.344  1.1569 -1.2164  2.9410
 1429SOL    HW3 5483   3.643   3.193   0.279  3.2983 -1.5370 -1.7329
 1429SOL    MW4 5484   3.692   3.203   0.350  0.7074 -0.5704  0.0582
 1430SOL     OW 5485   1.190   2.849   6.413  0.1905  0.3144 -0.3522
 1430SOL    HW2 5486   1.253   2.794   6.366  0.1064 -1.8642  1.8553
 1430SOL    HW3 5487   1.243   2.901   6.472  0.0683 -0.3852  0.3991
 1430SOL    MW4 5488   1.205   2.848   6.415  0.1633 -0.0654  0.0382
 1431SOL     OW 5489   5.365   5.072   0.208 -0.2357  0.1871  0.8562
 1431SOL    HW2 5490   5.358   5.026   0.291  0.1594 -2.1186 -0.2977
 1431SOL    HW3 5491   5.279   5.113   0.196 -0.6415 -0.3085  1.9409
 1431SOL    MW4 5492   5.353   5.071   0.217 -0.2371 -0.1825  0.8471
 1432SOL     OW 5493   5.476   3.594   6.254 -0.1674  0.1723  0.0111
 1432SOL    HW2 5494   5.451   3.503   6.239  1.0128 -0.1778  0.0988
 1432SOL    HW3 5495   5.399   3.644   6.226 -1.2102 -0.8794  0.8562
 1432SOL    MW4 5496   5.463   3.588   6.248 -0.1493 -0.0127  0.1341
 1433SOL     OW 5497   0.728   3.032   3.000 -0.4488 -0.1825  0.7356
 1433SOL    HW2 5498   0.795   2.968   3.025  0.6017  0.6811  0.1745
 1433SOL    HW3 5499   0.658   3.019   3.066  0.7779 -0.2680  2.0736
 1433SOL    MW4 5500   0.727   3.022   3.012 -0.1484 -0.0799  0.8381
 1434SOL     OW 5501   0.157   0.356   0.623  0.7144  0.1990 -0.0968
 1434SOL    HW2 5502   0.196   0.279   0.582  0.1817 -1.6074  2.5387
 1434SOL    HW3 5503   0.079   0.374   0.569  0.6416 -1.3398 -0.5666
 1434SOL    MW4 5504   0.152   0.348   0.610  0.6345 -0.2424  0.1890
 1435SOL     OW 5505   0.290   3.269   5.721 -0.1202  0.2455  0.2654
 1435SOL    HW2 5506   0.225   3.209   5.758  0.4778  0.2019  1.2942
 1435SOL    HW3 5507   0.293   3.248   5.628  0.5274 -1.7570  0.6984
 1435SOL    MW4 5508   0.282   3.258   5.714  0.0442 -0.0245  0.4583
 1436SOL     OW 5509   5.438   1.743   5.025  0.2253  0.0901 -0.6303
 1436SOL    HW2 5510   5.529   1.767   5.045  0.1181  0.6189 -0.7652
 1436SOL    HW3 5511   5.435   1.742   4.929  0.0865  0.0713 -0.6254
 1436SOL    MW4 5512   5.450   1.746   5.015  0.1929  0.1574 -0.6474
 1437SOL     OW 5513   1.973   1.736   0.153  0.0213  0.3588 -0.0893
 1437SOL    HW2 5514   1.935   1.714   0.238  2.8972 -0.2155  1.1948
 1437SOL    HW3 5515   1.955   1.829   0.142  0.8293  0.8313  1.9542
 1437SOL    MW4 5516   1.966   1.745   0.163  0.5073  0.3453  0.3497
 1438SOL     OW 5517   2.604   0.956   3.801  0.4335 -0.2908 -0.3186
 1438SOL    HW2 5518   2.697   0.946   3.824  0.3640  0.7926  0.4824
 1438SOL    HW3 5519   2.577   0.867   3.777  0.5293 -1.6357  3.8189
 1438SOL    MW4 5520   2.613   0.943   3.801  0.4370 -0.3253  0.3330
 1439SOL     OW 5521   2.329   2.441   3.161 -0.1874  0.1570  0.2117
 1439SOL    HW2 5522   2.296   2.368   3.110 -0.4776 -0.5906  1.4315
 1439SOL    HW3 5523   2.419   2.416   3.183 -0.2763  0.1905  0.6087
 1439SOL    MW4 5524   2.337   2.428   3.157 -0.2374  0.0628  0.4250
 1440SOL     OW 5525   1.061   2.490   3.935 -0.4557 -0.3792 -0.3234
 1440SOL    HW2 5526   1.121   2.491   3.860 -1.2988 -1.9555 -1.0789
 1440SOL    HW3 5527   1.003   2.564   3.921  1.0769  0.9935  0.2607
 1440SOL    MW4 5528   1.061   2.500   3.923 -0.3647 -0.4061 -0.3460
 1441SOL     OW 5529   2.271   5.753   2.884 -0.0515 -0.0757 -0.3543
 1441SOL    HW2 5530   2.242   5.765   2.974  0.3622 -1.2776 -0.0327
 1441SOL    HW3 5531   2.220   5.815   2.833 -0.3823  0.5321  0.6923
 1441SOL    MW4 5532   2.261   5.763   2.889 -0.0406 -0.1541 -0.1738
 1442SOL     OW 5533   2.293   5.357   0.832  0.8041  0.1113  0.0686
 1442SOL    HW2 5534   2.220   5.419   0.836 -1.2479 -2.1380  0.4100
 1442SOL    HW3 5535   2.311   5.346   0.739  0.2497  0.2245 -0.0545
 1442SOL    MW4 5536   2.285   5.364   0.820  0.4602 -0.1705  0.0974
 1443SOL     OW 5537   4.093   2.202   2.411 -0.0699 -0.6335 -0.3392
 1443SOL    HW2 5538   4.186   2.220   2.404 -0.0903 -0.8004 -1.1735
 1443SOL    HW3 5539   4.083   2.160   2.497  0.7975 -1.6718 -0.7290
 1443SOL    MW4 5540   4.104   2.199   2.422  0.0419 -0.7925 -0.5007
 1444SOL     OW 5541   5.348   4.790   2.003 -0.4509 -0.6447 -0.0629
 1444SOL    HW2 5542   5.396   4.708   2.013 -0.7002 -0.8194 -0.3043
 1444SOL    HW3 5543   5.258   4.764   1.984 -0.8096 -0.3258  1.1041
 1444SOL    MW4 5544   5.343   4.776   2.002 -0.5311 -0.6256  0.0592
 1445SOL     OW 5545   0.755   4.370   5.415  0.3637 -0.2986  0.7944
 1445SOL    HW2 5546   0.834   4.396   5.464  0.4571  1.6152 -0.2496
 1445SOL    HW3 5547   0.694   4.339   5.482  0.2330  2.8331  2.2956
 1445SOL    MW4 5548   0.758   4.369   5.430  0.3588  0.3671  0.8547
 1446SOL     OW 5549   1.995   6.381   1.472 -0.5399  0.0346 -0.5460
 1446SOL    HW2 5550   1.990   6.345   1.561  0.7767  2.5832  0.6908
 1446SOL    HW3 5551   2.069   6.337   1.432 -1.4087 -1.4599 -0.5941
 1446SOL    MW4 5552   2.004   6.371   1.479 -0.4808  0.1737 -0.3892
 1447SOL     OW 5553   4.492   2.717   6.000  0.2125 -0.1658 -0.0416
 1447SOL    HW2 5554   4.560   2.678   6.056  0.8471 -0.3025 -0.8837
 1447SOL    HW3 5555   4.447   2.779   6.057  0.5194 -0.6618  0.7572
 1447SOL    MW4 5556   4.495   2.720   6.015  0.3367 -0.2493 -0.0473
 1448SOL     OW 5557   6.137   3.314   5.105  0.9748  0.0896 -0.7372
 1448SOL    HW2 5558   6.048   3.332   5.077  0.6548  0.5460  0.4928
 1448SOL    HW3 5559   6.187   3.303   5.024 -0.1891 -0.1430 -1.4324
 1448SOL    MW4 5560   6.132   3.315   5.091  0.7791  0.1192 -0.6667
 1449SOL     OW 5561   1.432   3.844   0.983  0.8220 -0.2525  0.5561
 1449SOL    HW2 5562   1.508   3.901   0.969  0.1615  0.3905 -0.5135
 1449SOL    HW3 5563   1.357   3.903   0.981  0.1447 -1.1185 -0.3072
 1449SOL    MW4 5564   1.432   3.859   0.981  0.6455 -0.2819  0.3011
 1450SOL     OW 5565   4.919   2.925   1.325  0.6227  0.1077 -0.1194
 1450SOL    HW2 5566   4.892   2.958   1.410 -0.2229 -0.2096 -0.2567
 1450SOL    HW3 5567   5.008   2.959   1.313  1.4591 -1.3163  1.6662
 1450SOL    MW4 5568   4.928   2.934   1.334  0.6215 -0.1221  0.0981
 1451SOL     OW 5569   3.177   5.276   3.962 -0.2678  0.1595 -0.0841
 1451SOL    HW2 5570   3.176   5.366   3.994 -0.4761  0.9816 -2.2093
 1451SOL    HW3 5571   3.095   5.238   3.993 -0.4368  0.8688  0.3636
 1451SOL    MW4 5572   3.166   5.283   3.970 -0.3176  0.3615 -0.3054
 1452SOL     OW 5573   1.928   3.609   5.460 -0.2073  0.8363 -0.1677
 1452SOL    HW2 5574   1.862   3.606   5.530 -0.1729  2.1806 -0.0630
 1452SOL    HW3 5575   1.934   3.701   5.437 -0.2766  0.4070 -2.0276
 1452SOL    MW4 5576   1.920   3.621   5.466 -0.2119  0.9570 -0.3993
 1453SOL     OW 5577   5.984   2.545   3.841  0.0182  0.5735  0.4988
 1453SOL    HW2 5578   5.926   2.605   3.796 -1.2655 -0.9903 -0.0432
 1453SOL    HW3 5579   6.029   2.497   3.771 -0.8959 -0.8432  0.8266
 1453SOL    MW4 5580   5.983   2.546   3.826 -0.2718  0.1802  0.4705
 1454SOL     OW 5581   5.049   4.977   5.822 -0.0528  0.2681  0.3017
 1454SOL    HW2 5582   5.134   4.933   5.823  0.0912  0.5138  1.6699
 1454SOL    HW3 5583   4.988   4.913   5.857 -0.1434  0.5672  0.7134
 1454SOL    MW4 5584   5.052   4.963   5.827 -0.0458  0.3400  0.5366
 1455SOL     OW 5585   4.465   4.747   2.394  0.3201  0.5200 -0.1457
 1455SOL    HW2 5586   4.489   4.824   2.341  2.1664  1.7820  2.3110
 1455SOL    HW3 5587   4.538   4.687   2.381  0.6922  0.7616  0.7803
 1455SOL    MW4 5588   4.478   4.749   2.385  0.6128  0.7183  0.3006
 1456SOL     OW 5589   6.221   0.356   0.066  0.6635  0.7750 -0.3088
 1456SOL    HW2 5590   6.255   0.440   0.098  0.2048  1.0124 -0.4328
 1456SOL    HW3 5591   6.266   0.342  -0.017  0.4965  1.0677 -0.4517
 1456SOL    MW4 5592   6.231   0.365   0.059  0.5809  0.8449 -0.3440
 1457SOL     OW 5593   0.772   0.512   5.379  0.2109  0.1997 -1.1891
 1457SOL    HW2 5594   0.812   0.487   5.296 -0.2214  1.3784 -1.7753
 1457SOL    HW3 5595   0.837   0.568   5.421  1.4609 -2.3330  0.4285
 1457SOL    MW4 5596   0.785   0.516   5.373  0.3188  0.0211 -1.0530
 1458SOL     OW 5597   0.601   6.164   2.835  0.2664 -0.2103 -0.2896
 1458SOL    HW2 5598   0.575   6.087   2.887  1.1162 -0.8446 -0.7906
 1458SOL    HW3 5599   0.689   6.144   2.805  0.5113  0.9933 -0.3919
 1458SOL    MW4 5600   0.609   6.151   2.838  0.4108 -0.1352 -0.3692
 1459SOL     OW 5601   0.730   2.151   0.702  0.2444 -0.0598  0.5733
 1459SOL    HW2 5602   0.766   2.070   0.664  1.6968 -0.2055  2.0934
 1459SOL    HW3 5603   0.805   2.210   0.706  0.1343  0.0134  2.9038
 1459SOL    MW4 5604   0.745   2.148   0.698  0.4215 -0.0694  1.0813
 1460SOL     OW 5605   0.761   5.513   4.948  0.0268  0.4891 -0.5380
 1460SOL    HW2 5606   0.670   5.494   4.969 -0.6608  1.8374 -2.0116
 1460SOL    HW3 5607   0.756   5.589   4.889  1.8299 -1.5201 -3.5568
 1460SOL    MW4 5608   0.749   5.521   4.943  0.1740  0.4019 -1.1307
 1461SOL     OW 5609   0.452   3.775   3.047  0.0336  0.2912 -0.0275
 1461SOL    HW2 5610   0.453   3.679   3.044  2.8823  0.2403 -0.2657
 1461SOL    HW3 5611   0.362   3.799   3.025 -0.9422 -2.3229  0.7225
 1461SOL    MW4 5612   0.440   3.765   3.044  0.2807 -0.0604  0.0400
 1462SOL     OW 5613   1.369   2.260   1.008  0.0929 -0.3019  0.5227
 1462SOL    HW2 5614   1.294   2.319   0.998  1.7382  2.0732  1.2970
 1462SOL    HW3 5615   1.331   2.178   1.040 -2.4745 -0.2682 -2.0099
 1462SOL    MW4 5616   1.354   2.257   1.011 -0.0287  0.0159  0.2907
 1463SOL     OW 5617   3.735   5.967   2.518 -0.5930 -0.4442 -0.4667
 1463SOL    HW2 5618   3.828   5.958   2.542 -0.4900  1.2596 -0.1071
 1463SOL    HW3 5619   3.707   5.878   2.498  0.8279 -1.1596  0.5305
 1463SOL    MW4 5620   3.744   5.954   2.519 -0.3919 -0.3138 -0.2877
 1464SOL     OW 5621   2.628   2.001   1.233 -0.2836  0.0321 -0.9175
 1464SOL    HW2 5622   2.577   2.080   1.218 -0.2453  0.1307 -0.5350
 1464SOL    HW3 5623   2.587   1.935   1.177  0.4597  0.6270 -2.2353
 1464SOL    MW4 5624   2.616   2.003   1.223 -0.1804  0.1236 -1.0409
 1465SOL     OW 5625   3.591   3.831   5.817  0.0910  0.2059  0.1347
 1465SOL    HW2 5626   3.529   3.771   5.858  0.6140  0.8446  1.9812
 1465SOL    HW3 5627   3.655   3.850   5.886  2.1107 -0.0815 -1.5478
 1465SOL    MW4 5628   3.591   3.826   5.832  0.4265  0.2522  0.1563
 1466SOL     OW 5629   2.052   0.963   3.417  0.4612 -0.3261  0.1773
 1466SOL    HW2 5630   2.003   1.043   3.396  1.2343  0.0236 -0.3285
 1466SOL    HW3 5631   2.053   0.913   3.336  0.6869 -0.4640  0.2644
 1466SOL    MW4 5632   2.046   0.967   3.404  0.5930 -0.2981  0.1221
 1467SOL     OW 5633   4.039   2.941   3.757 -0.3593 -0.1830  0.2385
 1467SOL    HW2 5634   4.130   2.947   3.788 -0.4022  0.5981  0.2336
 1467SOL    HW3 5635   3.992   3.006   3.810 -0.7049  0.1862 -0.5091
 1467SOL    MW4 5636   4.045   2.950   3.768 -0.4105 -0.0312  0.1392
 1468SOL     OW 5637   2.861   6.235   0.416  0.1743 -0.4043 -0.0078
 1468SOL    HW2 5638   2.812   6.279   0.347 -0.2687  0.8467  1.0389
 1468SOL    HW3 5639   2.892   6.154   0.377 -2.3950 -1.0793 -0.8540
 1468SOL    MW4 5640   2.858   6.230   0.402 -0.2231 -0.3283  0.0187
 1469SOL     OW 5641   2.452   6.379   1.260  0.0614 -0.3804  0.3312
 1469SOL    HW2 5642   2.455   6.395   1.166  2.6536  3.8358  0.8735
 1469SOL    HW3 5643   2.526   6.319   1.275  0.3730 -0.1468 -0.2102
 1469SOL    MW4 5644   2.462   6.373   1.249  0.4445  0.2067  0.3313
 1470SOL     OW 5645   4.900   4.801   1.757  0.3765  0.3752  0.2749
 1470SOL    HW2 5646   4.964   4.777   1.690  1.9167  2.5526  0.8657
 1470SOL    HW3 5647   4.834   4.851   1.710  0.6098  0.5387  0.1165
 1470SOL    MW4 5648   4.900   4.804   1.742  0.6105  0.6840  0.3320
 1471SOL     OW 5649   0.129   4.371   0.298 -0.2332 -0.6505  0.8070
 1471SOL    HW2 5650   0.162   4.334   0.216 -0.5713 -0.3024  0.5113
 1471SOL    HW3 5651   0.153   4.306   0.365 -2.0247 -2.0965  0.1229
 1471SOL    MW4 5652   0.137   4.357   0.296 -0.5142 -0.7953  0.6778
 1472SOL     OW 5653   0.814   6.207   5.436 -0.1766  0.2613  0.1679
 1472SOL    HW2 5654   0.840   6.115   5.440 -0.6376  0.0305 -1.4283
 1472SOL    HW3 5655   0.720   6.204   5.419 -0.1041  1.0249 -0.3839
 1472SOL    MW4 5656   0.805   6.194   5.435 -0.2279  0.3316 -0.1155
 1473SOL     OW 5657   1.557   2.219   0.245 -0.6457 -0.0952  0.3973
 1473SOL    HW2 5658   1.580   2.301   0.200 -2.9158 -1.0976 -3.0122
 1473SOL    HW3 5659   1.485   2.243   0.303 -0.1292  0.6205  0.7582
 1473SOL    MW4 5660   1.550   2.233   0.247 -0.8771 -0.1331 -0.0050
 1474SOL     OW 5661   0.773   1.115   4.025 -0.6194  0.7628 -0.3225
 1474SOL    HW2 5662   0.832   1.041   4.035 -0.7982  0.7459  0.6803
 1474SOL    HW3 5663   0.831   1.188   4.001 -0.0461  0.9533  1.5209
 1474SOL    MW4 5664   0.789   1.115   4.023 -0.5674  0.7857  0.0530
 1475SOL     OW 5665   1.951   2.812   6.354  0.3086  0.0584  0.2671
 1475SOL    HW2 5666   2.028   2.755   6.348  0.7141  0.6007  0.2039
 1475SOL    HW3 5667   1.906   2.800   6.270  0.7460  0.3188 -0.0104
 1475SOL    MW4 5668   1.955   2.803   6.342  0.4198  0.1643  0.2222
 1476SOL     OW 5669   2.444   3.450   5.135 -0.5532 -0.4015 -0.1457
 1476SOL    HW2 5670   2.437   3.395   5.057  1.7823 -1.8163  0.5306
 1476SOL    HW3 5671   2.474   3.390   5.203 -2.6534  0.7522  1.9400
 1476SOL    MW4 5672   2.447   3.435   5.134 -0.5222 -0.4360  0.2187
 1477SOL     OW 5673   3.445   0.909   1.813 -0.1029  0.3690 -0.2125
 1477SOL    HW2 5674   3.363   0.878   1.852  0.6971  1.2704  2.4030
 1477SOL    HW3 5675   3.450   1.001   1.839  2.0958  0.1270  0.3878
 1477SOL    MW4 5676   3.435   0.917   1.822  0.2927  0.4560  0.2118
 1478SOL     OW 5677   1.627   2.174   0.541  0.3567  0.5250  0.0975
 1478SOL    HW2 5678   1.604   2.263   0.566  2.7680  1.2563 -0.0136
 1478SOL    HW3 5679   1.569   2.119   0.594 -0.8436  2.1316  0.5390
 1478SOL    MW4 5680   1.616   2.178   0.551  0.5165  0.8335  0.1411
 1479SOL     OW 5681   5.037   4.388   0.416  0.4323  0.6221  0.3722
 1479SOL    HW2 5682   4.965   4.386   0.352  0.6120 -0.4591  0.1815
 1479SOL    HW3 5683   5.040   4.479   0.446  0.0630  1.0563 -0.8472
 1479SOL    MW4 5684   5.028   4.400   0.411  0.4073  0.5368  0.1862
 1480SOL     OW 5685   6.193   3.945   0.736 -0.3319  0.1640  0.0391
 1480SOL    HW2 5686   6.230   4.033   0.740 -1.1015  0.5775 -1.3619
 1480SOL    HW3 5687   6.146   3.942   0.652  0.2455 -1.8057 -0.2556
 1480SOL    MW4 5688   6.191   3.957   0.726 -0.3573 -0.0413 -0.1846
 1481SOL     OW 5689   2.311   2.712   2.936  0.1853  0.5260  0.0301
 1481SOL    HW2 5690   2.228   2.706   2.983 -0.2816 -1.0398 -0.9019
 1481SOL    HW3 5691   2.331   2.621   2.913  1.5538  1.0178 -0.8046
 1481SOL    MW4 5692   2.303   2.699   2.939  0.3043  0.3843 -0.2030
 1482SOL     OW 5693   3.093   2.697   2.402 -0.7501 -0.2101  0.1215
 1482SOL    HW2 5694   3.020   2.690   2.463 -1.0751  0.4589 -0.1704
 1482SOL    HW3 5695   3.052   2.704   2.316 -0.3034 -1.0115 -0.1651
 1482SOL    MW4 5696   3.078   2.697   2.398 -0.7341 -0.2276  0.0452
 1483SOL     OW 5697   2.632   6.157   5.544 -0.0603 -0.1858  0.2821
 1483SOL    HW2 5698   2.694   6.142   5.473  0.5726 -0.0198  0.7960
 1483SOL    HW3 5699   2.590   6.240   5.522 -0.0897 -0.2918 -0.0599
 1483SOL    MW4 5700   2.634   6.166   5.532  0.0193 -0.1779  0.3048
 1484SOL     OW 5701   0.183   2.641   4.269 -0.1756  0.1052 -0.2156
 1484SOL    HW2 5702   0.096   2.605   4.282  0.6693 -1.5777  1.1322
 1484SOL    HW3 5703   0.185   2.721   4.323 -0.8116  0.0494 -0.1096
 1484SOL    MW4 5704   0.172   2.647   4.278 -0.1480 -0.1242 -0.0238
 1485SOL     OW 5705   1.461   3.130   2.931  0.0120 -0.2483 -0.2934
 1485SOL    HW2 5706   1.488   3.198   2.869  1.0058  0.2046  0.5909
 1485SOL    HW3 5707   1.388   3.085   2.888  0.7540 -0.0442 -1.8317
 1485SOL    MW4 5708   1.455   3.133   2.917  0.2410 -0.1616 -0.3797
 1486SOL     OW 5709   0.243   5.579   3.397 -0.0606  0.1936  0.0974
 1486SOL    HW2 5710   0.204   5.630   3.326  1.0092  1.4080  0.3466
 1486SOL    HW3 5711   0.171   5.567   3.460 -0.7383 -0.0029 -0.6999
 1486SOL    MW4 5712   0.228   5.584   3.396 -0.0088  0.3279  0.0251
 1487SOL     OW 5713   4.699   1.214   1.407 -0.0083 -0.5659 -0.2394
 1487SOL    HW2 5714   4.636   1.148   1.379 -0.5958 -0.6183  1.1296
 1487SOL    HW3 5715   4.719   1.192   1.498  1.7804 -0.3774 -0.5411
 1487SOL    MW4 5716   4.694   1.203   1.415  0.1502 -0.5479 -0.0986
 1488SOL     OW 5717   1.862   4.661   1.077  0.1641 -0.3907  0.9741
 1488SOL    HW2 5718   1.952   4.679   1.106 -0.1579  0.6217  1.4063
 1488SOL    HW3 5719   1.836   4.741   1.030 -1.0779  0.0440  2.3139
 1488SOL    MW4 5720   1.871   4.674   1.075 -0.0422 -0.1998  1.2079
 1489SOL     OW 5721   4.281   2.726   2.344 -0.2496 -0.6535 -0.5038
 1489SOL    HW2 5722   4.345   2.654   2.344  0.0882 -0.3637  0.1472
 1489SOL    HW3 5723   4.212   2.697   2.403 -0.0826 -0.4288 -0.1902
 1489SOL    MW4 5724   4.281   2.713   2.352 -0.1830 -0.5857 -0.3765
 1490SOL     OW 5725   3.001   2.615   5.905  0.4302 -0.2854 -0.4203
 1490SOL    HW2 5726   3.057   2.661   5.967 -0.9387  0.1766  0.5391
 1490SOL    HW3 5727   3.003   2.524   5.933  2.2523 -0.6690 -1.6321
 1490SOL    MW4 5728   3.008   2.609   5.916  0.4900 -0.2750 -0.4536
 1491SOL     OW 5729   5.647   0.974   0.150  0.6833 -0.2357  0.3043
 1491SOL    HW2 5730   5.583   1.020   0.204 -1.6660  0.2232 -2.5715
 1491SOL    HW3 5731   5.599   0.900   0.114  1.7145  0.0914 -1.9214
 1491SOL    MW4 5732   5.632   0.970   0.152  0.5094 -0.1320 -0.3688
 1492SOL     OW 5733   5.501   5.134   2.316  0.8165 -0.0621  0.0529
 1492SOL    HW2 5734   5.536   5.095   2.396  0.6909  0.9140  0.5944
 1492SOL    HW3 5735   5.430   5.075   2.290  0.9017 -0.4228  0.6160
 1492SOL    MW4 5736   5.496   5.121   2.323  0.8112  0.0191  0.1987
 1493SOL     OW 5737   5.781   0.272   2.939 -0.2269 -0.0021  0.1653
 1493SOL    HW2 5738   5.725   0.332   2.987  2.1627  2.2204  0.3851
 1493SOL    HW3 5739   5.751   0.277   2.848  0.2234  1.9735  0.0917
 1493SOL    MW4 5740   5.769   0.281   2.933  0.1478  0.5518  0.1846
 1494SOL     OW 5741   2.941   3.831   0.576 -0.1266 -0.2310  0.1240
 1494SOL    HW2 5742   2.887   3.767   0.622  0.8398 -0.9621  0.2704
 1494SOL    HW3 5743   2.891   3.913   0.580 -0.2885 -0.3892  2.0364
 1494SOL    MW4 5744   2.927   3.834   0.583 -0.0205 -0.3483  0.3956
 1495SOL     OW 5745   6.354   6.097   2.758 -0.4141  0.2680 -0.1634
 1495SOL    HW2 5746   6.282   6.138   2.711 -0.0840  2.6593  1.2115
 1495SOL    HW3 5747   6.314   6.061   2.837 -0.2507  0.7645  0.1493
 1495SOL    MW4 5748   6.339   6.098   2.762 -0.3490  0.6490  0.0593
 1496SOL     OW 5749   4.401   1.695   4.852 -0.2199  0.1210 -0.0683
 1496SOL    HW2 5750   4.397   1.787   4.826 -1.5105 -0.1934 -1.0624
 1496SOL    HW3 5751   4.374   1.695   4.944 -1.4721  0.6057 -0.4223
 1496SOL    MW4 5752   4.397   1.707   4.861 -0.5554  0.1434 -0.2461
 1497SOL     OW 5753   4.581   1.696   3.430 -0.0452  0.1687  0.3223
 1497SOL    HW2 5754   4.641   1.630   3.395  0.5051  1.0635 -0.5190
 1497SOL    HW3 5755   4.498   1.677   3.388 -0.1917 -0.6743  0.9732
 1497SOL    MW4 5756   4.578   1.685   3.420  0.0081  0.1755  0.2972
 1498SOL     OW 5757   3.179   0.665   0.643 -0.3069  0.5756  0.4870
 1498SOL    HW2 5758   3.122   0.622   0.706 -0.9337  0.1824 -0.3423
 1498SOL    HW3 5759   3.156   0.628   0.559  2.6685 -1.2567  0.3229
 1498SOL    MW4 5760   3.169   0.655   0.641  0.0030  0.2820  0.3560
 1499SOL     OW 5761   1.591   5.555   5.485  0.2294  0.2024 -0.0046
 1499SOL    HW2 5762   1.656   5.531   5.419 -1.2216 -3.3833 -0.3552
 1499SOL    HW3 5763   1.512   5.575   5.435 -0.7110 -1.9650  0.4755
 1499SOL    MW4 5764   1.589   5.554   5.470 -0.0861 -0.5567  0.0125
 1500SOL     OW 5765   2.342   3.553   1.034  0.1841 -0.4734  0.2048
 1500SOL    HW2 5766   2.325   3.515   1.120  0.4342  1.0427  0.9699
 1500SOL    HW3 5767   2.305   3.491   0.971 -0.9956 -1.0742  1.4590
 1500SOL    MW4 5768   2.335   3.540   1.037  0.0615 -0.3526  0.4712
 1501SOL     OW 5769   2.891   2.910   4.395  0.3817 -0.2918 -0.2831
 1501SOL    HW2 5770   2.898   2.956   4.311 -0.5712  1.3109  0.4625
 1501SOL    HW3 5771   2.906   2.818   4.373 -0.9475 -0.0786 -2.4161
 1501SOL    MW4 5772   2.894   2.904   4.381  0.0806 -0.0522 -0.4662
 1502SOL     OW 5773   0.198   2.931   4.349 -0.0159 -0.2869  0.6176
 1502SOL    HW2 5774   0.258   2.934   4.423  1.1084  1.7953 -0.3026
 1502SOL    HW3 5775   0.143   3.009   4.358  0.8200  0.5665 -1.2405
 1502SOL    MW4 5776   0.198   2.941   4.360  0.2427  0.1004  0.2510
 1503SOL     OW 5777   5.966   0.972   0.462  0.3483 -0.3377 -0.4781
 1503SOL    HW2 5778   5.898   0.954   0.527  0.8438  1.6064  0.6640
 1503SOL    HW3 5779   6.046   0.937   0.502  0.8413  1.7904  0.5216
 1503SOL    MW4 5780   5.968   0.965   0.476  0.4787  0.1996 -0.1956
 1504SOL     OW 5781   0.361   3.686   0.955  0.3139  0.2672  0.1122
 1504SOL    HW2 5782   0.448   3.704   0.989 -0.7239  1.7536  2.1584
 1504SOL    HW3 5783   0.337   3.766   0.908 -1.0758  1.1419  2.1704
 1504SOL    MW4 5784   0.369   3.699   0.953 -0.0064  0.5787  0.6538
 1505SOL     OW 5785   6.005   6.274   1.962  0.0717 -0.6099 -0.2831
 1505SOL    HW2 5786   5.939   6.272   2.031  1.0721  2.0136  0.8750
 1505SOL    HW3 5787   6.073   6.214   1.993  0.1268 -0.1034  0.5997
 1505SOL    MW4 5788   6.005   6.266   1.975  0.2110 -0.1969 -0.0138
 1506SOL     OW 5789   1.677   2.566   4.310 -0.5000  0.7952 -0.0388
 1506SOL    HW2 5790   1.697   2.472   4.302 -0.2711  0.8909 -0.5874
 1506SOL    HW3 5791   1.616   2.570   4.384 -1.0456  0.1329 -0.4282
 1506SOL    MW4 5792   1.671   2.554   4.319 -0.5418  0.7205 -0.1626
 1507SOL     OW 5793   0.948   3.247   1.111 -0.0298  0.2687  0.0275
 1507SOL    HW2 5794   1.023   3.207   1.156 -0.4199  1.2764  1.6596
 1507SOL    HW3 5795   0.871   3.209   1.153 -0.4017  1.6993  0.7122
 1507SOL    MW4 5796   0.948   3.237   1.123 -0.1303  0.5904  0.3331
 1508SOL     OW 5797   4.026   5.158   6.063 -0.2232 -0.0989  0.5389
 1508SOL    HW2 5798   3.953   5.142   6.003  1.2482 -0.0527 -1.3472
 1508SOL    HW3 5799   4.048   5.071   6.098 -0.1749 -0.3515 -0.1159
 1508SOL    MW4 5800   4.019   5.144   6.060 -0.0227 -0.1262  0.2037
 1509SOL     OW 5801   5.176   0.704   1.936 -0.0823  0.5519  0.5775
 1509SOL    HW2 5802   5.137   0.749   2.011 -0.5616  0.1218  0.5938
 1509SOL    HW3 5803   5.157   0.762   1.862 -2.8847 -0.6925  0.1653
 1509SOL    MW4 5804   5.168   0.718   1.936 -0.5153  0.3309  0.5252
 1510SOL     OW 5805   2.928   2.264   1.425 -0.3285 -0.1922  0.0956
 1510SOL    HW2 5806   2.982   2.235   1.351  0.2364 -0.8615  0.7530
 1510SOL    HW3 5807   2.972   2.343   1.456  0.0352 -0.4854  0.3476
 1510SOL    MW4 5808   2.941   2.271   1.419 -0.2060 -0.3192  0.2156
 1511SOL     OW 5809   4.183   5.201   0.574  0.8093  0.3316 -0.0786
 1511SOL    HW2 5810   4.145   5.121   0.536 -0.4653  1.0571 -0.3830
 1511SOL    HW3 5811   4.263   5.215   0.524 -0.6145  1.0287 -2.2935
 1511SOL    MW4 5812   4.188   5.192   0.562  0.4533  0.5193 -0.4110
 1512SOL     OW 5813   1.943   2.737   5.262  0.2690  1.1780 -0.8358
 1512SOL    HW2 5814   1.877   2.717   5.328  1.6965  0.7491  0.5248
 1512SOL    HW3 5815   1.893   2.753   5.182 -1.4456  0.5887  0.0675
 1512SOL    MW4 5816   1.927   2.737   5.260  0.2311  1.0436 -0.5371
 1513SOL     OW 5817   5.906   6.220   3.813 -0.0613 -0.1314 -0.6067
 1513SOL    HW2 5818   5.999   6.196   3.821 -0.1870 -0.4819 -0.1271
 1513SOL    HW3 5819   5.888   6.211   3.719  0.8487  1.7384 -1.0063
 1513SOL    MW4 5820   5.916   6.215   3.802  0.0422  0.0691 -0.5961
 1514SOL     OW 5821   4.769   0.125   1.942  0.0691  0.2359 -0.1782
 1514SOL    HW2 5822   4.720   0.174   1.876 -0.6092  0.2331  0.3095
 1514SOL    HW3 5823   4.703   0.072   1.987  0.1985  1.5245  1.6507
 1514SOL    MW4 5824   4.754   0.124   1.939 -0.0033  0.4055  0.1275
 1515SOL     OW 5825   3.032   5.694   2.203  0.4130  0.7479  0.1370
 1515SOL    HW2 5826   3.077   5.616   2.238 -0.5032 -0.3069 -0.9326
 1515SOL    HW3 5827   3.055   5.764   2.264  1.8939 -0.1803  0.7169
 1515SOL    MW4 5828   3.041   5.693   2.216  0.4875  0.4863  0.0724
 1516SOL     OW 5829   5.810   3.820   2.978 -0.0288  0.2990  0.1644
 1516SOL    HW2 5830   5.889   3.807   3.031  0.9804 -0.3346 -1.4079
 1516SOL    HW3 5831   5.844   3.832   2.889 -1.6147  2.0802 -0.2499
 1516SOL    MW4 5832   5.825   3.820   2.973 -0.1049  0.4504 -0.0977
 1517SOL     OW 5833   3.174   1.354   4.160  0.3375 -0.1690  0.7817
 1517SOL    HW2 5834   3.179   1.395   4.247  2.0854  0.0680  0.6240
 1517SOL    HW3 5835   3.219   1.417   4.103  1.3905 -1.4230  0.1870
 1517SOL    MW4 5836   3.181   1.368   4.164  0.7070 -0.3032  0.6825
 1518SOL     OW 5837   4.175   5.727   1.257 -0.5701  0.2788 -0.0437
 1518SOL    HW2 5838   4.137   5.813   1.235 -0.1817  0.6685  0.7667
 1518SOL    HW3 5839   4.195   5.688   1.172 -1.6032  0.5987 -0.4519
 1518SOL    MW4 5840   4.172   5.733   1.243 -0.6552  0.3724  0.0094
 1519SOL     OW 5841   3.117   3.087   4.448 -0.0731  1.1696  0.2018
 1519SOL    HW2 5842   3.040   3.030   4.441  0.2235  0.8439 -0.6058
 1519SOL    HW3 5843   3.191   3.026   4.456 -0.0862  1.3977  5.1791
 1519SOL    MW4 5844   3.117   3.071   4.448 -0.0357  1.1567  0.7519
 1520SOL     OW 5845   3.371   4.707   4.401  0.1162 -0.2767 -0.3865
 1520SOL    HW2 5846   3.361   4.773   4.469 -0.1957 -0.2387 -0.4651
 1520SOL    HW3 5847   3.398   4.756   4.323  2.9082 -0.5937  0.2872
 1520SOL    MW4 5848   3.373   4.722   4.399  0.4434 -0.3135 -0.3080
 1521SOL     OW 5849   6.302   5.355   6.287 -0.1335  0.2378  0.0823
 1521SOL    HW2 5850   6.217   5.331   6.251 -0.9551  2.5996  0.2740
 1521SOL    HW3 5851   6.330   5.431   6.236  0.5563  1.1781  1.7706
 1521SOL    MW4 5852   6.295   5.362   6.276 -0.1509  0.6734  0.3304
 1522SOL     OW 5853   6.318   4.730   0.703 -0.6777  0.4144 -0.6313
 1522SOL    HW2 5854   6.286   4.760   0.618  0.6634 -0.4245 -1.4692
 1522SOL    HW3 5855   6.409   4.760   0.707 -0.4146 -0.4090  0.0662
 1522SOL    MW4 5856   6.326   4.738   0.692 -0.4660  0.1950 -0.6498
 1523SOL     OW 5857   5.059   1.531   0.586 -0.1558 -0.3126  0.2984
 1523SOL    HW2 5858   4.988   1.526   0.650 -1.0668 -1.0778 -0.7419
 1523SOL    HW3 5859   5.022   1.496   0.506  0.6154  1.5875 -0.9751
 1523SOL    MW4 5860   5.045   1.526   0.584 -0.1742 -0.1628 -0.0069
 1524SOL     OW 5861   0.506   1.748   0.016  0.5676  0.1981  0.1295
 1524SOL    HW2 5862   0.512   1.835  -0.024  1.3206  0.5338  0.9198
 1524SOL    HW3 5863   0.457   1.695  -0.047  1.4669  0.7673 -1.0836
 1524SOL    MW4 5864   0.500   1.753   0.003  0.7856  0.3175  0.0737
 1525SOL     OW 5865   5.922   4.233   6.218  0.7874  0.4169 -0.7774
 1525SOL    HW2 5866   5.966   4.312   6.248  1.1824  0.2717 -0.9721
 1525SOL    HW3 5867   5.899   4.187   6.299  0.7812  0.6073 -0.6698
 1525SOL    MW4 5868   5.925   4.237   6.233  0.8387  0.4229 -0.7889
 1526SOL     OW 5869   2.522   1.351   2.421  0.0118 -0.2174 -0.1393
 1526SOL    HW2 5870   2.428   1.340   2.410  0.2426 -0.8538 -1.6794
 1526SOL    HW3 5871   2.560   1.274   2.379  1.2205 -0.0899  0.6764
 1526SOL    MW4 5872   2.515   1.340   2.414  0.2017 -0.2845 -0.2349
 1527SOL     OW 5873   5.381   0.644   4.864 -0.1750 -0.3548 -0.3448
 1527SOL    HW2 5874   5.460   0.608   4.823 -0.1198 -1.4954  0.6894
 1527SOL    HW3 5875   5.384   0.611   4.953  0.4772  3.2433  1.1317
 1527SOL    MW4 5876   5.392   0.635   4.870 -0.0817 -0.0306 -0.0136
 1528SOL     OW 5877   6.346   5.708   5.696 -0.0933 -0.5827  0.1924
 1528SOL    HW2 5878   6.364   5.798   5.723 -2.0303 -0.4153  1.0421
 1528SOL    HW3 5879   6.426   5.681   5.650 -0.0688  2.0925 -1.5365
 1528SOL    MW4 5880   6.359   5.716   5.694 -0.3456 -0.2076  0.0764
 1529SOL     OW 5881   5.765   0.793   5.100 -0.2696 -0.2637 -0.2594
 1529SOL    HW2 5882   5.723   0.722   5.150  0.6332 -0.5433  0.1232
 1529SOL    HW3 5883   5.802   0.749   5.023 -1.0629  0.0573 -0.8353
 1529SOL    MW4 5884   5.764   0.778   5.097 -0.2551 -0.2583 -0.2849
 1530SOL     OW 5885   5.018   4.627   4.558 -0.6631  0.2696  0.1995
 1530SOL    HW2 5886   5.072   4.686   4.611 -1.4794  0.0246  1.3472
 1530SOL    HW3 5887   5.075   4.600   4.486  0.1983  1.2948  0.4768
 1530SOL    MW4 5888   5.033   4.631   4.556 -0.6571  0.3726  0.3875
 1531SOL     OW 5889   0.546   0.569   6.285  0.0105 -0.4900  0.1943
 1531SOL    HW2 5890   0.612   0.519   6.237 -0.0297  0.3513 -0.7703
 1531SOL    HW3 5891   0.587   0.654   6.302 -0.6551 -0.1010 -0.0596
 1531SOL    MW4 5892   0.560   0.574   6.281 -0.0826 -0.3277  0.0335
 1532SOL     OW 5893   0.271   4.831   3.509 -0.0099  0.6490  0.4219
 1532SOL    HW2 5894   0.256   4.917   3.549 -1.2789  0.2698  0.7973
 1532SOL    HW3 5895   0.194   4.816   3.454  0.0344 -0.3905  0.6205
 1532SOL    MW4 5896   0.259   4.841   3.507 -0.1715  0.4618  0.4976
 1533SOL     OW 5897   2.252   6.246   3.448 -0.1812 -0.8501  0.0451
 1533SOL    HW2 5898   2.181   6.211   3.394  0.7332 -1.5937 -0.7212
 1533SOL    HW3 5899   2.236   6.340   3.452 -2.1096 -1.1674  1.2542
 1533SOL    MW4 5900   2.241   6.254   3.442 -0.3149 -0.9901  0.1035
 1534SOL     OW 5901   0.387   5.782   3.524 -0.6533 -0.5144 -0.6130
 1534SOL    HW2 5902   0.333   5.715   3.481 -0.6876 -0.3801 -0.7818
 1534SOL    HW3 5903   0.398   5.750   3.614 -1.1570 -0.4605 -0.5304
 1534SOL    MW4 5904   0.381   5.769   3.530 -0.7243 -0.4896 -0.6244
 1535SOL     OW 5905   2.313   6.125   3.705 -0.3497  0.3204 -0.5145
 1535SOL    HW2 5906   2.284   6.167   3.624 -1.7879 -2.9344 -1.8601
 1535SOL    HW3 5907   2.260   6.046   3.711  0.1998  0.0595  3.3064
 1535SOL    MW4 5908   2.302   6.120   3.695 -0.4669 -0.1434 -0.1879
 1536SOL     OW 5909   6.138   4.878   0.854  0.0897 -0.5357 -0.5363
 1536SOL    HW2 5910   6.135   4.856   0.947  0.8401 -0.6198 -0.5259
 1536SOL    HW3 5911   6.219   4.838   0.822  1.0963  1.4836 -0.6873
 1536SOL    MW4 5912   6.148   4.870   0.862  0.3215 -0.2804 -0.5548
 1537SOL     OW 5913   2.204   1.908   4.482 -0.1552 -0.2089  0.0166
 1537SOL    HW2 5914   2.167   1.933   4.567  0.4061 -1.2422  0.5769
 1537SOL    HW3 5915   2.289   1.870   4.503 -0.1326 -0.7330 -0.9830
 1537SOL    MW4 5916   2.210   1.906   4.496 -0.0782 -0.4144 -0.0414
 1538SOL     OW 5917   3.648   1.350   3.000 -0.4908  0.1892  0.2839
 1538SOL    HW2 5918   3.588   1.317   2.932 -0.6831 -0.3761  0.7194
 1538SOL    HW3 5919   3.716   1.282   3.006 -1.2375 -0.4761  1.6490
 1538SOL    MW4 5920   3.649   1.336   2.992 -0.6147  0.0268  0.5215
 1539SOL     OW 5921   2.090   3.692   4.984  0.0598 -0.4238  0.2207
 1539SOL    HW2 5922   2.136   3.695   4.900 -0.7852  3.7614 -0.3461
 1539SOL    HW3 5923   2.152   3.652   5.044  0.5821 -3.8732 -2.3385
 1539SOL    MW4 5924   2.104   3.687   4.981  0.0172 -0.3267 -0.1917
 1540SOL     OW 5925   6.180   5.082   5.976  0.4216 -0.2790 -0.7718
 1540SOL    HW2 5926   6.273   5.102   5.963  0.6789 -1.6900 -1.3435
 1540SOL    HW3 5927   6.173   5.060   6.069  0.3180  1.3940 -0.3593
 1540SOL    MW4 5928   6.191   5.082   5.987  0.4419 -0.2444 -0.7928
 1541SOL     OW 5929   4.640   2.200   6.193 -0.3245  0.2284 -0.1159
 1541SOL    HW2 5930   4.610   2.163   6.276  0.7764 -0.1987  0.1056
 1541SOL    HW3 5931   4.595   2.149   6.126  0.3990 -0.8507  0.2007
 1541SOL    MW4 5932   4.630   2.189   6.195 -0.0838  0.0296 -0.0449
 1542SOL     OW 5933   1.287   4.544   5.951  0.7840 -0.6673 -0.0012
 1542SOL    HW2 5934   1.216   4.535   6.014  0.2653  1.8665 -0.1259
 1542SOL    HW3 5935   1.266   4.481   5.882 -2.0872  0.7884 -0.6327
 1542SOL    MW4 5936   1.275   4.534   5.950  0.3368 -0.1409 -0.1010
 1543SOL     OW 5937   5.435   1.602   2.059  0.4026 -0.3202  0.4701
 1543SOL    HW2 5938   5.434   1.597   2.154 -0.4120 -1.4621  0.4223
 1543SOL    HW3 5939   5.434   1.696   2.040 -2.8150  0.0009  1.5967
 1543SOL    MW4 5940   5.435   1.614   2.069 -0.1294 -0.4285  0.6124
 1544SOL     OW 5941   0.550   0.791   0.998 -0.2652  0.0947 -0.6599
 1544SOL    HW2 5942   0.635   0.827   1.022 -0.3589  0.7091 -1.2072
 1544SOL    HW3 5943   0.570   0.705   0.961  0.0384 -0.0985 -0.0548
 1544SOL    MW4 5944   0.564   0.784   0.996 -0.2375  0.1503 -0.6523
 1545SOL     OW 5945   5.741   4.520   3.051  0.3551  1.0875  0.1909
 1545SOL    HW2 5946   5.828   4.556   3.069  1.9105 -2.3224  0.2117
 1545SOL    HW3 5947   5.740   4.505   2.957  1.1612 -1.7737  0.5449
 1545SOL    MW4 5948   5.752   4.523   3.041  0.6667  0.2601  0.2404
 1546SOL     OW 5949   3.343   5.083   4.053 -0.1268 -0.0705 -0.3349
 1546SOL    HW2 5950   3.280   5.145   4.015  1.6502  0.3315 -2.8474
 1546SOL    HW3 5951   3.376   5.128   4.131 -1.5449  0.5274 -0.0525
 1546SOL    MW4 5952   3.339   5.097   4.058 -0.0795  0.0614 -0.6291
 1547SOL     OW 5953   2.773   3.935   3.783 -0.7244  0.1161 -0.0748
 1547SOL    HW2 5954   2.865   3.912   3.794 -0.8479 -0.2484  0.2075
 1547SOL    HW3 5955   2.761   4.012   3.839 -0.1867  1.2306 -1.4183
 1547SOL    MW4 5956   2.784   3.942   3.792 -0.6698  0.2150 -0.2148
 1548SOL     OW 5957   3.346   3.613   2.672 -0.0146  0.6227  0.1073
 1548SOL    HW2 5958   3.409   3.680   2.698  0.9282  0.9847 -2.7153
 1548SOL    HW3 5959   3.282   3.661   2.619 -0.2833 -0.4348 -0.5528
 1548SOL    MW4 5960   3.346   3.629   2.668  0.0744  0.5309 -0.3522
 1549SOL     OW 5961   5.355   4.620   6.122  0.0360 -0.5484 -0.3857
 1549SOL    HW2 5962   5.393   4.542   6.081 -0.9623 -2.4741  2.0452
 1549SOL    HW3 5963   5.431   4.667   6.158  0.5357 -1.3952 -0.3069
 1549SOL    MW4 5964   5.370   4.616   6.122 -0.0298 -0.9142 -0.0546
 1550SOL     OW 5965   2.767   3.793   4.504 -0.2915 -0.1848 -0.2530
 1550SOL    HW2 5966   2.856   3.792   4.541 -0.1232  2.2168 -0.4311
 1550SOL    HW3 5967   2.776   3.748   4.420  0.7551 -0.0542 -0.2318
 1550SOL    MW4 5968   2.780   3.787   4.498 -0.1312  0.1493 -0.2737
 1551SOL     OW 5969   5.593   1.958   1.693 -0.1460  0.3155 -0.4031
 1551SOL    HW2 5970   5.566   2.038   1.649  0.3007  0.2131 -0.8781
 1551SOL    HW3 5971   5.576   1.888   1.629  3.0347  0.4307 -1.5824
 1551SOL    MW4 5972   5.587   1.959   1.679  0.3326  0.3172 -0.6214
 1552SOL     OW 5973   4.949   0.809   4.274 -0.3398 -0.1631 -0.6521
 1552SOL    HW2 5974   4.955   0.752   4.197 -1.9929  1.7150 -2.2972
 1552SOL    HW3 5975   4.869   0.780   4.319 -1.0991  0.6782 -1.4085
 1552SOL    MW4 5976   4.939   0.798   4.269 -0.6581  0.1957 -0.9689
 1553SOL     OW 5977   0.972   4.541   5.040  0.2769 -0.2922 -0.5120
 1553SOL    HW2 5978   0.947   4.456   5.004  0.8888 -0.3674 -0.7643
 1553SOL    HW3 5979   0.919   4.550   5.120 -1.5595  0.1514 -1.7217
 1553SOL    MW4 5980   0.962   4.531   5.046  0.1154 -0.2436 -0.7049
 1554SOL     OW 5981   0.547   2.059   4.717  0.1187  0.2241 -0.4444
 1554SOL    HW2 5982   0.494   2.015   4.784  1.7664 -1.0677  0.0993
 1554SOL    HW3 5983   0.538   2.003   4.640  1.6068 -0.7453  0.0235
 1554SOL    MW4 5984   0.539   2.046   4.716  0.5324 -0.0743 -0.3109
 1555SOL     OW 5985   3.986   3.051   4.769 -0.1396 -0.4123 -0.0921
 1555SOL    HW2 5986   4.057   2.987   4.775 -1.1189 -1.5148  0.1802
 1555SOL    HW3 5987   3.994   3.102   4.850 -0.4058 -1.3500  0.5438
 1555SOL    MW4 5988   3.997   3.049   4.781 -0.3039 -0.6815  0.0277
 1556SOL     OW 5989   6.306   5.639   2.343 -0.1801  0.1143 -0.5228
 1556SOL    HW2 5990   6.361   5.565   2.318  0.9820  0.7726  0.0132
 1556SOL    HW3 5991   6.230   5.600   2.385  0.8158 -0.7700  0.5162
 1556SOL    MW4 5992   6.303   5.624   2.345  0.1047  0.0845 -0.3150
 1557SOL     OW 5993   5.067   5.548   2.606  0.1335  1.0375  0.6689
 1557SOL    HW2 5994   4.985   5.524   2.649  1.4298  0.2516  2.8613
 1557SOL    HW3 5995   5.064   5.644   2.600 -1.3115  0.9660 -0.1427
 1557SOL    MW4 5996   5.056   5.558   2.611  0.1139  0.9244  0.8511
 1558SOL     OW 5997   0.966   4.120   2.742  0.4146  0.0821  0.0121
 1558SOL    HW2 5998   0.915   4.040   2.752  0.4778 -0.0239 -0.4606
 1558SOL    HW3 5999   0.971   4.133   2.647 -1.6702  1.9817  0.0847
 1558SOL    MW4 6000   0.960   4.111   2.731  0.1479  0.3187 -0.0407
 1559SOL     OW 6001   6.355   0.094   3.620  0.4303  0.4773  0.2572
 1559SOL    HW2 6002   6.392   0.105   3.533 -0.1003 -0.5649 -0.1185
 1559SOL    HW3 6003   6.430   0.099   3.679  1.4342 -2.5910 -0.5520
 1559SOL    MW4 6004   6.370   0.096   3.617  0.4928 -0.0650  0.1008
 1560SOL     OW 6005   1.009   4.570   1.784 -0.2287 -0.0826 -0.0567
 1560SOL    HW2 6006   1.102   4.568   1.764 -0.4450 -0.6256 -1.0596
 1560SOL    HW3 6007   0.978   4.653   1.747  0.2223  1.1017  2.0853
 1560SOL    MW4 6008   1.017   4.581   1.776 -0.1978  0.0020  0.0936
 1561SOL     OW 6009   1.935   2.192   4.449 -0.1381 -0.3485 -0.5786
 1561SOL    HW2 6010   1.859   2.234   4.408 -1.4276 -0.4678  1.5255
 1561SOL    HW3 6011   1.912   2.100   4.453 -0.0761 -0.3320  0.4201
 1561SOL    MW4 6012   1.922   2.186   4.444 -0.3001 -0.3620 -0.1692
 1562SOL     OW 6013   0.364   0.244   4.529  0.5372 -0.0145  0.5105
 1562SOL    HW2 6014   0.316   0.290   4.460  0.9901  0.6122  0.6075
 1562SOL    HW3 6015   0.389   0.313   4.591  1.0678 -0.4140  0.7494
 1562SOL    MW4 6016   0.361   0.259   4.528  0.6670  0.0155  0.5548
 1563SOL     OW 6017   2.834   0.435   1.270  0.1785 -0.0367  0.2763
 1563SOL    HW2 6018   2.788   0.368   1.322 -0.0960 -1.7873 -2.0331
 1563SOL    HW3 6019   2.916   0.393   1.246  0.6879  1.0888  0.0272
 1563SOL    MW4 6020   2.838   0.421   1.274  0.2095 -0.1192 -0.0613
 1564SOL     OW 6021   0.241   1.935   4.083  0.4108 -0.6319  0.1872
 1564SOL    HW2 6022   0.219   2.027   4.073 -2.4051 -1.2096  0.1988
 1564SOL    HW3 6023   0.295   1.914   4.007  0.9442  0.9644  0.0970
 1564SOL    MW4 6024   0.245   1.944   4.072  0.1097 -0.4975  0.1768
 1565SOL     OW 6025   4.688   2.599   6.210  0.5232 -1.0969  0.3407
 1565SOL    HW2 6026   4.610   2.555   6.244  0.9685 -1.3375  1.0711
 1565SOL    HW3 6027   4.740   2.528   6.171  1.3639 -1.3049  1.7471
 1565SOL    MW4 6028   4.685   2.584   6.209  0.6928 -1.1561  0.6226
 1566SOL     OW 6029   3.732   3.848   3.309 -0.2582  0.6303 -0.5916
 1566SOL    HW2 6030   3.706   3.853   3.217 -0.5006 -3.3669 -0.9173
 1566SOL    HW3 6031   3.802   3.783   3.310  0.4069  1.2926  1.9670
 1566SOL    MW4 6032   3.738   3.840   3.297 -0.2024  0.1903 -0.2970
 1567SOL     OW 6033   0.481   2.341   4.996 -0.3074  0.3861 -0.2823
 1567SOL    HW2 6034   0.562   2.381   5.026 -1.1284  1.7571  0.2200
 1567SOL    HW3 6035   0.469   2.373   4.907 -1.0178  1.3767  0.1551
 1567SOL    MW4 6036   0.490   2.350   4.988 -0.5095  0.6977 -0.1584
 1568SOL     OW 6037   1.785   5.054   0.412 -0.1403  0.3913  0.0027
 1568SOL    HW2 6038   1.820   4.974   0.450 -1.0639 -1.2778 -2.4230
 1568SOL    HW3 6039   1.699   5.066   0.453 -0.2383 -0.1851 -0.0347
 1568SOL    MW4 6040   1.778   5.045   0.422 -0.2751  0.0950 -0.3223
 1569SOL     OW 6041   0.672   0.835   6.290 -0.2708  0.3899  0.3939
 1569SOL    HW2 6042   0.584   0.872   6.281 -0.2368  0.5744  0.8136
 1569SOL    HW3 6043   0.702   0.822   6.200 -0.4288  1.0436  0.2464
 1569SOL    MW4 6044   0.664   0.838   6.277 -0.2872  0.5005  0.4298
 1570SOL     OW 6045   2.583   3.843   2.489 -0.0764 -0.1904  0.1291
 1570SOL    HW2 6046   2.502   3.824   2.538  1.2928 -2.3689  1.7045
 1570SOL    HW3 6047   2.554   3.898   2.417 -3.0451 -1.1296  0.4557
 1570SOL    MW4 6048   2.568   3.848   2.486 -0.2875 -0.6017  0.3801
 1571SOL     OW 6049   5.883   3.344   5.006  0.4493  0.2434 -0.1240
 1571SOL    HW2 6050   5.857   3.252   5.016 -0.1195  0.2879 -1.0575
 1571SOL    HW3 6051   5.888   3.357   4.911 -2.2739  1.9266 -0.1331
 1571SOL    MW4 6052   5.880   3.333   4.995  0.0149  0.4714 -0.2484
 1572SOL     OW 6053   0.330   3.670   6.213 -0.2040 -0.2683 -0.1059
 1572SOL    HW2 6054   0.375   3.746   6.249 -2.3638  0.6394  0.8651
 1572SOL    HW3 6055   0.339   3.602   6.279  1.0549 -0.6166 -0.6222
 1572SOL    MW4 6056   0.337   3.671   6.226 -0.3228 -0.1945 -0.0459
 1573SOL     OW 6057   1.414   0.460   6.148  0.1430  0.4520 -0.1299
 1573SOL    HW2 6058   1.390   0.390   6.087  0.1955  1.4322 -1.3113
 1573SOL    HW3 6059   1.490   0.425   6.194 -0.1540 -0.4834 -0.3172
 1573SOL    MW4 6060   1.421   0.446   6.146  0.1108  0.4579 -0.3105
 1574SOL     OW 6061   3.179   4.372   3.217 -0.0854  0.1411 -0.2015
 1574SOL    HW2 6062   3.214   4.380   3.129 -1.0713 -3.2680 -1.0790
 1574SOL    HW3 6063   3.255   4.377   3.274  0.8356  0.3132 -1.4046
 1574SOL    MW4 6064   3.193   4.374   3.213 -0.0940 -0.2860 -0.4760
 1575SOL     OW 6065   4.142   1.660   2.598  0.0474  0.1311 -0.6301
 1575SOL    HW2 6066   4.066   1.717   2.583  0.0973  0.3472 -0.0725
 1575SOL    HW3 6067   4.214   1.720   2.618 -0.6348 -0.1241  3.4959
 1575SOL    MW4 6068   4.142   1.675   2.599 -0.0360  0.1259 -0.0122
 1576SOL     OW 6069   1.264   2.705   2.884 -0.1667  0.1717 -0.2270
 1576SOL    HW2 6070   1.279   2.665   2.799 -0.6338  0.4188 -0.4307
 1576SOL    HW3 6071   1.259   2.799   2.866 -1.0434  0.1707 -0.0475
 1576SOL    MW4 6072   1.266   2.712   2.871 -0.3440  0.2042 -0.2302
 1577SOL     OW 6073   5.399   0.481   0.266  0.6389  0.4587  0.1710
 1577SOL    HW2 6074   5.477   0.466   0.213  1.1653 -0.8021  1.2401
 1577SOL    HW3 6075   5.327   0.448   0.213  0.2941  4.3553 -2.1512
 1577SOL    MW4 6076   5.400   0.475   0.252  0.6629  0.8065  0.0057
 1578SOL     OW 6077   3.392   6.058   4.628 -0.6420  0.0575 -0.2688
 1578SOL    HW2 6078   3.487   6.055   4.638 -0.6177  0.5707 -0.3264
 1578SOL    HW3 6079   3.359   6.059   4.718 -0.7308 -3.0388 -0.1357
 1578SOL    MW4 6080   3.400   6.058   4.641 -0.6505 -0.2833 -0.2588
 1579SOL     OW 6081   3.064   0.911   1.048  0.0046 -0.1899 -0.4234
 1579SOL    HW2 6082   3.002   0.845   1.077 -1.7447  0.6170 -2.1344
 1579SOL    HW3 6083   3.136   0.862   1.008 -0.1819 -1.0938  0.3183
 1579SOL    MW4 6084   3.065   0.896   1.047 -0.2508 -0.2027 -0.5513
 1580SOL     OW 6085   4.584   1.597   4.627  0.6134  0.1236  0.0293
 1580SOL    HW2 6086   4.655   1.551   4.673  0.2097  0.1656  0.7176
 1580SOL    HW3 6087   4.513   1.601   4.692 -0.0534 -0.0056 -0.6858
 1580SOL    MW4 6088   4.584   1.591   4.642  0.4721  0.1121  0.0258
 1581SOL     OW 6089   3.902   3.819   2.197 -0.1530 -0.7708  0.5123
 1581SOL    HW2 6090   3.909   3.906   2.236  1.6527 -0.9355  0.6339
 1581SOL    HW3 6091   3.812   3.792   2.215 -1.2965  1.7107 -0.9133
 1581SOL    MW4 6092   3.891   3.827   2.204 -0.0656 -0.4651  0.3403
 1582SOL     OW 6093   5.533   0.271   6.004  0.2311  0.7800  0.3646
 1582SOL    HW2 6094   5.514   0.188   5.961  1.9261  0.9394 -0.8115
 1582SOL    HW3 6095   5.617   0.257   6.048 -0.9667  0.9487  2.8581
 1582SOL    MW4 6096   5.542   0.258   6.004  0.2967  0.8233  0.5384
 1583SOL     OW 6097   5.386   4.586   5.754  0.0434  0.9313 -0.3907
 1583SOL    HW2 6098   5.417   4.510   5.804  0.1784  0.8005 -0.6758
 1583SOL    HW3 6099   5.327   4.549   5.688 -1.9561  1.2839  1.0727
 1583SOL    MW4 6100   5.382   4.571   5.752 -0.2026  0.9606 -0.2352
 1584SOL     OW 6101   1.730   3.170   1.344  0.0527 -0.0262 -0.2366
 1584SOL    HW2 6102   1.660   3.191   1.282 -0.1005  0.5676  0.1359
 1584SOL    HW3 6103   1.804   3.224   1.317 -0.2937  0.9082  0.6295
 1584SOL    MW4 6104   1.731   3.180   1.332 -0.0132  0.1754 -0.0731
 1585SOL     OW 6105   3.929   4.076   5.323  0.1584  0.2277  0.1281
 1585SOL    HW2 6106   3.934   4.001   5.382 -1.0560 -0.2872 -0.3946
 1585SOL    HW3 6107   3.997   4.060   5.257  0.4783  0.0283  0.5084
 1585SOL    MW4 6108   3.938   4.064   5.322  0.0404  0.1334  0.1093
 1586SOL     OW 6109   3.012   2.772   0.818 -0.0830 -0.3476 -0.0812
 1586SOL    HW2 6110   2.926   2.815   0.819 -0.9050 -1.9133  0.3061
 1586SOL    HW3 6111   3.015   2.727   0.733 -0.6449 -2.1351  0.8013
 1586SOL    MW4 6112   3.001   2.772   0.807 -0.2655 -0.7900  0.0863
 1587SOL     OW 6113   4.709   2.218   4.380 -0.0373 -0.2883  0.1318
 1587SOL    HW2 6114   4.614   2.226   4.377 -0.0050 -0.0872 -1.7434
 1587SOL    HW3 6115   4.740   2.308   4.384  0.0746 -0.2142 -1.6670
 1587SOL    MW4 6116   4.701   2.231   4.380 -0.0183 -0.2520 -0.3530
 1588SOL     OW 6117   0.715   5.331   3.081 -0.0812 -0.3364  0.1542
 1588SOL    HW2 6118   0.752   5.308   3.166  0.3641  2.0004  0.6702
 1588SOL    HW3 6119   0.792   5.352   3.027 -0.3390 -2.0594 -0.9685
 1588SOL    MW4 6120   0.730   5.331   3.085 -0.0564 -0.2554  0.0742
 1589SOL     OW 6121   2.501   3.421   4.037  0.2920 -0.1909 -0.4673
 1589SOL    HW2 6122   2.411   3.438   4.012 -0.3205 -0.9598  1.0956
 1589SOL    HW3 6123   2.518   3.331   4.009 -0.0236 -0.6506  0.7259
 1589SOL    MW4 6124   2.492   3.412   4.030  0.1695 -0.3530 -0.1037
 1590SOL     OW 6125   2.932   3.704   1.521  0.0633 -0.1715  0.6600
 1590SOL    HW2 6126   2.900   3.620   1.488 -0.1165 -0.0074  0.4164
 1590SOL    HW3 6127   3.014   3.718   1.473 -0.1475  0.0198  0.3594
 1590SOL    MW4 6128   2.939   3.694   1.511  0.0118 -0.1246  0.5882
 1591SOL     OW 6129   5.526   2.628   5.521 -0.2030 -0.1181  0.0759
 1591SOL    HW2 6130   5.550   2.653   5.431  0.0579 -0.5085  0.0372
 1591SOL    HW3 6131   5.441   2.585   5.513 -1.0251  1.3909  0.2299
 1591SOL    MW4 6132   5.518   2.626   5.508 -0.2771  0.0295  0.0911
 1592SOL     OW 6133   6.069   3.073   5.847  0.6017  0.2107 -0.0024
 1592SOL    HW2 6134   6.079   3.125   5.768  0.9791  1.2904  0.7319
 1592SOL    HW3 6135   6.026   3.131   5.909 -1.3568 -1.1914  0.0517
 1592SOL    MW4 6136   6.065   3.087   5.845  0.3931  0.1682  0.1016
 1593SOL     OW 6137   0.970   2.333   4.231  0.2579  0.1037  0.3518
 1593SOL    HW2 6138   0.968   2.331   4.326 -1.8929 -1.0589  0.3427
 1593SOL    HW3 6139   0.928   2.416   4.207 -0.5506 -0.2878  0.4125
 1593SOL    MW4 6140   0.964   2.344   4.240 -0.1325 -0.1014  0.3586
 1594SOL     OW 6141   0.061   3.283   0.273  0.0951 -0.1754 -0.0560
 1594SOL    HW2 6142   0.116   3.358   0.251  0.4814  0.0819  1.6214
 1594SOL    HW3 6143  -0.027   3.310   0.249  0.2916  0.6414  0.0968
 1594SOL    MW4 6144   0.057   3.296   0.267  0.1720 -0.0337  0.1855
 1595SOL     OW 6145   1.599   4.141   3.068 -0.3541 -0.0969  0.5797
 1595SOL    HW2 6146   1.678   4.142   3.121 -1.5898 -0.2711  2.5321
 1595SOL    HW3 6147   1.598   4.054   3.028  1.8207  0.8465 -1.8164
 1595SOL    MW4 6148   1.609   4.130   3.069 -0.2302  0.0046  0.5211
 1596SOL     OW 6149   3.931   1.832   2.582 -0.2341  0.3543 -0.1785
 1596SOL    HW2 6150   3.949   1.912   2.631 -2.8817  0.7771  0.2501
 1596SOL    HW3 6151   3.873   1.859   2.512 -0.5072 -1.0654 -0.5240
 1596SOL    MW4 6152   3.926   1.846   2.579 -0.6195  0.2227 -0.1676
 1597SOL     OW 6153   4.324   0.721   0.507 -0.9089  0.0545  0.4377
 1597SOL    HW2 6154   4.287   0.750   0.424 -0.9184  0.5505  0.6144
 1597SOL    HW3 6155   4.295   0.630   0.515 -1.9803  0.3864  0.5024
 1597SOL    MW4 6156   4.315   0.712   0.497 -1.0515  0.1637  0.4695
 1598SOL     OW 6157   1.156   1.375   5.735  0.0307 -0.0477  0.4560
 1598SOL    HW2 6158   1.085   1.378   5.799  0.1786 -0.8466  0.6723
 1598SOL    HW3 6159   1.228   1.423   5.777 -0.4527  1.0137  0.1185
 1598SOL    MW4 6160   1.156   1.382   5.749 -0.0136 -0.0130  0.4400
 1599SOL     OW 6161   2.192   4.582   1.868 -0.7388 -0.0211  0.1367
 1599SOL    HW2 6162   2.279   4.545   1.855  0.5964  3.1790 -0.8378
 1599SOL    HW3 6163   2.188   4.601   1.962  0.3764  1.3989 -0.0682
 1599SOL    MW4 6164   2.203   4.579   1.879 -0.4155  0.5885 -0.0189
 1600SOL     OW 6165   5.276   1.663   0.930 -0.4503 -0.0164  0.4117
 1600SOL    HW2 6166   5.291   1.578   0.888 -0.8996  1.5774 -3.3233
 1600SOL    HW3 6167   5.324   1.726   0.877 -0.3345  2.1923  2.8920
 1600SOL    MW4 6168   5.284   1.660   0.918 -0.4943  0.4853  0.2462
 1601SOL     OW 6169   0.185   2.002   3.077 -0.5977  0.2717  0.5374
 1601SOL    HW2 6170   0.219   1.923   3.037  0.8922  0.3991  1.4466
 1601SOL    HW3 6171   0.220   2.074   3.024 -0.7918  0.3567  0.5231
 1601SOL    MW4 6172   0.194   2.001   3.065 -0.4267  0.2997  0.6555
 1602SOL     OW 6173   5.700   4.842   0.877  0.4510 -0.1503 -0.0322
 1602SOL    HW2 6174   5.781   4.791   0.880 -0.0049 -0.9385 -0.7837
 1602SOL    HW3 6175   5.720   4.922   0.926  1.2827 -0.8992  0.8747
 1602SOL    MW4 6176   5.713   4.846   0.884  0.5006 -0.3531 -0.0117
 1603SOL     OW 6177   3.211   4.154   1.978 -0.1741  0.1438  0.4290
 1603SOL    HW2 6178   3.244   4.082   2.031  0.7830 -1.0357 -1.6333
 1603SOL    HW3 6179   3.253   4.232   2.016  1.6054 -0.8207  0.5766
 1603SOL    MW4 6180   3.221   4.155   1.990  0.1869 -0.1391  0.1764
 1604SOL     OW 6181   6.407   2.398   0.175  0.2854  0.3551 -0.1922
 1604SOL    HW2 6182   6.478   2.457   0.201 -1.0207  0.9678  2.4075
 1604SOL    HW3 6183   6.335   2.457   0.151 -0.4667 -0.1688  0.7167
 1604SOL    MW4 6184   6.407   2.414   0.175  0.0139  0.3668  0.2707
 1605SOL     OW 6185   1.322   2.939   4.121  0.8260 -0.3388 -0.4026
 1605SOL    HW2 6186   1.312   2.848   4.147  2.3389 -0.4888 -0.2970
 1605SOL    HW3 6187   1.271   2.988   4.186 -0.9567 -1.1381 -1.1165
 1605SOL    MW4 6188   1.314   2.934   4.133  0.7904 -0.4640 -0.4828
 1606SOL     OW 6189   1.279   4.680   4.778 -0.2022  0.5672 -0.1485
 1606SOL    HW2 6190   1.245   4.613   4.837 -0.1227 -0.3716 -1.1390
 1606SOL    HW3 6191   1.279   4.639   4.692  0.0181  1.7870 -0.7585
 1606SOL    MW4 6192   1.274   4.666   4.774 -0.1627  0.6043 -0.3596
 1607SOL     OW 6193   4.887   1.275   5.505  0.4444 -0.5917  0.1067
 1607SOL    HW2 6194   4.950   1.203   5.502  1.8981  0.4560  2.6387
 1607SOL    HW3 6195   4.841   1.263   5.587 -0.0471  0.7673  0.0479
 1607SOL    MW4 6196   4.890   1.264   5.515  0.5713 -0.2742  0.4330
 1608SOL     OW 6197   6.285   5.544   1.596 -0.1072  0.1769 -0.1454
 1608SOL    HW2 6198   6.246   5.480   1.536  0.2220  1.2266 -1.5274
 1608SOL    HW3 6199   6.375   5.554   1.566  0.6673 -0.6811  1.7419
 1608SOL    MW4 6200   6.291   5.537   1.584  0.0384  0.2022 -0.0787
 1609SOL     OW 6201   5.981   0.995   6.072 -0.7224 -0.3332  0.0149
 1609SOL    HW2 6202   5.986   0.906   6.036 -2.2815 -0.8195  0.9117
 1609SOL    HW3 6203   5.906   1.035   6.026 -0.5125  0.2604  0.1779
 1609SOL    MW4 6204   5.972   0.989   6.061 -0.9004 -0.3190  0.1547
 1610SOL     OW 6205   0.331   2.373   2.661  0.6359 -0.1843 -0.5342
 1610SOL    HW2 6206   0.350   2.283   2.635  0.4835 -0.3754  0.0162
 1610SOL    HW3 6207   0.249   2.394   2.616  0.9904 -0.1075 -1.1531
 1610SOL    MW4 6208   0.322   2.364   2.652  0.6626 -0.1994 -0.5432
 1611SOL     OW 6209   0.660   3.697   3.808  0.0192  0.4889 -0.4548
 1611SOL    HW2 6210   0.711   3.722   3.885  1.4764  0.2383 -1.2983
 1611SOL    HW3 6211   0.702   3.742   3.735 -2.2089  1.8876 -0.9700
 1611SOL    MW4 6212   0.672   3.706   3.808 -0.0825  0.6404 -0.6341
 1612SOL     OW 6213   2.466   1.614   0.783  0.0913 -0.1288 -0.5276
 1612SOL    HW2 6214   2.418   1.533   0.767 -0.4671  0.1574 -0.3422
 1612SOL    HW3 6215   2.520   1.626   0.704  1.7586 -1.7386  0.2847
 1612SOL    MW4 6216   2.467   1.605   0.770  0.2376 -0.3035 -0.3960
 1613SOL     OW 6217   1.671   4.955   4.777 -0.3094  0.0168  0.6458
 1613SOL    HW2 6218   1.623   4.873   4.787  1.6274 -1.0261  1.8381
 1613SOL    HW3 6219   1.697   4.958   4.685 -0.0638 -0.8949  0.6849
 1613SOL    MW4 6220   1.668   4.945   4.767 -0.0215 -0.2411  0.8083
 1614SOL     OW 6221   2.132   5.788   6.375 -0.2178 -0.2841  0.1296
 1614SOL    HW2 6222   2.201   5.771   6.311 -0.6896 -0.0657 -0.4423
 1614SOL    HW3 6223   2.178   5.801   6.457  0.6516  2.6972 -0.7391
 1614SOL    MW4 6224   2.147   5.787   6.377 -0.1653  0.1381 -0.0605
 1615SOL     OW 6225   1.924   3.074   2.566  0.5807  0.0940 -0.2506
 1615SOL    HW2 6226   1.988   3.145   2.561 -0.9208  1.5094 -0.2650
 1615SOL    HW3 6227   1.942   3.031   2.650  2.0780 -0.1092 -0.6470
 1615SOL    MW4 6228   1.935   3.077   2.577  0.5802  0.2539 -0.3048
 1616SOL     OW 6229   5.331   2.243   2.175  0.1026  0.3716 -0.0691
 1616SOL    HW2 6230   5.286   2.221   2.093  0.0935 -0.5820  0.1825
 1616SOL    HW3 6231   5.424   2.239   2.153  0.1547  3.7542 -0.9655
 1616SOL    MW4 6232   5.337   2.239   2.161  0.1083  0.6921 -0.1542
 1617SOL     OW 6233   1.288   0.313   3.054 -0.1339 -0.3636  0.2808
 1617SOL    HW2 6234   1.206   0.304   3.103 -0.8413  0.9708 -0.6045
 1617SOL    HW3 6235   1.274   0.261   2.975 -0.2293  0.0535  0.0193
 1617SOL    MW4 6236   1.275   0.305   3.050 -0.2398 -0.1325  0.1295
 1618SOL     OW 6237   2.643   0.891   2.221 -0.0149  0.4476 -0.4856
 1618SOL    HW2 6238   2.569   0.891   2.160 -1.6310  0.9287  1.3740
 1618SOL    HW3 6239   2.721   0.893   2.165 -1.4174  2.6729 -2.5488
 1618SOL    MW4 6240   2.644   0.891   2.206 -0.4132  0.8047 -0.5125
 1619SOL     OW 6241   0.175   1.020   0.251  0.0682  0.3026  0.1662
 1619SOL    HW2 6242   0.182   0.955   0.321  0.2375 -1.3126 -1.3106
 1619SOL    HW3 6243   0.253   1.007   0.198  0.1758  1.8323 -0.1028
 1619SOL    MW4 6244   0.186   1.010   0.254  0.1047  0.2913 -0.0641
 1620SOL     OW 6245   5.655   3.654   4.366 -0.3922  0.3328 -0.2148
 1620SOL    HW2 6246   5.685   3.579   4.418 -1.2951  0.2577  0.2150
 1620SOL    HW3 6247   5.702   3.729   4.403  1.9424 -0.2019 -1.8231
 1620SOL    MW4 6248   5.665   3.654   4.377 -0.2033  0.2524 -0.3703
 1621SOL     OW 6249   3.978   6.384   0.292  0.3109  0.1165  0.3854
 1621SOL    HW2 6250   3.913   6.334   0.342 -0.0551  2.1026  2.0439
 1621SOL    HW3 6251   3.927   6.426   0.222  0.1946  0.0702  0.4422
 1621SOL    MW4 6252   3.963   6.383   0.289  0.2473  0.3724  0.6117
 1622SOL     OW 6253   0.591   0.983   5.809 -0.1249  0.7550  0.0335
 1622SOL    HW2 6254   0.560   1.032   5.733  0.8395 -0.7188 -1.3737
 1622SOL    HW3 6255   0.566   0.892   5.791 -0.2545  0.4172  1.7050
 1622SOL    MW4 6256   0.583   0.977   5.797 -0.0147  0.5160  0.0683
 1623SOL     OW 6257   3.648   3.804   3.018 -0.7109 -0.0306 -0.9471
 1623SOL    HW2 6258   3.703   3.880   2.997 -0.5574  0.0887 -0.1210
 1623SOL    HW3 6259   3.593   3.792   2.940 -1.3368  1.4593 -0.7707
 1623SOL    MW4 6260   3.648   3.812   3.005 -0.7732  0.1817 -0.8148
 1624SOL     OW 6261   2.202   3.634   0.140  0.4761  0.3950  0.1953
 1624SOL    HW2 6262   2.117   3.665   0.172  0.6320 -0.4988  1.5646
 1624SOL    HW3 6263   2.266   3.690   0.185  0.6442  0.7737 -0.4964
 1624SOL    MW4 6264   2.199   3.646   0.150  0.5189  0.3270  0.2847
 1625SOL     OW 6265   5.967   0.319   3.366  0.0717  0.3140 -0.1237
 1625SOL    HW2 6266   5.963   0.365   3.450  2.4365  0.6025 -0.0894
 1625SOL    HW3 6267   5.890   0.263   3.365 -0.3174  0.7339  1.9775
 1625SOL    MW4 6268   5.956   0.318   3.377  0.3324  0.4075  0.1580
 1626SOL     OW 6269   0.318   2.550   1.341  0.1133  0.5872  0.5594
 1626SOL    HW2 6270   0.333   2.536   1.247 -0.3639 -0.0366  0.5665
 1626SOL    HW3 6271   0.313   2.461   1.377  0.8598  0.8249  1.2750
 1626SOL    MW4 6272   0.319   2.536   1.333  0.1489  0.5362  0.6548
 1627SOL     OW 6273   0.183   2.076   2.345 -0.0595  0.4717  0.0097
 1627SOL    HW2 6274   0.248   2.096   2.413  0.6933 -0.3042 -0.4660
 1627SOL    HW3 6275   0.214   1.995   2.306 -0.7421  0.6663 -0.9611
 1627SOL    MW4 6276   0.196   2.068   2.349 -0.0502  0.3950 -0.1811
 1628SOL     OW 6277   5.177   3.629   6.371 -0.4488  0.3325  0.4407
 1628SOL    HW2 6278   5.144   3.549   6.330  1.8385 -0.6161  0.3262
 1628SOL    HW3 6279   5.180   3.607   6.465 -0.0889  0.3920  0.4416
 1628SOL    MW4 6280   5.173   3.615   6.378 -0.0995  0.2152  0.4257
 1629SOL     OW 6281   3.580   0.872   2.439  0.1786  0.2218 -0.0379
 1629SOL    HW2 6282   3.629   0.955   2.445 -0.9638  0.8743  0.4825
 1629SOL    HW3 6283   3.569   0.844   2.529 -2.1120  1.1385  0.0408
 1629SOL    MW4 6284   3.585   0.879   2.451 -0.2744  0.4288  0.0412
 1630SOL     OW 6285   4.632   3.627   2.322 -0.3765  0.1420  0.1220
 1630SOL    HW2 6286   4.599   3.572   2.393 -0.1342 -0.3415 -0.1357
 1630SOL    HW3 6287   4.695   3.686   2.365  0.1217 -0.4629  0.2348
 1630SOL    MW4 6288   4.636   3.628   2.337 -0.2788 -0.0016  0.1029
 1631SOL     OW 6289   4.744   4.356   1.644  0.0103  0.3833 -0.1826
 1631SOL    HW2 6290   4.766   4.267   1.673 -0.0708  0.4000 -0.0695
 1631SOL    HW3 6291   4.786   4.364   1.558 -1.6639 -0.4873 -1.1339
 1631SOL    MW4 6292   4.753   4.345   1.637 -0.2213  0.2706 -0.2932
 1632SOL     OW 6293   4.839   1.016   3.145 -0.1026 -0.1812 -0.0287
 1632SOL    HW2 6294   4.805   0.953   3.082 -0.4833  0.7246 -0.7686
 1632SOL    HW3 6295   4.919   1.049   3.104  0.3434 -0.5076  0.5635
 1632SOL    MW4 6296   4.845   1.012   3.131 -0.0940 -0.1048 -0.0482
 1633SOL     OW 6297   0.751   2.570   2.740  0.3360  0.1316 -0.2395
 1633SOL    HW2 6298   0.715   2.592   2.826  0.7662  1.0585 -0.2833
 1633SOL    HW3 6299   0.674   2.552   2.685  0.0902 -2.6184  0.8496
 1633SOL    MW4 6300   0.736   2.571   2.744  0.3603 -0.1089 -0.1016
 1634SOL     OW 6301   4.773   5.106   5.105 -0.5755  0.3458 -0.0225
 1634SOL    HW2 6302   4.765   5.192   5.146 -0.5998 -0.4991  1.8205
 1634SOL    HW3 6303   4.712   5.050   5.154  2.0497 -1.5753  1.2513
 1634SOL    MW4 6304   4.764   5.110   5.117 -0.2323 -0.0191  0.3887
 1635SOL     OW 6305   3.430   1.496   5.727  0.0815  0.3819 -0.7600
 1635SOL    HW2 6306   3.481   1.552   5.786 -0.0912 -1.0302  0.8149
 1635SOL    HW3 6307   3.365   1.555   5.687  1.3177  1.7048 -0.8788
 1635SOL    MW4 6308   3.428   1.511   5.729  0.2218  0.3701 -0.5678
 1636SOL     OW 6309   6.281   1.568   2.729 -0.2491 -0.0330  0.1970
 1636SOL    HW2 6310   6.241   1.503   2.789 -0.3328  0.3870  0.6022
 1636SOL    HW3 6311   6.257   1.652   2.766  0.5535  0.2338  0.1340
 1636SOL    MW4 6312   6.273   1.570   2.742 -0.1543  0.0576  0.2421
 1637SOL     OW 6313   2.798   0.687   4.580 -0.3282  0.1164 -0.0020
 1637SOL    HW2 6314   2.722   0.713   4.632 -1.3218 -0.2104 -1.2467
 1637SOL    HW3 6315   2.831   0.768   4.543 -1.2438  0.0680 -0.9782
 1637SOL    MW4 6316   2.792   0.701   4.582 -0.5801  0.0669 -0.2950
 1638SOL     OW 6317   2.769   4.677   5.105  0.1175  0.4686 -0.3242
 1638SOL    HW2 6318   2.766   4.608   5.039 -0.2813  0.5635 -0.4133
 1638SOL    HW3 6319   2.691   4.662   5.159  2.1085 -1.6300  2.2403
 1638SOL    MW4 6320   2.758   4.666   5.103  0.3275  0.2042  0.0024
 1639SOL     OW 6321   5.118   5.618   3.542 -0.4727 -0.0335 -0.1892
 1639SOL    HW2 6322   5.158   5.643   3.459 -1.5888 -1.2675 -1.1421
 1639SOL    HW3 6323   5.033   5.662   3.542 -0.3149  0.2753  0.4813
 1639SOL    MW4 6324   5.112   5.627   3.531 -0.5991 -0.1556 -0.2265
 1640SOL     OW 6325   2.956   0.703   1.364 -0.4704 -0.4242 -0.0335
 1640SOL    HW2 6326   3.047   0.713   1.337 -0.9353  0.1302 -1.5298
 1640SOL    HW3 6327   2.922   0.632   1.309 -0.8795 -0.7852  0.6750
 1640SOL    MW4 6328   2.963   0.695   1.353 -0.5857 -0.3987 -0.1374
 1641SOL     OW 6329   6.348   2.955   0.195  0.1224  0.2542  0.2407
 1641SOL    HW2 6330   6.375   3.001   0.116 -0.6909  0.6238  0.1750
 1641SOL    HW3 6331   6.277   2.897   0.167  1.3792 -1.3704  0.2343
 1641SOL    MW4 6332   6.342   2.953   0.181  0.1809  0.0886  0.2312
 1642SOL     OW 6333   5.820   2.050   5.699  0.2568  0.1506  0.4348
 1642SOL    HW2 6334   5.853   1.965   5.669 -0.3223  0.5362 -1.4642
 1642SOL    HW3 6335   5.798   2.037   5.791  1.4654 -1.3541  0.5472
 1642SOL    MW4 6336   5.822   2.037   5.707  0.3398  0.0029  0.1991
 1643SOL     OW 6337   3.776   1.127   1.136 -0.0404 -0.2044  0.1188
 1643SOL    HW2 6338   3.783   1.219   1.161 -0.0311 -0.5049  1.3058
 1643SOL    HW3 6339   3.683   1.115   1.114 -0.0983  0.0214  0.2375
 1643SOL    MW4 6340   3.764   1.138   1.136 -0.0468 -0.2143  0.2911
 1644SOL     OW 6341   0.683   5.011   3.418 -0.6601  0.4554  0.4581
 1644SOL    HW2 6342   0.681   5.043   3.508 -0.8091 -0.1231  0.6674
 1644SOL    HW3 6343   0.624   4.935   3.418  0.5286 -0.4896  0.2406
 1644SOL    MW4 6344   0.675   5.005   3.430 -0.5229  0.2544  0.4570
 1645SOL     OW 6345   0.493   5.040   3.975  0.4068  0.1423  0.2825
 1645SOL    HW2 6346   0.442   4.986   3.915  0.0088 -1.5170  2.0272
 1645SOL    HW3 6347   0.444   5.123   3.980  0.4174  0.2979 -1.5596
 1645SOL    MW4 6348   0.480   5.044   3.968  0.3557 -0.0561  0.2696
 1646SOL     OW 6349   4.522   1.747   0.331 -0.1970 -0.3545 -0.2912
 1646SOL    HW2 6350   4.489   1.657   0.327 -0.6155 -0.3997  2.4695
 1646SOL    HW3 6351   4.446   1.801   0.309 -0.7877 -0.6330  0.9396
 1646SOL    MW4 6352   4.507   1.742   0.328 -0.3302 -0.3972  0.2354
 1647SOL     OW 6353   1.605   0.868   3.997 -0.4762  0.2138  0.0209
 1647SOL    HW2 6354   1.598   0.783   4.041  0.7132 -0.8615 -1.7404
 1647SOL    HW3 6355   1.544   0.863   3.924  0.0916  0.5984 -0.4943
 1647SOL    MW4 6356   1.596   0.856   3.993 -0.2444  0.1227 -0.2794
 1648SOL     OW 6357   6.234   6.161   3.600 -0.2352  0.0659  0.2240
 1648SOL    HW2 6358   6.166   6.227   3.587 -1.6910 -1.4067 -0.0716
 1648SOL    HW3 6359   6.185   6.079   3.612  1.4822 -1.5347 -2.6371
 1648SOL    MW4 6360   6.219   6.159   3.600 -0.2007 -0.3396 -0.1925
 1649SOL     OW 6361   3.962   0.386   0.355 -0.6006 -0.4484 -0.5267
 1649SOL    HW2 6362   4.019   0.450   0.398  1.2358 -0.4990 -2.6717
 1649SOL    HW3 6363   3.937   0.429   0.273 -1.7256 -1.3912 -0.7026
 1649SOL    MW4 6364   3.967   0.400   0.350 -0.5067 -0.5795 -0.8329
 1650SOL     OW 6365   3.345   1.808   6.170 -0.1476 -0.0643  0.0207
 1650SOL    HW2 6366   3.324   1.764   6.088 -0.0135 -0.7685  0.3582
 1650SOL    HW3 6367   3.338   1.901   6.150  1.3244 -0.1744 -1.1793
 1650SOL    MW4 6368   3.341   1.814   6.157  0.0643 -0.1717 -0.0931
 1651SOL     OW 6369   5.283   3.680   1.598  0.0994  0.0845 -0.4861
 1651SOL    HW2 6370   5.265   3.666   1.505 -0.5008  1.1590 -0.5621
 1651SOL    HW3 6371   5.277   3.775   1.608 -1.7319 -0.1315  0.9965
 1651SOL    MW4 6372   5.280   3.691   1.587 -0.2214  0.1978 -0.3005
 1652SOL     OW 6373   1.342   1.965   2.901  0.5749 -0.0567 -0.0197
 1652SOL    HW2 6374   1.317   1.879   2.935  0.9944 -0.8216 -1.5671
 1652SOL    HW3 6375   1.404   1.998   2.966  0.1566 -0.7703  0.7701
 1652SOL    MW4 6376   1.347   1.958   2.914  0.5750 -0.2518 -0.1196
 1653SOL     OW 6377   1.071   2.464   2.162 -0.0271  0.3598 -0.0232
 1653SOL    HW2 6378   1.105   2.428   2.081  0.8485 -0.0568  0.5151
 1653SOL    HW3 6379   1.148   2.503   2.205 -0.2222 -0.5173  1.1719
 1653SOL    MW4 6380   1.086   2.464   2.157  0.0627  0.1891  0.2055
 1654SOL     OW 6381   2.615   5.100   0.592  0.3385 -0.2557  0.2931
 1654SOL    HW2 6382   2.614   5.007   0.568  1.6650 -0.5879  1.3973
 1654SOL    HW3 6383   2.594   5.102   0.685 -1.7032  0.7544 -0.1390
 1654SOL    MW4 6384   2.612   5.088   0.601  0.2442 -0.1663  0.3817
 1655SOL     OW 6385   3.889   5.869   6.005 -0.2719 -0.2786  0.0302
 1655SOL    HW2 6386   3.961   5.813   6.035 -0.0992  0.7627  1.6900
 1655SOL    HW3 6387   3.916   5.898   5.918  0.8480 -0.6942  0.2250
 1655SOL    MW4 6388   3.902   5.865   5.998 -0.1014 -0.1961  0.2749
 1656SOL     OW 6389   4.823   2.204   5.847  0.1416  0.2382 -0.0601
 1656SOL    HW2 6390   4.738   2.203   5.803  0.6569  1.4877 -1.1392
 1656SOL    HW3 6391   4.802   2.225   5.938 -0.6889  1.0234 -0.4135
 1656SOL    MW4 6392   4.809   2.207   5.853  0.1000  0.5067 -0.2491
 1657SOL     OW 6393   5.401   2.682   4.792 -0.2215 -0.1720 -0.0189
 1657SOL    HW2 6394   5.371   2.633   4.869  0.0590  1.2942  1.0571
 1657SOL    HW3 6395   5.322   2.721   4.756 -0.2520 -0.2546 -0.0415
 1657SOL    MW4 6396   5.387   2.681   4.798 -0.1885  0.0106  0.1201
 1658SOL     OW 6397   5.134   1.676   2.066  0.0806 -0.0599  0.2520
 1658SOL    HW2 6398   5.075   1.600   2.068  0.9394 -0.7373  1.6502
 1658SOL    HW3 6399   5.222   1.638   2.063  0.5558  0.8465  1.7745
 1658SOL    MW4 6400   5.138   1.661   2.066  0.2566 -0.0297  0.6373
 1659SOL     OW 6401   2.318   1.113   1.999  0.8085  0.0054  0.2730
 1659SOL    HW2 6402   2.312   1.104   2.094 -0.7527 -2.0322  0.0468
 1659SOL    HW3 6403   2.363   1.034   1.970  0.6273  0.2554 -0.7431
 1659SOL    MW4 6404   2.323   1.101   2.007  0.5786 -0.2304  0.1091
 1660SOL     OW 6405   0.157   1.586   2.350  0.0725 -0.2081 -0.0386
 1660SOL    HW2 6406   0.065   1.562   2.340 -0.4902  2.0697 -1.0097
 1660SOL    HW3 6407   0.203   1.533   2.286 -0.4877 -1.6126  0.6806
 1660SOL    MW4 6408   0.151   1.576   2.340 -0.0757 -0.0929 -0.0718
 1661SOL     OW 6409   0.782   1.892   3.986 -0.1476 -0.2960  0.1614
 1661SOL    HW2 6410   0.839   1.968   3.994 -0.7686  0.1595  0.3324
 1661SOL    HW3 6411   0.746   1.880   4.074 -0.5927 -0.3630 -0.0274
 1661SOL    MW4 6412   0.785   1.900   3.999 -0.2883 -0.2447  0.1591
 1662SOL     OW 6413   1.574   3.627   4.397  0.6222  0.3616 -0.0528
 1662SOL    HW2 6414   1.486   3.597   4.417  0.9489 -0.5291  0.1063
 1662SOL    HW3 6415   1.587   3.704   4.452  0.0441  0.3378  0.1185
 1662SOL    MW4 6416   1.564   3.633   4.407  0.5891  0.2410 -0.0092
 1663SOL     OW 6417   6.133   1.924   1.231 -0.4534  0.1827 -0.2517
 1663SOL    HW2 6418   6.186   1.921   1.311  1.3818  0.5600 -1.3839
 1663SOL    HW3 6419   6.121   2.017   1.214 -0.3508  0.1160 -0.7023
 1663SOL    MW4 6420   6.139   1.936   1.240 -0.1977  0.2237 -0.4605
 1664SOL     OW 6421   0.839   5.284   1.389 -0.4000 -0.7078 -0.8224
 1664SOL    HW2 6422   0.776   5.345   1.427 -0.6537 -1.3043 -0.2639
 1664SOL    HW3 6423   0.912   5.284   1.452  0.3745  0.3225 -1.6880
 1664SOL    MW4 6424   0.841   5.292   1.403 -0.3313 -0.6505 -0.8629
 1665SOL     OW 6425   0.343   4.445   6.118 -0.3837 -0.5121  0.0881
 1665SOL    HW2 6426   0.308   4.476   6.201 -0.3460 -1.0270  0.2991
 1665SOL    HW3 6427   0.273   4.392   6.080 -0.2045 -0.7227  0.0447
 1665SOL    MW4 6428   0.329   4.442   6.124 -0.3551 -0.6078  0.1102
 1666SOL     OW 6429   4.694   0.056   3.065 -0.1525  0.5848  0.1660
 1666SOL    HW2 6430   4.745   0.132   3.093  1.9581 -1.2670  1.6010
 1666SOL    HW3 6431   4.743   0.019   2.992 -1.5856  0.9597 -1.0534
 1666SOL    MW4 6432   4.707   0.062   3.059 -0.0631  0.3900  0.1944
 1667SOL     OW 6433   4.379   1.221   4.237 -0.6354 -0.0717  0.0427
 1667SOL    HW2 6434   4.361   1.313   4.257  0.6442  0.3584 -0.6638
 1667SOL    HW3 6435   4.464   1.222   4.193 -1.4961 -1.3665 -1.8139
 1667SOL    MW4 6436   4.388   1.233   4.234 -0.5801 -0.1858 -0.2955
 1668SOL     OW 6437   4.462   1.746   2.365  0.0982 -0.1453  0.0465
 1668SOL    HW2 6438   4.408   1.760   2.287  0.0936 -0.3673  0.0092
 1668SOL    HW3 6439   4.403   1.768   2.438 -0.4701 -1.6033  0.0691
 1668SOL    MW4 6440   4.447   1.751   2.365  0.0226 -0.3670  0.0446
 1669SOL     OW 6441   2.017   2.215   0.755 -0.9991 -0.5364 -0.0674
 1669SOL    HW2 6442   2.013   2.229   0.660 -2.2535 -1.2019 -0.1280
 1669SOL    HW3 6443   1.931   2.242   0.786  0.0769  1.7134  1.1929
 1669SOL    MW4 6444   2.005   2.221   0.746 -1.0226 -0.3274  0.0909
 1670SOL     OW 6445   1.903   3.378   5.356 -0.3915  0.2692 -0.1000
 1670SOL    HW2 6446   1.928   3.458   5.403 -0.9944 -0.1048  0.8981
 1670SOL    HW3 6447   1.971   3.366   5.290  0.4538  0.8625  0.6400
 1670SOL    MW4 6448   1.915   3.387   5.354 -0.3596  0.2981  0.1293
 1671SOL     OW 6449   3.621   1.405   5.543 -0.2743 -0.0467  0.0805
 1671SOL    HW2 6450   3.593   1.440   5.458 -2.6010  0.2652  0.8936
 1671SOL    HW3 6451   3.554   1.436   5.604  2.1739  1.0969  2.3694
 1671SOL    MW4 6452   3.608   1.413   5.539 -0.2583  0.1453  0.4898
 1672SOL     OW 6453   4.236   1.746   1.199 -0.2203  0.1789 -0.3493
 1672SOL    HW2 6454   4.218   1.836   1.229 -1.2932 -0.5239  1.2642
 1672SOL    HW3 6455   4.294   1.710   1.266 -0.4513 -0.5776 -0.5459
 1672SOL    MW4 6456   4.241   1.753   1.212 -0.3924 -0.0136 -0.1623
 1673SOL     OW 6457   3.221   1.168   4.629 -0.2939  0.5675  1.3538
 1673SOL    HW2 6458   3.287   1.125   4.684  1.0970  0.4765 -0.2971
 1673SOL    HW3 6459   3.220   1.117   4.548 -0.0794  2.4214  0.1235
 1673SOL    MW4 6460   3.230   1.156   4.626 -0.0821  0.8001  0.9737
 1674SOL     OW 6461   5.736   1.498   1.070 -0.1913  0.0051 -0.2906
 1674SOL    HW2 6462   5.772   1.414   1.042  0.3227 -0.1080  0.6486
 1674SOL    HW3 6463   5.735   1.492   1.166 -3.8658 -0.4828 -0.2105
 1674SOL    MW4 6464   5.740   1.486   1.079 -0.6083 -0.0742 -0.1561
 1675SOL     OW 6465   0.994   4.931   0.727 -0.2169 -0.2492  0.0438
 1675SOL    HW2 6466   0.952   5.017   0.719 -0.0571 -0.1503  0.2271
 1675SOL    HW3 6467   0.982   4.908   0.819 -0.4598 -0.5292 -0.0603
 1675SOL    MW4 6468   0.987   4.940   0.738 -0.2279 -0.2731  0.0543
 1676SOL     OW 6469   2.223   0.686   6.378 -0.4082 -0.0682 -0.5456
 1676SOL    HW2 6470   2.312   0.718   6.387  0.1618 -1.6012 -0.4093
 1676SOL    HW3 6471   2.230   0.591   6.389 -2.2348 -0.1036  0.8739
 1676SOL    MW4 6472   2.236   0.678   6.381 -0.5740 -0.2752 -0.3403
 1677SOL     OW 6473   0.718   4.328   0.278  0.1903 -0.6537  0.1931
 1677SOL    HW2 6474   0.791   4.290   0.229 -0.9290 -0.6501 -1.5610
 1677SOL    HW3 6475   0.751   4.413   0.309  1.6850 -1.6548  1.5075
 1677SOL    MW4 6476   0.732   4.334   0.276  0.2398 -0.7853  0.1351
 1678SOL     OW 6477   6.217   3.246   3.784  0.2951 -0.1647  0.1291
 1678SOL    HW2 6478   6.282   3.260   3.716 -0.0557 -1.8279 -0.5956
 1678SOL    HW3 6479   6.135   3.233   3.736 -0.4456  1.1135  0.9908
 1678SOL    MW4 6480   6.215   3.246   3.768  0.1511 -0.2155  0.1471
 1679SOL     OW 6481   4.826   1.862   5.600  0.6489 -0.1662 -0.4582
 1679SOL    HW2 6482   4.886   1.805   5.551 -1.5643 -2.3740 -0.7552
 1679SOL    HW3 6483   4.782   1.913   5.533 -0.6882 -1.4984 -0.6342
 1679SOL    MW4 6484   4.828   1.862   5.585  0.1805 -0.6333 -0.5206
 1680SOL     OW 6485   4.984   6.066   6.273 -0.0716 -0.3870  0.1191
 1680SOL    HW2 6486   5.009   6.006   6.343 -0.6338  0.0697  0.7179
 1680SOL    HW3 6487   4.995   6.014   6.193  0.5041 -0.9345  0.5421
 1680SOL    MW4 6488   4.989   6.051   6.272 -0.0699 -0.3990  0.2539
 1681SOL     OW 6489   4.156   2.480   1.669 -0.1258  0.0639 -0.2448
 1681SOL    HW2 6490   4.248   2.457   1.658 -0.5021 -1.4962 -0.4062
 1681SOL    HW3 6491   4.137   2.537   1.594  0.8872  1.0564  0.2287
 1681SOL    MW4 6492   4.165   2.485   1.657 -0.0418 -0.0110 -0.2036
 1682SOL     OW 6493   3.192   2.911   1.000  0.2827  0.0223  0.0261
 1682SOL    HW2 6494   3.264   2.847   1.000  0.0670 -0.2299  0.3607
 1682SOL    HW3 6495   3.128   2.874   0.939 -0.7025 -1.1076  1.6526
 1682SOL    MW4 6496   3.193   2.898   0.992  0.1242 -0.1601  0.2849
 1683SOL     OW 6497   0.528   4.596   1.507 -0.2605  0.4286  0.1770
 1683SOL    HW2 6498   0.448   4.609   1.558 -1.3968  1.8232 -1.8112
 1683SOL    HW3 6499   0.498   4.567   1.421  1.4240  0.2967 -0.4149
 1683SOL    MW4 6500   0.514   4.594   1.502 -0.1882  0.5952 -0.1634
 1684SOL     OW 6501   5.054   3.697   5.048  0.3378  0.0758 -0.1550
 1684SOL    HW2 6502   5.002   3.682   5.127  0.3240 -0.2324 -0.2221
 1684SOL    HW3 6503   5.144   3.680   5.074  0.3774  0.3572 -0.1054
 1684SOL    MW4 6504   5.059   3.693   5.062  0.3412  0.0723 -0.1573
 1685SOL     OW 6505   6.391   3.422   5.235 -0.6105 -0.3288 -0.1648
 1685SOL    HW2 6506   6.398   3.508   5.195  0.5782  0.3000  1.3065
 1685SOL    HW3 6507   6.327   3.376   5.181 -0.5614  1.1312 -1.5532
 1685SOL    MW4 6508   6.383   3.427   5.223 -0.4472 -0.0532 -0.1539
 1686SOL     OW 6509   2.487   1.925   3.718 -0.1328 -0.2611  0.3930
 1686SOL    HW2 6510   2.447   1.895   3.636 -0.6098 -0.4192  0.6780
 1686SOL    HW3 6511   2.429   1.995   3.748  1.6470  1.8877 -0.9089
 1686SOL    MW4 6512   2.474   1.930   3.711  0.0391  0.0015  0.2589
 1687SOL     OW 6513   3.709   1.772   1.047  0.0170 -0.0855  0.3925
 1687SOL    HW2 6514   3.639   1.831   1.019  1.0664  1.1369  0.2644
 1687SOL    HW3 6515   3.788   1.807   1.006  0.7256 -1.3796  0.6106
 1687SOL    MW4 6516   3.710   1.785   1.038  0.2490 -0.0949  0.4044
 1688SOL     OW 6517   2.384   1.715   1.189 -0.1080 -0.1447  0.3588
 1688SOL    HW2 6518   2.459   1.684   1.241 -0.3937 -1.0302  0.2502
 1688SOL    HW3 6519   2.326   1.756   1.254  1.1839  2.0156  0.2366
 1688SOL    MW4 6520   2.386   1.717   1.205  0.0248  0.0235  0.3283
 1689SOL     OW 6521   2.029   5.467   5.359  0.2695 -0.1507  0.0851
 1689SOL    HW2 6522   2.124   5.477   5.373  0.3888 -0.5811 -0.3776
 1689SOL    HW3 6523   2.022   5.396   5.295 -0.3943 -0.5570  0.5971
 1689SOL    MW4 6524   2.041   5.459   5.352  0.1977 -0.2611  0.0916
 1690SOL     OW 6525   6.404   1.432   4.609 -0.2181 -0.6856  0.4697
 1690SOL    HW2 6526   6.419   1.505   4.669 -0.4580 -0.5724  0.3915
 1690SOL    HW3 6527   6.409   1.354   4.664  3.9059 -0.9762  0.0093
 1690SOL    MW4 6528   6.407   1.431   4.624  0.2944 -0.7090  0.3986
 1691SOL     OW 6529   0.814   5.433   2.722 -0.5459  0.3791 -0.8237
 1691SOL    HW2 6530   0.835   5.526   2.713  1.0441 -0.0347 -1.9346
 1691SOL    HW3 6531   0.723   5.431   2.752 -0.3378  2.2864  0.0564
 1691SOL    MW4 6532   0.805   5.445   2.724 -0.3087  0.5762 -0.8541
 1692SOL     OW 6533   4.426   5.263   0.893  0.4527  0.2396  0.1878
 1692SOL    HW2 6534   4.478   5.270   0.812 -1.2202  1.5146 -0.8384
 1692SOL    HW3 6535   4.442   5.346   0.938 -0.8273  0.7448 -0.2540
 1692SOL    MW4 6536   4.435   5.275   0.888  0.0631  0.4745 -0.0059
 1693SOL     OW 6537   0.936   5.718   4.441  0.5933 -0.6085  0.3249
 1693SOL    HW2 6538   1.009   5.760   4.485 -0.4991 -0.1025  1.7549
 1693SOL    HW3 6539   0.928   5.764   4.358  0.3642  1.0694  1.2165
 1693SOL    MW4 6540   0.944   5.729   4.436  0.4190 -0.3203  0.6312
 1694SOL     OW 6541   1.834   1.428   0.811 -0.3744  0.1864 -0.0793
 1694SOL    HW2 6542   1.788   1.431   0.895 -0.0149 -0.6256  0.1519
 1694SOL    HW3 6543   1.770   1.459   0.747 -0.2664  2.0342  0.6459
 1694SOL    MW4 6544   1.820   1.433   0.813 -0.3127  0.3230  0.0469
 1695SOL     OW 6545   2.689   2.572   2.288  0.5546 -0.3602  0.2521
 1695SOL    HW2 6546   2.725   2.656   2.259  1.7149 -0.2525  1.8924
 1695SOL    HW3 6547   2.609   2.596   2.334  1.5293  0.0115  1.8153
 1695SOL    MW4 6548   2.683   2.586   2.290  0.8363 -0.2970  0.6748
 1696SOL     OW 6549   2.111   2.035   0.969  0.4703 -0.4376  0.6016
 1696SOL    HW2 6550   2.168   1.968   0.931  0.1897 -1.3491  1.7742
 1696SOL    HW3 6551   2.096   2.096   0.896  1.6726 -1.0039 -0.1585
 1696SOL    MW4 6552   2.117   2.034   0.954  0.5919 -0.6326  0.6560
 1697SOL     OW 6553   0.932   6.297   3.514 -0.6810  0.0800  0.4427
 1697SOL    HW2 6554   0.878   6.220   3.496  0.5993 -0.3728 -1.7181
 1697SOL    HW3 6555   0.997   6.266   3.577  0.5884 -1.0106 -1.3303
 1697SOL    MW4 6556   0.933   6.282   3.520 -0.3446 -0.1237 -0.0763
 1698SOL     OW 6557   2.305   2.415   0.053 -0.1392 -0.4718  0.0568
 1698SOL    HW2 6558   2.396   2.444   0.063  0.3024 -1.6396 -0.5002
 1698SOL    HW3 6559   2.273   2.408   0.143 -0.3302  1.8318  0.2398
 1698SOL    MW4 6560   2.313   2.418   0.067 -0.1061 -0.3219  0.0075
 1699SOL     OW 6561   6.379   5.889   1.039 -0.3760 -0.0945 -1.1968
 1699SOL    HW2 6562   6.379   5.969   0.987  2.4547  1.5294  1.0241
 1699SOL    HW3 6563   6.329   5.911   1.118  0.8021 -0.2861 -0.3648
 1699SOL    MW4 6564   6.372   5.902   1.042  0.1529  0.0945 -0.7940
 1700SOL     OW 6565   0.035   2.648   1.455  0.0826 -0.1810  0.2156
 1700SOL    HW2 6566   0.072   2.657   1.367 -1.5004 -0.3420 -0.5062
 1700SOL    HW3 6567  -0.056   2.621   1.440 -0.0288 -0.8845  1.9283
 1700SOL    MW4 6568   0.028   2.646   1.441 -0.1410 -0.2951  0.3463
 1701SOL     OW 6569   2.414   3.736   0.646  0.0072  0.0601  0.3422
 1701SOL    HW2 6570   2.325   3.705   0.666  0.1537  0.3505  1.5319
 1701SOL    HW3 6571   2.447   3.768   0.730  0.8095  1.0497 -0.3331
 1701SOL    MW4 6572   2.407   3.736   0.660  0.1324  0.2290  0.4101
 1702SOL     OW 6573   1.719   0.304   4.988  0.2173  0.0683  0.8363
 1702SOL    HW2 6574   1.751   0.221   4.951 -1.2138 -0.5222  0.8594
 1702SOL    HW3 6575   1.624   0.294   4.990 -0.1702  2.4514 -0.9368
 1702SOL    MW4 6576   1.710   0.292   4.983 -0.0226  0.3048  0.6054
 1703SOL     OW 6577   5.557   1.248   1.445  0.4605 -0.0449 -0.0262
 1703SOL    HW2 6578   5.647   1.240   1.415  0.8355 -2.6976  1.5540
 1703SOL    HW3 6579   5.560   1.227   1.538 -1.9858 -2.0375 -0.2870
 1703SOL    MW4 6580   5.569   1.244   1.453  0.1872 -0.6578  0.1479
 1704SOL     OW 6581   0.588   3.972   2.912 -0.3475  0.2650  0.1646
 1704SOL    HW2 6582   0.666   3.931   2.874 -1.0762 -0.1966 -0.8560
 1704SOL    HW3 6583   0.561   3.913   2.982  0.0385  0.2720  0.3220
 1704SOL    MW4 6584   0.595   3.959   2.916 -0.3927  0.2051  0.0507
 1705SOL     OW 6585   3.761   4.705   2.256  0.9659 -0.0357  0.2747
 1705SOL    HW2 6586   3.794   4.621   2.224  2.8009 -0.5485  3.0872
 1705SOL    HW3 6587   3.746   4.690   2.350  0.1557  2.4651  0.6297
 1705SOL    MW4 6588   3.763   4.692   2.264  1.1011  0.2266  0.6926
 1706SOL     OW 6589   6.302   2.915   1.733 -0.1777  0.0141  0.4372
 1706SOL    HW2 6590   6.209   2.904   1.753 -0.7819  1.3807 -1.3402
 1706SOL    HW3 6591   6.303   2.969   1.654  2.1223 -0.5713  0.0003
 1706SOL    MW4 6592   6.290   2.921   1.725  0.0460  0.1172  0.1450
 1707SOL     OW 6593   4.040   1.790   5.011  0.4620  0.8822  0.1300
 1707SOL    HW2 6594   4.115   1.735   5.033  0.4873  1.2306  0.9562
 1707SOL    HW3 6595   4.011   1.758   4.926  2.1128  1.3475 -0.6580
 1707SOL    MW4 6596   4.046   1.779   5.002  0.6831  0.9896  0.1350
 1708SOL     OW 6597   0.391   3.535   2.796  0.2799  0.2377 -0.2581
 1708SOL    HW2 6598   0.447   3.529   2.873  0.6444  2.1375 -0.3154
 1708SOL    HW3 6599   0.352   3.448   2.787  0.8781 -0.2549  1.5563
 1708SOL    MW4 6600   0.393   3.523   2.805  0.4069  0.4233 -0.0262
 1709SOL     OW 6601   3.482   4.880   3.319 -0.3828 -0.4668 -0.2621
 1709SOL    HW2 6602   3.438   4.946   3.373 -1.2684  0.1182 -1.6795
 1709SOL    HW3 6603   3.423   4.805   3.319  0.0512 -0.8293  0.3045
 1709SOL    MW4 6604   3.469   4.878   3.326 -0.4424 -0.4374 -0.3744
 1710SOL     OW 6605   0.593   5.602   1.097 -0.3163  0.4689  0.8488
 1710SOL    HW2 6606   0.673   5.646   1.067 -0.3103 -0.9122 -1.4286
 1710SOL    HW3 6607   0.541   5.671   1.137  1.3156  1.7327  0.9211
 1710SOL    MW4 6608   0.597   5.617   1.098 -0.1002  0.4535  0.5579
 1711SOL     OW 6609   0.339   3.051   0.543  0.1804 -0.1597  0.0670
 1711SOL    HW2 6610   0.390   2.975   0.516 -1.8547 -1.2441 -0.9452
 1711SOL    HW3 6611   0.366   3.120   0.482  0.3682 -0.7531 -0.5331
 1711SOL    MW4 6612   0.349   3.050   0.531 -0.0633 -0.3811 -0.1457
 1712SOL     OW 6613   0.923   1.361   1.651  0.1070 -0.1815  0.1248
 1712SOL    HW2 6614   0.847   1.304   1.637  0.1542 -0.7816  1.9516
 1712SOL    HW3 6615   0.998   1.301   1.650  0.2129 -0.1103  1.4919
 1712SOL    MW4 6616   0.923   1.345   1.649  0.1272 -0.2513  0.5462
 1713SOL     OW 6617   1.506   3.341   4.181  0.1672  0.7519  0.3039
 1713SOL    HW2 6618   1.514   3.250   4.209  0.2030  1.4646  2.8088
 1713SOL    HW3 6619   1.594   3.377   4.193  0.2811  1.0262 -1.1699
 1713SOL    MW4 6620   1.519   3.334   4.186  0.1869  0.8821  0.4399
 1714SOL     OW 6621   0.316   5.665   3.012  0.0841 -0.0622  0.1594
 1714SOL    HW2 6622   0.266   5.585   2.996  0.3009 -0.0520 -0.6117
 1714SOL    HW3 6623   0.289   5.725   2.943  0.4843  0.2618  0.2782
 1714SOL    MW4 6624   0.306   5.662   3.001  0.1655 -0.0181  0.0733
 1715SOL     OW 6625   4.206   0.761   1.800 -0.3141 -0.5187 -0.3496
 1715SOL    HW2 6626   4.209   0.786   1.892 -1.5736 -0.2454 -0.3627
 1715SOL    HW3 6627   4.117   0.729   1.787  0.1406 -1.4667 -1.2466
 1715SOL    MW4 6628   4.194   0.760   1.811 -0.4203 -0.6077 -0.4697
 1716SOL     OW 6629   2.463   4.695   5.927 -0.1743  0.5872  0.0507
 1716SOL    HW2 6630   2.373   4.716   5.951 -1.0176 -1.5299 -1.0326
 1716SOL    HW3 6631   2.472   4.728   5.838 -0.3706 -0.4288 -0.3608
 1716SOL    MW4 6632   2.452   4.702   5.919 -0.3114  0.1738 -0.1465
 1717SOL     OW 6633   4.856   2.471   1.902 -0.2453 -0.1587 -0.0338
 1717SOL    HW2 6634   4.865   2.566   1.888 -1.0676 -0.0795 -0.0436
 1717SOL    HW3 6635   4.788   2.445   1.840 -1.2805 -0.4557  1.2064
 1717SOL    MW4 6636   4.848   2.480   1.892 -0.4904 -0.1875  0.1286
 1718SOL     OW 6637   0.804   1.472   5.051  0.2061 -0.3713 -0.2930
 1718SOL    HW2 6638   0.814   1.549   4.995  1.0115  0.3323  0.7797
 1718SOL    HW3 6639   0.840   1.400   4.999 -0.8847 -0.1133 -1.4528
 1718SOL    MW4 6640   0.810   1.473   5.037  0.1685 -0.2445 -0.3045
 1719SOL     OW 6641   3.683   4.010   5.164 -0.5327 -0.5292 -0.2902
 1719SOL    HW2 6642   3.756   4.053   5.208 -1.4112  2.1441 -1.2323
 1719SOL    HW3 6643   3.605   4.040   5.211 -1.4000  1.5003 -2.7559
 1719SOL    MW4 6644   3.682   4.020   5.176 -0.7631  0.0913 -0.7398
 1720SOL     OW 6645   5.934   2.238   2.420  0.5689 -0.1213 -0.0143
 1720SOL    HW2 6646   5.953   2.324   2.384  1.9196  0.4033  1.8039
 1720SOL    HW3 6647   6.020   2.199   2.435 -0.0235 -2.0930 -1.4014
 1720SOL    MW4 6648   5.948   2.244   2.417  0.6689 -0.3122  0.0426
 1721SOL     OW 6649   4.790   3.618   6.150  0.4980 -0.3510 -0.8319
 1721SOL    HW2 6650   4.824   3.688   6.207 -1.0319  0.0745 -0.3934
 1721SOL    HW3 6651   4.755   3.553   6.211  0.1006 -0.5469 -1.2689
 1721SOL    MW4 6652   4.790   3.619   6.166  0.2437 -0.3207 -0.8317
 1722SOL     OW 6653   1.325   4.133   5.250  0.1096 -0.0174  0.4288
 1722SOL    HW2 6654   1.239   4.121   5.210  0.5286  0.6607 -0.7438
 1722SOL    HW3 6655   1.367   4.199   5.195  0.4327  1.5892  2.4841
 1722SOL    MW4 6656   1.319   4.140   5.237  0.2075  0.2840  0.5452
 1723SOL     OW 6657   2.586   0.732   1.481 -0.0831 -0.4476  0.2668
 1723SOL    HW2 6658   2.664   0.690   1.516  0.6516  1.3330  0.8827
 1723SOL    HW3 6659   2.536   0.758   1.558  0.2252  1.1030 -0.0143
 1723SOL    MW4 6660   2.589   0.730   1.496  0.0545 -0.0081  0.3110
 1724SOL     OW 6661   5.235   3.576   1.358 -0.1608  0.1674  0.7917
 1724SOL    HW2 6662   5.157   3.533   1.323 -0.2428 -0.0379  1.2233
 1724SOL    HW3 6663   5.275   3.619   1.282  1.0576 -2.3734 -0.1295
 1724SOL    MW4 6664   5.230   3.576   1.343 -0.0109 -0.1949  0.7271
 1725SOL     OW 6665   4.182   0.890   3.633 -0.1920  0.5334  0.0954
 1725SOL    HW2 6666   4.115   0.880   3.565 -1.5826 -0.3199  1.5266
 1725SOL    HW3 6667   4.234   0.965   3.604 -1.7148  1.1917 -1.1131
 1725SOL    MW4 6668   4.180   0.899   3.620 -0.5764  0.5077  0.1247
 1726SOL     OW 6669   3.517   1.198   2.815 -0.2848 -0.6499  0.1183
 1726SOL    HW2 6670   3.429   1.236   2.814  0.1007  0.2598 -0.6091
 1726SOL    HW3 6671   3.504   1.108   2.844 -1.4900 -0.6116 -0.2586
 1726SOL    MW4 6672   3.503   1.191   2.819 -0.3929 -0.5248 -0.0274
 1727SOL     OW 6673   0.151   1.877   4.602 -0.3516 -0.0714  0.5036
 1727SOL    HW2 6674   0.103   1.922   4.533  1.5039 -0.0359 -0.8336
 1727SOL    HW3 6675   0.153   1.939   4.674 -0.3324  0.8252 -0.2485
 1727SOL    MW4 6676   0.145   1.891   4.602 -0.1043  0.0516  0.2279
 1728SOL     OW 6677   2.823   0.502   2.360 -0.0683  0.3932  0.0194
 1728SOL    HW2 6678   2.855   0.491   2.270 -2.7044 -1.2317 -0.8285
 1728SOL    HW3 6679   2.737   0.542   2.350 -0.4720  0.0610  1.8238
 1728SOL    MW4 6680   2.816   0.506   2.347 -0.4693  0.1350  0.1456
 1729SOL     OW 6681   6.263   0.912   2.362 -0.2897  0.1603  0.2020
 1729SOL    HW2 6682   6.293   0.951   2.280  0.9747 -0.2397  0.4594
 1729SOL    HW3 6683   6.207   0.839   2.335  0.1043  0.0440 -0.3169
 1729SOL    MW4 6684   6.260   0.907   2.348 -0.0709  0.0922  0.1675
 1730SOL     OW 6685   3.384   1.516   2.876  0.1361 -0.4678  0.4325
 1730SOL    HW2 6686   3.412   1.600   2.840 -1.3743 -0.5673 -1.1147
 1730SOL    HW3 6687   3.410   1.519   2.968  0.6963  1.4198  0.2519
 1730SOL    MW4 6688   3.391   1.528   2.884  0.0107 -0.2319  0.2045
 1731SOL     OW 6689   0.058   4.123   5.551  0.6533 -0.0625 -0.5603
 1731SOL    HW2 6690   0.051   4.205   5.501  0.3599 -0.5738 -1.3674
 1731SOL    HW3 6691  -0.031   4.089   5.553  0.8058 -0.4512 -0.3584
 1731SOL    MW4 6692   0.045   4.130   5.545  0.6347 -0.1812 -0.6401
 1732SOL     OW 6693   2.812   1.945   0.185 -0.1912 -0.3141 -0.0143
 1732SOL    HW2 6694   2.840   1.902   0.266 -0.3678 -0.8712 -0.2456
 1732SOL    HW3 6695   2.874   1.914   0.119  0.2077  0.4640 -0.0156
 1732SOL    MW4 6696   2.824   1.936   0.187 -0.1619 -0.2849 -0.0450
 1733SOL     OW 6697   3.147   5.711   0.873  0.3369 -0.1650  0.0039
 1733SOL    HW2 6698   3.145   5.803   0.848  1.0537 -0.3324 -0.7111
 1733SOL    HW3 6699   3.159   5.664   0.790 -1.9724 -1.0286  0.0716
 1733SOL    MW4 6700   3.148   5.717   0.859  0.1268 -0.3010 -0.0815
 1734SOL     OW 6701   3.846   0.682   4.308  0.4528  0.1258  1.0147
 1734SOL    HW2 6702   3.933   0.713   4.333  0.4091  1.2250 -0.0735
 1734SOL    HW3 6703   3.791   0.760   4.312 -0.1857 -0.2851  0.4103
 1734SOL    MW4 6704   3.851   0.697   4.312  0.3628  0.2166  0.7914
 1735SOL     OW 6705   3.189   0.215   3.862  0.6411  0.1285  0.6619
 1735SOL    HW2 6706   3.135   0.162   3.804  0.4885  0.7294  0.2531
 1735SOL    HW3 6707   3.233   0.151   3.919  1.4699 -0.5361 -0.6784
 1735SOL    MW4 6708   3.188   0.200   3.862  0.7303  0.1201  0.4311
 1736SOL     OW 6709   4.520   5.519   0.495 -0.2593  0.1230  0.1511
 1736SOL    HW2 6710   4.533   5.609   0.463 -0.6991 -0.5630 -2.0817
 1736SOL    HW3 6711   4.435   5.493   0.460  0.8848 -1.9678 -1.2464
 1736SOL    MW4 6712   4.510   5.528   0.486 -0.1664 -0.2433 -0.3279
 1737SOL     OW 6713   4.141   6.061   3.506 -0.1572 -0.0444  0.4037
 1737SOL    HW2 6714   4.141   6.124   3.579  0.7423  1.7291 -1.0384
 1737SOL    HW3 6715   4.083   6.100   3.441  1.6590  0.1471 -1.1738
 1737SOL    MW4 6716   4.133   6.075   3.507  0.2011  0.2149  0.0053
 1738SOL     OW 6717   2.765   1.468   0.639 -0.3271  0.0251  0.4252
 1738SOL    HW2 6718   2.773   1.555   0.600  1.5846 -0.1044  0.4291
 1738SOL    HW3 6719   2.758   1.485   0.733  0.4787  0.1819  0.4660
 1738SOL    MW4 6720   2.765   1.482   0.646  0.0314  0.0287  0.4311
 1739SOL     OW 6721   5.673   2.252   1.262 -0.2376 -0.5442  0.7250
 1739SOL    HW2 6722   5.714   2.229   1.178 -0.0143  0.5976  0.5101
 1739SOL    HW3 6723   5.703   2.341   1.280 -1.2393 -0.3375  1.4340
 1739SOL    MW4 6724   5.683   2.260   1.253 -0.3403 -0.3663  0.7902
 1740SOL     OW 6725   0.985   2.087   2.646 -0.5862 -0.1716 -0.7359
 1740SOL    HW2 6726   0.959   2.179   2.651 -1.2925 -0.3569 -0.9224
 1740SOL    HW3 6727   1.055   2.086   2.581  1.4023  0.6504  1.2571
 1740SOL    MW4 6728   0.991   2.099   2.638 -0.4171 -0.0876 -0.4976
 1741SOL     OW 6729   0.658   6.162   5.925 -0.5589  0.6367 -0.4280
 1741SOL    HW2 6730   0.700   6.174   5.839 -0.9080  0.3438 -0.6416
 1741SOL    HW3 6731   0.611   6.244   5.940 -0.4386  0.7167 -0.4829
 1741SOL    MW4 6732   0.658   6.174   5.915 -0.5891  0.6086 -0.4634
 1742SOL     OW 6733   2.716   0.063   4.580  0.0094 -0.3778  0.0576
 1742SOL    HW2 6734   2.633   0.027   4.552 -0.4424  0.5296  0.1736
 1742SOL    HW3 6735   2.701   0.090   4.671  0.6721 -0.9286  0.3418
 1742SOL    MW4 6736   2.703   0.062   4.589  0.0372 -0.3308  0.1104
 1743SOL     OW 6737   6.417   1.987   2.868 -0.3480 -0.6020 -0.0888
 1743SOL    HW2 6738   6.484   1.968   2.803  1.2292  2.9898  0.2335
 1743SOL    HW3 6739   6.463   1.985   2.952 -1.4282 -1.2537  0.5166
 1743SOL    MW4 6740   6.432   1.984   2.871 -0.2824 -0.2141  0.0336
 1744SOL     OW 6741   4.134   1.724   6.261 -0.2908 -0.6139  0.3211
 1744SOL    HW2 6742   4.085   1.801   6.293 -0.2797 -1.2763  2.0328
 1744SOL    HW3 6743   4.126   1.729   6.166 -1.0022  1.0499  0.4271
 1744SOL    MW4 6744   4.126   1.735   6.253 -0.3832 -0.4817  0.5609
 1745SOL     OW 6745   1.156   6.112   3.595 -0.2667  0.2841  0.8543
 1745SOL    HW2 6746   1.221   6.092   3.663  0.5015 -0.9101 -0.1945
 1745SOL    HW3 6747   1.107   6.031   3.585 -2.2802  1.3065  1.9553
 1745SOL    MW4 6748   1.158   6.099   3.603 -0.4310  0.2615  0.8612
 1746SOL     OW 6749   2.460   0.571   1.753  0.3152  0.0620  0.0916
 1746SOL    HW2 6750   2.515   0.576   1.831 -0.2703  2.3016  0.4149
 1746SOL    HW3 6751   2.371   0.591   1.784  0.2313  2.0498 -1.2706
 1746SOL    MW4 6752   2.455   0.574   1.767  0.2269  0.6198 -0.0455
 1747SOL     OW 6753   1.622   3.068   5.876  0.2075 -0.0054  0.1744
 1747SOL    HW2 6754   1.717   3.063   5.864  0.4419  2.3508  0.6372
 1747SOL    HW3 6755   1.587   3.012   5.807  1.9138 -0.5905 -0.2753
 1747SOL    MW4 6756   1.630   3.060   5.865  0.4635  0.2283  0.1762
 1748SOL     OW 6757   4.265   2.337   0.465  0.9072 -0.0805 -0.1128
 1748SOL    HW2 6758   4.205   2.367   0.396  0.3627  0.2278  0.4871
 1748SOL    HW3 6759   4.230   2.374   0.545  1.0962 -1.0678  0.4466
 1748SOL    MW4 6760   4.252   2.346   0.466  0.8603 -0.1701  0.0402
 1749SOL     OW 6761   4.530   5.172   1.913 -0.8244 -0.0838 -0.3548
 1749SOL    HW2 6762   4.493   5.083   1.908  0.4637 -0.5863 -1.8068
 1749SOL    HW3 6763   4.620   5.162   1.882  0.3262  1.2420  2.2910
 1749SOL    MW4 6764   4.537   5.159   1.908 -0.5026  0.0249 -0.1973
 1750SOL     OW 6765   4.961   2.411   0.385  0.3235 -0.2279 -0.2900
 1750SOL    HW2 6766   4.902   2.464   0.439  1.4170  0.3392  0.3821
 1750SOL    HW3 6767   4.937   2.434   0.295  0.1982  0.7734 -0.0189
 1750SOL    MW4 6768   4.950   2.421   0.380  0.4512 -0.0210 -0.1655
 1751SOL     OW 6769   1.735   2.620   5.919 -0.1137  0.6172  0.0912
 1751SOL    HW2 6770   1.751   2.638   6.012 -4.4485 -3.7887  2.0984
 1751SOL    HW3 6771   1.802   2.556   5.895 -0.3863 -0.0014  0.9490
 1751SOL    MW4 6772   1.746   2.614   5.928 -0.7216 -0.0457  0.4692
 1752SOL     OW 6773   2.273   2.108   3.786 -0.6535  0.0695 -0.2054
 1752SOL    HW2 6774   2.199   2.047   3.779 -0.9407  0.3389  0.4193
 1752SOL    HW3 6775   2.250   2.180   3.728 -0.7702  0.0430 -0.1928
 1752SOL    MW4 6776   2.261   2.109   3.778 -0.7068  0.1016 -0.1213
 1753SOL     OW 6777   4.419   2.363   4.058 -0.3026  0.1040 -0.0854
 1753SOL    HW2 6778   4.449   2.307   3.987 -2.8098 -0.3100 -0.9212
 1753SOL    HW3 6779   4.490   2.426   4.071  0.9539 -0.9118 -1.7410
 1753SOL    MW4 6780   4.432   2.364   4.050 -0.4676 -0.0846 -0.4141
 1754SOL     OW 6781   3.163   3.196   6.417 -0.0467 -0.0581  0.1188
 1754SOL    HW2 6782   3.068   3.201   6.432 -0.2095 -1.0005 -0.5444
 1754SOL    HW3 6783   3.197   3.152   6.494  0.0622  1.5215  1.0336
 1754SOL    MW4 6784   3.155   3.191   6.429 -0.0538  0.0260  0.1520
 1755SOL     OW 6785   0.386   3.916   2.066  0.0863  0.3009 -0.5669
 1755SOL    HW2 6786   0.424   3.984   2.011  1.8846  0.0859  0.3532
 1755SOL    HW3 6787   0.382   3.955   2.153  0.5437 -0.5342 -0.1606
 1755SOL    MW4 6788   0.390   3.930   2.070  0.3839  0.1624 -0.3919
 1756SOL     OW 6789   4.600   1.728   3.987 -0.0489 -0.1750  0.8854
 1756SOL    HW2 6790   4.521   1.699   4.032 -0.5950  0.0422  0.0743
 1756SOL    HW3 6791   4.603   1.823   4.003 -1.6307  0.3740 -1.5913
 1756SOL    MW4 6792   4.590   1.737   3.995 -0.3297 -0.0739  0.4516
 1757SOL     OW 6793   2.985   5.092   5.793 -0.3964 -0.4359  0.6626
 1757SOL    HW2 6794   3.022   5.025   5.735 -2.2121 -1.4481  0.5768
 1757SOL    HW3 6795   3.055   5.114   5.853  0.7799 -1.1549 -0.3921
 1757SOL    MW4 6796   2.999   5.086   5.793 -0.4807 -0.6643  0.5121
 1758SOL     OW 6797   6.283   6.274   5.490  0.7792 -0.2253 -0.0886
 1758SOL    HW2 6798   6.310   6.365   5.489  0.3138 -0.0551  1.3154
 1758SOL    HW3 6799   6.266   6.253   5.398  0.0161  1.3695 -0.3459
 1758SOL    MW4 6800   6.284   6.283   5.478  0.6171  0.0076  0.0627
 1759SOL     OW 6801   0.888   4.931   2.386  0.2848  0.3834  0.2895
 1759SOL    HW2 6802   0.838   4.973   2.316  0.5053 -2.0589 -1.4589
 1759SOL    HW3 6803   0.960   4.991   2.404  1.0769  0.4831 -2.6800
 1759SOL    MW4 6804   0.891   4.944   2.379  0.4184  0.0743 -0.3329
 1760SOL     OW 6805   4.804   5.077   3.616 -0.4968  0.0290  0.3197
 1760SOL    HW2 6806   4.735   5.064   3.550 -1.5526  0.2428  1.3371
 1760SOL    HW3 6807   4.758   5.070   3.700  0.4439  1.6287  1.0187
 1760SOL    MW4 6808   4.789   5.074   3.618 -0.5120  0.2682  0.5462
 1761SOL     OW 6809   5.048   5.087   0.657  0.0588  0.5707 -0.2093
 1761SOL    HW2 6810   5.114   5.091   0.726 -2.3427  2.3867  2.1769
 1761SOL    HW3 6811   4.991   5.015   0.681  0.0969  0.1811 -1.2237
 1761SOL    MW4 6812   5.049   5.078   0.669 -0.2530  0.7589 -0.0283
 1762SOL     OW 6813   5.754   0.265   4.218 -0.1938  0.3509  0.1126
 1762SOL    HW2 6814   5.834   0.290   4.173  0.4791 -0.3573  0.8718
 1762SOL    HW3 6815   5.691   0.249   4.148  0.5383  0.2259 -0.5279
 1762SOL    MW4 6816   5.756   0.266   4.203 -0.0084  0.2410  0.1283
 1763SOL     OW 6817   0.325   5.438   0.297  0.0205  0.2656 -0.3126
 1763SOL    HW2 6818   0.304   5.397   0.380  1.9659  0.6401  0.4144
 1763SOL    HW3 6819   0.332   5.531   0.318 -1.5589  0.6707 -1.3687
 1763SOL    MW4 6820   0.323   5.445   0.311  0.0688  0.3685 -0.3561
 1764SOL     OW 6821   0.260   1.428   4.927  0.1308  0.3160  0.1251
 1764SOL    HW2 6822   0.349   1.456   4.949  0.6867 -2.1095  1.3599
 1764SOL    HW3 6823   0.215   1.423   5.012 -0.8079  0.3182 -0.3605
 1764SOL    MW4 6824   0.266   1.431   4.941  0.0803 -0.0038  0.2239
 1765SOL     OW 6825   2.044   1.832   2.886 -0.1287 -0.3233 -0.6890
 1765SOL    HW2 6826   2.098   1.905   2.856  0.3905 -0.3706  0.0902
 1765SOL    HW3 6827   1.997   1.866   2.962 -1.0470 -0.3535 -1.2205
 1765SOL    MW4 6828   2.045   1.846   2.892 -0.1813 -0.3335 -0.6563
 1766SOL     OW 6829   2.062   0.190   6.225 -0.3778  0.6924  0.6955
 1766SOL    HW2 6830   2.128   0.246   6.268 -0.1651 -0.5506  2.0480
 1766SOL    HW3 6831   2.101   0.170   6.140  0.5158  0.8830  1.0388
 1766SOL    MW4 6832   2.076   0.195   6.220 -0.2318  0.5536  0.9192
 1767SOL     OW 6833   4.687   1.083   6.049 -0.7126  0.2926 -0.0226
 1767SOL    HW2 6834   4.746   1.092   6.124 -0.3424  0.4704 -0.3274
 1767SOL    HW3 6835   4.713   1.001   6.008 -0.6568  0.3841 -0.1725
 1767SOL    MW4 6836   4.698   1.074   6.054 -0.6564  0.3282 -0.0826
 1768SOL     OW 6837   5.703   1.299   0.291  0.4324  0.3080 -0.2763
 1768SOL    HW2 6838   5.695   1.313   0.386  1.0348  0.7289 -0.2775
 1768SOL    HW3 6839   5.652   1.220   0.274  1.4918 -0.6002  0.6338
 1768SOL    MW4 6840   5.695   1.291   0.301  0.6517  0.2438 -0.1564
 1769SOL     OW 6841   0.650   4.591   0.401  0.0459 -0.3472  0.0645
 1769SOL    HW2 6842   0.586   4.555   0.463  1.8229 -0.9111  1.6742
 1769SOL    HW3 6843   0.715   4.634   0.456  0.8479  0.5903 -1.5426
 1769SOL    MW4 6844   0.650   4.592   0.416  0.3862 -0.2979  0.0649
 1770SOL     OW 6845   0.395   6.448   2.814  0.5509 -0.7044 -0.6283
 1770SOL    HW2 6846   0.347   6.531   2.815  1.1306 -0.3703 -0.5060
 1770SOL    HW3 6847   0.343   6.392   2.756  0.4682 -0.0686 -1.1831
 1770SOL    MW4 6848   0.382   6.452   2.806  0.6165 -0.5764 -0.6854
 1771SOL     OW 6849   0.023   3.863   4.377 -0.0237 -0.1757  0.0929
 1771SOL    HW2 6850   0.047   3.869   4.285  1.4805  2.2440  0.5394
 1771SOL    HW3 6851  -0.071   3.881   4.378  0.2877  1.8688 -0.8951
 1771SOL    MW4 6852   0.014   3.866   4.365  0.2159  0.4133  0.0215
 1772SOL     OW 6853   2.105   2.101   1.246 -0.0214  0.2128  0.4782
 1772SOL    HW2 6854   2.061   2.186   1.240  1.3344  0.9809  1.0415
 1772SOL    HW3 6855   2.111   2.071   1.156 -1.4632  0.1892  0.3606
 1772SOL    MW4 6856   2.100   2.109   1.233 -0.0327  0.3110  0.5370
 1773SOL     OW 6857   4.897   6.149   5.387  0.2760  0.0853 -0.1476
 1773SOL    HW2 6858   4.977   6.097   5.372 -0.8301 -1.5140 -0.8125
 1773SOL    HW3 6859   4.928   6.239   5.394  2.3342 -0.6375  1.2608
 1773SOL    MW4 6860   4.912   6.154   5.386  0.4016 -0.2210 -0.0495
 1774SOL     OW 6861   5.745   4.299   3.299  0.3924  0.3794  0.5586
 1774SOL    HW2 6862   5.691   4.285   3.222  2.1458 -0.7336 -0.5395
 1774SOL    HW3 6863   5.769   4.391   3.295 -0.8569  0.7326  0.7175
 1774SOL    MW4 6864   5.741   4.309   3.288  0.4589  0.2792  0.4347
 1775SOL     OW 6865   1.619   4.458   3.165 -0.4538 -1.0614 -0.3446
 1775SOL    HW2 6866   1.581   4.530   3.115 -0.7035  0.0213  1.3017
 1775SOL    HW3 6867   1.577   4.380   3.131 -2.4061 -0.1267 -0.2236
 1775SOL    MW4 6868   1.608   4.458   3.154 -0.7443 -0.7952 -0.1114
 1776SOL     OW 6869   5.518   0.868   2.846 -0.5689  0.2751  0.4935
 1776SOL    HW2 6870   5.537   0.937   2.909 -2.4390 -0.1130  1.5786
 1776SOL    HW3 6871   5.425   0.848   2.859 -0.4226 -1.5165 -0.7173
 1776SOL    MW4 6872   5.508   0.874   2.856 -0.7963 -0.0125  0.4769
 1777SOL     OW 6873   1.437   0.044   6.048  0.6464  0.3514 -0.1680
 1777SOL    HW2 6874   1.375   0.081   6.110  0.3187  3.6330 -2.1834
 1777SOL    HW3 6875   1.519   0.036   6.097 -0.3060 -0.0963  1.4182
 1777SOL    MW4 6876   1.440   0.048   6.063  0.4775  0.7253 -0.2246
 1778SOL     OW 6877   5.492   3.817   2.405  0.1376 -0.4646  0.7952
 1778SOL    HW2 6878   5.526   3.824   2.494  0.3965  0.2599  0.6437
 1778SOL    HW3 6879   5.397   3.809   2.417  0.2781 -1.8557  1.1880
 1778SOL    MW4 6880   5.484   3.817   2.419  0.1903 -0.5526  0.8271
 1779SOL     OW 6881   4.593   3.002   2.203  0.4831  0.3414  0.6438
 1779SOL    HW2 6882   4.614   2.915   2.170  0.9784  1.6740 -2.9564
 1779SOL    HW3 6883   4.649   3.061   2.154 -1.6319  2.9030  1.0685
 1779SOL    MW4 6884   4.603   2.998   2.192  0.2694  0.8552  0.2249
 1780SOL     OW 6885   5.010   3.609   1.616  0.2718  1.2092  0.0783
 1780SOL    HW2 6886   5.102   3.637   1.623  0.1947  1.2169  1.1457
 1780SOL    HW3 6887   4.980   3.603   1.706 -0.6562  0.7684 -0.2548
 1780SOL    MW4 6888   5.018   3.612   1.629  0.1392  1.1520  0.1752
 1781SOL     OW 6889   2.947   3.539   0.906 -0.6804 -0.0634 -0.1512
 1781SOL    HW2 6890   2.995   3.614   0.942  0.1395 -1.8190  2.7170
 1781SOL    HW3 6891   3.014   3.483   0.867 -1.1307  0.0049 -1.0728
 1781SOL    MW4 6892   2.962   3.542   0.906 -0.6316 -0.2860  0.1056
 1782SOL     OW 6893   5.608   2.521   4.023 -0.0821  0.1629 -0.6772
 1782SOL    HW2 6894   5.529   2.573   4.005  0.2878  1.6502  1.5954
 1782SOL    HW3 6895   5.679   2.584   4.023  0.7674 -0.7627 -0.3327
 1782SOL    MW4 6896   5.607   2.536   4.021  0.0788  0.2370 -0.3319
 1783SOL     OW 6897   0.386   3.337   3.753  0.1571  0.0272 -0.0853
 1783SOL    HW2 6898   0.450   3.304   3.691 -0.2322  0.1037 -0.5347
 1783SOL    HW3 6899   0.310   3.279   3.742  0.4570 -0.6147  1.0637
 1783SOL    MW4 6900   0.384   3.325   3.743  0.1453 -0.0474  0.0070
 1784SOL     OW 6901   1.005   1.188   0.083 -0.1877  0.2939 -0.2507
 1784SOL    HW2 6902   1.071   1.120   0.094 -0.1149  0.3591 -0.2808
 1784SOL    HW3 6903   1.024   1.225  -0.004  1.3461  2.0404  0.7522
 1784SOL    MW4 6904   1.016   1.184   0.073  0.0243  0.5329 -0.1223
 1785SOL     OW 6905   0.953   0.704   0.053  0.4359  0.2046  0.1623
 1785SOL    HW2 6906   0.974   0.685   0.145 -1.6443 -1.5600  0.3621
 1785SOL    HW3 6907   0.924   0.795   0.054  2.3375  0.8455  0.8589
 1785SOL    MW4 6908   0.952   0.713   0.066  0.4123  0.0564  0.2806
 1786SOL     OW 6909   1.240   3.934   2.523  0.1976  0.6176 -0.0132
 1786SOL    HW2 6910   1.219   3.886   2.604  0.7871 -0.2188 -0.3417
 1786SOL    HW3 6911   1.302   3.877   2.477 -0.1069  1.0984 -1.0447
 1786SOL    MW4 6912   1.245   3.920   2.528  0.2352  0.5707 -0.1926
 1787SOL     OW 6913   2.171   4.808   4.779  0.9302 -0.1893 -0.2946
 1787SOL    HW2 6914   2.182   4.734   4.720 -3.6713  1.4182 -3.7516
 1787SOL    HW3 6915   2.083   4.798   4.815  0.8856  2.5592  0.6175
 1787SOL    MW4 6916   2.161   4.797   4.776  0.3172  0.3854 -0.6303
 1788SOL     OW 6917   3.696   6.348   0.815  0.1692  0.1301 -0.3411
 1788SOL    HW2 6918   3.678   6.333   0.722 -0.3637 -2.2247  0.0897
 1788SOL    HW3 6919   3.765   6.286   0.837  0.2997  0.6627  0.8517
 1788SOL    MW4 6920   3.703   6.338   0.806  0.1161 -0.1103 -0.1269
 1789SOL     OW 6921   3.955   4.615   2.763  0.0754  0.9907 -0.4800
 1789SOL    HW2 6922   3.993   4.689   2.716 -1.3335  0.3683 -2.7171
 1789SOL    HW3 6923   4.001   4.539   2.729 -0.7139  0.5582 -0.5921
 1789SOL    MW4 6924   3.966   4.615   2.753 -0.2146  0.8515 -0.7899
 1790SOL     OW 6925   3.540   3.828   0.173  0.7282  0.1965  0.4928
 1790SOL    HW2 6926   3.474   3.767   0.205 -0.3458  1.4780  0.7893
 1790SOL    HW3 6927   3.612   3.772   0.142  1.0758 -1.1872  3.4591
 1790SOL    MW4 6928   3.541   3.813   0.173  0.6324  0.1830  0.9233
 1791SOL     OW 6929   0.820   3.869   6.041 -0.3572 -0.7684 -0.5181
 1791SOL    HW2 6930   0.789   3.851   6.130  0.9149 -2.7513 -0.4082
 1791SOL    HW3 6931   0.803   3.962   6.028  0.3500 -0.1575  2.2078
 1791SOL    MW4 6932   0.814   3.878   6.051 -0.0960 -0.9494 -0.1439
 1792SOL     OW 6933   3.296   6.208   6.393  0.1280  0.2806  0.3002
 1792SOL    HW2 6934   3.207   6.199   6.425 -1.1523 -1.5825 -3.2876
 1792SOL    HW3 6935   3.303   6.300   6.367 -0.7038  0.4677  0.7114
 1792SOL    MW4 6936   3.285   6.219   6.394 -0.1507  0.0595 -0.1189
 1793SOL     OW 6937   2.393   4.024   3.289 -0.4634  0.1158 -0.3810
 1793SOL    HW2 6938   2.474   4.001   3.241 -0.4340  0.9898 -0.7768
 1793SOL    HW3 6939   2.415   4.104   3.335  0.0470 -1.5785  2.5440
 1793SOL    MW4 6940   2.407   4.031   3.288 -0.3922  0.0076 -0.0473
 1794SOL     OW 6941   0.863   3.616   5.448  0.2379 -0.4850 -0.5356
 1794SOL    HW2 6942   0.808   3.541   5.425 -0.2226  0.0037 -1.0680
 1794SOL    HW3 6943   0.942   3.604   5.396 -0.6335  0.4044 -2.1369
 1794SOL    MW4 6944   0.866   3.604   5.438  0.0622 -0.3031 -0.8171
 1795SOL     OW 6945   0.298   5.857   1.618 -0.1272 -0.2649  0.6278
 1795SOL    HW2 6946   0.332   5.767   1.617  1.9240  0.4574  1.7283
 1795SOL    HW3 6947   0.203   5.845   1.624  0.1620 -2.4061  2.9775
 1795SOL    MW4 6948   0.290   5.843   1.619  0.1816 -0.4521  1.0830
 1796SOL     OW 6949   0.484   3.234   0.721  0.0144 -0.2789  0.0759
 1796SOL    HW2 6950   0.410   3.210   0.664  0.0125  0.7013 -0.3559
 1796SOL    HW3 6951   0.452   3.309   0.771  0.8146  0.3650 -0.3471
 1796SOL    MW4 6952   0.470   3.241   0.720  0.1197 -0.0646 -0.0369
 1797SOL     OW 6953   5.859   3.206   5.314 -0.1378 -0.2709 -0.0575
 1797SOL    HW2 6954   5.847   3.170   5.226  0.0833  1.4900 -0.8471
 1797SOL    HW3 6955   5.871   3.129   5.370 -0.6771 -1.4415 -1.4914
 1797SOL    MW4 6956   5.859   3.191   5.310 -0.1798 -0.1930 -0.3509
 1798SOL     OW 6957   4.555   3.586   1.788 -0.1807  0.2832 -0.1608
 1798SOL    HW2 6958   4.499   3.580   1.865 -0.6332  1.7129 -0.3492
 1798SOL    HW3 6959   4.622   3.650   1.812 -0.3114  0.7262 -0.9398
 1798SOL    MW4 6960   4.557   3.593   1.801 -0.2576  0.5303 -0.2884
 1799SOL     OW 6961   6.001   4.967   2.868  0.3959  0.1153  0.3876
 1799SOL    HW2 6962   6.054   4.889   2.854 -0.8726 -0.5997 -0.7110
 1799SOL    HW3 6963   6.009   5.017   2.787 -0.5106  0.0389  0.2395
 1799SOL    MW4 6964   6.009   4.963   2.855  0.1089  0.0109  0.2231
 1800SOL     OW 6965   2.953   0.419   5.870  0.5031 -0.6065 -0.2942
 1800SOL    HW2 6966   2.906   0.371   5.801  0.8711 -0.3464 -0.7365
 1800SOL    HW3 6967   3.045   0.413   5.844  0.4411  1.8079 -1.3287
 1800SOL    MW4 6968   2.959   0.412   5.857  0.5435 -0.2536 -0.4891
 1801SOL     OW 6969   2.010   3.339   3.529  0.0147 -0.1070  0.1796
 1801SOL    HW2 6970   1.928   3.342   3.479  0.2903  0.3161 -0.2599
 1801SOL    HW3 6971   1.985   3.364   3.618 -0.0749  1.7821 -0.3189
 1801SOL    MW4 6972   1.996   3.343   3.534  0.0392  0.1980  0.0558
 1802SOL     OW 6973   1.206   5.074   4.980  0.3792 -0.0200  0.1869
 1802SOL    HW2 6974   1.134   5.104   5.034  0.9160 -1.6101  1.8797
 1802SOL    HW3 6975   1.165   5.032   4.905 -0.3797  1.2365 -0.1367
 1802SOL    MW4 6976   1.191   5.073   4.977  0.3499 -0.0640  0.3675
 1803SOL     OW 6977   4.930   1.073   1.780 -0.4220  0.2406 -0.6981
 1803SOL    HW2 6978   4.976   1.102   1.859 -1.1204  0.6214 -0.4190
 1803SOL    HW3 6979   4.880   0.997   1.808  0.5285 -0.5708 -1.1586
 1803SOL    MW4 6980   4.929   1.067   1.794 -0.3887  0.1838 -0.7220
 1804SOL     OW 6981   3.568   3.547   3.457  0.0752 -0.8016 -0.4162
 1804SOL    HW2 6982   3.497   3.506   3.507 -2.5720  4.1673  0.5266
 1804SOL    HW3 6983   3.542   3.538   3.366 -2.5246  1.6972 -0.0574
 1804SOL    MW4 6984   3.555   3.540   3.452 -0.6171  0.1837 -0.2445
 1805SOL     OW 6985   0.917   1.152   4.372  0.2206 -0.5835  0.2777
 1805SOL    HW2 6986   0.935   1.130   4.464  1.3876  1.2338  0.5349
 1805SOL    HW3 6987   0.953   1.240   4.361 -0.3683 -0.5555 -1.8013
 1805SOL    MW4 6988   0.924   1.160   4.383  0.2969 -0.3400  0.0374
 1806SOL     OW 6989   4.871   1.181   6.398 -0.3072  0.0614  0.0118
 1806SOL    HW2 6990   4.869   1.110   6.334  1.5780 -0.0731  0.0650
 1806SOL    HW3 6991   4.934   1.153   6.464  0.3849  1.7123  0.1075
 1806SOL    MW4 6992   4.879   1.168   6.399  0.0329  0.2615  0.0315
 1807SOL     OW 6993   3.217   3.918   0.052  0.5028  0.1190  0.0390
 1807SOL    HW2 6994   3.223   3.845   0.112  1.4376  0.2336  0.1048
 1807SOL    HW3 6995   3.270   3.987   0.093 -1.6811  1.4290  0.7962
 1807SOL    MW4 6996   3.225   3.918   0.065  0.3380  0.3070  0.1476
 1808SOL     OW 6997   6.374   4.750   5.758  0.7711 -0.3034  0.3491
 1808SOL    HW2 6998   6.409   4.694   5.826 -0.3576  0.0220  1.2372
 1808SOL    HW3 6999   6.389   4.702   5.677  2.3732 -0.5833  0.7755
 1808SOL    MW4 7000   6.381   4.737   5.756  0.8336 -0.2974  0.5225
 1809SOL     OW 7001   1.097   2.745   2.476  0.0450 -0.0090 -0.4140
 1809SOL    HW2 7002   1.062   2.657   2.463 -0.9499  0.7350 -3.5207
 1809SOL    HW3 7003   1.062   2.772   2.561 -1.5281 -1.7626 -0.4380
 1809SOL    MW4 7004   1.088   2.737   2.486 -0.2938 -0.1422 -0.8271
 1810SOL     OW 7005   5.062   3.632   5.732  0.5978 -0.2465  0.3285
 1810SOL    HW2 7006   4.990   3.667   5.678  0.5953 -1.0547 -0.2132
 1810SOL    HW3 7007   5.037   3.652   5.822 -0.6266 -1.0486  0.1929
 1810SOL    MW4 7008   5.049   3.639   5.737  0.4359 -0.4590  0.2391
 1811SOL     OW 7009   0.722   6.337   0.119  0.3225 -0.4824  0.3565
 1811SOL    HW2 7010   0.797   6.285   0.090  1.9705  2.0372 -0.3398
 1811SOL    HW3 7011   0.737   6.352   0.212  0.7690  0.0421  0.2124
 1811SOL    MW4 7012   0.734   6.332   0.127  0.5989 -0.0807  0.2456
 1812SOL     OW 7013   0.067   3.552   2.053 -0.1939  0.0431  0.3029
 1812SOL    HW2 7014   0.079   3.478   2.112  0.5217  1.5034  2.0661
 1812SOL    HW3 7015  -0.020   3.539   2.015 -0.0536 -1.7048  0.5293
 1812SOL    MW4 7016   0.057   3.541   2.056 -0.0810  0.0052  0.5654
 1813SOL     OW 7017   1.194   2.731   2.184 -0.1779  0.0399  0.5383
 1813SOL    HW2 7018   1.251   2.774   2.249  0.0130  0.2414  0.2407
 1813SOL    HW3 7019   1.233   2.753   2.100  0.6624 -1.7874  0.4155
 1813SOL    MW4 7020   1.207   2.740   2.182 -0.0418 -0.1746  0.4829
 1814SOL     OW 7021   5.824   3.988   6.329  0.5012 -0.2213  0.0486
 1814SOL    HW2 7022   5.745   3.973   6.380  1.3695 -3.1783  0.7235
 1814SOL    HW3 7023   5.793   3.994   6.238 -0.4657 -3.1135  0.0743
 1814SOL    MW4 7024   5.809   3.987   6.323  0.4882 -0.9931  0.1410
 1815SOL     OW 7025   1.803   4.859   2.562 -0.6345  0.5379  0.2137
 1815SOL    HW2 7026   1.765   4.792   2.619  0.6634  0.9915  1.6776
 1815SOL    HW3 7027   1.883   4.819   2.528  0.9223  1.7291  2.2244
 1815SOL    MW4 7028   1.808   4.845   2.565 -0.2578  0.7549  0.6721
 1816SOL     OW 7029   1.725   1.358   2.687  0.1591  0.4948 -0.2165
 1816SOL    HW2 7030   1.776   1.277   2.681  0.1131  0.5065 -0.8441
 1816SOL    HW3 7031   1.645   1.333   2.732  0.0692  0.1459 -0.5591
 1816SOL    MW4 7032   1.721   1.344   2.692  0.1412  0.4503 -0.3445
 1817SOL     OW 7033   1.417   4.753   1.569 -0.2141 -0.0891 -0.1891
 1817SOL    HW2 7034   1.368   4.736   1.650  0.9498 -0.6922  0.4151
 1817SOL    HW3 7035   1.502   4.713   1.584 -0.0572 -0.4397 -1.8355
 1817SOL    MW4 7036   1.421   4.746   1.582 -0.0398 -0.2149 -0.3266
 1818SOL     OW 7037   0.527   6.079   2.130  0.5055  0.1895  0.7373
 1818SOL    HW2 7038   0.458   6.085   2.065  0.0840 -0.5895  1.1068
 1818SOL    HW3 7039   0.490   6.027   2.201  1.5995 -0.6153  0.7578
 1818SOL    MW4 7040   0.513   6.073   2.131  0.5943 -0.0195  0.7888
 1819SOL     OW 7041   6.425   4.795   1.679  0.1284 -0.1861  0.6094
 1819SOL    HW2 7042   6.478   4.718   1.699 -0.0073 -0.2483  0.7304
 1819SOL    HW3 7043   6.488   4.859   1.647  0.2347 -0.3646  0.4609
 1819SOL    MW4 7044   6.440   4.793   1.678  0.1245 -0.2179  0.6058
 1820SOL     OW 7045   4.815   6.373   3.593  0.1017 -0.1823 -0.2085
 1820SOL    HW2 7046   4.740   6.432   3.605  0.9128  0.4919  2.0016
 1820SOL    HW3 7047   4.834   6.341   3.681  0.3714 -2.9776 -1.1853
 1820SOL    MW4 7048   4.808   6.376   3.606  0.2443 -0.4621 -0.0458
 1821SOL     OW 7049   2.783   3.013   1.710 -0.2350 -0.2117 -0.1689
 1821SOL    HW2 7050   2.864   2.984   1.668 -0.2521 -0.4260 -0.0581
 1821SOL    HW3 7051   2.744   2.932   1.744 -0.0880 -0.0097  0.4937
 1821SOL    MW4 7052   2.788   2.998   1.709 -0.2178 -0.2134 -0.0668
 1822SOL     OW 7053   5.187   4.958   4.435 -0.6516 -0.2048  0.5754
 1822SOL    HW2 7054   5.164   4.941   4.526  1.5793  0.5538  1.3399
 1822SOL    HW3 7055   5.168   5.051   4.422 -0.9313 -0.3012  0.2596
 1822SOL    MW4 7056   5.182   4.968   4.445 -0.3942 -0.1174  0.6346
 1823SOL     OW 7057   1.538   1.352   3.699  0.0541  0.3827 -0.1211
 1823SOL    HW2 7058   1.493   1.428   3.735  1.0246  0.9028  0.0275
 1823SOL    HW3 7059   1.472   1.283   3.699 -0.3543  0.7216  1.4485
 1823SOL    MW4 7060   1.523   1.353   3.704  0.1283  0.4960  0.1056
 1824SOL     OW 7061   5.424   4.263   6.245  0.1718  0.4326 -0.1466
 1824SOL    HW2 7062   5.500   4.278   6.301 -1.3580  0.0732  2.1670
 1824SOL    HW3 7063   5.350   4.296   6.296 -1.3932 -0.4282 -1.7544
 1824SOL    MW4 7064   5.425   4.270   6.259 -0.2365  0.2716 -0.0535
 1825SOL     OW 7065   1.297   6.089   5.081  0.7402 -0.5129 -0.1009
 1825SOL    HW2 7066   1.345   6.111   5.161  1.5096 -0.6660 -0.5108
 1825SOL    HW3 7067   1.205   6.101   5.104  1.0256  1.3098  0.2682
 1825SOL    MW4 7068   1.291   6.094   5.094  0.8793 -0.2926 -0.1063
 1826SOL     OW 7069   2.524   2.356   3.725 -0.8368  0.5086  0.4732
 1826SOL    HW2 7070   2.572   2.282   3.688  0.7236  1.1185  1.1693
 1826SOL    HW3 7071   2.520   2.420   3.654 -2.1391 -0.1679 -0.1125
 1826SOL    MW4 7072   2.530   2.355   3.711 -0.8028  0.4998  0.4878
 1827SOL     OW 7073   1.845   3.834   2.865 -0.0268 -0.0625  0.2530
 1827SOL    HW2 7074   1.839   3.739   2.876 -1.6632  0.1708  1.8018
 1827SOL    HW3 7075   1.785   3.854   2.793 -0.9512 -0.0618  1.0034
 1827SOL    MW4 7076   1.836   3.824   2.857 -0.3647 -0.0316  0.5563
 1828SOL     OW 7077   0.081   5.463   5.352  0.4914 -0.6701  0.1814
 1828SOL    HW2 7078   0.039   5.386   5.390 -0.4756 -0.3643 -0.2383
 1828SOL    HW3 7079   0.012   5.506   5.301  1.1177  0.2597  0.0842
 1828SOL    MW4 7080   0.067   5.458   5.350  0.4465 -0.5071  0.1132
 1829SOL     OW 7081   0.148   0.779   6.313  0.0066 -0.4344  0.2415
 1829SOL    HW2 7082   0.104   0.860   6.338  0.9894 -0.0651  0.8616
 1829SOL    HW3 7083   0.233   0.808   6.279 -0.1813 -1.1258 -0.8462
 1829SOL    MW4 7084   0.153   0.793   6.312  0.1115 -0.4769  0.1798
 1830SOL     OW 7085   5.803   5.391   4.877 -0.4057  0.3149  0.1970
 1830SOL    HW2 7086   5.766   5.377   4.790 -1.0977 -1.8048  0.7852
 1830SOL    HW3 7087   5.727   5.397   4.935  0.0773 -0.6868  0.9583
 1830SOL    MW4 7088   5.788   5.390   4.873 -0.4333 -0.0969  0.3751
 1831SOL     OW 7089   3.468   5.256   3.644  0.0081  0.3290  0.1192
 1831SOL    HW2 7090   3.450   5.346   3.616  2.0902  0.6948 -0.1613
 1831SOL    HW3 7091   3.481   5.262   3.738 -0.9563  0.1110  0.2773
 1831SOL    MW4 7092   3.467   5.269   3.653  0.1556  0.3485  0.1030
 1832SOL     OW 7093   6.398   3.695   0.663  0.0297  0.0377 -1.0244
 1832SOL    HW2 7094   6.342   3.703   0.740  0.8659  0.1558 -0.4191
 1832SOL    HW3 7095   6.338   3.705   0.589 -1.3232 -3.1476 -0.4973
 1832SOL    MW4 7096   6.383   3.698   0.663 -0.0385 -0.3670 -0.8750
 1833SOL     OW 7097   3.660   2.041   1.266 -0.2277 -0.5068 -0.0447
 1833SOL    HW2 7098   3.690   2.100   1.336  1.1690 -0.9984 -0.1842
 1833SOL    HW3 7099   3.624   1.966   1.313 -0.9771 -0.0469  0.1322
 1833SOL    MW4 7100   3.660   2.039   1.282 -0.1423 -0.5110 -0.0398
 1834SOL     OW 7101   2.628   0.830   1.813  0.0846 -0.0171  0.2089
 1834SOL    HW2 7102   2.538   0.839   1.783 -0.4091  1.2548  1.9330
 1834SOL    HW3 7103   2.663   0.919   1.811  1.1066 -0.4115  0.1474
 1834SOL    MW4 7104   2.621   0.843   1.809  0.1543  0.0986  0.4283
 1835SOL     OW 7105   1.086   5.558   3.532  0.1203 -0.0346  0.8032
 1835SOL    HW2 7106   1.151   5.508   3.582  1.1410  0.4378 -0.0043
 1835SOL    HW3 7107   1.085   5.516   3.446  0.2343  0.6745  0.4420
 1835SOL    MW4 7108   1.095   5.546   3.527  0.2700  0.1213  0.6490
 1836SOL     OW 7109   1.491   0.200   0.042  0.0757  0.0459 -0.1036
 1836SOL    HW2 7110   1.480   0.132   0.108  0.6941 -1.4849 -1.4911
 1836SOL    HW3 7111   1.580   0.186   0.009 -0.4038  0.3944 -1.6143
 1836SOL    MW4 7112   1.501   0.189   0.046  0.0940 -0.1100 -0.4860
 1837SOL     OW 7113   5.349   1.891   2.187 -0.4461  0.1969  0.3779
 1837SOL    HW2 7114   5.360   1.965   2.247  0.2366  0.6764 -0.3240
 1837SOL    HW3 7115   5.385   1.922   2.104  0.3990 -1.1307  0.2287
 1837SOL    MW4 7116   5.355   1.905   2.184 -0.2445  0.0850  0.2656
 1838SOL     OW 7117   2.698   4.945   1.847 -0.0349 -0.1190 -0.0550
 1838SOL    HW2 7118   2.664   4.960   1.759 -0.5548 -0.2177  0.1296
 1838SOL    HW3 7119   2.784   4.987   1.846 -0.3613  0.5613 -0.3667
 1838SOL    MW4 7120   2.705   4.953   1.835 -0.1466 -0.0423 -0.0718
 1839SOL     OW 7121   1.644   4.317   4.133  1.0137 -0.0111 -0.4979
 1839SOL    HW2 7122   1.600   4.365   4.063 -0.0859 -0.3966 -0.1000
 1839SOL    HW3 7123   1.737   4.330   4.117  0.8838 -1.4656 -3.0206
 1839SOL    MW4 7124   1.650   4.325   4.122  0.8515 -0.2539 -0.7782
 1840SOL     OW 7125   3.745   5.518   4.543  0.0732 -0.1700  0.6636
 1840SOL    HW2 7126   3.739   5.612   4.560 -0.0328 -0.0003 -0.2331
 1840SOL    HW3 7127   3.825   5.508   4.492 -0.0788 -0.5212  0.4867
 1840SOL    MW4 7128   3.755   5.529   4.538  0.0391 -0.1940  0.5220
 1841SOL     OW 7129   1.746   1.978   4.146 -0.3600  0.3846 -0.1653
 1841SOL    HW2 7130   1.727   2.057   4.095  0.5609 -0.4916 -1.9559
 1841SOL    HW3 7131   1.660   1.942   4.167 -0.8549 -0.2923 -2.9343
 1841SOL    MW4 7132   1.732   1.984   4.142 -0.3038  0.1797 -0.7669
 1842SOL     OW 7133   0.239   5.373   2.568  0.4198  0.5534  0.1312
 1842SOL    HW2 7134   0.275   5.452   2.607 -0.2338  2.0096 -2.0096
 1842SOL    HW3 7135   0.314   5.332   2.523  0.3997  0.9813 -0.3020
 1842SOL    MW4 7136   0.254   5.378   2.567  0.3309  0.8019 -0.2084
 1843SOL     OW 7137   3.883   2.383   0.647 -0.1519 -0.8778 -0.9816
 1843SOL    HW2 7138   3.936   2.372   0.726  0.3584 -1.6571 -1.4255
 1843SOL    HW3 7139   3.823   2.455   0.669 -1.7167 -2.6457  1.0442
 1843SOL    MW4 7140   3.882   2.391   0.661 -0.2910 -1.2139 -0.7729
 1844SOL     OW 7141   3.826   5.473   2.357 -0.4994  0.2405  0.9198
 1844SOL    HW2 7142   3.758   5.419   2.317  0.0333 -0.0260  0.3474
 1844SOL    HW3 7143   3.779   5.543   2.401 -1.1240  0.3242  0.1383
 1844SOL    MW4 7144   3.811   5.475   2.358 -0.5115  0.2163  0.7411
 1845SOL     OW 7145   2.417   0.788   3.307  0.4294  0.6549  0.2668
 1845SOL    HW2 7146   2.433   0.871   3.351 -0.5077  0.4156  1.0938
 1845SOL    HW3 7147   2.347   0.747   3.358 -1.8209  1.0518 -2.2775
 1845SOL    MW4 7148   2.410   0.794   3.319  0.0088  0.6757  0.0402
 1846SOL     OW 7149   0.452   4.814   0.624 -0.1534 -0.3017 -0.2246
 1846SOL    HW2 7150   0.445   4.883   0.690 -0.9596  0.1814 -0.7957
 1846SOL    HW3 7151   0.392   4.746   0.655  0.3607 -0.5919  0.1457
 1846SOL    MW4 7152   0.443   4.814   0.637 -0.1920 -0.2763 -0.2511
 1847SOL     OW 7153   5.297   3.716   0.681  0.7747  0.4878 -0.0181
 1847SOL    HW2 7154   5.283   3.776   0.754  0.9461 -0.0442  0.4577
 1847SOL    HW3 7155   5.291   3.771   0.603 -0.2080  0.9229  0.3540
 1847SOL    MW4 7156   5.294   3.731   0.681  0.6677  0.4750  0.0937
 1848SOL     OW 7157   4.435   3.252   2.467  0.2601  0.2349  0.0729
 1848SOL    HW2 7158   4.373   3.180   2.452  1.0666 -1.0866  2.5748
 1848SOL    HW3 7159   4.456   3.283   2.379 -1.8218 -1.0918 -0.9874
 1848SOL    MW4 7160   4.429   3.246   2.453  0.0919 -0.1145  0.2631
 1849SOL     OW 7161   0.844   3.388   5.859  0.0770  0.3245  0.0836
 1849SOL    HW2 7162   0.868   3.450   5.928  0.4357  0.0819  0.1824
 1849SOL    HW3 7163   0.862   3.302   5.897  3.4798  0.2039 -1.4037
 1849SOL    MW4 7164   0.849   3.385   5.873  0.5733  0.2766 -0.0996
 1850SOL     OW 7165   5.998   5.970   0.562 -0.3568  0.0632 -0.2107
 1850SOL    HW2 7166   5.997   6.066   0.565  0.0134  0.0496  0.8592
 1850SOL    HW3 7167   5.907   5.944   0.576 -0.0808  0.2358  2.2926
 1850SOL    MW4 7168   5.986   5.979   0.564 -0.2715  0.0841  0.2607
 1851SOL     OW 7169   5.582   1.167   0.737 -0.9293 -0.7411  0.0157
 1851SOL    HW2 7170   5.513   1.154   0.672 -1.0305 -0.3653  0.0452
 1851SOL    HW3 7171   5.537   1.206   0.812 -1.0286 -2.1913  0.7581
 1851SOL    MW4 7172   5.567   1.170   0.738 -0.9558 -0.8829  0.1175
 1852SOL     OW 7173   5.879   5.435   1.533  0.1252  0.0780 -0.2086
 1852SOL    HW2 7174   5.915   5.451   1.620  1.1925  0.5254 -0.7028
 1852SOL    HW3 7175   5.798   5.485   1.530 -0.2859 -0.5123  0.7630
 1852SOL    MW4 7176   5.873   5.444   1.544  0.2118  0.0592 -0.1456
 1853SOL     OW 7177   3.207   5.608   1.974 -0.0160  0.3915 -0.1232
 1853SOL    HW2 7178   3.120   5.606   2.015  1.7398 -1.5644  4.0475
 1853SOL    HW3 7179   3.249   5.684   2.014  1.4776 -1.0804  1.2370
 1853SOL    MW4 7180   3.201   5.618   1.985  0.4128 -0.0608  0.6066
 1854SOL     OW 7181   0.089   6.345   1.787  0.6765  0.3393 -0.0527
 1854SOL    HW2 7182   0.170   6.385   1.819  0.6489  0.5910 -0.2933
 1854SOL    HW3 7183   0.022   6.412   1.803  0.0896 -0.6947  2.2385
 1854SOL    MW4 7184   0.091   6.359   1.794  0.5955  0.2361  0.2178
 1855SOL     OW 7185   1.669   2.977   2.256  0.1240  0.6647 -0.6216
 1855SOL    HW2 7186   1.744   2.931   2.217  1.8273  1.7275  1.2207
 1855SOL    HW3 7187   1.646   2.925   2.333 -1.0617  0.3615 -1.1596
 1855SOL    MW4 7188   1.676   2.964   2.261  0.1923  0.7649 -0.4495
 1856SOL     OW 7189   0.777   5.759   2.902 -0.5741  0.1891  0.3951
 1856SOL    HW2 7190   0.846   5.706   2.861 -0.2895  1.2861 -0.6030
 1856SOL    HW3 7191   0.712   5.695   2.931  0.6427 -0.8421  0.9655
 1856SOL    MW4 7192   0.778   5.744   2.901 -0.3760  0.1978  0.3387
 1857SOL     OW 7193   3.671   4.417   0.212 -0.1068 -0.3951  0.2109
 1857SOL    HW2 7194   3.748   4.423   0.156 -0.9329 -1.0312 -1.0342
 1857SOL    HW3 7195   3.700   4.365   0.287  0.7932 -0.2376 -0.0130
 1857SOL    MW4 7196   3.685   4.411   0.214 -0.0970 -0.4583  0.0171
 1858SOL     OW 7197   4.608   0.515   0.751  0.0401  0.2108  0.0137
 1858SOL    HW2 7198   4.603   0.438   0.807 -0.5357  0.3317  0.1324
 1858SOL    HW3 7199   4.615   0.480   0.662  0.0858  0.0244  0.0907
 1858SOL    MW4 7200   4.608   0.500   0.747 -0.0299  0.2022  0.0395
 1859SOL     OW 7201   4.060   0.263   0.040  0.2843 -0.0529 -0.2028
 1859SOL    HW2 7202   4.089   0.300   0.124 -2.2470  0.2215  0.6427
 1859SOL    HW3 7203   3.983   0.211   0.063  0.4017 -1.1994 -2.1881
 1859SOL    MW4 7204   4.054   0.261   0.054 -0.0342 -0.1680 -0.3532
 1860SOL     OW 7205   1.084   0.869   3.977 -1.1775  0.5183 -0.1046
 1860SOL    HW2 7206   1.147   0.937   3.996 -1.4428  0.0048  3.1083
 1860SOL    HW3 7207   1.015   0.880   4.042 -1.6341 -2.2777  0.0443
 1860SOL    MW4 7208   1.083   0.879   3.988 -1.2727  0.0817  0.3389
 1861SOL     OW 7209   5.116   2.463   4.346 -0.0757  0.4058  1.1339
 1861SOL    HW2 7210   5.086   2.534   4.403 -1.2039 -0.6245  1.8661
 1861SOL    HW3 7211   5.041   2.445   4.288 -0.1613 -0.8027  1.5860
 1861SOL    MW4 7212   5.102   2.470   4.346 -0.2359  0.1104  1.2902
 1862SOL     OW 7213   1.223   2.467   1.687 -0.0487  0.0953 -0.3470
 1862SOL    HW2 7214   1.293   2.422   1.734 -0.5943 -1.2652 -0.7823
 1862SOL    HW3 7215   1.208   2.547   1.737  1.6338  0.2880 -0.1034
 1862SOL    MW4 7216   1.230   2.472   1.700  0.1013 -0.0588 -0.3723
 1863SOL     OW 7217   3.852   3.554   0.749  0.0149 -0.3697  0.5206
 1863SOL    HW2 7218   3.844   3.596   0.664 -0.0372 -0.9362  0.2434
 1863SOL    HW3 7219   3.790   3.600   0.805  0.6236  0.5469  0.4742
 1863SOL    MW4 7220   3.843   3.565   0.745  0.0884 -0.3235  0.4779
 1864SOL     OW 7221   3.025   2.440   0.094  0.0275 -0.3093  0.5485
 1864SOL    HW2 7222   3.032   2.511   0.158  1.2861 -0.4091  0.5445
 1864SOL    HW3 7223   2.963   2.379   0.133 -1.0590  0.7597  0.5653
 1864SOL    MW4 7224   3.018   2.441   0.108  0.0502 -0.1814  0.5502
 1865SOL     OW 7225   0.347   2.568   0.632  0.0789 -0.3823  0.0394
 1865SOL    HW2 7226   0.334   2.496   0.570  0.9268  0.0173 -0.6278
 1865SOL    HW3 7227   0.264   2.614   0.635 -0.1137 -0.7027 -0.4210
 1865SOL    MW4 7228   0.335   2.564   0.625  0.1654 -0.3718 -0.1093
 1866SOL     OW 7229   2.082   0.943   0.175 -0.5261 -0.3249  0.3213
 1866SOL    HW2 7230   2.008   0.981   0.223 -0.5387  2.7283 -1.8797
 1866SOL    HW3 7231   2.053   0.940   0.084  1.2139 -1.4209 -0.2423
 1866SOL    MW4 7232   2.068   0.948   0.170 -0.2982 -0.0667 -0.0434
 1867SOL     OW 7233   1.271   6.391   5.283 -0.4436 -0.5051  0.1756
 1867SOL    HW2 7234   1.188   6.435   5.297 -0.9997 -1.2124 -0.7653
 1867SOL    HW3 7235   1.337   6.459   5.294 -1.1351  0.0723  0.8979
 1867SOL    MW4 7236   1.269   6.406   5.287 -0.6082 -0.5222  0.1468
 1868SOL     OW 7237   3.319   1.455   4.808  0.2574 -0.1623  0.4519
 1868SOL    HW2 7238   3.298   1.373   4.764  0.3098 -0.1226  0.3532
 1868SOL    HW3 7239   3.351   1.428   4.894 -3.9315 -0.1720  2.2640
 1868SOL    MW4 7240   3.321   1.441   4.814 -0.2884 -0.1583  0.6780
 1869SOL     OW 7241   3.812   2.975   0.908  0.1685 -0.3029 -0.3402
 1869SOL    HW2 7242   3.852   3.058   0.933  0.3538 -0.9264  1.5587
 1869SOL    HW3 7243   3.884   2.924   0.871  0.6267 -0.5049  0.7797
 1869SOL    MW4 7244   3.827   2.979   0.906  0.2534 -0.4118  0.0581
 1870SOL     OW 7245   0.081   4.431   4.647  0.0403  0.2236  0.4778
 1870SOL    HW2 7246   0.136   4.440   4.724  1.3965 -1.0051 -0.3036
 1870SOL    HW3 7247   0.089   4.339   4.622 -1.8094  0.1788 -0.1000
 1870SOL    MW4 7248   0.089   4.420   4.654 -0.0248  0.0556  0.2984
 1871SOL     OW 7249   2.540   1.797   1.759 -0.3146 -0.2910 -0.3901
 1871SOL    HW2 7250   2.577   1.868   1.707 -2.0470  0.5254 -0.5774
 1871SOL    HW3 7251   2.445   1.805   1.746 -0.5867 -2.2487  0.0989
 1871SOL    MW4 7252   2.532   1.807   1.750 -0.5791 -0.4416 -0.3503
 1872SOL     OW 7253   2.168   1.173   5.564 -0.2603 -0.1239  0.3919
 1872SOL    HW2 7254   2.263   1.176   5.572 -0.2884 -0.0715  0.7504
 1872SOL    HW3 7255   2.152   1.145   5.474  0.0984 -0.6981  0.5002
 1872SOL    MW4 7256   2.178   1.170   5.553 -0.2167 -0.1927  0.4535
 1873SOL     OW 7257   6.015   5.963   1.705  0.1044 -0.3842  0.1160
 1873SOL    HW2 7258   5.948   6.030   1.692  0.7957  0.4249  0.6607
 1873SOL    HW3 7259   5.994   5.925   1.791  0.9257  0.5750  0.7609
 1873SOL    MW4 7260   6.003   5.967   1.715  0.3040 -0.1509  0.2729
 1874SOL     OW 7261   5.491   3.651   0.133 -0.9939  0.1474  0.0218
 1874SOL    HW2 7262   5.537   3.730   0.103 -0.9390  0.0409 -0.1758
 1874SOL    HW3 7263   5.449   3.617   0.054 -0.3501 -0.4743 -0.0555
 1874SOL    MW4 7264   5.491   3.657   0.118 -0.9017  0.0513 -0.0145
 1875SOL     OW 7265   2.491   3.780   1.271 -0.1906  0.6119  0.3506
 1875SOL    HW2 7266   2.581   3.748   1.269  0.2838  1.9046 -0.2157
 1875SOL    HW3 7267   2.438   3.702   1.287  1.0723 -0.0633  1.4422
 1875SOL    MW4 7268   2.496   3.765   1.273  0.0386  0.6934  0.4199
 1876SOL     OW 7269   4.886   3.033   5.012 -0.4881 -0.6799 -0.0305
 1876SOL    HW2 7270   4.830   3.078   5.076  0.1591  0.1123 -0.0091
 1876SOL    HW3 7271   4.824   2.983   4.959 -1.0354 -1.3816  1.2274
 1876SOL    MW4 7272   4.870   3.033   5.014 -0.4749 -0.6680  0.1383
 1877SOL     OW 7273   0.846   2.587   4.198 -0.1043 -0.0135  0.1274
 1877SOL    HW2 7274   0.864   2.675   4.166  0.1431 -0.8547 -2.2491
 1877SOL    HW3 7275   0.756   2.568   4.171 -0.4995 -0.1665  1.4708
 1877SOL    MW4 7276   0.837   2.596   4.191 -0.1238 -0.1447 -0.0089
 1878SOL     OW 7277   4.162   3.707   2.143 -0.4188  0.0675 -0.2130
 1878SOL    HW2 7278   4.122   3.627   2.109  0.2606 -0.0250 -0.8294
 1878SOL    HW3 7279   4.091   3.770   2.147 -0.6784 -0.1507 -1.0942
 1878SOL    MW4 7280   4.148   3.705   2.139 -0.3634  0.0265 -0.4106
 1879SOL     OW 7281   3.975   0.650   0.463  0.0591  0.0756  0.0225
 1879SOL    HW2 7282   3.965   0.643   0.558 -0.7101 -2.7197 -0.1858
 1879SOL    HW3 7283   3.886   0.664   0.430 -0.0143 -1.1733 -0.3741
 1879SOL    MW4 7284   3.962   0.651   0.471 -0.0521 -0.4580 -0.0573
 1880SOL     OW 7285   1.868   0.037   0.436  0.7070 -0.8224  0.6706
 1880SOL    HW2 7286   1.900   0.053   0.347 -3.4888  2.2320 -0.6721
 1880SOL    HW3 7287   1.919   0.096   0.491  1.1813 -0.2880 -0.3152
 1880SOL    MW4 7288   1.879   0.047   0.431  0.2160 -0.3489  0.3634
 1881SOL     OW 7289   0.693   1.304   5.435  0.0748 -0.1451 -0.7657
 1881SOL    HW2 7290   0.702   1.337   5.525  0.2861  0.6170 -1.0584
 1881SOL    HW3 7291   0.781   1.277   5.410 -0.2150 -1.6252 -0.2831
 1881SOL    MW4 7292   0.706   1.305   5.444  0.0644 -0.2398 -0.7406
 1882SOL     OW 7293   3.919   0.891   2.050  0.6548  0.2000 -0.0094
 1882SOL    HW2 7294   3.841   0.854   2.011 -0.6081  1.9624  0.6874
 1882SOL    HW3 7295   3.967   0.929   1.977  0.2217  0.1903 -0.3003
 1882SOL    MW4 7296   3.915   0.891   2.035  0.4310  0.4313  0.0441
 1883SOL     OW 7297   2.605   0.826   5.174  0.0893  0.3341 -0.2651
 1883SOL    HW2 7298   2.580   0.917   5.189 -1.2663 -0.0898  0.1549
 1883SOL    HW3 7299   2.553   0.775   5.236  0.5011 -0.7681 -0.7815
 1883SOL    MW4 7300   2.595   0.831   5.184 -0.0352  0.1328 -0.2778
 1884SOL     OW 7301   6.434   5.708   5.975  0.7816  0.2797 -0.1351
 1884SOL    HW2 7302   6.396   5.785   5.933 -0.7610 -1.6026 -2.4849
 1884SOL    HW3 7303   6.519   5.696   5.932  0.2880 -0.2359 -0.9928
 1884SOL    MW4 7304   6.440   5.717   5.964  0.5130 -0.0366 -0.5583
 1885SOL     OW 7305   5.746   6.239   4.809  0.3776  0.1512  0.2162
 1885SOL    HW2 7306   5.729   6.242   4.715  1.5889 -0.7994 -0.0527
 1885SOL    HW3 7307   5.706   6.158   4.839 -2.7841  1.8886  1.1754
 1885SOL    MW4 7308   5.738   6.229   4.801  0.1203  0.2550  0.3073
 1886SOL     OW 7309   1.471   0.586   4.424 -0.3558  0.7819 -0.8798
 1886SOL    HW2 7310   1.495   0.545   4.508 -1.2135  1.8159 -0.0981
 1886SOL    HW3 7311   1.471   0.514   4.361  2.4857  0.3127 -0.4993
 1886SOL    MW4 7312   1.475   0.571   4.427 -0.0941  0.8564 -0.7264
 1887SOL     OW 7313   1.012   2.412   5.020  0.1463  0.3295  0.1008
 1887SOL    HW2 7314   0.966   2.495   5.031 -0.2308  0.5022 -2.2264
 1887SOL    HW3 7315   0.944   2.345   5.020  0.4504 -0.0334  1.9867
 1887SOL    MW4 7316   0.997   2.414   5.021  0.1367  0.3044  0.0426
 1888SOL     OW 7317   5.830   6.195   6.143 -0.5024  0.0966  0.4728
 1888SOL    HW2 7318   5.744   6.182   6.103  0.2970  1.1868 -1.7610
 1888SOL    HW3 7319   5.887   6.133   6.097  0.4049  1.2251  0.0416
 1888SOL    MW4 7320   5.826   6.185   6.132 -0.2772  0.3893  0.1212
 1889SOL     OW 7321   4.797   2.550   0.549  0.2985  0.2033  0.4458
 1889SOL    HW2 7322   4.856   2.604   0.602  0.6517  0.5765 -0.3117
 1889SOL    HW3 7323   4.747   2.499   0.613  1.5758 -0.2621  1.1059
 1889SOL    MW4 7324   4.798   2.550   0.565  0.5136  0.1912  0.4330
 1890SOL     OW 7325   5.239   0.266   2.582  0.5113 -0.5690  0.4178
 1890SOL    HW2 7326   5.152   0.227   2.590 -0.0815  0.5775 -0.3158
 1890SOL    HW3 7327   5.227   0.341   2.524  2.1039 -0.7271 -0.1607
 1890SOL    MW4 7328   5.226   0.270   2.576  0.6433 -0.4386  0.2447
 1891SOL     OW 7329   5.964   5.772   1.904  0.1579  0.3667  0.5116
 1891SOL    HW2 7330   5.941   5.694   1.854  0.1551  1.5373 -1.4073
 1891SOL    HW3 7331   5.887   5.789   1.959  0.0814 -0.8352  0.7932
 1891SOL    MW4 7332   5.951   5.764   1.905  0.1475  0.3626  0.2956
 1892SOL     OW 7333   3.403   3.355   1.436  0.2958  0.8724 -0.0961
 1892SOL    HW2 7334   3.355   3.386   1.512 -0.8095 -1.2813  0.1671
 1892SOL    HW3 7335   3.396   3.259   1.440  3.0647  0.5260 -1.0903
 1892SOL    MW4 7336   3.395   3.346   1.446  0.5153  0.5425 -0.1926
 1893SOL     OW 7337   3.727   0.499   1.028  0.0562 -0.0628  0.0044
 1893SOL    HW2 7338   3.647   0.482   1.077 -0.2366  1.3652  0.0363
 1893SOL    HW3 7339   3.699   0.502   0.937  0.1806 -0.1795 -0.0382
 1893SOL    MW4 7340   3.713   0.497   1.022  0.0340  0.1102  0.0030
 1894SOL     OW 7341   6.181   4.552   3.125 -0.3426  0.2696 -0.0977
 1894SOL    HW2 7342   6.211   4.636   3.090  0.7916 -0.2170 -0.3392
 1894SOL    HW3 7343   6.165   4.498   3.047  0.5808 -0.2753  0.0747
 1894SOL    MW4 7344   6.183   4.556   3.110 -0.0711  0.1335 -0.1068
 1895SOL     OW 7345   4.076   6.328   1.577 -0.3945  0.6975  0.8499
 1895SOL    HW2 7346   4.066   6.393   1.508  0.7572  0.9563  0.9175
 1895SOL    HW3 7347   4.022   6.362   1.649 -1.3244  0.5983  0.2220
 1895SOL    MW4 7348   4.068   6.341   1.577 -0.3653  0.7186  0.7760
 1896SOL     OW 7349   1.536   2.386   3.887 -0.4576  0.1856 -0.2837
 1896SOL    HW2 7350   1.529   2.455   3.821 -0.3643  1.6830  1.2023
 1896SOL    HW3 7351   1.486   2.418   3.961 -0.7194 -1.5395  0.3387
 1896SOL    MW4 7352   1.529   2.399   3.888 -0.4798  0.1555 -0.0056
 1897SOL     OW 7353   1.404   2.294   5.108  0.6887  0.3325 -0.5521
 1897SOL    HW2 7354   1.367   2.363   5.052  0.4497  0.2481 -0.4992
 1897SOL    HW3 7355   1.482   2.334   5.145  1.3035  0.1158 -1.5686
 1897SOL    MW4 7356   1.409   2.309   5.105  0.7383  0.2928 -0.6793
 1898SOL     OW 7357   1.609   4.389   2.787 -0.1578 -0.2438 -0.2221
 1898SOL    HW2 7358   1.656   4.312   2.819  0.4488 -0.1828 -0.9449
 1898SOL    HW3 7359   1.519   4.360   2.778 -0.0682 -0.6613  0.1872
 1898SOL    MW4 7360   1.603   4.375   2.790 -0.0660 -0.2909 -0.2634
 1899SOL     OW 7361   1.776   2.562   0.547  0.4241 -0.5703  0.1934
 1899SOL    HW2 7362   1.719   2.516   0.608 -0.5706  1.1164  0.5942
 1899SOL    HW3 7363   1.802   2.641   0.593  0.4779  0.2481 -1.1892
 1899SOL    MW4 7364   1.772   2.566   0.561  0.2999 -0.2398  0.0639
 1900SOL     OW 7365   3.442   3.363   5.232  0.3840 -0.0361 -0.1128
 1900SOL    HW2 7366   3.448   3.366   5.137 -0.9794  0.5554 -0.1987
 1900SOL    HW3 7367   3.378   3.431   5.255  0.1937 -0.6115  1.1696
 1900SOL    MW4 7368   3.434   3.372   5.223  0.1790 -0.0340  0.0450
 1901SOL     OW 7369   2.615   3.948   5.997 -0.2380  0.5227 -0.0457
 1901SOL    HW2 7370   2.648   3.974   6.083 -2.0460 -0.9235  1.1650
 1901SOL    HW3 7371   2.604   4.031   5.950  1.2566  1.3072  0.8920
 1901SOL    MW4 7372   2.618   3.963   6.002 -0.2793  0.4354  0.2377
 1902SOL     OW 7373   4.649   3.256   1.998 -0.2824  0.2403 -0.0280
 1902SOL    HW2 7374   4.561   3.261   1.960 -0.4041  2.9622  0.4096
 1902SOL    HW3 7375   4.706   3.234   1.925 -1.0490  1.0864 -0.9089
 1902SOL    MW4 7376   4.645   3.254   1.983 -0.3996  0.7111 -0.0865
 1903SOL     OW 7377   3.728   3.891   0.381  0.0664  0.0265  0.1233
 1903SOL    HW2 7378   3.760   3.810   0.420  0.6566 -0.3952 -1.1744
 1903SOL    HW3 7379   3.662   3.863   0.318  0.2486  0.5507 -0.3131
 1903SOL    MW4 7380   3.724   3.877   0.377  0.1683  0.0400 -0.1055
 1904SOL     OW 7381   4.736   5.357   0.007  0.1658 -0.0004 -0.0461
 1904SOL    HW2 7382   4.678   5.294  -0.035 -0.0231  0.2831 -0.2207
 1904SOL    HW3 7383   4.772   5.311   0.083 -0.8345  0.0455  0.4715
 1904SOL    MW4 7384   4.733   5.343   0.012  0.0089  0.0431 -0.0009
 1905SOL     OW 7385   6.270   2.411   3.090 -0.3085 -0.0803 -0.1593
 1905SOL    HW2 7386   6.292   2.375   3.005  0.9901  0.3392 -0.0245
 1905SOL    HW3 7387   6.228   2.339   3.137 -0.9389 -0.3388 -1.1111
 1905SOL    MW4 7388   6.267   2.397   3.085 -0.2203 -0.0591 -0.2671
 1906SOL     OW 7389   6.201   5.500   0.085  0.4919 -0.0529 -0.1590
 1906SOL    HW2 7390   6.234   5.438   0.020 -2.9818 -2.1538 -0.2029
 1906SOL    HW3 7391   6.207   5.586   0.043  0.7358 -1.0167 -2.1988
 1906SOL    MW4 7392   6.206   5.503   0.071  0.0658 -0.4572 -0.4339
 1907SOL     OW 7393   2.188   2.660   0.005 -0.2159 -0.1984 -0.3240
 1907SOL    HW2 7394   2.169   2.704   0.088  0.8060 -0.1439 -0.1023
 1907SOL    HW3 7395   2.226   2.576   0.031 -1.4776 -0.9215 -0.7446
 1907SOL    MW4 7396   2.191   2.654   0.020 -0.2476 -0.2866 -0.3503
 1908SOL     OW 7397   1.112   1.294   1.214 -0.4068  0.2093 -0.0325
 1908SOL    HW2 7398   1.174   1.339   1.156  1.4145  0.0737  1.7012
 1908SOL    HW3 7399   1.055   1.364   1.246  1.8578  1.2925  1.9687
 1908SOL    MW4 7400   1.113   1.310   1.211  0.1323  0.3343  0.4603
 1909SOL     OW 7401   6.374   0.232   6.292 -0.2192 -0.5960  0.9114
 1909SOL    HW2 7402   6.385   0.158   6.232 -0.8989  0.4782 -0.5981
 1909SOL    HW3 7403   6.431   0.300   6.257 -2.1962  0.7764  0.1891
 1909SOL    MW4 7404   6.383   0.231   6.279 -0.5697 -0.2732  0.6169
 1910SOL     OW 7405   4.891   5.541   3.075  0.4362 -0.7035 -0.1911
 1910SOL    HW2 7406   4.879   5.555   3.169  0.4317 -0.1507 -0.2673
 1910SOL    HW3 7407   4.903   5.447   3.065 -0.1161 -0.8250  0.3012
 1910SOL    MW4 7408   4.891   5.531   3.086  0.3627 -0.6466 -0.1362
 1911SOL     OW 7409   1.126   0.626   1.977  0.5044 -0.2322  0.2627
 1911SOL    HW2 7410   1.118   0.550   1.920  1.3957  0.0912 -0.3204
 1911SOL    HW3 7411   1.067   0.691   1.938  1.6017  0.2178 -0.7174
 1911SOL    MW4 7412   1.117   0.625   1.964  0.7667 -0.1301  0.0565
 1912SOL     OW 7413   6.149   4.407   2.855  0.9575 -0.0889  0.2365
 1912SOL    HW2 7414   6.056   4.400   2.878  0.8172 -1.3682 -0.6194
 1912SOL    HW3 7415   6.153   4.485   2.799  0.4447  0.1297  0.4931
 1912SOL    MW4 7416   6.137   4.416   2.850  0.8713 -0.2288  0.1575
 1913SOL     OW 7417   3.228   0.076   1.173 -0.2467 -0.9206 -0.3390
 1913SOL    HW2 7418   3.305   0.115   1.132 -1.2123 -1.3916 -2.7986
 1913SOL    HW3 7419   3.156   0.134   1.149 -0.8995 -1.3481  0.5442
 1913SOL    MW4 7420   3.229   0.089   1.164 -0.4602 -1.0391 -0.5470
 1914SOL     OW 7421   2.969   5.088   4.052  0.7388 -0.9075 -0.0128
 1914SOL    HW2 7422   2.992   5.048   4.136 -1.9800 -2.8154 -0.0354
 1914SOL    HW3 7423   2.977   5.018   3.989 -0.0556 -0.2766 -0.8398
 1914SOL    MW4 7424   2.973   5.074   4.055  0.2753 -1.0760 -0.1249
 1915SOL     OW 7425   4.062   0.833   1.169 -0.2324  0.5990  0.1390
 1915SOL    HW2 7426   3.978   0.831   1.214 -0.0102 -1.5911  0.5660
 1915SOL    HW3 7427   4.114   0.765   1.212  1.4259  1.2403 -0.7569
 1915SOL    MW4 7428   4.058   0.824   1.181  0.0157  0.3947  0.0771
 1916SOL     OW 7429   2.391   5.232   2.328  0.3087  0.5398  0.2662
 1916SOL    HW2 7430   2.402   5.221   2.233 -0.8399  1.7579 -0.0316
 1916SOL    HW3 7431   2.334   5.308   2.337 -1.9706 -1.2219  1.8423
 1916SOL    MW4 7432   2.385   5.240   2.316 -0.1435  0.4681  0.4349
 1917SOL     OW 7433   0.542   3.839   4.208  0.0734  0.5676 -0.0102
 1917SOL    HW2 7434   0.569   3.922   4.170  0.4533  1.1336  1.4494
 1917SOL    HW3 7435   0.472   3.808   4.150 -0.3006  2.0541 -0.3909
 1917SOL    MW4 7436   0.536   3.846   4.195  0.0742  0.8384  0.1321
 1918SOL     OW 7437   1.141   5.311   0.111 -0.1327  0.3313 -0.6637
 1918SOL    HW2 7438   1.151   5.304   0.016  1.1761 -0.3935 -0.4891
 1918SOL    HW3 7439   1.228   5.335   0.142 -0.4649  0.1949  0.3905
 1918SOL    MW4 7440   1.153   5.314   0.102 -0.0039  0.2176 -0.5015
 1919SOL     OW 7441   1.318   5.007   0.754  0.2277 -0.8348 -0.8903
 1919SOL    HW2 7442   1.227   4.988   0.777  0.2685  0.1536  0.1539
 1919SOL    HW3 7443   1.370   4.963   0.822  0.4728 -0.2984 -0.7301
 1919SOL    MW4 7444   1.313   4.998   0.766  0.2654 -0.6337 -0.7314
 1920SOL     OW 7445   6.017   2.345   0.984 -0.1605  0.3785  0.0980
 1920SOL    HW2 7446   5.963   2.420   1.010  0.2142  0.8718 -0.4923
 1920SOL    HW3 7447   6.007   2.341   0.889  0.2982  0.0544  0.0595
 1920SOL    MW4 7448   6.009   2.355   0.975 -0.0506  0.4008  0.0150
 1921SOL     OW 7449   0.111   2.935   4.719  0.0462  0.8140 -0.1553
 1921SOL    HW2 7450   0.127   2.958   4.810 -1.3759 -0.3043  0.4093
 1921SOL    HW3 7451   0.021   2.965   4.702  0.1752  0.7044 -1.0842
 1921SOL    MW4 7452   0.101   2.942   4.729 -0.1244  0.6520 -0.2034
 1922SOL     OW 7453   2.759   2.867   0.541 -0.3381 -0.0616  0.0870
 1922SOL    HW2 7454   2.854   2.871   0.548 -0.3221  2.3869 -0.4630
 1922SOL    HW3 7455   2.729   2.954   0.568 -2.5733 -1.2632  1.8230
 1922SOL    MW4 7456   2.767   2.879   0.545 -0.6309  0.1029  0.2435
 1923SOL     OW 7457   3.976   6.395   6.350 -0.4743  0.2721 -0.3673
 1923SOL    HW2 7458   4.027   6.427   6.275 -0.5917 -0.3465 -0.7149
 1923SOL    HW3 7459   3.914   6.333   6.312 -0.3725 -0.2288  0.2765
 1923SOL    MW4 7460   3.975   6.391   6.335 -0.4764  0.1244 -0.3282
 1924SOL     OW 7461   2.099   4.494   1.316 -0.0848  0.1338 -0.2005
 1924SOL    HW2 7462   2.134   4.578   1.287 -1.6059  0.6330 -0.6777
 1924SOL    HW3 7463   2.101   4.498   1.411  0.2548  0.5236 -0.2201
 1924SOL    MW4 7464   2.104   4.506   1.325 -0.2407  0.2511 -0.2661
 1925SOL     OW 7465   1.115   3.245   6.098  0.1791 -0.7056  0.1327
 1925SOL    HW2 7466   1.030   3.265   6.137 -1.1141 -1.8261 -1.9525
 1925SOL    HW3 7467   1.143   3.164   6.141 -0.7707 -1.4159 -0.5718
 1925SOL    MW4 7468   1.108   3.237   6.109 -0.1168 -0.9471 -0.2354
 1926SOL     OW 7469   2.229   1.157   4.529  0.4281  0.0198  1.1772
 1926SOL    HW2 7470   2.147   1.113   4.553 -0.9183  2.5947  1.6376
 1926SOL    HW3 7471   2.220   1.176   4.436  0.9174 -0.4434  1.0274
 1926SOL    MW4 7472   2.217   1.154   4.520  0.3150  0.2984  1.2182
 1927SOL     OW 7473   4.667   2.264   3.383  0.3437  0.1309  0.1436
 1927SOL    HW2 7474   4.740   2.203   3.385  0.0316 -0.2291  1.6573
 1927SOL    HW3 7475   4.690   2.327   3.314  1.6431 -0.4767 -0.0036
 1927SOL    MW4 7476   4.680   2.264   3.374  0.4740  0.0033  0.3239
 1928SOL     OW 7477   4.803   5.135   1.814 -0.4184 -0.0623 -0.3241
 1928SOL    HW2 7478   4.848   5.188   1.880 -0.1935 -1.5022  0.7361
 1928SOL    HW3 7479   4.801   5.190   1.736  1.1657  0.9109  0.2667
 1928SOL    MW4 7480   4.809   5.149   1.812 -0.1797 -0.1239 -0.1062
 1929SOL     OW 7481   1.074   5.594   0.440  0.3030  0.4103 -0.6542
 1929SOL    HW2 7482   1.067   5.506   0.476 -0.8898  1.4842  1.9325
 1929SOL    HW3 7483   1.167   5.615   0.445  0.3745 -0.0932  0.3303
 1929SOL    MW4 7484   1.085   5.586   0.445  0.1551  0.4855 -0.1830
 1930SOL     OW 7485   5.962   1.892   1.577 -0.0382  0.1170 -0.3735
 1930SOL    HW2 7486   5.875   1.875   1.543 -0.6127  1.6834  0.1978
 1930SOL    HW3 7487   5.951   1.895   1.672  0.0408  2.8525 -0.3525
 1930SOL    MW4 7488   5.949   1.890   1.585 -0.1036  0.6846 -0.2954
 1931SOL     OW 7489   4.516   0.038   4.317  0.1137 -0.0249  0.2627
 1931SOL    HW2 7490   4.483   0.127   4.329  0.2139 -0.1060  1.2443
 1931SOL    HW3 7491   4.451  -0.017   4.360  1.0036 -0.2594  1.3677
 1931SOL    MW4 7492   4.503   0.043   4.325  0.2444 -0.0665  0.5380
 1932SOL     OW 7493   5.158   5.403   1.958  0.4170  0.2392  0.1298
 1932SOL    HW2 7494   5.200   5.368   2.037 -2.1224 -1.6819  0.7994
 1932SOL    HW3 7495   5.160   5.331   1.896  0.5248  1.0296 -0.8000
 1932SOL    MW4 7496   5.164   5.389   1.960  0.0962  0.0900  0.0954
 1933SOL     OW 7497   4.902   5.496   5.039  0.9208  0.4202  0.2741
 1933SOL    HW2 7498   4.893   5.587   5.011 -1.1100  1.7183  4.2747
 1933SOL    HW3 7499   4.944   5.502   5.125  1.7017 -2.5558  0.1899
 1933SOL    MW4 7500   4.907   5.509   5.047  0.7558  0.1988  0.7908
 1934SOL     OW 7501   2.649   5.100   1.206  0.0496  0.0892 -0.0274
 1934SOL    HW2 7502   2.554   5.090   1.216 -0.2186  0.3646 -1.9522
 1934SOL    HW3 7503   2.676   5.022   1.157  0.4184  1.0815 -1.4745
 1934SOL    MW4 7504   2.640   5.088   1.201  0.0629  0.2565 -0.4723
 1935SOL     OW 7505   1.803   5.316   4.579 -0.2419  0.1931  0.6610
 1935SOL    HW2 7506   1.848   5.397   4.600  0.6479  0.1252 -0.8531
 1935SOL    HW3 7507   1.710   5.337   4.589 -0.0880  1.7312 -0.6852
 1935SOL    MW4 7508   1.796   5.329   4.583 -0.1042  0.3871  0.2836
 1936SOL     OW 7509   2.569   3.278   5.303 -0.3957  0.0314 -0.1159
 1936SOL    HW2 7510   2.637   3.345   5.314  0.2246 -0.7701  1.0775
 1936SOL    HW3 7511   2.543   3.255   5.392 -0.4888 -1.4244 -0.4923
 1936SOL    MW4 7512   2.575   3.284   5.316 -0.3261 -0.2664 -0.0081
 1937SOL     OW 7513   1.757   1.432   5.331 -0.3248 -0.1443 -0.2568
 1937SOL    HW2 7514   1.843   1.421   5.372  0.0847  2.3101 -0.2678
 1937SOL    HW3 7515   1.698   1.377   5.383  1.0966 -1.2571  0.2383
 1937SOL    MW4 7516   1.760   1.424   5.343 -0.0832  0.0327 -0.1929
 1938SOL     OW 7517   3.203   4.284   5.024 -0.0065  0.5349 -0.1731
 1938SOL    HW2 7518   3.277   4.269   4.965 -0.8075  0.1133 -1.0996
 1938SOL    HW3 7519   3.232   4.355   5.082  1.3165 -0.0040 -0.1507
 1938SOL    MW4 7520   3.216   4.292   5.024  0.0624  0.4081 -0.2924
 1939SOL     OW 7521   0.973   4.240   2.466 -0.3491 -0.3337  0.4407
 1939SOL    HW2 7522   1.014   4.185   2.400 -0.3579  0.2110 -0.0252
 1939SOL    HW3 7523   0.989   4.330   2.437  1.0706 -0.0292  2.0209
 1939SOL    MW4 7524   0.980   4.245   2.454 -0.1630 -0.2216  0.5877
 1940SOL     OW 7525   1.497   4.831   2.415  0.3718 -0.1247 -0.8108
 1940SOL    HW2 7526   1.558   4.760   2.396  1.0261 -0.3629  1.7999
 1940SOL    HW3 7527   1.412   4.788   2.426  0.5279 -0.3567 -0.4834
 1940SOL    MW4 7528   1.494   4.816   2.414  0.4787 -0.1867 -0.4232
 1941SOL     OW 7529   0.735   3.788   6.315  0.0270  0.3015 -0.0199
 1941SOL    HW2 7530   0.741   3.693   6.324  2.3397  0.1674 -1.8757
 1941SOL    HW3 7531   0.803   3.822   6.373  0.7851  0.6253 -1.0567
 1941SOL    MW4 7532   0.745   3.780   6.324  0.4322  0.3265 -0.4015
 1942SOL     OW 7533   0.968   5.397   5.100 -0.6873  0.2798 -0.5645
 1942SOL    HW2 7534   1.037   5.414   5.036 -0.6931 -0.0042 -0.6469
 1942SOL    HW3 7535   0.890   5.440   5.065 -0.2850  1.6121  0.0933
 1942SOL    MW4 7536   0.967   5.405   5.087 -0.6350  0.4181 -0.4886
 1943SOL     OW 7537   2.752   1.178   0.524 -0.5951 -0.1589 -1.1195
 1943SOL    HW2 7538   2.726   1.270   0.531 -0.0383 -0.0990  0.4893
 1943SOL    HW3 7539   2.669   1.131   0.513 -1.1945  0.3009  0.9508
 1943SOL    MW4 7540   2.738   1.184   0.523 -0.6007 -0.0903 -0.6341
 1944SOL     OW 7541   5.356   3.467   4.987 -0.4049  0.0849 -0.3220
 1944SOL    HW2 7542   5.383   3.533   4.923 -0.7449  0.3315 -0.2173
 1944SOL    HW3 7543   5.334   3.390   4.934  1.3725 -0.4475 -0.3452
 1944SOL    MW4 7544   5.357   3.465   4.971 -0.2153  0.0472 -0.3113
 1945SOL     OW 7545   1.701   2.426   2.898  0.2067  0.6393 -0.6035
 1945SOL    HW2 7546   1.629   2.397   2.955  0.3457  1.2366 -0.1165
 1945SOL    HW3 7547   1.659   2.486   2.835  0.5132  2.2382  0.6543
 1945SOL    MW4 7548   1.686   2.430   2.897  0.2655  0.9291 -0.3733
 1946SOL     OW 7549   3.272   3.695   3.729  0.5400  0.2912 -0.4591
 1946SOL    HW2 7550   3.348   3.738   3.688  2.0293  0.7800  2.5265
 1946SOL    HW3 7551   3.209   3.766   3.741  2.3684  1.5516  3.0231
 1946SOL    MW4 7552   3.274   3.710   3.725  0.9777  0.5220  0.3942
 1947SOL     OW 7553   5.997   4.381   1.123 -0.6204  0.2505  0.5715
 1947SOL    HW2 7554   6.009   4.301   1.072 -1.9787  0.0155  0.5863
 1947SOL    HW3 7555   6.066   4.440   1.091 -0.7958 -0.2532 -0.8242
 1947SOL    MW4 7556   6.008   4.378   1.112 -0.8228  0.1530  0.3893
 1948SOL     OW 7557   4.279   4.858   5.771 -0.0690 -0.1461 -0.0386
 1948SOL    HW2 7558   4.247   4.867   5.861  1.7695  0.0122  0.6391
 1948SOL    HW3 7559   4.216   4.798   5.730  0.5070 -2.4620  2.1667
 1948SOL    MW4 7560   4.266   4.851   5.778  0.2496 -0.4308  0.3418
 1949SOL     OW 7561   3.665   4.558   4.390  0.0361 -0.2952 -0.0767
 1949SOL    HW2 7562   3.758   4.569   4.368  0.0058 -0.1149 -0.1153
 1949SOL    HW3 7563   3.627   4.644   4.375  0.2852  0.2424  2.0215
 1949SOL    MW4 7564   3.673   4.571   4.385  0.0650 -0.2005  0.1950
 1950SOL     OW 7565   4.244   4.443   5.265  0.0052 -0.1559 -0.2818
 1950SOL    HW2 7566   4.287   4.492   5.335 -0.1609  1.6804 -1.3947
 1950SOL    HW3 7567   4.293   4.362   5.259  0.4719 -0.0452  1.4550
 1950SOL    MW4 7568   4.256   4.439   5.273  0.0448  0.1009 -0.1995
 1951SOL     OW 7569   1.168   2.449   0.967 -0.0059 -0.3128  0.2911
 1951SOL    HW2 7570   1.093   2.418   1.019  0.7868  2.1381  3.1121
 1951SOL    HW3 7571   1.142   2.536   0.938  1.5583  0.3877  0.9357
 1951SOL    MW4 7572   1.154   2.456   0.970  0.3051  0.1030  0.7483
 1952SOL     OW 7573   5.966   1.074   5.012 -0.3137 -0.1847 -0.5338
 1952SOL    HW2 7574   5.936   1.030   4.932 -0.4821  0.7043 -0.9642
 1952SOL    HW3 7575   5.902   1.049   5.079  0.0106 -1.2027 -0.5792
 1952SOL    MW4 7576   5.954   1.065   5.011 -0.2931 -0.2017 -0.5966
 1953SOL     OW 7577   4.035   5.579   4.696 -0.3184  0.5161  0.1437
 1953SOL    HW2 7578   4.122   5.619   4.707 -0.1880  0.0315  0.9696
 1953SOL    HW3 7579   4.022   5.577   4.601 -0.4593  2.7525  0.0587
 1953SOL    MW4 7580   4.045   5.584   4.685 -0.3198  0.7473  0.2414
 1954SOL     OW 7581   2.164   4.458   4.202  0.2424  0.2577  0.5294
 1954SOL    HW2 7582   2.142   4.494   4.116 -0.9599  0.1204  0.7531
 1954SOL    HW3 7583   2.243   4.505   4.229 -0.5109  1.7630  0.2154
 1954SOL    MW4 7584   2.171   4.469   4.194 -0.0156  0.4382  0.5175
 1955SOL     OW 7585   5.068   0.960   4.793  0.6398  0.0578  0.0670
 1955SOL    HW2 7586   5.026   1.015   4.727  0.4978 -0.0122  0.0995
 1955SOL    HW3 7587   5.157   0.947   4.760  0.2679 -0.8070 -0.6110
 1955SOL    MW4 7588   5.074   0.966   4.780  0.5720 -0.0656 -0.0182
 1956SOL     OW 7589   4.798   5.305   5.300  0.3126  0.0761  0.4485
 1956SOL    HW2 7590   4.813   5.219   5.339 -0.5046 -0.1096  0.3674
 1956SOL    HW3 7591   4.882   5.350   5.307  0.7917 -0.7941  0.3241
 1956SOL    MW4 7592   4.811   5.300   5.306  0.2680 -0.0632  0.4214
 1957SOL     OW 7593   2.725   2.774   1.855 -0.8796 -0.4281 -0.0472
 1957SOL    HW2 7594   2.744   2.682   1.835 -1.6842 -0.6771  0.3308
 1957SOL    HW3 7595   2.636   2.774   1.888 -0.8890  0.4974 -0.0475
 1957SOL    MW4 7596   2.716   2.762   1.857 -0.9870 -0.3388  0.0026
 1958SOL     OW 7597   5.386   0.229   1.731 -0.1922 -0.3544  0.6522
 1958SOL    HW2 7598   5.405   0.308   1.681 -0.4203 -0.8525 -0.2456
 1958SOL    HW3 7599   5.471   0.202   1.766  0.2790 -0.8759 -0.8044
 1958SOL    MW4 7600   5.400   0.236   1.729 -0.1601 -0.4889  0.3416
 1959SOL     OW 7601   3.543   4.736   1.330  0.1603 -0.7171 -0.8780
 1959SOL    HW2 7602   3.473   4.777   1.380  0.9797 -1.2046  0.7454
 1959SOL    HW3 7603   3.550   4.788   1.250 -1.2196  0.0684 -0.5047
 1959SOL    MW4 7604   3.535   4.748   1.326  0.0864 -0.6778 -0.6146
 1960SOL     OW 7605   0.258   3.847   1.686  1.0541 -0.7280 -0.2645
 1960SOL    HW2 7606   0.225   3.840   1.776 -0.0380 -0.7760 -0.6531
 1960SOL    HW3 7607   0.259   3.941   1.668 -0.6654 -0.7913 -0.8683
 1960SOL    MW4 7608   0.254   3.858   1.695  0.6832 -0.7427 -0.3954
 1961SOL     OW 7609   1.175   2.887   0.426  0.0278  0.4475  0.2339
 1961SOL    HW2 7610   1.091   2.921   0.457 -0.4766  1.2675 -1.8772
 1961SOL    HW3 7611   1.156   2.850   0.340  2.0872  2.0502 -1.0126
 1961SOL    MW4 7612   1.161   2.887   0.419  0.2330  0.7671 -0.2091
 1962SOL     OW 7613   1.467   4.397   3.583  0.5208  0.2525  0.0589
 1962SOL    HW2 7614   1.466   4.345   3.502  0.4147 -0.1385  0.3085
 1962SOL    HW3 7615   1.560   4.411   3.601  0.6266 -1.3468  0.9304
 1962SOL    MW4 7616   1.479   4.392   3.575  0.5207 -0.0101  0.2068
 1963SOL     OW 7617   2.728   3.605   1.107 -0.0765 -0.3759  0.9097
 1963SOL    HW2 7618   2.690   3.522   1.136  0.9410 -1.2300 -0.1297
 1963SOL    HW3 7619   2.806   3.616   1.162 -0.4271  0.1189  1.3243
 1963SOL    MW4 7620   2.733   3.596   1.118  0.0115 -0.4233  0.8273
 1964SOL     OW 7621   1.027   3.292   4.074 -0.7650  0.5429  0.8339
 1964SOL    HW2 7622   1.016   3.362   4.139 -0.9130 -0.2870  1.7146
 1964SOL    HW3 7623   1.119   3.297   4.048 -0.0809 -0.5813  2.8398
 1964SOL    MW4 7624   1.038   3.302   4.079 -0.6943  0.2851  1.2147
 1965SOL     OW 7625   5.451   3.176   5.529 -0.2463  0.1388  0.2628
 1965SOL    HW2 7626   5.369   3.171   5.578 -0.0374  1.7237  0.8205
 1965SOL    HW3 7627   5.457   3.267   5.502  2.7059  0.8099  2.6658
 1965SOL    MW4 7628   5.441   3.187   5.532  0.1708  0.4365  0.6534
 1966SOL     OW 7629   5.466   5.916   3.140  0.4684  0.3400  0.3197
 1966SOL    HW2 7630   5.474   5.824   3.112 -1.2299  0.2539 -0.0100
 1966SOL    HW3 7631   5.436   5.910   3.231  1.0462  0.5798  0.5264
 1966SOL    MW4 7632   5.463   5.903   3.148  0.3205  0.3603  0.3035
 1967SOL     OW 7633   2.195   2.271   5.344 -0.6546 -0.6292  0.4479
 1967SOL    HW2 7634   2.281   2.249   5.379  1.1521  0.8342 -2.6689
 1967SOL    HW3 7635   2.184   2.364   5.365 -1.9634 -1.0231  1.6363
 1967SOL    MW4 7636   2.205   2.280   5.351 -0.5889 -0.4881  0.1935
 1968SOL     OW 7637   2.362   4.611   0.174 -0.0302 -0.0125 -0.0041
 1968SOL    HW2 7638   2.453   4.595   0.198 -0.2640 -0.4515  0.6065
 1968SOL    HW3 7639   2.338   4.690   0.223  0.5501  1.1726 -1.5534
 1968SOL    MW4 7640   2.371   4.620   0.184  0.0155  0.0859 -0.1280
 1969SOL     OW 7641   3.323   5.340   2.024  0.2850 -0.0274  0.2711
 1969SOL    HW2 7642   3.302   5.417   1.972  0.2689  0.5241  1.0833
 1969SOL    HW3 7643   3.417   5.326   2.009  0.4313  0.5443  0.6374
 1969SOL    MW4 7644   3.333   5.348   2.015  0.3022  0.1208  0.4266
 1970SOL     OW 7645   2.508   5.123   3.144  0.0553 -0.3243  0.5199
 1970SOL    HW2 7646   2.505   5.201   3.200  1.8904  1.1491 -1.2942
 1970SOL    HW3 7647   2.598   5.119   3.112 -0.7356 -1.4641 -1.8132
 1970SOL    MW4 7648   2.519   5.133   3.147  0.1931 -0.2803 -0.0273
 1971SOL     OW 7649   3.129   1.176   5.840  0.5481  0.2952 -0.1921
 1971SOL    HW2 7650   3.108   1.268   5.853 -0.8757  0.4041 -2.7647
 1971SOL    HW3 7651   3.044   1.132   5.842  1.2685 -1.1857  1.9629
 1971SOL    MW4 7652   3.115   1.182   5.842  0.4553  0.1142 -0.2472
 1972SOL     OW 7653   5.518   3.506   3.788 -0.0977 -0.1072  0.2052
 1972SOL    HW2 7654   5.445   3.546   3.836 -0.0467 -1.3010  1.3260
 1972SOL    HW3 7655   5.591   3.566   3.801 -0.5602  0.5035  0.0624
 1972SOL    MW4 7656   5.518   3.519   3.796 -0.1520 -0.1841  0.3342
 1973SOL     OW 7657   1.042   1.290   6.246  0.0861 -0.2781  0.2870
 1973SOL    HW2 7658   1.104   1.361   6.228  0.7679 -0.5056  1.5952
 1973SOL    HW3 7659   0.956   1.329   6.234  0.4561  0.3731 -0.3712
 1973SOL    MW4 7660   1.039   1.305   6.242  0.2249 -0.2222  0.3728
 1974SOL     OW 7661   4.951   5.798   1.451  0.4303 -0.0657  0.0069
 1974SOL    HW2 7662   5.036   5.766   1.420  1.2722 -0.9891  2.9645
 1974SOL    HW3 7663   4.887   5.741   1.408  1.3879 -0.4294 -1.0008
 1974SOL    MW4 7664   4.954   5.786   1.441  0.6677 -0.2355  0.2641
 1975SOL     OW 7665   3.288   2.511   4.774 -0.3467  0.0701  0.1574
 1975SOL    HW2 7666   3.297   2.450   4.847  1.1145  1.2941  1.0681
 1975SOL    HW3 7667   3.290   2.456   4.696 -0.3857 -1.1375  0.9804
 1975SOL    MW4 7668   3.289   2.496   4.773 -0.1590  0.0723  0.3862
 1976SOL     OW 7669   6.112   0.277   0.968  0.5233 -0.0974 -0.2887
 1976SOL    HW2 7670   6.203   0.301   0.951  0.4202 -0.3933 -1.2948
 1976SOL    HW3 7671   6.065   0.361   0.974  0.8356  0.0516  0.1376
 1976SOL    MW4 7672   6.118   0.291   0.967  0.5509 -0.1168 -0.3652
 1977SOL     OW 7673   0.197   3.310   0.922  0.3721 -0.0615 -0.3867
 1977SOL    HW2 7674   0.151   3.268   0.995  2.4003 -1.6477  0.0671
 1977SOL    HW3 7675   0.218   3.398   0.955  0.0974 -0.2935  0.4466
 1977SOL    MW4 7676   0.194   3.316   0.936  0.6035 -0.3014 -0.2169
 1978SOL     OW 7677   6.420   4.565   0.088  0.4091 -0.1564  0.3113
 1978SOL    HW2 7678   6.504   4.559   0.044  0.5961  2.8713  0.0497
 1978SOL    HW3 7679   6.397   4.474   0.110  3.2366 -1.1416 -0.4638
 1978SOL    MW4 7680   6.428   4.552   0.085  0.8068  0.1131  0.1746
 1979SOL     OW 7681   4.083   5.391   2.486  0.2112  0.5861 -0.5158
 1979SOL    HW2 7682   4.006   5.395   2.429  1.5258  1.8884 -2.3323
 1979SOL    HW3 7683   4.156   5.412   2.428  2.0396 -1.1833  1.0245
 1979SOL    MW4 7684   4.082   5.395   2.471  0.6259  0.5245 -0.5522
 1980SOL     OW 7685   2.921   6.315   1.979  0.5585 -0.6567 -0.4695
 1980SOL    HW2 7686   2.954   6.401   2.005 -0.2056 -0.1905 -0.9768
 1980SOL    HW3 7687   2.833   6.333   1.945  0.4811 -1.6104 -0.8006
 1980SOL    MW4 7688   2.914   6.329   1.978  0.4474 -0.7210 -0.5801
 1981SOL     OW 7689   4.658   2.750   3.171 -0.3937 -0.0685  0.1379
 1981SOL    HW2 7690   4.595   2.679   3.158 -1.3581  1.0321 -1.5145
 1981SOL    HW3 7691   4.687   2.739   3.261 -1.9167 -1.4466  0.5175
 1981SOL    MW4 7692   4.653   2.739   3.181 -0.7218 -0.1051 -0.0300
 1982SOL     OW 7693   1.673   5.127   6.383  0.5407 -0.2714 -0.3499
 1982SOL    HW2 7694   1.728   5.054   6.358 -0.5790 -2.1669  2.2330
 1982SOL    HW3 7695   1.613   5.139   6.309  0.6651 -2.0641 -0.7737
 1982SOL    MW4 7696   1.672   5.119   6.370  0.4094 -0.7580 -0.0651
 1983SOL     OW 7697   3.183   2.654   1.632 -0.8126 -0.0182 -0.8174
 1983SOL    HW2 7698   3.163   2.670   1.724 -0.9883  2.1373 -1.1734
 1983SOL    HW3 7699   3.107   2.606   1.599 -0.5592 -1.1877  0.2315
 1983SOL    MW4 7700   3.170   2.650   1.640 -0.8024  0.1119 -0.7260
 1984SOL     OW 7701   0.660   4.584   2.261  0.4792 -0.2297 -0.5747
 1984SOL    HW2 7702   0.589   4.618   2.207  1.3759  0.6806 -1.2095
 1984SOL    HW3 7703   0.736   4.637   2.238  1.4696 -1.4229 -0.1916
 1984SOL    MW4 7704   0.660   4.595   2.251  0.7282 -0.2670 -0.6079
 1985SOL     OW 7705   3.998   2.281   1.732  0.4953  0.5181 -0.1804
 1985SOL    HW2 7706   4.036   2.359   1.693  0.2723 -0.2519 -2.0404
 1985SOL    HW3 7707   4.061   2.212   1.714  0.2352  0.0657  0.5826
 1985SOL    MW4 7708   4.011   2.282   1.725  0.4316  0.3568 -0.3252
 1986SOL     OW 7709   4.825   5.637   0.331 -0.3002  0.0903  0.0801
 1986SOL    HW2 7710   4.882   5.560   0.330 -0.3656  0.0060  1.3899
 1986SOL    HW3 7711   4.738   5.603   0.310 -0.4306 -0.2962  1.2040
 1986SOL    MW4 7712   4.821   5.623   0.328 -0.3260  0.0282  0.4012
 1987SOL     OW 7713   4.056   5.869   5.520 -0.0666 -0.1495 -0.7903
 1987SOL    HW2 7714   4.029   5.903   5.605  1.6545 -1.7207  0.4582
 1987SOL    HW3 7715   4.012   5.926   5.456  0.7357  2.7927  1.1210
 1987SOL    MW4 7716   4.046   5.881   5.522  0.2663  0.0314 -0.3734
 1988SOL     OW 7717   2.440   3.722   6.076  0.0276  0.4540  0.0401
 1988SOL    HW2 7718   2.489   3.707   6.157  0.4406  0.8762 -0.1265
 1988SOL    HW3 7719   2.489   3.790   6.031 -1.1372  1.4462  0.2190
 1988SOL    MW4 7720   2.453   3.729   6.081 -0.0716  0.6406  0.0417
 1989SOL     OW 7721   3.914   1.987   0.693  0.2880 -0.2900  0.5089
 1989SOL    HW2 7722   3.821   1.975   0.714  0.3323 -0.8832  0.4000
 1989SOL    HW3 7723   3.914   2.032   0.609  0.0256 -3.1854 -1.2022
 1989SOL    MW4 7724   3.902   1.991   0.685  0.2592 -0.7503  0.2688
 1990SOL     OW 7725   2.524   2.110   3.298 -0.2516  0.2571  0.4647
 1990SOL    HW2 7726   2.574   2.036   3.330 -0.5608  0.1713  0.7556
 1990SOL    HW3 7727   2.436   2.097   3.334 -0.9799 -0.5585 -1.4588
 1990SOL    MW4 7728   2.519   2.099   3.307 -0.3885  0.1382  0.2493
 1991SOL     OW 7729   4.013   1.288   0.708  0.4907 -0.0676  1.0351
 1991SOL    HW2 7730   4.103   1.257   0.717  0.5145 -0.2913  0.1467
 1991SOL    HW3 7731   4.012   1.331   0.622 -0.6921 -1.6685  0.1978
 1991SOL    MW4 7732   4.025   1.290   0.698  0.3378 -0.3084  0.8074
 1992SOL     OW 7733   2.296   1.870   2.624  0.0950  0.2130  0.1123
 1992SOL    HW2 7734   2.210   1.879   2.583 -0.0005 -2.8295 -0.6513
 1992SOL    HW3 7735   2.357   1.901   2.558 -0.3349  0.8986  0.0277
 1992SOL    MW4 7736   2.292   1.875   2.610  0.0257 -0.0979  0.0004
 1993SOL     OW 7737   4.715   1.576   2.916 -0.2628  0.2795  0.5036
 1993SOL    HW2 7738   4.707   1.623   2.999  1.8792 -1.9057  2.0952
 1993SOL    HW3 7739   4.724   1.484   2.941 -1.3086 -0.7015 -2.2997
 1993SOL    MW4 7740   4.715   1.570   2.930 -0.1182 -0.1382  0.3437
 1994SOL     OW 7741   2.387   3.813   0.948 -0.0171 -0.2333  0.8235
 1994SOL    HW2 7742   2.481   3.827   0.937  0.0517  0.4580  2.0837
 1994SOL    HW3 7743   2.381   3.725   0.986  0.0978 -0.4069  0.4427
 1994SOL    MW4 7744   2.399   3.803   0.951  0.0071 -0.1650  0.9395
 1995SOL     OW 7745   5.984   2.901   4.385  0.2343  0.4389  0.3213
 1995SOL    HW2 7746   6.070   2.921   4.422  0.6387 -0.7328  0.0277
 1995SOL    HW3 7747   5.986   2.940   4.298 -0.1051  1.7307  0.8636
 1995SOL    MW4 7748   5.996   2.909   4.378  0.2429  0.4548  0.3541
 1996SOL     OW 7749   3.451   2.448   5.925  0.7508 -0.6551 -0.3639
 1996SOL    HW2 7750   3.462   2.531   5.879  0.1670 -0.0484  0.5527
 1996SOL    HW3 7751   3.539   2.423   5.952  0.9633 -0.4885 -0.8955
 1996SOL    MW4 7752   3.464   2.456   5.923  0.7018 -0.5530 -0.3131
 1997SOL     OW 7753   5.466   6.165   2.426  0.1634  0.0862  0.5602
 1997SOL    HW2 7754   5.544   6.112   2.413  0.3030  0.7073 -1.3484
 1997SOL    HW3 7755   5.399   6.123   2.372 -0.5156  0.2216  1.2799
 1997SOL    MW4 7756   5.467   6.152   2.417  0.0922  0.1860  0.4034
 1998SOL     OW 7757   2.879   1.152   4.166 -0.6338 -0.1522 -0.2364
 1998SOL    HW2 7758   2.912   1.063   4.153 -1.1888 -0.3081 -0.6310
 1998SOL    HW3 7759   2.815   1.165   4.095 -0.2945  0.6949 -0.3972
 1998SOL    MW4 7760   2.875   1.142   4.155 -0.6623 -0.0610 -0.3097
 1999SOL     OW 7761   4.261   2.204   4.583  0.1315 -0.2320  0.5107
 1999SOL    HW2 7762   4.221   2.122   4.610 -1.6209  1.0546  2.1153
 1999SOL    HW3 7763   4.295   2.243   4.664  0.5969  0.7891 -0.1447
 1999SOL    MW4 7764   4.260   2.199   4.597 -0.0383  0.0725  0.6359
 2000SOL     OW 7765   1.737   0.811   4.315 -0.2806 -0.0310 -0.1187
 2000SOL    HW2 7766   1.810   0.860   4.277 -1.3714  0.7115 -1.3184
 2000SOL    HW3 7767   1.751   0.721   4.284  0.0443  0.1345 -0.4670
 2000SOL    MW4 7768   1.749   0.806   4.306 -0.3817  0.0888 -0.3230
 2001SOL     OW 7769   6.390   5.035   1.338 -1.0575  0.0558  0.0320
 2001SOL    HW2 7770   6.314   5.061   1.287 -0.7694  0.9743  0.0582
 2001SOL    HW3 7771   6.373   5.067   1.426 -0.8637 -0.1681  0.1521
 2001SOL    MW4 7772   6.378   5.042   1.343 -0.9939  0.1474  0.0513
 2002SOL     OW 7773   3.355   5.706   1.102 -0.3145  0.7152  0.3996
 2002SOL    HW2 7774   3.280   5.710   1.042 -0.9193  1.8571  1.1813
 2002SOL    HW3 7775   3.428   5.679   1.047 -1.0102  0.9590 -0.6881
 2002SOL    MW4 7776   3.355   5.703   1.086 -0.4861  0.8980  0.3592
 2003SOL     OW 7777   4.328   5.269   1.262 -0.4521  0.1245  0.0615
 2003SOL    HW2 7778   4.303   5.203   1.197 -1.7686  1.2825 -0.6796
 2003SOL    HW3 7779   4.385   5.329   1.214 -0.4471  0.3317  0.3261
 2003SOL    MW4 7780   4.332   5.268   1.247 -0.6251  0.3046 -0.0014
 2004SOL     OW 7781   3.313   0.928   0.605  0.6040 -0.3083 -0.3177
 2004SOL    HW2 7782   3.250   0.860   0.631  1.1830 -0.4286  0.8130
 2004SOL    HW3 7783   3.301   0.998   0.669 -0.8637  1.2595 -2.1834
 2004SOL    MW4 7784   3.303   0.928   0.616  0.4868 -0.1173 -0.4147
 2005SOL     OW 7785   1.766   1.131   0.990  0.1012 -0.1201 -0.3261
 2005SOL    HW2 7786   1.789   1.086   1.072 -0.4821 -0.8412 -0.5431
 2005SOL    HW3 7787   1.683   1.174   1.009  0.3819  0.4038 -0.2893
 2005SOL    MW4 7788   1.758   1.131   1.004  0.0613 -0.1461 -0.3499
 2006SOL     OW 7789   2.193   5.132   2.589 -0.0213 -0.1493  0.0197
 2006SOL    HW2 7790   2.257   5.160   2.524  1.6564 -0.1323  1.5636
 2006SOL    HW3 7791   2.215   5.040   2.606 -0.3122 -0.1058  0.6630
 2006SOL    MW4 7792   2.205   5.123   2.583  0.1617 -0.1413  0.3083
 2007SOL     OW 7793   5.189   5.098   3.650 -0.1836  0.1161 -0.1134
 2007SOL    HW2 7794   5.281   5.078   3.632 -0.5036 -2.2240  0.5701
 2007SOL    HW3 7795   5.162   5.033   3.714 -2.2518  0.9592 -0.0471
 2007SOL    MW4 7796   5.198   5.087   3.656 -0.4987 -0.0814 -0.0145
 2008SOL     OW 7797   2.329   2.451   2.785 -0.2476 -0.8755  0.2145
 2008SOL    HW2 7798   2.295   2.401   2.711 -3.7575  0.4666  0.6894
 2008SOL    HW3 7799   2.320   2.393   2.860 -1.2692 -0.6777  0.2651
 2008SOL    MW4 7800   2.323   2.437   2.785 -0.8455 -0.6724  0.2838
 2009SOL     OW 7801   3.815   4.158   5.821 -0.2433  0.2612 -0.2441
 2009SOL    HW2 7802   3.786   4.186   5.908 -1.4110  1.6813 -1.0343
 2009SOL    HW3 7803   3.746   4.188   5.762  0.6923 -0.3498 -1.7078
 2009SOL    MW4 7804   3.802   4.166   5.825 -0.2739  0.3679 -0.5414
 2010SOL     OW 7805   5.685   4.707   1.421  0.3650  0.3242  0.5374
 2010SOL    HW2 7806   5.681   4.795   1.457  0.2680  0.0843  1.1299
 2010SOL    HW3 7807   5.775   4.678   1.434  1.1715  1.3200 -2.1112
 2010SOL    MW4 7808   5.696   4.714   1.427  0.4586  0.4239  0.2662
 2011SOL     OW 7809   4.655   1.945   3.436 -0.2497 -0.1944  0.1009
 2011SOL    HW2 7810   4.589   1.972   3.500 -1.0245 -0.9687 -0.3481
 2011SOL    HW3 7811   4.635   1.853   3.418 -1.4197  0.4905 -2.8062
 2011SOL    MW4 7812   4.644   1.937   3.442 -0.5063 -0.2062 -0.3419
 2012SOL     OW 7813   3.317   4.841   1.455  0.1456  0.1497 -0.0145
 2012SOL    HW2 7814   3.342   4.929   1.485 -0.2675  0.7601 -1.3613
 2012SOL    HW3 7815   3.237   4.821   1.504  1.4118 -0.4428  1.9182
 2012SOL    MW4 7816   3.310   4.850   1.466  0.2582  0.1520  0.0628
 2013SOL     OW 7817   2.395   2.286   2.159 -0.0564 -0.2102  0.6957
 2013SOL    HW2 7818   2.418   2.262   2.069 -2.0905  1.8615 -0.4662
 2013SOL    HW3 7819   2.350   2.209   2.193 -0.9200 -0.3678 -0.7315
 2013SOL    MW4 7820   2.392   2.272   2.151 -0.4387  0.0423  0.3541
 2014SOL     OW 7821   4.557   1.896   0.558 -0.1432  0.0624  0.2584
 2014SOL    HW2 7822   4.561   1.846   0.477  0.8103  0.7562 -0.1485
 2014SOL    HW3 7823   4.594   1.837   0.624  1.2435  0.2855 -0.2716
 2014SOL    MW4 7824   4.562   1.882   0.556  0.1656  0.1833  0.1348
 2015SOL     OW 7825   4.924   3.267   5.990  0.1032  0.4521  1.0331
 2015SOL    HW2 7826   4.833   3.279   5.964 -0.4871 -0.5792  2.4957
 2015SOL    HW3 7827   4.934   3.173   6.002  0.8876  0.6756  2.3987
 2015SOL    MW4 7828   4.913   3.256   5.988  0.1288  0.3455  1.4063
 2016SOL     OW 7829   1.390   5.089   1.149 -0.4361 -0.4075  0.1396
 2016SOL    HW2 7830   1.398   5.178   1.113  1.2315 -0.7922 -0.5043
 2016SOL    HW3 7831   1.363   5.103   1.240 -2.3956  0.6657 -0.5447
 2016SOL    MW4 7832   1.387   5.103   1.156 -0.4746 -0.3166 -0.0357
 2017SOL     OW 7833   6.079   4.993   3.821 -0.4399 -0.1589 -0.2406
 2017SOL    HW2 7834   6.067   4.904   3.786 -1.2671  0.2282 -0.9801
 2017SOL    HW3 7835   5.999   5.039   3.796 -0.3003  0.6160  0.7137
 2017SOL    MW4 7836   6.067   4.987   3.813 -0.5306 -0.0056 -0.2123
 2018SOL     OW 7837   5.221   1.678   2.764 -0.4116  0.3850 -0.2593
 2018SOL    HW2 7838   5.203   1.759   2.812  0.2298 -0.5660  1.6583
 2018SOL    HW3 7839   5.192   1.697   2.675 -1.6318  2.2241  0.4626
 2018SOL    MW4 7840   5.215   1.691   2.758 -0.4880  0.5022  0.0889
 2019SOL     OW 7841   4.540   2.668   4.526  0.0576  0.8934 -0.0541
 2019SOL    HW2 7842   4.465   2.688   4.469 -0.3915  0.2217  0.2854
 2019SOL    HW3 7843   4.593   2.748   4.524 -1.4053  1.9446  0.8562
 2019SOL    MW4 7844   4.537   2.681   4.518 -0.1947  0.9435  0.1108
 2020SOL     OW 7845   0.214   3.507   0.216 -0.2221  0.3158 -0.0574
 2020SOL    HW2 7846   0.277   3.502   0.288  2.2560  2.0198 -1.9472
 2020SOL    HW3 7847   0.166   3.588   0.231 -0.1180  0.3695 -0.0152
 2020SOL    MW4 7848   0.216   3.517   0.227  0.1186  0.5477 -0.3011
 2021SOL     OW 7849   0.373   1.728   4.759  0.1757  0.3641 -0.2995
 2021SOL    HW2 7850   0.364   1.778   4.677  1.4620  2.8360  0.9579
 2021SOL    HW3 7851   0.409   1.644   4.731  0.3884  1.0537 -2.3175
 2021SOL    MW4 7852   0.377   1.724   4.744  0.3735  0.7812 -0.3998
 2022SOL     OW 7853   5.883   2.707   5.269  0.1719 -0.6072 -0.0050
 2022SOL    HW2 7854   5.795   2.722   5.304 -0.8412 -1.6650 -1.9531
 2022SOL    HW3 7855   5.869   2.665   5.184  2.5365  0.1090 -0.8490
 2022SOL    MW4 7856   5.870   2.704   5.262  0.3502 -0.6522 -0.3734
 2023SOL     OW 7857   1.403   2.615   0.586  0.0130  0.0356 -0.4073
 2023SOL    HW2 7858   1.479   2.559   0.604  1.9627  2.4754 -0.3768
 2023SOL    HW3 7859   1.383   2.656   0.670 -1.1368 -0.2898 -0.5069
 2023SOL    MW4 7860   1.411   2.613   0.599  0.1186  0.3146 -0.4164
 2024SOL     OW 7861   6.135   0.736   4.374  0.0097 -0.1727 -0.0990
 2024SOL    HW2 7862   6.051   0.778   4.393 -0.2276 -1.4292  1.8719
 2024SOL    HW3 7863   6.125   0.647   4.408  2.1684 -0.3255  0.2181
 2024SOL    MW4 7864   6.122   0.730   4.381  0.2632 -0.3587  0.2028
 2025SOL     OW 7865   4.055   4.821   2.487 -0.0523  0.4107  0.5088
 2025SOL    HW2 7866   4.100   4.904   2.500 -0.7627  0.8808  0.0216
 2025SOL    HW3 7867   3.964   4.845   2.468 -0.1640 -0.4461 -0.1323
 2025SOL    MW4 7868   4.049   4.835   2.486 -0.1608  0.3597  0.3599
 2026SOL     OW 7869   0.455   2.162   5.345 -0.3495  0.9583 -0.5887
 2026SOL    HW2 7870   0.484   2.135   5.258  1.2095 -1.4455  0.5933
 2026SOL    HW3 7871   0.381   2.221   5.328  0.2778  1.0382 -3.5240
 2026SOL    MW4 7872   0.449   2.166   5.331 -0.0610  0.6517 -0.8200
 2027SOL     OW 7873   2.476   3.185   5.542  0.3819  0.2412 -0.6508
 2027SOL    HW2 7874   2.405   3.228   5.590  1.1436  0.5135  0.2672
 2027SOL    HW3 7875   2.487   3.101   5.587 -0.2320 -0.3768 -1.6237
 2027SOL    MW4 7876   2.468   3.180   5.554  0.4014  0.1956 -0.6580
 2028SOL     OW 7877   0.255   2.275   5.138 -0.6513 -0.1655 -0.0552
 2028SOL    HW2 7878   0.320   2.283   5.068 -0.9378  3.2198 -0.1014
 2028SOL    HW3 7879   0.171   2.287   5.093 -0.7946  3.0011  0.8152
 2028SOL    MW4 7880   0.253   2.278   5.123 -0.7080  0.6989  0.0535
 2029SOL     OW 7881   4.251   4.308   5.815  0.1270 -0.2663 -0.6569
 2029SOL    HW2 7882   4.250   4.253   5.737 -1.0060 -0.7866 -0.2856
 2029SOL    HW3 7883   4.163   4.342   5.823  0.1017 -0.5463  0.6144
 2029SOL    MW4 7884   4.239   4.305   5.806 -0.0259 -0.3719 -0.4402
 2030SOL     OW 7885   3.548   5.618   0.930  0.9011 -0.3886 -0.1786
 2030SOL    HW2 7886   3.637   5.619   0.964  0.6946 -0.2831  0.3575
 2030SOL    HW3 7887   3.560   5.625   0.835  1.5152 -1.8376 -0.2360
 2030SOL    MW4 7888   3.562   5.619   0.922  0.9549 -0.5659 -0.1154
 2031SOL     OW 7889   1.498   4.578   1.189 -0.2320 -0.2866  0.3232
 2031SOL    HW2 7890   1.404   4.580   1.173 -0.0909 -0.5002 -0.5941
 2031SOL    HW3 7891   1.520   4.668   1.214 -0.1547  0.7026 -2.8406
 2031SOL    MW4 7892   1.489   4.590   1.190 -0.2032 -0.1843 -0.2153
 2032SOL     OW 7893   0.551   1.715   2.412  0.5688  0.2006  0.2082
 2032SOL    HW2 7894   0.559   1.799   2.457 -0.1122  1.8341 -2.5303
 2032SOL    HW3 7895   0.469   1.721   2.365 -0.1134 -2.5546  0.8727
 2032SOL    MW4 7896   0.541   1.727   2.412  0.3889  0.0526 -0.0655
 2033SOL     OW 7897   6.104   6.227   4.983 -0.6301  0.1881 -0.6032
 2033SOL    HW2 7898   6.023   6.201   5.026  0.1223 -1.2098  0.0113
 2033SOL    HW3 7899   6.105   6.323   4.991 -1.3694  0.1001  0.9347
 2033SOL    MW4 7900   6.094   6.236   4.990 -0.6284 -0.0080 -0.3192
 2034SOL     OW 7901   5.316   1.452   0.781 -0.6823  0.0184  0.5781
 2034SOL    HW2 7902   5.251   1.433   0.714 -0.3819  0.2508  0.2168
 2034SOL    HW3 7903   5.395   1.477   0.732 -0.2026 -0.6397  1.0025
 2034SOL    MW4 7904   5.318   1.453   0.766 -0.5794 -0.0378  0.5864
 2035SOL     OW 7905   4.814   0.344   5.367  0.2243 -0.7148  0.2550
 2035SOL    HW2 7906   4.802   0.276   5.433 -0.9537 -0.2441  0.5433
 2035SOL    HW3 7907   4.892   0.392   5.395  0.0643 -0.8785  0.9842
 2035SOL    MW4 7908   4.823   0.341   5.379  0.0478 -0.6743  0.3892
 2036SOL     OW 7909   5.453   4.847   0.730 -0.0212  0.1214 -0.6253
 2036SOL    HW2 7910   5.413   4.768   0.767 -0.6036  0.4927 -0.4366
 2036SOL    HW3 7911   5.528   4.866   0.787 -1.4192  1.1926  0.9765
 2036SOL    MW4 7912   5.457   4.839   0.743 -0.2825  0.3117 -0.3891
 2037SOL     OW 7913   0.240   4.073   4.103  0.1033 -0.4588 -0.1119
 2037SOL    HW2 7914   0.286   4.045   4.182 -1.0322 -2.6294 -0.1514
 2037SOL    HW3 7915   0.278   4.022   4.033  0.0254  0.3091 -0.7311
 2037SOL    MW4 7916   0.251   4.063   4.104 -0.0568 -0.6439 -0.1988
 2038SOL     OW 7917   5.850   5.205   5.622 -0.2628 -1.0236  0.1787
 2038SOL    HW2 7918   5.933   5.227   5.580 -0.1338 -0.4704  0.7084
 2038SOL    HW3 7919   5.786   5.206   5.551  0.0063 -0.4127 -0.0631
 2038SOL    MW4 7920   5.853   5.208   5.607 -0.2103 -0.8700  0.2167
 2039SOL     OW 7921   6.244   1.216   2.204  0.1380 -0.0666  0.0192
 2039SOL    HW2 7922   6.206   1.283   2.260  3.3557  2.0678 -0.0416
 2039SOL    HW3 7923   6.217   1.240   2.115 -3.1520 -2.1786  0.2915
 2039SOL    MW4 7924   6.236   1.228   2.199  0.1284 -0.0636  0.0471
 2040SOL     OW 7925   3.957   2.996   2.306 -0.1851  0.1761 -0.5725
 2040SOL    HW2 7926   3.962   2.900   2.301 -1.9887  0.0742 -1.0177
 2040SOL    HW3 7927   3.894   3.020   2.239  1.6695  1.8746 -1.7930
 2040SOL    MW4 7928   3.950   2.986   2.297 -0.1784  0.3868 -0.7923
 2041SOL     OW 7929   2.730   6.111   2.753  0.3026  0.1775 -0.2654
 2041SOL    HW2 7930   2.701   6.086   2.665 -0.5839 -0.0745  0.0901
 2041SOL    HW3 7931   2.812   6.063   2.765  1.7089  2.0453 -1.8535
 2041SOL    MW4 7932   2.737   6.101   2.743  0.3712  0.3907 -0.4280
 2042SOL     OW 7933   4.371   3.163   5.936  0.4881  0.1148  0.2555
 2042SOL    HW2 7934   4.367   3.097   5.866  1.4160 -1.5888  1.7262
 2042SOL    HW3 7935   4.463   3.192   5.935  0.3239  0.6382  0.2828
 2042SOL    MW4 7936   4.383   3.158   5.926  0.5888 -0.0409  0.4531
 2043SOL     OW 7937   5.172   5.715   2.267  0.3104  0.1252  0.8625
 2043SOL    HW2 7938   5.126   5.696   2.349  1.1346  1.1034  1.5750
 2043SOL    HW3 7939   5.259   5.742   2.294  0.5663  0.5594 -0.3354
 2043SOL    MW4 7940   5.177   5.716   2.282  0.4529  0.3116  0.7984
 2044SOL     OW 7941   6.146   3.897   1.374 -0.1579 -0.1634  0.4291
 2044SOL    HW2 7942   6.194   3.822   1.338  1.7128  2.1189 -2.2724
 2044SOL    HW3 7943   6.054   3.876   1.359  0.3066 -1.9368 -0.1610
 2044SOL    MW4 7944   6.140   3.884   1.367  0.1502 -0.0962 -0.0052
 2045SOL     OW 7945   1.183   3.678   5.017 -0.3625  0.0106  0.1411
 2045SOL    HW2 7946   1.148   3.657   5.104 -0.6197 -1.0877 -0.2079
 2045SOL    HW3 7947   1.157   3.603   4.963  1.2809 -0.1377 -0.4791
 2045SOL    MW4 7948   1.175   3.665   5.021 -0.1796 -0.1539  0.0132
 2046SOL     OW 7949   2.551   4.824   0.508 -0.6041  0.0029 -0.1216
 2046SOL    HW2 7950   2.478   4.791   0.561  0.7558 -1.7911  0.7336
 2046SOL    HW3 7951   2.526   4.803   0.418 -0.8505 -1.3025  0.2191
 2046SOL    MW4 7952   2.538   4.817   0.503 -0.4572 -0.4060  0.0362
 2047SOL     OW 7953   5.737   5.509   2.649 -0.4003  0.8197 -0.1977
 2047SOL    HW2 7954   5.786   5.429   2.628  0.0232  1.0640 -0.1428
 2047SOL    HW3 7955   5.647   5.490   2.621 -0.1902  0.5186 -0.6783
 2047SOL    MW4 7956   5.731   5.496   2.642 -0.3167  0.8122 -0.2539
 2048SOL     OW 7957   0.812   2.972   5.732 -0.1264  0.1261 -0.0440
 2048SOL    HW2 7958   0.737   2.932   5.776 -1.5574  2.3150 -0.3608
 2048SOL    HW3 7959   0.791   2.967   5.639  0.5838 -0.0564 -0.2046
 2048SOL    MW4 7960   0.800   2.966   5.725 -0.2215  0.3908 -0.1070
 2049SOL     OW 7961   1.926   5.908   4.056 -0.5056  0.0007 -0.4695
 2049SOL    HW2 7962   2.017   5.936   4.052 -0.8839  1.8561  2.1549
 2049SOL    HW3 7963   1.930   5.813   4.042  2.0201 -0.2097  1.1048
 2049SOL    MW4 7964   1.938   5.899   4.053 -0.2223  0.2177  0.0845
 2050SOL     OW 7965   1.629   4.224   0.709 -0.0277  0.3690  0.1657
 2050SOL    HW2 7966   1.579   4.147   0.733  0.1113  0.6122  1.2888
 2050SOL    HW3 7967   1.571   4.274   0.652 -0.6168  0.0651  0.4920
 2050SOL    MW4 7968   1.615   4.221   0.705 -0.0871  0.3610  0.3570
 2051SOL     OW 7969   0.932   1.129   4.653  0.2766  0.1038 -0.0910
 2051SOL    HW2 7970   0.967   1.040   4.665  0.9636  0.6090  2.2915
 2051SOL    HW3 7971   0.947   1.171   4.738  1.1778  2.9208 -1.5307
 2051SOL    MW4 7972   0.939   1.122   4.666  0.4861  0.5421  0.0334
 2052SOL     OW 7973   0.040   2.415   4.585  0.1490 -0.4015 -0.0422
 2052SOL    HW2 7974  -0.009   2.494   4.565  1.6914  0.2069 -1.6484
 2052SOL    HW3 7975   0.009   2.350   4.522 -1.0844 -1.1188  1.2445
 2052SOL    MW4 7976   0.030   2.417   4.574  0.1898 -0.4158 -0.0844
 2053SOL     OW 7977   5.741   2.969   6.259  0.1795  0.3216  0.4016
 2053SOL    HW2 7978   5.684   2.892   6.253  0.5287  0.1444 -1.2943
 2053SOL    HW3 7979   5.685   3.041   6.230  0.2524  0.4676  0.6316
 2053SOL    MW4 7980   5.726   2.968   6.254  0.2352  0.3175  0.2082
 2054SOL     OW 7981   5.436   3.378   3.108 -0.1760  0.5071 -0.2700
 2054SOL    HW2 7982   5.373   3.319   3.068 -1.1691  0.7812  0.8459
 2054SOL    HW3 7983   5.446   3.450   3.045 -2.3827  1.3751  0.2980
 2054SOL    MW4 7984   5.429   3.380   3.094 -0.5982  0.6578 -0.0479
 2055SOL     OW 7985   5.366   5.959   4.788 -0.3953  0.1281 -0.0052
 2055SOL    HW2 7986   5.397   5.869   4.780  0.0513  0.1136  1.6577
 2055SOL    HW3 7987   5.271   5.953   4.782 -0.4926 -0.6972  1.7892
 2055SOL    MW4 7988   5.358   5.947   4.786 -0.3492  0.0173  0.4509
 2056SOL     OW 7989   5.003   1.910   5.283 -0.4107 -0.3480  0.2685
 2056SOL    HW2 7990   5.052   1.986   5.252 -1.7493  0.6443  0.5157
 2056SOL    HW3 7991   4.929   1.902   5.222 -1.4057 -0.1995  1.4267
 2056SOL    MW4 7992   5.000   1.919   5.271 -0.7186 -0.1975  0.4539
 2057SOL     OW 7993   1.627   3.092   4.718  0.5604 -0.0026 -0.3263
 2057SOL    HW2 7994   1.700   3.150   4.736  0.9686 -0.5906 -0.0359
 2057SOL    HW3 7995   1.591   3.071   4.805  1.7921 -1.9056 -0.2173
 2057SOL    MW4 7996   1.632   3.097   4.732  0.7767 -0.3312 -0.2736
 2058SOL     OW 7997   2.054   4.352   0.992  0.5504  0.0076 -1.1739
 2058SOL    HW2 7998   2.040   4.286   0.924  1.4997 -0.0807 -1.2880
 2058SOL    HW3 7999   2.047   4.304   1.074  1.4735 -0.2955 -1.2605
 2058SOL    MW4 8000   2.051   4.337   0.994  0.7975 -0.0441 -1.2004
 2059SOL     OW 8001   1.021   4.881   2.004  0.0477 -0.1477 -0.0819
 2059SOL    HW2 8002   0.978   4.964   1.984  1.2367 -0.0241 -2.5125
 2059SOL    HW3 8003   1.096   4.905   2.057  0.4638  0.3984 -0.8886
 2059SOL    MW4 8004   1.025   4.895   2.008  0.2595 -0.0593 -0.5091
 2060SOL     OW 8005   4.368   5.053   2.759 -0.3139  0.0949 -0.3006
 2060SOL    HW2 8006   4.424   5.014   2.692 -1.5997  1.4081 -2.2323
 2060SOL    HW3 8007   4.404   5.140   2.773 -0.1656 -0.1007  0.6479
 2060SOL    MW4 8008   4.380   5.059   2.752 -0.4640  0.2423 -0.4304
 2061SOL     OW 8009   0.399   1.807   5.740  0.1909 -0.1787  0.3447
 2061SOL    HW2 8010   0.359   1.889   5.771  0.5825 -0.0734  0.5796
 2061SOL    HW3 8011   0.458   1.782   5.811 -1.7312 -1.9935  1.4409
 2061SOL    MW4 8012   0.401   1.815   5.754 -0.0110 -0.4043  0.5203
 2062SOL     OW 8013   0.405   4.666   5.099  0.6303 -0.3245 -0.3952
 2062SOL    HW2 8014   0.392   4.632   5.010  0.1380 -0.7776 -0.1570
 2062SOL    HW3 8015   0.500   4.673   5.108  0.6625  2.9116 -2.1120
 2062SOL    MW4 8016   0.416   4.662   5.088  0.5696  0.0427 -0.5903
 2063SOL     OW 8017   2.460   6.259   4.930 -0.3652 -0.1508  0.3424
 2063SOL    HW2 8018   2.526   6.198   4.962 -0.7700 -1.5003 -1.2664
 2063SOL    HW3 8019   2.410   6.283   5.008  1.2793  0.0100  1.3957
 2063SOL    MW4 8020   2.462   6.254   4.944 -0.2016 -0.3076  0.2691
 2064SOL     OW 8021   4.427   0.512   4.594 -0.3939 -0.1928  0.4142
 2064SOL    HW2 8022   4.510   0.484   4.633 -0.9263  1.1518  2.7056
 2064SOL    HW3 8023   4.365   0.443   4.618 -0.5004  0.1348  1.1072
 2064SOL    MW4 8024   4.430   0.499   4.602 -0.4782  0.0278  0.8080
 2065SOL     OW 8025   0.388   5.351   2.185 -0.7296 -0.2592  0.9115
 2065SOL    HW2 8026   0.378   5.442   2.213 -1.7088  0.1731 -0.7285
 2065SOL    HW3 8027   0.459   5.354   2.120  0.8326 -1.0799  2.5082
 2065SOL    MW4 8028   0.396   5.364   2.180 -0.6527 -0.3105  0.9058
 2066SOL     OW 8029   3.982   2.313   2.843 -0.2099 -0.2076 -0.2774
 2066SOL    HW2 8030   4.072   2.346   2.847  0.2887 -1.5221 -0.0380
 2066SOL    HW3 8031   3.927   2.391   2.849  0.9165  0.7254 -1.5691
 2066SOL    MW4 8032   3.987   2.328   2.844  0.0045 -0.2579 -0.4162
 2067SOL     OW 8033   3.174   0.299   0.473 -0.3790 -0.1662  0.0187
 2067SOL    HW2 8034   3.230   0.373   0.451 -0.9175  0.6663  1.2494
 2067SOL    HW3 8035   3.216   0.259   0.549 -0.6021 -0.5070 -0.0364
 2067SOL    MW4 8036   3.187   0.304   0.480 -0.4795 -0.1013  0.1738
 2068SOL     OW 8037   2.570   0.176   1.745 -0.1426 -0.2415  0.2259
 2068SOL    HW2 8038   2.629   0.209   1.676 -0.0495  0.4118  0.6090
 2068SOL    HW3 8039   2.498   0.135   1.697  0.9851 -1.7389 -0.2497
 2068SOL    MW4 8040   2.568   0.175   1.729  0.0185 -0.3529  0.2137
 2069SOL     OW 8041   1.574   4.147   2.556 -0.0073  0.1953 -0.0168
 2069SOL    HW2 8042   1.484   4.176   2.549  0.5305  2.0032  0.1065
 2069SOL    HW3 8043   1.610   4.196   2.630  1.1522 -0.2880 -0.2224
 2069SOL    MW4 8044   1.567   4.157   2.565  0.2166  0.3701 -0.0276
 2070SOL     OW 8045   3.306   2.776   3.294  0.0011  0.3565  0.0297
 2070SOL    HW2 8046   3.278   2.845   3.354  0.2327  0.1480  0.3810
 2070SOL    HW3 8047   3.225   2.748   3.251  0.0403  1.4756 -0.7893
 2070SOL    MW4 8048   3.292   2.781   3.296  0.0368  0.4766 -0.0320
 2071SOL     OW 8049   3.735   0.128   0.398  0.0069  0.5655  0.0002
 2071SOL    HW2 8050   3.712   0.212   0.437  0.6383 -0.1488  2.0702
 2071SOL    HW3 8051   3.786   0.150   0.320 -0.3807  2.0949  0.1594
 2071SOL    MW4 8052   3.739   0.142   0.393  0.0391  0.6730  0.2943
 2072SOL     OW 8053   0.928   5.198   3.744 -0.5264 -0.2506 -0.1374
 2072SOL    HW2 8054   0.963   5.145   3.815 -1.0208  1.1172  1.1730
 2072SOL    HW3 8055   0.967   5.160   3.665  0.1151 -1.7428  0.8466
 2072SOL    MW4 8056   0.938   5.186   3.743 -0.5070 -0.2670  0.1653
 2073SOL     OW 8057   3.534   3.210   1.810 -0.7877  0.1474  0.3335
 2073SOL    HW2 8058   3.531   3.120   1.843  0.1255  0.3747  1.0639
 2073SOL    HW3 8059   3.625   3.224   1.787 -0.9178  0.9162  0.2794
 2073SOL    MW4 8060   3.545   3.200   1.812 -0.6844  0.2788  0.4227
 2074SOL     OW 8061   0.940   3.717   0.959  0.0223  0.1900  0.0366
 2074SOL    HW2 8062   0.973   3.799   0.997 -0.7188  1.1803 -1.3781
 2074SOL    HW3 8063   0.925   3.737   0.867 -1.9494 -1.0016  0.0444
 2074SOL    MW4 8064   0.942   3.730   0.952 -0.3356  0.1635 -0.1490
 2075SOL     OW 8065   0.453   6.219   0.875  0.1314  0.6751 -0.1968
 2075SOL    HW2 8066   0.393   6.158   0.833  0.7544  0.0554 -0.2177
 2075SOL    HW3 8067   0.500   6.165   0.939  0.9264  1.0601 -0.4489
 2075SOL    MW4 8068   0.451   6.204   0.878  0.3185  0.6441 -0.2328
 2076SOL     OW 8069   0.407   1.514   1.554  0.4243 -0.2980  0.1143
 2076SOL    HW2 8070   0.409   1.419   1.556 -0.5504 -0.3232  1.1503
 2076SOL    HW3 8071   0.409   1.537   1.461  2.9626 -1.2338 -0.1217
 2076SOL    MW4 8072   0.407   1.505   1.542  0.6306 -0.4248  0.2199
 2077SOL     OW 8073   0.845   2.141   0.308 -0.2164 -0.6796  0.0013
 2077SOL    HW2 8074   0.884   2.055   0.290  1.0408  0.1556 -1.5453
 2077SOL    HW3 8075   0.888   2.200   0.245 -0.7171  1.1713  1.3165
 2077SOL    MW4 8076   0.856   2.137   0.297 -0.1166 -0.3252 -0.0292
 2078SOL     OW 8077   1.770   2.036   5.056  0.4552 -0.0576 -0.1387
 2078SOL    HW2 8078   1.849   2.016   5.106  1.9464  1.1795 -1.8414
 2078SOL    HW3 8079   1.712   2.081   5.117  2.0579  1.0909  0.5761
 2078SOL    MW4 8080   1.773   2.039   5.070  0.8634  0.2572 -0.2690
 2079SOL     OW 8081   4.176   3.591   1.582  0.0002 -0.4196 -0.1113
 2079SOL    HW2 8082   4.226   3.653   1.529 -1.6951  2.3139  1.2450
 2079SOL    HW3 8083   4.229   3.578   1.661  0.8113 -1.5631 -0.8108
 2079SOL    MW4 8084   4.189   3.597   1.586 -0.1164 -0.2098 -0.0247
 2080SOL     OW 8085   5.632   5.589   3.840  0.2047 -0.3911 -0.5922
 2080SOL    HW2 8086   5.638   5.588   3.744 -0.8614  1.4484 -0.7376
 2080SOL    HW3 8087   5.554   5.537   3.859  0.6877 -1.1525 -0.6892
 2080SOL    MW4 8088   5.622   5.582   3.830  0.1278 -0.2489 -0.6242
 2081SOL     OW 8089   2.281   3.046   2.038  0.0013 -0.0063  0.1288
 2081SOL    HW2 8090   2.347   2.987   2.002 -1.4088 -1.6094  0.0440
 2081SOL    HW3 8091   2.281   3.120   1.977 -0.6697 -1.5782 -1.9083
 2081SOL    MW4 8092   2.290   3.048   2.025 -0.2733 -0.4252 -0.1512
 2082SOL     OW 8093   0.295   2.007   0.015 -0.4493 -0.8163 -1.0112
 2082SOL    HW2 8094   0.257   2.012  -0.072  1.4227 -1.0729 -1.8884
 2082SOL    HW3 8095   0.386   2.033   0.003 -0.0915 -1.0924  0.8292
 2082SOL    MW4 8096   0.302   2.011   0.002 -0.1551 -0.8865 -0.8841
 2083SOL     OW 8097   0.481   4.194   3.152  0.0861  0.3754  0.0968
 2083SOL    HW2 8098   0.547   4.220   3.088  0.9148  0.5312  1.0059
 2083SOL    HW3 8099   0.529   4.144   3.218 -0.5271  1.2609  1.2492
 2083SOL    MW4 8100   0.496   4.191   3.152  0.1146  0.5128  0.3688
 2084SOL     OW 8101   2.680   0.815   1.027 -0.0748  0.1239 -0.6150
 2084SOL    HW2 8102   2.645   0.873   1.095  0.7671  0.6611 -0.6212
 2084SOL    HW3 8103   2.604   0.765   0.996 -0.6086  0.4309  0.1701
 2084SOL    MW4 8104   2.665   0.816   1.032 -0.0341  0.2353 -0.5122
 2085SOL     OW 8105   0.661   0.261   2.541  0.2302  0.3490  0.2696
 2085SOL    HW2 8106   0.676   0.167   2.544 -0.5233  0.1444 -1.2871
 2085SOL    HW3 8107   0.592   0.272   2.475  0.6355  2.0185  0.0735
 2085SOL    MW4 8108   0.654   0.250   2.532  0.1842  0.5423  0.0383
 2086SOL     OW 8109   4.763   0.752   3.875  0.1281  0.2206 -0.4680
 2086SOL    HW2 8110   4.778   0.821   3.940 -2.1280 -0.5791  1.0049
 2086SOL    HW3 8111   4.690   0.784   3.821 -0.2474 -0.5530 -0.4362
 2086SOL    MW4 8112   4.755   0.765   3.876 -0.2191  0.0131 -0.2695
 2087SOL     OW 8113   5.439   3.174   0.382 -0.4441  0.0869 -0.1440
 2087SOL    HW2 8114   5.455   3.087   0.347 -0.5066 -0.3587  0.9165
 2087SOL    HW3 8115   5.521   3.221   0.368 -0.6921  0.1551 -1.5261
 2087SOL    MW4 8116   5.452   3.169   0.376 -0.4850  0.0371 -0.1864
 2088SOL     OW 8117   1.174   4.263   5.557  0.1848 -0.2594  0.1329
 2088SOL    HW2 8118   1.249   4.276   5.616 -0.6906  0.5466  1.1131
 2088SOL    HW3 8119   1.179   4.171   5.532  1.8701 -0.0738 -0.3598
 2088SOL    MW4 8120   1.185   4.253   5.562  0.2917 -0.1285  0.1972
 2089SOL     OW 8121   4.208   0.517   5.648  0.2525  0.1455  0.1650
 2089SOL    HW2 8122   4.246   0.475   5.571  0.6333  0.5988  0.1016
 2089SOL    HW3 8123   4.173   0.444   5.700  0.6131 -0.2217 -0.0990
 2089SOL    MW4 8124   4.209   0.502   5.645  0.3503  0.1569  0.1218
 2090SOL     OW 8125   5.552   2.785   0.196  0.1053 -0.2752  0.2323
 2090SOL    HW2 8126   5.647   2.773   0.200  0.1951  0.6359  1.2805
 2090SOL    HW3 8127   5.540   2.870   0.153 -0.2512 -0.4911 -0.1063
 2090SOL    MW4 8128   5.563   2.795   0.191  0.0701 -0.1835  0.3259
 2091SOL     OW 8129   4.086   6.280   2.121 -0.5930  0.6756  0.3359
 2091SOL    HW2 8130   4.089   6.250   2.030 -1.0121 -2.5001  1.2570
 2091SOL    HW3 8131   4.176   6.268   2.153 -0.6076  1.1255  0.5528
 2091SOL    MW4 8132   4.098   6.274   2.113 -0.6502  0.3160  0.4860
 2092SOL     OW 8133   4.823   1.562   5.887 -0.2256 -0.3314 -0.2523
 2092SOL    HW2 8134   4.800   1.626   5.954  0.6224  1.3127 -1.4694
 2092SOL    HW3 8135   4.739   1.538   5.847 -0.6065 -0.4309  0.5799
 2092SOL    MW4 8136   4.809   1.567   5.890 -0.1639 -0.1276 -0.3031
 2093SOL     OW 8137   0.337   4.621   3.686  0.4249  0.2955 -0.2763
 2093SOL    HW2 8138   0.316   4.625   3.593  1.7557  0.8288 -0.5800
 2093SOL    HW3 8139   0.433   4.611   3.689  0.2938 -1.0291  1.0220
 2093SOL    MW4 8140   0.347   4.620   3.674  0.5832  0.1911 -0.1451
 2094SOL     OW 8141   5.864   1.581   4.082 -0.1900  0.2465  0.1648
 2094SOL    HW2 8142   5.832   1.671   4.086 -0.3530  0.3857 -2.4394
 2094SOL    HW3 8143   5.954   1.588   4.051 -0.1505 -0.4701  0.0879
 2094SOL    MW4 8144   5.871   1.594   4.078 -0.2063  0.1703 -0.1890
 2095SOL     OW 8145   5.473   3.580   5.903 -0.4024  0.0746 -0.2811
 2095SOL    HW2 8146   5.549   3.603   5.850 -0.4672  0.4406 -0.2188
 2095SOL    HW3 8147   5.494   3.494   5.939  0.0346  0.2258 -0.1676
 2095SOL    MW4 8148   5.486   3.572   5.901 -0.3533  0.1428 -0.2579
 2096SOL     OW 8149   4.895   0.745   5.650 -0.3119  0.1768  0.3468
 2096SOL    HW2 8150   4.855   0.774   5.569  1.0333 -0.0332 -0.4185
 2096SOL    HW3 8151   4.835   0.774   5.719 -2.0739 -0.6701 -0.7718
 2096SOL    MW4 8152   4.882   0.752   5.649 -0.3669  0.0374  0.0983
 2097SOL     OW 8153   6.374   3.099   0.770 -0.1932 -0.4120  0.1318
 2097SOL    HW2 8154   6.452   3.061   0.811  1.0283  1.6040 -0.1546
 2097SOL    HW3 8155   6.399   3.114   0.679 -0.0580  2.2467  0.5295
 2097SOL    MW4 8156   6.388   3.096   0.764 -0.0142  0.2047  0.1465
 2098SOL     OW 8157   3.057   2.628   3.646 -0.3086  0.4792 -0.3001
 2098SOL    HW2 8158   3.057   2.546   3.695 -1.5582  1.4838  1.5453
 2098SOL    HW3 8159   2.978   2.673   3.676 -0.0073  2.0675 -1.7573
 2098SOL    MW4 8160   3.047   2.623   3.657 -0.4337  0.8213 -0.2489
 2099SOL     OW 8161   5.497   0.841   5.063 -0.2509  0.2398 -0.4247
 2099SOL    HW2 8162   5.591   0.836   5.081 -0.5422  0.1680  1.2032
 2099SOL    HW3 8163   5.487   0.801   4.977  1.3066  1.0250 -1.0184
 2099SOL    MW4 8164   5.508   0.835   5.054 -0.0838  0.3339 -0.2882
 2100SOL     OW 8165   3.433   0.916   2.876 -0.2089  0.0922 -0.4871
 2100SOL    HW2 8166   3.370   0.870   2.820  0.1456 -2.7515  1.2708
 2100SOL    HW3 8167   3.387   0.931   2.958  1.1989 -1.7935  0.7336
 2100SOL    MW4 8168   3.419   0.912   2.879  0.0236 -0.5318 -0.0941
 2101SOL     OW 8169   6.324   5.661   1.863  0.4645  0.4251 -0.0498
 2101SOL    HW2 8170   6.285   5.624   1.783 -0.4001 -0.1138  0.6108
 2101SOL    HW3 8171   6.265   5.731   1.889  0.2002 -0.0536  0.6650
 2101SOL    MW4 8172   6.311   5.665   1.856  0.3155  0.2908  0.1317
 2102SOL     OW 8173   1.768   1.577   3.881 -0.3850  0.2985 -0.1080
 2102SOL    HW2 8174   1.753   1.483   3.887  1.6534  0.0130  1.5781
 2102SOL    HW3 8175   1.827   1.588   3.807  1.1049 -0.0578  0.9748
 2102SOL    MW4 8176   1.774   1.566   3.872  0.0805  0.2138  0.2573
 2103SOL     OW 8177   5.947   4.810   1.230 -0.1273  0.2998  0.5337
 2103SOL    HW2 8178   5.915   4.731   1.184  0.6620 -0.2557  0.9248
 2103SOL    HW3 8179   6.042   4.806   1.221 -0.1102  1.7020 -0.2107
 2103SOL    MW4 8180   5.955   4.799   1.223 -0.0209  0.4115  0.4871
 2104SOL     OW 8181   1.138   3.036   1.963 -0.3958  0.1253 -0.7816
 2104SOL    HW2 8182   1.212   3.095   1.951 -0.3329 -0.1004 -1.5510
 2104SOL    HW3 8183   1.105   3.056   2.051  0.0669  0.7980 -0.7558
 2104SOL    MW4 8184   1.143   3.047   1.973 -0.3264  0.1843 -0.8797
 2105SOL     OW 8185   1.553   3.322   6.046 -0.0679  0.4178  0.3716
 2105SOL    HW2 8186   1.466   3.362   6.045 -0.8224 -1.0969  1.5618
 2105SOL    HW3 8187   1.548   3.251   5.982 -0.5387 -1.2385  2.1748
 2105SOL    MW4 8188   1.541   3.318   6.038 -0.2296 -0.0006  0.7665
 2106SOL     OW 8189   2.324   0.622   3.919 -0.2639  0.0857  0.2286
 2106SOL    HW2 8190   2.364   0.535   3.927  0.4473  0.3917  0.1212
 2106SOL    HW3 8191   2.377   0.677   3.977  0.9357  0.9887 -1.6151
 2106SOL    MW4 8192   2.336   0.618   3.928 -0.0118  0.2452 -0.0288
 2107SOL     OW 8193   5.970   3.149   1.636 -0.4847  0.1750 -0.3707
 2107SOL    HW2 8194   6.000   3.223   1.583  1.7497 -0.6767 -0.3777
 2107SOL    HW3 8195   5.950   3.187   1.722  2.1906  0.6101  0.1344
 2107SOL    MW4 8196   5.971   3.164   1.640  0.1631  0.1200 -0.3050
 2108SOL     OW 8197   1.164   4.737   5.209 -0.9298 -0.1572  0.5136
 2108SOL    HW2 8198   1.119   4.751   5.293 -2.5940 -2.9202  0.1932
 2108SOL    HW3 8199   1.097   4.751   5.143 -0.6388 -1.5983 -0.1279
 2108SOL    MW4 8200   1.149   4.741   5.212 -1.1110 -0.7118  0.3867
 2109SOL     OW 8201   1.303   0.880   5.938 -0.1196  0.2280 -0.1954
 2109SOL    HW2 8202   1.218   0.837   5.926  0.3394  0.0088 -3.3237
 2109SOL    HW3 8203   1.344   0.831   6.010 -1.8779 -0.8785  0.1136
 2109SOL    MW4 8204   1.297   0.868   5.946 -0.2910  0.0531 -0.5674
 2110SOL     OW 8205   2.823   4.930   4.966 -0.2871  0.1465  0.0348
 2110SOL    HW2 8206   2.800   4.841   4.993  0.3423  0.0626  0.2968
 2110SOL    HW3 8207   2.822   4.980   5.048  0.0121  0.2371 -0.0171
 2110SOL    MW4 8208   2.820   4.925   4.981 -0.1646  0.1474  0.0625
 2111SOL     OW 8209   4.682   5.768   6.094  0.2756 -0.4619 -0.5119
 2111SOL    HW2 8210   4.755   5.744   6.036 -0.1172 -0.3045 -1.0806
 2111SOL    HW3 8211   4.637   5.685   6.111  1.2300 -0.7477  0.7586
 2111SOL    MW4 8212   4.686   5.754   6.088  0.3497 -0.4789 -0.4193
 2112SOL     OW 8213   2.749   1.113   0.993  0.6963 -0.6945  0.0118
 2112SOL    HW2 8214   2.844   1.113   0.983  0.8146 -1.5015  0.9966
 2112SOL    HW3 8215   2.719   1.042   0.936  0.6141 -0.1001 -0.7105
 2112SOL    MW4 8216   2.757   1.104   0.984  0.7011 -0.7226  0.0464
 2113SOL     OW 8217   4.522   0.950   4.182  0.0390  0.3153 -0.0883
 2113SOL    HW2 8218   4.436   0.921   4.153 -0.5793  0.3454  1.5848
 2113SOL    HW3 8219   4.531   0.913   4.270  1.8342  0.1395 -0.3045
 2113SOL    MW4 8220   4.512   0.941   4.190  0.1943  0.2961  0.1039
 2114SOL     OW 8221   3.841   6.180   0.450  0.1084  0.4860 -0.0406
 2114SOL    HW2 8222   3.757   6.218   0.477  0.1756  0.7081 -0.1464
 2114SOL    HW3 8223   3.818   6.093   0.418  0.1966 -0.4265  2.1542
 2114SOL    MW4 8224   3.827   6.174   0.449  0.1289  0.3949  0.2350
 2115SOL     OW 8225   4.785   0.402   3.678  0.1286  0.0358 -0.1650
 2115SOL    HW2 8226   4.695   0.400   3.710  0.9580 -0.7492  2.4413
 2115SOL    HW3 8227   4.818   0.488   3.705  0.0123  0.5937 -1.7070
 2115SOL    MW4 8228   4.778   0.413   3.686  0.2227  0.0058 -0.0246
 2116SOL     OW 8229   2.111   4.220   1.247 -0.0268  0.2796  0.1088
 2116SOL    HW2 8230   2.199   4.196   1.217  0.7644 -0.0309  2.4774
 2116SOL    HW3 8231   2.125   4.297   1.302 -1.0007 -0.5440  1.5822
 2116SOL    MW4 8232   2.125   4.227   1.250 -0.0509  0.1300  0.6157
 2117SOL     OW 8233   1.200   3.182   4.578 -0.0392  0.5157 -0.4311
 2117SOL    HW2 8234   1.134   3.117   4.554 -1.2871  1.6717 -0.2113
 2117SOL    HW3 8235   1.282   3.146   4.542 -0.9567 -0.3844 -1.7446
 2117SOL    MW4 8236   1.202   3.169   4.570 -0.3249  0.5495 -0.5754
 2118SOL     OW 8237   2.725   1.554   2.307  0.1108  0.1356  0.1892
 2118SOL    HW2 8238   2.633   1.540   2.288  0.6276 -2.6916 -0.7676
 2118SOL    HW3 8239   2.740   1.508   2.390  1.1673 -2.0818 -1.1387
 2118SOL    MW4 8240   2.715   1.546   2.315  0.3184 -0.5300 -0.1123
 2119SOL     OW 8241   3.242   5.234   3.036 -0.0241  0.4044  0.0284
 2119SOL    HW2 8242   3.232   5.254   2.943  1.2694  0.2026 -0.1794
 2119SOL    HW3 8243   3.325   5.185   3.041 -0.3241 -0.0232  1.2228
 2119SOL    MW4 8244   3.252   5.230   3.025  0.1070  0.3213  0.1585
 2120SOL     OW 8245   1.214   4.086   2.847  0.2529 -0.5120  0.7795
 2120SOL    HW2 8246   1.126   4.093   2.811  1.0867  2.0780 -1.0182
 2120SOL    HW3 8247   1.247   4.002   2.814 -0.7618 -0.4784 -0.3849
 2120SOL    MW4 8248   1.207   4.076   2.838  0.2290 -0.1658  0.3887
 2121SOL     OW 8249   4.951   4.007   5.231 -0.3660  0.1419  0.2362
 2121SOL    HW2 8250   4.976   3.950   5.304 -1.7065 -0.5181  0.2170
 2121SOL    HW3 8251   4.886   4.066   5.268 -0.2388  0.5429 -0.1667
 2121SOL    MW4 8252   4.946   4.007   5.246 -0.5261  0.1078  0.1805
 2122SOL     OW 8253   4.283   3.778   2.473 -0.2802 -0.4394  0.2118
 2122SOL    HW2 8254   4.206   3.741   2.430 -0.5995  0.0813  0.3242
 2122SOL    HW3 8255   4.248   3.845   2.532  0.4528  3.1429 -3.0182
 2122SOL    MW4 8256   4.268   3.782   2.476 -0.2256  0.1019 -0.1995
 2123SOL     OW 8257   2.978   0.715   2.433 -0.5982  0.2458 -0.1073
 2123SOL    HW2 8258   3.061   0.673   2.458 -1.1620 -0.1751  1.1374
 2123SOL    HW3 8259   2.925   0.644   2.398 -0.9785  0.2051  0.5316
 2123SOL    MW4 8260   2.982   0.700   2.432 -0.7228  0.1849  0.1412
 2124SOL     OW 8261   5.164   4.598   3.523  0.0099 -0.2802 -0.0972
 2124SOL    HW2 8262   5.109   4.548   3.583  0.5149  0.0548  0.6592
 2124SOL    HW3 8263   5.103   4.631   3.457 -0.7232  0.1674  0.7829
 2124SOL    MW4 8264   5.148   4.596   3.523 -0.0202 -0.1769  0.1187
 2125SOL     OW 8265   3.576   1.697   5.848  0.0178 -0.4724 -0.4251
 2125SOL    HW2 8266   3.619   1.681   5.933 -2.0774 -0.3649  0.7167
 2125SOL    HW3 8267   3.527   1.779   5.861  2.2106  1.4151 -2.8365
 2125SOL    MW4 8268   3.575   1.706   5.861  0.0307 -0.2091 -0.5926
 2126SOL     OW 8269   3.944   2.347   4.442 -0.2713  0.4642  0.1604
 2126SOL    HW2 8270   3.895   2.329   4.362 -0.1228 -1.2777  0.4289
 2126SOL    HW3 8271   3.891   2.412   4.488 -2.7220 -1.8351  0.7625
 2126SOL    MW4 8272   3.931   2.353   4.437 -0.5750 -0.0690  0.2753
 2127SOL     OW 8273   4.268   5.413   4.945  0.4523 -0.2358  0.4975
 2127SOL    HW2 8274   4.185   5.379   4.909 -0.4974  1.8667  0.5447
 2127SOL    HW3 8275   4.314   5.335   4.975 -0.6618 -1.6658 -1.2622
 2127SOL    MW4 8276   4.263   5.398   4.944  0.1800 -0.1471  0.2716
 2128SOL     OW 8277   3.197   0.358   2.086  0.2676  0.1441  0.0749
 2128SOL    HW2 8278   3.208   0.379   1.993  0.9889  0.4707  0.2273
 2128SOL    HW3 8279   3.271   0.401   2.129  0.2401 -0.4554  0.7372
 2128SOL    MW4 8280   3.208   0.366   2.080  0.3591  0.1081  0.1824
 2129SOL     OW 8281   4.131   4.419   3.545 -0.0541 -0.0622  0.2295
 2129SOL    HW2 8282   4.132   4.385   3.455 -1.2312  0.7055 -0.1081
 2129SOL    HW3 8283   4.217   4.460   3.556  0.0086  0.0788 -0.6582
 2129SOL    MW4 8284   4.143   4.420   3.534 -0.2011  0.0577  0.0678
 2130SOL     OW 8285   2.914   1.077   5.300  0.2100  0.1102  0.0193
 2130SOL    HW2 8286   2.940   0.998   5.347  0.2877 -0.4415 -0.9392
 2130SOL    HW3 8287   2.895   1.048   5.211  0.9523  1.2760 -0.5585
 2130SOL    MW4 8288   2.915   1.063   5.295  0.3182  0.1912 -0.1834
 2131SOL     OW 8289   6.275   0.371   3.618 -0.3810  0.3381 -0.0190
 2131SOL    HW2 8290   6.282   0.278   3.598 -0.1142 -0.0595  1.7215
 2131SOL    HW3 8291   6.363   0.406   3.603 -0.4102  0.2539 -0.3963
 2131SOL    MW4 8292   6.287   0.363   3.613 -0.3496  0.2745  0.1609
 2132SOL     OW 8293   3.780   6.277   5.013 -0.4436  0.5661  0.4029
 2132SOL    HW2 8294   3.834   6.352   5.038 -1.1776  1.7398 -1.3559
 2132SOL    HW3 8295   3.770   6.285   4.918  0.0302 -2.1812  0.0409
 2132SOL    MW4 8296   3.786   6.288   5.004 -0.4779  0.3585  0.1231
 2133SOL     OW 8297   3.123   5.304   4.271  0.3356 -0.0134  0.3981
 2133SOL    HW2 8298   3.174   5.295   4.352  2.1400 -0.6272 -0.7451
 2133SOL    HW3 8299   3.090   5.216   4.254  2.0053 -0.4485 -0.7753
 2133SOL    MW4 8300   3.125   5.291   4.280  0.7940 -0.1518  0.0924
 2134SOL     OW 8301   2.989   1.723   3.893 -0.0750 -0.4212 -0.0989
 2134SOL    HW2 8302   2.899   1.723   3.858  0.1860  0.5989 -0.8246
 2134SOL    HW3 8303   3.030   1.647   3.852 -0.2335 -0.1318 -0.8240
 2134SOL    MW4 8304   2.982   1.713   3.883 -0.0614 -0.2485 -0.2903
 2135SOL     OW 8305   0.713   0.443   6.104 -0.1466 -0.6206  0.0604
 2135SOL    HW2 8306   0.651   0.485   6.044  1.0439 -1.3647 -1.7577
 2135SOL    HW3 8307   0.791   0.498   6.101  0.1462 -1.0061  0.4607
 2135SOL    MW4 8308   0.715   0.456   6.095  0.0491 -0.7696 -0.1267
 2136SOL     OW 8309   1.491   6.171   0.260 -0.1221 -0.4716  0.0619
 2136SOL    HW2 8310   1.583   6.162   0.284  0.1609  1.4688 -0.0728
 2136SOL    HW3 8311   1.443   6.119   0.324  0.9590  0.1529  1.4075
 2136SOL    MW4 8312   1.497   6.163   0.271  0.0578 -0.1332  0.2217
 2137SOL     OW 8313   4.307   5.134   1.529  0.0562  0.3382 -0.2992
 2137SOL    HW2 8314   4.317   5.182   1.446 -0.5455  0.5928 -0.2332
 2137SOL    HW3 8315   4.336   5.197   1.595 -1.6843  1.0088 -0.1246
 2137SOL    MW4 8316   4.312   5.149   1.527 -0.2528  0.4603 -0.2674
 2138SOL     OW 8317   1.622   1.216   3.197  0.2007 -0.3545  0.4891
 2138SOL    HW2 8318   1.608   1.309   3.178 -1.0139 -0.7638 -0.7431
 2138SOL    HW3 8319   1.699   1.193   3.144  1.5271  0.2781  2.0307
 2138SOL    MW4 8320   1.631   1.225   3.187  0.2154 -0.3250  0.5299
 2139SOL     OW 8321   5.861   5.500   0.311 -0.2515 -0.0927 -0.3126
 2139SOL    HW2 8322   5.848   5.432   0.378  1.0849  0.3284  0.4179
 2139SOL    HW3 8323   5.950   5.531   0.326 -0.4568  1.0643 -1.3488
 2139SOL    MW4 8324   5.871   5.495   0.322 -0.1023  0.1155 -0.3530
 2140SOL     OW 8325   2.229   4.351   5.700 -0.8096 -0.3368  0.0746
 2140SOL    HW2 8326   2.143   4.334   5.662 -1.2310  1.8226 -0.0533
 2140SOL    HW3 8327   2.291   4.328   5.630 -1.5594  3.3024 -2.0523
 2140SOL    MW4 8328   2.226   4.346   5.686 -0.9641  0.4282 -0.2229
 2141SOL     OW 8329   2.209   2.493   5.657  0.5294 -0.3265  0.0438
 2141SOL    HW2 8330   2.243   2.406   5.633  0.7183  0.1731 -1.6508
 2141SOL    HW3 8331   2.195   2.536   5.573 -2.7941  0.0890  0.7044
 2141SOL    MW4 8332   2.212   2.487   5.643  0.1158 -0.2058 -0.0926
 2142SOL     OW 8333   2.891   4.586   0.337 -0.1439  0.5342  0.0820
 2142SOL    HW2 8334   2.874   4.610   0.429 -0.9162 -0.3303  0.1712
 2142SOL    HW3 8335   2.920   4.668   0.297 -0.9120  1.1932  0.8291
 2142SOL    MW4 8336   2.893   4.600   0.344 -0.3471  0.5071  0.1924
 2143SOL     OW 8337   5.063   6.367   2.410 -0.4427 -0.0007 -0.3313
 2143SOL    HW2 8338   4.968   6.364   2.401 -0.6615  2.3556  0.4075
 2143SOL    HW3 8339   5.090   6.438   2.351  0.8669 -0.5800 -0.4614
 2143SOL    MW4 8340   5.054   6.376   2.401 -0.2988  0.2337 -0.2510
 2144SOL     OW 8341   2.085   3.617   3.342  0.1352  0.2532 -0.7855
 2144SOL    HW2 8342   2.049   3.588   3.426 -0.7063  1.6050 -0.6467
 2144SOL    HW3 8343   2.019   3.593   3.278  0.4072 -0.0449 -0.9544
 2144SOL    MW4 8344   2.072   3.610   3.345  0.0601  0.3923 -0.7895
 2145SOL     OW 8345   2.999   1.808   0.010 -0.0002 -0.3599  0.5834
 2145SOL    HW2 8346   2.964   1.722   0.033 -0.1999 -0.2314  0.7741
 2145SOL    HW3 8347   3.094   1.799   0.016 -0.0269 -0.5223  0.7630
 2145SOL    MW4 8348   3.007   1.796   0.014 -0.0301 -0.3643  0.6322
 2146SOL     OW 8349   4.710   1.405   6.358 -0.4386  0.5706  0.3883
 2146SOL    HW2 8350   4.774   1.335   6.373  1.1839  2.1983  1.3724
 2146SOL    HW3 8351   4.625   1.361   6.368  0.4993 -0.8994  3.0041
 2146SOL    MW4 8352   4.708   1.390   6.361 -0.1008  0.5914  0.8632
 2147SOL     OW 8353   0.823   4.672   5.316 -0.4956  0.0350  0.0419
 2147SOL    HW2 8354   0.875   4.732   5.368 -0.7238  1.0995 -0.9066
 2147SOL    HW3 8355   0.780   4.615   5.380 -1.0207  1.4987  1.0432
 2147SOL    MW4 8356   0.824   4.672   5.331 -0.5950  0.3685  0.0489
 2148SOL     OW 8357   1.338   4.897   6.098  0.5269  0.1267  0.3543
 2148SOL    HW2 8358   1.287   4.906   6.018 -0.8302 -0.4238  1.1133
 2148SOL    HW3 8359   1.356   4.986   6.126 -2.4608  0.5131  1.5016
 2148SOL    MW4 8360   1.333   4.910   6.091 -0.0463  0.1051  0.6058
 2149SOL     OW 8361   5.172   0.127   2.247  0.1012 -0.2539  0.3414
 2149SOL    HW2 8362   5.257   0.134   2.291  0.5439 -0.4642 -0.4586
 2149SOL    HW3 8363   5.194   0.112   2.155 -0.7518 -3.1846  0.5218
 2149SOL    MW4 8364   5.186   0.126   2.241  0.0471 -0.6683  0.2596
 2150SOL     OW 8365   1.297   1.581   4.816  0.0192 -0.1351 -0.0386
 2150SOL    HW2 8366   1.348   1.639   4.759  0.2867 -0.1438  0.1892
 2150SOL    HW3 8367   1.208   1.617   4.814 -0.0064 -0.2195 -0.5742
 2150SOL    MW4 8368   1.292   1.593   4.808  0.0511 -0.1474 -0.0792
 2151SOL     OW 8369   4.158   4.918   6.341  0.4719  0.1356  0.1706
 2151SOL    HW2 8370   4.198   4.843   6.298 -0.0015 -0.5707  0.9345
 2151SOL    HW3 8371   4.065   4.911   6.320  0.4373  0.5684  0.1673
 2151SOL    MW4 8372   4.151   4.907   6.333  0.4049  0.0995  0.2710
 2152SOL     OW 8373   2.430   3.237   0.105  0.2107  0.6588 -0.2333
 2152SOL    HW2 8374   2.479   3.257   0.025  2.7025 -1.5341  0.5685
 2152SOL    HW3 8375   2.376   3.162   0.081 -0.0695  0.8553 -0.2124
 2152SOL    MW4 8376   2.429   3.229   0.091  0.5025  0.3954 -0.1248
 2153SOL     OW 8377   5.981   0.475   5.893  0.9807 -0.4163  0.2052
 2153SOL    HW2 8378   6.053   0.511   5.841  0.7219 -0.7250 -0.3747
 2153SOL    HW3 8379   6.022   0.407   5.946  1.8408  1.8835  2.6719
 2153SOL    MW4 8380   5.996   0.470   5.893  1.0600 -0.1536  0.4541
 2154SOL     OW 8381   3.518   0.104   0.208 -0.0475 -0.4864  0.1847
 2154SOL    HW2 8382   3.586   0.139   0.265  0.1120 -0.1139 -0.2252
 2154SOL    HW3 8383   3.525   0.009   0.216 -0.4139 -0.4320  1.2264
 2154SOL    MW4 8384   3.528   0.097   0.216 -0.0748 -0.4300  0.2681
 2155SOL     OW 8385   3.260   0.778   3.380  0.0533  0.6000 -0.5352
 2155SOL    HW2 8386   3.166   0.767   3.371 -0.2049  2.2522 -0.3017
 2155SOL    HW3 8387   3.299   0.715   3.319 -1.2465  1.1782 -2.0198
 2155SOL    MW4 8388   3.253   0.769   3.371 -0.1522  0.8942 -0.7003
 2156SOL     OW 8389   2.336   5.417   0.549 -0.5480  0.3934  0.1347
 2156SOL    HW2 8390   2.402   5.465   0.499 -0.7318  0.8463  0.3121
 2156SOL    HW3 8391   2.256   5.424   0.497 -0.6230  0.4584  0.2549
 2156SOL    MW4 8392   2.334   5.424   0.536 -0.5821  0.4617  0.1740
 2157SOL     OW 8393   2.157   5.058   0.952 -0.1805 -0.3057  0.2849
 2157SOL    HW2 8394   2.175   5.057   0.859 -1.1226  0.4278  0.0731
 2157SOL    HW3 8395   2.201   5.137   0.984  1.6956 -1.5172  0.8272
 2157SOL    MW4 8396   2.165   5.068   0.944 -0.0572 -0.3688  0.3285
 2158SOL     OW 8397   1.549   3.442   2.035  0.6746 -0.2435  0.2006
 2158SOL    HW2 8398   1.591   3.491   2.105  0.5107 -0.9225  0.7864
 2158SOL    HW3 8399   1.471   3.493   2.013  0.6032 -0.1465  0.6737
 2158SOL    MW4 8400   1.544   3.455   2.041  0.6435 -0.3203  0.3403
 2159SOL     OW 8401   0.068   2.147   3.625  0.1289  0.3370  0.7343
 2159SOL    HW2 8402   0.150   2.193   3.640  0.8758 -0.3788 -0.9179
 2159SOL    HW3 8403   0.095   2.058   3.600 -1.1315  0.2087 -0.2465
 2159SOL    MW4 8404   0.083   2.141   3.624  0.0611  0.2256  0.3869
 2160SOL     OW 8405   6.108   0.043   5.121 -0.6176 -0.6177  0.1959
 2160SOL    HW2 8406   6.057   0.083   5.191 -0.5517 -0.3590  0.0954
 2160SOL    HW3 8407   6.087   0.094   5.043 -0.1062 -0.4230  0.1799
 2160SOL    MW4 8408   6.099   0.055   5.120 -0.5414 -0.5579  0.1805
 2161SOL     OW 8409   3.712   4.479   2.800 -0.3000  0.2845 -0.3207
 2161SOL    HW2 8410   3.686   4.433   2.721 -0.6990 -1.3910  0.7173
 2161SOL    HW3 8411   3.781   4.540   2.772  0.8322 -1.5288 -1.6708
 2161SOL    MW4 8412   3.718   4.481   2.786 -0.2033 -0.1758 -0.3619
 2162SOL     OW 8413   0.232   1.994   6.173  0.3844 -0.0319 -0.3636
 2162SOL    HW2 8414   0.305   1.935   6.194  0.5056  0.8169  1.9867
 2162SOL    HW3 8415   0.271   2.081   6.176 -0.5365  0.3792  0.0337
 2162SOL    MW4 8416   0.247   1.998   6.176  0.2789  0.1343 -0.0011
 2163SOL     OW 8417   1.062   1.884   3.570 -0.4228 -0.4208  0.2891
 2163SOL    HW2 8418   1.039   1.831   3.646 -2.5169 -0.1534 -0.1115
 2163SOL    HW3 8419   0.979   1.918   3.537  0.2935 -1.0968 -2.5432
 2163SOL    MW4 8420   1.048   1.882   3.575 -0.6046 -0.4747 -0.1375
 2164SOL     OW 8421   5.777   0.585   3.313 -0.0986  0.0425 -0.3567
 2164SOL    HW2 8422   5.779   0.615   3.404  0.3584 -0.1659 -0.2939
 2164SOL    HW3 8423   5.738   0.498   3.317  0.6943 -0.3203 -0.2464
 2164SOL    MW4 8424   5.772   0.578   3.325  0.0663 -0.0329 -0.3338
 2165SOL     OW 8425   0.237   5.708   5.834  0.4466  0.0602 -0.2769
 2165SOL    HW2 8426   0.201   5.693   5.747  2.0240 -0.7911 -0.8282
 2165SOL    HW3 8427   0.271   5.797   5.830 -0.0689  0.2590 -0.3059
 2165SOL    MW4 8428   0.237   5.718   5.822  0.5867 -0.0259 -0.3534
 2166SOL     OW 8429   6.244   0.679   0.989 -0.1644  0.2762 -0.0763
 2166SOL    HW2 8430   6.302   0.642   0.921  1.1164 -0.3237  1.2867
 2166SOL    HW3 8431   6.179   0.611   1.003 -0.4328  0.3984 -0.6841
 2166SOL    MW4 8432   6.243   0.665   0.982 -0.0308  0.2132  0.0233
 2167SOL     OW 8433   1.361   1.821   4.671 -0.7255 -0.4079  0.5434
 2167SOL    HW2 8434   1.295   1.839   4.738 -3.3382  1.2507 -2.1976
 2167SOL    HW3 8435   1.319   1.848   4.589  2.3515 -2.0464 -1.7624
 2167SOL    MW4 8436   1.347   1.827   4.669 -0.6642 -0.4052 -0.1225
 2168SOL     OW 8437   3.208   4.992   2.166  0.1213 -0.0098 -0.2837
 2168SOL    HW2 8438   3.167   4.906   2.172  0.2508  0.0116  1.3669
 2168SOL    HW3 8439   3.291   4.982   2.214 -1.0961  1.7046  2.4308
 2168SOL    MW4 8440   3.214   4.979   2.173 -0.0222  0.2192  0.2923
 2169SOL     OW 8441   2.199   3.611   3.781  0.2697 -0.6569 -0.7612
 2169SOL    HW2 8442   2.167   3.681   3.724 -1.7125 -1.0130 -0.1728
 2169SOL    HW3 8443   2.261   3.562   3.726  0.5815  0.6752 -1.6509
 2169SOL    MW4 8444   2.203   3.614   3.766  0.0493 -0.5281 -0.8009
 2170SOL     OW 8445   3.150   3.710   2.502 -0.0753 -0.3404  0.2386
 2170SOL    HW2 8446   3.111   3.785   2.457 -0.8127 -1.5081 -1.1405
 2170SOL    HW3 8447   3.077   3.670   2.550  0.7548  1.0641  2.8354
 2170SOL    MW4 8448   3.135   3.714   2.502 -0.0630 -0.3092  0.3993
 2171SOL     OW 8449   1.644   3.389   3.856  0.2894 -0.2431 -0.5316
 2171SOL    HW2 8450   1.631   3.450   3.783  0.9072 -0.9412 -1.2376
 2171SOL    HW3 8451   1.640   3.444   3.934  0.4685  0.6499 -1.1361
 2171SOL    MW4 8452   1.642   3.404   3.857  0.3945 -0.2174 -0.7045
 2172SOL     OW 8453   5.948   5.366   2.858  0.1702  0.3970  0.3322
 2172SOL    HW2 8454   5.889   5.350   2.932  0.6586 -0.4908  0.5441
 2172SOL    HW3 8455   5.905   5.323   2.784 -0.6082  1.7853 -0.0478
 2172SOL    MW4 8456   5.934   5.358   2.858  0.1319  0.4630  0.3100
 2173SOL     OW 8457   5.569   1.826   0.983  0.4997 -0.1276  0.1325
 2173SOL    HW2 8458   5.635   1.857   1.044  0.8305 -1.0077  0.2396
 2173SOL    HW3 8459   5.611   1.752   0.938  0.9999  1.6646 -2.5693
 2173SOL    MW4 8460   5.583   1.820   0.985  0.6094 -0.0073 -0.2099
 2174SOL     OW 8461   3.602   3.580   1.317 -0.4556  0.4286  0.3463
 2174SOL    HW2 8462   3.563   3.516   1.376  0.4330 -1.3081 -0.8906
 2174SOL    HW3 8463   3.657   3.529   1.258  0.0930  2.3057 -0.8547
 2174SOL    MW4 8464   3.604   3.565   1.317 -0.2660  0.4471  0.0246
 2175SOL     OW 8465   5.607   0.441   6.269  0.8905  0.1976 -0.2310
 2175SOL    HW2 8466   5.561   0.358   6.277 -0.0526  0.7997  0.7900
 2175SOL    HW3 8467   5.692   0.418   6.231  0.1977 -1.0726 -1.0835
 2175SOL    MW4 8468   5.612   0.427   6.265  0.6746  0.1095 -0.2087
 2176SOL     OW 8469   4.664   1.059   1.055 -0.0126 -0.3577  0.3440
 2176SOL    HW2 8470   4.635   1.067   1.146  0.0634 -0.8582  0.4142
 2176SOL    HW3 8471   4.590   1.021   1.009 -0.2621  0.4329  0.0730
 2176SOL    MW4 8472   4.651   1.055   1.061 -0.0355 -0.3194  0.3175
 2177SOL     OW 8473   5.242   2.064   3.900 -0.0218  0.6092 -0.3794
 2177SOL    HW2 8474   5.175   2.009   3.861 -0.7624  1.5707 -0.5120
 2177SOL    HW3 8475   5.270   2.122   3.829  0.4655  0.6652 -0.1487
 2177SOL    MW4 8476   5.237   2.065   3.885 -0.0552  0.7434 -0.3664
 2178SOL     OW 8477   3.557   1.217   0.725 -0.0550 -0.2875 -0.0893
 2178SOL    HW2 8478   3.574   1.217   0.631  0.4656 -0.1554  0.0011
 2178SOL    HW3 8479   3.642   1.196   0.765  0.4785  2.5230  0.4636
 2178SOL    MW4 8480   3.570   1.215   0.718  0.0841  0.1007 -0.0044
 2179SOL     OW 8481   0.947   1.213   4.935 -0.3536 -0.4709  0.1204
 2179SOL    HW2 8482   0.891   1.135   4.930  0.1755 -0.8006 -1.2447
 2179SOL    HW3 8483   1.025   1.190   4.885 -0.3032  1.0264 -0.5490
 2179SOL    MW4 8484   0.950   1.200   4.928 -0.2771 -0.3169 -0.1480
 2180SOL     OW 8485   4.433   2.699   1.699 -0.2317 -0.6383 -0.2259
 2180SOL    HW2 8486   4.487   2.721   1.775  0.9007 -1.2876 -0.8192
 2180SOL    HW3 8487   4.476   2.744   1.625 -1.7494  0.6157 -0.3962
 2180SOL    MW4 8488   4.446   2.708   1.699 -0.2825 -0.5586 -0.3266
 2181SOL     OW 8489   0.130   2.923   2.846  0.3280  0.0546  0.1072
 2181SOL    HW2 8490   0.212   2.937   2.894  0.0399 -0.8008  0.8940
 2181SOL    HW3 8491   0.155   2.872   2.769  0.4965 -0.4780  0.5106
 2181SOL    MW4 8492   0.144   2.918   2.842  0.3122 -0.1286  0.2642
 2182SOL     OW 8493   2.791   3.569   3.461 -0.0553  0.0365  1.0780
 2182SOL    HW2 8494   2.765   3.655   3.426  0.0156  0.3005  1.6661
 2182SOL    HW3 8495   2.887   3.573   3.463  0.0009 -0.4506  0.1366
 2182SOL    MW4 8496   2.800   3.581   3.457 -0.0385  0.0071  1.0314
 2183SOL     OW 8497   2.551   3.534   2.624 -0.3693  0.6895  0.1592
 2183SOL    HW2 8498   2.545   3.462   2.688 -0.9093  0.7048  0.1272
 2183SOL    HW3 8499   2.468   3.581   2.633 -0.3902  0.7728 -0.4604
 2183SOL    MW4 8500   2.539   3.530   2.634 -0.4433  0.7025  0.0732
 2184SOL     OW 8501   6.195   5.894   1.930 -0.0218 -0.4158 -0.0713
 2184SOL    HW2 8502   6.220   5.909   2.021  0.0634  1.0806 -0.3071
 2184SOL    HW3 8503   6.115   5.842   1.934 -0.2050 -0.0722  0.8671
 2184SOL    MW4 8504   6.188   5.889   1.942 -0.0347 -0.1730  0.0214
 2185SOL     OW 8505   4.527   5.812   0.442  0.5654  0.3515 -0.1284
 2185SOL    HW2 8506   4.559   5.902   0.429  1.0060  0.0167 -1.5293
 2185SOL    HW3 8507   4.463   5.800   0.372 -0.3987 -0.0282  0.8047
 2185SOL    MW4 8508   4.523   5.823   0.431  0.4963  0.2572 -0.1901
 2186SOL     OW 8509   0.511   6.008   1.104  0.0498 -0.3895  0.3394
 2186SOL    HW2 8510   0.418   5.987   1.102 -0.3142  0.7391  2.8237
 2186SOL    HW3 8511   0.541   5.980   1.191  1.9810 -0.4155 -0.2743
 2186SOL    MW4 8512   0.503   6.001   1.115  0.2566 -0.2440  0.5862
 2187SOL     OW 8513   2.819   5.106   0.901  0.3198 -0.1039 -0.4132
 2187SOL    HW2 8514   2.845   5.169   0.968 -1.0284  1.1031 -0.9569
 2187SOL    HW3 8515   2.900   5.064   0.875  1.1362  0.7255  0.6544
 2187SOL    MW4 8516   2.833   5.109   0.907  0.2496  0.1648 -0.3440
 2188SOL     OW 8517   4.978   2.594   1.316  0.0459  0.3705  0.3001
 2188SOL    HW2 8518   4.997   2.681   1.349 -1.7302  0.0906  2.2044
 2188SOL    HW3 8519   5.013   2.535   1.383 -1.8358 -0.2593  0.7845
 2188SOL    MW4 8520   4.985   2.598   1.329 -0.4367  0.2505  0.6153
 2189SOL     OW 8521   0.712   0.613   4.534 -0.1621 -0.2880 -0.4903
 2189SOL    HW2 8522   0.709   0.588   4.441  0.3899 -0.2950 -0.5042
 2189SOL    HW3 8523   0.724   0.708   4.533  0.9381 -0.4137 -0.4298
 2189SOL    MW4 8524   0.713   0.622   4.522  0.0559 -0.3055 -0.4842
 2190SOL     OW 8525   4.457   0.289   2.624  0.2769  0.3234  0.5926
 2190SOL    HW2 8526   4.417   0.254   2.704 -0.8011  1.6961  0.6863
 2190SOL    HW3 8527   4.551   0.291   2.643  0.0630  0.3501  1.7124
 2190SOL    MW4 8528   4.464   0.285   2.637  0.1064  0.5080  0.7527
 2191SOL     OW 8529   1.002   0.337   3.994 -0.4723 -0.6325  0.0903
 2191SOL    HW2 8530   0.994   0.355   4.088 -1.3535 -0.0440 -0.0921
 2191SOL    HW3 8531   0.948   0.403   3.952  1.4672  0.3622 -0.9696
 2191SOL    MW4 8532   0.994   0.348   4.001 -0.3327 -0.4236 -0.0736
 2192SOL     OW 8533   4.302   5.689   4.199 -0.1741 -0.9002 -0.4248
 2192SOL    HW2 8534   4.343   5.753   4.257 -1.0293 -2.0037  1.4937
 2192SOL    HW3 8535   4.373   5.661   4.140  0.5719  0.6670 -0.3128
 2192SOL    MW4 8536   4.317   5.694   4.199 -0.1885 -0.8390 -0.1569
 2193SOL     OW 8537   3.157   5.822   1.444  0.1871 -0.1322  0.2239
 2193SOL    HW2 8538   3.119   5.858   1.524  0.5558  0.2534  0.2234
 2193SOL    HW3 8539   3.085   5.823   1.381 -0.4842 -1.6538  0.9061
 2193SOL    MW4 8540   3.142   5.827   1.446  0.1471 -0.2821  0.3138
 2194SOL     OW 8541   5.896   2.838   5.755  0.0951 -0.1583  0.1198
 2194SOL    HW2 8542   5.868   2.923   5.721  1.9968  0.6563  0.4376
 2194SOL    HW3 8543   5.877   2.843   5.849  1.2087  0.3772  0.3291
 2194SOL    MW4 8544   5.890   2.850   5.763  0.4929  0.0198  0.1893
 2195SOL     OW 8545   2.984   0.883   1.803  0.4253  0.0060 -0.0475
 2195SOL    HW2 8546   2.932   0.925   1.872 -0.7986 -1.8847  0.2313
 2195SOL    HW3 8547   3.056   0.842   1.850 -0.4851 -1.4011  0.1703
 2195SOL    MW4 8548   2.986   0.883   1.819  0.1437 -0.4291  0.0180
 2196SOL     OW 8549   2.964   4.711   0.883 -0.0857  0.4714  0.1016
 2196SOL    HW2 8550   3.006   4.740   0.802  0.7393 -0.8109  0.0465
 2196SOL    HW3 8551   3.036   4.698   0.944 -0.4586 -0.9645  0.2626
 2196SOL    MW4 8552   2.979   4.713   0.880 -0.0260  0.1128  0.1156
 2197SOL     OW 8553   6.176   2.601   6.279  0.1682 -0.0656  0.0827
 2197SOL    HW2 8554   6.255   2.573   6.234 -1.8415 -1.4928 -2.9141
 2197SOL    HW3 8555   6.115   2.527   6.269 -1.6949  1.0953  1.9232
 2197SOL    MW4 8556   6.178   2.587   6.272 -0.3428 -0.1008 -0.0698
 2198SOL     OW 8557   2.300   5.662   2.068  0.2284  0.1210 -0.5052
 2198SOL    HW2 8558   2.338   5.736   2.021  1.0977  0.9859  1.4310
 2198SOL    HW3 8559   2.366   5.593   2.063  0.9693  0.7166  0.6202
 2198SOL    MW4 8560   2.313   5.662   2.061  0.4409  0.3137 -0.1012
 2199SOL     OW 8561   2.729   0.596   2.719 -0.3154  0.3960 -0.3449
 2199SOL    HW2 8562   2.654   0.585   2.777  0.7899 -3.1587  0.6874
 2199SOL    HW3 8563   2.792   0.647   2.770  0.0869 -1.4862  1.1601
 2199SOL    MW4 8564   2.728   0.601   2.733 -0.1165 -0.3213 -0.0101
 2200SOL     OW 8565   2.638   4.697   4.217 -0.4008  0.4568  0.7713
 2200SOL    HW2 8566   2.660   4.691   4.124 -3.0912 -0.1118  0.0695
 2200SOL    HW3 8567   2.634   4.791   4.236  0.5459  0.5685  0.4265
 2200SOL    MW4 8568   2.640   4.709   4.208 -0.6308  0.3965  0.6332
 2201SOL     OW 8569   2.614   2.839   1.350 -0.5909 -0.1646  0.6751
 2201SOL    HW2 8570   2.560   2.852   1.272  0.6466  0.8080 -0.0681
 2201SOL    HW3 8571   2.607   2.922   1.398  1.2511  0.5118 -0.1294
 2201SOL    MW4 8572   2.606   2.852   1.346 -0.1846  0.0529  0.4709
 2202SOL     OW 8573   5.655   1.228   2.001 -0.2907  0.2738 -0.3889
 2202SOL    HW2 8574   5.682   1.188   2.084  0.6728  0.5845 -0.5441
 2202SOL    HW3 8575   5.574   1.274   2.022 -0.1477  0.2043  0.3463
 2202SOL    MW4 8576   5.648   1.229   2.015 -0.1447  0.3056 -0.3124
 2203SOL     OW 8577   0.732   3.859   0.269  0.3485  0.2606  0.0620
 2203SOL    HW2 8578   0.793   3.840   0.340 -0.1550  1.5398  0.8869
 2203SOL    HW3 8579   0.787   3.868   0.192  1.3040  1.8536  0.8712
 2203SOL    MW4 8580   0.747   3.858   0.268  0.4082  0.6396  0.2776
 2204SOL     OW 8581   1.600   1.773   2.332 -0.4050 -0.0312 -0.4075
 2204SOL    HW2 8582   1.586   1.865   2.353 -0.2407 -0.0743 -0.0917
 2204SOL    HW3 8583   1.687   1.770   2.292 -0.6781  0.0370 -1.0164
 2204SOL    MW4 8584   1.610   1.785   2.330 -0.4194 -0.0279 -0.4461
 2205SOL     OW 8585   3.394   0.935   3.173  0.1740  0.0480 -0.1743
 2205SOL    HW2 8586   3.325   0.912   3.235  0.6791 -0.7319  0.1155
 2205SOL    HW3 8587   3.466   0.967   3.228  1.3155 -2.3292 -0.1399
 2205SOL    MW4 8588   3.394   0.936   3.188  0.3913 -0.3686 -0.1315
 2206SOL     OW 8589   6.245   6.441   2.897 -0.5644 -0.3604  0.3203
 2206SOL    HW2 8590   6.227   6.420   2.805  1.2271  1.5077 -0.5179
 2206SOL    HW3 8591   6.180   6.507   2.920  0.0826  0.4688 -0.1832
 2206SOL    MW4 8592   6.234   6.447   2.888 -0.2427 -0.0046  0.1433
 2207SOL     OW 8593   0.425   5.158   3.408  0.4431  0.0406 -0.0467
 2207SOL    HW2 8594   0.504   5.103   3.407  0.5151  0.1520 -0.4088
 2207SOL    HW3 8595   0.459   5.247   3.413  0.3657  0.1439 -1.1726
 2207SOL    MW4 8596   0.440   5.162   3.409  0.4424  0.0689 -0.2431
 2208SOL     OW 8597   0.335   0.957   0.908  0.1367 -0.0103 -0.7063
 2208SOL    HW2 8598   0.371   1.004   0.833  0.4698 -0.1309 -0.6219
 2208SOL    HW3 8599   0.411   0.918   0.952  0.1318  1.2751  0.5310
 2208SOL    MW4 8600   0.350   0.958   0.904  0.1800  0.1433 -0.5319
 2209SOL     OW 8601   6.272   2.041   5.956  0.1706 -0.0362  0.2216
 2209SOL    HW2 8602   6.310   2.087   6.031 -0.3595 -1.1258  1.1869
 2209SOL    HW3 8603   6.290   2.098   5.882  0.2151  1.3445  1.2564
 2209SOL    MW4 8604   6.280   2.055   5.956  0.1065  0.0022  0.4855
 2210SOL     OW 8605   3.457   5.042   0.804  0.3713  0.2771  0.2436
 2210SOL    HW2 8606   3.377   5.084   0.771  0.4760  0.4264  0.1773
 2210SOL    HW3 8607   3.426   4.980   0.870  0.0703 -0.8591 -0.9253
 2210SOL    MW4 8608   3.442   5.040   0.809  0.3454  0.1469  0.0806
 2211SOL     OW 8609   2.929   6.203   2.225 -0.0667  0.0501  0.3596
 2211SOL    HW2 8610   2.982   6.126   2.204 -1.3363 -0.6439 -0.4781
 2211SOL    HW3 8611   2.913   6.245   2.140 -0.3604  0.5799  0.6720
 2211SOL    MW4 8612   2.934   6.198   2.211 -0.2730  0.0285  0.2903
 2212SOL     OW 8613   5.350   2.050   3.197 -0.5666 -0.2311 -0.0600
 2212SOL    HW2 8614   5.431   2.000   3.185 -0.9596 -0.8343 -0.2248
 2212SOL    HW3 8615   5.311   2.015   3.276 -0.7213 -0.0063 -0.0346
 2212SOL    MW4 8616   5.356   2.039   3.205 -0.6388 -0.2810 -0.0784
 2213SOL     OW 8617   6.055   1.665   5.083  0.4236 -0.2129  0.2868
 2213SOL    HW2 8618   6.034   1.746   5.036  0.7441 -1.0526 -1.4177
 2213SOL    HW3 8619   6.061   1.691   5.175 -1.0005  1.3870 -0.0105
 2213SOL    MW4 8620   6.053   1.679   5.089  0.2780 -0.1126  0.0227
 2214SOL     OW 8621   1.467   3.936   0.447  0.7873 -0.2027  0.4395
 2214SOL    HW2 8622   1.476   3.944   0.352  2.6330  1.9418  0.7209
 2214SOL    HW3 8623   1.526   3.864   0.470 -0.0638 -1.0845 -0.0538
 2214SOL    MW4 8624   1.476   3.928   0.438  0.9185 -0.0361  0.4115
 2215SOL     OW 8625   1.929   4.660   1.750 -0.4943  0.0946 -0.0989
 2215SOL    HW2 8626   1.842   4.641   1.785  0.1808  0.8727  2.1503
 2215SOL    HW3 8627   1.982   4.682   1.827  1.9562 -1.2319 -1.2780
 2215SOL    MW4 8628   1.925   4.660   1.765 -0.0819  0.0222  0.0423
 2216SOL     OW 8629   0.605   3.550   0.174 -0.6002 -1.0242 -0.0776
 2216SOL    HW2 8630   0.520   3.517   0.205 -0.0272 -0.8688  1.8231
 2216SOL    HW3 8631   0.605   3.642   0.199 -0.3155 -0.7264 -1.1273
 2216SOL    MW4 8632   0.594   3.558   0.182 -0.4870 -0.9644  0.0347
 2217SOL     OW 8633   3.802   4.974   2.155 -0.2019  0.3312 -0.5971
 2217SOL    HW2 8634   3.801   4.880   2.168 -1.0169  0.4528  0.3741
 2217SOL    HW3 8635   3.761   4.988   2.070 -2.6587 -0.0649  0.4448
 2217SOL    MW4 8636   3.797   4.964   2.146 -0.6336  0.2950 -0.3315
 2218SOL     OW 8637   0.673   5.047   1.278 -0.0057 -0.6248  0.5819
 2218SOL    HW2 8638   0.702   5.127   1.321 -0.7836 -0.4107  0.7245
 2218SOL    HW3 8639   0.681   4.980   1.346  0.8731 -0.7181  0.3899
 2218SOL    MW4 8640   0.678   5.049   1.293  0.0076 -0.6089  0.5754
 2219SOL     OW 8641   5.072   0.852   1.700 -0.6216  0.0569 -0.2468
 2219SOL    HW2 8642   5.127   0.866   1.623  0.3595 -0.9090  0.2487
 2219SOL    HW3 8643   5.041   0.939   1.724  2.7976  1.0923  0.9840
 2219SOL    MW4 8644   5.075   0.865   1.693 -0.0410  0.0661 -0.0190
 2220SOL     OW 8645   1.603   3.055   0.376 -0.2442  0.0057  0.1191
 2220SOL    HW2 8646   1.584   3.124   0.312 -0.3236  1.3043  1.4925
 2220SOL    HW3 8647   1.629   2.980   0.323 -0.0898  1.1035 -1.4288
 2220SOL    MW4 8648   1.603   3.054   0.360 -0.2343  0.3219  0.0960
 2221SOL     OW 8649   1.092   5.240   2.685 -0.3291  0.1908 -0.0121
 2221SOL    HW2 8650   1.078   5.256   2.591 -3.6148  1.7651  0.5894
 2221SOL    HW3 8651   1.076   5.146   2.695 -2.7641  0.4513 -0.7353
 2221SOL    MW4 8652   1.088   5.230   2.674 -1.0839  0.4329 -0.0282
 2222SOL     OW 8653   5.330   3.337   4.003 -0.3381  0.1656 -0.2670
 2222SOL    HW2 8654   5.254   3.394   4.009  0.0435  0.7344 -0.8006
 2222SOL    HW3 8655   5.294   3.251   3.981 -0.9265  0.1467  0.7463
 2222SOL    MW4 8656   5.316   3.333   4.001 -0.3654  0.2381 -0.2037
 2223SOL     OW 8657   5.987   0.477   6.299 -0.0497 -0.2814 -0.1903
 2223SOL    HW2 8658   5.924   0.549   6.292 -2.5826 -2.3705 -0.3251
 2223SOL    HW3 8659   5.970   0.438   6.384 -0.9102 -2.5343 -1.3145
 2223SOL    MW4 8660   5.977   0.481   6.309 -0.4974 -0.8543 -0.3564
 2224SOL     OW 8661   1.244   2.343   4.411 -0.0677  0.4199  0.1746
 2224SOL    HW2 8662   1.166   2.314   4.458  0.7947  0.1122  1.4612
 2224SOL    HW3 8663   1.233   2.308   4.323 -0.6267 -0.9806  0.7718
 2224SOL    MW4 8664   1.232   2.335   4.405 -0.0277  0.1946  0.4232
 2225SOL     OW 8665   0.284   6.372   5.891  0.1932 -0.4650  0.3489
 2225SOL    HW2 8666   0.344   6.356   5.818 -0.7209  0.6490 -0.6880
 2225SOL    HW3 8667   0.336   6.419   5.956 -0.1054  2.8363 -1.6166
 2225SOL    MW4 8668   0.299   6.376   5.890  0.0332  0.1175 -0.0473
 2226SOL     OW 8669   4.270   1.819   1.608 -0.2624 -0.4537  0.3682
 2226SOL    HW2 8670   4.341   1.783   1.555 -0.4614 -2.5018  1.3970
 2226SOL    HW3 8671   4.299   1.807   1.699 -0.7083  1.3352  0.7972
 2226SOL    MW4 8672   4.283   1.813   1.613 -0.3475 -0.4879  0.5605
 2227SOL     OW 8673   1.840   4.759   5.987 -0.2929  0.4501  0.3200
 2227SOL    HW2 8674   1.935   4.757   5.976 -0.1445  1.9686  1.0905
 2227SOL    HW3 8675   1.813   4.668   5.972  1.4868 -0.4296  1.8789
 2227SOL    MW4 8676   1.849   4.746   5.983 -0.0385  0.5344  0.6273
 2228SOL     OW 8677   4.114   2.902   1.218  0.0982  0.5054  0.4394
 2228SOL    HW2 8678   4.170   2.899   1.140  0.8873  0.5811  1.0000
 2228SOL    HW3 8679   4.127   2.990   1.254  0.0023  0.3527  0.8536
 2228SOL    MW4 8680   4.123   2.913   1.212  0.1896  0.4952  0.5680
 2229SOL     OW 8681   2.902   1.897   5.291  0.0780  0.3093 -0.0966
 2229SOL    HW2 8682   2.819   1.862   5.323  0.7640 -0.1275  1.2895
 2229SOL    HW3 8683   2.969   1.839   5.328  1.0129  0.5617 -1.2948
 2229SOL    MW4 8684   2.900   1.885   5.300  0.2918  0.2850 -0.0718
 2230SOL     OW 8685   5.793   1.160   3.981 -0.1057 -0.0493  0.2013
 2230SOL    HW2 8686   5.741   1.236   4.007  0.0006 -0.2858  1.1390
 2230SOL    HW3 8687   5.876   1.198   3.951  0.7289  0.1306  2.5945
 2230SOL    MW4 8688   5.797   1.175   3.980  0.0184 -0.0568  0.6407
 2231SOL     OW 8689   4.122   3.665   5.667 -0.4340 -0.0054  0.2833
 2231SOL    HW2 8690   4.048   3.722   5.688 -0.1294  0.8722 -0.8844
 2231SOL    HW3 8691   4.083   3.592   5.618 -0.5654  0.3002 -0.0698
 2231SOL    MW4 8692   4.107   3.663   5.663 -0.4111  0.1507  0.0827
 2232SOL     OW 8693   2.759   1.830   2.572 -0.1439  0.1871 -0.2207
 2232SOL    HW2 8694   2.816   1.812   2.497 -0.2185  0.2470 -0.2929
 2232SOL    HW3 8695   2.806   1.895   2.623  1.3398 -2.0512  1.4282
 2232SOL    MW4 8696   2.772   1.836   2.569  0.0420 -0.1003 -0.0127
 2233SOL     OW 8697   6.220   5.894   0.737 -0.2684 -0.3214  0.3065
 2233SOL    HW2 8698   6.218   5.800   0.720  0.4471 -0.1252 -0.9454
 2233SOL    HW3 8699   6.172   5.933   0.664 -0.1203  0.3228  0.5447
 2233SOL    MW4 8700   6.213   5.887   0.725 -0.1545 -0.2105  0.1728
 2234SOL     OW 8701   1.104   4.659   4.013  0.3383  0.0176 -0.7678
 2234SOL    HW2 8702   1.038   4.689   3.951 -2.2955 -0.6559  1.5221
 2234SOL    HW3 8703   1.083   4.567   4.028  0.3676  0.3417  1.6672
 2234SOL    MW4 8704   1.093   4.651   4.007 -0.0054 -0.0285 -0.1444
 2235SOL     OW 8705   1.287   1.833   0.345  0.2288  0.0935  0.1993
 2235SOL    HW2 8706   1.314   1.897   0.279  2.4769 -0.9999 -0.0471
 2235SOL    HW3 8707   1.194   1.848   0.357  0.3067  2.0899 -1.2788
 2235SOL    MW4 8708   1.278   1.843   0.338  0.5357  0.2127 -0.0282
 2236SOL     OW 8709   1.792   4.898   0.922  0.5736 -0.2448 -0.2121
 2236SOL    HW2 8710   1.749   4.957   0.984  0.6626  0.5474 -0.8905
 2236SOL    HW3 8711   1.865   4.950   0.886 -0.1727 -0.2621 -1.8466
 2236SOL    MW4 8712   1.796   4.913   0.925  0.4869 -0.1426 -0.5172
 2237SOL     OW 8713   6.343   1.076   5.817 -0.4516 -0.4560 -0.3511
 2237SOL    HW2 8714   6.347   1.094   5.723  0.1814 -2.7602 -0.8316
 2237SOL    HW3 8715   6.415   1.015   5.833 -0.5452 -0.1221  1.6509
 2237SOL    MW4 8716   6.353   1.070   5.807 -0.3804 -0.7159 -0.1504
 2238SOL     OW 8717   2.345   5.085   4.039  0.5170  0.2299 -0.4193
 2238SOL    HW2 8718   2.380   5.148   3.975  0.8559 -0.2152 -0.6826
 2238SOL    HW3 8719   2.344   5.001   3.992 -0.7923  0.2025 -0.3692
 2238SOL    MW4 8720   2.350   5.082   4.024  0.3889  0.1675 -0.4475
 2239SOL     OW 8721   3.026   4.375   0.190 -0.4186 -0.3662 -0.2288
 2239SOL    HW2 8722   2.967   4.432   0.240 -0.6318  0.1216 -1.0083
 2239SOL    HW3 8723   3.102   4.431   0.170  0.1620 -0.8883  0.4756
 2239SOL    MW4 8724   3.028   4.390   0.194 -0.3702 -0.3707 -0.2387
 2240SOL     OW 8725   0.971   3.544   3.775  0.2497  0.4233 -0.2437
 2240SOL    HW2 8726   0.881   3.517   3.755  0.3742  1.4892 -2.6582
 2240SOL    HW3 8727   1.025   3.476   3.735  0.5334  0.5169 -0.0165
 2240SOL    MW4 8728   0.966   3.531   3.767  0.3036  0.5763 -0.5323
 2241SOL     OW 8729   4.321   3.897   1.092  0.1863 -0.2266  0.2194
 2241SOL    HW2 8730   4.253   3.964   1.079  0.0212 -0.6493 -1.3189
 2241SOL    HW3 8731   4.288   3.842   1.163 -0.8662 -0.1474 -0.1975
 2241SOL    MW4 8732   4.308   3.899   1.100  0.0257 -0.2719 -0.0385
 2242SOL     OW 8733   0.207   5.435   0.676  0.5478  0.0431  0.1887
 2242SOL    HW2 8734   0.140   5.460   0.612  0.1498 -0.6208  0.3347
 2242SOL    HW3 8735   0.157   5.404   0.752  0.9475 -2.3354 -0.4215
 2242SOL    MW4 8736   0.191   5.434   0.677  0.5480 -0.3583  0.1274
 2243SOL     OW 8737   4.733   1.321   1.941  0.1403  0.2651 -0.3031
 2243SOL    HW2 8738   4.646   1.360   1.953  0.7933  1.6011  0.3035
 2243SOL    HW3 8739   4.725   1.268   1.862 -0.3212  3.2078 -2.4042
 2243SOL    MW4 8740   4.720   1.319   1.932  0.1655  0.8296 -0.5003
 2244SOL     OW 8741   1.734   1.136   6.325 -0.2280  0.2644 -0.0156
 2244SOL    HW2 8742   1.765   1.214   6.279 -1.2241 -0.0545 -1.2857
 2244SOL    HW3 8743   1.693   1.083   6.257  0.0031 -1.1545  0.9188
 2244SOL    MW4 8744   1.732   1.139   6.310 -0.3289  0.0351 -0.0599
 2245SOL     OW 8745   3.570   2.938   1.870 -0.0792 -0.1521  0.7347
 2245SOL    HW2 8746   3.531   2.943   1.782  0.0820  1.3031  0.7181
 2245SOL    HW3 8747   3.495   2.923   1.928 -0.5549  1.3559  0.5731
 2245SOL    MW4 8748   3.555   2.937   1.866 -0.1207  0.2388  0.7112
 2246SOL     OW 8749   5.223   2.957   1.177 -0.0121 -0.3781  0.2000
 2246SOL    HW2 8750   5.266   2.901   1.241  1.1172  0.5399  0.2635
 2246SOL    HW3 8751   5.213   3.041   1.221  0.1413  0.0624 -0.5910
 2246SOL    MW4 8752   5.227   2.961   1.192  0.1571 -0.1988  0.1040
 2247SOL     OW 8753   0.169   4.940   5.803  0.3881 -0.0752 -0.3321
 2247SOL    HW2 8754   0.114   4.881   5.751  0.1418 -0.4135  0.2918
 2247SOL    HW3 8755   0.251   4.892   5.815 -0.3741 -1.0691  1.5576
 2247SOL    MW4 8756   0.173   4.926   5.798  0.2551 -0.2509 -0.0005
 2248SOL     OW 8757   0.416   4.909   5.350 -0.7002 -0.4277  0.5367
 2248SOL    HW2 8758   0.461   4.848   5.292 -1.4356 -0.8398  0.3857
 2248SOL    HW3 8759   0.396   4.858   5.428  0.1829  0.0947  1.1182
 2248SOL    MW4 8760   0.419   4.894   5.352 -0.6807 -0.4132  0.5935
 2249SOL     OW 8761   3.951   1.697   4.765 -0.3930 -0.2561 -0.1314
 2249SOL    HW2 8762   3.903   1.754   4.705  0.7732  0.6633 -0.2198
 2249SOL    HW3 8763   3.895   1.620   4.774 -2.3368  1.1531  0.5106
 2249SOL    MW4 8764   3.937   1.694   4.758 -0.4956  0.0511 -0.0584
 2250SOL     OW 8765   1.684   0.739   5.418  0.7966 -0.1982  0.0434
 2250SOL    HW2 8766   1.597   0.771   5.396  1.4171  0.0382 -2.3686
 2250SOL    HW3 8767   1.743   0.806   5.384  1.9537  0.0057  2.2734
 2250SOL    MW4 8768   1.680   0.752   5.410  1.0312 -0.1401  0.0194
 2251SOL     OW 8769   6.031   3.638   5.214  0.5013  0.6442 -0.5583
 2251SOL    HW2 8770   5.937   3.634   5.196 -0.2733  1.1979  2.6821
 2251SOL    HW3 8771   6.058   3.546   5.218  0.0291  0.4722 -1.2221
 2251SOL    MW4 8772   6.022   3.625   5.212  0.3368  0.6946 -0.2183
 2252SOL     OW 8773   4.245   0.987   4.288 -0.2456  0.1527  0.7741
 2252SOL    HW2 8774   4.171   1.014   4.343 -1.9200  1.6953 -1.9829
 2252SOL    HW3 8775   4.288   1.069   4.263  2.1414 -0.6811  1.8455
 2252SOL    MW4 8776   4.241   1.001   4.292 -0.1516  0.2462  0.5517
 2253SOL     OW 8777   5.480   0.407   1.510 -0.2730 -0.5450  0.1519
 2253SOL    HW2 8778   5.509   0.392   1.420  0.3824 -2.6031  0.6312
 2253SOL    HW3 8779   5.543   0.470   1.545 -1.0816  1.0074 -1.0441
 2253SOL    MW4 8780   5.492   0.413   1.503 -0.2932 -0.6117  0.0574
 2254SOL     OW 8781   4.569   0.492   2.278  0.4512  0.2812 -0.1991
 2254SOL    HW2 8782   4.599   0.459   2.363 -0.7283  1.1717  0.5790
 2254SOL    HW3 8783   4.493   0.545   2.298 -0.5406 -0.4039 -1.9383
 2254SOL    MW4 8784   4.563   0.495   2.292  0.1648  0.3083 -0.3259
 2255SOL     OW 8785   4.078   2.640   4.105 -0.3921 -0.3164  0.1673
 2255SOL    HW2 8786   4.124   2.713   4.147 -0.6610 -0.2842  0.4073
 2255SOL    HW3 8787   4.023   2.681   4.038  0.8617 -0.4493 -1.0072
 2255SOL    MW4 8788   4.077   2.655   4.102 -0.2622 -0.3297  0.0440
 2256SOL     OW 8789   6.309   3.319   4.886  0.4449 -0.0486 -0.2900
 2256SOL    HW2 8790   6.246   3.278   4.826 -0.0398 -2.1967  1.5271
 2256SOL    HW3 8791   6.391   3.320   4.837 -0.0716 -1.1542 -1.2448
 2256SOL    MW4 8792   6.312   3.313   4.871  0.3128 -0.4779 -0.1762
 2257SOL     OW 8793   4.917   1.519   0.329  0.0530 -0.5670 -0.4527
 2257SOL    HW2 8794   4.884   1.449   0.385  1.1173 -0.5283  0.2448
 2257SOL    HW3 8795   4.980   1.476   0.271  1.5260 -0.0378  0.6989
 2257SOL    MW4 8796   4.921   1.504   0.329  0.3877 -0.4921 -0.2087
 2258SOL     OW 8797   2.101   1.612   3.369 -0.0816  0.3637 -0.2435
 2258SOL    HW2 8798   2.060   1.653   3.445 -1.9566 -0.7677 -0.5951
 2258SOL    HW3 8799   2.030   1.565   3.325  1.1883  0.0260 -2.0561
 2258SOL    MW4 8800   2.086   1.611   3.373 -0.1614  0.1699 -0.5290
 2259SOL     OW 8801   5.732   0.844   2.680  0.0689  0.3252 -0.4434
 2259SOL    HW2 8802   5.724   0.749   2.668 -0.6228  0.6155 -2.8138
 2259SOL    HW3 8803   5.654   0.869   2.728  0.1536 -0.2742  0.0167
 2259SOL    MW4 8804   5.721   0.835   2.685 -0.0112  0.2844 -0.6955
 2260SOL     OW 8805   2.644   3.478   3.696 -0.2588 -0.3555  0.4622
 2260SOL    HW2 8806   2.687   3.517   3.772 -0.5551  0.1515  0.3726
 2260SOL    HW3 8807   2.703   3.496   3.623 -0.2813 -0.2880  0.4611
 2260SOL    MW4 8808   2.657   3.485   3.696 -0.3009 -0.2797  0.4502
 2261SOL     OW 8809   2.408   5.014   1.416  0.7772 -0.0965 -0.3097
 2261SOL    HW2 8810   2.359   5.095   1.429 -0.6710 -1.2570  2.1893
 2261SOL    HW3 8811   2.476   5.015   1.483  0.9686 -0.7795 -0.4823
 2261SOL    MW4 8812   2.410   5.025   1.426  0.6114 -0.3397 -0.0027
 2262SOL     OW 8813   5.760   0.273   0.987  0.1686  0.3313 -0.1404
 2262SOL    HW2 8814   5.808   0.237   0.912  2.1970  1.2127  0.6682
 2262SOL    HW3 8815   5.773   0.368   0.980 -0.4125  0.4936  0.7995
 2262SOL    MW4 8816   5.768   0.281   0.976  0.3596  0.4690  0.0903
 2263SOL     OW 8817   4.563   1.925   1.788  0.6747 -0.4027 -0.4401
 2263SOL    HW2 8818   4.536   1.840   1.820  2.9742 -1.2601 -0.5936
 2263SOL    HW3 8819   4.527   1.930   1.699 -1.9363  0.0996  0.5551
 2263SOL    MW4 8820   4.555   1.915   1.780  0.6336 -0.4495 -0.3291
 2264SOL     OW 8821   1.948   1.362   2.287  0.3916  0.1085 -0.3869
 2264SOL    HW2 8822   1.881   1.417   2.326  0.4003 -0.3892  0.3511
 2264SOL    HW3 8823   1.906   1.277   2.277  1.2611 -0.5708  1.2743
 2264SOL    MW4 8824   1.934   1.358   2.291  0.5075 -0.0468 -0.0704
 2265SOL     OW 8825   1.965   1.929   5.211 -0.2694  0.1510 -0.2168
 2265SOL    HW2 8826   2.049   1.975   5.208  0.5706 -1.3443 -0.9888
 2265SOL    HW3 8827   1.938   1.934   5.302  1.5632 -0.8471  0.4340
 2265SOL    MW4 8828   1.973   1.936   5.222  0.0832 -0.1780 -0.2328
 2266SOL     OW 8829   4.967   2.392   5.722  0.0036  0.0469 -0.2231
 2266SOL    HW2 8830   4.990   2.353   5.638 -0.0531 -0.5308  0.0302
 2266SOL    HW3 8831   4.902   2.333   5.760  0.0922  0.2584  0.2668
 2266SOL    MW4 8832   4.962   2.379   5.716  0.0078 -0.0014 -0.1250
 2267SOL     OW 8833   5.257   4.166   4.424 -0.3937 -0.3448 -0.0955
 2267SOL    HW2 8834   5.242   4.231   4.355  2.0670 -1.0796 -1.4603
 2267SOL    HW3 8835   5.320   4.208   4.483 -1.1902 -0.3525  0.7694
 2267SOL    MW4 8836   5.264   4.180   4.423 -0.1741 -0.4428 -0.1615
 2268SOL     OW 8837   4.541   3.066   1.328  0.5307  0.4828 -0.2328
 2268SOL    HW2 8838   4.607   3.048   1.262 -0.2661 -0.7384 -0.7404
 2268SOL    HW3 8839   4.511   3.155   1.309  0.1067  0.0509 -1.7283
 2268SOL    MW4 8840   4.546   3.076   1.317  0.3696  0.2647 -0.4971
 2269SOL     OW 8841   6.399   4.826   1.034 -0.2497  0.5828 -0.4089
 2269SOL    HW2 8842   6.489   4.851   1.012 -0.2316  0.4873 -0.4460
 2269SOL    HW3 8843   6.395   4.732   1.016  0.5806 -0.1436  2.6905
 2269SOL    MW4 8844   6.410   4.817   1.028 -0.1377  0.4744 -0.0048
 2270SOL     OW 8845   0.920   2.566   5.461 -0.9663  0.2340  0.9298
 2270SOL    HW2 8846   1.009   2.530   5.469 -0.0268  2.4324  0.9719
 2270SOL    HW3 8847   0.932   2.661   5.462 -2.7725  0.8203 -4.0189
 2270SOL    MW4 8848   0.933   2.574   5.462 -1.0807  0.6014  0.2825
 2271SOL     OW 8849   3.058   1.209   0.886 -0.4415 -0.4006  0.4178
 2271SOL    HW2 8850   3.145   1.177   0.865  0.1414  1.4148 -0.1590
 2271SOL    HW3 8851   3.070   1.262   0.965 -0.9085  0.2241  0.0861
 2271SOL    MW4 8852   3.071   1.212   0.894 -0.4262 -0.0787  0.2980
 2272SOL     OW 8853   4.173   3.323   6.027 -0.2254  0.6403  0.1501
 2272SOL    HW2 8854   4.227   3.251   5.995 -1.9333 -0.9545  0.7271
 2272SOL    HW3 8855   4.193   3.395   5.967  1.4300 -0.3145 -0.5346
 2272SOL    MW4 8856   4.183   3.323   6.015 -0.2323  0.3039  0.1359
 2273SOL     OW 8857   2.511   2.121   3.987  0.3216 -0.1204 -0.0937
 2273SOL    HW2 8858   2.488   2.173   4.064 -1.8711 -1.0027 -0.0865
 2273SOL    HW3 8859   2.438   2.133   3.927  1.6548 -0.0433 -1.7787
 2273SOL    MW4 8860   2.499   2.130   3.989  0.2082 -0.2266 -0.3150
 2274SOL     OW 8861   0.206   4.796   4.528  0.4664  0.2229  0.1992
 2274SOL    HW2 8862   0.159   4.769   4.607  2.9308 -0.6079  1.5021
 2274SOL    HW3 8863   0.265   4.723   4.510  0.9516  1.0090 -1.6297
 2274SOL    MW4 8864   0.207   4.783   4.536  0.8556  0.2170  0.1298
 2275SOL     OW 8865   4.787   0.560   0.139  0.2154 -0.1182  0.0508
 2275SOL    HW2 8866   4.858   0.598   0.087  0.0565  0.4860  0.2763
 2275SOL    HW3 8867   4.764   0.480   0.092  2.0527 -1.1287  0.7649
 2275SOL    MW4 8868   4.793   0.554   0.126  0.4369 -0.1718  0.1747
 2276SOL     OW 8869   2.614   5.386   4.523  0.2141  0.2388  0.4148
 2276SOL    HW2 8870   2.626   5.335   4.603 -1.4676 -0.0423  0.5096
 2276SOL    HW3 8871   2.534   5.437   4.538  0.6556  1.2650 -0.5430
 2276SOL    MW4 8872   2.605   5.386   4.536  0.0505  0.3371  0.3009
 2277SOL     OW 8873   1.583   1.776   3.876 -0.1595 -0.5003  0.1134
 2277SOL    HW2 8874   1.649   1.707   3.866  1.0021  0.7547 -1.5898
 2277SOL    HW3 8875   1.529   1.768   3.797 -1.1069 -0.5563  0.7640
 2277SOL    MW4 8876   1.585   1.766   3.864 -0.1313 -0.3421 -0.0255
 2278SOL     OW 8877   4.591   5.671   5.236 -0.7382  0.7530  0.3390
 2278SOL    HW2 8878   4.593   5.619   5.317  0.7302  0.8692  0.3997
 2278SOL    HW3 8879   4.628   5.613   5.170 -1.6627  0.7638 -0.1959
 2278SOL    MW4 8880   4.596   5.656   5.238 -0.6665  0.7697  0.2764
 2279SOL     OW 8881   5.773   1.867   1.165 -0.0529  0.0999 -0.8909
 2279SOL    HW2 8882   5.839   1.807   1.131 -0.3152  1.5331 -4.4019
 2279SOL    HW3 8883   5.808   1.954   1.146 -1.3913  0.9933  0.5170
 2279SOL    MW4 8884   5.786   1.871   1.158 -0.2641  0.4068 -1.1684
 2280SOL     OW 8885   2.220   3.287   2.834  0.4186 -0.5985 -0.2081
 2280SOL    HW2 8886   2.180   3.249   2.913  0.3244  0.1664  0.1253
 2280SOL    HW3 8887   2.188   3.378   2.833  2.0769  0.0212  0.0379
 2280SOL    MW4 8888   2.211   3.294   2.845  0.6249 -0.4158 -0.1316
 2281SOL     OW 8889   5.629   5.438   0.040  0.3651  0.0290 -0.4294
 2281SOL    HW2 8890   5.656   5.521   0.080  2.7106 -0.3501 -1.0705
 2281SOL    HW3 8891   5.559   5.406   0.097  1.3123  1.0952  1.4497
 2281SOL    MW4 8892   5.624   5.445   0.053  0.7995  0.1197 -0.2661
 2282SOL     OW 8893   4.533   3.970   5.441  0.4341  0.7058 -0.6114
 2282SOL    HW2 8894   4.447   3.936   5.466  0.2888  1.0067 -0.6911
 2282SOL    HW3 8895   4.571   4.001   5.523  0.5490  0.3927 -0.5449
 2282SOL    MW4 8896   4.527   3.970   5.455  0.4300  0.7042 -0.6131
 2283SOL     OW 8897   1.944   0.040   4.213  0.2393  0.1574 -0.6051
 2283SOL    HW2 8898   1.975  -0.033   4.265  0.4559  0.1288 -0.7718
 2283SOL    HW3 8899   1.850   0.025   4.203 -0.1100  0.9998  1.1148
 2283SOL    MW4 8900   1.935   0.029   4.218  0.2218  0.2648 -0.4002
 2284SOL     OW 8901   0.365   5.856   4.207  0.3208 -0.1371  0.0207
 2284SOL    HW2 8902   0.333   5.807   4.131  0.1497  0.4619 -0.2934
 2284SOL    HW3 8903   0.318   5.816   4.281 -2.1839  1.5031 -0.5376
 2284SOL    MW4 8904   0.354   5.844   4.207 -0.0323  0.1583 -0.0944
 2285SOL     OW 8905   2.316   4.807   0.672  0.0673  0.3462  0.0532
 2285SOL    HW2 8906   2.280   4.893   0.649 -1.3361  0.0855  1.1208
 2285SOL    HW3 8907   2.340   4.816   0.765  1.7242  0.1378 -0.3185
 2285SOL    MW4 8908   2.315   4.820   0.681  0.1007  0.2843  0.1450
 2286SOL     OW 8909   3.002   3.870   1.917  0.2719 -0.2798 -0.7425
 2286SOL    HW2 8910   3.069   3.839   1.979 -1.4727 -1.2693  0.7750
 2286SOL    HW3 8911   3.044   3.863   1.831  2.2926 -0.3034  0.1743
 2286SOL    MW4 8912   3.016   3.865   1.914  0.3084 -0.4135 -0.4213
 2287SOL     OW 8913   0.292   0.787   1.510  0.3078 -0.2896 -0.1484
 2287SOL    HW2 8914   0.321   0.784   1.418 -0.1239 -2.2088 -0.2786
 2287SOL    HW3 8915   0.218   0.726   1.513  0.0623  0.0524  1.4059
 2287SOL    MW4 8916   0.286   0.778   1.498  0.2185 -0.4977  0.0394
 2288SOL     OW 8917   2.621   2.155   4.273  0.7241 -0.2269 -0.7167
 2288SOL    HW2 8918   2.679   2.088   4.310  0.5994 -0.2035 -0.4773
 2288SOL    HW3 8919   2.672   2.236   4.278  0.6119 -0.1780 -0.3609
 2288SOL    MW4 8920   2.635   2.157   4.279  0.6928 -0.2173 -0.6382
 2289SOL     OW 8921   4.233   0.200   3.736  0.0276 -0.3602  0.0706
 2289SOL    HW2 8922   4.172   0.274   3.738 -0.1290 -0.4679 -0.5265
 2289SOL    HW3 8923   4.301   0.223   3.798  0.1161  0.4072 -0.3013
 2289SOL    MW4 8924   4.234   0.213   3.744  0.0186 -0.2731 -0.0572
 2290SOL     OW 8925   0.314   1.430   0.227 -0.1982  0.5310 -0.4997
 2290SOL    HW2 8926   0.237   1.401   0.276  0.7150 -0.4330  0.4075
 2290SOL    HW3 8927   0.332   1.518   0.260 -0.7324  0.6420 -0.4987
 2290SOL    MW4 8928   0.306   1.438   0.238 -0.1482  0.4185 -0.3799
 2291SOL     OW 8929   1.597   0.999   2.523  0.5112  0.4613 -0.0380
 2291SOL    HW2 8930   1.556   0.973   2.440 -0.2359  0.6020  0.2797
 2291SOL    HW3 8931   1.537   1.063   2.560 -0.8741 -1.9081  2.1373
 2291SOL    MW4 8932   1.583   1.004   2.517  0.2298  0.1672  0.2909
 2292SOL     OW 8933   2.692   1.866   4.659 -0.4006  0.2996  0.7366
 2292SOL    HW2 8934   2.662   1.955   4.680  1.3883  1.6768 -1.8982
 2292SOL    HW3 8935   2.768   1.852   4.717  0.5560  1.3934 -0.1958
 2292SOL    MW4 8936   2.698   1.876   4.670 -0.0384  0.6256  0.2659
 2293SOL     OW 8937   4.146   0.574   4.541  0.1712  0.0046  0.3178
 2293SOL    HW2 8938   4.162   0.548   4.450 -0.2125  1.8079 -0.3189
 2293SOL    HW3 8939   4.233   0.585   4.579  0.3763  0.9938 -0.4033
 2293SOL    MW4 8940   4.159   0.572   4.534  0.1477  0.3731  0.1386
 2294SOL     OW 8941   2.432   3.466   0.744  0.2421 -0.3187  0.0898
 2294SOL    HW2 8942   2.396   3.414   0.672 -2.6511 -0.1255  1.2454
 2294SOL    HW3 8943   2.435   3.555   0.710 -0.8075 -0.2772  0.0830
 2294SOL    MW4 8944   2.428   3.471   0.730 -0.2781 -0.2877  0.2413
 2295SOL     OW 8945   1.484   5.647   2.239 -0.1377 -0.4595  0.1398
 2295SOL    HW2 8946   1.573   5.616   2.220 -0.8913 -2.5022 -0.2729
 2295SOL    HW3 8947   1.477   5.643   2.334 -0.5569 -2.7128  0.0604
 2295SOL    MW4 8948   1.495   5.642   2.249 -0.2924 -1.0263  0.0749
 2296SOL     OW 8949   1.242   4.765   3.030  0.1132 -0.3480 -0.1174
 2296SOL    HW2 8950   1.155   4.760   2.990 -0.7553  0.0860  1.6450
 2296SOL    HW3 8951   1.261   4.859   3.031  1.0168 -0.4972 -1.2915
 2296SOL    MW4 8952   1.233   4.777   3.025  0.1178 -0.3105 -0.0398
 2297SOL     OW 8953   4.587   3.093   0.578 -0.6434  0.2358 -0.7394
 2297SOL    HW2 8954   4.627   3.006   0.566 -0.0025  0.5492 -0.9256
 2297SOL    HW3 8955   4.655   3.154   0.550 -0.4128  0.8843  1.1015
 2297SOL    MW4 8956   4.601   3.089   0.573 -0.5284  0.3627 -0.5211
 2298SOL     OW 8957   3.277   2.616   2.649  0.0790 -1.1138 -0.4005
 2298SOL    HW2 8958   3.208   2.562   2.688  0.0597 -0.2167  0.8803
 2298SOL    HW3 8959   3.235   2.700   2.632  0.9378 -0.4265  0.7821
 2298SOL    MW4 8960   3.262   2.620   2.652  0.1897 -0.9047 -0.0755
 2299SOL     OW 8961   2.836   0.932   2.553 -0.1907 -0.4585  0.4165
 2299SOL    HW2 8962   2.873   0.865   2.495 -1.7786 -1.0357  0.0151
 2299SOL    HW3 8963   2.866   1.015   2.516 -0.2234 -0.8733 -0.5680
 2299SOL    MW4 8964   2.845   0.934   2.540 -0.4045 -0.5894  0.2336
 2300SOL     OW 8965   4.747   2.219   4.653 -0.6154 -0.0508  0.0165
 2300SOL    HW2 8966   4.739   2.192   4.562 -0.6411  1.7168 -0.5493
 2300SOL    HW3 8967   4.672   2.278   4.667 -0.2748  0.1776  0.9950
 2300SOL    MW4 8968   4.736   2.224   4.643 -0.5739  0.2125  0.0710
 2301SOL     OW 8969   6.329   1.114   0.928  0.3159  0.0853  0.3492
 2301SOL    HW2 8970   6.256   1.064   0.964  0.5333  0.6242  1.5986
 2301SOL    HW3 8971   6.404   1.090   0.983  0.9947 -0.1334 -0.6393
 2301SOL    MW4 8972   6.329   1.104   0.940  0.4341  0.1275  0.3836
 2302SOL     OW 8973   0.715   2.133   4.393 -0.3828  0.1176 -0.3171
 2302SOL    HW2 8974   0.785   2.071   4.375 -1.1941 -1.2623  1.0515
 2302SOL    HW3 8975   0.635   2.089   4.363 -0.9365  0.6376  0.3517
 2302SOL    MW4 8976   0.713   2.119   4.387 -0.5629  0.0041 -0.0483
 2303SOL     OW 8977   5.837   0.729   2.395 -0.4239  0.4547 -0.0040
 2303SOL    HW2 8978   5.907   0.789   2.418 -0.1548 -0.2112  0.9925
 2303SOL    HW3 8979   5.879   0.661   2.344  0.0354 -0.8061  1.9308
 2303SOL    MW4 8980   5.852   0.728   2.392 -0.3278  0.2005  0.3828
 2304SOL     OW 8981   4.012   4.258   5.013 -0.6101 -0.1876  0.3271
 2304SOL    HW2 8982   4.020   4.340   5.060  0.5408 -0.2599  0.2793
 2304SOL    HW3 8983   3.918   4.247   5.001 -0.8169  0.7754  0.9277
 2304SOL    MW4 8984   4.000   4.267   5.017 -0.4855 -0.0701  0.4000
 2305SOL     OW 8985   2.890   4.375   1.634  0.4669  0.5690 -0.5604
 2305SOL    HW2 8986   2.945   4.452   1.648  0.7239  0.2864  0.0049
 2305SOL    HW3 8987   2.883   4.335   1.721  0.4245 -0.1021 -0.8708
 2305SOL    MW4 8988   2.896   4.380   1.648  0.4952  0.4432 -0.5267
 2306SOL     OW 8989   1.810   3.336   0.086  0.3379  0.0522  0.0655
 2306SOL    HW2 8990   1.831   3.395   0.013 -3.3188  0.8899 -0.5057
 2306SOL    HW3 8991   1.834   3.249   0.054  0.9372  0.6495 -1.2116
 2306SOL    MW4 8992   1.816   3.333   0.072 -0.0655  0.2415 -0.1784
 2307SOL     OW 8993   1.928   3.869   5.936  0.2284 -0.3256 -0.4201
 2307SOL    HW2 8994   2.010   3.824   5.915  1.0614  0.9263  0.0637
 2307SOL    HW3 8995   1.954   3.958   5.958 -1.3089  0.1903 -0.5826
 2307SOL    MW4 8996   1.942   3.875   5.936  0.1355 -0.0924 -0.3777
 2308SOL     OW 8997   1.344   6.129   0.946 -0.2676  0.3713 -0.0893
 2308SOL    HW2 8998   1.277   6.160   0.885  0.8472  0.9107 -1.0776
 2308SOL    HW3 8999   1.375   6.208   0.990 -0.5078  0.0807  0.6100
 2308SOL    MW4 9000   1.339   6.143   0.944 -0.1522  0.4041 -0.1274
 2309SOL     OW 9001   0.243   0.495   5.726  0.2237  0.2891  0.0650
 2309SOL    HW2 9002   0.191   0.462   5.653  0.4418  1.0489 -0.4421
 2309SOL    HW3 9003   0.332   0.501   5.691 -0.0623  2.9890 -0.4289
 2309SOL    MW4 9004   0.248   0.491   5.712  0.2148  0.7456 -0.0670
 2310SOL     OW 9005   3.529   3.574   4.553 -0.1233  0.2880 -0.1951
 2310SOL    HW2 9006   3.503   3.615   4.470  0.8399  1.4935  0.0887
 2310SOL    HW3 9007   3.598   3.513   4.528 -0.2901  0.1617 -0.3587
 2310SOL    MW4 9008   3.535   3.571   4.539 -0.0182  0.4304 -0.1792
 2311SOL     OW 9009   0.844   6.055   1.810 -0.5431  0.5878  0.0798
 2311SOL    HW2 9010   0.841   6.064   1.905 -0.8577  1.4334  0.0023
 2311SOL    HW3 9011   0.770   5.998   1.789 -0.3657  0.2559  0.3542
 2311SOL    MW4 9012   0.834   6.049   1.820 -0.5612  0.6556  0.1058
 2312SOL     OW 9013   0.541   5.531   2.450 -0.7452 -0.0266 -0.0679
 2312SOL    HW2 9014   0.590   5.584   2.513  0.7604 -0.2656 -0.9830
 2312SOL    HW3 9015   0.529   5.446   2.493 -1.5227  0.4447  0.6705
 2312SOL    MW4 9016   0.546   5.527   2.464 -0.6491  0.0040 -0.0912
 2313SOL     OW 9017   6.130   0.437   4.402  0.1760 -0.1320 -0.1882
 2313SOL    HW2 9018   6.126   0.429   4.307  0.9767 -0.3108 -0.2117
 2313SOL    HW3 9019   6.163   0.352   4.432  1.2812  0.3903  0.1413
 2313SOL    MW4 9020   6.134   0.424   4.394  0.4274 -0.0867 -0.1478
 2314SOL     OW 9021   2.727   5.507   1.110  0.1352  0.7699  0.0142
 2314SOL    HW2 9022   2.640   5.511   1.069  0.1291  2.6003  0.1108
 2314SOL    HW3 9023   2.783   5.558   1.051  1.1253 -0.2265  0.0616
 2314SOL    MW4 9024   2.723   5.515   1.096  0.2650  0.8799  0.0332
 2315SOL     OW 9025   0.827   0.713   2.944 -0.5234  0.2983 -0.7606
 2315SOL    HW2 9026   0.811   0.786   3.004 -2.2483 -1.4346  1.0610
 2315SOL    HW3 9027   0.739   0.685   2.917 -0.0659 -2.2091  0.0833
 2315SOL    MW4 9028   0.813   0.719   2.949 -0.6906 -0.2612 -0.4089
 2316SOL     OW 9029   2.327   5.652   3.705 -0.2558 -0.1684  0.8746
 2316SOL    HW2 9030   2.338   5.566   3.666 -0.8896 -0.6802  1.7911
 2316SOL    HW3 9031   2.415   5.688   3.710 -0.2024  0.2624 -1.7183
 2316SOL    MW4 9032   2.340   5.646   3.700 -0.3323 -0.1791  0.6534
 2317SOL     OW 9033   5.516   6.198   1.505  0.1902  0.7486  0.0598
 2317SOL    HW2 9034   5.526   6.152   1.421 -0.2699 -2.0853  1.4167
 2317SOL    HW3 9035   5.422   6.195   1.523  0.2337  1.6989  0.5035
 2317SOL    MW4 9036   5.505   6.191   1.496  0.1352  0.5000  0.2973
 2318SOL     OW 9037   2.979   3.823   3.518 -0.7103 -0.3637 -0.4369
 2318SOL    HW2 9038   3.004   3.799   3.607 -0.9928 -2.8002 -0.9496
 2318SOL    HW3 9039   3.044   3.889   3.492 -0.9140  0.7568  1.6907
 2318SOL    MW4 9040   2.991   3.829   3.526 -0.7745 -0.5374 -0.2239
 2319SOL     OW 9041   1.356   6.040   3.807 -0.2398 -0.1617  0.2453
 2319SOL    HW2 9042   1.367   6.131   3.834 -0.8202 -0.3285  1.0773
 2319SOL    HW3 9043   1.436   5.996   3.838  0.5076  0.2460 -1.0434
 2319SOL    MW4 9044   1.368   6.046   3.815 -0.2178 -0.1299  0.1851
 2320SOL     OW 9045   4.204   0.545   3.254  0.2010  0.1126 -0.1731
 2320SOL    HW2 9046   4.295   0.517   3.246  0.2583  0.1897  0.1860
 2320SOL    HW3 9047   4.156   0.465   3.276  0.4714  0.3845  1.6013
 2320SOL    MW4 9048   4.209   0.531   3.256  0.2442  0.1587  0.1084
 2321SOL     OW 9049   5.256   3.011   5.146 -0.2226 -0.3056 -0.1061
 2321SOL    HW2 9050   5.192   2.942   5.164 -0.0735 -0.5261 -0.4128
 2321SOL    HW3 9051   5.319   3.005   5.217 -1.2258  0.7456  0.9122
 2321SOL    MW4 9052   5.256   3.001   5.158 -0.3353 -0.1960 -0.0122
 2322SOL     OW 9053   0.724   0.545   5.082  0.1631 -0.4857  0.1672
 2322SOL    HW2 9054   0.748   0.526   4.991 -0.0921 -0.1723  0.0332
 2322SOL    HW3 9055   0.639   0.589   5.076  0.1195 -0.5129  0.5618
 2322SOL    MW4 9056   0.716   0.548   5.069  0.1237 -0.4479  0.2016
 2323SOL     OW 9057   3.397   3.319   2.678  0.1109  0.1623 -0.5000
 2323SOL    HW2 9058   3.358   3.406   2.668 -1.2685 -0.5559 -1.7410
 2323SOL    HW3 9059   3.327   3.264   2.711  0.4899 -0.8220 -1.2696
 2323SOL    MW4 9060   3.383   3.323   2.681 -0.0211 -0.0623 -0.7653
 2324SOL     OW 9061   5.908   0.864   4.083 -0.3583  0.2054  0.4348
 2324SOL    HW2 9062   5.961   0.941   4.105  1.0832 -0.7919  0.6321
 2324SOL    HW3 9063   5.955   0.791   4.123 -3.1894 -0.5210  2.7110
 2324SOL    MW4 9064   5.922   0.865   4.091 -0.5416 -0.0220  0.7611
 2325SOL     OW 9065   6.393   0.332   0.975 -0.0879 -0.2665 -0.2577
 2325SOL    HW2 9066   6.387   0.360   1.066 -1.0314  0.3714 -0.5055
 2325SOL    HW3 9067   6.433   0.245   0.979  1.0644  0.2811  0.6641
 2325SOL    MW4 9068   6.398   0.324   0.987 -0.0604 -0.1101 -0.1687
 2326SOL     OW 9069   2.525   3.517   1.458  0.5153  0.1145  0.2136
 2326SOL    HW2 9070   2.608   3.478   1.484  1.0496 -0.1547 -1.7004
 2326SOL    HW3 9071   2.525   3.604   1.497  1.1755 -0.2987  1.1659
 2326SOL    MW4 9072   2.536   3.523   1.466  0.6729  0.0245  0.0867
 2327SOL     OW 9073   5.118   2.883   0.858  0.1924  0.2816  0.3087
 2327SOL    HW2 9074   5.199   2.876   0.808 -0.2728  1.8628 -0.7636
 2327SOL    HW3 9075   5.143   2.929   0.938  0.3583  0.7763 -0.0258
 2327SOL    MW4 9076   5.132   2.888   0.862  0.1529  0.5555  0.1231
 2328SOL     OW 9077   3.888   2.369   1.063  0.7314 -0.0496 -0.0936
 2328SOL    HW2 9078   3.972   2.367   1.018  0.4780 -1.5567 -0.5498
 2328SOL    HW3 9079   3.832   2.311   1.011 -0.4328  0.5001  0.5131
 2328SOL    MW4 9080   3.892   2.361   1.050  0.5444 -0.1760 -0.0738
 2329SOL     OW 9081   4.823   5.605   4.623 -0.5781  0.2726 -0.0899
 2329SOL    HW2 9082   4.752   5.576   4.681 -1.0655  0.8618 -0.3747
 2329SOL    HW3 9083   4.888   5.535   4.628 -0.4116  0.4996  1.5007
 2329SOL    MW4 9084   4.822   5.592   4.632 -0.6204  0.3803  0.0824
 2330SOL     OW 9085   4.641   1.732   0.783  0.8662 -0.4233  0.4630
 2330SOL    HW2 9086   4.609   1.655   0.737 -0.5975  0.0393  0.6485
 2330SOL    HW3 9087   4.576   1.748   0.852  2.0884 -0.0729  1.5725
 2330SOL    MW4 9088   4.628   1.724   0.786  0.8344 -0.3161  0.6338
 2331SOL     OW 9089   4.442   1.548   6.061 -0.2936 -0.1270 -0.3278
 2331SOL    HW2 9090   4.458   1.558   6.155 -0.1419  1.2492 -0.4790
 2331SOL    HW3 9091   4.370   1.485   6.056  0.0069 -0.5788  0.6840
 2331SOL    MW4 9092   4.434   1.541   6.073 -0.2339 -0.0050 -0.2143
 2332SOL     OW 9093   4.987   4.239   2.495  0.6199 -0.3641  0.1687
 2332SOL    HW2 9094   5.013   4.329   2.514  0.9377 -0.4947  0.3463
 2332SOL    HW3 9095   5.036   4.216   2.417  1.4464 -0.7894  0.8018
 2332SOL    MW4 9096   4.997   4.248   2.487  0.7709 -0.4374  0.2756
 2333SOL     OW 9097   5.691   0.453   3.804  0.2033  0.0259 -0.2146
 2333SOL    HW2 9098   5.655   0.367   3.829 -2.2567  1.4380  1.5520
 2333SOL    HW3 9099   5.684   0.455   3.709  0.6392 -1.8354 -0.3346
 2333SOL    MW4 9100   5.685   0.442   3.795 -0.0637 -0.0334  0.0026
 2334SOL     OW 9101   1.873   2.640   3.687 -0.0159  0.6136 -0.5991
 2334SOL    HW2 9102   1.880   2.733   3.705  0.8316  1.0523 -2.8176
 2334SOL    HW3 9103   1.791   2.631   3.638  0.6977  0.5118 -1.8305
 2334SOL    MW4 9104   1.863   2.651   3.683  0.1901  0.6580 -1.0543
 2335SOL     OW 9105   3.317   3.097   0.264 -0.0410  0.5181  0.5576
 2335SOL    HW2 9106   3.294   3.009   0.232 -0.5087  0.6687  0.4756
 2335SOL    HW3 9107   3.328   3.085   0.358 -1.9589  0.7318  0.8433
 2335SOL    MW4 9108   3.315   3.084   0.272 -0.3558  0.5662  0.5845
 2336SOL     OW 9109   1.782   2.394   6.293  0.2576  0.0951  0.3703
 2336SOL    HW2 9110   1.756   2.428   6.378 -0.1218 -0.2993  0.4151
 2336SOL    HW3 9111   1.848   2.456   6.262 -1.3254  1.6123 -0.1399
 2336SOL    MW4 9112   1.788   2.407   6.300 -0.0013  0.2433  0.3089
 2337SOL     OW 9113   4.519   4.077   3.024 -0.3284  0.5726  0.3392
 2337SOL    HW2 9114   4.485   4.165   3.037 -0.2872  0.6383  0.0095
 2337SOL    HW3 9115   4.612   4.089   3.004  0.1000  0.3468  2.0406
 2337SOL    MW4 9116   4.527   4.090   3.023 -0.2664  0.5515  0.5202
 2338SOL     OW 9117   4.320   5.659   5.650  0.6835 -0.3356 -0.4775
 2338SOL    HW2 9118   4.324   5.699   5.563  1.7197  0.7257  0.0178
 2338SOL    HW3 9119   4.411   5.659   5.680  0.1486  1.1112  1.3577
 2338SOL    MW4 9120   4.333   5.665   5.642  0.7496 -0.0047 -0.1700
 2339SOL     OW 9121   4.800   2.867   4.046 -0.1298 -0.6403 -0.1499
 2339SOL    HW2 9122   4.859   2.794   4.065 -0.1821 -0.6091  0.1452
 2339SOL    HW3 9123   4.720   2.845   4.094  0.1449  0.0195  0.6385
 2339SOL    MW4 9124   4.797   2.854   4.055 -0.1005 -0.5491 -0.0069
 2340SOL     OW 9125   3.514   1.877   4.515 -0.5107 -0.3197  0.0082
 2340SOL    HW2 9126   3.479   1.789   4.499 -0.4464 -0.3740  0.1577
 2340SOL    HW3 9127   3.451   1.916   4.576 -0.1317 -0.5442  0.5567
 2340SOL    MW4 9128   3.501   1.870   4.521 -0.4522 -0.3565  0.1003
 2341SOL     OW 9129   1.504   2.592   3.677 -0.1957 -0.0737 -0.1126
 2341SOL    HW2 9130   1.552   2.619   3.599  1.3541  0.0454  0.8580
 2341SOL    HW3 9131   1.532   2.652   3.745 -2.2604  0.4362  0.3614
 2341SOL    MW4 9132   1.514   2.603   3.675 -0.2636  0.0093  0.0780
 2342SOL     OW 9133   5.045   3.847   4.833 -0.2056 -0.2184  0.1840
 2342SOL    HW2 9134   5.046   3.783   4.904  0.5360 -0.1950  0.2029
 2342SOL    HW3 9135   5.088   3.924   4.869  0.3414 -0.2663 -0.3414
 2342SOL    MW4 9136   5.050   3.849   4.847 -0.0356 -0.2217  0.1172
 2343SOL     OW 9137   2.451   6.128   2.157 -0.0214  0.4297 -0.1646
 2343SOL    HW2 9138   2.356   6.112   2.156 -0.3600  2.1852  0.3173
 2343SOL    HW3 9139   2.463   6.209   2.107  1.7425 -1.7754 -3.6595
 2343SOL    MW4 9140   2.440   6.137   2.151  0.1666  0.3704 -0.5622
 2344SOL     OW 9141   1.299   2.293   4.741  0.2289  0.3066 -0.1556
 2344SOL    HW2 9142   1.343   2.217   4.780 -2.0493 -2.1224 -1.9323
 2344SOL    HW3 9143   1.310   2.281   4.647 -0.9135  1.7081 -0.4981
 2344SOL    MW4 9144   1.306   2.281   4.734 -0.2224  0.1710 -0.4352
 2345SOL     OW 9145   2.874   1.405   2.579 -0.2376  0.3849 -0.4037
 2345SOL    HW2 9146   2.933   1.453   2.637  1.6743 -1.0216 -1.0968
 2345SOL    HW3 9147   2.805   1.372   2.637  0.0684  1.4019  0.5636
 2345SOL    MW4 9148   2.873   1.407   2.594  0.0550  0.3335 -0.3675
 2346SOL     OW 9149   1.961   2.291   2.957 -0.5817 -0.6591 -0.5160
 2346SOL    HW2 9150   1.884   2.342   2.932 -0.6123  0.0895  1.0267
 2346SOL    HW3 9151   1.926   2.218   3.007 -0.3658 -0.9399 -0.7726
 2346SOL    MW4 9152   1.946   2.288   2.960 -0.5572 -0.5974 -0.3463
 2347SOL     OW 9153   5.573   4.609   1.158 -0.2239 -0.5311  0.2865
 2347SOL    HW2 9154   5.481   4.595   1.180 -0.0633 -0.0105  1.3276
 2347SOL    HW3 9155   5.607   4.663   1.229  0.5118  0.5966 -0.8811
 2347SOL    MW4 9156   5.565   4.614   1.170 -0.1057 -0.3136  0.2698
 2348SOL     OW 9157   6.436   3.311   5.506 -0.0494  0.5444 -0.0238
 2348SOL    HW2 9158   6.381   3.375   5.552  0.2350  0.1166  0.9193
 2348SOL    HW3 9159   6.376   3.268   5.445 -0.1794  1.9197 -0.9097
 2348SOL    MW4 9160   6.421   3.314   5.504 -0.0290  0.6694 -0.0162
 2349SOL     OW 9161   2.087   2.952   2.783  0.1860  0.2623  0.2963
 2349SOL    HW2 9162   2.182   2.945   2.776  0.2730  1.9305 -1.1947
 2349SOL    HW3 9163   2.054   2.865   2.761  1.3602 -0.3236  0.7965
 2349SOL    MW4 9164   2.095   2.940   2.779  0.3524  0.4051  0.1656
 2350SOL     OW 9165   1.397   0.803   5.689 -0.1796  0.3012 -0.1255
 2350SOL    HW2 9166   1.377   0.813   5.782 -1.3553 -0.3906 -0.2844
 2350SOL    HW3 9167   1.490   0.824   5.682 -0.1872  0.8119  1.1281
 2350SOL    MW4 9168   1.407   0.807   5.700 -0.3358  0.2773  0.0189
 2351SOL     OW 9169   4.270   1.360   3.369 -0.1702  0.6931 -0.0681
 2351SOL    HW2 9170   4.319   1.389   3.292  1.6364 -0.1125  0.7284
 2351SOL    HW3 9171   4.289   1.267   3.376  1.6480  1.1518  2.6382
 2351SOL    MW4 9172   4.279   1.352   3.360  0.3080  0.6473  0.3941
 2352SOL     OW 9173   4.941   4.746   2.337 -0.0822 -0.1566  0.6086
 2352SOL    HW2 9174   5.024   4.790   2.355  0.1126 -0.4013  0.3206
 2352SOL    HW3 9175   4.878   4.818   2.329  0.7591  0.4003 -2.8062
 2352SOL    MW4 9176   4.944   4.761   2.338  0.0545 -0.1154  0.1201
 2353SOL     OW 9177   5.754   0.909   0.624  1.0500  0.6412 -0.3610
 2353SOL    HW2 9178   5.727   0.971   0.692  0.3703 -0.8650  0.8067
 2353SOL    HW3 9179   5.687   0.918   0.556  0.6068  0.7584  0.0815
 2353SOL    MW4 9180   5.742   0.918   0.624  0.9018  0.4580 -0.1485
 2354SOL     OW 9181   5.107   5.710   3.032  0.8424 -0.0894  0.4362
 2354SOL    HW2 9182   5.159   5.687   2.955  0.2102 -1.2903  0.3407
 2354SOL    HW3 9183   5.044   5.638   3.040 -0.5031  1.0928  0.8132
 2354SOL    MW4 9184   5.106   5.697   3.023  0.5814 -0.0919  0.4733
 2355SOL     OW 9185   2.992   4.587   6.029  0.5186  0.5818  0.8557
 2355SOL    HW2 9186   3.065   4.649   6.023  0.5875  0.6774  2.1861
 2355SOL    HW3 9187   2.914   4.642   6.026  0.4679  0.4464 -0.9481
 2355SOL    MW4 9188   2.991   4.602   6.028  0.5210  0.5765  0.7933
 2356SOL     OW 9189   5.292   3.788   2.075  0.0082 -0.0886 -0.3586
 2356SOL    HW2 9190   5.209   3.829   2.049 -0.1800  0.5948  1.2356
 2356SOL    HW3 9191   5.279   3.695   2.055 -0.7904  0.1391 -0.9855
 2356SOL    MW4 9192   5.279   3.781   2.069 -0.1220  0.0316 -0.2309
 2357SOL     OW 9193   5.338   1.162   3.783 -0.4102 -0.2253 -0.2934
 2357SOL    HW2 9194   5.374   1.169   3.871 -0.9867 -1.7205  0.0828
 2357SOL    HW3 9195   5.360   1.246   3.741  0.8704  0.0500  0.8831
 2357SOL    MW4 9196   5.346   1.174   3.789 -0.3173 -0.3862 -0.0885
 2358SOL     OW 9197   4.640   4.097   3.436 -0.0136 -0.0583 -0.2279
 2358SOL    HW2 9198   4.637   4.082   3.531 -0.9917 -0.6656 -0.3419
 2358SOL    HW3 9199   4.632   4.010   3.398  0.4552  0.1788 -0.8810
 2358SOL    MW4 9200   4.639   4.084   3.444 -0.0808 -0.1071 -0.3291
 2359SOL     OW 9201   0.828   4.595   3.491  0.3645 -0.7136 -0.1495
 2359SOL    HW2 9202   0.741   4.586   3.530  0.4393  0.0063  0.1965
 2359SOL    HW3 9203   0.887   4.560   3.558  0.5444  1.0331  0.6746
 2359SOL    MW4 9204   0.824   4.589   3.505  0.3981 -0.3882  0.0049
 2360SOL     OW 9205   0.122   0.294   5.891  0.1645  0.7552 -0.0105
 2360SOL    HW2 9206   0.172   0.354   5.836  1.8145 -1.9341 -1.6880
 2360SOL    HW3 9207   0.183   0.265   5.958 -0.3988  0.4274  0.3717
 2360SOL    MW4 9208   0.137   0.298   5.892  0.3079  0.3571 -0.1814
 2361SOL     OW 9209   1.611   5.676   6.324  0.3392  0.1706 -0.3118
 2361SOL    HW2 9210   1.611   5.645   6.234  1.4705  0.3785 -0.4013
 2361SOL    HW3 9211   1.567   5.607   6.374  0.0115 -0.1011 -0.9641
 2361SOL    MW4 9212   1.605   5.663   6.319  0.4452  0.1621 -0.4097
 2362SOL     OW 9213   4.146   0.316   5.123  0.2939 -0.3786  0.0908
 2362SOL    HW2 9214   4.051   0.324   5.134 -0.0027 -2.2996 -0.7020
 2362SOL    HW3 9215   4.169   0.233   5.165  1.5758 -0.1048 -0.0126
 2362SOL    MW4 9216   4.137   0.306   5.130  0.4239 -0.5960 -0.0275
 2363SOL     OW 9217   4.767   3.945   5.034  0.4134  0.1751 -0.5752
 2363SOL    HW2 9218   4.796   3.896   4.957 -0.8750 -0.5350 -0.6235
 2363SOL    HW3 9219   4.843   3.943   5.093  0.1575 -2.7157 -0.1833
 2363SOL    MW4 9220   4.781   3.938   5.032  0.2097 -0.3000 -0.5298
 2364SOL     OW 9221   2.295   0.916   3.593 -0.4697  0.1482 -0.5449
 2364SOL    HW2 9222   2.242   0.982   3.549  1.1763  1.1275 -1.1667
 2364SOL    HW3 9223   2.385   0.935   3.566  0.2893 -1.0593  0.9255
 2364SOL    MW4 9224   2.300   0.927   3.584 -0.1524  0.1181 -0.4330
 2365SOL     OW 9225   1.106   3.723   3.594  0.1843  0.3957  0.1029
 2365SOL    HW2 9226   1.110   3.817   3.612  0.9696  0.4039 -0.1004
 2365SOL    HW3 9227   1.057   3.687   3.668  1.8833  0.6627  1.4036
 2365SOL    MW4 9228   1.100   3.730   3.606  0.5121  0.4320  0.2477
 2366SOL     OW 9229   5.209   3.034   4.320  0.0276  0.2090 -0.6836
 2366SOL    HW2 9230   5.126   3.076   4.346 -0.4429 -1.7061  1.2283
 2366SOL    HW3 9231   5.268   3.051   4.393  0.8241  0.2175 -1.3197
 2366SOL    MW4 9232   5.206   3.042   4.333  0.0706 -0.0425 -0.5153
 2367SOL     OW 9233   1.221   0.637   4.836 -0.4996  0.2684  0.0691
 2367SOL    HW2 9234   1.185   0.662   4.751  0.7673 -1.9997 -1.2254
 2367SOL    HW3 9235   1.298   0.693   4.846 -0.3414  0.1750 -0.5610
 2367SOL    MW4 9236   1.226   0.648   4.826 -0.3116 -0.0432 -0.1848
 2368SOL     OW 9237   4.601   3.272   3.627 -0.1451 -0.1929  0.3023
 2368SOL    HW2 9238   4.658   3.281   3.551  0.7271  2.3252  1.1479
 2368SOL    HW3 9239   4.526   3.328   3.608  0.2927  0.8273  1.4135
 2368SOL    MW4 9240   4.599   3.280   3.614  0.0277  0.2739  0.5605
 2369SOL     OW 9241   4.582   2.864   5.756  0.5737  0.3636 -0.1006
 2369SOL    HW2 9242   4.613   2.783   5.715  0.4878  0.6536 -0.7582
 2369SOL    HW3 9243   4.547   2.837   5.840  0.8129 -0.2420 -0.1918
 2369SOL    MW4 9244   4.582   2.850   5.761  0.5939  0.3220 -0.1994
 2370SOL     OW 9245   1.278   0.334   2.164 -0.4292  0.2808  0.9934
 2370SOL    HW2 9246   1.330   0.371   2.236  1.1688 -1.6153  0.9022
 2370SOL    HW3 9247   1.323   0.363   2.085  1.5876 -2.6042  0.9289
 2370SOL    MW4 9248   1.291   0.343   2.163  0.0478 -0.3500  0.9729
 2371SOL     OW 9249   6.079   1.051   1.863 -0.2141 -0.4414 -0.2823
 2371SOL    HW2 9250   6.098   1.031   1.771  1.7666 -0.9310  0.1859
 2371SOL    HW3 9251   5.985   1.037   1.871 -0.4514 -0.3416 -2.2337
 2371SOL    MW4 9252   6.069   1.047   1.852  0.0159 -0.4928 -0.4780
 2372SOL     OW 9253   4.294   3.983   4.023 -0.0400  0.1635  0.0054
 2372SOL    HW2 9254   4.291   4.006   4.116 -0.1339 -0.2092  0.0957
 2372SOL    HW3 9255   4.364   4.037   3.988  0.6642 -0.4096  0.4924
 2372SOL    MW4 9256   4.303   3.993   4.031  0.0405  0.0387  0.0816
 2373SOL     OW 9257   4.550   3.000   4.461 -0.2558  0.8127 -0.1995
 2373SOL    HW2 9258   4.580   3.045   4.539  0.1930  1.5036 -0.7604
 2373SOL    HW3 9259   4.460   2.975   4.480 -0.0237  0.6160  0.6829
 2373SOL    MW4 9260   4.542   3.003   4.474 -0.1659  0.8779 -0.1571
 2374SOL     OW 9261   3.456   2.897   5.499  0.2868  0.5437  0.0988
 2374SOL    HW2 9262   3.370   2.864   5.525  0.6983 -0.3435  0.3716
 2374SOL    HW3 9263   3.443   2.991   5.486 -0.7410  0.4023  0.0487
 2374SOL    MW4 9264   3.443   2.905   5.501  0.2055  0.4080  0.1281
 2375SOL     OW 9265   1.423   0.828   4.260 -0.5213  0.5070  0.2265
 2375SOL    HW2 9266   1.388   0.791   4.179  0.5989 -0.6316  0.2474
 2375SOL    HW3 9267   1.441   0.752   4.316  2.2919  0.9893  0.0885
 2375SOL    MW4 9268   1.420   0.813   4.257 -0.0023  0.4204  0.2110
 2376SOL     OW 9269   3.605   3.940   4.441  0.5285 -0.3844  0.3683
 2376SOL    HW2 9270   3.563   3.947   4.527  0.5358 -1.5083  0.4773
 2376SOL    HW3 9271   3.645   4.026   4.426 -0.0051  0.0174  1.2071
 2376SOL    MW4 9272   3.605   3.952   4.450  0.4591 -0.4797  0.4934
 2377SOL     OW 9273   3.956   4.633   3.453 -0.7017 -0.6776  0.0358
 2377SOL    HW2 9274   3.946   4.696   3.524  1.5081 -0.5942  0.3262
 2377SOL    HW3 9275   4.022   4.571   3.484  0.3299 -0.6320 -1.9463
 2377SOL    MW4 9276   3.963   4.633   3.466 -0.2740 -0.6605 -0.1874
 2378SOL     OW 9277   4.028   2.988   5.980 -0.0864  0.0821  0.1517
 2378SOL    HW2 9278   4.039   3.044   6.057 -1.6550 -0.4728  0.8141
 2378SOL    HW3 9279   4.002   3.049   5.910 -4.5821  0.0695  1.5071
 2378SOL    MW4 9280   4.026   3.004   5.981 -0.8865  0.0072  0.4179
 2379SOL     OW 9281   0.178   0.925   4.262  0.1806  0.2886 -0.0929
 2379SOL    HW2 9282   0.082   0.927   4.253  0.1170 -0.8591  0.1762
 2379SOL    HW3 9283   0.194   0.860   4.330  1.2470 -1.2447 -1.7167
 2379SOL    MW4 9284   0.167   0.916   4.270  0.3129 -0.0651 -0.2716
 2380SOL     OW 9285   1.917   3.083   3.529  0.3323 -0.2855 -0.2365
 2380SOL    HW2 9286   1.938   3.167   3.569  0.3420 -0.8860  1.0657
 2380SOL    HW3 9287   1.856   3.042   3.590  1.6073 -1.9221  0.0106
 2380SOL    MW4 9288   1.912   3.089   3.543  0.5018 -0.5806 -0.0321
 2381SOL     OW 9289   1.094   4.808   1.341 -0.0626  0.5774  0.8344
 2381SOL    HW2 9290   1.034   4.870   1.299 -0.5916 -0.3142  0.2624
 2381SOL    HW3 9291   1.155   4.864   1.390  0.7812  1.6887 -1.3401
 2381SOL    MW4 9292   1.094   4.824   1.342 -0.0210  0.6064  0.4720
 2382SOL     OW 9293   5.556   4.845   3.004 -0.2490  0.0007 -0.0114
 2382SOL    HW2 9294   5.547   4.775   3.068  1.3424  0.1367  0.4067
 2382SOL    HW3 9295   5.634   4.822   2.955  1.5947  2.4959  1.5255
 2382SOL    MW4 9296   5.565   4.833   3.006  0.2042  0.3479  0.2465
 2383SOL     OW 9297   3.983   6.160   3.290 -0.4950 -0.3510  0.3094
 2383SOL    HW2 9298   3.935   6.183   3.210 -0.2296  0.4076  0.3622
 2383SOL    HW3 9299   3.977   6.239   3.345 -1.5944 -1.2194  1.4919
 2383SOL    MW4 9300   3.976   6.174   3.287 -0.6050 -0.3655  0.4724
 2384SOL     OW 9301   0.714   2.595   5.637 -0.0850 -0.6549 -0.4030
 2384SOL    HW2 9302   0.773   2.616   5.565 -0.2968 -0.9494 -0.6646
 2384SOL    HW3 9303   0.653   2.532   5.601  0.2469 -1.3626  0.2371
 2384SOL    MW4 9304   0.714   2.590   5.623 -0.0692 -0.7871 -0.3531
 2385SOL     OW 9305   0.597   1.927   1.791 -0.0351 -0.9068  0.2306
 2385SOL    HW2 9306   0.666   1.944   1.726 -0.2343 -2.1518 -0.3400
 2385SOL    HW3 9307   0.572   2.014   1.822 -0.1093 -0.2388 -1.5386
 2385SOL    MW4 9308   0.603   1.941   1.786 -0.0711 -0.9829 -0.0781
 2386SOL     OW 9309   3.616   2.707   5.385 -0.0238  0.4865  0.1350
 2386SOL    HW2 9310   3.553   2.672   5.321 -0.8700  0.7787  0.7969
 2386SOL    HW3 9311   3.569   2.777   5.429  0.2164 -0.3053  1.7224
 2386SOL    MW4 9312   3.601   2.712   5.382 -0.1038  0.4206  0.4318
 2387SOL     OW 9313   3.051   2.932   1.579  0.0827  0.1108 -0.0501
 2387SOL    HW2 9314   3.079   2.843   1.600  0.8395 -0.0366 -1.5825
 2387SOL    HW3 9315   3.104   2.988   1.636  0.1498 -0.3788  0.3785
 2387SOL    MW4 9316   3.062   2.928   1.590  0.1914  0.0267 -0.1957
 2388SOL     OW 9317   0.277   2.278   2.131 -0.7889 -0.0863 -0.3762
 2388SOL    HW2 9318   0.358   2.256   2.084  0.5171  0.4980  1.4825
 2388SOL    HW3 9319   0.261   2.202   2.187 -1.0510  0.1521 -0.1261
 2388SOL    MW4 9320   0.286   2.265   2.132 -0.6511  0.0222 -0.0980
 2389SOL     OW 9321   0.767   2.287   1.996  0.4046  0.0063 -0.1041
 2389SOL    HW2 9322   0.762   2.380   1.975  0.8260  0.3655  1.2264
 2389SOL    HW3 9323   0.806   2.246   1.919  0.7320  1.0293 -0.4917
 2389SOL    MW4 9324   0.772   2.294   1.983  0.5034  0.1886  0.0203
 2390SOL     OW 9325   2.273   4.082   4.269  0.3784  0.0090 -0.0210
 2390SOL    HW2 9326   2.330   4.005   4.265  1.4793  0.7638  0.6293
 2390SOL    HW3 9327   2.295   4.132   4.191 -0.8222 -0.6363 -0.8038
 2390SOL    MW4 9328   2.283   4.078   4.258  0.3652  0.0235 -0.0385
 2391SOL     OW 9329   2.364   0.029   1.606  0.4674 -0.4238 -0.6929
 2391SOL    HW2 9330   2.411  -0.052   1.587  0.5644 -0.7229  0.6911
 2391SOL    HW3 9331   2.331   0.059   1.521 -0.3489 -2.3871 -1.1089
 2391SOL    MW4 9332   2.366   0.022   1.592  0.3725 -0.7223 -0.5652
 2392SOL     OW 9333   0.273   1.107   5.370 -0.2494 -0.0751 -0.1166
 2392SOL    HW2 9334   0.227   1.030   5.403  1.0877 -0.6823  0.4120
 2392SOL    HW3 9335   0.352   1.112   5.423 -0.1228  1.4411 -0.4227
 2392SOL    MW4 9336   0.277   1.097   5.381 -0.0563  0.0449 -0.0872
 2393SOL     OW 9337   5.990   3.504   4.202 -0.2476 -0.4036 -0.3832
 2393SOL    HW2 9338   6.072   3.464   4.228  0.0724  0.7331  0.4138
 2393SOL    HW3 9339   5.926   3.472   4.266  0.3937  1.8100  1.4841
 2393SOL    MW4 9340   5.992   3.494   4.214 -0.1208  0.0384 -0.0316
 2394SOL     OW 9341   3.067   3.877   3.790  0.9609  0.3465 -0.4526
 2394SOL    HW2 9342   3.055   3.875   3.885  0.3500  2.5821 -0.4075
 2394SOL    HW3 9343   3.101   3.965   3.772 -0.6162  0.6507 -2.4245
 2394SOL    MW4 9344   3.070   3.888   3.800  0.6722  0.6816 -0.7068
 2395SOL     OW 9345   5.552   5.694   0.603  0.1626 -0.0424  0.1177
 2395SOL    HW2 9346   5.473   5.744   0.581 -0.8735 -1.0638  1.3588
 2395SOL    HW3 9347   5.544   5.613   0.552  1.4377  0.6592 -1.2793
 2395SOL    MW4 9348   5.541   5.690   0.593  0.1941 -0.0846  0.0971
 2396SOL     OW 9349   2.792   0.445   1.835  0.1397  0.4110  0.1583
 2396SOL    HW2 9350   2.806   0.360   1.794 -1.8881  0.0142  0.1537
 2396SOL    HW3 9351   2.804   0.508   1.765  0.3076  0.0187 -0.1687
 2396SOL    MW4 9352   2.795   0.442   1.821 -0.1057  0.3069  0.1146
 2397SOL     OW 9353   5.030   2.554   5.355  0.1326 -0.3686  0.7353
 2397SOL    HW2 9354   5.124   2.548   5.372 -0.0165  0.2820  1.8806
 2397SOL    HW3 9355   4.996   2.609   5.426 -0.9964  0.0289 -0.0824
 2397SOL    MW4 9356   5.038   2.561   5.367 -0.0360 -0.2303  0.7785
 2398SOL     OW 9357   0.679   1.702   4.359  0.0837  0.1306  0.1454
 2398SOL    HW2 9358   0.699   1.610   4.344  1.7051  0.6160 -0.9245
 2398SOL    HW3 9359   0.749   1.750   4.314 -0.5149  1.8832  0.9738
 2398SOL    MW4 9360   0.691   1.697   4.351  0.2187  0.4259  0.1136
 2399SOL     OW 9361   0.147   3.174   2.037 -0.0706  0.0318  0.1304
 2399SOL    HW2 9362   0.231   3.180   1.991 -0.4594 -0.3237 -0.6657
 2399SOL    HW3 9363   0.090   3.234   1.989 -0.0260  1.0099  1.2707
 2399SOL    MW4 9364   0.151   3.182   2.024 -0.1160  0.1140  0.1759
 2400SOL     OW 9365   3.653   6.375   2.530 -0.0150 -0.0569  0.5117
 2400SOL    HW2 9366   3.618   6.301   2.580  0.6589 -0.1080  0.9308
 2400SOL    HW3 9367   3.747   6.357   2.525 -0.1870 -0.7533 -1.9158
 2400SOL    MW4 9368   3.661   6.363   2.536  0.0512 -0.1555  0.2467
 2401SOL     OW 9369   4.967   4.670   3.310  0.7372  0.5311  0.1041
 2401SOL    HW2 9370   4.904   4.740   3.328 -0.7337 -0.7420  0.1247
 2401SOL    HW3 9371   4.984   4.677   3.216  0.6462  0.9599  0.1168
 2401SOL    MW4 9372   4.961   4.680   3.300  0.5311  0.4197  0.1085
 2402SOL     OW 9373   3.288   0.921   4.990  0.0912  0.1710  0.2500
 2402SOL    HW2 9374   3.366   0.938   5.044  1.6245  0.2770 -1.8672
 2402SOL    HW3 9375   3.228   0.876   5.049  3.3741 -3.7851  1.0360
 2402SOL    MW4 9376   3.290   0.917   5.005  0.7266 -0.3370  0.0744
 2403SOL     OW 9377   4.488   4.736   0.357 -0.0900 -0.2617  0.1905
 2403SOL    HW2 9378   4.577   4.702   0.372  0.3936  0.8160 -0.1712
 2403SOL    HW3 9379   4.449   4.674   0.296  1.7433  1.2505 -2.7304
 2403SOL    MW4 9380   4.495   4.723   0.351  0.2157  0.0800 -0.2426
 2404SOL     OW 9381   4.398   6.357   3.557  0.4438  0.6873 -0.7953
 2404SOL    HW2 9382   4.340   6.314   3.620  0.0449  1.7928 -0.3873
 2404SOL    HW3 9383   4.403   6.296   3.484  1.7755 -1.1295  0.7059
 2404SOL    MW4 9384   4.391   6.343   3.556  0.5669  0.5935 -0.5434
 2405SOL     OW 9385   1.237   0.805   0.297  0.0432 -0.6181  0.0075
 2405SOL    HW2 9386   1.276   0.754   0.226 -0.4992 -0.2046 -0.5988
 2405SOL    HW3 9387   1.159   0.755   0.321 -1.3050  0.5875 -1.5662
 2405SOL    MW4 9388   1.232   0.791   0.291 -0.2062 -0.4045 -0.2801
 2406SOL     OW 9389   3.001   5.932   5.445  0.0900  0.4558 -0.3537
 2406SOL    HW2 9390   3.040   5.960   5.528 -0.5116  0.6911 -0.1429
 2406SOL    HW3 9391   2.980   5.840   5.458  0.1338  0.4535 -0.2999
 2406SOL    MW4 9392   3.003   5.924   5.458  0.0164  0.4866 -0.3188
 2407SOL     OW 9393   3.917   3.417   5.363 -0.5309  0.1206  0.1133
 2407SOL    HW2 9394   3.833   3.435   5.320 -1.1067  0.7077  1.4202
 2407SOL    HW3 9395   3.946   3.334   5.325 -1.8636 -0.2603 -0.1250
 2407SOL    MW4 9396   3.909   3.409   5.352 -0.7827  0.1478  0.2543
 2408SOL     OW 9397   6.317   0.235   4.724 -0.0752  1.0236 -0.3347
 2408SOL    HW2 9398   6.356   0.219   4.638 -0.0634  1.2145 -0.3642
 2408SOL    HW3 9399   6.392   0.247   4.782 -0.0746  0.5601 -0.2308
 2408SOL    MW4 9400   6.332   0.234   4.720 -0.0736  0.9876 -0.3249
 2409SOL     OW 9401   3.458   0.431   1.721  0.4380 -0.0171  0.3983
 2409SOL    HW2 9402   3.456   0.343   1.685  1.0173 -0.3447  1.1402
 2409SOL    HW3 9403   3.467   0.488   1.645  0.7246 -0.6413 -0.0414
 2409SOL    MW4 9404   3.459   0.427   1.707  0.5523 -0.1426  0.4382
 2410SOL     OW 9405   3.107   5.018   1.197  0.3721 -0.0757 -0.1748
 2410SOL    HW2 9406   3.160   5.077   1.250  0.0882  0.7042 -0.7384
 2410SOL    HW3 9407   3.019   5.056   1.199  0.4174  0.1616 -1.4334
 2410SOL    MW4 9408   3.102   5.031   1.204  0.3406  0.0585 -0.4152
 2411SOL     OW 9409   2.567   4.365   4.112 -0.3688 -0.4386 -0.3116
 2411SOL    HW2 9410   2.575   4.459   4.098 -2.0402  0.0995  1.8121
 2411SOL    HW3 9411   2.594   4.352   4.203  1.1703 -2.2500 -0.9718
 2411SOL    MW4 9412   2.572   4.376   4.122 -0.3863 -0.6066 -0.1185
 2412SOL     OW 9413   5.564   0.532   3.545 -0.1093  0.0336  0.2805
 2412SOL    HW2 9414   5.484   0.542   3.494 -1.3147  0.3295  2.1149
 2412SOL    HW3 9415   5.593   0.622   3.563  0.8666 -0.0680 -0.6496
 2412SOL    MW4 9416   5.558   0.545   3.541 -0.1396  0.0592  0.3998
 2413SOL     OW 9417   1.693   1.945   2.820  0.0095  0.0320 -0.4347
 2413SOL    HW2 9418   1.636   1.901   2.756 -1.6575  2.1234 -0.4888
 2413SOL    HW3 9419   1.694   2.037   2.793  1.7592  0.4461  0.8161
 2413SOL    MW4 9420   1.686   1.951   2.808  0.0204  0.3626 -0.2768
 2414SOL     OW 9421   3.434   1.104   0.275  0.1678  0.1496 -0.1820
 2414SOL    HW2 9422   3.482   1.119   0.356 -0.7612  0.3640  0.3420
 2414SOL    HW3 9423   3.342   1.094   0.302  0.1377 -2.4826 -0.8775
 2414SOL    MW4 9424   3.428   1.104   0.289  0.0413 -0.1694 -0.2046
 2415SOL     OW 9425   2.121   5.654   0.332 -0.1158  0.5424 -0.2702
 2415SOL    HW2 9426   2.178   5.631   0.258 -0.3629  0.9555 -0.5901
 2415SOL    HW3 9427   2.068   5.727   0.300 -0.0800  0.8624  0.3850
 2415SOL    MW4 9428   2.122   5.661   0.318 -0.1437  0.6391 -0.2259
 2416SOL     OW 9429   6.388   2.896   4.122  0.5202  0.6204  0.3542
 2416SOL    HW2 9430   6.326   2.927   4.055 -0.7844  0.5353  1.4702
 2416SOL    HW3 9431   6.439   2.973   4.145  0.1533  0.9421  0.1129
 2416SOL    MW4 9432   6.386   2.910   4.116  0.2997  0.6516  0.4696
 2417SOL     OW 9433   0.340   0.621   6.100  0.2207 -0.4629 -0.1991
 2417SOL    HW2 9434   0.397   0.602   6.025  0.9682 -0.6991  0.4131
 2417SOL    HW3 9435   0.399   0.619   6.175 -0.8157 -2.0148  0.6102
 2417SOL    MW4 9436   0.355   0.618   6.100  0.1826 -0.6988 -0.0115
 2418SOL     OW 9437   4.319   2.883   3.797  0.3363 -0.0639 -0.1636
 2418SOL    HW2 9438   4.315   2.794   3.834  0.2488  0.6636  1.6822
 2418SOL    HW3 9439   4.360   2.871   3.711 -1.9903 -2.2231 -1.1422
 2418SOL    MW4 9440   4.324   2.869   3.790  0.0178 -0.2528 -0.0492
 2419SOL     OW 9441   1.694   5.612   1.035  0.5755  0.3942  0.3079
 2419SOL    HW2 9442   1.659   5.655   1.113  0.7305 -0.2710  0.7573
 2419SOL    HW3 9443   1.617   5.601   0.979  0.3817  0.5072  0.5446
 2419SOL    MW4 9444   1.679   5.616   1.038  0.5704  0.3213  0.3984
 2420SOL     OW 9445   2.104   3.288   2.582  0.4993 -0.1327  0.4516
 2420SOL    HW2 9446   2.136   3.280   2.672 -1.4367 -1.5708  1.0557
 2420SOL    HW3 9447   2.176   3.256   2.528  1.5144  0.3109  1.5020
 2420SOL    MW4 9448   2.118   3.283   2.587  0.3778 -0.2639  0.6699
 2421SOL     OW 9449   6.326   5.857   2.181  0.0340  0.0945  0.0399
 2421SOL    HW2 9450   6.315   5.770   2.220  1.5485 -0.0101  0.3004
 2421SOL    HW3 9451   6.301   5.918   2.250 -1.4193 -0.1145 -0.2718
 2421SOL    MW4 9452   6.321   5.853   2.195  0.0421  0.0531  0.0332
 2422SOL     OW 9453   0.622   5.066   0.998 -0.1838  0.3254  0.0034
 2422SOL    HW2 9454   0.641   5.061   1.092 -0.4838  0.1736  0.0589
 2422SOL    HW3 9455   0.684   5.130   0.964 -0.6510  1.0437  0.4622
 2422SOL    MW4 9456   0.632   5.074   1.006 -0.2850  0.4001  0.0712
 2423SOL     OW 9457   5.111   2.363   1.836 -0.4005  0.0587  0.3466
 2423SOL    HW2 9458   5.081   2.294   1.777  1.5235 -0.6862  0.1740
 2423SOL    HW3 9459   5.030   2.401   1.872 -1.6544  0.4660 -2.6303
 2423SOL    MW4 9460   5.096   2.359   1.833 -0.3121  0.0141 -0.0690
 2424SOL     OW 9461   2.261   2.862   1.408 -0.5644  0.1976  0.4863
 2424SOL    HW2 9462   2.325   2.857   1.337 -0.0157  0.8384  0.9233
 2424SOL    HW3 9463   2.204   2.786   1.394 -0.9299  0.7351 -1.0572
 2424SOL    MW4 9464   2.262   2.851   1.397 -0.5402  0.3531  0.3403
 2425SOL     OW 9465   2.626   2.500   4.159 -0.2568 -0.2381 -0.1106
 2425SOL    HW2 9466   2.693   2.455   4.209 -1.8481 -1.9033  0.6496
 2425SOL    HW3 9467   2.659   2.502   4.069  1.0166 -0.5364  0.3435
 2425SOL    MW4 9468   2.639   2.494   4.154 -0.2987 -0.4971  0.0496
 2426SOL     OW 9469   4.308   4.131   1.878 -0.2380 -0.3372 -0.4750
 2426SOL    HW2 9470   4.383   4.113   1.821 -0.3415 -0.1131 -0.6825
 2426SOL    HW3 9471   4.347   4.166   1.958 -0.2406  2.7010 -1.6725
 2426SOL    MW4 9472   4.323   4.133   1.881 -0.2520  0.0932 -0.6604
 2427SOL     OW 9473   2.556   4.727   2.096  0.6265 -0.4637 -0.1409
 2427SOL    HW2 9474   2.549   4.706   2.003  1.2833  0.5695 -0.4413
 2427SOL    HW3 9475   2.525   4.817   2.103  1.6451 -0.1442  0.4460
 2427SOL    MW4 9476   2.551   4.736   2.085  0.8475 -0.2852 -0.1031
 2428SOL     OW 9477   4.947   3.413   3.749 -0.4867  0.3523 -0.3103
 2428SOL    HW2 9478   4.875   3.475   3.738  0.8082  1.9584 -0.1177
 2428SOL    HW3 9479   5.008   3.434   3.678 -0.1407 -0.8955 -0.4056
 2428SOL    MW4 9480   4.946   3.424   3.738 -0.2702  0.3995 -0.2975
 2429SOL     OW 9481   5.474   5.403   1.133  0.1719  0.5584 -0.2079
 2429SOL    HW2 9482   5.456   5.453   1.053 -0.0191  1.3454  0.3172
 2429SOL    HW3 9483   5.395   5.351   1.147  1.2327 -1.7238 -2.0402
 2429SOL    MW4 9484   5.461   5.403   1.124  0.2867  0.3611 -0.3803
 2430SOL     OW 9485   4.709   4.767   4.773  0.5424  0.7682 -0.0292
 2430SOL    HW2 9486   4.617   4.790   4.789  0.7068  1.9221 -0.6818
 2430SOL    HW3 9487   4.711   4.672   4.786 -0.5312  0.8473  0.9673
 2430SOL    MW4 9488   4.697   4.757   4.777  0.4224  0.9309  0.0162
 2431SOL     OW 9489   3.825   5.543   1.498  0.6690  0.1449  0.1405
 2431SOL    HW2 9490   3.910   5.547   1.542 -0.2912 -0.0972  2.1235
 2431SOL    HW3 9491   3.826   5.617   1.436  3.4719 -1.6337 -2.2219
 2431SOL    MW4 9492   3.837   5.553   1.495  0.9121 -0.1217  0.0904
 2432SOL     OW 9493   1.177   5.835   4.547 -0.2821  0.3771 -0.0061
 2432SOL    HW2 9494   1.222   5.781   4.481 -0.5187  1.3926 -1.0346
 2432SOL    HW3 9495   1.245   5.852   4.613  0.5639  1.0089 -1.0037
 2432SOL    MW4 9496   1.192   5.830   4.547 -0.2017  0.5945 -0.2734
 2433SOL     OW 9497   5.862   2.612   1.046  0.0376  0.2134 -0.4938
 2433SOL    HW2 9498   5.921   2.663   1.101  1.0379 -1.4773  0.0736
 2433SOL    HW3 9499   5.775   2.633   1.080  0.5883 -0.3473  1.4104
 2433SOL    MW4 9500   5.858   2.621   1.058  0.2422 -0.0837 -0.1677
 2434SOL     OW 9501   4.907   5.962   2.374 -0.3935 -0.3114 -0.2190
 2434SOL    HW2 9502   4.869   6.006   2.450  0.7726 -0.2265  0.3291
 2434SOL    HW3 9503   4.831   5.931   2.324 -1.1835  0.1820  0.6445
 2434SOL    MW4 9504   4.892   5.964   2.377 -0.3439 -0.2351 -0.0327
 2435SOL     OW 9505   3.576   2.785   0.167  0.4017  0.2409 -0.9346
 2435SOL    HW2 9506   3.600   2.834   0.246  1.7239 -2.7189  0.6410
 2435SOL    HW3 9507   3.658   2.746   0.137 -0.4464 -0.3553 -2.6139
 2435SOL    MW4 9508   3.590   2.786   0.173  0.4643 -0.2282 -0.9483
 2436SOL     OW 9509   2.737   5.654   2.694  0.1654 -0.0447  0.3016
 2436SOL    HW2 9510   2.739   5.731   2.637  0.6696  0.4439  0.9662
 2436SOL    HW3 9511   2.827   5.622   2.696 -0.4287 -2.1438 -1.9083
 2436SOL    MW4 9512   2.749   5.660   2.687  0.1535 -0.2572  0.0977
 2437SOL     OW 9513   5.843   5.331   5.865 -0.2862 -0.6939  0.2605
 2437SOL    HW2 9514   5.841   5.299   5.775 -1.1109 -1.4485  0.5310
 2437SOL    HW3 9515   5.932   5.310   5.895  0.3659  0.5943 -0.7164
 2437SOL    MW4 9516   5.855   5.324   5.857 -0.3089 -0.6235  0.1673
 2438SOL     OW 9517   0.367   3.472   5.249  0.7671  0.3888 -0.4044
 2438SOL    HW2 9518   0.315   3.547   5.278  1.0599 -0.2993  2.1193
 2438SOL    HW3 9519   0.411   3.504   5.170 -0.8114  2.1086 -0.6757
 2438SOL    MW4 9520   0.366   3.486   5.243  0.5974  0.5249 -0.1072
 2439SOL     OW 9521   4.475   0.393   3.239 -0.2362  0.1539 -0.2325
 2439SOL    HW2 9522   4.408   0.325   3.234  0.5406 -0.6389 -0.0766
 2439SOL    HW3 9523   4.534   0.364   3.309  0.0213  1.0704 -0.0497
 2439SOL    MW4 9524   4.474   0.380   3.248 -0.0998  0.1702 -0.1878
 2440SOL     OW 9525   4.808   4.327   1.112 -0.2464  0.0391 -0.2992
 2440SOL    HW2 9526   4.821   4.248   1.060  1.0622 -0.9400  1.4196
 2440SOL    HW3 9527   4.779   4.295   1.197  0.3877  1.3980  0.4534
 2440SOL    MW4 9528   4.806   4.312   1.116  0.0099  0.0892  0.0269
 2441SOL     OW 9529   5.784   3.337   3.475 -0.6311  0.4929  0.3240
 2441SOL    HW2 9530   5.853   3.396   3.444 -0.7558  0.3275 -0.2726
 2441SOL    HW3 9531   5.811   3.312   3.563  0.9673 -0.9631 -0.5419
 2441SOL    MW4 9532   5.796   3.342   3.482 -0.4367  0.2790  0.1310
 2442SOL     OW 9533   3.264   4.543   0.509 -0.7051 -0.4895 -0.1138
 2442SOL    HW2 9534   3.188   4.487   0.525 -0.8989 -0.4140 -0.7252
 2442SOL    HW3 9535   3.242   4.589   0.427 -0.0379 -0.4065 -0.2466
 2442SOL    MW4 9536   3.251   4.542   0.500 -0.6427 -0.4685 -0.2120
 2443SOL     OW 9537   3.729   3.482   4.107 -0.3499  0.3403 -0.2477
 2443SOL    HW2 9538   3.726   3.559   4.164  1.4147  0.6505 -0.5257
 2443SOL    HW3 9539   3.637   3.465   4.085 -0.9342  1.2211  1.3156
 2443SOL    MW4 9540   3.716   3.490   4.112 -0.1942  0.4974 -0.0781
 2444SOL     OW 9541   3.505   3.292   0.960 -0.0026  0.3507 -0.4918
 2444SOL    HW2 9542   3.491   3.203   0.995 -1.6615  0.6508 -0.3046
 2444SOL    HW3 9543   3.531   3.278   0.870  1.1647 -0.3622 -0.0637
 2444SOL    MW4 9544   3.506   3.278   0.953 -0.0674  0.2963 -0.4106
 2445SOL     OW 9545   6.218   0.256   5.720 -0.2117  0.2668 -0.4486
 2445SOL    HW2 9546   6.275   0.321   5.759 -0.3783 -0.1775  0.5541
 2445SOL    HW3 9547   6.146   0.306   5.682 -1.4487  0.5970  2.1322
 2445SOL    MW4 9548   6.216   0.271   5.720 -0.3969  0.2517  0.0242
 2446SOL     OW 9549   4.276   5.197   4.245 -0.0873 -0.4041 -0.0433
 2446SOL    HW2 9550   4.319   5.131   4.300  0.7337  0.6211  0.5857
 2446SOL    HW3 9551   4.333   5.203   4.168 -1.3410 -1.9843 -1.1786
 2446SOL    MW4 9552   4.290   5.189   4.242 -0.1444 -0.4773 -0.1101
 2447SOL     OW 9553   2.124   1.025   1.775  0.3737  0.3487 -0.3627
 2447SOL    HW2 9554   2.064   1.084   1.728 -1.4353  0.0366  1.4151
 2447SOL    HW3 9555   2.181   1.084   1.824 -0.5182  0.6677  0.3197
 2447SOL    MW4 9556   2.124   1.041   1.775  0.0173  0.3496 -0.0381
 2448SOL     OW 9557   2.406   2.791   0.349  0.2702  0.1333 -0.2312
 2448SOL    HW2 9558   2.386   2.876   0.387 -0.5805 -0.5801  0.9883
 2448SOL    HW3 9559   2.464   2.749   0.413  1.8382  0.3117 -1.4751
 2448SOL    MW4 9560   2.411   2.797   0.362  0.3649  0.0627 -0.2344
 2449SOL     OW 9561   3.311   1.103   0.805  0.7398  0.2274  0.0854
 2449SOL    HW2 9562   3.390   1.156   0.797  0.7399  0.3907  1.0812
 2449SOL    HW3 9563   3.330   1.041   0.875 -0.4989  1.1905  1.3366
 2449SOL    MW4 9564   3.324   1.102   0.813  0.5764  0.3760  0.3819
 2450SOL     OW 9565   0.314   3.899   5.181 -0.5398 -0.0324 -0.1371
 2450SOL    HW2 9566   0.407   3.878   5.186 -0.4663  0.4621  0.7858
 2450SOL    HW3 9567   0.280   3.844   5.110  0.0182 -1.8608  0.9295
 2450SOL    MW4 9568   0.321   3.889   5.173 -0.4565 -0.2084  0.1254
 2451SOL     OW 9569   4.135   5.095   4.676  0.1369  0.0757 -0.0356
 2451SOL    HW2 9570   4.229   5.106   4.691  0.6059 -3.0412  0.0063
 2451SOL    HW3 9571   4.096   5.175   4.711  2.6187  0.6481  1.7490
 2451SOL    MW4 9572   4.142   5.107   4.683  0.5262 -0.2600  0.2054
 2452SOL     OW 9573   6.140   2.581   5.573  0.5537 -0.2861  0.8283
 2452SOL    HW2 9574   6.093   2.525   5.510 -1.7315 -0.0164  2.1800
 2452SOL    HW3 9575   6.135   2.669   5.535 -0.6652 -0.1518  1.2520
 2452SOL    MW4 9576   6.133   2.585   5.559  0.0913 -0.2328  1.0626
 2453SOL     OW 9577   4.045   3.498   0.954  0.0266  0.5369  0.0729
 2453SOL    HW2 9578   4.071   3.407   0.943 -3.1104 -0.5002  0.3622
 2453SOL    HW3 9579   3.981   3.513   0.885  0.1092  2.3965  0.3492
 2453SOL    MW4 9580   4.040   3.488   0.943 -0.3764  0.6455  0.1475
 2454SOL     OW 9581   5.858   3.537   0.319  0.2439  0.2215  0.1091
 2454SOL    HW2 9582   5.823   3.449   0.324  1.3633 -0.2602 -0.1788
 2454SOL    HW3 9583   5.876   3.552   0.226  0.5275  0.5581  0.2128
 2454SOL    MW4 9584   5.856   3.528   0.308  0.4290  0.2024  0.0848
 2455SOL     OW 9585   1.900   1.190   3.444  0.1497  0.1575 -0.3425
 2455SOL    HW2 9586   1.859   1.126   3.502  0.2835  0.2952 -0.0956
 2455SOL    HW3 9587   1.837   1.261   3.438  0.9883  1.0687  1.2664
 2455SOL    MW4 9588   1.886   1.191   3.451  0.2780  0.2959 -0.0976
 2456SOL     OW 9589   6.390   4.255   2.803  0.8078  0.4644  0.3066
 2456SOL    HW2 9590   6.327   4.327   2.806  1.6406  1.1949  0.5274
 2456SOL    HW3 9591   6.339   4.178   2.829 -0.0008  1.0359  0.4594
 2456SOL    MW4 9592   6.375   4.254   2.807  0.8110  0.6362  0.3559
 2457SOL     OW 9593   1.346   1.951   2.603  1.1756 -0.4134  0.5641
 2457SOL    HW2 9594   1.337   1.966   2.697 -0.7836  0.8890  0.2173
 2457SOL    HW3 9595   1.363   2.037   2.566  1.6930 -0.8738 -0.3190
 2457SOL    MW4 9596   1.347   1.964   2.610  0.9854 -0.3023  0.4018
 2458SOL     OW 9597   2.724   5.636   3.256 -0.1286  0.3898  0.2457
 2458SOL    HW2 9598   2.763   5.602   3.175 -0.7885 -1.7540  0.7758
 2458SOL    HW3 9599   2.795   5.632   3.320  0.0195  0.8226  0.1145
 2458SOL    MW4 9600   2.738   5.631   3.254 -0.1961  0.1641  0.2983
 2459SOL     OW 9601   0.369   0.710   3.653 -0.6258 -0.1075 -0.2439
 2459SOL    HW2 9602   0.445   0.703   3.710 -0.0802 -0.5133 -1.0004
 2459SOL    HW3 9603   0.365   0.803   3.630 -0.7807  0.0365  0.3518
 2459SOL    MW4 9604   0.379   0.721   3.657 -0.5742 -0.1421 -0.2651
 2460SOL     OW 9605   5.053   5.806   0.015 -0.4506 -0.2461 -0.2827
 2460SOL    HW2 9606   5.127   5.768  -0.032 -0.7165 -1.0414 -0.0689
 2460SOL    HW3 9607   4.981   5.744   0.002 -1.0873  0.5057 -0.4827
 2460SOL    MW4 9608   5.053   5.793   0.007 -0.5697 -0.2518 -0.2809
 2461SOL     OW 9609   0.142   6.284   0.867 -0.0569  0.0924 -0.5348
 2461SOL    HW2 9610   0.071   6.225   0.844 -0.8162  0.8646 -0.2242
 2461SOL    HW3 9611   0.179   6.311   0.783 -0.2930 -0.1264 -0.7088
 2461SOL    MW4 9612   0.137   6.280   0.853 -0.1882  0.1654 -0.5168
 2462SOL     OW 9613   4.598   1.379   5.043 -0.6425 -0.1211 -0.3289
 2462SOL    HW2 9614   4.594   1.356   5.136  0.2982 -1.0837 -0.5064
 2462SOL    HW3 9615   4.553   1.307   4.999 -1.4979  0.5636 -0.6055
 2462SOL    MW4 9616   4.592   1.366   5.050 -0.6313 -0.1578 -0.3888
 2463SOL     OW 9617   3.806   5.222   0.655 -0.2221 -0.0369 -0.2653
 2463SOL    HW2 9618   3.797   5.260   0.743  0.1515 -1.2526  0.3304
 2463SOL    HW3 9619   3.900   5.221   0.639 -0.0096 -2.6527  0.6858
 2463SOL    MW4 9620   3.817   5.227   0.665 -0.1448 -0.5424 -0.0612
 2464SOL     OW 9621   6.133   0.680   3.533  0.0753 -0.0145  0.5314
 2464SOL    HW2 9622   6.185   0.608   3.495  1.5629  0.3029  1.8425
 2464SOL    HW3 9623   6.129   0.746   3.464  0.7897 -0.3674  0.1367
 2464SOL    MW4 9624   6.139   0.679   3.519  0.3659 -0.0192  0.6523
 2465SOL     OW 9625   1.880   2.953   2.993  0.4291  0.5020  0.8211
 2465SOL    HW2 9626   1.893   2.859   2.997  0.6424  0.5061  0.3883
 2465SOL    HW3 9627   1.954   2.985   2.941 -0.8194  0.6418 -0.9621
 2465SOL    MW4 9628   1.892   2.945   2.986  0.2925  0.5210  0.5287
 2466SOL     OW 9629   5.584   0.881   5.711  0.4235 -0.3533 -0.0518
 2466SOL    HW2 9630   5.660   0.928   5.745 -0.4543  1.6292 -0.6744
 2466SOL    HW3 9631   5.584   0.902   5.617 -0.8964 -0.2810 -0.0527
 2466SOL    MW4 9632   5.594   0.890   5.703  0.1335 -0.0822 -0.1341
 2467SOL     OW 9633   0.702   5.104   0.524  0.0029 -0.4760  0.1329
 2467SOL    HW2 9634   0.768   5.125   0.590 -0.3196  0.9016  0.0339
 2467SOL    HW3 9635   0.663   5.188   0.500 -0.2102 -0.9964 -1.4871
 2467SOL    MW4 9636   0.706   5.118   0.529 -0.0678 -0.3629 -0.0939
 2468SOL     OW 9637   4.796   1.988   3.708  0.1600 -0.4638  0.2156
 2468SOL    HW2 9638   4.753   1.976   3.624 -0.5566 -1.3211  0.6878
 2468SOL    HW3 9639   4.879   2.033   3.687  0.0151 -0.7090 -0.9310
 2468SOL    MW4 9640   4.802   1.993   3.694  0.0463 -0.6093  0.1266
 2469SOL     OW 9641   0.630   0.028   5.496  0.3972 -0.0860  0.3406
 2469SOL    HW2 9642   0.689   0.090   5.455 -2.0211  1.0737 -1.6656
 2469SOL    HW3 9643   0.569   0.003   5.426 -1.6353 -0.9933  2.3017
 2469SOL    MW4 9644   0.630   0.033   5.481 -0.1900 -0.0527  0.3346
 2470SOL     OW 9645   6.253   0.024   3.948 -0.1362 -0.2162  0.1160
 2470SOL    HW2 9646   6.191   0.024   4.021 -2.6727 -0.9594 -1.8648
 2470SOL    HW3 9647   6.271   0.117   3.933 -2.1914  0.1618 -0.2944
 2470SOL    MW4 9648   6.247   0.037   3.956 -0.7420 -0.2644 -0.1995
 2471SOL     OW 9649   2.311   2.940   3.927  0.0464 -0.2209  0.0766
 2471SOL    HW2 9650   2.400   2.971   3.942 -0.1057 -0.1545  0.8690
 2471SOL    HW3 9651   2.315   2.896   3.843  0.3706  1.5700 -0.9061
 2471SOL    MW4 9652   2.323   2.939   3.918  0.0691  0.0241  0.0515
 2472SOL     OW 9653   5.041   0.245   5.950 -0.4199  0.3467  0.5146
 2472SOL    HW2 9654   5.079   0.244   5.862 -0.9999 -0.7438  0.2597
 2472SOL    HW3 9655   5.106   0.293   6.003 -0.1923  1.2503 -0.5408
 2472SOL    MW4 9656   5.055   0.251   5.946 -0.4664  0.3220  0.3417
 2473SOL     OW 9657   0.299   5.157   5.371  0.0927 -0.0882  0.3270
 2473SOL    HW2 9658   0.361   5.085   5.366 -0.7154 -0.8664  1.1146
 2473SOL    HW3 9659   0.261   5.150   5.459  0.7705  1.9542  0.8550
 2473SOL    MW4 9660   0.302   5.147   5.382  0.0755  0.0786  0.5006
 2474SOL     OW 9661   3.339   5.013   3.521 -0.1315 -0.1567 -0.1252
 2474SOL    HW2 9662   3.368   5.092   3.567  0.1777 -0.8364  0.8698
 2474SOL    HW3 9663   3.322   4.949   3.590  1.7328 -1.6973 -1.0071
 2474SOL    MW4 9664   3.340   5.015   3.536  0.1553 -0.4497 -0.1103
 2475SOL     OW 9665   1.198   1.216   4.241 -0.0650  0.3308 -0.1967
 2475SOL    HW2 9666   1.131   1.275   4.207 -1.1182  0.4276  1.9194
 2475SOL    HW3 9667   1.150   1.140   4.273  1.1275 -0.9171 -1.2650
 2475SOL    MW4 9668   1.183   1.214   4.241 -0.0466  0.1789 -0.0585
 2476SOL     OW 9669   1.523   4.576   6.101 -0.4840  0.2760  0.3176
 2476SOL    HW2 9670   1.517   4.507   6.168  0.1046 -0.4657 -0.3685
 2476SOL    HW3 9671   1.438   4.575   6.057 -0.3549 -0.2764  0.0720
 2476SOL    MW4 9672   1.511   4.567   6.104 -0.3893  0.1052  0.1947
 2477SOL     OW 9673   5.776   0.634   0.724 -0.1043  0.9165 -0.5217
 2477SOL    HW2 9674   5.837   0.666   0.790 -0.5632 -0.1235  0.4515
 2477SOL    HW3 9675   5.768   0.705   0.661  3.5865  0.3966 -1.7696
 2477SOL    MW4 9676   5.783   0.648   0.724  0.3221  0.7107 -0.5579
 2478SOL     OW 9677   1.944   4.855   4.065 -0.7898 -0.5542 -0.0140
 2478SOL    HW2 9678   1.901   4.776   4.099 -2.7382  1.1199  1.7221
 2478SOL    HW3 9679   2.029   4.856   4.109 -2.1373  0.0385  2.8636
 2478SOL    MW4 9680   1.950   4.845   4.076 -1.2246 -0.2551  0.5947
 2479SOL     OW 9681   4.889   6.279   0.232 -0.0415 -0.9497  0.4616
 2479SOL    HW2 9682   4.974   6.285   0.187 -0.4384  1.6011 -0.1319
 2479SOL    HW3 9683   4.825   6.274   0.161 -0.6927  3.3631  0.4355
 2479SOL    MW4 9684   4.892   6.279   0.217 -0.1797 -0.0441  0.3798
 2480SOL     OW 9685   5.033   4.076   4.529 -0.1452 -0.4009  1.0792
 2480SOL    HW2 9686   5.034   3.985   4.499  1.0638 -0.4382  1.1672
 2480SOL    HW3 9687   5.121   4.109   4.509 -1.2521  1.5258 -1.2445
 2480SOL    MW4 9688   5.045   4.069   4.522 -0.1317 -0.1516  0.7842
 2481SOL     OW 9689   0.588   1.641   1.710 -0.1048 -0.0880  0.4570
 2481SOL    HW2 9690   0.520   1.598   1.658 -1.0607 -0.8383  2.2150
 2481SOL    HW3 9691   0.572   1.735   1.698  0.1573 -0.2281 -1.1232
 2481SOL    MW4 9692   0.577   1.648   1.701 -0.1963 -0.2055  0.4805
 2482SOL     OW 9693   2.598   5.171   2.487  0.3413  0.9575 -0.4422
 2482SOL    HW2 9694   2.616   5.250   2.538 -1.1611 -0.0521  1.8316
 2482SOL    HW3 9695   2.525   5.195   2.430  0.7837  1.5905 -0.7460
 2482SOL    MW4 9696   2.591   5.185   2.487  0.2014  0.9078 -0.1823
 2483SOL     OW 9697   1.290   5.677   4.352 -0.0158  0.2177 -0.0586
 2483SOL    HW2 9698   1.273   5.646   4.263 -2.2649  0.2973  0.2978
 2483SOL    HW3 9699   1.382   5.656   4.368  0.3197 -0.1691 -2.2397
 2483SOL    MW4 9700   1.300   5.670   4.342 -0.2682  0.1772 -0.2993
 2484SOL     OW 9701   1.635   4.294   1.676 -0.3601 -0.2481  0.4470
 2484SOL    HW2 9702   1.664   4.313   1.766 -1.8792  0.1477  0.8710
 2484SOL    HW3 9703   1.715   4.263   1.632  0.4579 -0.2570  1.8635
 2484SOL    MW4 9704   1.650   4.293   1.682 -0.4526 -0.1971  0.6898
 2485SOL     OW 9705   3.495   4.269   1.917 -0.8469 -0.3723  0.4930
 2485SOL    HW2 9706   3.532   4.181   1.923  0.2451 -0.2366 -2.4955
 2485SOL    HW3 9707   3.541   4.319   1.984  1.1349 -1.2852 -0.1199
 2485SOL    MW4 9708   3.506   4.264   1.927 -0.4413 -0.4748  0.0179
 2486SOL     OW 9709   2.586   4.805   3.779  0.2380 -0.4689 -0.2884
 2486SOL    HW2 9710   2.617   4.764   3.698  2.9740 -0.9786  0.9260
 2486SOL    HW3 9711   2.634   4.887   3.785 -0.5473 -0.0419  0.4344
 2486SOL    MW4 9712   2.596   4.810   3.769  0.4954 -0.4798 -0.0328
 2487SOL     OW 9713   3.607   0.843   4.413  0.4234 -0.0734 -0.4453
 2487SOL    HW2 9714   3.581   0.892   4.336  1.1133  3.5054  1.3962
 2487SOL    HW3 9715   3.526   0.836   4.465  0.5987  0.3468 -0.1087
 2487SOL    MW4 9716   3.593   0.848   4.410  0.5376  0.4542 -0.1579
 2488SOL     OW 9717   2.729   2.688   5.941 -0.0668  0.0393  0.4507
 2488SOL    HW2 9718   2.817   2.677   5.904  1.0202  0.5663  2.7050
 2488SOL    HW3 9719   2.709   2.603   5.981 -1.3453 -0.6118 -1.4194
 2488SOL    MW4 9720   2.738   2.675   5.942 -0.0921  0.0230  0.5014
 2489SOL     OW 9721   2.160   5.982   5.804  0.1733  0.5671 -0.1405
 2489SOL    HW2 9722   2.105   5.989   5.881 -0.3833  1.7379 -0.6318
 2489SOL    HW3 9723   2.106   6.013   5.732  0.6654 -0.5436 -1.0276
 2489SOL    MW4 9724   2.146   5.987   5.804  0.1648  0.5750 -0.3223
 2490SOL     OW 9725   1.896   5.108   2.691 -0.2266  0.2212 -0.9288
 2490SOL    HW2 9726   1.974   5.119   2.637  0.2766 -1.6210 -0.6601
 2490SOL    HW3 9727   1.849   5.035   2.650 -1.0812  0.3832 -0.2624
 2490SOL    MW4 9728   1.900   5.100   2.678 -0.2730 -0.0005 -0.8054
 2491SOL     OW 9729   5.093   0.874   3.672  0.4259  0.1672  0.0581
 2491SOL    HW2 9730   5.189   0.878   3.671  0.4579 -0.0001  1.2545
 2491SOL    HW3 9731   5.073   0.785   3.703 -0.1358 -0.1987 -1.2631
 2491SOL    MW4 9732   5.103   0.862   3.676  0.3560  0.0968  0.0416
 2492SOL     OW 9733   1.070   5.663   6.327 -0.3650  0.5340 -0.1980
 2492SOL    HW2 9734   1.132   5.661   6.399 -0.0877  3.2192 -0.2559
 2492SOL    HW3 9735   1.103   5.732   6.268 -2.5339  0.9931 -0.9987
 2492SOL    MW4 9736   1.082   5.672   6.329 -0.6146  0.9489 -0.3112
 2493SOL     OW 9737   2.243   4.752   1.405  0.2049  0.1781  0.4333
 2493SOL    HW2 9738   2.157   4.792   1.422 -0.2728  0.6980 -2.6432
 2493SOL    HW3 9739   2.305   4.825   1.412  0.2529  0.0635  1.3558
 2493SOL    MW4 9740   2.239   4.767   1.408  0.1482  0.2315  0.1491
 2494SOL     OW 9741   5.276   3.956   2.928 -0.1167 -0.2279  0.0213
 2494SOL    HW2 9742   5.365   3.923   2.918 -0.0699  0.5070 -3.0968
 2494SOL    HW3 9743   5.285   4.051   2.925 -1.0476 -0.1505 -1.8855
 2494SOL    MW4 9744   5.289   3.964   2.926 -0.2334 -0.1207 -0.6417
 2495SOL     OW 9745   3.417   5.540   3.631  0.5595  0.3453  0.4339
 2495SOL    HW2 9746   3.328   5.574   3.627  0.1919 -0.5648  0.5865
 2495SOL    HW3 9747   3.452   5.573   3.715  0.6509  1.3451  0.0153
 2495SOL    MW4 9748   3.410   5.549   3.642  0.5230  0.3572  0.3988
 2496SOL     OW 9749   4.628   5.839   3.621  0.4656 -0.1638 -0.2198
 2496SOL    HW2 9750   4.645   5.929   3.594  2.2907 -1.0597 -2.4823
 2496SOL    HW3 9751   4.597   5.845   3.711  0.4522  2.6996 -0.3441
 2496SOL    MW4 9752   4.626   5.852   3.629  0.7046  0.0958 -0.5347
 2497SOL     OW 9753   5.159   1.398   6.340  0.2973  0.1160 -0.3055
 2497SOL    HW2 9754   5.123   1.318   6.301  0.7442  0.0363 -0.5710
 2497SOL    HW3 9755   5.105   1.468   6.304  0.3361 -0.0086 -0.6125
 2497SOL    MW4 9756   5.147   1.396   6.330  0.3614  0.0890 -0.3810
 2498SOL     OW 9757   0.815   0.318   5.580 -0.7964 -0.0276 -0.0676
 2498SOL    HW2 9758   0.791   0.393   5.526 -1.1411 -0.3339 -0.3570
 2498SOL    HW3 9759   0.910   0.317   5.580 -0.7919  0.0824 -0.5355
 2498SOL    MW4 9760   0.824   0.328   5.573 -0.8413 -0.0535 -0.1675
 2499SOL     OW 9761   1.423   3.020   4.516  0.1447  0.1719  0.5560
 2499SOL    HW2 9762   1.379   2.949   4.562 -0.8302 -0.5701 -1.4270
 2499SOL    HW3 9763   1.488   3.053   4.579 -0.5625 -1.3114  2.1262
 2499SOL    MW4 9764   1.426   3.015   4.530 -0.0772 -0.1217  0.5015
 2500SOL     OW 9765   3.697   0.242   5.672  0.4070  0.1500  0.3976
 2500SOL    HW2 9766   3.649   0.234   5.590 -0.6291 -2.1898  1.1384
 2500SOL    HW3 9767   3.722   0.152   5.694 -0.3713  0.5264  3.2182
 2500SOL    MW4 9768   3.694   0.229   5.664  0.1676 -0.1090  0.8675
 2501SOL     OW 9769   2.582   1.318   1.939  0.1724  0.0493 -0.3600
 2501SOL    HW2 9770   2.626   1.339   2.021 -1.7625 -1.0972  1.0455
 2501SOL    HW3 9771   2.619   1.234   1.913  0.4392  0.1847 -0.4254
 2501SOL    MW4 9772   2.593   1.310   1.946 -0.0477 -0.0841 -0.1832
 2502SOL     OW 9773   3.360   5.646   1.648 -0.3143 -0.1679  0.1842
 2502SOL    HW2 9774   3.376   5.608   1.562  1.4478 -0.2222  0.5003
 2502SOL    HW3 9775   3.363   5.740   1.635  0.2176 -0.1769  0.2178
 2502SOL    MW4 9776   3.362   5.653   1.635 -0.0116 -0.1762  0.2303
 2503SOL     OW 9777   5.329   5.567   1.785 -0.4818 -0.4428  0.0489
 2503SOL    HW2 9778   5.282   5.520   1.853  1.3789  1.6603  3.0238
 2503SOL    HW3 9779   5.297   5.657   1.791 -0.0438 -0.1376 -1.6605
 2503SOL    MW4 9780   5.319   5.573   1.795 -0.1785 -0.1250  0.2159
 2504SOL     OW 9781   0.133   5.160   2.343  0.5009 -0.3105 -0.2254
 2504SOL    HW2 9782   0.207   5.102   2.327  1.2660  0.3592  0.8044
 2504SOL    HW3 9783   0.079   5.114   2.407  0.3078 -0.5539 -0.5605
 2504SOL    MW4 9784   0.136   5.147   2.349  0.5764 -0.2543 -0.1337
 2505SOL     OW 9785   1.041   0.592   2.237  0.0682 -0.2283 -0.0351
 2505SOL    HW2 9786   1.081   0.652   2.300 -0.3045  0.1969 -0.1977
 2505SOL    HW3 9787   1.085   0.611   2.154 -1.2130  1.0362 -0.4707
 2505SOL    MW4 9788   1.052   0.603   2.235 -0.1500 -0.0054 -0.1140
 2506SOL     OW 9789   1.601   1.262   5.496 -0.7942 -0.6360 -0.1899
 2506SOL    HW2 9790   1.536   1.222   5.438 -0.9120 -1.1227  0.2654
 2506SOL    HW3 9791   1.619   1.194   5.561 -0.8547 -0.0049  0.4891
 2506SOL    MW4 9792   1.595   1.247   5.497 -0.8177 -0.6170 -0.0402
 2507SOL     OW 9793   0.996   3.206   3.139  0.0123  0.0529  0.3845
 2507SOL    HW2 9794   0.951   3.217   3.223  0.3642 -1.3929  0.7984
 2507SOL    HW3 9795   0.948   3.137   3.094  1.1737 -0.7929  0.3947
 2507SOL    MW4 9796   0.984   3.199   3.144  0.2120 -0.2494  0.4404
 2508SOL     OW 9797   6.062   4.394   1.901 -0.3469 -0.4165 -0.0633
 2508SOL    HW2 9798   6.045   4.300   1.905 -0.6308 -0.3675 -0.0955
 2508SOL    HW3 9799   5.982   4.434   1.936 -0.1680 -0.1927  0.0917
 2508SOL    MW4 9800   6.049   4.387   1.906 -0.3608 -0.3805 -0.0471
 2509SOL     OW 9801   2.634   4.985   6.073  0.2184 -0.7673 -0.4334
 2509SOL    HW2 9802   2.652   4.973   6.167 -1.2583  1.5055  0.2162
 2509SOL    HW3 9803   2.539   4.983   6.067  0.2726 -0.1269 -1.7554
 2509SOL    MW4 9804   2.624   4.983   6.085  0.0307 -0.3829 -0.5221
 2510SOL     OW 9805   5.788   4.784   2.863 -0.2107 -0.0049 -0.1862
 2510SOL    HW2 9806   5.875   4.809   2.895  0.1367 -0.9108 -0.4059
 2510SOL    HW3 9807   5.799   4.695   2.829 -0.9185  0.3547 -1.4231
 2510SOL    MW4 9808   5.801   4.776   2.863 -0.2583 -0.0770 -0.3784
 2511SOL     OW 9809   5.414   1.105   6.307 -0.2436  0.0285  0.0340
 2511SOL    HW2 9810   5.428   1.190   6.347  1.0116 -0.4986  0.7702
 2511SOL    HW3 9811   5.482   1.098   6.240 -1.2973  0.2198 -1.0949
 2511SOL    MW4 9812   5.425   1.115   6.303 -0.2170 -0.0158 -0.0178
 2512SOL     OW 9813   5.483   3.439   5.465 -0.0579 -0.4656  0.0353
 2512SOL    HW2 9814   5.440   3.476   5.387 -0.0041  1.7775  0.9840
 2512SOL    HW3 9815   5.437   3.480   5.539  0.6494 -1.6600  1.1804
 2512SOL    MW4 9816   5.471   3.450   5.465  0.0425 -0.3273  0.3116
 2513SOL     OW 9817   3.054   0.818   5.104 -0.6460 -0.4039 -0.2459
 2513SOL    HW2 9818   3.038   0.823   5.199 -0.1367  1.6316 -0.2122
 2513SOL    HW3 9819   2.987   0.874   5.066  0.5110  0.5951 -0.8751
 2513SOL    MW4 9820   3.043   0.826   5.112 -0.4261 -0.0035 -0.3244
 2514SOL     OW 9821   2.478   1.585   3.577  0.5961  0.1430 -0.4916
 2514SOL    HW2 9822   2.446   1.524   3.511  0.1038  0.1397 -0.2570
 2514SOL    HW3 9823   2.403   1.599   3.635  1.6013 -1.5899  1.3866
 2514SOL    MW4 9824   2.464   1.579   3.576  0.6638 -0.0861 -0.2128
 2515SOL     OW 9825   2.086   1.138   2.927 -0.1264  0.3195  0.2592
 2515SOL    HW2 9826   2.061   1.135   2.835 -0.5181  2.4221  0.2362
 2515SOL    HW3 9827   2.007   1.111   2.974 -0.1205 -0.1560  0.0005
 2515SOL    MW4 9828   2.072   1.134   2.921 -0.1773  0.5342  0.2220
 2516SOL     OW 9829   5.605   2.438   0.346  1.1331  0.0813  0.0486
 2516SOL    HW2 9830   5.567   2.494   0.413 -1.9027  0.6260 -1.9116
 2516SOL    HW3 9831   5.562   2.354   0.357  0.3549  0.2623 -1.3301
 2516SOL    MW4 9832   5.594   2.434   0.356  0.6299  0.1770 -0.3919
 2517SOL     OW 9833   1.401   5.689   5.298  0.7797 -0.0102  0.2817
 2517SOL    HW2 9834   1.450   5.771   5.296 -0.2457  0.6103 -0.8894
 2517SOL    HW3 9835   1.325   5.705   5.242 -0.1341 -1.3343  1.0710
 2517SOL    MW4 9836   1.397   5.702   5.291  0.5238 -0.1030  0.2313
 2518SOL     OW 9837   3.689   2.222   3.029 -0.3173 -0.4816 -0.0869
 2518SOL    HW2 9838   3.747   2.236   3.103  1.1203  0.6296 -1.3541
 2518SOL    HW3 9839   3.674   2.309   2.993 -1.1889 -0.9662 -0.9378
 2518SOL    MW4 9840   3.695   2.235   3.034 -0.2426 -0.3989 -0.3664
 2519SOL     OW 9841   1.637   4.535   4.612 -0.2864 -0.4227  0.1005
 2519SOL    HW2 9842   1.550   4.545   4.575 -0.4115  0.6610  0.6557
 2519SOL    HW3 9843   1.697   4.565   4.543 -0.4056 -0.2565  0.0709
 2519SOL    MW4 9844   1.634   4.540   4.598 -0.3186 -0.2578  0.1699
 2520SOL     OW 9845   4.280   3.509   1.111  0.4166  0.3412  0.4404
 2520SOL    HW2 9846   4.265   3.558   1.192  0.5521 -0.9709  1.2896
 2520SOL    HW3 9847   4.207   3.532   1.055  1.3747  2.9009  0.0757
 2520SOL    MW4 9848   4.269   3.518   1.114  0.5609  0.5058  0.5043
 2521SOL     OW 9849   5.931   2.244   1.737 -0.3322 -0.1882 -0.1677
 2521SOL    HW2 9850   5.860   2.237   1.673 -0.1016  1.5899 -0.6823
 2521SOL    HW3 9851   6.011   2.234   1.685 -0.1650 -0.9967  0.2252
 2521SOL    MW4 9852   5.932   2.242   1.722 -0.2797 -0.0602 -0.1837
 2522SOL     OW 9853   3.961   1.828   2.902 -0.2224 -0.0623  0.8416
 2522SOL    HW2 9854   4.046   1.867   2.879  0.9417 -1.8824  1.8232
 2522SOL    HW3 9855   3.972   1.735   2.884 -1.5377 -0.5412  2.2827
 2522SOL    MW4 9856   3.974   1.821   2.897 -0.2423 -0.3656  1.1612
 2523SOL     OW 9857   6.087   5.833   4.546 -0.3845 -0.7518  0.6532
 2523SOL    HW2 9858   6.128   5.755   4.584  0.8046  0.2075  1.4230
 2523SOL    HW3 9859   6.023   5.860   4.612  0.2260 -0.2696  1.0634
 2523SOL    MW4 9860   6.084   5.826   4.560 -0.1471 -0.5616  0.8089
 2524SOL     OW 9861   5.080   4.742   1.953 -0.4621  0.3131 -0.0700
 2524SOL    HW2 9862   5.023   4.759   1.878 -2.1565  0.7764  1.2559
 2524SOL    HW3 9863   5.029   4.681   2.008  0.7076  0.0322  0.7408
 2524SOL    MW4 9864   5.065   4.736   1.951 -0.5313  0.3372  0.2119
 2525SOL     OW 9865   5.119   2.530   6.160  0.4284 -0.1124  0.2564
 2525SOL    HW2 9866   5.211   2.514   6.181  0.6975  1.8251  0.7256
 2525SOL    HW3 9867   5.108   2.624   6.170 -0.7891  0.2215 -2.9737
 2525SOL    MW4 9868   5.130   2.540   6.164  0.3033  0.1873 -0.1078
 2526SOL     OW 9869   5.423   5.567   2.158  0.3380 -0.7223  0.0381
 2526SOL    HW2 9870   5.334   5.547   2.186  0.1814 -1.1729 -0.7598
 2526SOL    HW3 9871   5.447   5.495   2.101  1.6375 -1.1812  1.1124
 2526SOL    MW4 9872   5.414   5.555   2.154  0.4888 -0.8423  0.0746
 2527SOL     OW 9873   0.267   4.123   1.625 -0.1303  0.6192 -0.6325
 2527SOL    HW2 9874   0.254   4.129   1.530 -0.9610  1.7883 -0.4708
 2527SOL    HW3 9875   0.193   4.172   1.662  1.1834  1.7624  0.5726
 2527SOL    MW4 9876   0.255   4.130   1.617 -0.0666  0.9243 -0.4522
 2528SOL     OW 9877   0.308   5.659   4.930  0.0443  0.3959 -0.6110
 2528SOL    HW2 9878   0.228   5.607   4.939  1.0450 -1.2901 -0.9756
 2528SOL    HW3 9879   0.290   5.719   4.858 -0.9752  0.2179 -0.5187
 2528SOL    MW4 9880   0.295   5.660   4.922  0.0418  0.1500 -0.6469
 2529SOL     OW 9881   4.886   5.178   0.175  0.0933  0.3459 -0.2928
 2529SOL    HW2 9882   4.807   5.175   0.229  0.1991  1.3204 -0.0640
 2529SOL    HW3 9883   4.942   5.243   0.218  1.5637 -1.2211  0.2520
 2529SOL    MW4 9884   4.883   5.186   0.188  0.3013  0.2677 -0.1908
 2530SOL     OW 9885   0.154   5.631   5.558 -0.1326  0.0346 -0.5620
 2530SOL    HW2 9886   0.109   5.563   5.510  1.3336 -1.1073 -0.3915
 2530SOL    HW3 9887   0.169   5.700   5.494  0.3236 -0.7581 -1.3261
 2530SOL    MW4 9888   0.150   5.631   5.543  0.1210 -0.2207 -0.6403
 2531SOL     OW 9889   4.027   3.550   3.885  0.4398  0.5665  0.5195
 2531SOL    HW2 9890   3.984   3.531   3.969  0.0393  0.8493  0.3779
 2531SOL    HW3 9891   4.012   3.472   3.832 -0.3889  0.8854  0.2732
 2531SOL    MW4 9892   4.020   3.537   3.889  0.2776  0.6459  0.4683
 2532SOL     OW 9893   5.426   4.316   5.571  0.2710 -0.4389 -0.2962
 2532SOL    HW2 9894   5.508   4.363   5.581  0.4766 -0.4628 -1.6914
 2532SOL    HW3 9895   5.436   4.238   5.626 -0.3405  1.3592  2.6244
 2532SOL    MW4 9896   5.438   4.312   5.580  0.2175 -0.2048 -0.0949
 2533SOL     OW 9897   5.336   4.054   5.144  0.1324 -0.0206 -0.2326
 2533SOL    HW2 9898   5.273   4.080   5.077 -0.5242  1.2618  0.8208
 2533SOL    HW3 9899   5.296   4.082   5.226  1.1785 -1.0139  0.6457
 2533SOL    MW4 9900   5.322   4.061   5.146  0.1838  0.0176  0.0223
 2534SOL     OW 9901   3.843   4.375   4.185  0.4445  0.2402 -0.1268
 2534SOL    HW2 9902   3.841   4.308   4.253  1.7093  0.3055 -0.0006
 2534SOL    HW3 9903   3.872   4.455   4.231 -0.4917  0.7437 -0.3860
 2534SOL    MW4 9904   3.846   4.377   4.200  0.4879  0.3152 -0.1443
 2535SOL     OW 9905   6.292   4.533   4.488  0.2234  0.5651  0.0702
 2535SOL    HW2 9906   6.286   4.628   4.493 -1.7221  0.4252  1.3253
 2535SOL    HW3 9907   6.372   4.511   4.536  1.5678  1.6092 -1.5754
 2535SOL    MW4 9908   6.302   4.543   4.495  0.1441  0.6844  0.0187
 2536SOL     OW 9909   1.076   3.303   0.678  0.5609 -0.1822  0.0276
 2536SOL    HW2 9910   1.156   3.354   0.666 -0.8748  1.8007 -2.1238
 2536SOL    HW3 9911   1.005   3.365   0.658 -1.3048 -3.2197 -4.6094
 2536SOL    MW4 9912   1.077   3.318   0.674  0.1253 -0.3213 -0.8680
 2537SOL     OW 9913   1.699   1.096   2.233  0.1351  0.2305  0.5475
 2537SOL    HW2 9914   1.628   1.035   2.252 -2.3690  1.2744 -4.0114
 2537SOL    HW3 9915   1.668   1.181   2.264  1.2769  0.1271  2.1016
 2537SOL    MW4 9916   1.686   1.099   2.240 -0.0447  0.3546  0.1511
 2538SOL     OW 9917   3.517   1.772   2.759  0.1060 -0.0639  0.3817
 2538SOL    HW2 9918   3.561   1.819   2.831  0.9118  2.1678 -1.4522
 2538SOL    HW3 9919   3.589   1.730   2.711 -0.1890  0.2918 -0.3703
 2538SOL    MW4 9920   3.533   1.773   2.762  0.1734  0.2775  0.0405
 2539SOL     OW 9921   1.847   4.107   0.963 -0.0569 -0.2399 -0.0798
 2539SOL    HW2 9922   1.761   4.081   0.997 -0.8420 -0.3016 -2.0018
 2539SOL    HW3 9923   1.828   4.148   0.879  1.8130 -0.2945 -0.5611
 2539SOL    MW4 9924   1.833   4.109   0.957  0.0862 -0.2553 -0.3969
 2540SOL     OW 9925   2.852   2.497   4.782 -0.0928 -0.2848 -0.1495
 2540SOL    HW2 9926   2.884   2.447   4.857 -1.1351  2.9098  2.6316
 2540SOL    HW3 9927   2.790   2.560   4.819  0.0311  2.1161 -3.5570
 2540SOL    MW4 9928   2.848   2.499   4.797 -0.2140  0.4535 -0.2321
 2541SOL     OW 9929   2.417   4.731   4.920 -0.4252 -0.1975 -0.0916
 2541SOL    HW2 9930   2.324   4.753   4.913 -0.0135  1.8928  0.2104
 2541SOL    HW3 9931   2.420   4.656   4.979 -1.9915 -1.1323 -1.1463
 2541SOL    MW4 9932   2.405   4.724   4.927 -0.5776 -0.0451 -0.1909
 2542SOL     OW 9933   1.190   5.709   4.082 -0.0850 -0.0737 -0.2002
 2542SOL    HW2 9934   1.175   5.770   4.010  0.3573  1.6985  1.1538
 2542SOL    HW3 9935   1.179   5.623   4.042  1.4783  0.7625 -2.7067
 2542SOL    MW4 9936   1.186   5.706   4.067  0.1796  0.2704 -0.3522
 2543SOL     OW 9937   5.212   3.212   3.558  0.6194  0.1289  0.2686
 2543SOL    HW2 9938   5.274   3.145   3.587 -0.7666 -1.2789  0.1034
 2543SOL    HW3 9939   5.250   3.246   3.477  0.8260 -1.2419 -0.2269
 2543SOL    MW4 9940   5.225   3.208   3.551  0.4638 -0.2377  0.1814
 2544SOL     OW 9941   5.387   6.055   0.879 -0.0376 -0.1480  0.8575
 2544SOL    HW2 9942   5.452   5.985   0.892  0.0770  0.0406  1.3277
 2544SOL    HW3 9943   5.408   6.120   0.946  0.6183  0.9159 -0.3506
 2544SOL    MW4 9944   5.398   6.054   0.889  0.0640  0.0172  0.7601
 2545SOL     OW 9945   1.940   4.310   2.968 -0.1045 -0.6566 -0.0082
 2545SOL    HW2 9946   1.876   4.250   2.931  0.3442 -1.4016  0.3990
 2545SOL    HW3 9947   1.919   4.395   2.929 -1.0764 -0.9703 -0.1872
 2545SOL    MW4 9948   1.929   4.313   2.958 -0.1735 -0.7963  0.0219
 2546SOL     OW 9949   6.438   2.282   1.180  0.1853  0.0688 -0.4455
 2546SOL    HW2 9950   6.515   2.226   1.195  0.1876  0.3486  0.7443
 2546SOL    HW3 9951   6.433   2.336   1.259 -0.8133  0.5593 -0.8317
 2546SOL    MW4 9952   6.447   2.281   1.193  0.0538  0.1704 -0.3395
 2547SOL     OW 9953   1.372   4.838   0.980 -0.3253 -0.5337 -0.4116
 2547SOL    HW2 9954   1.377   4.897   1.055 -0.4789  0.5028 -1.1971
 2547SOL    HW3 9955   1.282   4.805   0.981 -0.4600 -0.1685 -0.3950
 2547SOL    MW4 9956   1.361   4.841   0.990 -0.3633 -0.3487 -0.5131
 2548SOL     OW 9957   1.852   5.566   6.321  0.1267 -0.5563  0.1111
 2548SOL    HW2 9958   1.921   5.631   6.338  0.5490 -0.9930  0.0809
 2548SOL    HW3 9959   1.772   5.610   6.349  0.5124 -0.3401  0.9185
 2548SOL    MW4 9960   1.851   5.581   6.327  0.2333 -0.5854  0.2136
 2549SOL     OW 9961   3.410   4.994   2.662 -0.2483 -0.8218  0.5822
 2549SOL    HW2 9962   3.405   4.948   2.746 -0.6922 -2.6201 -0.3716
 2549SOL    HW3 9963   3.338   4.957   2.610  1.3721 -1.4312 -1.3689
 2549SOL    MW4 9964   3.400   4.983   2.666 -0.0931 -1.1395  0.1990
 2550SOL     OW 9965   4.455   0.600   3.929  0.7653 -0.3464 -0.2698
 2550SOL    HW2 9966   4.530   0.595   3.988 -0.3674  0.2445  1.2814
 2550SOL    HW3 9967   4.400   0.669   3.966 -0.7989 -1.1183 -1.0718
 2550SOL    MW4 9968   4.458   0.609   3.942  0.4094 -0.3703 -0.1710
 2551SOL     OW 9969   0.626   5.701   5.734 -0.4501 -0.1630  0.0420
 2551SOL    HW2 9970   0.575   5.705   5.653  0.0234 -0.1438 -0.2582
 2551SOL    HW3 9971   0.587   5.768   5.790  0.0291  0.7059 -0.6470
 2551SOL    MW4 9972   0.614   5.710   5.731 -0.3244 -0.0458 -0.0885
 2552SOL     OW 9973   5.265   5.516   0.344  0.5059  0.1064 -0.2996
 2552SOL    HW2 9974   5.246   5.610   0.345  1.9780  0.4344 -0.4133
 2552SOL    HW3 9975   5.265   5.491   0.437  0.4990  0.3130 -0.2432
 2552SOL    MW4 9976   5.262   5.525   0.356  0.6992  0.1769 -0.3072
 2553SOL     OW 9977   2.708   3.372   5.001 -0.5448  0.2119  0.3118
 2553SOL    HW2 9978   2.751   3.294   5.037 -0.8315  0.1149  0.4491
 2553SOL    HW3 9979   2.638   3.338   4.945  0.3649  0.3548 -0.9490
 2553SOL    MW4 9980   2.704   3.358   4.999 -0.4626  0.2180  0.1636
 2554SOL     OW 9981   2.767   4.446   0.738  0.1771 -0.0263  0.2458
 2554SOL    HW2 9982   2.804   4.464   0.824  2.0857  1.8548 -0.8679
 2554SOL    HW3 9983   2.774   4.530   0.691 -1.0860 -0.9085 -1.6441
 2554SOL    MW4 9984   2.773   4.460   0.743  0.2622  0.1055 -0.1505
 2555SOL     OW 9985   6.315   0.765   6.021  0.3377  0.0566  0.2684
 2555SOL    HW2 9986   6.340   0.855   6.040  0.2742 -0.2333  1.7916
 2555SOL    HW3 9987   6.397   0.723   5.992  0.6129  0.3172  0.6585
 2555SOL    MW4 9988   6.329   0.771   6.019  0.3657  0.0527  0.5208
 2556SOL     OW 9989   5.786   4.813   3.300 -0.4077  0.2647  0.3012
 2556SOL    HW2 9990   5.864   4.860   3.270  0.5576  1.4839  4.1525
 2556SOL    HW3 9991   5.715   4.876   3.289 -0.2446  0.3732 -0.1516
 2556SOL    MW4 9992   5.787   4.828   3.295 -0.2588  0.4399  0.7496
 2557SOL     OW 9993   4.250   1.957   0.706  0.3339  0.2961 -0.1578
 2557SOL    HW2 9994   4.210   1.985   0.623  0.3183 -1.2904 -0.7141
 2557SOL    HW3 9995   4.344   1.959   0.689  0.3653  0.7712  0.0615
 2557SOL    MW4 9996   4.257   1.961   0.693  0.3360  0.1495 -0.2023
 2558SOL     OW 9997   0.959   4.452   5.569 -0.1330  0.2318  0.3322
 2558SOL    HW2 9998   1.028   4.386   5.560  0.7353  1.2043 -0.1874
 2558SOL    HW3 9999   0.909   4.423   5.646 -0.0245 -1.2487 -0.1181
 2558SOL    MW410000   0.961   4.439   5.578 -0.0041  0.1648  0.2042
 2559SOL     OW10001   2.937   5.898   3.023  0.1777  0.1368 -0.6839
 2559SOL    HW210002   3.027   5.867   3.013 -0.3624 -1.7322 -0.1743
 2559SOL    HW310003   2.929   5.922   3.115 -0.2687 -1.2738 -0.3285
 2559SOL    MW410004   2.948   5.897   3.034  0.0476 -0.2959 -0.5697
 2560SOL     OW10005   0.241   4.463   0.952 -0.2654 -0.4774 -0.2792
 2560SOL    HW210006   0.180   4.456   0.879 -0.6948 -1.7300  0.1831
 2560SOL    HW310007   0.326   4.481   0.910 -0.3646 -1.9216 -1.1487
 2560SOL    MW410008   0.244   4.465   0.937 -0.3351 -0.8332 -0.3329
 2561SOL     OW10009   2.120   3.365   4.270  0.2126 -0.3432  0.1429
 2561SOL    HW210010   2.149   3.425   4.339 -0.5037  0.9058 -0.6122
 2561SOL    HW310011   2.104   3.421   4.194  1.8463 -1.7807 -1.3572
 2561SOL    MW410012   2.122   3.380   4.269  0.3336 -0.3681 -0.1547
 2562SOL     OW10013   5.676   2.858   4.505 -0.5927 -0.7995 -0.3035
 2562SOL    HW210014   5.658   2.906   4.585 -2.1341 -1.1823 -0.3990
 2562SOL    HW310015   5.747   2.907   4.463 -1.0350  0.4619  0.3794
 2562SOL    MW410016   5.683   2.871   4.510 -0.8544 -0.6836 -0.2260
 2563SOL     OW10017   5.917   1.753   3.601  0.1004  0.7048  0.1847
 2563SOL    HW210018   5.958   1.712   3.525  0.4116  1.5199 -0.0986
 2563SOL    HW310019   5.850   1.811   3.563 -2.3253 -1.5660  0.6519
 2563SOL    MW410020   5.913   1.755   3.586 -0.1786  0.5127  0.2090
 2564SOL     OW10021   0.080   6.384   6.170  0.2207  0.6197 -0.3495
 2564SOL    HW210022  -0.007   6.347   6.159  0.5465 -0.5705  0.8704
 2564SOL    HW310023   0.099   6.374   6.264  0.0133  4.6263  0.3178
 2564SOL    MW410024   0.071   6.378   6.181  0.2363  0.9913 -0.1005
 2565SOL     OW10025   2.167   3.805   3.596 -0.4655  0.2346 -0.0969
 2565SOL    HW210026   2.197   3.763   3.515 -1.4919  0.4913 -0.6287
 2565SOL    HW310027   2.188   3.898   3.584 -1.2884  0.3905 -0.4031
 2565SOL    MW410028   2.174   3.812   3.583 -0.7095  0.2890 -0.2075
 2566SOL     OW10029   2.921   1.485   3.484  0.0475 -0.3997  0.0715
 2566SOL    HW210030   2.873   1.405   3.465 -1.7572  0.4879  0.7646
 2566SOL    HW310031   2.993   1.485   3.420  0.5171 -2.8835  0.5183
 2566SOL    MW410032   2.924   1.475   3.473 -0.1287 -0.6103  0.2219
 2567SOL     OW10033   3.028   3.794   0.994 -0.2956 -0.3427 -0.1686
 2567SOL    HW210034   3.102   3.845   0.963  0.4100 -1.0495  0.3023
 2567SOL    HW310035   2.957   3.858   1.006 -0.3070  0.0865 -2.2484
 2567SOL    MW410036   3.028   3.809   0.992 -0.2040 -0.3793 -0.3808
 2568SOL     OW10037   0.022   4.393   3.426 -0.0286 -0.3208 -0.3604
 2568SOL    HW210038  -0.005   4.456   3.493 -1.8285  0.4245 -1.6996
 2568SOL    HW310039  -0.056   4.339   3.411  0.6254 -1.0586 -1.2046
 2568SOL    MW410040   0.008   4.395   3.432 -0.1798 -0.3198 -0.6485
 2569SOL     OW10041   2.913   0.801   2.797 -0.4949  0.1168 -0.1517
 2569SOL    HW210042   3.007   0.817   2.797 -0.8542  3.0672  1.9779
 2569SOL    HW310043   2.886   0.820   2.707  0.8127  0.2247 -0.5473
 2569SOL    MW410044   2.922   0.806   2.785 -0.3698  0.5203  0.0771
 2570SOL     OW10045   5.538   5.604   3.524  0.5664  0.1308 -0.2303
 2570SOL    HW210046   5.487   5.672   3.569  1.1885 -1.3021  2.9519
 2570SOL    HW310047   5.608   5.652   3.480 -0.0759  1.6851  0.3667
 2570SOL    MW410048   5.540   5.619   3.524  0.5637  0.1468  0.2683
 2571SOL     OW10049   4.458   5.318   5.555  0.1199  0.3009  0.4508
 2571SOL    HW210050   4.465   5.224   5.571  0.7146  0.4535  1.1433
 2571SOL    HW310051   4.475   5.359   5.640  1.2228  1.0764 -0.1053
 2571SOL    MW410052   4.461   5.311   5.568  0.3439  0.4234  0.4688
 2572SOL     OW10053   0.178   4.754   0.733 -0.0950  0.3256  0.0588
 2572SOL    HW210054   0.194   4.840   0.695 -0.7483  0.6169  0.4373
 2572SOL    HW310055   0.208   4.761   0.823  1.5418 -0.3958 -0.3878
 2572SOL    MW410056   0.184   4.766   0.740  0.0348  0.2688  0.0498
 2573SOL     OW10057   4.917   0.578   3.249 -0.0460  0.4137  0.5014
 2573SOL    HW210058   4.840   0.560   3.303 -0.5271  0.0943 -0.2632
 2573SOL    HW310059   4.962   0.649   3.294  1.8749 -2.4719  3.6249
 2573SOL    MW410060   4.912   0.585   3.262  0.1440 -0.0092  0.8126
 2574SOL     OW10061   5.903   2.977   4.798 -0.1510  0.1551  0.7161
 2574SOL    HW210062   5.885   3.038   4.726  0.7521  1.7188  1.7434
 2574SOL    HW310063   5.960   2.910   4.760  0.6790  1.2013  0.0661
 2574SOL    MW410064   5.908   2.976   4.784  0.0777  0.4994  0.7658
 2575SOL     OW10065   4.275   6.363   4.075 -0.2748  0.6184  0.0448
 2575SOL    HW210066   4.295   6.451   4.107  0.9493 -0.0671  1.2755
 2575SOL    HW310067   4.360   6.319   4.073 -0.9317 -0.6679 -0.1207
 2575SOL    MW410068   4.289   6.369   4.079 -0.1999  0.3583  0.1854
 2576SOL     OW10069   5.688   5.821   1.924 -0.4532  0.1495  0.2893
 2576SOL    HW210070   5.629   5.810   1.999 -1.2180  0.2432 -0.2862
 2576SOL    HW310071   5.645   5.885   1.869 -1.0882 -1.6223 -1.3833
 2576SOL    MW410072   5.675   5.828   1.927 -0.6379 -0.0719 -0.0073
 2577SOL     OW10073   0.377   3.245   4.517  0.9663  0.0192 -0.2330
 2577SOL    HW210074   0.428   3.259   4.438  1.1089 -0.2511 -0.1926
 2577SOL    HW310075   0.395   3.321   4.572  1.0911  0.0682 -0.3424
 2577SOL    MW410076   0.386   3.257   4.514  1.0016 -0.0100 -0.2421
 2578SOL     OW10077   4.311   4.397   4.833  0.7113 -0.4514 -0.0109
 2578SOL    HW210078   4.287   4.322   4.778  3.2891 -0.8490 -0.7366
 2578SOL    HW310079   4.322   4.470   4.771 -0.5874  0.2511  0.5481
 2578SOL    MW410080   4.309   4.397   4.817  0.8801 -0.4111 -0.0329
 2579SOL     OW10081   0.881   6.079   3.833 -0.2766 -0.0965 -0.2222
 2579SOL    HW210082   0.795   6.117   3.819 -0.5064  0.1279  1.5629
 2579SOL    HW310083   0.938   6.153   3.853 -0.1441 -0.4281  0.6687
 2579SOL    MW410084   0.877   6.094   3.834 -0.2895 -0.1106  0.1309
 2580SOL     OW10085   3.476   0.962   5.203 -0.0997  0.1476 -0.3661
 2580SOL    HW210086   3.476   0.919   5.289 -0.4946  0.5294 -0.1636
 2580SOL    HW310087   3.487   1.055   5.224 -1.9079  0.4483 -0.5927
 2580SOL    MW410088   3.477   0.969   5.217 -0.3904  0.2376 -0.3693
 2581SOL     OW10089   5.234   2.792   5.516  0.5013  0.7764 -0.2745
 2581SOL    HW210090   5.242   2.697   5.519  1.1903  0.8467  1.4720
 2581SOL    HW310091   5.140   2.809   5.520  0.3368  0.1904 -1.2162
 2581SOL    MW410092   5.223   2.782   5.517  0.5705  0.7084 -0.1683
 2582SOL     OW10093   2.113   4.742   3.002 -0.3201 -0.1316  0.0375
 2582SOL    HW210094   2.057   4.684   2.950 -0.6017  0.7242 -0.6258
 2582SOL    HW310095   2.103   4.828   2.962  0.2376  0.3510  0.9023
 2582SOL    MW410096   2.104   4.746   2.990 -0.2837  0.0450  0.0641
 2583SOL     OW10097   1.427   2.079   1.740 -0.9537  0.3478  0.3728
 2583SOL    HW210098   1.335   2.054   1.754 -1.2570  0.1349 -1.7627
 2583SOL    HW310099   1.472   2.047   1.819 -2.2641 -1.9513  0.2841
 2583SOL    MW410100   1.420   2.072   1.752 -1.1666  0.0164  0.0794
 2584SOL     OW10101   2.619   2.273   2.336  0.0499  0.0803  0.1555
 2584SOL    HW210102   2.553   2.255   2.270  0.4863  0.5049 -0.4013
 2584SOL    HW310103   2.606   2.365   2.359  0.2269  0.0729  0.2891
 2584SOL    MW410104   2.609   2.283   2.331  0.1308  0.1354  0.0996
 2585SOL     OW10105   2.192   1.812   1.356 -0.1140 -0.0897 -0.2248
 2585SOL    HW210106   2.141   1.731   1.357 -0.3078 -0.0003 -1.3760
 2585SOL    HW310107   2.141   1.872   1.302  0.1908  0.7016  0.3430
 2585SOL    MW410108   2.179   1.809   1.349 -0.0994  0.0265 -0.3018
 2586SOL     OW10109   4.780   6.346   4.271  0.3779 -0.3476  0.2425
 2586SOL    HW210110   4.829   6.396   4.336  0.5005  0.4819 -0.4727
 2586SOL    HW310111   4.688   6.369   4.288  0.0677 -2.6997  2.2625
 2586SOL    MW410112   4.774   6.356   4.282  0.3532 -0.5485  0.4146
 2587SOL     OW10113   5.067   0.496   4.450 -0.0624  0.1814  0.2685
 2587SOL    HW210114   5.027   0.477   4.365 -0.2903  1.6576  0.0196
 2587SOL    HW310115   5.002   0.548   4.496 -0.1225 -0.9773  1.5524
 2587SOL    MW410116   5.053   0.500   4.445 -0.1004  0.2233  0.4051
 2588SOL     OW10117   3.802   3.092   1.513  0.0546  0.7767 -0.0190
 2588SOL    HW210118   3.881   3.101   1.566  0.1026  1.6104 -0.2272
 2588SOL    HW310119   3.752   3.172   1.530 -0.8694  0.1464  0.3124
 2588SOL    MW410120   3.806   3.103   1.522 -0.0610  0.8035 -0.0027
 2589SOL     OW10121   4.358   1.845   5.692 -0.5049  0.6372 -0.3452
 2589SOL    HW210122   4.286   1.885   5.741 -1.8288 -1.0512 -0.8084
 2589SOL    HW310123   4.426   1.831   5.757 -2.3793 -1.9506  1.2344
 2589SOL    MW410124   4.357   1.849   5.707 -0.9269  0.0730 -0.1979
 2590SOL     OW10125   0.715   3.255   4.775  0.1160 -0.1446 -0.4312
 2590SOL    HW210126   0.711   3.173   4.726 -0.7458 -0.0971 -0.4557
 2590SOL    HW310127   0.730   3.322   4.708  0.8342 -0.2716 -0.4097
 2590SOL    MW410128   0.716   3.253   4.759  0.0971 -0.1551 -0.4316
 2591SOL     OW10129   1.352   6.366   0.687 -0.8941 -0.0059  0.0969
 2591SOL    HW210130   1.308   6.281   0.680 -1.3310  0.2910 -0.8138
 2591SOL    HW310131   1.444   6.347   0.665 -0.5981 -0.5565  1.6491
 2591SOL    MW410132   1.359   6.352   0.683 -0.9127 -0.0394  0.1816
 2592SOL     OW10133   0.054   0.729   1.172  0.2691  0.5006 -0.0821
 2592SOL    HW210134   0.128   0.669   1.172  1.1351  1.4912  1.9673
 2592SOL    HW310135  -0.008   0.689   1.111  1.8309 -1.1491 -0.6947
 2592SOL    MW410136   0.055   0.716   1.164  0.5894  0.4137  0.1074
 2593SOL     OW10137   1.599   2.999   0.030 -0.0027 -0.0590 -0.2235
 2593SOL    HW210138   1.572   3.066  -0.032 -1.8447  1.4507  2.0329
 2593SOL    HW310139   1.691   3.018   0.048 -0.5087  1.9870  0.4310
 2593SOL    MW410140   1.608   3.010   0.024 -0.3125  0.4101  0.1605
 2594SOL     OW10141   0.901   1.357   3.948 -0.1852 -0.2572 -0.1001
 2594SOL    HW210142   0.996   1.361   3.950 -0.1885 -0.2453  0.1421
 2594SOL    HW310143   0.873   1.444   3.976 -0.2642 -0.4769  0.5211
 2594SOL    MW410144   0.910   1.369   3.952 -0.1960 -0.2846  0.0138
 2595SOL     OW10145   3.883   1.489   5.627 -0.2453 -0.1537  0.4516
 2595SOL    HW210146   3.792   1.463   5.612 -0.5897  0.6814  1.0231
 2595SOL    HW310147   3.921   1.492   5.539 -1.2653  1.2303  0.0052
 2595SOL    MW410148   3.876   1.486   5.613 -0.4253  0.1391  0.4681
 2596SOL     OW10149   5.136   0.718   5.237  0.0462 -0.2149  0.0503
 2596SOL    HW210150   5.187   0.781   5.288 -1.4471  0.7661  0.3843
 2596SOL    HW310151   5.092   0.770   5.170  1.0311 -1.3257 -1.5487
 2596SOL    MW410152   5.137   0.733   5.235 -0.0209 -0.2320 -0.1166
 2597SOL     OW10153   3.231   0.493   3.815 -1.1486  0.0166  0.5063
 2597SOL    HW210154   3.172   0.505   3.740  0.1371  1.5618 -0.3100
 2597SOL    HW310155   3.214   0.404   3.844 -4.6730  0.6742  1.0020
 2597SOL    MW410156   3.221   0.483   3.809 -1.4440  0.3072  0.4640
 2598SOL     OW10157   1.296   3.497   0.648  0.6860 -0.2417  0.3773
 2598SOL    HW210158   1.371   3.500   0.707 -0.3927 -0.8948  1.8145
 2598SOL    HW310159   1.247   3.577   0.667 -0.2616 -0.9987  1.2011
 2598SOL    MW410160   1.300   3.508   0.658  0.4187 -0.4278  0.6756
 2599SOL     OW10161   1.828   5.657   5.237  0.4363 -0.1138 -0.9529
 2599SOL    HW210162   1.826   5.604   5.158  1.2144 -0.0938 -0.9899
 2599SOL    HW310163   1.893   5.614   5.293  0.7350  0.5384 -0.7972
 2599SOL    MW410164   1.836   5.644   5.234  0.5784 -0.0251 -0.9373
 2600SOL     OW10165   3.564   2.535   4.743  0.3456  0.1529  0.1884
 2600SOL    HW210166   3.475   2.547   4.777  0.2337 -1.5854  0.6016
 2600SOL    HW310167   3.590   2.448   4.773  1.4066 -0.2178 -1.6191
 2600SOL    MW410168   3.555   2.525   4.751  0.4708 -0.1253  0.0044
 2601SOL     OW10169   0.562   1.237   1.088 -0.2339 -0.1087 -0.6925
 2601SOL    HW210170   0.472   1.265   1.068 -0.5388  1.6594  2.4977
 2601SOL    HW310171   0.551   1.170   1.155  0.8154  0.6068  0.2180
 2601SOL    MW410172   0.549   1.232   1.094 -0.1357  0.2190 -0.1514
 2602SOL     OW10173   1.959   0.091   0.179  0.3632  0.2508 -0.8017
 2602SOL    HW210174   1.988   0.046   0.099 -0.3620 -1.2254 -0.2592
 2602SOL    HW310175   2.040   0.126   0.218  0.8198  0.2804 -1.7395
 2602SOL    MW410176   1.974   0.090   0.173  0.3278  0.0599 -0.8538
 2603SOL     OW10177   3.589   5.672   3.031  0.1485 -0.1885 -0.4246
 2603SOL    HW210178   3.676   5.632   3.034  0.4549  0.1292 -2.8750
 2603SOL    HW310179   3.534   5.605   2.988 -0.4851  0.1621 -0.1751
 2603SOL    MW410180   3.593   5.658   3.025  0.1053 -0.1003 -0.7150
 2604SOL     OW10181   5.340   1.917   0.765  0.1645  0.4156 -0.3659
 2604SOL    HW210182   5.434   1.902   0.763  0.1570  0.2351  0.4568
 2604SOL    HW310183   5.315   1.921   0.672  0.8398 -0.4218 -0.6002
 2604SOL    MW410184   5.349   1.915   0.752  0.2526  0.2813 -0.2883
 2605SOL     OW10185   5.853   5.361   0.559  0.1147 -0.1031  0.5091
 2605SOL    HW210186   5.849   5.267   0.575 -0.1633  0.2770  3.1625
 2605SOL    HW310187   5.820   5.400   0.640 -2.2207  2.2733 -1.4087
 2605SOL    MW410188   5.848   5.354   0.572 -0.2301  0.2606  0.6061
 2606SOL     OW10189   1.930   4.290   4.135  0.5262  0.1899  0.3566
 2606SOL    HW210190   2.016   4.320   4.163  0.4080  1.7658 -0.8388
 2606SOL    HW310191   1.936   4.195   4.136  2.7949  0.2465 -1.1501
 2606SOL    MW410192   1.942   4.282   4.138  0.8100  0.4053  0.0001
 2607SOL     OW10193   3.126   3.761   2.162  0.2334 -0.7570 -0.4208
 2607SOL    HW210194   3.068   3.731   2.232  0.6277 -2.5249 -0.8255
 2607SOL    HW310195   3.197   3.697   2.160  1.3957  0.4838 -1.0011
 2607SOL    MW410196   3.128   3.749   2.171  0.4388 -0.8266 -0.5508
 2608SOL     OW10197   4.409   3.307   1.270 -0.4195  0.0975 -0.0853
 2608SOL    HW210198   4.472   3.374   1.298  1.3425 -0.7667 -1.6934
 2608SOL    HW310199   4.359   3.349   1.200 -1.3921  0.6542  0.9185
 2608SOL    MW410200   4.411   3.322   1.264 -0.3154  0.0569 -0.1650
 2609SOL     OW10201   0.234   1.359   4.513  0.7880 -0.1819 -0.2902
 2609SOL    HW210202   0.153   1.383   4.558  1.4484  1.3357  0.1554
 2609SOL    HW310203   0.244   1.266   4.530 -0.1511 -0.1067  0.8143
 2609SOL    MW410204   0.225   1.350   4.521  0.7512  0.0283 -0.0857
 2610SOL     OW10205   2.473   2.710   0.083 -0.1510 -0.5656  0.0138
 2610SOL    HW210206   2.450   2.733   0.174 -1.9651 -2.2134  0.0440
 2610SOL    HW310207   2.388   2.696   0.040  0.6630  0.3319 -2.0140
 2610SOL    MW410208   2.459   2.711   0.090 -0.2829 -0.6646 -0.2498
 2611SOL     OW10209   6.201   2.443   1.772  0.0897  0.0403  0.3502
 2611SOL    HW210210   6.135   2.496   1.728 -2.5244 -2.7220  0.6613
 2611SOL    HW310211   6.203   2.478   1.861  0.1966  1.0919 -0.0437
 2611SOL    MW410212   6.193   2.455   1.778 -0.2411 -0.1854  0.3393
 2612SOL     OW10213   0.110   6.073   2.545 -0.1607 -0.0358  0.4437
 2612SOL    HW210214   0.153   5.987   2.536  0.5396  0.3848 -0.4787
 2612SOL    HW310215   0.045   6.060   2.613  0.9167 -0.9200  1.3509
 2612SOL    MW410216   0.107   6.060   2.552  0.0738 -0.0969  0.4417
 2613SOL     OW10217   1.670   5.535   5.754  0.3308  0.4648 -0.0079
 2613SOL    HW210218   1.650   5.529   5.661 -0.8478 -0.7171  0.2749
 2613SOL    HW310219   1.726   5.459   5.771 -4.6237 -3.4812  1.3145
 2613SOL    MW410220   1.675   5.524   5.744 -0.4784 -0.2118  0.2039
 2614SOL     OW10221   0.828   6.071   2.095 -0.0178  0.3338  0.0025
 2614SOL    HW210222   0.868   5.986   2.116  0.5076  0.6126  0.1421
 2614SOL    HW310223   0.734   6.056   2.103  0.0874 -0.1377  0.3932
 2614SOL    MW410224   0.821   6.058   2.099  0.0654  0.3084  0.0725
 2615SOL     OW10225   1.795   3.742   6.136  0.3591 -0.2702  0.4813
 2615SOL    HW210226   1.846   3.788   6.069  1.3664 -0.9908  0.7225
 2615SOL    HW310227   1.704   3.763   6.116  0.6964  0.2680 -0.5543
 2615SOL    MW410228   1.790   3.751   6.125  0.5365 -0.2943  0.3765
 2616SOL     OW10229   0.274   0.567   0.249  0.3398 -0.3800 -0.2722
 2616SOL    HW210230   0.309   0.512   0.320  0.4204 -0.6282 -0.5038
 2616SOL    HW310231   0.337   0.639   0.241  0.3599 -0.3812 -0.1279
 2616SOL    MW410232   0.287   0.569   0.258  0.3531 -0.4129 -0.2837
 2617SOL     OW10233   1.865   3.985   4.764 -0.6827  0.4812 -0.2827
 2617SOL    HW210234   1.915   3.976   4.683  0.6084  1.3389  0.4001
 2617SOL    HW310235   1.920   4.037   4.822 -1.6296 -0.0124  1.1275
 2617SOL    MW410236   1.879   3.991   4.761 -0.6373  0.5293 -0.0066
 2618SOL     OW10237   6.426   5.179   0.629 -0.2899 -0.3885  0.2925
 2618SOL    HW210238   6.472   5.099   0.602  1.1093 -0.0701  1.5751
 2618SOL    HW310239   6.334   5.154   0.633  0.2757 -2.4578  2.2613
 2618SOL    MW410240   6.420   5.165   0.626 -0.0307 -0.6195  0.7215
 2619SOL     OW10241   1.017   4.144   0.658  0.2563  0.3754  0.2238
 2619SOL    HW210242   0.991   4.053   0.671  0.6251  0.2104 -0.1925
 2619SOL    HW310243   0.946   4.182   0.607 -0.6198  0.7135  1.6489
 2619SOL    MW410244   1.004   4.137   0.653  0.1894  0.3982  0.3569
 2620SOL     OW10245   3.292   5.192   1.286 -0.3198  0.5599  0.1351
 2620SOL    HW210246   3.268   5.246   1.361  0.0665 -0.6442  1.1595
 2620SOL    HW310247   3.330   5.254   1.223 -0.3018  1.5365  1.0814
 2620SOL    MW410248   3.294   5.207   1.288 -0.2665  0.5299  0.3951
 2621SOL     OW10249   1.202   1.977   4.866 -0.2905  0.0512  0.3994
 2621SOL    HW210250   1.172   1.940   4.949  0.5976  0.7657  1.0473
 2621SOL    HW310251   1.293   2.001   4.881 -0.1660  0.3595 -0.7345
 2621SOL    MW410252   1.210   1.975   4.879 -0.1569  0.1861  0.3353
 2622SOL     OW10253   2.318   0.509   4.389  0.3511 -0.1300  0.1370
 2622SOL    HW210254   2.379   0.582   4.383 -2.5563  2.4876 -0.1105
 2622SOL    HW310255   2.290   0.494   4.298  0.1773 -0.8829  0.3086
 2622SOL    MW410256   2.322   0.517   4.376 -0.0554  0.1160  0.1270
 2623SOL     OW10257   1.497   5.241   4.556 -0.1822  0.9894 -0.5462
 2623SOL    HW210258   1.548   5.182   4.499 -0.7413  1.1210 -1.1955
 2623SOL    HW310259   1.511   5.207   4.644 -2.1196 -1.4077 -1.0456
 2623SOL    MW410260   1.506   5.229   4.560 -0.5116  0.6905 -0.6978
 2624SOL     OW10261   1.369   4.267   1.591  0.1640  0.0227 -0.3869
 2624SOL    HW210262   1.464   4.270   1.582  0.1449 -0.3284 -0.7290
 2624SOL    HW310263   1.354   4.283   1.684  0.4307  2.3152 -0.6823
 2624SOL    MW410264   1.380   4.269   1.602  0.1967  0.2789 -0.4710
 2625SOL     OW10265   2.423   5.255   2.029 -0.6007 -0.3494 -0.4620
 2625SOL    HW210266   2.479   5.317   1.983 -0.6433  0.2966  0.3359
 2625SOL    HW310267   2.338   5.297   2.031 -0.2841  0.2670  1.3924
 2625SOL    MW410268   2.419   5.268   2.023 -0.5645 -0.1828 -0.1120
 2626SOL     OW10269   4.230   2.151   1.627  0.0535  0.0307 -0.4051
 2626SOL    HW210270   4.263   2.064   1.605  1.2927  0.6494 -1.1034
 2626SOL    HW310271   4.245   2.203   1.549  0.8929  1.2936  0.5598
 2626SOL    MW410272   4.236   2.146   1.614  0.3278  0.2790 -0.3699
 2627SOL     OW10273   3.967   6.014   3.777 -0.0538 -0.2610  0.4939
 2627SOL    HW210274   3.968   6.097   3.730  1.7000 -0.3900  0.2260
 2627SOL    HW310275   4.059   5.998   3.799 -0.6601 -0.8811  2.8070
 2627SOL    MW410276   3.979   6.023   3.774  0.0976 -0.3598  0.7637
 2628SOL     OW10277   5.022   1.580   1.005 -0.3424  0.6114 -0.0641
 2628SOL    HW210278   5.049   1.492   0.976  0.6852  1.0041 -0.3099
 2628SOL    HW310279   5.095   1.637   0.982 -0.3076  1.2735  1.5962
 2628SOL    MW410280   5.035   1.576   0.998 -0.2022  0.7506  0.1225
 2629SOL     OW10281   0.099   2.094   0.245  0.1079 -0.2130 -0.7258
 2629SOL    HW210282   0.033   2.161   0.228  0.4079  0.2950  0.0424
 2629SOL    HW310283   0.125   2.063   0.158 -1.2991 -0.5969 -1.0428
 2629SOL    MW410284   0.094   2.099   0.231 -0.0382 -0.1966 -0.6663
 2630SOL     OW10285   3.832   6.099   0.793 -0.1843  0.7496  0.4514
 2630SOL    HW210286   3.859   6.120   0.882  1.6639  0.0934  0.0968
 2630SOL    HW310287   3.901   6.135   0.738  1.5353 -3.2102 -0.3607
 2630SOL    MW410288   3.845   6.106   0.797  0.2865  0.1406  0.2975
 2631SOL     OW10289   3.423   2.052   0.462  0.2027 -0.6076 -0.1976
 2631SOL    HW210290   3.376   1.979   0.501  0.3994 -0.1403  0.9677
 2631SOL    HW310291   3.502   2.013   0.425 -0.1056 -1.0977 -0.3538
 2631SOL    MW410292   3.427   2.037   0.462  0.1880 -0.6106 -0.0645
 2632SOL     OW10293   5.335   4.230   2.953 -0.0158 -0.2252  0.6105
 2632SOL    HW210294   5.419   4.237   2.998  0.3445  0.2456 -0.1182
 2632SOL    HW310295   5.352   4.261   2.864 -0.8113 -0.7369  0.2619
 2632SOL    MW410296   5.348   4.235   2.947 -0.0732 -0.2306  0.4684
 2633SOL     OW10297   2.843   1.253   3.753  0.1726  0.2823  0.4985
 2633SOL    HW210298   2.886   1.175   3.717  0.7103  1.1953 -0.8863
 2633SOL    HW310299   2.899   1.279   3.826 -1.0179 -1.6805  2.2398
 2633SOL    MW410300   2.856   1.246   3.758  0.0865  0.1438  0.5456
 2634SOL     OW10301   1.856   1.668   2.207  0.0758  0.2733 -0.3712
 2634SOL    HW210302   1.885   1.736   2.147  1.7892 -1.7722 -2.0159
 2634SOL    HW310303   1.930   1.654   2.266 -0.3357 -0.0329  0.0882
 2634SOL    MW410304   1.869   1.675   2.207  0.2476 -0.0370 -0.5276
 2635SOL     OW10305   0.959   6.352   5.166 -0.1226 -0.4304  0.1729
 2635SOL    HW210306   0.925   6.402   5.241  1.7783  1.2085  0.0286
 2635SOL    HW310307   0.974   6.264   5.202  0.8141  0.3327  1.7724
 2635SOL    MW410308   0.956   6.347   5.181  0.2518 -0.1135  0.3649
 2636SOL     OW10309   4.334   3.232   5.571 -0.1820  0.5930 -0.2965
 2636SOL    HW210310   4.307   3.302   5.512  0.4345 -0.1707 -1.5339
 2636SOL    HW310311   4.382   3.276   5.640  0.2936  1.3885 -1.1150
 2636SOL    MW410312   4.337   3.247   5.572 -0.0379  0.5972 -0.5678
 2637SOL     OW10313   3.456   3.984   5.628  0.0713  0.1603 -0.0325
 2637SOL    HW210314   3.499   3.920   5.685  2.2804 -1.3315 -3.0862
 2637SOL    HW310315   3.365   3.956   5.626  0.3846 -1.0816  1.0255
 2637SOL    MW410316   3.450   3.972   5.635  0.4041 -0.2004 -0.2958
 2638SOL     OW10317   2.728   2.463   3.879 -0.6680 -0.0071 -0.0512
 2638SOL    HW210318   2.699   2.555   3.880 -1.6123 -0.2668 -1.4222
 2638SOL    HW310319   2.664   2.418   3.825  1.1836 -1.0269 -1.5056
 2638SOL    MW410320   2.716   2.470   3.872 -0.5483 -0.1759 -0.4240
 2639SOL     OW10321   3.667   4.305   2.580  0.3939  0.3383 -0.1870
 2639SOL    HW210322   3.611   4.252   2.523 -0.5758 -0.3722  1.3733
 2639SOL    HW310323   3.682   4.250   2.657  1.0584  1.5483  0.5798
 2639SOL    MW410324   3.661   4.291   2.583  0.3537  0.4042  0.1201
 2640SOL     OW10325   2.657   3.685   2.871 -0.4229  0.6777  0.2943
 2640SOL    HW210326   2.646   3.668   2.778 -0.5043 -0.4414  0.4938
 2640SOL    HW310327   2.749   3.666   2.889 -0.5831  0.1523  0.5820
 2640SOL    MW410328   2.668   3.681   2.861 -0.4548  0.4608  0.3586
 2641SOL     OW10329   5.295   3.248   2.724  0.3816 -0.0295  0.2733
 2641SOL    HW210330   5.216   3.256   2.671  0.7511  0.4522 -0.2254
 2641SOL    HW310331   5.267   3.269   2.813 -0.7080 -2.8979  0.7292
 2641SOL    MW410332   5.281   3.252   2.729  0.2866 -0.3444  0.2677
 2642SOL     OW10333   4.838   2.848   6.234 -0.2135  0.0924 -0.1234
 2642SOL    HW210334   4.932   2.836   6.239 -0.1589  0.7051  0.3454
 2642SOL    HW310335   4.803   2.760   6.218  0.3065 -0.4208  1.4395
 2642SOL    MW410336   4.846   2.835   6.232 -0.1377  0.1055  0.1447
 2643SOL     OW10337   4.816   1.668   6.423  0.1483 -0.1668 -0.2245
 2643SOL    HW210338   4.816   1.721   6.503  1.3062  0.2547 -0.4951
 2643SOL    HW310339   4.787   1.581   6.452  1.4609 -0.2778  0.8418
 2643SOL    MW410340   4.812   1.664   6.437  0.4742 -0.1258 -0.1195
 2644SOL     OW10341   6.293   3.796   0.382 -0.3020  0.3129 -0.6896
 2644SOL    HW210342   6.292   3.889   0.404  1.9018 -0.0768  1.3964
 2644SOL    HW310343   6.377   3.782   0.338  1.0416 -1.1870  2.0534
 2644SOL    MW410344   6.304   3.806   0.379  0.1661  0.0636 -0.0525
 2645SOL     OW10345   3.136   5.309   5.427 -0.9280  0.5496  0.2526
 2645SOL    HW210346   3.209   5.353   5.383 -0.6373 -0.1281  0.0466
 2645SOL    HW310347   3.101   5.249   5.361 -2.3838  1.6459 -0.0148
 2645SOL    MW410348   3.141   5.307   5.412 -1.0817  0.6048  0.1902
 2646SOL     OW10349   4.863   3.725   0.593  0.4643 -0.2917  0.0272
 2646SOL    HW210350   4.852   3.701   0.501 -0.6679 -2.5250  0.6762
 2646SOL    HW310351   4.899   3.647   0.634  0.1429  0.3673  1.6463
 2646SOL    MW410352   4.866   3.712   0.587  0.2725 -0.4994  0.3265
 2647SOL     OW10353   3.161   3.197   2.798  0.3531  0.0320 -0.2267
 2647SOL    HW210354   3.104   3.272   2.785 -0.2751 -0.6362 -1.5350
 2647SOL    HW310355   3.158   3.180   2.892 -0.2530  1.0369 -0.0520
 2647SOL    MW410356   3.153   3.205   2.809  0.1903  0.0764 -0.3763
 2648SOL     OW10357   3.609   0.782   3.087 -0.1568 -0.4806 -0.3935
 2648SOL    HW210358   3.528   0.825   3.114  0.3140  0.1564  0.0399
 2648SOL    HW310359   3.679   0.836   3.124  0.4699 -1.0641 -0.6886
 2648SOL    MW410360   3.608   0.795   3.095 -0.0120 -0.4736 -0.3753
 2649SOL     OW10361   4.575   0.384   1.349  0.3240 -0.0953  0.0742
 2649SOL    HW210362   4.612   0.308   1.304  2.5676  0.0281  1.5898
 2649SOL    HW310363   4.604   0.459   1.297 -2.6069 -0.1633 -1.9261
 2649SOL    MW410364   4.584   0.384   1.336  0.2334 -0.0880  0.0102
 2650SOL     OW10365   1.041   1.615   0.057  0.0374 -0.0215 -0.3756
 2650SOL    HW210366   1.126   1.608   0.102  1.0055  2.5878 -1.6028
 2650SOL    HW310367   0.977   1.597   0.125  1.5385 -2.2284  0.5681
 2650SOL    MW410368   1.044   1.612   0.072  0.3632  0.0316 -0.4130
 2651SOL     OW10369   0.932   2.344   1.061 -0.1297  0.3605 -0.1751
 2651SOL    HW210370   0.864   2.407   1.037  2.1787  2.1621 -2.6117
 2651SOL    HW310371   0.935   2.283   0.987  1.6551  1.0849 -0.7600
 2651SOL    MW410372   0.923   2.345   1.048  0.4104  0.6938 -0.5737
 2652SOL     OW10373   1.096   1.181   3.550  0.1178 -0.0900 -0.2684
 2652SOL    HW210374   1.039   1.218   3.618 -0.3221  1.7898 -1.5690
 2652SOL    HW310375   1.163   1.248   3.536  1.5278 -1.4210 -0.1641
 2652SOL    MW410376   1.097   1.195   3.557  0.2458 -0.0176 -0.4263
 2653SOL     OW10377   5.479   3.881   1.720  0.5124  0.4930 -0.2610
 2653SOL    HW210378   5.484   3.846   1.809 -0.5250 -0.7215 -0.6345
 2653SOL    HW310379   5.512   3.809   1.665  2.8643  1.8631 -0.7821
 2653SOL    MW410380   5.484   3.867   1.724  0.6858  0.5135 -0.3790
 2654SOL     OW10381   0.386   3.979   2.695  0.0190  0.3386 -0.1235
 2654SOL    HW210382   0.303   3.953   2.735  1.4869 -2.7449  1.2207
 2654SOL    HW310383   0.447   3.985   2.769  1.3681  1.0030 -1.2444
 2654SOL    MW410384   0.383   3.976   2.710  0.3907  0.0194 -0.0940
 2655SOL     OW10385   1.200   1.004   0.097  0.4616  0.6104  0.4459
 2655SOL    HW210386   1.263   1.075   0.089  0.7691  0.3645  0.7115
 2655SOL    HW310387   1.234   0.948   0.166  1.3210 -0.9190 -1.1305
 2655SOL    MW410388   1.213   1.006   0.105  0.6155  0.3762  0.2730
 2656SOL     OW10389   4.651   2.482   2.183  0.1638 -0.0181  0.1482
 2656SOL    HW210390   4.557   2.470   2.187  0.2326 -0.3011  1.2484
 2656SOL    HW310391   4.686   2.396   2.163  0.2021  0.0040  0.1207
 2656SOL    MW410392   4.644   2.469   2.181  0.1779 -0.0526  0.2898
 2657SOL     OW10393   5.651   3.199   1.615 -0.3536  0.1337 -0.0454
 2657SOL    HW210394   5.702   3.124   1.583 -1.2088 -0.4275 -0.1352
 2657SOL    HW310395   5.712   3.248   1.670  0.3146 -0.4577 -0.2438
 2657SOL    MW410396   5.666   3.195   1.618 -0.3783 -0.0184 -0.0834
 2658SOL     OW10397   1.135   0.772   6.284  0.3057  0.1135 -0.5922
 2658SOL    HW210398   1.126   0.861   6.252 -0.1830 -0.3846 -1.9146
 2658SOL    HW310399   1.080   0.769   6.363  0.2723  0.9531 -0.5743
 2658SOL    MW410400   1.126   0.783   6.290  0.2368  0.1585 -0.7643
 2659SOL     OW10401   5.573   5.137   2.985 -0.2107  0.6123  0.0720
 2659SOL    HW210402   5.648   5.175   3.031 -0.3970  0.1426  0.7820
 2659SOL    HW310403   5.596   5.044   2.975 -1.6511 -0.0919  2.4140
 2659SOL    MW410404   5.586   5.129   2.990 -0.4253  0.4574  0.4747
 2660SOL     OW10405   1.589   4.067   1.048  0.2262 -0.2706 -0.7028
 2660SOL    HW210406   1.530   4.142   1.038  0.1916 -0.0692  0.7950
 2660SOL    HW310407   1.571   4.034   1.136  1.7929 -0.6937 -0.5172
 2660SOL    MW410408   1.578   4.073   1.058  0.4284 -0.2998 -0.4807
 2661SOL     OW10409   5.199   3.088   4.034  0.3720  0.0559  0.2136
 2661SOL    HW210410   5.213   3.070   4.127 -1.5041 -1.0008  0.3433
 2661SOL    HW310411   5.104   3.099   4.026  0.6555  1.7456 -1.3312
 2661SOL    MW410412   5.188   3.087   4.045  0.1619  0.1394  0.0269
 2662SOL     OW10413   2.085   2.712   0.642 -0.6839 -0.6609  0.0404
 2662SOL    HW210414   2.147   2.651   0.602 -1.0900 -0.0379 -1.6524
 2662SOL    HW310415   2.043   2.662   0.712  0.2465 -1.7414 -0.1511
 2662SOL    MW410416   2.087   2.698   0.646 -0.6147 -0.7213 -0.2082
 2663SOL     OW10417   5.445   0.216   2.010  0.6471  0.0367  0.2177
 2663SOL    HW210418   5.482   0.128   2.020 -1.9072 -1.1535  0.0487
 2663SOL    HW310419   5.363   0.202   1.962  0.7954  2.7042 -1.0076
 2663SOL    MW410420   5.439   0.202   2.005  0.3297  0.2316  0.0337
 2664SOL     OW10421   2.400   2.616   5.289  0.7572 -0.0273  0.0307
 2664SOL    HW210422   2.447   2.600   5.207  0.7256 -0.3076  0.0657
 2664SOL    HW310423   2.447   2.564   5.354  0.8263  0.2550  0.2040
 2664SOL    MW410424   2.412   2.607   5.287  0.7621 -0.0270  0.0581
 2665SOL     OW10425   0.034   1.335   2.561 -0.1730 -0.0291  0.4870
 2665SOL    HW210426  -0.028   1.404   2.539 -0.3840 -0.1023  0.8438
 2665SOL    HW310427  -0.013   1.279   2.623  0.6138  0.5350  1.6337
 2665SOL    MW410428   0.020   1.337   2.566 -0.0970  0.0357  0.6854
 2666SOL     OW10429   0.877   3.123   5.980  0.2560  0.0634 -0.3105
 2666SOL    HW210430   0.880   3.086   5.892  1.8219  0.6725 -0.5447
 2666SOL    HW310431   0.966   3.153   5.997 -0.3603  1.3813  0.8656
 2666SOL    MW410432   0.889   3.122   5.970  0.3813  0.3177 -0.1862
 2667SOL     OW10433   4.574   5.449   1.679 -0.1826  0.1854  0.0827
 2667SOL    HW210434   4.500   5.399   1.714 -2.2283  1.8837 -1.5065
 2667SOL    HW310435   4.627   5.385   1.632 -3.0173 -0.5442 -2.4262
 2667SOL    MW410436   4.571   5.434   1.677 -0.8265  0.3132 -0.4580
 2668SOL     OW10437   6.162   1.325   4.241 -0.4981  0.1740  0.0087
 2668SOL    HW210438   6.202   1.394   4.188  0.3928  0.2559  0.7622
 2668SOL    HW310439   6.155   1.364   4.329 -1.5026 -0.1288  0.0756
 2668SOL    MW410440   6.167   1.339   4.246 -0.5131  0.1449  0.1169
 2669SOL     OW10441   4.826   3.611   0.320  0.0638  0.5416  0.2659
 2669SOL    HW210442   4.764   3.538   0.325  1.2375 -0.5032  0.0738
 2669SOL    HW310443   4.784   3.675   0.263 -0.6450 -0.3417 -0.2209
 2669SOL    MW410444   4.812   3.609   0.313  0.1252  0.2872  0.1763
 2670SOL     OW10445   5.895   6.424   3.235 -0.0501  0.3406 -0.4785
 2670SOL    HW210446   5.824   6.455   3.291  1.3394  0.5738  1.2429
 2670SOL    HW310447   5.938   6.356   3.287  1.6417  0.9585 -1.0105
 2670SOL    MW410448   5.891   6.419   3.250  0.3564  0.4529 -0.3216
 2671SOL     OW10449   1.614   2.952   3.060 -0.4783 -0.6050 -0.3920
 2671SOL    HW210450   1.565   3.017   3.008  1.5289  0.3796 -1.1765
 2671SOL    HW310451   1.699   2.946   3.016  0.8391 -0.7706  2.0033
 2671SOL    MW410452   1.619   2.960   3.047 -0.0396 -0.4969 -0.1795
 2672SOL     OW10453   5.400   5.039   1.394  0.0011  0.1010  0.1423
 2672SOL    HW210454   5.422   5.110   1.455 -1.1945 -1.6967  2.8406
 2672SOL    HW310455   5.480   4.987   1.388  0.0843  0.2148  0.2635
 2672SOL    MW410456   5.414   5.042   1.401 -0.1457 -0.1212  0.5143
 2673SOL     OW10457   5.113   4.535   0.797 -0.2198 -0.0697 -0.2320
 2673SOL    HW210458   5.096   4.580   0.714 -0.4285  1.2036  0.4735
 2673SOL    HW310459   5.038   4.559   0.852  2.5673  4.0587  2.3229
 2673SOL    MW410460   5.101   4.544   0.793  0.1204  0.6430  0.1982
 2674SOL     OW10461   5.052   2.448   4.003  0.6275 -0.2045 -0.5104
 2674SOL    HW210462   5.038   2.353   4.006 -0.7495 -0.0301 -0.4288
 2674SOL    HW310463   5.047   2.470   3.910 -0.1385 -0.0929 -0.4535
 2674SOL    MW410464   5.049   2.438   3.991  0.3447 -0.1668 -0.4921
 2675SOL     OW10465   5.071   4.460   1.550  0.0487 -0.2479  0.5381
 2675SOL    HW210466   5.055   4.553   1.532  1.4556  0.9130  4.3200
 2675SOL    HW310467   5.166   4.450   1.543  0.0711 -0.9938  1.6818
 2675SOL    MW410468   5.081   4.471   1.547  0.2373 -0.1932  1.1880
 2676SOL     OW10469   2.813   6.092   6.222 -0.4739  0.1216 -0.4052
 2676SOL    HW210470   2.760   6.167   6.251  0.2582  0.3227  0.4820
 2676SOL    HW310471   2.791   6.022   6.284 -0.4237 -0.0962 -0.6334
 2676SOL    MW410472   2.803   6.093   6.234 -0.3707  0.1194 -0.3182
 2677SOL     OW10473   4.221   5.650   2.278 -0.7092  1.2168  0.0768
 2677SOL    HW210474   4.300   5.703   2.290  1.3238 -1.4992 -0.2654
 2677SOL    HW310475   4.206   5.651   2.183  0.4119 -0.1384 -0.1521
 2677SOL    MW410476   4.230   5.657   2.267 -0.2930  0.6796  0.0015
 2678SOL     OW10477   1.963   6.133   5.046 -0.2713  0.1306  0.2127
 2678SOL    HW210478   1.973   6.218   5.088 -0.8783  0.3657 -0.1091
 2678SOL    HW310479   1.997   6.146   4.957 -0.5029  0.0738  0.1173
 2678SOL    MW410480   1.969   6.146   5.040 -0.3819  0.1542  0.1577
 2679SOL     OW10481   1.746   1.732   6.396  0.5129  0.4081  0.1977
 2679SOL    HW210482   1.819   1.762   6.451 -1.8144 -0.5291  4.2777
 2679SOL    HW310483   1.674   1.791   6.420 -0.7166 -0.1328 -1.9292
 2679SOL    MW410484   1.746   1.744   6.407  0.0437  0.2131  0.4554
 2680SOL     OW10485   3.850   5.734   1.277  0.5349 -0.0690 -0.2776
 2680SOL    HW210486   3.938   5.770   1.268  1.0822 -0.6594  2.1639
 2680SOL    HW310487   3.796   5.807   1.307  0.0205  0.4133 -2.2176
 2680SOL    MW410488   3.854   5.748   1.279  0.5392 -0.0832 -0.2114
 2681SOL     OW10489   5.291   3.755   6.084  0.1228  0.8357 -0.3427
 2681SOL    HW210490   5.366   3.720   6.037  1.1803  2.6855 -0.1331
 2681SOL    HW310491   5.293   3.849   6.066 -0.3010  1.3938  2.1638
 2681SOL    MW410492   5.301   3.763   6.076  0.2064  1.1534  0.0156
 2682SOL     OW10493   2.106   4.049   5.548  0.1708 -0.8133  0.4165
 2682SOL    HW210494   2.182   4.068   5.493 -0.4833 -2.2271 -1.0479
 2682SOL    HW310495   2.058   4.131   5.553 -0.0504 -0.7789 -1.6389
 2682SOL    MW410496   2.110   4.062   5.542  0.0553 -0.9953 -0.0479
 2683SOL     OW10497   5.099   0.806   2.195 -0.0889  0.3658 -0.0766
 2683SOL    HW210498   5.049   0.875   2.239 -1.2862 -0.4309 -0.1501
 2683SOL    HW310499   5.184   0.807   2.240 -0.0503  1.8992 -0.1027
 2683SOL    MW410500   5.104   0.816   2.207 -0.2418  0.4630 -0.0898
 2684SOL     OW10501   5.444   0.033   4.285 -0.1036  0.3214  0.3797
 2684SOL    HW210502   5.474   0.022   4.375  0.3040  1.0032  0.3324
 2684SOL    HW310503   5.354   0.064   4.294 -0.5443 -0.9186  0.5269
 2684SOL    MW410504   5.436   0.035   4.298 -0.1079  0.2478  0.3929
 2685SOL     OW10505   3.227   0.548   2.455  0.5234 -0.8289 -0.3307
 2685SOL    HW210506   3.277   0.566   2.535 -0.1466  0.4174 -0.1677
 2685SOL    HW310507   3.183   0.465   2.472  0.0878 -0.3884  0.7499
 2685SOL    MW410508   3.228   0.540   2.468  0.3776 -0.6064 -0.1666
 2686SOL     OW10509   1.524   2.106   1.279 -0.2246  0.6614  0.0903
 2686SOL    HW210510   1.490   2.034   1.331  0.9142  0.2095  0.2420
 2686SOL    HW310511   1.499   2.185   1.328  0.2400  0.2737  0.9871
 2686SOL    MW410512   1.517   2.107   1.292 -0.0130  0.5506  0.2286
 2687SOL     OW10513   3.404   5.343   1.091  0.3574  0.0467  0.4276
 2687SOL    HW210514   3.451   5.393   1.158  1.4166 -0.1576 -0.1439
 2687SOL    HW310515   3.454   5.356   1.011 -1.2805  0.8648 -0.5255
 2687SOL    MW410516   3.417   5.351   1.089  0.2811  0.1277  0.2265
 2688SOL     OW10517   0.249   1.405   2.167  0.8367 -0.0336  0.6476
 2688SOL    HW210518   0.204   1.337   2.217  1.2291  0.3805  1.5931
 2688SOL    HW310519   0.342   1.384   2.177  0.9400  0.3694  0.5552
 2688SOL    MW410520   0.255   1.393   2.175  0.9021  0.0742  0.7602
 2689SOL     OW10521   1.458   4.778   2.762 -0.1055  0.6014 -0.1056
 2689SOL    HW210522   1.474   4.738   2.848 -0.8715  0.4983 -0.0048
 2689SOL    HW310523   1.536   4.758   2.711 -0.3497 -0.7662  0.0359
 2689SOL    MW410524   1.470   4.770   2.767 -0.2388  0.4074 -0.0737
 2690SOL     OW10525   4.413   1.648   0.985  0.6041 -0.0571  0.1441
 2690SOL    HW210526   4.479   1.589   1.021 -0.4253 -1.4023 -0.1053
 2690SOL    HW310527   4.349   1.659   1.055 -0.3844 -1.0962 -0.5626
 2690SOL    MW410528   4.414   1.642   0.999  0.3379 -0.3717  0.0179
 2691SOL     OW10529   0.535   2.783   0.233  0.2598 -0.0978 -0.3184
 2691SOL    HW210530   0.529   2.700   0.186  1.4704  0.1463 -0.9196
 2691SOL    HW310531   0.625   2.812   0.221 -0.0617  1.1651  0.1333
 2691SOL    MW410532   0.546   2.776   0.225  0.3771  0.1011 -0.3382
 2692SOL     OW10533   5.823   6.041   2.617 -0.0283  0.3658 -0.4265
 2692SOL    HW210534   5.757   6.083   2.671  0.0830 -1.0785  0.9003
 2692SOL    HW310535   5.798   5.949   2.615  0.8929  0.1078 -1.4939
 2692SOL    MW410536   5.811   6.035   2.624  0.1079  0.1412 -0.3923
 2693SOL     OW10537   2.381   3.816   5.471 -0.0908 -0.9266 -0.1446
 2693SOL    HW210538   2.366   3.857   5.556  0.7469 -2.1352  0.6172
 2693SOL    HW310539   2.330   3.736   5.474 -1.0598 -0.3705 -1.2939
 2693SOL    MW410540   2.373   3.811   5.483 -0.1082 -1.0127 -0.1957
 2694SOL     OW10541   5.590   5.676   5.758  0.3354 -0.0649  0.1164
 2694SOL    HW210542   5.608   5.706   5.847  0.7208 -0.0375  0.0308
 2694SOL    HW310543   5.568   5.756   5.710  1.9007  0.1898 -0.2457
 2694SOL    MW410544   5.590   5.691   5.764  0.5928 -0.0277  0.0573
 2695SOL     OW10545   5.191   5.570   1.143 -0.1246 -0.0504  0.4110
 2695SOL    HW210546   5.162   5.656   1.113 -1.8836 -0.2108  1.5110
 2695SOL    HW310547   5.110   5.519   1.153  0.6746 -1.0795  2.0058
 2695SOL    MW410548   5.176   5.574   1.140 -0.2512 -0.2073  0.7665
 2696SOL     OW10549   2.281   2.569   1.728 -0.4104 -0.4567 -0.9354
 2696SOL    HW210550   2.337   2.611   1.663 -0.6133  1.9301  0.3292
 2696SOL    HW310551   2.340   2.513   1.779  0.5475  0.8437 -0.5861
 2696SOL    MW410552   2.296   2.567   1.726 -0.3108  0.0298 -0.7225
 2697SOL     OW10553   0.546   1.023   2.792 -0.3703  0.4859 -0.5470
 2697SOL    HW210554   0.499   0.992   2.870 -2.7216  2.7735 -0.9272
 2697SOL    HW310555   0.549   0.946   2.735 -1.9605 -0.2808  0.3121
 2697SOL    MW410556   0.540   1.009   2.795 -0.8903  0.6866 -0.4838
 2698SOL     OW10557   4.053   2.508   2.434  0.4443 -0.8794 -0.0767
 2698SOL    HW210558   4.012   2.551   2.359  0.1791  0.5004  0.8172
 2698SOL    HW310559   4.070   2.419   2.405 -1.0055 -0.7936 -1.2797
 2698SOL    MW410560   4.050   2.502   2.420  0.2180 -0.6861 -0.1175
 2699SOL     OW10561   4.874   0.411   4.240 -0.4250 -0.4787  0.4625
 2699SOL    HW210562   4.829   0.359   4.306 -1.4882 -0.6724 -0.3880
 2699SOL    HW310563   4.805   0.458   4.195  0.5508  2.5363  1.8361
 2699SOL    MW410564   4.859   0.410   4.243 -0.4365 -0.1065  0.5315
 2700SOL     OW10565   1.826   6.386   3.480 -0.1759 -0.0383  0.3163
 2700SOL    HW210566   1.829   6.475   3.517  1.8713  0.3153 -0.5828
 2700SOL    HW310567   1.800   6.400   3.389 -3.7403 -0.7780  1.0713
 2700SOL    MW410568   1.823   6.400   3.473 -0.3761 -0.0893  0.2973
 2701SOL     OW10569   0.478   3.220   0.388 -0.2977 -0.4287  0.3002
 2701SOL    HW210570   0.475   3.222   0.292 -0.8846 -0.4938  0.3169
 2701SOL    HW310571   0.569   3.195   0.408 -0.3131 -0.9418 -0.2404
 2701SOL    MW410572   0.490   3.217   0.378 -0.3771 -0.5050  0.2311
 2702SOL     OW10573   3.226   1.644   5.968 -0.1897  0.1437  0.3863
 2702SOL    HW210574   3.279   1.569   5.939  1.6068  0.4439  2.6198
 2702SOL    HW310575   3.146   1.605   6.002  0.7463 -0.8342  1.5913
 2702SOL    MW410576   3.223   1.629   5.968  0.1708  0.0543  0.8400
 2703SOL     OW10577   4.813   1.711   2.677 -0.3937 -0.4109 -0.5040
 2703SOL    HW210578   4.778   1.676   2.759 -0.1422  1.0506  0.2631
 2703SOL    HW310579   4.777   1.653   2.609 -2.0796 -0.5837  0.4782
 2703SOL    MW410580   4.804   1.699   2.678 -0.5829 -0.2409 -0.2732
 2704SOL     OW10581   4.839   5.689   3.811 -0.2928 -0.0579 -0.1185
 2704SOL    HW210582   4.796   5.759   3.862 -0.3611  0.2944 -0.6511
 2704SOL    HW310583   4.838   5.722   3.721 -2.5792 -1.8213 -0.8305
 2704SOL    MW410584   4.833   5.703   3.806 -0.6035 -0.2441 -0.2827
 2705SOL     OW10585   2.941   3.743   2.884  0.8558 -0.6626 -0.2063
 2705SOL    HW210586   2.933   3.811   2.817 -0.0619  0.0383  0.5771
 2705SOL    HW310587   2.935   3.790   2.967  0.7202 -1.6460  0.3631
 2705SOL    MW410588   2.939   3.758   2.886  0.7168 -0.6999 -0.0278
 2706SOL     OW10589   3.421   3.617   0.689  0.1601 -0.3292  0.1245
 2706SOL    HW210590   3.469   3.552   0.637  2.0057  0.8917  0.2373
 2706SOL    HW310591   3.399   3.570   0.770  0.1157 -1.2603 -0.4042
 2706SOL    MW410592   3.424   3.602   0.693  0.3977 -0.2910  0.0697
 2707SOL     OW10593   4.505   5.004   2.286  0.3909 -0.3800 -0.2764
 2707SOL    HW210594   4.597   5.019   2.264  0.7462  0.1268  1.4233
 2707SOL    HW310595   4.481   5.078   2.343 -0.6678 -1.2244  0.4191
 2707SOL    MW410596   4.514   5.016   2.291  0.2981 -0.4246  0.0396
 2708SOL     OW10597   0.114   1.212   1.316  0.4593 -0.3171 -0.1310
 2708SOL    HW210598   0.133   1.131   1.269  0.4061 -0.4790  0.1269
 2708SOL    HW310599   0.195   1.232   1.363  0.8957  0.4358 -1.1461
 2708SOL    MW410600   0.127   1.204   1.316  0.5099 -0.2392 -0.2309
 2709SOL     OW10601   4.070   1.549   2.834 -0.3071 -0.2730 -0.3966
 2709SOL    HW210602   4.094   1.566   2.743  1.7172 -1.9114 -0.2426
 2709SOL    HW310603   4.143   1.585   2.885  0.0641 -2.0153  0.3682
 2709SOL    MW410604   4.083   1.556   2.829  0.0089 -0.7191 -0.2754
 2710SOL     OW10605   5.737   4.406   4.298  0.0391  0.4244 -0.1320
 2710SOL    HW210606   5.761   4.477   4.238 -0.0089 -1.0862 -2.0272
 2710SOL    HW310607   5.821   4.368   4.325  0.0476  0.8640  0.4727
 2710SOL    MW410608   5.752   4.411   4.293  0.0339  0.2831 -0.3023
 2711SOL     OW10609   2.797   2.492   2.553 -0.8477 -0.0261  0.1652
 2711SOL    HW210610   2.752   2.520   2.473 -1.9040 -1.1947  0.3202
 2711SOL    HW310611   2.727   2.482   2.618 -0.3088 -1.3143  0.5891
 2711SOL    MW410612   2.782   2.494   2.551 -0.9160 -0.3503  0.2416
 2712SOL     OW10613   4.069   5.362   2.152  0.2483  0.1952 -0.0186
 2712SOL    HW210614   4.025   5.297   2.207  1.8345 -0.3064  0.6929
 2712SOL    HW310615   4.010   5.438   2.154 -0.6073 -0.4701  0.8630
 2712SOL    MW410616   4.055   5.364   2.160  0.3447  0.0412  0.1916
 2713SOL     OW10617   1.334   4.365   0.245  0.3614  0.3133 -0.1388
 2713SOL    HW210618   1.320   4.293   0.184  0.2930 -0.7721  1.1202
 2713SOL    HW310619   1.407   4.337   0.300  0.3731  1.2339  0.3376
 2713SOL    MW410620   1.342   4.352   0.244  0.3539  0.2916  0.0902
 2714SOL     OW10621   3.337   6.023   0.367  0.1734 -0.6113  0.4278
 2714SOL    HW210622   3.244   6.042   0.351  0.0449 -1.6161 -0.1356
 2714SOL    HW310623   3.383   6.100   0.334 -0.4682  0.0768  1.0773
 2714SOL    MW410624   3.331   6.036   0.361  0.0718 -0.6531  0.4392
 2715SOL     OW10625   1.006   4.218   3.891 -0.3331 -0.0864  0.4269
 2715SOL    HW210626   0.954   4.223   3.971 -0.8538 -1.7912  0.2187
 2715SOL    HW310627   0.945   4.189   3.823  0.1636  1.0530 -0.5620
 2715SOL    MW410628   0.991   4.215   3.892 -0.3363 -0.1610  0.2690
 2716SOL     OW10629   5.670   1.644   5.965 -0.0651 -0.4950  0.0428
 2716SOL    HW210630   5.626   1.718   6.008  0.1443  0.4878 -1.3437
 2716SOL    HW310631   5.709   1.595   6.037 -0.3518  0.6491  1.0290
 2716SOL    MW410632   5.669   1.647   5.980 -0.0753 -0.2144 -0.0100
 2717SOL     OW10633   2.601   2.438   2.756 -0.4413  0.2333  0.5136
 2717SOL    HW210634   2.613   2.344   2.746  1.2423  0.4540  0.2693
 2717SOL    HW310635   2.506   2.450   2.756 -0.6799 -1.3161 -0.8465
 2717SOL    MW410636   2.590   2.427   2.754 -0.2507  0.0580  0.3019
 2718SOL     OW10637   1.505   3.366   4.716  0.1622  0.1897  0.3990
 2718SOL    HW210638   1.520   3.380   4.809 -2.0129 -2.6421  1.3201
 2718SOL    HW310639   1.532   3.275   4.700 -0.1467  0.3860 -1.5733
 2718SOL    MW410640   1.511   3.356   4.726 -0.1655 -0.1580  0.2603
 2719SOL     OW10641   2.424   6.400   3.177 -0.1277  0.1313 -0.1691
 2719SOL    HW210642   2.395   6.340   3.244  1.3958 -0.2707  0.1623
 2719SOL    HW310643   2.375   6.481   3.194 -0.3534 -0.2219  0.9129
 2719SOL    MW410644   2.413   6.403   3.188  0.0436  0.0317  0.0174
 2720SOL     OW10645   4.961   3.381   3.055 -0.3089 -0.4425  0.4452
 2720SOL    HW210646   4.970   3.426   3.139 -0.9001  2.4789 -0.9437
 2720SOL    HW310647   4.868   3.362   3.047 -0.7651  1.8823 -0.6794
 2720SOL    MW410648   4.950   3.384   3.065 -0.4471  0.2497  0.1136
 2721SOL     OW10649   2.004   6.091   5.596  0.4366 -0.0022 -0.0701
 2721SOL    HW210650   1.931   6.039   5.629  1.8564 -1.7983  0.3915
 2721SOL    HW310651   1.969   6.180   5.589 -1.6865 -0.7477  0.4082
 2721SOL    MW410652   1.990   6.096   5.599  0.3438 -0.3375  0.0539
 2722SOL     OW10653   4.803   6.444   4.978 -0.2433  0.5806 -0.4402
 2722SOL    HW210654   4.734   6.392   5.020  0.3832 -0.6496 -0.8842
 2722SOL    HW310655   4.855   6.477   5.051 -0.5127  0.3905 -0.1583
 2722SOL    MW410656   4.800   6.441   4.994 -0.1962  0.3932 -0.4616
 2723SOL     OW10657   2.952   6.428   1.655 -0.1216 -0.3262  0.0254
 2723SOL    HW210658   2.941   6.523   1.644  0.9860 -0.2609 -0.6512
 2723SOL    HW310659   2.988   6.417   1.742 -1.5073 -0.2461  0.6417
 2723SOL    MW410660   2.955   6.439   1.665 -0.1583 -0.3070  0.0175
 2724SOL     OW10661   2.949   1.829   0.414  0.0482  0.7160  0.2052
 2724SOL    HW210662   2.912   1.902   0.465 -0.2486 -0.0564  1.1340
 2724SOL    HW310663   2.998   1.778   0.478 -1.9789 -1.4017  0.1927
 2724SOL    MW410664   2.950   1.832   0.429 -0.2584  0.3347  0.3261
 2725SOL     OW10665   1.375   2.536   5.547 -0.2051  0.1355 -0.1660
 2725SOL    HW210666   1.442   2.468   5.533  2.0086  2.1920 -0.3212
 2725SOL    HW310667   1.380   2.590   5.468 -0.0900  1.8801  0.9909
 2725SOL    MW410668   1.385   2.534   5.534  0.1021  0.6370 -0.0338
 2726SOL     OW10669   2.950   1.977   6.116  0.9663  0.0730 -0.0377
 2726SOL    HW210670   2.959   2.053   6.173  0.0451  1.2559 -1.4064
 2726SOL    HW310671   2.866   1.938   6.140 -1.1231  2.5151 -2.6607
 2726SOL    MW410672   2.940   1.982   6.127  0.5691  0.5513 -0.5643
 2727SOL     OW10673   1.883   0.963   2.540 -0.0198  0.0231 -0.0305
 2727SOL    HW210674   1.801   0.984   2.496  0.2085  0.2537 -0.3561
 2727SOL    HW310675   1.910   0.880   2.501  1.0047  1.0083 -1.5475
 2727SOL    MW410676   1.876   0.955   2.529  0.1455  0.1835 -0.2736
 2728SOL     OW10677   3.879   6.310   3.701  0.0248 -0.4322 -0.0952
 2728SOL    HW210678   3.787   6.333   3.688  0.1714  0.5857  0.5633
 2728SOL    HW310679   3.911   6.374   3.765  1.3765 -0.3285 -0.8461
 2728SOL    MW410680   3.871   6.321   3.708  0.2225 -0.2842 -0.1074
 2729SOL     OW10681   0.913   3.230   5.098 -0.4674 -0.1151  0.2578
 2729SOL    HW210682   0.930   3.137   5.114  2.3331  0.4447  1.0052
 2729SOL    HW310683   0.827   3.245   5.138 -0.0856 -1.9523  1.9292
 2729SOL    MW410684   0.904   3.219   5.106 -0.0475 -0.2836  0.5769
 2730SOL     OW10685   0.543   5.080   5.938  0.0122  0.1026  0.1716
 2730SOL    HW210686   0.629   5.119   5.955  0.4253 -1.0799  0.8926
 2730SOL    HW310687   0.496   5.086   6.022 -0.1948 -0.2475  0.0863
 2730SOL    MW410688   0.548   5.086   5.952  0.0394 -0.0996  0.2555
 2731SOL     OW10689   5.020   3.260   2.571  0.0247 -0.0542  0.3018
 2731SOL    HW210690   4.984   3.338   2.529 -0.6904  0.0544  1.0959
 2731SOL    HW310691   4.976   3.187   2.527  0.4247 -0.0049 -0.1895
 2731SOL    MW410692   5.010   3.261   2.560 -0.0168 -0.0334  0.3418
 2732SOL     OW10693   6.241   3.003   3.904  0.2644 -0.5677 -0.7186
 2732SOL    HW210694   6.231   3.097   3.885  0.9253 -0.3157  0.1068
 2732SOL    HW310695   6.153   2.974   3.927  0.2033  0.0866 -0.0508
 2732SOL    MW410696   6.228   3.012   3.905  0.3436 -0.4481 -0.5216
 2733SOL     OW10697   1.760   1.787   3.048 -0.2199 -0.3695  0.1039
 2733SOL    HW210698   1.751   1.851   2.977 -0.9466 -1.0606 -0.4435
 2733SOL    HW310699   1.673   1.751   3.059 -0.0435 -0.5030  1.1483
 2733SOL    MW410700   1.748   1.791   3.040 -0.2925 -0.4783  0.1695
 2734SOL     OW10701   0.110   2.784   5.703  0.0077 -0.3693  0.1072
 2734SOL    HW210702   0.035   2.842   5.691 -0.8040 -1.3722  0.1199
 2734SOL    HW310703   0.076   2.697   5.681  1.2143 -0.8268 -0.0357
 2734SOL    MW410704   0.096   2.780   5.698  0.0598 -0.5620  0.0900
 2735SOL     OW10705   3.284   2.482   5.346 -0.5040 -0.4560 -0.6152
 2735SOL    HW210706   3.354   2.428   5.309 -1.7554 -2.4706 -0.1625
 2735SOL    HW310707   3.303   2.485   5.440 -1.3242 -1.5414 -0.3954
 2735SOL    MW410708   3.296   2.476   5.353 -0.7773 -0.8650 -0.5265
 2736SOL     OW10709   0.454   5.237   2.430  0.5792  0.2190 -0.3770
 2736SOL    HW210710   0.429   5.265   2.342 -1.4580  1.2122  0.4380
 2736SOL    HW310711   0.416   5.149   2.438 -0.0505  0.4970 -0.2031
 2736SOL    MW410712   0.445   5.229   2.419  0.2273  0.3867 -0.2465
 2737SOL     OW10713   1.110   0.384   6.275 -0.1990 -0.5860 -0.4162
 2737SOL    HW210714   1.122   0.335   6.356  1.1760 -1.0303 -0.8537
 2737SOL    HW310715   1.194   0.376   6.230 -0.2375  1.4210 -0.9313
 2737SOL    MW410716   1.123   0.376   6.280 -0.0227 -0.3798 -0.5419
 2738SOL     OW10717   2.212   3.369   3.973 -0.4293 -0.4795  0.1963
 2738SOL    HW210718   2.200   3.306   3.902 -1.0739 -2.8081  2.2356
 2738SOL    HW310719   2.165   3.447   3.944 -0.8016 -1.3851 -1.8286
 2738SOL    MW410720   2.204   3.371   3.960 -0.5635 -0.9062  0.1982
 2739SOL     OW10721   2.091   4.541   5.066 -0.2058 -0.2091 -0.4438
 2739SOL    HW210722   2.091   4.507   5.155  1.8121  0.5685 -0.0968
 2739SOL    HW310723   2.091   4.636   5.077 -2.4167 -0.0502 -1.3476
 2739SOL    MW410724   2.091   4.549   5.079 -0.2312 -0.0855 -0.5172
 2740SOL     OW10725   2.434   1.089   3.962 -0.2140  0.0408  0.4430
 2740SOL    HW210726   2.494   1.045   3.902 -1.3954  2.2147 -2.6393
 2740SOL    HW310727   2.359   1.113   3.907 -1.4403  2.1882  2.8197
 2740SOL    MW410728   2.432   1.087   3.947 -0.5317  0.6109  0.3499
 2741SOL     OW10729   3.785   4.689   4.994 -0.3203  0.2565 -0.3466
 2741SOL    HW210730   3.872   4.696   5.034 -0.4015  0.6024 -0.2316
 2741SOL    HW310731   3.803   4.664   4.903 -0.1244 -0.2352 -0.1772
 2741SOL    MW410732   3.799   4.687   4.987 -0.3052  0.2373 -0.3091
 2742SOL     OW10733   0.779   1.702   6.252  0.0175 -0.6992 -0.3866
 2742SOL    HW210734   0.691   1.735   6.270 -0.2709 -0.6564 -1.7429
 2742SOL    HW310735   0.837   1.774   6.277 -0.3056 -0.7772  0.6373
 2742SOL    MW410736   0.775   1.716   6.258 -0.0632 -0.7039 -0.4304
 2743SOL     OW10737   5.207   6.329   5.149  0.7339 -0.3731  0.3534
 2743SOL    HW210738   5.263   6.270   5.198  2.8298  0.6844 -0.6150
 2743SOL    HW310739   5.227   6.416   5.184 -0.5836 -0.0023  0.2237
 2743SOL    MW410740   5.217   6.333   5.160  0.8366 -0.1846  0.2085
 2744SOL     OW10741   4.748   3.689   4.931 -0.2466 -0.0841 -0.1646
 2744SOL    HW210742   4.701   3.689   4.848 -0.5707 -1.0982 -0.0079
 2744SOL    HW310743   4.703   3.622   4.983 -1.2276  1.7891  1.5186
 2744SOL    MW410744   4.736   3.680   4.927 -0.4188  0.0292  0.0782
 2745SOL     OW10745   1.102   0.369   1.877 -0.2054  0.1886 -0.5766
 2745SOL    HW210746   1.059   0.333   1.799  0.9344 -2.1346 -0.2258
 2745SOL    HW310747   1.042   0.350   1.949 -0.8867  1.6041 -0.7437
 2745SOL    MW410748   1.089   0.362   1.876 -0.1449  0.0688 -0.5524
 2746SOL     OW10749   1.011   4.764   0.295 -0.3671 -0.3753 -0.2183
 2746SOL    HW210750   0.940   4.800   0.347 -0.9590 -0.6923 -0.7929
 2746SOL    HW310751   1.087   4.764   0.354 -0.8121  0.0617  0.3637
 2746SOL    MW410752   1.012   4.769   0.310 -0.5039 -0.3595 -0.2173
 2747SOL     OW10753   3.818   1.619   3.456 -0.3483 -0.1794  0.0158
 2747SOL    HW210754   3.846   1.628   3.547 -2.1708  0.5724  0.5537
 2747SOL    HW310755   3.895   1.641   3.404  0.0659  1.8386  1.3952
 2747SOL    MW410756   3.832   1.623   3.461 -0.5341  0.1860  0.2688
 2748SOL     OW10757   1.196   4.710   4.279 -0.5193  0.3766 -0.0548
 2748SOL    HW210758   1.184   4.691   4.186 -1.6567  1.1605 -0.1002
 2748SOL    HW310759   1.262   4.779   4.282  2.1607 -1.9985 -0.0076
 2748SOL    MW410760   1.203   4.717   4.267 -0.3157  0.1667 -0.0545
 2749SOL     OW10761   2.243   2.260   2.972  0.1796 -0.2187  0.9429
 2749SOL    HW210762   2.258   2.174   2.931  0.8020  0.4580 -0.3363
 2749SOL    HW310763   2.148   2.271   2.969  0.1236 -0.6958  0.7334
 2749SOL    MW410764   2.233   2.250   2.966  0.2543 -0.1923  0.7465
 2750SOL     OW10765   0.025   3.934   5.979  0.0067  0.1663 -0.4563
 2750SOL    HW210766   0.076   3.949   6.059 -1.0784  0.5394  0.1940
 2750SOL    HW310767   0.048   4.007   5.922  0.2950  0.2654 -0.2147
 2750SOL    MW410768   0.035   3.946   5.982 -0.0985  0.2286 -0.3386
 2751SOL     OW10769   3.873   4.882   4.618 -0.0738  0.3008  0.1321
 2751SOL    HW210770   3.872   4.792   4.651 -1.1516 -0.2048 -1.2120
 2751SOL    HW310771   3.956   4.889   4.571  0.5530  0.4060  1.2092
 2751SOL    MW410772   3.884   4.871   4.616 -0.1333  0.2480  0.0969
 2752SOL     OW10773   6.036   4.937   3.210 -0.9757 -0.5631 -0.3300
 2752SOL    HW210774   6.093   4.868   3.243 -1.1522 -0.2588  0.6436
 2752SOL    HW310775   6.042   4.930   3.114 -0.5007 -1.5079 -0.2406
 2752SOL    MW410776   6.044   4.927   3.201 -0.9363 -0.6476 -0.1897
 2753SOL     OW10777   6.346   0.134   1.849  0.5806  0.6021 -0.3676
 2753SOL    HW210778   6.361   0.143   1.943  2.0075 -1.3557 -0.3518
 2753SOL    HW310779   6.267   0.185   1.832 -1.0837 -0.8810  2.3055
 2753SOL    MW410780   6.337   0.142   1.859  0.5493  0.1481 -0.0128
 2754SOL     OW10781   2.812   2.368   2.088 -0.4899  0.5958  0.1211
 2754SOL    HW210782   2.766   2.413   2.159  0.1628  1.2815  0.1149
 2754SOL    HW310783   2.778   2.409   2.008 -1.5539 -0.4742 -0.0202
 2754SOL    MW410784   2.801   2.379   2.087 -0.5441  0.5451  0.1017
 2755SOL     OW10785   4.999   0.712   0.024 -0.1765 -0.2978  0.4793
 2755SOL    HW210786   5.065   0.658  -0.021 -1.4955 -0.4276 -1.4261
 2755SOL    HW310787   5.024   0.709   0.116  1.4921 -1.7350  0.0333
 2755SOL    MW410788   5.011   0.704   0.030 -0.1303 -0.5045  0.1691
 2756SOL     OW10789   4.403   4.516   3.558 -0.4884 -0.0179  0.3264
 2756SOL    HW210790   4.428   4.538   3.648  1.3559 -1.0067  0.1027
 2756SOL    HW310791   4.439   4.587   3.505 -0.2719 -0.2023  0.2262
 2756SOL    MW410792   4.411   4.528   3.563 -0.2165 -0.1727  0.2837
 2757SOL     OW10793   1.972   1.404   3.802 -0.2673  0.2733  0.1657
 2757SOL    HW210794   1.888   1.361   3.815  0.2307 -0.3662  1.4093
 2757SOL    HW310795   2.021   1.344   3.745 -0.4799  0.4210 -0.1744
 2757SOL    MW410796   1.968   1.390   3.796 -0.2296  0.2085  0.2849
 2758SOL     OW10797   6.244   2.870   2.110  0.3332 -0.0701  0.3691
 2758SOL    HW210798   6.299   2.792   2.106  0.8191  0.1477  1.9494
 2758SOL    HW310799   6.176   2.848   2.173  0.4493  0.7550  0.7964
 2758SOL    MW410800   6.242   2.857   2.118  0.4126  0.0675  0.6340
 2759SOL     OW10801   5.354   4.741   1.653 -0.2890  0.3150 -0.2400
 2759SOL    HW210802   5.436   4.692   1.645 -0.9624 -0.9773  0.4182
 2759SOL    HW310803   5.307   4.699   1.725 -1.1784  1.5587 -0.0495
 2759SOL    MW410804   5.358   4.729   1.661 -0.4952  0.3086 -0.1280
 2760SOL     OW10805   0.759   1.442   0.948 -0.0057 -0.2428  0.3349
 2760SOL    HW210806   0.716   1.413   0.868  2.4136 -0.0973 -1.1249
 2760SOL    HW310807   0.809   1.366   0.978  2.9414  0.9723 -1.1013
 2760SOL    MW410808   0.760   1.428   0.942  0.7023 -0.0633 -0.0472
 2761SOL     OW10809   2.942   4.238   2.563 -0.5216 -0.0460 -0.2605
 2761SOL    HW210810   2.961   4.317   2.512 -0.2360 -0.5795 -1.0081
 2761SOL    HW310811   3.028   4.209   2.595 -0.6152 -0.1063 -0.0601
 2761SOL    MW410812   2.956   4.245   2.560 -0.4962 -0.1244 -0.3327
 2762SOL     OW10813   1.517   2.386   1.421 -0.2083  0.4141 -0.1048
 2762SOL    HW210814   1.541   2.380   1.513 -0.6178  0.6803  0.0199
 2762SOL    HW310815   1.421   2.385   1.421 -0.2892 -2.6138 -0.6945
 2762SOL    MW410816   1.508   2.385   1.433 -0.2730  0.0497 -0.1662
 2763SOL     OW10817   5.533   3.587   2.937  0.1089 -0.9726 -0.1055
 2763SOL    HW210818   5.576   3.568   2.853  1.9391  2.7089 -0.2054
 2763SOL    HW310819   5.604   3.616   2.994 -1.7140  3.5208  0.3521
 2763SOL    MW410820   5.548   3.589   2.933  0.1099  0.1060 -0.0583
 2764SOL     OW10821   5.356   3.748   3.520 -0.1951  0.6960  0.0155
 2764SOL    HW210822   5.355   3.837   3.557 -1.9159  1.9177 -2.6316
 2764SOL    HW310823   5.444   3.738   3.484 -0.1344  1.5580 -0.1069
 2764SOL    MW410824   5.367   3.759   3.520 -0.4142  0.9710 -0.3499
 2765SOL     OW10825   5.621   2.153   0.860  0.4711 -0.1081 -0.2510
 2765SOL    HW210826   5.545   2.119   0.908 -0.1043 -0.1216 -1.1563
 2765SOL    HW310827   5.634   2.091   0.788 -0.5218  1.4802 -1.8688
 2765SOL    MW410828   5.613   2.140   0.857  0.2642  0.0997 -0.5839
 2766SOL     OW10829   1.461   1.842   6.248 -0.1975 -0.0328 -0.0599
 2766SOL    HW210830   1.499   1.834   6.160  1.5606  0.8800  0.5747
 2766SOL    HW310831   1.491   1.928   6.279 -1.1701 -0.1512  1.2669
 2766SOL    MW410832   1.470   1.853   6.240 -0.0939  0.0720  0.1989
 2767SOL     OW10833   4.702   1.071   4.884 -0.1891 -0.5931  0.1340
 2767SOL    HW210834   4.612   1.099   4.866 -0.2858  0.7448  2.3430
 2767SOL    HW310835   4.756   1.145   4.858 -0.1371  0.3414  2.6353
 2767SOL    MW410836   4.697   1.084   4.878 -0.1950 -0.2932  0.7555
 2768SOL     OW10837   4.203   2.816   1.623  0.0187  0.1662 -0.4424
 2768SOL    HW210838   4.283   2.772   1.651 -0.5789  0.9274  2.9081
 2768SOL    HW310839   4.172   2.765   1.548  1.5314 -2.5477  0.6464
 2768SOL    MW410840   4.209   2.803   1.617  0.1395 -0.0915  0.1433
 2769SOL     OW10841   0.227   3.023   0.850 -0.5051  0.6161 -0.1705
 2769SOL    HW210842   0.277   2.964   0.907  0.2301 -0.9522 -2.3339
 2769SOL    HW310843   0.257   3.111   0.874  0.1497 -0.0171  1.4779
 2769SOL    MW410844   0.237   3.027   0.861 -0.3217  0.3256 -0.2384
 2770SOL     OW10845   3.983   3.801   0.967 -0.2245 -0.1493  0.0589
 2770SOL    HW210846   4.041   3.751   0.909  0.6995  0.3965  0.4898
 2770SOL    HW310847   3.958   3.878   0.916  1.1940  0.7136  0.6215
 2770SOL    MW410848   3.987   3.804   0.953  0.0846  0.0366  0.1900
 2771SOL     OW10849   0.164   3.184   3.752 -0.4970  0.1390 -0.7288
 2771SOL    HW210850   0.084   3.207   3.705 -0.1318  1.1164 -0.8834
 2771SOL    HW310851   0.156   3.090   3.766 -1.7227  0.2242 -0.6583
 2771SOL    MW410852   0.152   3.175   3.748 -0.6105  0.2792 -0.7399
 2772SOL     OW10853   5.517   6.379   0.525  0.2362 -0.6622  0.1441
 2772SOL    HW210854   5.597   6.421   0.492 -0.1860  0.5746  0.6451
 2772SOL    HW310855   5.548   6.302   0.573  1.0855 -0.4835 -0.1061
 2772SOL    MW410856   5.532   6.374   0.527  0.2926 -0.4754  0.1772
 2773SOL     OW10857   6.010   0.162   3.023  0.2523 -0.2936 -0.3081
 2773SOL    HW210858   5.984   0.119   3.105 -0.3042  0.4942 -0.0644
 2773SOL    HW310859   5.932   0.208   2.994  0.7336  0.2449 -0.7648
 2773SOL    MW410860   5.997   0.163   3.030  0.2424 -0.1186 -0.3362
 2774SOL     OW10861   0.838   1.585   1.772  0.1814 -0.4066 -0.2599
 2774SOL    HW210862   0.749   1.609   1.744 -0.1223 -1.1605  0.0288
 2774SOL    HW310863   0.861   1.510   1.718  0.3915 -0.6089  0.1087
 2774SOL    MW410864   0.829   1.578   1.761  0.1691 -0.5327 -0.1732
 2775SOL     OW10865   5.330   5.207   6.256  0.4249  0.0098 -0.0562
 2775SOL    HW210866   5.287   5.253   6.184 -0.6789 -1.1735 -0.1898
 2775SOL    HW310867   5.299   5.116   6.249  0.3211 -0.1556  1.8753
 2775SOL    MW410868   5.320   5.201   6.246  0.2655 -0.1682  0.1810
 2776SOL     OW10869   6.044   1.532   4.805 -0.7350  0.5693  0.4231
 2776SOL    HW210870   5.950   1.539   4.790 -1.1981  0.5100  2.8963
 2776SOL    HW310871   6.052   1.471   4.878  1.2292  0.7015  0.3763
 2776SOL    MW410872   6.033   1.525   4.813 -0.5369  0.5789  0.7432
 2777SOL     OW10873   5.042   5.681   4.036  0.2504 -0.1539 -0.6974
 2777SOL    HW210874   4.978   5.714   4.099 -0.6390 -1.4086 -0.9007
 2777SOL    HW310875   4.999   5.692   3.951  0.2659 -1.0781 -0.8314
 2777SOL    MW410876   5.028   5.687   4.033  0.1351 -0.4414 -0.7419
 2778SOL     OW10877   2.675   5.186   4.028  0.3452 -0.0862 -0.2566
 2778SOL    HW210878   2.641   5.107   4.070  1.0751 -0.0003  0.5421
 2778SOL    HW310879   2.770   5.173   4.027  0.4795  0.8054 -0.0320
 2778SOL    MW410880   2.683   5.174   4.033  0.4592  0.0428 -0.1216
 2779SOL     OW10881   5.645   3.847   2.631  0.1476 -0.6278  0.4294
 2779SOL    HW210882   5.597   3.874   2.709 -0.4661 -1.8511  0.4864
 2779SOL    HW310883   5.659   3.753   2.642  2.2081 -0.3838  0.2104
 2779SOL    MW410884   5.640   3.838   2.643  0.3385 -0.7570  0.4080
 2780SOL     OW10885   4.044   2.096   2.663 -0.2793  0.0263 -0.1190
 2780SOL    HW210886   4.008   2.167   2.715 -0.9439 -1.2729  1.2813
 2780SOL    HW310887   4.119   2.064   2.715  1.0826  0.7627 -1.5452
 2780SOL    MW410888   4.049   2.101   2.677 -0.1873 -0.0480 -0.1224
 2781SOL     OW10889   0.102   5.661   0.185 -0.1503  0.4383  0.0507
 2781SOL    HW210890   0.025   5.606   0.172 -1.0747  1.4584  0.9432
 2781SOL    HW310891   0.156   5.645   0.108 -0.6357 -1.2812  0.0222
 2781SOL    MW410892   0.099   5.652   0.173 -0.3363  0.3460  0.1647
 2782SOL     OW10893   5.707   3.645   2.335 -0.4704 -0.2295 -0.2475
 2782SOL    HW210894   5.779   3.683   2.285 -0.7848 -1.1172 -1.4128
 2782SOL    HW310895   5.639   3.713   2.334 -0.2941 -0.0545 -0.6406
 2782SOL    MW410896   5.707   3.659   2.328 -0.4886 -0.3236 -0.4531
 2783SOL     OW10897   2.928   3.582   2.616 -0.1076 -0.0718  0.1095
 2783SOL    HW210898   2.861   3.545   2.559  0.4058 -0.4525 -0.2531
 2783SOL    HW310899   2.940   3.516   2.684  0.1578 -0.1628 -0.0268
 2783SOL    MW410900   2.921   3.568   2.617 -0.0049 -0.1340  0.0437
 2784SOL     OW10901   1.321   5.802   3.276  0.0073  0.0046  0.3072
 2784SOL    HW210902   1.391   5.799   3.211  0.0161  0.1371  0.3111
 2784SOL    HW310903   1.270   5.880   3.254 -1.0094 -0.8823 -0.5844
 2784SOL    MW410904   1.324   5.812   3.265 -0.1257 -0.0949  0.1901
 2785SOL     OW10905   5.335   0.136   5.249 -0.7108  0.5830  0.0828
 2785SOL    HW210906   5.296   0.213   5.207 -2.5258  0.4346  1.3602
 2785SOL    HW310907   5.303   0.140   5.339 -1.1278 -1.8291  0.1093
 2785SOL    MW410908   5.326   0.147   5.255 -1.0053  0.2452  0.2549
 2786SOL     OW10909   4.226   3.101   1.629  0.7621 -0.2294  0.0915
 2786SOL    HW210910   4.204   3.008   1.637 -0.2545 -0.1375 -1.2242
 2786SOL    HW310911   4.227   3.117   1.535 -0.5916  1.4103  0.2985
 2786SOL    MW410912   4.223   3.091   1.617  0.4493 -0.0009 -0.0548
 2787SOL     OW10913   0.725   4.853   5.681  0.1256 -0.3033 -0.1278
 2787SOL    HW210914   0.776   4.899   5.614 -1.5737 -0.1643 -1.4149
 2787SOL    HW310915   0.666   4.797   5.631 -0.4321 -1.0553  1.3160
 2787SOL    MW410916   0.724   4.852   5.665 -0.1722 -0.3842 -0.1071
 2788SOL     OW10917   1.335   6.324   4.197  0.3998 -0.0069  0.1153
 2788SOL    HW210918   1.363   6.251   4.252 -0.9543 -1.2165 -0.7125
 2788SOL    HW310919   1.360   6.403   4.246  3.5407 -0.9459  0.2052
 2788SOL    MW410920   1.342   6.325   4.211  0.6355 -0.2904  0.0180
 2789SOL     OW10921   2.279   0.787   5.494  0.2905  0.1371 -0.2238
 2789SOL    HW210922   2.207   0.725   5.498 -1.2741  1.5854 -3.0258
 2789SOL    HW310923   2.351   0.738   5.455  0.3827 -0.8932  1.1662
 2789SOL    MW410924   2.279   0.772   5.490  0.0962  0.1923 -0.4101
 2790SOL     OW10925   4.469   1.226   0.215  0.5080  0.0294  0.2425
 2790SOL    HW210926   4.546   1.177   0.188  0.3372 -0.4776  0.6513
 2790SOL    HW310927   4.422   1.166   0.274  0.6417  0.9308  1.2950
 2790SOL    MW410928   4.473   1.212   0.219  0.5031  0.0814  0.4353
 2791SOL     OW10929   5.283   5.625   2.825  0.0251  0.4428  0.2305
 2791SOL    HW210930   5.283   5.684   2.749  0.3766  0.7626  0.4797
 2791SOL    HW310931   5.237   5.547   2.793  1.3333  0.0304 -0.7379
 2791SOL    MW410932   5.277   5.623   2.810  0.2440  0.4306  0.1356
 2792SOL     OW10933   5.591   5.612   1.770 -0.0651  0.7437 -0.3750
 2792SOL    HW210934   5.495   5.604   1.767  0.0091 -0.2322 -0.4000
 2792SOL    HW310935   5.606   5.693   1.818 -0.9195  1.6858 -1.6408
 2792SOL    MW410936   5.580   5.622   1.776 -0.1681  0.7392 -0.5453
 2793SOL     OW10937   2.092   0.140   5.136 -0.0713  0.1456  0.0839
 2793SOL    HW210938   2.097   0.235   5.150  0.4942 -0.1073  1.8057
 2793SOL    HW310939   2.036   0.108   5.206  0.1679 -0.8664 -0.1688
 2793SOL    MW410940   2.086   0.149   5.147  0.0349 -0.0213  0.2777
 2794SOL     OW10941   0.650   3.795   4.898  0.0932 -0.4855  0.4455
 2794SOL    HW210942   0.608   3.880   4.905 -2.2419 -1.6408  1.5391
 2794SOL    HW310943   0.720   3.797   4.964  1.1737  1.1051 -0.6759
 2794SOL    MW410944   0.654   3.806   4.908 -0.0723 -0.4281  0.4419
 2795SOL     OW10945   3.337   0.564   3.204 -0.2714 -0.3885  0.3859
 2795SOL    HW210946   3.283   0.582   3.127 -0.8424 -2.2169  0.3127
 2795SOL    HW310947   3.426   0.588   3.178 -0.7438  0.9126 -0.1243
 2795SOL    MW410948   3.341   0.570   3.190 -0.4091 -0.4581  0.3089
 2796SOL     OW10949   2.580   5.464   4.959  0.4711 -0.2097  0.4674
 2796SOL    HW210950   2.639   5.478   5.033  2.8160 -0.7420 -1.1660
 2796SOL    HW310951   2.502   5.425   4.997  0.0586  2.7366  3.1007
 2796SOL    MW410952   2.577   5.461   4.974  0.7261  0.1088  0.5993
 2797SOL     OW10953   0.358   4.967   2.403 -0.2029  0.3990  0.1861
 2797SOL    HW210954   0.380   4.934   2.490  0.5572 -0.3171 -0.2586
 2797SOL    HW310955   0.296   4.902   2.368 -1.9867  1.6609  0.8843
 2797SOL    MW410956   0.353   4.954   2.410 -0.3380  0.4710  0.2196
 2798SOL     OW10957   4.189   5.470   3.407  0.1873 -0.6474 -0.3867
 2798SOL    HW210958   4.176   5.436   3.496  0.2472  0.5659  0.1020
 2798SOL    HW310959   4.266   5.527   3.414  0.4236 -0.8401 -1.3056
 2798SOL    MW410960   4.197   5.473   3.420  0.2264 -0.5127 -0.4434
 2799SOL     OW10961   3.337   0.830   3.818 -0.2364  0.1898  0.1229
 2799SOL    HW210962   3.298   0.761   3.872  1.6580 -0.8361  0.2523
 2799SOL    HW310963   3.382   0.783   3.747  1.3471  1.2491  0.3624
 2799SOL    MW410964   3.338   0.815   3.816  0.2224  0.1942  0.1716
 2800SOL     OW10965   6.284   0.143   2.387  0.3665 -0.3917 -0.2313
 2800SOL    HW210966   6.378   0.127   2.376  0.2789 -0.4767 -0.9226
 2800SOL    HW310967   6.243   0.062   2.356  0.0083  0.2144 -1.4111
 2800SOL    MW410968   6.291   0.130   2.381  0.3077 -0.3229 -0.4782
 2801SOL     OW10969   2.236   2.193   3.349  0.5741 -0.7169 -0.3694
 2801SOL    HW210970   2.225   2.216   3.442  0.2091 -2.0834 -0.0450
 2801SOL    HW310971   2.230   2.276   3.303 -0.1063 -0.1016  0.7658
 2801SOL    MW410972   2.233   2.207   3.355  0.4361 -0.8160 -0.1768
 2802SOL     OW10973   5.121   6.244   6.113  0.0628  0.5077 -0.3063
 2802SOL    HW210974   5.169   6.307   6.168  1.5164 -1.2915  0.6048
 2802SOL    HW310975   5.073   6.190   6.176 -1.7682  1.0841 -1.1179
 2802SOL    MW410976   5.121   6.246   6.129  0.0130  0.3464 -0.2932
 2803SOL     OW10977   0.227   4.154   5.106 -0.2478 -0.7692 -0.0988
 2803SOL    HW210978   0.263   4.068   5.128  0.4639 -0.2755  0.7381
 2803SOL    HW310979   0.228   4.157   5.010 -1.6150 -2.2270 -0.1970
 2803SOL    MW410980   0.232   4.143   5.096 -0.3342 -0.8964 -0.0013
 2804SOL     OW10981   3.608   0.187   5.405  0.2741 -0.3665 -0.0731
 2804SOL    HW210982   3.701   0.168   5.389 -0.3566 -2.1766 -2.0060
 2804SOL    HW310983   3.599   0.280   5.387  1.8445  0.0384  1.0025
 2804SOL    MW410984   3.619   0.197   5.401  0.3981 -0.5519 -0.1862
 2805SOL     OW10985   2.566   4.422   1.109  0.5518 -0.4089  0.1638
 2805SOL    HW210986   2.611   4.499   1.144 -1.5640  1.3895 -0.8125
 2805SOL    HW310987   2.527   4.379   1.185 -0.4831  1.0510  0.4845
 2805SOL    MW410988   2.567   4.426   1.124  0.1361  0.0210  0.0773
 2806SOL     OW10989   2.728   4.804   1.021  0.2415 -0.3930 -0.8450
 2806SOL    HW210990   2.651   4.812   0.965 -0.4658 -1.6260 -0.1018
 2806SOL    HW310991   2.799   4.778   0.962 -0.1452 -0.2093 -1.3889
 2806SOL    MW410992   2.727   4.802   1.006  0.0971 -0.5315 -0.8187
 2807SOL     OW10993   1.435   1.043   3.035 -0.1968  0.5736 -0.3100
 2807SOL    HW210994   1.347   1.038   3.073  0.3482 -0.8715  0.8445
 2807SOL    HW310995   1.480   1.109   3.088  0.1022 -0.3619  0.6345
 2807SOL    MW410996   1.429   1.051   3.047 -0.0854  0.2595 -0.0331
 2808SOL     OW10997   2.118   1.974   5.946 -0.1288 -0.0721  0.1091
 2808SOL    HW210998   2.106   1.975   6.041 -2.3908  0.0808 -0.1119
 2808SOL    HW310999   2.039   1.932   5.912  0.8160 -0.4962 -1.6956
 2808SOL    MW411000   2.106   1.969   5.954 -0.3026 -0.1079 -0.1582
 2809SOL     OW11001   1.937   3.755   2.501 -0.5431 -0.0438 -0.0147
 2809SOL    HW211002   1.949   3.783   2.410  1.2818 -2.8934 -0.7774
 2809SOL    HW311003   1.847   3.722   2.504 -0.7846  0.5241 -0.6287
 2809SOL    MW411004   1.926   3.755   2.490 -0.3342 -0.3448 -0.1963
 2810SOL     OW11005   3.041   3.966   2.429 -0.0692  0.0828 -0.4616
 2810SOL    HW211006   3.044   4.049   2.381  1.2194  0.8879  0.9152
 2810SOL    HW311007   2.956   3.966   2.472 -0.2318  0.5097 -0.7728
 2810SOL    MW411008   3.030   3.977   2.428  0.0794  0.2454 -0.3210
 2811SOL     OW11009   1.634   0.383   1.498  0.7569  0.2385  0.0569
 2811SOL    HW211010   1.644   0.322   1.425  2.3937 -0.3080  0.6963
 2811SOL    HW311011   1.683   0.461   1.471 -0.8922  1.1199 -0.5336
 2811SOL    MW411012   1.642   0.385   1.485  0.7553  0.2827  0.0633
 2812SOL     OW11013   4.463   4.679   5.008 -0.2073  0.0795  0.5405
 2812SOL    HW211014   4.371   4.652   4.999  0.3441 -1.4145 -1.2776
 2812SOL    HW311015   4.492   4.637   5.089 -0.7579 -0.6194  0.3844
 2812SOL    MW411016   4.454   4.670   5.018 -0.2072 -0.2098  0.2800
 2813SOL     OW11017   4.111   2.443   6.091  0.0832  0.2157  0.1385
 2813SOL    HW211018   4.141   2.516   6.145  1.3824 -1.5156  1.9307
 2813SOL    HW311019   4.179   2.433   6.024  0.4430  0.0210  0.5292
 2813SOL    MW411020   4.124   2.451   6.089  0.3021 -0.0384  0.4265
 2814SOL     OW11021   1.478   5.967   0.766 -0.5567  0.0833  0.3406
 2814SOL    HW211022   1.429   5.885   0.764 -1.0462  0.3444  1.1419
 2814SOL    HW311023   1.426   6.025   0.823 -0.5515  1.1582 -0.7112
 2814SOL    MW411024   1.465   5.964   0.774 -0.6206  0.2596  0.3075
 2815SOL     OW11025   4.053   5.167   0.128  0.1120  0.3905  0.7098
 2815SOL    HW211026   4.102   5.086   0.132 -1.2009 -0.5938 -1.5639
 2815SOL    HW311027   3.969   5.146   0.168 -0.3085  0.5422 -0.0724
 2815SOL    MW411028   4.048   5.154   0.134 -0.1167  0.2807  0.3066
 2816SOL     OW11029   5.736   3.120   3.289 -0.2601 -0.4859  0.2299
 2816SOL    HW211030   5.766   3.190   3.347  0.4032 -0.4585 -0.1309
 2816SOL    HW311031   5.723   3.163   3.204 -2.4358 -0.2581  0.6153
 2816SOL    MW411032   5.738   3.135   3.285 -0.4597 -0.4522  0.2332
 2817SOL     OW11033   2.959   1.425   6.258 -0.3313  0.2564 -0.0509
 2817SOL    HW211034   2.875   1.467   6.275 -0.3216  0.2895 -0.0837
 2817SOL    HW311035   2.937   1.347   6.207 -0.1113  1.8567 -2.7822
 2817SOL    MW411036   2.945   1.420   6.254 -0.3010  0.4719 -0.4156
 2818SOL     OW11037   3.640   5.102   2.547  0.5081  0.1408  0.2522
 2818SOL    HW211038   3.630   5.075   2.456  0.9275  0.1066  0.2150
 2818SOL    HW311039   3.565   5.062   2.592  0.8943 -0.7566  0.1255
 2818SOL    MW411040   3.629   5.093   2.541  0.6144  0.0179  0.2306
 2819SOL     OW11041   1.542   6.105   2.996  0.4725 -0.0598  0.2964
 2819SOL    HW211042   1.537   6.015   3.029 -0.2736  0.4739  1.7443
 2819SOL    HW311043   1.477   6.108   2.926 -0.0542 -0.4614  0.7551
 2819SOL    MW411044   1.533   6.094   2.991  0.3046 -0.0424  0.5480
 2820SOL     OW11045   2.345   1.082   3.022 -0.5920  0.1375 -0.0758
 2820SOL    HW211046   2.258   1.107   2.990 -0.6706  0.2478  0.2126
 2820SOL    HW311047   2.405   1.109   2.953 -0.4231  3.2168  1.1109
 2820SOL    MW411048   2.341   1.089   3.009 -0.5801  0.5583  0.1188
 2821SOL     OW11049   5.524   5.705   4.782  0.2299 -0.9106 -0.0281
 2821SOL    HW211050   5.560   5.716   4.870  1.4116 -0.6794 -0.5164
 2821SOL    HW311051   5.496   5.614   4.779 -0.3253 -0.7728  0.7616
 2821SOL    MW411052   5.525   5.694   4.793  0.3126 -0.8619  0.0117
 2822SOL     OW11053   4.650   2.775   0.483 -0.1496 -0.2409  0.2164
 2822SOL    HW211054   4.709   2.703   0.462 -0.2505  0.1246 -1.4262
 2822SOL    HW311055   4.655   2.783   0.579  1.1239 -1.3306  0.2658
 2822SOL    MW411056   4.659   2.767   0.493  0.0052 -0.3364  0.0062
 2823SOL     OW11057   0.711   3.129   0.544 -0.2971  0.4302 -0.1487
 2823SOL    HW211058   0.661   3.173   0.613 -0.8391  0.6660 -0.6814
 2823SOL    HW311059   0.724   3.040   0.577 -2.4425 -0.1273 -0.6326
 2823SOL    MW411060   0.706   3.123   0.557 -0.6517  0.3878 -0.2828
 2824SOL     OW11061   5.570   1.861   3.196  0.0573 -0.1308 -0.4955
 2824SOL    HW211062   5.589   1.770   3.218  0.3188 -0.3578 -1.5956
 2824SOL    HW311063   5.621   1.877   3.117 -1.3590  0.4222 -1.3264
 2824SOL    MW411064   5.579   1.851   3.189 -0.0950 -0.0878 -0.7503
 2825SOL     OW11065   2.588   6.018   0.965 -0.0223  0.3108 -0.1796
 2825SOL    HW211066   2.582   5.978   0.878  2.7963 -2.1258  0.5889
 2825SOL    HW311067   2.512   5.984   1.012 -1.2266  1.1429 -1.4350
 2825SOL    MW411068   2.577   6.008   0.960  0.1907  0.0991 -0.2438
 2826SOL     OW11069   4.038   1.131   4.397  0.2418  0.0066  0.1084
 2826SOL    HW211070   4.034   1.072   4.472  2.8038  0.4695  0.7091
 2826SOL    HW311071   4.097   1.201   4.425 -0.0934  1.1124 -1.7549
 2826SOL    MW411072   4.045   1.133   4.411  0.5356  0.2136 -0.0582
 2827SOL     OW11073   5.327   2.846   1.673 -0.3715 -0.2194 -0.1776
 2827SOL    HW211074   5.410   2.820   1.712 -0.8607 -1.1238  0.3138
 2827SOL    HW311075   5.343   2.845   1.578  0.4000  0.4473 -0.0519
 2827SOL    MW411076   5.340   2.842   1.665 -0.3342 -0.2507 -0.0962
 2828SOL     OW11077   6.353   3.540   5.792 -0.2145  0.2466 -0.7184
 2828SOL    HW211078   6.314   3.627   5.802 -0.0970  0.3197 -0.8983
 2828SOL    HW311079   6.374   3.534   5.699 -2.5543 -0.9500 -1.2498
 2828SOL    MW411080   6.350   3.551   5.781 -0.5077  0.0984 -0.8123
 2829SOL     OW11081   5.561   3.875   2.021  0.1282 -0.4277  0.2940
 2829SOL    HW211082   5.483   3.840   2.064 -0.6298 -0.2539 -0.8863
 2829SOL    HW311083   5.610   3.917   2.091 -1.2199  0.1392  0.9361
 2829SOL    MW411084   5.557   3.876   2.036 -0.1497 -0.3300  0.2230
 2830SOL     OW11085   2.059   1.982   3.210  0.2533 -0.0765 -0.0558
 2830SOL    HW211086   2.117   2.055   3.228 -0.2041 -0.0921  1.6898
 2830SOL    HW311087   2.117   1.912   3.178  1.1670  0.0268  1.2879
 2830SOL    MW411088   2.074   1.982   3.208  0.3135 -0.0649  0.3518
 2831SOL     OW11089   1.259   5.404   3.696  0.5070  0.1465 -0.0413
 2831SOL    HW211090   1.251   5.311   3.676 -0.4066  0.0760  0.5745
 2831SOL    HW311091   1.351   5.425   3.681  0.5645 -0.6860 -0.8924
 2831SOL    MW411092   1.270   5.395   3.692  0.3940  0.0274 -0.0723
 2832SOL     OW11093   5.264   5.032   0.895 -0.1901 -0.0578  0.8388
 2832SOL    HW211094   5.300   4.943   0.902  0.9953  0.4396  1.4247
 2832SOL    HW311095   5.340   5.089   0.911 -0.3601  1.0939 -1.9013
 2832SOL    MW411096   5.279   5.028   0.898 -0.0561  0.1598  0.5546
 2833SOL     OW11097   3.197   0.838   2.765 -0.7379 -0.1052 -0.0623
 2833SOL    HW211098   3.208   0.743   2.766 -2.0515 -0.2773 -0.8803
 2833SOL    HW311099   3.207   0.863   2.673 -1.0666  0.4646  0.0520
 2833SOL    MW411100   3.200   0.829   2.753 -0.9546 -0.0527 -0.1551
 2834SOL     OW11101   0.508   4.180   1.979  0.5023  0.0098  0.2802
 2834SOL    HW211102   0.505   4.253   2.041 -2.9825  0.5849 -0.3814
 2834SOL    HW311103   0.473   4.215   1.898 -1.0974 -2.2871 -0.1296
 2834SOL    MW411104   0.503   4.194   1.977 -0.1685 -0.2174  0.1388
 2835SOL     OW11105   1.421   2.753   0.336 -0.6681  0.4305  0.4401
 2835SOL    HW211106   1.423   2.724   0.427 -1.9619  1.4039  0.8230
 2835SOL    HW311107   1.511   2.776   0.316 -0.2364 -0.5118  1.2293
 2835SOL    MW411108   1.433   2.752   0.346 -0.7819  0.4346  0.5948
 2836SOL     OW11109   1.991   0.990   5.712  0.0304 -0.6614  0.0554
 2836SOL    HW211110   2.050   1.047   5.663 -0.0034 -1.5090 -1.0143
 2836SOL    HW311111   1.945   1.048   5.772 -0.0828  0.4681 -1.0843
 2836SOL    MW411112   1.992   1.005   5.713  0.0110 -0.6242 -0.2361
 2837SOL     OW11113   5.862   6.333   0.260  0.0638  0.0041  0.3167
 2837SOL    HW211114   5.945   6.287   0.269  0.3381  0.2390 -0.9454
 2837SOL    HW311115   5.836   6.319   0.169 -2.3625 -1.8824  1.1803
 2837SOL    MW411116   5.869   6.325   0.249 -0.2202 -0.2138  0.2642
 2838SOL     OW11117   5.823   5.314   3.101  0.3396 -0.1115  0.2491
 2838SOL    HW211118   5.899   5.287   3.152  0.1233  0.9035  1.1702
 2838SOL    HW311119   5.813   5.407   3.122  0.3360  0.3868 -1.7966
 2838SOL    MW411120   5.831   5.323   3.111  0.3106  0.0881  0.1008
 2839SOL     OW11121   1.617   3.068   5.402 -0.7763  0.0918  0.1531
 2839SOL    HW211122   1.601   3.118   5.322 -1.1408 -1.3033 -0.6848
 2839SOL    HW311123   1.709   3.084   5.422 -0.8945  1.1032 -0.0689
 2839SOL    MW411124   1.627   3.077   5.394 -0.8400  0.0412  0.0133
 2840SOL     OW11125   1.236   0.084   3.705 -0.0814  0.4430 -0.2426
 2840SOL    HW211126   1.178   0.135   3.649  0.1468 -0.2776 -1.1749
 2840SOL    HW311127   1.179   0.022   3.750 -0.0930 -0.0006 -0.8582
 2840SOL    MW411128   1.221   0.082   3.704 -0.0528  0.2894 -0.4468
 2841SOL     OW11129   0.513   1.403   2.112 -0.6868  0.0871 -0.0626
 2841SOL    HW211130   0.595   1.366   2.147  0.1528  0.3019 -1.7165
 2841SOL    HW311131   0.539   1.488   2.076 -1.3642 -0.3606 -1.7039
 2841SOL    MW411132   0.527   1.409   2.112 -0.6654  0.0563 -0.4974
 2842SOL     OW11133   2.285   5.656   1.627 -0.0908 -0.2570  0.5147
 2842SOL    HW211134   2.286   5.751   1.618 -0.7563 -0.0620  2.1366
 2842SOL    HW311135   2.378   5.631   1.628  0.1125  0.4824  0.9232
 2842SOL    MW411136   2.298   5.665   1.626 -0.1518 -0.1337  0.7826
 2843SOL     OW11137   2.474   0.040   2.365 -0.5939 -0.3677  0.1992
 2843SOL    HW211138   2.568   0.052   2.352 -0.9602  0.3108 -2.3222
 2843SOL    HW311139   2.463   0.035   2.460  2.0962 -1.6450  0.5186
 2843SOL    MW411140   2.485   0.041   2.376 -0.2873 -0.4467 -0.0913
 2844SOL     OW11141   5.077   0.466   3.479  0.3736  0.2231  0.8672
 2844SOL    HW211142   5.007   0.520   3.516 -0.5311 -1.0958  1.1343
 2844SOL    HW311143   5.075   0.485   3.385 -0.0686  0.5065  0.9314
 2844SOL    MW411144   5.067   0.476   3.471  0.1959  0.0865  0.9109
 2845SOL     OW11145   4.442   1.298   6.379 -0.4217 -0.1490  0.1318
 2845SOL    HW211146   4.449   1.291   6.474  1.3896 -1.5334 -0.0429
 2845SOL    HW311147   4.420   1.209   6.350 -1.4769  0.3695 -0.7291
 2845SOL    MW411148   4.440   1.285   6.388 -0.3219 -0.2633 -0.0048
 2846SOL     OW11149   1.414   2.416   3.313  0.2598  0.3287 -0.4258
 2846SOL    HW211150   1.355   2.491   3.318  0.2521  0.2901  0.0348
 2846SOL    HW311151   1.367   2.345   3.355  0.0703 -0.0674 -1.2869
 2846SOL    MW411152   1.400   2.417   3.319  0.2337  0.2713 -0.4786
 2847SOL     OW11153   4.156   1.554   1.623  0.6742 -0.0762  0.3820
 2847SOL    HW211154   4.170   1.491   1.553 -0.0541 -1.2091  1.2280
 2847SOL    HW311155   4.202   1.633   1.594  1.0852 -0.7885 -0.9721
 2847SOL    MW411156   4.164   1.556   1.610  0.6324 -0.3197  0.3150
 2848SOL     OW11157   1.812   0.331   0.137  0.3017 -0.4344 -0.3316
 2848SOL    HW211158   1.849   0.243   0.132  1.0995 -0.1410  0.3628
 2848SOL    HW311159   1.788   0.343   0.229  2.8385  1.1088  0.2216
 2848SOL    MW411160   1.813   0.321   0.148  0.7416 -0.1921 -0.1670
 2849SOL     OW11161   4.515   4.246   4.525 -0.2351 -0.0643  0.9120
 2849SOL    HW211162   4.536   4.338   4.509  0.0488 -0.2797 -0.0500
 2849SOL    HW311163   4.580   4.197   4.474 -1.8887 -0.7556 -0.6742
 2849SOL    MW411164   4.526   4.252   4.516 -0.4158 -0.1840  0.5758
 2850SOL     OW11165   3.347   5.064   5.300 -0.3585  0.5151 -0.8503
 2850SOL    HW211166   3.361   5.128   5.369 -0.0957 -0.3481 -0.0771
 2850SOL    HW311167   3.392   5.099   5.224 -0.3882  1.3318 -0.5005
 2850SOL    MW411168   3.355   5.077   5.299 -0.3278  0.5089 -0.7021
 2851SOL     OW11169   0.604   5.107   1.839 -0.4418 -0.1389  0.0327
 2851SOL    HW211170   0.608   5.144   1.751  0.7122  0.7766  0.4388
 2851SOL    HW311171   0.615   5.013   1.826 -1.0029 -0.0993 -0.8432
 2851SOL    MW411172   0.606   5.100   1.826 -0.3635 -0.0128 -0.0293
 2852SOL     OW11173   2.634   3.310   5.871 -0.1743  0.1854 -0.3148
 2852SOL    HW211174   2.706   3.372   5.859 -2.1896  2.9339  0.7128
 2852SOL    HW311175   2.623   3.269   5.786  1.9827  0.3581 -0.7290
 2852SOL    MW411176   2.642   3.313   5.858 -0.1556  0.5709 -0.2339
 2853SOL     OW11177   1.463   1.983   2.006  0.3815  0.4202  0.3963
 2853SOL    HW211178   1.524   1.913   1.982  0.2681  0.1276  0.9372
 2853SOL    HW311179   1.514   2.041   2.063  0.8745  1.5229 -1.0988
 2853SOL    MW411180   1.478   1.981   2.011  0.4316  0.5271  0.2704
 2854SOL     OW11181   1.832   0.526   2.708  0.3597 -0.6142  0.4539
 2854SOL    HW211182   1.841   0.495   2.618 -0.2764  0.9787 -0.2070
 2854SOL    HW311183   1.798   0.615   2.699  0.4330 -0.3611  2.2769
 2854SOL    MW411184   1.828   0.534   2.695  0.2854 -0.3706  0.6072
 2855SOL     OW11185   2.652   1.187   5.337 -0.3485  0.1404 -0.2960
 2855SOL    HW211186   2.595   1.116   5.309 -1.5930  1.1163 -0.3437
 2855SOL    HW311187   2.737   1.167   5.299 -0.7656 -1.1283 -0.5938
 2855SOL    MW411188   2.655   1.175   5.328 -0.5677  0.1018 -0.3416
 2856SOL     OW11189   3.513   3.449   3.214 -0.4310  0.1176 -0.1565
 2856SOL    HW211190   3.497   3.445   3.120  0.4294  1.1924 -0.3674
 2856SOL    HW311191   3.466   3.374   3.249 -0.5028 -0.4913 -1.4828
 2856SOL    MW411192   3.505   3.438   3.206 -0.3270  0.1791 -0.3594
 2857SOL     OW11193   1.380   3.215   2.254  0.3150  0.2410 -0.7342
 2857SOL    HW211194   1.383   3.212   2.158 -1.6532  0.6583 -0.8361
 2857SOL    HW311195   1.438   3.288   2.277 -1.9513  2.5308 -1.8515
 2857SOL    MW411196   1.388   3.224   2.244 -0.2437  0.5982 -0.8951
 2858SOL     OW11197   3.453   5.075   1.506 -0.0046  0.4848  0.2491
 2858SOL    HW211198   3.532   5.063   1.452 -0.4550 -0.5104 -0.2114
 2858SOL    HW311199   3.399   5.135   1.455 -1.0703 -1.5680 -1.1925
 2858SOL    MW411200   3.456   5.081   1.492 -0.2047  0.0827 -0.0019
 2859SOL     OW11201   5.702   0.149   0.415  0.5477  0.5774  0.3107
 2859SOL    HW211202   5.694   0.142   0.319  1.5173  1.6613  0.1338
 2859SOL    HW311203   5.645   0.222   0.438  0.1924  0.2185  0.6023
 2859SOL    MW411204   5.693   0.157   0.405  0.6287  0.6730  0.3258
 2860SOL     OW11205   4.137   4.037   5.123 -0.1818  0.1529 -0.0304
 2860SOL    HW211206   4.212   4.058   5.180 -0.3966 -0.9390  0.6759
 2860SOL    HW311207   4.105   4.123   5.095 -0.7866  0.8359  2.4582
 2860SOL    MW411208   4.143   4.051   5.127 -0.2899  0.0989  0.3911
 2861SOL     OW11209   2.960   2.968   5.463 -0.3269 -0.0960 -0.0952
 2861SOL    HW211210   2.961   3.060   5.433  0.8527 -0.1356 -0.2019
 2861SOL    HW311211   2.906   2.970   5.542  0.0190  0.7677  0.1370
 2861SOL    MW411212   2.953   2.981   5.469 -0.1256  0.0127 -0.0787
 2862SOL     OW11213   0.479   3.591   5.013 -0.2245 -0.0334  0.0768
 2862SOL    HW211214   0.498   3.508   4.969 -0.4001  0.2474 -0.5392
 2862SOL    HW311215   0.524   3.657   4.961  1.1317  0.1180  1.4001
 2862SOL    MW411216   0.487   3.589   5.000 -0.0687  0.0236  0.1701
 2863SOL     OW11217   4.701   4.457   5.559  0.2426 -0.1620 -0.3053
 2863SOL    HW211218   4.606   4.454   5.574  0.4782 -1.9851  1.1003
 2863SOL    HW311219   4.730   4.534   5.609 -0.4501  0.3259 -0.6295
 2863SOL    MW411220   4.692   4.467   5.568  0.1823 -0.3381 -0.1626
 2864SOL     OW11221   5.767   2.583   1.608 -0.1551  0.5120 -0.1808
 2864SOL    HW211222   5.859   2.612   1.606 -0.0111  0.2815  1.7376
 2864SOL    HW311223   5.720   2.656   1.647 -0.1644 -0.7440  2.3660
 2864SOL    MW411224   5.773   2.597   1.612 -0.1373  0.3159  0.4083
 2865SOL     OW11225   3.209   4.101   1.165 -0.2542  0.3609  0.0490
 2865SOL    HW211226   3.182   4.185   1.202  0.3838  0.2288  0.8474
 2865SOL    HW311227   3.220   4.043   1.241 -1.1195 -0.5796 -0.5186
 2865SOL    MW411228   3.207   4.104   1.180 -0.2842  0.2194  0.0794
 2866SOL     OW11229   2.657   2.365   1.293  0.2285 -0.1247  0.1893
 2866SOL    HW211230   2.738   2.336   1.333  0.1768  0.9855  1.1438
 2866SOL    HW311231   2.682   2.441   1.240 -0.5425  2.0104  2.6886
 2866SOL    MW411232   2.671   2.371   1.291  0.1199  0.3035  0.6450
 2867SOL     OW11233   1.925   3.626   3.565  0.1469 -0.2599 -0.4769
 2867SOL    HW211234   1.977   3.706   3.568 -0.0935 -0.0793 -0.9236
 2867SOL    HW311235   1.944   3.581   3.647 -0.5605  0.7969  0.3039
 2867SOL    MW411236   1.934   3.631   3.576  0.0218 -0.0967 -0.4328
 2868SOL     OW11237   5.426   4.321   4.584  0.1791  0.2483 -0.6499
 2868SOL    HW211238   5.405   4.407   4.623 -0.9333 -0.0319 -0.5990
 2868SOL    HW311239   5.518   4.329   4.559  0.5647  0.9080  0.8220
 2868SOL    MW411240   5.436   4.334   4.586  0.0832  0.2983 -0.4490
 2869SOL     OW11241   5.439   2.448   5.886 -0.2479  0.2863 -0.6816
 2869SOL    HW211242   5.430   2.379   5.820 -1.2579 -1.5050  1.2219
 2869SOL    HW311243   5.360   2.501   5.876 -0.9536 -0.6437 -0.2272
 2869SOL    MW411244   5.428   2.446   5.876 -0.4743 -0.0728 -0.3705
 2870SOL     OW11245   3.931   2.101   1.159  0.7080 -0.4578 -0.1382
 2870SOL    HW211246   3.838   2.084   1.179  0.5580 -1.3014 -1.4148
 2870SOL    HW311247   3.931   2.188   1.120  0.7818  0.4977  1.9079
 2870SOL    MW411248   3.919   2.110   1.156  0.6979 -0.4430 -0.0367
 2871SOL     OW11249   6.123   5.097   4.075  0.3597 -0.0840 -0.8506
 2871SOL    HW211250   6.148   5.022   4.129  1.7567  1.2868  0.5498
 2871SOL    HW311251   6.119   5.063   3.986 -0.4885 -2.1047 -0.0875
 2871SOL    MW411252   6.126   5.083   4.070  0.4321 -0.1698 -0.5652
 2872SOL     OW11253   1.904   2.822   5.857  0.2886  0.1193 -0.0983
 2872SOL    HW211254   1.859   2.872   5.789  0.3377  0.5023  0.1476
 2872SOL    HW311255   1.852   2.742   5.867  0.4247 -0.0523 -0.7618
 2872SOL    MW411256   1.891   2.818   5.850  0.3130  0.1472 -0.1534
 2873SOL     OW11257   3.626   3.150   3.695 -0.3873 -0.5848 -0.1723
 2873SOL    HW211258   3.697   3.156   3.759 -0.7563  1.1253  0.1369
 2873SOL    HW311259   3.666   3.179   3.613 -1.2097  2.8319  0.4866
 2873SOL    MW411260   3.641   3.155   3.693 -0.5445  0.0916 -0.0446
 2874SOL     OW11261   6.344   0.245   5.151 -0.4893  0.9467 -0.6224
 2874SOL    HW211262   6.265   0.194   5.173 -0.4561  1.3201  0.4176
 2874SOL    HW311263   6.316   0.336   5.157 -0.7729  1.1277 -3.2869
 2874SOL    MW411264   6.330   0.250   5.154 -0.5223  1.0199 -0.8367
 2875SOL     OW11265   4.013   0.125   0.534  0.0154 -0.2550  0.4645
 2875SOL    HW211266   3.923   0.157   0.528  0.7694  1.9922  0.3344
 2875SOL    HW311267   4.030   0.085   0.448  0.0111  1.8663 -0.5883
 2875SOL    MW411268   4.003   0.124   0.522  0.1143  0.3213  0.3085
 2876SOL     OW11269   0.898   4.089   3.029  0.0891 -0.1468 -0.5003
 2876SOL    HW211270   0.935   4.177   3.017 -0.4379  0.0865 -0.4157
 2876SOL    HW311271   0.975   4.032   3.032  0.5289  0.4633  0.7645
 2876SOL    MW411272   0.913   4.093   3.028  0.0776 -0.0355 -0.3223
 2877SOL     OW11273   1.977   5.907   1.597 -0.1522  0.2414 -0.3551
 2877SOL    HW211274   2.047   5.970   1.615 -0.1732 -0.1724  1.2512
 2877SOL    HW311275   1.968   5.857   1.677 -1.4300 -0.5754 -0.9763
 2877SOL    MW411276   1.985   5.909   1.610 -0.3235  0.0791 -0.2251
 2878SOL     OW11277   5.608   1.858   0.114  0.2195 -0.7781 -0.4010
 2878SOL    HW211278   5.652   1.808   0.045  1.8080  0.4971 -0.3803
 2878SOL    HW311279   5.642   1.947   0.104 -1.6718  0.0714  0.2590
 2878SOL    MW411280   5.618   1.863   0.103  0.1795 -0.4978 -0.3112
 2879SOL     OW11281   4.894   5.314   2.030  0.0453  0.1025 -0.3028
 2879SOL    HW211282   4.838   5.378   1.987 -0.4009  1.2827  1.8971
 2879SOL    HW311283   4.983   5.346   2.016 -0.1478  0.9637  0.3677
 2879SOL    MW411284   4.898   5.327   2.022 -0.0390  0.3718  0.0759
 2880SOL     OW11285   0.276   3.471   3.288 -0.4745  0.3026 -0.2171
 2880SOL    HW211286   0.346   3.480   3.223 -0.3797  1.6962  0.0369
 2880SOL    HW311287   0.297   3.391   3.336  0.1044 -0.1070 -1.1309
 2880SOL    MW411288   0.288   3.462   3.286 -0.3857  0.4324 -0.3042
 2881SOL     OW11289   1.326   3.075   3.801 -0.1622  0.0596 -0.4789
 2881SOL    HW211290   1.370   3.002   3.846 -0.7129 -0.2067 -0.3688
 2881SOL    HW311291   1.326   3.146   3.866 -1.7320 -0.5980  0.2945
 2881SOL    MW411292   1.332   3.075   3.816 -0.4420 -0.0623 -0.3623
 2882SOL     OW11293   0.474   3.864   6.366 -0.0782  0.0216  0.3647
 2882SOL    HW211294   0.459   3.954   6.337  1.4800  1.0121  2.4194
 2882SOL    HW311295   0.569   3.855   6.368 -0.1833 -1.0960  1.8090
 2882SOL    MW411296   0.484   3.874   6.362  0.1135  0.0048  0.8263
 2883SOL     OW11297   0.446   0.565   0.672  0.6403 -0.1827 -0.6879
 2883SOL    HW211298   0.409   0.525   0.593 -1.4463  1.7157 -0.7740
 2883SOL    HW311299   0.383   0.632   0.697  1.0340 -0.9405  2.8791
 2883SOL    MW411300   0.433   0.569   0.665  0.4169 -0.0322 -0.2287
 2884SOL     OW11301   3.452   3.852   5.380 -0.4825  0.1049  1.0101
 2884SOL    HW211302   3.512   3.809   5.440 -0.7960 -0.2696  1.0525
 2884SOL    HW311303   3.473   3.945   5.389  1.5296 -0.1238 -0.4750
 2884SOL    MW411304   3.463   3.859   5.389 -0.2584  0.0254  0.8197
 2885SOL     OW11305   3.282   0.189   4.331 -0.4231 -0.1433  0.6361
 2885SOL    HW211306   3.376   0.205   4.340 -0.4122 -0.3476  0.8956
 2885SOL    HW311307   3.252   0.256   4.269  0.2186 -1.1933 -0.8987
 2885SOL    MW411308   3.290   0.200   4.324 -0.3370 -0.3088  0.4679
 2886SOL     OW11309   4.354   3.176   0.136 -0.3940  0.1933  0.4754
 2886SOL    HW211310   4.386   3.141   0.220 -0.0327  0.8376  0.6182
 2886SOL    HW311311   4.385   3.267   0.135  0.6915 -0.1586 -0.9193
 2886SOL    MW411312   4.363   3.183   0.147 -0.2031  0.2319  0.3103
 2887SOL     OW11313   1.199   0.519   0.894  0.8364 -0.2442  0.0922
 2887SOL    HW211314   1.192   0.425   0.876 -1.0520 -0.4193  1.3677
 2887SOL    HW311315   1.224   0.558   0.811 -0.1687 -1.7171 -0.9571
 2887SOL    MW411316   1.201   0.512   0.881  0.4546 -0.4616  0.1221
 2888SOL     OW11317   1.287   1.509   1.548  0.5098 -0.1162 -0.0921
 2888SOL    HW211318   1.379   1.512   1.573  0.8413  0.7382 -1.3368
 2888SOL    HW311319   1.277   1.580   1.485 -0.9812 -0.2739 -0.0702
 2888SOL    MW411320   1.297   1.519   1.543  0.3568 -0.0243 -0.2535
 2889SOL     OW11321   6.280   2.920   2.768  0.1820  0.3258 -0.0480
 2889SOL    HW211322   6.373   2.908   2.749  0.0162  0.0997 -0.7416
 2889SOL    HW311323   6.235   2.884   2.692 -0.5365 -1.1132  1.0147
 2889SOL    MW411324   6.286   2.914   2.756  0.0653  0.1061  0.0007
 2890SOL     OW11325   3.163   0.597   4.770  0.3622 -0.2785 -0.1886
 2890SOL    HW211326   3.238   0.636   4.816  0.3324 -3.0208  2.4769
 2890SOL    HW311327   3.094   0.592   4.836 -0.6709 -1.8570 -1.3091
 2890SOL    MW411328   3.164   0.602   4.785  0.2220 -0.8486  0.0153
 2891SOL     OW11329   2.117   3.504   5.765 -0.0842  0.0688  0.1595
 2891SOL    HW211330   2.032   3.466   5.786 -0.1047  0.2871  0.4740
 2891SOL    HW311331   2.120   3.586   5.814  2.0073 -1.8775  3.6799
 2891SOL    MW411332   2.106   3.510   5.774  0.1891 -0.1592  0.6654
 2892SOL     OW11333   0.382   3.600   1.717  0.4234  0.1242  0.1730
 2892SOL    HW211334   0.351   3.568   1.633 -0.2278  1.0131  0.0548
 2892SOL    HW311335   0.334   3.682   1.730 -0.2098 -0.4663  1.8447
 2892SOL    MW411336   0.372   3.607   1.708  0.2539  0.1636  0.3780
 2893SOL     OW11337   4.775   3.897   4.693 -0.4557  0.0735  0.8604
 2893SOL    HW211338   4.858   3.877   4.736 -0.9012 -1.5426  1.0110
 2893SOL    HW311339   4.790   3.873   4.601 -1.1940 -1.6386  1.1618
 2893SOL    MW411340   4.788   3.891   4.687 -0.6119 -0.3656  0.9200
 2894SOL     OW11341   5.046   3.861   1.975 -0.3063 -0.1706  0.6741
 2894SOL    HW211342   5.054   3.948   1.936 -0.4585  0.2102  1.4608
 2894SOL    HW311343   4.991   3.874   2.052 -0.0474 -0.8991  0.9990
 2894SOL    MW411344   5.040   3.874   1.980 -0.2922 -0.2164  0.8208
 2895SOL     OW11345   2.010   0.518   1.513  0.1432 -0.3397  0.5014
 2895SOL    HW211346   2.102   0.545   1.511 -0.1984  0.8309  0.1307
 2895SOL    HW311347   2.013   0.429   1.549  1.1453  0.8964  3.8627
 2895SOL    MW411348   2.023   0.510   1.518  0.2303 -0.0222  0.8960
 2896SOL     OW11349   3.249   3.968   1.418 -0.8798  0.3744  0.0887
 2896SOL    HW211350   3.344   3.974   1.427 -0.6256  0.0156 -1.9033
 2896SOL    HW311351   3.230   3.875   1.425 -0.9488  0.3397 -0.4922
 2896SOL    MW411352   3.259   3.957   1.420 -0.8554  0.3225 -0.2508
 2897SOL     OW11353   3.816   5.798   4.569  0.7396 -0.2790 -0.2918
 2897SOL    HW211354   3.832   5.797   4.474  0.9670  0.3213 -0.2680
 2897SOL    HW311355   3.895   5.838   4.606  0.3601  0.1322  0.0828
 2897SOL    MW411356   3.828   5.803   4.561  0.7195 -0.1455 -0.2393
 2898SOL     OW11357   3.207   0.083   0.319 -0.4168  0.0705 -0.3330
 2898SOL    HW211358   3.190   0.156   0.378  0.1374 -1.2723  1.5773
 2898SOL    HW311359   3.301   0.088   0.300 -0.4411  0.0509 -0.4610
 2898SOL    MW411360   3.217   0.093   0.324 -0.3469 -0.1092 -0.0979
 2899SOL     OW11361   4.100   6.424   3.858 -0.0835 -0.0671 -0.0264
 2899SOL    HW211362   4.144   6.421   3.943 -0.6891 -0.4312  0.2820
 2899SOL    HW311363   4.149   6.490   3.808 -0.2582  0.8109  0.9134
 2899SOL    MW411364   4.112   6.433   3.863 -0.1865  0.0007  0.1383
 2900SOL     OW11365   1.380   1.172   6.113  0.1285  0.0054 -0.1078
 2900SOL    HW211366   1.364   1.158   6.020  0.3389 -1.1301  0.0111
 2900SOL    HW311367   1.328   1.106   6.158 -2.1492  2.2263  0.7744
 2900SOL    MW411368   1.371   1.162   6.107 -0.1443  0.1486  0.0243
 2901SOL     OW11369   2.836   1.354   5.618  0.1576  0.7762 -0.3571
 2901SOL    HW211370   2.921   1.383   5.652 -0.0696 -0.5420  1.4806
 2901SOL    HW311371   2.855   1.319   5.531  1.4826  0.6204 -0.0251
 2901SOL    MW411372   2.850   1.353   5.611  0.3024  0.5817 -0.0709
 2902SOL     OW11373   0.282   6.092   4.674  0.4153  0.1061  0.5687
 2902SOL    HW211374   0.215   6.153   4.704 -0.9578 -1.7754  1.5349
 2902SOL    HW311375   0.329   6.140   4.605 -1.4289  1.7542  0.3688
 2902SOL    MW411376   0.279   6.106   4.669 -0.0092  0.0753  0.6698
 2903SOL     OW11377   2.135   3.697   0.737 -0.3728 -0.3470  0.7840
 2903SOL    HW211378   2.130   3.760   0.809  1.5787  0.4917  0.2453
 2903SOL    HW311379   2.118   3.612   0.779 -1.4492  0.3389  1.8096
 2903SOL    MW411380   2.132   3.694   0.752 -0.2573 -0.1458  0.8482
 2904SOL     OW11381   2.551   5.096   0.873  0.5547  0.0366 -0.3324
 2904SOL    HW211382   2.642   5.093   0.901  0.3225 -0.4947  0.3957
 2904SOL    HW311383   2.521   5.005   0.877 -1.2541  0.5997  3.7607
 2904SOL    MW411384   2.559   5.083   0.877  0.2854  0.0408  0.3037
 2905SOL     OW11385   3.846   0.674   6.079 -0.0319 -0.4606  0.0451
 2905SOL    HW211386   3.871   0.629   5.998 -2.0465  0.5390 -1.2081
 2905SOL    HW311387   3.889   0.760   6.073  1.8563 -1.2292  1.3081
 2905SOL    MW411388   3.855   0.679   6.068 -0.0486 -0.4301  0.0464
 2906SOL     OW11389   0.862   0.575   3.507 -0.1323 -0.0690  1.0430
 2906SOL    HW211390   0.797   0.531   3.451  0.4492  0.8052 -0.3885
 2906SOL    HW311391   0.810   0.634   3.561 -0.5724  0.5441 -0.0100
 2906SOL    MW411392   0.846   0.577   3.507 -0.1136  0.1272  0.7152
 2907SOL     OW11393   5.259   5.379   5.324 -0.9790 -0.1419 -0.4187
 2907SOL    HW211394   5.236   5.369   5.416  0.7466 -0.7797 -0.0068
 2907SOL    HW311395   5.265   5.289   5.291 -0.2354  0.0205 -0.7620
 2907SOL    MW411396   5.257   5.366   5.331 -0.6532 -0.2047 -0.4097
 2908SOL     OW11397   4.209   1.464   0.294  0.0445 -0.2258 -0.6216
 2908SOL    HW211398   4.173   1.535   0.240 -0.2813  0.8098  0.8842
 2908SOL    HW311399   4.202   1.386   0.239 -3.2817  0.1491 -0.9626
 2908SOL    MW411400   4.203   1.463   0.280 -0.4373 -0.0397 -0.4679
 2909SOL     OW11401   1.854   3.563   3.204  0.5388  0.1456 -0.0666
 2909SOL    HW211402   1.810   3.488   3.245  0.7077 -0.6218 -1.2382
 2909SOL    HW311403   1.857   3.541   3.111  2.9122  0.4112 -0.1119
 2909SOL    MW411404   1.848   3.550   3.197  0.8743  0.0794 -0.2272
 2910SOL     OW11405   0.795   2.809   3.522 -0.4283 -0.8793 -0.3757
 2910SOL    HW211406   0.882   2.774   3.544 -0.0984  0.8649  1.2946
 2910SOL    HW311407   0.813   2.883   3.465 -0.8059 -0.3982  0.1284
 2910SOL    MW411408   0.809   2.814   3.517 -0.4346 -0.5857 -0.0888
 2911SOL     OW11409   3.398   3.936   3.046  0.0808  0.1893  0.5680
 2911SOL    HW211410   3.485   3.898   3.055  0.0183 -1.3339 -3.5023
 2911SOL    HW311411   3.412   4.015   2.993 -1.0657 -0.7480 -1.2127
 2911SOL    MW411412   3.411   3.942   3.040 -0.0787 -0.1353 -0.2040
 2912SOL     OW11413   1.666   1.628   4.190 -0.2096 -0.6426  0.7040
 2912SOL    HW211414   1.681   1.636   4.096 -0.5219  0.8207  0.7524
 2912SOL    HW311415   1.719   1.553   4.217 -0.3819 -1.2961 -0.6832
 2912SOL    MW411416   1.675   1.619   4.182 -0.2735 -0.5357  0.5273
 2913SOL     OW11417   4.790   2.437   4.906 -0.6281  0.6166 -0.1733
 2913SOL    HW211418   4.853   2.406   4.840 -1.6973 -1.1404 -0.4449
 2913SOL    HW311419   4.744   2.509   4.864 -1.1637 -0.3609 -1.3028
 2913SOL    MW411420   4.792   2.442   4.892 -0.8398  0.2558 -0.3582
 2914SOL     OW11421   2.091   5.857   2.192 -0.0663 -0.2320  0.0351
 2914SOL    HW211422   2.082   5.765   2.166 -0.2247 -0.1945 -0.0440
 2914SOL    HW311423   2.003   5.883   2.218  0.0091 -0.1450  0.2008
 2914SOL    MW411424   2.078   5.848   2.192 -0.0773 -0.2156  0.0465
 2915SOL     OW11425   5.542   5.026   4.413  0.5928 -0.3757 -0.3175
 2915SOL    HW211426   5.609   5.027   4.345  2.0180 -0.2279  1.0435
 2915SOL    HW311427   5.534   5.117   4.440 -1.2548 -0.1426 -1.4470
 2915SOL    MW411428   5.550   5.038   4.407  0.5370 -0.3254 -0.2870
 2916SOL     OW11429   0.657   4.787   5.131  0.3886 -0.0945 -0.0394
 2916SOL    HW211430   0.725   4.740   5.181  0.8389 -0.6053 -1.0896
 2916SOL    HW311431   0.662   4.877   5.162  0.7078 -0.3835  0.7778
 2916SOL    MW411432   0.667   4.792   5.142  0.4901 -0.2000 -0.0702
 2917SOL     OW11433   1.658   2.374   1.655 -0.2014  0.5472 -0.1704
 2917SOL    HW211434   1.718   2.448   1.659 -0.0242  0.3743  0.5934
 2917SOL    HW311435   1.708   2.300   1.689 -0.3978  0.0882 -0.8606
 2917SOL    MW411436   1.672   2.374   1.660 -0.2040  0.4638 -0.1607
 2918SOL     OW11437   5.624   1.857   0.418 -0.1420 -0.1860  0.2075
 2918SOL    HW211438   5.620   1.833   0.325 -1.0921  1.0681 -0.0932
 2918SOL    HW311439   5.668   1.783   0.460  1.7071 -0.0938 -1.4643
 2918SOL    MW411440   5.629   1.844   0.411 -0.0233 -0.0083 -0.0528
 2919SOL     OW11441   5.534   3.345   1.424 -0.2151 -1.1751 -0.0700
 2919SOL    HW211442   5.508   3.295   1.347  0.8062  0.5131 -1.5749
 2919SOL    HW311443   5.577   3.281   1.481 -0.5629 -2.3524 -1.1056
 2919SOL    MW411444   5.536   3.330   1.422 -0.1262 -1.1077 -0.4052
 2920SOL     OW11445   2.420   0.972   1.186 -0.0732 -0.5029  0.5668
 2920SOL    HW211446   2.372   0.925   1.255 -0.6788  0.1222  0.5856
 2920SOL    HW311447   2.453   1.050   1.230 -2.9207  1.4288 -0.4329
 2920SOL    MW411448   2.418   0.976   1.201 -0.5288 -0.1655  0.4374
 2921SOL     OW11449   1.461   0.807   4.756 -0.2937 -0.4230  0.0026
 2921SOL    HW211450   1.510   0.817   4.838  0.4532  0.5977 -0.5496
 2921SOL    HW311451   1.525   0.826   4.688 -0.8967 -1.3314 -0.8343
 2921SOL    MW411452   1.476   0.810   4.758 -0.2747 -0.4082 -0.1807
 2922SOL     OW11453   5.586   5.358   5.087  0.0186  0.2437  0.1259
 2922SOL    HW211454   5.590   5.453   5.101 -0.8514  0.4087 -0.6576
 2922SOL    HW311455   5.496   5.342   5.058 -0.1815 -0.9710  1.2914
 2922SOL    MW411456   5.575   5.369   5.085 -0.1226  0.1052  0.1763
 2923SOL     OW11457   1.611   0.426   1.135  0.0696  0.1584  0.0014
 2923SOL    HW211458   1.569   0.388   1.058 -0.0917 -2.2271  1.1798
 2923SOL    HW311459   1.556   0.502   1.157  0.3533  1.1594 -2.3921
 2923SOL    MW411460   1.598   0.431   1.128  0.0858 -0.0242 -0.1589
 2924SOL     OW11461   1.664   1.667   5.700  0.1026 -0.0118 -0.3877
 2924SOL    HW211462   1.754   1.697   5.692  0.5594 -0.3326  2.4757
 2924SOL    HW311463   1.639   1.690   5.790 -2.4938 -0.4311 -0.9184
 2924SOL    MW411464   1.672   1.674   5.711 -0.1797 -0.1095 -0.0799
 2925SOL     OW11465   2.481   0.819   6.390 -0.4916 -0.1256  0.3061
 2925SOL    HW211466   2.482   0.896   6.447  2.3979  1.8912 -2.2097
 2925SOL    HW311467   2.552   0.764   6.423 -0.7883 -0.4452  0.4262
 2925SOL    MW411468   2.490   0.822   6.402 -0.1496  0.0984 -0.0100
 2926SOL     OW11469   4.591   2.495   5.218 -0.8816 -0.2343 -0.3330
 2926SOL    HW211470   4.659   2.552   5.182  0.2617 -2.4557 -2.0026
 2926SOL    HW311471   4.629   2.459   5.298  0.1724 -1.7609 -1.4574
 2926SOL    MW411472   4.605   2.498   5.224 -0.5917 -0.7288 -0.7016
 2927SOL     OW11473   2.536   5.934   4.183 -0.1863  0.0404  0.1206
 2927SOL    HW211474   2.555   5.925   4.276  0.6535 -0.6384 -0.1047
 2927SOL    HW311475   2.618   5.964   4.144 -0.5010  0.2256 -0.4209
 2927SOL    MW411476   2.549   5.937   4.190 -0.1170 -0.0247  0.0195
 2928SOL     OW11477   1.548   5.410   4.869 -0.3597 -0.0587  0.2599
 2928SOL    HW211478   1.620   5.399   4.932  0.2291  0.7583 -0.2492
 2928SOL    HW311479   1.510   5.322   4.860  0.0958 -0.3538  1.0941
 2928SOL    MW411480   1.552   5.397   4.877 -0.2219  0.0102  0.3028
 2929SOL     OW11481   4.238   2.160   3.433  0.1168  0.5429 -0.3955
 2929SOL    HW211482   4.200   2.243   3.405 -0.5161  0.7933  1.1050
 2929SOL    HW311483   4.170   2.119   3.486  1.4500  0.3999  1.2894
 2929SOL    MW411484   4.224   2.166   3.436  0.2092  0.5571  0.0248
 2930SOL     OW11485   6.026   2.880   1.800  0.0772  0.2292 -0.5910
 2930SOL    HW211486   6.011   2.825   1.877  0.0752  0.8408 -0.1384
 2930SOL    HW311487   5.996   2.967   1.827  0.5859  0.5700 -1.0928
 2930SOL    MW411488   6.020   2.884   1.814  0.1440  0.3549 -0.5975
 2931SOL     OW11489   2.772   2.778   2.128  0.2840  0.0120  0.4816
 2931SOL    HW211490   2.777   2.779   2.032  2.4471  1.0350  0.5459
 2931SOL    HW311491   2.747   2.867   2.151  1.4621  0.2540  0.8914
 2931SOL    MW411492   2.769   2.790   2.119  0.7249  0.1789  0.5442
 2932SOL     OW11493   3.581   0.837   0.575  0.0638 -0.0615  0.2456
 2932SOL    HW211494   3.632   0.850   0.655 -0.7219  0.1551  0.7221
 2932SOL    HW311495   3.498   0.882   0.591 -0.3532 -0.5503 -0.4461
 2932SOL    MW411496   3.577   0.845   0.588 -0.0949 -0.0975  0.2172
 2933SOL     OW11497   5.463   1.761   3.607  0.0641  0.7049 -0.2476
 2933SOL    HW211498   5.456   1.690   3.544  3.0008 -0.2546  0.3352
 2933SOL    HW311499   5.470   1.840   3.554  0.7563  0.1003 -1.0977
 2933SOL    MW411500   5.463   1.762   3.592  0.5429  0.4985 -0.2829
 2934SOL     OW11501   2.019   1.342   2.015  0.2704 -0.3879 -0.5437
 2934SOL    HW211502   2.008   1.372   2.105  1.1005 -0.2185 -0.4951
 2934SOL    HW311503   2.114   1.342   2.000  0.3039 -2.5571 -0.7033
 2934SOL    MW411504   2.030   1.346   2.025  0.3844 -0.6518 -0.5584
 2935SOL     OW11505   1.364   5.089   2.525  0.2480 -0.0557  0.2504
 2935SOL    HW211506   1.410   5.010   2.496  4.3389  2.6409 -1.5072
 2935SOL    HW311507   1.416   5.161   2.489 -2.5245  3.5107  2.7496
 2935SOL    MW411508   1.377   5.088   2.516  0.4220  0.7706  0.3482
 2936SOL     OW11509   6.072   4.305   4.761 -0.1957 -0.3703  0.1258
 2936SOL    HW211510   6.010   4.322   4.832 -0.2510  1.3688 -0.2874
 2936SOL    HW311511   6.158   4.314   4.801 -0.2166 -0.6895  0.2453
 2936SOL    MW411512   6.075   4.308   4.776 -0.2058 -0.1829  0.0871
 2937SOL     OW11513   1.201   1.225   4.792  0.1358  0.1258 -0.4347
 2937SOL    HW211514   1.271   1.252   4.850  0.4350  1.1375 -1.2301
 2937SOL    HW311515   1.241   1.160   4.734  0.0942 -0.1567 -0.1518
 2937SOL    MW411516   1.215   1.220   4.792  0.1698  0.2220 -0.5023
 2938SOL     OW11517   5.246   0.187   1.150  0.3442 -0.1062  0.3453
 2938SOL    HW211518   5.174   0.229   1.197 -0.1167 -0.4897  0.0006
 2938SOL    HW311519   5.234   0.093   1.166  0.4003 -0.2158 -0.2209
 2938SOL    MW411520   5.235   0.180   1.158  0.2908 -0.1712  0.2251
 2939SOL     OW11521   4.125   0.578   1.328  0.6139  0.3926 -0.1405
 2939SOL    HW211522   4.211   0.560   1.365  0.7000  1.7850  0.4052
 2939SOL    HW311523   4.084   0.492   1.319  2.6639 -0.4848 -1.9951
 2939SOL    MW411524   4.131   0.564   1.332  0.8957  0.4606 -0.3132
 2940SOL     OW11525   4.363   3.092   0.400 -0.1419  0.1932 -0.4266
 2940SOL    HW211526   4.441   3.092   0.456 -1.4236 -0.9563  1.4859
 2940SOL    HW311527   4.317   3.173   0.423 -0.8497 -0.4502  0.5409
 2940SOL    MW411528   4.367   3.102   0.411 -0.4044 -0.0433 -0.0466
 2941SOL     OW11529   6.378   5.535   3.518  0.2680  0.1237  0.4258
 2941SOL    HW211530   6.325   5.601   3.473  0.7903  0.4550  0.2981
 2941SOL    HW311531   6.402   5.576   3.601  0.4362  0.0241  0.4273
 2941SOL    MW411532   6.374   5.549   3.523  0.3591  0.1543  0.4092
 2942SOL     OW11533   6.422   1.016   0.044  0.0068 -0.1157  0.1302
 2942SOL    HW211534   6.356   1.080   0.070  0.8773  0.8650 -0.0196
 2942SOL    HW311535   6.474   1.002   0.122  1.2140  1.1006 -0.4217
 2942SOL    MW411536   6.420   1.023   0.057  0.2809  0.1742  0.0377
 2943SOL     OW11537   1.221   4.721   6.312 -0.3144 -0.0238  0.4291
 2943SOL    HW211538   1.292   4.730   6.248 -0.5088  1.1182  0.3456
 2943SOL    HW311539   1.264   4.688   6.391  0.0614 -0.6968 -0.0430
 2943SOL    MW411540   1.236   4.718   6.314 -0.2904  0.0381  0.3558
 2944SOL     OW11541   2.638   5.366   1.345  0.1924  0.4637  0.2927
 2944SOL    HW211542   2.676   5.437   1.294 -0.5479  1.1957  0.7330
 2944SOL    HW311543   2.625   5.295   1.282 -0.2064  1.1658 -0.4319
 2944SOL    MW411544   2.641   5.366   1.330  0.0421  0.6529  0.2552
 2945SOL     OW11545   1.671   3.789   4.808  0.2555 -0.3003  0.1667
 2945SOL    HW211546   1.736   3.852   4.839  0.1417  0.1664 -0.5334
 2945SOL    HW311547   1.618   3.769   4.885 -0.4384  1.3356  0.1600
 2945SOL    MW411548   1.673   3.795   4.822  0.1489 -0.0229  0.0734
 2946SOL     OW11549   4.410   5.357   2.818 -0.2351 -0.0337 -0.1396
 2946SOL    HW211550   4.319   5.383   2.802 -0.4168 -0.1945  0.5586
 2946SOL    HW311551   4.420   5.364   2.913  0.5572  0.2014 -0.2315
 2946SOL    MW411552   4.399   5.361   2.829 -0.1545 -0.0239 -0.0596
 2947SOL     OW11553   1.020   1.307   0.344  0.0961 -0.0874 -0.3557
 2947SOL    HW211554   0.980   1.258   0.272 -1.6406  1.7138 -0.7241
 2947SOL    HW311555   1.114   1.295   0.331 -0.2298 -2.2780 -1.0997
 2947SOL    MW411556   1.027   1.299   0.333 -0.1760 -0.1388 -0.5025
 2948SOL     OW11557   0.773   2.866   1.165 -0.6072 -0.4319 -0.2773
 2948SOL    HW211558   0.742   2.952   1.192  1.5710  0.0542  0.9055
 2948SOL    HW311559   0.742   2.857   1.075 -2.1415  0.9213  0.0686
 2948SOL    MW411560   0.765   2.876   1.156 -0.5222 -0.1892 -0.0756
 2949SOL     OW11561   0.437   4.055   3.516  0.0918 -0.2779 -0.1204
 2949SOL    HW211562   0.395   3.977   3.550 -0.0603  0.3895  1.2945
 2949SOL    HW311563   0.365   4.115   3.497  0.2215 -0.3733 -0.9670
 2949SOL    MW411564   0.422   4.053   3.518  0.0889 -0.2024 -0.0455
 2950SOL     OW11565   0.191   2.598   3.502 -0.7412 -0.0520  0.4429
 2950SOL    HW211566   0.197   2.503   3.496 -1.2259 -0.1720  1.5734
 2950SOL    HW311567   0.110   2.614   3.551  0.5608  0.8432  2.4517
 2950SOL    MW411568   0.181   2.588   3.508 -0.6334  0.0503  0.8571
 2951SOL     OW11569   4.473   1.077   2.709 -0.3132 -0.3130  0.2962
 2951SOL    HW211570   4.444   1.167   2.696 -0.5179 -0.3362  0.5792
 2951SOL    HW311571   4.409   1.040   2.770 -0.1343 -0.5995  0.3110
 2951SOL    MW411572   4.460   1.084   2.715 -0.3166 -0.3538  0.3355
 2952SOL     OW11573   6.111   2.438   3.620 -0.3374  0.2704  0.2538
 2952SOL    HW211574   6.151   2.351   3.611 -0.8537 -0.1128  1.4185
 2952SOL    HW311575   6.185   2.498   3.627  0.0236 -0.0696 -0.5665
 2952SOL    MW411576   6.126   2.434   3.620 -0.3579  0.1750  0.2992
 2953SOL     OW11577   2.402   4.253   5.491 -0.2038 -0.6582 -0.4702
 2953SOL    HW211578   2.486   4.278   5.529 -0.9883 -0.8472  1.5061
 2953SOL    HW311579   2.406   4.286   5.401  2.1919 -1.1795 -0.6411
 2953SOL    MW411580   2.414   4.261   5.484  0.0088 -0.7519 -0.2320
 2954SOL     OW11581   0.241   1.185   3.535 -0.1187  0.7133  0.4007
 2954SOL    HW211582   0.254   1.179   3.441 -1.4110 -0.0055  0.2333
 2954SOL    HW311583   0.273   1.272   3.559 -1.3654  1.6106 -1.0104
 2954SOL    MW411584   0.247   1.196   3.526 -0.4537  0.7368  0.1925
 2955SOL     OW11585   4.422   1.667   1.407 -0.2071  0.7556 -0.1536
 2955SOL    HW211586   4.495   1.724   1.383  0.4041  0.3698  0.7434
 2955SOL    HW311587   4.462   1.582   1.424 -0.5533  1.0126  2.2931
 2955SOL    MW411588   4.437   1.663   1.406 -0.1721  0.7386  0.2875
 2956SOL     OW11589   3.967   4.388   4.739  0.0580 -0.2513 -0.2877
 2956SOL    HW211590   3.896   4.327   4.718 -0.3019  0.0122  0.1485
 2956SOL    HW311591   4.012   4.346   4.813 -0.6172  0.3320  0.4733
 2956SOL    MW411592   3.964   4.374   4.746 -0.0785 -0.1396 -0.1297
 2957SOL     OW11593   6.363   2.919   3.061  0.1181 -0.1403 -0.0836
 2957SOL    HW211594   6.348   3.004   3.102  0.4213 -0.2515  0.2615
 2957SOL    HW311595   6.420   2.939   2.986 -1.6386  0.2755 -1.3736
 2957SOL    MW411596   6.368   2.933   3.056 -0.0737 -0.1001 -0.2083
 2958SOL     OW11597   3.532   2.935   5.917 -0.5135 -0.5204 -0.1112
 2958SOL    HW211598   3.441   2.963   5.928 -0.5327 -0.6403  0.0422
 2958SOL    HW311599   3.561   2.911   6.005 -0.8689 -2.0810 -0.3789
 2958SOL    MW411600   3.524   2.935   5.930 -0.5629 -0.7421 -0.1263
 2959SOL     OW11601   4.152   1.386   5.531  0.2090 -0.3047 -0.3180
 2959SOL    HW211602   4.178   1.412   5.443  0.8995 -0.7451 -0.2578
 2959SOL    HW311603   4.219   1.424   5.588  0.3923 -0.9459 -0.0952
 2959SOL    MW411604   4.164   1.394   5.527  0.3243 -0.4474 -0.2806
 2960SOL     OW11605   5.926   4.382   2.394  0.6111  0.6753  0.3254
 2960SOL    HW211606   5.907   4.336   2.476 -0.3812 -0.8974 -0.7156
 2960SOL    HW311607   5.850   4.439   2.379 -0.2205 -0.5810 -0.4767
 2960SOL    MW411608   5.914   4.383   2.403  0.3704  0.3021  0.0822
 2961SOL     OW11609   2.515   3.947   6.376  0.2799  0.0471 -0.2666
 2961SOL    HW211610   2.457   3.962   6.301 -0.0236 -1.9391 -0.4613
 2961SOL    HW311611   2.463   3.969   6.452 -0.7454 -1.6200 -0.4447
 2961SOL    MW411612   2.501   3.952   6.376  0.1046 -0.4349 -0.3158
 2962SOL     OW11613   3.133   1.374   1.676 -0.2676  0.3329 -0.1652
 2962SOL    HW211614   3.154   1.467   1.671 -1.2557  0.5372 -0.8602
 2962SOL    HW311615   3.049   1.366   1.631  0.6216 -1.1562 -1.7143
 2962SOL    MW411616   3.125   1.385   1.669 -0.2806  0.1634 -0.4613
 2963SOL     OW11617   3.210   5.763   0.408 -0.3881  0.1943  0.1277
 2963SOL    HW211618   3.136   5.739   0.352  1.0227  0.4347 -1.9296
 2963SOL    HW311619   3.275   5.801   0.349  1.1313  0.6499  1.9632
 2963SOL    MW411620   3.209   5.765   0.393 -0.0015  0.2862  0.0984
 2964SOL     OW11621   5.318   0.775   0.647  0.0028 -0.1157 -0.2305
 2964SOL    HW211622   5.323   0.682   0.624  1.3182 -0.1023 -0.0463
 2964SOL    HW311623   5.399   0.812   0.614 -0.0065  0.7498  0.6903
 2964SOL    MW411624   5.329   0.767   0.640  0.1752  0.0002 -0.0847
 2965SOL     OW11625   2.981   4.960   1.806 -0.1139 -0.1467 -0.5089
 2965SOL    HW211626   3.064   5.004   1.826 -0.2458  0.3691 -1.0492
 2965SOL    HW311627   3.003   4.896   1.738  0.4066 -2.1592  1.4455
 2965SOL    MW411628   2.995   4.958   1.800 -0.0626 -0.3442 -0.3223
 2966SOL     OW11629   4.134   2.349   0.935 -0.8151  0.3288  0.2889
 2966SOL    HW211630   4.159   2.257   0.938 -2.3939 -0.1079  0.7193
 2966SOL    HW311631   4.202   2.390   0.881  1.4393 -0.5497  2.2689
 2966SOL    MW411632   4.146   2.343   0.928 -0.7259  0.1553  0.6069
 2967SOL     OW11633   4.118   5.406   3.678  0.3425 -0.2023 -0.0346
 2967SOL    HW211634   4.115   5.350   3.755  0.5721 -1.5001 -0.9403
 2967SOL    HW311635   4.036   5.456   3.681 -0.6009 -1.6899 -0.0036
 2967SOL    MW411636   4.107   5.405   3.688  0.2483 -0.5698 -0.1500
 2968SOL     OW11637   1.683   3.650   0.178  0.0232 -0.0528  0.4214
 2968SOL    HW211638   1.591   3.622   0.173  0.2388 -0.6670 -0.4643
 2968SOL    HW311639   1.729   3.589   0.120  0.8997  0.6318  0.3860
 2968SOL    MW411640   1.677   3.638   0.170  0.1673 -0.0435  0.2999
 2969SOL     OW11641   0.945   5.795   1.607  0.6223 -0.2741  0.5246
 2969SOL    HW211642   0.980   5.843   1.682  1.2549 -0.0116  0.0676
 2969SOL    HW311643   0.949   5.857   1.534 -2.0999  0.2547  0.7305
 2969SOL    MW411644   0.950   5.809   1.607  0.3466 -0.1697  0.4915
 2970SOL     OW11645   3.251   3.955   4.613 -0.7237 -0.4310  0.2553
 2970SOL    HW211646   3.182   3.967   4.678 -0.2603  0.9387  0.5196
 2970SOL    HW311647   3.333   3.963   4.663 -0.3417 -1.6724 -0.1145
 2970SOL    MW411648   3.253   3.958   4.628 -0.6122 -0.4140  0.2414
 2971SOL     OW11649   4.542   3.784   1.337 -0.0614 -0.1535  0.0461
 2971SOL    HW211650   4.509   3.789   1.427 -0.6471 -0.6126 -0.1340
 2971SOL    HW311651   4.464   3.767   1.285  0.6368 -3.0042 -0.2305
 2971SOL    MW411652   4.527   3.783   1.342 -0.0465 -0.5902 -0.0142
 2972SOL     OW11653   5.530   4.578   3.523 -0.1573 -0.0719  0.0447
 2972SOL    HW211654   5.601   4.641   3.535 -0.2376 -0.0866  0.6639
 2972SOL    HW311655   5.450   4.629   3.537 -0.3852  0.3376 -2.3127
 2972SOL    MW411656   5.529   4.593   3.527 -0.1980 -0.0198 -0.1847
 2973SOL     OW11657   4.799   6.121   3.100 -0.5066 -0.5773 -0.4537
 2973SOL    HW211658   4.848   6.054   3.147  0.9614  1.3645  0.9548
 2973SOL    HW311659   4.734   6.153   3.164 -0.7948 -0.2644 -0.8957
 2973SOL    MW411660   4.797   6.117   3.115 -0.3510 -0.2798 -0.3262
 2974SOL     OW11661   4.403   2.002   5.466 -0.2472 -0.3179  0.0230
 2974SOL    HW211662   4.347   2.079   5.478 -0.7493 -0.5920 -0.5200
 2974SOL    HW311663   4.396   1.954   5.548 -0.0131  0.1622  0.3274
 2974SOL    MW411664   4.395   2.006   5.478 -0.2825 -0.2907 -0.0085
 2975SOL     OW11665   4.747   0.366   1.561  0.3938  0.1245  0.2453
 2975SOL    HW211666   4.829   0.395   1.521 -0.3793  1.0379 -0.7550
 2975SOL    HW311667   4.681   0.377   1.491 -0.9415  1.4141  1.6254
 2975SOL    MW411668   4.749   0.372   1.546  0.1156  0.4151  0.2954
 2976SOL     OW11669   2.697   2.631   1.528 -0.5464  0.8520  0.7770
 2976SOL    HW211670   2.677   2.679   1.448  0.2634  1.9683  1.2207
 2976SOL    HW311671   2.622   2.572   1.540  0.3242 -1.0389 -2.0006
 2976SOL    MW411672   2.684   2.629   1.519 -0.3247  0.7498  0.4690
 2977SOL     OW11673   1.684   6.103   0.884 -0.8268  0.0240 -0.1564
 2977SOL    HW211674   1.680   6.098   0.979 -1.4138  1.0320 -0.1235
 2977SOL    HW311675   1.622   6.037   0.853  0.7200 -1.6466  0.1082
 2977SOL    MW411676   1.676   6.094   0.892 -0.7001 -0.0634 -0.1172
 2978SOL     OW11677   4.873   2.655   3.032 -0.1636 -0.5478 -0.2199
 2978SOL    HW211678   4.875   2.673   2.938 -0.5055 -0.6161 -0.2417
 2978SOL    HW311679   4.792   2.697   3.063 -0.5855 -1.3940 -0.1382
 2978SOL    MW411680   4.862   2.663   3.024 -0.2644 -0.6685 -0.2120
 2979SOL     OW11681   2.360   3.760   3.397 -0.4888  0.3885 -0.4693
 2979SOL    HW211682   2.397   3.704   3.328 -0.2175 -0.4006  0.2906
 2979SOL    HW311683   2.353   3.846   3.357  0.6510  0.1826 -1.1585
 2979SOL    MW411684   2.364   3.764   3.383 -0.3026  0.2572 -0.4600
 2980SOL     OW11685   5.782   5.973   4.954  0.2287 -0.2851  0.1876
 2980SOL    HW211686   5.841   5.993   4.881 -0.2728  2.3901  0.4182
 2980SOL    HW311687   5.817   6.022   5.028 -1.5806  0.3920  0.6493
 2980SOL    MW411688   5.794   5.982   4.954 -0.0761  0.1572  0.2789
 2981SOL     OW11689   2.414   1.321   5.941 -0.2010 -0.6651 -0.2443
 2981SOL    HW211690   2.395   1.228   5.936 -0.5774 -0.6516  0.6985
 2981SOL    HW311691   2.510   1.326   5.948  0.2484 -0.7741 -4.1467
 2981SOL    MW411692   2.424   1.310   5.941 -0.1914 -0.6777 -0.6348
 2982SOL     OW11693   4.759   2.612   3.721  0.5696  0.1752  0.0758
 2982SOL    HW211694   4.716   2.658   3.793 -2.7485  0.5461 -1.9318
 2982SOL    HW311695   4.723   2.523   3.725  2.5026 -0.6412  0.4596
 2982SOL    MW411696   4.748   2.606   3.731  0.3869  0.1164 -0.1385
 2983SOL     OW11697   5.893   0.869   4.452 -0.5144  0.4615  0.3465
 2983SOL    HW211698   5.840   0.790   4.444 -0.6873  0.5863  0.2458
 2983SOL    HW311699   5.910   0.877   4.546  1.0035 -0.6729  0.2023
 2983SOL    MW411700   5.888   0.860   4.463 -0.3370  0.3283  0.3142
 2984SOL     OW11701   1.355   5.716   0.745  0.4331 -0.3117  0.0191
 2984SOL    HW211702   1.436   5.670   0.767 -0.0923 -1.3647 -0.2080
 2984SOL    HW311703   1.301   5.708   0.824 -0.2715 -1.4740 -0.5535
 2984SOL    MW411704   1.358   5.709   0.758  0.2708 -0.6040 -0.0864
 2985SOL     OW11705   2.384   4.727   5.506 -0.4143  0.0635  0.8070
 2985SOL    HW211706   2.323   4.692   5.572 -0.2040  0.8101  1.4104
 2985SOL    HW311707   2.328   4.760   5.436 -0.6882  0.4609  1.2153
 2985SOL    MW411708   2.369   4.727   5.506 -0.4227  0.2144  0.9405
 2986SOL     OW11709   1.742   0.260   5.257 -0.7016  0.1974  0.0336
 2986SOL    HW211710   1.762   0.279   5.166 -0.8144  0.4470  0.0603
 2986SOL    HW311711   1.828   0.254   5.299 -0.5873 -1.3473 -0.3609
 2986SOL    MW411712   1.756   0.262   5.251 -0.7014  0.0265 -0.0150
 2987SOL     OW11713   6.184   2.310   4.630 -0.0845  0.6269 -0.6636
 2987SOL    HW211714   6.190   2.370   4.555 -1.2323  0.0743 -1.2178
 2987SOL    HW311715   6.097   2.327   4.667 -0.2467 -0.3979 -0.5668
 2987SOL    MW411716   6.174   2.320   4.625 -0.2574  0.4188 -0.7240
 2988SOL     OW11717   2.091   3.060   5.049 -0.0682 -0.1036  0.2882
 2988SOL    HW211718   2.008   3.015   5.035 -0.1053  0.3858 -1.1587
 2988SOL    HW311719   2.144   2.996   5.098 -0.5517 -1.2327 -0.6074
 2988SOL    MW411720   2.087   3.045   5.054 -0.1369 -0.1880 -0.0208
 2989SOL     OW11721   2.541   5.741   3.439 -0.2294 -0.0955  0.4912
 2989SOL    HW211722   2.573   5.684   3.369  0.7240  1.5676 -0.4685
 2989SOL    HW311723   2.589   5.712   3.517  0.4018 -0.4561 -0.0220
 2989SOL    MW411724   2.552   5.730   3.440 -0.0203  0.0763  0.2969
 2990SOL     OW11725   2.997   2.106   4.155  0.5652 -0.0096  0.0188
 2990SOL    HW211726   2.997   2.064   4.241 -0.6777  1.0422  0.5596
 2990SOL    HW311727   2.908   2.096   4.122  0.7285  0.5971 -0.6465
 2990SOL    MW411728   2.986   2.099   4.162  0.4228  0.2093  0.0024
 2991SOL     OW11729   3.724   1.615   2.979  0.2349  0.4533  0.0364
 2991SOL    HW211730   3.705   1.522   2.994  1.1703 -0.0521 -1.6378
 2991SOL    HW311731   3.679   1.661   3.050 -3.5851 -0.9250 -1.2890
 2991SOL    MW411732   3.716   1.609   2.990 -0.1457  0.2048 -0.3594
 2992SOL     OW11733   2.084   2.943   5.408  0.1766  0.1812  0.3734
 2992SOL    HW211734   2.179   2.947   5.398  0.3315 -0.9107  1.1713
 2992SOL    HW311735   2.055   2.883   5.339  0.0358  0.6759 -0.0016
 2992SOL    MW411736   2.093   2.936   5.398  0.1784  0.1024  0.4292
 2993SOL     OW11737   5.398   1.082   1.300 -0.0062  0.4650  0.6969
 2993SOL    HW211738   5.452   1.054   1.225 -1.3442 -0.5232  0.0612
 2993SOL    HW311739   5.455   1.140   1.350  1.0359  0.9227 -0.9325
 2993SOL    MW411740   5.413   1.086   1.297 -0.0452  0.3950  0.3981
 2994SOL     OW11741   4.032   4.362   2.644 -0.1264  0.0186  0.2118
 2994SOL    HW211742   4.089   4.386   2.570 -0.5702  0.2728 -0.0524
 2994SOL    HW311743   4.009   4.270   2.628  1.2196 -0.4911  0.9927
 2994SOL    MW411744   4.036   4.353   2.632 -0.0074 -0.0151  0.2800
 2995SOL     OW11745   2.397   1.631   2.747  0.2943  0.3665 -0.2060
 2995SOL    HW211746   2.349   1.582   2.813  0.3380  1.7063  0.8771
 2995SOL    HW311747   2.346   1.711   2.735  0.2553  0.1191 -1.8731
 2995SOL    MW411748   2.384   1.635   2.754  0.2949  0.5106 -0.2831
 2996SOL     OW11749   0.089   2.494   5.435 -0.1826 -0.2195 -0.3202
 2996SOL    HW211750   0.179   2.492   5.402  0.5924  0.9782  1.5483
 2996SOL    HW311751   0.045   2.560   5.382  0.3807  0.0503 -0.4591
 2996SOL    MW411752   0.095   2.502   5.424 -0.0061 -0.0259 -0.0920
 2997SOL     OW11753   3.033   4.219   2.946  0.2783 -0.3786 -0.2705
 2997SOL    HW211754   3.000   4.141   2.991 -1.7093  0.2674 -0.4774
 2997SOL    HW311755   3.042   4.192   2.854  0.2897 -0.5697 -0.2126
 2997SOL    MW411756   3.030   4.205   2.940  0.0176 -0.3186 -0.2901
 2998SOL     OW11757   0.942   1.790   5.397 -0.0107 -0.0169 -0.6205
 2998SOL    HW211758   0.959   1.721   5.334 -3.8092 -0.9753 -0.8249
 2998SOL    HW311759   1.015   1.851   5.386  1.5965 -2.1649 -2.9766
 2998SOL    MW411760   0.954   1.789   5.387 -0.2998 -0.4268 -0.9583
 2999SOL     OW11761   2.634   3.803   0.277 -0.1900 -0.3237  0.5031
 2999SOL    HW211762   2.614   3.710   0.276  4.7211 -1.6077 -0.7878
 2999SOL    HW311763   2.604   3.833   0.363 -2.1649 -2.9373  0.8349
 2999SOL    MW411764   2.627   3.795   0.288  0.1974 -0.8380  0.3766
 3000SOL     OW11765   2.951   3.122   5.888 -0.2318  0.2931  0.2671
 3000SOL    HW211766   3.001   3.049   5.851 -1.4797 -0.6903  0.4584
 3000SOL    HW311767   2.985   3.133   5.977 -1.2263 -1.2581  0.8732
 3000SOL    MW411768   2.962   3.114   5.895 -0.5277 -0.0413  0.3723
 3001SOL     OW11769   5.301   1.117   2.143  0.2848  0.2080  0.1111
 3001SOL    HW211770   5.326   1.050   2.079  0.6087 -0.8138  1.2572
 3001SOL    HW311771   5.335   1.199   2.106  0.5311 -0.3596 -0.9748
 3001SOL    MW411772   5.309   1.119   2.129  0.3600 -0.0017  0.1190
 3002SOL     OW11773   5.902   4.868   6.264  0.2691 -0.7348 -0.0540
 3002SOL    HW211774   5.891   4.947   6.317 -1.1318 -1.5335  0.9269
 3002SOL    HW311775   5.818   4.856   6.221  1.0986 -0.6345 -1.7636
 3002SOL    MW411776   5.889   4.877   6.265  0.1937 -0.8270 -0.1502
 3003SOL     OW11777   0.644   4.519   4.346 -0.1213  0.0908 -0.4433
 3003SOL    HW211778   0.704   4.535   4.273  1.2331  1.1158  0.8522
 3003SOL    HW311779   0.676   4.439   4.387 -1.3058 -0.8835 -1.3502
 3003SOL    MW411780   0.656   4.510   4.342 -0.0989  0.0975 -0.3920
 3004SOL     OW11781   2.256   2.958   2.290  0.9024  0.0188 -0.7981
 3004SOL    HW211782   2.170   2.916   2.290  1.6407 -1.5580 -1.1059
 3004SOL    HW311783   2.270   2.985   2.199  0.5039  0.7933 -0.6358
 3004SOL    MW411784   2.247   2.956   2.278  0.9472 -0.0871 -0.8173
 3005SOL     OW11785   6.228   5.964   3.253 -0.2808  0.0561  0.1266
 3005SOL    HW211786   6.292   6.023   3.213  0.8236 -0.4474  1.1096
 3005SOL    HW311787   6.149   5.974   3.198  0.5041  0.9531 -0.8857
 3005SOL    MW411788   6.226   5.973   3.240 -0.0315  0.1080  0.1227
 3006SOL     OW11789   4.443   6.281   5.577 -0.0274 -0.2112  0.0573
 3006SOL    HW211790   4.507   6.227   5.530 -2.0368 -0.4872 -2.6250
 3006SOL    HW311791   4.358   6.250   5.545 -1.4525  1.4159  2.0251
 3006SOL    MW411792   4.441   6.270   5.566 -0.4805 -0.0329 -0.0370
 3007SOL     OW11793   4.733   0.830   2.988 -0.1081 -0.5807 -0.0141
 3007SOL    HW211794   4.672   0.779   2.935  0.4089 -0.2797 -0.9167
 3007SOL    HW311795   4.818   0.790   2.972  0.5502  1.3955 -1.8821
 3007SOL    MW411796   4.736   0.818   2.979  0.0470 -0.2802 -0.3797
 3008SOL     OW11797   3.491   0.135   2.699  0.0714 -0.6183 -0.0836
 3008SOL    HW211798   3.531   0.069   2.642  1.2850 -0.1976  0.2558
 3008SOL    HW311799   3.403   0.101   2.716 -0.1602 -0.9838 -1.8119
 3008SOL    MW411800   3.485   0.122   2.694  0.2010 -0.6110 -0.2668
 3009SOL     OW11801   1.118   3.662   5.816  0.0895 -0.4477  0.0368
 3009SOL    HW211802   1.078   3.638   5.900  0.4768 -1.4751 -0.0641
 3009SOL    HW311803   1.152   3.580   5.781  1.4564  0.2418 -0.3270
 3009SOL    MW411804   1.117   3.648   5.822  0.3210 -0.4922 -0.0245
 3010SOL     OW11805   3.374   6.339   3.735 -0.3449 -0.3277  0.0926
 3010SOL    HW211806   3.408   6.250   3.737  1.6596  0.3972  0.6557
 3010SOL    HW311807   3.368   6.365   3.827  0.8354  0.7093 -0.0969
 3010SOL    MW411808   3.377   6.331   3.748  0.0753 -0.0953  0.1419
 3011SOL     OW11809   3.812   4.193   3.510 -0.3023  0.2329  0.0530
 3011SOL    HW211810   3.871   4.227   3.577 -0.5868  0.2896  0.2731
 3011SOL    HW311811   3.780   4.110   3.545  1.3300 -0.9039 -0.9980
 3011SOL    MW411812   3.816   4.187   3.523 -0.1245  0.0904 -0.0566
 3012SOL     OW11813   0.674   5.181   4.482  0.3329  0.4394  0.9948
 3012SOL    HW211814   0.754   5.180   4.534  0.0457 -2.2882  1.5438
 3012SOL    HW311815   0.698   5.222   4.400  2.5380 -1.0190  0.8437
 3012SOL    MW411816   0.688   5.187   4.478  0.5859 -0.1129  1.0473
 3013SOL     OW11817   0.477   2.251   5.721  0.2718 -0.4406 -0.2100
 3013SOL    HW211818   0.475   2.175   5.663  1.1408 -1.1408  0.6327
 3013SOL    HW311819   0.482   2.326   5.662 -2.2564 -0.8869 -1.1230
 3013SOL    MW411820   0.477   2.251   5.705  0.0529 -0.5919 -0.2193
 3014SOL     OW11821   4.371   3.130   2.097 -0.4169 -0.1775 -0.4763
 3014SOL    HW211822   4.344   3.072   2.026  0.4559 -1.0050 -0.1650
 3014SOL    HW311823   4.447   3.085   2.137 -1.5412 -0.3060  1.6790
 3014SOL    MW411824   4.378   3.116   2.093 -0.4501 -0.3036 -0.1509
 3015SOL     OW11825   3.636   4.425   2.100 -0.0262 -0.0548  0.2813
 3015SOL    HW211826   3.696   4.355   2.128  2.0540  0.8093 -1.6952
 3015SOL    HW311827   3.692   4.488   2.054 -2.4236  0.9249 -1.5317
 3015SOL    MW411828   3.651   4.424   2.098 -0.0680  0.1884 -0.2187
 3016SOL     OW11829   2.745   0.849   3.505 -0.7123  0.1391  0.4071
 3016SOL    HW211830   2.757   0.793   3.429  0.4951  1.4663 -0.4453
 3016SOL    HW311831   2.756   0.791   3.580  0.6354 -0.7628 -0.4421
 3016SOL    MW411832   2.748   0.834   3.505 -0.3752  0.1952  0.1826
 3017SOL     OW11833   1.601   1.733   2.621 -0.3147 -0.6495  0.1667
 3017SOL    HW211834   1.518   1.779   2.618 -0.6632 -1.0775  1.8540
 3017SOL    HW311835   1.594   1.665   2.554 -1.6167 -1.1216  0.7517
 3017SOL    MW411836   1.589   1.730   2.612 -0.5324 -0.7683  0.4665
 3018SOL     OW11837   2.422   1.254   1.493  0.1888 -0.2177  0.8161
 3018SOL    HW211838   2.335   1.216   1.485  0.3952 -0.5510  0.1217
 3018SOL    HW311839   2.443   1.286   1.405  1.1808 -1.0646  0.7225
 3018SOL    MW411840   2.414   1.253   1.480  0.3469 -0.3734  0.7121
 3019SOL     OW11841   2.035   2.526   3.144  0.4053 -0.0311  0.4429
 3019SOL    HW211842   2.114   2.571   3.174  0.6701 -0.0875 -0.1455
 3019SOL    HW311843   2.050   2.434   3.167  0.6499 -0.0898  0.0606
 3019SOL    MW411844   2.048   2.520   3.151  0.4725 -0.0463  0.3149
 3020SOL     OW11845   4.569   2.472   0.162 -0.7224 -0.1108 -0.2600
 3020SOL    HW211846   4.559   2.381   0.188 -0.7890 -0.2762 -0.8554
 3020SOL    HW311847   4.524   2.522   0.230 -1.2031 -0.5566 -0.2497
 3020SOL    MW411848   4.562   2.467   0.174 -0.7946 -0.1914 -0.3372
 3021SOL     OW11849   0.451   1.199   0.774  0.2251  0.6402  0.0687
 3021SOL    HW211850   0.395   1.211   0.698  1.0955  0.4440 -0.6251
 3021SOL    HW311851   0.404   1.241   0.846 -2.8092 -2.9330  0.5143
 3021SOL    MW411852   0.438   1.206   0.773 -0.0604  0.1428  0.0359
 3022SOL     OW11853   5.913   2.494   2.704  0.3426  0.5628 -0.5889
 3022SOL    HW211854   5.855   2.476   2.630 -0.8435 -0.4742  0.5456
 3022SOL    HW311855   5.868   2.563   2.754  0.6027  0.4963 -0.2608
 3022SOL    MW411856   5.899   2.501   2.701  0.2204  0.4172 -0.3959
 3023SOL     OW11857   3.869   1.346   4.551  0.3026  0.1839 -0.2292
 3023SOL    HW211858   3.856   1.279   4.484 -2.0816  1.4301 -1.1476
 3023SOL    HW311859   3.933   1.407   4.513 -0.9951  0.8566 -1.4360
 3023SOL    MW411860   3.876   1.345   4.537 -0.1832  0.4371 -0.5096
 3024SOL     OW11861   4.749   6.197   6.171  0.1305 -0.1443  0.0215
 3024SOL    HW211862   4.837   6.169   6.197  0.1304  1.3817  1.8488
 3024SOL    HW311863   4.763   6.243   6.088  1.1072  0.2675  0.3919
 3024SOL    MW411864   4.763   6.200   6.163  0.2593  0.1114  0.3115
 3025SOL     OW11865   2.438   5.372   2.836  0.5646 -0.1461  0.4784
 3025SOL    HW211866   2.379   5.416   2.775  0.5219  1.0672  1.3780
 3025SOL    HW311867   2.412   5.279   2.831 -1.3927  0.3352  0.8157
 3025SOL    MW411868   2.427   5.365   2.827  0.3007  0.0775  0.6416
 3026SOL     OW11869   0.945   6.372   2.801  0.2493 -0.2563  0.4335
 3026SOL    HW211870   0.984   6.414   2.724 -1.2512 -1.6240 -1.1828
 3026SOL    HW311871   0.905   6.443   2.850  2.0833  0.7711  0.5217
 3026SOL    MW411872   0.945   6.387   2.797  0.2933 -0.3012  0.2319
 3027SOL     OW11873   1.168   1.139   3.167 -0.4886  0.4853 -0.0850
 3027SOL    HW211874   1.081   1.151   3.203 -0.1113  0.6446  0.7867
 3027SOL    HW311875   1.214   1.084   3.230  0.2643  0.9879 -0.1740
 3027SOL    MW411876   1.163   1.133   3.180 -0.3395  0.5726  0.0183
 3028SOL     OW11877   2.036   3.608   0.995  0.2127 -0.2307  0.4134
 3028SOL    HW211878   2.116   3.660   0.989  0.6069 -0.8104  0.5356
 3028SOL    HW311879   1.969   3.671   1.022  0.7293  0.1641  0.8082
 3028SOL    MW411880   2.038   3.623   0.998  0.3328 -0.2551  0.4816
 3029SOL     OW11881   4.160   2.445   0.057  0.8350 -0.0973  0.2184
 3029SOL    HW211882   4.224   2.389   0.014  0.8258  1.4291 -1.9408
 3029SOL    HW311883   4.208   2.525   0.078 -0.2961  1.1111 -1.5322
 3029SOL    MW411884   4.175   2.448   0.054  0.6846  0.2635 -0.2975
 3030SOL     OW11885   0.768   0.058   1.232  0.5544  0.2883 -0.0926
 3030SOL    HW211886   0.815   0.031   1.153  0.7543  0.9132 -0.1914
 3030SOL    HW311887   0.726  -0.022   1.264 -0.7024  0.2852 -1.6286
 3030SOL    MW411888   0.769   0.044   1.226  0.4150  0.3703 -0.3083
 3031SOL     OW11889   4.278   1.783   6.020 -0.2295  0.0369 -0.8278
 3031SOL    HW211890   4.306   1.691   6.016 -1.9343 -0.6075  0.5258
 3031SOL    HW311891   4.351   1.828   6.062  0.1269 -0.9558 -0.3363
 3031SOL    MW411892   4.291   1.777   6.025 -0.4074 -0.1791 -0.5843
 3032SOL     OW11893   2.270   2.065   2.300 -0.0007  0.0918  0.0076
 3032SOL    HW211894   2.325   2.075   2.377 -0.9311  0.4376  0.6521
 3032SOL    HW311895   2.285   1.975   2.270  1.2098  0.3159 -0.0857
 3032SOL    MW411896   2.279   2.055   2.306  0.0362  0.1670  0.0803
 3033SOL     OW11897   4.237   0.945   1.578 -0.1345 -0.5037 -0.5492
 3033SOL    HW211898   4.175   1.017   1.589  3.0273  2.4135 -0.3589
 3033SOL    HW311899   4.240   0.902   1.664  0.4226  1.3955  0.4394
 3033SOL    MW411900   4.229   0.949   1.591  0.3562  0.1317 -0.3937
 3034SOL     OW11901   5.077   0.248   0.888  0.1448 -0.0352 -0.6675
 3034SOL    HW211902   5.149   0.275   0.946 -0.9822 -1.3752  1.4800
 3034SOL    HW311903   5.005   0.307   0.910 -0.1447 -0.2223 -1.1046
 3034SOL    MW411904   5.077   0.259   0.899 -0.0421 -0.2367 -0.4418
 3035SOL     OW11905   0.162   5.290   0.158 -0.8968  0.1105  0.0264
 3035SOL    HW211906   0.212   5.346   0.218 -2.6361 -1.4222  3.2016
 3035SOL    HW311907   0.227   5.255   0.098  0.9577  1.9603  0.8209
 3035SOL    MW411908   0.177   5.293   0.158 -0.8816  0.1524  0.5502
 3036SOL     OW11909   1.796   4.628   4.431  0.0877 -0.0899 -0.1883
 3036SOL    HW211910   1.778   4.621   4.338 -0.3516  0.1309 -0.1219
 3036SOL    HW311911   1.877   4.578   4.444  1.0456  1.2203 -0.9521
 3036SOL    MW411912   1.804   4.620   4.421  0.1562  0.1121 -0.2803
 3037SOL     OW11913   4.026   6.293   4.702  0.4302 -0.2042  0.2889
 3037SOL    HW211914   3.986   6.206   4.695  3.1474 -1.5701  0.6766
 3037SOL    HW311915   4.047   6.317   4.611 -1.2404  0.5962  0.0630
 3037SOL    MW411916   4.023   6.285   4.689  0.5683 -0.2788  0.3102
 3038SOL     OW11917   5.547   4.398   3.744 -0.0848  0.4790  0.3100
 3038SOL    HW211918   5.551   4.454   3.666  1.3343 -0.0650 -0.0348
 3038SOL    HW311919   5.579   4.313   3.714 -0.8852 -0.1490  1.1643
 3038SOL    MW411920   5.552   4.395   3.730 -0.0031  0.3243  0.3772
 3039SOL     OW11921   0.274   1.295   1.006 -0.2048 -0.1099 -0.5622
 3039SOL    HW211922   0.208   1.358   1.037 -0.6279 -0.2539 -1.1510
 3039SOL    HW311923   0.231   1.210   1.013 -0.5019 -0.1018 -1.9946
 3039SOL    MW411924   0.259   1.292   1.011 -0.2998 -0.1278 -0.8289
 3040SOL     OW11925   5.683   0.329   3.376  0.2312  0.1338  0.2291
 3040SOL    HW211926   5.676   0.239   3.408 -1.8660  0.0663 -0.2958
 3040SOL    HW311927   5.637   0.382   3.441  1.4247  0.8723  0.5216
 3040SOL    MW411928   5.676   0.324   3.389  0.1119  0.2223  0.1984
 3041SOL     OW11929   5.002   0.844   5.043  0.5723 -0.6191  0.3379
 3041SOL    HW211930   5.013   0.887   4.958  1.1303  0.1548  0.7859
 3041SOL    HW311931   4.914   0.867   5.070  0.4768 -0.6703  0.0763
 3041SOL    MW411932   4.992   0.853   5.035  0.6333 -0.5238  0.3625
 3042SOL     OW11933   3.566   5.030   2.309  0.2108  1.0051  0.4357
 3042SOL    HW211934   3.526   4.943   2.313 -0.9950  1.5173  0.0874
 3042SOL    HW311935   3.641   5.019   2.251 -0.7234  0.4591 -0.7194
 3042SOL    MW411936   3.571   5.017   2.302 -0.0715  1.0006  0.2373
 3043SOL     OW11937   0.513   0.102   4.121  0.0185  0.2583  0.1552
 3043SOL    HW211938   0.585   0.096   4.184  0.5334  1.8080 -0.2518
 3043SOL    HW311939   0.490   0.195   4.119 -1.5349 -0.1074 -0.2514
 3043SOL    MW411940   0.519   0.113   4.129 -0.1185  0.4145  0.0478
 3044SOL     OW11941   2.037   4.030   4.055 -0.6141 -0.1141  0.4845
 3044SOL    HW211942   2.084   4.050   4.136  0.4036  0.9314 -0.3221
 3044SOL    HW311943   2.098   3.976   4.004 -0.6645  0.3946 -0.1399
 3044SOL    MW411944   2.052   4.026   4.059 -0.4864  0.0910  0.2957
 3045SOL     OW11945   4.641   2.787   2.771  0.2360 -0.4199  0.3349
 3045SOL    HW211946   4.607   2.870   2.804 -0.6930 -0.4568 -0.4657
 3045SOL    HW311947   4.602   2.721   2.827  0.7782 -0.3283  0.8191
 3045SOL    MW411948   4.631   2.789   2.782  0.1849 -0.4127  0.2931
 3046SOL     OW11949   5.353   5.101   3.178  0.8396 -0.0257  0.0095
 3046SOL    HW211950   5.289   5.036   3.148 -0.5250  1.2905 -0.0512
 3046SOL    HW311951   5.407   5.119   3.102  0.3503 -0.1021 -0.3626
 3046SOL    MW411952   5.352   5.094   3.164  0.5950  0.1379 -0.0476
 3047SOL     OW11953   2.331   5.852   2.330 -0.2141 -0.2894 -0.2848
 3047SOL    HW211954   2.372   5.805   2.257 -0.9867 -0.6597 -0.4863
 3047SOL    HW311955   2.253   5.893   2.292  0.2400  0.8582 -0.0276
 3047SOL    MW411956   2.326   5.852   2.316 -0.2562 -0.1868 -0.2774
 3048SOL     OW11957   4.054   5.218   1.634 -0.0047 -0.3326  0.3261
 3048SOL    HW211958   4.136   5.187   1.596  0.4459  0.6107  0.4953
 3048SOL    HW311959   4.068   5.215   1.728 -0.4547 -0.9171  0.3785
 3048SOL    MW411960   4.067   5.214   1.641 -0.0046 -0.2853  0.3554
 3049SOL     OW11961   5.095   1.208   2.440 -0.2536 -0.8986 -0.1925
 3049SOL    HW211962   5.181   1.165   2.441  0.3897  0.3384  1.0840
 3049SOL    HW311963   5.082   1.236   2.531 -0.7404  1.3837 -0.9161
 3049SOL    MW411964   5.104   1.206   2.452 -0.2330 -0.4343 -0.1196
 3050SOL     OW11965   1.039   6.300   6.185  0.2823  0.1747 -0.5507
 3050SOL    HW211966   0.978   6.233   6.152 -0.1293 -0.2861  1.0595
 3050SOL    HW311967   1.026   6.374   6.126 -0.5464 -0.5391 -1.3136
 3050SOL    MW411968   1.029   6.301   6.173  0.1187  0.0197 -0.4389
 3051SOL     OW11969   5.624   0.603   1.044 -0.0139 -0.2078  0.1938
 3051SOL    HW211970   5.622   0.694   1.014 -0.1002 -0.5075 -0.7432
 3051SOL    HW311971   5.573   0.555   0.979 -1.1392 -0.7320  1.4157
 3051SOL    MW411972   5.617   0.609   1.031 -0.1738 -0.3165  0.2314
 3052SOL     OW11973   1.212   4.233   6.172  0.2789  0.7931 -0.0464
 3052SOL    HW211974   1.223   4.139   6.167 -0.3475  0.6939  0.2857
 3052SOL    HW311975   1.296   4.266   6.203 -0.3215  0.0541  2.6738
 3052SOL    MW411976   1.224   4.225   6.176  0.1171  0.6825  0.3563
 3053SOL     OW11977   1.390   5.392   5.843  0.5897 -0.1119 -0.0074
 3053SOL    HW211978   1.377   5.408   5.749 -0.6342 -1.4940 -0.1279
 3053SOL    HW311979   1.306   5.357   5.872  2.4681 -5.2857  0.2730
 3053SOL    MW411980   1.377   5.389   5.834  0.6761 -0.9769  0.0137
 3054SOL     OW11981   0.194   0.909   0.522  0.9033 -0.2535  0.0935
 3054SOL    HW211982   0.164   0.825   0.488  1.0489 -0.6332  0.8715
 3054SOL    HW311983   0.113   0.956   0.544  0.8284 -0.3379 -0.0010
 3054SOL    MW411984   0.179   0.904   0.520  0.9127 -0.3147  0.1837
 3055SOL     OW11985   2.311   4.926   1.156 -0.5800  0.3683  0.0450
 3055SOL    HW211986   2.246   4.976   1.108 -2.3625 -0.7928  1.1430
 3055SOL    HW311987   2.328   4.977   1.235 -1.6723 -0.2693  0.7044
 3055SOL    MW411988   2.305   4.939   1.160 -0.9593  0.1310  0.2769
 3056SOL     OW11989   2.744   1.065   3.221  0.3025  0.0593  0.3560
 3056SOL    HW211990   2.734   0.995   3.155  0.5690 -0.9669  1.3702
 3056SOL    HW311991   2.727   1.021   3.304  0.9088  1.1196  1.0544
 3056SOL    MW411992   2.740   1.050   3.223  0.4177  0.0638  0.5820
 3057SOL     OW11993   1.385   3.290   0.934 -0.3590 -0.0834 -0.8044
 3057SOL    HW211994   1.328   3.366   0.928 -2.1473 -1.3976 -1.3150
 3057SOL    HW311995   1.327   3.215   0.918  0.9748 -1.7049  1.3346
 3057SOL    MW411996   1.370   3.290   0.931 -0.4190 -0.4707 -0.5895
 3058SOL     OW11997   4.791   4.743   6.207  0.3004  0.3316  0.4338
 3058SOL    HW211998   4.807   4.827   6.249  0.2461 -0.9866  3.3625
 3058SOL    HW311999   4.699   4.745   6.182  0.0126  0.7671  1.4902
 3058SOL    MW412000   4.781   4.754   6.209  0.2552  0.2151  0.9596
 3059SOL     OW12001   4.571   3.380   4.096 -0.0506  0.0377 -0.2519
 3059SOL    HW212002   4.560   3.335   4.179 -1.1884  0.6064 -0.0751
 3059SOL    HW312003   4.622   3.319   4.042  0.3444 -0.5046  0.7120
 3059SOL    MW412004   4.577   3.366   4.100 -0.1486  0.0412 -0.1014
 3060SOL     OW12005   1.183   6.335   0.012 -0.0655  0.0237 -0.0990
 3060SOL    HW212006   1.141   6.326  -0.074  1.2316  1.8543 -1.0124
 3060SOL    HW312007   1.271   6.299  -0.001  0.6947  1.7314 -0.0822
 3060SOL    MW412008   1.189   6.329  -0.001  0.2060  0.4905 -0.2173
 3061SOL     OW12009   5.089   1.193   0.692 -0.3694  0.5887  0.2531
 3061SOL    HW212010   5.066   1.101   0.677  0.3648  0.6473 -1.4945
 3061SOL    HW312011   5.029   1.242   0.635  1.6680  0.9351 -1.7343
 3061SOL    MW412012   5.078   1.187   0.682 -0.0037  0.6421 -0.2397
 3062SOL     OW12013   0.958   1.958   5.681 -0.1895 -0.6303 -0.6249
 3062SOL    HW212014   1.015   1.897   5.634  0.0933 -0.2289 -0.8029
 3062SOL    HW312015   0.901   1.902   5.733  0.6303 -1.0257 -0.1301
 3062SOL    MW412016   0.958   1.943   5.682 -0.0440 -0.6295 -0.5831
 3063SOL     OW12017   1.509   5.119   5.770  0.0019  0.1703 -0.4194
 3063SOL    HW212018   1.472   5.208   5.769 -0.0198  0.1636 -0.2598
 3063SOL    HW312019   1.553   5.112   5.854 -0.0025  0.0269 -0.4284
 3063SOL    MW412020   1.510   5.130   5.781 -0.0015  0.1505 -0.3995
 3064SOL     OW12021   1.691   5.436   3.084 -0.3382  0.7059  0.2044
 3064SOL    HW212022   1.725   5.493   3.152  2.0210  1.0792 -1.1849
 3064SOL    HW312023   1.754   5.364   3.079 -1.9406 -0.7642  0.2473
 3064SOL    MW412024   1.704   5.434   3.092 -0.2383  0.5612  0.0267
 3065SOL     OW12025   2.925   2.935   3.141 -0.2672  0.2036 -0.2958
 3065SOL    HW212026   2.982   2.858   3.147  0.2566  0.6348  0.3131
 3065SOL    HW312027   2.910   2.946   3.047  0.1320 -0.2863 -0.4228
 3065SOL    MW412028   2.930   2.926   3.130 -0.1455  0.1958 -0.2322
 3066SOL     OW12029   5.483   4.215   1.088  0.1293  0.1111  0.2639
 3066SOL    HW212030   5.520   4.127   1.080  1.5224  0.6869  0.1885
 3066SOL    HW312031   5.454   4.220   1.179  0.3506 -0.3182  0.3619
 3066SOL    MW412032   5.484   4.204   1.099  0.3423  0.1304  0.2669
 3067SOL     OW12033   0.141   2.919   1.893 -0.0083  0.5036  0.4699
 3067SOL    HW212034   0.141   3.009   1.926 -0.1762  0.5574  0.3263
 3067SOL    HW312035   0.070   2.917   1.828 -0.8643 -0.0728  1.4041
 3067SOL    MW412036   0.131   2.930   1.888 -0.1434  0.4346  0.5742
 3068SOL     OW12037   1.992   6.142   1.919  0.2464  0.2440  0.3489
 3068SOL    HW212038   2.015   6.227   1.881 -1.9991  0.5480 -0.4337
 3068SOL    HW312039   1.904   6.124   1.887  0.9002 -2.7042 -0.0223
 3068SOL    MW412040   1.984   6.151   1.910  0.0364 -0.1049  0.1967
 3069SOL     OW12041   0.594   1.295   6.097 -0.5049 -0.0181  0.1304
 3069SOL    HW212042   0.676   1.312   6.143 -0.1539 -0.1453 -0.4321
 3069SOL    HW312043   0.526   1.301   6.164  0.0042 -0.2928  0.6764
 3069SOL    MW412044   0.596   1.298   6.112 -0.3914 -0.0711  0.1282
 3070SOL     OW12045   1.248   0.236   5.919 -0.0086 -0.2553  0.5882
 3070SOL    HW212046   1.173   0.211   5.973 -1.1647 -0.5458 -1.0838
 3070SOL    HW312047   1.211   0.291   5.850  1.6699  1.4902  0.9807
 3070SOL    MW412048   1.233   0.240   5.917  0.0603 -0.0634  0.4194
 3071SOL     OW12049   5.682   5.151   3.470  0.2997 -0.0514 -0.2844
 3071SOL    HW212050   5.614   5.176   3.532  0.3609  1.2777 -0.7177
 3071SOL    HW312051   5.635   5.101   3.402 -0.2575  0.8344 -0.5697
 3071SOL    MW412052   5.667   5.148   3.469  0.2342  0.2408 -0.3792
 3072SOL     OW12053   1.306   1.853   5.857 -0.0233 -0.4469  0.0219
 3072SOL    HW212054   1.373   1.789   5.883  1.1254 -0.1597 -2.0193
 3072SOL    HW312055   1.272   1.820   5.774  0.0061  1.1343 -0.6538
 3072SOL    MW412056   1.311   1.841   5.850  0.1321 -0.2004 -0.3365
 3073SOL     OW12057   6.188   5.199   1.171 -0.0536  0.5622  0.3144
 3073SOL    HW212058   6.214   5.264   1.105 -0.2454  0.4376  0.1162
 3073SOL    HW312059   6.101   5.171   1.144  1.0047 -1.6647 -1.0769
 3073SOL    MW412060   6.180   5.204   1.159  0.0607  0.2519  0.1047
 3074SOL     OW12061   0.395   4.434   2.882  0.1691 -0.0740 -0.8859
 3074SOL    HW212062   0.471   4.379   2.865 -1.5572 -2.2616 -2.0078
 3074SOL    HW312063   0.341   4.425   2.803 -1.8190  0.4210  0.3377
 3074SOL    MW412064   0.398   4.426   2.869 -0.3210 -0.2974 -0.8725
 3075SOL     OW12065   5.884   3.300   5.945 -0.4083  0.0536 -0.4096
 3075SOL    HW212066   5.855   3.326   6.033 -1.3722 -2.0787 -0.0492
 3075SOL    HW312067   5.962   3.353   5.929 -0.7366  1.1467  1.3461
 3075SOL    MW412068   5.891   3.311   5.955 -0.5788 -0.0835 -0.1304
 3076SOL     OW12069   0.611   2.035   0.033  0.4547 -0.9502 -0.6455
 3076SOL    HW212070   0.703   2.047   0.007  0.8104 -0.2681  0.7968
 3076SOL    HW312071   0.615   2.015   0.127 -0.9244  1.0530 -0.0705
 3076SOL    MW412072   0.624   2.034   0.042  0.3197 -0.5959 -0.3793
 3077SOL     OW12073   2.490   0.391   3.899 -0.5061  0.0233  0.0856
 3077SOL    HW212074   2.482   0.296   3.888 -0.9408  0.1759 -1.0550
 3077SOL    HW312075   2.570   0.402   3.950 -0.7181 -0.9746  0.6799
 3077SOL    MW412076   2.499   0.380   3.904 -0.5914 -0.0882  0.0135
 3078SOL     OW12077   3.756   1.629   2.681  0.1680 -0.0105  0.1755
 3078SOL    HW212078   3.805   1.694   2.631  0.0649 -0.9618 -1.2146
 3078SOL    HW312079   3.756   1.663   2.770  2.4973  0.5132  0.0431
 3078SOL    MW412080   3.762   1.642   2.686  0.4617 -0.0669 -0.0254
 3079SOL     OW12081   3.319   3.628   5.892  0.4293  0.0588  0.3119
 3079SOL    HW212082   3.236   3.598   5.929  0.3853  0.2899  0.4021
 3079SOL    HW312083   3.357   3.683   5.961  0.5154  0.1979  0.1529
 3079SOL    MW412084   3.313   3.631   5.906  0.4349  0.1076  0.3028
 3080SOL     OW12085   2.102   4.602   2.125  0.7405 -0.4440 -0.1206
 3080SOL    HW212086   2.180   4.629   2.175  0.4718  0.5913 -0.2372
 3080SOL    HW312087   2.059   4.538   2.182  0.2995  0.9041  1.1309
 3080SOL    MW412088   2.107   4.597   2.139  0.6469 -0.1296  0.0291
 3081SOL     OW12089   1.990   3.056   2.084 -0.1926  0.4210 -0.3763
 3081SOL    HW212090   2.070   3.028   2.040 -0.3859 -0.2668 -0.3008
 3081SOL    HW312091   2.005   3.148   2.106  0.4148  0.4048 -0.7199
 3081SOL    MW412092   2.002   3.065   2.081 -0.1380  0.3281 -0.4117
 3082SOL     OW12093   1.545   2.895   1.136 -0.5369 -0.0767  0.2948
 3082SOL    HW212094   1.556   2.989   1.147 -0.6398  0.2514 -1.9111
 3082SOL    HW312095   1.451   2.883   1.123 -0.7183 -0.6966  1.9448
 3082SOL    MW412096   1.534   2.906   1.136 -0.5744 -0.1152  0.2214
 3083SOL     OW12097   3.134   3.212   3.084 -0.0041  0.4399 -0.0961
 3083SOL    HW212098   3.104   3.124   3.108  0.9083  0.5443  1.5992
 3083SOL    HW312099   3.062   3.270   3.111 -0.5127  0.2562 -1.0129
 3083SOL    MW412100   3.120   3.208   3.091  0.0491  0.4294  0.0066
 3084SOL     OW12101   2.587   4.627   2.481 -0.0571 -0.0960  0.2375
 3084SOL    HW212102   2.548   4.584   2.557  0.9686 -0.6485  0.4594
 3084SOL    HW312103   2.543   4.712   2.477 -1.1564 -0.6322  0.5778
 3084SOL    MW412104   2.576   4.633   2.491 -0.0668 -0.2396  0.3117
 3085SOL     OW12105   1.670   3.064   0.895 -0.0603 -0.1698  0.1257
 3085SOL    HW212106   1.623   3.023   0.967 -2.1763 -0.0609 -1.1340
 3085SOL    HW312107   1.654   3.007   0.820  3.0736 -0.9346 -0.1159
 3085SOL    MW412108   1.662   3.051   0.894  0.0740 -0.2563 -0.0724
 3086SOL     OW12109   1.282   0.373   4.727 -0.0090 -0.1069  0.2649
 3086SOL    HW212110   1.257   0.457   4.765 -0.7923  0.5610 -1.5913
 3086SOL    HW312111   1.375   0.384   4.704  1.0599 -1.1838  3.5201
 3086SOL    MW412112   1.291   0.386   4.729  0.0287 -0.1609  0.4495
 3087SOL     OW12113   6.365   2.222   3.875 -0.1226 -0.1647 -0.3513
 3087SOL    HW212114   6.397   2.148   3.926  0.1145 -0.0605 -0.3500
 3087SOL    HW312115   6.392   2.204   3.785  0.9953  0.5015 -0.1676
 3087SOL    MW412116   6.373   2.210   3.870  0.0562 -0.0630 -0.3269
 3088SOL     OW12117   0.245   0.095   3.375 -0.0157  0.1740 -0.0064
 3088SOL    HW212118   0.208   0.016   3.414 -0.6292  1.0527  1.2555
 3088SOL    HW312119   0.334   0.071   3.351 -0.6269 -1.2899 -0.9226
 3088SOL    MW412120   0.252   0.082   3.377 -0.1773  0.0968  0.0392
 3089SOL     OW12121   5.821   6.264   6.408 -0.2394  0.0877  0.0036
 3089SOL    HW212122   5.756   6.198   6.429 -0.3834 -0.4313 -1.9162
 3089SOL    HW312123   5.855   6.239   6.322  1.6071  1.0452  0.3905
 3089SOL    MW412124   5.817   6.252   6.400 -0.0148  0.1456 -0.1986
 3090SOL     OW12125   2.065   3.314   2.182 -1.1296  0.5875  0.0333
 3090SOL    HW212126   2.145   3.362   2.204 -0.5125  0.1069 -1.0738
 3090SOL    HW312127   2.005   3.381   2.150 -1.8653  1.2301  2.5093
 3090SOL    MW412128   2.068   3.329   2.181 -1.1453  0.6088  0.2139
 3091SOL     OW12129   3.325   3.873   4.966  0.2869  0.2272 -0.1536
 3091SOL    HW212130   3.367   3.819   5.032 -2.2246 -0.7364  0.7603
 3091SOL    HW312131   3.396   3.927   4.931  1.8168  0.4267  2.9461
 3091SOL    MW412132   3.340   3.873   4.970  0.1574  0.1264  0.3759
 3092SOL     OW12133   1.211   3.859   0.463 -0.1079  0.0753 -0.4822
 3092SOL    HW212134   1.283   3.915   0.433  1.7939 -0.3350  2.7569
 3092SOL    HW312135   1.233   3.773   0.428  1.2481 -0.1119  0.7155
 3092SOL    MW412136   1.224   3.855   0.454  0.3219 -0.0035  0.1032
 3093SOL     OW12137   5.036   1.172   2.029 -0.5633 -0.9516  0.8769
 3093SOL    HW212138   5.014   1.265   2.040 -0.5059 -0.8091 -0.1365
 3093SOL    HW312139   5.120   1.163   2.074 -0.7664 -0.6065  1.3373
 3093SOL    MW412140   5.044   1.183   2.037 -0.5825 -0.8873  0.8040
 3094SOL     OW12141   0.671   0.905   1.945 -0.0784  0.5052  0.4200
 3094SOL    HW212142   0.699   0.916   2.036  1.2797 -0.2909  0.1237
 3094SOL    HW312143   0.582   0.940   1.943 -0.0311  0.7849  1.9893
 3094SOL    MW412144   0.663   0.911   1.957  0.1070  0.4371  0.5880
 3095SOL     OW12145   1.984   2.828   3.988 -0.0005 -0.1432  0.3972
 3095SOL    HW212146   2.062   2.834   3.932 -0.0208  0.3498  0.4234
 3095SOL    HW312147   1.975   2.915   4.026 -1.8906  0.5212 -1.3823
 3095SOL    MW412148   1.993   2.840   3.985 -0.2525  0.0095  0.1659
 3096SOL     OW12149   1.286   2.875   5.482  0.4683  0.1967  0.1194
 3096SOL    HW212150   1.283   2.813   5.409 -0.6647  0.0049  0.2969
 3096SOL    HW312151   1.276   2.961   5.442  0.4945  0.1373 -0.0134
 3096SOL    MW412152   1.284   2.878   5.467  0.3223  0.1635  0.1253
 3097SOL     OW12153   6.231   0.542   5.448  0.6956 -0.1319  0.0500
 3097SOL    HW212154   6.254   0.607   5.382 -0.3754 -0.9541 -1.1622
 3097SOL    HW312155   6.149   0.503   5.417  1.2765 -2.0319  0.7715
 3097SOL    MW412156   6.223   0.546   5.435  0.6310 -0.4910 -0.0147
 3098SOL     OW12157   4.348   2.901   6.152  0.2383  0.5686  0.6991
 3098SOL    HW212158   4.288   2.972   6.126 -0.8873 -0.3097  0.8166
 3098SOL    HW312159   4.382   2.929   6.238  1.2270  1.7986 -0.0478
 3098SOL    MW412160   4.345   2.914   6.160  0.2202  0.6150  0.6161
 3099SOL     OW12161   2.170   4.501   3.286 -0.4499  0.0779  0.1402
 3099SOL    HW212162   2.222   4.486   3.207 -0.8685 -1.0761  0.0777
 3099SOL    HW312163   2.080   4.504   3.254 -0.5163  1.1510  0.3790
 3099SOL    MW412164   2.165   4.500   3.271 -0.5139  0.0672  0.1635
 3100SOL     OW12165   1.566   5.063   3.788  0.1002 -0.1531  0.2293
 3100SOL    HW212166   1.471   5.063   3.804  0.1907  1.6507  1.0496
 3100SOL    HW312167   1.601   5.119   3.857  1.5388  0.8210 -1.2242
 3100SOL    MW412168   1.558   5.070   3.800  0.3020  0.2134  0.1458
 3101SOL     OW12169   2.595   5.441   1.913 -1.1048  0.5469 -0.0954
 3101SOL    HW212170   2.673   5.388   1.934 -0.4472  0.9827 -1.3448
 3101SOL    HW312171   2.582   5.496   1.990 -0.0018  0.6596  0.0268
 3101SOL    MW412172   2.604   5.441   1.926 -0.8725  0.6193 -0.2441
 3102SOL     OW12173   3.777   2.997   1.232 -1.1235 -0.0588  0.6496
 3102SOL    HW212174   3.841   2.927   1.223 -0.1416  0.6971  1.4978
 3102SOL    HW312175   3.781   3.022   1.325 -0.0876  2.3589  0.0421
 3102SOL    MW412176   3.786   2.991   1.243 -0.8572  0.3599  0.6813
 3103SOL     OW12177   2.341   4.998   1.786  0.0075  0.1144  0.1772
 3103SOL    HW212178   2.348   4.908   1.755  0.0064 -0.2771  1.2455
 3103SOL    HW312179   2.358   4.991   1.880 -3.6768  0.6545  1.0405
 3103SOL    MW412180   2.345   4.985   1.795 -0.4787  0.1340  0.4321
 3104SOL     OW12181   3.296   3.853   3.345  0.2311 -0.2730 -0.1561
 3104SOL    HW212182   3.304   3.770   3.298  2.8461 -0.7392  0.9180
 3104SOL    HW312183   3.367   3.850   3.409  0.3601  2.7906 -0.0442
 3104SOL    MW412184   3.306   3.842   3.348  0.5931  0.0697  0.0004
 3105SOL     OW12185   1.508   1.260   1.085 -0.2707 -0.0219 -0.4610
 3105SOL    HW212186   1.429   1.294   1.044 -1.7184 -2.5951 -0.0126
 3105SOL    HW312187   1.492   1.270   1.179 -0.6840 -1.6421 -0.3174
 3105SOL    MW412188   1.495   1.266   1.092 -0.5163 -0.5752 -0.3829
 3106SOL     OW12189   6.305   4.968   3.651  0.1237 -0.0184 -0.4749
 3106SOL    HW212190   6.384   4.987   3.701 -1.6663  3.1745  1.4551
 3106SOL    HW312191   6.239   4.946   3.716 -0.9106 -1.4605 -1.9364
 3106SOL    MW412192   6.307   4.968   3.666 -0.2489  0.2126 -0.4131
 3107SOL     OW12193   5.035   5.811   2.579 -0.7424 -0.5704  0.8892
 3107SOL    HW212194   4.956   5.851   2.542 -0.2711  0.8396  1.3648
 3107SOL    HW312195   5.104   5.876   2.565  0.0846 -1.2777  1.5567
 3107SOL    MW412196   5.034   5.825   2.572 -0.5711 -0.4777  1.0401
 3108SOL     OW12197   0.196   2.768   0.383  0.1031 -0.5447  0.7474
 3108SOL    HW212198   0.254   2.842   0.365  0.6873 -0.9956  0.7482
 3108SOL    HW312199   0.205   2.713   0.305 -1.4087  0.0578  0.1143
 3108SOL    MW412200   0.205   2.771   0.370 -0.0193 -0.5247  0.6639
 3109SOL     OW12201   0.959   1.081   2.804 -0.2565 -0.3217  0.4371
 3109SOL    HW212202   0.945   1.109   2.714  0.2926 -0.7447  0.2121
 3109SOL    HW312203   0.878   1.105   2.850 -1.0341 -1.1804 -0.4341
 3109SOL    MW412204   0.946   1.088   2.798 -0.2866 -0.4908  0.2925
 3110SOL     OW12205   2.976   3.329   4.456 -0.2584 -0.3046  0.0189
 3110SOL    HW212206   2.989   3.362   4.545 -0.5680  3.0454 -1.0419
 3110SOL    HW312207   3.039   3.258   4.447  0.8489  0.2649  2.4228
 3110SOL    MW412208   2.986   3.324   4.466 -0.1531  0.2125  0.1961
 3111SOL     OW12209   5.666   0.686   1.321  0.4112  0.1324 -0.4694
 3111SOL    HW212210   5.741   0.628   1.334 -1.1458 -1.7202  0.7727
 3111SOL    HW312211   5.620   0.650   1.245 -0.2216  0.1004 -0.0813
 3111SOL    MW412212   5.670   0.674   1.313  0.1223 -0.1162 -0.2543
 3112SOL     OW12213   6.058   6.248   4.690 -0.1887 -0.0879  0.2747
 3112SOL    HW212214   6.054   6.328   4.744  1.4835 -0.4300  0.9602
 3112SOL    HW312215   5.982   6.255   4.632  0.3543  2.4375 -0.2787
 3112SOL    MW412216   6.048   6.260   4.690  0.1036  0.2002  0.2921
 3113SOL     OW12217   3.443   2.776   1.082  0.0928  0.0564  0.0344
 3113SOL    HW212218   3.462   2.750   1.172  1.7358  1.3981  0.1222
 3113SOL    HW312219   3.522   2.752   1.034 -0.3791  0.2753 -0.8651
 3113SOL    MW412220   3.456   2.769   1.088  0.2473  0.2623 -0.0727
 3114SOL     OW12221   6.259   1.647   6.160 -0.1168 -0.2513  0.4291
 3114SOL    HW212222   6.244   1.552   6.153 -1.4534  0.0191 -0.8669
 3114SOL    HW312223   6.355   1.656   6.157  0.0074 -1.5106 -0.4240
 3114SOL    MW412224   6.270   1.635   6.158 -0.2768 -0.3818  0.1455
 3115SOL     OW12225   0.558   0.242   1.330  0.0214  0.1818 -0.3456
 3115SOL    HW212226   0.576   0.230   1.423  2.0403  1.6302 -0.4882
 3115SOL    HW312227   0.615   0.180   1.286  0.1324  0.5033 -0.6604
 3115SOL    MW412228   0.568   0.233   1.336  0.3024  0.4153 -0.4060
 3116SOL     OW12229   6.207   4.817   3.000  0.0772  0.4493  0.0406
 3116SOL    HW212230   6.251   4.895   3.035 -0.5290  1.0960 -0.6171
 3116SOL    HW312231   6.275   4.771   2.952 -0.0016  1.6092 -1.2377
 3116SOL    MW412232   6.222   4.821   2.998 -0.0132  0.6877 -0.2148
 3117SOL     OW12233   1.833   5.320   5.801  0.2114  0.2553 -0.2576
 3117SOL    HW212234   1.803   5.296   5.713 -0.6703 -0.4181  0.2025
 3117SOL    HW312235   1.822   5.239   5.852  0.5734  0.6812  0.4982
 3117SOL    MW412236   1.827   5.306   5.796  0.1428  0.2226 -0.0972
 3118SOL     OW12237   1.145   0.875   2.841 -0.1503 -0.2506 -0.3677
 3118SOL    HW212238   1.116   0.857   2.931  3.1321  1.1757  1.1367
 3118SOL    HW312239   1.089   0.948   2.813  0.4139  1.0313  1.5714
 3118SOL    MW412240   1.134   0.882   2.849  0.3572  0.1067  0.0866
 3119SOL     OW12241   1.272   5.013   3.831  0.2061  0.1498  0.2097
 3119SOL    HW212242   1.281   4.918   3.823 -1.4037 -0.2197  1.9811
 3119SOL    HW312243   1.193   5.025   3.883 -1.9552  2.5976 -3.2488
 3119SOL    MW412244   1.263   5.002   3.837 -0.2915  0.4240 -0.0129
 3120SOL     OW12245   4.700   0.701   4.363 -0.4074 -0.5456 -0.2037
 3120SOL    HW212246   4.609   0.720   4.383 -0.8676 -1.5195 -1.2941
 3120SOL    HW312247   4.721   0.623   4.415 -0.1424 -0.2416  0.1537
 3120SOL    MW412248   4.691   0.693   4.373 -0.4332 -0.6339 -0.3004
 3121SOL     OW12249   1.057   2.231   6.280  0.0464  0.2913 -0.5286
 3121SOL    HW212250   1.071   2.186   6.363  0.2158  2.3522  0.6266
 3121SOL    HW312251   1.138   2.219   6.231  0.0381 -0.7249 -0.3056
 3121SOL    MW412252   1.069   2.224   6.284  0.0677  0.4292 -0.3468
 3122SOL     OW12253   4.435   2.537   3.210 -0.6182 -0.0580 -0.2900
 3122SOL    HW212254   4.376   2.600   3.168  0.1160 -0.8903 -2.7563
 3122SOL    HW312255   4.384   2.501   3.283 -2.2470  1.0063 -0.8431
 3122SOL    MW412256   4.420   2.541   3.214 -0.7362 -0.0274 -0.6884
 3123SOL     OW12257   5.258   2.467   4.972  0.2110 -0.5219 -0.0133
 3123SOL    HW212258   5.275   2.376   4.945  0.7734 -0.8536  1.3802
 3123SOL    HW312259   5.173   2.463   5.015  0.9629 -0.7229  1.4937
 3123SOL    MW412260   5.249   2.454   4.974  0.3844 -0.5922  0.3694
 3124SOL     OW12261   0.086   3.165   1.660  0.0530  0.1633  0.3222
 3124SOL    HW212262   0.115   3.088   1.610 -0.6171  0.4865 -0.6009
 3124SOL    HW312263   0.163   3.220   1.667  0.1501  0.1357 -0.4222
 3124SOL    MW412264   0.100   3.162   1.654 -0.0226  0.2023  0.1022
 3125SOL     OW12265   3.443   5.148   4.330 -0.0204  0.0816 -0.4681
 3125SOL    HW212266   3.451   5.238   4.360  1.3893  0.0815 -0.7764
 3125SOL    HW312267   3.392   5.104   4.397  2.3645  0.2620  1.6108
 3125SOL    MW412268   3.437   5.154   4.342  0.4802  0.1054 -0.2345
 3126SOL     OW12269   5.437   5.236   5.859 -0.2405 -0.3950 -0.9494
 3126SOL    HW212270   5.466   5.306   5.800 -0.7913  1.9194  1.3480
 3126SOL    HW312271   5.500   5.236   5.931 -0.5142 -1.9827 -0.6601
 3126SOL    MW412272   5.449   5.245   5.861 -0.3493 -0.2991 -0.6081
 3127SOL     OW12273   5.753   2.858   1.974  0.0304 -0.0743 -0.2924
 3127SOL    HW212274   5.715   2.852   2.062  2.5441  0.6021  0.9413
 3127SOL    HW312275   5.819   2.789   1.971 -0.7342 -0.7900 -2.0884
 3127SOL    MW412276   5.757   2.848   1.985  0.2612 -0.0795 -0.3666
 3128SOL     OW12277   1.957   3.274   1.206  0.6778  0.3579  0.4523
 3128SOL    HW212278   2.011   3.350   1.231  2.3252 -0.6081 -0.0474
 3128SOL    HW312279   2.020   3.206   1.184 -0.6466  0.1461 -3.4055
 3128SOL    MW412280   1.973   3.275   1.207  0.7204  0.2025 -0.1226
 3129SOL     OW12281   1.039   6.394   5.506 -0.4708  0.1247  0.7153
 3129SOL    HW212282   0.963   6.358   5.461  0.6568 -1.7935  0.2217
 3129SOL    HW312283   1.042   6.346   5.589  0.8032 -0.5982  0.2611
 3129SOL    MW412284   1.029   6.383   5.511 -0.1540 -0.2238  0.5903
 3130SOL     OW12285   3.817   4.717   3.249  0.3892  0.5353  0.4607
 3130SOL    HW212286   3.866   4.690   3.326 -1.0541 -1.5460  0.7517
 3130SOL    HW312287   3.844   4.656   3.181 -0.7338  0.2520  0.2487
 3130SOL    MW412288   3.827   4.705   3.250  0.0506  0.2233  0.4711
 3131SOL     OW12289   1.127   5.251   6.245 -0.0105 -0.3486  0.6562
 3131SOL    HW212290   1.036   5.278   6.229  0.6812  1.4880 -0.5817
 3131SOL    HW312291   1.121   5.158   6.262 -2.2030 -0.1610  1.2988
 3131SOL    MW412292   1.114   5.243   6.245 -0.2085 -0.0816  0.5777
 3132SOL     OW12293   1.261   5.929   1.128  0.1471 -0.2875  0.4102
 3132SOL    HW212294   1.284   5.995   1.063  0.6702 -2.0234 -1.2873
 3132SOL    HW312295   1.177   5.958   1.163 -0.5250  0.3915 -1.6015
 3132SOL    MW412296   1.253   5.941   1.124  0.1274 -0.4269 -0.0792
 3133SOL     OW12297   1.400   2.010   4.391 -0.1062 -0.3698  0.0440
 3133SOL    HW212298   1.308   1.984   4.393 -0.4988  0.9680  0.2003
 3133SOL    HW312299   1.448   1.928   4.377 -1.2028 -1.3290  1.6700
 3133SOL    MW412300   1.395   1.996   4.389 -0.3027 -0.3198  0.2791
 3134SOL     OW12301   6.064   4.056   3.891  0.5058 -0.7620 -0.4964
 3134SOL    HW212302   6.134   4.121   3.902 -0.4341  0.4015 -1.1551
 3134SOL    HW312303   6.014   4.086   3.815 -1.7341 -0.5652  0.9498
 3134SOL    MW412304   6.067   4.069   3.883  0.0863 -0.5825 -0.3925
 3135SOL     OW12305   3.175   0.870   6.011  0.0401  0.2191  0.0796
 3135SOL    HW212306   3.098   0.865   5.954  0.5242 -1.1080 -0.4890
 3135SOL    HW312307   3.191   0.780   6.039  1.9105  0.3128 -0.5440
 3135SOL    MW412308   3.167   0.858   6.007  0.3508  0.0564 -0.0777
 3136SOL     OW12309   3.128   1.334   1.129  0.1392 -0.2310  0.8043
 3136SOL    HW212310   3.118   1.255   1.183  0.5380 -0.0863  1.0960
 3136SOL    HW312311   3.090   1.404   1.183 -0.5349 -0.2788  0.3992
 3136SOL    MW412312   3.121   1.333   1.143  0.1029 -0.2182  0.7894
 3137SOL     OW12313   4.028   6.113   6.157 -0.0447 -0.2147 -0.2119
 3137SOL    HW212314   3.954   6.167   6.186  1.3276  1.9252 -0.4578
 3137SOL    HW312315   3.988   6.031   6.127 -2.3774  1.0803 -0.8896
 3137SOL    MW412316   4.013   6.109   6.157 -0.1714  0.2385 -0.3338
 3138SOL     OW12317   3.634   5.573   1.941  0.0217 -0.1439  0.4370
 3138SOL    HW212318   3.665   5.612   1.859  0.3022 -1.1123  0.0659
 3138SOL    HW312319   3.574   5.638   1.977 -1.0762 -0.2129 -1.1617
 3138SOL    MW412320   3.631   5.587   1.935 -0.0861 -0.2808  0.1771
 3139SOL     OW12321   2.245   4.497   2.457 -0.4833  0.4249 -0.1764
 3139SOL    HW212322   2.318   4.484   2.516 -0.4533  0.3203 -0.2369
 3139SOL    HW312323   2.233   4.413   2.413  0.0279  0.7358 -0.9276
 3139SOL    MW412324   2.253   4.485   2.459 -0.4119  0.4521 -0.2835
 3140SOL     OW12325   2.140   2.554   4.206 -0.1067 -0.0551  0.3495
 3140SOL    HW212326   2.215   2.497   4.189  0.1569  0.2033  0.6227
 3140SOL    HW312327   2.172   2.642   4.186 -0.5926 -0.0244 -0.3248
 3140SOL    MW412328   2.154   2.558   4.201 -0.1360 -0.0169  0.2966
 3141SOL     OW12329   2.457   5.811   2.579  0.9545  0.2680  0.0708
 3141SOL    HW212330   2.407   5.737   2.613  1.1183  0.7328  1.3476
 3141SOL    HW312331   2.419   5.827   2.492  2.0760 -2.4289 -1.0443
 3141SOL    MW412332   2.445   5.803   2.572  1.1241 -0.0265  0.0921
 3142SOL     OW12333   5.525   4.442   5.281 -0.9540  0.3380 -0.5817
 3142SOL    HW212334   5.495   4.517   5.229 -1.1712 -0.0754 -1.0661
 3142SOL    HW312335   5.445   4.394   5.302 -0.8344  0.3417 -0.1198
 3142SOL    MW412336   5.511   4.446   5.277 -0.9669  0.2840 -0.5847
 3143SOL     OW12337   3.277   2.316   2.074 -0.7049 -0.5747 -0.8013
 3143SOL    HW212338   3.278   2.265   2.155 -0.0681  1.4614  0.5466
 3143SOL    HW312339   3.200   2.372   2.081  0.3045  0.8765 -0.7153
 3143SOL    MW412340   3.267   2.317   2.086 -0.4877 -0.1146 -0.6121
 3144SOL     OW12341   1.609   4.101   4.752  0.3486  0.1326 -0.1430
 3144SOL    HW212342   1.689   4.049   4.748  0.3010  0.0843 -0.5113
 3144SOL    HW312343   1.606   4.145   4.667 -0.4456 -0.4989 -0.4458
 3144SOL    MW412344   1.619   4.100   4.740  0.2375  0.0429 -0.2315
 3145SOL     OW12345   2.338   4.760   1.668  0.0685  0.3344 -0.6199
 3145SOL    HW212346   2.298   4.684   1.709  0.1582  0.7407  0.2350
 3145SOL    HW312347   2.317   4.751   1.575 -1.6874  0.3253 -0.2544
 3145SOL    MW412348   2.330   4.749   1.661 -0.1513  0.3868 -0.4589
 3146SOL     OW12349   0.630   4.924   0.221 -0.6316  0.6163 -0.3858
 3146SOL    HW212350   0.575   4.972   0.283  0.5925 -0.5335  1.7220
 3146SOL    HW312351   0.656   4.990   0.156 -0.6043  2.3335  1.2771
 3146SOL    MW412352   0.626   4.939   0.221 -0.4665  0.6911  0.1117
 3147SOL     OW12353   1.219   1.104   0.631 -0.6078  0.4086 -0.4233
 3147SOL    HW212354   1.159   1.158   0.682  2.0050  1.7716  1.4307
 3147SOL    HW312355   1.170   1.022   0.617 -2.5193  1.0151  1.8771
 3147SOL    MW412356   1.205   1.100   0.636 -0.5153  0.6685  0.1248
 3148SOL     OW12357   5.260   0.050   6.206 -0.1566  0.4523 -0.6468
 3148SOL    HW212358   5.238   0.138   6.174  0.2845  1.1578  0.8782
 3148SOL    HW312359   5.344   0.061   6.250 -0.7598 -0.4069  0.8009
 3148SOL    MW412360   5.268   0.063   6.208 -0.1780  0.4320 -0.2546
 3149SOL     OW12361   0.995   5.054   1.220 -0.3683 -0.4039  0.0937
 3149SOL    HW212362   0.917   5.086   1.267  0.2163  1.4520 -0.1373
 3149SOL    HW312363   1.033   5.132   1.180  2.1839 -1.0747  1.0010
 3149SOL    MW412364   0.989   5.068   1.221  0.0456 -0.2476  0.1830
 3150SOL     OW12365   3.381   5.910   1.324  0.0063  0.3938 -0.2469
 3150SOL    HW212366   3.329   5.856   1.384  1.5210 -0.9854 -0.0898
 3150SOL    HW312367   3.377   5.863   1.241  1.8745 -0.3766  0.0528
 3150SOL    MW412368   3.374   5.896   1.321  0.4526  0.1102 -0.1866
 3151SOL     OW12369   5.031   4.648   0.542 -0.4733  0.1563 -1.0536
 3151SOL    HW212370   5.090   4.704   0.491 -1.4858 -1.2300 -3.9759
 3151SOL    HW312371   4.988   4.708   0.603  1.4450  1.7746 -1.1872
 3151SOL    MW412372   5.034   4.663   0.544 -0.3538  0.1869 -1.4568
 3152SOL     OW12373   2.241   3.390   3.253 -0.3644  0.1922  0.6541
 3152SOL    HW212374   2.182   3.348   3.191  0.7506 -2.2139  1.1047
 3152SOL    HW312375   2.189   3.460   3.292 -1.7178  0.5026 -1.5373
 3152SOL    MW412376   2.226   3.394   3.250 -0.3958 -0.0843  0.4244
 3153SOL     OW12377   5.241   1.165   4.481  0.2618  0.9405 -0.2747
 3153SOL    HW212378   5.227   1.242   4.426 -0.9536  0.1484 -1.1389
 3153SOL    HW312379   5.315   1.120   4.441  0.0139  0.8817 -0.6671
 3153SOL    MW412380   5.249   1.169   4.469  0.0687  0.8283 -0.4405
 3154SOL     OW12381   4.708   2.912   3.795 -0.0549  0.3066 -0.1988
 3154SOL    HW212382   4.720   2.888   3.886 -0.4201 -0.0346 -0.2428
 3154SOL    HW312383   4.792   2.891   3.754 -0.4757 -1.2676 -0.3167
 3154SOL    MW412384   4.721   2.906   3.801 -0.1586  0.0539 -0.2202
 3155SOL     OW12385   2.781   4.379   5.052  0.0155 -0.1646 -0.2395
 3155SOL    HW212386   2.842   4.386   5.125  0.6686 -1.0689 -0.6699
 3155SOL    HW312387   2.838   4.375   4.975 -0.6530  3.0807 -1.0885
 3155SOL    MW412388   2.797   4.380   5.051  0.0135  0.1442 -0.4083
 3156SOL     OW12389   2.731   0.399   0.234 -0.2054  0.0008 -0.0278
 3156SOL    HW212390   2.760   0.354   0.314  0.9562  2.0224  0.7715
 3156SOL    HW312391   2.781   0.481   0.234  0.1185 -0.1114 -3.0627
 3156SOL    MW412392   2.742   0.404   0.245 -0.0094  0.2527 -0.3227
 3157SOL     OW12393   1.788   5.706   0.634 -0.2808  0.0893 -0.5644
 3157SOL    HW212394   1.776   5.774   0.700 -2.2377 -2.9894  2.5710
 3157SOL    HW312395   1.828   5.633   0.681  0.3839 -1.5337 -3.3838
 3157SOL    MW412396   1.792   5.705   0.649 -0.4513 -0.5310 -0.5227
 3158SOL     OW12397   3.883   3.254   4.141 -0.1574  0.0842 -0.2049
 3158SOL    HW212398   3.842   3.341   4.136 -0.2222  0.1327  0.8306
 3158SOL    HW312399   3.867   3.226   4.232  0.3166 -0.7852 -0.3830
 3158SOL    MW412400   3.875   3.262   4.153 -0.1034 -0.0241 -0.0918
 3159SOL     OW12401   3.869   6.243   3.060 -0.0835 -0.1817 -0.2786
 3159SOL    HW212402   3.892   6.297   2.984  1.3509 -0.7013 -0.2454
 3159SOL    HW312403   3.884   6.153   3.031  0.1337 -0.4058  0.5001
 3159SOL    MW412404   3.874   6.238   3.046  0.1344 -0.2798 -0.1715
 3160SOL     OW12405   4.979   2.390   6.361  0.1341 -0.3445 -0.0281
 3160SOL    HW212406   5.025   2.306   6.364 -1.8402 -1.5314 -0.7536
 3160SOL    HW312407   5.032   2.444   6.303  0.0797 -2.0375 -1.7747
 3160SOL    MW412408   4.992   2.386   6.354 -0.1336 -0.7244 -0.3543
 3161SOL     OW12409   4.007   2.254   4.705 -0.2042 -0.1279 -0.4675
 3161SOL    HW212410   4.012   2.259   4.610  0.4294 -0.3159 -0.4450
 3161SOL    HW312411   3.997   2.345   4.734 -1.1233 -0.1284 -0.7455
 3161SOL    MW412412   4.006   2.267   4.696 -0.2419 -0.1528 -0.5012
 3162SOL     OW12413   2.474   2.134   1.911  0.5089  0.5508 -0.0591
 3162SOL    HW212414   2.407   2.084   1.866  0.4071  1.3485 -0.8184
 3162SOL    HW312415   2.515   2.071   1.971 -0.7600  0.0019  0.2655
 3162SOL    MW412416   2.471   2.119   1.913  0.3281  0.5836 -0.1165
 3163SOL     OW12417   3.621   0.132   6.352 -0.1032  0.5662 -0.2573
 3163SOL    HW212418   3.585   0.166   6.434  0.5135  1.3646 -0.3095
 3163SOL    HW312419   3.657   0.209   6.307  2.6546 -0.3031  0.2929
 3163SOL    MW412420   3.621   0.146   6.357  0.3420  0.5569 -0.1916
 3164SOL     OW12421   5.403   5.827   0.062  0.0838 -0.2482 -0.4143
 3164SOL    HW212422   5.364   5.907   0.098 -2.2459 -1.3459 -0.3280
 3164SOL    HW312423   5.497   5.839   0.073 -0.2098  2.3573 -0.1612
 3164SOL    MW412424   5.410   5.839   0.068 -0.2623 -0.0493 -0.3696
 3165SOL     OW12425   5.943   4.185   3.667 -0.1357 -0.1019  0.1352
 3165SOL    HW212426   6.001   4.256   3.637  0.3728 -1.1291 -1.4280
 3165SOL    HW312427   5.948   4.120   3.597  0.3856 -2.2565  2.0732
 3165SOL    MW412428   5.952   4.186   3.654  0.0002 -0.5217  0.1846
 3166SOL     OW12429   3.303   1.725   2.205 -0.3984  0.2289 -0.3695
 3166SOL    HW212430   3.285   1.809   2.162 -0.7463 -0.1031 -0.8910
 3166SOL    HW312431   3.298   1.744   2.299  0.1861  0.9276 -0.4778
 3166SOL    MW412432   3.300   1.739   2.212 -0.3672  0.2773 -0.4526
 3167SOL     OW12433   2.568   1.279   4.323 -0.8107 -0.1250 -0.3456
 3167SOL    HW212434   2.583   1.297   4.230  1.1138 -0.5136 -0.1615
 3167SOL    HW312435   2.556   1.184   4.326  0.7530 -0.3391 -0.0545
 3167SOL    MW412436   2.568   1.269   4.311 -0.3505 -0.2045 -0.2829
 3168SOL     OW12437   1.695   5.807   2.470 -0.1174  0.6806  0.2915
 3168SOL    HW212438   1.723   5.879   2.526  0.2029 -1.2371  2.8153
 3168SOL    HW312439   1.613   5.777   2.508 -0.5290  0.0385 -1.0162
 3168SOL    MW412440   1.688   5.812   2.482 -0.1295  0.3428  0.4519
 3169SOL     OW12441   1.037   4.337   3.067  0.3482 -0.5970  0.3634
 3169SOL    HW212442   0.981   4.369   3.137  0.1513 -1.0076  0.3942
 3169SOL    HW312443   1.126   4.351   3.099  0.3177  1.2404 -0.1965
 3169SOL    MW412444   1.041   4.343   3.080  0.3182 -0.4087  0.2936
 3170SOL     OW12445   4.945   3.135   4.361 -0.0614 -0.2971  0.2388
 3170SOL    HW212446   4.920   3.217   4.403 -0.1551  0.5153 -1.3356
 3170SOL    HW312447   4.913   3.143   4.271  0.3973 -1.8436 -0.0977
 3170SOL    MW412448   4.938   3.147   4.355 -0.0133 -0.3939 -0.0133
 3171SOL     OW12449   4.768   3.841   5.763 -0.1136  0.2486 -0.2142
 3171SOL    HW212450   4.775   3.773   5.695  1.4416 -0.6828  0.8098
 3171SOL    HW312451   4.739   3.794   5.841 -3.9935  1.6279 -0.5720
 3171SOL    MW412452   4.765   3.826   5.764 -0.4203  0.3077 -0.1263
 3172SOL     OW12453   2.228   5.085   0.655  0.0502 -0.1873  0.1416
 3172SOL    HW212454   2.289   5.111   0.586 -1.3552  0.0813 -1.0352
 3172SOL    HW312455   2.142   5.108   0.621 -0.6309  1.1044  2.4791
 3172SOL    MW412456   2.225   5.092   0.641 -0.2251  0.0186  0.2947
 3173SOL     OW12457   2.714   5.332   4.257  0.0374  0.2613  0.1592
 3173SOL    HW212458   2.674   5.261   4.206 -1.2142  0.9700  0.1162
 3173SOL    HW312459   2.655   5.344   4.331  0.0132  1.5365 -0.0606
 3173SOL    MW412460   2.701   5.324   4.260 -0.1309  0.5230  0.1245
 3174SOL     OW12461   0.052   5.776   2.562 -0.3090  0.2225  0.0640
 3174SOL    HW212462   0.034   5.730   2.644  0.0228 -1.6669 -0.8572
 3174SOL    HW312463   0.009   5.722   2.495 -0.1017  1.4131 -1.0646
 3174SOL    MW412464   0.044   5.763   2.564 -0.2379  0.1303 -0.2065
 3175SOL     OW12465   3.397   2.708   2.341 -0.2828 -0.0593  0.3120
 3175SOL    HW212466   3.390   2.791   2.388 -0.7625  1.4274 -2.2577
 3175SOL    HW312467   3.311   2.667   2.352 -0.1812 -0.0533  1.2265
 3175SOL    MW412468   3.385   2.713   2.349 -0.3327  0.1377  0.0936
 3176SOL     OW12469   2.820   6.224   0.865  0.3680 -0.3470  0.1023
 3176SOL    HW212470   2.792   6.212   0.774  0.4082 -0.8354  0.1517
 3176SOL    HW312471   2.841   6.136   0.895 -0.6228 -0.3254  0.9089
 3176SOL    MW412472   2.819   6.211   0.857  0.2426 -0.4086  0.2152
 3177SOL     OW12473   2.349   1.845   3.467  0.0950 -0.1903  0.0049
 3177SOL    HW212474   2.359   1.791   3.388  1.4485 -0.4839  0.3500
 3177SOL    HW312475   2.254   1.853   3.479 -0.1390 -1.7601 -0.5671
 3177SOL    MW412476   2.338   1.839   3.458  0.2427 -0.4362 -0.0251
 3178SOL     OW12477   4.974   5.808   4.711  0.1896  0.1570 -0.5995
 3178SOL    HW212478   4.912   5.737   4.695  1.3518 -1.1002  0.2678
 3178SOL    HW312479   4.982   5.812   4.806  0.6553  1.0085 -0.6645
 3178SOL    MW412480   4.967   5.800   4.721  0.4044  0.1035 -0.4936
 3179SOL     OW12481   5.325   6.282   4.600 -0.3172 -0.6113 -0.3680
 3179SOL    HW212482   5.406   6.236   4.576 -0.5982 -0.5729 -1.4613
 3179SOL    HW312483   5.264   6.212   4.625  0.5311 -0.5542  2.1386
 3179SOL    MW412484   5.328   6.267   4.600 -0.2424 -0.5987 -0.1815
 3180SOL     OW12485   3.914   2.746   3.898  0.6190  0.5569  0.1101
 3180SOL    HW212486   3.965   2.804   3.842 -1.4731  1.7008 -0.7272
 3180SOL    HW312487   3.825   2.783   3.896 -0.5733 -2.1071  0.3968
 3180SOL    MW412488   3.909   2.759   3.891  0.1856  0.3564  0.0375
 3181SOL     OW12489   4.602   1.786   3.112 -1.2012  0.6412  0.0093
 3181SOL    HW212490   4.628   1.865   3.160 -1.9697  0.7089  0.3359
 3181SOL    HW312491   4.545   1.739   3.173  0.8465 -1.2220  0.6174
 3181SOL    MW412492   4.598   1.790   3.126 -1.0324  0.4043  0.1326
 3182SOL     OW12493   0.493   4.474   2.452 -0.4505  0.3120  0.0373
 3182SOL    HW212494   0.426   4.543   2.451 -1.1821 -0.3879 -0.3545
 3182SOL    HW312495   0.572   4.518   2.422 -0.9273  0.9679 -0.3008
 3182SOL    MW412496   0.494   4.489   2.448 -0.6099  0.3062 -0.0590
 3183SOL     OW12497   5.525   5.854   0.971 -0.6396 -0.4780  0.1489
 3183SOL    HW212498   5.531   5.822   1.061 -1.4126  0.6540  0.6264
 3183SOL    HW312499   5.599   5.813   0.926  1.2342  0.7964  1.9017
 3183SOL    MW412500   5.536   5.844   0.977 -0.4943 -0.1605  0.4432
 3184SOL     OW12501   1.292   0.144   6.275  0.8357 -1.0041 -0.4510
 3184SOL    HW212502   1.353   0.175   6.342  1.9174 -1.8419 -1.0025
 3184SOL    HW312503   1.238   0.079   6.320 -1.2777  1.3802  0.6456
 3184SOL    MW412504   1.293   0.139   6.290  0.6996 -0.8001 -0.3791
 3185SOL     OW12505   4.874   5.592   6.351  0.2204  0.2219 -0.1220
 3185SOL    HW212506   4.833   5.639   6.279  3.0123  1.2900 -1.1011
 3185SOL    HW312507   4.822   5.512   6.359 -1.8231  1.3225 -1.4618
 3185SOL    MW412508   4.861   5.588   6.343  0.3191  0.5081 -0.4280
 3186SOL     OW12509   1.602   4.693   0.908  0.0058 -0.3081  0.1059
 3186SOL    HW212510   1.656   4.768   0.885 -0.6236 -0.3162 -1.5162
 3186SOL    HW312511   1.517   4.730   0.931 -0.8543 -0.5535 -2.3922
 3186SOL    MW412512   1.598   4.708   0.908 -0.1907 -0.3415 -0.4377
 3187SOL     OW12513   2.719   4.418   5.869 -0.1204  0.2007  0.5905
 3187SOL    HW212514   2.802   4.378   5.894 -0.5449 -1.2607 -0.1939
 3187SOL    HW312515   2.676   4.440   5.952  0.5350 -0.1243  1.0211
 3187SOL    MW412516   2.724   4.416   5.883 -0.0900 -0.0350  0.5439
 3188SOL     OW12517   5.827   6.407   5.749 -0.3253 -0.3367  0.0185
 3188SOL    HW212518   5.803   6.489   5.704 -2.7901 -1.0464 -0.1292
 3188SOL    HW312519   5.901   6.373   5.699 -1.1256  0.3720 -1.7375
 3188SOL    MW412520   5.833   6.413   5.736 -0.7561 -0.3368 -0.2327
 3189SOL     OW12521   4.938   2.241   5.443  0.2794 -0.3505 -0.1534
 3189SOL    HW212522   4.949   2.228   5.349 -0.1864  0.5542 -0.3443
 3189SOL    HW312523   4.878   2.171   5.469 -0.5084  0.0719 -0.7578
 3189SOL    MW412524   4.931   2.230   5.434  0.1140 -0.1754 -0.2583
 3190SOL     OW12525   4.487   0.139   5.280 -0.3595 -0.7925  0.2524
 3190SOL    HW212526   4.552   0.069   5.280 -0.1151 -0.5752  0.8951
 3190SOL    HW312527   4.528   0.210   5.232  0.9713  0.2918  2.7870
 3190SOL    MW412528   4.501   0.139   5.274 -0.1516 -0.6208  0.6716
 3191SOL     OW12529   2.806   3.785   5.644 -0.2223 -0.2100 -0.6167
 3191SOL    HW212530   2.798   3.691   5.665  0.0579  0.1428  1.2313
 3191SOL    HW312531   2.759   3.795   5.561 -0.5546 -1.9232 -0.6726
 3191SOL    MW412532   2.799   3.774   5.636 -0.2292 -0.3895 -0.3802
 3192SOL     OW12533   4.691   2.482   2.640  0.2396  0.3815 -0.1095
 3192SOL    HW212534   4.717   2.390   2.637 -0.5451  0.1720 -1.8701
 3192SOL    HW312535   4.730   2.520   2.562  0.0745  1.4248  0.3023
 3192SOL    MW412536   4.700   2.475   2.630  0.1143  0.4915 -0.2875
 3193SOL     OW12537   2.944   3.156   3.495  0.2701 -0.4131  0.7029
 3193SOL    HW212538   2.947   3.186   3.586  0.5459 -0.1158  0.5972
 3193SOL    HW312539   2.921   3.234   3.445  1.1786 -0.3267  0.4044
 3193SOL    MW412540   2.941   3.170   3.500  0.4264 -0.3625  0.6495
 3194SOL     OW12541   6.223   4.785   1.241  0.0165 -0.2191  0.3660
 3194SOL    HW212542   6.287   4.830   1.187 -0.2534 -0.7450 -0.4128
 3194SOL    HW312543   6.260   4.787   1.329  1.2416 -0.7755 -0.1147
 3194SOL    MW412544   6.236   4.791   1.245  0.1425 -0.3619  0.1998
 3195SOL     OW12545   6.284   0.157   1.218 -0.0057  0.6025  0.7483
 3195SOL    HW212546   6.311   0.245   1.242  0.2303  0.1055  2.3768
 3195SOL    HW312547   6.348   0.130   1.152 -1.4916  2.5132 -1.6623
 3195SOL    MW412548   6.296   0.165   1.212 -0.1706  0.7890  0.6451
 3196SOL     OW12549   1.832   3.325   6.117 -0.2505  0.3883 -0.4147
 3196SOL    HW212550   1.736   3.335   6.119 -0.2647  0.3046 -0.7515
 3196SOL    HW312551   1.864   3.404   6.160 -0.4772  0.3306 -0.1332
 3196SOL    MW412552   1.823   3.337   6.123 -0.2823  0.3696 -0.4220
 3197SOL     OW12553   3.859   0.575   5.805 -0.3875 -0.0884 -0.4064
 3197SOL    HW212554   3.768   0.553   5.825  0.1495 -0.9597  1.3191
 3197SOL    HW312555   3.906   0.493   5.818  0.8751  0.7383  0.4321
 3197SOL    MW412556   3.853   0.561   5.810 -0.1501 -0.0943 -0.0681
 3198SOL     OW12557   1.277   0.933   2.604 -0.1548  0.1955  0.1345
 3198SOL    HW212558   1.289   1.027   2.611  0.9599  0.3690 -2.8216
 3198SOL    HW312559   1.248   0.906   2.691  0.3145  3.1126  1.3003
 3198SOL    MW412560   1.275   0.942   2.616  0.0542  0.6033 -0.1017
 3199SOL     OW12561   1.898   1.395   1.353  0.1061 -0.0481 -0.2094
 3199SOL    HW212562   1.951   1.318   1.333 -0.1425 -0.0175 -1.0067
 3199SOL    HW312563   1.835   1.401   1.282  0.3436  1.0965 -0.3573
 3199SOL    MW412564   1.897   1.386   1.341  0.1047  0.1070 -0.3341
 3200SOL     OW12565   3.675   4.706   2.524 -0.0247  0.1950 -0.3129
 3200SOL    HW212566   3.733   4.763   2.575  0.1842  1.1502 -1.5896
 3200SOL    HW312567   3.723   4.623   2.518  0.9496  0.7782 -0.8214
 3200SOL    MW412568   3.689   4.702   2.530  0.1315  0.3980 -0.5484
 3201SOL     OW12569   2.408   5.983   1.417  0.6140  0.1138  0.1796
 3201SOL    HW212570   2.446   5.902   1.382  2.7769  1.0978  0.0611
 3201SOL    HW312571   2.321   5.987   1.378  1.0205 -1.4101 -1.0106
 3201SOL    MW412572   2.402   5.973   1.407  0.9530  0.0426  0.0070
 3202SOL     OW12573   0.261   5.960   0.179 -0.5079  0.0379 -0.1150
 3202SOL    HW212574   0.333   5.898   0.189  0.9108  1.8434  1.6430
 3202SOL    HW312575   0.277   6.003   0.095  0.0956 -0.0121 -0.0260
 3202SOL    MW412576   0.273   5.957   0.169 -0.2411  0.2695  0.1287
 3203SOL     OW12577   4.860   0.725   1.417 -0.3088  0.2061  0.1545
 3203SOL    HW212578   4.883   0.815   1.392  0.6073 -0.2691 -0.7979
 3203SOL    HW312579   4.797   0.736   1.489 -0.8613  1.6155 -0.4848
 3203SOL    MW412580   4.854   0.739   1.423 -0.2608  0.3294 -0.0555
 3204SOL     OW12581   0.371   1.836   2.027  0.7231 -0.0565  0.4601
 3204SOL    HW212582   0.360   1.853   1.933  0.0931  0.2232  0.5781
 3204SOL    HW312583   0.434   1.764   2.031  0.4258 -0.3668 -0.1992
 3204SOL    MW412584   0.378   1.829   2.015  0.6008 -0.0605  0.3887
 3205SOL     OW12585   0.402   6.327   1.233  0.0523  0.3505 -0.0842
 3205SOL    HW212586   0.403   6.402   1.174 -0.0215 -0.2791 -0.8992
 3205SOL    HW312587   0.375   6.363   1.317  0.8284  1.3765 -0.2638
 3205SOL    MW412588   0.399   6.342   1.236  0.1450  0.4028 -0.2154
 3206SOL     OW12589   3.936   1.583   5.330  0.6607  0.2195 -0.2622
 3206SOL    HW212590   3.850   1.565   5.293  0.0702  0.4844  0.9514
 3206SOL    HW312591   3.985   1.502   5.317 -0.2505 -0.4470  0.3626
 3206SOL    MW412592   3.931   1.570   5.323  0.4625  0.1665 -0.0196
 3207SOL     OW12593   5.260   4.523   1.815 -0.5009  0.3730 -0.5331
 3207SOL    HW212594   5.216   4.477   1.744 -1.2892  0.1792  0.0590
 3207SOL    HW312595   5.189   4.547   1.875  0.2559 -0.6021  0.8278
 3207SOL    MW412596   5.245   4.520   1.814 -0.5050  0.2188 -0.2754
 3208SOL     OW12597   2.013   3.774   0.280  0.2366  0.1711  0.0707
 3208SOL    HW212598   1.964   3.706   0.327 -1.4767  1.5360  0.3632
 3208SOL    HW312599   2.029   3.841   0.346  1.1805  0.4252 -0.4075
 3208SOL    MW412600   2.008   3.774   0.295  0.1351  0.3847  0.0462
 3209SOL     OW12601   5.176   5.560   4.490  0.8709  0.4976 -0.8215
 3209SOL    HW212602   5.103   5.575   4.430  0.1323  0.5505  0.0653
 3209SOL    HW312603   5.195   5.646   4.527 -0.3523  0.0932  0.8694
 3209SOL    MW412604   5.169   5.574   4.487  0.6121  0.4512 -0.4814
 3210SOL     OW12605   3.365   2.261   5.668  0.0851  0.1170 -0.0106
 3210SOL    HW212606   3.378   2.265   5.763  0.7644 -2.2170  0.0532
 3210SOL    HW312607   3.453   2.249   5.632 -0.1336  1.2421 -0.9876
 3210SOL    MW412608   3.379   2.260   5.676  0.1459 -0.0425 -0.1311
 3211SOL     OW12609   3.492   0.223   1.101  0.0763 -0.4930  0.1949
 3211SOL    HW212610   3.481   0.317   1.116 -1.6639 -0.8584  1.6866
 3211SOL    HW312611   3.551   0.195   1.171 -0.8482 -0.7530  0.9043
 3211SOL    MW412612   3.498   0.232   1.112 -0.2753 -0.5755  0.4853
 3212SOL     OW12613   5.334   2.094   0.186 -0.1343  0.6555  0.2474
 3212SOL    HW212614   5.286   2.174   0.205 -1.0481 -0.2533  2.0062
 3212SOL    HW312615   5.365   2.064   0.271  0.3579 -0.7439 -0.4013
 3212SOL    MW412616   5.332   2.100   0.200 -0.1899  0.3510  0.3939
 3213SOL     OW12617   4.168   4.901   1.541  0.1948 -0.4106 -0.0028
 3213SOL    HW212618   4.223   4.980   1.535  1.6638 -1.3561  0.4741
 3213SOL    HW312619   4.101   4.923   1.605 -1.0038  1.3311 -1.7418
 3213SOL    MW412620   4.167   4.915   1.549  0.2305 -0.3055 -0.1693
 3214SOL     OW12621   0.956   5.382   2.973  0.5223 -0.0958 -0.5347
 3214SOL    HW212622   0.939   5.388   2.879 -2.1473  0.1888 -0.1287
 3214SOL    HW312623   0.991   5.294   2.986  0.0096 -0.4844 -1.6781
 3214SOL    MW412624   0.958   5.371   2.962  0.1025 -0.1096 -0.6320
 3215SOL     OW12625   0.057   0.222   3.201 -0.2365  0.1546 -0.2895
 3215SOL    HW212626  -0.018   0.207   3.259 -0.3258  2.1661  0.1958
 3215SOL    HW312627   0.125   0.164   3.235 -1.0834 -0.5708  0.2252
 3215SOL    MW412628   0.056   0.212   3.213 -0.3600  0.3243 -0.1576
 3216SOL     OW12629   6.177   0.562   1.382  0.1538 -0.1188  0.5904
 3216SOL    HW212630   6.198   0.655   1.389  1.5277 -0.3098 -0.4312
 3216SOL    HW312631   6.216   0.523   1.460  1.1257 -0.0612  0.1478
 3216SOL    MW412632   6.185   0.569   1.393  0.4633 -0.1364  0.3972
 3217SOL     OW12633   1.283   2.464   4.950 -0.5942  0.3276 -0.1092
 3217SOL    HW212634   1.194   2.456   4.984  0.2442 -1.3157  1.9056
 3217SOL    HW312635   1.282   2.416   4.867 -1.2039 -1.2505  0.7647
 3217SOL    MW412636   1.271   2.457   4.944 -0.5640 -0.0974  0.2719
 3218SOL     OW12637   1.180   4.772   0.565 -0.1584 -0.4345 -0.1335
 3218SOL    HW212638   1.152   4.683   0.586  1.3352 -0.3994  2.3779
 3218SOL    HW312639   1.127   4.828   0.623 -0.8647  0.3440 -1.4631
 3218SOL    MW412640   1.169   4.768   0.576 -0.0545 -0.3272  0.0224
 3219SOL     OW12641   5.418   0.127   2.382  0.5377 -0.4064  0.1875
 3219SOL    HW212642   5.416   0.126   2.478  1.1849  2.2726  0.3046
 3219SOL    HW312643   5.462   0.209   2.360 -0.4960 -0.4612 -2.4187
 3219SOL    MW412644   5.423   0.137   2.392  0.4867 -0.0602 -0.1409
 3220SOL     OW12645   5.455   5.591   0.926 -0.0414 -0.3842  0.3016
 3220SOL    HW212646   5.480   5.671   0.970  0.6349 -0.3277 -0.1650
 3220SOL    HW312647   5.386   5.617   0.865 -0.2252 -0.2690  0.5573
 3220SOL    MW412648   5.449   5.605   0.924  0.0236 -0.3615  0.2737
 3221SOL     OW12649   2.128   4.831   5.377  0.3907 -0.7113 -0.0811
 3221SOL    HW212650   2.169   4.917   5.383  0.1372 -0.5865 -0.1335
 3221SOL    HW312651   2.100   4.824   5.286 -1.3655 -0.0249  0.3530
 3221SOL    MW412652   2.130   4.841   5.366  0.1255 -0.6043 -0.0308
 3222SOL     OW12653   2.137   0.782   2.951 -0.1235  0.3779 -0.0262
 3222SOL    HW212654   2.148   0.808   2.860  1.3685 -1.0630 -0.3143
 3222SOL    HW312655   2.224   0.794   2.990 -0.2726 -0.7689  0.7085
 3222SOL    MW412656   2.150   0.787   2.944  0.0537  0.0365  0.0327
 3223SOL     OW12657   5.962   2.474   5.346  0.5594 -0.6384  0.3037
 3223SOL    HW212658   5.948   2.569   5.337  0.5887 -0.7162 -0.7261
 3223SOL    HW312659   5.889   2.445   5.400  0.8072  0.0382  1.0243
 3223SOL    MW412660   5.950   2.483   5.352  0.5960 -0.5594  0.2629
 3224SOL     OW12661   6.041   3.491   1.167  0.3973 -0.0238  0.3002
 3224SOL    HW212662   6.047   3.443   1.084 -0.5821 -0.0574  0.2371
 3224SOL    HW312663   6.127   3.532   1.177  1.1250 -1.4442  0.1509
 3224SOL    MW412664   6.053   3.490   1.157  0.3641 -0.2156  0.2722
 3225SOL     OW12665   1.690   2.038   6.297 -0.2831  0.9446  0.5521
 3225SOL    HW212666   1.726   2.012   6.382  1.5563 -0.6701 -0.6098
 3225SOL    HW312667   1.750   2.105   6.264  1.4802 -1.2319 -1.0742
 3225SOL    MW412668   1.703   2.043   6.304  0.1923  0.4444  0.1842
 3226SOL     OW12669   3.141   0.707   4.015  0.2436  0.3351 -0.0157
 3226SOL    HW212670   3.149   0.613   3.998 -0.6871  0.0772  0.9198
 3226SOL    HW312671   3.199   0.724   4.089  0.0309  0.4171  0.1305
 3226SOL    MW412672   3.150   0.697   4.022  0.0927  0.3119  0.1271
 3227SOL     OW12673   2.641   5.230   5.533 -0.2255 -0.2139 -0.3720
 3227SOL    HW212674   2.733   5.223   5.561 -0.8739 -1.1619  1.6936
 3227SOL    HW312675   2.592   5.243   5.614 -1.8475  1.4703 -1.5465
 3227SOL    MW412676   2.647   5.231   5.548 -0.5251 -0.1168 -0.2544
 3228SOL     OW12677   5.355   4.710   2.866 -0.0171  0.1878 -0.5360
 3228SOL    HW212678   5.409   4.779   2.905 -0.6614  0.6559 -0.4406
 3228SOL    HW312679   5.287   4.694   2.932 -0.5498  0.2981 -1.0515
 3228SOL    MW412680   5.353   4.717   2.880 -0.1724  0.2641 -0.5914
 3229SOL     OW12681   0.120   0.775   2.779  0.2586  0.1078 -0.2935
 3229SOL    HW212682   0.085   0.857   2.814  0.1912 -0.5768  1.3317
 3229SOL    HW312683   0.098   0.777   2.686 -0.7277  1.4202 -0.0536
 3229SOL    MW412684   0.113   0.786   2.772  0.1196  0.1907 -0.0474
 3230SOL     OW12685   2.285   1.894   0.452  0.0610 -0.0814  0.7423
 3230SOL    HW212686   2.209   1.917   0.506  0.5015  1.1406  0.8803
 3230SOL    HW312687   2.286   1.960   0.382  0.1252 -0.9964 -0.1377
 3230SOL    MW412688   2.275   1.906   0.450  0.1276 -0.0409  0.6444
 3231SOL     OW12689   2.478   4.568   0.883  0.0147  0.2655 -0.5903
 3231SOL    HW212690   2.526   4.524   0.813  1.1864  2.0867 -1.0146
 3231SOL    HW312691   2.502   4.520   0.962  0.0672 -0.7498 -1.2058
 3231SOL    MW412692   2.487   4.556   0.884  0.1762  0.3718 -0.7275
 3232SOL     OW12693   5.512   2.266   4.780 -0.6674 -0.1992  0.3429
 3232SOL    HW212694   5.574   2.337   4.799 -0.2122 -0.6115  0.4018
 3232SOL    HW312695   5.479   2.285   4.692  0.2668 -0.5052 -0.0820
 3232SOL    MW412696   5.516   2.278   4.771 -0.4841 -0.2940  0.2946
 3233SOL     OW12697   4.574   0.279   0.896  0.1275 -0.2866 -0.1892
 3233SOL    HW212698   4.524   0.294   0.977  2.3503  0.5015  1.1552
 3233SOL    HW312699   4.525   0.211   0.850 -1.8899  0.0985  1.2146
 3233SOL    MW412700   4.561   0.272   0.901  0.1546 -0.1318  0.1734
 3234SOL     OW12701   2.067   6.421   2.079 -0.4448 -0.8083 -0.3106
 3234SOL    HW212702   2.104   6.406   2.166  0.7341  1.0252 -0.4397
 3234SOL    HW312703   1.973   6.412   2.091 -0.1858 -2.7445  0.6648
 3234SOL    MW412704   2.059   6.418   2.092 -0.2551 -0.8218 -0.1989
 3235SOL     OW12705   5.632   4.266   1.649 -0.0127 -0.2172  0.2914
 3235SOL    HW212706   5.609   4.216   1.727  0.8514  0.7071  1.1642
 3235SOL    HW312707   5.727   4.259   1.642  0.0011  0.3591 -0.2325
 3235SOL    MW412708   5.641   4.259   1.658  0.1031 -0.0192  0.3374
 3236SOL     OW12709   1.601   6.210   4.930  0.4034  0.1351  0.1861
 3236SOL    HW212710   1.655   6.154   4.986 -1.4735 -1.6654  0.3507
 3236SOL    HW312711   1.536   6.248   4.990  0.4021  0.8659 -0.2649
 3236SOL    MW412712   1.599   6.207   4.945  0.1556 -0.0061  0.1483
 3237SOL     OW12713   0.773   3.163   0.177  0.0294 -0.1741  0.1342
 3237SOL    HW212714   0.768   3.083   0.230 -0.2865 -0.8200 -0.8479
 3237SOL    HW312715   0.860   3.160   0.137 -1.1333 -1.7524 -2.4963
 3237SOL    MW412716   0.784   3.152   0.179 -0.1657 -0.4676 -0.3424
 3238SOL     OW12717   0.881   3.007   1.811  0.2286 -0.2453 -0.0479
 3238SOL    HW212718   0.958   3.022   1.866  0.3325  0.0923 -0.2873
 3238SOL    HW312719   0.807   3.017   1.871  0.4011 -2.3673  0.6185
 3238SOL    MW412720   0.882   3.010   1.826  0.2650 -0.4808  0.0084
 3239SOL     OW12721   1.366   6.020   0.483  0.1703  0.0792 -0.1219
 3239SOL    HW212722   1.344   5.929   0.462 -0.5447  0.7100 -2.3426
 3239SOL    HW312723   1.442   6.014   0.540 -0.1072 -1.9096  0.0997
 3239SOL    MW412724   1.373   6.007   0.488  0.0393 -0.1000 -0.3856
 3240SOL     OW12725   0.324   6.058   3.450  0.4450 -0.2585  0.3589
 3240SOL    HW212726   0.364   5.976   3.479  0.9718 -0.0591  0.2044
 3240SOL    HW312727   0.271   6.085   3.525  1.5043  0.0596  1.0262
 3240SOL    MW412728   0.322   6.051   3.464  0.6543 -0.1903  0.4266
 3241SOL     OW12729   4.872   4.033   0.527  0.0059 -0.0688 -0.0989
 3241SOL    HW212730   4.917   4.026   0.443  2.1043  1.5288  0.7739
 3241SOL    HW312731   4.837   3.946   0.544  0.3049 -0.6440 -2.1950
 3241SOL    MW412732   4.874   4.021   0.518  0.3222  0.0661 -0.2603
 3242SOL     OW12733   0.176   0.928   5.759  0.4778 -0.3908 -0.0016
 3242SOL    HW212734   0.236   0.990   5.800  0.3527  0.4681 -1.0750
 3242SOL    HW312735   0.168   0.857   5.823 -0.1061  1.1148  1.6797
 3242SOL    MW412736   0.183   0.927   5.773  0.3842 -0.0789  0.0786
 3243SOL     OW12737   5.084   0.640   0.298  0.1260 -0.1291  0.1576
 3243SOL    HW212738   5.167   0.688   0.305  0.5678 -0.4792 -2.0191
 3243SOL    HW312739   5.039   0.658   0.381  2.4071 -0.0302  1.4534
 3243SOL    MW412740   5.089   0.649   0.310  0.4853 -0.1622  0.0414
 3244SOL     OW12741   6.042   6.410   6.331 -0.0361 -0.5554 -0.4583
 3244SOL    HW212742   5.963   6.372   6.371  0.4542 -1.1239 -0.0028
 3244SOL    HW312743   6.101   6.424   6.405  1.1894 -2.3358 -1.0324
 3244SOL    MW412744   6.039   6.407   6.346  0.1903 -0.8653 -0.4740
 3245SOL     OW12745   3.560   3.250   0.701 -0.7428  0.5326 -0.3087
 3245SOL    HW212746   3.650   3.217   0.705 -1.4299 -1.3445  2.5338
 3245SOL    HW312747   3.513   3.185   0.650 -0.5029  1.6771 -2.0688
 3245SOL    MW412748   3.566   3.237   0.695 -0.8018  0.4359 -0.1659
 3246SOL     OW12749   3.564   6.430   2.050 -0.5571  0.1343 -0.1836
 3246SOL    HW212750   3.542   6.460   2.139 -0.6457 -1.6294  0.4176
 3246SOL    HW312751   3.632   6.491   2.021 -2.5084  2.5461 -0.0791
 3246SOL    MW412752   3.570   6.442   2.058 -0.8262  0.2198 -0.0905
 3247SOL     OW12753   3.378   3.954   4.267 -0.3885  0.1254  0.6721
 3247SOL    HW212754   3.466   3.967   4.302 -0.3033  2.0313 -0.0750
 3247SOL    HW312755   3.323   4.013   4.319 -1.0318 -0.2698  0.4485
 3247SOL    MW412756   3.382   3.964   4.278 -0.4621  0.3247  0.5440
 3248SOL     OW12757   5.341   2.391   2.609  0.0968  0.0081  0.0518
 3248SOL    HW212758   5.317   2.478   2.577 -0.0045 -0.5319 -1.4003
 3248SOL    HW312759   5.264   2.361   2.657  0.5361  1.1450  1.5491
 3248SOL    MW412760   5.328   2.399   2.612  0.1414  0.0868  0.0577
 3249SOL     OW12761   1.093   4.361   4.621  0.1052 -0.3596  1.0083
 3249SOL    HW212762   1.064   4.451   4.610  0.6040 -0.2580  0.5049
 3249SOL    HW312763   1.017   4.316   4.657 -1.2633 -0.4546 -1.7689
 3249SOL    MW412764   1.079   4.367   4.625 -0.0095 -0.3587  0.5755
 3250SOL     OW12765   1.868   5.573   2.567 -0.2840 -0.3065 -0.3790
 3250SOL    HW212766   1.815   5.493   2.560 -0.0875 -0.4132 -0.7276
 3250SOL    HW312767   1.809   5.643   2.541 -1.0695 -0.0606  1.8531
 3250SOL    MW412768   1.853   5.571   2.562 -0.3617 -0.2881 -0.1305
 3251SOL     OW12769   4.587   3.534   5.114 -0.3691  0.0989  0.5710
 3251SOL    HW212770   4.580   3.605   5.178  1.7980  2.0203 -1.1417
 3251SOL    HW312771   4.645   3.471   5.155  1.5901  1.6512  0.3402
 3251SOL    MW412772   4.594   3.535   5.128  0.1753  0.5572  0.3145
 3252SOL     OW12773   1.955   4.816   3.790 -0.5739  0.2660 -0.1121
 3252SOL    HW212774   1.963   4.726   3.822  2.4485  0.2894 -0.5552
 3252SOL    HW312775   1.935   4.868   3.868 -0.0107 -0.5022  0.5582
 3252SOL    MW412776   1.953   4.811   3.804 -0.1008  0.1678 -0.0821
 3253SOL     OW12777   4.281   4.274   0.537 -0.0274 -0.4088  0.0762
 3253SOL    HW212778   4.233   4.191   0.528  1.2986 -1.2283  0.3320
 3253SOL    HW312779   4.369   4.255   0.504  0.5271  0.6854  0.8559
 3253SOL    MW412780   4.286   4.260   0.531  0.2207 -0.3725  0.2128
 3254SOL     OW12781   0.199   0.920   4.706 -0.2265 -0.0751  1.0868
 3254SOL    HW212782   0.158   0.995   4.750  1.3468  2.4053 -1.3031
 3254SOL    HW312783   0.277   0.902   4.759  0.1652  1.0430  0.9423
 3254SOL    MW412784   0.204   0.928   4.719  0.0328  0.3997  0.7524
 3255SOL     OW12785   5.726   5.936   0.554 -0.5536 -0.1089  0.2502
 3255SOL    HW212786   5.667   5.861   0.548 -1.9765  0.9782 -0.1788
 3255SOL    HW312787   5.681   5.996   0.615  0.0556  0.7950 -0.1667
 3255SOL    MW412788   5.712   5.934   0.562 -0.6610  0.1538  0.1386
 3256SOL     OW12789   0.503   0.736   0.227  0.0542  0.4059  0.0750
 3256SOL    HW212790   0.562   0.671   0.191 -1.0165 -0.2170 -0.6269
 3256SOL    HW312791   0.559   0.796   0.275  0.9638 -1.6147  1.6647
 3256SOL    MW412792   0.518   0.736   0.229  0.0329  0.0572  0.1922
 3257SOL     OW12793   0.949   4.860   4.290  0.3233 -0.4535 -0.0299
 3257SOL    HW212794   1.034   4.827   4.262 -0.0103 -0.8161 -0.6485
 3257SOL    HW312795   0.967   4.911   4.368  1.4072  1.1848 -1.2857
 3257SOL    MW412796   0.962   4.862   4.296  0.4223 -0.2852 -0.2772
 3258SOL     OW12797   1.036   5.308   1.117 -0.1508 -0.5091  0.0825
 3258SOL    HW212798   1.026   5.362   1.196 -0.7304 -0.3609 -0.0884
 3258SOL    HW312799   0.970   5.341   1.057  0.1529 -0.7623 -0.3917
 3258SOL    MW412800   1.026   5.319   1.120 -0.1872 -0.5230 -0.0026
 3259SOL     OW12801   1.387   1.351   6.305 -0.7874  0.1116  0.1149
 3259SOL    HW212802   1.392   1.289   6.232 -0.9050  1.1648 -0.8321
 3259SOL    HW312803   1.468   1.403   6.297 -0.3865 -0.3046  1.2663
 3259SOL    MW412804   1.399   1.350   6.294 -0.7500  0.1956  0.1418
 3260SOL     OW12805   0.239   5.584   1.036  0.0158  0.3462 -0.4728
 3260SOL    HW212806   0.290   5.576   1.116 -0.5573 -0.1371 -0.1472
 3260SOL    HW312807   0.296   5.549   0.967 -0.0676 -0.6958 -0.0322
 3260SOL    MW412808   0.253   5.578   1.038 -0.0709  0.1449 -0.3717
 3261SOL     OW12809   4.130   1.394   5.224  0.2681  0.1784  0.4346
 3261SOL    HW212810   4.118   1.392   5.128 -1.1209 -0.0282  0.5814
 3261SOL    HW312811   4.198   1.330   5.241 -0.6164 -1.0083 -0.3076
 3261SOL    MW412812   4.137   1.385   5.213 -0.0318 -0.0054  0.3560
 3262SOL     OW12813   6.164   1.019   1.259  0.4658 -0.4364  0.1501
 3262SOL    HW212814   6.071   1.017   1.281  0.9802 -2.0463  2.6377
 3262SOL    HW312815   6.193   1.107   1.281 -0.3684 -0.0261 -0.3392
 3262SOL    MW412816   6.155   1.030   1.264  0.4236 -0.5947  0.4137
 3263SOL     OW12817   6.020   1.116   3.143 -0.0790 -0.1846 -0.0882
 3263SOL    HW212818   5.988   1.156   3.062 -1.3712  1.1870  1.0388
 3263SOL    HW312819   5.951   1.056   3.169  0.8242 -1.4538 -0.5440
 3263SOL    MW412820   6.007   1.114   3.136 -0.1303 -0.1711  0.0004
 3264SOL     OW12821   5.352   0.530   5.136 -0.0917  0.0302 -0.3967
 3264SOL    HW212822   5.308   0.445   5.129  1.0535 -0.5090 -1.2322
 3264SOL    HW312823   5.280   0.593   5.136 -1.0172 -0.9479  1.1196
 3264SOL    MW412824   5.336   0.527   5.135 -0.0627 -0.1700 -0.3069
 3265SOL     OW12825   2.946   3.248   1.352  0.4685 -0.0736 -0.3170
 3265SOL    HW212826   3.019   3.289   1.304 -0.5870  0.7031 -1.3285
 3265SOL    HW312827   2.960   3.154   1.340  1.2702  0.0601 -0.5415
 3265SOL    MW412828   2.958   3.241   1.344  0.4350  0.0465 -0.4801
 3266SOL     OW12829   5.964   2.342   0.210 -0.2164  0.1078  0.2187
 3266SOL    HW212830   5.994   2.258   0.245  0.8460  0.8886  1.2493
 3266SOL    HW312831   5.887   2.320   0.157 -0.3631 -1.4229  1.0229
 3266SOL    MW412832   5.958   2.328   0.208 -0.0956  0.0088  0.4608
 3267SOL     OW12833   3.725   5.499   6.006 -0.7086  0.1915 -0.6414
 3267SOL    HW212834   3.793   5.453   6.054  0.6691 -0.5650 -3.1596
 3267SOL    HW312835   3.715   5.582   6.052  1.5820  0.1211  0.0812
 3267SOL    MW412836   3.733   5.504   6.019 -0.2246  0.0824 -0.8783
 3268SOL     OW12837   4.959   0.673   2.966 -0.2689  0.1178  0.0262
 3268SOL    HW212838   4.947   0.615   3.041  1.4931 -0.6869 -0.2453
 3268SOL    HW312839   5.034   0.728   2.990 -2.4070  2.9731  0.6277
 3268SOL    MW412840   4.968   0.673   2.979 -0.3185  0.3884  0.0697
 3269SOL     OW12841   3.529   0.769   2.169 -0.5179  0.3504 -0.1817
 3269SOL    HW212842   3.464   0.699   2.167 -0.4851  0.0777  3.1229
 3269SOL    HW312843   3.552   0.778   2.261  3.3601  1.1936 -1.0795
 3269SOL    MW412844   3.523   0.761   2.181 -0.0019  0.4256  0.1359
 3270SOL     OW12845   6.128   2.837   6.166  0.1130 -0.2259  0.4161
 3270SOL    HW212846   6.153   2.760   6.218  0.9937  0.0555  0.4193
 3270SOL    HW312847   6.049   2.810   6.120  0.0984 -0.9455  0.8487
 3270SOL    MW412848   6.121   2.823   6.167  0.2272 -0.2837  0.4736
 3271SOL     OW12849   0.164   1.594   1.741  0.3582 -0.0586 -0.2117
 3271SOL    HW212850   0.219   1.553   1.674 -1.0526 -1.4295 -0.5867
 3271SOL    HW312851   0.084   1.619   1.693 -0.3218 -0.2789  0.7924
 3271SOL    MW412852   0.161   1.592   1.726  0.0823 -0.2686 -0.1287
 3272SOL     OW12853   5.948   0.340   0.135  0.1403 -0.4626 -0.6644
 3272SOL    HW212854   6.043   0.333   0.124  0.1665  0.7530 -1.3375
 3272SOL    HW312855   5.937   0.381   0.221  0.1883 -1.2846 -0.2535
 3272SOL    MW412856   5.959   0.345   0.145  0.1501 -0.4107 -0.6990
 3273SOL     OW12857   0.241   3.591   0.640  0.3354 -0.4309  0.1133
 3273SOL    HW212858   0.218   3.498   0.647 -1.3191  0.0617  2.0335
 3273SOL    HW312859   0.164   3.637   0.673  1.1919  1.6508 -0.6450
 3273SOL    MW412860   0.228   3.585   0.645  0.2301 -0.0913  0.2666
 3274SOL     OW12861   3.617   4.807   3.543 -0.1618 -0.8789 -0.8738
 3274SOL    HW212862   3.554   4.836   3.477 -4.0678 -0.5453  2.5960
 3274SOL    HW312863   3.636   4.716   3.519 -1.8210 -0.9428 -2.1698
 3274SOL    MW412864   3.611   4.799   3.531 -0.8961 -0.8433 -0.5870
 3275SOL     OW12865   2.388   4.326   4.448  0.5686 -0.2538 -0.1750
 3275SOL    HW212866   2.479   4.298   4.433  0.4737 -0.5084 -0.2775
 3275SOL    HW312867   2.335   4.265   4.397  0.1535 -1.8574  1.9944
 3275SOL    MW412868   2.393   4.314   4.440  0.5013 -0.4989  0.0977
 3276SOL     OW12869   5.911   5.238   3.816  0.6621 -0.3700 -0.3097
 3276SOL    HW212870   5.876   5.307   3.871 -0.8192 -1.1580 -0.2042
 3276SOL    HW312871   5.996   5.270   3.787  0.8602  0.6325  1.3178
 3276SOL    MW412872   5.918   5.251   3.819  0.4928 -0.3417 -0.0811
 3277SOL     OW12873   0.108   0.869   3.227  0.2327 -0.2595 -0.0588
 3277SOL    HW212874   0.100   0.897   3.318 -0.1553 -0.1501 -0.1269
 3277SOL    HW312875   0.028   0.900   3.185 -0.0553 -1.1843 -0.2065
 3277SOL    MW412876   0.097   0.877   3.233  0.1435 -0.3671 -0.0873
 3278SOL     OW12877   3.639   2.953   2.790 -0.1169 -0.1961 -0.2197
 3278SOL    HW212878   3.635   3.033   2.843  0.5266 -0.2979 -0.0077
 3278SOL    HW312879   3.719   2.910   2.819  0.4462 -0.0642 -1.5535
 3278SOL    MW412880   3.649   2.958   2.801  0.0423 -0.1921 -0.3677
 3279SOL     OW12881   5.434   0.032   4.805  0.0451 -0.2017  0.1562
 3279SOL    HW212882   5.417  -0.039   4.743 -1.4513 -0.5349  0.9112
 3279SOL    HW312883   5.485  -0.009   4.875  1.1491  0.0244 -0.4762
 3279SOL    MW412884   5.439   0.017   4.806 -0.0067 -0.2158  0.1724
 3280SOL     OW12885   1.495   3.285   5.533  0.6328 -0.5163  0.2596
 3280SOL    HW212886   1.528   3.371   5.506 -1.8722 -0.0688 -1.7994
 3280SOL    HW312887   1.571   3.227   5.523  1.8327  1.0778 -0.4165
 3280SOL    MW412888   1.509   3.289   5.528  0.4606 -0.2469 -0.1012
 3281SOL     OW12889   1.033   1.471   1.426 -0.3172  0.2582  0.2007
 3281SOL    HW212890   1.123   1.470   1.458 -0.2055  0.4844 -0.0919
 3281SOL    HW312891   0.984   1.419   1.489  0.0999 -0.2415  0.1245
 3281SOL    MW412892   1.038   1.464   1.438 -0.2475  0.2222  0.1521
 3282SOL     OW12893   5.437   6.230   5.580  0.3606 -0.9019 -0.3557
 3282SOL    HW212894   5.357   6.268   5.617  1.4533  2.9440 -1.5664
 3282SOL    HW312895   5.497   6.224   5.654  0.0922 -0.3908 -0.0901
 3282SOL    MW412896   5.434   6.234   5.594  0.4693 -0.3271 -0.4804
 3283SOL     OW12897   4.815   3.597   2.099  0.1300 -0.6068  0.2058
 3283SOL    HW212898   4.727   3.617   2.133 -1.0437  1.0511 -3.3004
 3283SOL    HW312899   4.875   3.630   2.167 -1.9602  3.9068  0.2392
 3283SOL    MW412900   4.811   3.604   2.113 -0.3006  0.2075 -0.2524
 3284SOL     OW12901   3.324   1.965   4.718 -0.2042  0.0354  0.3642
 3284SOL    HW212902   3.258   1.896   4.716 -1.0822  0.8640 -0.4975
 3284SOL    HW312903   3.388   1.937   4.783  0.7775 -2.7798 -1.6218
 3284SOL    MW412904   3.324   1.952   4.726 -0.1905 -0.2267 -0.0115
 3285SOL     OW12905   0.770   1.414   2.831 -0.2736 -0.0807 -0.4915
 3285SOL    HW212906   0.783   1.340   2.890  0.7426  1.7719  1.8072
 3285SOL    HW312907   0.746   1.375   2.747 -2.3488 -2.8680  1.2433
 3285SOL    MW412908   0.768   1.399   2.828 -0.4133 -0.2040  0.0407
 3286SOL     OW12909   6.004   0.159   1.217  0.0333  0.1173  0.1539
 3286SOL    HW212910   6.090   0.155   1.260 -0.7341  1.4460  1.9641
 3286SOL    HW312911   6.019   0.211   1.139  1.3104 -1.6345 -0.8267
 3286SOL    MW412912   6.017   0.166   1.213  0.1006  0.0615  0.2634
 3287SOL     OW12913   1.862   1.892   1.744  0.5026  0.0998 -0.0608
 3287SOL    HW212914   1.830   1.877   1.655 -1.6580  1.1306  0.4715
 3287SOL    HW312915   1.849   1.986   1.759  0.2516 -0.1567  1.5242
 3287SOL    MW412916   1.856   1.903   1.734  0.1844  0.2020  0.2186
 3288SOL     OW12917   0.463   0.056   0.987  0.4633 -0.2304 -0.7574
 3288SOL    HW212918   0.454  -0.029   0.946 -1.8609 -0.0022 -0.8572
 3288SOL    HW312919   0.404   0.113   0.938  2.5487  1.6868 -1.2114
 3288SOL    MW412920   0.454   0.053   0.975  0.4318  0.0526 -0.8305
 3289SOL     OW12921   3.861   4.245   0.379  0.4087 -0.2551 -0.4663
 3289SOL    HW212922   3.916   4.208   0.309  0.1334 -0.6596 -0.4706
 3289SOL    HW312923   3.886   4.196   0.458  2.2203  1.6042  0.1807
 3289SOL    MW412924   3.871   4.233   0.380  0.6114 -0.0632 -0.3815
 3290SOL     OW12925   3.550   3.190   0.133  0.6396  0.4094 -0.3249
 3290SOL    HW212926   3.568   3.140   0.053  1.3218  0.9901 -0.5461
 3290SOL    HW312927   3.467   3.155   0.165 -0.1552  0.8423 -1.8220
 3290SOL    MW412928   3.542   3.179   0.126  0.6248  0.5431 -0.5516
 3291SOL     OW12929   2.859   5.943   4.394 -0.3022  0.3398 -0.0291
 3291SOL    HW212930   2.929   5.995   4.434  0.4397 -0.5697 -0.1342
 3291SOL    HW312931   2.781   5.997   4.404  0.4316  1.4312 -0.0281
 3291SOL    MW412932   2.858   5.957   4.400 -0.1075  0.3638 -0.0428
 3292SOL     OW12933   1.035   5.119   5.685  0.3971 -0.1088 -0.3163
 3292SOL    HW212934   0.966   5.100   5.748  1.5744 -0.1150  1.0044
 3292SOL    HW312935   1.113   5.077   5.720  1.1096 -0.0456 -1.7435
 3292SOL    MW412936   1.037   5.111   5.698  0.6465 -0.1013 -0.3303
 3293SOL     OW12937   0.688   4.844   3.816  0.1590 -0.5437 -0.4171
 3293SOL    HW212938   0.704   4.876   3.905 -3.0498  0.7950 -0.1689
 3293SOL    HW312939   0.681   4.923   3.763 -1.4844 -1.0804 -1.0888
 3293SOL    MW412940   0.689   4.858   3.821 -0.4812 -0.4379 -0.4730
 3294SOL     OW12941   1.895   1.568   3.165 -0.4309 -0.2904  0.0266
 3294SOL    HW212942   1.866   1.648   3.122 -0.0499 -0.0460  0.2151
 3294SOL    HW312943   1.904   1.504   3.094 -0.1240  0.0136 -0.2103
 3294SOL    MW412944   1.892   1.570   3.150 -0.3401 -0.2180  0.0202
 3295SOL     OW12945   5.701   2.385   3.516 -0.2876  0.2225 -0.0536
 3295SOL    HW212946   5.788   2.414   3.490  0.0667 -1.3207 -0.7312
 3295SOL    HW312947   5.716   2.325   3.589 -0.7649 -0.1158 -0.2288
 3295SOL    MW412948   5.714   2.381   3.522 -0.3038 -0.0257 -0.1661
 3296SOL     OW12949   3.281   4.555   5.165 -0.1760  0.5756 -0.3500
 3296SOL    HW212950   3.327   4.509   5.235 -1.8526 -0.8851 -0.1626
 3296SOL    HW312951   3.276   4.646   5.196  1.4848  0.5401  0.1420
 3296SOL    MW412952   3.287   4.561   5.179 -0.1781  0.3782 -0.2603
 3297SOL     OW12953   5.144   2.150   6.332 -0.2054  0.5818 -0.2952
 3297SOL    HW212954   5.163   2.086   6.400  2.6607  0.9115 -0.6753
 3297SOL    HW312955   5.214   2.139   6.268 -1.1283  2.3134 -1.6970
 3297SOL    MW412956   5.156   2.140   6.333  0.0510  0.8538 -0.5303
 3298SOL     OW12957   6.307   3.556   5.488  0.1468  0.1284  0.0861
 3298SOL    HW212958   6.351   3.641   5.485  1.0102 -0.3335 -0.6089
 3298SOL    HW312959   6.345   3.506   5.416 -0.7570 -0.6610  0.1273
 3298SOL    MW412960   6.318   3.561   5.478  0.1415 -0.0367 -0.0002
 3299SOL     OW12961   2.470   6.142   5.218  0.0620  0.1193 -0.5189
 3299SOL    HW212962   2.508   6.080   5.155 -0.8206 -3.8673  2.5248
 3299SOL    HW312963   2.538   6.154   5.284 -1.2022 -1.0411  1.0702
 3299SOL    MW412964   2.484   6.135   5.218 -0.2213 -0.5598  0.0924
 3300SOL     OW12965   5.363   4.078   4.713  0.2304 -0.7344  0.1071
 3300SOL    HW212966   5.390   4.147   4.652  1.2738 -2.6019 -1.6306
 3300SOL    HW312967   5.431   4.079   4.781  0.0177  0.1693  0.3304
 3300SOL    MW412968   5.376   4.088   4.714  0.3400 -0.8616 -0.0927
 3301SOL     OW12969   1.584   5.217   5.263 -0.1983 -0.2322 -0.0068
 3301SOL    HW212970   1.582   5.152   5.332 -0.7344 -2.3239 -1.8847
 3301SOL    HW312971   1.494   5.250   5.258 -0.1469 -0.0411  0.3092
 3301SOL    MW412972   1.572   5.213   5.271 -0.2623 -0.4829 -0.2129
 3302SOL     OW12973   0.085   1.397   6.214 -0.2051 -0.4287 -0.3478
 3302SOL    HW212974  -0.005   1.392   6.183 -0.1446 -1.2807 -0.4005
 3302SOL    HW312975   0.115   1.484   6.188 -1.0738 -0.0702 -0.1615
 3302SOL    MW412976   0.077   1.408   6.207 -0.3117 -0.4938 -0.3302
 3303SOL     OW12977   5.484   2.464   4.577  0.1704  0.5695 -0.6728
 3303SOL    HW212978   5.541   2.492   4.505  0.5349 -0.2775 -0.7191
 3303SOL    HW312979   5.482   2.540   4.636  1.2295  0.6727 -0.7435
 3303SOL    MW412980   5.491   2.478   4.575  0.3582  0.4714 -0.6883
 3304SOL     OW12981   5.904   4.628   0.799  0.5267  0.5684  0.0341
 3304SOL    HW212982   5.848   4.593   0.868 -0.9149  0.7425 -0.9959
 3304SOL    HW312983   5.989   4.639   0.841  0.1703 -1.0081  1.2871
 3304SOL    MW412984   5.907   4.625   0.814  0.2895  0.3834  0.0636
 3305SOL     OW12985   5.452   0.380   0.962  0.3999  0.0670  0.7293
 3305SOL    HW212986   5.375   0.436   0.955  1.9308  2.2012 -0.6141
 3305SOL    HW312987   5.475   0.361   0.871 -0.2941 -3.2703  1.1124
 3305SOL    MW412988   5.445   0.385   0.949  0.5103 -0.0917  0.6026
 3306SOL     OW12989   3.690   3.749   4.229  0.6828  0.0428 -0.2490
 3306SOL    HW212990   3.770   3.795   4.203  0.5440  0.6446  0.3591
 3306SOL    HW312991   3.653   3.804   4.298  0.7708 -1.2391  0.8452
 3306SOL    MW412992   3.696   3.763   4.234  0.6761 -0.0469 -0.0244
 3307SOL     OW12993   0.676   1.434   4.309 -0.3994  0.3928 -0.2087
 3307SOL    HW212994   0.768   1.409   4.307 -0.3474  0.5838 -1.6514
 3307SOL    HW312995   0.629   1.354   4.286 -0.4907  0.6454 -0.9169
 3307SOL    MW412996   0.682   1.420   4.306 -0.4045  0.4513 -0.4925
 3308SOL     OW12997   4.216   2.081   0.965  0.4657  0.1542  0.0686
 3308SOL    HW212998   4.222   2.025   0.887  1.0527 -2.9681  2.1913
 3308SOL    HW312999   4.307   2.104   0.984  0.7263 -1.9741  1.6839
 3308SOL    MW413000   4.229   2.077   0.957  0.5775 -0.5386  0.5618
 3309SOL     OW13001   4.519   2.795   1.399  0.1177  0.1941 -0.6573
 3309SOL    HW213002   4.505   2.889   1.388 -0.6805  0.1275 -0.2548
 3309SOL    HW313003   4.449   2.754   1.350 -0.1569 -0.1676  0.0218
 3309SOL    MW413004   4.508   2.802   1.391 -0.0238  0.1376 -0.5146
 3310SOL     OW13005   2.745   5.781   2.241  0.1400  0.0298 -0.2586
 3310SOL    HW213006   2.723   5.827   2.322 -1.1662 -0.1833 -0.4700
 3310SOL    HW313007   2.828   5.738   2.260 -0.9078 -1.3632  1.5623
 3310SOL    MW413008   2.753   5.781   2.254 -0.1706 -0.1821 -0.0462
 3311SOL     OW13009   0.331   2.901   5.553  0.0345  0.2770 -0.4884
 3311SOL    HW213010   0.261   2.867   5.608 -0.3158  1.3629 -0.2388
 3311SOL    HW313011   0.388   2.949   5.613  0.0919  0.7838 -0.9391
 3311SOL    MW413012   0.329   2.903   5.568 -0.0041  0.4871 -0.5149
 3312SOL     OW13013   5.810   1.942   3.044  0.2110  0.2346 -0.0076
 3312SOL    HW213014   5.801   2.034   3.065 -1.1052  0.6538 -2.0946
 3312SOL    HW313015   5.857   1.941   2.960 -0.1533 -0.9631 -0.2200
 3312SOL    MW413016   5.815   1.954   3.036 -0.0107  0.1319 -0.3110
 3313SOL     OW13017   2.216   1.660   5.014  0.2886 -0.1174  0.0115
 3313SOL    HW213018   2.152   1.626   5.076 -0.3537 -1.1979 -1.1967
 3313SOL    HW313019   2.293   1.604   5.027  0.6302  0.5027  0.7272
 3313SOL    MW413020   2.218   1.648   5.024  0.2489 -0.1781 -0.0535
 3314SOL     OW13021   4.244   5.439   4.376 -0.4894 -0.2733  0.5034
 3314SOL    HW213022   4.271   5.351   4.349  0.7811  0.1995  0.1779
 3314SOL    HW313023   4.270   5.496   4.303 -2.2615  0.2633  0.2307
 3314SOL    MW413024   4.251   5.435   4.363 -0.5556 -0.1401  0.4245
 3315SOL     OW13025   0.081   0.098   2.912  0.4105  0.0850  0.2104
 3315SOL    HW213026   0.063   0.122   3.003  1.0378 -0.4807  0.4917
 3315SOL    HW313027  -0.005   0.095   2.870  0.0391 -0.4328  0.9831
 3315SOL    MW413028   0.068   0.101   2.918  0.4443 -0.0579  0.3494
 3316SOL     OW13029   1.325   0.921   1.648  0.3413  0.8819 -0.6803
 3316SOL    HW213030   1.253   0.859   1.642  1.1737 -0.1154 -0.5699
 3316SOL    HW313031   1.363   0.923   1.560  1.6599 -0.4391 -0.1747
 3316SOL    MW413032   1.321   0.913   1.635  0.6251  0.5760 -0.5991
 3317SOL     OW13033   3.711   3.438   1.097 -0.0386 -0.3056  0.4648
 3317SOL    HW213034   3.641   3.391   1.052 -0.9962 -0.5248  2.0876
 3317SOL    HW313035   3.707   3.527   1.062 -1.3723 -0.2239  0.7635
 3317SOL    MW413036   3.701   3.444   1.087 -0.3409 -0.3237  0.7183
 3318SOL     OW13037   5.074   1.697   3.933  0.1301 -0.3433 -0.0882
 3318SOL    HW213038   5.066   1.736   4.020 -1.6805 -1.8493  0.4870
 3318SOL    HW313039   4.987   1.706   3.895  0.2410 -1.8426 -0.7687
 3318SOL    MW413040   5.061   1.703   3.940 -0.0942 -0.7398 -0.1021
 3319SOL     OW13041   1.491   4.315   5.112 -0.3590  0.4583  0.1296
 3319SOL    HW213042   1.582   4.326   5.088 -0.1970 -0.2177  0.4105
 3319SOL    HW313043   1.462   4.402   5.139  0.0467  0.7812 -0.4774
 3319SOL    MW413044   1.499   4.328   5.113 -0.2841  0.4117  0.0866
 3320SOL     OW13045   3.072   5.350   3.497 -0.4990 -0.2937 -0.5529
 3320SOL    HW213046   3.075   5.396   3.581  0.2081 -2.1126  0.5035
 3320SOL    HW313047   3.160   5.361   3.461 -0.2889 -0.8434 -0.2388
 3320SOL    MW413048   3.084   5.357   3.504 -0.3780 -0.6062 -0.3721
 3321SOL     OW13049   6.048   3.223   6.309  0.0423  0.0363 -0.5562
 3321SOL    HW213050   6.051   3.132   6.338 -0.0450  0.0553 -0.4860
 3321SOL    HW313051   6.130   3.236   6.262  0.2723  0.0653 -0.1510
 3321SOL    MW413052   6.059   3.213   6.306  0.0611  0.0426 -0.4935
 3322SOL     OW13053   2.513   2.465   0.370 -0.1381  0.5154  0.4453
 3322SOL    HW213054   2.433   2.490   0.324 -0.8015 -0.4240  1.0701
 3322SOL    HW313055   2.584   2.495   0.313 -0.9388 -0.5938 -1.1792
 3322SOL    MW413056   2.512   2.472   0.357 -0.3312  0.2451  0.3134
 3323SOL     OW13057   5.228   2.777   3.632 -0.0820 -0.0508  0.0979
 3323SOL    HW213058   5.140   2.808   3.655 -0.0137 -0.1314  0.4753
 3323SOL    HW313059   5.222   2.755   3.539 -0.1558  1.0071 -0.1537
 3323SOL    MW413060   5.215   2.778   3.623 -0.0827  0.0782  0.1145
 3324SOL     OW13061   0.418   4.278   0.325 -0.6681 -0.2288 -0.4545
 3324SOL    HW213062   0.363   4.306   0.252 -1.0652  0.1700 -0.0123
 3324SOL    HW313063   0.507   4.304   0.299 -0.9159  0.6629 -0.4375
 3324SOL    MW413064   0.423   4.286   0.312 -0.7532 -0.0585 -0.3939
 3325SOL     OW13065   4.681   0.165   6.012  0.4891 -0.2732  0.2592
 3325SOL    HW213066   4.664   0.225   6.084 -0.3786  1.1392 -1.0397
 3325SOL    HW313067   4.755   0.112   6.040 -0.5322 -0.5756  2.6189
 3325SOL    MW413068   4.688   0.166   6.025  0.2399 -0.1268  0.3991
 3326SOL     OW13069   1.990   0.757   1.302 -0.2447  0.6010 -0.5519
 3326SOL    HW213070   1.976   0.711   1.219  2.7209 -0.9118 -0.3674
 3326SOL    HW313071   1.952   0.698   1.368  0.2709  0.2061 -0.6025
 3326SOL    MW413072   1.983   0.743   1.299  0.2146  0.3493 -0.5342
 3327SOL     OW13073   4.782   2.923   0.271  0.3621  0.1928 -0.0845
 3327SOL    HW213074   4.734   2.895   0.349 -0.7902  0.5463 -0.6417
 3327SOL    HW313075   4.832   3.000   0.300  0.7559 -0.2922  0.5543
 3327SOL    MW413076   4.782   2.930   0.285  0.2620  0.1754 -0.0737
 3328SOL     OW13077   2.096   5.954   0.915 -0.3672 -0.2924  0.6661
 3328SOL    HW213078   2.007   5.928   0.893 -0.1593  1.1600 -2.4226
 3328SOL    HW313079   2.087   6.042   0.953 -0.2413  0.6162 -1.2625
 3328SOL    MW413080   2.083   5.962   0.917 -0.3232  0.0191  0.0041
 3329SOL     OW13081   1.596   1.938   5.645 -0.0011  0.2179 -0.4382
 3329SOL    HW213082   1.604   1.958   5.738  1.2433  0.4581 -0.5777
 3329SOL    HW313083   1.583   1.843   5.642  1.4408 -0.0044 -0.0654
 3329SOL    MW413084   1.595   1.928   5.657  0.3533  0.2203 -0.4074
 3330SOL     OW13085   2.430   4.411   5.972  0.4167 -0.1923 -0.0640
 3330SOL    HW213086   2.421   4.505   5.987 -1.3225 -0.3459  0.0344
 3330SOL    HW313087   2.348   4.386   5.929  0.0457 -1.9877  1.5765
 3330SOL    MW413088   2.418   4.420   5.968  0.1383 -0.4494  0.1654
 3331SOL     OW13089   0.580   4.613   5.558 -0.2208 -0.4130 -0.5380
 3331SOL    HW213090   0.517   4.567   5.503 -0.5394 -0.1250 -0.4240
 3331SOL    HW313091   0.584   4.562   5.639 -1.5178  0.4116  0.0834
 3331SOL    MW413092   0.572   4.600   5.562 -0.4339 -0.2662 -0.4410
 3332SOL     OW13093   6.214   0.586   0.295 -0.3002  0.3373  0.4445
 3332SOL    HW213094   6.136   0.629   0.261 -0.2598 -1.5572 -2.4957
 3332SOL    HW313095   6.284   0.614   0.237  0.1173 -1.8559 -0.2338
 3332SOL    MW413096   6.213   0.595   0.283 -0.2398 -0.2020 -0.0329
 3333SOL     OW13097   3.555   1.497   0.813 -0.4320  0.1934 -0.4076
 3333SOL    HW213098   3.646   1.520   0.791  0.2939 -0.2448  1.8357
 3333SOL    HW313099   3.549   1.403   0.798 -0.7470  0.3350 -1.2169
 3333SOL    MW413100   3.566   1.488   0.808 -0.3778  0.1543 -0.2184
 3334SOL     OW13101   2.644   3.469   0.099 -0.2761 -0.6003 -0.6350
 3334SOL    HW213102   2.576   3.442   0.037  0.2287 -1.7586 -0.7115
 3334SOL    HW313103   2.681   3.548   0.061 -1.5282  0.0237 -0.6219
 3334SOL    MW413104   2.640   3.476   0.086 -0.3747 -0.6708 -0.6434
 3335SOL     OW13105   2.846   1.210   6.125 -0.4838 -0.4046  0.2652
 3335SOL    HW213106   2.782   1.181   6.190 -0.3760 -0.3822  0.3805
 3335SOL    HW313107   2.868   1.130   6.076 -0.1990 -0.5182  0.5730
 3335SOL    MW413108   2.841   1.195   6.127 -0.4320 -0.4166  0.3210
 3336SOL     OW13109   3.151   2.581   0.999 -0.1862  0.1049 -0.0599
 3336SOL    HW213110   3.091   2.573   0.925 -0.6110 -0.8901  0.3763
 3336SOL    HW313111   3.226   2.526   0.975 -0.6802 -0.8780  0.5754
 3336SOL    MW413112   3.153   2.572   0.986 -0.3074 -0.1560  0.0815
 3337SOL     OW13113   5.106   3.304   1.194  0.8561 -0.1196  0.3099
 3337SOL    HW213114   5.021   3.269   1.217  0.6365  0.2665  0.0982
 3337SOL    HW313115   5.101   3.320   1.100  1.1443 -0.0532  0.3036
 3337SOL    MW413116   5.094   3.302   1.185  0.8651 -0.0599  0.2812
 3338SOL     OW13117   0.028   5.135   6.344 -0.4694  0.0750  0.1961
 3338SOL    HW213118  -0.032   5.199   6.305 -0.0352  0.2584 -0.1800
 3338SOL    HW313119   0.003   5.132   6.436 -1.4795 -0.3221 -0.0772
 3338SOL    MW413120   0.017   5.143   6.351 -0.5454  0.0468  0.1104
 3339SOL     OW13121   1.614   4.917   6.021 -0.4179  0.4410 -0.0707
 3339SOL    HW213122   1.680   4.848   6.024 -0.1488  0.7265  0.8566
 3339SOL    HW313123   1.538   4.880   6.065 -0.8344  0.1759 -0.9835
 3339SOL    MW413124   1.613   4.903   6.027 -0.4373  0.4437 -0.0688
 3340SOL     OW13125   3.791   3.389   2.091 -0.1409  0.1652 -0.2911
 3340SOL    HW213126   3.878   3.414   2.059 -0.6057  1.6612 -0.4721
 3340SOL    HW313127   3.736   3.465   2.073 -1.4716 -0.7096 -0.0645
 3340SOL    MW413128   3.796   3.402   2.084 -0.3778  0.2472 -0.2851
 3341SOL     OW13129   0.478   2.191   0.846  0.5134  0.4083  0.2505
 3341SOL    HW213130   0.412   2.208   0.778 -0.3763  0.0903  1.0108
 3341SOL    HW313131   0.559   2.175   0.798 -0.1238  0.0817 -0.7443
 3341SOL    MW413132   0.480   2.191   0.831  0.3119  0.3232  0.2195
 3342SOL     OW13133   5.651   6.086   5.275  0.2642  0.0534  0.0053
 3342SOL    HW213134   5.682   6.164   5.230  0.9421 -0.7947 -1.0566
 3342SOL    HW313135   5.728   6.051   5.320  0.0678 -0.2167  0.1391
 3342SOL    MW413136   5.665   6.092   5.275  0.3277 -0.0941 -0.1171
 3343SOL     OW13137   3.273   0.847   6.414 -0.0417  0.2710 -0.2859
 3343SOL    HW213138   3.343   0.782   6.414 -0.3168 -0.0514 -1.5583
 3343SOL    HW313139   3.236   0.842   6.502  0.2427 -0.9865 -0.2204
 3343SOL    MW413140   3.277   0.837   6.426 -0.0405  0.0626 -0.4451
 3344SOL     OW13141   2.843   4.203   3.921  0.4297  0.1576 -0.0348
 3344SOL    HW213142   2.883   4.264   3.983  0.4626  1.8664 -1.6570
 3344SOL    HW313143   2.770   4.251   3.883  0.6216 -0.6972 -1.5824
 3344SOL    MW413144   2.838   4.217   3.924  0.4594  0.2703 -0.4530
 3345SOL     OW13145   5.198   1.867   1.851  0.6026 -0.6710 -0.6567
 3345SOL    HW213146   5.184   1.952   1.893  1.4245  0.8246 -3.1444
 3345SOL    HW313147   5.176   1.803   1.918  0.3685  1.4903  1.4820
 3345SOL    MW413148   5.193   1.870   1.865  0.6801 -0.1885 -0.7027
 3346SOL     OW13149   5.993   3.134   0.522  0.4900  0.2880  0.1347
 3346SOL    HW213150   6.047   3.129   0.443  1.0022 -0.9878  0.5414
 3346SOL    HW313151   6.026   3.064   0.578 -0.2103  0.8421  1.2736
 3346SOL    MW413152   6.004   3.124   0.519  0.4652  0.1928  0.3387
 3347SOL     OW13153   2.929   2.853   0.043  0.1734  0.2351 -0.1903
 3347SOL    HW213154   2.884   2.821  -0.035  1.4048  0.0399 -0.8421
 3347SOL    HW313155   2.861   2.855   0.111 -0.8525  0.1418 -1.1812
 3347SOL    MW413156   2.914   2.849   0.042  0.2005  0.1970 -0.4070
 3348SOL     OW13157   3.373   2.135   3.455  0.0968  0.5075 -0.4194
 3348SOL    HW213158   3.282   2.132   3.425  0.7481 -0.7785 -2.4242
 3348SOL    HW313159   3.374   2.080   3.533 -0.7308  0.0962 -0.6865
 3348SOL    MW413160   3.361   2.127   3.461  0.0735  0.2836 -0.7191
 3349SOL     OW13161   4.353   6.225   5.192 -0.5304  0.2018  1.0416
 3349SOL    HW213162   4.294   6.175   5.135 -0.3324  1.7023 -0.5584
 3349SOL    HW313163   4.325   6.203   5.281 -0.5815 -2.5702  0.4527
 3349SOL    MW413164   4.342   6.215   5.196 -0.5110  0.0341  0.7528
 3350SOL     OW13165   4.392   5.645   0.783  0.3981  0.4792  0.6096
 3350SOL    HW213166   4.339   5.725   0.776  0.9384  0.7202 -1.0660
 3350SOL    HW313167   4.405   5.617   0.693  1.1141 -0.9281  1.1298
 3350SOL    MW413168   4.386   5.652   0.770  0.5638  0.3253  0.4572
 3351SOL     OW13169   2.868   0.924   4.442  0.3839 -0.5563 -0.1433
 3351SOL    HW213170   2.894   0.924   4.350  1.2871  1.0251  0.0799
 3351SOL    HW313171   2.804   0.994   4.449 -0.0804 -1.0222  0.3421
 3351SOL    MW413172   2.863   0.933   4.431  0.4418 -0.4091 -0.0498
 3352SOL     OW13173   4.904   6.437   1.154 -0.0371  0.3736 -0.0466
 3352SOL    HW213174   4.867   6.356   1.191  0.0028  0.1169 -0.5593
 3352SOL    HW313175   4.966   6.467   1.221 -0.9620  0.6648  0.7052
 3352SOL    MW413176   4.907   6.430   1.168 -0.1539  0.3782 -0.0151
 3353SOL     OW13177   5.695   2.454   4.871  0.2042 -0.1560 -0.1397
 3353SOL    HW213178   5.781   2.412   4.871 -0.1835 -1.0279 -1.4969
 3353SOL    HW313179   5.696   2.511   4.794 -1.3271 -2.2377 -1.8246
 3353SOL    MW413180   5.706   2.456   4.861 -0.0490 -0.5457 -0.5411
 3354SOL     OW13181   2.998   1.844   5.675 -0.3238 -0.5669 -0.1791
 3354SOL    HW213182   2.909   1.826   5.707 -0.4806 -0.3952 -0.5126
 3354SOL    HW313183   3.040   1.892   5.746 -0.9209  0.5002 -0.5349
 3354SOL    MW413184   2.991   1.848   5.688 -0.4233 -0.4035 -0.2700
 3355SOL     OW13185   0.511   5.730   5.479  0.3769  0.1839  0.1722
 3355SOL    HW213186   0.453   5.775   5.417 -0.1338 -0.3179  0.2730
 3355SOL    HW313187   0.486   5.638   5.471  0.1296  0.1420  1.3034
 3355SOL    MW413188   0.500   5.724   5.470  0.2769  0.1122  0.3347
 3356SOL     OW13189   4.171   3.153   1.356  0.5096  0.0267  0.2537
 3356SOL    HW213190   4.086   3.195   1.369  0.1200 -0.3951 -0.8283
 3356SOL    HW313191   4.231   3.226   1.342  0.2093  0.3040  0.3823
 3356SOL    MW413192   4.168   3.168   1.356  0.4186  0.0076  0.1279
 3357SOL     OW13193   5.169   3.856   2.385 -0.3205 -0.0140  0.9267
 3357SOL    HW213194   5.119   3.880   2.463 -0.3566 -1.5046  1.3914
 3357SOL    HW313195   5.114   3.792   2.339  1.0706 -1.6438  1.4098
 3357SOL    MW413196   5.155   3.850   2.389 -0.1417 -0.4257  1.0518
 3358SOL     OW13197   6.434   4.649   2.900  0.3082  0.2552  0.8371
 3358SOL    HW213198   6.440   4.650   2.805  1.0681 -0.3220  0.8655
 3358SOL    HW313199   6.475   4.566   2.926 -2.8056 -1.2657  1.4968
 3358SOL    MW413200   6.440   4.638   2.891 -0.0024 -0.0216  0.9279
 3359SOL     OW13201   0.844   0.851   5.392  0.7280  0.3895  0.0640
 3359SOL    HW213202   0.750   0.869   5.397  0.2900 -0.2177 -3.2607
 3359SOL    HW313203   0.885   0.935   5.413 -0.5998  0.9484  0.5651
 3359SOL    MW413204   0.837   0.864   5.395  0.4950  0.3831 -0.3085
 3360SOL     OW13205   1.143   1.784   2.512 -0.1335  0.2614 -0.1689
 3360SOL    HW213206   1.168   1.714   2.571 -0.8643  1.7530  2.0280
 3360SOL    HW313207   1.215   1.847   2.517 -0.0646  0.2756 -1.1245
 3360SOL    MW413208   1.156   1.783   2.520 -0.2209  0.4601 -0.0051
 3361SOL     OW13209   4.767   4.189   1.394 -0.5001 -0.5949 -0.2038
 3361SOL    HW213210   4.856   4.215   1.369 -1.1115  1.7058 -0.2765
 3361SOL    HW313211   4.754   4.105   1.351  2.0181 -1.5942  0.7645
 3361SOL    MW413212   4.777   4.182   1.385 -0.2485 -0.4232 -0.0856
 3362SOL     OW13213   0.263   0.210   1.159  0.3025 -0.0463  0.3940
 3362SOL    HW213214   0.242   0.248   1.244  0.8169  0.1568  0.4293
 3362SOL    HW313215   0.296   0.283   1.107  2.5553 -0.6359  0.8768
 3362SOL    MW413216   0.264   0.225   1.164  0.6676 -0.0973  0.4624
 3363SOL     OW13217   0.874   1.279   3.692 -0.1484 -1.2154  0.7538
 3363SOL    HW213218   0.782   1.289   3.668 -0.3100 -0.5422  1.6080
 3363SOL    HW313219   0.877   1.301   3.785  1.0352 -0.2956  0.5230
 3363SOL    MW413220   0.862   1.283   3.701 -0.0136 -1.0052  0.8361
 3364SOL     OW13221   2.195   6.393   2.329 -0.3025  0.1842  0.2820
 3364SOL    HW213222   2.144   6.453   2.383 -0.4963 -1.0861  1.5725
 3364SOL    HW313223   2.283   6.431   2.328 -0.2114  0.0956  1.7911
 3364SOL    MW413224   2.200   6.406   2.336 -0.3160  0.0049  0.6513
 3365SOL     OW13225   4.243   0.030   0.335 -0.2341  0.3579  0.0128
 3365SOL    HW213226   4.168  -0.026   0.315 -0.4290  0.7157 -0.2654
 3365SOL    HW313227   4.274   0.059   0.249 -0.4098  1.0391  0.1733
 3365SOL    MW413228   4.237   0.026   0.321 -0.2830  0.4950 -0.0027
 3366SOL     OW13229   6.015   4.228   3.181 -0.1994 -0.2898  0.0628
 3366SOL    HW213230   6.074   4.254   3.252  0.1682 -1.6205  0.2736
 3366SOL    HW313231   5.927   4.233   3.220 -0.2412  1.4183 -0.1681
 3366SOL    MW413232   6.011   4.232   3.195 -0.1564 -0.2400  0.0602
 3367SOL     OW13233   3.607   5.059   0.435  0.8803 -0.4836 -0.2940
 3367SOL    HW213234   3.602   5.006   0.355  0.1462 -1.0100  0.0972
 3367SOL    HW313235   3.548   5.133   0.418  0.8475 -0.5107 -0.2971
 3367SOL    MW413236   3.599   5.062   0.422  0.7791 -0.5566 -0.2428
 3368SOL     OW13237   2.654   1.721   0.553  0.4563 -0.2882  0.0643
 3368SOL    HW213238   2.595   1.793   0.577  3.8256  2.5038  0.7528
 3368SOL    HW313239   2.643   1.710   0.459  0.4006  1.7468 -0.1983
 3368SOL    MW413240   2.645   1.729   0.544  0.8935  0.3486  0.1205
 3369SOL     OW13241   1.642   1.032   6.083  0.0392  0.5239  0.4324
 3369SOL    HW213242   1.552   1.061   6.100 -0.2123  0.6514 -0.9476
 3369SOL    HW313243   1.633   0.942   6.053  0.7404 -0.7880  3.7943
 3369SOL    MW413244   1.629   1.024   6.081  0.0985  0.3676  0.6939
 3370SOL     OW13245   6.252   5.378   0.968 -0.3608  0.4673  0.4951
 3370SOL    HW213246   6.203   5.407   0.891  1.9272  0.8624 -0.8948
 3370SOL    HW313247   6.271   5.459   1.016  1.0126  0.6593 -0.3087
 3370SOL    MW413248   6.248   5.393   0.964  0.1223  0.5447  0.2056
 3371SOL     OW13249   3.559   2.877   3.664 -0.3022  0.3427  0.1076
 3371SOL    HW213250   3.469   2.850   3.682  0.5932 -2.0492  1.3922
 3371SOL    HW313251   3.558   2.972   3.676 -2.5830  0.3567  0.2753
 3371SOL    MW413252   3.547   2.886   3.668 -0.4850  0.0289  0.2992
 3372SOL     OW13253   2.472   2.986   3.278 -0.5118 -0.8465 -0.4082
 3372SOL    HW213254   2.493   2.952   3.364 -1.1296  0.5368  0.3219
 3372SOL    HW313255   2.474   2.910   3.220  0.3169 -1.7189  0.7442
 3372SOL    MW413256   2.475   2.972   3.281 -0.4840 -0.7791 -0.1598
 3373SOL     OW13257   6.301   3.922   4.132  0.1764 -0.5390 -0.8788
 3373SOL    HW213258   6.220   3.870   4.126 -0.4294  0.1007  0.9493
 3373SOL    HW313259   6.272   4.012   4.117  0.8040 -0.4478 -1.5854
 3373SOL    MW413260   6.286   3.927   4.129  0.1793 -0.4426 -0.7309
 3374SOL     OW13261   4.874   3.590   5.233 -0.5872 -0.9162 -0.1852
 3374SOL    HW213262   4.824   3.671   5.218 -0.8498 -0.7619  1.3386
 3374SOL    HW313263   4.821   3.542   5.297  0.2273 -1.6847 -0.0869
 3374SOL    MW413264   4.860   3.595   5.240 -0.5144 -0.9972  0.0288
 3375SOL     OW13265   3.142   1.981   0.272 -0.1266  0.4816  0.1390
 3375SOL    HW213266   3.226   1.937   0.286 -0.4245 -0.3151 -0.4915
 3375SOL    HW313267   3.078   1.927   0.318 -0.6106 -0.2312 -1.2968
 3375SOL    MW413268   3.145   1.968   0.280 -0.2298  0.2825 -0.1336
 3376SOL     OW13269   5.421   0.640   6.259  0.1636  0.4523 -0.1234
 3376SOL    HW213270   5.477   0.566   6.238  2.2691  1.6454  0.9248
 3376SOL    HW313271   5.467   0.716   6.223 -1.2854  1.3992 -0.0677
 3376SOL    MW413272   5.434   0.641   6.251  0.2502  0.7347  0.0223
 3377SOL     OW13273   4.019   0.564   6.320 -0.2948 -0.2030 -0.3695
 3377SOL    HW213274   4.034   0.484   6.271  0.1133  0.9391 -2.1851
 3377SOL    HW313275   3.967   0.620   6.262  1.1285  1.6158 -0.0192
 3377SOL    MW413276   4.014   0.561   6.306 -0.0532  0.1876 -0.5628
 3378SOL     OW13277   1.814   2.641   0.086 -0.0828  0.0364 -0.2830
 3378SOL    HW213278   1.861   2.706   0.034 -1.5714  2.4858  1.2499
 3378SOL    HW313279   1.726   2.639   0.048  0.2726 -2.1604 -1.1403
 3378SOL    MW413280   1.808   2.649   0.074 -0.2323  0.0697 -0.1939
 3379SOL     OW13281   0.393   5.770   1.290 -0.1605 -0.4078  0.3377
 3379SOL    HW213282   0.344   5.847   1.317 -0.7821 -0.7848  0.3155
 3379SOL    HW313283   0.345   5.696   1.328  0.0726 -0.8202 -0.1476
 3379SOL    MW413284   0.380   5.770   1.299 -0.2118 -0.5120  0.2707
 3380SOL     OW13285   6.380   1.650   3.162  0.3924  0.1340  0.4993
 3380SOL    HW213286   6.317   1.721   3.148 -1.4830 -1.3535  1.0182
 3380SOL    HW313287   6.394   1.648   3.256 -0.5081 -0.9014  0.6359
 3380SOL    MW413288   6.374   1.659   3.172  0.0261 -0.1988  0.5858
 3381SOL     OW13289   0.166   0.315   1.820  0.1948  0.3408 -0.0714
 3381SOL    HW213290   0.099   0.262   1.777 -1.5226  1.2547  1.3377
 3381SOL    HW313291   0.166   0.284   1.910  0.7460  1.2348  0.2437
 3381SOL    MW413292   0.157   0.304   1.826  0.0409  0.5794  0.1561
 3382SOL     OW13293   4.257   1.058   4.605 -0.2510  0.6159 -0.3924
 3382SOL    HW213294   4.296   1.145   4.594 -1.7934  1.1986 -1.6183
 3382SOL    HW313295   4.176   1.075   4.654 -1.8015  0.2752 -2.6822
 3382SOL    MW413296   4.252   1.072   4.610 -0.6590  0.6478 -0.8563
 3383SOL     OW13297   5.243   6.295   3.016 -0.2245 -0.3187 -0.1814
 3383SOL    HW213298   5.274   6.205   3.030 -1.6399 -0.6541  1.0367
 3383SOL    HW313299   5.320   6.350   3.034  0.7281 -1.2828 -1.1932
 3383SOL    MW413300   5.257   6.290   3.021 -0.2856 -0.4901 -0.1542
 3384SOL     OW13301   6.288   2.894   1.266  0.8181 -0.1834  0.0149
 3384SOL    HW213302   6.365   2.951   1.276 -0.3725  1.5216 -0.1649
 3384SOL    HW313303   6.242   2.903   1.350  0.9591 -1.4522  0.2413
 3384SOL    MW413304   6.292   2.903   1.278  0.6796 -0.1259  0.0210
 3385SOL     OW13305   0.220   3.657   2.464 -0.0326  0.8653 -0.1034
 3385SOL    HW213306   0.314   3.647   2.449 -0.4507  0.8223 -3.2815
 3385SOL    HW313307   0.187   3.568   2.470 -0.2076  0.8033 -1.7459
 3385SOL    MW413308   0.228   3.644   2.463 -0.1109  0.8514 -0.7394
 3386SOL     OW13309   0.049   5.416   2.257 -0.2715  0.0384  0.2035
 3386SOL    HW213310   0.068   5.323   2.272  0.2149 -0.2176 -1.7082
 3386SOL    HW313311   0.011   5.419   2.169 -1.7784  1.4988  0.8286
 3386SOL    MW413312   0.046   5.404   2.247 -0.4061  0.1973  0.0337
 3387SOL     OW13313   1.413   3.990   3.543 -0.4021  0.3396  0.2619
 3387SOL    HW213314   1.341   3.936   3.576 -1.0172 -0.5750 -2.3524
 3387SOL    HW313315   1.489   3.931   3.544 -0.7929 -0.2460 -1.3937
 3387SOL    MW413316   1.413   3.975   3.548 -0.5348  0.1417 -0.3015
 3388SOL     OW13317   0.063   4.259   4.219  0.4148  0.0830 -0.3387
 3388SOL    HW213318   0.094   4.180   4.175 -0.8473  0.2947 -1.7177
 3388SOL    HW313319   0.011   4.228   4.293  1.1492 -0.3257  0.0130
 3388SOL    MW413320   0.060   4.245   4.223  0.3452  0.0570 -0.4743
 3389SOL     OW13321   0.195   5.201   2.785 -0.2647 -0.4798 -0.1199
 3389SOL    HW213322   0.280   5.163   2.807 -1.1607 -3.5379 -1.3557
 3389SOL    HW313323   0.213   5.262   2.714  1.1209  0.7619  1.2230
 3389SOL    MW413324   0.208   5.204   2.779 -0.2001 -0.7195 -0.1058
 3390SOL     OW13325   5.143   2.237   3.104 -0.5639 -0.0777  0.1166
 3390SOL    HW213326   5.086   2.247   3.180 -1.1280 -0.1604 -0.2893
 3390SOL    HW313327   5.200   2.163   3.126  1.1462  1.5759  1.5925
 3390SOL    MW413328   5.143   2.229   3.117 -0.4127  0.1296  0.2578
 3391SOL     OW13329   2.514   3.089   2.642 -0.7321 -0.1144  0.0650
 3391SOL    HW213330   2.486   3.005   2.677 -0.9389  0.1948  0.6543
 3391SOL    HW313331   2.442   3.115   2.584  0.7703 -1.9055 -2.8661
 3391SOL    MW413332   2.501   3.081   2.639 -0.5611 -0.3099 -0.2440
 3392SOL     OW13333   6.281   2.322   2.196 -0.2858  0.0653  0.0606
 3392SOL    HW213334   6.202   2.274   2.171  0.0125 -0.4793  0.1494
 3392SOL    HW313335   6.348   2.291   2.134 -0.0669  0.2870  0.1866
 3392SOL    MW413336   6.280   2.311   2.184 -0.2175  0.0227  0.0889
 3393SOL     OW13337   2.860   2.873   5.062 -0.2342  0.3224 -0.4013
 3393SOL    HW213338   2.932   2.810   5.064 -0.9247 -0.4894 -0.4367
 3393SOL    HW313339   2.816   2.863   5.147 -3.0288 -2.5322 -1.9332
 3393SOL    MW413340   2.863   2.863   5.073 -0.6940 -0.1613 -0.6081
 3394SOL     OW13341   2.889   4.142   3.560 -0.5493 -0.0933 -0.1557
 3394SOL    HW213342   2.867   4.082   3.631  0.9623  0.7744  1.1299
 3394SOL    HW313343   2.839   4.221   3.579  1.1006  0.7494  0.9877
 3394SOL    MW413344   2.879   4.145   3.572 -0.1322  0.1323  0.1648
 3395SOL     OW13345   2.884   1.395   1.569  0.0152  0.2037  0.1467
 3395SOL    HW213346   2.833   1.473   1.592  0.0331  0.2788 -0.0648
 3395SOL    HW313347   2.818   1.326   1.560  0.1936 -0.3300  2.4966
 3395SOL    MW413348   2.868   1.396   1.571  0.0411  0.1432  0.4289
 3396SOL     OW13349   1.901   3.850   1.319 -0.0084  0.0907 -0.4013
 3396SOL    HW213350   1.991   3.864   1.349 -0.4959 -0.4998  1.4427
 3396SOL    HW313351   1.864   3.788   1.382 -1.3884 -0.5194 -1.7595
 3396SOL    MW413352   1.908   3.844   1.331 -0.2548 -0.0677 -0.3372
 3397SOL     OW13353   5.374   1.404   5.588  0.1476 -0.3703  0.4458
 3397SOL    HW213354   5.389   1.322   5.635 -1.7304 -0.0088  1.7979
 3397SOL    HW313355   5.387   1.473   5.653 -2.3651  0.1528  0.5127
 3397SOL    MW413356   5.377   1.402   5.603 -0.4317 -0.2536  0.6330
 3398SOL     OW13357   0.413   4.828   1.727 -0.2806  0.7354 -0.5840
 3398SOL    HW213358   0.496   4.873   1.715  0.4032 -0.7488 -1.8074
 3398SOL    HW313359   0.348   4.886   1.690  0.6388  0.5463 -2.6351
 3398SOL    MW413360   0.416   4.841   1.720 -0.0691  0.5146 -1.0161
 3399SOL     OW13361   4.608   4.075   2.146 -0.3621  0.2489  0.1482
 3399SOL    HW213362   4.589   4.013   2.216 -0.1380 -0.5050 -0.4569
 3399SOL    HW313363   4.704   4.077   2.141 -0.3691  0.5637  0.0864
 3399SOL    MW413364   4.618   4.067   2.155 -0.3335  0.1909  0.0602
 3400SOL     OW13365   2.591   4.252   0.122 -0.0094  0.6220  0.3320
 3400SOL    HW213366   2.516   4.266   0.064 -0.4970  0.3939  0.8960
 3400SOL    HW313367   2.564   4.289   0.205  0.1090 -0.3644  0.8241
 3400SOL    MW413368   2.578   4.259   0.125 -0.0581  0.4618  0.4713
 3401SOL     OW13369   3.576   6.147   2.648 -0.2375  0.6761  0.0720
 3401SOL    HW213370   3.492   6.102   2.645 -0.1505  0.5195 -0.0227
 3401SOL    HW313371   3.641   6.078   2.638 -0.0753  0.7133  0.8211
 3401SOL    MW413372   3.574   6.132   2.646 -0.2046  0.6604  0.1584
 3402SOL     OW13373   5.803   6.384   5.269 -0.2588 -0.2135  0.6354
 3402SOL    HW213374   5.855   6.464   5.274  0.5922 -0.7488  0.5336
 3402SOL    HW313375   5.730   6.399   5.329  0.1806  0.4332  1.0217
 3402SOL    MW413376   5.800   6.397   5.278 -0.0885 -0.1988  0.6729
 3403SOL     OW13377   0.812   4.288   4.688  0.2614 -0.0284  0.7114
 3403SOL    HW213378   0.777   4.341   4.759  0.6151 -0.4507  1.2149
 3403SOL    HW313379   0.820   4.200   4.726  1.0392 -0.1214  0.3500
 3403SOL    MW413380   0.809   4.283   4.702  0.4107 -0.0964  0.7301
 3404SOL     OW13381   4.851   3.237   1.296 -0.4100 -0.1572 -0.5673
 3404SOL    HW213382   4.785   3.236   1.226 -0.7072 -0.6597 -0.2823
 3404SOL    HW313383   4.850   3.328   1.328 -0.6890 -0.0676 -0.8230
 3404SOL    MW413384   4.842   3.249   1.291 -0.4860 -0.2117 -0.5634
 3405SOL     OW13385   0.606   1.264   3.607 -1.2790  0.4072 -0.4548
 3405SOL    HW213386   0.568   1.327   3.546 -0.5192  1.9863  0.6399
 3405SOL    HW313387   0.634   1.191   3.551  1.5591  2.7876 -2.4041
 3405SOL    MW413388   0.604   1.263   3.591 -0.8043  0.9296 -0.5676
 3406SOL     OW13389   2.060   5.912   4.617 -0.1414  0.5249 -0.7240
 3406SOL    HW213390   2.033   5.881   4.531 -1.9515  2.4251 -0.9203
 3406SOL    HW313391   2.094   6.000   4.601  1.8188 -0.0188  0.2128
 3406SOL    MW413392   2.061   5.920   4.604 -0.1216  0.7038 -0.6263
 3407SOL     OW13393   0.941   4.252   0.092 -0.1783  0.3109  0.2771
 3407SOL    HW213394   0.957   4.345   0.075 -1.6351  0.2322 -1.8361
 3407SOL    HW313395   0.901   4.219   0.012 -1.6178 -1.6796  1.7142
 3407SOL    MW413396   0.938   4.260   0.079 -0.5604  0.0379  0.1879
 3408SOL     OW13397   1.699   1.568   0.569 -0.1779  0.2383 -0.2433
 3408SOL    HW213398   1.665   1.503   0.507 -0.6673  1.5982 -1.4624
 3408SOL    HW313399   1.767   1.614   0.520  1.4150 -0.4791  1.1956
 3408SOL    MW413400   1.703   1.565   0.554 -0.0323  0.3231 -0.2143
 3409SOL     OW13401   2.667   6.109   1.767 -0.0073 -0.2586  0.4294
 3409SOL    HW213402   2.681   6.200   1.792 -1.4840 -0.5218  2.4703
 3409SOL    HW313403   2.716   6.058   1.831  0.9398 -0.9512 -0.7892
 3409SOL    MW413404   2.675   6.114   1.779 -0.0772 -0.3847  0.5379
 3410SOL     OW13405   0.699   2.793   3.985  0.0640 -0.0513  0.2377
 3410SOL    HW213406   0.622   2.797   4.042  0.3398  1.6232  0.5449
 3410SOL    HW313407   0.719   2.884   3.965  0.5718 -0.5439 -1.7680
 3410SOL    MW413408   0.692   2.805   3.990  0.1674  0.1047  0.0136
 3411SOL     OW13409   3.583   1.722   6.294 -0.0553  0.5156 -0.1051
 3411SOL    HW213410   3.583   1.627   6.289 -0.2406  0.3935  1.7101
 3411SOL    HW313411   3.499   1.748   6.257 -0.8987 -0.1773  1.2520
 3411SOL    MW413412   3.572   1.713   6.288 -0.1910  0.4081  0.3134
 3412SOL     OW13413   4.641   1.200   3.169  0.5038  0.1799  0.0654
 3412SOL    HW213414   4.574   1.155   3.220 -0.4594 -1.3937 -2.4108
 3412SOL    HW313415   4.717   1.141   3.170  0.2236 -0.2225 -0.8505
 3412SOL    MW413416   4.643   1.186   3.176  0.3398 -0.0808 -0.3821
 3413SOL     OW13417   6.115   2.186   3.974 -0.2384 -0.6665  0.2210
 3413SOL    HW213418   6.115   2.090   3.976 -0.0170 -0.6751 -0.0689
 3413SOL    HW313419   6.198   2.209   3.932 -0.1633 -0.3399  0.5506
 3413SOL    MW413420   6.126   2.177   3.969 -0.1993 -0.6246  0.2262
 3414SOL     OW13421   3.505   2.085   2.465  0.1333  0.0215  0.7531
 3414SOL    HW213422   3.449   2.108   2.540  0.3133 -0.8796  1.1701
 3414SOL    HW313423   3.551   2.166   2.445 -0.1134  0.3460  1.4522
 3414SOL    MW413424   3.504   2.099   2.473  0.1245 -0.0546  0.9003
 3415SOL     OW13425   4.191   3.954   2.651  0.1369 -0.3214  0.2490
 3415SOL    HW213426   4.271   4.003   2.668  0.5150 -0.7304 -0.3184
 3415SOL    HW313427   4.155   3.937   2.738  0.6750 -0.1478  0.5114
 3415SOL    MW413428   4.197   3.958   2.665  0.2578 -0.3525  0.2088
 3416SOL     OW13429   2.174   3.799   3.164 -0.1169 -0.1308  0.0497
 3416SOL    HW213430   2.199   3.884   3.198  0.5514  0.1452 -1.0692
 3416SOL    HW313431   2.174   3.741   3.240  1.0961  0.4977  0.5558
 3416SOL    MW413432   2.177   3.802   3.178  0.1313 -0.0115 -0.0312
 3417SOL     OW13433   1.593   2.540   5.232 -0.1210  0.0306  0.3677
 3417SOL    HW213434   1.667   2.516   5.177 -0.1691 -1.1087  0.7662
 3417SOL    HW313435   1.632   2.571   5.314 -0.0624  1.1981 -0.0852
 3417SOL    MW413436   1.608   2.541   5.236 -0.1196  0.0343  0.3605
 3418SOL     OW13437   0.896   4.247   0.884 -0.6592 -0.1290 -0.1076
 3418SOL    HW213438   0.901   4.341   0.869  1.1559 -0.0728  0.6037
 3418SOL    HW313439   0.966   4.211   0.830 -0.4957 -0.9353  0.6330
 3418SOL    MW413440   0.906   4.255   0.875 -0.3981 -0.2280  0.0840
 3419SOL     OW13441   3.859   6.108   5.495 -0.1082  0.3528 -0.4740
 3419SOL    HW213442   3.773   6.120   5.536  0.4420  3.1425  0.0705
 3419SOL    HW313443   3.921   6.148   5.555  1.6555 -1.6057 -0.8456
 3419SOL    MW413444   3.856   6.115   5.508  0.1971  0.4624 -0.4512
 3420SOL     OW13445   3.615   2.571   2.485 -0.2357 -0.2591 -0.4393
 3420SOL    HW213446   3.531   2.534   2.458 -0.8580  0.8376 -0.0671
 3420SOL    HW313447   3.605   2.665   2.472 -0.2743  0.2633  2.7252
 3420SOL    MW413448   3.603   2.578   2.480 -0.3229 -0.0455  0.0273
 3421SOL     OW13449   5.604   6.222   1.843 -0.1508 -0.2231  0.0507
 3421SOL    HW213450   5.597   6.195   1.934  1.2317  2.2371  0.9755
 3421SOL    HW313451   5.534   6.286   1.831 -0.5424 -0.7840 -0.7467
 3421SOL    MW413452   5.594   6.227   1.853 -0.0201  0.0275  0.0675
 3422SOL     OW13453   5.182   4.272   1.132 -0.3586 -0.1194 -0.1267
 3422SOL    HW213454   5.165   4.273   1.038 -0.3303  0.5210 -0.1340
 3422SOL    HW313455   5.241   4.347   1.146 -0.3189 -0.2457  0.3886
 3422SOL    MW413456   5.187   4.282   1.122 -0.3496 -0.0516 -0.0597
 3423SOL     OW13457   0.729   4.664   1.089 -0.1583 -0.3046  0.2124
 3423SOL    HW213458   0.704   4.614   1.011  0.4123  0.0107 -0.1819
 3423SOL    HW313459   0.761   4.598   1.150  0.9462 -0.4149 -0.4479
 3423SOL    MW413460   0.730   4.649   1.087  0.0627 -0.2775  0.0732
 3424SOL     OW13461   5.291   2.971   6.281 -0.1156  0.3863 -0.2425
 3424SOL    HW213462   5.248   3.045   6.239  0.8571  0.5919 -0.8777
 3424SOL    HW313463   5.293   2.994   6.374 -1.4954  0.3043 -0.1610
 3424SOL    MW413464   5.285   2.984   6.288 -0.1693  0.4026 -0.3156
 3425SOL     OW13465   4.270   0.696   0.023  0.3139  0.2387  0.0071
 3425SOL    HW213466   4.184   0.669  -0.010 -0.1717  1.1565  0.4944
 3425SOL    HW313467   4.254   0.717   0.115  0.8633  1.3113 -0.1342
 3425SOL    MW413468   4.256   0.695   0.031  0.3223  0.5013  0.0527
 3426SOL     OW13469   5.066   5.038   2.886 -0.5469  1.0867 -0.3735
 3426SOL    HW213470   4.999   5.106   2.894 -0.0966  1.5537 -0.5254
 3426SOL    HW313471   5.087   5.015   2.977 -0.6211  1.2296 -0.3198
 3426SOL    MW413472   5.060   5.043   2.899 -0.4973  1.1672 -0.3865
 3427SOL     OW13473   0.369   2.951   2.976  0.2102  0.2192  0.5449
 3427SOL    HW213474   0.436   2.952   3.045  1.1708  0.3802 -0.3601
 3427SOL    HW313475   0.393   2.877   2.920 -0.7116 -0.0740  0.5215
 3427SOL    MW413476   0.381   2.941   2.978  0.2153  0.2018  0.4224
 3428SOL     OW13477   1.880   4.531   3.900 -0.6490  0.6509  0.1593
 3428SOL    HW213478   1.812   4.514   3.835 -0.1103  0.8881 -0.4798
 3428SOL    HW313479   1.941   4.458   3.891  1.0145  2.1488 -1.7346
 3428SOL    MW413480   1.879   4.519   3.891 -0.3585  0.8798 -0.1749
 3429SOL     OW13481   3.178   2.061   2.902  0.2446 -0.3877  0.5534
 3429SOL    HW213482   3.212   2.132   2.957 -1.2452  0.1290  0.8429
 3429SOL    HW313483   3.194   1.982   2.952 -1.2954  0.0933  1.8855
 3429SOL    MW413484   3.185   2.060   2.916 -0.1552 -0.2560  0.7673
 3430SOL     OW13485   1.471   3.027   4.978 -0.3376 -0.1064  0.1233
 3430SOL    HW213486   1.376   3.015   4.968 -0.5899  1.3127  0.5938
 3430SOL    HW313487   1.496   2.964   5.045 -0.5173 -2.1068 -1.5811
 3430SOL    MW413488   1.462   3.017   4.985 -0.3946 -0.1831 -0.0395
 3431SOL     OW13489   3.097   1.503   3.761 -0.4935  0.3878  1.0794
 3431SOL    HW213490   3.047   1.502   3.679  1.7207  2.1449 -0.4261
 3431SOL    HW313491   3.082   1.417   3.799 -2.5206 -0.0852 -0.5684
 3431SOL    MW413492   3.088   1.492   3.755 -0.4688  0.5572  0.6634
 3432SOL     OW13493   4.795   1.941   2.914 -0.2501  0.0519  0.1353
 3432SOL    HW213494   4.801   2.034   2.936 -3.5234  0.6597 -1.0358
 3432SOL    HW313495   4.731   1.906   2.976  0.9981 -1.5082  0.6151
 3432SOL    MW413496   4.787   1.949   2.925 -0.5173 -0.0737  0.0441
 3433SOL     OW13497   1.916   6.136   2.197  0.2935 -0.1328  0.1025
 3433SOL    HW213498   1.905   6.220   2.242  2.5674  0.5189 -0.3908
 3433SOL    HW313499   1.940   6.161   2.107 -1.4823 -1.3762 -0.7768
 3433SOL    MW413500   1.918   6.150   2.191  0.3593 -0.2109 -0.0786
 3434SOL     OW13501   0.982   5.813   3.185 -0.6049  0.5117 -0.1827
 3434SOL    HW213502   0.909   5.866   3.154 -0.5227  0.7200 -0.0152
 3434SOL    HW313503   1.050   5.825   3.118 -0.8316  0.0654 -0.5072
 3434SOL    MW413504   0.982   5.821   3.172 -0.6240  0.4803 -0.2034
 3435SOL     OW13505   0.515   4.206   5.076 -0.1471  0.2912  0.3588
 3435SOL    HW213506   0.421   4.193   5.085 -0.3108 -0.4170 -1.7968
 3435SOL    HW313507   0.539   4.157   4.997  2.0525  0.3888  0.8818
 3435SOL    MW413508   0.506   4.198   5.067  0.1215  0.2106  0.1434
 3436SOL     OW13509   5.025   5.030   3.392 -0.2747 -0.1619  0.3883
 3436SOL    HW213510   4.949   5.015   3.448 -0.6807  1.0263  0.1807
 3436SOL    HW313511   5.094   5.056   3.453 -0.0461 -1.1545  0.5672
 3436SOL    MW413512   5.024   5.031   3.408 -0.2981 -0.1361  0.3845
 3437SOL     OW13513   3.737   5.963   1.044  0.0245  0.1056 -0.2145
 3437SOL    HW213514   3.661   6.021   1.051 -0.0086 -0.0650  1.2099
 3437SOL    HW313515   3.713   5.900   0.977 -0.4372  0.9967 -0.9127
 3437SOL    MW413516   3.724   5.963   1.036 -0.0408  0.2007 -0.1186
 3438SOL     OW13517   4.065   6.270   5.083 -0.0242 -0.0004 -0.7524
 3438SOL    HW213518   4.031   6.280   5.171  1.4807 -0.5843 -0.0673
 3438SOL    HW313519   4.034   6.184   5.054  2.4046 -1.4991  0.6801
 3438SOL    MW413520   4.057   6.260   5.091  0.4948 -0.2752 -0.4730
 3439SOL     OW13521   4.300   2.698   0.123 -0.1779 -0.5478  0.2982
 3439SOL    HW213522   4.352   2.769   0.086  0.1705 -1.1742 -0.4584
 3439SOL    HW313523   4.215   2.738   0.143  0.2023  0.2056  0.4134
 3439SOL    MW413524   4.296   2.712   0.121 -0.0818 -0.5310  0.2136
 3440SOL     OW13525   0.397   3.495   0.415  0.1846 -0.6038 -0.3215
 3440SOL    HW213526   0.338   3.520   0.487  0.0880 -1.0374 -0.2486
 3440SOL    HW313527   0.444   3.418   0.448 -0.3846 -1.2521 -0.9922
 3440SOL    MW413528   0.395   3.488   0.429  0.0968 -0.7466 -0.4004
 3441SOL     OW13529   4.595   3.087   2.620 -0.0650 -0.4042  0.1150
 3441SOL    HW213530   4.616   3.128   2.703  1.1577  1.1460 -0.8906
 3441SOL    HW313531   4.538   3.150   2.576 -0.1828 -0.9112 -0.4773
 3441SOL    MW413532   4.590   3.101   2.625  0.0808 -0.2666 -0.0958
 3442SOL     OW13533   5.275   2.005   6.099 -0.3833 -0.1890  0.4795
 3442SOL    HW213534   5.327   1.955   6.036 -2.1525 -1.1203 -0.3082
 3442SOL    HW313535   5.310   2.094   6.094 -0.4305 -0.2520 -1.7705
 3442SOL    MW413536   5.287   2.010   6.090 -0.6230 -0.3202  0.0787
 3443SOL     OW13537   3.210   5.595   5.054 -0.0700  0.0378 -0.2141
 3443SOL    HW213538   3.205   5.540   5.132 -0.6206 -0.0738 -0.3248
 3443SOL    HW313539   3.214   5.533   4.981  2.6608  0.0895 -0.1944
 3443SOL    MW413540   3.210   5.580   5.055  0.2177  0.0299 -0.2261
 3444SOL     OW13541   0.859   1.946   3.019  0.0743 -0.2299 -0.0450
 3444SOL    HW213542   0.839   1.863   2.974  0.8127 -0.3174 -0.2168
 3444SOL    HW313543   0.943   1.973   2.983  0.1988  0.2122  0.5678
 3444SOL    MW413544   0.867   1.938   3.008  0.1881 -0.1831  0.0132
 3445SOL     OW13545   3.508   4.497   3.742  0.0026 -0.2177 -0.6849
 3445SOL    HW213546   3.502   4.405   3.766  0.5347 -0.0335  0.1911
 3445SOL    HW313547   3.586   4.502   3.687  0.5850 -0.1256  0.1317
 3445SOL    MW413548   3.518   4.485   3.738  0.1497 -0.1812 -0.4616
 3446SOL     OW13549   3.555   6.398   5.086  0.1877 -0.6188  0.2160
 3446SOL    HW213550   3.640   6.390   5.044  0.6492 -0.6595  1.1295
 3446SOL    HW313551   3.574   6.394   5.180 -0.6550  0.8378  0.4764
 3446SOL    MW413552   3.568   6.396   5.093  0.1374 -0.4320  0.3709
 3447SOL     OW13553   5.505   6.420   5.939 -0.0373 -0.4970 -0.2063
 3447SOL    HW213554   5.542   6.386   6.021 -2.9359  2.2964  2.5375
 3447SOL    HW313555   5.425   6.369   5.926 -0.0344 -0.3418 -0.8487
 3447SOL    MW413556   5.499   6.409   5.948 -0.4193 -0.1079  0.0709
 3448SOL     OW13557   5.215   4.838   5.452 -0.3219  0.2971  0.1379
 3448SOL    HW213558   5.298   4.872   5.420  0.6517 -2.2511 -0.3327
 3448SOL    HW313559   5.152   4.858   5.382 -0.3508  2.8302  0.7880
 3448SOL    MW413560   5.217   4.845   5.439 -0.1972  0.2951  0.1616
 3449SOL     OW13561   6.031   1.091   4.162  0.5824 -0.2637 -0.1584
 3449SOL    HW213562   6.076   1.158   4.214 -0.2158  0.6950 -0.6759
 3449SOL    HW313563   6.008   1.135   4.081 -2.3515 -0.3211  0.5442
 3449SOL    MW413564   6.034   1.106   4.158  0.0900 -0.1448 -0.1340
 3450SOL     OW13565   5.289   4.371   4.216 -0.4643 -0.3197 -0.2998
 3450SOL    HW213566   5.382   4.350   4.228 -0.7881 -1.2355  0.8735
 3450SOL    HW313567   5.271   4.348   4.125  0.2783 -0.9269 -0.3087
 3450SOL    MW413568   5.299   4.365   4.206 -0.4090 -0.5207 -0.1462
 3451SOL     OW13569   4.479   0.144   5.616 -0.3752  1.0393 -0.2450
 3451SOL    HW213570   4.469   0.049   5.615  1.2015  0.7744  1.5608
 3451SOL    HW313571   4.429   0.173   5.692 -0.0969  1.5254 -0.2385
 3451SOL    MW413572   4.471   0.136   5.626 -0.1305  1.0685 -0.0059
 3452SOL     OW13573   6.137   0.839   3.290  0.1529  0.1242  0.0953
 3452SOL    HW213574   6.070   0.809   3.229 -2.1261 -0.5082  2.6879
 3452SOL    HW313575   6.114   0.931   3.307  0.2892  0.0820  0.5320
 3452SOL    MW413576   6.125   0.847   3.284 -0.1298  0.0352  0.4950
 3453SOL     OW13577   1.488   3.631   0.820 -0.0058  0.3751  0.1248
 3453SOL    HW213578   1.580   3.607   0.830 -0.0034  0.4741  0.3435
 3453SOL    HW313579   1.473   3.697   0.888 -0.5258 -0.4398  0.8325
 3453SOL    MW413580   1.498   3.636   0.830 -0.0741  0.2807  0.2470
 3454SOL     OW13581   4.362   3.557   4.946 -0.9722  0.3236 -0.1240
 3454SOL    HW213582   4.369   3.652   4.954 -0.2217  0.1530  1.6394
 3454SOL    HW313583   4.440   3.523   4.990 -1.6847 -1.1343  0.0722
 3454SOL    MW413584   4.373   3.565   4.953 -0.9672  0.1087  0.1345
 3455SOL     OW13585   0.843   4.482   3.224 -0.2508  0.2780  0.2339
 3455SOL    HW213586   0.843   4.556   3.164 -1.3815 -0.2550 -0.4476
 3455SOL    HW313587   0.825   4.520   3.310 -1.0264  0.7849 -0.1437
 3455SOL    MW413588   0.841   4.497   3.227 -0.5023  0.2746  0.0942
 3456SOL     OW13589   4.906   3.010   2.877 -0.0944 -0.0159  0.4479
 3456SOL    HW213590   4.841   2.984   2.942 -0.6684 -1.8228 -0.7563
 3456SOL    HW313591   4.874   3.094   2.843 -0.1994  0.5581  1.8905
 3456SOL    MW413592   4.893   3.018   2.881 -0.1840 -0.1786  0.4794
 3457SOL     OW13593   6.090   6.417   3.694  0.1957 -0.1818 -0.1610
 3457SOL    HW213594   6.166   6.460   3.654  0.8933 -2.1029 -1.0002
 3457SOL    HW313595   6.125   6.376   3.773 -0.3872  0.4289  0.4288
 3457SOL    MW413596   6.105   6.418   3.700  0.2109 -0.3547 -0.1939
 3458SOL     OW13597   6.005   2.341   6.312  0.3579 -0.9048 -0.2339
 3458SOL    HW213598   5.938   2.403   6.341 -1.3834 -1.9358 -1.8342
 3458SOL    HW313599   5.980   2.318   6.223  3.0851 -1.0923 -1.0669
 3458SOL    MW413600   5.993   2.346   6.304  0.4880 -1.0656 -0.5549
 3459SOL     OW13601   0.026   3.170   5.794  0.5688 -0.4143 -0.1997
 3459SOL    HW213602  -0.013   3.087   5.766  0.6145 -0.2038 -0.9057
 3459SOL    HW313603   0.031   3.222   5.714  2.6622 -0.5734 -0.2222
 3459SOL    MW413604   0.021   3.166   5.780  0.8510 -0.4075 -0.2958
 3460SOL     OW13605   3.253   5.291   4.535 -0.0442  0.5592  0.0554
 3460SOL    HW213606   3.337   5.255   4.564 -0.7788 -0.0309  1.5754
 3460SOL    HW313607   3.230   5.355   4.602 -1.7188 -0.7151  0.7694
 3460SOL    MW413608   3.261   5.295   4.548 -0.3621  0.3132  0.3501
 3461SOL     OW13609   2.643   4.870   4.700 -0.2817  0.0574 -0.0596
 3461SOL    HW213610   2.558   4.911   4.715 -0.3824 -0.4151  0.7447
 3461SOL    HW313611   2.701   4.911   4.764 -0.4794 -1.3059  1.0350
 3461SOL    MW413612   2.640   4.880   4.710 -0.3211 -0.1848  0.1910
 3462SOL     OW13613   0.445   4.319   1.740  0.0143 -0.1662 -0.2576
 3462SOL    HW213614   0.458   4.399   1.790  1.3504 -1.2657  1.2595
 3462SOL    HW313615   0.529   4.303   1.697 -0.3389 -0.5806 -0.8112
 3462SOL    MW413616   0.458   4.327   1.741  0.1440 -0.3659 -0.1305
 3463SOL     OW13617   4.696   5.910   2.183  0.3744  0.5707 -0.2339
 3463SOL    HW213618   4.605   5.920   2.209 -0.4270 -2.0795 -1.6522
 3463SOL    HW313619   4.714   5.985   2.127 -1.3932  0.4345 -1.0289
 3463SOL    MW413620   4.687   5.921   2.179  0.0354  0.2031 -0.5259
 3464SOL     OW13621   1.801   5.585   3.299 -0.1378 -0.1228 -0.1872
 3464SOL    HW213622   1.896   5.583   3.296 -0.1572  0.1213 -1.0932
 3464SOL    HW313623   1.779   5.672   3.332 -0.0322 -0.7834  1.7439
 3464SOL    MW413624   1.810   5.596   3.303 -0.1265 -0.1777 -0.0519
 3465SOL     OW13625   3.762   5.135   3.919  0.4129  0.1310  0.0742
 3465SOL    HW213626   3.708   5.056   3.917  0.7157 -0.0780  0.0559
 3465SOL    HW313627   3.816   5.129   3.839 -0.1283  0.7584 -0.3525
 3465SOL    MW413628   3.762   5.124   3.908  0.3815  0.1862  0.0155
 3466SOL     OW13629   4.862   3.282   1.815  0.0866 -0.0896  0.2405
 3466SOL    HW213630   4.946   3.274   1.770 -0.1064  0.5330 -0.2372
 3466SOL    HW313631   4.797   3.293   1.745 -0.4317 -0.7643  0.5928
 3466SOL    MW413632   4.864   3.282   1.800 -0.0072 -0.0965  0.2240
 3467SOL     OW13633   5.617   0.589   4.739 -0.5197 -0.3427  0.5009
 3467SOL    HW213634   5.597   0.668   4.689 -1.1374  0.4023  1.8664
 3467SOL    HW313635   5.702   0.607   4.778  0.3369 -1.2485 -0.8645
 3467SOL    MW413636   5.625   0.602   4.738 -0.4881 -0.3639  0.5009
 3468SOL     OW13637   3.319   0.257   3.172 -0.1106  0.4006  0.1802
 3468SOL    HW213638   3.404   0.262   3.128  0.5525 -1.4594  1.1271
 3468SOL    HW313639   3.322   0.328   3.236  0.0770  1.3177 -0.8121
 3468SOL    MW413640   3.331   0.267   3.175  0.0017  0.2762  0.1742
 3469SOL     OW13641   4.717   6.290   1.700  0.4614  0.0586 -0.5697
 3469SOL    HW213642   4.656   6.293   1.626 -0.0492  2.0531 -0.1045
 3469SOL    HW313643   4.781   6.358   1.681  1.2742 -0.5155  0.0439
 3469SOL    MW413644   4.718   6.299   1.688  0.5013  0.2460 -0.4274
 3470SOL     OW13645   3.991   0.316   5.815  0.0684 -0.2472  0.0672
 3470SOL    HW213646   3.968   0.288   5.727  0.6929 -0.3713 -0.0610
 3470SOL    HW313647   3.928   0.271   5.872  0.2839 -0.9407 -0.2337
 3470SOL    MW413648   3.980   0.307   5.811  0.1792 -0.3550  0.0106
 3471SOL     OW13649   2.121   0.114   2.795 -0.0072 -0.1477 -0.5779
 3471SOL    HW213650   2.061   0.077   2.859  1.3320  1.1313  1.5071
 3471SOL    HW313651   2.113   0.209   2.806  2.2084  0.0586 -0.3713
 3471SOL    MW413652   2.112   0.121   2.805  0.4618  0.0482 -0.2756
 3472SOL     OW13653   1.517   2.412   2.088 -0.1266 -0.3366  0.4735
 3472SOL    HW213654   1.479   2.392   2.002  2.0893 -0.9068 -0.4480
 3472SOL    HW313655   1.577   2.485   2.071  0.9261 -0.9636  1.3553
 3472SOL    MW413656   1.520   2.419   2.074  0.3046 -0.4946  0.4682
 3473SOL     OW13657   5.018   2.134   1.661 -0.4115  0.3020 -0.2314
 3473SOL    HW213658   5.066   2.088   1.591 -1.6566  0.6631 -1.3652
 3473SOL    HW313659   4.972   2.065   1.708 -0.0685  0.1197 -0.1592
 3473SOL    MW413660   5.018   2.119   1.658 -0.5305  0.3256 -0.3715
 3474SOL     OW13661   3.492   5.565   2.345 -0.1466 -0.5861  0.1186
 3474SOL    HW213662   3.531   5.486   2.307  1.2434  0.5355 -0.9028
 3474SOL    HW313663   3.405   5.570   2.305 -1.1235 -2.6862  1.8048
 3474SOL    MW413664   3.485   5.556   2.335 -0.0921 -0.7152  0.2063
 3475SOL     OW13665   1.493   1.699   3.104 -0.0886 -0.0899 -0.3447
 3475SOL    HW213666   1.433   1.754   3.155 -0.3575 -0.3907 -0.3331
 3475SOL    HW313667   1.436   1.648   3.046 -0.0835 -2.1512  1.3278
 3475SOL    MW413668   1.477   1.700   3.103 -0.1234 -0.4015 -0.1225
 3476SOL     OW13669   4.984   4.134   3.873  0.9447  0.1279  0.9367
 3476SOL    HW213670   4.910   4.174   3.919 -1.3938 -0.9038 -1.6478
 3476SOL    HW313671   4.963   4.041   3.872  3.2993 -0.4734  1.7036
 3476SOL    MW413672   4.971   4.127   3.879  0.9468 -0.0875  0.6969
 3477SOL     OW13673   2.005   4.130   5.956 -0.5452 -0.0375 -0.1993
 3477SOL    HW213674   1.942   4.189   5.915 -0.6395  0.9409  1.2631
 3477SOL    HW313675   2.088   4.150   5.912 -0.7003  0.7627 -0.1458
 3477SOL    MW413676   2.008   4.141   5.945 -0.5781  0.1971  0.0007
 3478SOL     OW13677   4.873   3.959   2.176  0.4703 -0.6416 -0.1632
 3478SOL    HW213678   4.922   4.033   2.211 -1.3480  1.5057 -1.8423
 3478SOL    HW313679   4.875   3.894   2.246  0.0642  1.9548  2.4526
 3478SOL    MW413680   4.880   3.960   2.190  0.1768 -0.0157 -0.0396
 3479SOL     OW13681   0.837   0.949   0.081 -0.0240 -0.3931 -0.5879
 3479SOL    HW213682   0.886   1.027   0.055  0.9660 -0.6555  0.3899
 3479SOL    HW313683   0.768   0.941   0.016 -1.4451  2.4738  0.3802
 3479SOL    MW413684   0.834   0.958   0.069 -0.0809 -0.0495 -0.3312
 3480SOL     OW13685   4.152   4.902   6.029  0.6609  0.4355  0.3131
 3480SOL    HW213686   4.082   4.852   5.988 -0.2100  1.1229  0.9300
 3480SOL    HW313687   4.194   4.839   6.088 -0.9670  0.6005  1.7284
 3480SOL    MW413688   4.149   4.887   6.031  0.3312  0.5480  0.5812
 3481SOL     OW13689   2.529   2.149   6.012  0.1113 -0.1597 -0.1011
 3481SOL    HW213690   2.551   2.143   6.105 -1.9136  0.5760  0.4779
 3481SOL    HW313691   2.464   2.220   6.007 -2.0244 -2.0672 -1.6218
 3481SOL    MW413692   2.523   2.158   6.024 -0.4376 -0.3143 -0.2254
 3482SOL     OW13693   6.385   5.596   1.068 -0.7849 -0.5394  0.7586
 3482SOL    HW213694   6.479   5.581   1.056 -0.8169 -0.2525  0.0950
 3482SOL    HW313695   6.370   5.685   1.035 -1.2987 -0.6036  0.8067
 3482SOL    MW413696   6.395   5.606   1.062 -0.8569 -0.5100  0.6774
 3483SOL     OW13697   5.831   1.235   1.032  0.4170  0.4590  0.3739
 3483SOL    HW213698   5.753   1.180   1.038  0.2663  0.4541 -1.1704
 3483SOL    HW313699   5.885   1.193   0.965  0.2732  2.1546 -0.8835
 3483SOL    MW413700   5.828   1.222   1.024  0.3781  0.6821  0.0042
 3484SOL     OW13701   5.192   6.187   1.472  0.6687  0.1385  0.1369
 3484SOL    HW213702   5.100   6.186   1.501  0.0665 -1.5239 -1.6331
 3484SOL    HW313703   5.215   6.280   1.469 -0.8826  0.5876  0.8205
 3484SOL    MW413704   5.183   6.199   1.476  0.3845 -0.0215 -0.0064
 3485SOL     OW13705   5.239   0.862   5.804 -0.2444 -0.2926  0.3854
 3485SOL    HW213706   5.219   0.803   5.877  0.7205  0.1516  1.0306
 3485SOL    HW313707   5.169   0.926   5.805  0.1148  0.1114  1.3732
 3485SOL    MW413708   5.227   0.863   5.814 -0.0697 -0.1807  0.6009
 3486SOL     OW13709   4.894   4.388   3.008  0.7074  0.5036  0.5093
 3486SOL    HW213710   4.854   4.429   3.085  0.8618  0.2058  0.7543
 3486SOL    HW313711   4.988   4.398   3.022  0.7452  0.1348  0.5380
 3486SOL    MW413712   4.901   4.395   3.020  0.7327  0.4157  0.5454
 3487SOL     OW13713   0.597   2.529   0.129  0.4241  0.7036  0.1028
 3487SOL    HW213714   0.643   2.555   0.049 -1.0878  0.9074 -0.7586
 3487SOL    HW313715   0.550   2.449   0.103  1.3307 -0.2772  1.3465
 3487SOL    MW413716   0.597   2.522   0.115  0.3443  0.6011  0.1532
 3488SOL     OW13717   5.961   4.006   4.180  0.3000  0.0902 -0.3546
 3488SOL    HW213718   5.982   4.027   4.089 -1.3430  1.0967 -0.5467
 3488SOL    HW313719   6.001   3.920   4.195 -1.8186 -1.5038 -2.9746
 3488SOL    MW413720   5.969   3.998   4.170 -0.1963  0.0127 -0.7256
 3489SOL     OW13721   5.105   2.025   4.871  0.2016 -0.2054  0.4695
 3489SOL    HW213722   5.134   2.035   4.780  0.7671 -0.9034  0.5652
 3489SOL    HW313723   5.012   2.045   4.868  0.0384 -1.0035 -0.4224
 3489SOL    MW413724   5.097   2.029   4.859  0.2547 -0.4028  0.3644
 3490SOL     OW13725   5.918   2.531   2.305  0.2107 -0.1949  0.1522
 3490SOL    HW213726   5.958   2.615   2.281 -2.1974  0.6898 -1.0939
 3490SOL    HW313727   5.908   2.485   2.221 -0.8869 -0.5708  0.4691
 3490SOL    MW413728   5.922   2.536   2.291 -0.2518 -0.1277  0.0296
 3491SOL     OW13729   4.368   4.608   3.814 -0.3198  0.0459  0.6322
 3491SOL    HW213730   4.283   4.634   3.778 -0.7607 -0.7166  1.1086
 3491SOL    HW313731   4.348   4.538   3.876  0.6111  0.1610  1.0864
 3491SOL    MW413732   4.354   4.602   3.818 -0.2551 -0.0395  0.7550
 3492SOL     OW13733   5.760   1.637   2.088 -0.3748 -0.6756  0.3441
 3492SOL    HW213734   5.821   1.616   2.018  1.6965  3.3695  0.6519
 3492SOL    HW313735   5.673   1.618   2.050  0.7858 -1.5178 -2.1250
 3492SOL    MW413736   5.756   1.631   2.074  0.0516 -0.2530  0.0590
 3493SOL     OW13737   3.961   1.751   6.020 -0.1563 -0.2689  0.8634
 3493SOL    HW213738   3.886   1.700   6.049 -0.6016 -1.6176 -2.2783
 3493SOL    HW313739   4.002   1.697   5.953 -0.5520  3.2893 -2.6035
 3493SOL    MW413740   3.956   1.737   6.015 -0.2673  0.0226 -0.0085
 3494SOL     OW13741   4.360   2.491   2.191 -1.0057  0.0407 -0.4040
 3494SOL    HW213742   4.319   2.458   2.111  0.9435  1.5041 -2.1147
 3494SOL    HW313743   4.360   2.416   2.250 -4.0227 -0.6283 -1.0719
 3494SOL    MW413744   4.355   2.477   2.188 -1.1466  0.1455 -0.7178
 3495SOL     OW13745   6.253   5.341   4.024 -0.0978  0.3719 -0.1156
 3495SOL    HW213746   6.221   5.252   4.043 -1.7736  0.9069 -0.2781
 3495SOL    HW313747   6.257   5.383   4.110 -0.5647  0.5347 -0.1724
 3495SOL    MW413748   6.249   5.335   4.038 -0.3805  0.4640 -0.1445
 3496SOL     OW13749   1.121   1.939   4.136 -0.3162 -0.0792  0.2221
 3496SOL    HW213750   1.199   1.899   4.175 -0.6344 -1.2090 -0.2856
 3496SOL    HW313751   1.144   2.032   4.126  0.7048 -0.2720  0.7058
 3496SOL    MW413752   1.134   1.946   4.140 -0.2235 -0.2537  0.2189
 3497SOL     OW13753   6.008   0.529   1.046  0.6938  0.3863 -0.0542
 3497SOL    HW213754   5.972   0.532   1.135 -1.2839  0.8163 -0.8092
 3497SOL    HW313755   5.986   0.615   1.008  2.7559  0.7573 -0.5407
 3497SOL    MW413756   6.000   0.541   1.053  0.7049  0.4920 -0.2180
 3498SOL     OW13757   3.091   6.006   2.232  0.7454 -0.3358  0.5053
 3498SOL    HW213758   3.174   6.047   2.256  1.6345 -1.4251 -0.5585
 3498SOL    HW313759   3.059   5.966   2.314  1.0410  0.4615  1.0169
 3498SOL    MW413760   3.098   6.006   2.246  0.9017 -0.3743  0.4325
 3499SOL     OW13761   3.542   6.155   4.069 -0.0386 -0.5826 -0.2258
 3499SOL    HW213762   3.477   6.224   4.075  0.8761  0.1883  1.5280
 3499SOL    HW313763   3.494   6.075   4.093 -0.4430 -0.0895  0.6668
 3499SOL    MW413764   3.527   6.153   4.073  0.0288 -0.4158  0.1234
 3500SOL     OW13765   2.666   0.754   4.144  0.0209 -0.2372 -0.2581
 3500SOL    HW213766   2.686   0.678   4.088 -0.8960 -1.9503  1.6377
 3500SOL    HW313767   2.752   0.791   4.165  0.7738 -2.6489  1.2621
 3500SOL    MW413768   2.680   0.749   4.139 -0.0008 -0.7814  0.1926
 3501SOL     OW13769   0.569   3.428   2.587 -0.3915  0.2434  0.6687
 3501SOL    HW213770   0.510   3.426   2.511 -0.4513  1.2408  0.6771
 3501SOL    HW313771   0.514   3.454   2.660  0.0123  1.0052  0.7128
 3501SOL    MW413772   0.554   3.431   2.586 -0.3461  0.4755  0.6756
 3502SOL     OW13773   4.033   5.860   0.023 -0.0362 -0.0968 -0.4183
 3502SOL    HW213774   3.941   5.883   0.032 -0.3818 -1.0281 -1.3356
 3502SOL    HW313775   4.075   5.942  -0.005 -0.6257  0.2723 -0.2446
 3502SOL    MW413776   4.026   5.874   0.020 -0.1596 -0.1709 -0.5164
 3503SOL     OW13777   3.530   6.343   1.480 -0.5198 -0.5161  0.0705
 3503SOL    HW213778   3.506   6.404   1.550 -2.4138  1.2144 -1.9463
 3503SOL    HW313779   3.456   6.282   1.476 -0.5180 -0.4804 -0.5445
 3503SOL    MW413780   3.517   6.343   1.489 -0.7695 -0.2831 -0.2767
 3504SOL     OW13781   1.911   3.341   0.483  0.3134  0.0689 -0.0906
 3504SOL    HW213782   1.966   3.277   0.438 -1.1010 -1.8865  0.8394
 3504SOL    HW313783   1.840   3.290   0.521 -1.6017  2.3403 -0.3391
 3504SOL    MW413784   1.909   3.326   0.482 -0.1259  0.1106 -0.0007
 3505SOL     OW13785   3.946   1.310   2.717  0.3341 -0.6364 -0.3663
 3505SOL    HW213786   3.957   1.389   2.770 -2.9556 -0.8542  0.8787
 3505SOL    HW313787   3.904   1.341   2.636  0.1977 -0.9491 -0.4168
 3505SOL    MW413788   3.942   1.325   2.713 -0.1179 -0.7064 -0.2087
 3506SOL     OW13789   1.749   0.999   1.707 -0.2336 -0.3176 -0.4445
 3506SOL    HW213790   1.720   1.018   1.796  0.6380 -0.3790 -0.1373
 3506SOL    HW313791   1.784   0.910   1.711  3.0518  0.8500  0.0326
 3506SOL    MW413792   1.750   0.990   1.719  0.3148 -0.1717 -0.3410
 3507SOL     OW13793   6.112   2.973   3.520  0.0623 -0.5291 -0.0408
 3507SOL    HW213794   6.102   2.947   3.611 -2.3811  0.3085 -0.0051
 3507SOL    HW313795   6.034   2.940   3.476  0.7472 -0.1320 -1.6413
 3507SOL    MW413796   6.100   2.965   3.526 -0.1697 -0.3662 -0.2473
 3508SOL     OW13797   4.464   1.214   4.871  0.4423  0.4203  0.3283
 3508SOL    HW213798   4.451   1.268   4.793 -0.7830 -0.0784  0.1633
 3508SOL    HW313799   4.379   1.173   4.886  1.1693 -0.9573  0.8316
 3508SOL    MW413800   4.451   1.216   4.863  0.3766  0.1728  0.3730
 3509SOL     OW13801   3.092   4.199   2.265 -0.0815 -0.2128  0.3890
 3509SOL    HW213802   3.160   4.248   2.311  0.3279 -2.2581  2.1139
 3509SOL    HW313803   3.139   4.135   2.214 -0.6729 -0.4487  0.1262
 3509SOL    MW413804   3.107   4.197   2.264 -0.1055 -0.5138  0.5819
 3510SOL     OW13805   1.706   2.077   5.871  0.0614  0.3197 -0.5035
 3510SOL    HW213806   1.658   2.159   5.874  0.5903  0.6334 -0.6127
 3510SOL    HW313807   1.734   2.062   5.962 -0.5015 -0.0230 -0.3802
 3510SOL    MW413808   1.703   2.086   5.884  0.0569  0.3159 -0.5016
 3511SOL     OW13809   1.735   3.152   0.615 -0.1380 -0.2242 -0.0137
 3511SOL    HW213810   1.671   3.198   0.670  0.7860  1.2800 -0.1179
 3511SOL    HW313811   1.683   3.104   0.551 -1.1756  0.6245  0.1719
 3511SOL    MW413812   1.720   3.152   0.614 -0.1530  0.0862 -0.0030
 3512SOL     OW13813   3.474   2.727   2.858  0.2784 -0.1156  0.2205
 3512SOL    HW213814   3.530   2.790   2.813  1.1200 -1.0866 -0.1475
 3512SOL    HW313815   3.429   2.680   2.788 -0.0753 -0.1597  0.4720
 3512SOL    MW413816   3.475   2.729   2.843  0.3428 -0.2495  0.2051
 3513SOL     OW13817   5.913   2.215   5.079  0.3171  0.2470  0.0787
 3513SOL    HW213818   5.820   2.224   5.102 -0.1487 -2.2704 -0.5559
 3513SOL    HW313819   5.960   2.229   5.161 -0.6847  0.5207  0.6285
 3513SOL    MW413820   5.907   2.218   5.093  0.1235 -0.0490  0.0675
 3514SOL     OW13821   3.947   2.515   5.864  0.0280 -0.2082  0.1207
 3514SOL    HW213822   3.968   2.608   5.855 -1.0723  0.0310 -0.1549
 3514SOL    HW313823   4.007   2.484   5.932  0.6293  0.6222 -0.0034
 3514SOL    MW413824   3.958   2.523   5.872 -0.0378 -0.0670  0.0679
 3515SOL     OW13825   4.421   0.596   1.721  0.0023 -0.3560  0.1950
 3515SOL    HW213826   4.453   0.560   1.804  1.9873  0.9153  0.0460
 3515SOL    HW313827   4.330   0.619   1.739 -0.3485 -2.3058  1.2563
 3515SOL    MW413828   4.413   0.594   1.734  0.2179 -0.4455  0.3154
 3516SOL     OW13829   6.126   1.836   2.570 -0.2005  0.2700  0.2191
 3516SOL    HW213830   6.108   1.807   2.480  0.6606 -1.1160  0.4652
 3516SOL    HW313831   6.142   1.930   2.562  1.6370 -0.1114 -1.3831
 3516SOL    MW413832   6.126   1.845   2.557  0.1555  0.0368  0.0402
 3517SOL     OW13833   2.079   0.834   0.959 -0.5377 -0.3921  0.3696
 3517SOL    HW213834   2.033   0.872   0.884  1.1795  1.0644 -0.0180
 3517SOL    HW313835   2.039   0.749   0.972 -1.2045 -0.4724 -1.9143
 3517SOL    MW413836   2.068   0.828   0.951 -0.3991 -0.2105  0.0171
 3518SOL     OW13837   5.046   4.989   2.064  0.3993 -0.3409  0.1193
 3518SOL    HW213838   5.059   5.041   1.985 -0.3342  1.1016  0.8969
 3518SOL    HW313839   5.045   4.899   2.034 -0.9759  0.2137 -1.6906
 3518SOL    MW413840   5.048   4.984   2.050  0.1211 -0.0774 -0.0169
 3519SOL     OW13841   1.042   5.972   2.866 -0.5383 -0.1496  0.7971
 3519SOL    HW213842   1.088   5.902   2.914  0.4156  0.0548  0.2030
 3519SOL    HW313843   1.109   6.037   2.849  0.1164 -1.6514 -3.7530
 3519SOL    MW413844   1.057   5.971   2.870 -0.3260 -0.3208  0.1184
 3520SOL     OW13845   5.188   4.884   2.707 -0.2707  0.1649  0.4174
 3520SOL    HW213846   5.241   4.818   2.753 -0.6721 -1.6302 -1.5256
 3520SOL    HW313847   5.149   4.937   2.777  0.2238 -1.5609  2.0812
 3520SOL    MW413848   5.190   4.882   2.722 -0.2584 -0.2996  0.3805
 3521SOL     OW13849   5.920   6.393   2.779 -0.2513  0.7777  0.0685
 3521SOL    HW213850   5.849   6.395   2.715 -1.2304 -1.2531  0.9890
 3521SOL    HW313851   5.897   6.462   2.842 -0.3276  1.4540 -0.6848
 3521SOL    MW413852   5.907   6.403   2.779 -0.3905  0.5990  0.0905
 3522SOL     OW13853   3.435   4.588   5.480  0.1047  0.0344  0.6653
 3522SOL    HW213854   3.439   4.537   5.561  0.0046 -0.7776  0.1742
 3522SOL    HW313855   3.358   4.644   5.491 -0.5904 -0.8898  0.6754
 3522SOL    MW413856   3.425   4.589   5.492 -0.0002 -0.1947  0.6018
 3523SOL     OW13857   0.632   2.226   2.664  0.8162  0.2451  0.0912
 3523SOL    HW213858   0.721   2.230   2.698  0.1928  1.3925  1.7578
 3523SOL    HW313859   0.636   2.270   2.579  1.6644  1.2297  0.6168
 3523SOL    MW413860   0.644   2.232   2.657  0.8459  0.5264  0.3804
 3524SOL     OW13861   1.086   5.264   4.799 -0.3766  0.1959 -0.0612
 3524SOL    HW213862   1.130   5.252   4.715 -0.5458  2.4596 -0.5340
 3524SOL    HW313863   1.148   5.313   4.852 -1.4532  1.5147  0.0268
 3524SOL    MW413864   1.100   5.269   4.795 -0.5410  0.6686 -0.1119
 3525SOL     OW13865   2.765   0.924   0.203 -0.2296 -0.9550  0.1204
 3525SOL    HW213866   2.810   0.928   0.288  0.5875 -0.5211 -0.3248
 3525SOL    HW313867   2.806   0.992   0.151 -2.5013  0.5528  0.1865
 3525SOL    MW413868   2.776   0.933   0.207 -0.4215 -0.6988  0.0704
 3526SOL     OW13869   2.948   5.223   1.617 -0.7055  0.2537  0.2686
 3526SOL    HW213870   2.966   5.136   1.580 -1.6537  0.1758 -0.0353
 3526SOL    HW313871   3.029   5.272   1.602 -0.7041 -0.0953 -0.9661
 3526SOL    MW413872   2.961   5.218   1.610 -0.8304  0.1974  0.0656
 3527SOL     OW13873   0.592   2.038   5.132 -0.1367  0.1903  0.4036
 3527SOL    HW213874   0.637   1.960   5.163  1.5469  0.3241 -1.4985
 3527SOL    HW313875   0.531   2.005   5.066  1.0657  0.4889 -0.9020
 3527SOL    MW413876   0.590   2.023   5.127  0.2441  0.2474 -0.0196
 3528SOL     OW13877   5.699   0.190   3.899 -0.1020 -0.3512 -0.9986
 3528SOL    HW213878   5.621   0.136   3.894 -0.0973 -0.3289 -1.3247
 3528SOL    HW313879   5.745   0.174   3.817  0.1827 -0.2814 -0.8560
 3528SOL    MW413880   5.695   0.181   3.888 -0.0638 -0.3390 -1.0228
 3529SOL     OW13881   5.844   1.045   5.262  0.3127  0.0303  0.0189
 3529SOL    HW213882   5.769   1.003   5.303  0.6471 -0.3118  0.2908
 3529SOL    HW313883   5.908   1.055   5.334 -0.3060  2.3548  0.3241
 3529SOL    MW413884   5.843   1.041   5.277  0.2752  0.2918  0.0950
 3530SOL     OW13885   3.022   0.040   3.710  0.1403  0.1040  0.1470
 3530SOL    HW213886   3.048  -0.032   3.768  1.2458  0.2291 -0.1817
 3530SOL    HW313887   3.096   0.053   3.652 -0.6883  0.4398 -0.8683
 3530SOL    MW413888   3.035   0.032   3.710  0.1768  0.1648 -0.0303
 3531SOL     OW13889   3.837   4.007   2.964 -0.1381  0.1743  0.1586
 3531SOL    HW213890   3.908   3.960   2.920 -0.9721 -0.0090 -1.0439
 3531SOL    HW313891   3.873   4.031   3.049  0.8898 -1.1526  0.1357
 3531SOL    MW413892   3.851   4.004   2.970 -0.1125 -0.0249 -0.0031
 3532SOL     OW13893   1.779   5.938   5.654  0.3651 -0.4017 -0.0611
 3532SOL    HW213894   1.807   5.874   5.719  2.3032 -0.2266 -0.6584
 3532SOL    HW313895   1.726   6.001   5.704  0.1535 -1.3300  0.9324
 3532SOL    MW413896   1.775   5.938   5.669  0.5929 -0.5010 -0.0088
 3533SOL     OW13897   2.522   1.246   3.624  0.1604  0.6078 -0.0205
 3533SOL    HW213898   2.552   1.176   3.682 -0.6898  0.4455  0.2332
 3533SOL    HW313899   2.447   1.283   3.669 -0.2159  0.7941 -0.7976
 3533SOL    MW413900   2.516   1.241   3.638 -0.0014  0.6109 -0.0895
 3534SOL     OW13901   5.371   2.302   0.539 -0.3704  0.7222 -0.3412
 3534SOL    HW213902   5.419   2.222   0.517 -1.9927 -0.1395 -0.9973
 3534SOL    HW313903   5.438   2.369   0.549  0.9875 -0.5430 -0.6033
 3534SOL    MW413904   5.386   2.300   0.537 -0.4053  0.4416 -0.4624
 3535SOL     OW13905   4.016   4.479   1.154  0.4946 -0.5576  0.0427
 3535SOL    HW213906   3.984   4.401   1.110 -0.8453 -0.3312  0.5610
 3535SOL    HW313907   3.939   4.534   1.165  1.2277  0.4059  0.5864
 3535SOL    MW413908   4.002   4.476   1.150  0.4145 -0.4006  0.1828
 3536SOL     OW13909   5.923   4.451   4.525  0.3364  0.3857 -0.0936
 3536SOL    HW213910   5.982   4.522   4.501 -0.2783  0.9778  0.0895
 3536SOL    HW313911   5.980   4.378   4.546  0.9331 -0.0229 -2.7891
 3536SOL    MW413912   5.938   4.451   4.525  0.3340  0.4099 -0.4251
 3537SOL     OW13913   2.402   1.531   5.697 -0.0388 -0.2127  0.0819
 3537SOL    HW213914   2.310   1.556   5.691 -0.1932 -0.8409 -0.3175
 3537SOL    HW313915   2.403   1.457   5.759  0.1447 -0.4242 -0.1697
 3537SOL    MW413916   2.390   1.524   5.704 -0.0349 -0.3235 -0.0040
 3538SOL     OW13917   1.230   5.335   2.317 -0.2333 -0.0762  0.6840
 3538SOL    HW213918   1.202   5.406   2.260  0.6602 -0.4635 -0.2481
 3538SOL    HW313919   1.316   5.362   2.350  0.6039 -1.1755 -0.5227
 3538SOL    MW413920   1.237   5.348   2.314 -0.0049 -0.2724  0.4018
 3539SOL     OW13921   2.386   1.250   6.292 -0.5326 -0.2659 -0.5867
 3539SOL    HW213922   2.465   1.226   6.243 -0.7105  2.2306 -2.2832
 3539SOL    HW313923   2.378   1.182   6.358  2.9457 -0.7210 -0.4281
 3539SOL    MW413924   2.396   1.238   6.294 -0.0972  0.0034 -0.7896
 3540SOL     OW13925   6.288   0.624   2.751  0.3637 -0.0953  0.2045
 3540SOL    HW213926   6.371   0.671   2.750  0.4959 -0.3338 -0.5426
 3540SOL    HW313927   6.223   0.690   2.771  0.5328  0.4404 -0.9374
 3540SOL    MW413928   6.291   0.639   2.754  0.4035 -0.0561 -0.0448
 3541SOL     OW13929   5.767   3.582   5.140  0.0421  0.1661 -0.0477
 3541SOL    HW213930   5.747   3.540   5.223 -0.6392  0.8044  0.1254
 3541SOL    HW313931   5.743   3.516   5.074 -0.0149 -0.1091  0.2450
 3541SOL    MW413932   5.761   3.568   5.142 -0.0553  0.2140  0.0138
 3542SOL     OW13933   3.916   0.463   5.047  0.1001 -0.0220 -0.0701
 3542SOL    HW213934   3.916   0.549   5.091 -1.8918  0.1334 -0.2460
 3542SOL    HW313935   3.841   0.468   4.987  0.1679 -1.7691 -0.3358
 3542SOL    MW413936   3.906   0.475   5.045 -0.1537 -0.2320 -0.1284
 3543SOL     OW13937   2.839   6.354   3.385  0.3413  0.5442 -0.3524
 3543SOL    HW213938   2.768   6.314   3.336  0.3754 -0.5144  0.4196
 3543SOL    HW313939   2.869   6.285   3.445  1.4737  1.2263 -0.0968
 3543SOL    MW413940   2.834   6.339   3.387  0.4952  0.4945 -0.2168
 3544SOL     OW13941   0.286   3.499   1.464 -0.3057 -0.3231 -0.4190
 3544SOL    HW213942   0.257   3.412   1.438 -1.7163  0.0880 -0.3462
 3544SOL    HW313943   0.309   3.543   1.382  0.7801 -0.8696 -0.4225
 3544SOL    MW413944   0.285   3.493   1.450 -0.3485 -0.3410 -0.4099
 3545SOL     OW13945   1.299   1.523   3.756 -0.3994 -0.1150  0.4985
 3545SOL    HW213946   1.249   1.482   3.826 -2.2745 -1.0338 -1.2623
 3545SOL    HW313947   1.278   1.471   3.678  1.1633  1.1823 -0.8689
 3545SOL    MW413948   1.290   1.511   3.755 -0.4406 -0.0651  0.0857
 3546SOL     OW13949   3.878   3.194   1.062 -0.3000  0.2070 -0.8241
 3546SOL    HW213950   3.859   3.279   1.101  0.9746 -0.1894  0.7805
 3546SOL    HW313951   3.833   3.131   1.118  0.0089 -0.2540 -1.0854
 3546SOL    MW413952   3.870   3.197   1.075 -0.0911  0.0939 -0.6469
 3547SOL     OW13953   5.262   1.134   2.832 -0.5039 -0.2222  0.2152
 3547SOL    HW213954   5.210   1.116   2.909 -1.2287  0.0267 -0.2029
 3547SOL    HW313955   5.208   1.194   2.780 -0.6405 -1.4582 -1.1356
 3547SOL    MW413956   5.248   1.140   2.835 -0.6175 -0.3525 -0.0182
 3548SOL     OW13957   0.649   5.301   2.029  0.6614  0.3875 -0.2920
 3548SOL    HW213958   0.687   5.246   2.098  0.9330  0.2327 -0.5599
 3548SOL    HW313959   0.637   5.242   1.955 -3.0169 -0.3461  0.6992
 3548SOL    MW413960   0.653   5.286   2.028  0.2119  0.2702 -0.1966
 3549SOL     OW13961   4.044   3.763   6.368 -0.5336  0.1198  0.0865
 3549SOL    HW213962   4.086   3.705   6.305 -3.3318 -0.4091 -1.4636
 3549SOL    HW313963   4.038   3.848   6.324  0.6505  0.7472  1.0789
 3549SOL    MW413964   4.048   3.766   6.354 -0.7465  0.1328  0.0129
 3550SOL     OW13965   0.661   1.597   3.123  0.8713 -0.6485  0.0097
 3550SOL    HW213966   0.701   1.532   3.179 -0.5044 -1.5269  0.0236
 3550SOL    HW313967   0.602   1.547   3.065 -0.7204  0.5943  0.4651
 3550SOL    MW413968   0.658   1.582   3.122  0.4798 -0.6004  0.0716
 3551SOL     OW13969   2.812   0.407   6.294  0.4027  0.1658 -0.0758
 3551SOL    HW213970   2.797   0.344   6.223  3.9418 -0.3835 -0.5096
 3551SOL    HW313971   2.791   0.358   6.374  2.3717 -1.4365 -0.4501
 3551SOL    MW413972   2.807   0.392   6.295  1.1294 -0.1181 -0.1824
 3552SOL     OW13973   6.062   2.920   5.159  0.8006  0.4389 -0.5492
 3552SOL    HW213974   6.015   2.840   5.183  2.4827 -0.0451  1.3499
 3552SOL    HW313975   5.993   2.982   5.136 -0.7133 -0.6334  0.8519
 3552SOL    MW413976   6.046   2.918   5.159  0.8228  0.2336 -0.1138
 3553SOL     OW13977   6.200   4.518   5.944 -0.0226 -0.0426  0.3724
 3553SOL    HW213978   6.192   4.454   6.015  1.6993 -1.8789 -0.9673
 3553SOL    HW313979   6.131   4.582   5.961 -0.5551 -1.1746  2.8933
 3553SOL    MW413980   6.190   4.518   5.956  0.1344 -0.4342  0.5282
 3554SOL     OW13981   5.474   1.418   3.824 -0.1086 -0.1399  0.0104
 3554SOL    HW213982   5.501   1.473   3.751  2.5477  0.5475  1.3831
 3554SOL    HW313983   5.385   1.446   3.844  0.0950  1.5546 -1.2633
 3554SOL    MW413984   5.466   1.429   3.817  0.2687  0.1743  0.0235
 3555SOL     OW13985   5.939   5.035   0.369  0.1346 -0.3206  0.2689
 3555SOL    HW213986   6.006   5.017   0.304  0.0211 -1.9179  0.5508
 3555SOL    HW313987   5.858   5.005   0.330 -0.1555  0.0129  0.6006
 3555SOL    MW413988   5.937   5.029   0.355  0.0814 -0.4873  0.3499
 3556SOL     OW13989   2.263   5.901   4.360  0.2461 -0.5100  0.0771
 3556SOL    HW213990   2.333   5.839   4.382  0.1799 -1.4185 -2.0314
 3556SOL    HW313991   2.271   5.914   4.265 -1.0576  1.1155  0.1434
 3556SOL    MW413992   2.273   5.894   4.350  0.0654 -0.4154 -0.1924
 3557SOL     OW13993   2.802   2.199   3.486  0.0180 -0.1542 -0.0491
 3557SOL    HW213994   2.783   2.182   3.578 -1.5047  0.5641 -0.2054
 3557SOL    HW313995   2.796   2.113   3.444  3.0123 -0.9337  0.8031
 3557SOL    MW413996   2.799   2.185   3.492  0.2121 -0.1623  0.0427
 3558SOL     OW13997   3.775   0.177   0.934  0.5811  0.5026  0.2637
 3558SOL    HW213998   3.704   0.226   0.976  0.9456  1.2752 -0.0068
 3558SOL    HW313999   3.737   0.091   0.917  0.4558  0.1058  2.2641
 3558SOL    MW414000   3.760   0.172   0.937  0.6127  0.5522  0.4920
 3559SOL     OW14001   1.969   2.346   1.919  1.1289 -0.4781 -0.2102
 3559SOL    HW214002   1.998   2.340   1.829 -0.0154 -1.8469 -0.5298
 3559SOL    HW314003   2.020   2.280   1.966  0.8315 -0.6583 -0.1325
 3559SOL    MW414004   1.979   2.336   1.913  0.9387 -0.6825 -0.2421
 3560SOL     OW14005   1.703   0.766   0.139  0.6135 -0.0873 -0.4421
 3560SOL    HW214006   1.625   0.790   0.089 -0.1554 -0.0073  0.7410
 3560SOL    HW314007   1.771   0.752   0.074 -0.1459  0.7712 -1.4438
 3560SOL    MW414008   1.702   0.767   0.124  0.4118  0.0365 -0.4182
 3561SOL     OW14009   4.215   3.216   3.050  0.0333 -0.0352  0.6072
 3561SOL    HW214010   4.138   3.170   3.015  0.5208 -0.0931 -0.4317
 3561SOL    HW314011   4.190   3.309   3.049  0.4408  0.0954 -1.0598
 3561SOL    MW414012   4.201   3.222   3.045  0.1514 -0.0256  0.2502
 3562SOL     OW14013   0.706   5.609   3.297  0.3643  0.1645 -0.5949
 3562SOL    HW214014   0.671   5.530   3.337 -1.3890 -0.4756 -3.1530
 3562SOL    HW314015   0.794   5.585   3.269  0.0288 -0.7063 -0.9070
 3562SOL    MW414016   0.713   5.596   3.299  0.0887 -0.0349 -0.9736
 3563SOL     OW14017   1.393   3.586   3.935 -0.3632 -0.8666 -0.4734
 3563SOL    HW214018   1.439   3.634   4.004  0.5155 -0.0549 -1.6022
 3563SOL    HW314019   1.304   3.621   3.937 -0.4158 -1.0110  0.3826
 3563SOL    MW414020   1.387   3.597   3.945 -0.2542 -0.7785 -0.5094
 3564SOL     OW14021   3.930   2.577   5.337 -0.5886  0.0866  0.1961
 3564SOL    HW214022   3.910   2.520   5.412 -0.1066  1.5269  1.4652
 3564SOL    HW314023   3.995   2.638   5.371  0.3123  0.2240 -1.6818
 3564SOL    MW414024   3.936   2.577   5.352 -0.4061  0.2948  0.1158
 3565SOL     OW14025   2.998   3.533   0.252  0.5462 -0.3256 -0.0365
 3565SOL    HW214026   2.995   3.464   0.186 -0.8277  1.7790 -2.3276
 3565SOL    HW314027   2.944   3.604   0.216  0.5050  1.3292  2.9377
 3565SOL    MW414028   2.990   3.533   0.239  0.3595  0.1704  0.0536
 3566SOL     OW14029   0.780   3.191   2.419  1.0165  0.6385  0.8512
 3566SOL    HW214030   0.769   3.174   2.326  0.5920 -0.9247  1.1592
 3566SOL    HW314031   0.774   3.286   2.427 -1.6038  0.6514 -0.3769
 3566SOL    MW414032   0.778   3.202   2.408  0.6148  0.4340  0.7298
 3567SOL     OW14033   2.259   4.426   4.876  0.3416  0.0551  0.1746
 3567SOL    HW214034   2.197   4.462   4.939  0.6563 -0.0225  0.5352
 3567SOL    HW314035   2.345   4.445   4.915  0.5190 -0.9254  0.2845
 3567SOL    MW414036   2.262   4.434   4.890  0.4065 -0.0845  0.2366
 3568SOL     OW14037   1.803   6.281   5.595  0.3543 -0.3127  0.1774
 3568SOL    HW214038   1.780   6.359   5.646  0.7234 -1.0047  1.4544
 3568SOL    HW314039   1.763   6.295   5.509 -0.1636  0.9642  0.6077
 3568SOL    MW414040   1.795   6.293   5.590  0.3347 -0.2355  0.4027
 3569SOL     OW14041   1.270   1.805   3.407  0.0783 -0.1812 -0.8135
 3569SOL    HW214042   1.317   1.883   3.376  2.3377 -0.6870  1.0299
 3569SOL    HW314043   1.202   1.840   3.464  0.6361  0.4954 -0.5446
 3569SOL    MW414044   1.268   1.820   3.410  0.4500 -0.1587 -0.5348
 3570SOL     OW14045   2.714   1.747   5.728  0.2258  0.1834 -0.2101
 3570SOL    HW214046   2.674   1.708   5.650 -1.6705  1.4070  0.0840
 3570SOL    HW314047   2.648   1.808   5.761  1.5198  0.6976  1.5946
 3570SOL    MW414048   2.700   1.750   5.722  0.1464  0.4127  0.0668
 3571SOL     OW14049   1.916   5.341   4.314  0.3541  0.3384  0.5940
 3571SOL    HW214050   1.901   5.252   4.283  1.9544  0.5756 -1.0600
 3571SOL    HW314051   1.896   5.338   4.408 -1.9257 -1.1415  0.1236
 3571SOL    MW414052   1.912   5.329   4.323  0.2644  0.1744  0.3137
 3572SOL     OW14053   1.916   5.125   3.835  0.2631 -0.3023  0.1546
 3572SOL    HW214054   1.928   5.204   3.782 -0.9124  0.1832  0.5593
 3572SOL    HW314055   1.969   5.140   3.913  1.6829 -0.8438 -0.6888
 3572SOL    MW414056   1.924   5.137   3.838  0.2953 -0.3097  0.0967
 3573SOL     OW14057   1.817   4.386   1.194  0.1156  0.4403  0.7584
 3573SOL    HW214058   1.903   4.424   1.214 -0.3620  1.4310  0.9561
 3573SOL    HW314059   1.832   4.291   1.197  0.7418  0.5717  2.8612
 3573SOL    MW414060   1.831   4.378   1.197  0.1352  0.5883  1.0619
 3574SOL     OW14061   3.707   4.610   1.700  0.2340 -0.3863  0.4581
 3574SOL    HW214062   3.771   4.580   1.635  1.5583  0.7199  1.1887
 3574SOL    HW314063   3.687   4.700   1.675 -2.1691 -1.1496 -0.5685
 3574SOL    MW414064   3.713   4.618   1.688  0.0917 -0.3411  0.4190
 3575SOL     OW14065   1.438   3.732   1.481  0.1023  0.2028 -0.0799
 3575SOL    HW214066   1.363   3.790   1.495 -0.7360 -1.0482  0.8623
 3575SOL    HW314067   1.447   3.726   1.386 -2.8431 -1.8573 -0.3440
 3575SOL    MW414068   1.429   3.739   1.471 -0.3969 -0.2341  0.0095
 3576SOL     OW14069   5.641   5.924   6.250  0.3035  0.4993  0.2064
 3576SOL    HW214070   5.631   5.938   6.344  0.0163 -0.7511  0.3774
 3576SOL    HW314071   5.634   6.011   6.212 -0.1610  0.9519  1.2914
 3576SOL    MW414072   5.639   5.937   6.258  0.2043  0.3941  0.3721
 3577SOL     OW14073   4.995   5.386   4.637 -0.5102 -0.3609  0.5001
 3577SOL    HW214074   5.061   5.444   4.600 -0.1435 -2.0951 -1.7870
 3577SOL    HW314075   5.035   5.353   4.718  0.8180 -0.2515 -0.0823
 3577SOL    MW414076   5.009   5.389   4.643 -0.2866 -0.5753  0.1215
 3578SOL     OW14077   5.028   5.230   5.931  0.2968  0.4315  0.2111
 3578SOL    HW214078   5.114   5.261   5.960 -0.1932  0.2769  1.9592
 3578SOL    HW314079   5.046   5.148   5.886  1.0084  0.0504  1.1684
 3578SOL    MW414080   5.042   5.224   5.929  0.3260  0.3608  0.5681
 3579SOL     OW14081   5.738   2.433   5.547 -0.3184  0.1182  0.0266
 3579SOL    HW214082   5.657   2.485   5.546 -1.0839 -0.6414  3.9832
 3579SOL    HW314083   5.791   2.473   5.616  1.9030 -0.5743 -1.1858
 3579SOL    MW414084   5.734   2.445   5.556 -0.1263 -0.0734  0.3886
 3580SOL     OW14085   0.802   4.436   1.255 -0.7663  0.3273 -0.4541
 3580SOL    HW214086   0.868   4.467   1.317  1.0815  0.0808 -2.1766
 3580SOL    HW314087   0.844   4.363   1.209 -3.1694 -1.4692  0.0111
 3580SOL    MW414088   0.816   4.431   1.257 -0.8395  0.0577 -0.6200
 3581SOL     OW14089   5.959   2.671   1.984 -0.7350  0.0813  0.9823
 3581SOL    HW214090   5.927   2.587   1.951  0.2638  0.0135  0.1222
 3581SOL    HW314091   6.047   2.652   2.017 -0.9456  0.5693  1.8338
 3581SOL    MW414092   5.966   2.657   1.984 -0.6310  0.1367  0.9812
 3582SOL     OW14093   0.944   6.187   4.911  0.2460  0.4377 -0.0165
 3582SOL    HW214094   0.938   6.242   4.989 -0.0048 -2.2186  1.9950
 3582SOL    HW314095   1.036   6.190   4.886  0.4666  0.8104  0.8204
 3582SOL    MW414096   0.955   6.194   4.918  0.2420  0.1364  0.3593
 3583SOL     OW14097   0.335   0.461   3.213  0.1135 -0.3741 -0.2410
 3583SOL    HW214098   0.245   0.494   3.214  1.0430  2.4340 -1.0163
 3583SOL    HW314099   0.342   0.409   3.293 -1.4671  1.5187  1.2328
 3583SOL    MW414100   0.324   0.458   3.224  0.0276  0.2461 -0.1488
 3584SOL     OW14101   4.164   2.082   0.461 -0.1536  0.6785  0.6622
 3584SOL    HW214102   4.214   2.048   0.387 -0.5901 -0.7461  0.9839
 3584SOL    HW314103   4.211   2.162   0.487 -0.0706  1.2680 -1.1932
 3584SOL    MW414104   4.177   2.088   0.455 -0.2003  0.5683  0.4599
 3585SOL     OW14105   2.377   5.518   4.619 -0.5578  0.9306 -0.6733
 3585SOL    HW214106   2.351   5.428   4.637 -0.1341  0.9881  0.3243
 3585SOL    HW314107   2.316   5.571   4.670  0.1806  1.1393  0.0168
 3585SOL    MW414108   2.366   5.513   4.628 -0.4045  0.9657 -0.4506
 3586SOL     OW14109   1.395   5.292   0.234 -0.6895  0.6386 -0.0965
 3586SOL    HW214110   1.434   5.206   0.216 -2.1784 -0.1107  0.1583
 3586SOL    HW314111   1.397   5.299   0.330 -0.3587  1.0113 -0.1254
 3586SOL    MW414112   1.401   5.282   0.244 -0.8423  0.5889 -0.0667
 3587SOL     OW14113   0.911   2.644   1.996 -0.1576  0.1884 -0.3670
 3587SOL    HW214114   0.818   2.621   2.004  0.2790 -1.2301  1.1299
 3587SOL    HW314115   0.953   2.601   2.070  1.5668  1.6342 -0.4305
 3587SOL    MW414116   0.904   2.635   2.007  0.1275  0.1920 -0.1779
 3588SOL     OW14117   3.265   2.709   0.637 -0.4268  0.1840 -0.2113
 3588SOL    HW214118   3.217   2.639   0.682  2.8904 -0.6294  2.4698
 3588SOL    HW314119   3.336   2.664   0.592  0.0268  1.6053 -0.9822
 3588SOL    MW414120   3.268   2.694   0.637  0.0707  0.2642  0.0408
 3589SOL     OW14121   0.323   3.957   0.186  0.6159  0.4006 -0.2248
 3589SOL    HW214122   0.374   3.945   0.266  0.0786  0.4193  0.1182
 3589SOL    HW314123   0.383   3.931   0.116  1.1748  0.6311  0.1596
 3589SOL    MW414124   0.338   3.952   0.187  0.6188  0.4335 -0.1288
 3590SOL     OW14125   3.666   4.215   2.853  0.0768 -0.3436  0.0590
 3590SOL    HW214126   3.700   4.301   2.876 -1.9675  0.6558 -0.3717
 3590SOL    HW314127   3.722   4.153   2.900  1.4284  1.2161  0.5981
 3590SOL    MW414128   3.678   4.218   2.862 -0.0146 -0.0060  0.0733
 3591SOL     OW14129   1.300   5.927   1.543 -0.2864  1.2201 -0.3488
 3591SOL    HW214130   1.235   5.933   1.613  0.1301  2.1551 -0.0275
 3591SOL    HW314131   1.384   5.937   1.587  0.2132 -1.3621 -0.5594
 3591SOL    MW414132   1.303   5.929   1.558 -0.1656  1.0028 -0.3342
 3592SOL     OW14133   0.989   3.344   4.494  0.3221 -0.1229  0.1470
 3592SOL    HW214134   1.074   3.302   4.506  1.2387  1.2067 -1.4217
 3592SOL    HW314135   0.967   3.378   4.581  0.1393 -2.6186  1.1840
 3592SOL    MW414136   0.997   3.343   4.507  0.4189 -0.2768  0.0769
 3593SOL     OW14137   1.610   0.092   2.343 -0.1228 -0.1311 -0.4481
 3593SOL    HW214138   1.567   0.043   2.412  0.7269  0.6684  0.6950
 3593SOL    HW314139   1.540   0.116   2.282 -1.0992  0.1340  0.7468
 3593SOL    MW414140   1.595   0.089   2.344 -0.1396  0.0094 -0.1396
 3594SOL     OW14141   4.915   2.738   2.774  0.1320 -0.0559 -0.6409
 3594SOL    HW214142   4.821   2.744   2.756  0.4559 -0.0481 -2.4792
 3594SOL    HW314143   4.939   2.825   2.805 -0.0735  0.6057 -2.2714
 3594SOL    MW414144   4.906   2.750   2.776  0.1476  0.0324 -1.0985
 3595SOL     OW14145   4.817   5.866   1.694  0.1620 -0.1861 -0.2144
 3595SOL    HW214146   4.724   5.875   1.669  0.0980  0.6915  0.3060
 3595SOL    HW314147   4.860   5.836   1.614 -0.7341 -1.6406 -0.1818
 3595SOL    MW414148   4.810   5.864   1.680  0.0354 -0.2622 -0.1415
 3596SOL     OW14149   2.469   5.706   4.439 -0.0010 -0.0887 -0.4077
 3596SOL    HW214150   2.559   5.721   4.467 -0.0125  1.9175 -1.2077
 3596SOL    HW314151   2.438   5.633   4.491  2.3078 -1.2824 -0.6147
 3596SOL    MW414152   2.477   5.698   4.449  0.3021  0.0185 -0.5406
 3597SOL     OW14153   4.026   0.328   3.266 -0.4525  0.0165 -0.4241
 3597SOL    HW214154   3.983   0.374   3.194 -1.3517 -0.4492 -0.1940
 3597SOL    HW314155   4.041   0.240   3.233  0.2140  0.1335 -0.4505
 3597SOL    MW414156   4.023   0.323   3.252 -0.4832 -0.0295 -0.3972
 3598SOL     OW14157   4.301   0.173   3.115 -0.4590  0.3268 -0.1379
 3598SOL    HW214158   4.219   0.126   3.131 -0.9836  1.3468  0.2930
 3598SOL    HW314159   4.300   0.192   3.021 -0.3358 -0.3481 -0.2764
 3598SOL    MW414160   4.290   0.169   3.105 -0.5119  0.3723 -0.0993
 3599SOL     OW14161   3.106   4.898   5.576  0.5385  0.1705  0.1290
 3599SOL    HW214162   3.145   4.814   5.600 -1.5451 -0.8527  0.0829
 3599SOL    HW314163   3.164   4.932   5.508  1.6243 -1.0350  0.4142
 3599SOL    MW414164   3.119   4.892   5.570  0.4069 -0.1235  0.1606
 3600SOL     OW14165   4.258   1.043   4.946 -0.1895 -0.3633  0.5869
 3600SOL    HW214166   4.197   1.117   4.951 -1.7169 -1.5181  0.0210
 3600SOL    HW314167   4.290   1.032   5.036  0.6217  1.3916  0.5489
 3600SOL    MW414168   4.254   1.051   4.959 -0.2840 -0.2841  0.5072
 3601SOL     OW14169   3.972   3.281   4.978 -0.0185 -0.0758  0.0580
 3601SOL    HW214170   4.039   3.338   5.016  1.0026 -1.7820  0.9170
 3601SOL    HW314171   3.946   3.326   4.897  0.3723  1.8299  0.9314
 3601SOL    MW414172   3.977   3.294   4.972  0.1678 -0.0495  0.2866
 3602SOL     OW14173   2.020   0.804   4.458  0.1049  0.0358 -0.5846
 3602SOL    HW214174   2.107   0.800   4.420  0.1638 -1.2583 -0.3496
 3602SOL    HW314175   2.014   0.893   4.494  0.8141  0.5765 -1.7625
 3602SOL    MW414176   2.031   0.815   4.458  0.2063 -0.0636 -0.7090
 3603SOL     OW14177   0.032   3.448   2.913 -0.0073 -0.1577  0.2475
 3603SOL    HW214178   0.088   3.373   2.930 -0.2793 -0.6264 -0.8268
 3603SOL    HW314179   0.075   3.521   2.958  1.0672 -0.6464  0.0479
 3603SOL    MW414180   0.045   3.448   2.921  0.0986 -0.2840  0.0794
 3604SOL     OW14181   5.655   3.149   2.800  0.0921 -0.0135  0.0814
 3604SOL    HW214182   5.647   3.202   2.879  1.2307 -0.7919  0.7363
 3604SOL    HW314183   5.631   3.209   2.729 -2.2339  0.3560  1.0628
 3604SOL    MW414184   5.650   3.164   2.801 -0.0646 -0.0674  0.2973
 3605SOL     OW14185   2.063   0.055   5.763 -0.4987  0.4712  0.0370
 3605SOL    HW214186   2.112   0.133   5.788 -0.9003  0.3464  1.2543
 3605SOL    HW314187   2.104   0.026   5.681  1.9662 -0.0773  1.3790
 3605SOL    MW414188   2.075   0.061   5.755 -0.2265  0.3824  0.3747
 3606SOL     OW14189   4.462   3.561   2.560 -0.2980  0.5807 -0.4677
 3606SOL    HW214190   4.416   3.484   2.595  1.0481 -0.4176 -0.8313
 3606SOL    HW314191   4.393   3.613   2.518 -0.9780 -1.4725 -2.0622
 3606SOL    MW414192   4.447   3.558   2.559 -0.2101  0.1781 -0.7261
 3607SOL     OW14193   5.908   0.535   1.312 -0.2899 -0.3421 -0.8711
 3607SOL    HW214194   5.995   0.537   1.351 -0.9728  0.6335  0.7498
 3607SOL    HW314195   5.870   0.452   1.341 -0.6737  0.2328  0.3504
 3607SOL    MW414196   5.914   0.524   1.321 -0.4306 -0.1375 -0.4961
 3608SOL     OW14197   1.719   2.011   3.785 -0.1397 -0.0815 -0.4138
 3608SOL    HW214198   1.670   1.931   3.804  1.0740 -1.3536 -2.3654
 3608SOL    HW314199   1.703   2.067   3.862 -2.4231 -1.4651  0.2306
 3608SOL    MW414200   1.711   2.008   3.798 -0.2809 -0.4319 -0.5863
 3609SOL     OW14201   1.735   2.222   4.018  0.4634 -0.4696 -0.5693
 3609SOL    HW214202   1.821   2.261   4.005  0.0064  0.6366 -0.4024
 3609SOL    HW314203   1.674   2.284   3.978 -0.3353 -0.7510  0.1721
 3609SOL    MW414204   1.738   2.235   4.011  0.2977 -0.3608 -0.4494
 3610SOL     OW14205   1.789   0.142   2.825  0.1267  0.3165 -0.3252
 3610SOL    HW214206   1.746   0.192   2.756  0.9125  0.3021 -0.8430
 3610SOL    HW314207   1.827   0.208   2.883  0.2640  0.3301 -0.4290
 3610SOL    MW414208   1.788   0.157   2.824  0.2485  0.3164 -0.4072
 3611SOL     OW14209   4.731   1.305   0.970  0.0386 -0.2658  0.1917
 3611SOL    HW214210   4.705   1.219   1.003  0.0489 -0.7143 -0.9040
 3611SOL    HW314211   4.826   1.304   0.972  0.0500 -0.4699 -0.2507
 3611SOL    MW414212   4.740   1.293   0.975  0.0415 -0.3519 -0.0113
 3612SOL     OW14213   1.423   6.163   4.424  0.5366  0.4051 -0.5339
 3612SOL    HW214214   1.414   6.193   4.514  0.7537  0.1108 -0.4140
 3612SOL    HW314215   1.334   6.136   4.399  0.7321 -0.9102  0.0890
 3612SOL    MW414216   1.410   6.163   4.432  0.5910  0.1927 -0.4359
 3613SOL     OW14217   4.995   6.341   3.136  0.1489  0.0010  0.0653
 3613SOL    HW214218   5.071   6.312   3.086  0.6853 -0.8640  1.3460
 3613SOL    HW314219   4.926   6.279   3.112  0.6863 -1.0363  1.1382
 3613SOL    MW414220   4.996   6.329   3.126  0.2906 -0.2500  0.3758
 3614SOL     OW14221   1.652   0.879   2.969  0.1271 -0.2603  0.5865
 3614SOL    HW214222   1.631   0.797   3.014 -3.4465 -0.2068 -0.7061
 3614SOL    HW314223   1.577   0.936   2.986  0.4574  1.1544 -2.1462
 3614SOL    MW414224   1.640   0.876   2.977 -0.3008 -0.0666  0.0554
 3615SOL     OW14225   4.825   2.333   1.339 -0.7367  0.2851 -0.4418
 3615SOL    HW214226   4.821   2.426   1.362  0.2698 -0.0342  1.2120
 3615SOL    HW314227   4.774   2.290   1.408  0.5782 -0.5487  0.0433
 3615SOL    MW414228   4.818   2.340   1.351 -0.4304  0.1330 -0.1596
 3616SOL     OW14229   4.290   1.547   5.720  0.2733 -0.2758 -0.3432
 3616SOL    HW214230   4.215   1.564   5.777 -0.1842 -1.2028 -0.6470
 3616SOL    HW314231   4.313   1.633   5.685  0.1110  0.1971  0.6762
 3616SOL    MW414232   4.283   1.560   5.723  0.1916 -0.3357 -0.2488
 3617SOL     OW14233   0.715   2.553   1.020 -0.0095  0.1023  0.3502
 3617SOL    HW214234   0.647   2.531   0.956 -1.2125  4.4451 -0.1942
 3617SOL    HW314235   0.672   2.545   1.105 -0.5782  0.7675  0.1371
 3617SOL    MW414236   0.700   2.549   1.022 -0.2432  0.7631  0.2502
 3618SOL     OW14237   4.163   3.591   4.166  0.0587  0.8329  0.4981
 3618SOL    HW214238   4.159   3.499   4.138  1.1119  0.8947  0.0802
 3618SOL    HW314239   4.099   3.597   4.237 -0.9439  0.0908 -0.3097
 3618SOL    MW414240   4.154   3.579   4.172  0.0654  0.7432  0.3364
 3619SOL     OW14241   0.903   2.877   1.567 -0.3535  0.7473  0.0513
 3619SOL    HW214242   0.921   2.926   1.647 -0.4678  1.0204 -0.0887
 3619SOL    HW314243   0.968   2.907   1.504 -0.1769  0.4321  0.0824
 3619SOL    MW414244   0.914   2.887   1.569 -0.3452  0.7418  0.0369
 3620SOL     OW14245   3.349   1.533   3.161  0.3439 -0.2216 -0.0469
 3620SOL    HW214246   3.291   1.586   3.217  1.0542  0.5118  0.0106
 3620SOL    HW314247   3.436   1.547   3.197  1.0506  1.4795 -2.2117
 3620SOL    MW414248   3.353   1.542   3.173  0.5309  0.0996 -0.3249
 3621SOL     OW14249   5.598   4.081   0.279 -0.5000  0.2287 -0.2950
 3621SOL    HW214250   5.517   4.110   0.321 -1.1631  0.0305 -1.4071
 3621SOL    HW314251   5.662   4.149   0.300 -1.3265  1.1112 -0.5775
 3621SOL    MW414252   5.596   4.094   0.287 -0.6966  0.3190 -0.4790
 3622SOL     OW14253   2.697   5.085   0.229 -0.5741  0.5613  0.4038
 3622SOL    HW214254   2.630   5.019   0.247 -0.8511  0.6908 -0.1393
 3622SOL    HW314255   2.776   5.034   0.209 -1.3349  0.3082 -2.2557
 3622SOL    MW414256   2.699   5.070   0.229 -0.7110  0.5450 -0.0188
 3623SOL     OW14257   6.208   3.715   0.879 -0.6945  0.6586  0.0766
 3623SOL    HW214258   6.137   3.668   0.834  0.7983  0.6253 -2.4125
 3623SOL    HW314259   6.217   3.796   0.830  1.9694 -0.0218 -0.7053
 3623SOL    MW414260   6.200   3.719   0.866 -0.1461  0.5644 -0.3550
 3624SOL     OW14261   2.862   2.377   3.169  0.3357  0.4179 -0.2261
 3624SOL    HW214262   2.768   2.376   3.150  0.1416 -1.6994  0.6329
 3624SOL    HW314263   2.870   2.435   3.244 -0.2931  0.5229 -0.2312
 3624SOL    MW414264   2.851   2.385   3.176  0.2271  0.1524 -0.1134
 3625SOL     OW14265   2.278   5.018   5.099  0.1674  0.2128  0.3243
 3625SOL    HW214266   2.342   4.971   5.152  1.1096  1.9302  0.7718
 3625SOL    HW314267   2.214   5.051   5.163  0.0385  0.3482  0.1272
 3625SOL    MW414268   2.278   5.016   5.115  0.2747  0.4572  0.3573
 3626SOL     OW14269   5.437   1.138   5.716  0.1387  0.3249  0.6599
 3626SOL    HW214270   5.451   1.163   5.808  1.8369 -1.4973  0.9550
 3626SOL    HW314271   5.484   1.055   5.706  1.2475  1.1816 -2.2455
 3626SOL    MW414272   5.445   1.130   5.727  0.5091  0.1975  0.3155
 3627SOL     OW14273   3.291   4.496   4.685 -0.1273 -0.1009  0.1269
 3627SOL    HW214274   3.234   4.534   4.751 -0.6694 -1.2017  0.3289
 3627SOL    HW314275   3.239   4.424   4.648  0.9455 -0.8178 -0.0240
 3627SOL    MW414276   3.277   4.491   4.689 -0.0572 -0.3407  0.1336
 3628SOL     OW14277   5.261   0.309   6.105  0.0046  0.0613  0.0963
 3628SOL    HW214278   5.266   0.359   6.187 -0.0256 -0.1692  0.2416
 3628SOL    HW314279   5.349   0.314   6.068  0.3914 -0.9599  0.8270
 3628SOL    MW414280   5.273   0.316   6.111  0.0517 -0.1038  0.2119
 3629SOL     OW14281   0.818   4.075   5.388  0.2051  0.2659 -0.2993
 3629SOL    HW214282   0.814   4.048   5.479 -0.3483  1.6330  0.1017
 3629SOL    HW314283   0.814   4.171   5.391 -0.6791  0.3025 -1.7964
 3629SOL    MW414284   0.817   4.084   5.400  0.0154  0.4511 -0.4439
 3630SOL     OW14285   4.686   2.732   3.459  0.5450 -0.1344  0.4990
 3630SOL    HW214286   4.726   2.819   3.464  0.4830 -0.1384  1.0542
 3630SOL    HW314287   4.700   2.694   3.545 -0.0984 -0.3802  0.4979
 3630SOL    MW414288   4.693   2.739   3.471  0.4519 -0.1674  0.5721
 3631SOL     OW14289   1.880   0.941   0.798 -0.0599  0.2698 -0.0548
 3631SOL    HW214290   1.827   0.994   0.858 -0.0563 -1.0113  1.1216
 3631SOL    HW314291   1.820   0.875   0.765  0.6308 -0.8085  0.8012
 3631SOL    MW414292   1.866   0.940   0.801  0.0317 -0.0415  0.2133
 3632SOL     OW14293   1.302   0.619   0.080  0.1793  0.5775  0.6125
 3632SOL    HW214294   1.359   0.688   0.046 -0.8380  0.6699 -0.9949
 3632SOL    HW314295   1.230   0.613   0.017  0.3042 -2.0714  0.5929
 3632SOL    MW414296   1.300   0.627   0.067  0.0616  0.2402  0.3978
 3633SOL     OW14297   1.025   5.574   1.309  0.3203 -0.4055  0.4857
 3633SOL    HW214298   0.998   5.507   1.371 -0.1322 -0.1017  0.6201
 3633SOL    HW314299   1.119   5.584   1.323 -0.1401  1.3512  2.8110
 3633SOL    MW414300   1.034   5.567   1.319  0.1999 -0.1337  0.8102
 3634SOL     OW14301   5.427   5.835   2.075  0.1306  0.2825 -0.0864
 3634SOL    HW214302   5.427   5.745   2.107 -1.0250  0.7606  1.3563
 3634SOL    HW314303   5.335   5.854   2.056  0.4433  0.9573 -1.0296
 3634SOL    MW414304   5.415   5.825   2.077  0.0194  0.4346 -0.0205
 3635SOL     OW14305   0.345   0.260   6.059  0.1089 -0.1704 -0.4355
 3635SOL    HW214306   0.362   0.198   6.131  3.0688  0.7393 -0.2312
 3635SOL    HW314307   0.326   0.343   6.103  1.3244  0.2426 -0.6427
 3635SOL    MW414308   0.345   0.262   6.075  0.6598  0.0041 -0.4359
 3636SOL     OW14309   0.317   0.379   3.854 -0.6005 -0.2812 -0.0204
 3636SOL    HW214310   0.259   0.317   3.809 -0.5922 -0.6120  0.4194
 3636SOL    HW314311   0.386   0.397   3.790 -1.5947  0.7313 -0.8443
 3636SOL    MW414312   0.318   0.373   3.839 -0.7306 -0.1912 -0.0711
 3637SOL     OW14313   1.547   4.018   1.783 -0.2327 -0.8365  0.6206
 3637SOL    HW214314   1.462   3.980   1.759 -1.1913  1.0231  0.8973
 3637SOL    HW314315   1.539   4.110   1.762  2.0327 -0.7465 -0.0426
 3637SOL    MW414316   1.535   4.025   1.777 -0.0603 -0.5793  0.5696
 3638SOL     OW14317   0.697   1.779   5.226  0.2597 -0.0614 -0.6024
 3638SOL    HW214318   0.778   1.801   5.271  0.1673 -2.2946  0.8131
 3638SOL    HW314319   0.665   1.700   5.271 -0.4907 -1.7763 -3.7951
 3638SOL    MW414320   0.703   1.771   5.238  0.1485 -0.5823 -0.8369
 3639SOL     OW14321   2.515   3.979   1.469  0.5601  0.4458  0.3966
 3639SOL    HW214322   2.500   3.928   1.389  2.6824 -0.8716  0.7602
 3639SOL    HW314323   2.610   3.984   1.477  0.4109  0.6227  2.8134
 3639SOL    MW414324   2.526   3.973   1.459  0.8204  0.2953  0.7634
 3640SOL     OW14325   1.618   0.776   0.991  0.2936  0.2599  0.4048
 3640SOL    HW214326   1.545   0.767   0.930 -0.1363  0.6201  0.8450
 3640SOL    HW314327   1.677   0.838   0.949 -0.0463  0.5812  0.3964
 3640SOL    MW414328   1.616   0.783   0.978  0.1920  0.3498  0.4618
 3641SOL     OW14329   0.539   5.842   3.259  0.5904 -0.0923 -0.2003
 3641SOL    HW214330   0.499   5.823   3.344  0.8635  1.3556  0.2640
 3641SOL    HW314331   0.597   5.767   3.243 -2.2119 -2.3178 -0.9110
 3641SOL    MW414332   0.541   5.830   3.268  0.2567 -0.1949 -0.2328
 3642SOL     OW14333   3.223   3.781   0.533 -0.2164 -0.1015 -0.0384
 3642SOL    HW214334   3.271   3.741   0.605  1.1320  0.8873 -0.3268
 3642SOL    HW314335   3.134   3.793   0.566  0.0044 -1.0105  0.9202
 3642SOL    MW414336   3.218   3.778   0.547 -0.0094 -0.0909  0.0500
 3643SOL     OW14337   4.838   6.001   1.277 -0.3132  0.1498 -0.6085
 3643SOL    HW214338   4.863   5.939   1.346 -3.3300  0.5550  1.0193
 3643SOL    HW314339   4.845   6.087   1.319 -2.2034  0.3985 -0.7159
 3643SOL    MW414340   4.842   6.004   1.292 -0.9606  0.2361 -0.4079
 3644SOL     OW14341   0.518   1.031   3.921  0.4533  0.7807  0.3990
 3644SOL    HW214342   0.483   1.116   3.948  0.7564  0.3159  2.4466
 3644SOL    HW314343   0.611   1.035   3.945  1.1063  0.8002 -1.9414
 3644SOL    MW414344   0.526   1.043   3.928  0.5794  0.7220  0.3603
 3645SOL     OW14345   0.933   2.663   0.327 -0.4113  0.1943  0.0945
 3645SOL    HW214346   0.937   2.606   0.250 -1.1621 -0.2365  0.3564
 3645SOL    HW314347   0.896   2.607   0.395  0.0991  0.6196  0.7285
 3645SOL    MW414348   0.928   2.648   0.326 -0.4430  0.1935  0.2127
 3646SOL     OW14349   6.100   4.486   4.279  0.3235  0.1516  0.0896
 3646SOL    HW214350   6.161   4.473   4.352  0.0453 -1.5677  0.0716
 3646SOL    HW314351   6.051   4.565   4.302  1.0239  0.2817  1.2051
 3646SOL    MW414352   6.102   4.495   4.292  0.3792 -0.0581  0.2344
 3647SOL     OW14353   5.803   4.934   5.747 -0.3490 -0.0931 -0.4315
 3647SOL    HW214354   5.860   4.881   5.691  0.8212 -0.2249  0.8295
 3647SOL    HW314355   5.842   5.021   5.746 -2.1911  0.8020 -2.3886
 3647SOL    MW414356   5.815   4.938   5.740 -0.4376  0.0076 -0.5234
 3648SOL     OW14357   2.519   0.722   3.706 -0.9586 -0.4408  0.0699
 3648SOL    HW214358   2.436   0.701   3.749 -1.3336 -2.1737 -1.3888
 3648SOL    HW314359   2.560   0.637   3.690 -0.0857  0.2245 -1.4839
 3648SOL    MW414360   2.513   0.708   3.710 -0.8929 -0.5816 -0.3276
 3649SOL     OW14361   6.283   4.193   3.363 -0.3555  0.2829 -0.3157
 3649SOL    HW214362   6.224   4.118   3.366 -1.7412  1.3110 -0.7492
 3649SOL    HW314363   6.342   4.174   3.290 -1.1625 -0.0602 -0.8922
 3649SOL    MW414364   6.283   4.181   3.354 -0.6448  0.3733 -0.4490
 3650SOL     OW14365   3.128   1.679   1.455 -0.4196  0.6110  0.9883
 3650SOL    HW214366   3.073   1.755   1.471 -1.5721 -0.7183  3.8403
 3650SOL    HW314367   3.075   1.622   1.400  0.0834  1.3812 -0.3534
 3650SOL    MW414368   3.114   1.682   1.450 -0.5053  0.5373  1.1876
 3651SOL     OW14369   0.257   0.187   0.400 -0.0764  0.5129  0.5224
 3651SOL    HW214370   0.335   0.132   0.415 -0.0938 -0.3633 -2.0962
 3651SOL    HW314371   0.267   0.218   0.310 -3.6192 -1.2307 -0.6714
 3651SOL    MW414372   0.269   0.184   0.390 -0.5461  0.1672  0.0194
 3652SOL     OW14373   1.288   2.331   0.708  0.0471  0.1230 -0.2570
 3652SOL    HW214374   1.268   2.412   0.754 -1.1774 -0.7122  0.7325
 3652SOL    HW314375   1.315   2.360   0.621 -1.7909  1.5384 -0.4242
 3652SOL    MW414376   1.289   2.346   0.703 -0.3570  0.1996 -0.1485
 3653SOL     OW14377   0.073   3.700   1.498 -1.0170  0.2317  0.1865
 3653SOL    HW214378   0.108   3.773   1.549  1.0389  1.1198 -2.2744
 3653SOL    HW314379   0.144   3.635   1.498 -0.7868  0.4392 -1.8318
 3653SOL    MW414380   0.087   3.701   1.505 -0.7154  0.3762 -0.4045
 3654SOL     OW14381   0.161   4.148   3.505 -0.0846 -1.2494  0.6045
 3654SOL    HW214382   0.134   4.081   3.443  0.8442 -0.4989 -0.6397
 3654SOL    HW314383   0.133   4.230   3.466  1.1676 -0.7077  0.8021
 3654SOL    MW414384   0.153   4.150   3.492  0.2032 -1.0789  0.4664
 3655SOL     OW14385   6.179   2.811   2.500  0.2010 -0.5102  0.2737
 3655SOL    HW214386   6.270   2.794   2.475  0.6330 -1.3374  2.2038
 3655SOL    HW314387   6.156   2.739   2.559 -1.8755 -0.5707 -0.5095
 3655SOL    MW414388   6.188   2.799   2.505 -0.0160 -0.6273  0.4250
 3656SOL     OW14389   0.783   4.702   3.073  0.4685 -0.0632 -0.1371
 3656SOL    HW214390   0.768   4.774   3.134 -0.2450 -0.3871  0.0918
 3656SOL    HW314391   0.696   4.681   3.039  0.7810 -0.2671 -0.8309
 3656SOL    MW414392   0.769   4.708   3.076  0.4156 -0.1328 -0.1984
 3657SOL     OW14393   6.135   5.328   1.428  0.0164  0.3404  0.6362
 3657SOL    HW214394   6.043   5.354   1.432  0.1690  1.0914 -0.3668
 3657SOL    HW314395   6.148   5.295   1.339  0.3735 -1.1869  1.2163
 3657SOL    MW414396   6.125   5.327   1.417  0.0837  0.2380  0.5804
 3658SOL     OW14397   4.996   5.910   3.181  0.0585 -1.2789  0.1158
 3658SOL    HW214398   5.053   5.843   3.143  0.6667 -0.6491 -0.0984
 3658SOL    HW314399   5.011   5.903   3.275  1.5907 -0.1894 -0.0042
 3658SOL    MW414400   5.006   5.900   3.189  0.3409 -1.0520  0.0717
 3659SOL     OW14401   3.778   0.855   0.806 -0.0353 -0.0195 -0.5342
 3659SOL    HW214402   3.818   0.941   0.797  0.4027 -0.1405  0.1340
 3659SOL    HW314403   3.850   0.794   0.794 -0.0593 -0.2490  0.3709
 3659SOL    MW414404   3.793   0.858   0.803  0.0194 -0.0658 -0.3266
 3660SOL     OW14405   1.190   2.191   5.286  0.6198 -0.3412 -0.2519
 3660SOL    HW214406   1.117   2.175   5.227  0.9855  0.3158 -0.8988
 3660SOL    HW314407   1.261   2.220   5.229  0.7591  1.0331  0.5676
 3660SOL    MW414408   1.190   2.193   5.271  0.6864 -0.0732 -0.2291
 3661SOL     OW14409   2.102   0.064   3.459 -0.1221  0.8560 -0.3770
 3661SOL    HW214410   2.028   0.015   3.494 -0.7100  2.0043  0.0319
 3661SOL    HW314411   2.063   0.126   3.397  0.7620 -0.2448 -2.1242
 3661SOL    MW414412   2.087   0.066   3.455 -0.0831  0.8623 -0.5535
 3662SOL     OW14413   6.244   0.722   4.060 -0.2148  1.0015  0.2104
 3662SOL    HW214414   6.233   0.748   3.969 -0.4023  1.0320  0.2410
 3662SOL    HW314415   6.254   0.805   4.107 -0.7264  1.0164  0.2970
 3662SOL    MW414416   6.244   0.736   4.054 -0.3070  1.0075  0.2258
 3663SOL     OW14417   3.694   4.631   0.887 -0.1998 -0.4890  0.5344
 3663SOL    HW214418   3.603   4.604   0.893 -0.4102 -0.5706 -2.1293
 3663SOL    HW314419   3.739   4.557   0.845  0.8117  0.1380  0.4723
 3663SOL    MW414420   3.688   4.618   0.883 -0.0941 -0.4170  0.1748
 3664SOL     OW14421   4.163   6.154   1.873  0.6098 -0.1262  0.4439
 3664SOL    HW214422   4.195   6.067   1.899  1.7080  0.3026  0.6152
 3664SOL    HW314423   4.076   6.139   1.838  0.4077 -1.1746  1.3464
 3664SOL    MW414424   4.156   6.141   1.872  0.7281 -0.2079  0.5856
 3665SOL     OW14425   2.880   1.980   2.795 -0.0599 -0.0784  0.2553
 3665SOL    HW214426   2.962   2.025   2.777 -0.4143  0.2507 -0.5450
 3665SOL    HW314427   2.907   1.896   2.831  0.6333 -0.0070 -0.0797
 3665SOL    MW414428   2.895   1.975   2.798 -0.0152 -0.0255  0.1055
 3666SOL     OW14429   2.934   6.441   0.582 -0.0673  0.0076 -0.5487
 3666SOL    HW214430   2.925   6.525   0.538  1.2927  0.6988  0.4223
 3666SOL    HW314431   2.925   6.376   0.511 -0.9934  0.9450 -1.3240
 3666SOL    MW414432   2.932   6.443   0.567 -0.0100  0.2225 -0.5229
 3667SOL     OW14433   3.700   2.737   0.981  0.1613  0.1956  0.3196
 3667SOL    HW214434   3.748   2.811   0.943  2.2197 -1.9044 -1.3813
 3667SOL    HW314435   3.756   2.707   1.053 -0.0282 -0.5139  0.1692
 3667SOL    MW414436   3.714   2.743   0.985  0.4079 -0.1751  0.0754
 3668SOL     OW14437   1.909   4.228   1.549  0.4475  0.6557 -0.5503
 3668SOL    HW214438   1.909   4.151   1.605 -3.0063  1.1220  0.2960
 3668SOL    HW314439   1.868   4.198   1.467  0.5215  1.2326 -0.8053
 3668SOL    MW414440   1.904   4.214   1.545  0.0016  0.7934 -0.4723
 3669SOL     OW14441   4.362   3.752   4.576 -0.2922 -0.2625 -0.2871
 3669SOL    HW214442   4.282   3.769   4.525 -0.1898  1.2727  0.0185
 3669SOL    HW314443   4.433   3.766   4.513 -0.1734  1.4484  0.1644
 3669SOL    MW414444   4.360   3.756   4.561 -0.2630  0.1658 -0.1872
 3670SOL     OW14445   2.872   5.498   1.560  0.1281  0.2654  0.3936
 3670SOL    HW214446   2.892   5.405   1.572 -0.6662  0.1058  0.5352
 3670SOL    HW314447   2.937   5.544   1.613  0.7679 -0.1917  0.0206
 3670SOL    MW414448   2.883   5.492   1.568  0.1077  0.1840  0.3631
 3671SOL     OW14449   0.545   6.179   0.467  0.3910 -0.3942  0.4172
 3671SOL    HW214450   0.601   6.120   0.416  0.4868 -0.8616  1.0483
 3671SOL    HW314451   0.601   6.210   0.538  1.0784  2.3412 -1.1656
 3671SOL    MW414452   0.560   6.175   0.469  0.4943 -0.0950  0.2916
 3672SOL     OW14453   4.461   2.227   0.281  0.5286 -0.5987  0.6645
 3672SOL    HW214454   4.533   2.207   0.340  0.2787 -1.6576  0.6287
 3672SOL    HW314455   4.398   2.275   0.334  0.3595 -1.4391  1.2426
 3672SOL    MW414456   4.462   2.231   0.296  0.4733 -0.8493  0.7360
 3673SOL     OW14457   2.835   4.803   5.527  0.0642 -0.1351 -0.1407
 3673SOL    HW214458   2.923   4.837   5.541 -0.1010  0.1870  0.1122
 3673SOL    HW314459   2.802   4.784   5.615 -0.1604 -0.1520 -0.2283
 3673SOL    MW414460   2.842   4.805   5.540  0.0128 -0.0948 -0.1189
 3674SOL     OW14461   4.833   5.996   0.807  0.3174  0.0530  0.5553
 3674SOL    HW214462   4.918   5.953   0.811  0.8517  1.1350  3.2663
 3674SOL    HW314463   4.853   6.089   0.797 -0.7143  0.0841 -1.9437
 3674SOL    MW414464   4.847   6.003   0.806  0.2518  0.1998  0.5833
 3675SOL     OW14465   3.303   2.404   2.871  0.5595  0.1905 -0.0320
 3675SOL    HW214466   3.347   2.342   2.813  0.7286  0.1154  0.1724
 3675SOL    HW314467   3.276   2.350   2.946  2.4655  0.7018  1.0944
 3675SOL    MW414468   3.305   2.389   2.873  0.8333  0.2481  0.1436
 3676SOL     OW14469   5.155   4.429   2.149 -0.3066  0.1129 -0.0461
 3676SOL    HW214470   5.074   4.475   2.128 -0.6077  0.3249  1.4848
 3676SOL    HW314471   5.194   4.479   2.220  0.9776 -0.2183 -0.4866
 3676SOL    MW414472   5.150   4.441   2.156 -0.1769  0.0972  0.0977
 3677SOL     OW14473   3.219   5.812   3.234 -0.4275  0.0520  0.0371
 3677SOL    HW214474   3.144   5.870   3.248  0.4449  1.0477  0.7445
 3677SOL    HW314475   3.295   5.865   3.258  0.5289 -0.8603 -0.8870
 3677SOL    MW414476   3.219   5.826   3.239 -0.1862  0.0630  0.0085
 3678SOL     OW14477   0.869   3.852   2.268 -0.3840 -0.0638 -0.5862
 3678SOL    HW214478   0.793   3.836   2.211 -0.8926  0.5581 -0.1019
 3678SOL    HW314479   0.877   3.948   2.269  1.1508 -0.1567 -1.5870
 3678SOL    MW414480   0.860   3.863   2.260 -0.2486  0.0060 -0.6543
 3679SOL     OW14481   5.717   2.670   3.409  0.1663 -0.1754  0.0158
 3679SOL    HW214482   5.692   2.583   3.378  0.4789 -0.1880 -0.2035
 3679SOL    HW314483   5.722   2.662   3.504 -2.1900  0.2100  0.2382
 3679SOL    MW414484   5.714   2.658   3.417 -0.1033 -0.1262  0.0162
 3680SOL     OW14485   2.111   0.117   3.826  0.0039 -0.0105 -0.5036
 3680SOL    HW214486   2.180   0.106   3.892  0.1898 -0.0253 -0.6983
 3680SOL    HW314487   2.055   0.041   3.838  0.9968 -0.9295 -1.5054
 3680SOL    MW414488   2.113   0.105   3.837  0.1595 -0.1337 -0.6615
 3681SOL     OW14489   0.292   0.933   3.025  0.2057 -0.0156  0.1191
 3681SOL    HW214490   0.239   0.876   3.080  0.6554  0.1216  0.7066
 3681SOL    HW314491   0.246   0.936   2.941 -1.0769  0.6347  0.8196
 3681SOL    MW414492   0.279   0.926   3.021  0.0958  0.0883  0.2891
 3682SOL     OW14493   4.886   1.523   4.514 -0.3379  0.2822 -0.4508
 3682SOL    HW214494   4.869   1.612   4.544 -0.5332  0.4016 -0.9102
 3682SOL    HW314495   4.877   1.527   4.419  1.3634  0.1499 -0.6517
 3682SOL    MW414496   4.882   1.535   4.505 -0.1392  0.2805 -0.5379
 3683SOL     OW14497   0.601   3.883   5.252  0.9437 -0.0078  0.0019
 3683SOL    HW214498   0.649   3.937   5.316  1.1377  0.8886 -0.8705
 3683SOL    HW314499   0.668   3.853   5.191  0.6029  0.0283 -0.3911
 3683SOL    MW414500   0.616   3.886   5.253  0.9244  0.1153 -0.1650
 3684SOL     OW14501   6.119   2.809   0.150 -0.3223 -0.1072  0.1986
 3684SOL    HW214502   6.077   2.854   0.077 -2.2793 -1.0016  0.7057
 3684SOL    HW314503   6.126   2.718   0.122  0.2107 -0.1835  0.5690
 3684SOL    MW414504   6.114   2.803   0.137 -0.5102 -0.2353  0.3144
 3685SOL     OW14505   1.922   5.931   4.353 -0.4077  0.2729  0.6120
 3685SOL    HW214506   1.946   5.856   4.299  0.0770  0.8138  0.0495
 3685SOL    HW314507   1.827   5.925   4.363 -0.5229  0.2346 -0.4274
 3685SOL    MW414508   1.913   5.921   4.347 -0.3589  0.3393  0.4007
 3686SOL     OW14509   1.837   4.132   3.210 -0.1987 -0.5131  0.3913
 3686SOL    HW214510   1.842   4.039   3.230  0.5275 -0.6622 -0.4403
 3686SOL    HW314511   1.896   4.174   3.273 -1.2054 -0.5023  1.3555
 3686SOL    MW414512   1.845   4.126   3.221 -0.2357 -0.5313  0.4088
 3687SOL     OW14513   3.369   1.961   1.427 -0.1163 -0.5952 -0.5231
 3687SOL    HW214514   3.456   1.922   1.440 -0.1769 -0.3388  0.7708
 3687SOL    HW314515   3.386   2.054   1.418 -0.1766 -0.6553 -1.4380
 3687SOL    MW414516   3.383   1.968   1.427 -0.1323 -0.5693 -0.4731
 3688SOL     OW14517   0.260   4.185   4.842  0.0045 -0.3713 -0.2593
 3688SOL    HW214518   0.208   4.173   4.762 -0.1267 -1.0279 -0.0873
 3688SOL    HW314519   0.328   4.246   4.817  0.2350 -0.9156 -1.0176
 3688SOL    MW414520   0.262   4.191   4.828  0.0176 -0.5298 -0.3367
 3689SOL     OW14521   3.052   4.970   4.602 -0.3441 -0.6041  0.0104
 3689SOL    HW214522   3.008   5.053   4.621  1.0518  0.1612  0.0670
 3689SOL    HW314523   3.062   4.929   4.687  1.6900  0.6379  0.4477
 3689SOL    MW414524   3.048   4.976   4.616  0.1084 -0.3393  0.0756
 3690SOL     OW14525   3.181   4.624   4.893 -0.8494  0.2068  0.0697
 3690SOL    HW214526   3.233   4.601   4.970 -1.7652 -1.1605  0.3135
 3690SOL    HW314527   3.096   4.582   4.908 -1.5168  1.1005 -1.0354
 3690SOL    MW414528   3.177   4.615   4.905 -1.0583  0.1444 -0.0439
 3691SOL     OW14529   0.502   6.405   3.315 -0.0524 -0.3687  0.1746
 3691SOL    HW214530   0.458   6.355   3.246  0.5709 -0.3599 -0.2329
 3691SOL    HW314531   0.548   6.475   3.269 -0.1972  0.0606  0.6649
 3691SOL    MW414532   0.502   6.408   3.300  0.0107 -0.3109  0.1856
 3692SOL     OW14533   4.589   6.106   0.414 -0.9588 -0.3010  0.6312
 3692SOL    HW214534   4.574   6.166   0.341 -3.0298 -2.0312 -0.4805
 3692SOL    HW314535   4.524   6.132   0.479 -0.4080 -0.0086  1.0783
 3692SOL    MW414536   4.579   6.118   0.413 -1.1594 -0.4907  0.5435
 3693SOL     OW14537   6.425   5.964   0.051  0.0970  0.0947  0.0926
 3693SOL    HW214538   6.402   6.014   0.130 -0.1679 -0.0531  0.1123
 3693SOL    HW314539   6.487   5.898   0.082 -0.5585 -0.4318  0.3276
 3693SOL    MW414540   6.430   5.961   0.066 -0.0244  0.0057  0.1262
 3694SOL     OW14541   3.911   6.292   2.465 -0.1995 -0.6561  0.1776
 3694SOL    HW214542   3.971   6.364   2.447  0.3829 -1.2473 -0.3278
 3694SOL    HW314543   3.864   6.277   2.383  0.6535 -1.7162 -0.1455
 3694SOL    MW414544   3.913   6.299   2.452 -0.0101 -0.8740  0.0683
 3695SOL     OW14545   0.411   4.118   6.313  0.3851  0.0924 -0.1896
 3695SOL    HW214546   0.382   4.174   6.386  1.1763  1.4186 -0.8541
 3695SOL    HW314547   0.464   4.176   6.259 -0.1113 -0.8943 -1.7835
 3695SOL    MW414548   0.414   4.133   6.316  0.4240  0.1372 -0.4876
 3696SOL     OW14549   0.023   0.940   2.096  0.9331  1.0169 -0.1352
 3696SOL    HW214550   0.063   1.004   2.037  1.2655 -0.0262 -1.0530
 3696SOL    HW314551  -0.029   0.883   2.039  1.4327 -0.1382  0.5418
 3696SOL    MW414552   0.021   0.941   2.081  1.0429  0.7269 -0.1670
 3697SOL     OW14553   0.726   1.111   0.900 -0.0431 -0.4314 -0.3538
 3697SOL    HW214554   0.746   1.020   0.922 -0.2444 -0.2568  0.5804
 3697SOL    HW314555   0.665   1.140   0.969  0.4114  0.5564 -0.3519
 3697SOL    MW414556   0.721   1.103   0.912 -0.0097 -0.2780 -0.2303
 3698SOL     OW14557   0.881   4.203   4.142 -0.1953  0.0004 -0.0539
 3698SOL    HW214558   0.948   4.159   4.193 -0.2816 -0.9813 -0.7692
 3698SOL    HW314559   0.867   4.286   4.188  0.1794 -0.5767  1.1429
 3698SOL    MW414560   0.888   4.208   4.155 -0.1572 -0.2052  0.0097
 3699SOL     OW14561   5.832   0.638   5.570  0.3552 -0.5284 -0.2833
 3699SOL    HW214562   5.863   0.671   5.486 -1.5941  0.6033 -0.6157
 3699SOL    HW314563   5.865   0.701   5.634  0.0323 -0.1690 -0.4642
 3699SOL    MW414564   5.840   0.651   5.568  0.0554 -0.3317 -0.3510
 3700SOL     OW14565   3.044   3.546   3.848 -0.4606  0.4003  0.3782
 3700SOL    HW214566   3.080   3.487   3.782 -0.8325  1.4226 -0.7892
 3700SOL    HW314567   3.078   3.633   3.825  0.7688  0.5657  2.5644
 3700SOL    MW414568   3.053   3.550   3.836 -0.3475  0.5570  0.5126
 3701SOL     OW14569   5.701   1.709   6.326 -0.6563  0.1295 -0.3458
 3701SOL    HW214570   5.721   1.616   6.332 -0.8109  0.1302  0.2645
 3701SOL    HW314571   5.620   1.714   6.276  0.0905  0.0307 -1.5864
 3701SOL    MW414572   5.693   1.698   6.321 -0.5781  0.1166 -0.4290
 3702SOL     OW14573   1.706   5.349   3.455 -0.5734 -0.5968 -0.2955
 3702SOL    HW214574   1.746   5.416   3.400 -2.3854 -0.2110 -1.2054
 3702SOL    HW314575   1.769   5.277   3.453 -0.3389 -0.4205 -2.5178
 3702SOL    MW414576   1.720   5.348   3.447 -0.7815 -0.5227 -0.7088
 3703SOL     OW14577   3.114   0.839   2.179 -0.2384  0.3094  0.0942
 3703SOL    HW214578   3.187   0.899   2.182 -0.5402  0.8251 -1.5768
 3703SOL    HW314579   3.095   0.818   2.270  0.8168  1.5775  0.6250
 3703SOL    MW414580   3.121   0.844   2.191 -0.1390  0.5448 -0.0562
 3704SOL     OW14581   5.688   5.180   6.044 -0.2235 -0.3184  0.4335
 3704SOL    HW214582   5.716   5.196   6.134 -1.6233  0.7830  0.7063
 3704SOL    HW314583   5.741   5.239   5.991 -1.3551  1.1643  0.8667
 3704SOL    MW414584   5.698   5.190   6.049 -0.5575  0.0225  0.5266
 3705SOL     OW14585   5.789   2.182   1.515  0.1509  0.0145  0.2505
 3705SOL    HW214586   5.751   2.208   1.432  0.9092  0.7493  0.1198
 3705SOL    HW314587   5.760   2.092   1.528 -0.3193  0.0363 -0.6005
 3705SOL    MW414588   5.780   2.173   1.506  0.1889  0.1143  0.1210
 3706SOL     OW14589   6.099   0.285   1.744  0.1301  0.6408 -0.2483
 3706SOL    HW214590   6.022   0.333   1.713  0.8160  0.7640 -1.8618
 3706SOL    HW314591   6.108   0.212   1.683  1.3732  0.7194 -0.1887
 3706SOL    MW414592   6.090   0.282   1.732  0.3846  0.6674 -0.4533
 3707SOL     OW14593   2.624   2.933   6.379 -0.2863  0.2429  0.0907
 3707SOL    HW214594   2.653   2.862   6.323  0.8444 -0.0294  0.9750
 3707SOL    HW314595   2.585   2.889   6.455 -0.4014  0.5668  0.2206
 3707SOL    MW414596   2.623   2.918   6.382 -0.1523  0.2497  0.2245
 3708SOL     OW14597   3.197   3.423   0.442  0.5915 -0.6067  0.0983
 3708SOL    HW214598   3.134   3.482   0.401  0.2464 -1.7773 -1.1206
 3708SOL    HW314599   3.259   3.481   0.487 -0.6255  0.6061  0.2647
 3708SOL    MW414600   3.197   3.438   0.443  0.3854 -0.6011 -0.0405
 3709SOL     OW14601   4.853   5.603   5.610 -0.1830  0.5192  0.0065
 3709SOL    HW214602   4.806   5.534   5.564  0.6452 -0.5477  0.7071
 3709SOL    HW314603   4.888   5.560   5.688  0.6632  1.6418  0.2675
 3709SOL    MW414604   4.852   5.588   5.614  0.0380  0.5266  0.1334
 3710SOL     OW14605   5.664   4.183   3.619 -0.6718 -0.2418  0.6015
 3710SOL    HW214606   5.688   4.197   3.528 -0.1095  2.1055  1.0570
 3710SOL    HW314607   5.745   4.196   3.668 -1.2604  0.0186  1.5399
 3710SOL    MW414608   5.678   4.186   3.614 -0.6753  0.1023  0.7854
 3711SOL     OW14609   5.507   5.656   1.230 -0.1983  0.1271  0.0925
 3711SOL    HW214610   5.472   5.572   1.200 -0.1558  0.6928 -1.6608
 3711SOL    HW314611   5.535   5.640   1.319 -1.6559 -1.3009  0.3408
 3711SOL    MW414612   5.506   5.643   1.237 -0.3850  0.0133 -0.1061
 3712SOL     OW14613   2.590   3.435   1.815 -0.1809  0.0321  0.4688
 3712SOL    HW214614   2.531   3.425   1.741  0.8346  1.6931 -0.6141
 3712SOL    HW314615   2.676   3.411   1.782  0.2361  0.4402  1.2210
 3712SOL    MW414616   2.593   3.430   1.801  0.0081  0.3051  0.4252
 3713SOL     OW14617   0.215   3.401   1.785  0.3160 -0.0848 -0.0976
 3713SOL    HW214618   0.286   3.465   1.784 -0.1416  0.5872  2.7359
 3713SOL    HW314619   0.137   3.452   1.808 -0.8279 -1.0688 -1.5694
 3713SOL    MW414620   0.214   3.416   1.788  0.1047 -0.1259  0.0821
 3714SOL     OW14621   1.401   3.974   4.080 -0.7741  0.3135 -0.1282
 3714SOL    HW214622   1.459   4.019   4.141  0.8437 -0.9288 -0.6820
 3714SOL    HW314623   1.429   4.005   3.994 -0.3129 -0.9601 -0.4498
 3714SOL    MW414624   1.412   3.984   4.077 -0.4998 -0.0185 -0.2437
 3715SOL     OW14625   4.123   5.783   5.160 -0.2074  0.2690 -0.3175
 3715SOL    HW214626   4.146   5.690   5.156  0.1425  0.3706 -0.7856
 3715SOL    HW314627   4.092   5.803   5.071 -0.4106  0.5669 -0.1822
 3715SOL    MW414628   4.122   5.773   5.147 -0.1881  0.3217 -0.3614
 3716SOL     OW14629   3.835   4.809   0.104 -0.2136 -0.2709  0.2721
 3716SOL    HW214630   3.834   4.898   0.139  1.0071 -0.6475  1.3326
 3716SOL    HW314631   3.790   4.757   0.170  0.3470 -0.6675  0.3430
 3716SOL    MW414632   3.829   4.814   0.117  0.0215 -0.3729  0.4214
 3717SOL     OW14633   6.055   1.960   4.967  0.3011 -0.4940 -0.3951
 3717SOL    HW214634   6.130   1.973   4.908 -2.0047 -1.2198 -3.7737
 3717SOL    HW314635   6.039   2.047   5.004  2.2340 -0.1448 -0.2800
 3717SOL    MW414636   6.063   1.973   4.964  0.2519 -0.5437 -0.8257
 3718SOL     OW14637   5.577   0.026   5.413  0.4282 -0.3695  0.0436
 3718SOL    HW214638   5.549  -0.038   5.479  0.6087 -0.4341  0.0598
 3718SOL    HW314639   5.498   0.045   5.363  0.3066 -0.3819  0.2281
 3718SOL    MW414640   5.563   0.020   5.415  0.4360 -0.3797  0.0701
 3719SOL     OW14641   1.469   3.738   2.766 -0.5530  0.3459  0.0352
 3719SOL    HW214642   1.532   3.769   2.701 -0.7884  0.1378 -0.2939
 3719SOL    HW314643   1.513   3.750   2.850 -0.2346  0.5849 -0.1642
 3719SOL    MW414644   1.483   3.744   2.768 -0.5421  0.3500 -0.0345
 3720SOL     OW14645   4.731   4.926   2.985  0.0174 -0.8494  0.1677
 3720SOL    HW214646   4.705   4.994   3.047  4.3583 -0.4354  1.8931
 3720SOL    HW314647   4.750   4.974   2.904 -0.9806 -0.6965  0.0046
 3720SOL    MW414648   4.730   4.942   2.982  0.4585 -0.7746  0.3738
 3721SOL     OW14649   3.785   1.908   3.841  0.4176 -0.0759 -0.1492
 3721SOL    HW214650   3.777   1.918   3.746  1.2563  0.0548 -0.2218
 3721SOL    HW314651   3.850   1.974   3.866 -0.9874  0.9950  0.7572
 3721SOL    MW414652   3.793   1.918   3.832  0.3429  0.0826 -0.0392
 3722SOL     OW14653   4.445   5.348   4.038 -0.4158  0.3080  0.4742
 3722SOL    HW214654   4.470   5.429   3.995  0.5756 -0.3819 -0.2934
 3722SOL    HW314655   4.414   5.291   3.967 -0.7701 -0.1090  0.9526
 3722SOL    MW414656   4.444   5.351   4.023 -0.3317  0.1619  0.4360
 3723SOL     OW14657   3.975   0.913   6.068 -0.8436  0.0989 -0.5504
 3723SOL    HW214658   3.905   0.932   6.005 -0.1501  0.5012 -1.2181
 3723SOL    HW314659   4.055   0.920   6.016 -0.2943 -0.0566  0.2753
 3723SOL    MW414660   3.976   0.917   6.053 -0.6796  0.1315 -0.5295
 3724SOL     OW14661   2.921   3.244   3.890 -0.0805 -0.0173 -0.2659
 3724SOL    HW214662   2.964   3.303   3.828  0.1092 -0.2584 -0.3607
 3724SOL    HW314663   2.892   3.302   3.961 -0.2095  0.2431 -0.5289
 3724SOL    MW414664   2.923   3.260   3.891 -0.0725 -0.0148 -0.3131
 3725SOL     OW14665   2.898   1.024   5.905  0.0945  0.4258 -0.0651
 3725SOL    HW214666   2.804   1.034   5.891 -0.0743  0.0890  0.7639
 3725SOL    HW314667   2.917   0.934   5.881  0.7786  1.2687 -3.1016
 3725SOL    MW414668   2.888   1.014   5.900  0.1625  0.4926 -0.3563
 3726SOL     OW14669   1.265   1.660   5.430  0.1035  0.2185 -0.1868
 3726SOL    HW214670   1.338   1.614   5.469  0.2698  0.8164  0.2245
 3726SOL    HW314671   1.253   1.619   5.344  1.8700  1.0679 -0.8933
 3726SOL    MW414672   1.273   1.649   5.424  0.3585  0.4094 -0.2257
 3727SOL     OW14673   1.837   4.672   1.384  0.1869  0.3746 -0.0072
 3727SOL    HW214674   1.816   4.588   1.425  1.3983  0.5168  0.9538
 3727SOL    HW314675   1.831   4.654   1.290 -0.0125 -0.6689  0.1868
 3727SOL    MW414676   1.833   4.658   1.377  0.3204  0.2557  0.1452
 3728SOL     OW14677   3.362   6.419   4.820 -0.0915  0.2819  0.0551
 3728SOL    HW214678   3.446   6.408   4.865  0.0081 -1.0833 -0.4126
 3728SOL    HW314679   3.379   6.483   4.751  0.7160 -0.4011 -0.3864
 3728SOL    MW414680   3.375   6.426   4.817  0.0282  0.0117 -0.0648
 3729SOL     OW14681   1.821   2.391   1.347 -0.0366  0.8442  0.1593
 3729SOL    HW214682   1.729   2.380   1.372  0.0632  0.0498  0.2017
 3729SOL    HW314683   1.830   2.340   1.266  0.5330  0.3214  0.5472
 3729SOL    MW414684   1.810   2.383   1.340  0.0517  0.6704  0.2161
 3730SOL     OW14685   5.410   1.250   0.949  0.3021 -0.1639 -0.1547
 3730SOL    HW214686   5.449   1.315   1.008 -1.6339 -0.3938  1.4931
 3730SOL    HW314687   5.367   1.302   0.881  0.4131  0.1926  0.0451
 3730SOL    MW414688   5.410   1.266   0.948  0.0613 -0.1472  0.0890
 3731SOL     OW14689   2.450   0.171   0.135  0.1621  0.1531 -0.1658
 3731SOL    HW214690   2.461   0.160   0.040  1.4084  1.8667 -0.2701
 3731SOL    HW314691   2.503   0.101   0.173 -0.3453 -0.5467 -0.7199
 3731SOL    MW414692   2.459   0.160   0.127  0.2596  0.2868 -0.2527
 3732SOL     OW14693   5.526   5.720   6.055  0.4334 -0.0110 -0.3851
 3732SOL    HW214694   5.556   5.792   6.110 -0.7722  0.0657  0.2060
 3732SOL    HW314695   5.539   5.641   6.108 -1.2884  0.1192  0.3120
 3732SOL    MW414696   5.532   5.719   6.069  0.0472  0.0163 -0.2152
 3733SOL     OW14697   0.751   5.762   4.732 -0.1993  0.1514 -0.2981
 3733SOL    HW214698   0.675   5.721   4.691 -1.2717  0.1845  1.5773
 3733SOL    HW314699   0.813   5.774   4.660 -2.3197  1.0544 -2.0917
 3733SOL    MW414700   0.749   5.758   4.717 -0.6205  0.2749 -0.2873
 3734SOL     OW14701   5.872   3.860   1.353 -0.3407 -0.3790 -0.0577
 3734SOL    HW214702   5.868   3.783   1.296  0.4367 -1.2389  1.0177
 3734SOL    HW314703   5.818   3.926   1.308 -0.4686 -1.3171 -1.3293
 3734SOL    MW414704   5.865   3.859   1.339 -0.2550 -0.6162 -0.0835
 3735SOL     OW14705   2.735   6.323   3.986 -0.2382  0.0037  0.1547
 3735SOL    HW214706   2.662   6.347   4.042 -0.2287 -0.7252  0.4982
 3735SOL    HW314707   2.800   6.391   4.000  0.4492 -1.0124  2.3436
 3735SOL    MW414708   2.734   6.335   3.995 -0.1463 -0.2265  0.4888
 3736SOL     OW14709   4.519   6.282   1.120  0.2829 -0.1841 -0.9035
 3736SOL    HW214710   4.447   6.345   1.127 -1.1893 -1.6800 -1.8960
 3736SOL    HW314711   4.536   6.276   1.026  0.3109 -1.3491 -0.8411
 3736SOL    MW414712   4.512   6.290   1.108  0.0924 -0.5352 -1.0262
 3737SOL     OW14713   2.035   1.914   2.523 -0.5212 -0.0134 -0.0276
 3737SOL    HW214714   1.997   1.956   2.446 -1.2014  0.5433  0.5937
 3737SOL    HW314715   1.967   1.853   2.553 -0.8154  0.7242  0.8762
 3737SOL    MW414716   2.021   1.912   2.517 -0.6497  0.1574  0.1736
 3738SOL     OW14717   2.587   2.357   3.193  0.0951  0.2127  0.1672
 3738SOL    HW214718   2.603   2.271   3.230  3.5271  0.3129 -0.7469
 3738SOL    HW314719   2.610   2.418   3.263 -0.8994  0.4301  0.3256
 3738SOL    MW414720   2.592   2.354   3.207  0.4167  0.2546  0.0675
 3739SOL     OW14721   4.831   3.775   2.432  0.6079  0.4995  0.0981
 3739SOL    HW214722   4.776   3.823   2.495 -0.9404 -0.0436 -0.7980
 3739SOL    HW314723   4.887   3.719   2.487 -0.1554  0.6226  1.0187
 3739SOL    MW414724   4.831   3.774   2.448  0.3029  0.4441  0.1014
 3740SOL     OW14725   6.421   4.957   4.904 -0.1534 -0.3185  0.5470
 3740SOL    HW214726   6.508   4.962   4.944 -0.3045 -0.3600  0.8831
 3740SOL    HW314727   6.369   5.021   4.953 -0.0529  0.4377 -0.3126
 3740SOL    MW414728   6.425   4.967   4.916 -0.1601 -0.2242  0.4779
 3741SOL     OW14729   0.190   4.665   4.004  0.0974 -0.9731  0.0573
 3741SOL    HW214730   0.153   4.626   3.924  0.5985  0.8147 -1.0987
 3741SOL    HW314731   0.277   4.625   4.011 -1.0518 -3.4763  1.5230
 3741SOL    MW414732   0.197   4.655   3.994  0.0119 -1.0675  0.0982
 3742SOL     OW14733   5.098   2.780   6.290 -0.8796  0.4052  0.0342
 3742SOL    HW214734   5.081   2.757   6.381 -0.3702  0.6806  0.2047
 3742SOL    HW314735   5.156   2.856   6.296 -2.4806  1.7551 -0.4855
 3742SOL    MW414736   5.103   2.787   6.303 -1.0236  0.6197 -0.0119
 3743SOL     OW14737   1.442   2.339   1.833 -0.1213  0.1149 -0.0890
 3743SOL    HW214738   1.521   2.369   1.788 -0.9875  1.9352 -0.5091
 3743SOL    HW314739   1.416   2.259   1.787  1.5243 -0.5975  0.1516
 3743SOL    MW414740   1.449   2.332   1.821 -0.0185  0.2611 -0.1127
 3744SOL     OW14741   5.653   0.171   4.724  0.3287  0.3532  0.3114
 3744SOL    HW214742   5.729   0.152   4.779  0.4982  0.6858  0.1901
 3744SOL    HW314743   5.583   0.119   4.763  0.4868  0.4656  0.7527
 3744SOL    MW414744   5.654   0.162   4.737  0.3719  0.4119  0.3536
 3745SOL     OW14745   6.270   0.122   5.463  0.3469 -0.4248  0.2589
 3745SOL    HW214746   6.343   0.175   5.431 -1.2794  1.9096  0.1360
 3745SOL    HW314747   6.268   0.141   5.557  0.9525 -1.8866  0.5829
 3745SOL    MW414748   6.280   0.132   5.472  0.2122 -0.3097  0.2854
 3746SOL     OW14749   2.330   1.372   3.139  0.2205 -0.2349  0.5141
 3746SOL    HW214750   2.418   1.410   3.126 -1.2094  2.4456 -3.2720
 3746SOL    HW314751   2.340   1.280   3.114  1.9040  0.0717 -0.0823
 3746SOL    MW414752   2.343   1.365   3.134  0.2539  0.1592 -0.0641
 3747SOL     OW14753   2.680   3.613   4.696 -0.1832  0.0831  0.0578
 3747SOL    HW214754   2.763   3.566   4.704  1.0903  2.4511  2.3237
 3747SOL    HW314755   2.695   3.677   4.627 -0.9294 -0.9041 -1.0485
 3747SOL    MW414756   2.693   3.615   4.688 -0.1136  0.2652  0.2108
 3748SOL     OW14757   2.463   4.483   0.513 -0.1565  0.0890  0.2664
 3748SOL    HW214758   2.454   4.398   0.470 -1.1766 -0.2678  1.1430
 3748SOL    HW314759   2.376   4.522   0.507  0.1119  0.7422  0.5590
 3748SOL    MW414760   2.450   4.477   0.506 -0.2557  0.1281  0.4207
 3749SOL     OW14761   0.208   5.817   3.230 -0.0613  0.2933 -0.3017
 3749SOL    HW214762   0.126   5.813   3.181  0.1430  3.4543 -1.0579
 3749SOL    HW314763   0.271   5.771   3.175 -0.7744 -0.0395 -0.8597
 3749SOL    MW414764   0.205   5.810   3.217 -0.1284  0.6664 -0.4751
 3750SOL     OW14765   3.910   5.692   4.304  0.1529  0.0719  0.0534
 3750SOL    HW214766   3.840   5.686   4.240  0.4459 -0.9803 -0.1905
 3750SOL    HW314767   3.968   5.761   4.270  1.9545 -2.5153 -2.5470
 3750SOL    MW414768   3.909   5.701   4.291  0.4293 -0.4083 -0.3219
 3751SOL     OW14769   5.135   5.068   1.501 -0.1966  0.1300  0.7273
 3751SOL    HW214770   5.220   5.069   1.456  0.5282  1.5137  2.0328
 3751SOL    HW314771   5.094   5.151   1.475 -0.7161 -0.0715  0.8996
 3751SOL    MW414772   5.141   5.079   1.492 -0.1695  0.2860  0.9223
 3752SOL     OW14773   0.579   5.898   5.958 -0.7880 -0.2917  0.2539
 3752SOL    HW214774   0.499   5.905   6.011 -1.4986  0.6364 -0.8855
 3752SOL    HW314775   0.602   5.989   5.938 -0.4166 -0.6151 -0.8510
 3752SOL    MW414776   0.571   5.911   5.963 -0.8328 -0.2119 -0.0422
 3753SOL     OW14777   0.683   0.215   0.923 -0.7970 -0.4084  0.1976
 3753SOL    HW214778   0.656   0.307   0.928  0.4979  0.1460 -1.7643
 3753SOL    HW314779   0.602   0.166   0.938 -1.2192  0.9605  2.9318
 3753SOL    MW414780   0.669   0.221   0.926 -0.6819 -0.1546  0.2995
 3754SOL     OW14781   4.065   0.195   4.427  0.6944 -0.5038  0.0471
 3754SOL    HW214782   4.117   0.238   4.495  1.4201  0.2835 -0.9674
 3754SOL    HW314783   3.977   0.188   4.464  0.2746  2.7381 -0.0135
 3754SOL    MW414784   4.060   0.200   4.441  0.7348  0.0278 -0.0947
 3755SOL     OW14785   1.993   3.998   4.495 -0.1035  0.1149  0.4051
 3755SOL    HW214786   2.068   3.939   4.496  1.8196  2.0527 -3.7223
 3755SOL    HW314787   1.934   3.962   4.429 -1.2609  0.3197  1.2979
 3755SOL    MW414788   1.995   3.986   4.486 -0.0025  0.3976 -0.0217
 3756SOL     OW14789   4.310   4.465   2.575 -0.8564 -0.6982 -0.3151
 3756SOL    HW214790   4.318   4.526   2.649  1.4954 -1.0982 -0.1554
 3756SOL    HW314791   4.298   4.522   2.499 -3.2725 -0.2829  0.2897
 3756SOL    MW414792   4.310   4.481   2.575 -0.8648 -0.6962 -0.2142
 3757SOL     OW14793   1.638   5.157   0.791 -0.2552  0.0572  0.1693
 3757SOL    HW214794   1.614   5.225   0.853  0.3710  0.3988  0.0514
 3757SOL    HW314795   1.727   5.132   0.817  0.2523  0.6435 -0.9709
 3757SOL    MW414796   1.647   5.163   0.803 -0.1056  0.1796  0.0033
 3758SOL     OW14797   4.228   6.217   3.732  0.0961  0.7219 -0.7391
 3758SOL    HW214798   4.185   6.285   3.785 -1.2401 -0.0770 -0.7626
 3758SOL    HW314799   4.238   6.143   3.791 -1.5891 -0.2505 -1.5915
 3758SOL    MW414800   4.223   6.217   3.747 -0.3025  0.4882 -0.8547
 3759SOL     OW14801   0.392   2.296   4.629  0.0139  0.1004 -0.1065
 3759SOL    HW214802   0.473   2.257   4.661 -1.3548 -3.8169 -0.8470
 3759SOL    HW314803   0.332   2.292   4.703 -0.1744  0.9933 -0.1893
 3759SOL    MW414804   0.395   2.291   4.643 -0.1915 -0.2987 -0.2151
 3760SOL     OW14805   0.429   1.133   5.012  0.3701 -0.0982 -0.5063
 3760SOL    HW214806   0.447   1.172   4.926 -0.0848  1.8974  0.2303
 3760SOL    HW314807   0.335   1.117   5.011 -0.2085  2.6010  0.5278
 3760SOL    MW414808   0.419   1.136   5.001  0.2337  0.5212 -0.2727
 3761SOL     OW14809   1.911   5.097   5.414  0.4548 -0.4172  0.5018
 3761SOL    HW214810   1.896   5.036   5.486  0.6979 -1.6488 -0.4636
 3761SOL    HW314811   1.869   5.057   5.339 -1.3995  1.7230  0.2989
 3761SOL    MW414812   1.904   5.084   5.414  0.2422 -0.2973  0.3477
 3762SOL     OW14813   1.877   3.103   5.739 -0.3567  0.1512  0.4545
 3762SOL    HW214814   1.894   3.117   5.646  1.3329 -1.4759  0.4561
 3762SOL    HW314815   1.964   3.101   5.779 -0.9602 -0.9683  1.7703
 3762SOL    MW414816   1.891   3.105   5.732 -0.2134 -0.2112  0.6283
 3763SOL     OW14817   0.484   6.108   5.365 -0.0534  0.3201  0.8759
 3763SOL    HW214818   0.397   6.140   5.388  0.2184  0.8502  1.1873
 3763SOL    HW314819   0.518   6.069   5.446  0.1129  0.3777  0.8347
 3763SOL    MW414820   0.477   6.107   5.378  0.0044  0.3977  0.9115
 3764SOL     OW14821   4.071   4.380   2.338  0.1472 -0.4163 -0.3370
 3764SOL    HW214822   4.120   4.461   2.331 -1.9413  0.8483 -1.4574
 3764SOL    HW314823   4.090   4.333   2.257  1.4696 -1.1528  0.3758
 3764SOL    MW414824   4.080   4.384   2.326  0.0461 -0.3466 -0.3908
 3765SOL     OW14825   0.245   3.736   4.980 -0.6933  0.2684  0.0037
 3765SOL    HW214826   0.308   3.667   5.004  2.1470  2.1942 -1.3725
 3765SOL    HW314827   0.165   3.712   5.027  1.2843 -1.8925  2.6091
 3765SOL    MW414828   0.243   3.724   4.989 -0.0577  0.2374  0.1659
 3766SOL     OW14829   1.831   4.017   1.955  0.1072 -0.0460 -0.7003
 3766SOL    HW214830   1.868   4.000   1.868 -0.0484  1.0267 -0.9944
 3766SOL    HW314831   1.759   3.954   1.963 -0.9009  0.8814 -2.0264
 3766SOL    MW414832   1.827   4.007   1.944 -0.0463  0.2179 -0.9141
 3767SOL     OW14833   6.176   5.195   3.535  0.5895 -0.2657  0.5053
 3767SOL    HW214834   6.171   5.258   3.607  1.8966  0.1214  0.2913
 3767SOL    HW314835   6.210   5.115   3.574  1.9869  0.1617  0.2234
 3767SOL    MW414836   6.180   5.193   3.550  0.9464 -0.1582  0.4398
 3768SOL     OW14837   3.630   2.440   1.720 -0.1905 -0.2927 -0.4018
 3768SOL    HW214838   3.669   2.354   1.736 -0.0950 -0.1020  0.4378
 3768SOL    HW314839   3.620   2.444   1.625  1.2327 -0.6061 -0.5924
 3768SOL    MW414840   3.634   2.429   1.710  0.0099 -0.3089 -0.3162
 3769SOL     OW14841   1.207   2.908   1.667 -0.2319  0.3070  0.4039
 3769SOL    HW214842   1.214   2.967   1.742  0.7450  1.0101 -0.2126
 3769SOL    HW314843   1.185   2.823   1.705 -0.0304  0.7142  1.4591
 3769SOL    MW414844   1.205   2.905   1.682 -0.0764  0.4535  0.4618
 3770SOL     OW14845   3.840   0.219   6.036  0.1616 -0.6653  0.2264
 3770SOL    HW214846   3.807   0.129   6.041  1.5390 -1.1570  0.9040
 3770SOL    HW314847   3.789   0.266   6.102 -0.8036 -0.8515 -0.3687
 3770SOL    MW414848   3.829   0.214   6.046  0.2160 -0.7547  0.2373
 3771SOL     OW14849   0.494   6.164   2.588 -0.3199 -0.2447  0.4018
 3771SOL    HW214850   0.545   6.165   2.669 -0.4640  1.6314  0.4972
 3771SOL    HW314851   0.455   6.076   2.586  0.0220 -0.4781  2.1399
 3771SOL    MW414852   0.496   6.152   2.599 -0.2938 -0.0280  0.6437
 3772SOL     OW14853   3.484   0.489   1.180 -0.3237  0.1819 -0.4982
 3772SOL    HW214854   3.496   0.505   1.274 -0.1730 -0.2228 -0.4473
 3772SOL    HW314855   3.396   0.522   1.161  0.3888  2.1393 -0.6425
 3772SOL    MW414856   3.474   0.496   1.190 -0.2098  0.3867 -0.5106
 3773SOL     OW14857   3.163   5.387   4.853 -0.1085  0.2604  0.0428
 3773SOL    HW214858   3.208   5.303   4.864  0.1249  0.5517  1.4411
 3773SOL    HW314859   3.083   5.378   4.904  0.6811  1.4343  1.5464
 3773SOL    MW414860   3.158   5.374   4.861  0.0265  0.4537  0.4257
 3774SOL     OW14861   5.758   3.545   3.174  0.4698  0.6458  0.6000
 3774SOL    HW214862   5.704   3.601   3.229  0.3562  0.6565  0.4786
 3774SOL    HW314863   5.847   3.578   3.186  0.3602  1.0856  0.2530
 3774SOL    MW414864   5.763   3.557   3.183  0.4404  0.7053  0.5382
 3775SOL     OW14865   6.120   1.229   0.591 -0.2859 -0.1563  0.6615
 3775SOL    HW214866   6.114   1.320   0.561 -1.1193 -0.3268  0.2722
 3775SOL    HW314867   6.075   1.178   0.523  0.7730 -0.9459  0.5300
 3775SOL    MW414868   6.113   1.234   0.578 -0.2561 -0.2830  0.5927
 3776SOL     OW14869   1.533   0.238   0.597 -0.2353  0.1264  0.0003
 3776SOL    HW214870   1.566   0.239   0.687 -0.9688  1.8157  0.2812
 3776SOL    HW314871   1.608   0.265   0.544  0.4989 -1.8444 -0.0603
 3776SOL    MW414872   1.547   0.242   0.602 -0.2352  0.0893  0.0294
 3777SOL     OW14873   2.210   2.917   6.218  0.2451  0.4656 -0.2152
 3777SOL    HW214874   2.294   2.936   6.176 -0.1954 -0.6003 -1.6661
 3777SOL    HW314875   2.151   2.985   6.185  0.6040  1.4757  1.1428
 3777SOL    MW414876   2.213   2.929   6.208  0.2343  0.4582 -0.2274
 3778SOL     OW14877   5.889   2.992   3.708 -0.1485 -0.4909 -0.1593
 3778SOL    HW214878   5.794   2.997   3.702 -0.5146 -1.1192  3.2521
 3778SOL    HW314879   5.907   2.990   3.802  3.4864  3.4776 -0.4831
 3778SOL    MW414880   5.879   2.993   3.720  0.2827 -0.0502  0.2481
 3779SOL     OW14881   3.851   3.276   0.675 -0.8691  0.2371  0.7472
 3779SOL    HW214882   3.862   3.361   0.718 -0.7262 -0.3092  1.8151
 3779SOL    HW314883   3.905   3.282   0.596 -1.6936  1.5129  0.2430
 3779SOL    MW414884   3.860   3.288   0.670 -0.9590  0.3334  0.8215
 3780SOL     OW14885   3.069   5.076   3.429  0.2000  0.1158 -0.0932
 3780SOL    HW214886   3.064   5.154   3.485  0.5255  0.3608 -0.4055
 3780SOL    HW314887   3.145   5.028   3.462  1.6451  1.2660 -1.5947
 3780SOL    MW414888   3.078   5.080   3.441  0.4336  0.2999 -0.3325
 3781SOL     OW14889   3.405   5.504   2.948 -0.1430 -0.5538 -0.2656
 3781SOL    HW214890   3.351   5.513   3.027 -0.5689 -1.0347 -0.5005
 3781SOL    HW314891   3.388   5.415   2.917 -1.2749  0.1798 -1.8457
 3781SOL    MW414892   3.396   5.493   2.954 -0.3485 -0.5205 -0.5050
 3782SOL     OW14893   1.116   3.937   6.097  0.6352  0.3053 -0.0807
 3782SOL    HW214894   1.029   3.920   6.061  0.8125  0.3789 -0.5640
 3782SOL    HW314895   1.172   3.947   6.019  1.3588 -1.1707  0.2211
 3782SOL    MW414896   1.112   3.936   6.082  0.7541  0.1203 -0.1047
 3783SOL     OW14897   6.244   4.725   6.401  0.3209  0.0446  0.0124
 3783SOL    HW214898   6.303   4.670   6.453 -0.6972 -0.7163  0.4002
 3783SOL    HW314899   6.291   4.740   6.319  0.7624 -1.1472  0.0283
 3783SOL    MW414900   6.258   4.720   6.397  0.2448 -0.2130  0.0656
 3784SOL     OW14901   0.071   0.309   4.927 -0.2900  0.2607  0.2525
 3784SOL    HW214902   0.149   0.342   4.973 -0.8221  0.5022  0.9899
 3784SOL    HW314903   0.008   0.290   4.996  0.1494 -2.8475 -0.0691
 3784SOL    MW414904   0.073   0.311   4.942 -0.3023 -0.1175  0.3074
 3785SOL     OW14905   3.533   5.416   4.362 -0.5358  0.1804 -0.1000
 3785SOL    HW214906   3.474   5.491   4.369 -0.0341  0.5237  0.5553
 3785SOL    HW314907   3.602   5.433   4.426 -0.3781 -0.8157  0.0128
 3785SOL    MW414908   3.535   5.428   4.371 -0.4488  0.0942  0.0013
 3786SOL     OW14909   1.723   3.987   5.154 -0.1889  0.1582  0.4651
 3786SOL    HW214910   1.733   3.899   5.119 -0.1626  0.7231 -1.0088
 3786SOL    HW314911   1.648   3.980   5.214  0.3009 -1.0155  0.9701
 3786SOL    MW414912   1.714   3.975   5.157 -0.1208  0.0779  0.3372
 3787SOL     OW14913   1.243   4.986   1.798 -0.0569  1.1814  0.5011
 3787SOL    HW214914   1.199   4.974   1.713  0.0923 -1.9650  0.7420
 3787SOL    HW314915   1.215   4.910   1.850  6.5074 -2.1276  0.2289
 3787SOL    MW414916   1.233   4.974   1.793  0.8288  0.3297  0.4970
 3788SOL     OW14917   4.667   5.940   5.683  0.3536 -0.5781 -0.3990
 3788SOL    HW214918   4.762   5.931   5.690  0.1102 -2.4304  1.1261
 3788SOL    HW314919   4.634   5.851   5.689 -1.5886  0.1649  0.7709
 3788SOL    MW414920   4.675   5.927   5.684  0.0652 -0.7245 -0.0434
 3789SOL     OW14921   2.391   1.569   2.218  0.0840 -0.2512  0.1415
 3789SOL    HW214922   2.353   1.500   2.164  0.1992  0.5063 -0.9251
 3789SOL    HW314923   2.360   1.550   2.307 -0.9250 -0.9338 -0.3425
 3789SOL    MW414924   2.382   1.557   2.223 -0.0339 -0.2414 -0.0631
 3790SOL     OW14925   0.428   3.393   2.357 -0.2962 -0.1422  0.1169
 3790SOL    HW214926   0.464   3.435   2.280  0.5758 -0.5854  0.2690
 3790SOL    HW314927   0.424   3.300   2.335  0.6644 -0.3791  0.8467
 3790SOL    MW414928   0.432   3.386   2.344 -0.0544 -0.2319  0.2332
 3791SOL     OW14929   2.297   2.342   4.653 -0.0105 -0.4507 -0.0086
 3791SOL    HW214930   2.216   2.299   4.679  0.5710 -1.8237 -0.3740
 3791SOL    HW314931   2.339   2.280   4.594  1.3181  0.2274  0.1849
 3791SOL    MW414932   2.292   2.328   4.649  0.2415 -0.5424 -0.0313
 3792SOL     OW14933   3.578   3.753   3.956  0.1906 -0.0753  0.3046
 3792SOL    HW214934   3.626   3.835   3.964 -0.7237  0.3985  1.0900
 3792SOL    HW314935   3.575   3.718   4.045 -1.2517  0.1071  0.3485
 3792SOL    MW414936   3.584   3.759   3.969 -0.1203  0.0113  0.4140
 3793SOL     OW14937   3.122   2.754   3.097 -0.2340 -0.1217 -0.1979
 3793SOL    HW214938   3.185   2.796   3.038 -0.3368 -1.3456 -1.2262
 3793SOL    HW314939   3.088   2.680   3.046  2.1298 -3.3631  2.4697
 3793SOL    MW414940   3.126   2.749   3.082  0.0643 -0.7109  0.0184
 3794SOL     OW14941   4.587   5.720   1.973 -0.1075 -0.6226 -0.2263
 3794SOL    HW214942   4.615   5.779   1.903 -0.6467  0.6760  0.6205
 3794SOL    HW314943   4.620   5.760   2.053 -3.8642  0.8312  0.8132
 3794SOL    MW414944   4.595   5.733   1.974 -0.6743 -0.2594  0.0225
 3795SOL     OW14945   2.311   1.422   3.436 -0.0608  0.1206  0.0782
 3795SOL    HW214946   2.268   1.507   3.425  0.9236  0.5228 -0.7722
 3795SOL    HW314947   2.339   1.397   3.348  2.0628  0.2160  0.6655
 3795SOL    MW414948   2.309   1.430   3.423  0.3493  0.1863  0.0435
 3796SOL     OW14949   5.685   4.568   6.411 -0.0307  0.2120  0.1244
 3796SOL    HW214950   5.744   4.617   6.469  2.2274 -2.4463  0.2908
 3796SOL    HW314951   5.679   4.622   6.332  2.7114  0.6202  0.0870
 3796SOL    MW414952   5.692   4.582   6.408  0.6290 -0.0849  0.1414
 3797SOL     OW14953   3.908   3.758   1.623  0.3796 -0.3416 -0.3486
 3797SOL    HW214954   3.969   3.695   1.662  0.1574 -0.2153  0.2088
 3797SOL    HW314955   3.964   3.821   1.578  0.5764 -1.4574 -1.7433
 3797SOL    MW414956   3.923   3.758   1.622  0.3762 -0.4722 -0.4591
 3798SOL     OW14957   5.476   0.295   5.622  0.1936  0.3989 -0.7215
 3798SOL    HW214958   5.444   0.348   5.695  0.4489 -1.8682  1.1575
 3798SOL    HW314959   5.513   0.359   5.561 -2.2328  2.5980 -0.0984
 3798SOL    MW414960   5.477   0.311   5.624 -0.0928  0.3899 -0.3914
 3799SOL     OW14961   3.556   5.460   4.999 -0.4270 -0.3228 -0.0897
 3799SOL    HW214962   3.583   5.421   4.916  3.8679  2.6423 -0.4749
 3799SOL    HW314963   3.534   5.550   4.977  3.7535  1.5114  1.9554
 3799SOL    MW414964   3.557   5.467   4.985  0.6912  0.3104  0.1293
 3800SOL     OW14965   1.359   4.182   1.270  0.2671 -0.0104 -0.2087
 3800SOL    HW214966   1.428   4.238   1.303  1.1542 -0.6497 -0.9307
 3800SOL    HW314967   1.290   4.185   1.337  0.6383  1.2789  0.1315
 3800SOL    MW414968   1.359   4.190   1.283  0.4331  0.0753 -0.2591
 3801SOL     OW14969   4.987   2.846   3.786 -0.0367 -0.0601  0.4297
 3801SOL    HW214970   5.012   2.825   3.876  0.6215  1.2593  0.5697
 3801SOL    HW314971   4.991   2.941   3.781 -1.6424 -0.0157 -0.5605
 3801SOL    MW414972   4.991   2.855   3.797 -0.1617  0.1199  0.3175
 3802SOL     OW14973   5.084   3.481   4.009 -0.5270  0.3388 -0.0164
 3802SOL    HW214974   5.076   3.454   3.918  0.7752  0.9056 -0.3200
 3802SOL    HW314975   5.121   3.570   4.004 -0.7930  0.5219  1.0565
 3802SOL    MW414976   5.088   3.489   3.996 -0.3903  0.4377  0.0851
 3803SOL     OW14977   0.122   5.304   5.122 -0.0287  0.1108 -0.0096
 3803SOL    HW214978   0.125   5.355   5.203  2.2327  0.3961 -0.1944
 3803SOL    HW314979   0.131   5.213   5.152  1.0607  0.2321  0.0919
 3803SOL    MW414980   0.124   5.298   5.137  0.4134  0.1645 -0.0206
 3804SOL     OW14981   3.099   6.268   3.906 -0.4994 -0.6157 -0.7339
 3804SOL    HW214982   3.076   6.217   3.984 -1.6911 -0.1297 -0.7473
 3804SOL    HW314983   3.116   6.202   3.838  0.3222 -1.0340 -0.1424
 3804SOL    MW414984   3.098   6.252   3.907 -0.5482 -0.6068 -0.6576
 3805SOL     OW14985   0.627   5.466   3.666  0.8120 -0.3952  0.1524
 3805SOL    HW214986   0.722   5.480   3.666  0.6044  1.3487  1.6200
 3805SOL    HW314987   0.614   5.392   3.726  1.3015 -1.4080 -0.9556
 3805SOL    MW414988   0.638   5.458   3.674  0.8492 -0.2988  0.1998
 3806SOL     OW14989   3.678   1.123   0.134 -0.6389  0.2784  0.4302
 3806SOL    HW214990   3.594   1.109   0.179  0.2345 -2.1048  1.5192
 3806SOL    HW314991   3.705   1.035   0.109  1.3406  1.0505 -0.2837
 3806SOL    MW414992   3.670   1.109   0.137 -0.2625  0.0658  0.4797
 3807SOL     OW14993   3.839   1.314   4.984 -0.0462 -0.1039  0.3739
 3807SOL    HW214994   3.840   1.384   4.919  1.3296  1.2309  1.7499
 3807SOL    HW314995   3.778   1.249   4.948  0.7994  0.4545 -2.3287
 3807SOL    MW414996   3.831   1.314   4.971  0.2469  0.1459  0.1989
 3808SOL     OW14997   6.204   4.726   0.445 -0.6088 -0.2549 -0.5732
 3808SOL    HW214998   6.218   4.631   0.440 -0.5997 -0.5431  2.7436
 3808SOL    HW314999   6.117   4.739   0.408 -0.5349 -1.5099 -1.2530
 3808SOL    MW415000   6.194   4.715   0.440 -0.5979 -0.4585 -0.2253
 3809SOL     OW15001   1.543   0.564   4.978  0.2609 -0.5343  0.4110
 3809SOL    HW215002   1.615   0.503   4.992 -0.5758 -1.5999  0.1414
 3809SOL    HW315003   1.469   0.526   5.024 -0.7475 -0.6583 -1.2101
 3809SOL    MW415004   1.542   0.551   4.986  0.0175 -0.6913  0.1616
 3810SOL     OW15005   1.071   2.354   1.324 -0.1765  0.0628  0.1925
 3810SOL    HW215006   1.033   2.376   1.409  1.7986 -0.5166  1.2865
 3810SOL    HW315007   0.999   2.315   1.275 -1.4019  0.5671  1.5268
 3810SOL    MW415008   1.057   2.352   1.329 -0.0776  0.0529  0.5129
 3811SOL     OW15009   3.436   5.997   4.300 -0.1971 -0.1231 -0.2817
 3811SOL    HW215010   3.386   6.072   4.266 -1.3975  0.3930  2.3063
 3811SOL    HW315011   3.385   5.920   4.274 -1.8044  0.3309  1.2444
 3811SOL    MW415012   3.422   5.997   4.292 -0.5675  0.0049  0.2611
 3812SOL     OW15013   3.304   4.972   4.503 -0.2421 -0.3255 -0.1824
 3812SOL    HW215014   3.220   5.004   4.536 -0.2418  0.9843 -1.3425
 3812SOL    HW315015   3.364   4.984   4.577 -0.7115  0.3415  0.1053
 3812SOL    MW415016   3.301   4.978   4.517 -0.3040 -0.0647 -0.2975
 3813SOL     OW15017   4.862   3.043   2.504 -0.0956  0.1760 -0.4445
 3813SOL    HW215018   4.780   3.040   2.553  0.5810  0.6113  0.7597
 3813SOL    HW315019   4.900   2.956   2.517  0.5019  0.5664  0.6028
 3813SOL    MW415020   4.856   3.031   2.512  0.0725  0.2849 -0.1474
 3814SOL     OW15021   1.461   0.187   3.377 -0.3426 -0.3669  0.9789
 3814SOL    HW215022   1.376   0.165   3.339  0.1009 -0.4286  0.0075
 3814SOL    HW315023   1.475   0.120   3.444 -1.0242 -0.3965  1.0963
 3814SOL    MW415024   1.452   0.175   3.381 -0.3740 -0.3789  0.8662
 3815SOL     OW15025   3.808   4.691   6.133 -0.0080 -0.1484 -0.9955
 3815SOL    HW215026   3.733   4.724   6.086 -0.3520 -1.6894 -1.5991
 3815SOL    HW315027   3.771   4.628   6.196  0.6297  0.3477 -0.0967
 3815SOL    MW415028   3.793   4.687   6.135  0.0307 -0.2862 -0.9566
 3816SOL     OW15029   3.895   3.730   4.601 -0.4768  0.0877  0.3964
 3816SOL    HW215030   3.987   3.733   4.628  0.0332 -0.4774 -1.1635
 3816SOL    HW315031   3.889   3.794   4.531 -1.6378  1.1441  1.4115
 3816SOL    MW415032   3.907   3.739   4.596 -0.5627  0.1525  0.3245
 3817SOL     OW15033   0.652   5.878   2.696  0.4760 -0.0230 -0.1784
 3817SOL    HW215034   0.733   5.918   2.663  0.3402 -0.3866 -0.9681
 3817SOL    HW315035   0.680   5.827   2.772  0.7551  1.0270  0.4384
 3817SOL    MW415036   0.666   5.877   2.702  0.4949  0.0675 -0.2012
 3818SOL     OW15037   5.814   1.856   4.879 -0.3075 -0.4750 -0.3414
 3818SOL    HW215038   5.902   1.885   4.905 -0.6874  0.4522 -0.0446
 3818SOL    HW315039   5.829   1.803   4.801  0.4975 -0.0993 -0.4619
 3818SOL    MW415040   5.828   1.853   4.872 -0.2514 -0.3031 -0.3182
 3819SOL     OW15041   5.532   0.592   1.973 -0.3762  0.1142 -0.3967
 3819SOL    HW215042   5.562   0.679   1.999 -2.4305  0.9500 -0.6250
 3819SOL    HW315043   5.465   0.569   2.038  2.6055 -3.0292  1.9717
 3819SOL    MW415044   5.527   0.600   1.985 -0.2539 -0.1902 -0.1143
 3820SOL     OW15045   3.203   3.645   4.824 -0.3288  0.2741  0.3594
 3820SOL    HW215046   3.260   3.717   4.850  0.3071 -0.1059  0.0274
 3820SOL    HW315047   3.143   3.684   4.761 -0.1278  0.5646  0.3448
 3820SOL    MW415048   3.202   3.659   4.819 -0.2184  0.2623  0.3137
 3821SOL     OW15049   4.771   0.852   1.860 -0.3178 -0.1300 -0.2415
 3821SOL    HW215050   4.739   0.855   1.950  1.4519 -0.6864  0.4319
 3821SOL    HW315051   4.815   0.767   1.852  3.9098  1.8106 -0.0464
 3821SOL    MW415052   4.772   0.841   1.871  0.4735  0.0526 -0.1269
 3822SOL     OW15053   1.917   2.591   0.945  0.6783 -0.0793  0.3278
 3822SOL    HW215054   1.914   2.600   1.040 -0.8665  1.6626  0.1868
 3822SOL    HW315055   1.892   2.678   0.912  0.6921 -0.7742 -1.6625
 3822SOL    MW415056   1.913   2.604   0.953  0.4763  0.0588  0.0466
 3823SOL     OW15057   6.278   0.551   6.234 -0.1817 -0.2933 -0.4246
 3823SOL    HW215058   6.184   0.543   6.249  0.0319 -0.4111  0.9425
 3823SOL    HW315059   6.285   0.605   6.155 -1.3937  1.4260  0.5594
 3823SOL    MW415060   6.267   0.557   6.225 -0.3134 -0.0820 -0.1144
 3824SOL     OW15061   4.939   6.105   1.728 -0.0586 -0.3124 -0.3624
 3824SOL    HW215062   4.909   6.021   1.695  0.5910 -0.3371 -0.8911
 3824SOL    HW315063   4.867   6.166   1.708 -0.8011 -0.8421  0.5802
 3824SOL    MW415064   4.926   6.102   1.721 -0.0709 -0.3856 -0.3078
 3825SOL     OW15065   0.486   0.416   1.867  0.3729 -0.4105  0.0187
 3825SOL    HW215066   0.468   0.435   1.775 -0.3283  0.7973  0.3915
 3825SOL    HW315067   0.559   0.473   1.889  2.0819 -2.3205 -0.3613
 3825SOL    MW415068   0.493   0.426   1.857  0.5059 -0.5031  0.0177
 3826SOL     OW15069   3.804   0.520   4.717  0.5210  0.3246  0.1371
 3826SOL    HW215070   3.797   0.496   4.624  0.1795 -0.3433  0.3330
 3826SOL    HW315071   3.894   0.498   4.740  1.3808  2.6968 -0.6339
 3826SOL    MW415072   3.815   0.514   4.708  0.5894  0.5495  0.0612
 3827SOL     OW15073   1.841   4.305   5.817  0.5068 -0.0589  0.0321
 3827SOL    HW215074   1.777   4.245   5.778  2.6556 -1.4728 -1.5587
 3827SOL    HW315075   1.789   4.381   5.843 -2.4475 -2.6991  2.6593
 3827SOL    MW415076   1.826   4.307   5.815  0.4005 -0.5938  0.1689
 3828SOL     OW15077   2.833   2.792   6.196 -0.5210  0.6265 -0.2390
 3828SOL    HW215078   2.796   2.727   6.136  0.9806 -1.7349  1.2313
 3828SOL    HW315079   2.926   2.793   6.175 -0.4867  2.1941 -0.0813
 3828SOL    MW415080   2.840   2.783   6.185 -0.3184  0.5218 -0.0242
 3829SOL     OW15081   3.099   1.291   0.102  0.2521 -0.0876 -0.9007
 3829SOL    HW215082   3.061   1.264   0.185  2.7818 -0.0335  0.3545
 3829SOL    HW315083   3.063   1.378   0.085  1.6669  1.0709  1.5541
 3829SOL    MW415084   3.089   1.299   0.111  0.7725  0.0724 -0.4112
 3830SOL     OW15085   2.347   2.359   4.156 -0.2412  0.5041 -0.2101
 3830SOL    HW215086   2.293   2.304   4.213 -0.0650  0.7194  0.1694
 3830SOL    HW315087   2.428   2.372   4.206  1.3016 -2.0257 -1.8087
 3830SOL    MW415088   2.351   2.353   4.170 -0.0144  0.1988 -0.3709
 3831SOL     OW15089   3.272   4.046   0.464  0.0174  0.4690 -0.1222
 3831SOL    HW215090   3.253   3.957   0.494  1.0564  0.8804  1.9405
 3831SOL    HW315091   3.188   4.092   0.471  0.2312  0.6180  2.6722
 3831SOL    MW415092   3.258   4.040   0.469  0.1827  0.5430  0.5186
 3832SOL     OW15093   5.057   2.416   3.378 -0.3817 -0.0631  0.1393
 3832SOL    HW215094   5.064   2.395   3.471 -1.3985  0.9790  0.4805
 3832SOL    HW315095   5.087   2.507   3.373 -1.1762  0.1751 -0.4027
 3832SOL    MW415096   5.062   2.426   3.390 -0.6207  0.1058  0.1128
 3833SOL     OW15097   4.498   3.866   2.290  0.1639 -0.2511 -0.1243
 3833SOL    HW215098   4.429   3.867   2.356  2.0766 -0.9344  1.9869
 3833SOL    HW315099   4.521   3.774   2.281  0.0533 -0.1622 -1.7068
 3833SOL    MW415100   4.492   3.854   2.297  0.4017 -0.3295 -0.0546
 3834SOL     OW15101   2.532   0.106   3.846 -0.4666  0.2629  0.1976
 3834SOL    HW215102   2.553   0.051   3.922 -2.5983 -2.8678 -1.2239
 3834SOL    HW315103   2.555   0.051   3.770 -1.2271  2.0289 -1.3943
 3834SOL    MW415104   2.538   0.091   3.846 -0.8482  0.0828 -0.2000
 3835SOL     OW15105   0.362   4.845   3.112 -0.1397 -0.0535  0.3404
 3835SOL    HW215106   0.391   4.803   3.192 -1.6174 -0.8086  0.5237
 3835SOL    HW315107   0.316   4.924   3.141  1.1168  0.7870  0.0976
 3835SOL    MW415108   0.360   4.850   3.126 -0.1689 -0.0423  0.3326
 3836SOL     OW15109   5.476   5.654   3.045 -0.0820  0.1231 -0.1864
 3836SOL    HW215110   5.478   5.602   3.126 -2.4509  0.8682  0.4369
 3836SOL    HW315111   5.415   5.608   2.988 -0.2415  0.8448 -0.6159
 3836SOL    MW415112   5.468   5.641   3.048 -0.4156  0.3166 -0.1608
 3837SOL     OW15113   1.836   0.604   3.230  0.3076  0.0360  0.8034
 3837SOL    HW215114   1.920   0.589   3.275 -0.1209  0.6408  1.8294
 3837SOL    HW315115   1.782   0.649   3.294 -0.4993  0.4923 -0.1719
 3837SOL    MW415116   1.840   0.608   3.244  0.1446  0.1760  0.8101
 3838SOL     OW15117   3.985   1.895   6.401 -0.0236  0.3448 -0.4620
 3838SOL    HW215118   4.032   1.963   6.449  0.3759  0.0723 -0.4597
 3838SOL    HW315119   3.893   1.920   6.407 -0.0612 -0.0986  1.1002
 3838SOL    MW415120   3.979   1.907   6.408  0.0242  0.2503 -0.2556
 3839SOL     OW15121   5.556   3.058   0.055  0.2594 -0.5641 -0.2732
 3839SOL    HW215122   5.564   3.153   0.063  2.2897 -0.6799 -0.5128
 3839SOL    HW315123   5.640   3.029   0.020  0.1302 -2.5789  0.9081
 3839SOL    MW415124   5.568   3.067   0.051  0.5102 -0.8452 -0.1489
 3840SOL     OW15125   2.251   0.744   0.258  0.1449 -0.4580 -0.1660
 3840SOL    HW215126   2.201   0.682   0.206 -0.3731  0.1626 -0.4255
 3840SOL    HW315127   2.228   0.830   0.222  2.7544 -0.2134 -1.5233
 3840SOL    MW415128   2.242   0.747   0.247  0.4209 -0.3439 -0.3793
 3841SOL     OW15129   1.274   6.142   5.456  0.1366 -0.7385 -0.5292
 3841SOL    HW215130   1.255   6.215   5.396 -1.2650  0.0634  0.8299
 3841SOL    HW315131   1.287   6.183   5.541 -0.5171 -2.0392  0.2356
 3841SOL    MW415132   1.273   6.157   5.459 -0.1345 -0.8043 -0.2490
 3842SOL     OW15133   0.645   3.197   5.239  0.6671  0.1629  0.3105
 3842SOL    HW215134   0.683   3.138   5.304  0.7174  0.7579  0.8453
 3842SOL    HW315135   0.625   3.277   5.289 -0.0742  0.3315 -0.2325
 3842SOL    MW415136   0.647   3.200   5.254  0.5759  0.2636  0.3094
 3843SOL     OW15137   0.584   2.886   5.044 -0.8999 -0.0310  0.4905
 3843SOL    HW215138   0.535   2.966   5.061 -0.6558  0.1683  0.2643
 3843SOL    HW315139   0.658   2.914   4.989 -0.7098 -0.3782  0.5666
 3843SOL    MW415140   0.587   2.900   5.039 -0.8426 -0.0505  0.4707
 3844SOL     OW15141   5.435   1.783   4.384  0.1144  0.2160  0.1864
 3844SOL    HW215142   5.451   1.856   4.444 -1.5699 -0.4851  1.5780
 3844SOL    HW315143   5.404   1.825   4.303 -1.6092  1.0650  1.2263
 3844SOL    MW415144   5.433   1.798   4.381 -0.3352  0.2355  0.5072
 3845SOL     OW15145   0.097   0.464   5.509  0.0987 -0.1213 -0.0542
 3845SOL    HW215146   0.004   0.484   5.512  0.0580 -0.2015 -0.6712
 3845SOL    HW315147   0.103   0.384   5.458  0.5211 -0.0208 -0.1658
 3845SOL    MW415148   0.086   0.456   5.503  0.1491 -0.1186 -0.1504
 3846SOL     OW15149   0.091   2.719   3.190 -0.8825 -0.5395 -0.0665
 3846SOL    HW215150   0.070   2.654   3.256 -0.7983 -0.6091 -0.1085
 3846SOL    HW315151   0.006   2.756   3.165 -0.9668 -0.8855 -0.3010
 3846SOL    MW415152   0.077   2.715   3.195 -0.8825 -0.5944 -0.1030
 3847SOL     OW15153   3.726   5.281   0.035  0.1784 -0.4761 -0.7432
 3847SOL    HW215154   3.640   5.320   0.020 -0.0809 -1.1240 -1.0094
 3847SOL    HW315155   3.775   5.297  -0.046 -0.2688 -1.5429 -1.2511
 3847SOL    MW415156   3.721   5.288   0.022  0.0852 -0.7023 -0.8453
 3848SOL     OW15157   4.822   3.607   4.373  0.1864  0.8788 -0.2580
 3848SOL    HW215158   4.838   3.531   4.428  1.8141  1.7061  0.4758
 3848SOL    HW315159   4.837   3.575   4.284 -1.2965 -0.1696 -0.1673
 3848SOL    MW415160   4.826   3.593   4.368  0.2055  0.8496 -0.1492
 3849SOL     OW15161   6.076   3.444   3.423 -0.2117  0.2379 -0.0740
 3849SOL    HW215162   6.121   3.365   3.394  0.6185  0.6299  0.1185
 3849SOL    HW315163   6.080   3.503   3.348  0.2525  0.5404  0.1801
 3849SOL    MW415164   6.083   3.441   3.409 -0.0409  0.3295 -0.0151
 3850SOL     OW15165   4.943   3.598   1.194  0.2028 -0.0320  0.0821
 3850SOL    HW215166   4.940   3.692   1.208 -0.0004  0.2025 -1.3120
 3850SOL    HW315167   4.871   3.580   1.133  1.3773 -0.7602 -1.1771
 3850SOL    MW415168   4.933   3.608   1.188  0.3310 -0.0972 -0.2680
 3851SOL     OW15169   0.677   5.583   0.660  0.5138 -0.5358  0.0561
 3851SOL    HW215170   0.626   5.663   0.665  0.3180 -0.7324  1.3406
 3851SOL    HW315171   0.767   5.613   0.642  0.3859 -0.0586  0.2066
 3851SOL    MW415172   0.682   5.597   0.658  0.4711 -0.4988  0.2454
 3852SOL     OW15173   4.336   1.980   4.075 -0.0418 -0.0693  0.0260
 3852SOL    HW215174   4.429   1.999   4.089 -0.0818 -0.5334  0.9841
 3852SOL    HW315175   4.302   2.058   4.031  0.7620  0.1701 -0.1884
 3852SOL    MW415176   4.344   1.993   4.071  0.0590 -0.0989  0.1241
 3853SOL     OW15177   4.496   5.684   1.281 -0.5004 -0.1526 -0.8127
 3853SOL    HW215178   4.476   5.748   1.213  0.3288  1.3821  0.3303
 3853SOL    HW315179   4.426   5.695   1.345  0.5226  0.8073  0.1769
 3853SOL    MW415180   4.484   5.694   1.280 -0.2561  0.1765 -0.5313
 3854SOL     OW15181   6.114   0.090   1.574 -0.1651 -0.9528  0.0207
 3854SOL    HW215182   6.170   0.018   1.542 -1.3649 -1.3045 -1.4473
 3854SOL    HW315183   6.026   0.064   1.547 -0.7525  0.6127  0.3729
 3854SOL    MW415184   6.110   0.077   1.566 -0.4009 -0.7926 -0.1265
 3855SOL     OW15185   1.100   3.163   2.240 -0.3072 -0.1001  0.1828
 3855SOL    HW215186   1.192   3.158   2.262 -0.2871  0.3903  0.2256
 3855SOL    HW315187   1.054   3.143   2.321 -0.2370  2.1490  0.8372
 3855SOL    MW415188   1.106   3.160   2.253 -0.2953  0.2613  0.2748
 3856SOL     OW15189   6.075   4.839   4.940 -0.5909 -0.2096 -0.7581
 3856SOL    HW215190   6.088   4.783   4.863 -0.7663  0.6635 -1.4339
 3856SOL    HW315191   6.006   4.795   4.990 -1.5838  0.0137 -1.8885
 3856SOL    MW415192   6.068   4.826   4.937 -0.7450 -0.0649 -0.9964
 3857SOL     OW15193   1.883   2.608   1.210  0.2777  0.4455  0.2266
 3857SOL    HW215194   1.879   2.528   1.262 -1.6641  0.9679  0.9480
 3857SOL    HW315195   1.797   2.648   1.220  0.5439  1.6487 -1.7040
 3857SOL    MW415196   1.871   2.603   1.218  0.0566  0.6732  0.0671
 3858SOL     OW15197   3.419   3.242   4.710 -0.6166  0.3392  0.2428
 3858SOL    HW215198   3.352   3.300   4.673 -0.1300  1.0268  0.4277
 3858SOL    HW315199   3.460   3.202   4.634  1.1379  2.5875 -0.1154
 3858SOL    MW415200   3.415   3.244   4.695 -0.3209  0.7266  0.2199
 3859SOL     OW15201   3.358   5.671   4.721  0.3817  0.1757 -0.4289
 3859SOL    HW215202   3.278   5.619   4.729  1.6191 -1.9093 -0.8752
 3859SOL    HW315203   3.376   5.701   4.810 -1.5324  1.7423 -0.5237
 3859SOL    MW415204   3.350   5.668   4.734  0.2924  0.1073 -0.5003
 3860SOL     OW15205   4.919   0.594   1.811 -0.7842 -0.1460  0.3301
 3860SOL    HW215206   4.961   0.598   1.725 -0.6711  0.2739  0.4013
 3860SOL    HW315207   4.991   0.596   1.874 -0.7905 -1.7355  0.4328
 3860SOL    MW415208   4.934   0.595   1.808 -0.7701 -0.3003  0.3531
 3861SOL     OW15209   5.729   2.645   4.655  0.2021  0.6978  0.0279
 3861SOL    HW215210   5.695   2.722   4.610  2.2308  1.9322  0.4908
 3861SOL    HW315211   5.789   2.604   4.592  1.6624  1.4129  0.8843
 3861SOL    MW415212   5.733   2.650   4.641  0.6624  0.9550  0.2020
 3862SOL     OW15213   5.559   4.093   4.960  0.1647  0.6527 -0.0297
 3862SOL    HW215214   5.629   4.030   4.943  0.1996  0.4764  0.7069
 3862SOL    HW315215   5.514   4.057   5.037 -1.3139  0.2722 -1.0444
 3862SOL    MW415216   5.562   4.080   4.968 -0.0258  0.5793 -0.0664
 3863SOL     OW15217   5.816   2.585   6.150  0.1718 -0.4527  0.0976
 3863SOL    HW215218   5.844   2.593   6.241 -1.0286  0.7871  0.3912
 3863SOL    HW315219   5.739   2.528   6.154 -1.2781  1.4267  0.2116
 3863SOL    MW415220   5.809   2.579   6.162 -0.1779 -0.0412  0.1514
 3864SOL     OW15221   4.587   0.835   5.123  0.2554  0.0740 -0.1850
 3864SOL    HW215222   4.599   0.841   5.029 -2.8658 -1.5118 -0.7863
 3864SOL    HW315223   4.602   0.743   5.144 -2.5520 -0.4030  0.1614
 3864SOL    MW415224   4.591   0.824   5.114 -0.5268 -0.1982 -0.2186
 3865SOL     OW15225   1.375   3.149   1.954  0.1899 -0.2719  0.4779
 3865SOL    HW215226   1.453   3.094   1.964  0.0713 -0.5123  0.0955
 3865SOL    HW315227   1.400   3.215   1.889  0.3397  0.1456  0.9541
 3865SOL    MW415228   1.388   3.150   1.947  0.1940 -0.2485  0.4903
 3866SOL     OW15229   5.713   4.100   5.521  0.8035  0.2174 -0.0505
 3866SOL    HW215230   5.667   4.184   5.528 -0.2176 -0.3882  0.9391
 3866SOL    HW315231   5.726   4.072   5.612 -0.4810 -1.5068 -0.3427
 3866SOL    MW415232   5.708   4.108   5.534  0.4993 -0.0900  0.0415
 3867SOL     OW15233   5.146   1.036   6.203  0.0463 -0.5095  0.2874
 3867SOL    HW215234   5.198   1.075   6.273 -2.1004 -1.2001  2.4131
 3867SOL    HW315235   5.131   1.108   6.142 -0.2084  0.8960  1.9022
 3867SOL    MW415236   5.151   1.051   6.204 -0.2705 -0.4151  0.7809
 3868SOL     OW15237   1.557   5.059   5.494 -0.2492 -0.4897 -0.3621
 3868SOL    HW215238   1.469   5.022   5.491 -1.0315  1.3300 -1.0512
 3868SOL    HW315239   1.568   5.088   5.584 -0.8297  0.3032 -0.5327
 3868SOL    MW415240   1.547   5.058   5.505 -0.4290 -0.1450 -0.4755
 3869SOL     OW15241   2.746   2.862   0.256  0.2064 -0.2728 -0.3052
 3869SOL    HW215242   2.775   2.857   0.347 -0.2519 -0.9717 -0.1968
 3869SOL    HW315243   2.675   2.925   0.256 -0.8258 -1.4077  0.0990
 3869SOL    MW415244   2.741   2.870   0.268  0.0097 -0.5147 -0.2376
 3870SOL     OW15245   0.253   6.331   0.635 -0.0401  0.0350  0.3936
 3870SOL    HW215246   0.173   6.373   0.602 -0.6271 -0.8778  0.6034
 3870SOL    HW315247   0.261   6.252   0.581  1.1254  0.4720 -0.0971
 3870SOL    MW415248   0.243   6.326   0.623  0.0362 -0.0278  0.3565
 3871SOL     OW15249   0.361   4.457   5.483  0.4251  0.3269  0.4298
 3871SOL    HW215250   0.412   4.379   5.504 -1.2988 -0.7583  0.8303
 3871SOL    HW315251   0.316   4.435   5.401 -1.1943  0.2848  1.2870
 3871SOL    MW415252   0.361   4.444   5.475 -0.0160  0.1782  0.5957
 3872SOL     OW15253   1.572   3.842   3.007 -0.2349 -0.2092  0.0373
 3872SOL    HW215254   1.667   3.832   3.013  0.0327  1.4441 -0.9193
 3872SOL    HW315255   1.540   3.821   3.095  1.0966  0.0819  0.6078
 3872SOL    MW415256   1.580   3.838   3.019 -0.0239  0.0473 -0.0136
 3873SOL     OW15257   0.293   3.967   5.526 -0.1150 -0.2672  0.0331
 3873SOL    HW215258   0.236   4.043   5.534 -0.6958 -0.6653 -0.2593
 3873SOL    HW315259   0.326   3.952   5.614 -0.1203  0.2251  0.1207
 3873SOL    MW415260   0.290   3.975   5.539 -0.1924 -0.2548  0.0060
 3874SOL     OW15261   2.525   1.419   5.307  0.0111 -0.0686 -0.1373
 3874SOL    HW215262   2.525   1.435   5.213  2.8473  0.0917 -0.1836
 3874SOL    HW315263   2.566   1.333   5.317  1.8937  0.8971  1.0158
 3874SOL    MW415264   2.530   1.410   5.296  0.6337  0.0800  0.0087
 3875SOL     OW15265   5.431   3.822   4.623  0.3708 -0.0633 -0.3988
 3875SOL    HW215266   5.523   3.839   4.599  1.1021  1.0304  2.7031
 3875SOL    HW315267   5.401   3.905   4.659 -2.2167 -0.1435 -2.1208
 3875SOL    MW415268   5.439   3.836   4.624  0.1259  0.0704 -0.2168
 3876SOL     OW15269   3.912   5.630   5.777  0.1592 -0.5366 -0.0144
 3876SOL    HW215270   3.866   5.650   5.695  0.1426  1.7815  0.4950
 3876SOL    HW315271   3.842   5.609   5.839 -0.1136  0.8954  0.2035
 3876SOL    MW415272   3.897   5.630   5.774  0.1210 -0.0419  0.0816
 3877SOL     OW15273   1.184   2.637   5.751 -0.4360 -0.1341 -0.0341
 3877SOL    HW215274   1.124   2.580   5.799 -1.7663  0.4808 -0.9052
 3877SOL    HW315275   1.196   2.594   5.667 -0.7585  0.4431 -0.3777
 3877SOL    MW415276   1.178   2.624   5.746 -0.6541  0.0232 -0.1944
 3878SOL     OW15277   3.935   5.966   3.001 -0.2572 -0.3202 -0.0699
 3878SOL    HW215278   3.911   5.896   3.060 -1.1220  1.7179  2.1530
 3878SOL    HW315279   4.029   5.952   2.983 -0.8050 -3.0537 -1.3184
 3878SOL    MW415280   3.944   5.955   3.006 -0.4436 -0.4120  0.0587
 3879SOL     OW15281   4.834   2.368   6.121  0.4137 -0.3919 -0.1975
 3879SOL    HW215282   4.892   2.383   6.195  0.6489 -0.5278 -0.3542
 3879SOL    HW315283   4.759   2.320   6.158  1.2756 -1.9130 -0.3408
 3879SOL    MW415284   4.832   2.364   6.136  0.5585 -0.6105 -0.2371
 3880SOL     OW15285   2.145   4.105   3.590 -0.1058  0.2173  0.2700
 3880SOL    HW215286   2.210   4.176   3.591  1.3434 -0.9946 -1.4490
 3880SOL    HW315287   2.108   4.105   3.678  3.9748 -0.5561  2.2142
 3880SOL    MW415288   2.149   4.114   3.601  0.6238 -0.0446  0.2997
 3881SOL     OW15289   3.905   3.304   0.181 -0.1353 -0.8505  0.6087
 3881SOL    HW215290   3.889   3.286   0.088  2.8275  3.0511 -0.9292
 3881SOL    HW315291   3.842   3.372   0.203  0.8477  0.0925  0.5972
 3881SOL    MW415292   3.895   3.311   0.172  0.3853 -0.2113  0.4043
 3882SOL     OW15293   1.117   3.736   2.158 -0.6829  0.0794  0.2549
 3882SOL    HW215294   1.046   3.784   2.199 -1.1642 -1.4531  1.3010
 3882SOL    HW315295   1.091   3.644   2.164  0.1147 -0.3553 -1.8197
 3882SOL    MW415296   1.104   3.730   2.164 -0.6412 -0.1802  0.1192
 3883SOL     OW15297   0.579   4.070   4.850  0.1283 -0.0808 -0.1136
 3883SOL    HW215298   0.563   4.046   4.759  0.1402 -0.8765  0.0853
 3883SOL    HW315299   0.674   4.061   4.862 -0.0130 -1.2438  0.3063
 3883SOL    MW415300   0.590   4.065   4.840  0.1112 -0.3393 -0.0320
 3884SOL     OW15301   5.224   2.696   3.370  0.1092 -0.0964  0.0817
 3884SOL    HW215302   5.264   2.618   3.332 -1.6500 -0.8944 -0.2642
 3884SOL    HW315303   5.261   2.769   3.320  1.0785 -0.7888 -0.2355
 3884SOL    MW415304   5.234   2.695   3.358  0.0050 -0.2931 -0.0058
 3885SOL     OW15305   0.042   0.114   2.119  0.0199 -0.4440 -0.0667
 3885SOL    HW215306   0.110   0.088   2.057 -0.1035  1.9593 -1.3610
 3885SOL    HW315307   0.067   0.203   2.144 -0.8592 -0.7584  2.0855
 3885SOL    MW415308   0.054   0.123   2.114 -0.1124 -0.1684  0.0465
 3886SOL     OW15309   1.649   1.782   1.887 -0.3018  0.0221  0.1739
 3886SOL    HW215310   1.719   1.814   1.830 -0.9053 -0.3295 -0.7876
 3886SOL    HW315311   1.575   1.768   1.828 -0.3292 -2.3548  0.6890
 3886SOL    MW415312   1.648   1.785   1.871 -0.3850 -0.3379  0.1150
 3887SOL     OW15313   3.841   1.065   5.449 -0.7531 -0.0044  0.0147
 3887SOL    HW215314   3.876   1.137   5.500 -0.6618 -0.7971  1.0988
 3887SOL    HW315315   3.754   1.049   5.486 -0.5563 -0.8003  0.1612
 3887SOL    MW415316   3.834   1.072   5.460 -0.7151 -0.2140  0.1770
 3888SOL     OW15317   1.773   0.819   5.671  0.5075  0.0063  0.3363
 3888SOL    HW215318   1.760   0.785   5.583 -1.6365  0.1094  0.5559
 3888SOL    HW315319   1.850   0.874   5.665  1.0603 -0.8893 -1.2016
 3888SOL    MW415320   1.781   0.822   5.659  0.2975 -0.0982  0.1624
 3889SOL     OW15321   5.760   4.114   1.228 -0.1126 -0.5975 -0.0373
 3889SOL    HW215322   5.831   4.173   1.201 -0.4539 -0.0278  0.2879
 3889SOL    HW315323   5.733   4.070   1.148  0.8119 -1.0471 -0.1164
 3889SOL    MW415324   5.766   4.116   1.214 -0.0357 -0.5817 -0.0048
 3890SOL     OW15325   5.074   1.971   0.966 -0.0205  0.1743  0.2436
 3890SOL    HW215326   5.113   2.056   0.987 -0.8787  1.0909 -1.6609
 3890SOL    HW315327   5.126   1.939   0.892 -1.3574  0.3129 -0.7813
 3890SOL    MW415328   5.086   1.978   0.959 -0.3101  0.3135 -0.1429
 3891SOL     OW15329   6.031   4.114   1.910  0.4380 -0.8237 -0.4474
 3891SOL    HW215330   6.066   4.107   1.999 -1.0352  1.2322  0.3632
 3891SOL    HW315331   6.106   4.100   1.853  1.6296 -1.0827  1.1267
 3891SOL    MW415332   6.045   4.111   1.914  0.4008 -0.5866 -0.1328
 3892SOL     OW15333   0.473   5.338   5.162 -0.3244  0.2708 -0.0959
 3892SOL    HW215334   0.471   5.347   5.067 -0.0309  1.3212 -0.0122
 3892SOL    HW315335   0.395   5.287   5.183  0.7208 -1.8483 -1.0637
 3892SOL    MW415336   0.463   5.332   5.152 -0.1477  0.1298 -0.2125
 3893SOL     OW15337   0.759   4.723   4.523 -0.3389  0.1156  0.0971
 3893SOL    HW215338   0.724   4.640   4.491 -0.5282  0.3674 -0.3540
 3893SOL    HW315339   0.720   4.789   4.467 -0.7195  0.5745  0.8833
 3893SOL    MW415340   0.749   4.721   4.512 -0.4141  0.2094  0.1413
 3894SOL     OW15341   1.266   4.352   3.844  0.0606  0.2461  0.1707
 3894SOL    HW215342   1.174   4.327   3.850 -0.1120  1.0800  1.3078
 3894SOL    HW315343   1.274   4.390   3.756 -0.5387 -0.3599 -0.1529
 3894SOL    MW415344   1.255   4.354   3.833 -0.0413  0.2762  0.2781
 3895SOL     OW15345   2.808   0.218   3.727  0.1574  0.1044  0.2200
 3895SOL    HW215346   2.862   0.142   3.706  0.3909 -0.2417  1.9155
 3895SOL    HW315347   2.721   0.183   3.742 -0.1338  0.4173 -0.6696
 3895SOL    MW415348   2.804   0.204   3.726  0.1498  0.1000  0.3263
 3896SOL     OW15349   1.532   0.465   4.660  0.1808 -0.2935  0.4336
 3896SOL    HW215350   1.531   0.509   4.745 -0.6156 -0.4575  0.5125
 3896SOL    HW315351   1.622   0.434   4.650  0.5679  0.7094  0.7066
 3896SOL    MW415352   1.544   0.467   4.670  0.1268 -0.1828  0.4800
 3897SOL     OW15353   6.045   5.246   3.284 -0.1339  0.3518 -0.0445
 3897SOL    HW215354   6.058   5.151   3.288  3.0213  0.6201 -1.2994
 3897SOL    HW315355   6.066   5.277   3.372 -0.9919 -0.0452  0.3159
 3897SOL    MW415356   6.049   5.238   3.296  0.1692  0.3348 -0.1625
 3898SOL     OW15357   2.874   0.887   3.891 -0.7208 -0.1274 -0.3730
 3898SOL    HW215358   2.947   0.940   3.857 -0.9596  0.1243 -0.4937
 3898SOL    HW315359   2.865   0.815   3.829 -1.5773  0.6811 -1.2021
 3898SOL    MW415360   2.883   0.885   3.879 -0.8653  0.0125 -0.4983
 3899SOL     OW15361   4.834   4.846   1.000  0.0693  0.8933 -0.4045
 3899SOL    HW215362   4.837   4.751   0.987  1.5358  0.8792 -0.1087
 3899SOL    HW315363   4.750   4.861   1.044  1.3242 -0.7491  2.9191
 3899SOL    MW415364   4.823   4.835   1.004  0.4283  0.6748  0.0730
 3900SOL     OW15365   0.992   4.983   2.742  0.2935 -0.4737  0.0752
 3900SOL    HW215366   0.902   4.992   2.709 -0.6965  1.7937  2.9359
 3900SOL    HW315367   0.990   4.902   2.792 -0.0199 -0.6694 -0.2457
 3900SOL    MW415368   0.980   4.974   2.744  0.1215 -0.2004  0.4103
 3901SOL     OW15369   0.179   6.210   1.149  0.2334  0.0364 -0.1261
 3901SOL    HW215370   0.260   6.254   1.173  1.8531 -2.7781  0.0060
 3901SOL    HW315371   0.167   6.230   1.056  0.5120  1.2589  0.0910
 3901SOL    MW415372   0.188   6.218   1.140  0.4839 -0.1737 -0.0801
 3902SOL     OW15373   5.615   0.584   5.256  0.8525 -0.4392 -0.3580
 3902SOL    HW215374   5.529   0.579   5.215  0.0453 -1.5759  1.3793
 3902SOL    HW315375   5.597   0.599   5.349  2.5477 -0.0198 -0.0614
 3902SOL    MW415376   5.601   0.585   5.263  0.9696 -0.5338 -0.0896
 3903SOL     OW15377   0.446   1.898   4.949 -0.0365  0.5309  0.0691
 3903SOL    HW215378   0.429   1.834   4.880  0.3686  0.0934  0.3697
 3903SOL    HW315379   0.359   1.921   4.983 -0.1471 -0.4080  0.4480
 3903SOL    MW415380   0.432   1.893   4.944  0.0024  0.3493  0.1588
 3904SOL     OW15381   0.685   3.593   1.737  0.3450  0.0636  0.0715
 3904SOL    HW215382   0.595   3.581   1.707  0.5675 -1.8554  0.0469
 3904SOL    HW315383   0.677   3.646   1.816 -0.8379 -0.4459  0.3089
 3904SOL    MW415384   0.672   3.599   1.743  0.2183 -0.2568  0.0995
 3905SOL     OW15385   0.420   5.047   0.784 -0.9261 -0.1710 -0.7945
 3905SOL    HW215386   0.489   5.030   0.848 -0.4412 -0.7146 -1.4405
 3905SOL    HW315387   0.432   5.139   0.760 -0.2321 -0.3355 -1.1119
 3905SOL    MW415388   0.431   5.057   0.789 -0.7706 -0.2645 -0.9216
 3906SOL     OW15389   5.835   5.556   1.220  0.0646 -0.3443 -0.2367
 3906SOL    HW215390   5.744   5.526   1.212  0.9435 -3.2855 -0.4164
 3906SOL    HW315391   5.863   5.523   1.305  1.5410 -1.2466 -1.0413
 3906SOL    MW415392   5.827   5.548   1.230  0.3754 -0.8514 -0.3665
 3907SOL     OW15393   5.073   4.162   2.246 -0.3713 -0.2054  0.6183
 3907SOL    HW215394   5.093   4.252   2.220 -0.3025 -0.6075 -0.8141
 3907SOL    HW315395   5.155   4.115   2.230 -0.3873 -0.5143  1.4307
 3907SOL    MW415396   5.087   4.168   2.240 -0.3643 -0.2992  0.5365
 3908SOL     OW15397   3.679   1.317   3.273 -0.5798  0.1459 -0.3871
 3908SOL    HW215398   3.638   1.323   3.187 -2.1023  0.6221  0.3420
 3908SOL    HW315399   3.643   1.391   3.322 -0.2135 -0.4707  0.8577
 3908SOL    MW415400   3.669   1.328   3.268 -0.7323  0.1274 -0.1266
 3909SOL     OW15401   3.578   2.542   3.990  0.2932 -0.4035  0.1187
 3909SOL    HW215402   3.547   2.452   3.989 -0.6750 -0.0743  0.1154
 3909SOL    HW315403   3.596   2.561   4.083 -1.1882 -0.0409  0.3500
 3909SOL    MW415404   3.577   2.533   4.002 -0.0300 -0.3122  0.1488
 3910SOL     OW15405   4.603   1.220   4.062 -0.3122 -0.1388  0.1004
 3910SOL    HW215406   4.689   1.188   4.038  0.0944  0.5519  0.5794
 3910SOL    HW315407   4.543   1.176   4.002  0.4674  0.1294 -0.9022
 3910SOL    MW415408   4.606   1.210   4.051 -0.1557 -0.0123  0.0313
 3911SOL     OW15409   2.924   2.721   2.650 -0.2259  0.2543  0.0482
 3911SOL    HW215410   2.863   2.754   2.716 -0.7279 -1.8932  0.7312
 3911SOL    HW315411   2.878   2.647   2.610  0.3349  1.1007 -2.3094
 3911SOL    MW415412   2.910   2.716   2.653 -0.2181  0.0827 -0.1727
 3912SOL     OW15413   2.687   6.014   5.990  0.0443  0.3450  0.3136
 3912SOL    HW215414   2.745   6.020   6.066 -1.0336  0.4033  1.1688
 3912SOL    HW315415   2.685   5.921   5.969 -0.4433  0.1787  1.0311
 3912SOL    MW415416   2.694   6.002   5.997 -0.1623  0.3307  0.5211
 3913SOL     OW15417   4.245   5.546   0.401 -0.0544  0.0495 -0.5676
 3913SOL    HW215418   4.228   5.562   0.494 -3.3358 -0.9162 -0.8778
 3913SOL    HW315419   4.191   5.610   0.355 -0.6539 -1.2416 -1.7656
 3913SOL    MW415420   4.235   5.556   0.407 -0.5665 -0.2482 -0.7666
 3914SOL     OW15421   3.904   5.368   6.230  0.0297  0.3685  0.3888
 3914SOL    HW215422   3.957   5.445   6.253 -0.0283  0.6023 -0.2398
 3914SOL    HW315423   3.968   5.304   6.198  0.0986  0.0779  1.0734
 3914SOL    MW415424   3.920   5.370   6.229  0.0312  0.3610  0.3962
 3915SOL     OW15425   1.029   4.529   2.387  0.3135 -0.2022 -0.3977
 3915SOL    HW215426   1.006   4.549   2.478  2.6697  1.0029  0.0316
 3915SOL    HW315427   0.978   4.591   2.335  0.7797  0.7945  0.3081
 3915SOL    MW415428   1.019   4.540   2.392  0.6859  0.0883 -0.2479
 3916SOL     OW15429   0.779   5.980   4.068  0.4964 -0.0884 -0.3114
 3916SOL    HW215430   0.843   5.926   4.114  1.0292  2.8790  2.8045
 3916SOL    HW315431   0.826   6.012   3.991  2.6293  1.3470  1.4646
 3916SOL    MW415432   0.793   5.977   4.064  0.8481  0.4925  0.3340
 3917SOL     OW15433   3.181   4.735   0.298 -0.5169  0.5423  0.0088
 3917SOL    HW215434   3.241   4.785   0.354 -2.0170  1.0642  1.2229
 3917SOL    HW315435   3.238   4.677   0.247  0.9622  0.5280  1.5931
 3917SOL    MW415436   3.196   4.734   0.299 -0.5197  0.6092  0.3780
 3918SOL     OW15437   3.691   5.698   2.461 -0.5564 -0.1330 -0.1637
 3918SOL    HW215438   3.656   5.705   2.550 -1.3918 -1.8811 -0.3099
 3918SOL    HW315439   3.617   5.669   2.408  0.1561 -0.0004 -1.2642
 3918SOL    MW415440   3.676   5.695   2.466 -0.5726 -0.3461 -0.3282
 3919SOL     OW15441   5.241   5.668   6.293 -0.2023  0.5128 -0.1473
 3919SOL    HW215442   5.300   5.721   6.346  0.5468  0.8440 -1.2828
 3919SOL    HW315443   5.207   5.601   6.353  1.7140 -0.0082  0.4041
 3919SOL    MW415444   5.244   5.666   6.308  0.1494  0.4877 -0.2244
 3920SOL     OW15445   5.421   1.621   4.059  0.3395 -0.6028  0.1464
 3920SOL    HW215446   5.416   1.709   4.094  0.8930 -0.8499  0.8795
 3920SOL    HW315447   5.486   1.627   3.989  0.7202 -0.5188  0.5019
 3920SOL    MW415448   5.429   1.633   4.055  0.4627 -0.6243  0.2900
 3921SOL     OW15449   3.938   0.685   1.751  0.1678  0.4178 -0.2360
 3921SOL    HW215450   3.918   0.704   1.659 -0.3358 -0.4320 -0.3153
 3921SOL    HW315451   3.873   0.734   1.800  0.6037  1.0863 -0.3173
 3921SOL    MW415452   3.927   0.694   1.745  0.1589  0.3939 -0.2572
 3922SOL     OW15453   3.421   2.067   6.140  0.0491  0.4558  0.1472
 3922SOL    HW215454   3.510   2.100   6.129 -0.3561  1.3538 -0.4944
 3922SOL    HW315455   3.394   2.098   6.226  0.3374  0.1917  0.3382
 3922SOL    MW415456   3.429   2.075   6.150  0.0337  0.5394  0.0878
 3923SOL     OW15457   5.395   3.979   4.245 -0.3334 -0.1053  0.1346
 3923SOL    HW215458   5.483   4.012   4.229 -0.3310 -0.2223 -0.0926
 3923SOL    HW315459   5.363   4.031   4.319  1.2705 -2.4859  2.6578
 3923SOL    MW415460   5.402   3.991   4.253 -0.1215 -0.4349  0.4375
 3924SOL     OW15461   4.737   5.258   1.566  0.3756  0.4150 -0.7927
 3924SOL    HW215462   4.828   5.269   1.538  1.2285 -0.7767  1.2513
 3924SOL    HW315463   4.693   5.217   1.492  1.8952 -0.4116 -1.2797
 3924SOL    MW415464   4.743   5.254   1.553  0.6886  0.1487 -0.5873
 3925SOL     OW15465   2.967   2.594   0.364 -0.1541  0.2160 -0.1195
 3925SOL    HW215466   2.943   2.529   0.430  0.0702  1.4562  1.2143
 3925SOL    HW315467   2.988   2.673   0.413  3.3227  0.2636 -1.4195
 3925SOL    MW415468   2.966   2.596   0.379  0.3342  0.3859 -0.1151
 3926SOL     OW15469   4.804   0.357   0.986  0.1647 -1.3127  0.0951
 3926SOL    HW215470   4.825   0.316   1.071  0.3269 -2.4753 -0.4795
 3926SOL    HW315471   4.727   0.309   0.955  0.2322 -1.0302 -0.5133
 3926SOL    MW415472   4.797   0.345   0.993  0.1950 -1.4288 -0.0610
 3927SOL     OW15473   6.268   6.199   5.218  0.0269 -0.2503 -0.7177
 3927SOL    HW215474   6.361   6.190   5.202 -0.4770 -2.9314 -2.8183
 3927SOL    HW315475   6.241   6.274   5.165  0.8344 -0.0050 -0.7890
 3927SOL    MW415476   6.277   6.208   5.209  0.0669 -0.5717 -1.0043
 3928SOL     OW15477   5.840   4.600   1.057 -0.0254  0.0892 -0.0611
 3928SOL    HW215478   5.751   4.592   1.093  0.4663 -0.4276  1.1203
 3928SOL    HW315479   5.873   4.510   1.055  0.1261  0.1622 -1.4400
 3928SOL    MW415480   5.833   4.587   1.062  0.0595  0.0307 -0.0871
 3929SOL     OW15481   5.517   2.034   2.404  0.2712  0.0713  0.0258
 3929SOL    HW215482   5.562   1.961   2.446 -1.2071 -0.1415  1.3197
 3929SOL    HW315483   5.544   2.111   2.454 -0.9987 -0.1022  1.0392
 3929SOL    MW415484   5.526   2.034   2.416 -0.0914  0.0203  0.3302
 3930SOL     OW15485   4.566   1.867   1.040  0.5964  0.1307 -0.0017
 3930SOL    HW215486   4.592   1.862   1.132  0.8432 -0.1177 -0.0822
 3930SOL    HW315487   4.498   1.800   1.031  0.9571 -0.2210 -0.1243
 3930SOL    MW415488   4.560   1.857   1.051  0.6765  0.0515 -0.0285
 3931SOL     OW15489   5.619   0.548   1.715 -1.0549 -0.2525  0.5861
 3931SOL    HW215490   5.696   0.497   1.740 -0.5561  0.4001  0.4331
 3931SOL    HW315491   5.574   0.565   1.798 -0.6105  0.0160  0.7764
 3931SOL    MW415492   5.623   0.544   1.729 -0.9305 -0.1310  0.5910
 3932SOL     OW15493   3.411   4.856   2.887  0.1478 -0.4135  0.8838
 3932SOL    HW215494   3.444   4.781   2.935  1.0295  0.7812  2.2302
 3932SOL    HW315495   3.429   4.931   2.944  0.0737  0.9244 -0.7725
 3932SOL    MW415496   3.418   4.856   2.901  0.2543 -0.0794  0.8429
 3933SOL     OW15497   0.991   3.082   0.480  0.1463 -0.4017  0.6881
 3933SOL    HW215498   1.036   3.154   0.525  0.2778  0.3143 -0.5289
 3933SOL    HW315499   0.898   3.101   0.494  0.0696  1.5416 -1.7670
 3933SOL    MW415500   0.985   3.094   0.488  0.1535 -0.0509  0.2036
 3934SOL     OW15501   1.582   0.257   3.137  0.6324 -0.1332  0.4310
 3934SOL    HW215502   1.511   0.270   3.074  0.4698  0.3249  0.7060
 3934SOL    HW315503   1.538   0.234   3.219  0.7607  0.7240  0.7531
 3934SOL    MW415504   1.566   0.255   3.139  0.6278  0.0403  0.5098
 3935SOL     OW15505   0.682   5.982   0.281  0.4945  0.1716 -0.1498
 3935SOL    HW215506   0.754   5.919   0.281  0.6157  0.2963 -0.9777
 3935SOL    HW315507   0.603   5.928   0.273  0.4528  0.0098  1.1332
 3935SOL    MW415508   0.681   5.967   0.280  0.5050  0.1667 -0.0897
 3936SOL     OW15509   0.931   3.789   0.498  0.5978 -0.7338 -0.4139
 3936SOL    HW215510   0.931   3.709   0.551  0.4785 -1.8733 -2.0658
 3936SOL    HW315511   0.999   3.775   0.433 -0.7196 -0.3561 -1.9468
 3936SOL    MW415512   0.940   3.776   0.496  0.4083 -0.8343 -0.8341
 3937SOL     OW15513   1.074   4.069   1.713 -0.1627 -0.2498  0.1114
 3937SOL    HW215514   0.996   4.044   1.665 -0.4703 -0.4810  0.7212
 3937SOL    HW315515   1.060   4.035   1.801  0.4963 -0.0424  0.3038
 3937SOL    MW415516   1.062   4.061   1.718 -0.1163 -0.2530  0.2172
 3938SOL     OW15517   3.013   5.404   6.001  0.4918  0.2342  0.4581
 3938SOL    HW215518   3.057   5.431   6.082 -2.1426 -2.8559  3.2457
 3938SOL    HW315519   3.073   5.340   5.962  1.0710  0.4758  0.9332
 3938SOL    MW415520   3.027   5.399   6.007  0.2206 -0.1416  0.8886
 3939SOL     OW15521   3.335   5.430   5.254 -0.4052 -0.1091 -0.2210
 3939SOL    HW215522   3.385   5.354   5.226  0.7658 -0.5040  2.5650
 3939SOL    HW315523   3.401   5.489   5.291 -1.7005  0.4281  1.3642
 3939SOL    MW415524   3.350   5.428   5.256 -0.4216 -0.0903  0.3558
 3940SOL     OW15525   0.806   3.863   2.768 -0.3899  0.1821 -0.0774
 3940SOL    HW215526   0.747   3.828   2.700  1.3220  0.5368 -1.8390
 3940SOL    HW315527   0.838   3.786   2.815 -1.3791 -0.0964  0.1652
 3940SOL    MW415528   0.802   3.848   2.765 -0.2946  0.1922 -0.2778
 3941SOL     OW15529   5.210   4.913   6.169 -0.1048 -0.3496 -0.5602
 3941SOL    HW215530   5.117   4.906   6.148 -0.2524 -0.2713  0.0601
 3941SOL    HW315531   5.254   4.883   6.090 -0.6514 -0.0675 -0.9814
 3941SOL    MW415532   5.204   4.908   6.156 -0.1964 -0.3021 -0.5339
 3942SOL     OW15533   1.564   4.081   4.265  0.2237 -0.0928  0.4136
 3942SOL    HW215534   1.537   4.085   4.357  1.5883 -0.3205  0.8519
 3942SOL    HW315535   1.597   4.169   4.247  2.3528 -0.7223  0.9569
 3942SOL    MW415536   1.565   4.093   4.275  0.6847 -0.2059  0.5431
 3943SOL     OW15537   6.418   5.785   4.685 -0.6139 -0.0659  0.6663
 3943SOL    HW215538   6.375   5.702   4.669 -0.6185 -0.2077  1.3706
 3943SOL    HW315539   6.411   5.798   4.780 -0.0133  0.3998  0.6563
 3943SOL    MW415540   6.411   5.776   4.696 -0.5353 -0.0232  0.7579
 3944SOL     OW15541   3.804   2.702   4.819 -0.1254 -1.0071  0.4414
 3944SOL    HW215542   3.780   2.786   4.857  0.7185 -0.3953 -0.3199
 3944SOL    HW315543   3.724   2.670   4.777  0.1707  0.7731 -1.6825
 3944SOL    MW415544   3.790   2.709   4.818  0.0250 -0.6915  0.0607
 3945SOL     OW15545   3.508   3.275   6.138  0.2129 -0.1270  0.0341
 3945SOL    HW215546   3.508   3.298   6.045 -0.8284 -1.2996 -0.2846
 3945SOL    HW315547   3.434   3.323   6.175 -0.2389 -0.7396 -0.0520
 3945SOL    MW415548   3.498   3.284   6.131  0.0159 -0.3625 -0.0193
 3946SOL     OW15549   0.795   2.888   0.238  0.5096  0.0444 -0.2515
 3946SOL    HW215550   0.788   2.866   0.145  0.3967  2.0413 -0.7572
 3946SOL    HW315551   0.838   2.812   0.278  1.1204 -0.5865 -2.0303
 3946SOL    MW415552   0.800   2.875   0.231  0.5753  0.2246 -0.5529
 3947SOL     OW15553   4.947   6.361   1.984  0.1055  0.2579 -0.2666
 3947SOL    HW215554   4.895   6.282   1.997  1.1263 -0.3356  0.4307
 3947SOL    HW315555   4.890   6.420   1.936 -1.1816 -0.3805  0.4215
 3947SOL    MW415556   4.933   6.358   1.980  0.0704  0.0954 -0.0838
 3948SOL     OW15557   0.947   4.135   6.237 -0.0841 -0.1296  0.1264
 3948SOL    HW215558   0.885   4.144   6.164  0.3271  0.9376 -0.1074
 3948SOL    HW315559   1.026   4.179   6.207  0.2641 -0.1273  1.0261
 3948SOL    MW415560   0.949   4.142   6.224  0.0161  0.0115  0.2143
 3949SOL     OW15561   4.181   4.979   3.801 -0.7105  0.0441 -0.6812
 3949SOL    HW215562   4.115   5.048   3.795  0.6514  1.3797 -0.7634
 3949SOL    HW315563   4.183   4.955   3.894 -0.1955  1.1557 -0.3879
 3949SOL    MW415564   4.173   4.985   3.812 -0.4628  0.3670 -0.6534
 3950SOL     OW15565   0.827   1.129   1.358  0.6533  0.0382 -0.2491
 3950SOL    HW215566   0.781   1.207   1.325  1.5867  0.0335 -1.6809
 3950SOL    HW315567   0.876   1.097   1.282  2.7900 -0.1223  1.1187
 3950SOL    MW415568   0.828   1.135   1.343  1.0583  0.0164 -0.2576
 3951SOL     OW15569   1.193   1.728   3.059 -0.1899  0.5102 -0.3914
 3951SOL    HW215570   1.134   1.654   3.044  0.6019 -0.7191  2.0242
 3951SOL    HW315571   1.145   1.785   3.120  0.6535  0.0487  0.7295
 3951SOL    MW415572   1.179   1.726   3.065  0.0258  0.2872  0.0752
 3952SOL     OW15573   0.488   1.841   4.529  0.4140  0.2160  0.0167
 3952SOL    HW215574   0.435   1.892   4.467  0.9700  0.4886 -0.2440
 3952SOL    HW315575   0.532   1.776   4.475 -0.8791 -1.0826  0.4447
 3952SOL    MW415576   0.487   1.839   4.513  0.3168  0.0807  0.0388
 3953SOL     OW15577   3.836   1.056   4.222 -0.3507  0.5769  0.6046
 3953SOL    HW215578   3.824   1.125   4.157 -0.7018  0.3794  0.4559
 3953SOL    HW315579   3.922   1.074   4.261  1.0351 -0.6671 -1.6073
 3953SOL    MW415580   3.846   1.068   4.219 -0.2142  0.3867  0.2932
 3954SOL     OW15581   2.729   1.696   3.832  0.5789 -0.3010  0.1530
 3954SOL    HW215582   2.705   1.607   3.855  0.4718 -0.1865  0.4776
 3954SOL    HW315583   2.687   1.711   3.747  0.2316 -0.4056  0.3051
 3954SOL    MW415584   2.721   1.687   3.824  0.5189 -0.2997  0.2159
 3955SOL     OW15585   2.706   0.884   2.994 -0.2179 -0.1880 -0.6896
 3955SOL    HW215586   2.615   0.871   2.968 -0.2047  0.4823 -1.0818
 3955SOL    HW315587   2.756   0.867   2.913  0.2242 -2.8978  0.0253
 3955SOL    MW415588   2.701   0.880   2.980 -0.1578 -0.4571 -0.6470
 3956SOL     OW15589   1.650   3.483   5.313  0.1961  0.1667  0.4288
 3956SOL    HW215590   1.663   3.557   5.255 -0.6743 -2.0353 -2.8296
 3956SOL    HW315591   1.736   3.440   5.317 -0.1685 -0.7544 -0.9331
 3956SOL    MW415592   1.663   3.487   5.306  0.0331 -0.2453 -0.1808
 3957SOL     OW15593   1.746   4.663   4.139  0.4931  0.4473 -0.3628
 3957SOL    HW215594   1.671   4.715   4.109 -1.0889 -1.2811  0.4226
 3957SOL    HW315595   1.762   4.600   4.069 -0.8371 -1.1986  0.7436
 3957SOL    MW415596   1.739   4.662   4.126  0.1089  0.0021 -0.1132
 3958SOL     OW15597   2.885   2.116   2.395  0.3694  0.2352 -0.9826
 3958SOL    HW215598   2.919   2.205   2.388  1.1532  0.0198 -0.1162
 3958SOL    HW315599   2.792   2.128   2.417  0.5202  0.8405 -0.6523
 3958SOL    MW415600   2.877   2.130   2.397  0.4927  0.2866 -0.8247
 3959SOL     OW15601   1.518   2.474   2.677 -0.4274  0.1462 -0.0951
 3959SOL    HW215602   1.541   2.563   2.702 -0.9941  0.0277  0.9179
 3959SOL    HW315603   1.423   2.476   2.666 -0.6852 -0.6861  1.5882
 3959SOL    MW415604   1.508   2.486   2.679 -0.5362  0.0207  0.2606
 3960SOL     OW15605   5.151   0.480   2.440  0.2381 -0.8121  0.5468
 3960SOL    HW215606   5.163   0.486   2.346  1.0921 -0.2441  0.6745
 3960SOL    HW315607   5.061   0.450   2.452  0.2881 -1.3751 -0.4482
 3960SOL    MW415608   5.141   0.477   2.429  0.3573 -0.8114  0.4324
 3961SOL     OW15609   5.319   2.639   5.177  0.5827  0.2619 -0.0552
 3961SOL    HW215610   5.248   2.704   5.179 -0.4168 -0.7973  1.6356
 3961SOL    HW315611   5.283   2.565   5.128 -0.5485 -1.2968  2.8806
 3961SOL    MW415612   5.304   2.638   5.171  0.3016 -0.0835  0.5552
 3962SOL     OW15613   1.118   6.352   4.502  0.0597 -0.1911  0.2664
 3962SOL    HW215614   1.096   6.369   4.410  0.2109  0.0797  0.2794
 3962SOL    HW315615   1.208   6.385   4.511  1.0017 -2.4655 -0.1309
 3962SOL    MW415616   1.127   6.359   4.491  0.2039 -0.4555  0.2157
 3963SOL     OW15617   1.062   0.233   0.082  0.3630  0.4818  0.2635
 3963SOL    HW215618   1.129   0.196   0.140 -1.9234 -1.7941  1.6912
 3963SOL    HW315619   1.027   0.157   0.036  0.0579  1.8828 -1.9408
 3963SOL    MW415620   1.066   0.218   0.084  0.0211  0.3663  0.1610
 3964SOL     OW15621   3.172   1.474   4.402 -0.1811 -0.4472  0.4623
 3964SOL    HW215622   3.126   1.445   4.481  1.4067  0.2355  1.6906
 3964SOL    HW315623   3.146   1.565   4.390  0.6417 -0.1373  1.0094
 3964SOL    MW415624   3.162   1.482   4.410  0.1370 -0.3162  0.6965
 3965SOL     OW15625   0.588   0.286   2.833  0.7224 -0.4690  0.3998
 3965SOL    HW215626   0.619   0.238   2.756  0.2264  0.9348 -0.7074
 3965SOL    HW315627   0.493   0.278   2.830  0.6558  0.2786  0.4031
 3965SOL    MW415628   0.579   0.279   2.822  0.6481 -0.1851  0.2542
 3966SOL     OW15629   4.811   3.658   5.569  0.4445 -0.0736 -0.2583
 3966SOL    HW215630   4.875   3.692   5.506  1.8012 -3.2390 -0.7828
 3966SOL    HW315631   4.759   3.595   5.519 -0.8697 -0.0259  0.9871
 3966SOL    MW415632   4.813   3.654   5.554  0.4501 -0.4849 -0.1632
 3967SOL     OW15633   3.915   1.054   5.161  0.1427 -0.4051  0.0272
 3967SOL    HW215634   3.912   1.070   5.255  0.4349  0.2060 -0.0608
 3967SOL    HW315635   3.913   1.141   5.121  0.5066 -0.6324 -0.5156
 3967SOL    MW415636   3.915   1.067   5.168  0.2293 -0.3545 -0.0560
 3968SOL     OW15637   2.280   5.260   1.652  0.2125 -0.1128 -0.0865
 3968SOL    HW215638   2.321   5.191   1.703 -1.4483 -1.5910 -0.6362
 3968SOL    HW315639   2.347   5.288   1.589  0.8327 -1.3862 -0.0080
 3968SOL    MW415640   2.294   5.255   1.650  0.0752 -0.4759 -0.1486
 3969SOL     OW15641   1.372   0.537   3.490 -0.1006 -0.5452 -0.8372
 3969SOL    HW215642   1.294   0.566   3.537 -0.2686 -0.4829 -1.1484
 3969SOL    HW315643   1.345   0.537   3.398 -0.0569 -1.5381 -0.8567
 3969SOL    MW415644   1.358   0.541   3.484 -0.1170 -0.6680 -0.8809
 3970SOL     OW15645   2.329   4.227   2.751  0.0114 -1.0151  0.9886
 3970SOL    HW215646   2.373   4.208   2.835  0.7087 -2.3761  0.3574
 3970SOL    HW315647   2.359   4.157   2.693  2.0723  1.5999 -1.3553
 3970SOL    MW415648   2.339   4.215   2.755  0.3753 -0.8497  0.5961
 3971SOL     OW15649   2.499   1.472   0.252  0.3630 -0.1025  0.5293
 3971SOL    HW215650   2.478   1.541   0.314 -0.3971  0.8779 -0.7535
 3971SOL    HW315651   2.461   1.393   0.289  0.5349  0.3184  1.6272
 3971SOL    MW415652   2.491   1.471   0.265  0.2854  0.0824  0.5049
 3972SOL     OW15653   1.261   6.173   2.843  0.5987  0.0374  0.6047
 3972SOL    HW215654   1.271   6.190   2.749  0.2249  0.8345  0.7014
 3972SOL    HW315655   1.264   6.260   2.884 -2.5794  0.0837  1.0168
 3972SOL    MW415656   1.263   6.187   2.836  0.1300  0.1487  0.6719
 3973SOL     OW15657   1.807   6.112   3.799 -0.3331 -0.1244  0.4480
 3973SOL    HW215658   1.740   6.090   3.864 -1.0528  1.5630  0.3337
 3973SOL    HW315659   1.758   6.123   3.717  0.2398  0.0258  0.1206
 3973SOL    MW415660   1.792   6.111   3.797 -0.3524  0.1180  0.3897
 3974SOL     OW15661   0.021   2.815   2.433  0.5972 -0.3197 -0.0434
 3974SOL    HW215662   0.050   2.741   2.379  1.0549 -0.2805  0.1444
 3974SOL    HW315663   0.028   2.891   2.375 -2.1106 -0.7030 -1.0081
 3974SOL    MW415664   0.026   2.815   2.418  0.3003 -0.3651 -0.1459
 3975SOL     OW15665   5.088   6.272   3.667 -0.3720 -0.1365  0.0911
 3975SOL    HW215666   5.027   6.243   3.735  0.0706 -1.6115 -0.0958
 3975SOL    HW315667   5.042   6.255   3.585 -0.4816  0.6132 -0.0022
 3975SOL    MW415668   5.074   6.266   3.665 -0.3280 -0.2322  0.0541
 3976SOL     OW15669   3.196   4.823   2.502 -0.1498  0.1257 -0.4933
 3976SOL    HW215670   3.179   4.733   2.533 -2.0420  1.1865  1.8920
 3976SOL    HW315671   3.146   4.830   2.421 -2.0457 -0.2849  0.5772
 3976SOL    MW415672   3.187   4.812   2.496 -0.6496  0.2115 -0.0373
 3977SOL     OW15673   1.972   5.197   0.592  0.5563 -0.3666  0.1972
 3977SOL    HW215674   1.907   5.151   0.539  1.5784 -0.4496 -1.0393
 3977SOL    HW315675   2.005   5.266   0.534  1.6591 -0.4145  0.7437
 3977SOL    MW415676   1.968   5.200   0.577  0.8367 -0.3839  0.1062
 3978SOL     OW15677   5.222   5.274   2.891 -0.2164  0.1823  0.0828
 3978SOL    HW215678   5.210   5.180   2.887 -0.2417 -0.2278  4.5780
 3978SOL    HW315679   5.134   5.309   2.910  0.1527  0.8327  0.6473
 3978SOL    MW415680   5.209   5.266   2.893 -0.1710  0.2140  0.7504
 3979SOL     OW15681   5.997   3.591   0.747 -0.7171 -0.0859 -0.2303
 3979SOL    HW215682   5.931   3.659   0.729 -0.7613 -0.7756 -3.1395
 3979SOL    HW315683   6.026   3.562   0.660  2.5107 -0.7366  0.9322
 3979SOL    MW415684   5.992   3.596   0.733 -0.2971 -0.2627 -0.4608
 3980SOL     OW15685   5.388   2.148   5.008 -0.5086 -0.4709 -0.6929
 3980SOL    HW215686   5.316   2.097   4.971 -0.7926  0.8117 -1.9839
 3980SOL    HW315687   5.432   2.186   4.932  1.8168 -1.5209  0.0214
 3980SOL    MW415688   5.384   2.146   4.993 -0.2393 -0.4402 -0.7690
 3981SOL     OW15689   3.014   6.274   4.881 -0.2255 -0.3715 -0.3916
 3981SOL    HW215690   2.952   6.277   4.809 -0.3185  0.9072 -0.2911
 3981SOL    HW315691   3.036   6.366   4.897  0.1822 -0.6670  0.8694
 3981SOL    MW415692   3.009   6.287   4.874 -0.1840 -0.2418 -0.2120
 3982SOL     OW15693   5.217   4.059   0.166 -0.8727 -0.1388 -0.4281
 3982SOL    HW215694   5.215   3.968   0.195  1.4006 -0.0586  0.1957
 3982SOL    HW315695   5.247   4.056   0.076 -0.6695 -0.0110 -0.3666
 3982SOL    MW415696   5.221   4.047   0.158 -0.5460 -0.1113 -0.3376
 3983SOL     OW15697   4.946   1.004   2.325 -0.8445  0.0685  0.4932
 3983SOL    HW215698   4.873   1.031   2.269 -0.6307 -0.5483 -0.0906
 3983SOL    HW315699   4.983   1.087   2.357 -0.3814  0.4783 -1.0463
 3983SOL    MW415700   4.942   1.019   2.322 -0.7552  0.0412  0.2131
 3984SOL     OW15701   0.710   4.219   2.543 -0.3233  0.0029 -0.4852
 3984SOL    HW215702   0.693   4.235   2.636 -0.4597  0.4700 -0.5856
 3984SOL    HW315703   0.805   4.224   2.535 -0.3980  1.5844 -0.6430
 3984SOL    MW415704   0.720   4.222   2.554 -0.3512  0.2732 -0.5192
 3985SOL     OW15705   1.411   6.394   5.051 -0.1016  0.2036 -0.0565
 3985SOL    HW215706   1.423   6.487   5.033 -0.3320  0.1545 -0.4702
 3985SOL    HW315707   1.358   6.391   5.131 -0.5493  0.4324 -0.3422
 3985SOL    MW415708   1.405   6.406   5.059 -0.1910  0.2273 -0.1488
 3986SOL     OW15709   3.489   2.455   5.055  0.0097 -0.2576  0.0143
 3986SOL    HW215710   3.504   2.390   5.123 -2.5951  1.0480  2.0409
 3986SOL    HW315711   3.566   2.512   5.059  0.3141 -0.7336  1.2416
 3986SOL    MW415712   3.501   2.454   5.064 -0.2938 -0.1481  0.4436
 3987SOL     OW15713   5.375   5.742   4.280  0.4093  0.3386  0.5801
 3987SOL    HW215714   5.387   5.837   4.273 -0.9650  0.4955  0.0248
 3987SOL    HW315715   5.290   5.732   4.324 -1.1330 -0.5596 -2.3160
 3987SOL    MW415716   5.365   5.753   4.285  0.0245  0.2408  0.1247
 3988SOL     OW15717   2.120   0.846   2.690 -0.1059  0.1199 -0.3830
 3988SOL    HW215718   2.026   0.855   2.674  0.0236  0.6900 -0.8585
 3988SOL    HW315719   2.155   0.933   2.674  0.4601 -0.0086  0.1261
 3988SOL    MW415720   2.112   0.859   2.686 -0.0141  0.1782 -0.3786
 3989SOL     OW15721   4.684   1.587   2.464 -0.6115  0.2049  0.7966
 3989SOL    HW215722   4.605   1.639   2.450 -0.5252  0.0369 -0.3620
 3989SOL    HW315723   4.665   1.503   2.424  1.4816  1.3390 -3.0764
 3989SOL    MW415724   4.671   1.583   2.457 -0.3240  0.3324  0.1328
 3990SOL     OW15725   0.721   4.028   1.920 -0.3140  0.0829 -0.6604
 3990SOL    HW215726   0.647   4.082   1.949 -0.7965 -0.7678 -0.2833
 3990SOL    HW315727   0.710   4.022   1.826 -0.1413  0.8105 -0.7329
 3990SOL    MW415728   0.710   4.035   1.912 -0.3549  0.0667 -0.6202
 3991SOL     OW15729   4.436   3.635   4.090  0.1966  0.0750  0.5972
 3991SOL    HW215730   4.457   3.542   4.083 -0.4148 -0.0417  0.1756
 3991SOL    HW315731   4.345   3.636   4.120 -1.1758  0.4507 -3.0431
 3991SOL    MW415732   4.426   3.623   4.093 -0.0652  0.1092  0.0613
 3992SOL     OW15733   4.364   6.076   4.638 -0.7400 -0.2808 -0.1656
 3992SOL    HW215734   4.456   6.070   4.614 -1.0378 -0.2528 -1.4147
 3992SOL    HW315735   4.364   6.094   4.732  0.5025 -1.1603  0.0227
 3992SOL    MW415736   4.376   6.078   4.647 -0.6153 -0.3931 -0.3056
 3993SOL     OW15737   5.368   2.796   0.742 -0.1257  0.0912  0.4918
 3993SOL    HW215738   5.417   2.862   0.790  0.6230 -0.7794  0.9512
 3993SOL    HW315739   5.360   2.832   0.653  1.5909  0.1612  0.3237
 3993SOL    MW415740   5.373   2.810   0.736  0.1996 -0.0144  0.5302
 3994SOL     OW15741   2.152   5.644   2.466 -0.3833  0.0723 -0.2055
 3994SOL    HW215742   2.058   5.660   2.475 -0.4372 -0.5618  0.3895
 3994SOL    HW315743   2.187   5.728   2.434 -1.2979 -0.0269 -1.5556
 3994SOL    MW415744   2.145   5.657   2.463 -0.5111 -0.0244 -0.3051
 3995SOL     OW15745   6.318   4.606   3.614 -0.1622 -0.0343 -0.7676
 3995SOL    HW215746   6.396   4.604   3.669 -1.2334  1.4501  0.8831
 3995SOL    HW315747   6.259   4.668   3.656 -1.9105 -0.4376 -2.4434
 3995SOL    MW415748   6.320   4.614   3.627 -0.5342  0.1083 -0.7709
 3996SOL     OW15749   1.617   2.774   1.505  0.4033  0.2333 -0.1702
 3996SOL    HW215750   1.605   2.735   1.419 -0.4916 -1.5039  0.6962
 3996SOL    HW315751   1.712   2.785   1.513  0.4843  0.5812 -1.4301
 3996SOL    MW415752   1.628   2.770   1.495  0.2960  0.0500 -0.2221
 3997SOL     OW15753   2.723   2.537   0.187  0.5715  0.1138 -0.5548
 3997SOL    HW215754   2.801   2.552   0.239 -0.3371  0.8774  0.6501
 3997SOL    HW315755   2.696   2.625   0.159  0.1941 -0.1481 -1.0383
 3997SOL    MW415756   2.729   2.551   0.190  0.4018  0.1800 -0.4596
 3998SOL     OW15757   5.832   6.403   4.025  0.0066 -0.4108  0.2924
 3998SOL    HW215758   5.817   6.487   3.980  1.6623 -0.2222  0.0514
 3998SOL    HW315759   5.824   6.337   3.956  0.1279 -0.3314  0.2027
 3998SOL    MW415760   5.829   6.405   4.010  0.2410 -0.3754  0.2488
 3999SOL     OW15761   6.157   5.373   3.762  0.3774  0.0986 -0.0871
 3999SOL    HW215762   6.137   5.467   3.759  1.6885  0.3786 -1.1739
 3999SOL    HW315763   6.201   5.360   3.846  1.6665  0.8013 -0.6280
 3999SOL    MW415764   6.160   5.384   3.772  0.7205  0.2283 -0.3018
 4000SOL     OW15765   5.626   0.907   2.307 -0.0522 -0.4795 -0.1674
 4000SOL    HW215766   5.697   0.854   2.342 -1.0326 -2.0713 -0.4500
 4000SOL    HW315767   5.668   0.987   2.275  1.4741 -1.0409  0.3695
 4000SOL    MW415768   5.641   0.910   2.307  0.0198 -0.7636 -0.1339
 4001SOL     OW15769   5.823   0.702   6.236 -0.1678 -0.1836  0.0095
 4001SOL    HW215770   5.752   0.740   6.184 -0.1023  1.7365  1.2266
 4001SOL    HW315771   5.903   0.728   6.191 -0.1549 -2.1591 -1.2371
 4001SOL    MW415772   5.824   0.710   6.223 -0.1574 -0.1909  0.0056
 4002SOL     OW15773   0.476   1.614   3.749 -0.5706  0.0293  0.1531
 4002SOL    HW215774   0.455   1.698   3.789  0.8061  0.0449  0.9012
 4002SOL    HW315775   0.566   1.624   3.718 -0.8726 -0.7114 -1.0230
 4002SOL    MW415776   0.485   1.626   3.750 -0.4288 -0.0663  0.0966
 4003SOL     OW15777   1.845   5.671   1.417  0.3464  0.0926  0.1096
 4003SOL    HW215778   1.922   5.680   1.361 -0.1411  2.5205 -0.3211
 4003SOL    HW315779   1.862   5.730   1.491 -0.1383 -1.0829  1.1854
 4003SOL    MW415780   1.857   5.680   1.419  0.2182  0.2578  0.1947
 4004SOL     OW15781   4.758   2.502   4.375 -0.7196  0.2670 -0.4657
 4004SOL    HW215782   4.809   2.531   4.451 -0.1770 -1.6030 -0.0785
 4004SOL    HW315783   4.669   2.531   4.393 -0.8538 -1.2049  1.4955
 4004SOL    MW415784   4.753   2.510   4.387 -0.6657 -0.1739 -0.1558
 4005SOL     OW15785   3.545   1.897   5.429  0.6045 -0.2746  0.1038
 4005SOL    HW215786   3.579   1.904   5.340  2.6013  0.0652  0.8450
 4005SOL    HW315787   3.533   1.804   5.443 -0.3342 -0.2944 -0.7082
 4005SOL    MW415788   3.548   1.886   5.419  0.7441 -0.2324  0.0944
 4006SOL     OW15789   0.074   4.569   2.642 -0.7814  0.2144 -0.2214
 4006SOL    HW215790   0.132   4.493   2.652 -0.8688  0.3653  1.9261
 4006SOL    HW315791  -0.012   4.531   2.623 -1.4150 -0.5182  3.4016
 4006SOL    MW415792   0.070   4.554   2.641 -0.8765  0.1377  0.5400
 4007SOL     OW15793   6.280   4.425   2.525 -0.2652  0.0474 -0.1121
 4007SOL    HW215794   6.313   4.429   2.435  1.8759  0.9045  0.6477
 4007SOL    HW315795   6.251   4.334   2.535  0.6643 -0.4157 -1.2873
 4007SOL    MW415796   6.281   4.413   2.514  0.1399  0.0994 -0.1669
 4008SOL     OW15797   1.479   4.782   0.493 -0.1475  0.2673  0.2718
 4008SOL    HW215798   1.514   4.858   0.539  0.3989 -0.0010  0.3110
 4008SOL    HW315799   1.386   4.778   0.518  0.3210 -0.3566  2.0374
 4008SOL    MW415800   1.471   4.791   0.502 -0.0136  0.1496  0.5099
 4009SOL     OW15801   3.414   4.092   3.619 -0.1008  0.3336 -0.1390
 4009SOL    HW215802   3.381   4.141   3.695  0.1466 -0.8676  0.7752
 4009SOL    HW315803   3.335   4.062   3.574 -0.2829 -0.5044  0.6993
 4009SOL    MW415804   3.399   4.094   3.623 -0.0922  0.0646  0.0922
 4010SOL     OW15805   0.397   0.158   0.690 -0.7956  0.1782  0.2690
 4010SOL    HW215806   0.490   0.175   0.674 -0.8973  0.5933  0.0977
 4010SOL    HW315807   0.386   0.064   0.675 -0.3299  0.0563  0.6541
 4010SOL    MW415808   0.408   0.148   0.686 -0.7476  0.2169  0.2972
 4011SOL     OW15809   2.328   4.686   2.239  0.1028 -0.9748  0.3754
 4011SOL    HW215810   2.420   4.672   2.217  0.6306  0.6252  1.4219
 4011SOL    HW315811   2.313   4.631   2.315  0.1057 -1.4466  0.0400
 4011SOL    MW415812   2.338   4.677   2.246  0.1728 -0.8259  0.4692
 4012SOL     OW15813   1.764   5.021   5.183  0.1285  0.1694 -0.2199
 4012SOL    HW215814   1.706   4.952   5.152 -0.9439  1.2082 -0.5973
 4012SOL    HW315815   1.705   5.095   5.202  1.2604  1.0413 -0.0053
 4012SOL    MW415816   1.748   5.022   5.182  0.1364  0.4215 -0.2414
 4013SOL     OW15817   4.944   3.935   3.493 -0.0534 -0.9156  0.2165
 4013SOL    HW215818   4.940   3.946   3.398 -2.2666 -0.0784  0.3639
 4013SOL    HW315819   5.006   4.003   3.522 -1.1960  0.4456 -0.4281
 4013SOL    MW415820   4.952   3.945   3.485 -0.4962 -0.6256  0.1509
 4014SOL     OW15821   5.631   4.774   6.206 -0.3950 -0.2877 -0.5784
 4014SOL    HW215822   5.630   4.813   6.119  0.1349  0.1714 -0.3851
 4014SOL    HW315823   5.586   4.837   6.262 -1.3093 -0.8758 -0.6263
 4014SOL    MW415824   5.625   4.787   6.202 -0.4457 -0.3047 -0.5592
 4015SOL     OW15825   6.162   2.122   2.538  0.1411 -0.6188  0.2774
 4015SOL    HW215826   6.123   2.155   2.618 -0.8403  1.3877 -0.9524
 4015SOL    HW315827   6.248   2.164   2.533  0.9949 -2.1721  1.1389
 4015SOL    MW415828   6.168   2.132   2.548  0.1242 -0.5590  0.2288
 4016SOL     OW15829   3.478   3.390   5.877  0.1325  0.3756 -0.0053
 4016SOL    HW215830   3.493   3.381   5.783  0.3376  1.0308 -0.0407
 4016SOL    HW315831   3.446   3.480   5.887  2.9083  1.3708  0.8733
 4016SOL    MW415832   3.475   3.401   5.866  0.5258  0.5933  0.1059
 4017SOL     OW15833   0.397   5.944   6.137  0.6518 -0.2328 -0.2736
 4017SOL    HW215834   0.340   5.870   6.158  2.2638 -0.9983  1.7079
 4017SOL    HW315835   0.336   6.015   6.116 -1.0947 -0.9677  1.8514
 4017SOL    MW415836   0.381   5.944   6.137  0.6341 -0.4308  0.2682
 4018SOL     OW15837   2.507   3.360   6.297 -0.1159 -0.1619 -0.2980
 4018SOL    HW215838   2.599   3.363   6.269 -0.1379 -1.4204 -0.5509
 4018SOL    HW315839   2.457   3.357   6.216 -0.4508  1.4325 -0.1829
 4018SOL    MW415840   2.513   3.360   6.283 -0.1630 -0.1176 -0.3162
 4019SOL     OW15841   1.756   2.033   5.428  0.0399 -0.0838 -0.2288
 4019SOL    HW215842   1.830   2.077   5.469 -1.2136  0.4979  1.5267
 4019SOL    HW315843   1.708   1.993   5.501  0.2409 -3.0456 -1.5963
 4019SOL    MW415844   1.759   2.034   5.443 -0.0990 -0.3978 -0.1776
 4020SOL     OW15845   3.721   0.624   5.555 -0.4984 -0.1561 -0.2534
 4020SOL    HW215846   3.785   0.686   5.518  0.0334 -0.6620 -0.1987
 4020SOL    HW315847   3.759   0.600   5.639 -1.4813  0.6522  0.4543
 4020SOL    MW415848   3.735   0.629   5.561 -0.5579 -0.1162 -0.1528
 4021SOL     OW15849   2.661   5.372   2.662 -0.0819 -0.2600 -0.1385
 4021SOL    HW215850   2.586   5.364   2.721  0.3793 -1.1357  0.3503
 4021SOL    HW315851   2.668   5.466   2.644 -0.9320 -0.1103  0.2812
 4021SOL    MW415852   2.652   5.383   2.667 -0.1332 -0.3558 -0.0186
 4022SOL     OW15853   1.011   4.176   5.198  0.1947  0.4203 -0.0221
 4022SOL    HW215854   1.000   4.126   5.279  0.5988  0.0645 -0.1803
 4022SOL    HW315855   1.049   4.259   5.225  0.0551  0.4184  0.1823
 4022SOL    MW415856   1.014   4.180   5.212  0.2296  0.3731 -0.0160
 4023SOL     OW15857   4.057   0.054   1.337 -0.0129  0.7167 -0.2122
 4023SOL    HW215858   4.137   0.105   1.352  0.6470 -0.2661 -0.2950
 4023SOL    HW315859   4.050   0.048   1.242  0.6094 -0.3868 -0.2025
 4023SOL    MW415860   4.066   0.060   1.326  0.1563  0.4414 -0.2218
 4024SOL     OW15861   4.679   2.823   0.763  0.1654 -1.0347 -0.3967
 4024SOL    HW215862   4.723   2.742   0.788 -0.3952 -1.2902 -0.2379
 4024SOL    HW315863   4.592   2.817   0.802  0.1111 -0.3683 -0.4034
 4024SOL    MW415864   4.674   2.812   0.771  0.0843 -0.9805 -0.3766
 4025SOL     OW15865   4.845   1.546   0.781  0.1573  0.2134  0.1051
 4025SOL    HW215866   4.772   1.608   0.783 -0.3496 -0.4036  0.6743
 4025SOL    HW315867   4.877   1.543   0.871  1.6684  1.3736 -0.3294
 4025SOL    MW415868   4.840   1.554   0.793  0.2898  0.2851  0.1229
 4026SOL     OW15869   0.246   4.460   1.576 -0.0352  0.2616 -0.4692
 4026SOL    HW215870   0.221   4.516   1.649  0.5470  0.9856 -0.8133
 4026SOL    HW315871   0.284   4.382   1.617  0.1456  0.5925  0.0009
 4026SOL    MW415872   0.247   4.457   1.591  0.0654  0.4008 -0.4526
 4027SOL     OW15873   1.480   1.916   1.505  0.1504  0.1656  0.2389
 4027SOL    HW215874   1.463   1.981   1.573 -1.4922 -1.2706  1.2754
 4027SOL    HW315875   1.575   1.901   1.509  0.4451  1.8623  0.5082
 4027SOL    MW415876   1.491   1.923   1.514 -0.0274  0.2000  0.4112
 4028SOL     OW15877   2.396   2.041   0.232 -0.6068 -0.1860  0.1756
 4028SOL    HW215878   2.481   2.070   0.266 -1.2465 -0.8435  2.5408
 4028SOL    HW315879   2.402   2.054   0.137  1.5099  1.3495  0.4434
 4028SOL    MW415880   2.408   2.047   0.224 -0.4119 -0.0702  0.5230
 4029SOL     OW15881   2.312   0.108   5.391  0.1713 -0.1784  0.0646
 4029SOL    HW215882   2.282   0.190   5.429 -1.3877  0.7428 -2.8508
 4029SOL    HW315883   2.252   0.042   5.424  2.1666 -0.5308  3.4122
 4029SOL    MW415884   2.300   0.110   5.400  0.2288 -0.1033  0.1216
 4030SOL     OW15885   5.038   1.479   5.682  0.2737 -0.1018  0.3730
 4030SOL    HW215886   5.056   1.386   5.697  1.7982  0.2072  0.6074
 4030SOL    HW315887   4.959   1.497   5.733 -1.4444 -1.7723 -1.5107
 4030SOL    MW415888   5.030   1.469   5.691  0.2481 -0.2815  0.1554
 4031SOL     OW15889   0.908   5.683   5.465 -0.2470 -0.1510 -0.2717
 4031SOL    HW215890   0.858   5.654   5.389 -0.5868  1.2578 -0.6245
 4031SOL    HW315891   0.891   5.617   5.533  1.8304 -2.6808 -2.0052
 4031SOL    MW415892   0.899   5.671   5.464 -0.0177 -0.2989 -0.5469
 4032SOL     OW15893   5.143   0.665   4.106 -0.5541 -0.6886  0.0588
 4032SOL    HW215894   5.145   0.754   4.069 -1.0968 -0.3239  0.8633
 4032SOL    HW315895   5.233   0.651   4.136  0.2867 -1.5517 -2.5688
 4032SOL    MW415896   5.155   0.675   4.105 -0.5148 -0.7544 -0.1818
 4033SOL     OW15897   2.151   2.455   0.882 -0.1914  0.4669 -0.3347
 4033SOL    HW215898   2.075   2.509   0.905 -0.5559 -0.0822 -0.2367
 4033SOL    HW315899   2.116   2.388   0.824 -0.1039 -0.7585  0.9626
 4033SOL    MW415900   2.137   2.453   0.878 -0.2279  0.2328 -0.1506
 4034SOL     OW15901   0.736   4.358   2.104 -0.5087  0.0728 -0.5862
 4034SOL    HW215902   0.706   4.425   2.166 -1.4893 -1.7583  1.0141
 4034SOL    HW315903   0.721   4.275   2.149  0.0075 -1.2924 -2.7840
 4034SOL    MW415904   0.730   4.356   2.118 -0.5700 -0.3489 -0.6650
 4035SOL     OW15905   3.424   1.621   4.483 -0.3744  0.1742  0.0669
 4035SOL    HW215906   3.486   1.562   4.441  0.1571 -0.0923  1.1767
 4035SOL    HW315907   3.344   1.569   4.493  0.2853 -0.5990  1.5973
 4035SOL    MW415908   3.421   1.606   4.479 -0.2172  0.0370  0.4153
 4036SOL     OW15909   3.916   2.202   1.455  0.0187  0.5325 -0.0777
 4036SOL    HW215910   3.895   2.213   1.547 -0.8438 -1.3312  0.0004
 4036SOL    HW315911   3.934   2.108   1.445 -1.9035  0.2884 -2.1416
 4036SOL    MW415912   3.916   2.191   1.466 -0.3487  0.2544 -0.3397
 4037SOL     OW15913   6.029   2.645   1.650  0.0235  0.7189  0.7845
 4037SOL    HW215914   6.042   2.729   1.694 -1.1775  0.9780  0.6908
 4037SOL    HW315915   6.089   2.646   1.576  0.7105  1.0810  1.3334
 4037SOL    MW415916   6.038   2.656   1.646 -0.0443  0.8008  0.8446
 4038SOL     OW15917   1.659   6.183   5.797 -0.2401  0.7765  0.0488
 4038SOL    HW215918   1.737   6.202   5.745 -0.4210  2.2721  0.2848
 4038SOL    HW315919   1.586   6.197   5.736 -0.3390 -1.4515 -0.4215
 4038SOL    MW415920   1.660   6.187   5.782 -0.2770  0.6798  0.0179
 4039SOL     OW15921   0.276   2.659   5.943  0.3699 -0.0602 -0.3604
 4039SOL    HW215922   0.328   2.733   5.974  0.2680  0.4476 -1.3781
 4039SOL    HW315923   0.230   2.692   5.866 -0.6928 -0.7917 -0.0663
 4039SOL    MW415924   0.276   2.673   5.937  0.2163 -0.0897 -0.4559
 4040SOL     OW15925   5.236   5.268   1.232  0.4972  0.1604  1.0421
 4040SOL    HW215926   5.301   5.220   1.282  1.0428  0.5842  0.7563
 4040SOL    HW315927   5.220   5.347   1.284  0.1950  0.0496  1.1201
 4040SOL    MW415928   5.242   5.272   1.245  0.5293  0.2017  1.0147
 4041SOL     OW15929   5.646   4.960   1.536  0.3879  0.0493  0.4500
 4041SOL    HW215930   5.711   4.941   1.603  0.4763  1.6769  0.8723
 4041SOL    HW315931   5.697   4.991   1.461  0.1840 -0.1288  0.2342
 4041SOL    MW415932   5.661   4.961   1.535  0.3727  0.2406  0.4772
 4042SOL     OW15933   1.826   0.997   3.861 -0.3841  0.2916 -0.2504
 4042SOL    HW215934   1.767   0.935   3.902 -0.7897  0.1758 -0.9987
 4042SOL    HW315935   1.879   0.945   3.800  1.0877  0.2455  1.0079
 4042SOL    MW415936   1.825   0.982   3.858 -0.2435  0.2703 -0.1831
 4043SOL     OW15937   5.707   5.921   4.496  0.5182 -0.1737 -0.0536
 4043SOL    HW215938   5.747   5.974   4.427 -0.1684  0.1305 -0.2249
 4043SOL    HW315939   5.770   5.923   4.568  0.3464  1.1708  0.0770
 4043SOL    MW415940   5.721   5.928   4.497  0.4050  0.0438 -0.0590
 4044SOL     OW15941   5.818   4.837   1.710 -0.1453  0.1430  0.0386
 4044SOL    HW215942   5.864   4.758   1.681  2.3733  1.9787 -1.2680
 4044SOL    HW315943   5.818   4.831   1.806 -0.9256 -1.8590 -0.0294
 4044SOL    MW415944   5.824   4.825   1.719  0.0840  0.1210 -0.1428
 4045SOL     OW15945   4.835   0.436   2.029  0.0705 -0.3765  0.7694
 4045SOL    HW215946   4.859   0.492   1.955 -2.4124 -2.0333 -1.4644
 4045SOL    HW315947   4.823   0.497   2.102 -0.3298  1.7287 -0.9428
 4045SOL    MW415948   4.837   0.451   2.029 -0.3099 -0.3173  0.2487
 4046SOL     OW15949   1.557   3.994   1.316  0.3433 -0.3240 -0.0548
 4046SOL    HW215950   1.585   3.980   1.407  0.9507 -4.8794 -0.7215
 4046SOL    HW315951   1.475   4.043   1.324  1.3263  1.1182  2.7635
 4046SOL    MW415952   1.550   3.999   1.329  0.5531 -0.7348  0.2291
 4047SOL     OW15953   4.303   0.359   5.431  0.0276 -0.3522  0.2717
 4047SOL    HW215954   4.338   0.434   5.382  1.6656  0.1448  2.0665
 4047SOL    HW315955   4.376   0.297   5.435  0.2122 -0.0657  2.6031
 4047SOL    MW415956   4.317   0.361   5.425  0.2681 -0.2488  0.8161
 4048SOL     OW15957   3.721   2.039   3.330 -0.3622  0.1204 -0.2422
 4048SOL    HW215958   3.762   2.124   3.319 -0.3276  0.1310 -0.0307
 4048SOL    HW315959   3.773   1.980   3.275  0.2575  0.0299  0.4260
 4048SOL    MW415960   3.733   2.042   3.321 -0.2759  0.1098 -0.1262
 4049SOL     OW15961   4.278   0.639   3.528  0.4052 -0.4425  0.1866
 4049SOL    HW215962   4.280   0.734   3.542  2.2893 -0.1452 -1.6563
 4049SOL    HW315963   4.258   0.628   3.435 -0.1916 -1.8819  0.4602
 4049SOL    MW415964   4.276   0.651   3.518  0.5750 -0.5932 -0.0204
 4050SOL     OW15965   1.488   6.415   2.570 -0.4674 -0.1580 -0.4190
 4050SOL    HW215966   1.543   6.352   2.616  0.0680  0.6209  0.0342
 4050SOL    HW315967   1.489   6.494   2.625 -1.0333  0.2880 -1.0180
 4050SOL    MW415968   1.495   6.417   2.583 -0.4714  0.0036 -0.4382
 4051SOL     OW15969   0.999   1.047   1.121 -0.5236 -0.0123  0.4239
 4051SOL    HW215970   1.052   1.127   1.118 -0.5738  0.0523  1.0912
 4051SOL    HW315971   1.042   0.987   1.060 -1.3502  1.0328 -1.2574
 4051SOL    MW415972   1.012   1.050   1.113 -0.6393  0.1341  0.2901
 4052SOL     OW15973   0.475   6.425   4.576 -0.3201  0.1719  0.1591
 4052SOL    HW215974   0.566   6.441   4.551 -0.5792 -1.2127 -1.8426
 4052SOL    HW315975   0.432   6.511   4.567  0.7710  0.8921  1.3482
 4052SOL    MW415976   0.481   6.439   4.572 -0.2103  0.0842  0.0519
 4053SOL     OW15977   0.725   2.150   3.645 -0.5409  0.2624 -0.0915
 4053SOL    HW215978   0.676   2.227   3.617  0.5726  0.8904 -0.3567
 4053SOL    HW315979   0.675   2.115   3.719 -0.2562  2.1330  1.0298
 4053SOL    MW415980   0.712   2.155   3.651 -0.3565  0.5921  0.0214
 4054SOL     OW15981   5.819   0.075   4.939  0.4074 -1.3019  0.3710
 4054SOL    HW215982   5.781  -0.012   4.927  1.0588 -1.7174  1.2322
 4054SOL    HW315983   5.769   0.113   5.011  0.4598 -1.1532  0.3295
 4054SOL    MW415984   5.807   0.068   4.947  0.5003 -1.3371  0.4792
 4055SOL     OW15985   5.543   3.050   5.045  0.3889  0.1468 -0.0640
 4055SOL    HW215986   5.572   3.140   5.033  0.1673  0.3406  0.8213
 4055SOL    HW315987   5.448   3.057   5.057  0.7140  0.1461  3.2424
 4055SOL    MW415988   5.534   3.063   5.045  0.4026  0.1722  0.4890
 4056SOL     OW15989   2.024   5.949   2.508  0.3576 -0.0857  0.0864
 4056SOL    HW215990   2.076   5.996   2.443  0.5674 -0.1081  0.2393
 4056SOL    HW315991   2.081   5.940   2.583 -1.4400  4.7276  2.4634
 4056SOL    MW415992   2.038   5.954   2.509  0.1481  0.5464  0.4202
 4057SOL     OW15993   0.205   5.753   4.429 -0.9745 -0.0816  0.1446
 4057SOL    HW215994   0.124   5.788   4.392 -1.3943 -0.4882  0.6599
 4057SOL    HW315995   0.211   5.793   4.515 -0.1641  0.6212 -0.2266
 4057SOL    MW415996   0.195   5.763   4.435 -0.9230 -0.0425  0.1636
 4058SOL     OW15997   0.065   1.939   0.504 -0.3580  0.0281 -0.2018
 4058SOL    HW215998  -0.004   1.954   0.568 -0.8121  0.5583 -0.8064
 4058SOL    HW315999   0.038   1.989   0.427 -0.4235 -1.5146 -1.2266
 4058SOL    MW416000   0.052   1.947   0.502 -0.4266 -0.1055 -0.4168
 4059SOL     OW16001   3.945   3.909   4.204 -0.5979  0.4869 -0.1958
 4059SOL    HW216002   4.007   3.873   4.268 -1.7837 -0.5553  0.4247
 4059SOL    HW316003   3.999   3.960   4.144  0.6936  0.6225  1.0243
 4059SOL    MW416004   3.960   3.911   4.204 -0.5839  0.3673  0.0471
 4060SOL     OW16005   1.094   2.120   0.094  0.2500  0.1040 -0.4862
 4060SOL    HW216006   1.071   2.027   0.084  0.4503 -0.0134  0.1065
 4060SOL    HW316007   1.189   2.121   0.100  0.4839  0.6164 -3.1920
 4060SOL    MW416008   1.103   2.108   0.093  0.3073  0.1561 -0.7650
 4061SOL     OW16009   2.809   4.033   4.139  0.0782  0.5715 -0.1739
 4061SOL    HW216010   2.805   4.096   4.067 -1.1945  2.5183  1.4745
 4061SOL    HW316011   2.743   3.968   4.117 -0.6026  1.3821 -0.5960
 4061SOL    MW416012   2.800   4.033   4.127 -0.1795  0.9353 -0.0121
 4062SOL     OW16013   2.854   6.259   4.653 -0.5507  0.0281 -0.1652
 4062SOL    HW216014   2.922   6.243   4.588  0.7023  1.6907  0.6641
 4062SOL    HW316015   2.803   6.332   4.618 -1.6275 -0.8789 -0.5450
 4062SOL    MW416016   2.856   6.267   4.640 -0.5275  0.1278 -0.1059
 4063SOL     OW16017   1.690   1.824   3.371 -0.7595  0.4290 -0.2295
 4063SOL    HW216018   1.709   1.795   3.282 -0.3410 -2.0151  0.5939
 4063SOL    HW316019   1.774   1.859   3.403 -1.1386  2.2197 -1.0459
 4063SOL    MW416020   1.704   1.825   3.363 -0.7543  0.3428 -0.2286
 4064SOL     OW16021   4.848   0.313   3.131  0.2038  0.0940  0.1540
 4064SOL    HW216022   4.927   0.277   3.172 -1.0998 -0.9712  1.8697
 4064SOL    HW316023   4.836   0.398   3.173 -0.2640 -0.3218  0.8926
 4064SOL    MW416024   4.857   0.320   3.142 -0.0299 -0.1014  0.4778
 4065SOL     OW16025   3.259   3.468   4.595 -0.2203 -0.4049  0.4637
 4065SOL    HW216026   3.230   3.497   4.682  1.6239  1.8778  0.3950
 4065SOL    HW316027   3.336   3.521   4.576 -1.0518 -0.2214 -2.9710
 4065SOL    MW416028   3.265   3.478   4.604 -0.0867 -0.0795  0.0015
 4066SOL     OW16029   4.479   3.768   2.792 -0.2482  0.2216 -0.5212
 4066SOL    HW216030   4.551   3.740   2.848 -0.4542  0.2364 -0.2480
 4066SOL    HW316031   4.469   3.697   2.728 -0.2801  0.0209 -0.2903
 4066SOL    MW416032   4.487   3.755   2.791 -0.2796  0.1971 -0.4547
 4067SOL     OW16033   1.984   1.403   5.487 -0.4072 -0.3107 -0.1086
 4067SOL    HW216034   2.008   1.475   5.545 -2.4455  0.4235 -0.0944
 4067SOL    HW316035   2.053   1.338   5.499  1.7607  1.7803 -0.4318
 4067SOL    MW416036   1.996   1.404   5.496 -0.3901  0.0620 -0.1494
 4068SOL     OW16037   3.493   1.167   1.891 -0.1339 -0.2501 -0.4058
 4068SOL    HW216038   3.487   1.203   1.979  0.0942 -1.1610 -0.0074
 4068SOL    HW316039   3.587   1.152   1.878 -0.1054  0.3680 -1.0189
 4068SOL    MW416040   3.505   1.170   1.901 -0.1001 -0.2887 -0.4342
 4069SOL     OW16041   5.134   3.758   4.020 -0.3369 -0.2389 -0.0165
 4069SOL    HW216042   5.059   3.807   3.986 -0.0202  0.5758  0.4461
 4069SOL    HW316043   5.174   3.816   4.084  0.2105 -0.9982  0.3469
 4069SOL    MW416044   5.129   3.772   4.024 -0.2229 -0.2316  0.0925
 4070SOL     OW16045   0.668   3.246   3.315  0.5300  0.5177 -0.4383
 4070SOL    HW216046   0.633   3.235   3.403 -0.1076 -0.9588 -0.8507
 4070SOL    HW316047   0.706   3.334   3.315 -1.2105  1.3036  0.6876
 4070SOL    MW416048   0.669   3.256   3.327  0.2163  0.4266 -0.3441
 4071SOL     OW16049   5.724   0.428   5.812 -0.1301  0.3538  0.2014
 4071SOL    HW216050   5.805   0.440   5.861 -0.7530  0.0950  1.3121
 4071SOL    HW316051   5.663   0.388   5.874 -0.6594 -0.8478 -1.0380
 4071SOL    MW416052   5.727   0.425   5.826 -0.2821  0.1611  0.1844
 4072SOL     OW16053   2.633   2.551   0.916 -0.2185  0.0124 -0.2530
 4072SOL    HW216054   2.545   2.556   0.953 -0.1167 -3.8120  0.9712
 4072SOL    HW316055   2.690   2.586   0.985 -0.6287  1.1063 -0.4503
 4072SOL    MW416056   2.629   2.556   0.930 -0.2592 -0.3479 -0.1175
 4073SOL     OW16057   4.553   3.080   3.360 -0.0518  0.0137  0.7915
 4073SOL    HW216058   4.531   3.056   3.450 -1.8128 -0.3899  0.2858
 4073SOL    HW316059   4.494   3.153   3.340  0.0459 -0.1663 -0.1680
 4073SOL    MW416060   4.543   3.086   3.369 -0.2712 -0.0633  0.5982
 4074SOL     OW16061   0.948   0.292   2.085  0.2019  0.8048 -0.2297
 4074SOL    HW216062   0.936   0.198   2.101  2.3246  0.4394 -0.4185
 4074SOL    HW316063   0.859   0.327   2.077 -0.6492 -1.0989  0.3024
 4074SOL    MW416064   0.935   0.284   2.086  0.3696  0.5054 -0.1844
 4075SOL     OW16065   2.978   5.422   3.021 -0.1342 -0.8222 -0.0933
 4075SOL    HW216066   2.970   5.348   2.960 -1.2766 -0.1174 -0.8416
 4075SOL    HW316067   2.923   5.490   2.983  2.3602  1.1529 -0.4827
 4075SOL    MW416068   2.970   5.421   3.008  0.0442 -0.4686 -0.2434
 4076SOL     OW16069   2.539   5.850   4.724 -0.4888  0.4114 -0.0455
 4076SOL    HW216070   2.538   5.899   4.806 -0.0158  0.6946 -0.2089
 4076SOL    HW316071   2.446   5.830   4.707 -0.6403  0.8484  0.2586
 4076SOL    MW416072   2.526   5.853   4.732 -0.4464  0.5064 -0.0270
 4077SOL     OW16073   5.074   6.107   1.046 -0.3730  0.4283  0.2917
 4077SOL    HW216074   5.025   6.115   1.128 -0.9850 -0.1817 -0.0122
 4077SOL    HW316075   5.135   6.035   1.061  0.0112  0.7814  0.4522
 4077SOL    MW416076   5.076   6.099   1.059 -0.4031  0.3944  0.2728
 4078SOL     OW16077   1.110   0.761   1.382 -0.6237 -0.3544  0.2780
 4078SOL    HW216078   1.101   0.848   1.420  0.2298  0.1865 -0.7325
 4078SOL    HW316079   1.137   0.706   1.456  1.1961  0.7183  0.4676
 4078SOL    MW416080   1.113   0.765   1.397 -0.2710 -0.1415  0.1697
 4079SOL     OW16081   1.315   6.210   3.367  0.1725  0.6665 -0.3449
 4079SOL    HW216082   1.286   6.160   3.291  0.7797 -1.3647  0.6937
 4079SOL    HW316083   1.253   6.188   3.436  0.3923  1.4653  0.1288
 4079SOL    MW416084   1.303   6.201   3.366  0.2816  0.5039 -0.1454
 4080SOL     OW16085   3.804   1.402   2.474  0.0086 -0.5920  0.1631
 4080SOL    HW216086   3.790   1.485   2.428 -1.8781 -0.8843  0.1374
 4080SOL    HW316087   3.717   1.378   2.507  0.3920 -2.8323 -0.2992
 4080SOL    MW416088   3.790   1.410   2.472 -0.1897 -0.9262  0.0987
 4081SOL     OW16089   0.729   0.818   6.022 -0.2726  0.1172 -0.0574
 4081SOL    HW216090   0.822   0.840   6.012 -0.6841  1.3948 -1.3749
 4081SOL    HW316091   0.684   0.877   5.962 -1.8478 -1.3513 -0.3677
 4081SOL    MW416092   0.735   0.829   6.013 -0.5347  0.0920 -0.2721
 4082SOL     OW16093   0.906   1.904   0.626 -0.3967 -0.0172 -0.2768
 4082SOL    HW216094   0.987   1.884   0.673  0.3429 -2.7201 -2.4326
 4082SOL    HW316095   0.857   1.821   0.627 -0.9853  0.2176 -2.9247
 4082SOL    MW416096   0.910   1.890   0.633 -0.3768 -0.3428 -0.9106
 4083SOL     OW16097   4.690   2.353   3.652 -0.2994 -0.2298  0.3449
 4083SOL    HW216098   4.673   2.338   3.559  2.1152 -1.8773  0.0707
 4083SOL    HW316099   4.618   2.309   3.697 -1.5503  0.6698 -0.7040
 4083SOL    MW416100   4.679   2.345   3.646 -0.1459 -0.3284  0.1703
 4084SOL     OW16101   2.172   1.869   5.616 -0.0258 -0.3275 -0.0547
 4084SOL    HW216102   2.243   1.873   5.680 -0.7266 -0.6119  0.7734
 4084SOL    HW316103   2.206   1.913   5.538 -0.3294  3.2962  1.6455
 4084SOL    MW416104   2.186   1.875   5.614 -0.1583  0.1131  0.2789
 4085SOL     OW16105   2.668   1.968   0.800  0.5997 -0.1637 -0.6499
 4085SOL    HW216106   2.594   2.016   0.764 -0.6149 -1.3849  0.1057
 4085SOL    HW316107   2.710   2.029   0.860 -1.2341 -0.1492  0.7106
 4085SOL    MW416108   2.664   1.982   0.803  0.1975 -0.3229 -0.3707
 4086SOL     OW16109   4.069   5.174   3.247 -0.2277  0.0231 -0.1719
 4086SOL    HW216110   3.991   5.127   3.217  0.1428 -0.0625 -1.0172
 4086SOL    HW316111   4.073   5.252   3.192 -0.2986  0.5603  0.5779
 4086SOL    MW416112   4.059   5.178   3.236 -0.1882  0.0827 -0.1845
 4087SOL     OW16113   1.639   1.496   6.295 -0.1486 -0.0158 -0.4988
 4087SOL    HW216114   1.678   1.574   6.335  0.2912 -0.8654  0.7805
 4087SOL    HW316115   1.712   1.438   6.278 -0.6624 -0.9895  0.4892
 4087SOL    MW416116   1.654   1.499   6.298 -0.1584 -0.2564 -0.1997
 4088SOL     OW16117   0.980   4.520   0.117 -0.0447 -0.1998  0.1547
 4088SOL    HW216118   0.941   4.573   0.048 -1.6639 -1.2895  0.1946
 4088SOL    HW316119   1.020   4.584   0.176 -0.7790  0.8957 -0.4940
 4088SOL    MW416120   0.980   4.535   0.116 -0.3552 -0.1990  0.0744
 4089SOL     OW16121   5.270   3.811   5.287 -0.0268 -0.3328  0.4698
 4089SOL    HW216122   5.305   3.805   5.376  0.4765 -0.5792  0.2611
 4089SOL    HW316123   5.298   3.898   5.257  0.2416 -0.4487  0.3767
 4089SOL    MW416124   5.279   3.822   5.295  0.0750 -0.3806  0.4299
 4090SOL     OW16125   2.838   0.398   2.994 -0.2319 -0.5143  0.0174
 4090SOL    HW216126   2.895   0.321   2.995  1.3652  0.6210  0.9883
 4090SOL    HW316127   2.803   0.405   3.083 -0.8587 -0.4488 -0.2248
 4090SOL    MW416128   2.841   0.389   3.006 -0.1039 -0.3558  0.1135
 4091SOL     OW16129   0.816   1.428   6.224 -0.5844  0.2308 -0.8364
 4091SOL    HW216130   0.803   1.405   6.316  1.0713 -0.2858 -0.6934
 4091SOL    HW316131   0.799   1.522   6.220 -0.7559  0.2435 -0.0068
 4091SOL    MW416132   0.812   1.437   6.235 -0.3886  0.1643 -0.7081
 4092SOL     OW16133   1.296   0.156   2.756  0.2001 -0.6958  0.2590
 4092SOL    HW216134   1.331   0.105   2.829  0.2792 -1.0922 -0.0575
 4092SOL    HW316135   1.365   0.221   2.737  0.2451 -0.6924  0.4353
 4092SOL    MW416136   1.310   0.158   2.763  0.2164 -0.7476  0.2405
 4093SOL     OW16137   1.767   0.239   2.531 -0.4548 -0.1339  0.3968
 4093SOL    HW216138   1.861   0.236   2.512 -0.4562  0.3202  0.3202
 4093SOL    HW316139   1.726   0.202   2.453 -0.3639  0.0558  0.2606
 4093SOL    MW416140   1.774   0.233   2.518 -0.4430 -0.0490  0.3687
 4094SOL     OW16141   4.430   3.246   1.772  0.2974  0.0399  0.1245
 4094SOL    HW216142   4.362   3.191   1.733 -0.1486  1.3639 -1.0199
 4094SOL    HW316143   4.491   3.263   1.700  0.6425  0.7077  0.5719
 4094SOL    MW416144   4.429   3.241   1.757  0.2841  0.3027  0.0326
 4095SOL     OW16145   4.773   1.097   2.702  0.1866  0.4044  0.3479
 4095SOL    HW216146   4.802   1.014   2.663 -0.9958  1.2107 -2.4658
 4095SOL    HW316147   4.678   1.090   2.707  0.1779  1.0660  1.4526
 4095SOL    MW416148   4.764   1.085   2.698  0.0295  0.5981  0.1224
 4096SOL     OW16149   3.360   3.262   2.117  0.2169 -0.0021 -0.1588
 4096SOL    HW216150   3.317   3.288   2.198  0.4567 -0.0489 -0.0191
 4096SOL    HW316151   3.301   3.195   2.080  0.5547 -0.6370  0.4250
 4096SOL    MW416152   3.346   3.256   2.123  0.2931 -0.0920 -0.0633
 4097SOL     OW16153   5.239   3.564   2.559 -0.5447 -0.0439 -0.5250
 4097SOL    HW216154   5.221   3.529   2.472  0.1963 -1.4458 -0.1341
 4097SOL    HW316155   5.324   3.529   2.583 -0.6895  0.3951  0.7395
 4097SOL    MW416156   5.248   3.555   2.551 -0.4661 -0.1710 -0.3066
 4098SOL     OW16157   2.093   2.859   4.746 -0.0833 -0.1030  0.5170
 4098SOL    HW216158   2.039   2.780   4.744 -0.4370  0.1285  0.7168
 4098SOL    HW316159   2.131   2.864   4.658 -0.6823 -0.0709  0.2560
 4098SOL    MW416160   2.091   2.849   4.734 -0.2090 -0.0682  0.5089
 4099SOL     OW16161   6.397   2.293   5.090 -0.2124  0.3798 -0.7533
 4099SOL    HW216162   6.347   2.370   5.119 -0.7295 -0.4980  0.8270
 4099SOL    HW316163   6.344   2.255   5.020 -0.4073  0.9414 -0.9187
 4099SOL    MW416164   6.383   2.298   5.085 -0.3063  0.3381 -0.5666
 4100SOL     OW16165   1.665   5.625   6.041 -0.0862 -0.6883 -0.3646
 4100SOL    HW216166   1.734   5.559   6.047  0.4163 -0.2215 -0.8977
 4100SOL    HW316167   1.630   5.615   5.952 -0.6814 -0.8861 -0.1186
 4100SOL    MW416168   1.669   5.615   6.030 -0.0984 -0.6528 -0.4025
 4101SOL     OW16169   3.624   5.336   4.751 -0.3457  0.9110  0.2397
 4101SOL    HW216170   3.671   5.376   4.677 -0.5405 -1.1170 -1.0619
 4101SOL    HW316171   3.690   5.283   4.795 -0.7523  0.3401  0.1633
 4101SOL    MW416172   3.639   5.335   4.747 -0.4251  0.5681  0.0579
 4102SOL     OW16173   0.015   1.194   4.316  0.1366 -0.0079 -0.3460
 4102SOL    HW216174  -0.043   1.144   4.258  0.7469 -0.1704 -0.8233
 4102SOL    HW316175   0.102   1.160   4.298  0.1627 -1.5683  2.1949
 4102SOL    MW416176   0.019   1.183   4.306  0.2205 -0.2352 -0.0737
 4103SOL     OW16177   0.889   3.273   6.257 -0.3520 -0.4868 -0.9130
 4103SOL    HW216178   0.899   3.361   6.294 -0.5287 -1.7825  2.6617
 4103SOL    HW316179   0.795   3.266   6.238 -0.0633  0.6369 -2.9389
 4103SOL    MW416180   0.878   3.284   6.260 -0.3372 -0.5095 -0.7086
 4104SOL     OW16181   0.319   1.169   5.852 -0.7018 -0.2649 -0.2589
 4104SOL    HW216182   0.277   1.242   5.808 -1.2705 -0.1130  0.5086
 4104SOL    HW316183   0.399   1.153   5.802 -1.5588 -0.4251 -1.6196
 4104SOL    MW416184   0.324   1.176   5.840 -0.8899 -0.2660 -0.3372
 4105SOL     OW16185   0.151   6.119   2.203 -0.3632  0.2406 -0.2060
 4105SOL    HW216186   0.164   6.035   2.248  0.3228  0.3936 -0.1164
 4105SOL    HW316187   0.068   6.108   2.157  0.2424 -0.8776 -1.0703
 4105SOL    MW416188   0.141   6.106   2.203 -0.1928  0.1133 -0.3082
 4106SOL     OW16189   5.095   1.358   0.210  0.4315 -0.3540 -0.7619
 4106SOL    HW216190   5.125   1.378   0.121  2.0910 -1.1954 -0.4180
 4106SOL    HW316191   5.164   1.389   0.267  1.0022 -2.8462  0.0278
 4106SOL    MW416192   5.108   1.365   0.205  0.7257 -0.7938 -0.6123
 4107SOL     OW16193   0.660   0.119   0.594  0.1498 -0.4242 -0.6029
 4107SOL    HW216194   0.754   0.132   0.611 -0.2844  4.2286 -0.3304
 4107SOL    HW316195   0.652   0.126   0.499  0.0608 -0.3718 -0.5920
 4107SOL    MW416196   0.672   0.122   0.584  0.0808  0.1966 -0.5655
 4108SOL     OW16197   5.918   1.018   1.375 -0.1232  0.0562 -0.0201
 4108SOL    HW216198   5.939   1.004   1.467  1.5746  1.0772 -0.2286
 4108SOL    HW316199   5.901   1.112   1.367 -0.9060 -0.1244 -0.6332
 4108SOL    MW416200   5.918   1.028   1.386 -0.0025  0.1670 -0.1285
 4109SOL     OW16201   1.666   4.499   5.892  0.5042  0.0322 -0.3222
 4109SOL    HW216202   1.632   4.562   5.828  0.7022  0.5532  0.0762
 4109SOL    HW316203   1.616   4.517   5.971  1.4997  0.6183  0.1924
 4109SOL    MW416204   1.655   4.510   5.894  0.6616  0.1782 -0.2017
 4110SOL     OW16205   3.871   0.162   5.315 -0.2944  0.8202 -0.2345
 4110SOL    HW216206   3.859   0.195   5.225  1.3580 -0.4182 -0.9606
 4110SOL    HW316207   3.901   0.072   5.304 -0.8840  0.3543  1.6115
 4110SOL    MW416208   3.873   0.155   5.301 -0.1542  0.5953 -0.0867
 4111SOL     OW16209   0.493   4.867   4.177  0.1688 -0.1398 -0.0471
 4111SOL    HW216210   0.503   4.791   4.120  0.5727  0.1884 -0.4174
 4111SOL    HW316211   0.490   4.942   4.118 -1.2902  0.0601  0.2390
 4111SOL    MW416212   0.494   4.867   4.162  0.0296 -0.0701 -0.0582
 4112SOL     OW16213   0.054   0.028   5.752  0.7770  0.0978  0.4382
 4112SOL    HW216214   0.033   0.113   5.789  0.3457 -0.2436  0.9808
 4112SOL    HW316215   0.119  -0.009   5.812  1.6336  0.4068 -0.2745
 4112SOL    MW416216   0.060   0.034   5.764  0.8331  0.0935  0.4157
 4113SOL     OW16217   5.801   1.125   6.380  0.0974  0.2952  0.3332
 4113SOL    HW216218   5.877   1.068   6.385 -1.2811 -1.8611 -1.2615
 4113SOL    HW316219   5.743   1.096   6.450 -0.5106 -0.1702 -0.3380
 4113SOL    MW416220   5.803   1.114   6.390 -0.1647 -0.0507  0.0342
 4114SOL     OW16221   2.147   2.816   0.236 -0.2680  0.1461 -0.1951
 4114SOL    HW216222   2.070   2.791   0.287 -0.5203 -1.4729 -1.2970
 4114SOL    HW316223   2.222   2.793   0.291 -0.5511  0.7560  0.4509
 4114SOL    MW416224   2.147   2.810   0.250 -0.3387  0.0130 -0.2553
 4115SOL     OW16225   5.688   4.020   4.198  0.1012 -0.7185 -0.0261
 4115SOL    HW216226   5.782   4.028   4.216  0.1363 -0.1592 -0.4389
 4115SOL    HW316227   5.662   4.106   4.165 -0.7212 -0.6298  0.8115
 4115SOL    MW416228   5.697   4.033   4.196 -0.0027 -0.6330  0.0299
 4116SOL     OW16229   0.422   2.561   4.473 -0.8050  0.1199 -0.0633
 4116SOL    HW216230   0.407   2.470   4.498 -0.1765 -0.0545 -0.3061
 4116SOL    HW316231   0.361   2.611   4.527 -0.7130 -0.3968  0.5318
 4116SOL    MW416232   0.412   2.556   4.484 -0.7099  0.0288 -0.0168
 4117SOL     OW16233   4.366   1.248   5.321  0.0010 -0.0579 -0.5891
 4117SOL    HW216234   4.369   1.228   5.414  0.3943  1.3850 -0.2726
 4117SOL    HW316235   4.346   1.164   5.279 -1.2181 -0.5236  0.8539
 4117SOL    MW416236   4.364   1.234   5.328 -0.1080  0.0711 -0.3570
 4118SOL     OW16237   5.132   6.370   5.684  0.2657  0.0992  0.1867
 4118SOL    HW216238   5.064   6.368   5.750  0.0287  2.1532  0.0566
 4118SOL    HW316239   5.090   6.337   5.605 -0.1623  0.0242  0.4454
 4118SOL    MW416240   5.118   6.365   5.682  0.1779  0.3603  0.2037
 4119SOL     OW16241   0.019   0.696   0.464 -1.0105  0.3503  0.1011
 4119SOL    HW216242  -0.023   0.622   0.509 -0.3343 -0.2534 -0.2516
 4119SOL    HW316243  -0.020   0.696   0.377 -0.3852 -0.1295 -0.1835
 4119SOL    MW416244   0.008   0.686   0.458 -0.8388  0.2073  0.0170
 4120SOL     OW16245   4.605   1.984   4.118  0.2359 -0.1545 -0.2183
 4120SOL    HW216246   4.645   1.928   4.184 -1.3830  1.0950  1.9405
 4120SOL    HW316247   4.660   2.062   4.116  0.0878 -0.0485 -0.1160
 4120SOL    MW416248   4.618   1.987   4.126  0.0028  0.0244  0.0800
 4121SOL     OW16249   3.419   6.016   1.872  0.2015  0.2952 -0.4854
 4121SOL    HW216250   3.390   5.952   1.937 -0.3395  1.8965  0.9076
 4121SOL    HW316251   3.342   6.072   1.859  1.2068  1.7445 -0.3182
 4121SOL    MW416252   3.405   6.015   1.879  0.2628  0.6977 -0.2796
 4122SOL     OW16253   6.123   0.068   4.823  0.3090  0.1330  0.3219
 4122SOL    HW216254   6.038   0.099   4.790 -0.8523 -2.8648  0.2291
 4122SOL    HW316255   6.187   0.120   4.774 -1.4285  1.9316 -0.2035
 4122SOL    MW416256   6.120   0.079   4.812 -0.0735 -0.0253  0.2403
 4123SOL     OW16257   3.363   0.812   4.576 -0.0379 -0.1303  0.1516
 4123SOL    HW216258   3.282   0.849   4.611  0.0162 -0.8973  1.1431
 4123SOL    HW316259   3.347   0.717   4.576  0.5875 -0.2385 -0.3517
 4123SOL    MW416260   3.350   0.804   4.580  0.0517 -0.2458  0.2160
 4124SOL     OW16261   5.142   5.822   3.734 -0.4449 -0.5155 -0.4168
 4124SOL    HW216262   5.127   5.889   3.667  0.1329  0.3167  0.2628
 4124SOL    HW316263   5.128   5.739   3.689  0.7699 -0.0093 -1.8224
 4124SOL    MW416264   5.138   5.820   3.719 -0.2084 -0.3389 -0.5126
 4125SOL     OW16265   4.799   3.283   0.548 -0.3432 -0.0314  0.2885
 4125SOL    HW216266   4.740   3.352   0.578 -0.5634 -0.2798  0.4341
 4125SOL    HW316267   4.860   3.270   0.620  1.4660  1.9228 -0.7568
 4125SOL    MW416268   4.799   3.290   0.561 -0.1336  0.1937  0.1698
 4126SOL     OW16269   6.152   0.309   2.187  0.1735  0.1639 -0.0519
 4126SOL    HW216270   6.131   0.238   2.127 -0.9140 -0.1554  0.6862
 4126SOL    HW316271   6.205   0.268   2.255 -0.0937  0.1442  0.1461
 4126SOL    MW416272   6.156   0.294   2.188 -0.0052  0.1192  0.0716
 4127SOL     OW16273   4.816   3.730   3.210  1.0022  0.2566 -0.8455
 4127SOL    HW216274   4.866   3.812   3.204  0.7032  0.4240 -1.0490
 4127SOL    HW316275   4.876   3.670   3.254  0.4935  1.1598  1.2066
 4127SOL    MW416276   4.831   3.733   3.215  0.8956  0.3979 -0.6016
 4128SOL     OW16277   3.422   1.386   6.052 -0.1011 -0.2158 -0.4555
 4128SOL    HW216278   3.480   1.394   6.128 -1.7522  0.2850  0.7982
 4128SOL    HW316279   3.372   1.306   6.067 -1.2406  0.4866 -0.4241
 4128SOL    MW416280   3.423   1.377   6.064 -0.4692 -0.0570 -0.2859
 4129SOL     OW16281   1.467   2.557   5.850  0.3749  0.0070 -0.4405
 4129SOL    HW216282   1.555   2.591   5.863  0.7806 -0.7680 -1.0661
 4129SOL    HW316283   1.427   2.616   5.786 -0.4395  1.8045  1.6145
 4129SOL    MW416284   1.473   2.569   5.843  0.3209  0.1419 -0.2519
 4130SOL     OW16285   1.522   5.055   0.163  0.4222 -0.3363  0.1288
 4130SOL    HW216286   1.570   5.079   0.084  0.5413  0.4762  0.4438
 4130SOL    HW316287   1.552   4.966   0.183  2.3132  0.3693  0.6880
 4130SOL    MW416288   1.532   5.046   0.155  0.6874 -0.1360  0.2441
 4131SOL     OW16289   1.001   2.496   6.245 -0.0119 -0.3804  0.8865
 4131SOL    HW216290   1.000   2.400   6.240  0.5890 -0.3516 -0.0866
 4131SOL    HW316291   1.018   2.524   6.155 -0.0857  0.6433  1.1794
 4131SOL    MW416292   1.003   2.487   6.232  0.0577 -0.2416  0.7968
 4132SOL     OW16293   2.734   5.889   0.377  0.0411 -0.2082 -0.0504
 4132SOL    HW216294   2.779   5.859   0.456  0.6048 -1.7277 -0.9008
 4132SOL    HW316295   2.803   5.894   0.311 -0.5177  0.5137 -0.5931
 4132SOL    MW416296   2.749   5.885   0.379  0.0417 -0.3135 -0.2342
 4133SOL     OW16297   2.081   3.925   6.359 -0.0685 -0.7519 -0.9350
 4133SOL    HW216298   1.987   3.938   6.347 -0.0449  0.0925 -0.2601
 4133SOL    HW316299   2.103   3.856   6.296 -1.4051 -2.0505 -0.0581
 4133SOL    MW416300   2.072   3.918   6.349 -0.2417 -0.8118 -0.7302
 4134SOL     OW16301   3.431   3.418   0.227  0.4685  0.3627 -0.6362
 4134SOL    HW216302   3.461   3.340   0.180  1.1219 -1.0826  1.9352
 4134SOL    HW316303   3.351   3.388   0.272  1.0762  0.9291  0.8970
 4134SOL    MW416304   3.424   3.403   0.227  0.6349  0.2468 -0.0947
 4135SOL     OW16305   5.884   5.196   1.677 -0.8108 -0.2848 -0.1155
 4135SOL    HW216306   5.880   5.236   1.590  1.3143  0.8424  0.2303
 4135SOL    HW316307   5.807   5.230   1.722 -0.1021  2.0133 -0.4713
 4135SOL    MW416308   5.873   5.206   1.671 -0.4369  0.1671 -0.1168
 4136SOL     OW16309   5.203   4.831   4.699 -0.2742  0.9284  0.7460
 4136SOL    HW216310   5.294   4.860   4.701  0.1432 -0.3090  2.7049
 4136SOL    HW316311   5.170   4.850   4.787 -1.7072  0.7342  0.2720
 4136SOL    MW416312   5.211   4.837   4.711 -0.4082  0.7395  0.9419
 4137SOL     OW16313   4.253   0.141   3.466  0.7593  0.2554  0.1941
 4137SOL    HW216314   4.251   0.187   3.550  1.3488 -0.5252  0.6518
 4137SOL    HW316315   4.303   0.061   3.484 -0.0408 -0.4551 -0.6256
 4137SOL    MW416316   4.259   0.136   3.480  0.7315  0.0587  0.1464
 4138SOL     OW16317   2.911   5.266   5.599 -0.3379  0.6923 -0.0347
 4138SOL    HW216318   2.988   5.295   5.549  1.4258  0.9141  2.6260
 4138SOL    HW316319   2.947   5.226   5.678 -2.9617 -0.6250  0.6143
 4138SOL    MW416320   2.926   5.264   5.603 -0.4514  0.5478  0.4020
 4139SOL     OW16321   2.064   0.960   0.570  0.0770  0.2785  0.4489
 4139SOL    HW216322   2.004   0.971   0.497 -0.0693 -1.2229  0.3041
 4139SOL    HW316323   2.009   0.965   0.648 -0.2195 -0.8008  0.3273
 4139SOL    MW416324   2.049   0.962   0.571  0.0186 -0.0620  0.4137
 4140SOL     OW16325   3.902   1.169   6.143 -0.2221 -0.1540 -0.7048
 4140SOL    HW216326   3.919   1.076   6.127  1.8007 -0.1292  0.8723
 4140SOL    HW316327   3.885   1.205   6.056  0.0269 -1.8093 -1.4808
 4140SOL    MW416328   3.902   1.161   6.129  0.0776 -0.3691 -0.5991
 4141SOL     OW16329   2.358   0.719   0.986 -0.1987  0.3713 -0.2876
 4141SOL    HW216330   2.273   0.762   0.981 -0.3603  0.0070 -0.7808
 4141SOL    HW316331   2.379   0.696   0.895 -0.7323 -1.7550  0.0599
 4141SOL    MW416332   2.350   0.722   0.974 -0.2904  0.0427 -0.3069
 4142SOL     OW16333   3.786   5.554   5.133  0.1678 -0.1641  0.0403
 4142SOL    HW216334   3.821   5.583   5.049  0.6707 -1.8397 -0.3588
 4142SOL    HW316335   3.719   5.489   5.111 -0.4864  0.1945  0.9151
 4142SOL    MW416336   3.782   5.549   5.119  0.1478 -0.3379  0.1030
 4143SOL     OW16337   0.437   6.008   3.047 -0.5284 -0.4245 -0.5289
 4143SOL    HW216338   0.420   5.942   3.114 -1.6650 -0.5751 -0.9524
 4143SOL    HW316339   0.427   6.091   3.093  0.3222 -0.5244 -0.1353
 4143SOL    MW416340   0.434   6.010   3.062 -0.5661 -0.4575 -0.5328
 4144SOL     OW16341   5.210   2.030   1.497  0.2788  0.0365  0.8465
 4144SOL    HW216342   5.296   2.067   1.516  0.7273 -1.2610  1.5009
 4144SOL    HW316343   5.214   2.006   1.405  0.4671  0.3888  0.7635
 4144SOL    MW416344   5.222   2.032   1.488  0.3628 -0.0882  0.9219
 4145SOL     OW16345   2.578   5.744   3.776  0.0569  0.0283  0.5488
 4145SOL    HW216346   2.636   5.675   3.746 -0.9627 -0.2567 -0.8593
 4145SOL    HW316347   2.629   5.825   3.764  0.3237 -0.2505 -0.2898
 4145SOL    MW416348   2.593   5.746   3.770 -0.0425 -0.0461  0.2524
 4146SOL     OW16349   4.382   5.924   0.172 -0.8274  0.7942 -0.2543
 4146SOL    HW216350   4.463   5.969   0.150  0.9630 -1.5084  1.1006
 4146SOL    HW316351   4.353   5.884   0.090 -1.0064  2.1898 -0.8912
 4146SOL    MW416352   4.389   5.925   0.158 -0.6148  0.6745 -0.1595
 4147SOL     OW16353   0.825   2.642   1.428 -0.2650 -0.2285 -0.2946
 4147SOL    HW216354   0.860   2.712   1.482 -1.2418  0.4510 -0.5126
 4147SOL    HW316355   0.859   2.659   1.340  2.9570 -2.4468  0.3622
 4147SOL    MW416356   0.834   2.654   1.423  0.0312 -0.4315 -0.2367
 4148SOL     OW16357   1.415   0.253   4.981 -0.2060 -0.2540  0.0446
 4148SOL    HW216358   1.368   0.335   4.993  0.8257  0.3034  0.3292
 4148SOL    HW316359   1.406   0.235   4.887  0.6305  0.8457 -0.2610
 4148SOL    MW416360   1.407   0.261   4.970  0.0405 -0.0354  0.0418
 4149SOL     OW16361   2.512   1.059   2.786 -0.5262  0.3805 -0.1827
 4149SOL    HW216362   2.566   1.131   2.752 -1.1570  0.9333 -0.0369
 4149SOL    HW316363   2.520   0.990   2.720  0.2882  0.4767 -0.2061
 4149SOL    MW416364   2.520   1.060   2.773 -0.5020  0.4661 -0.1666
 4150SOL     OW16365   2.448   4.135   2.978 -0.0604 -0.2587 -0.2034
 4150SOL    HW216366   2.485   4.057   3.019 -1.4216 -2.1209 -2.2609
 4150SOL    HW316367   2.367   4.152   3.027  0.2000 -0.1635  0.2003
 4150SOL    MW416368   2.442   4.127   2.990 -0.2056 -0.4918 -0.4216
 4151SOL     OW16369   6.018   5.804   5.013  0.4395 -0.4013  0.6687
 4151SOL    HW216370   6.013   5.720   4.967 -0.2149 -0.7733  1.3921
 4151SOL    HW316371   5.933   5.845   4.997 -0.7620 -1.5549  3.3827
 4151SOL    MW416372   6.006   5.798   5.005  0.1946 -0.6026  1.1222
 4152SOL     OW16373   4.488   1.381   1.346 -0.2894  0.0271 -0.1701
 4152SOL    HW216374   4.550   1.323   1.391 -0.3074  0.0194 -0.1550
 4152SOL    HW316375   4.537   1.416   1.272 -0.3121 -0.0898 -0.2406
 4152SOL    MW416376   4.503   1.378   1.342 -0.2948  0.0107 -0.1774
 4153SOL     OW16377   2.201   3.514   4.493  0.8883 -0.5002  0.5406
 4153SOL    HW216378   2.208   3.603   4.459 -0.4639 -0.1939  1.0386
 4153SOL    HW316379   2.292   3.488   4.510  1.5224 -0.1877 -2.0133
 4153SOL    MW416380   2.214   3.522   4.491  0.7936 -0.4185  0.2694
 4154SOL     OW16381   2.341   5.858   1.028  0.3349 -0.5329 -0.2448
 4154SOL    HW216382   2.265   5.880   0.975 -0.4340 -0.2212  0.9714
 4154SOL    HW316383   2.331   5.764   1.045 -0.0896 -0.3749  0.3946
 4154SOL    MW416384   2.330   5.848   1.023  0.1774 -0.4709  0.0000
 4155SOL     OW16385   4.961   5.706   1.893  0.2339  0.5690 -0.2524
 4155SOL    HW216386   4.905   5.633   1.917  1.2806 -0.2890 -0.3414
 4155SOL    HW316387   4.911   5.754   1.828  0.1642 -1.0077 -1.4241
 4155SOL    MW416388   4.947   5.703   1.888  0.3628  0.2477 -0.4187
 4156SOL     OW16389   3.562   4.946   3.793  0.3119  0.3793  0.4390
 4156SOL    HW216390   3.469   4.959   3.809  0.1388 -0.2388  0.0054
 4156SOL    HW316391   3.565   4.897   3.710  0.8352 -2.7898  2.1632
 4156SOL    MW416392   3.550   4.941   3.784  0.3581 -0.1204  0.6093
 4157SOL     OW16393   6.411   1.909   4.345  0.3945 -0.0208  1.0585
 4157SOL    HW216394   6.401   1.934   4.253 -1.1041 -1.4651  0.7794
 4157SOL    HW316395   6.358   1.830   4.354  2.3612 -1.2691  2.6071
 4157SOL    MW416396   6.403   1.902   4.334  0.4563 -0.3760  1.2260
 4158SOL     OW16397   5.684   2.130   6.190 -0.2161  0.0152 -0.3189
 4158SOL    HW216398   5.613   2.146   6.252 -1.0787  0.5081 -1.3980
 4158SOL    HW316399   5.743   2.072   6.237 -1.7693 -1.1455  0.3163
 4158SOL    MW416400   5.682   2.125   6.204 -0.5349 -0.0729 -0.3775
 4159SOL     OW16401   6.155   5.907   1.214 -0.4978  0.1398 -0.4354
 4159SOL    HW216402   6.180   5.875   1.300 -1.7047 -1.9389 -0.8082
 4159SOL    HW316403   6.140   6.001   1.227  2.6316  0.5842  0.8224
 4159SOL    MW416404   6.156   5.915   1.227 -0.2441 -0.0758 -0.3187
 4160SOL     OW16405   5.525   1.125   5.011  0.5200 -0.5968  0.2337
 4160SOL    HW216406   5.478   1.043   4.996  1.6821 -1.5800  1.7007
 4160SOL    HW316407   5.471   1.173   5.074  0.6486 -0.9689  0.6285
 4160SOL    MW416408   5.512   1.121   5.017  0.6903 -0.7756  0.4794
 4161SOL     OW16409   4.050   1.804   2.262  0.3678  0.3861 -0.0020
 4161SOL    HW216410   3.996   1.741   2.214 -0.7475 -0.5225  2.3245
 4161SOL    HW316411   4.003   1.887   2.253 -0.4600 -0.0220  0.4918
 4161SOL    MW416412   4.036   1.807   2.255  0.1115  0.2124  0.3701
 4162SOL     OW16413   5.308   3.384   1.584 -0.1908 -0.1902  0.0890
 4162SOL    HW216414   5.291   3.478   1.593  0.5125 -0.1107  0.5721
 4162SOL    HW316415   5.357   3.376   1.502  0.4177 -0.0508  0.4372
 4162SOL    MW416416   5.312   3.395   1.574 -0.0177 -0.1613  0.1987
 4163SOL     OW16417   6.203   4.791   3.410 -0.3468 -0.4151  0.6650
 4163SOL    HW216418   6.224   4.830   3.495  2.4785 -1.7251  0.6653
 4163SOL    HW316419   6.196   4.698   3.427 -2.8913 -0.4506 -0.0818
 4163SOL    MW416420   6.205   4.784   3.424 -0.3098 -0.5926  0.5665
 4164SOL     OW16421   3.058   6.442   4.323 -0.6819 -0.2236 -0.6091
 4164SOL    HW216422   2.983   6.495   4.296 -0.6495  0.3701  0.4080
 4164SOL    HW316423   3.128   6.505   4.340 -0.8630 -0.4777  1.3437
 4164SOL    MW416424   3.057   6.457   4.321 -0.7015 -0.1788 -0.2172
 4165SOL     OW16425   1.328   5.749   0.457  0.1919  0.3404 -0.2285
 4165SOL    HW216426   1.419   5.747   0.428 -0.0625 -0.4025 -1.0426
 4165SOL    HW316427   1.331   5.721   0.548  0.6793 -0.7642 -0.5705
 4165SOL    MW416428   1.340   5.745   0.465  0.2226  0.0966 -0.3810
 4166SOL     OW16429   6.215   2.129   3.536 -0.1731 -0.1219 -0.1303
 4166SOL    HW216430   6.236   2.185   3.461  0.7051 -1.4582 -0.9286
 4166SOL    HW316431   6.299   2.113   3.578 -0.4904 -0.3984  0.4042
 4166SOL    MW416432   6.228   2.134   3.532 -0.0991 -0.3347 -0.1651
 4167SOL     OW16433   2.421   5.553   6.073  0.4092 -0.0093 -0.3680
 4167SOL    HW216434   2.454   5.463   6.071  0.0078 -0.1957  0.7074
 4167SOL    HW316435   2.495   5.606   6.041  1.3202 -0.5319  0.7995
 4167SOL    MW416436   2.435   5.548   6.068  0.4764 -0.1028 -0.0721
 4168SOL     OW16437   3.982   4.847   0.879  0.0254  0.1326 -0.0457
 4168SOL    HW216438   3.888   4.863   0.881 -0.1179 -0.7432  1.4525
 4168SOL    HW316439   3.993   4.778   0.813 -0.7779 -1.7708  1.6848
 4168SOL    MW416440   3.971   4.840   0.870 -0.0995 -0.2341  0.3803
 4169SOL     OW16441   3.258   3.667   4.045 -0.5356  0.0668 -0.0341
 4169SOL    HW216442   3.188   3.614   4.008  0.5899 -0.8975 -0.8550
 4169SOL    HW316443   3.297   3.711   3.969  1.5112 -1.5670  0.0024
 4169SOL    MW416444   3.254   3.666   4.030 -0.1170 -0.2760 -0.1376
 4170SOL     OW16445   5.292   5.875   1.712 -0.2291 -0.5515 -0.7136
 4170SOL    HW216446   5.304   5.909   1.623  1.8703  1.3154  0.1886
 4170SOL    HW316447   5.253   5.948   1.761 -0.1915 -1.1275  0.2042
 4170SOL    MW416448   5.288   5.889   1.707  0.0528 -0.3812 -0.4735
 4171SOL     OW16449   2.638   1.291   2.682 -0.2885 -0.7993  0.0413
 4171SOL    HW216450   2.599   1.334   2.606 -2.3150 -1.6404  0.5430
 4171SOL    HW316451   2.626   1.354   2.754  1.2168 -0.1919 -0.2172
 4171SOL    MW416452   2.631   1.305   2.682 -0.3573 -0.8301  0.0734
 4172SOL     OW16453   5.359   1.459   6.112 -0.1033 -0.0882  0.1833
 4172SOL    HW216454   5.300   1.484   6.041 -0.1855  2.6136  1.0789
 4172SOL    HW316455   5.303   1.418   6.177 -0.0496 -2.4683 -1.1587
 4172SOL    MW416456   5.344   1.457   6.111 -0.1071 -0.0457  0.1244
 4173SOL     OW16457   1.985   2.183   5.507  0.7187 -0.7726 -0.2485
 4173SOL    HW216458   1.937   2.262   5.532 -1.8794 -1.7234 -1.8208
 4173SOL    HW316459   2.059   2.215   5.455 -1.4903  0.6698 -2.7519
 4173SOL    MW416460   1.989   2.198   5.503  0.0844 -0.7077 -0.7862
 4174SOL     OW16461   1.674   5.439   1.631  0.1317  0.0206  0.5373
 4174SOL    HW216462   1.683   5.534   1.640 -1.1694  0.2035  0.0993
 4174SOL    HW316463   1.743   5.415   1.569 -0.2436  0.8707 -0.2496
 4174SOL    MW416464   1.684   5.448   1.624 -0.0895  0.1569  0.3757
 4175SOL     OW16465   4.055   3.246   0.481  0.4839  0.5124  0.0226
 4175SOL    HW216466   4.145   3.267   0.508 -0.3883  2.2981  1.8422
 4175SOL    HW316467   4.029   3.320   0.426 -0.0583  0.2787 -0.0356
 4175SOL    MW416468   4.063   3.259   0.477  0.2973  0.7172  0.2550
 4176SOL     OW16469   0.439   0.858   4.787 -0.3064  0.5206 -0.5035
 4176SOL    HW216470   0.504   0.906   4.735  0.5786  0.4655  0.5242
 4176SOL    HW316471   0.426   0.776   4.739  1.0864  0.1364 -0.2599
 4176SOL    MW416472   0.446   0.854   4.773 -0.0059  0.4626 -0.3358
 4177SOL     OW16473   5.004   1.934   6.019 -0.0161  0.4241 -0.2007
 4177SOL    HW216474   5.087   1.966   6.055  0.3344  1.0888 -1.5316
 4177SOL    HW316475   5.005   1.963   5.928 -1.5985  0.2048 -0.3126
 4177SOL    MW416476   5.015   1.942   6.012 -0.1787  0.4829 -0.3911
 4178SOL     OW16477   2.964   2.562   2.978  0.3428 -0.6718  0.7623
 4178SOL    HW216478   2.930   2.495   3.039  0.1947 -1.0502  0.2703
 4178SOL    HW316479   2.971   2.516   2.894 -1.0440  0.2890  0.0918
 4178SOL    MW416480   2.961   2.547   2.975  0.1403 -0.5950  0.6089
 4179SOL     OW16481   2.558   5.290   6.045 -0.2448  0.2664 -0.1811
 4179SOL    HW216482   2.644   5.330   6.060  0.3427 -0.5915 -1.1297
 4179SOL    HW316483   2.573   5.196   6.058 -0.6682 -0.0628 -1.8886
 4179SOL    MW416484   2.571   5.283   6.049 -0.2231  0.1098 -0.5316
 4180SOL     OW16485   3.478   3.366   4.961 -0.2973  0.0076 -0.4535
 4180SOL    HW216486   3.451   3.310   4.888  0.1703 -0.2844 -0.4047
 4180SOL    HW316487   3.572   3.349   4.971 -0.5919 -0.9300  1.0378
 4180SOL    MW416488   3.487   3.356   4.952 -0.2745 -0.1547 -0.2503
 4181SOL     OW16489   4.500   3.213   5.109 -0.4524  0.3440  0.1814
 4181SOL    HW216490   4.588   3.244   5.132 -0.2695  0.7617 -1.0029
 4181SOL    HW316491   4.443   3.250   5.175  0.3450 -0.5652  1.4271
 4181SOL    MW416492   4.504   3.222   5.121 -0.3231  0.2792  0.1895
 4182SOL     OW16493   1.718   2.209   2.732  0.0157 -0.5154 -0.1525
 4182SOL    HW216494   1.707   2.275   2.800 -1.1935 -1.0196  0.1761
 4182SOL    HW316495   1.694   2.253   2.651 -1.5865 -0.7360  0.1676
 4182SOL    MW416496   1.713   2.223   2.730 -0.3552 -0.6110 -0.0669
 4183SOL     OW16497   5.037   3.119   0.748 -0.0138 -0.2633  0.2995
 4183SOL    HW216498   5.089   3.132   0.669 -0.0934 -1.2477  0.0726
 4183SOL    HW316499   5.066   3.035   0.782 -0.5578 -0.2246  0.8727
 4183SOL    MW416500   5.048   3.110   0.742 -0.0961 -0.3881  0.3452
 4184SOL     OW16501   1.576   0.390   3.638  0.0185 -0.1595 -0.0542
 4184SOL    HW216502   1.527   0.422   3.562  0.9050  1.2223 -0.0618
 4184SOL    HW316503   1.508   0.361   3.699 -0.8310  1.6095 -0.1091
 4184SOL    MW416504   1.561   0.390   3.636  0.0234  0.2562 -0.0624
 4185SOL     OW16505   3.363   1.032   3.462 -0.2243 -0.1571  0.0529
 4185SOL    HW216506   3.322   0.947   3.448 -0.1226 -0.1033 -0.6165
 4185SOL    HW316507   3.292   1.089   3.491 -0.6324 -0.0658 -1.0852
 4185SOL    MW416508   3.348   1.028   3.464 -0.2647 -0.1380 -0.1856
 4186SOL     OW16509   2.188   2.326   2.541  0.1652  0.3004 -0.7696
 4186SOL    HW216510   2.119   2.293   2.599 -0.0805 -0.5700 -1.5351
 4186SOL    HW316511   2.254   2.257   2.540 -1.3915 -1.3541 -4.1884
 4186SOL    MW416512   2.187   2.312   2.548 -0.0726 -0.0327 -1.3217
 4187SOL     OW16513   2.193   1.748   3.154 -0.1776  0.2493 -0.1037
 4187SOL    HW216514   2.180   1.696   3.075  0.1435 -0.6775  0.4317
 4187SOL    HW316515   2.148   1.699   3.223 -1.9341  1.9091  0.0100
 4187SOL    MW416516   2.185   1.734   3.153 -0.3670  0.3460 -0.0180
 4188SOL     OW16517   5.127   5.902   0.766 -0.0363  0.5792  0.2113
 4188SOL    HW216518   5.160   5.992   0.770  0.8445  0.2688  0.0450
 4188SOL    HW316519   5.103   5.890   0.674  1.8217 -0.0254 -0.2404
 4188SOL    MW416520   5.128   5.912   0.754  0.3251  0.4584  0.1298
 4189SOL     OW16521   0.152   6.067   6.282  0.2773 -0.6824 -0.6513
 4189SOL    HW216522   0.110   6.069   6.368 -0.2420  0.2408 -0.9162
 4189SOL    HW316523   0.144   5.976   6.253  1.7854 -1.3838  0.9054
 4189SOL    MW416524   0.146   6.055   6.289  0.4078 -0.6531 -0.4808
 4190SOL     OW16525   0.375   0.724   5.421 -0.3268 -0.5598 -0.0726
 4190SOL    HW216526   0.322   0.684   5.352 -0.4260 -0.6972  0.0819
 4190SOL    HW316527   0.430   0.653   5.452 -0.1763 -0.4607 -0.1102
 4190SOL    MW416528   0.375   0.709   5.416 -0.3201 -0.5648 -0.0572
 4191SOL     OW16529   5.920   1.472   0.737 -1.2190  0.3015 -0.2387
 4191SOL    HW216530   5.934   1.402   0.800 -1.6795 -0.9144 -1.4283
 4191SOL    HW316531   6.009   1.502   0.715 -0.9844 -0.2970 -0.1296
 4191SOL    MW416532   5.934   1.467   0.742 -1.2488  0.0621 -0.3813
 4192SOL     OW16533   4.696   5.194   0.386  0.3524  0.0748 -0.0058
 4192SOL    HW216534   4.602   5.205   0.375  0.7340  1.9172 -2.3706
 4192SOL    HW316535   4.720   5.256   0.455 -0.1064 -0.1070  0.3202
 4192SOL    MW416536   4.687   5.204   0.393  0.3422  0.2939 -0.2748
 4193SOL     OW16537   1.588   0.831   4.987 -0.4945  0.9606  0.0185
 4193SOL    HW216538   1.620   0.741   4.994 -0.2799  0.9225 -1.1546
 4193SOL    HW316539   1.657   0.885   5.024  0.1852  0.7509 -0.9031
 4193SOL    MW416540   1.601   0.826   4.993 -0.3765  0.9279 -0.2579
 4194SOL     OW16541   0.616   2.254   4.075 -0.1900 -0.0826  0.1209
 4194SOL    HW216542   0.710   2.238   4.083 -0.3215 -0.9967 -0.0334
 4194SOL    HW316543   0.599   2.329   4.132 -0.2969 -3.2494  4.7884
 4194SOL    MW416544   0.626   2.262   4.084 -0.2215 -0.6210  0.7163
 4195SOL     OW16545   4.019   2.133   5.650  0.0175 -0.3525  0.5260
 4195SOL    HW216546   4.050   2.081   5.576 -0.6294 -1.2940  0.8960
 4195SOL    HW316547   3.940   2.088   5.680 -1.7783  1.9608 -0.3978
 4195SOL    MW416548   4.013   2.120   5.644 -0.3048 -0.1715  0.4529
 4196SOL     OW16549   1.835   0.716   1.708  1.0176 -0.0115  0.4245
 4196SOL    HW216550   1.868   0.633   1.675 -0.4393 -0.1681 -0.7549
 4196SOL    HW316551   1.754   0.694   1.754  0.7385  0.7243  0.3063
 4196SOL    MW416552   1.828   0.702   1.710  0.7885  0.0649  0.2533
 4197SOL     OW16553   4.966   3.083   1.964 -0.1992 -0.3124  0.5099
 4197SOL    HW216554   4.930   3.156   1.913 -0.1359 -1.4325 -1.2589
 4197SOL    HW316555   5.058   3.078   1.937 -0.3152 -1.2974  0.2476
 4197SOL    MW416556   4.973   3.092   1.954 -0.2062 -0.5901  0.2419
 4198SOL     OW16557   0.084   5.385   4.650  0.2937 -0.7928  0.3342
 4198SOL    HW216558   0.104   5.424   4.736  0.7831 -0.5531  0.1171
 4198SOL    HW316559   0.042   5.301   4.671 -1.1383  0.0163  0.8014
 4198SOL    MW416560   0.081   5.379   4.664  0.1693 -0.6544  0.3672
 4199SOL     OW16561   1.527   4.375   5.526  0.1263  0.2432  0.1561
 4199SOL    HW216562   1.606   4.425   5.507 -0.0737  1.3942  2.0358
 4199SOL    HW316563   1.559   4.288   5.550  0.7052  0.2975 -0.3956
 4199SOL    MW416564   1.541   4.370   5.527  0.1763  0.4022  0.3313
 4200SOL     OW16565   2.826   3.895   2.612  0.2008 -0.4831  0.4436
 4200SOL    HW216566   2.859   3.805   2.601  0.4325 -0.2190 -1.1646
 4200SOL    HW316567   2.744   3.897   2.563  0.6955  0.4378 -0.3895
 4200SOL    MW416568   2.820   3.883   2.604  0.2967 -0.3268  0.1215
 4201SOL     OW16569   3.821   3.854   5.998  0.5038 -0.5181  0.6429
 4201SOL    HW216570   3.870   3.787   6.045  1.8200  0.3988  0.6440
 4201SOL    HW316571   3.868   3.936   6.018 -0.6389  0.2998  0.0842
 4201SOL    MW416572   3.834   3.856   6.007  0.5267 -0.2892  0.5693
 4202SOL     OW16573   2.682   1.390   0.892  0.4984  0.1963  0.1553
 4202SOL    HW216574   2.693   1.296   0.911 -0.0402  0.0016 -0.4680
 4202SOL    HW316575   2.625   1.421   0.962 -0.8158 -0.3450 -0.6358
 4202SOL    MW416576   2.676   1.381   0.904  0.2540  0.0992 -0.0313
 4203SOL     OW16577   0.344   1.098   4.563 -0.0600 -0.1959  0.3117
 4203SOL    HW216578   0.368   1.042   4.489 -0.4393  0.1392 -0.0678
 4203SOL    HW316579   0.303   1.038   4.626  4.2478 -1.4438  2.3342
 4203SOL    MW416580   0.342   1.082   4.562  0.4583 -0.3163  0.5284
 4204SOL     OW16581   3.115   1.739   4.351  0.5471  0.0387  0.3092
 4204SOL    HW216582   3.187   1.730   4.288  1.4833  0.2048  1.3143
 4204SOL    HW316583   3.037   1.746   4.297  1.2829 -0.1573 -0.8261
 4204SOL    MW416584   3.114   1.739   4.335  0.7677  0.0348  0.2920
 4205SOL     OW16585   5.779   0.470   2.194  0.3117 -0.9356 -0.0962
 4205SOL    HW216586   5.751   0.405   2.130 -0.6405 -1.6457  1.0054
 4205SOL    HW316587   5.823   0.420   2.262  1.6673 -0.1445 -0.3567
 4205SOL    MW416588   5.781   0.455   2.195  0.3649 -0.9249  0.0148
 4206SOL     OW16589   4.714   4.572   0.140 -0.4855  0.3409 -0.4811
 4206SOL    HW216590   4.724   4.523   0.221 -0.8380  0.8013 -0.1515
 4206SOL    HW316591   4.795   4.556   0.091  0.2545  1.0241  0.4885
 4206SOL    MW416592   4.726   4.564   0.144 -0.4343  0.4918 -0.3097
 4207SOL     OW16593   1.926   2.734   2.712 -0.1468  0.0405 -0.5297
 4207SOL    HW216594   1.966   2.650   2.737  2.2660  0.8902 -1.2392
 4207SOL    HW316595   1.921   2.730   2.617  0.4675  0.8636 -0.6094
 4207SOL    MW416596   1.931   2.722   2.703  0.2526  0.2612 -0.6339
 4208SOL     OW16597   0.875   4.794   4.933  0.0009 -0.0074  0.0044
 4208SOL    HW216598   0.908   4.709   4.963 -0.2914  0.0128  0.3890
 4208SOL    HW316599   0.780   4.782   4.926 -0.2810  0.8260  1.8894
 4208SOL    MW416600   0.867   4.781   4.936 -0.0749  0.1053  0.3039
 4209SOL     OW16601   1.453   6.216   6.409  0.1717  0.8899 -0.8644
 4209SOL    HW216602   1.449   6.127   6.375  3.2072  0.8641 -1.4466
 4209SOL    HW316603   1.459   6.206   6.504  0.1082  0.5000 -0.9030
 4209SOL    MW416604   1.453   6.203   6.417  0.5638  0.8351 -0.9463
 4210SOL     OW16605   1.347   4.000   4.789  0.3052  0.6990 -0.2367
 4210SOL    HW216606   1.432   4.044   4.791  0.5586  0.1971  0.3882
 4210SOL    HW316607   1.287   4.060   4.833  0.7641  0.2000  1.1148
 4210SOL    MW416608   1.350   4.013   4.795  0.3992  0.5670  0.0241
 4211SOL     OW16609   5.954   6.334   1.085 -0.5236  0.4794  0.2767
 4211SOL    HW216610   5.967   6.415   1.135  1.3190  1.7223 -2.0710
 4211SOL    HW316611   5.970   6.264   1.149  0.6240  1.9709  1.7033
 4211SOL    MW416612   5.957   6.335   1.100 -0.1291  0.8401  0.1552
 4212SOL     OW16613   4.692   3.463   5.411 -0.0844 -0.1324 -0.1702
 4212SOL    HW216614   4.596   3.461   5.409 -0.1089  0.4957  0.1754
 4212SOL    HW316615   4.716   3.398   5.477 -0.3273  0.7696  0.8201
 4212SOL    MW416616   4.682   3.454   5.419 -0.1197  0.0695  0.0060
 4213SOL     OW16617   3.967   2.993   1.944  0.2629 -0.0807 -0.2703
 4213SOL    HW216618   3.947   2.913   1.895 -0.4565 -0.0044 -0.1067
 4213SOL    HW316619   4.060   2.984   1.967  0.2642 -0.7328 -0.5032
 4213SOL    MW416620   3.977   2.981   1.941  0.1682 -0.1566 -0.2795
 4214SOL     OW16621   3.442   0.216   5.088 -0.1208 -0.2300  0.3609
 4214SOL    HW216622   3.356   0.206   5.129  0.3450  0.1409  1.4736
 4214SOL    HW316623   3.475   0.127   5.078 -2.0703 -0.7324 -3.4184
 4214SOL    MW416624   3.435   0.203   5.092 -0.3166 -0.2473  0.0091
 4215SOL     OW16625   2.077   1.297   0.927 -0.6050 -0.0428 -0.1728
 4215SOL    HW216626   2.116   1.211   0.937 -0.3887 -0.2876 -2.5919
 4215SOL    HW316627   1.991   1.280   0.889 -0.0528  0.7967 -1.9337
 4215SOL    MW416628   2.071   1.284   0.923 -0.5036  0.0357 -0.7243
 4216SOL     OW16629   1.111   2.942   1.421 -0.1516  0.4127  0.2478
 4216SOL    HW216630   1.163   2.920   1.498 -1.6938 -1.4814  0.8407
 4216SOL    HW316631   1.164   2.913   1.347  0.5585  0.5205  0.7093
 4216SOL    MW416632   1.125   2.935   1.421 -0.2614  0.1770  0.3869
 4217SOL     OW16633   1.515   3.192   1.157  0.0603 -0.2287  0.6320
 4217SOL    HW216634   1.501   3.232   1.072 -1.5047 -0.5237  0.7181
 4217SOL    HW316635   1.474   3.252   1.219  0.0027 -0.6746  1.0355
 4217SOL    MW416636   1.508   3.205   1.154 -0.1538 -0.3265  0.6966
 4218SOL     OW16637   2.403   0.384   3.448 -0.0248 -0.0729 -0.0299
 4218SOL    HW216638   2.352   0.462   3.431 -0.4545 -0.4525 -0.5102
 4218SOL    HW316639   2.351   0.334   3.511 -0.0058 -0.2224 -0.1317
 4218SOL    MW416640   2.389   0.387   3.454 -0.0790 -0.1427 -0.1067
 4219SOL     OW16641   1.437   0.919   0.477  0.1373 -0.2168 -0.5554
 4219SOL    HW216642   1.379   0.861   0.428 -1.0041 -0.3627  0.9075
 4219SOL    HW316643   1.380   0.991   0.506  0.6495 -0.3833  0.9422
 4219SOL    MW416644   1.422   0.921   0.474  0.0543 -0.2580 -0.1648
 4220SOL     OW16645   2.978   1.488   1.284  0.1827  0.8970 -0.6514
 4220SOL    HW216646   2.932   1.445   1.356  1.8097  0.5753  0.2299
 4220SOL    HW316647   2.911   1.498   1.216 -1.5173  1.6519  1.0486
 4220SOL    MW416648   2.963   1.483   1.285  0.1730  0.9542 -0.3108
 4221SOL     OW16649   1.683   5.214   4.011 -0.5457 -0.2537  0.2699
 4221SOL    HW216650   1.765   5.195   3.966 -0.0300 -0.7632  1.3838
 4221SOL    HW316651   1.686   5.160   4.090 -1.4156  0.6110  0.9217
 4221SOL    MW416652   1.694   5.204   4.016 -0.5925 -0.2069  0.5028
 4222SOL     OW16653   2.166   5.959   1.229 -0.0055  0.5579 -0.8620
 4222SOL    HW216654   2.209   5.932   1.148 -0.7632 -1.5345 -0.6245
 4222SOL    HW316655   2.092   6.013   1.200 -2.4617 -3.0538 -1.9596
 4222SOL    MW416656   2.162   5.963   1.215 -0.4295 -0.1947 -0.9755
 4223SOL     OW16657   3.819   4.915   2.652  0.1414 -0.5671 -0.0430
 4223SOL    HW216658   3.751   4.980   2.631 -0.2166 -0.7818  0.4318
 4223SOL    HW316659   3.839   4.931   2.744  1.5724  0.2496 -0.4619
 4223SOL    MW416660   3.813   4.926   2.662  0.2829 -0.4877 -0.0356
 4224SOL     OW16661   2.836   0.974   5.035 -0.2388  0.3363 -0.4276
 4224SOL    HW216662   2.797   0.894   4.999  0.7986 -0.2791 -0.2295
 4224SOL    HW316663   2.875   1.018   4.959  0.2573  0.0315 -0.3471
 4224SOL    MW416664   2.836   0.969   5.020 -0.0365  0.2149 -0.3908
 4225SOL     OW16665   1.763   2.181   1.140 -0.0970 -0.1634  0.2612
 4225SOL    HW216666   1.668   2.176   1.151 -0.0667 -0.2189  0.5080
 4225SOL    HW316667   1.792   2.091   1.148 -0.2386 -0.4492 -1.9341
 4225SOL    MW416668   1.754   2.169   1.143 -0.1117 -0.2084  0.0041
 4226SOL     OW16669   3.581   4.274   4.405  0.1574  0.1624  0.6540
 4226SOL    HW216670   3.665   4.320   4.404  0.2614 -0.0138 -0.8295
 4226SOL    HW316671   3.516   4.343   4.408  0.3380  0.3787 -0.1594
 4226SOL    MW416672   3.584   4.289   4.405  0.1950  0.1677  0.3509
 4227SOL     OW16673   2.206   3.785   1.220  0.2376  0.1109 -0.7029
 4227SOL    HW216674   2.192   3.873   1.254 -0.5234  0.1357 -1.0684
 4227SOL    HW316675   2.207   3.795   1.125 -1.2293 -0.4542 -0.8003
 4227SOL    MW416676   2.205   3.798   1.212 -0.0563  0.0396 -0.7640
 4228SOL     OW16677   5.881   5.470   6.147 -0.1012 -0.4714  0.1570
 4228SOL    HW216678   5.939   5.407   6.189  1.8549  0.1571 -1.4483
 4228SOL    HW316679   5.908   5.471   6.055 -0.4050  2.2899  0.0016
 4228SOL    MW416680   5.892   5.462   6.140  0.1168 -0.0242 -0.0753
 4229SOL     OW16681   2.383   3.757   2.671  0.0854 -0.0915 -0.0368
 4229SOL    HW216682   2.370   3.802   2.755 -0.5175  1.3646 -0.8771
 4229SOL    HW316683   2.304   3.704   2.660 -0.9800  1.5281 -0.7305
 4229SOL    MW416684   2.371   3.756   2.681 -0.1347  0.3143 -0.2392
 4230SOL     OW16685   1.999   2.174   2.647  0.4540  0.1766 -0.5751
 4230SOL    HW216686   1.905   2.183   2.665  0.2664  1.5465 -1.9845
 4230SOL    HW316687   2.009   2.086   2.611 -0.2911  0.0303 -0.4378
 4230SOL    MW416688   1.988   2.164   2.645  0.3310  0.3380 -0.7429
 4231SOL     OW16689   2.254   5.223   3.711 -0.0539  0.7062  0.4561
 4231SOL    HW216690   2.299   5.247   3.792  0.3254 -0.3332  0.5721
 4231SOL    HW316691   2.235   5.129   3.721  1.9113  0.0173 -1.5194
 4231SOL    MW416692   2.257   5.214   3.723  0.2554  0.4782  0.2108
 4232SOL     OW16693   0.358   2.121   2.541  0.2014  0.5637 -0.4408
 4232SOL    HW216694   0.424   2.073   2.491  1.5982  0.9995  0.9261
 4232SOL    HW316695   0.324   2.057   2.603 -2.8695 -0.5255 -2.9790
 4232SOL    MW416696   0.362   2.106   2.543 -0.0195  0.4775 -0.5953
 4233SOL     OW16697   4.149   0.600   1.002 -0.1100  0.4106  0.1610
 4233SOL    HW216698   4.087   0.658   1.048 -0.6661 -1.2788  1.6592
 4233SOL    HW316699   4.235   0.631   1.030 -0.4308 -0.5014  2.4066
 4233SOL    MW416700   4.152   0.612   1.012 -0.2257  0.0674  0.6549
 4234SOL     OW16701   6.207   5.016   6.253 -0.5195 -0.1531  0.3986
 4234SOL    HW216702   6.177   4.960   6.324  1.7849 -0.4626  1.2369
 4234SOL    HW316703   6.288   5.055   6.286  1.1274 -0.9679 -2.3090
 4234SOL    MW416704   6.214   5.014   6.266  0.0018 -0.3015  0.1520
 4235SOL     OW16705   5.289   6.437   1.558  0.0172  0.5146  0.3489
 4235SOL    HW216706   5.288   6.395   1.644  0.7100  0.4724  0.3438
 4235SOL    HW316707   5.339   6.518   1.572  0.3462  0.3871 -0.0638
 4235SOL    MW416708   5.296   6.442   1.571  0.1520  0.4922  0.2938
 4236SOL     OW16709   6.429   3.417   3.273 -0.3026  0.5191  0.1448
 4236SOL    HW216710   6.432   3.325   3.248 -0.1709 -0.2026  2.5938
 4236SOL    HW316711   6.520   3.441   3.289 -0.5200  0.3440  1.8224
 4236SOL    MW416712   6.441   3.408   3.272 -0.3139  0.4008  0.6893
 4237SOL     OW16713   0.453   4.681   6.016 -0.4000 -0.4243 -0.0941
 4237SOL    HW216714   0.484   4.742   6.083 -0.2244  0.3168 -0.8146
 4237SOL    HW316715   0.402   4.616   6.063  1.2261 -0.9743  0.9795
 4237SOL    MW416716   0.450   4.681   6.031 -0.1623 -0.3991 -0.0475
 4238SOL     OW16717   5.959   1.467   3.041 -0.2927 -0.3074  0.1458
 4238SOL    HW216718   5.890   1.401   3.040  1.6271 -2.4067 -0.0222
 4238SOL    HW316719   6.022   1.438   2.976  0.1714  2.2790 -0.6965
 4238SOL    MW416720   5.958   1.455   3.032  0.0219 -0.2431  0.0125
 4239SOL     OW16721   3.656   5.873   2.070 -0.0024 -0.4043  0.0341
 4239SOL    HW216722   3.656   5.966   2.046  0.8578 -0.8646 -2.0272
 4239SOL    HW316723   3.587   5.865   2.135 -3.2808  0.9293 -2.9582
 4239SOL    MW416724   3.647   5.884   2.075 -0.3215 -0.2891 -0.6326
 4240SOL     OW16725   0.770   0.939   3.119  0.5366  0.3040  0.0701
 4240SOL    HW216726   0.831   0.908   3.186 -0.3799 -1.3253  0.2123
 4240SOL    HW316727   0.684   0.930   3.160 -0.3767 -3.6115 -2.1955
 4240SOL    MW416728   0.766   0.934   3.133  0.2952 -0.4275 -0.2101
 4241SOL     OW16729   3.017   6.214   0.081  0.1654 -0.2903  0.1669
 4241SOL    HW216730   2.937   6.215   0.029  1.1999 -0.1032 -1.4664
 4241SOL    HW316731   3.033   6.306   0.102  0.3765 -0.2449 -0.1872
 4241SOL    MW416732   3.008   6.226   0.077  0.3297 -0.2596 -0.0953
 4242SOL     OW16733   4.544   5.030   4.118 -0.6825  0.0131 -0.0486
 4242SOL    HW216734   4.615   4.971   4.143 -0.2889  0.6768  0.4210
 4242SOL    HW316735   4.577   5.075   4.040 -0.1777  1.0295  0.7341
 4242SOL    MW416736   4.558   5.028   4.111 -0.5639  0.2348  0.1167
 4243SOL     OW16737   4.814   1.074   0.304  0.1247 -0.1005 -0.1406
 4243SOL    HW216738   4.834   1.002   0.363 -1.0273  0.7374  1.3206
 4243SOL    HW316739   4.758   1.035   0.237  0.6011 -0.8354 -0.1200
 4243SOL    MW416740   4.809   1.060   0.303  0.0356 -0.0869  0.0549
 4244SOL     OW16741   3.070   0.925   3.008 -0.2201  0.4067  0.2663
 4244SOL    HW216742   2.999   0.862   2.999 -0.1932  0.5136 -0.8780
 4244SOL    HW316743   3.142   0.887   2.957 -0.2459  1.3967 -0.5398
 4244SOL    MW416744   3.070   0.912   3.000 -0.2199  0.5515  0.0090
 4245SOL     OW16745   2.340   5.755   5.801 -0.3882  0.1446 -0.0864
 4245SOL    HW216746   2.420   5.791   5.762 -0.2330  1.7606  1.6046
 4245SOL    HW316747   2.283   5.830   5.813 -0.4218 -0.2263  2.7068
 4245SOL    MW416748   2.343   5.769   5.798 -0.3722  0.3089  0.5052
 4246SOL     OW16749   5.312   4.838   5.870  0.2509  0.2509 -0.0945
 4246SOL    HW216750   5.391   4.865   5.823  1.7242 -0.3001  1.9006
 4246SOL    HW316751   5.316   4.742   5.871 -0.9987  0.1819 -0.8340
 4246SOL    MW416752   5.323   4.829   5.864  0.2804  0.1691  0.0711
 4247SOL     OW16753   1.536   4.297   0.447  0.2686 -0.2685  0.4739
 4247SOL    HW216754   1.593   4.373   0.440 -0.0364 -0.1253 -0.6928
 4247SOL    HW316755   1.577   4.231   0.390 -1.4077  0.2987 -1.4944
 4247SOL    MW416756   1.549   4.298   0.439  0.0072 -0.1748  0.0602
 4248SOL     OW16757   1.804   0.213   0.762 -0.9141  0.4780 -0.0403
 4248SOL    HW216758   1.763   0.201   0.848  0.5140  1.1280  0.7618
 4248SOL    HW316759   1.873   0.148   0.759 -1.6482 -0.2839 -1.1855
 4248SOL    MW416760   1.807   0.203   0.773 -0.8225  0.4633 -0.0856
 4249SOL     OW16761   2.713   3.196   2.456  0.0485  0.0376 -0.2166
 4249SOL    HW216762   2.651   3.163   2.521 -0.7087 -1.3859 -1.5899
 4249SOL    HW316763   2.713   3.291   2.468 -0.4278 -0.1567  1.5156
 4249SOL    MW416764   2.705   3.204   2.466 -0.1143 -0.1759 -0.1693
 4250SOL     OW16765   6.077   4.645   4.735  0.4404  0.2976 -0.1648
 4250SOL    HW216766   6.125   4.569   4.701 -0.0589  0.1251 -0.5001
 4250SOL    HW316767   5.991   4.610   4.758  0.5406  0.5555  0.6455
 4250SOL    MW416768   6.072   4.630   4.734  0.3878  0.3088 -0.1021
 4251SOL     OW16769   4.541   3.831   6.376 -0.0599  0.6667  1.0014
 4251SOL    HW216770   4.465   3.836   6.318 -0.3356  1.0371  1.3846
 4251SOL    HW316771   4.590   3.912   6.358 -0.1284  0.7658  1.2523
 4251SOL    MW416772   4.537   3.843   6.366 -0.1053  0.7287  1.0851
 4252SOL     OW16773   4.817   3.289   2.241  0.0682 -0.0237  0.1693
 4252SOL    HW216774   4.778   3.284   2.154 -2.0621 -1.9843  1.1323
 4252SOL    HW316775   4.822   3.198   2.271  3.0236  0.3576  1.2218
 4252SOL    MW416776   4.813   3.277   2.234  0.1771 -0.2320  0.4352
 4253SOL     OW16777   2.701   5.577   0.215 -0.1530  0.2133 -0.1448
 4253SOL    HW216778   2.743   5.656   0.249 -0.3578  0.1627  0.2337
 4253SOL    HW316779   2.651   5.607   0.139  0.9370  0.1913 -0.8917
 4253SOL    MW416780   2.700   5.591   0.210 -0.0362  0.2037 -0.1934
 4254SOL     OW16781   5.574   2.441   3.114  0.1600  0.9315  0.1907
 4254SOL    HW216782   5.526   2.463   3.033  0.6091  2.5531  0.3293
 4254SOL    HW316783   5.645   2.505   3.117  0.1008  0.9506  1.9166
 4254SOL    MW416784   5.577   2.453   3.103  0.2115  1.1480  0.4367
 4255SOL     OW16785   2.492   6.347   6.278 -0.2872  0.6063  0.1786
 4255SOL    HW216786   2.487   6.292   6.200  2.3048  0.6709 -0.1463
 4255SOL    HW316787   2.469   6.435   6.246  0.8168  0.6479 -0.5901
 4255SOL    MW416788   2.488   6.352   6.263  0.2005  0.6203  0.0343
 4256SOL     OW16789   4.532   5.981   0.767  0.6484 -0.3563 -0.3559
 4256SOL    HW216790   4.623   5.956   0.757 -0.0377 -3.0297 -0.6451
 4256SOL    HW316791   4.502   5.932   0.844 -1.0006 -1.0290 -1.3727
 4256SOL    MW416792   4.540   5.972   0.776  0.3403 -0.7978 -0.5282
 4257SOL     OW16793   3.470   0.627   3.673  0.4522  0.4944 -0.1260
 4257SOL    HW216794   3.541   0.586   3.625  0.2486  1.4713 -1.2904
 4257SOL    HW316795   3.405   0.557   3.684  1.5179 -0.3848  0.8963
 4257SOL    MW416796   3.471   0.612   3.668  0.5660  0.5073 -0.1447
 4258SOL     OW16797   6.093   5.249   5.459 -0.6277 -1.0973 -0.4222
 4258SOL    HW216798   6.097   5.341   5.433  4.5468 -1.0822 -0.5158
 4258SOL    HW316799   6.046   5.206   5.388 -3.8125  1.3875 -0.0606
 4258SOL    MW416800   6.087   5.256   5.446 -0.3652 -0.7675 -0.3869
 4259SOL     OW16801   3.237   0.600   4.389 -0.5760  0.0858  0.0812
 4259SOL    HW216802   3.265   0.532   4.451 -2.8626 -0.8982  0.1617
 4259SOL    HW316803   3.141   0.595   4.390 -0.9727  4.1916  1.0161
 4259SOL    MW416804   3.228   0.590   4.397 -0.9300  0.4977  0.2152
 4260SOL     OW16805   0.065   0.397   2.995  0.5509 -0.2155  0.6547
 4260SOL    HW216806   0.043   0.344   3.072 -0.1884 -0.1020  0.5296
 4260SOL    HW316807   0.005   0.471   3.000 -0.2730 -0.7614 -0.6179
 4260SOL    MW416808   0.054   0.399   3.006  0.3446 -0.2725  0.4703
 4261SOL     OW16809   0.196   3.866   1.284  0.2151  0.3026  0.7979
 4261SOL    HW216810   0.285   3.831   1.289  0.5353  1.0513  0.4385
 4261SOL    HW316811   0.146   3.812   1.345  0.5564 -1.1630 -0.1784
 4261SOL    MW416812   0.201   3.854   1.293  0.3023  0.2080  0.6217
 4262SOL     OW16813   1.208   5.237   4.546  0.0923 -0.1683 -0.1240
 4262SOL    HW216814   1.304   5.242   4.540  0.0783 -0.5475 -0.7681
 4262SOL    HW316815   1.177   5.309   4.492  0.0032 -0.8194 -0.9460
 4262SOL    MW416816   1.217   5.247   4.538  0.0787 -0.3042 -0.3175
 4263SOL     OW16817   5.560   4.468   0.596 -0.3525 -0.0966 -0.5989
 4263SOL    HW216818   5.523   4.512   0.673  0.8542 -0.1924  0.0647
 4263SOL    HW316819   5.628   4.528   0.565 -0.1081 -0.5484 -0.9497
 4263SOL    MW416820   5.564   4.482   0.602 -0.1610 -0.1689 -0.5576
 4264SOL     OW16821   3.819   1.286   5.913 -0.6359 -0.1617  0.1682
 4264SOL    HW216822   3.850   1.256   5.827  1.1615  0.9702  0.3647
 4264SOL    HW316823   3.836   1.380   5.912 -0.1472 -0.2080  1.9445
 4264SOL    MW416824   3.825   1.295   5.901 -0.3343 -0.0185  0.4285
 4265SOL     OW16825   1.784   3.877   4.317  0.4870  0.2594 -0.7271
 4265SOL    HW216826   1.734   3.952   4.283  0.3255  0.9795  1.0162
 4265SOL    HW316827   1.729   3.840   4.385  1.6657  0.1293  0.1849
 4265SOL    MW416828   1.770   3.882   4.321  0.6212  0.3372 -0.3768
 4266SOL     OW16829   0.533   2.962   1.796 -0.4786 -0.5863  0.0898
 4266SOL    HW216830   0.594   2.894   1.767 -0.5592 -0.9205  0.6751
 4266SOL    HW316831   0.504   3.005   1.716  0.7819 -0.1918 -0.1763
 4266SOL    MW416832   0.537   2.959   1.782 -0.3229 -0.5784  0.1319
 4267SOL     OW16833   2.297   3.993   4.859 -0.6694 -0.2446 -0.1684
 4267SOL    HW216834   2.298   4.056   4.788 -1.2793 -1.7426 -1.5654
 4267SOL    HW316835   2.362   4.026   4.922  1.8737 -0.2068 -2.6298
 4267SOL    MW416836   2.306   4.005   4.858 -0.4143 -0.4373 -0.6775
 4268SOL     OW16837   2.856   1.915   5.022  0.2056 -0.2333 -0.1254
 4268SOL    HW216838   2.767   1.886   5.001  0.2841  0.4352 -1.4977
 4268SOL    HW316839   2.862   1.906   5.117 -1.2351 -0.5446 -0.0370
 4268SOL    MW416840   2.845   1.910   5.032  0.0259 -0.1862 -0.2948
 4269SOL     OW16841   2.319   4.982   4.396  0.4390  0.0217  0.2191
 4269SOL    HW216842   2.337   5.075   4.386 -0.5913  0.3171  0.9279
 4269SOL    HW316843   2.287   4.954   4.311  0.7069  0.3235  0.0177
 4269SOL    MW416844   2.317   4.991   4.384  0.3384  0.1005  0.2860
 4270SOL     OW16845   0.505   1.518   4.044  0.3844 -0.2841  0.2065
 4270SOL    HW216846   0.434   1.507   4.108  0.2383 -1.5328 -0.1452
 4270SOL    HW316847   0.477   1.467   3.968  1.5130 -0.5389 -0.0560
 4270SOL    MW416848   0.492   1.509   4.043  0.5141 -0.4825  0.1255
 4271SOL     OW16849   5.422   2.120   1.211  0.3234 -0.5887  0.7072
 4271SOL    HW216850   5.513   2.146   1.225 -0.0932  0.3121  1.8717
 4271SOL    HW316851   5.408   2.130   1.117  2.0451 -2.8410  0.1198
 4271SOL    MW416852   5.432   2.125   1.201  0.4956 -0.7670  0.7834
 4272SOL     OW16853   5.268   3.159   1.360 -0.2424  0.2663 -0.0048
 4272SOL    HW216854   5.219   3.233   1.325 -0.7427  0.5110  1.1754
 4272SOL    HW316855   5.242   3.154   1.452  0.5592 -0.7456  0.1851
 4272SOL    MW416856   5.258   3.168   1.367 -0.2026  0.1651  0.1760
 4273SOL     OW16857   5.941   2.063   0.199 -0.5061  0.2932 -0.4166
 4273SOL    HW216858   5.993   2.096   0.126 -0.4950  0.1223 -0.4863
 4273SOL    HW316859   5.857   2.107   0.191 -0.1114  1.1808  0.1609
 4273SOL    MW416860   5.937   2.073   0.189 -0.4525  0.3877 -0.3496
 4274SOL     OW16861   1.537   0.299   2.687 -0.6724 -0.6041  0.4893
 4274SOL    HW216862   1.613   0.296   2.629 -0.3011 -1.0089  0.9932
 4274SOL    HW316863   1.557   0.368   2.750 -0.5214 -1.0044  0.8886
 4274SOL    MW416864   1.550   0.308   2.688 -0.6035 -0.7103  0.6085
 4275SOL     OW16865   4.956   4.348   4.942 -0.2250 -0.4622 -0.1568
 4275SOL    HW216866   4.872   4.377   4.905  0.0533  1.8229  0.8353
 4275SOL    HW316867   5.007   4.319   4.867 -0.6711  1.4475 -1.2565
 4275SOL    MW416868   4.952   4.348   4.927 -0.2471  0.0912 -0.1710
 4276SOL     OW16869   3.570   5.451   1.338 -0.0904 -0.1013  0.1582
 4276SOL    HW216870   3.486   5.489   1.363 -0.2917  1.0001 -1.9092
 4276SOL    HW316871   3.631   5.482   1.404 -1.1958 -0.4836  1.4011
 4276SOL    MW416872   3.567   5.460   1.350 -0.2628 -0.0064  0.0494
 4277SOL     OW16873   4.623   0.402   0.505  0.6144  0.3769 -0.4410
 4277SOL    HW216874   4.713   0.381   0.481  0.6675  0.6135 -0.4527
 4277SOL    HW316875   4.570   0.333   0.466  0.8699 -0.2542  0.2915
 4277SOL    MW416876   4.628   0.390   0.497  0.6551  0.3248 -0.3459
 4278SOL     OW16877   0.397   1.819   1.513 -0.4988 -0.3801  0.0929
 4278SOL    HW216878   0.384   1.748   1.449  0.0457 -1.0214  0.6796
 4278SOL    HW316879   0.313   1.864   1.516 -0.2172  0.4270 -1.9637
 4278SOL    MW416880   0.384   1.816   1.505 -0.3898 -0.3582 -0.1010
 4279SOL     OW16881   3.922   0.710   1.469  0.0200 -0.7567  0.1843
 4279SOL    HW216882   3.970   0.679   1.392  0.6455 -0.7618  0.5697
 4279SOL    HW316883   3.906   0.803   1.452 -0.1336 -0.8321 -0.0949
 4279SOL    MW416884   3.926   0.718   1.456  0.0823 -0.7673  0.1983
 4280SOL     OW16885   1.738   2.298   4.292 -0.4703  0.1236  0.3614
 4280SOL    HW216886   1.655   2.263   4.325 -0.0384 -1.5181 -0.2103
 4280SOL    HW316887   1.742   2.269   4.201  1.6381 -1.6437  0.9228
 4280SOL    MW416888   1.728   2.290   4.284 -0.1351 -0.3262  0.3600
 4281SOL     OW16889   1.795   1.033   5.063  0.4762  0.5265  0.1847
 4281SOL    HW216890   1.843   1.040   4.981  0.9093  0.1787  0.4028
 4281SOL    HW316891   1.741   1.112   5.067  0.8247  0.7829 -0.1951
 4281SOL    MW416892   1.794   1.044   5.053  0.5793  0.5144  0.1633
 4282SOL     OW16893   4.691   0.482   2.567 -0.2073  0.4645  0.3601
 4282SOL    HW216894   4.638   0.562   2.568 -1.4135 -0.2932 -0.5191
 4282SOL    HW316895   4.771   0.506   2.614 -1.1306  1.7735  1.3432
 4282SOL    MW416896   4.695   0.496   2.573 -0.4883  0.5373  0.3739
 4283SOL     OW16897   1.166   6.126   0.670 -0.2356  0.1868  0.2625
 4283SOL    HW216898   1.196   6.079   0.593  1.1727  3.1679 -1.1926
 4283SOL    HW316899   1.089   6.175   0.640 -1.2626 -0.5813  1.5258
 4283SOL    MW416900   1.159   6.126   0.656 -0.1853  0.4788  0.2372
 4284SOL     OW16901   2.877   5.683   0.942 -0.0820  0.0824  0.2030
 4284SOL    HW216902   2.972   5.680   0.946 -0.0184  0.5452 -0.7095
 4284SOL    HW316903   2.857   5.706   0.851 -1.1023 -1.6355 -0.0518
 4284SOL    MW416904   2.887   5.686   0.931 -0.2082 -0.0832  0.0490
 4285SOL     OW16905   6.000   3.836   1.013 -0.3632  0.0019  0.2708
 4285SOL    HW216906   6.081   3.795   0.983 -0.9018 -0.6529 -0.3268
 4285SOL    HW316907   5.955   3.767   1.062 -0.6844  0.2696  0.3549
 4285SOL    MW416908   6.004   3.821   1.016 -0.4767 -0.0492  0.2031
 4286SOL     OW16909   4.597   1.793   6.298  0.1674 -0.6088  0.3305
 4286SOL    HW216910   4.524   1.739   6.326  0.6312 -0.8480  1.1152
 4286SOL    HW316911   4.673   1.758   6.344  1.0428 -1.1905 -1.4471
 4286SOL    MW416912   4.597   1.781   6.308  0.3441 -0.7171  0.1995
 4287SOL     OW16913   4.872   1.159   3.990  0.2748 -1.0579 -0.5323
 4287SOL    HW216914   4.845   1.074   4.026 -0.7358 -0.5246  0.0130
 4287SOL    HW316915   4.956   1.177   4.032  0.0159 -1.3284  0.1223
 4287SOL    MW416916   4.880   1.150   4.000  0.1073 -1.0232 -0.3740
 4288SOL     OW16917   2.979   3.619   1.216 -0.0645  0.3987 -0.1423
 4288SOL    HW216918   3.039   3.549   1.244 -0.6997 -0.2831 -0.4475
 4288SOL    HW316919   3.025   3.662   1.144  0.4954  0.5380  0.2925
 4288SOL    MW416920   2.993   3.615   1.210 -0.0745  0.3271 -0.1252
 4289SOL     OW16921   1.726   2.950   3.729 -0.6093 -0.3755  0.2030
 4289SOL    HW216922   1.792   2.986   3.789 -1.3511  0.3357  0.6072
 4289SOL    HW316923   1.667   3.023   3.712 -0.5945 -0.6452 -1.1676
 4289SOL    MW416924   1.727   2.965   3.735 -0.7052 -0.3173  0.0755
 4290SOL     OW16925   3.499   0.504   4.564  0.0116 -0.0453  0.2254
 4290SOL    HW216926   3.585   0.462   4.568  0.1369 -0.2018 -2.4872
 4290SOL    HW316927   3.440   0.440   4.604  0.8595 -0.8090  0.3067
 4290SOL    MW416928   3.503   0.490   4.570  0.1400 -0.1667 -0.1218
 4291SOL     OW16929   4.263   0.033   0.045 -0.1916 -0.0313  0.1731
 4291SOL    HW216930   4.195   0.097   0.020 -0.7099 -0.4191  0.5523
 4291SOL    HW316931   4.228  -0.051   0.016  0.1699 -0.2262  0.3016
 4291SOL    MW416932   4.249   0.031   0.038 -0.2123 -0.1081  0.2401
 4292SOL     OW16933   3.365   1.658   3.524  0.4291 -0.0167 -0.3238
 4292SOL    HW216934   3.403   1.686   3.607 -1.0036  0.8286  0.0726
 4292SOL    HW316935   3.349   1.564   3.535  0.0148  0.1375  0.4709
 4292SOL    MW416936   3.368   1.649   3.536  0.1854  0.1152 -0.1666
 4293SOL     OW16937   5.249   2.744   2.333  0.9354  0.5996  0.3016
 4293SOL    HW216938   5.161   2.733   2.369  2.0174 -1.6523  2.5182
 4293SOL    HW316939   5.288   2.814   2.384  1.7374 -1.1704  2.2790
 4293SOL    MW416940   5.242   2.751   2.344  1.1839  0.0690  0.8549
 4294SOL     OW16941   6.110   5.009   1.744 -0.0342 -0.1974 -0.1575
 4294SOL    HW216942   6.028   5.053   1.721  0.1182 -0.6275 -1.5783
 4294SOL    HW316943   6.088   4.959   1.823 -1.3689 -0.9314 -0.9578
 4294SOL    MW416944   6.096   5.008   1.751 -0.1902 -0.3510 -0.4505
 4295SOL     OW16945   5.743   0.944   3.489 -0.2593  0.1264 -0.1135
 4295SOL    HW216946   5.711   0.981   3.571 -0.7345  1.8865 -1.0549
 4295SOL    HW316947   5.670   0.953   3.428  0.4471 -0.1637 -1.0235
 4295SOL    MW416948   5.729   0.950   3.492 -0.2288  0.3204 -0.3578
 4296SOL     OW16949   0.545   1.060   1.322  0.7972  0.1060  0.6745
 4296SOL    HW216950   0.555   0.976   1.278  0.1690  0.7257 -0.7257
 4296SOL    HW316951   0.634   1.086   1.346  0.8974 -1.4396  2.1427
 4296SOL    MW416952   0.558   1.053   1.320  0.7275 -0.0162  0.6835
 4297SOL     OW16953   4.902   4.081   2.699 -0.2251  0.0287 -0.5269
 4297SOL    HW216954   4.984   4.031   2.706 -1.3582 -1.7203  1.1845
 4297SOL    HW316955   4.913   4.133   2.619  3.0893  0.9003  0.3115
 4297SOL    MW416956   4.914   4.082   2.689  0.0627 -0.0871 -0.1905
 4298SOL     OW16957   5.403   1.990   5.305 -0.3019 -0.0343  0.1674
 4298SOL    HW216958   5.477   2.029   5.351 -0.4060 -0.6905  0.9100
 4298SOL    HW316959   5.432   1.982   5.214  0.2821  0.3473  0.3203
 4298SOL    MW416960   5.417   1.994   5.299 -0.2386 -0.0706  0.2855
 4299SOL     OW16961   5.872   3.018   5.535 -0.0350  0.2447  0.2260
 4299SOL    HW216962   5.802   3.057   5.589  0.1562 -0.5522  1.0829
 4299SOL    HW316963   5.950   3.070   5.556  0.1563 -0.3871  1.1445
 4299SOL    MW416964   5.873   3.030   5.545  0.0155  0.0562  0.4603
 4300SOL     OW16965   3.162   2.363   3.347  0.8571 -0.7122  0.3689
 4300SOL    HW216966   3.113   2.326   3.421  0.5652  0.3326  0.7069
 4300SOL    HW316967   3.236   2.409   3.386  0.6444 -0.0637  0.0231
 4300SOL    MW416968   3.165   2.364   3.362  0.7905 -0.4888  0.3679
 4301SOL     OW16969   0.366   4.188   2.506 -0.2714 -0.1217 -0.0651
 4301SOL    HW216970   0.446   4.241   2.511  1.3477 -2.2970 -0.9992
 4301SOL    HW316971   0.376   4.124   2.577 -0.5132 -1.2409 -1.0194
 4301SOL    MW416972   0.378   4.186   2.516 -0.0897 -0.5563 -0.3143
 4302SOL     OW16973   5.958   0.662   1.596 -0.3994  0.1754 -0.1799
 4302SOL    HW216974   5.884   0.721   1.608 -1.2712 -0.8712 -0.2316
 4302SOL    HW316975   5.994   0.649   1.684 -1.2754 -0.5506  0.0851
 4302SOL    MW416976   5.953   0.668   1.609 -0.6300 -0.0584 -0.1517
 4303SOL     OW16977   1.778   1.516   2.463 -0.0485  0.5846 -0.0093
 4303SOL    HW216978   1.765   1.453   2.534  1.6644 -1.4107 -1.3366
 4303SOL    HW316979   1.809   1.595   2.506 -2.1505  0.5576  1.7093
 4303SOL    MW416980   1.781   1.518   2.478 -0.0999  0.3178  0.0423
 4304SOL     OW16981   5.160   3.546   0.205  0.2285  0.1326 -0.8447
 4304SOL    HW216982   5.068   3.555   0.230 -0.4477 -1.2895 -2.5534
 4304SOL    HW316983   5.180   3.454   0.219  1.6963  0.6031  0.3448
 4304SOL    MW416984   5.150   3.535   0.210  0.3330  0.0070 -0.9132
 4305SOL     OW16985   0.331   4.686   4.813 -0.3891 -0.2658  0.5030
 4305SOL    HW216986   0.391   4.746   4.770  0.5825 -0.4439  1.5688
 4305SOL    HW316987   0.267   4.742   4.856 -0.3313 -0.0370  0.2910
 4305SOL    MW416988   0.330   4.701   4.813 -0.2533 -0.2591  0.6156
 4306SOL     OW16989   0.678   0.956   0.301 -0.6620  0.9410 -0.2147
 4306SOL    HW216990   0.742   0.942   0.231 -0.9686  2.1957 -0.7794
 4306SOL    HW316991   0.702   1.040   0.339 -0.7277  0.4430  0.9659
 4306SOL    MW416992   0.690   0.965   0.297 -0.7111  1.0408 -0.1335
 4307SOL     OW16993   3.125   3.186   6.107  0.3864 -0.2117 -0.2818
 4307SOL    HW216994   3.188   3.254   6.079  0.6350 -0.8193 -1.2449
 4307SOL    HW316995   3.137   3.181   6.202  1.1757  0.2966 -0.3380
 4307SOL    MW416996   3.135   3.195   6.116  0.5233 -0.2248 -0.4163
 4308SOL     OW16997   0.873   5.121   1.646 -0.2594  0.3590 -0.2444
 4308SOL    HW216998   0.887   5.134   1.740  2.9612  2.2041 -0.8485
 4308SOL    HW316999   0.778   5.110   1.638 -0.6385 -0.1461  3.2126
 4308SOL    MW417000   0.862   5.121   1.657  0.1155  0.5358  0.1320
 4309SOL     OW17001   4.238   0.494   2.633 -0.4114 -0.1188  0.4136
 4309SOL    HW217002   4.181   0.464   2.703 -1.9780 -0.1870 -0.8339
 4309SOL    HW317003   4.312   0.433   2.634 -0.7967 -0.5899  1.4847
 4309SOL    MW417004   4.240   0.482   2.642 -0.6689 -0.1900  0.3904
 4310SOL     OW17005   3.261   6.064   4.884 -0.1584  0.6848 -0.0415
 4310SOL    HW217006   3.199   6.136   4.880 -0.9998  0.0105  0.3541
 4310SOL    HW317007   3.310   6.078   4.965 -0.9242  0.3569  0.4937
 4310SOL    MW417008   3.259   6.075   4.894 -0.3705  0.5526  0.0813
 4311SOL     OW17009   3.404   4.538   2.219  0.1612 -0.1733  0.0641
 4311SOL    HW217010   3.473   4.501   2.163 -1.1786  0.0758 -1.8717
 4311SOL    HW317011   3.444   4.615   2.258  2.1304 -2.0257  1.9949
 4311SOL    MW417012   3.419   4.543   2.217  0.2443 -0.3849  0.0634
 4312SOL     OW17013   4.098   4.993   4.962  0.5245  0.1497  0.1885
 4312SOL    HW217014   4.184   4.977   4.923 -0.7226 -0.3598 -2.5815
 4312SOL    HW317015   4.066   5.072   4.920 -1.0776 -0.6451 -0.1848
 4312SOL    MW417016   4.105   5.001   4.952  0.1486 -0.0224 -0.2262
 4313SOL     OW17017   1.421   0.269   3.855  0.4385  0.3011  0.3953
 4313SOL    HW217018   1.364   0.343   3.874  0.0187  0.4649 -1.3059
 4313SOL    HW317019   1.363   0.204   3.815  1.2668  0.1220 -0.5610
 4313SOL    MW417020   1.406   0.270   3.852  0.4924  0.2991  0.0447
 4314SOL     OW17021   5.239   0.852   2.819  0.2031  0.0607  0.1032
 4314SOL    HW217022   5.258   0.945   2.815 -2.0127  0.6012  0.9367
 4314SOL    HW317023   5.218   0.828   2.728 -1.4438  0.9380  0.2094
 4314SOL    MW417024   5.239   0.861   2.806 -0.3065  0.2478  0.2272
 4315SOL     OW17025   0.742   2.566   6.307  0.5131  0.1884 -0.2769
 4315SOL    HW217026   0.827   2.521   6.299  1.1107  1.4349 -1.4016
 4315SOL    HW317027   0.707   2.567   6.218  0.2335  1.3881 -0.1700
 4315SOL    MW417028   0.749   2.560   6.294  0.5551  0.5111 -0.4112
 4316SOL     OW17029   5.393   2.955   5.363 -0.0720 -0.1575 -0.6066
 4316SOL    HW217030   5.354   2.896   5.427  0.8919 -0.5821 -0.3952
 4316SOL    HW317031   5.426   3.029   5.415 -0.1659 -0.0304 -0.7269
 4316SOL    MW417032   5.392   2.957   5.378  0.0428 -0.1967 -0.5946
 4317SOL     OW17033   1.882   0.645   1.044  0.4394  0.2896 -0.4024
 4317SOL    HW217034   1.869   0.599   0.961  1.4305 -2.4130  0.8259
 4317SOL    HW317035   1.796   0.682   1.064  0.0591  0.5966 -2.3450
 4317SOL    MW417036   1.869   0.644   1.035  0.5200 -0.0265 -0.4966
 4318SOL     OW17037   1.154   6.122   1.379  0.3349 -0.3459 -0.1857
 4318SOL    HW217038   1.095   6.176   1.432 -0.9254  0.1116 -1.9498
 4318SOL    HW317039   1.196   6.062   1.441  0.1092  1.1875  1.5101
 4318SOL    MW417040   1.152   6.121   1.394  0.1389 -0.0832 -0.1947
 4319SOL     OW17041   4.080   1.695   0.168  0.3922  0.1674 -0.0740
 4319SOL    HW217042   4.025   1.723   0.241 -1.1149 -1.7443 -0.4049
 4319SOL    HW317043   4.058   1.755   0.097  1.1157  1.3926  0.7002
 4319SOL    MW417044   4.070   1.706   0.169  0.2888  0.0768 -0.0155
 4320SOL     OW17045   0.669   6.283   0.721  0.2632 -0.3991 -0.2966
 4320SOL    HW217046   0.583   6.261   0.759 -0.1431 -1.3942 -1.6805
 4320SOL    HW317047   0.657   6.370   0.683 -1.0206 -1.5078 -2.7238
 4320SOL    MW417048   0.656   6.291   0.721  0.0402 -0.6766 -0.7994
 4321SOL     OW17049   4.193   4.149   5.591 -0.1973  0.6178 -0.1372
 4321SOL    HW217050   4.117   4.105   5.628  0.1905  1.3665  1.6383
 4321SOL    HW317051   4.161   4.234   5.561 -0.2257  0.5812 -0.2124
 4321SOL    MW417052   4.179   4.154   5.592 -0.1499  0.7117  0.0872
 4322SOL     OW17053   0.914   5.380   5.854 -0.7356 -0.5801 -0.0582
 4322SOL    HW217054   0.875   5.418   5.776 -0.9907 -1.1040 -0.1884
 4322SOL    HW317055   0.851   5.314   5.883  0.2434 -1.7720 -0.5356
 4322SOL    MW417056   0.901   5.376   5.848 -0.6401 -0.8064 -0.1384
 4323SOL     OW17057   1.836   0.295   3.061  0.0781 -0.3006 -0.6917
 4323SOL    HW217058   1.866   0.382   3.085 -1.6320  0.0301  0.4720
 4323SOL    HW317059   1.741   0.297   3.077  0.1799 -2.8020  0.8679
 4323SOL    MW417060   1.827   0.307   3.066 -0.1341 -0.5870 -0.3324
 4324SOL     OW17061   0.632   0.643   1.960  0.4073  0.6151  0.5746
 4324SOL    HW217062   0.619   0.737   1.947 -0.2163  0.1999 -2.4626
 4324SOL    HW317063   0.683   0.637   2.041 -1.6187  3.4016  2.2487
 4324SOL    MW417064   0.637   0.655   1.969  0.0577  0.9280  0.3948
 4325SOL     OW17065   6.281   1.166   2.733 -0.3199 -0.2594 -0.4035
 4325SOL    HW217066   6.340   1.100   2.770 -0.5992 -0.7890 -0.8913
 4325SOL    HW317067   6.236   1.121   2.662 -1.3365  0.1279 -0.0234
 4325SOL    MW417068   6.283   1.151   2.728 -0.4909 -0.2782 -0.4177
 4326SOL     OW17069   3.556   1.810   3.122 -0.0672  0.1449  0.0658
 4326SOL    HW217070   3.569   1.776   3.210 -0.5524 -0.9317 -0.2591
 4326SOL    HW317071   3.548   1.905   3.133 -2.8869 -0.1589  1.5535
 4326SOL    MW417072   3.557   1.818   3.135 -0.5032 -0.0373  0.2192
 4327SOL     OW17073   4.293   3.006   2.422  0.2582  0.5726 -0.2590
 4327SOL    HW217074   4.208   2.995   2.466  0.5161 -0.7519 -0.0744
 4327SOL    HW317075   4.315   2.919   2.389  1.8429  0.7728  0.2184
 4327SOL    MW417076   4.285   2.993   2.423  0.5013  0.4242 -0.1716
 4328SOL     OW17077   2.261   2.687   3.458 -0.2008  0.3110 -0.6537
 4328SOL    HW217078   2.253   2.749   3.530  1.0817  0.3178 -0.4893
 4328SOL    HW317079   2.180   2.635   3.461 -0.6448  1.0280  0.0939
 4328SOL    MW417080   2.249   2.688   3.468 -0.0902  0.4065 -0.5334
 4329SOL     OW17081   5.674   6.138   0.336 -0.3237 -0.5012  0.1714
 4329SOL    HW217082   5.703   6.070   0.397 -1.6776 -1.1300  0.1453
 4329SOL    HW317083   5.743   6.205   0.341 -0.4626 -0.4488  2.4936
 4329SOL    MW417084   5.687   6.138   0.345 -0.5206 -0.5772  0.4743
 4330SOL     OW17085   0.734   1.174   2.950  0.2794  0.5038 -0.7991
 4330SOL    HW217086   0.672   1.131   2.891 -0.1806  0.3116 -0.1867
 4330SOL    HW317087   0.764   1.104   3.008  0.7897  0.6755 -0.8556
 4330SOL    MW417088   0.730   1.159   2.950  0.2861  0.5011 -0.7258
 4331SOL     OW17089   4.648   3.496   4.712  0.4349 -0.2463 -0.5551
 4331SOL    HW217090   4.575   3.488   4.650  1.0342 -0.9466 -1.1882
 4331SOL    HW317091   4.630   3.428   4.777 -1.3848  1.8820  1.3661
 4331SOL    MW417092   4.636   3.486   4.712  0.2739 -0.0579 -0.3851
 4332SOL     OW17093   1.226   4.637   2.710 -0.3978 -0.0849  0.5205
 4332SOL    HW217094   1.301   4.692   2.732 -1.6385  1.3176  1.4435
 4332SOL    HW317095   1.155   4.670   2.765 -1.9392 -0.7605 -0.9570
 4332SOL    MW417096   1.227   4.649   2.720 -0.7648  0.0110  0.4473
 4333SOL     OW17097   4.940   2.598   4.588 -0.4786 -0.3520  0.6240
 4333SOL    HW217098   4.939   2.513   4.632 -0.3781 -0.3866  0.5610
 4333SOL    HW317099   5.023   2.637   4.614 -0.2468 -0.5331  0.1666
 4333SOL    MW417100   4.951   2.592   4.597 -0.4347 -0.3805  0.5553
 4334SOL     OW17101   6.378   0.992   4.989 -0.5917 -0.1115 -0.6850
 4334SOL    HW217102   6.335   1.001   5.074 -1.9255  3.9442 -1.5769
 4334SOL    HW317103   6.465   1.030   5.002 -0.3922 -0.4933 -0.8916
 4334SOL    MW417104   6.384   0.998   5.002 -0.7413  0.3732 -0.8299
 4335SOL     OW17105   4.951   1.739   3.382  0.0373  0.3035 -0.4467
 4335SOL    HW217106   4.955   1.690   3.300 -2.4535 -1.8398  0.5743
 4335SOL    HW317107   4.944   1.672   3.450  0.0092  2.0452  1.3659
 4335SOL    MW417108   4.950   1.724   3.380 -0.2950  0.2505 -0.0728
 4336SOL     OW17109   6.090   6.396   4.160  0.3260 -0.5137  0.0253
 4336SOL    HW217110   6.107   6.307   4.189 -1.5752 -0.9794 -0.1792
 4336SOL    HW317111   6.005   6.392   4.117  0.4072  1.3119 -0.4008
 4336SOL    MW417112   6.081   6.384   4.158  0.0859 -0.3343 -0.0579
 4337SOL     OW17113   2.575   5.905   2.868  0.2899  0.2266  0.1520
 4337SOL    HW217114   2.618   5.981   2.830 -2.4967  1.7214 -0.2662
 4337SOL    HW317115   2.509   5.880   2.804 -0.6779 -0.8292  1.4877
 4337SOL    MW417116   2.572   5.912   2.855 -0.2054  0.2845  0.2730
 4338SOL     OW17117   3.949   5.819   2.707  0.2965  0.0868 -0.0213
 4338SOL    HW217118   4.006   5.893   2.730  0.8382 -0.4029  0.2236
 4338SOL    HW317119   3.996   5.773   2.637  0.3619 -0.4997  0.3979
 4338SOL    MW417120   3.963   5.823   2.701  0.3766 -0.0552  0.0663
 4339SOL     OW17121   5.793   2.622   3.087  0.1607  0.0561 -0.3552
 4339SOL    HW217122   5.807   2.685   3.017 -0.5342  0.5615 -0.0524
 4339SOL    HW317123   5.879   2.610   3.127  0.3140  0.7262 -0.4815
 4339SOL    MW417124   5.806   2.629   3.083  0.0892  0.2112 -0.3319
 4340SOL     OW17125   4.052   1.491   4.402 -0.1444 -0.3619  0.2786
 4340SOL    HW217126   4.145   1.511   4.409 -0.2927  0.2110  0.6397
 4340SOL    HW317127   4.008   1.575   4.417 -0.7591 -0.8412  1.1936
 4340SOL    MW417128   4.058   1.505   4.405 -0.2451 -0.3496  0.4469
 4341SOL     OW17129   5.656   2.065   2.806 -0.2219 -0.3444 -0.4809
 4341SOL    HW217130   5.580   2.009   2.792 -1.2015  1.0233 -0.8533
 4341SOL    HW317131   5.643   2.138   2.746  0.5914  0.7145  0.5855
 4341SOL    MW417132   5.644   2.067   2.796 -0.2439 -0.0243 -0.3893
 4342SOL     OW17133   3.973   5.917   4.933 -0.8570 -0.0679  0.8480
 4342SOL    HW217134   3.919   5.845   4.899  0.5555 -0.5247 -0.5478
 4342SOL    HW317135   3.988   5.973   4.857 -1.3618  1.3674  1.7734
 4342SOL    MW417136   3.968   5.915   4.919 -0.7372  0.0612  0.7860
 4343SOL     OW17137   5.232   4.643   5.174  0.5865  0.2245 -0.0900
 4343SOL    HW217138   5.192   4.624   5.089 -0.5215  0.8789  0.2741
 4343SOL    HW317139   5.198   4.575   5.232  0.2961  0.5533  0.1297
 4343SOL    MW417140   5.222   4.631   5.170  0.4020  0.3542 -0.0130
 4344SOL     OW17141   2.513   6.213   1.557 -0.2712 -0.1797  0.6327
 4344SOL    HW217142   2.562   6.167   1.625 -0.3559 -1.3460 -0.0755
 4344SOL    HW317143   2.503   6.149   1.487 -1.1516  0.6503 -0.0243
 4344SOL    MW417144   2.518   6.199   1.557 -0.3985 -0.2241  0.4526
 4345SOL     OW17145   1.431   0.897   1.388  0.2401 -0.0160  0.2579
 4345SOL    HW217146   1.461   0.828   1.328 -0.3374  0.8408 -1.0606
 4345SOL    HW317147   1.379   0.956   1.333 -0.7116  0.5580  1.7113
 4345SOL    MW417148   1.428   0.896   1.373  0.0384  0.1727  0.2757
 4346SOL     OW17149   5.746   5.996   1.273  0.0283  0.1594  0.2526
 4346SOL    HW217150   5.792   5.953   1.201  1.3468  0.9949  0.5631
 4346SOL    HW317151   5.769   5.944   1.350  1.2977  1.1323  0.5640
 4346SOL    MW417152   5.755   5.984   1.274  0.3697  0.3980  0.3346
 4347SOL     OW17153   0.809   1.634   5.573  0.4408  0.5044  0.5001
 4347SOL    HW217154   0.859   1.697   5.519  0.2911 -2.5256 -3.6857
 4347SOL    HW317155   0.720   1.638   5.538  0.3656 -1.6980  0.2953
 4347SOL    MW417156   0.804   1.643   5.561  0.4111 -0.1860 -0.0792
 4348SOL     OW17157   4.563   3.739   4.366  0.0114  0.1894 -0.3180
 4348SOL    HW217158   4.643   3.686   4.366 -0.4104 -0.5204  1.8563
 4348SOL    HW317159   4.511   3.702   4.295  0.9993 -0.2817 -0.8234
 4348SOL    MW417160   4.567   3.727   4.356  0.0861  0.0336 -0.0978
 4349SOL     OW17161   2.388   4.613   4.296  0.6802  0.4856  0.5692
 4349SOL    HW217162   2.404   4.562   4.375  0.8733 -0.2163  0.0853
 4349SOL    HW317163   2.475   4.629   4.259  0.5521  0.2795  0.1735
 4349SOL    MW417164   2.402   4.609   4.302  0.6888  0.3658  0.4532
 4350SOL     OW17165   6.035   1.934   6.051  0.7277  0.4805 -0.0281
 4350SOL    HW217166   5.996   1.866   5.996  1.2978  1.7929 -2.1657
 4350SOL    HW317167   6.112   1.964   6.002  1.9471  0.9643  2.0405
 4350SOL    MW417168   6.040   1.929   6.037  0.9638  0.7175 -0.0372
 4351SOL     OW17169   2.209   1.654   0.362  0.4198 -0.3486  0.0699
 4351SOL    HW217170   2.232   1.744   0.383  1.4917 -0.6801  0.3975
 4351SOL    HW317171   2.160   1.660   0.280  4.1711  0.2746 -2.4230
 4351SOL    MW417172   2.206   1.666   0.354  1.0562 -0.3101 -0.2158
 4352SOL     OW17173   3.921   2.039   6.078  0.2852 -0.0031  0.0782
 4352SOL    HW217174   3.854   2.066   6.141  1.1703  0.5084  0.8186
 4352SOL    HW317175   3.926   1.944   6.088 -0.0205  0.0052  0.3316
 4352SOL    MW417176   3.913   2.030   6.087  0.3616  0.0655  0.2094
 4353SOL     OW17177   3.956   3.050   3.042 -0.1252 -0.0296 -0.6514
 4353SOL    HW217178   3.869   3.081   3.017 -1.0945 -0.5317  1.7437
 4353SOL    HW317179   3.980   2.985   2.976 -1.7233 -0.1291 -1.1595
 4353SOL    MW417180   3.948   3.046   3.030 -0.4639 -0.1090 -0.4025
 4354SOL     OW17181   0.931   5.437   2.357 -0.0604  0.4431  0.3148
 4354SOL    HW217182   0.859   5.377   2.376  0.9473 -0.5917  1.0398
 4354SOL    HW317183   0.919   5.461   2.265 -1.1269  0.0122  0.3333
 4354SOL    MW417184   0.920   5.432   2.347 -0.0682  0.2497  0.4129
 4355SOL     OW17185   3.987   3.418   5.623 -0.0812  0.1953  0.1198
 4355SOL    HW217186   3.943   3.413   5.539  0.5298  0.1733 -0.2018
 4355SOL    HW317187   3.998   3.327   5.650 -1.7513  0.2115  1.0219
 4355SOL    MW417188   3.983   3.405   5.616 -0.2209  0.1946  0.1964
 4356SOL     OW17189   5.397   0.285   2.825  0.0729 -0.0739 -0.0424
 4356SOL    HW217190   5.333   0.256   2.761  1.3658 -0.2618 -1.2901
 4356SOL    HW317191   5.477   0.301   2.775  0.6227  1.5427  1.2381
 4356SOL    MW417192   5.399   0.284   2.810  0.3160  0.1146 -0.0381
 4357SOL     OW17193   2.822   5.365   3.805  0.2648 -0.7800  0.8018
 4357SOL    HW217194   2.801   5.399   3.892  0.3970  2.1915 -0.2311
 4357SOL    HW317195   2.917   5.377   3.798  0.4017 -1.9068  0.5675
 4357SOL    MW417196   2.832   5.371   3.816  0.3003 -0.5366  0.6346
 4358SOL     OW17197   3.814   0.144   3.152 -0.0852  0.2065 -0.6127
 4358SOL    HW217198   3.765   0.101   3.222  1.4997 -0.8932 -0.1248
 4358SOL    HW317199   3.774   0.111   3.072 -0.5956 -0.1165 -0.2370
 4358SOL    MW417200   3.802   0.134   3.151  0.0566  0.0188 -0.4987
 4359SOL     OW17201   1.613   2.658   1.266  0.5246  0.3857  0.0048
 4359SOL    HW217202   1.601   2.729   1.204  0.6974 -0.5328 -1.1218
 4359SOL    HW317203   1.573   2.582   1.224 -1.2073  0.1450  1.9152
 4359SOL    MW417204   1.606   2.657   1.253  0.3189  0.2327  0.1082
 4360SOL     OW17205   0.645   3.728   1.017  0.7301 -0.1047  0.7046
 4360SOL    HW217206   0.739   3.710   1.022  1.0701  1.5215  0.7493
 4360SOL    HW317207   0.636   3.819   1.046 -0.7985 -0.0730  0.2369
 4360SOL    MW417208   0.656   3.738   1.021  0.5733  0.1141  0.6488
 4361SOL     OW17209   4.310   2.222   5.647  0.1833 -0.6088  0.1414
 4361SOL    HW217210   4.301   2.315   5.667  0.5899 -0.7086  0.8125
 4361SOL    HW317211   4.222   2.193   5.624  0.1708  0.0924 -0.7513
 4361SOL    MW417212   4.297   2.230   5.646  0.2353 -0.5294  0.1122
 4362SOL     OW17213   1.201   3.821   2.765  0.6145 -0.3922 -0.2112
 4362SOL    HW217214   1.289   3.784   2.765  0.1948 -1.4135 -0.7741
 4362SOL    HW317215   1.148   3.758   2.717 -0.4891  0.0721  0.3599
 4362SOL    MW417216   1.206   3.808   2.759  0.4135 -0.4657 -0.2101
 4363SOL     OW17217   3.009   3.442   2.125  0.1319 -0.4082  0.0824
 4363SOL    HW217218   3.045   3.461   2.212 -1.0727  0.1847  0.4696
 4363SOL    HW317219   3.081   3.460   2.065  0.8905 -0.5378  0.9278
 4363SOL    MW417220   3.024   3.447   2.129  0.0731 -0.3471  0.2450
 4364SOL     OW17221   0.229   3.244   3.440 -0.7219  0.3468 -0.0908
 4364SOL    HW217222   0.150   3.239   3.493 -0.1341  2.3336  1.0829
 4364SOL    HW317223   0.270   3.158   3.450 -1.6354  0.0216  1.0755
 4364SOL    MW417224   0.224   3.232   3.448 -0.7649  0.5660  0.2179
 4365SOL     OW17225   0.893   5.795   0.336 -0.9457  0.1124  0.0856
 4365SOL    HW217226   0.901   5.747   0.254  2.8601  0.9279 -0.2319
 4365SOL    HW317227   0.942   5.743   0.400  0.1208  1.6794  0.6238
 4365SOL    MW417228   0.901   5.782   0.334 -0.3029  0.4267  0.1147
 4366SOL     OW17229   4.163   6.409   2.787  0.3143 -0.5644  0.2075
 4366SOL    HW217230   4.176   6.342   2.854  0.2507 -1.2317 -0.4292
 4366SOL    HW317231   4.252   6.433   2.760  0.3274 -0.8185  0.0239
 4366SOL    MW417232   4.177   6.403   2.792  0.3076 -0.6859  0.0992
 4367SOL     OW17233   2.744   0.743   4.935 -0.6262 -0.1806 -0.0036
 4367SOL    HW217234   2.691   0.746   5.014 -1.6764 -0.8993 -0.6487
 4367SOL    HW317235   2.683   0.714   4.866  0.2043  0.5971 -1.1127
 4367SOL    MW417236   2.729   0.740   4.936 -0.6552 -0.1728 -0.2350
 4368SOL     OW17237   4.816   6.449   0.460  0.6927  0.4718  0.3032
 4368SOL    HW217238   4.827   6.385   0.389  0.5733  2.3963 -1.5597
 4368SOL    HW317239   4.762   6.404   0.525 -0.3976 -0.9263 -1.4845
 4368SOL    MW417240   4.810   6.435   0.459  0.5331  0.5413 -0.1784
 4369SOL     OW17241   3.472   5.211   5.091 -0.6507  0.1149 -0.3909
 4369SOL    HW217242   3.508   5.297   5.072 -0.8941  0.1431 -0.7316
 4369SOL    HW317243   3.548   5.158   5.115 -0.3717  0.1564 -1.1614
 4369SOL    MW417244   3.487   5.215   5.092 -0.6460  0.1241 -0.5375
 4370SOL     OW17245   0.610   3.509   2.129 -0.3299 -0.2385  0.1937
 4370SOL    HW217246   0.636   3.459   2.052  1.6848  0.5553  0.2676
 4370SOL    HW317247   0.642   3.598   2.111 -0.3555  0.1019  1.6772
 4370SOL    MW417248   0.618   3.514   2.117 -0.0675 -0.0888  0.3992
 4371SOL     OW17249   1.776   4.153   2.800 -0.0169  0.0441  0.7423
 4371SOL    HW217250   1.841   4.177   2.734 -0.5605 -0.2571  0.0792
 4371SOL    HW317251   1.748   4.065   2.774 -0.0324 -0.1969  1.5488
 4371SOL    MW417252   1.781   4.145   2.788 -0.0906 -0.0275  0.7612
 4372SOL     OW17253   3.685   5.191   2.986  0.2431  0.5667 -0.0594
 4372SOL    HW217254   3.699   5.253   2.914 -0.6569  1.0071  0.1211
 4372SOL    HW317255   3.730   5.230   3.061 -0.3180  1.0142  0.0529
 4372SOL    MW417256   3.692   5.204   2.986  0.0503  0.6839 -0.0208
 4373SOL     OW17257   0.153   6.424   2.392 -0.5187  0.0725  0.1645
 4373SOL    HW217258   0.126   6.345   2.344 -0.2138 -0.0774  0.2413
 4373SOL    HW317259   0.193   6.391   2.472  1.6934  0.1995 -0.8077
 4373SOL    MW417260   0.155   6.409   2.396 -0.1866  0.0695  0.0463
 4374SOL     OW17261   0.602   0.950   4.407  0.5836 -0.2100 -0.0777
 4374SOL    HW217262   0.594   1.029   4.354  2.1702  0.1434  0.1807
 4374SOL    HW317263   0.616   0.880   4.343 -0.5640 -0.2703 -0.2891
 4374SOL    MW417264   0.603   0.951   4.391  0.6416 -0.1713 -0.0715
 4375SOL     OW17265   1.358   4.622   0.115  0.5270 -0.2448  0.4804
 4375SOL    HW217266   1.337   4.693   0.175 -1.5318  0.3572 -0.8439
 4375SOL    HW317267   1.331   4.543   0.161 -0.7178  0.1826  0.5068
 4375SOL    MW417268   1.352   4.621   0.129  0.0911 -0.1090  0.3092
 4376SOL     OW17269   0.070   0.631   1.617 -0.0854  0.0635  0.4507
 4376SOL    HW217270  -0.011   0.582   1.603 -0.4094  0.5638  0.5085
 4376SOL    HW317271   0.097   0.608   1.706  0.7985 -1.4516 -0.1869
 4376SOL    MW417272   0.063   0.622   1.627 -0.0115 -0.0704  0.3742
 4377SOL     OW17273   2.439   5.744   5.327  0.2536 -0.1792 -0.1156
 4377SOL    HW217274   2.465   5.715   5.240  0.4526  1.0642 -0.4924
 4377SOL    HW317275   2.521   5.767   5.370  0.0436  0.7421 -0.1848
 4377SOL    MW417276   2.453   5.744   5.321  0.2522  0.1064 -0.1744
 4378SOL     OW17277   4.643   1.826   1.318  0.0901  0.6639  0.5445
 4378SOL    HW217278   4.737   1.807   1.315 -0.1967 -0.9645  0.9685
 4378SOL    HW317279   4.636   1.895   1.384  0.9614  0.6402  0.6854
 4378SOL    MW417280   4.655   1.833   1.327  0.1672  0.4459  0.6190
 4379SOL     OW17281   4.527   5.196   6.317 -0.6031  0.5485 -0.4139
 4379SOL    HW217282   4.436   5.211   6.342  0.1788  3.8229  0.9691
 4379SOL    HW317283   4.551   5.114   6.360 -2.7772 -0.2205 -0.5759
 4379SOL    MW417284   4.518   5.187   6.326 -0.7868  0.8791 -0.2528
 4380SOL     OW17285   2.020   3.773   4.231 -0.2379 -0.9045 -0.7013
 4380SOL    HW217286   1.931   3.789   4.262  0.2577 -0.7944  0.7404
 4380SOL    HW317287   2.027   3.825   4.151 -1.6728 -1.4544 -1.2148
 4380SOL    MW417288   2.009   3.782   4.224 -0.3618 -0.9626 -0.5789
 4381SOL     OW17289   5.670   4.735   3.713 -0.2470 -0.6870  0.4788
 4381SOL    HW217290   5.729   4.808   3.694  0.8525 -1.3655  1.1640
 4381SOL    HW317291   5.604   4.773   3.772 -0.0947 -0.0839  0.2704
 4381SOL    MW417292   5.669   4.750   3.719 -0.0819 -0.6969  0.5417
 4382SOL     OW17293   1.626   6.440   3.827 -0.1439 -0.5472 -0.0494
 4382SOL    HW217294   1.668   6.519   3.794  1.3321 -1.1032  0.4538
 4382SOL    HW317295   1.564   6.415   3.758 -0.8239  1.1554 -0.1140
 4382SOL    MW417296   1.623   6.447   3.813 -0.0389 -0.3959  0.0085
 4383SOL     OW17297   6.421   0.042   0.414 -0.0956 -0.1696 -0.1653
 4383SOL    HW217298   6.360   0.108   0.380 -2.5588 -2.1749  0.0871
 4383SOL    HW317299   6.507   0.082   0.402 -1.3808  2.7369 -0.7568
 4383SOL    MW417300   6.424   0.056   0.408 -0.5902 -0.0507 -0.2100
 4384SOL     OW17301   2.607   4.203   0.727 -0.2843  0.1712  0.1106
 4384SOL    HW217302   2.645   4.288   0.709 -0.2048 -0.0830 -0.9793
 4384SOL    HW317303   2.581   4.207   0.819 -1.0057  1.6474 -0.1389
 4384SOL    MW417304   2.608   4.215   0.737 -0.3690  0.3324 -0.0661
 4385SOL     OW17305   0.581   1.758   5.948 -0.2842  0.1773  0.2907
 4385SOL    HW217306   0.553   1.666   5.954  1.1843 -0.3463 -0.5090
 4385SOL    HW317307   0.671   1.754   5.918 -0.5192  1.9231 -0.8040
 4385SOL    MW417308   0.589   1.745   5.945 -0.1215  0.3386  0.0408
 4386SOL     OW17309   4.126   2.102   0.115  0.9384 -0.0977  0.5864
 4386SOL    HW217310   4.184   2.163   0.069  0.0221  0.5103  0.2074
 4386SOL    HW317311   4.069   2.158   0.167 -0.1117 -0.5909  0.0047
 4386SOL    MW417312   4.126   2.117   0.116  0.6790 -0.0825  0.4596
 4387SOL     OW17313   3.086   2.260   0.354  0.4430 -0.7795  0.0537
 4387SOL    HW217314   3.117   2.275   0.443  2.4692 -2.3729 -0.3141
 4387SOL    HW317315   3.107   2.168   0.336 -0.0201 -0.5382 -2.0226
 4387SOL    MW417316   3.093   2.250   0.363  0.6492 -0.9579 -0.2688
 4388SOL     OW17317   3.470   3.839   1.013 -0.3591  0.0252  0.4799
 4388SOL    HW217318   3.477   3.833   0.917  0.6483  0.0717  0.5406
 4388SOL    HW317319   3.503   3.927   1.034  0.0618 -0.2374  0.9249
 4388SOL    MW417320   3.475   3.850   1.003 -0.1707 -0.0033  0.5466
 4389SOL     OW17321   5.778   3.384   5.705  0.0034  0.0541 -0.5441
 4389SOL    HW217322   5.845   3.411   5.643  0.4926 -0.7261 -0.3800
 4389SOL    HW317323   5.826   3.365   5.786 -0.5390  0.4161 -0.1286
 4389SOL    MW417324   5.793   3.385   5.708 -0.0036 -0.0011 -0.4676
 4390SOL     OW17325   0.406   4.916   2.668 -0.7776  0.2947 -0.0876
 4390SOL    HW217326   0.482   4.859   2.682  0.3598  1.5672 -0.8802
 4390SOL    HW317327   0.337   4.876   2.720 -0.1859 -2.1242 -1.0216
 4390SOL    MW417328   0.407   4.903   2.677 -0.5495  0.1434 -0.3154
 4391SOL     OW17329   5.182   2.117   1.976 -0.0166 -0.1404 -0.4053
 4391SOL    HW217330   5.119   2.089   2.042  0.7250 -0.6453  0.1075
 4391SOL    HW317331   5.148   2.201   1.945 -0.6270 -0.1193  0.2789
 4391SOL    MW417332   5.169   2.125   1.981  0.0007 -0.2043 -0.2474
 4392SOL     OW17333   3.551   4.798   5.142 -0.3904  0.2845 -0.0170
 4392SOL    HW217334   3.628   4.755   5.104  0.2181  0.7376  0.6793
 4392SOL    HW317335   3.524   4.739   5.213  0.5001  1.0616  0.9988
 4392SOL    MW417336   3.558   4.784   5.147 -0.1926  0.4468  0.2089
 4393SOL     OW17337   2.784   1.963   4.382 -0.0469 -0.2912 -0.4356
 4393SOL    HW217338   2.756   1.887   4.331 -0.3221 -0.2983 -0.2738
 4393SOL    HW317339   2.753   1.946   4.470  0.0568 -0.0778 -0.3571
 4393SOL    MW417340   2.776   1.951   4.387 -0.0695 -0.2640 -0.4039
 4394SOL     OW17341   6.310   1.631   5.590 -0.2796  0.1489 -0.0970
 4394SOL    HW217342   6.326   1.587   5.673  1.5574  0.0469 -0.4626
 4394SOL    HW317343   6.355   1.715   5.598 -2.6628  1.5212  0.1133
 4394SOL    MW417344   6.318   1.636   5.602 -0.3517  0.3165 -0.1175
 4395SOL     OW17345   2.082   0.511   3.071 -0.3977  0.1874 -0.1363
 4395SOL    HW217346   2.068   0.604   3.057 -0.8549  0.1037 -0.2706
 4395SOL    HW317347   2.065   0.470   2.986  1.4607  0.1338 -0.5206
 4395SOL    MW417348   2.078   0.518   3.058 -0.2128  0.1693 -0.2047
 4396SOL     OW17349   2.099   5.209   5.234  0.7369 -0.0142  0.4189
 4396SOL    HW217350   2.050   5.206   5.152  1.0457 -0.3458  0.2460
 4396SOL    HW317351   2.037   5.177   5.300  0.5096  0.1902  0.3073
 4396SOL    MW417352   2.084   5.204   5.232  0.7476 -0.0310  0.3813
 4397SOL     OW17353   1.958   6.308   5.288 -0.1901  0.1304 -0.0181
 4397SOL    HW217354   1.951   6.213   5.285  0.1875 -0.1551  3.8271
 4397SOL    HW317355   1.867   6.338   5.286 -0.6336 -0.6897  2.9174
 4397SOL    MW417356   1.945   6.300   5.287 -0.1988 -0.0155  0.8765
 4398SOL     OW17357   5.149   0.595   5.665  0.4442  0.2327  0.0843
 4398SOL    HW217358   5.219   0.651   5.633  0.5830  1.3600  2.2369
 4398SOL    HW317359   5.069   0.642   5.643  0.5702  1.5196  2.1905
 4398SOL    MW417360   5.148   0.608   5.658  0.4792  0.5513  0.6462
 4399SOL     OW17361   5.139   3.933   2.675 -0.3595  0.3957  0.0575
 4399SOL    HW217362   5.096   3.848   2.685  2.0199 -0.9130 -0.0030
 4399SOL    HW317363   5.196   3.940   2.752  0.7306  1.1268 -0.7834
 4399SOL    MW417364   5.141   3.923   2.687  0.0982  0.3195 -0.0614
 4400SOL     OW17365   3.989   5.123   2.298  0.4984 -0.3089  0.1125
 4400SOL    HW217366   4.066   5.072   2.271  0.9161  0.3344  0.0634
 4400SOL    HW317367   3.917   5.087   2.246  0.7323 -1.0181  0.2692
 4400SOL    MW417368   3.990   5.112   2.287  0.5844 -0.3176  0.1267
 4401SOL     OW17369   3.183   0.630   2.957 -0.2082 -0.1764 -0.8081
 4401SOL    HW217370   3.185   0.557   2.895 -0.5961  0.1508 -1.2066
 4401SOL    HW317371   3.100   0.619   3.004 -0.4233  0.1952 -1.0965
 4401SOL    MW417372   3.173   0.619   2.955 -0.2877 -0.0842 -0.8987
 4402SOL     OW17373   4.565   4.595   1.313 -0.1217 -0.5000  0.0720
 4402SOL    HW217374   4.543   4.637   1.230 -1.9018 -0.4113  0.5562
 4402SOL    HW317375   4.481   4.581   1.356  0.7465 -0.8206  1.7424
 4402SOL    MW417376   4.551   4.598   1.308 -0.2420 -0.5306  0.3563
 4403SOL     OW17377   4.414   3.962   4.790  0.1979 -0.3763 -0.1138
 4403SOL    HW217378   4.491   4.019   4.789  1.4038 -1.7135  2.9474
 4403SOL    HW317379   4.425   3.906   4.713  2.6677 -0.8857  0.5206
 4403SOL    MW417380   4.426   3.962   4.780  0.6829 -0.6199  0.3738
 4404SOL     OW17381   0.303   4.758   5.561  0.3992  0.1803  0.2790
 4404SOL    HW217382   0.349   4.803   5.632  1.7157  0.3473 -0.6479
 4404SOL    HW317383   0.356   4.682   5.542 -1.7663 -1.8549  1.7751
 4404SOL    MW417384   0.316   4.754   5.568  0.2872 -0.0662  0.3541
 4405SOL     OW17385   4.734   4.505   4.834  0.5418  0.3708 -0.2046
 4405SOL    HW217386   4.666   4.453   4.876  2.2191 -0.9464  1.0405
 4405SOL    HW317387   4.757   4.455   4.756  1.3633 -0.2021  0.3875
 4405SOL    MW417388   4.728   4.491   4.829  0.8715  0.1214  0.0378
 4406SOL     OW17389   2.322   0.932   2.391 -0.9299  0.1547 -0.1955
 4406SOL    HW217390   2.274   0.980   2.458 -0.1576  1.0776 -0.2861
 4406SOL    HW317391   2.399   0.897   2.438 -0.5088  0.6080 -0.5451
 4406SOL    MW417392   2.326   0.934   2.406 -0.7724  0.3363 -0.2536
 4407SOL     OW17393   3.359   3.089   0.552 -0.4633 -0.3904  0.2902
 4407SOL    HW217394   3.342   3.037   0.630  1.2236 -0.1290  0.8654
 4407SOL    HW317395   3.298   3.162   0.559  0.4944  0.3051  2.0563
 4407SOL    MW417396   3.349   3.092   0.563 -0.1144 -0.2642  0.5991
 4408SOL     OW17397   4.740   1.709   1.941 -0.1943 -0.3295  0.3022
 4408SOL    HW217398   4.773   1.799   1.953 -0.7158 -0.1793  0.6227
 4408SOL    HW317399   4.756   1.667   2.025 -1.1420 -0.1504  0.5818
 4408SOL    MW417400   4.747   1.716   1.954 -0.3882 -0.2861  0.3814
 4409SOL     OW17401   5.666   3.141   4.382  0.1017 -0.2837 -0.1166
 4409SOL    HW217402   5.611   3.109   4.454 -1.4648  2.2486 -0.0895
 4409SOL    HW317403   5.606   3.190   4.326  1.7225 -0.3300 -1.9873
 4409SOL    MW417404   5.651   3.143   4.384  0.1088  0.0443 -0.3599
 4410SOL     OW17405   4.579   6.358   2.082  0.5269 -0.4095 -0.0995
 4410SOL    HW217406   4.575   6.282   2.024  0.3032  0.4255 -1.2072
 4410SOL    HW317407   4.493   6.361   2.124  0.5516 -0.7881 -0.0165
 4410SOL    MW417408   4.567   6.348   2.080  0.5006 -0.3493 -0.2347
 4411SOL     OW17409   1.737   3.563   5.657  0.1849 -0.4296  0.1052
 4411SOL    HW217410   1.734   3.642   5.711 -3.2901 -1.6229  2.0233
 4411SOL    HW317411   1.773   3.496   5.716 -1.0913 -1.1753  0.0670
 4411SOL    MW417412   1.742   3.564   5.672 -0.4420 -0.6854  0.3533
 4412SOL     OW17413   4.379   0.704   2.269 -0.1141 -0.0322 -0.4566
 4412SOL    HW217414   4.450   0.716   2.205  0.4121  0.7750  0.2560
 4412SOL    HW317415   4.390   0.776   2.330  0.3442 -1.6362  1.4369
 4412SOL    MW417416   4.390   0.715   2.268  0.0158 -0.1373 -0.1128
 4413SOL     OW17417   2.671   0.072   0.740 -0.1549  0.1814 -0.0210
 4413SOL    HW217418   2.745   0.023   0.704  1.1013  1.3089  0.9507
 4413SOL    HW317419   2.628   0.111   0.663 -0.8407 -1.8966 -0.7567
 4413SOL    MW417420   2.675   0.071   0.725 -0.0796  0.0560  0.0101
 4414SOL     OW17421   5.487   3.701   4.874  0.1049 -0.3795 -0.3047
 4414SOL    HW217422   5.527   3.763   4.935 -1.3319 -0.2369  0.5304
 4414SOL    HW317423   5.477   3.751   4.793  1.0208 -0.2339 -0.3416
 4414SOL    MW417424   5.491   3.716   4.871  0.0361 -0.3415 -0.1994
 4415SOL     OW17425   3.020   3.109   4.700  0.1377  0.5888  0.9017
 4415SOL    HW217426   3.065   3.110   4.615 -1.0175 -0.1866  0.2457
 4415SOL    HW317427   3.065   3.042   4.751 -0.7503 -0.7996 -0.0553
 4415SOL    MW417428   3.031   3.100   4.695 -0.1318  0.3033  0.6889
 4416SOL     OW17429   2.748   4.499   2.297 -0.0586 -0.1696  0.3480
 4416SOL    HW217430   2.697   4.443   2.238  0.4202 -0.4988  0.2428
 4416SOL    HW317431   2.682   4.549   2.345 -0.5527 -1.4300  1.0476
 4416SOL    MW417432   2.732   4.498   2.296 -0.0606 -0.3793  0.4265
 4417SOL     OW17433   5.517   4.850   0.458  0.0862 -0.0127  0.2297
 4417SOL    HW217434   5.504   4.854   0.553 -1.2155  1.5076  0.0306
 4417SOL    HW317435   5.476   4.767   0.432 -0.9590  0.2915  0.8263
 4417SOL    MW417436   5.510   4.840   0.467 -0.2234  0.2280  0.2822
 4418SOL     OW17437   4.614   4.399   0.564  0.0353 -0.3358 -0.2448
 4418SOL    HW217438   4.604   4.459   0.638  0.6736 -0.4116 -0.0937
 4418SOL    HW317439   4.640   4.316   0.604  0.4384 -0.3612 -0.5618
 4418SOL    MW417440   4.616   4.396   0.579  0.1727 -0.3491 -0.2667
 4419SOL     OW17441   4.066   5.338   1.208  0.0170  0.6260 -0.0155
 4419SOL    HW217442   4.092   5.394   1.134 -0.7607  1.0543  0.0267
 4419SOL    HW317443   4.147   5.325   1.258  0.6841 -0.1340 -1.2395
 4419SOL    MW417444   4.080   5.343   1.205  0.0024  0.5822 -0.1715
 4420SOL     OW17445   0.906   2.051   1.203  0.4048  0.4267 -0.0289
 4420SOL    HW217446   0.881   2.143   1.207  0.4895  0.4524 -0.0840
 4420SOL    HW317447   0.956   2.043   1.122 -0.7034  0.0524 -0.6874
 4420SOL    MW417448   0.909   2.062   1.193  0.2697  0.3807 -0.1231
 4421SOL     OW17449   6.378   3.471   6.319 -0.6665 -0.5151 -0.3344
 4421SOL    HW217450   6.433   3.545   6.346 -0.6312 -0.5989 -0.1745
 4421SOL    HW317451   6.422   3.436   6.241 -0.3980 -0.6828 -0.1125
 4421SOL    MW417452   6.391   3.476   6.312 -0.6265 -0.5483 -0.2841
 4422SOL     OW17453   3.233   0.380   4.586  0.0547  0.5247 -0.0427
 4422SOL    HW217454   3.199   0.442   4.650  0.1570 -0.3312  0.8608
 4422SOL    HW317455   3.155   0.340   4.548  0.0106  0.4273  0.1515
 4422SOL    MW417456   3.218   0.383   4.589  0.0624  0.3989  0.1021
 4423SOL     OW17457   5.633   1.050   1.103 -0.4006 -0.1586  0.0425
 4423SOL    HW217458   5.590   1.010   1.027 -0.0701 -0.9057  0.2399
 4423SOL    HW317459   5.697   0.985   1.132 -0.0811  0.3794  0.5818
 4423SOL    MW417460   5.636   1.036   1.097 -0.3149 -0.1862  0.1397
 4424SOL     OW17461   0.111   1.696   2.609  0.3073  0.3657 -0.3678
 4424SOL    HW217462   0.047   1.643   2.657  1.0453 -1.5943 -1.4159
 4424SOL    HW317463   0.096   1.673   2.517  2.5150 -0.2060 -0.6498
 4424SOL    MW417464   0.100   1.686   2.603  0.6960  0.0317 -0.5433
 4425SOL     OW17465   5.981   1.142   0.827  0.7817  0.0039  0.0707
 4425SOL    HW217466   6.023   1.179   0.749  1.4650 -0.2951  0.2862
 4425SOL    HW317467   6.047   1.083   0.864  0.0701 -0.6955  0.2716
 4425SOL    MW417468   5.995   1.139   0.821  0.7779 -0.1279  0.1256
 4426SOL     OW17469   2.723   4.385   1.404  0.1748  0.0033 -1.3471
 4426SOL    HW217470   2.642   4.334   1.403  0.0775  0.1336 -0.3617
 4426SOL    HW317471   2.756   4.376   1.493  0.8953  0.5103 -1.5584
 4426SOL    MW417472   2.717   4.377   1.415  0.2570  0.0874 -1.2450
 4427SOL     OW17473   3.682   2.624   5.634  0.3284  0.4648 -0.0380
 4427SOL    HW217474   3.765   2.668   5.651 -0.5877  2.2645  0.0793
 4427SOL    HW317475   3.663   2.643   5.543 -0.1855  0.4917  0.0719
 4427SOL    MW417476   3.690   2.632   5.624  0.1398  0.7058 -0.0080
 4428SOL     OW17477   0.731   5.123   2.227 -0.2904  0.0366 -0.4783
 4428SOL    HW217478   0.655   5.071   2.201 -0.1079  0.4986 -2.0421
 4428SOL    HW317479   0.711   5.152   2.316 -0.4468 -2.5714  0.4262
 4428SOL    MW417480   0.718   5.120   2.235 -0.2870 -0.2465 -0.5653
 4429SOL     OW17481   6.140   1.774   0.829  0.2811 -0.6679 -0.7293
 4429SOL    HW217482   6.162   1.692   0.784  1.1306 -0.8491 -0.0083
 4429SOL    HW317483   6.099   1.745   0.911  0.6447 -0.3660 -0.4428
 4429SOL    MW417484   6.137   1.759   0.834  0.4412 -0.6520 -0.5964
 4430SOL     OW17485   1.269   5.383   0.986  0.1283  0.4305 -0.7352
 4430SOL    HW217486   1.186   5.342   1.011  1.1961 -1.8544 -0.6425
 4430SOL    HW317487   1.250   5.476   0.982 -2.2427  0.0416  0.0345
 4430SOL    MW417488   1.256   5.390   0.989 -0.0436  0.0777 -0.6214
 4431SOL     OW17489   5.346   3.670   1.115 -0.2112  0.0848  0.0954
 4431SOL    HW217490   5.396   3.628   1.045 -2.0632 -0.5465 -0.8990
 4431SOL    HW317491   5.270   3.708   1.071 -1.4044 -0.2948  1.7467
 4431SOL    MW417492   5.343   3.669   1.100 -0.6130 -0.0486  0.1820
 4432SOL     OW17493   0.260   4.933   4.285 -0.0345  0.2992  0.1807
 4432SOL    HW217494   0.342   4.897   4.252  0.5926  0.4648  1.5003
 4432SOL    HW317495   0.253   4.901   4.375 -0.5850  1.6065  0.6399
 4432SOL    MW417496   0.270   4.924   4.292 -0.0244  0.4935  0.4154
 4433SOL     OW17497   3.634   6.143   3.313  0.1128  0.3405  0.5286
 4433SOL    HW217498   3.591   6.091   3.245 -0.4091  2.5436 -0.9342
 4433SOL    HW317499   3.684   6.080   3.364 -0.3924 -1.5558 -1.2072
 4433SOL    MW417500   3.635   6.128   3.311 -0.0227  0.3809  0.1066
 4434SOL     OW17501   5.395   4.568   0.808  0.0721  0.2019 -0.1027
 4434SOL    HW217502   5.300   4.574   0.792 -0.3055 -0.8779  1.5364
 4434SOL    HW317503   5.402   4.527   0.894  2.0731 -0.8691 -0.7405
 4434SOL    MW417504   5.383   4.564   0.817  0.2863 -0.0819  0.0294
 4435SOL     OW17505   5.332   1.763   5.454  0.0524 -0.0873 -0.1567
 4435SOL    HW217506   5.329   1.727   5.365 -1.1739 -1.2472  0.3294
 4435SOL    HW317507   5.336   1.858   5.440 -0.2151 -0.2414 -1.4623
 4435SOL    MW417508   5.332   1.771   5.440 -0.1447 -0.2607 -0.2648
 4436SOL     OW17509   0.242   2.809   2.633  0.3106 -0.8325  0.0386
 4436SOL    HW217510   0.289   2.726   2.638 -0.7287 -1.3784  1.9204
 4436SOL    HW317511   0.172   2.794   2.570 -0.0810 -1.5261  0.6241
 4436SOL    MW417512   0.239   2.796   2.626  0.1218 -0.9960  0.3641
 4437SOL     OW17513   0.537   1.177   1.878  0.2051 -0.0391  0.4852
 4437SOL    HW217514   0.445   1.155   1.860  0.2373  0.1987  0.0002
 4437SOL    HW317515   0.533   1.262   1.921  0.2529  0.5856 -0.6923
 4437SOL    MW417516   0.524   1.186   1.881  0.2157  0.0747  0.2659
 4438SOL     OW17517   0.074   4.275   6.324  0.1648 -0.4095  0.0411
 4438SOL    HW217518  -0.017   4.279   6.297  0.7891 -1.6740 -2.5517
 4438SOL    HW317519   0.074   4.213   6.397 -1.0430 -0.3101  0.1490
 4438SOL    MW417520   0.062   4.267   6.330  0.0878 -0.5632 -0.2868
 4439SOL     OW17521   4.707   3.242   1.036  0.3975  0.1018 -0.4544
 4439SOL    HW217522   4.721   3.184   0.961 -1.6944 -2.1858  0.7873
 4439SOL    HW317523   4.619   3.278   1.022 -0.2006 -0.6984  1.0574
 4439SOL    MW417524   4.697   3.239   1.024  0.0426 -0.3056 -0.0911
 4440SOL     OW17525   5.187   1.376   5.396  0.2139  0.4055 -0.4306
 4440SOL    HW217526   5.216   1.442   5.332 -1.4854  0.3342 -1.3071
 4440SOL    HW317527   5.232   1.401   5.477  1.5104  1.1769 -1.3384
 4440SOL    MW417528   5.197   1.388   5.398  0.1608  0.4979 -0.6660
 4441SOL     OW17529   3.399   0.676   4.916 -0.1309 -0.0619  0.2296
 4441SOL    HW217530   3.367   0.766   4.916  0.3660  0.1233 -0.7283
 4441SOL    HW317531   3.479   0.679   4.864 -0.0551 -1.0440  0.2743
 4441SOL    MW417532   3.406   0.688   4.909 -0.0553 -0.1671  0.1091
 4442SOL     OW17533   1.665   5.641   1.972 -0.2299  0.6841 -0.5545
 4442SOL    HW217534   1.615   5.702   2.027  1.7464  1.2036  0.7906
 4442SOL    HW317535   1.658   5.557   2.018  0.5473  0.8789 -0.0671
 4442SOL    MW417536   1.657   5.638   1.986  0.1334  0.7783 -0.3128
 4443SOL     OW17537   5.569   2.436   0.810  0.3009 -0.1270 -0.1452
 4443SOL    HW217538   5.581   2.346   0.841 -0.3078 -0.1055  0.1623
 4443SOL    HW317539   5.497   2.470   0.863  0.9598  0.7633  0.1992
 4443SOL    MW417540   5.561   2.429   0.821  0.3075 -0.0067 -0.0592
 4444SOL     OW17541   5.885   4.234   0.083  0.3200 -0.1742  0.3831
 4444SOL    HW217542   5.907   4.310   0.137  2.6225 -0.9002  0.5448
 4444SOL    HW317543   5.791   4.244   0.066  0.3390  2.1338  1.2579
 4444SOL    MW417544   5.875   4.245   0.088  0.6263  0.0345  0.5199
 4445SOL     OW17545   2.395   2.059   6.387 -0.0254  0.6815 -0.1993
 4445SOL    HW217546   2.346   2.133   6.351 -2.3811 -0.7096 -0.0464
 4445SOL    HW317547   2.486   2.077   6.363 -0.7733  2.5981 -1.9139
 4445SOL    MW417548   2.401   2.071   6.379 -0.4349  0.7508 -0.4054
 4446SOL     OW17549   4.295   3.322   0.560  0.3146 -0.4432 -0.5809
 4446SOL    HW217550   4.303   3.415   0.580  2.0878 -0.0406 -2.7848
 4446SOL    HW317551   4.310   3.278   0.644  2.6996  1.2033 -0.0427
 4446SOL    MW417552   4.298   3.328   0.574  0.8632 -0.1729 -0.8007
 4447SOL     OW17553   4.797   1.266   5.226 -0.2340  0.5804 -0.2807
 4447SOL    HW217554   4.806   1.173   5.208 -1.5613  0.4112 -0.1490
 4447SOL    HW317555   4.775   1.271   5.318  0.1366  1.0553 -0.2123
 4447SOL    MW417556   4.796   1.255   5.235 -0.3602  0.6208 -0.2543
 4448SOL     OW17557   2.438   6.275   0.310  0.2783  0.0647  0.2671
 4448SOL    HW217558   2.511   6.214   0.303  0.1830 -0.0226  0.0031
 4448SOL    HW317559   2.410   6.269   0.401  0.7774  0.3062  0.4408
 4448SOL    MW417560   2.444   6.266   0.321  0.3316  0.0850  0.2552
 4449SOL     OW17561   2.467   4.978   2.031 -0.0938 -1.0323  0.1091
 4449SOL    HW217562   2.550   4.970   1.983 -0.1489  0.7349 -0.3450
 4449SOL    HW317563   2.451   5.072   2.036 -1.5611 -1.2997  1.1103
 4449SOL    MW417564   2.476   4.989   2.026 -0.2946 -0.8345  0.1813
 4450SOL     OW17565   3.495   2.629   6.172  1.0589 -0.3801  0.4379
 4450SOL    HW217566   3.412   2.647   6.216  0.4563 -1.0042 -0.4142
 4450SOL    HW317567   3.471   2.579   6.094  2.1653  0.1558 -0.2749
 4450SOL    MW417568   3.481   2.625   6.168  1.1254 -0.3918  0.2315
 4451SOL     OW17569   1.888   0.980   0.353 -0.1510  0.3282  0.4451
 4451SOL    HW217570   1.855   0.895   0.382 -1.9014  1.4427  2.0099
 4451SOL    HW317571   1.816   1.018   0.302  0.2389  1.1970  0.5146
 4451SOL    MW417572   1.874   0.974   0.350 -0.3305  0.5899  0.6607
 4452SOL     OW17573   2.812   4.116   5.422 -0.2935 -0.1990 -0.1128
 4452SOL    HW217574   2.751   4.183   5.453 -0.6827 -0.9488  0.7910
 4452SOL    HW317575   2.757   4.040   5.406  0.2571 -0.5546 -0.3385
 4452SOL    MW417576   2.797   4.115   5.424 -0.2722 -0.3449 -0.0233
 4453SOL     OW17577   1.918   4.497   3.490 -0.2802  0.3776 -0.1343
 4453SOL    HW217578   1.918   4.512   3.395  1.4803 -0.4482 -0.3003
 4453SOL    HW317579   1.889   4.406   3.500 -1.7133  0.8489  0.2362
 4453SOL    MW417580   1.915   4.487   3.479 -0.2370  0.3308 -0.1073
 4454SOL     OW17581   2.287   1.666   1.720  0.6507  0.1662  0.5106
 4454SOL    HW217582   2.214   1.627   1.670  0.0708  1.7679  0.0560
 4454SOL    HW317583   2.344   1.592   1.740 -0.9069 -1.0848  0.5425
 4454SOL    MW417584   2.285   1.651   1.716  0.3687  0.2125  0.4548
 4455SOL     OW17585   2.616   4.542   0.281 -0.4891  0.1026  0.2003
 4455SOL    HW217586   2.708   4.555   0.300  0.2049 -2.7662 -0.6890
 4455SOL    HW317587   2.575   4.531   0.367  0.0409  0.9199  0.5757
 4455SOL    MW417588   2.623   4.542   0.295 -0.3276 -0.1681  0.1325
 4456SOL     OW17589   1.377   0.939   1.993  0.2004 -0.0728  0.4836
 4456SOL    HW217590   1.377   0.902   1.905  1.2937  0.6365  0.1583
 4456SOL    HW317591   1.339   1.026   1.983  1.0567  0.3253  0.5454
 4456SOL    MW417592   1.372   0.946   1.980  0.4576  0.0733  0.4489
 4457SOL     OW17593   3.416   2.961   1.613  0.1627 -0.7632  0.2909
 4457SOL    HW217594   3.378   2.985   1.529  2.2120  1.6007 -0.0759
 4457SOL    HW317595   3.437   2.867   1.604 -0.1066 -0.6834 -1.6399
 4457SOL    MW417596   3.414   2.951   1.601  0.3976 -0.4408 -0.0122
 4458SOL     OW17597   3.767   2.751   2.021 -0.3042 -0.0663  0.0069
 4458SOL    HW217598   3.683   2.715   2.050 -0.6948  1.9429  1.5866
 4458SOL    HW317599   3.745   2.837   1.985  1.1233  0.8622  1.2458
 4458SOL    MW417600   3.753   2.758   2.020 -0.1674  0.3213  0.3788
 4459SOL     OW17601   4.471   1.483   0.352  0.4008 -0.5367  0.5884
 4459SOL    HW217602   4.380   1.485   0.322 -0.1052 -1.8240  1.9614
 4459SOL    HW317603   4.501   1.395   0.333  1.4974 -0.0374 -0.1232
 4459SOL    MW417604   4.463   1.472   0.345  0.4787 -0.6407  0.6757
 4460SOL     OW17605   5.928   4.965   2.318 -0.6449 -0.2347  0.5802
 4460SOL    HW217606   5.921   4.896   2.383  1.2499 -0.5512  0.4837
 4460SOL    HW317607   6.012   5.007   2.335 -0.5344  0.2915 -1.0705
 4460SOL    MW417608   5.938   4.962   2.329 -0.3803 -0.2070  0.3497
 4461SOL     OW17609   1.056   3.865   3.034  0.1319 -0.6225 -0.5083
 4461SOL    HW217610   0.983   3.808   3.009 -1.4483  1.1705 -0.2142
 4461SOL    HW317611   1.120   3.852   2.965 -0.0306 -2.9376 -0.3029
 4461SOL    MW417612   1.054   3.855   3.022 -0.0981 -0.6914 -0.4424
 4462SOL     OW17613   0.664   2.190   6.153  0.1233 -0.7522 -0.4810
 4462SOL    HW217614   0.722   2.143   6.213  0.3704 -0.0167 -0.1368
 4462SOL    HW317615   0.700   2.172   6.066  0.0746 -1.3890 -0.3724
 4462SOL    MW417616   0.676   2.182   6.149  0.1495 -0.7392 -0.4213
 4463SOL     OW17617   1.328   3.302   3.947  0.2798  0.2787 -1.1965
 4463SOL    HW217618   1.394   3.328   4.011 -1.0888  2.0752 -0.4212
 4463SOL    HW317619   1.310   3.381   3.897 -1.9963  0.1555 -0.6878
 4463SOL    MW417620   1.334   3.316   3.949 -0.2010  0.4995 -1.0271
 4464SOL     OW17621   5.301   2.609   4.133  0.0684 -0.4665  0.2148
 4464SOL    HW217622   5.278   2.626   4.042  0.7767  1.3753  0.3409
 4464SOL    HW317623   5.311   2.514   4.138 -0.7581 -0.6728 -1.4236
 4464SOL    MW417624   5.300   2.599   4.122  0.0528 -0.2507  0.0153
 4465SOL     OW17625   6.304   2.205   5.717 -0.3669  0.0497  0.6105
 4465SOL    HW217626   6.336   2.295   5.724 -0.6608  0.4228 -1.7860
 4465SOL    HW317627   6.214   2.215   5.685 -0.7068 -1.1008  1.1707
 4465SOL    MW417628   6.296   2.218   5.713 -0.4505 -0.0529  0.3682
 4466SOL     OW17629   0.016   3.037   4.980  0.0064  0.7065  0.7164
 4466SOL    HW217630   0.026   2.985   5.060  2.2509 -0.3124 -0.1564
 4466SOL    HW317631   0.049   3.124   5.004 -0.6037  0.8023  1.2451
 4466SOL    MW417632   0.022   3.042   4.994  0.2221  0.5847  0.6710
 4467SOL     OW17633   5.404   0.369   3.790 -0.4751 -0.2767 -0.2647
 4467SOL    HW217634   5.442   0.455   3.772 -0.9698  0.3690  1.5328
 4467SOL    HW317635   5.319   0.388   3.829  0.1915 -1.4773  1.9448
 4467SOL    MW417636   5.398   0.383   3.793 -0.4524 -0.3499  0.2640
 4468SOL     OW17637   4.554   4.551   5.246 -0.0650 -0.3638 -0.1295
 4468SOL    HW217638   4.573   4.514   5.332  0.7441 -0.0219 -0.1518
 4468SOL    HW317639   4.624   4.518   5.190 -0.4476 -0.3824 -0.6060
 4468SOL    MW417640   4.566   4.541   5.250 -0.0087 -0.3211 -0.1953
 4469SOL     OW17641   5.353   0.469   5.811 -0.1074  0.4147  0.0270
 4469SOL    HW217642   5.397   0.541   5.855  0.3172 -0.4503  1.0408
 4469SOL    HW317643   5.284   0.511   5.759  1.8025  1.7898 -1.5339
 4469SOL    MW417644   5.350   0.484   5.810  0.2006  0.4820 -0.0452
 4470SOL     OW17645   3.101   5.434   1.067  0.1599 -0.7115  0.3712
 4470SOL    HW217646   3.185   5.476   1.045 -1.1377  1.5106 -0.7236
 4470SOL    HW317647   3.073   5.477   1.147 -1.3653  0.8985 -0.9602
 4470SOL    MW417648   3.109   5.445   1.074 -0.2126 -0.2059  0.0511
 4471SOL     OW17649   2.180   0.181   0.923  0.2467 -0.0046 -0.0957
 4471SOL    HW217650   2.147   0.247   0.985  0.4847  0.0999 -0.0802
 4471SOL    HW317651   2.224   0.233   0.856  1.7737 -0.2230  0.7058
 4471SOL    MW417652   2.181   0.197   0.923  0.4796 -0.0197  0.0121
 4472SOL     OW17653   0.248   2.014   5.808 -0.3556  0.0637 -0.1496
 4472SOL    HW217654   0.198   2.049   5.733 -1.0269 -0.6457 -0.0418
 4472SOL    HW317655   0.259   2.090   5.866 -3.4913 -0.2055  1.0128
 4472SOL    MW417656   0.243   2.029   5.805 -0.8579 -0.0654  0.0180
 4473SOL     OW17657   1.816   1.127   5.869  0.0221 -0.6205  0.1922
 4473SOL    HW217658   1.756   1.128   5.795 -0.1518  0.2059  0.3388
 4473SOL    HW317659   1.769   1.079   5.937 -0.4972  0.0646  0.3227
 4473SOL    MW417660   1.802   1.121   5.868 -0.0694 -0.4211  0.2288
 4474SOL     OW17661   4.791   2.565   0.842  0.4049 -0.0615 -0.3180
 4474SOL    HW217662   4.789   2.599   0.932  0.7398  0.6794 -0.5796
 4474SOL    HW317663   4.871   2.603   0.804  1.6312 -2.3395 -0.1824
 4474SOL    MW417664   4.801   2.575   0.849  0.6109 -0.2643 -0.3346
 4475SOL     OW17665   3.626   1.496   4.300 -0.1812 -0.0218  0.1784
 4475SOL    HW217666   3.628   1.486   4.205  2.7605 -1.5505  0.3050
 4475SOL    HW317667   3.702   1.551   4.320 -2.5781  3.1288  1.5156
 4475SOL    MW417668   3.636   1.502   4.290 -0.1093  0.1922  0.3715
 4476SOL     OW17669   0.979   5.857   5.077 -0.2296 -0.0160 -0.0597
 4476SOL    HW217670   0.884   5.857   5.073 -0.2810 -2.3281 -0.3901
 4476SOL    HW317671   1.007   5.852   4.986  0.1470 -0.5453  0.0751
 4476SOL    MW417672   0.970   5.856   5.065 -0.1867 -0.3909 -0.0855
 4477SOL     OW17673   4.488   3.364   2.194 -0.2745 -0.0274 -0.0424
 4477SOL    HW217674   4.448   3.283   2.162 -0.7744  0.8028 -1.6542
 4477SOL    HW317675   4.572   3.368   2.149  0.1988 -0.1122  0.8017
 4477SOL    MW417676   4.494   3.354   2.184 -0.2780  0.0709 -0.1437
 4478SOL     OW17677   1.015   5.672   5.944 -0.5417  0.6926 -0.2310
 4478SOL    HW217678   0.989   5.596   5.892  1.6832 -0.4376  0.2042
 4478SOL    HW317679   1.110   5.677   5.934 -0.4108  2.2635  1.3184
 4478SOL    MW417680   1.024   5.662   5.936 -0.2309  0.7507  0.0308
 4479SOL     OW17681   3.497   1.134   1.094 -0.6038 -0.5796  0.1780
 4479SOL    HW217682   3.494   1.228   1.111 -0.8304 -0.6168  0.3539
 4479SOL    HW317683   3.459   1.094   1.172  2.2721 -0.9936  1.4833
 4479SOL    MW417684   3.491   1.141   1.106 -0.2543 -0.6392  0.3734
 4480SOL     OW17685   2.066   0.068   1.193  0.0533  0.2500 -0.2651
 4480SOL    HW217686   2.143   0.084   1.247  0.6629  2.2038 -1.6293
 4480SOL    HW317687   1.994   0.106   1.243 -0.1796 -1.9806  1.2263
 4480SOL    MW417688   2.067   0.075   1.207  0.1030  0.2135 -0.2483
 4481SOL     OW17689   5.196   5.374   3.679 -0.2294 -0.3445 -0.1563
 4481SOL    HW217690   5.180   5.424   3.600  0.0798 -2.1603 -1.4437
 4481SOL    HW317691   5.196   5.282   3.650  0.6941 -1.0294  1.7992
 4481SOL    MW417692   5.194   5.368   3.665 -0.0668 -0.6744 -0.0682
 4482SOL     OW17693   3.565   1.603   3.329 -0.4108  0.0006  0.0728
 4482SOL    HW217694   3.512   1.616   3.408 -1.0124  0.6947 -0.4275
 4482SOL    HW317695   3.655   1.616   3.358 -0.6663  0.7715  0.5444
 4482SOL    MW417696   3.570   1.607   3.343 -0.5239  0.1939  0.0690
 4483SOL     OW17697   3.534   3.853   0.752 -0.3386 -0.0662  0.2707
 4483SOL    HW217698   3.515   3.773   0.702  1.3669 -1.2903  1.4541
 4483SOL    HW317699   3.527   3.924   0.687  0.2976 -1.4201 -1.3584
 4483SOL    MW417700   3.531   3.852   0.736 -0.0297 -0.4064  0.2119
 4484SOL     OW17701   2.734   0.507   3.988  0.1916 -0.1640 -0.2022
 4484SOL    HW217702   2.817   0.478   4.027  0.5404 -0.4454 -1.1237
 4484SOL    HW317703   2.759   0.543   3.902 -0.6764 -0.6075 -0.6555
 4484SOL    MW417704   2.748   0.508   3.982  0.1231 -0.2597 -0.3836
 4485SOL     OW17705   5.475   4.679   4.795  0.0912 -0.1491  0.3425
 4485SOL    HW217706   5.404   4.624   4.761 -0.3719  0.4895  0.2441
 4485SOL    HW317707   5.554   4.625   4.786  0.1899  0.3264 -2.7218
 4485SOL    MW417708   5.476   4.664   4.789  0.0431 -0.0021 -0.0748
 4486SOL     OW17709   2.100   5.389   2.696 -0.3268 -0.2720 -0.1932
 4486SOL    HW217710   2.015   5.403   2.654 -1.8195 -2.3088  1.8969
 4486SOL    HW317711   2.132   5.307   2.657  0.1894 -0.0478 -0.2364
 4486SOL    MW417712   2.093   5.380   2.685 -0.4556 -0.5112  0.0769
 4487SOL     OW17713   2.597   6.032   4.458 -0.3806  0.0551  0.3609
 4487SOL    HW217714   2.564   6.006   4.545 -0.7914  1.1580  0.5544
 4487SOL    HW317715   2.571   6.124   4.450  0.1975  0.1331 -0.6837
 4487SOL    MW417716   2.589   6.041   4.469 -0.3585  0.2109  0.2486
 4488SOL     OW17717   3.882   3.092   2.583  0.4114 -0.5519 -0.3848
 4488SOL    HW217718   3.818   3.021   2.576 -0.6479  0.3783 -0.4613
 4488SOL    HW317719   3.923   3.096   2.497 -1.6920  0.8628 -1.4230
 4488SOL    MW417720   3.879   3.083   2.571 -0.0059 -0.2425 -0.5319
 4489SOL     OW17721   6.073   1.459   2.286  0.1587  0.3215  0.5908
 4489SOL    HW217722   6.117   1.522   2.344  1.8031 -1.0222  0.8623
 4489SOL    HW317723   6.028   1.514   2.222  0.0864  1.8029  1.8572
 4489SOL    MW417724   6.073   1.475   2.285  0.3661  0.3397  0.7937
 4490SOL     OW17725   2.273   5.193   5.636 -0.0702 -0.7317 -0.6212
 4490SOL    HW217726   2.353   5.234   5.669  0.7779 -1.1157 -2.1009
 4490SOL    HW317727   2.251   5.128   5.702 -0.5770  1.0018  1.0051
 4490SOL    MW417728   2.280   5.190   5.649 -0.0251 -0.5536 -0.6018
 4491SOL     OW17729   1.993   4.827   1.981  0.1927 -0.4021 -0.0265
 4491SOL    HW217730   1.901   4.848   1.999  0.4830  0.5483  0.4334
 4491SOL    HW317731   2.008   4.745   2.028 -0.8430 -1.4334 -1.4419
 4491SOL    MW417732   1.983   4.819   1.990  0.0943 -0.4128 -0.1526
 4492SOL     OW17733   6.196   0.803   4.851  0.2417  0.8679 -0.4724
 4492SOL    HW217734   6.217   0.710   4.853  1.2440  1.0628 -1.1590
 4492SOL    HW317735   6.260   0.843   4.910 -0.1897  1.1239 -0.1712
 4492SOL    MW417736   6.207   0.796   4.859  0.3170  0.9274 -0.5233
 4493SOL     OW17737   2.842   6.143   5.771  1.1088  0.0459 -0.5593
 4493SOL    HW217738   2.824   6.096   5.852  1.5244  0.2978 -0.3124
 4493SOL    HW317739   2.762   6.135   5.719  0.0877  1.5577  0.6889
 4493SOL    MW417740   2.829   6.136   5.775  1.0289  0.2786 -0.3621
 4494SOL     OW17741   5.961   5.967   3.154  0.7700  0.2037  0.5307
 4494SOL    HW217742   5.942   6.037   3.092  0.1577 -0.2430  0.2122
 4494SOL    HW317743   5.888   5.970   3.216  0.6990 -0.2117  0.4657
 4494SOL    MW417744   5.949   5.977   3.154  0.6798  0.0900  0.4801
 4495SOL     OW17745   2.724   1.275   3.415 -0.5081 -0.4150  0.2390
 4495SOL    HW217746   2.660   1.270   3.486 -0.2771 -0.3324  0.4556
 4495SOL    HW317747   2.690   1.216   3.348  0.6928 -2.7326  1.5354
 4495SOL    MW417748   2.711   1.267   3.416 -0.3192 -0.7099  0.4386
 4496SOL     OW17749   4.408   5.238   0.397  0.4596 -0.1242 -0.2507
 4496SOL    HW217750   4.376   5.300   0.332  0.4652 -0.2512 -0.3745
 4496SOL    HW317751   4.416   5.155   0.349  1.9544  0.1312 -0.4808
 4496SOL    MW417752   4.405   5.235   0.382  0.6576 -0.1072 -0.2974
 4497SOL     OW17753   1.983   4.962   5.658 -0.4929 -0.1245 -0.8567
 4497SOL    HW217754   1.975   4.867   5.651 -0.0208 -0.0371 -3.0362
 4497SOL    HW317755   2.066   4.976   5.702 -0.1692 -0.7134 -1.2681
 4497SOL    MW417756   1.993   4.951   5.663 -0.3879 -0.1907 -1.1985
 4498SOL     OW17757   2.092   0.633   3.798 -0.2628 -0.2837  0.0992
 4498SOL    HW217758   2.060   0.543   3.794  1.0191 -0.7246 -1.5549
 4498SOL    HW317759   2.181   0.626   3.832 -0.4148  0.4621  0.6929
 4498SOL    MW417760   2.100   0.621   3.802 -0.1137 -0.2435 -0.0407
 4499SOL     OW17761   5.634   2.715   5.766 -0.2849  0.4100  0.2668
 4499SOL    HW217762   5.718   2.756   5.744  0.8934 -1.6176  0.6654
 4499SOL    HW317763   5.602   2.681   5.683  1.8662 -3.1683  0.6774
 4499SOL    MW417764   5.641   2.716   5.752  0.1544 -0.3297  0.3736
 4500SOL     OW17765   1.832   2.396   5.114  0.0224 -0.1996  0.4313
 4500SOL    HW217766   1.815   2.398   5.020 -2.8022 -1.6222  0.7907
 4500SOL    HW317767   1.913   2.346   5.122  0.0954 -0.4171 -1.2286
 4500SOL    MW417768   1.840   2.389   5.102 -0.3407 -0.4160  0.2597
 4501SOL     OW17769   1.431   3.525   3.350  0.1053 -0.1651 -0.1974
 4501SOL    HW217770   1.465   3.506   3.262 -1.9933 -0.6003 -0.9684
 4501SOL    HW317771   1.425   3.439   3.391  1.3705  0.0674  0.5227
 4501SOL    MW417772   1.435   3.511   3.343 -0.0047 -0.1918 -0.2041
 4502SOL     OW17773   1.052   3.927   1.109 -0.3207  0.2363 -0.4960
 4502SOL    HW217774   1.119   3.971   1.057  1.2079  0.2092  1.3362
 4502SOL    HW317775   0.995   3.998   1.138 -0.9456  0.3012 -1.8118
 4502SOL    MW417776   1.053   3.942   1.106 -0.2015  0.2413 -0.4279
 4503SOL     OW17777   1.973   4.273   5.570  1.1728  0.4641  0.8700
 4503SOL    HW217778   1.909   4.292   5.639  0.8234  0.2118  0.6157
 4503SOL    HW317779   1.924   4.281   5.488  1.5137  0.4591  0.6606
 4503SOL    MW417780   1.958   4.277   5.568  1.1717  0.4302  0.8088
 4504SOL     OW17781   4.613   4.153   2.477 -0.1890  0.2082  0.3687
 4504SOL    HW217782   4.621   4.224   2.540  1.5541 -0.2826  0.7463
 4504SOL    HW317783   4.595   4.075   2.530 -2.5876  0.3948 -0.0780
 4504SOL    MW417784   4.612   4.152   2.492 -0.2755  0.1681  0.3596
 4505SOL     OW17785   5.789   3.304   6.250  1.1040 -0.2412 -0.0683
 4505SOL    HW217786   5.864   3.256   6.284  0.5504  0.3509  2.1481
 4505SOL    HW317787   5.783   3.382   6.306 -1.7525 -0.7665  0.4999
 4505SOL    MW417788   5.799   3.308   6.262  0.6541 -0.2324  0.2991
 4506SOL     OW17789   0.791   4.654   4.133  0.1162 -0.1281  0.2418
 4506SOL    HW217790   0.735   4.731   4.122  2.4853  1.5042 -1.6291
 4506SOL    HW317791   0.861   4.683   4.192 -0.5843 -1.9349  2.0988
 4506SOL    MW417792   0.793   4.668   4.140  0.3364 -0.1511  0.2399
 4507SOL     OW17793   4.750   5.714   4.113 -0.2644  0.3548  0.2800
 4507SOL    HW217794   4.764   5.805   4.138  0.4141  0.5925 -0.9182
 4507SOL    HW317795   4.691   5.680   4.181 -1.4488  1.9862  0.1427
 4507SOL    MW417796   4.744   5.722   4.125 -0.3311  0.6014  0.1038
 4508SOL     OW17797   1.232   4.713   2.428 -0.3289 -0.6539  0.1108
 4508SOL    HW217798   1.191   4.630   2.404  0.6545 -1.0463 -0.2641
 4508SOL    HW317799   1.227   4.715   2.524 -2.0337 -0.2500  0.0358
 4508SOL    MW417800   1.226   4.702   2.438 -0.4241 -0.6523  0.0514
 4509SOL     OW17801   6.197   6.261   3.095 -0.0819 -0.3594  0.0123
 4509SOL    HW217802   6.212   6.310   3.176 -0.9993  0.1628 -0.1142
 4509SOL    HW317803   6.217   6.323   3.025 -1.6804  0.0143 -0.1502
 4509SOL    MW417804   6.201   6.275   3.097 -0.4138 -0.2412 -0.0258
 4510SOL     OW17805   0.245   5.872   1.040 -0.7452 -0.5651 -0.1796
 4510SOL    HW217806   0.159   5.915   1.038 -0.4270  0.2569  1.5771
 4510SOL    HW317807   0.225   5.778   1.041 -1.6417 -0.3785  0.3159
 4510SOL    MW417808   0.231   5.865   1.040 -0.8215 -0.4320  0.1175
 4511SOL     OW17809   5.843   3.813   0.773  0.1245 -0.4319 -0.2347
 4511SOL    HW217810   5.754   3.778   0.782  0.4769 -1.3552 -0.1986
 4511SOL    HW317811   5.873   3.825   0.863  0.3787 -1.0595 -0.2258
 4511SOL    MW417812   5.835   3.810   0.786  0.2045 -0.6365 -0.2288
 4512SOL     OW17813   4.041   3.349   2.712 -0.0113  0.3714  0.1959
 4512SOL    HW217814   4.050   3.257   2.735  1.0367  0.8535  1.8793
 4512SOL    HW317815   3.994   3.349   2.629 -0.8011 -1.6390  0.5964
 4512SOL    MW417816   4.036   3.337   2.704  0.0228  0.1697  0.4708
 4513SOL     OW17817   4.692   1.257   4.340  0.4568 -0.6502 -0.3801
 4513SOL    HW217818   4.649   1.191   4.395 -0.3551 -0.4358 -0.7425
 4513SOL    HW317819   4.675   1.228   4.251  1.0564 -0.5455 -0.5319
 4513SOL    MW417820   4.684   1.245   4.336  0.4288 -0.6081 -0.4479
 4514SOL     OW17821   2.674   0.189   4.819  0.2249 -0.6937  0.2336
 4514SOL    HW217822   2.647   0.178   4.911 -2.2051 -1.7520 -0.5301
 4514SOL    HW317823   2.629   0.268   4.790  1.3510 -0.1061  0.0521
 4514SOL    MW417824   2.664   0.198   4.828  0.0529 -0.7558  0.1089
 4515SOL     OW17825   6.159   5.956   5.522 -0.1700  0.5082 -0.5814
 4515SOL    HW217826   6.097   5.886   5.544  1.6360 -0.4380  2.0096
 4515SOL    HW317827   6.179   5.997   5.606  4.3085 -0.7122 -0.7967
 4515SOL    MW417828   6.153   5.952   5.536  0.6592  0.2223 -0.2679
 4516SOL     OW17829   0.092   5.489   4.906 -0.1599  0.1079 -0.9345
 4516SOL    HW217830   0.120   5.422   4.968 -1.7504 -0.8153 -1.1659
 4516SOL    HW317831  -0.004   5.485   4.907 -0.2724  1.6604 -1.7456
 4516SOL    MW417832   0.083   5.480   4.914 -0.3846  0.1909 -1.0720
 4517SOL     OW17833   5.458   4.821   3.953 -0.2754  0.3014  0.2458
 4517SOL    HW217834   5.376   4.845   3.996  0.8119  0.4062  2.4063
 4517SOL    HW317835   5.465   4.726   3.967  0.2513  0.3938  0.6490
 4517SOL    MW417836   5.448   4.811   3.961 -0.0625  0.3274  0.5841
 4518SOL     OW17837   4.491   2.132   1.019  0.3469  0.0721  0.6463
 4518SOL    HW217838   4.560   2.180   0.974  1.5930 -1.7302  0.5163
 4518SOL    HW317839   4.504   2.041   0.993 -2.3534 -0.2985  0.3117
 4518SOL    MW417840   4.502   2.126   1.010  0.1550 -0.2146  0.5850
 4519SOL     OW17841   1.570   5.476   4.037  0.3677  0.0676 -0.0347
 4519SOL    HW217842   1.595   5.384   4.034  1.5140  0.3998 -0.9969
 4519SOL    HW317843   1.610   5.508   4.118 -1.5057 -0.6555  1.2542
 4519SOL    MW417844   1.579   5.468   4.048  0.2718  0.0160  0.0084
 4520SOL     OW17845   0.787   0.687   2.209  0.0949  0.1103  0.2561
 4520SOL    HW217846   0.801   0.781   2.206 -0.9897  0.2523 -1.2403
 4520SOL    HW317847   0.875   0.650   2.199  0.3026  0.9858 -1.5568
 4520SOL    MW417848   0.801   0.694   2.208 -0.0208  0.2446 -0.1805
 4521SOL     OW17849   1.241   1.751   1.402 -0.5489 -0.4666 -0.0237
 4521SOL    HW217850   1.265   1.741   1.310  0.5348  1.3526  0.0185
 4521SOL    HW317851   1.320   1.786   1.444 -1.0918 -1.0302  1.5640
 4521SOL    MW417852   1.255   1.754   1.395 -0.4775 -0.3009  0.1913
 4522SOL     OW17853   0.690   2.744   2.213  0.3384  0.3594  0.5213
 4522SOL    HW217854   0.631   2.796   2.160 -0.0853 -1.2790 -0.7060
 4522SOL    HW317855   0.769   2.797   2.220 -0.4353  1.5932  0.2301
 4522SOL    MW417856   0.693   2.758   2.207  0.1805  0.3061  0.3210
 4523SOL     OW17857   3.689   0.650   0.380  0.0042 -0.5922 -0.2532
 4523SOL    HW217858   3.687   0.567   0.427  0.7056  0.8811  2.6294
 4523SOL    HW317859   3.658   0.715   0.444  1.2956  1.6088 -1.7128
 4523SOL    MW417860   3.685   0.648   0.395  0.2671 -0.1074 -0.0654
 4524SOL     OW17861   3.124   0.796   0.251  0.0753  0.1747  0.1477
 4524SOL    HW217862   3.147   0.883   0.283 -1.1466  0.8717 -0.8031
 4524SOL    HW317863   3.029   0.791   0.261  0.1858 -1.2764  0.7131
 4524SOL    MW417864   3.115   0.806   0.257 -0.0713  0.0752  0.0969
 4525SOL     OW17865   1.863   2.406   5.590 -0.9342  0.4639 -0.0985
 4525SOL    HW217866   1.916   2.421   5.668 -1.1690  1.8341 -0.1707
 4525SOL    HW317867   1.778   2.377   5.623 -1.5202  2.4699  0.2766
 4525SOL    MW417868   1.858   2.404   5.604 -1.0425  0.9094 -0.0585
 4526SOL     OW17869   0.345   2.713   6.361 -0.0967 -0.1515 -0.0089
 4526SOL    HW217870   0.379   2.637   6.313 -0.3561 -2.1151  2.7022
 4526SOL    HW317871   0.423   2.758   6.393  0.0456  0.1073 -0.7096
 4526SOL    MW417872   0.360   2.709   6.359 -0.1121 -0.3764  0.2564
 4527SOL     OW17873   2.217   4.838   4.171  0.6095 -0.0762  0.0616
 4527SOL    HW217874   2.264   4.836   4.088 -0.4776  0.3151 -0.5822
 4527SOL    HW317875   2.263   4.776   4.227  1.0395 -0.7320 -1.0018
 4527SOL    MW417876   2.229   4.830   4.168  0.5228 -0.1111 -0.1637
 4528SOL     OW17877   0.708   3.146   1.232 -0.4216 -0.4858 -0.0478
 4528SOL    HW217878   0.665   3.142   1.147 -0.1577 -1.9190 -0.1509
 4528SOL    HW317879   0.672   3.223   1.275 -1.0736 -0.1438 -1.1841
 4528SOL    MW417880   0.698   3.155   1.227 -0.4728 -0.6298 -0.2114
 4529SOL     OW17881   6.295   3.208   6.114  0.4579 -0.1804  0.1052
 4529SOL    HW217882   6.315   3.140   6.049  0.8881  0.0030  0.0382
 4529SOL    HW317883   6.325   3.170   6.197 -0.0532 -0.3981  0.1925
 4529SOL    MW417884   6.302   3.194   6.117  0.4472 -0.1850  0.1079
 4530SOL     OW17885   3.198   4.013   0.917  0.9142 -0.2747 -0.7698
 4530SOL    HW217886   3.236   4.018   1.005  1.5508  0.7848 -1.0978
 4530SOL    HW317887   3.273   4.009   0.858  0.5667  2.0182 -1.4381
 4530SOL    MW417888   3.213   4.013   0.921  0.9524  0.1676 -0.9012
 4531SOL     OW17889   2.218   3.114   4.229  0.0144  0.0933 -0.1682
 4531SOL    HW217890   2.300   3.116   4.180 -1.0035 -0.8337 -2.0315
 4531SOL    HW317891   2.200   3.205   4.250  1.9226  0.2468  1.0796
 4531SOL    MW417892   2.226   3.126   4.226  0.1318 -0.0088 -0.2494
 4532SOL     OW17893   3.473   2.951   5.129  0.6739 -0.1791 -0.4828
 4532SOL    HW217894   3.422   2.977   5.053  0.8021  0.9808 -0.1925
 4532SOL    HW317895   3.421   2.882   5.170 -1.6812  2.1640  0.8332
 4532SOL    MW417896   3.459   2.945   5.125  0.3801  0.2831 -0.2709
 4533SOL     OW17897   4.953   4.456   3.661  0.2858 -0.0111 -0.4117
 4533SOL    HW217898   4.923   4.398   3.731 -0.1936 -0.4713 -0.9871
 4533SOL    HW317899   4.929   4.410   3.581  0.7948  0.5304 -0.8802
 4533SOL    MW417900   4.946   4.442   3.660  0.2897 -0.0004 -0.5494
 4534SOL     OW17901   6.321   4.473   1.560  0.3414  0.6252  0.0170
 4534SOL    HW217902   6.387   4.484   1.491  0.3590  0.0152 -0.0624
 4534SOL    HW317903   6.255   4.416   1.522  0.3236  0.3301  0.4824
 4534SOL    MW417904   6.321   4.467   1.546  0.3414  0.5058  0.0679
 4535SOL     OW17905   0.392   0.984   3.658 -0.0885 -0.3270  0.2522
 4535SOL    HW217906   0.434   1.025   3.734  1.4094  1.6441 -1.5063
 4535SOL    HW317907   0.350   1.057   3.612 -1.8742 -1.6326 -0.3214
 4535SOL    MW417908   0.392   0.999   3.662 -0.1265 -0.2392 -0.0555
 4536SOL     OW17909   0.017   5.070   4.300 -0.7142 -0.5019  0.3984
 4536SOL    HW217910   0.020   5.111   4.387 -2.6855 -0.6713  0.5939
 4536SOL    HW317911   0.094   5.014   4.298  1.5245  2.3298  0.5168
 4536SOL    MW417912   0.028   5.068   4.311 -0.6790 -0.1507  0.4398
 4537SOL     OW17913   0.235   0.581   5.245  0.3434  1.2929  1.1301
 4537SOL    HW217914   0.176   0.560   5.317 -1.4302 -3.6773 -1.3311
 4537SOL    HW317915   0.181   0.631   5.183 -1.3886 -2.4563 -0.6946
 4537SOL    MW417916   0.220   0.585   5.246 -0.1192  0.1425  0.5646
 4538SOL     OW17917   4.384   6.190   6.368  0.6877  0.2226 -0.0644
 4538SOL    HW217918   4.408   6.250   6.297  1.5840 -1.8588 -1.6360
 4538SOL    HW317919   4.461   6.134   6.379 -0.7157 -1.7730  0.0736
 4538SOL    MW417920   4.397   6.190   6.360  0.6208 -0.3153 -0.2536
 4539SOL     OW17921   2.739   3.226   4.283 -0.5046 -0.9041 -0.4656
 4539SOL    HW217922   2.676   3.197   4.348 -0.3482  0.1314  0.1825
 4539SOL    HW317923   2.813   3.258   4.335 -0.6913  0.6467 -1.0969
 4539SOL    MW417924   2.740   3.227   4.299 -0.5086 -0.5629 -0.4634
 4540SOL     OW17925   6.347   4.429   5.668  0.4319  0.2637  0.0298
 4540SOL    HW217926   6.284   4.418   5.596 -0.5703 -1.8915  1.1477
 4540SOL    HW317927   6.297   4.472   5.737  0.6679  0.0585  0.3289
 4540SOL    MW417928   6.332   4.433   5.667  0.3308 -0.0477  0.2168
 4541SOL     OW17929   2.330   5.536   0.190 -0.0756  0.1388  0.5479
 4541SOL    HW217930   2.386   5.550   0.266  0.6973 -0.0506  0.0210
 4541SOL    HW317931   2.337   5.442   0.171 -1.2533 -0.0605  0.9931
 4541SOL    MW417932   2.338   5.525   0.197 -0.1290  0.0875  0.5371
 4542SOL     OW17933   4.587   5.678   5.745 -0.2332 -0.0479  0.3506
 4542SOL    HW217934   4.568   5.625   5.823  0.2287  1.5437  1.5924
 4542SOL    HW317935   4.672   5.646   5.715 -0.7864 -1.2359 -0.0290
 4542SOL    MW417936   4.596   5.666   5.751 -0.2452  0.0054  0.4644
 4543SOL     OW17937   3.258   1.912   5.015 -0.5188 -1.1682 -0.4649
 4543SOL    HW217938   3.213   1.855   4.952 -0.6357 -1.8912  0.2493
 4543SOL    HW317939   3.231   1.878   5.100 -0.4982 -0.0972 -0.0231
 4543SOL    MW417940   3.248   1.900   5.018 -0.5315 -1.1223 -0.3124
 4544SOL     OW17941   4.056   0.332   6.189  0.0151 -0.4546  0.4840
 4544SOL    HW217942   3.975   0.297   6.152  0.0069 -0.4818  0.5275
 4544SOL    HW317943   4.052   0.310   6.282 -0.4475  0.5435  0.7063
 4544SOL    MW417944   4.045   0.324   6.196 -0.0470 -0.3265  0.5191
 4545SOL     OW17945   3.933   4.408   0.098  0.4483  0.3174 -0.2998
 4545SOL    HW217946   3.991   4.482   0.116  1.0349 -0.2702  0.2663
 4545SOL    HW317947   3.989   4.331   0.104  0.3808 -0.0789 -3.1762
 4545SOL    MW417948   3.948   4.407   0.101  0.5168  0.1876 -0.6046
 4546SOL     OW17949   1.502   3.582   5.508  0.4965 -0.3883 -0.1174
 4546SOL    HW217950   1.567   3.596   5.577  1.4738 -0.8669 -0.9196
 4546SOL    HW317951   1.553   3.560   5.431 -0.6653 -1.7366 -0.5393
 4546SOL    MW417952   1.517   3.581   5.507  0.4721 -0.6293 -0.2789
 4547SOL     OW17953   2.014   1.697   6.179 -0.4563 -0.5656  0.1407
 4547SOL    HW217954   2.017   1.649   6.261 -0.7013  0.6271  0.8827
 4547SOL    HW317955   2.086   1.760   6.185 -0.6965 -0.2268 -0.3940
 4547SOL    MW417956   2.024   1.699   6.191 -0.5203 -0.3636  0.1680
 4548SOL     OW17957   1.034   4.816   3.499 -0.2518  0.4316  0.2433
 4548SOL    HW217958   0.968   4.750   3.477 -0.1554  0.2239  0.5696
 4548SOL    HW317959   1.102   4.804   3.432  0.3454 -0.6370  1.0112
 4548SOL    MW417960   1.035   4.806   3.487 -0.1603  0.2632  0.3877
 4549SOL     OW17961   4.948   4.714   2.704  0.2286 -0.7716 -0.7673
 4549SOL    HW217962   5.028   4.767   2.701  0.4825 -1.1662 -1.1447
 4549SOL    HW317963   4.877   4.777   2.693  0.4110 -0.2599  0.7292
 4549SOL    MW417964   4.949   4.729   2.702  0.2862 -0.7561 -0.6196
 4550SOL     OW17965   2.592   1.595   5.512  0.7372 -0.5627 -0.0133
 4550SOL    HW217966   2.571   1.530   5.446  0.3932  0.7443 -1.2313
 4550SOL    HW317967   2.523   1.586   5.578 -0.5958  0.0214 -1.2737
 4550SOL    MW417968   2.580   1.586   5.512  0.5159 -0.3132 -0.3403
 4551SOL     OW17969   0.370   2.713   1.609  0.2825 -0.3914 -0.1042
 4551SOL    HW217970   0.300   2.650   1.626  0.6596 -0.8603 -0.2744
 4551SOL    HW317971   0.440   2.661   1.569  1.5029 -0.3194  1.7904
 4551SOL    MW417972   0.370   2.698   1.606  0.4932 -0.4438  0.1233
 4552SOL     OW17973   3.514   0.900   0.938  0.5706  0.0382 -0.0794
 4552SOL    HW217974   3.585   0.900   0.873 -0.5680 -0.0021 -1.3693
 4552SOL    HW317975   3.519   0.987   0.978  1.1031  0.1730 -0.4191
 4552SOL    MW417976   3.524   0.912   0.934  0.4907  0.0507 -0.2944
 4553SOL     OW17977   1.209   5.468   4.976  0.2288  0.4657  0.0359
 4553SOL    HW217978   1.234   5.542   5.031  0.9293 -0.4951  1.0426
 4553SOL    HW317979   1.198   5.506   4.888 -1.1038  2.0711  0.8243
 4553SOL    MW417980   1.211   5.483   4.972  0.1454  0.5508  0.2727
 4554SOL     OW17981   2.811   0.261   6.059 -0.2415 -0.7010  0.4339
 4554SOL    HW217982   2.861   0.335   6.023 -1.3423  1.1089  2.4435
 4554SOL    HW317983   2.751   0.236   5.988  0.3875  0.0922 -0.3979
 4554SOL    MW417984   2.810   0.267   6.045 -0.3037 -0.3575  0.5893
 4555SOL     OW17985   5.241   0.857   3.245  0.3017  0.1547 -0.0682
 4555SOL    HW217986   5.166   0.835   3.300  0.7279 -1.1050  0.0319
 4555SOL    HW317987   5.244   0.788   3.179  1.6793 -0.1339  0.2507
 4555SOL    MW417988   5.232   0.845   3.244  0.5397 -0.0496 -0.0129
 4556SOL     OW17989   0.095   3.707   6.347  0.1674 -0.4109 -0.1815
 4556SOL    HW217990   0.049   3.785   6.316  0.0647 -0.0383  0.8665
 4556SOL    HW317991   0.180   3.710   6.303  0.4486  0.7050  0.4050
 4556SOL    MW417992   0.100   3.718   6.337  0.1910 -0.2145  0.0341
 4557SOL     OW17993   2.271   5.773   4.735 -0.1130  0.0025  0.0982
 4557SOL    HW217994   2.254   5.775   4.829 -3.5218 -1.3545 -0.3525
 4557SOL    HW317995   2.200   5.823   4.696 -0.8718 -2.4206 -1.8903
 4557SOL    MW417996   2.260   5.780   4.742 -0.6629 -0.4962 -0.2237
 4558SOL     OW17997   4.737   5.985   4.801 -0.8991  0.3341  0.4141
 4558SOL    HW217998   4.773   6.011   4.886  0.3219 -1.3352  0.4589
 4558SOL    HW317999   4.813   5.961   4.749 -1.6630  0.9411 -1.0550
 4558SOL    MW418000   4.752   5.985   4.805 -0.8388  0.1940  0.2262
 4559SOL     OW18001   1.908   5.158   0.864 -0.0960  0.1900  0.0147
 4559SOL    HW218002   1.934   5.189   0.777 -0.0134  1.4342  0.4624
 4559SOL    HW318003   1.991   5.142   0.909 -0.1289 -1.3148 -0.4012
 4559SOL    MW418004   1.923   5.160   0.859 -0.0894  0.1557  0.0189
 4560SOL     OW18005   0.692   2.974   2.572 -0.1277  0.9086  0.7260
 4560SOL    HW218006   0.714   3.042   2.509 -1.2400 -0.4918 -1.2689
 4560SOL    HW318007   0.663   3.023   2.650  0.5196  2.6822 -0.0885
 4560SOL    MW418008   0.691   2.990   2.574 -0.1891  0.9579  0.3553
 4561SOL     OW18009   1.096   5.322   0.579  0.3386  0.2484 -0.0826
 4561SOL    HW218010   1.185   5.330   0.614 -0.2648  1.9304  1.1704
 4561SOL    HW318011   1.109   5.290   0.490  2.1289 -0.6123  0.4269
 4561SOL    MW418012   1.110   5.319   0.572  0.4952  0.3567  0.1499
 4562SOL     OW18013   2.234   0.379   6.345 -0.1165 -0.5749  0.0162
 4562SOL    HW218014   2.224   0.413   6.256  0.2055 -0.0685  0.1718
 4562SOL    HW318015   2.319   0.335   6.343  0.5732  0.6895  0.4620
 4562SOL    MW418016   2.244   0.378   6.333  0.0170 -0.3412  0.0956
 4563SOL     OW18017   4.638   3.828   3.945  0.5713 -0.0570 -0.2831
 4563SOL    HW218018   4.603   3.860   4.028 -1.2915  1.9956 -1.7642
 4563SOL    HW318019   4.615   3.735   3.943 -2.6238  0.6317 -0.0125
 4563SOL    MW418020   4.630   3.820   3.956 -0.0960  0.3047 -0.4428
 4564SOL     OW18021   0.850   0.068   1.809  0.3085 -0.4747 -0.1701
 4564SOL    HW218022   0.889   0.044   1.893 -2.4942 -0.0046  1.3907
 4564SOL    HW318023   0.800  -0.009   1.783  2.3811 -1.2144 -2.3299
 4564SOL    MW418024   0.848   0.055   1.816  0.2122 -0.5102 -0.2492
 4565SOL     OW18025   3.855   4.049   0.590 -0.0008  0.0297  0.3564
 4565SOL    HW218026   3.792   4.000   0.537 -2.0044  1.1101  1.6122
 4565SOL    HW318027   3.837   4.020   0.680  0.9602  0.7289  0.7802
 4565SOL    MW418028   3.844   4.039   0.595 -0.1383  0.2645  0.5780
 4566SOL     OW18029   5.736   5.725   3.373  0.5277 -0.0821  0.2213
 4566SOL    HW218030   5.713   5.814   3.346  2.5341  0.2779 -0.4465
 4566SOL    HW318031   5.733   5.674   3.291  0.4370 -0.3985  0.4203
 4566SOL    MW418032   5.732   5.730   3.358  0.7805 -0.0764  0.1595
 4567SOL     OW18033   2.152   4.413   3.861 -0.5573 -0.4781  0.4887
 4567SOL    HW218034   2.100   4.338   3.831  0.8557 -0.7460 -1.5051
 4567SOL    HW318035   2.147   4.475   3.788  2.2468 -0.7345 -0.0182
 4567SOL    MW418036   2.144   4.411   3.847 -0.0009 -0.5473  0.1588
 4568SOL     OW18037   3.108   5.898   0.669  0.2868 -0.4332 -0.2020
 4568SOL    HW218038   3.148   5.870   0.588  0.3372 -0.5154 -0.1482
 4568SOL    HW318039   3.145   5.985   0.686  0.1744 -0.3583 -0.3362
 4568SOL    MW418040   3.118   5.906   0.661  0.2786 -0.4342 -0.2126
 4569SOL     OW18041   2.256   6.115   4.533  0.2015  0.1067 -0.2090
 4569SOL    HW218042   2.254   6.191   4.475  0.6330  0.2157 -0.0792
 4569SOL    HW318043   2.248   6.040   4.474  0.6588  0.2161 -0.4135
 4569SOL    MW418044   2.254   6.115   4.518  0.3188  0.1355 -0.2189
 4570SOL     OW18045   4.680   2.036   3.173 -0.5424  0.2033 -0.2121
 4570SOL    HW218046   4.653   2.027   3.264 -1.1974  0.1731 -0.4062
 4570SOL    HW318047   4.771   2.064   3.178 -0.1386 -1.1109  0.4529
 4570SOL    MW418048   4.689   2.038   3.185 -0.5756  0.0259 -0.1500
 4571SOL     OW18049   6.374   4.517   4.070  0.2414  0.1643 -0.1454
 4571SOL    HW218050   6.344   4.522   4.161  0.7433 -2.5584  0.2680
 4571SOL    HW318051   6.467   4.541   4.074 -0.0739  1.4498 -0.2092
 4571SOL    MW418052   6.383   4.521   4.083  0.2660 -0.0253 -0.0993
 4572SOL     OW18053   2.958   4.278   5.857  0.5109  0.0120 -0.3390
 4572SOL    HW218054   2.920   4.192   5.841  0.2499 -0.4577  2.2944
 4572SOL    HW318055   3.020   4.263   5.929  0.6560  1.9748 -0.0047
 4572SOL    MW418056   2.961   4.265   5.864  0.4956  0.2090  0.0526
 4573SOL     OW18057   4.394   5.211   4.698 -0.0468 -0.1369 -0.0087
 4573SOL    HW218058   4.467   5.244   4.646  2.5217 -2.4843  1.8056
 4573SOL    HW318059   4.424   5.219   4.788 -1.8722 -1.5820  0.7859
 4573SOL    MW418060   4.408   5.217   4.703  0.0513 -0.6373  0.3355
 4574SOL     OW18061   1.781   0.586   3.668 -0.0597 -0.0154  0.1051
 4574SOL    HW218062   1.722   0.513   3.650 -0.0992 -0.1655  0.8327
 4574SOL    HW318063   1.785   0.591   3.764  1.1563 -0.0426  0.0725
 4574SOL    MW418064   1.773   0.577   3.678  0.0955 -0.0388  0.1968
 4575SOL     OW18065   3.472   2.311   4.218  0.2723  0.3351 -0.0499
 4575SOL    HW218066   3.520   2.239   4.176 -1.6679 -0.6966 -0.5999
 4575SOL    HW318067   3.462   2.282   4.309 -1.3261 -0.5779 -0.4880
 4575SOL    MW418068   3.477   2.298   4.224 -0.1946  0.0785 -0.1803
 4576SOL     OW18069   5.013   0.795   3.403 -0.1877  0.0654  0.2503
 4576SOL    HW218070   5.034   0.812   3.495 -0.7520 -0.4347  0.4722
 4576SOL    HW318071   4.929   0.839   3.389 -0.0818  0.1795 -0.0403
 4576SOL    MW418072   5.005   0.803   3.413 -0.2482  0.0144  0.2413
 4577SOL     OW18073   5.202   3.003   2.226 -0.3212 -0.5930 -0.0657
 4577SOL    HW218074   5.179   3.032   2.314 -1.8261 -2.3030  0.1572
 4577SOL    HW318075   5.210   2.908   2.233  0.9818 -0.6348 -1.4909
 4577SOL    MW418076   5.200   2.995   2.238 -0.3478 -0.8241 -0.2243
 4578SOL     OW18077   1.889   3.115   5.469  0.2695 -0.3323 -0.3234
 4578SOL    HW218078   1.966   3.070   5.434 -0.9769 -1.4220 -1.8458
 4578SOL    HW318079   1.892   3.202   5.429 -0.1384 -0.9384 -1.7423
 4578SOL    MW418080   1.899   3.121   5.459  0.0512 -0.5561 -0.7114
 4579SOL     OW18081   4.440   4.881   1.885 -0.0509  0.6575 -0.1661
 4579SOL    HW218082   4.394   4.812   1.933 -0.2845  1.0490  0.1771
 4579SOL    HW318083   4.445   4.849   1.795  1.9501 -0.9236  0.4096
 4579SOL    MW418084   4.435   4.868   1.879  0.1823  0.5005 -0.0449
 4580SOL     OW18085   2.898   0.621   1.070  0.5360  0.1181 -0.0755
 4580SOL    HW218086   2.833   0.688   1.051 -1.8161 -1.5607  1.4242
 4580SOL    HW318087   2.848   0.550   1.110  3.4338 -0.9689  1.9881
 4580SOL    MW418088   2.883   0.620   1.072  0.6080 -0.2468  0.3946
 4581SOL     OW18089   2.333   3.182   2.447  0.7932  0.4128 -0.7442
 4581SOL    HW218090   2.324   3.110   2.385  1.2978 -1.4151  1.1789
 4581SOL    HW318091   2.345   3.260   2.393 -0.3882 -0.8289 -2.9252
 4581SOL    MW418092   2.333   3.183   2.432  0.7039  0.0078 -0.7782
 4582SOL     OW18093   2.565   2.943   3.552  0.0480  0.3875 -0.5270
 4582SOL    HW218094   2.643   2.929   3.498  0.8756  0.6826  0.5507
 4582SOL    HW318095   2.581   3.026   3.597 -0.9551  0.5220 -0.3983
 4582SOL    MW418096   2.577   2.952   3.551  0.0249  0.4442 -0.3678
 4583SOL     OW18097   3.359   2.941   0.784 -0.2590  0.9734  0.0800
 4583SOL    HW218098   3.318   2.953   0.869 -0.0124 -1.2102  0.5784
 4583SOL    HW318099   3.324   2.858   0.752  1.0818  0.8017 -1.0585
 4583SOL    MW418100   3.349   2.932   0.791 -0.0496  0.6626 -0.0045
 4584SOL     OW18101   2.155   6.123   2.336  0.5111  0.2174  0.0343
 4584SOL    HW218102   2.079   6.119   2.278  0.0112 -0.5205  0.7074
 4584SOL    HW318103   2.170   6.217   2.350  1.1351  0.4484 -1.8700
 4584SOL    MW418104   2.147   6.135   2.330  0.5275  0.1505 -0.1281
 4585SOL     OW18105   1.215   0.578   5.460 -1.0106  0.3581 -0.5984
 4585SOL    HW218106   1.270   0.654   5.440  0.2990 -0.1547  0.8716
 4585SOL    HW318107   1.244   0.510   5.400 -2.7100  1.1905 -2.4497
 4585SOL    MW418108   1.226   0.579   5.450 -1.0620  0.4003 -0.6487
 4586SOL     OW18109   0.308   5.134   3.157 -0.0118  0.4549  0.1609
 4586SOL    HW218110   0.329   5.138   3.250 -0.0566  1.8883  0.1438
 4586SOL    HW318111   0.255   5.213   3.142 -0.7692 -0.2325 -0.8969
 4586SOL    MW418112   0.303   5.145   3.167 -0.1176  0.5533  0.0191
 4587SOL     OW18113   4.613   1.548   4.345  0.6150 -0.3579  0.2128
 4587SOL    HW218114   4.614   1.554   4.441  0.9705 -0.5509  0.2244
 4587SOL    HW318115   4.657   1.465   4.326  2.2384  0.5593 -0.1794
 4587SOL    MW418116   4.619   1.538   4.355  0.8761 -0.2623  0.1626
 4588SOL     OW18117   0.796   5.670   2.530  0.0133 -0.2402 -0.0155
 4588SOL    HW218118   0.836   5.755   2.547 -2.3882  1.0983 -0.6605
 4588SOL    HW318119   0.865   5.620   2.487  0.9103  2.1142 -1.5258
 4588SOL    MW418120   0.810   5.675   2.527 -0.1852  0.2470 -0.2999
 4589SOL     OW18121   2.553   3.920   0.491  0.6518 -0.4493  0.1645
 4589SOL    HW218122   2.502   3.868   0.553  0.0998 -1.5625 -1.1476
 4589SOL    HW318123   2.610   3.974   0.545 -1.2313  0.1354  1.6887
 4589SOL    MW418124   2.554   3.920   0.506  0.3305 -0.5190  0.1925
 4590SOL     OW18125   5.132   2.753   4.339  0.3511  0.0204 -0.1270
 4590SOL    HW218126   5.171   2.837   4.319  1.7221 -0.2863  1.0315
 4590SOL    HW318127   5.200   2.689   4.317 -0.4628 -0.7470 -0.4814
 4590SOL    MW418128   5.146   2.755   4.334  0.4246 -0.1213 -0.0209
 4591SOL     OW18129   1.466   6.274   4.695  0.2630 -0.2704  0.4151
 4591SOL    HW218130   1.524   6.251   4.767 -0.7448 -0.9295  1.0459
 4591SOL    HW318131   1.475   6.369   4.687 -1.4758  0.2477  3.1387
 4591SOL    MW418132   1.475   6.284   4.703 -0.0994 -0.2890  0.8577
 4592SOL     OW18133   3.824   5.177   1.122  0.1139  0.3427  0.1154
 4592SOL    HW218134   3.780   5.136   1.197  0.8311  1.4410  1.1702
 4592SOL    HW318135   3.884   5.241   1.161  1.4366  0.0543 -1.3538
 4592SOL    MW418136   3.826   5.180   1.137  0.3831  0.4496  0.0607
 4593SOL     OW18137   4.982   0.982   5.808 -0.6551  0.2840 -0.8303
 4593SOL    HW218138   4.927   0.935   5.869 -2.0624 -0.5859 -2.6596
 4593SOL    HW318139   4.967   0.939   5.724  0.3677  2.0780 -2.0140
 4593SOL    MW418140   4.973   0.970   5.805 -0.7058  0.4059 -1.2278
 4594SOL     OW18141   4.436   4.993   0.277 -0.1938 -0.2346 -0.1231
 4594SOL    HW218142   4.446   4.910   0.325  0.0206  1.5626  3.2323
 4594SOL    HW318143   4.503   4.988   0.209 -0.4808 -2.9676 -0.3524
 4594SOL    MW418144   4.446   4.981   0.275 -0.2034 -0.3581  0.2893
 4595SOL     OW18145   3.580   1.924   4.834  0.0254 -0.5983 -0.1710
 4595SOL    HW218146   3.576   1.830   4.819  1.1797 -0.5853 -0.7223
 4595SOL    HW318147   3.672   1.946   4.819  0.0669  0.3982  1.3383
 4595SOL    MW418148   3.591   1.915   4.830  0.1832 -0.4651 -0.0446
 4596SOL     OW18149   1.653   0.784   2.717  0.6833 -0.1040  0.4393
 4596SOL    HW218150   1.640   0.826   2.802  0.0903 -1.6393  1.1580
 4596SOL    HW318151   1.633   0.852   2.653 -0.7509  0.5754  1.5391
 4596SOL    MW418152   1.649   0.798   2.720  0.4158 -0.2169  0.6792
 4597SOL     OW18153   6.074   5.955   2.650  0.1678  0.2675  0.7118
 4597SOL    HW218154   5.984   5.987   2.646  0.0514 -0.1692 -0.5540
 4597SOL    HW318155   6.065   5.859   2.645  0.7204  0.2496 -0.1887
 4597SOL    MW418156   6.061   5.946   2.649  0.2254  0.2075  0.4260
 4598SOL     OW18157   5.878   1.304   4.510 -0.1627  0.6998 -0.0941
 4598SOL    HW218158   5.853   1.233   4.451  0.5524  0.3021  0.0706
 4598SOL    HW318159   5.841   1.383   4.470 -1.2822  0.1925 -0.0775
 4598SOL    MW418160   5.870   1.305   4.497 -0.2160  0.5804 -0.0702
 4599SOL     OW18161   4.968   0.899   1.162  0.4647 -0.0813 -0.0080
 4599SOL    HW218162   4.959   0.910   1.068 -0.7184 -1.5938 -0.1124
 4599SOL    HW318163   5.055   0.860   1.173  0.8358  0.6291 -0.4178
 4599SOL    MW418164   4.979   0.895   1.151  0.3575 -0.1872 -0.0758
 4600SOL     OW18165   3.110   1.259   3.899  0.1833  0.1373  0.4200
 4600SOL    HW218166   3.131   1.167   3.883 -0.4409 -0.2746  1.8134
 4600SOL    HW318167   3.122   1.270   3.994  0.4780  1.5545  0.2414
 4600SOL    MW418168   3.115   1.248   3.909  0.1398  0.2699  0.5803
 4601SOL     OW18169   3.206   5.523   3.159 -0.0111 -0.0601  0.0364
 4601SOL    HW218170   3.193   5.608   3.202  0.2893 -0.3789  0.7811
 4601SOL    HW318171   3.126   5.509   3.109  1.1509  2.1224 -2.7128
 4601SOL    MW418172   3.193   5.532   3.158  0.1819  0.1858 -0.2281
 4602SOL     OW18173   1.567   1.507   0.171 -0.1407 -0.3157  0.0953
 4602SOL    HW218174   1.579   1.466   0.085 -2.0986 -1.8724  0.4947
 4602SOL    HW318175   1.592   1.440   0.234 -0.5868  0.1104  0.7439
 4602SOL    MW418176   1.572   1.493   0.168 -0.4579 -0.4648  0.2336
 4603SOL     OW18177   5.850   0.687   2.017  0.4879  0.1133  0.2001
 4603SOL    HW218178   5.767   0.734   2.009  0.2407 -0.3387  0.0422
 4603SOL    HW318179   5.829   0.611   2.071  1.0892  0.6568  1.2358
 4603SOL    MW418180   5.836   0.683   2.023  0.5346  0.1254  0.3159
 4604SOL     OW18181   2.957   1.046   3.587  0.4020 -0.0440 -0.2552
 4604SOL    HW218182   3.008   1.067   3.509 -0.7887 -0.0213 -1.0526
 4604SOL    HW318183   2.898   0.976   3.559  0.0926 -0.1751  0.6829
 4604SOL    MW418184   2.956   1.040   3.573  0.2041 -0.0583 -0.2367
 4605SOL     OW18185   3.656   1.141   4.856  0.1955 -0.1732 -0.0667
 4605SOL    HW218186   3.656   1.067   4.916 -0.4205 -2.0250 -2.1832
 4605SOL    HW318187   3.586   1.121   4.793  0.5236  1.8386 -1.1690
 4605SOL    MW418188   3.647   1.129   4.855  0.1575 -0.1521 -0.4914
 4606SOL     OW18189   0.160   3.658   3.035 -0.3456 -0.5311 -0.0766
 4606SOL    HW218190   0.186   3.596   3.103 -1.3549 -0.2411  0.5985
 4606SOL    HW318191   0.082   3.701   3.071 -0.4695  0.1403 -1.1193
 4606SOL    MW418192   0.153   3.656   3.049 -0.4951 -0.4042 -0.1251
 4607SOL     OW18193   2.798   1.484   4.794 -0.4625 -0.1782 -0.2141
 4607SOL    HW218194   2.803   1.441   4.879 -2.3249 -0.8943 -0.4273
 4607SOL    HW318195   2.833   1.420   4.732 -0.0815 -0.0604 -0.1231
 4607SOL    MW418196   2.804   1.470   4.797 -0.6579 -0.2571 -0.2303
 4608SOL     OW18197   1.580   0.638   3.097 -0.5816 -0.2568  0.1821
 4608SOL    HW218198   1.495   0.625   3.138  0.0724 -1.0559  1.3272
 4608SOL    HW318199   1.639   0.578   3.143  0.0627 -1.7549 -2.3675
 4608SOL    MW418200   1.577   0.629   3.108 -0.4103 -0.5599 -0.0032
 4609SOL     OW18201   5.831   6.436   2.288 -0.9577  0.0989  0.5653
 4609SOL    HW218202   5.868   6.520   2.262 -0.0811 -0.3629  0.3115
 4609SOL    HW318203   5.751   6.428   2.236  0.2401 -0.3450 -1.2962
 4609SOL    MW418204   5.825   6.446   2.278 -0.6840 -0.0206  0.2862
 4610SOL     OW18205   4.815   2.993   3.431  0.4121  0.3328 -0.0262
 4610SOL    HW218206   4.731   3.032   3.406 -0.7876 -1.4250  0.9940
 4610SOL    HW318207   4.849   3.051   3.499 -0.2365  0.8092 -0.0961
 4610SOL    MW418208   4.808   3.006   3.437  0.1682  0.1637  0.0992
 4611SOL     OW18209   3.361   3.080   1.355 -0.1765 -0.4829 -0.3885
 4611SOL    HW218210   3.413   3.086   1.275 -0.8042 -0.1187 -0.7854
 4611SOL    HW318211   3.270   3.086   1.325 -0.3930  1.6159  0.4834
 4611SOL    MW418212   3.356   3.082   1.341 -0.2879 -0.1579 -0.3259
 4612SOL     OW18213   4.765   3.317   5.155  0.8504  0.6489  0.0598
 4612SOL    HW218214   4.787   3.321   5.248 -1.4209  1.9624  0.6288
 4612SOL    HW318215   4.844   3.347   5.110  1.6290  1.0629  1.6300
 4612SOL    MW418216   4.778   3.321   5.161  0.6535  0.8768  0.3421
 4613SOL     OW18217   5.119   3.289   2.149 -0.2481  0.1577 -0.0156
 4613SOL    HW218218   5.110   3.196   2.131 -0.4394 -0.2531  1.9970
 4613SOL    HW318219   5.032   3.318   2.174  0.2733  0.2716  1.8111
 4613SOL    MW418220   5.107   3.281   2.150 -0.2045  0.1185  0.4910
 4614SOL     OW18221   5.429   5.646   2.438  0.0904 -0.0780 -0.2721
 4614SOL    HW218222   5.435   5.551   2.447  2.4367  0.1546  1.5574
 4614SOL    HW318223   5.484   5.667   2.363  2.0842  0.0067  1.1428
 4614SOL    MW418224   5.437   5.637   2.429  0.6630 -0.0361  0.1560
 4615SOL     OW18225   5.142   2.630   0.482 -0.5652  0.8652  0.2328
 4615SOL    HW218226   5.175   2.685   0.411  1.5756 -0.0544  0.4379
 4615SOL    HW318227   5.094   2.560   0.437  0.2344  0.6330 -0.2820
 4615SOL    MW418228   5.140   2.628   0.467 -0.1773  0.7133  0.1920
 4616SOL     OW18229   6.196   1.524   0.716  0.3872  0.1317  0.4534
 4616SOL    HW218230   6.272   1.570   0.683 -0.4865  0.4475 -1.2569
 4616SOL    HW318231   6.229   1.470   0.788  2.0893  0.6692  0.1065
 4616SOL    MW418232   6.210   1.523   0.721  0.4965  0.2443  0.1820
 4617SOL     OW18233   4.530   5.943   5.204 -0.2796 -0.2558  0.1597
 4617SOL    HW218234   4.552   5.974   5.292 -0.0800 -0.4330  0.1747
 4617SOL    HW318235   4.555   5.850   5.205 -1.5746 -0.6258  0.3705
 4617SOL    MW418236   4.537   5.935   5.216 -0.4241 -0.3280  0.1895
 4618SOL     OW18237   0.841   0.209   4.769  0.0016 -0.1457 -0.2219
 4618SOL    HW218238   0.817   0.154   4.844  1.2851 -3.9111 -2.2884
 4618SOL    HW318239   0.936   0.196   4.760  0.0752  1.1572 -1.8044
 4618SOL    MW418240   0.851   0.200   4.778  0.1806 -0.4706 -0.7033
 4619SOL     OW18241   0.720   1.391   1.289  0.0439 -0.1551  0.1343
 4619SOL    HW218242   0.718   1.484   1.311 -2.2417 -0.0075 -0.4821
 4619SOL    HW318243   0.662   1.382   1.214  0.5813 -2.0265 -0.1231
 4619SOL    MW418244   0.712   1.402   1.282 -0.1868 -0.3825  0.0191
 4620SOL     OW18245   3.796   1.093   2.183  0.5947  0.4802 -0.1900
 4620SOL    HW218246   3.858   1.161   2.211  0.8984  1.0090 -2.0306
 4620SOL    HW318247   3.852   1.022   2.151  0.2626  0.4890 -0.8005
 4620SOL    MW418248   3.812   1.092   2.182  0.5910  0.5511 -0.5134
 4621SOL     OW18249   5.760   3.309   1.001 -0.2860 -0.0537  0.1801
 4621SOL    HW218250   5.850   3.342   1.000  0.0059 -0.7868 -1.5112
 4621SOL    HW318251   5.751   3.267   1.086  0.8837  0.2789  0.4871
 4621SOL    MW418252   5.771   3.308   1.012 -0.0932 -0.1065 -0.0025
 4622SOL     OW18253   4.560   2.010   1.511  0.1430  0.2644 -0.5795
 4622SOL    HW218254   4.627   2.072   1.541 -0.5332  0.7473 -0.0021
 4622SOL    HW318255   4.505   2.062   1.452  0.7798 -0.3702 -1.7547
 4622SOL    MW418256   4.562   2.025   1.507  0.1378  0.2444 -0.6583
 4623SOL     OW18257   3.527   1.562   2.535 -0.2913  0.1155  0.1427
 4623SOL    HW218258   3.576   1.604   2.464  0.5540 -0.6598  0.2569
 4623SOL    HW318259   3.585   1.567   2.610 -1.7060  2.1677  1.1976
 4623SOL    MW418260   3.541   1.568   2.535 -0.3664  0.2839  0.2969
 4624SOL     OW18261   5.932   3.027   1.159 -0.6123  0.2256 -0.7862
 4624SOL    HW218262   5.889   3.092   1.214  0.1848 -0.9352  1.3213
 4624SOL    HW318263   6.016   3.066   1.135 -0.2457  0.1061  0.2552
 4624SOL    MW418264   5.937   3.040   1.163 -0.4587  0.0567 -0.3708
 4625SOL     OW18265   4.461   2.635   0.351 -0.0361 -0.6894 -0.2689
 4625SOL    HW218266   4.416   2.684   0.283  2.8881 -0.2225 -2.0049
 4625SOL    HW318267   4.524   2.697   0.389  1.3782 -2.1206 -0.1571
 4625SOL    MW418268   4.463   2.649   0.347  0.5363 -0.8166 -0.4832
 4626SOL     OW18269   0.531   1.470   0.436 -0.2382 -0.4246 -0.4482
 4626SOL    HW218270   0.468   1.401   0.413 -1.8161  0.3422  1.3114
 4626SOL    HW318271   0.553   1.510   0.352  0.0009 -2.4322 -1.4095
 4626SOL    MW418272   0.526   1.466   0.422 -0.4148 -0.5883 -0.3429
 4627SOL     OW18273   5.655   5.957   3.728 -0.2219  0.9781 -0.1859
 4627SOL    HW218274   5.562   5.936   3.720  0.1345 -1.4657  1.0985
 4627SOL    HW318275   5.663   5.995   3.816 -0.0589  1.5687 -0.4534
 4627SOL    MW418276   5.644   5.959   3.739 -0.1533  0.7336 -0.0517
 4628SOL     OW18277   4.290   4.289   0.167 -1.1214  0.2491 -0.3067
 4628SOL    HW218278   4.346   4.271   0.091 -0.4012  0.2440  0.2079
 4628SOL    HW318279   4.225   4.219   0.167 -0.7722 -0.0764 -0.5881
 4628SOL    MW418280   4.289   4.277   0.157 -0.9803  0.2055 -0.2759
 4629SOL     OW18281   3.096   2.710   5.042  0.0097 -0.7236  0.1827
 4629SOL    HW218282   3.163   2.699   5.109 -0.0164 -1.5561  0.0867
 4629SOL    HW318283   3.102   2.630   4.989 -0.5675 -0.4787 -0.2635
 4629SOL    MW418284   3.106   2.698   5.044 -0.0699 -0.8011  0.1111
 4630SOL     OW18285   5.218   6.320   1.166  0.3751  0.3814  0.2456
 4630SOL    HW218286   5.157   6.275   1.109 -0.3878 -0.4394  1.6638
 4630SOL    HW318287   5.295   6.263   1.170  0.6746  0.7203 -0.3804
 4630SOL    MW418288   5.220   6.307   1.159  0.3140  0.3179  0.3501
 4631SOL     OW18289   1.679   1.080   0.495  0.1274 -0.3095  0.0009
 4631SOL    HW218290   1.626   1.002   0.479 -1.4957  0.3096  1.9859
 4631SOL    HW318291   1.767   1.055   0.465 -0.7517 -2.1845 -1.2169
 4631SOL    MW418292   1.684   1.066   0.489 -0.2027 -0.4752  0.1021
 4632SOL     OW18293   3.433   2.456   0.975 -0.2674  0.0022  0.1650
 4632SOL    HW218294   3.431   2.539   1.023 -0.6647 -0.5874  1.2177
 4632SOL    HW318295   3.485   2.474   0.897 -0.2415  1.2031  0.4428
 4632SOL    MW418296   3.440   2.470   0.971 -0.3164  0.0828  0.3405
 4633SOL     OW18297   0.185   1.027   1.612  0.2297 -0.2656 -0.2571
 4633SOL    HW218298   0.090   1.020   1.612  0.1994  0.0476  0.3334
 4633SOL    HW318299   0.216   0.942   1.582 -0.1820 -1.3806  2.2544
 4633SOL    MW418300   0.177   1.015   1.608  0.1714 -0.3714  0.1521
 4634SOL     OW18301   0.061   1.506   5.411  0.5453 -0.1384 -0.0932
 4634SOL    HW218302   0.071   1.417   5.445  1.9738 -0.0235 -0.1581
 4634SOL    HW318303  -0.007   1.545   5.465 -0.5419 -1.4587 -0.4643
 4634SOL    MW418304   0.054   1.500   5.422  0.5903 -0.2974 -0.1507
 4635SOL     OW18305   1.560   3.288   0.212 -0.2517 -0.2386  0.3305
 4635SOL    HW218306   1.649   3.298   0.176 -0.8333 -0.3086 -1.1808
 4635SOL    HW318307   1.566   3.327   0.299  1.2335 -0.1277  0.2132
 4635SOL    MW418308   1.573   3.295   0.219 -0.1325 -0.2332  0.1156
 4636SOL     OW18309   2.815   0.654   3.699 -0.4008 -0.5970  0.4199
 4636SOL    HW218310   2.901   0.636   3.661 -0.0296  0.0968  0.9153
 4636SOL    HW318311   2.755   0.594   3.653  0.2149 -0.5592 -0.4552
 4636SOL    MW418312   2.818   0.644   3.688 -0.2706 -0.5005  0.3698
 4637SOL     OW18313   0.374   3.231   2.715 -0.0359 -0.9495  0.0035
 4637SOL    HW218314   0.327   3.164   2.666 -0.9929 -0.4897  0.2554
 4637SOL    HW318315   0.459   3.192   2.734  1.1551 -0.4399 -3.6435
 4637SOL    MW418316   0.379   3.217   2.711 -0.0051 -0.8216 -0.4444
 4638SOL     OW18317   0.152   0.081   4.277  0.1560 -0.1239  0.0658
 4638SOL    HW218318   0.161   0.099   4.371 -1.2056 -0.8479  0.3603
 4638SOL    HW318319   0.082   0.139   4.248 -0.4364 -0.9331 -0.1654
 4638SOL    MW418320   0.144   0.091   4.286 -0.1018 -0.3262  0.0741
 4639SOL     OW18321   2.187   3.757   5.904 -0.4418 -0.4337 -0.2315
 4639SOL    HW218322   2.224   3.828   5.851 -3.7812  2.3270  0.7086
 4639SOL    HW318323   2.248   3.746   5.976  0.1798  1.6042 -0.3859
 4639SOL    MW418324   2.200   3.765   5.907 -0.8004  0.1994 -0.1278
 4640SOL     OW18325   1.549   0.705   1.686  0.7678 -0.5996 -0.2868
 4640SOL    HW218326   1.501   0.788   1.695  2.6184  0.6457 -1.1653
 4640SOL    HW318327   1.483   0.642   1.658 -0.8624  0.3503  1.1924
 4640SOL    MW418328   1.534   0.708   1.683  0.7969 -0.3100 -0.2076
 4641SOL     OW18329   5.885   4.326   4.959 -0.1081  0.3621  0.7942
 4641SOL    HW218330   5.889   4.244   5.009  0.6498 -0.1390 -0.0565
 4641SOL    HW318331   5.792   4.347   4.954 -0.7222 -2.2401 -1.7678
 4641SOL    MW418332   5.873   4.318   4.965 -0.0891 -0.0473  0.3440
 4642SOL     OW18333   6.393   1.909   1.130 -0.2970 -0.4531  0.0191
 4642SOL    HW218334   6.404   1.950   1.044  2.3517 -0.5908  0.2151
 4642SOL    HW318335   6.301   1.923   1.152 -0.5008  1.5556 -1.8360
 4642SOL    MW418336   6.383   1.916   1.122  0.0256 -0.2062 -0.1998
 4643SOL     OW18337   3.358   3.944   2.533  0.3284  0.1724 -0.4274
 4643SOL    HW218338   3.284   3.992   2.571 -0.9942 -2.7034  0.9700
 4643SOL    HW318339   3.318   3.881   2.473  1.8410 -0.1158 -1.1914
 4643SOL    MW418340   3.343   3.942   2.530  0.3535 -0.2450 -0.3439
 4644SOL     OW18341   6.347   1.570   5.011 -0.2888  0.3100  0.2770
 4644SOL    HW218342   6.382   1.599   4.927 -0.1562 -1.1723 -0.2069
 4644SOL    HW318343   6.261   1.613   5.018  0.7287  2.4350  0.5873
 4644SOL    MW418344   6.340   1.580   5.001 -0.1371  0.3948  0.2541
 4645SOL     OW18345   3.428   4.152   3.247  0.4035  0.0155  0.3771
 4645SOL    HW218346   3.392   4.129   3.333 -0.3852  0.0558  0.0683
 4645SOL    HW318347   3.415   4.073   3.194 -0.6146  0.5199 -0.1600
 4645SOL    MW418348   3.421   4.138   3.251  0.1651  0.0874  0.2655
 4646SOL     OW18349   4.051   2.810   0.152  0.7570 -0.7265  0.2601
 4646SOL    HW218350   4.063   2.901   0.124 -0.6723 -0.1521  1.3589
 4646SOL    HW318351   4.020   2.816   0.242 -0.7350 -2.2279 -0.0897
 4646SOL    MW418352   4.048   2.823   0.160  0.3716 -0.8488  0.3589
 4647SOL     OW18353   0.040   0.782   2.513  0.7794 -0.3055  0.1321
 4647SOL    HW218354   0.090   0.834   2.449 -0.7851  0.6244 -0.3920
 4647SOL    HW318355  -0.050   0.787   2.482 -0.0073  0.0383  2.3473
 4647SOL    MW418356   0.035   0.790   2.500  0.4692 -0.1375  0.3552
 4648SOL     OW18357   4.035   5.403   0.282 -0.1280  0.1376 -0.1930
 4648SOL    HW218358   4.062   5.324   0.235 -0.2949  0.2176 -0.4276
 4648SOL    HW318359   4.115   5.436   0.322 -0.1418 -0.4155  0.3052
 4648SOL    MW418360   4.049   5.397   0.281 -0.1518  0.0752 -0.1582
 4649SOL     OW18361   1.924   1.862   5.756  0.3092 -0.0407  0.0589
 4649SOL    HW218362   1.875   1.945   5.753  0.4307  0.0161 -0.8257
 4649SOL    HW318363   2.013   1.886   5.730 -0.0227 -0.6825 -1.8082
 4649SOL    MW418364   1.929   1.876   5.752  0.2814 -0.1179 -0.3041
 4650SOL     OW18365   5.217   4.910   4.081 -0.1706  0.3178 -0.2606
 4650SOL    HW218366   5.142   4.882   4.134  1.0704  0.3288  1.5852
 4650SOL    HW318367   5.178   4.939   3.999 -2.0201 -1.5245 -0.1348
 4650SOL    MW418368   5.202   4.910   4.077 -0.2509  0.0762 -0.0005
 4651SOL     OW18369   6.372   2.483   3.982  0.3180  1.1289 -0.1121
 4651SOL    HW218370   6.383   2.463   4.075  1.4466  1.0832 -0.2519
 4651SOL    HW318371   6.375   2.397   3.939 -1.6507  0.9931 -0.0840
 4651SOL    MW418372   6.374   2.469   3.988  0.2072  1.1049 -0.1269
 4652SOL     OW18373   5.405   4.586   0.077 -0.5526  0.0026  0.5293
 4652SOL    HW218374   5.348   4.661   0.061 -1.4362 -0.6409  0.6329
 4652SOL    HW318375   5.494   4.621   0.065 -1.0006  0.5140 -1.8275
 4652SOL    MW418376   5.409   4.600   0.073 -0.7283 -0.0148  0.2320
 4653SOL     OW18377   2.441   6.328   5.993  0.1076 -0.3164 -0.0418
 4653SOL    HW218378   2.482   6.380   5.924  1.4372  0.0303  0.9866
 4653SOL    HW318379   2.442   6.238   5.959 -1.1304  0.1117 -1.3222
 4653SOL    MW418380   2.446   6.323   5.979  0.1197 -0.2142 -0.0750
 4654SOL     OW18381   1.174   3.004   4.924  0.4579  0.0939 -0.5161
 4654SOL    HW218382   1.113   2.993   4.997 -0.6414  0.1356 -1.4039
 4654SOL    HW318383   1.166   3.096   4.899  0.3581 -0.0576 -1.0725
 4654SOL    MW418384   1.165   3.015   4.930  0.2997  0.0794 -0.7066
 4655SOL     OW18385   5.528   6.310   0.164  0.9793  0.0222  0.0851
 4655SOL    HW218386   5.470   6.265   0.103 -1.4153  0.5044  1.8730
 4655SOL    HW318387   5.554   6.242   0.226 -0.1549  0.3946  1.0059
 4655SOL    MW418388   5.524   6.295   0.164  0.5137  0.1349  0.4425
 4656SOL     OW18389   4.685   0.591   4.086 -0.2079  0.0260 -0.6051
 4656SOL    HW218390   4.665   0.661   4.148  0.9654 -0.5503  0.4876
 4656SOL    HW318391   4.724   0.636   4.011 -1.3666  0.7075 -0.8242
 4656SOL    MW418392   4.688   0.606   4.084 -0.2060  0.0399 -0.4898
 4657SOL     OW18393   3.424   5.377   0.727  0.1219 -0.4337  0.0591
 4657SOL    HW218394   3.491   5.349   0.789  2.6995  1.2428 -1.8119
 4657SOL    HW318395   3.374   5.297   0.709  0.9905 -1.5456  2.1828
 4657SOL    MW418396   3.426   5.363   0.733  0.5766 -0.3592  0.0924
 4658SOL     OW18397   5.325   6.134   3.690  0.2832 -0.0725  0.0491
 4658SOL    HW218398   5.249   6.191   3.683  0.3424  0.0396  0.3210
 4658SOL    HW318399   5.333   6.115   3.783  1.3243  0.9319  0.1921
 4658SOL    MW418400   5.316   6.139   3.701  0.4284  0.0748  0.1038
 4659SOL     OW18401   4.401   0.276   4.372  0.6975  0.1735  0.7123
 4659SOL    HW218402   4.348   0.344   4.331 -0.5332 -1.6535 -0.8596
 4659SOL    HW318403   4.372   0.276   4.464 -3.4934 -1.9083 -0.3857
 4659SOL    MW418404   4.390   0.285   4.379 -0.0178 -0.3422  0.3600
 4660SOL     OW18405   6.222   4.362   5.222  0.0334  0.1672 -0.0507
 4660SOL    HW218406   6.196   4.346   5.313 -1.0762 -2.1723 -0.6996
 4660SOL    HW318407   6.314   4.387   5.227  0.7246 -2.3034  1.6096
 4660SOL    MW418408   6.230   4.363   5.235 -0.0218 -0.4674  0.0828
 4661SOL     OW18409   2.451   5.689   0.764 -0.0622  0.9049  0.2530
 4661SOL    HW218410   2.373   5.675   0.710  0.4256  1.9086 -0.7639
 4661SOL    HW318411   2.493   5.603   0.768  0.3492  0.9697 -1.7416
 4661SOL    MW418412   2.446   5.676   0.757  0.0564  1.0458 -0.1443
 4662SOL     OW18413   1.047   1.901   3.234  0.2770  0.7676  0.0283
 4662SOL    HW218414   0.966   1.919   3.186 -0.4599  0.6202  1.1773
 4662SOL    HW318415   1.020   1.842   3.305  1.4184  0.6141  0.3506
 4662SOL    MW418416   1.033   1.895   3.237  0.3303  0.7279  0.2225
 4663SOL     OW18417   1.597   2.631   1.939 -0.3316  0.7541  0.2983
 4663SOL    HW218418   1.537   2.663   1.872  0.5907 -1.1236 -1.5478
 4663SOL    HW318419   1.657   2.704   1.955 -1.2457  1.6075 -0.0850
 4663SOL    MW418420   1.597   2.645   1.932 -0.3305  0.6190  0.0042
 4664SOL     OW18421   0.848   3.025   3.368 -0.4277 -0.3742  0.2926
 4664SOL    HW218422   0.914   3.062   3.426  0.0112 -1.3429  0.4124
 4664SOL    HW318423   0.795   3.101   3.343  0.9466  0.4928 -0.1197
 4664SOL    MW418424   0.850   3.040   3.372 -0.1885 -0.3876  0.2540
 4665SOL     OW18425   3.870   0.238   3.488  0.1349  0.4947  0.2025
 4665SOL    HW218426   3.833   0.154   3.461  1.3074 -0.8300  2.4671
 4665SOL    HW318427   3.917   0.269   3.410  0.1293 -1.2226 -0.5339
 4665SOL    MW418428   3.872   0.231   3.474  0.2888  0.0933  0.4041
 4666SOL     OW18429   3.462   5.049   3.053  0.7843 -0.4336  0.0330
 4666SOL    HW218430   3.530   5.108   3.020  0.3559  0.1545  0.1929
 4666SOL    HW318431   3.491   5.026   3.141 -0.2055  1.4218  0.8892
 4666SOL    MW418432   3.475   5.054   3.060  0.5972 -0.1112  0.1671
 4667SOL     OW18433   6.036   2.038   1.895 -0.7490 -0.1614 -0.2392
 4667SOL    HW218434   6.005   2.116   1.848 -0.6648  0.8722  1.3581
 4667SOL    HW318435   5.964   1.975   1.887 -0.5134 -0.2612 -2.2163
 4667SOL    MW418436   6.022   2.040   1.888 -0.7068 -0.0382 -0.2893
 4668SOL     OW18437   3.297   6.251   4.231 -0.4037  0.5463 -0.4795
 4668SOL    HW218438   3.306   6.293   4.316 -1.4403  1.3984 -0.7605
 4668SOL    HW318439   3.208   6.273   4.203 -1.0646 -1.9774 -0.5814
 4668SOL    MW418440   3.286   6.259   4.238 -0.6276  0.3257 -0.5300
 4669SOL     OW18441   1.646   1.919   0.370 -0.0626  0.2496  0.3511
 4669SOL    HW218442   1.598   1.865   0.432 -3.0631 -0.2646 -2.1445
 4669SOL    HW318443   1.618   2.009   0.389 -1.5227  0.0277 -0.5660
 4669SOL    MW418444   1.636   1.924   0.381 -0.6511  0.1525 -0.0992
 4670SOL     OW18445   6.313   1.250   4.832  0.1084  0.4527 -0.3296
 4670SOL    HW218446   6.263   1.199   4.767  2.2284  0.6372 -2.2086
 4670SOL    HW318447   6.328   1.188   4.903 -2.4844  0.3127  0.2120
 4670SOL    MW418448   6.308   1.235   4.833  0.0460  0.4586 -0.5061
 4671SOL     OW18449   1.088   2.088   2.900  0.0017  0.0148  0.6255
 4671SOL    HW218450   1.171   2.040   2.898 -0.0355 -0.0496  0.6612
 4671SOL    HW318451   1.050   2.072   2.813  0.3636  0.6292  0.3490
 4671SOL    MW418452   1.094   2.080   2.888  0.0445  0.0874  0.5937
 4672SOL     OW18453   0.648   4.233   4.418  0.4715 -0.2766  0.6534
 4672SOL    HW218454   0.560   4.267   4.434  0.5701 -0.2438  1.1480
 4672SOL    HW318455   0.695   4.248   4.500  0.7612 -0.8469  0.5990
 4672SOL    MW418456   0.643   4.240   4.431  0.5227 -0.3475  0.7115
 4673SOL     OW18457   2.097   5.675   4.408 -0.0244 -0.3490  0.6144
 4673SOL    HW218458   2.132   5.762   4.394 -0.6829 -0.0709  0.6701
 4673SOL    HW318459   2.041   5.658   4.332  1.6305 -1.5289 -0.4185
 4673SOL    MW418460   2.094   5.684   4.396  0.1071 -0.4680  0.4855
 4674SOL     OW18461   4.847   5.885   0.200 -0.2850  0.4482 -0.2301
 4674SOL    HW218462   4.831   5.796   0.230 -1.0622  0.1803 -1.3943
 4674SOL    HW318463   4.936   5.882   0.163 -0.2611  0.1946 -0.1527
 4674SOL    MW418464   4.857   5.873   0.199 -0.3844  0.3794 -0.3735
 4675SOL     OW18465   5.856   0.161   3.666 -0.1334 -0.1232 -0.1657
 4675SOL    HW218466   5.896   0.245   3.644 -1.6837  0.6076 -0.3806
 4675SOL    HW318467   5.929   0.101   3.674  1.2248  1.6495  1.8845
 4675SOL    MW418468   5.871   0.164   3.664 -0.1588  0.2071  0.0765
 4676SOL     OW18469   2.462   1.157   5.585 -0.2567  0.2170  0.0196
 4676SOL    HW218470   2.525   1.197   5.525 -0.1983  0.0494 -0.0321
 4676SOL    HW318471   2.487   1.189   5.671  1.7347 -2.0889  0.4070
 4676SOL    MW418472   2.473   1.166   5.588  0.0137 -0.1094  0.0639
 4677SOL     OW18473   1.693   5.647   4.784 -0.0534 -0.3814 -0.2139
 4677SOL    HW218474   1.647   5.572   4.821  0.1593 -0.9963 -1.1800
 4677SOL    HW318475   1.779   5.645   4.825  0.1096 -0.9396 -0.5734
 4677SOL    MW418476   1.698   5.637   4.795 -0.0038 -0.5362 -0.3888
 4678SOL     OW18477   5.595   5.345   4.178  0.1650  0.4954  0.2245
 4678SOL    HW218478   5.591   5.258   4.138 -2.0508 -0.1446  1.6637
 4678SOL    HW318479   5.521   5.393   4.141 -0.1986  0.8514  1.3524
 4678SOL    MW418480   5.585   5.340   4.168 -0.1753  0.4579  0.5632
 4679SOL     OW18481   5.889   1.881   0.709  0.0275 -0.2878  0.2287
 4679SOL    HW218482   5.903   1.849   0.619  0.3509  0.2536  0.0853
 4679SOL    HW318483   5.937   1.819   0.764  1.8999  0.7669 -0.1560
 4679SOL    MW418484   5.897   1.868   0.704  0.3172 -0.0772  0.1591
 4680SOL     OW18485   4.042   3.532   0.408  0.2238  0.4202  0.2208
 4680SOL    HW218486   4.087   3.527   0.492  0.3812 -0.7950  0.0805
 4680SOL    HW318487   4.084   3.605   0.363 -1.0527  2.2813  1.8576
 4680SOL    MW418488   4.053   3.541   0.413  0.0761  0.5054  0.4183
 4681SOL     OW18489   1.680   5.017   1.132  0.1493  0.0786  0.3271
 4681SOL    HW218490   1.718   5.099   1.166 -0.0941 -0.5573  2.2862
 4681SOL    HW318491   1.591   5.041   1.107 -0.5804  0.0904  2.6974
 4681SOL    MW418492   1.673   5.031   1.133  0.0209 -0.0037  0.8983
 4682SOL     OW18493   2.179   1.614   3.728  0.1213 -0.1738 -0.2467
 4682SOL    HW218494   2.091   1.601   3.694 -0.5533  2.7145  0.1232
 4682SOL    HW318495   2.169   1.610   3.823  0.4605 -0.2060 -0.2102
 4682SOL    MW418496   2.166   1.612   3.736  0.0771  0.2031 -0.1931
 4683SOL     OW18497   1.103   5.363   1.543  0.2763  0.3352  0.4281
 4683SOL    HW218498   1.187   5.320   1.525 -0.5990 -1.5633  0.6341
 4683SOL    HW318499   1.089   5.351   1.637 -0.4927  0.0711  0.2899
 4683SOL    MW418500   1.112   5.356   1.553  0.0594  0.0499  0.4371
 4684SOL     OW18501   1.329   5.287   0.731  0.1448  0.1031  0.5152
 4684SOL    HW218502   1.326   5.333   0.815  0.7554  0.1814  0.4976
 4684SOL    HW318503   1.323   5.194   0.754  2.4339 -0.0148  0.8226
 4684SOL    MW418504   1.327   5.280   0.745  0.5274  0.0978  0.5535
 4685SOL     OW18505   1.994   0.425   2.407  0.1017 -0.2109 -0.3924
 4685SOL    HW218506   1.911   0.393   2.371 -0.7163  0.3092  0.9545
 4685SOL    HW318507   2.056   0.421   2.334 -2.0049  2.9883 -2.6351
 4685SOL    MW418508   1.991   0.421   2.393 -0.2842  0.2798 -0.5106
 4686SOL     OW18509   0.633   3.892   5.833 -0.0724 -0.1074 -0.4129
 4686SOL    HW218510   0.686   3.874   5.910 -0.1684 -1.7067 -0.6997
 4686SOL    HW318511   0.611   3.806   5.797 -2.3956  0.5097 -0.6279
 4686SOL    MW418512   0.637   3.879   5.838 -0.3916 -0.2370 -0.4791
 4687SOL     OW18513   2.160   2.845   4.465 -0.3839  0.2989 -0.3024
 4687SOL    HW218514   2.204   2.760   4.456  0.1931  0.4398  0.9619
 4687SOL    HW318515   2.069   2.826   4.444 -1.3212 -1.7694  4.3860
 4687SOL    MW418516   2.154   2.831   4.461 -0.4314  0.0446  0.4830
 4688SOL     OW18517   4.684   1.404   3.673  0.2588  0.4829  0.0162
 4688SOL    HW218518   4.720   1.315   3.665 -0.1994  0.1749  1.1484
 4688SOL    HW318519   4.712   1.433   3.760  2.2967  2.3439 -1.1618
 4688SOL    MW418520   4.692   1.396   3.683  0.4672  0.6878  0.0101
 4689SOL     OW18521   3.120   2.860   4.816  0.4622 -0.4839  0.0804
 4689SOL    HW218522   3.104   2.820   4.902 -0.1848  0.1850  0.2753
 4689SOL    HW318523   3.083   2.797   4.754  0.6896 -0.8399  0.2961
 4689SOL    MW418524   3.113   2.846   4.819  0.4068 -0.4426  0.1345
 4690SOL     OW18525   6.397   2.233   2.426 -0.3111 -0.7341 -0.0784
 4690SOL    HW218526   6.468   2.185   2.383 -1.6641 -1.1765 -1.9126
 4690SOL    HW318527   6.336   2.254   2.356 -0.3435  2.7563  0.8073
 4690SOL    MW418528   6.398   2.229   2.411 -0.4938 -0.3320 -0.2036
 4691SOL     OW18529   5.963   5.199   5.015 -0.5053 -0.2445 -0.4930
 4691SOL    HW218530   5.924   5.133   4.958 -0.7275 -0.7198  0.2012
 4691SOL    HW318531   5.924   5.282   4.986 -1.1601 -0.5713 -0.5677
 4691SOL    MW418532   5.952   5.201   5.004 -0.6210 -0.3503 -0.4113
 4692SOL     OW18533   6.156   0.808   3.773  0.1312  0.6831 -0.1272
 4692SOL    HW218534   6.066   0.813   3.805  0.6540  0.2648  1.4868
 4692SOL    HW318535   6.150   0.758   3.691 -0.9968 -0.1991  0.4657
 4692SOL    MW418536   6.144   0.802   3.766  0.0513  0.5115  0.1640
 4693SOL     OW18537   3.494   1.303   4.075  0.2628 -0.5072  0.0136
 4693SOL    HW218538   3.458   1.214   4.085 -0.8575 -0.1775 -0.9102
 4693SOL    HW318539   3.586   1.294   4.102 -0.0211 -1.7834  0.6521
 4693SOL    MW418540   3.502   1.290   4.080  0.0775 -0.6321 -0.0240
 4694SOL     OW18541   5.590   2.641   3.720 -0.2171 -0.4476  0.3159
 4694SOL    HW218542   5.518   2.691   3.758  0.4452 -0.7463  2.0509
 4694SOL    HW318543   5.571   2.550   3.742  0.3710 -0.5904  0.2624
 4694SOL    MW418544   5.578   2.636   3.728 -0.0521 -0.5059  0.5377
 4695SOL     OW18545   2.842   0.607   6.032  0.6275 -0.1658 -0.0444
 4695SOL    HW218546   2.883   0.536   5.983  0.1274 -0.4769 -0.0196
 4695SOL    HW318547   2.749   0.602   6.008  0.6848  0.9039 -0.5722
 4695SOL    MW418548   2.835   0.597   6.022  0.5690 -0.0657 -0.1107
 4696SOL     OW18549   4.170   2.520   4.493  0.4239  0.1099 -0.0379
 4696SOL    HW218550   4.103   2.586   4.509 -0.6470 -1.4757  2.8611
 4696SOL    HW318551   4.123   2.446   4.455  1.1497  0.1360 -1.0032
 4696SOL    MW418552   4.155   2.519   4.490  0.3784 -0.0959  0.2172
 4697SOL     OW18553   3.471   2.169   4.478 -0.4419  0.4591 -0.3475
 4697SOL    HW218554   3.454   2.075   4.473 -0.8008  0.5036  0.0141
 4697SOL    HW318555   3.560   2.176   4.513  0.3432  0.2281 -2.1465
 4697SOL    MW418556   3.480   2.158   4.482 -0.3857  0.4345 -0.5372
 4698SOL     OW18557   4.478   1.073   0.671 -0.3193 -0.4767  0.4743
 4698SOL    HW218558   4.517   0.986   0.686 -0.0334 -0.8184 -1.8144
 4698SOL    HW318559   4.547   1.134   0.695  0.4173 -0.9892 -0.2571
 4698SOL    MW418560   4.493   1.070   0.676 -0.1844 -0.5894  0.0759
 4699SOL     OW18561   5.197   0.906   4.332 -0.0433 -0.0604 -0.9380
 4699SOL    HW218562   5.185   0.990   4.377 -2.4224 -0.4200 -0.7554
 4699SOL    HW318563   5.113   0.890   4.290  0.9084 -1.5837 -2.3539
 4699SOL    MW418564   5.184   0.915   4.333 -0.2316 -0.3088 -1.1007
 4700SOL     OW18565   4.967   3.467   4.832 -0.1652  0.0940  0.4338
 4700SOL    HW218566   4.922   3.544   4.867  0.5188  0.3115  0.8508
 4700SOL    HW318567   5.015   3.431   4.906  0.7119  0.1286 -0.0975
 4700SOL    MW418568   4.968   3.472   4.846  0.0408  0.1272  0.4187
 4701SOL     OW18569   3.796   2.504   2.866  0.1000  0.2426 -0.4360
 4701SOL    HW218570   3.701   2.504   2.880  0.3011 -0.5914  1.1335
 4701SOL    HW318571   3.808   2.545   2.781 -1.8210 -1.7242 -1.7319
 4701SOL    MW418572   3.785   2.509   2.857 -0.1269 -0.1270 -0.3999
 4702SOL     OW18573   1.634   1.229   0.717  0.0452  0.2131 -0.0059
 4702SOL    HW218574   1.670   1.170   0.651 -1.4421 -0.2318 -0.4601
 4702SOL    HW318575   1.709   1.255   0.770  1.1449 -0.0369 -1.3889
 4702SOL    MW418576   1.649   1.225   0.716 -0.0059  0.1214 -0.2483
 4703SOL     OW18577   5.574   6.134   0.683 -0.1621 -0.0387  0.7640
 4703SOL    HW218578   5.622   6.179   0.752  0.0284 -0.5955  0.9954
 4703SOL    HW318579   5.494   6.102   0.725 -0.3763  0.2206  0.5609
 4703SOL    MW418580   5.569   6.136   0.698 -0.1652 -0.0780  0.7677
 4704SOL     OW18581   0.683   0.909   4.653 -0.1931 -0.2412  0.0866
 4704SOL    HW218582   0.671   0.954   4.570 -2.1291 -1.4390 -0.3268
 4704SOL    HW318583   0.749   0.961   4.699 -0.0367  1.1729 -1.6470
 4704SOL    MW418584   0.690   0.922   4.648 -0.4279 -0.2126 -0.1967
 4705SOL     OW18585   6.270   5.130   4.655 -0.2106 -0.5082  0.4683
 4705SOL    HW218586   6.250   5.187   4.581 -0.8421 -3.1050 -1.5121
 4705SOL    HW318587   6.352   5.087   4.630  1.1768  0.6623  2.6881
 4705SOL    MW418588   6.278   5.132   4.642 -0.1109 -0.6964  0.4999
 4706SOL     OW18589   3.620   0.039   3.655 -0.1646  0.2088  0.2697
 4706SOL    HW218590   3.530   0.010   3.663 -0.1156 -0.2224 -0.6692
 4706SOL    HW318591   3.629   0.108   3.721 -1.1212  0.1249  0.4947
 4706SOL    MW418592   3.610   0.045   3.664 -0.2843  0.1409  0.1755
 4707SOL     OW18593   4.296   1.209   1.939  0.3240 -0.1623 -0.1700
 4707SOL    HW218594   4.272   1.223   2.030  0.8001  0.6122 -0.1589
 4707SOL    HW318595   4.370   1.148   1.942 -0.5437 -1.2358 -0.1203
 4707SOL    MW418596   4.303   1.203   1.951  0.2723 -0.2017 -0.1620
 4708SOL     OW18597   2.974   4.872   3.871  0.1655  0.3401  0.0429
 4708SOL    HW218598   2.998   4.794   3.921 -1.1337 -0.0030  0.1570
 4708SOL    HW318599   2.988   4.847   3.779  0.3977  0.2117  0.1108
 4708SOL    MW418600   2.979   4.858   3.865  0.0247  0.2779  0.0669
 4709SOL     OW18601   6.165   3.022   1.480 -0.4703  0.4156 -0.2553
 4709SOL    HW218602   6.229   3.090   1.458 -0.3806  0.1534 -0.8214
 4709SOL    HW318603   6.102   3.065   1.537 -1.0594  1.2749 -1.5380
 4709SOL    MW418604   6.165   3.036   1.485 -0.5362  0.4944 -0.4992
 4710SOL     OW18605   4.788   5.000   2.311 -0.2819 -0.6832 -0.6967
 4710SOL    HW218606   4.877   5.028   2.333  0.5339 -2.3079 -1.7908
 4710SOL    HW318607   4.789   4.988   2.216 -1.7446 -0.4903 -0.7543
 4710SOL    MW418608   4.800   5.002   2.302 -0.3673 -0.8721 -0.8486
 4711SOL     OW18609   3.597   5.263   1.665 -0.1092 -0.1037  0.1719
 4711SOL    HW218610   3.675   5.269   1.610  1.4308 -1.6227  2.0472
 4711SOL    HW318611   3.540   5.200   1.621  1.1845 -1.4473  0.3559
 4711SOL    MW418612   3.599   5.256   1.652  0.2647 -0.4814  0.4436
 4712SOL     OW18613   2.821   2.189   5.286 -0.1740 -0.1873  0.4911
 4712SOL    HW218614   2.861   2.105   5.264  1.7791  0.9255 -0.4315
 4712SOL    HW318615   2.895   2.246   5.307 -1.4787  1.2082  1.4770
 4712SOL    MW418616   2.836   2.186   5.286 -0.0884  0.1436  0.4995
 4713SOL     OW18617   0.855   0.413   2.394  0.0877 -0.4523  0.8362
 4713SOL    HW218618   0.784   0.369   2.441  0.7837 -0.7569  1.6255
 4713SOL    HW318619   0.881   0.486   2.451  0.1466 -0.0998  0.3684
 4713SOL    MW418620   0.849   0.417   2.408  0.1873 -0.4460  0.8786
 4714SOL     OW18621   1.199   2.029   2.119  0.6915 -0.5889  0.0702
 4714SOL    HW218622   1.161   2.094   2.060  0.7193 -1.2676 -0.7084
 4714SOL    HW318623   1.280   2.001   2.075  1.7899  0.3852  1.4080
 4714SOL    MW418624   1.204   2.034   2.105  0.8401 -0.5499  0.1440
 4715SOL     OW18625   5.272   5.114   5.232 -0.3646  0.2256  0.4036
 4715SOL    HW218626   5.340   5.068   5.282  0.9033  0.3486 -1.1196
 4715SOL    HW318627   5.200   5.051   5.227  0.6409 -0.9340 -0.1212
 4715SOL    MW418628   5.271   5.099   5.238 -0.0647  0.0888  0.1334
 4716SOL     OW18629   1.177   6.256   1.962 -0.3880 -0.1512 -0.4064
 4716SOL    HW218630   1.220   6.341   1.964 -2.4888  0.9695  0.9423
 4716SOL    HW318631   1.219   6.209   1.889  2.2870  1.1848  0.1584
 4716SOL    MW418632   1.188   6.261   1.952 -0.3123  0.1730 -0.1540
 4717SOL     OW18633   1.876   3.389   2.417  0.4361  0.1559 -0.4338
 4717SOL    HW218634   1.928   3.391   2.337  0.7234  0.2186 -0.2475
 4717SOL    HW318635   1.938   3.365   2.485  0.3144  0.6844 -0.1332
 4717SOL    MW418636   1.891   3.386   2.415  0.4579  0.2339 -0.3696
 4718SOL     OW18637   6.322   0.764   5.316  0.5645 -0.0448  0.3534
 4718SOL    HW218638   6.396   0.798   5.368  2.3436 -0.8864 -1.4825
 4718SOL    HW318639   6.283   0.843   5.277  1.6409  0.3027 -0.0680
 4718SOL    MW418640   6.327   0.779   5.318  0.9412 -0.1100  0.0556
 4719SOL     OW18641   1.228   6.087   3.131 -0.1541  0.2288 -0.1502
 4719SOL    HW218642   1.248   6.124   3.045 -0.0814 -0.2259 -0.3304
 4719SOL    HW318643   1.135   6.108   3.145 -0.3607 -0.3151 -0.6557
 4719SOL    MW418644   1.218   6.095   3.121 -0.1717  0.0970 -0.2407
 4720SOL     OW18645   3.275   2.242   5.963  0.4654  0.0919 -0.5936
 4720SOL    HW218646   3.325   2.170   6.002  0.9923  1.5320  1.6072
 4720SOL    HW318647   3.339   2.312   5.952 -0.0318  0.2850 -2.7076
 4720SOL    MW418648   3.290   2.242   5.967  0.4693  0.3074 -0.5821
 4721SOL     OW18649   1.262   5.018   5.824  0.0595 -0.9639  0.5665
 4721SOL    HW218650   1.343   5.054   5.788 -1.2102 -0.1825 -1.7082
 4721SOL    HW318651   1.226   5.088   5.878  0.4680 -0.9965  0.8847
 4721SOL    MW418652   1.268   5.032   5.826 -0.0542 -0.8651  0.3084
 4722SOL     OW18653   3.122   4.304   3.660  0.5682  0.3424 -0.4509
 4722SOL    HW218654   3.056   4.246   3.622 -1.3039  2.3626 -0.5047
 4722SOL    HW318655   3.171   4.249   3.721 -2.1993 -0.9412  0.7693
 4722SOL    MW418656   3.120   4.289   3.663 -0.0439  0.4396 -0.2970
 4723SOL     OW18657   5.015   0.164   2.897 -0.4197 -0.2962  0.7054
 4723SOL    HW218658   4.991   0.073   2.915  0.3660 -0.6681 -0.0334
 4723SOL    HW318659   5.061   0.193   2.975  1.9436 -1.5081 -0.1363
 4723SOL    MW418660   5.018   0.156   2.909 -0.0043 -0.5052  0.4969
 4724SOL     OW18661   1.272   4.231   4.395  0.2320  0.5298  0.1606
 4724SOL    HW218662   1.320   4.153   4.424  1.6026  1.4635  0.4954
 4724SOL    HW318663   1.235   4.268   4.475  0.5691  0.8710  0.1571
 4724SOL    MW418664   1.273   4.226   4.409  0.4573  0.6980  0.2043
 4725SOL     OW18665   3.359   3.808   1.876  0.3288  0.8627 -0.1508
 4725SOL    HW218666   3.358   3.889   1.825 -3.5352  1.5088  0.6802
 4725SOL    HW318667   3.376   3.836   1.966  0.7720  0.4916 -0.1122
 4725SOL    MW418668   3.361   3.822   1.881 -0.1226  0.8990 -0.0360
 4726SOL     OW18669   2.076   3.983   2.621  0.5102  0.3844  0.3171
 4726SOL    HW218670   2.100   3.944   2.705 -0.4143  0.8133  0.7968
 4726SOL    HW318671   2.012   3.921   2.584  2.1393 -0.6682 -0.8694
 4726SOL    MW418672   2.070   3.969   2.627  0.6031  0.3021  0.2239
 4727SOL     OW18673   4.985   2.020   5.756  0.1389  0.5221 -0.0109
 4727SOL    HW218674   4.915   2.069   5.798 -0.8896 -1.7130  1.1016
 4727SOL    HW318675   4.941   1.947   5.712  1.6699 -0.3038 -0.2718
 4727SOL    MW418676   4.970   2.016   5.756  0.2052  0.1182  0.1014
 4728SOL     OW18677   5.483   2.994   3.316 -0.2000 -0.3016  0.3152
 4728SOL    HW218678   5.501   2.924   3.253 -1.5072 -0.6704  0.3265
 4728SOL    HW318679   5.563   3.046   3.318  0.0245 -0.5427 -1.3142
 4728SOL    MW418680   5.496   2.992   3.308 -0.3429 -0.3821  0.1017
 4729SOL     OW18681   0.727   5.019   4.864 -0.1701 -0.2126  0.4602
 4729SOL    HW218682   0.789   5.019   4.936 -0.9266  2.8794  1.2210
 4729SOL    HW318683   0.740   5.103   4.820 -2.5975 -0.1938 -0.3931
 4729SOL    MW418684   0.737   5.030   4.868 -0.5902  0.1979  0.4480
 4730SOL     OW18685   3.698   3.830   4.812  0.2537 -0.2812 -0.6986
 4730SOL    HW218686   3.638   3.757   4.824 -0.3977  0.3521  0.0498
 4730SOL    HW318687   3.758   3.801   4.743 -0.8852 -0.9474 -1.4490
 4730SOL    MW418688   3.698   3.817   4.804  0.0175 -0.2855 -0.6988
 4731SOL     OW18689   1.691   3.895   0.840  0.9787  0.0431  0.0903
 4731SOL    HW218690   1.743   3.869   0.765  0.4621  0.2746 -0.3557
 4731SOL    HW318691   1.612   3.934   0.803  0.3943 -0.4709  0.7466
 4731SOL    MW418692   1.687   3.897   0.825  0.8334  0.0058  0.1181
 4732SOL     OW18693   4.783   3.052   0.870 -0.1223 -0.0221  0.4992
 4732SOL    HW218694   4.757   2.973   0.821  1.6379 -0.4083  0.1006
 4732SOL    HW318695   4.877   3.059   0.854 -0.1974  2.0202  0.7684
 4732SOL    MW418696   4.792   3.042   0.861  0.1001  0.1964  0.4821
 4733SOL     OW18697   1.243   2.614   4.400 -0.2551  0.0636  0.3197
 4733SOL    HW218698   1.253   2.520   4.416  0.4524  0.0412 -0.2238
 4733SOL    HW318699   1.331   2.650   4.410 -0.4272  0.5867  0.0065
 4733SOL    MW418700   1.256   2.607   4.404 -0.1845  0.1296  0.2067
 4734SOL     OW18701   4.424   5.828   2.374  0.7022 -0.0138 -0.1019
 4734SOL    HW218702   4.389   5.916   2.386 -0.9760 -0.9872  2.8988
 4734SOL    HW318703   4.485   5.816   2.446  1.8702 -0.9419 -1.1847
 4734SOL    MW418704   4.428   5.838   2.385  0.6349 -0.2647  0.1512
 4735SOL     OW18705   0.413   5.447   1.204  0.0473  0.2682  0.2113
 4735SOL    HW218706   0.486   5.486   1.155  0.0107  0.3349  0.2098
 4735SOL    HW318707   0.397   5.363   1.160  3.5443 -2.3254  3.2680
 4735SOL    MW418708   0.421   5.441   1.191  0.5039 -0.0652  0.6144
 4736SOL     OW18709   6.127   0.281   0.672  0.6560 -0.1229  0.0134
 4736SOL    HW218710   6.120   0.241   0.758  0.4911 -0.9430 -0.3720
 4736SOL    HW318711   6.086   0.219   0.613  1.8288 -0.1368 -0.8338
 4736SOL    MW418712   6.121   0.268   0.675  0.7890 -0.2329 -0.1492
 4737SOL     OW18713   5.948   5.293   4.208 -0.4827 -0.2895 -0.0964
 4737SOL    HW218714   6.001   5.228   4.162  1.3533  0.3433  1.0150
 4737SOL    HW318715   5.918   5.352   4.139 -0.1782 -0.9588 -0.8207
 4737SOL    MW418716   5.951   5.292   4.192 -0.2003 -0.2943 -0.0453
 4738SOL     OW18717   0.427   0.252   5.554 -0.9497  0.1130 -0.3861
 4738SOL    HW218718   0.488   0.191   5.513 -0.0565  0.9246 -0.3015
 4738SOL    HW318719   0.439   0.239   5.648 -3.1668 -1.9136 -0.2973
 4738SOL    MW418720   0.437   0.243   5.561 -1.1243 -0.0473 -0.3632
 4739SOL     OW18721   1.784   1.861   6.095  0.1044 -0.3926 -0.1755
 4739SOL    HW218722   1.859   1.811   6.127  0.5173  0.6983  0.5944
 4739SOL    HW318723   1.756   1.913   6.171 -0.1507  0.7466 -1.0282
 4739SOL    MW418724   1.790   1.861   6.110  0.1253 -0.0984 -0.1864
 4740SOL     OW18725   4.527   4.490   6.138 -0.0653  0.0593 -0.4318
 4740SOL    HW218726   4.495   4.407   6.104 -0.6235  0.6994 -1.5155
 4740SOL    HW318727   4.456   4.523   6.193  0.5836 -0.6663  0.9039
 4740SOL    MW418728   4.514   4.483   6.141 -0.0533  0.0480 -0.3985
 4741SOL     OW18729   4.715   4.923   2.047 -0.0284 -0.3472  0.0661
 4741SOL    HW218730   4.651   4.947   1.979  0.2899  0.1237 -0.0753
 4741SOL    HW318731   4.800   4.939   2.006  0.1653  0.6861  0.8370
 4741SOL    MW418732   4.718   4.928   2.032  0.0391 -0.1487  0.1491
 4742SOL     OW18733   4.694   2.029   5.418 -0.0691  0.4981 -0.2875
 4742SOL    HW218734   4.606   2.022   5.455  0.0259  0.1084 -0.1357
 4742SOL    HW318735   4.680   2.037   5.324 -0.1784 -2.3417 -0.5840
 4742SOL    MW418736   4.681   2.029   5.411 -0.0710  0.0720 -0.3066
 4743SOL     OW18737   4.784   2.193   2.631 -0.0189 -0.1517 -0.4248
 4743SOL    HW218738   4.726   2.139   2.685 -0.5282 -0.5433 -1.3297
 4743SOL    HW318739   4.833   2.131   2.578  0.9447  0.1988  0.0248
 4743SOL    MW418740   4.783   2.178   2.631  0.0411 -0.1571 -0.4849
 4744SOL     OW18741   3.247   4.789   5.296  0.1772  0.0802  0.3021
 4744SOL    HW218742   3.155   4.804   5.277  0.1557 -1.8328 -1.4735
 4744SOL    HW318743   3.289   4.874   5.278 -1.1094  0.7810  0.4540
 4744SOL    MW418744   3.241   4.802   5.291  0.0046 -0.0798  0.0879
 4745SOL     OW18745   5.499   2.190   6.376 -0.5064 -0.0940  0.3355
 4745SOL    HW218746   5.482   2.276   6.415 -1.5469  0.1007 -0.5006
 4745SOL    HW318747   5.450   2.128   6.430 -0.7046 -0.0181  0.2415
 4745SOL    MW418748   5.491   2.193   6.388 -0.6698 -0.0583  0.2128
 4746SOL     OW18749   4.715   0.588   6.226 -0.1437 -0.1034  0.0892
 4746SOL    HW218750   4.702   0.494   6.242 -0.8990  0.0831  0.6386
 4746SOL    HW318751   4.640   0.630   6.269 -0.8100  0.6244 -1.6824
 4746SOL    MW418752   4.704   0.581   6.234 -0.3313  0.0172 -0.0721
 4747SOL     OW18753   0.153   4.984   0.547  0.6001  0.3111  0.1462
 4747SOL    HW218754   0.242   5.004   0.518 -0.0153  0.7037 -1.5632
 4747SOL    HW318755   0.115   4.935   0.475 -0.4912 -0.0990  0.9817
 4747SOL    MW418756   0.160   4.980   0.534  0.3749  0.3088  0.0309
 4748SOL     OW18757   6.179   0.145   2.632  0.0991  0.3098 -0.1880
 4748SOL    HW218758   6.233   0.133   2.554  0.4765 -0.3123  0.1648
 4748SOL    HW318759   6.225   0.211   2.684  0.7626 -0.5248  0.3121
 4748SOL    MW418760   6.192   0.152   2.629  0.2365  0.1176 -0.0755
 4749SOL     OW18761   6.135   2.112   1.579  0.5258  0.0571 -0.0933
 4749SOL    HW218762   6.076   2.038   1.569  0.4612 -0.0256  0.8055
 4749SOL    HW318763   6.108   2.174   1.511 -0.8875  0.2136  0.5850
 4749SOL    MW418764   6.124   2.110   1.569  0.3308  0.0668  0.1148
 4750SOL     OW18765   1.330   5.122   1.437  0.4243 -0.1561 -0.3054
 4750SOL    HW218766   1.392   5.072   1.490 -0.0870 -0.6907 -0.2068
 4750SOL    HW318767   1.355   5.213   1.452  1.5576 -0.3752 -0.7238
 4750SOL    MW418768   1.342   5.127   1.446  0.5064 -0.2556 -0.3476
 4751SOL     OW18769   5.750   0.890   3.188 -0.5158 -0.1139  0.2143
 4751SOL    HW218770   5.768   0.858   3.276  0.4632  0.2610  0.1650
 4751SOL    HW318771   5.740   0.811   3.136 -3.7639 -0.4249  1.0971
 4751SOL    MW418772   5.751   0.876   3.193 -0.8152 -0.1054  0.3242
 4752SOL     OW18773   3.874   1.768   2.014 -0.5079  0.0565  0.0668
 4752SOL    HW218774   3.810   1.828   2.054 -1.5174 -1.3841  0.7023
 4752SOL    HW318775   3.826   1.727   1.942 -0.3442 -1.0674  0.5740
 4752SOL    MW418776   3.859   1.771   2.010 -0.6195 -0.2819  0.2176
 4753SOL     OW18777   2.455   6.364   1.992 -0.4883 -0.2450  0.4673
 4753SOL    HW218778   2.370   6.358   1.948 -0.2920 -1.1527  0.1973
 4753SOL    HW318779   2.443   6.434   2.057 -1.4347 -0.3544  0.4272
 4753SOL    MW418780   2.442   6.373   1.995 -0.5873 -0.3792  0.4264
 4754SOL     OW18781   5.822   5.707   4.688 -0.0840 -0.3931 -0.5873
 4754SOL    HW218782   5.831   5.688   4.595 -1.5077  2.3342 -1.3748
 4754SOL    HW318783   5.736   5.674   4.712 -0.3789  0.3118 -0.6541
 4754SOL    MW418784   5.812   5.700   4.679 -0.3108  0.0598 -0.7000
 4755SOL     OW18785   3.103   5.460   3.750 -0.0048  0.6779 -0.4773
 4755SOL    HW218786   3.114   5.546   3.790  0.3099  0.2355  0.4146
 4755SOL    HW318787   3.151   5.400   3.807  0.1304 -0.0355 -1.3095
 4755SOL    MW418788   3.111   5.463   3.763  0.0546  0.5254 -0.4694
 4756SOL     OW18789   4.689   2.990   3.040 -0.0274  0.0819 -0.4302
 4756SOL    HW218790   4.600   2.998   3.006  0.2276  0.1906 -1.1033
 4756SOL    HW318791   4.685   2.917   3.101 -0.7309  0.5337  0.0805
 4756SOL    MW418792   4.677   2.982   3.043 -0.0866  0.1559 -0.4516
 4757SOL     OW18793   5.922   0.773   0.929  0.2192 -0.3895 -0.2576
 4757SOL    HW218794   5.878   0.831   0.991  0.7269 -1.6865  1.3951
 4757SOL    HW318795   6.004   0.817   0.908  0.4835 -0.3619  0.7763
 4757SOL    MW418796   5.927   0.786   0.935  0.3211 -0.5570  0.0968
 4758SOL     OW18797   0.167   1.119   5.133 -0.0305 -0.2053 -0.1389
 4758SOL    HW218798   0.115   1.200   5.126 -2.2923 -1.5248  0.4365
 4758SOL    HW318799   0.204   1.122   5.221 -0.4147  0.0207  0.0155
 4758SOL    MW418800   0.165   1.130   5.143 -0.3796 -0.3496 -0.0426
 4759SOL     OW18801   0.985   4.738   2.875  0.3123 -0.6349 -0.1600
 4759SOL    HW218802   0.919   4.738   2.944 -0.2550  1.0487 -0.6387
 4759SOL    HW318803   0.949   4.682   2.807  0.3081 -1.3173  0.3990
 4759SOL    MW418804   0.971   4.731   2.875  0.2369 -0.5028 -0.1494
 4760SOL     OW18805   2.116   0.518   0.793 -0.2141  0.1563  0.0773
 4760SOL    HW218806   2.179   0.454   0.761 -2.6882 -1.7447 -1.3432
 4760SOL    HW318807   2.119   0.509   0.888  0.2239 -1.3611 -0.0628
 4760SOL    MW418808   2.125   0.509   0.801 -0.4828 -0.2947 -0.1286
 4761SOL     OW18809   4.610   0.297   1.796 -0.1820  0.0394  0.1601
 4761SOL    HW218810   4.580   0.378   1.836 -5.4859 -0.6028 -1.6949
 4761SOL    HW318811   4.665   0.325   1.723 -0.8329  1.9477  0.3378
 4761SOL    MW418812   4.613   0.311   1.792 -0.9677  0.2064 -0.0612
 4762SOL     OW18813   1.037   6.294   1.580  0.1343  0.3067  0.2632
 4762SOL    HW218814   1.019   6.258   1.667 -0.7621 -1.2630 -0.5370
 4762SOL    HW318815   0.957   6.341   1.556  0.5211  1.0711  0.4169
 4762SOL    MW418816   1.024   6.295   1.588  0.0671  0.2005  0.1779
 4763SOL     OW18817   1.435   3.250   1.715  0.5151  0.1469 -0.3944
 4763SOL    HW218818   1.486   3.190   1.661  1.5819  2.2123 -1.8384
 4763SOL    HW318819   1.474   3.336   1.698  0.0856  1.0917  2.7697
 4763SOL    MW418820   1.447   3.254   1.705  0.5992  0.5440 -0.1674
 4764SOL     OW18821   3.670   1.209   6.288  0.0013  0.5746 -0.1087
 4764SOL    HW218822   3.704   1.198   6.377  1.7374 -0.5645 -0.8645
 4764SOL    HW318823   3.746   1.199   6.231 -1.0969  1.1258 -1.7531
 4764SOL    MW418824   3.684   1.206   6.293  0.0854  0.4970 -0.4254
 4765SOL     OW18825   5.180   0.093   1.969 -0.2972 -0.0706  0.2360
 4765SOL    HW218826   5.117   0.022   1.967 -0.4148  0.0382  0.1059
 4765SOL    HW318827   5.143   0.161   1.913 -0.1301  0.0473  0.2655
 4765SOL    MW418828   5.167   0.093   1.961 -0.2907 -0.0407  0.2227
 4766SOL     OW18829   6.380   1.132   0.506 -0.0557 -0.1603  0.0238
 4766SOL    HW218830   6.293   1.163   0.533 -0.4385 -0.6895 -0.5639
 4766SOL    HW318831   6.400   1.183   0.427 -0.4342 -0.9682 -0.6130
 4766SOL    MW418832   6.371   1.143   0.499 -0.1561 -0.3367 -0.1377
 4767SOL     OW18833   2.906   5.614   3.468  0.4828 -0.8742 -0.1825
 4767SOL    HW218834   2.844   5.567   3.524  2.2277 -0.5722  2.1563
 4767SOL    HW318835   2.952   5.546   3.421 -0.2841 -1.1933 -0.4949
 4767SOL    MW418836   2.904   5.599   3.469  0.6118 -0.8765  0.0849
 4768SOL     OW18837   0.133   2.932   3.327 -0.2685  0.2922 -0.1624
 4768SOL    HW218838   0.126   2.872   3.253 -2.2071  0.7444 -0.4146
 4768SOL    HW318839   0.056   2.913   3.381 -0.2826  1.6999  0.3732
 4768SOL    MW418840   0.122   2.922   3.324 -0.5262  0.5376 -0.1250
 4769SOL     OW18841   3.056   0.865   4.654 -0.6928  0.4608 -0.3419
 4769SOL    HW218842   3.041   0.772   4.670 -0.4931  0.4445 -0.2495
 4769SOL    HW318843   3.007   0.883   4.573 -1.2359  0.4177 -0.0320
 4769SOL    MW418844   3.047   0.855   4.645 -0.7381  0.4530 -0.2888
 4770SOL     OW18845   4.747   5.196   4.409  0.4176 -0.2744 -0.9122
 4770SOL    HW218846   4.738   5.272   4.352  1.3264 -2.0379 -3.5916
 4770SOL    HW318847   4.821   5.148   4.374 -0.7210 -2.9224  0.0213
 4770SOL    MW418848   4.755   5.200   4.397  0.3873 -0.8564 -1.1426
 4771SOL     OW18849   3.179   4.175   2.685 -0.0704  0.0191 -0.8008
 4771SOL    HW218850   3.218   4.123   2.755 -3.2127  0.0733  1.1975
 4771SOL    HW318851   3.232   4.254   2.681  0.0996  0.0994  1.7117
 4771SOL    MW418852   3.191   4.178   2.694 -0.4625  0.0368 -0.2056
 4772SOL     OW18853   6.129   4.852   5.787  0.1322  0.2644 -0.0355
 4772SOL    HW218854   6.149   4.933   5.832 -0.8403 -1.1801  3.3312
 4772SOL    HW318855   6.213   4.805   5.782 -0.0315 -0.4014  2.3175
 4772SOL    MW418856   6.143   4.856   5.792 -0.0177 -0.0140  0.7192
 4773SOL     OW18857   6.274   4.044   1.743 -0.7354  0.0210  0.3212
 4773SOL    HW218858   6.307   4.022   1.656 -2.6178  1.6617 -0.8974
 4773SOL    HW318859   6.264   3.960   1.787  0.1821 -0.8484 -1.0574
 4773SOL    MW418860   6.277   4.030   1.737 -0.8627  0.1228 -0.0215
 4774SOL     OW18861   1.860   5.224   1.218 -0.5294  0.2224  0.1239
 4774SOL    HW218862   1.882   5.286   1.148 -0.3338 -0.3305 -0.3168
 4774SOL    HW318863   1.847   5.278   1.295  3.0184  0.5856  0.6230
 4774SOL    MW418864   1.861   5.239   1.219 -0.0355  0.1974  0.1316
 4775SOL     OW18865   5.251   0.551   0.965  0.1129 -0.0457 -0.3312
 4775SOL    HW218866   5.161   0.551   0.995 -0.6167 -1.7960 -2.2310
 4775SOL    HW318867   5.283   0.639   0.983 -1.5004  0.2039  1.6191
 4775SOL    MW418868   5.244   0.563   0.971 -0.1963 -0.2437 -0.3245
 4776SOL     OW18869   4.220   0.956   5.949 -0.1130  0.3713 -0.0724
 4776SOL    HW218870   4.262   0.870   5.938  1.3144  1.1429 -1.0751
 4776SOL    HW318871   4.292   1.014   5.975 -0.6945  1.6130 -1.1580
 4776SOL    MW418872   4.235   0.952   5.951 -0.0014  0.6369 -0.3479
 4777SOL     OW18873   2.176   3.620   2.529 -0.0512  0.0009  0.0550
 4777SOL    HW218874   2.170   3.527   2.548  2.7163 -0.2159  0.3399
 4777SOL    HW318875   2.087   3.653   2.539 -1.0689 -2.5469  0.1519
 4777SOL    MW418876   2.164   3.612   2.533  0.1797 -0.3639  0.1054
 4778SOL     OW18877   1.542   3.737   4.134  0.1879  0.2296  0.1722
 4778SOL    HW218878   1.533   3.721   4.228 -1.9001 -0.2382 -0.0589
 4778SOL    HW318879   1.515   3.828   4.122 -0.1617  0.0992 -0.0467
 4778SOL    MW418880   1.537   3.747   4.145 -0.1337  0.1507  0.1128
 4779SOL     OW18881   0.566   5.112   3.042 -0.2178 -0.3331  0.3048
 4779SOL    HW218882   0.606   5.196   3.064 -2.4283  0.7370  0.4712
 4779SOL    HW318883   0.478   5.116   3.080 -1.1617 -1.8224 -1.5408
 4779SOL    MW418884   0.560   5.124   3.050 -0.6340 -0.3884  0.0833
 4780SOL     OW18885   1.062   3.169   3.536 -0.1277 -0.1189 -0.0396
 4780SOL    HW218886   1.135   3.107   3.525  0.4165  0.2015  1.6093
 4780SOL    HW318887   1.038   3.163   3.628 -1.4654  0.6143 -0.3091
 4780SOL    MW418888   1.068   3.160   3.546 -0.2324  0.0201  0.1424
 4781SOL     OW18889   0.658   4.492   4.858 -0.1616  0.4429  0.2823
 4781SOL    HW218890   0.646   4.579   4.820  0.3360  0.7872  0.8923
 4781SOL    HW318891   0.685   4.509   4.948 -0.9204 -0.3540  0.6716
 4781SOL    MW418892   0.660   4.506   4.865 -0.1961  0.3832  0.4141
 4782SOL     OW18893   2.440   5.871   0.407 -0.2405  0.5084 -0.1478
 4782SOL    HW218894   2.531   5.899   0.407 -0.3908  1.0092  0.6675
 4782SOL    HW318895   2.400   5.915   0.482 -0.5664 -1.5780  0.9936
 4782SOL    MW418896   2.446   5.880   0.417 -0.3033  0.2992  0.1104
 4783SOL     OW18897   4.617   6.315   1.422 -0.0180  0.1303 -0.1547
 4783SOL    HW218898   4.530   6.341   1.454  0.0581  1.4370 -0.9237
 4783SOL    HW318899   4.600   6.282   1.333  0.3210  0.9744 -0.5473
 4783SOL    MW418900   4.603   6.314   1.414  0.0368  0.4141 -0.3080
 4784SOL     OW18901   1.699   1.026   3.588 -0.4819 -1.0893 -0.0956
 4784SOL    HW218902   1.696   0.935   3.557  1.5405 -1.3526  0.3648
 4784SOL    HW318903   1.705   1.019   3.683  0.0361 -0.4736 -0.0787
 4784SOL    MW418904   1.699   1.013   3.597 -0.1467 -1.0428 -0.0327
 4785SOL     OW18905   6.414   2.662   5.241 -0.3889 -0.6005  0.1583
 4785SOL    HW218906   6.472   2.643   5.168 -1.7069 -2.1518 -0.5565
 4785SOL    HW318907   6.328   2.632   5.211 -1.0465 -0.8604  2.1789
 4785SOL    MW418908   6.410   2.656   5.227 -0.6496 -0.8395  0.3306
 4786SOL     OW18909   4.524   4.752   6.420  0.0876 -0.1536  0.0472
 4786SOL    HW218910   4.597   4.696   6.446 -2.0597 -1.4609  4.1540
 4786SOL    HW318911   4.471   4.697   6.362  1.1701  0.0299 -1.1602
 4786SOL    MW418912   4.526   4.738   6.416 -0.0529 -0.3019  0.4298
 4787SOL     OW18913   3.930   2.940   0.379 -0.1482 -0.3370  0.4527
 4787SOL    HW218914   3.970   3.020   0.415  0.8962 -0.7324  0.1861
 4787SOL    HW318915   3.838   2.946   0.405  0.3979 -0.2243  2.5481
 4787SOL    MW418916   3.923   2.952   0.388  0.0616 -0.3743  0.6940
 4788SOL     OW18917   0.878   0.132   1.485 -0.4191  0.2382  0.2468
 4788SOL    HW218918   0.852   0.102   1.398 -0.5217 -1.0625  0.7077
 4788SOL    HW318919   0.798   0.167   1.524 -0.8204 -0.9101  0.5024
 4788SOL    MW418920   0.864   0.132   1.479 -0.4856 -0.0849  0.3414
 4789SOL     OW18921   4.669   0.169   0.249  0.2790  0.1186 -0.0450
 4789SOL    HW218922   4.729   0.144   0.319 -0.3230 -2.4810 -0.3677
 4789SOL    HW318923   4.590   0.117   0.265 -0.4001  0.5281 -1.8546
 4789SOL    MW418924   4.666   0.159   0.260  0.1100 -0.1703 -0.3263
 4790SOL     OW18925   2.722   0.047   0.290 -0.2267 -0.0646 -0.5081
 4790SOL    HW218926   2.659   0.095   0.344  0.8184 -0.0763  0.7638
 4790SOL    HW318927   2.745   0.108   0.219 -2.1464 -0.3107 -1.3982
 4790SOL    MW418928   2.717   0.061   0.288 -0.3421 -0.0986 -0.4577
 4791SOL     OW18929   3.316   3.478   0.934 -0.0264  0.4266 -0.0467
 4791SOL    HW218930   3.316   3.513   1.024  2.6935  0.7159 -0.0958
 4791SOL    HW318931   3.364   3.396   0.941 -0.9515 -0.2293 -1.0612
 4791SOL    MW418932   3.322   3.472   0.947  0.2104  0.3782 -0.1870
 4792SOL     OW18933   4.337   6.438   2.459  0.1116 -0.1978  0.4713
 4792SOL    HW218934   4.387   6.442   2.541 -0.5420  0.4163  0.8546
 4792SOL    HW318935   4.378   6.503   2.403  0.0599 -0.0425  0.6106
 4792SOL    MW418936   4.349   6.447   2.463  0.0186 -0.0963  0.5403
 4793SOL     OW18937   2.932   5.131   2.587  0.4909 -0.2159 -0.0938
 4793SOL    HW218938   2.893   5.157   2.670 -0.7112  2.1845 -1.3081
 4793SOL    HW318939   2.857   5.102   2.534  1.1427 -0.9976 -0.6059
 4793SOL    MW418940   2.917   5.130   2.591  0.4183 -0.0023 -0.3216
 4794SOL     OW18941   3.149   2.715   1.294  0.5461 -0.0551  0.1128
 4794SOL    HW218942   3.152   2.809   1.280 -1.6703 -0.1979 -1.9440
 4794SOL    HW318943   3.159   2.677   1.207  2.0771 -1.8100  0.9703
 4794SOL    MW418944   3.151   2.722   1.281  0.4557 -0.3055 -0.0454
 4795SOL     OW18945   3.589   1.588   1.410 -0.2724 -0.1631 -0.0859
 4795SOL    HW218946   3.621   1.503   1.440  0.2750 -0.5644 -1.7381
 4795SOL    HW318947   3.513   1.569   1.356  0.3132  0.3111 -1.1118
 4795SOL    MW418948   3.584   1.575   1.407 -0.1229 -0.1535 -0.4393
 4796SOL     OW18949   4.481   0.541   6.045 -0.3601  0.5290 -0.4304
 4796SOL    HW218950   4.566   0.520   6.083 -0.1285 -0.6874 -1.5412
 4796SOL    HW318951   4.431   0.459   6.049 -0.5741  0.5325 -2.0178
 4796SOL    MW418952   4.485   0.528   6.050 -0.3578  0.3690 -0.7864
 4797SOL     OW18953   5.032   4.926   0.128 -0.5776  0.4980 -0.3322
 4797SOL    HW218954   5.025   5.021   0.143 -1.0144  0.3654  0.3565
 4797SOL    HW318955   4.950   4.890   0.163 -1.0813  0.0117 -1.9441
 4797SOL    MW418956   5.020   4.934   0.135 -0.7017  0.4163 -0.4540
 4798SOL     OW18957   1.231   3.383   3.653  0.2015 -0.5429 -0.1313
 4798SOL    HW218958   1.178   3.316   3.610 -0.3001 -0.6994  0.6958
 4798SOL    HW318959   1.312   3.385   3.603 -0.9748  0.4635 -2.0926
 4798SOL    MW418960   1.235   3.374   3.641 -0.0199 -0.4308 -0.2809
 4799SOL     OW18961   5.469   6.344   2.631 -0.3982  0.2172 -0.6395
 4799SOL    HW218962   5.466   6.279   2.561 -0.0470 -0.4409 -0.0543
 4799SOL    HW318963   5.377   6.360   2.653 -0.4881 -1.5100  0.4885
 4799SOL    MW418964   5.456   6.337   2.625 -0.3637 -0.0975 -0.4135
 4800SOL     OW18965   4.134   2.637   2.856 -0.4629  0.2770  0.3893
 4800SOL    HW218966   4.165   2.549   2.835  0.2474  0.5576  0.2631
 4800SOL    HW318967   4.185   2.663   2.932 -1.3979  0.1814  1.0723
 4800SOL    MW418968   4.145   2.629   2.863 -0.4925  0.3014  0.4628
 4801SOL     OW18969   1.519   4.749   3.611  0.8779  0.7433  0.0066
 4801SOL    HW218970   1.511   4.721   3.520 -2.4492  1.2366  0.0430
 4801SOL    HW318971   1.583   4.820   3.609  0.7671  0.8284 -1.9829
 4801SOL    MW418972   1.526   4.755   3.599  0.4243  0.8196 -0.2511
 4802SOL     OW18973   4.358   5.406   2.341 -0.2031 -0.4940  0.1371
 4802SOL    HW218974   4.403   5.365   2.267 -1.8007 -0.9498 -0.6315
 4802SOL    HW318975   4.311   5.480   2.302  1.2495  1.0741  1.2194
 4802SOL    MW418976   4.358   5.410   2.326 -0.2223 -0.3472  0.1785
 4803SOL     OW18977   3.819   5.259   1.468  0.0560  0.0027  0.1957
 4803SOL    HW218978   3.831   5.353   1.454  2.2989 -0.3068 -0.2506
 4803SOL    HW318979   3.887   5.236   1.531 -1.2064 -1.1565  1.2054
 4803SOL    MW418980   3.829   5.269   1.475  0.1854 -0.1911  0.2700
 4804SOL     OW18981   0.070   3.120   2.646  0.3802  0.1748  0.0284
 4804SOL    HW218982   0.102   3.209   2.666 -0.3293  0.3459  0.4396
 4804SOL    HW318983   0.097   3.068   2.721  0.0826  0.2228  0.1690
 4804SOL    MW418984   0.078   3.125   2.658  0.2473  0.2037  0.1012
 4805SOL     OW18985   5.231   1.889   2.984 -0.9111  0.1718 -0.3634
 4805SOL    HW218986   5.159   1.846   3.030  1.1540 -0.3777  2.6887
 4805SOL    HW318987   5.275   1.940   3.052  2.1235 -0.2788 -1.8133
 4805SOL    MW418988   5.227   1.890   2.999 -0.2382  0.0399 -0.1520
 4806SOL     OW18989   2.421   3.585   3.210  0.6938  0.2662 -0.2104
 4806SOL    HW218990   2.512   3.558   3.200  0.6758  0.2152 -0.2364
 4806SOL    HW318991   2.374   3.505   3.231  1.1205  0.7136  2.9303
 4806SOL    MW418992   2.427   3.571   3.212  0.7477  0.3185  0.2005
 4807SOL     OW18993   5.671   1.818   2.494  0.0621  0.0402  0.6404
 4807SOL    HW218994   5.751   1.858   2.459  0.1360 -0.0956  0.6536
 4807SOL    HW318995   5.654   1.743   2.437 -0.5306  0.5549  0.1255
 4807SOL    MW418996   5.679   1.813   2.482 -0.0063  0.0901  0.5742
 4808SOL     OW18997   5.991   6.136   1.272 -0.4288 -0.6118  0.6205
 4808SOL    HW218998   6.005   6.205   1.338  0.1650  0.1868 -0.2982
 4808SOL    HW318999   5.908   6.096   1.295 -0.6766  0.2830  1.3153
 4808SOL    MW419000   5.982   6.140   1.283 -0.3832 -0.3884  0.5909
 4809SOL     OW19001   0.219   6.004   1.337 -0.1744  0.8316  0.2649
 4809SOL    HW219002   0.177   6.052   1.409  0.3643  1.3536  0.2347
 4809SOL    HW319003   0.198   6.056   1.259  0.8124  1.2874  0.2938
 4809SOL    MW419004   0.211   6.017   1.336  0.0269  0.9606  0.2647
 4810SOL     OW19005   0.189   2.579   2.960  0.3215  0.0671 -0.7120
 4810SOL    HW219006   0.142   2.656   2.992  1.4157  0.8371 -0.9024
 4810SOL    HW319007   0.134   2.545   2.889  0.6240  1.6718 -1.7570
 4810SOL    MW419008   0.175   2.584   2.955  0.5058  0.3804 -0.8750
 4811SOL     OW19009   5.873   3.728   4.732  0.6623  0.2333 -0.0811
 4811SOL    HW219010   5.821   3.649   4.720  1.7364 -0.5888  0.5067
 4811SOL    HW319011   5.856   3.754   4.823  0.5802  0.4855 -0.1675
 4811SOL    MW419012   5.864   3.721   4.742  0.7932  0.1581 -0.0149
 4812SOL     OW19013   0.592   6.063   5.641  0.5475 -0.6544  0.0885
 4812SOL    HW219014   0.656   6.014   5.591  0.7891 -2.3824  1.9549
 4812SOL    HW319015   0.569   6.005   5.714  0.6463  1.8663  2.2919
 4812SOL    MW419016   0.597   6.049   5.644  0.5924 -0.5498  0.6254
 4813SOL     OW19017   3.325   6.167   1.447 -0.1796  0.0267 -0.0242
 4813SOL    HW219018   3.237   6.160   1.484  0.6693 -1.0497  1.9790
 4813SOL    HW319019   3.347   6.077   1.422  0.0929  0.4064 -1.1973
 4813SOL    MW419020   3.316   6.154   1.449 -0.0317 -0.0652  0.0853
 4814SOL     OW19021   2.556   3.651   4.201  0.3927  0.8041 -0.9376
 4814SOL    HW219022   2.533   3.562   4.174 -0.5645  1.2284 -1.5831
 4814SOL    HW319023   2.565   3.699   4.119  1.0469  1.2804 -0.5990
 4814SOL    MW419024   2.554   3.646   4.187  0.3527  0.9229 -0.9781
 4815SOL     OW19025   2.802   0.645   1.668  0.3845  0.3423 -0.1628
 4815SOL    HW219026   2.892   0.678   1.665  0.6592 -0.0087  2.2676
 4815SOL    HW319027   2.754   0.711   1.717 -0.1676 -0.5282  0.4989
 4815SOL    MW419028   2.807   0.658   1.674  0.3479  0.1811  0.2451
 4816SOL     OW19029   1.672   3.504   3.579 -0.4647  0.1902  0.1574
 4816SOL    HW219030   1.738   3.570   3.559 -0.1224  0.0701  0.8698
 4816SOL    HW319031   1.589   3.543   3.552  0.0079 -0.1584 -1.9826
 4816SOL    MW419032   1.670   3.518   3.573 -0.3572  0.1283 -0.0310
 4817SOL     OW19033   5.350   0.789   2.329 -0.3592  1.0224  0.0200
 4817SOL    HW219034   5.439   0.823   2.338 -0.0453 -0.0923  1.7249
 4817SOL    HW319035   5.361   0.704   2.287 -0.5642  0.7417  0.5175
 4817SOL    MW419036   5.363   0.782   2.325 -0.3448  0.8383  0.3106
 4818SOL     OW19037   2.517   2.587   3.543  0.0601 -0.0887  0.5762
 4818SOL    HW219038   2.437   2.611   3.496  1.1933  1.9248 -0.4409
 4818SOL    HW319039   2.585   2.588   3.476  1.4024  1.0177  1.8951
 4818SOL    MW419040   2.515   2.590   3.528  0.3867  0.3229  0.6160
 4819SOL     OW19041   2.493   5.639   4.162 -0.2252 -0.5783 -0.1056
 4819SOL    HW219042   2.485   5.651   4.256  0.1387 -1.4677  0.0512
 4819SOL    HW319043   2.497   5.728   4.126 -0.9216 -0.2245  0.6585
 4819SOL    MW419044   2.492   5.652   4.170 -0.2690 -0.6490  0.0159
 4820SOL     OW19045   3.225   0.257   6.176  0.4628 -0.0148 -0.0617
 4820SOL    HW219046   3.138   0.218   6.170  0.0689  1.1022 -2.3320
 4820SOL    HW319047   3.209   0.348   6.201  1.1591 -0.3223  1.6433
 4820SOL    MW419048   3.212   0.264   6.179  0.5027  0.0920 -0.1363
 4821SOL     OW19049   2.772   2.245   5.886  0.2505 -0.1591 -0.5441
 4821SOL    HW219050   2.775   2.239   5.790 -0.2463  2.2290 -0.7806
 4821SOL    HW319051   2.714   2.175   5.913 -0.6859 -0.0453 -2.1364
 4821SOL    MW419052   2.765   2.235   5.877  0.0614  0.1710 -0.7854
 4822SOL     OW19053   1.825   2.192   6.110  0.5669  0.2575  0.2858
 4822SOL    HW219054   1.910   2.204   6.068  0.6980  2.1448  0.9816
 4822SOL    HW319055   1.802   2.279   6.142  0.0095 -0.8566  3.2088
 4822SOL    MW419056   1.833   2.205   6.109  0.5107  0.3595  0.7633
 4823SOL     OW19057   2.608   3.695   6.348  0.3373 -0.0961 -0.3274
 4823SOL    HW219058   2.588   3.787   6.367  0.8478 -0.2762  1.1769
 4823SOL    HW319059   2.693   3.699   6.303 -0.5574  0.2821 -2.0704
 4823SOL    MW419060   2.617   3.708   6.345  0.2866 -0.0700 -0.3589
 4824SOL     OW19061   3.964   2.706   2.237  0.4460  0.1465  0.0396
 4824SOL    HW219062   4.050   2.698   2.196  0.3341  0.9008 -0.3646
 4824SOL    HW319063   3.902   2.710   2.163  0.0252 -0.7405  0.3307
 4824SOL    MW419064   3.967   2.706   2.222  0.3757  0.1290  0.0247
 4825SOL     OW19065   4.748   1.593   5.456 -0.3393  0.3038  0.1768
 4825SOL    HW219066   4.710   1.632   5.377  1.2861  0.6012 -0.5022
 4825SOL    HW319067   4.676   1.545   5.496 -0.9628 -0.8201 -2.1266
 4825SOL    MW419068   4.733   1.592   5.451 -0.2071  0.1947 -0.2167
 4826SOL     OW19069   0.913   3.855   3.350  0.1212 -0.3182 -0.5117
 4826SOL    HW219070   0.851   3.913   3.305 -1.0953 -1.3225 -0.2126
 4826SOL    HW319071   0.998   3.879   3.315 -0.3104  1.7441 -0.2689
 4826SOL    MW419072   0.916   3.866   3.339 -0.0962 -0.1786 -0.4402
 4827SOL     OW19073   2.016   3.853   2.246  0.4389 -0.2730 -0.0936
 4827SOL    HW219074   1.978   3.941   2.254 -0.4753 -0.5900 -0.7981
 4827SOL    HW319075   2.020   3.838   2.151  0.6493 -0.9758  0.0230
 4827SOL    MW419076   2.012   3.863   2.234  0.3460 -0.4075 -0.1712
 4828SOL     OW19077   4.705   5.040   5.661  0.4297 -0.0977 -0.0029
 4828SOL    HW219078   4.704   4.951   5.695 -0.9345  0.3877  1.3299
 4828SOL    HW319079   4.731   5.094   5.736  0.9319  0.6708 -0.7059
 4828SOL    MW419080   4.708   5.035   5.676  0.3160  0.0678  0.0802
 4829SOL     OW19081   3.109   0.429   2.799  0.0197  0.5561 -0.2090
 4829SOL    HW219082   3.049   0.367   2.840 -1.2139  1.8362  0.0109
 4829SOL    HW319083   3.098   0.416   2.705  1.1542 -0.7966 -0.1946
 4829SOL    MW419084   3.100   0.420   2.792  0.0066  0.5465 -0.1781
 4830SOL     OW19085   4.973   5.318   3.404  0.0553 -0.1065 -0.0960
 4830SOL    HW219086   4.974   5.317   3.500 -1.1331  0.5159 -0.0653
 4830SOL    HW319087   4.961   5.226   3.379 -1.4772 -0.0722  0.4023
 4830SOL    MW419088   4.972   5.306   3.413 -0.3037 -0.0198 -0.0262
 4831SOL     OW19089   4.047   0.820   4.462 -0.0411 -1.2276 -0.5382
 4831SOL    HW219090   4.096   0.744   4.491 -0.5905 -1.2301  0.4255
 4831SOL    HW319091   3.988   0.840   4.535  1.4443  1.3133  0.1054
 4831SOL    MW419092   4.045   0.813   4.476  0.0824 -0.8927 -0.3261
 4832SOL     OW19093   3.414   0.465   5.580  0.3197 -0.3726 -0.2569
 4832SOL    HW219094   3.472   0.510   5.641 -1.7245 -0.5828  1.9907
 4832SOL    HW319095   3.471   0.441   5.506  2.5443  1.3626  0.7732
 4832SOL    MW419096   3.429   0.468   5.578  0.3435 -0.1714  0.1755
 4833SOL     OW19097   0.251   0.399   0.897  0.6857  0.0005  0.2461
 4833SOL    HW219098   0.251   0.397   0.801  0.1176 -1.5795  0.2603
 4833SOL    HW319099   0.160   0.380   0.922  1.4600 -3.1434  1.0895
 4833SOL    MW419100   0.239   0.397   0.888  0.7129 -0.6228  0.3592
 4834SOL     OW19101   1.344   3.540   4.563  0.1702 -0.1572 -0.1574
 4834SOL    HW219102   1.393   3.483   4.623 -1.4392 -1.4351  0.0311
 4834SOL    HW319103   1.307   3.479   4.499 -0.2901  0.8874 -0.8964
 4834SOL    MW419104   1.346   3.524   4.562 -0.1029 -0.1880 -0.2301
 4835SOL     OW19105   4.506   2.202   3.799  0.0455  0.0597  0.1481
 4835SOL    HW219106   4.445   2.268   3.765  0.4243  0.4580  0.2250
 4835SOL    HW319107   4.491   2.125   3.745  0.6754  0.7028 -0.9925
 4835SOL    MW419108   4.496   2.201   3.787  0.1786  0.1971  0.0077
 4836SOL     OW19109   5.820   2.782   2.824  0.9149  0.1925  0.0874
 4836SOL    HW219110   5.858   2.869   2.838 -2.2524  2.0464 -1.7247
 4836SOL    HW319111   5.806   2.777   2.729  1.1405 -2.4339  0.1080
 4836SOL    MW419112   5.823   2.793   2.813  0.5268  0.0906 -0.1490
 4837SOL     OW19113   2.281   0.174   2.108 -0.4519  0.0880 -0.0004
 4837SOL    HW219114   2.242   0.258   2.132  0.0716  0.1110  0.8491
 4837SOL    HW319115   2.207   0.117   2.087 -0.9148  0.3236  0.9108
 4837SOL    MW419116   2.266   0.177   2.109 -0.4439  0.1222  0.2319
 4838SOL     OW19117   0.214   6.125   3.707  0.0763 -0.6826  0.0114
 4838SOL    HW219118   0.136   6.172   3.736  0.2994 -0.2202 -0.1181
 4838SOL    HW319119   0.246   6.081   3.785  0.7392  0.6454  0.5227
 4838SOL    MW419120   0.208   6.126   3.721  0.1932 -0.4464  0.0618
 4839SOL     OW19121   2.181   5.851   5.440  0.1922  0.6546  0.1054
 4839SOL    HW219122   2.138   5.817   5.518 -1.6796  0.5913 -0.8928
 4839SOL    HW319123   2.261   5.799   5.432 -0.6815 -0.8553  0.7680
 4839SOL    MW419124   2.186   5.839   5.449 -0.1701  0.4470  0.0611
 4840SOL     OW19125   2.805   3.342   1.073  0.9135 -0.1684 -0.1508
 4840SOL    HW219126   2.831   3.428   1.040 -0.1576 -0.3590 -1.5735
 4840SOL    HW319127   2.844   3.337   1.160  0.3144  2.0936  0.2994
 4840SOL    MW419128   2.814   3.352   1.080  0.6932  0.1049 -0.2791
 4841SOL     OW19129   3.980   4.015   1.920 -0.3290  0.6543  0.3513
 4841SOL    HW219130   4.057   3.970   1.884 -0.0853  2.7814 -2.0716
 4841SOL    HW319131   4.017   4.090   1.968 -0.8652  1.1063  0.0613
 4841SOL    MW419132   3.995   4.019   1.922 -0.3676  0.9946 -0.0067
 4842SOL     OW19133   3.078   0.052   0.073 -0.2172 -0.6174  0.3132
 4842SOL    HW219134   3.116   0.061   0.160 -0.3848  1.0171  0.2541
 4842SOL    HW319135   3.145   0.088   0.014 -0.8734  0.0471 -0.0324
 4842SOL    MW419136   3.092   0.058   0.077 -0.3259 -0.3141  0.2598
 4843SOL     OW19137   0.477   2.039   4.239 -0.3464  0.3633 -0.3111
 4843SOL    HW219138   0.501   1.954   4.202 -0.0145 -0.4832  1.6848
 4843SOL    HW319139   0.471   2.097   4.164  2.9877 -0.5561 -1.4525
 4843SOL    MW419140   0.479   2.035   4.225  0.1373  0.1303 -0.1983
 4844SOL     OW19141   4.441   6.013   2.138 -0.4276  0.0335 -0.2492
 4844SOL    HW219142   4.350   5.996   2.115 -0.8301  1.6332  0.0439
 4844SOL    HW319143   4.490   5.990   2.060 -0.8756 -2.2982  0.0779
 4844SOL    MW419144   4.435   6.008   2.125 -0.5398 -0.0631 -0.1674
 4845SOL     OW19145   1.771   3.069   1.821 -0.4603  0.4115  0.0661
 4845SOL    HW219146   1.725   3.077   1.738 -0.6427 -0.7483  0.0373
 4845SOL    HW319147   1.856   3.030   1.798  0.1958  1.6925  0.2277
 4845SOL    MW419148   1.776   3.065   1.807 -0.3978  0.4275  0.0836
 4846SOL     OW19149   4.631   2.417   1.109  0.1360 -0.0874  0.0400
 4846SOL    HW219150   4.675   2.363   1.044  0.0645 -1.4528  1.0966
 4846SOL    HW319151   4.694   2.487   1.128  0.4769 -0.1247 -0.8895
 4846SOL    MW419152   4.645   2.419   1.102  0.1716 -0.2725  0.0567
 4847SOL     OW19153   5.052   0.055   1.428  0.4184  0.7299 -0.4316
 4847SOL    HW219154   5.140   0.070   1.461 -0.1403  0.1286  1.4861
 4847SOL    HW319155   4.995   0.076   1.502 -0.8102 -2.5041 -0.2980
 4847SOL    MW419156   5.056   0.060   1.442  0.1826  0.2239 -0.1610
 4848SOL     OW19157   3.751   0.441   4.469 -0.2653  0.0029 -0.2703
 4848SOL    HW219158   3.739   0.522   4.421 -0.5240  0.0491 -0.1325
 4848SOL    HW319159   3.795   0.382   4.407  2.5140  1.1070  0.5017
 4848SOL    MW419160   3.755   0.444   4.454  0.0673  0.1547 -0.1503
 4849SOL     OW19161   3.758   1.608   0.105  0.4169 -0.2323  0.5366
 4849SOL    HW219162   3.737   1.646   0.190 -1.1754 -1.6413  0.8207
 4849SOL    HW319163   3.682   1.627   0.050  1.4752  0.7651 -0.6452
 4849SOL    MW419164   3.745   1.616   0.109  0.3465 -0.2866  0.4181
 4850SOL     OW19165   6.171   2.664   3.989  0.0141  0.3123 -0.1553
 4850SOL    HW219166   6.100   2.616   3.947 -0.6957 -1.1261  2.5231
 4850SOL    HW319167   6.244   2.602   3.990  0.4767  0.8379 -0.4557
 4850SOL    MW419168   6.172   2.650   3.983 -0.0186  0.1918  0.1585
 4851SOL     OW19169   4.298   2.867   2.723  0.3898 -0.5370  0.3964
 4851SOL    HW219170   4.371   2.834   2.671  0.6979 -0.2614  0.6518
 4851SOL    HW319171   4.241   2.791   2.736  0.9372 -0.8972  0.7207
 4851SOL    MW419172   4.300   2.853   2.717  0.5027 -0.5482  0.4729
 4852SOL     OW19173   1.141   4.411   4.149 -0.3695  0.1347 -0.5419
 4852SOL    HW219174   1.167   4.332   4.101  1.3090  0.6202 -0.5067
 4852SOL    HW319175   1.223   4.446   4.184 -1.4523 -0.1164  2.6327
 4852SOL    MW419176   1.155   4.405   4.148 -0.2909  0.1656 -0.1184
 4853SOL     OW19177   3.064   1.454   5.792 -0.1168 -0.0524 -0.5333
 4853SOL    HW219178   3.114   1.511   5.733 -0.2617  0.6290 -0.0121
 4853SOL    HW319179   3.021   1.515   5.852  0.3025 -0.7606  0.4933
 4853SOL    MW419180   3.065   1.470   5.792 -0.0806 -0.0559 -0.3291
 4854SOL     OW19181   4.686   1.282   2.474 -0.2699  0.4124 -0.0627
 4854SOL    HW219182   4.710   1.238   2.393  1.0285  1.3145 -0.1931
 4854SOL    HW319183   4.723   1.228   2.544  0.0632  0.5116 -0.1596
 4854SOL    MW419184   4.694   1.269   2.473 -0.0546  0.5445 -0.0927
 4855SOL     OW19185   0.417   3.469   4.648  0.2964 -0.8630 -0.2020
 4855SOL    HW219186   0.390   3.559   4.633  0.1182 -1.1960 -2.1627
 4855SOL    HW319187   0.375   3.444   4.730  1.0525  1.0832  0.8144
 4855SOL    MW419188   0.408   3.477   4.656  0.3727 -0.6502 -0.3266
 4856SOL     OW19189   5.994   6.218   0.817  0.4788 -0.0058  0.5574
 4856SOL    HW219190   6.058   6.235   0.886  0.7102  0.1172  0.3140
 4856SOL    HW319191   5.972   6.125   0.827  1.3853 -0.2826  0.0665
 4856SOL    MW419192   5.999   6.208   0.828  0.6289 -0.0261  0.4605
 4857SOL     OW19193   0.086   1.431   1.150  0.2953 -0.0907 -0.2075
 4857SOL    HW219194   0.079   1.511   1.202 -1.0077 -0.0554 -0.3959
 4857SOL    HW319195   0.094   1.361   1.215 -0.0686  0.0639  0.0062
 4857SOL    MW419196   0.086   1.432   1.166  0.0753 -0.0657 -0.2042
 4858SOL     OW19197   3.234   5.885   2.969 -0.1375 -0.4034 -0.0113
 4858SOL    HW219198   3.234   5.859   3.061 -0.1838  0.5216  0.2643
 4858SOL    HW319199   3.309   5.944   2.960 -0.3217 -0.2294 -0.4841
 4858SOL    MW419200   3.244   5.889   2.980 -0.1679 -0.2584 -0.0373
 4859SOL     OW19201   4.769   2.662   1.100  0.1411 -0.2336 -0.4299
 4859SOL    HW219202   4.724   2.746   1.108 -0.8949 -0.7650 -0.5650
 4859SOL    HW319203   4.825   2.658   1.178 -0.1195  0.3905 -0.2027
 4859SOL    MW419204   4.771   2.672   1.112 -0.0300 -0.2214 -0.4178
 4860SOL     OW19205   4.660   5.165   3.890  0.1017  0.6046  0.1327
 4860SOL    HW219206   4.692   5.251   3.919 -0.1237  0.6074  0.3742
 4860SOL    HW319207   4.566   5.177   3.878  0.0157  0.3067  0.4898
 4860SOL    MW419208   4.652   5.178   3.892  0.0606  0.5657  0.2117
 4861SOL     OW19209   5.688   0.699   2.993  0.0843 -0.2763  0.0619
 4861SOL    HW219210   5.751   0.654   2.937  1.2055  0.4763  0.6886
 4861SOL    HW319211   5.640   0.757   2.933  1.1174  0.3552 -0.1731
 4861SOL    MW419212   5.690   0.701   2.977  0.3686 -0.0937  0.1136
 4862SOL     OW19213   4.020   3.598   1.244  0.0936 -0.4531 -0.1173
 4862SOL    HW219214   4.001   3.516   1.290 -3.3898  1.0926  1.6107
 4862SOL    HW319215   4.003   3.578   1.152 -3.5413 -1.1685  0.5460
 4862SOL    MW419216   4.015   3.584   1.238 -0.8456 -0.3436  0.1982
 4863SOL     OW19217   5.974   4.717   4.341 -0.0276  0.6554  0.1127
 4863SOL    HW219218   6.001   4.742   4.253  0.4408  0.1362  0.1021
 4863SOL    HW319219   5.880   4.698   4.332  0.4269 -1.5271 -0.8047
 4863SOL    MW419220   5.965   4.718   4.328  0.0942  0.2990 -0.0098
 4864SOL     OW19221   6.105   1.052   2.555 -0.0063 -0.1076 -0.0118
 4864SOL    HW219222   6.165   1.014   2.491 -1.6408 -2.0263 -0.4742
 4864SOL    HW319223   6.060   1.122   2.507  1.4065  0.9997  0.1917
 4864SOL    MW419224   6.107   1.056   2.540 -0.0355 -0.2146 -0.0460
 4865SOL     OW19225   4.528   5.388   5.822  0.0035 -0.4470 -0.9523
 4865SOL    HW219226   4.593   5.326   5.856 -0.1879 -0.1912 -0.1027
 4865SOL    HW319227   4.457   5.386   5.885  0.2237  1.0177 -0.6190
 4865SOL    MW419228   4.527   5.380   5.835  0.0073 -0.2200 -0.7963
 4866SOL     OW19229   3.322   0.363   3.539 -0.5568  0.1986 -0.1473
 4866SOL    HW219230   3.413   0.384   3.520 -0.2142 -0.6912  0.4524
 4866SOL    HW319231   3.320   0.268   3.545 -1.3608  0.2558  0.6924
 4866SOL    MW419232   3.333   0.353   3.537 -0.6177  0.0887  0.0426
 4867SOL     OW19233   3.457   1.625   5.409  0.1286  0.3144 -0.9933
 4867SOL    HW219234   3.391   1.610   5.476  1.8450  2.5087  1.3903
 4867SOL    HW319235   3.411   1.611   5.326 -2.1524 -2.3283  0.5490
 4867SOL    MW419236   3.442   1.621   5.407  0.0541  0.2552 -0.4753
 4868SOL     OW19237   0.611   1.954   1.408 -0.2213 -0.7077  0.2017
 4868SOL    HW219238   0.524   1.926   1.435 -0.4918 -1.1756 -1.0475
 4868SOL    HW319239   0.597   2.037   1.362  0.5131  1.3681  3.4231
 4868SOL    MW419240   0.598   1.961   1.405 -0.1600 -0.4955  0.4619
 4869SOL     OW19241   2.428   5.274   0.119  0.4175  0.1778  0.1573
 4869SOL    HW219242   2.457   5.215   0.189 -0.4515  0.5517  0.8510
 4869SOL    HW319243   2.469   5.240   0.040  0.3050 -1.0796  0.6205
 4869SOL    MW419244   2.437   5.262   0.118  0.2880  0.0613  0.3100
 4870SOL     OW19245   1.437   2.087   4.925 -0.7056  0.2961 -0.0754
 4870SOL    HW219246   1.517   2.114   4.878  0.4436 -1.0583  1.0151
 4870SOL    HW319247   1.434   2.145   5.001 -0.4540 -0.0158  0.1726
 4870SOL    MW419248   1.447   2.098   4.929 -0.5208  0.0762  0.1012
 4871SOL     OW19249   1.944   1.054   4.595 -0.7471 -0.2224 -0.5435
 4871SOL    HW219250   1.931   1.059   4.690 -1.5987  0.0637 -0.6690
 4871SOL    HW319251   1.871   1.104   4.559  0.3265  0.8431 -1.3036
 4871SOL    MW419252   1.933   1.061   4.603 -0.7178 -0.0441 -0.6604
 4872SOL     OW19253   5.911   2.172   4.595 -0.4106  0.3824  0.2732
 4872SOL    HW219254   5.834   2.124   4.625 -0.0820 -1.5710 -1.7153
 4872SOL    HW319255   5.985   2.117   4.621  0.1875  1.1798  0.3005
 4872SOL    MW419256   5.911   2.159   4.602 -0.2883  0.2299  0.0144
 4873SOL     OW19257   1.897   4.488   3.167 -0.4358 -0.3336 -0.0440
 4873SOL    HW219258   1.803   4.474   3.169 -0.1637 -2.4954  0.4325
 4873SOL    HW319259   1.931   4.417   3.112  0.7569  1.7104 -2.0851
 4873SOL    MW419260   1.889   4.476   3.160 -0.2426 -0.3492 -0.2504
 4874SOL     OW19261   5.705   5.773   2.652  0.0039  0.4846  0.6713
 4874SOL    HW219262   5.711   5.680   2.674  0.3283  0.1974 -0.5545
 4874SOL    HW319263   5.653   5.811   2.723 -1.5398 -0.9246  0.3519
 4874SOL    MW419264   5.699   5.766   2.664 -0.1570  0.2608  0.4674
 4875SOL     OW19265   0.390   2.997   0.014 -0.3127  0.5800 -0.0747
 4875SOL    HW219266   0.333   2.996   0.090 -3.1646  1.4499 -2.0562
 4875SOL    HW319267   0.347   3.055  -0.049  2.0297  0.1371 -2.2753
 4875SOL    MW419268   0.377   3.004   0.015 -0.3799  0.6364 -0.6265
 4876SOL     OW19269   0.514   1.202   4.751 -0.0065  0.6612 -0.3200
 4876SOL    HW219270   0.457   1.176   4.679 -0.6023  0.6722  0.1430
 4876SOL    HW319271   0.576   1.264   4.712 -0.6800  1.0992 -0.6959
 4876SOL    MW419272   0.515   1.207   4.736 -0.1740  0.7205 -0.3085
 4877SOL     OW19273   1.355   4.936   5.155  0.4553  0.3163  0.7158
 4877SOL    HW219274   1.295   4.862   5.163  0.5161  0.1058 -0.5380
 4877SOL    HW319275   1.321   4.987   5.081  0.8303  1.1516  1.1037
 4877SOL    MW419276   1.343   4.933   5.146  0.5128  0.3987  0.6016
 4878SOL     OW19277   2.389   2.556   1.022  0.0135  0.2990  0.1948
 4878SOL    HW219278   2.318   2.517   0.971  1.0855  0.1870 -1.2791
 4878SOL    HW319279   2.396   2.500   1.100 -0.0880 -1.0166 -0.7081
 4878SOL    MW419280   2.380   2.543   1.025  0.1415  0.1106 -0.1188
 4879SOL     OW19281   0.939   3.626   1.367  0.2276 -0.6313  0.2119
 4879SOL    HW219282   1.027   3.636   1.332  1.0397  0.0075  2.3152
 4879SOL    HW319283   0.940   3.539   1.408 -0.6560 -1.2931 -1.0805
 4879SOL    MW419284   0.951   3.616   1.368  0.2182 -0.6344  0.3189
 4880SOL     OW19285   6.031   0.729   6.048 -0.2163  0.2583  0.2654
 4880SOL    HW219286   5.999   0.650   6.006 -0.9094  0.1538  0.9567
 4880SOL    HW319287   6.123   0.735   6.022 -0.0491 -0.9816  0.5151
 4880SOL    MW419288   6.039   0.720   6.039 -0.2857  0.0809  0.3895
 4881SOL     OW19289   1.053   4.975   0.110  0.4739  0.1178  0.1738
 4881SOL    HW219290   1.013   4.901   0.156  1.0219  1.0764  2.2724
 4881SOL    HW319291   1.007   5.052   0.143  2.5136  1.0444  0.9787
 4881SOL    MW419292   1.041   4.975   0.120  0.8153  0.3665  0.5569
 4882SOL     OW19293   0.683   1.841   1.126  0.2782  0.3966  0.3376
 4882SOL    HW219294   0.700   1.835   1.032  0.6353 -0.7801  0.4584
 4882SOL    HW319295   0.749   1.902   1.159  0.2624  0.6805 -0.1423
 4882SOL    MW419296   0.694   1.848   1.118  0.3233  0.2788  0.2902
 4883SOL     OW19297   6.372   1.929   5.601  0.2566 -0.2028  0.5930
 4883SOL    HW219298   6.330   2.004   5.643  0.4370  0.3408 -0.1551
 4883SOL    HW319299   6.347   1.938   5.508  1.2360 -0.4021  0.3030
 4883SOL    MW419300   6.363   1.940   5.594  0.4096 -0.1574  0.4560
 4884SOL     OW19301   4.740   2.706   5.159 -0.0136 -0.4669  0.0606
 4884SOL    HW219302   4.764   2.719   5.251 -2.8183 -1.1473  0.9974
 4884SOL    HW319303   4.693   2.786   5.135 -0.7994 -0.9983 -0.2077
 4884SOL    MW419304   4.737   2.718   5.168 -0.4873 -0.6267  0.1488
 4885SOL     OW19305   2.058   4.234   3.361 -0.5534  0.3868  0.5658
 4885SOL    HW219306   2.091   4.319   3.392 -0.2351  0.6802 -0.5087
 4885SOL    HW319307   2.084   4.172   3.429  1.2382  0.7944  0.3125
 4885SOL    MW419308   2.066   4.237   3.374 -0.2750  0.4793  0.3907
 4886SOL     OW19309   0.246   4.479   4.277  0.3299 -0.0808 -0.4344
 4886SOL    HW219310   0.188   4.406   4.255 -1.0695  0.3939  1.4539
 4886SOL    HW319311   0.188   4.548   4.308  1.8882  0.1353  2.3334
 4886SOL    MW419312   0.231   4.479   4.278  0.3509  0.0104  0.1799
 4887SOL     OW19313   5.631   0.895   3.998  0.0490  0.6007  0.4915
 4887SOL    HW219314   5.555   0.948   4.022  0.6853  1.1485  1.3589
 4887SOL    HW319315   5.705   0.941   4.037  0.7180 -0.4350  0.4758
 4887SOL    MW419316   5.631   0.908   4.007  0.2212  0.5363  0.6038
 4888SOL     OW19317   0.834   0.769   1.376 -0.4065 -0.1466 -0.2629
 4888SOL    HW219318   0.929   0.773   1.364 -0.6460  1.0995 -2.3647
 4888SOL    HW319319   0.818   0.686   1.421  1.8291  0.7249  2.4413
 4888SOL    MW419320   0.844   0.759   1.381 -0.1431  0.1328 -0.1835
 4889SOL     OW19321   1.136   3.107   4.258 -0.7390  0.4492 -0.1619
 4889SOL    HW219322   1.078   3.086   4.332 -0.5694 -1.2768 -0.4609
 4889SOL    HW319323   1.077   3.138   4.190 -1.1439  0.1764  0.0540
 4889SOL    MW419324   1.120   3.108   4.259 -0.7701  0.1855 -0.1728
 4890SOL     OW19325   6.169   2.196   1.186  0.2033 -0.2048  0.0516
 4890SOL    HW219326   6.259   2.228   1.187  0.8480 -1.8173  2.0328
 4890SOL    HW319327   6.130   2.237   1.109  2.1235  1.8635  0.0540
 4890SOL    MW419328   6.176   2.205   1.176  0.5417 -0.1447  0.3133
 4891SOL     OW19329   2.980   4.685   4.575  0.4426 -0.1564  0.0267
 4891SOL    HW219330   2.960   4.778   4.577 -0.3681 -0.3078 -0.5238
 4891SOL    HW319331   2.933   4.649   4.650 -1.7700 -0.5631 -1.4477
 4891SOL    MW419332   2.971   4.692   4.585  0.0437 -0.2300 -0.2404
 4892SOL     OW19333   3.366   3.109   5.327  0.3325 -0.0818  0.1699
 4892SOL    HW219334   3.401   3.196   5.307  2.3001 -0.6302  0.9858
 4892SOL    HW319335   3.408   3.051   5.264 -1.1276 -0.4307 -0.5025
 4892SOL    MW419336   3.376   3.113   5.316  0.3994 -0.2002  0.1888
 4893SOL     OW19337   0.650   3.125   0.947 -0.3565 -0.1031 -0.2195
 4893SOL    HW219338   0.597   3.166   0.879  0.2154  0.0088 -0.5982
 4893SOL    HW319339   0.738   3.122   0.911  0.0581  0.4053  0.6983
 4893SOL    MW419340   0.655   3.130   0.933 -0.2263 -0.0212 -0.1484
 4894SOL     OW19341   2.961   5.593   0.507  0.1558 -0.0252 -0.2020
 4894SOL    HW219342   3.044   5.587   0.552  0.2715 -1.6427 -0.5873
 4894SOL    HW319343   2.983   5.629   0.421  0.4932 -0.6808 -0.3904
 4894SOL    MW419344   2.975   5.597   0.501  0.2156 -0.3251 -0.2777
 4895SOL     OW19345   0.427   1.480   4.649  0.0167  0.1565  0.1142
 4895SOL    HW219346   0.434   1.415   4.720 -0.6987 -1.9775 -1.6454
 4895SOL    HW319347   0.356   1.447   4.594 -0.7861  2.8239 -0.5686
 4895SOL    MW419348   0.419   1.467   4.651 -0.1836  0.2269 -0.2080
 4896SOL     OW19349   3.704   5.339   0.902  0.2077  1.0510  0.1347
 4896SOL    HW219350   3.740   5.420   0.938  0.8144  1.0529 -0.4510
 4896SOL    HW319351   3.712   5.275   0.972  2.8746  0.6227 -0.4492
 4896SOL    MW419352   3.710   5.341   0.916  0.6396  0.9947 -0.0196
 4897SOL     OW19353   0.027   0.660   0.162 -0.0167 -0.3843 -0.5395
 4897SOL    HW219354   0.029   0.661   0.066 -1.2785 -2.6696 -0.6604
 4897SOL    HW319355   0.114   0.629   0.187  0.8664  1.6907 -0.8102
 4897SOL    MW419356   0.039   0.656   0.153 -0.0667 -0.4120 -0.5912
 4898SOL     OW19357   5.408   0.588   4.179  0.5711 -0.1128  0.4672
 4898SOL    HW219358   5.426   0.499   4.149  0.6331  0.1339 -0.2557
 4898SOL    HW319359   5.395   0.580   4.273 -0.5142 -1.0472  0.2511
 4898SOL    MW419360   5.409   0.575   4.187  0.4361 -0.2035  0.3433
 4899SOL     OW19361   6.252   6.070   4.164  0.0947  0.1687 -0.4121
 4899SOL    HW219362   6.334   6.118   4.152  0.5524 -0.5150 -0.1263
 4899SOL    HW319363   6.275   5.999   4.225 -0.8249  0.2499  0.0503
 4899SOL    MW419364   6.266   6.067   4.171  0.0338  0.0892 -0.3134
 4900SOL     OW19365   5.204   3.681   4.664 -0.3589  0.2476 -0.3943
 4900SOL    HW219366   5.284   3.733   4.653 -0.6235  0.3649 -1.9518
 4900SOL    HW319367   5.155   3.726   4.732  1.7397 -0.8907  2.0580
 4900SOL    MW419368   5.208   3.694   4.672 -0.1169  0.1129 -0.2762
 4901SOL     OW19369   1.675   0.634   6.181  0.0474  1.0646  0.7990
 4901SOL    HW219370   1.747   0.667   6.235  1.5718 -0.1068 -0.4407
 4901SOL    HW319371   1.655   0.548   6.218  1.3889  0.0703 -0.6948
 4901SOL    MW419372   1.682   0.627   6.193  0.4255  0.7788  0.4383
 4902SOL     OW19373   1.591   5.926   4.784 -0.1756 -0.0813  0.4668
 4902SOL    HW219374   1.599   5.831   4.772 -2.7036 -0.4161  0.8659
 4902SOL    HW319375   1.634   5.943   4.868 -2.2153 -1.4268  1.8953
 4902SOL    MW419376   1.598   5.916   4.793 -0.7783 -0.3030  0.7079
 4903SOL     OW19377   1.736   5.397   0.509 -0.0966  0.2550 -0.2939
 4903SOL    HW219378   1.765   5.476   0.464  0.8082 -0.0096 -0.1956
 4903SOL    HW319379   1.784   5.326   0.466 -0.8417 -0.2403 -0.3330
 4903SOL    MW419380   1.746   5.398   0.497 -0.0755  0.1548 -0.2861
 4904SOL     OW19381   4.938   5.825   0.506 -0.6617 -0.2767  0.4587
 4904SOL    HW219382   4.880   5.774   0.449 -1.0239  0.4471  0.1618
 4904SOL    HW319383   4.902   5.914   0.504  0.2796  0.1277  0.5052
 4904SOL    MW419384   4.926   5.830   0.498 -0.5853 -0.1278  0.4257
 4905SOL     OW19385   5.270   2.257   3.674  0.7170 -0.3032  0.0277
 4905SOL    HW219386   5.322   2.254   3.594  1.0338 -1.6500  0.2508
 4905SOL    HW319387   5.314   2.322   3.729 -0.2982  1.6664 -1.3749
 4905SOL    MW419388   5.283   2.265   3.671  0.6248 -0.2210 -0.1279
 4906SOL     OW19389   0.507   3.685   5.694 -0.0815  0.2283  0.4561
 4906SOL    HW219390   0.527   3.679   5.601  1.1609  0.3661  0.6986
 4906SOL    HW319391   0.427   3.634   5.705  0.8012 -1.4139 -0.3944
 4906SOL    MW419392   0.499   3.677   5.683  0.1989  0.0298  0.3759
 4907SOL     OW19393   4.263   6.116   5.437 -0.1423 -0.2259  0.4370
 4907SOL    HW219394   4.297   6.027   5.428 -0.0636 -0.2838  1.2387
 4907SOL    HW319395   4.176   6.113   5.397  0.6970 -0.1039 -1.5563
 4907SOL    MW419396   4.256   6.104   5.430 -0.0212 -0.2175  0.2798
 4908SOL     OW19397   1.361   0.043   2.154  0.2610  0.0648 -0.3985
 4908SOL    HW219398   1.287  -0.001   2.196  0.2619 -0.7577 -1.2139
 4908SOL    HW319399   1.338   0.136   2.156 -0.0203 -0.0217  0.8296
 4908SOL    MW419400   1.348   0.049   2.160  0.2240 -0.0551 -0.3441
 4909SOL     OW19401   4.122   2.695   1.005 -0.1771 -0.2361  0.1804
 4909SOL    HW219402   4.134   2.600   0.998 -0.2355 -0.3211  1.0993
 4909SOL    HW319403   4.043   2.705   1.057  1.2010  0.2879  2.2985
 4909SOL    MW419404   4.113   2.684   1.011 -0.0030 -0.1782  0.5811
 4910SOL     OW19405   0.264   1.129   3.260  0.2088  0.4835  0.3123
 4910SOL    HW219406   0.286   1.202   3.201 -1.5949 -0.8664 -2.2068
 4910SOL    HW319407   0.263   1.052   3.204 -1.1598 -0.9892  2.2157
 4910SOL    MW419408   0.267   1.129   3.245 -0.2098  0.1111  0.2311
 4911SOL     OW19409   0.097   3.762   0.213  0.1201  0.0083  1.3986
 4911SOL    HW219410   0.092   3.756   0.117  0.2209  0.4334  1.3619
 4911SOL    HW319411   0.167   3.825   0.229 -1.9692  2.4546  1.6566
 4911SOL    MW419412   0.106   3.770   0.202 -0.1422  0.3871  1.4278
 4912SOL     OW19413   4.085   0.393   2.867  0.4007 -0.1675 -0.3115
 4912SOL    HW219414   4.017   0.343   2.822 -0.0914  0.0487  0.1787
 4912SOL    HW319415   4.039   0.439   2.936  0.9353  0.5610 -0.4301
 4912SOL    MW419416   4.070   0.392   2.870  0.4063 -0.0429 -0.2625
 4913SOL     OW19417   0.951   6.364   1.051  0.4328 -0.0550  0.3335
 4913SOL    HW219418   0.931   6.345   0.959 -0.4372  0.8416  0.3078
 4913SOL    HW319419   0.941   6.281   1.096  1.1874 -0.5743 -0.4300
 4913SOL    MW419420   0.947   6.351   1.045  0.4175 -0.0053  0.2294
 4914SOL     OW19421   1.922   2.423   4.049 -0.5649  0.2292  0.2387
 4914SOL    HW219422   1.975   2.453   4.123 -0.6212  0.4446  0.1923
 4914SOL    HW319423   1.857   2.492   4.036 -0.6423  0.1272  0.0756
 4914SOL    MW419424   1.921   2.436   4.057 -0.5825  0.2442  0.2111
 4915SOL     OW19425   5.504   0.702   3.313 -0.6561  0.3092 -0.0039
 4915SOL    HW219426   5.593   0.687   3.281  0.5613  1.4666  2.5271
 4915SOL    HW319427   5.491   0.796   3.302 -0.9155  0.4150  1.0733
 4915SOL    MW419428   5.514   0.713   3.307 -0.5297  0.4758  0.4721
 4916SOL     OW19429   1.495   3.475   4.985 -0.1716  0.1420 -0.1898
 4916SOL    HW219430   1.439   3.409   5.028 -0.5517  1.3292  1.2278
 4916SOL    HW319431   1.433   3.537   4.948  0.1881 -0.2005 -1.3834
 4916SOL    MW419432   1.479   3.474   4.986 -0.1743  0.2534 -0.1603
 4917SOL     OW19433   4.073   2.334   3.616 -0.7762 -0.4530  0.1245
 4917SOL    HW219434   4.013   2.407   3.629  0.2515  0.4743 -0.1518
 4917SOL    HW319435   4.152   2.359   3.665  1.3100  0.7963 -3.4842
 4917SOL    MW419436   4.075   2.347   3.624 -0.3654 -0.1659 -0.3881
 4918SOL     OW19437   6.172   1.290   1.946  0.1912 -0.3792 -0.0777
 4918SOL    HW219438   6.090   1.333   1.970  1.0573  0.8594  0.8150
 4918SOL    HW319439   6.145   1.208   1.906 -1.4672 -0.2581  0.6944
 4918SOL    MW419440   6.158   1.285   1.944  0.0867 -0.1998  0.1419
 4919SOL     OW19441   1.078   5.989   6.372 -0.1025 -0.3647 -0.1262
 4919SOL    HW219442   1.006   5.934   6.401  0.1421 -0.6177  0.0110
 4919SOL    HW319443   1.087   5.970   6.278 -0.4253 -0.0850 -0.2167
 4919SOL    MW419444   1.070   5.979   6.363 -0.1128 -0.3612 -0.1200
 4920SOL     OW19445   0.476   4.129   5.344  0.4180  0.0199  0.2010
 4920SOL    HW219446   0.511   4.113   5.257 -0.2262  1.6870 -0.4069
 4920SOL    HW319447   0.416   4.055   5.360 -1.2066  0.8117 -1.7467
 4920SOL    MW419448   0.473   4.117   5.335  0.1186  0.3443 -0.1362
 4921SOL     OW19449   5.765   1.850   4.389 -0.6524 -0.4573 -0.3855
 4921SOL    HW219450   5.782   1.852   4.295  1.3203 -0.7113 -0.0705
 4921SOL    HW319451   5.710   1.927   4.404 -1.7155 -0.8872 -1.8485
 4921SOL    MW419452   5.760   1.861   4.379 -0.5324 -0.5475 -0.5369
 4922SOL     OW19453   5.572   5.740   5.425 -0.2260 -0.1258  0.1377
 4922SOL    HW219454   5.497   5.741   5.484  1.6382 -1.0288  2.6757
 4922SOL    HW319455   5.579   5.648   5.397  0.5929 -0.2858  0.8399
 4922SOL    MW419456   5.563   5.728   5.429  0.1280 -0.2660  0.5652
 4923SOL     OW19457   2.498   0.623   1.225 -0.3703  0.5668  0.0332
 4923SOL    HW219458   2.443   0.676   1.168  0.5925  1.1489 -0.3702
 4923SOL    HW319459   2.510   0.676   1.303 -0.0764  0.5919 -0.0303
 4923SOL    MW419460   2.492   0.637   1.228 -0.2045  0.6469 -0.0284
 4924SOL     OW19461   5.418   5.848   3.642  0.4525  0.1962 -0.4168
 4924SOL    HW219462   5.338   5.842   3.694 -0.1320 -2.0030 -1.4854
 4924SOL    HW319463   5.399   5.916   3.577 -0.0029  0.6526  0.1762
 4924SOL    MW419464   5.405   5.856   3.640  0.3153 -0.0338 -0.4796
 4925SOL     OW19465   0.558   4.923   4.421 -0.3842  0.3620 -0.0823
 4925SOL    HW219466   0.567   5.018   4.428  0.3260  0.4319 -1.5893
 4925SOL    HW319467   0.547   4.907   4.328  1.7459 -1.2155 -0.1246
 4925SOL    MW419468   0.557   4.934   4.410 -0.0094  0.1631 -0.2867
 4926SOL     OW19469   4.822   3.549   4.092  0.3222 -0.1165  0.4844
 4926SOL    HW219470   4.901   3.518   4.049  0.3472  0.6788 -0.0625
 4926SOL    HW319471   4.760   3.477   4.084  1.2359 -1.0709  1.6488
 4926SOL    MW419472   4.824   3.536   4.086  0.4461 -0.1375  0.5659
 4927SOL     OW19473   0.320   5.196   1.541  0.4025 -0.3039 -0.0735
 4927SOL    HW219474   0.317   5.232   1.629 -0.1143 -0.1460 -0.1489
 4927SOL    HW319475   0.291   5.268   1.485 -2.4796 -1.3053 -0.0569
 4927SOL    MW419476   0.316   5.210   1.545 -0.0459 -0.4152 -0.0812
 4928SOL     OW19477   4.546   3.249   6.227  0.0088 -0.2734  0.4675
 4928SOL    HW219478   4.574   3.159   6.242 -1.5096 -0.6891  1.0012
 4928SOL    HW319479   4.606   3.302   6.279 -0.8097 -1.2002  2.4751
 4928SOL    MW419480   4.557   3.244   6.236 -0.2996 -0.4505  0.8028
 4929SOL     OW19481   3.158   3.400   1.248  0.1988  0.0742 -0.8582
 4929SOL    HW219482   3.244   3.386   1.288 -0.3175 -0.1875  0.2117
 4929SOL    HW319483   3.157   3.341   1.173  0.7160 -0.3871 -0.5127
 4929SOL    MW419484   3.169   3.390   1.243  0.1989 -0.0212 -0.6714
 4930SOL     OW19485   4.958   4.851   4.888  0.5715  0.1159  0.5048
 4930SOL    HW219486   4.934   4.824   4.977  0.6978 -1.5318  0.0708
 4930SOL    HW319487   4.875   4.848   4.839  0.3799  1.6382  0.6699
 4930SOL    MW419488   4.944   4.847   4.894  0.5629  0.0994  0.4693
 4931SOL     OW19489   3.599   0.370   1.971 -0.5547  0.0926  0.5628
 4931SOL    HW219490   3.535   0.385   1.902 -2.4753 -1.4278  1.8947
 4931SOL    HW319491   3.675   0.334   1.926 -1.0985  0.7533 -0.9362
 4931SOL    MW419492   3.601   0.367   1.956 -0.8798 -0.0209  0.5408
 4932SOL     OW19493   1.495   4.176   3.341  0.5087 -0.0425 -0.2632
 4932SOL    HW219494   1.528   4.146   3.256 -0.8703  0.6571 -1.0768
 4932SOL    HW319495   1.485   4.096   3.392  0.1220 -0.6199 -1.2172
 4932SOL    MW419496   1.498   4.162   3.336  0.2757 -0.0264 -0.4964
 4933SOL     OW19497   1.143   2.981   6.168  0.3101 -0.5828 -0.4340
 4933SOL    HW219498   1.210   2.941   6.111  1.3474 -0.0361  0.3744
 4933SOL    HW319499   1.158   2.941   6.253 -1.6325 -1.8507 -0.6266
 4933SOL    MW419500   1.154   2.970   6.171  0.1906 -0.6779 -0.3528
 4934SOL     OW19501   3.859   3.560   3.055  0.0791  0.1142 -0.0887
 4934SOL    HW219502   3.841   3.536   3.146 -4.0112  0.1634 -0.6931
 4934SOL    HW319503   3.825   3.649   3.046  0.4912  0.1500 -1.6336
 4934SOL    MW419504   3.852   3.568   3.065 -0.4062  0.1254 -0.3723
 4935SOL     OW19505   5.985   2.770   4.650 -0.1033  0.4235 -0.1248
 4935SOL    HW219506   5.917   2.707   4.672  1.7688 -2.1936 -1.3646
 4935SOL    HW319507   5.962   2.800   4.562  0.4754 -0.7306 -0.6899
 4935SOL    MW419508   5.973   2.766   4.641  0.2200 -0.0741 -0.3629
 4936SOL     OW19509   4.330   0.881   2.913 -0.2474  0.2404  0.5946
 4936SOL    HW219510   4.402   0.817   2.916  0.0584  0.5946  0.9177
 4936SOL    HW319511   4.267   0.842   2.853  0.4210  0.1453 -0.0644
 4936SOL    MW419512   4.331   0.867   2.906 -0.1189  0.2746  0.5503
 4937SOL     OW19513   1.256   3.287   6.420 -0.2246 -0.1951 -0.0156
 4937SOL    HW219514   1.274   3.358   6.482 -0.0457 -0.0530 -0.2292
 4937SOL    HW319515   1.175   3.248   6.452  0.5888 -1.0234  1.1297
 4937SOL    MW419516   1.248   3.292   6.433 -0.0937 -0.2856  0.1073
 4938SOL     OW19517   2.903   1.446   4.149  0.4598  0.0797 -0.0025
 4938SOL    HW219518   2.994   1.416   4.150  0.0441 -1.2928 -0.8456
 4938SOL    HW319519   2.853   1.372   4.184 -0.5440 -0.0088 -1.5360
 4938SOL    MW419520   2.908   1.432   4.154  0.2725 -0.1130 -0.3161
 4939SOL     OW19521   6.360   5.812   5.210 -0.0568 -0.3799  0.5257
 4939SOL    HW219522   6.396   5.816   5.121 -0.9129 -0.7650  0.1524
 4939SOL    HW319523   6.277   5.859   5.204  0.0233 -0.1374  1.2032
 4939SOL    MW419524   6.354   5.819   5.198 -0.1592 -0.3987  0.5658
 4940SOL     OW19525   0.176   1.977   1.504  0.4770 -0.5034  0.1110
 4940SOL    HW219526   0.082   1.973   1.490 -0.0424  2.2218  2.1646
 4940SOL    HW319527   0.212   1.999   1.418 -0.7525 -1.2783 -0.6276
 4940SOL    MW419528   0.169   1.979   1.491  0.2462 -0.2461  0.2845
 4941SOL     OW19529   1.530   1.205   4.079 -0.3795  0.3286  0.6079
 4941SOL    HW219530   1.609   1.213   4.025  0.1407 -0.1254  1.2834
 4941SOL    HW319531   1.544   1.267   4.151 -0.2579 -0.3640  1.1826
 4941SOL    MW419532   1.542   1.214   4.081 -0.2948  0.1773  0.7729
 4942SOL     OW19533   0.150   1.167   4.823 -0.5445  0.6150  0.5786
 4942SOL    HW219534   0.184   1.254   4.843  0.2370  1.2929 -2.9295
 4942SOL    HW319535   0.067   1.184   4.778 -0.6632 -0.4622  0.3695
 4942SOL    MW419536   0.144   1.181   4.820 -0.4571  0.5623  0.0882
 4943SOL     OW19537   4.709   6.016   4.001  0.2442 -0.1762 -0.3021
 4943SOL    HW219538   4.712   6.039   4.094 -1.6306 -1.2176  0.0698
 4943SOL    HW319539   4.801   6.006   3.976  0.8366  1.2428  1.1250
 4943SOL    MW419540   4.722   6.018   4.010  0.0750 -0.1263 -0.0648
 4944SOL     OW19541   3.636   4.819   4.035 -0.5450 -0.1376 -0.2077
 4944SOL    HW219542   3.621   4.859   3.950 -1.2057  2.6357  1.0771
 4944SOL    HW319543   3.550   4.786   4.062 -0.5457 -0.1313 -0.2029
 4944SOL    MW419544   3.623   4.820   4.028 -0.6323  0.2291 -0.0375
 4945SOL     OW19545   4.173   1.578   3.545 -0.1371 -0.1358 -0.0772
 4945SOL    HW219546   4.098   1.608   3.494 -0.4042  0.5022  0.6749
 4945SOL    HW319547   4.206   1.502   3.497 -0.9777 -0.1353 -0.6700
 4945SOL    MW419548   4.167   1.572   3.532 -0.2832 -0.0516 -0.0562
 4946SOL     OW19549   3.366   2.412   2.480  0.6982  0.1425 -0.1192
 4946SOL    HW219550   3.294   2.363   2.442  2.4645  0.3906 -4.2942
 4946SOL    HW319551   3.324   2.489   2.520 -1.5102 -1.2669  0.4258
 4946SOL    MW419552   3.351   2.416   2.481  0.6399 -0.0107 -0.5982
 4947SOL     OW19553   5.701   4.335   4.655 -0.1960  0.0901  0.3384
 4947SOL    HW219554   5.769   4.388   4.614  0.2535 -1.1195 -0.5263
 4947SOL    HW319555   5.689   4.374   4.741  0.1114  1.5939 -0.2674
 4947SOL    MW419556   5.708   4.347   4.661 -0.0962  0.1289  0.1444
 4948SOL     OW19557   4.470   4.512   1.996 -0.3011  0.1863  0.5802
 4948SOL    HW219558   4.556   4.545   2.019  0.2391 -0.5551 -0.3221
 4948SOL    HW319559   4.466   4.425   2.036 -0.0327 -0.3919 -0.6066
 4948SOL    MW419560   4.480   4.505   2.005 -0.1944  0.0122  0.3046
 4949SOL     OW19561   2.387   6.113   5.713  0.1928 -0.5769 -0.1589
 4949SOL    HW219562   2.361   6.133   5.623 -1.0673  1.9092  0.6864
 4949SOL    HW319563   2.313   6.066   5.750  0.1648 -0.4342 -0.0336
 4949SOL    MW419564   2.374   6.109   5.706  0.0229 -0.2301 -0.0309
 4950SOL     OW19565   2.040   1.543   6.407  0.2691 -0.1377  0.3298
 4950SOL    HW219566   1.992   1.595   6.472 -1.0220 -1.4095  0.4602
 4950SOL    HW319567   2.130   1.542   6.438  0.7270  3.2710 -0.5120
 4950SOL    MW419568   2.045   1.550   6.419  0.1592  0.1442  0.2359
 4951SOL     OW19569   6.219   2.607   0.945  0.0819 -0.8729  0.3553
 4951SOL    HW219570   6.258   2.692   0.926 -0.2423 -0.3920  1.6805
 4951SOL    HW319571   6.148   2.598   0.881  0.7000 -0.5769 -0.3876
 4951SOL    MW419572   6.215   2.617   0.934  0.1207 -0.7704  0.4322
 4952SOL     OW19573   0.208   0.615   3.957  0.3046 -0.4796  0.5571
 4952SOL    HW219574   0.223   0.530   3.915 -1.9642 -0.7144  0.0822
 4952SOL    HW319575   0.296   0.650   3.973  1.3913 -3.7206  2.5341
 4952SOL    MW419576   0.222   0.609   3.953  0.1486 -0.9382  0.7553
 4953SOL     OW19577   2.230   1.080   2.605 -0.3483 -0.1741  0.2507
 4953SOL    HW219578   2.215   1.169   2.571  1.5342 -0.3523 -1.1952
 4953SOL    HW319579   2.308   1.088   2.659 -0.5031 -0.8382  0.5770
 4953SOL    MW419580   2.238   1.093   2.607 -0.1204 -0.2852  0.1030
 4954SOL     OW19581   3.626   4.187   3.783 -0.6775  0.3267 -0.1252
 4954SOL    HW219582   3.580   4.137   3.716  0.4392 -0.5311 -0.2823
 4954SOL    HW319583   3.648   4.122   3.850  1.6473  0.3789 -0.7779
 4954SOL    MW419584   3.623   4.171   3.783 -0.2234  0.2204 -0.2320
 4955SOL     OW19585   4.523   5.981   1.650  0.3426  0.4107 -0.1318
 4955SOL    HW219586   4.469   6.010   1.577 -0.2310  0.2065  0.2069
 4955SOL    HW319587   4.499   5.889   1.663 -0.0783  0.6363  0.7619
 4955SOL    MW419588   4.513   5.972   1.642  0.2114  0.4135  0.0308
 4956SOL     OW19589   0.781   2.191   4.994 -0.0212  0.2141 -0.3934
 4956SOL    HW219590   0.811   2.139   4.920  0.7113  1.2527 -0.8550
 4956SOL    HW319591   0.705   2.144   5.028  0.8368 -1.3429 -0.5482
 4956SOL    MW419592   0.775   2.178   4.989  0.1886  0.1457 -0.4747
 4957SOL     OW19593   5.310   0.321   3.536  0.2366  0.1892 -0.1850
 4957SOL    HW219594   5.233   0.378   3.528  0.1217  0.2759  1.2985
 4957SOL    HW319595   5.340   0.335   3.626  2.6143  0.9297 -1.0355
 4957SOL    MW419596   5.304   0.331   3.547  0.5352  0.2983 -0.1015
 4958SOL     OW19597   4.208   4.314   3.279  0.2396  0.5006 -0.0696
 4958SOL    HW219598   4.294   4.311   3.237  0.1747  1.6787 -0.3307
 4958SOL    HW319599   4.146   4.311   3.206 -0.0286 -2.0216  0.1803
 4958SOL    MW419600   4.211   4.313   3.264  0.1956  0.3233 -0.0711
 4959SOL     OW19601   0.764   1.938   3.465  0.0516  0.1119  0.2089
 4959SOL    HW219602   0.713   1.976   3.394 -2.9822 -1.9744  1.0852
 4959SOL    HW319603   0.771   2.008   3.530 -0.2049  0.9655 -0.6672
 4959SOL    MW419604   0.758   1.952   3.465 -0.3825 -0.0507  0.2089
 4960SOL     OW19605   3.078   5.970   5.709  0.1358 -0.3597 -0.4142
 4960SOL    HW219606   3.137   6.002   5.777  0.4383  0.4085 -1.0263
 4960SOL    HW319607   2.997   6.021   5.721 -0.6405 -1.7866  0.7682
 4960SOL    MW419608   3.075   5.981   5.720  0.0733 -0.4466 -0.3390
 4961SOL     OW19609   5.618   3.870   0.573  0.3704  0.0196  0.0730
 4961SOL    HW219610   5.668   3.788   0.570 -1.0195 -0.8529 -1.9741
 4961SOL    HW319611   5.652   3.922   0.501 -1.0159 -0.2587 -0.8397
 4961SOL    MW419612   5.629   3.866   0.563  0.0041 -0.1322 -0.3175
 4962SOL     OW19613   6.212   2.491   5.141 -0.2645  0.4240  0.1762
 4962SOL    HW219614   6.146   2.436   5.184  0.5224 -0.7373 -0.0584
 4962SOL    HW319615   6.169   2.524   5.062 -0.4563 -0.6138 -0.1594
 4962SOL    MW419616   6.198   2.488   5.136 -0.1860  0.1339  0.1010
 4963SOL     OW19617   6.099   4.594   2.659  0.0478 -0.1474 -0.0658
 4963SOL    HW219618   6.154   4.673   2.656 -0.1784  0.0002 -1.3184
 4963SOL    HW319619   6.149   4.528   2.611  0.1452 -0.7188  0.8021
 4963SOL    MW419620   6.113   4.596   2.652  0.0308 -0.2033 -0.1166
 4964SOL     OW19621   0.788   2.764   4.783  0.3526  0.1035  0.2951
 4964SOL    HW219622   0.706   2.772   4.735  0.6142  0.3636 -0.1089
 4964SOL    HW319623   0.853   2.741   4.717  0.7180  0.4817  0.5161
 4964SOL    MW419624   0.786   2.762   4.768  0.4353  0.1877  0.2709
 4965SOL     OW19625   6.059   1.441   1.106  0.7137 -0.1239 -0.0092
 4965SOL    HW219626   6.135   1.413   1.054  0.4743  1.6296 -1.3835
 4965SOL    HW319627   5.992   1.376   1.087  0.9360 -0.0318 -1.1501
 4965SOL    MW419628   6.060   1.428   1.097  0.7115  0.1196 -0.3410
 4966SOL     OW19629   4.502   2.990   3.618  0.3574 -0.3823  0.1103
 4966SOL    HW219630   4.574   2.950   3.666 -0.2316 -0.3843  1.0131
 4966SOL    HW319631   4.492   3.077   3.656  1.4979  0.6171 -1.7128
 4966SOL    MW419632   4.510   2.996   3.629  0.4302 -0.2507 -0.0111
 4967SOL     OW19633   1.185   3.216   0.329 -0.6004 -0.0875 -0.0479
 4967SOL    HW219634   1.127   3.158   0.377 -1.8520  0.9387 -0.2614
 4967SOL    HW319635   1.240   3.158   0.277  0.7463 -1.2438  2.4893
 4967SOL    MW419636   1.185   3.201   0.329 -0.5879 -0.1047  0.2587
 4968SOL     OW19637   4.036   6.258   0.628 -0.3123 -0.2640  0.8456
 4968SOL    HW219638   4.033   6.351   0.604  0.5110 -0.4579 -0.0621
 4968SOL    HW319639   3.977   6.215   0.567  0.0993 -0.4699  0.5878
 4968SOL    MW419640   4.028   6.265   0.617 -0.1494 -0.3167  0.6918
 4969SOL     OW19641   1.368   2.686   6.216  0.1280 -0.0708  0.4625
 4969SOL    HW219642   1.405   2.752   6.157  1.3742  0.1782  1.4751
 4969SOL    HW319643   1.335   2.618   6.158 -0.1424  0.9051 -0.5686
 4969SOL    MW419644   1.369   2.686   6.201  0.2568  0.0908  0.4600
 4970SOL     OW19645   0.291   1.503   4.217  0.0936 -0.0180 -0.1480
 4970SOL    HW219646   0.286   1.594   4.246  1.3419  0.5238 -1.5118
 4970SOL    HW319647   0.308   1.454   4.297  2.4459  1.3021  0.2564
 4970SOL    MW419648   0.292   1.509   4.231  0.5687  0.2277 -0.2746
 4971SOL     OW19649   2.517   0.304   2.004 -0.3537 -0.3230  0.4258
 4971SOL    HW219650   2.447   0.252   2.045 -1.1384  0.9187  0.7313
 4971SOL    HW319651   2.523   0.271   1.915 -2.3871  0.4832 -0.0724
 4971SOL    MW419652   2.508   0.293   1.998 -0.7255 -0.0528  0.4004
 4972SOL     OW19653   1.756   2.733   6.171 -0.3745  0.0631 -0.3481
 4972SOL    HW219654   1.710   2.694   6.245  1.5136 -1.7462 -0.0505
 4972SOL    HW319655   1.691   2.791   6.131 -2.0973 -0.4921  1.4705
 4972SOL    MW419656   1.741   2.735   6.175 -0.3527 -0.2488 -0.0689
 4973SOL     OW19657   3.501   5.807   3.570 -0.0882 -0.3059 -0.4627
 4973SOL    HW219658   3.492   5.715   3.544  0.5821 -1.7009  3.5555
 4973SOL    HW319659   3.430   5.821   3.633  0.5880  1.5885 -0.0714
 4973SOL    MW419660   3.490   5.797   3.575  0.0894 -0.2400  0.1191
 4974SOL     OW19661   4.289   2.759   3.057  0.3886  0.0503 -0.2512
 4974SOL    HW219662   4.347   2.821   3.012 -0.8278 -0.2699 -2.4087
 4974SOL    HW319663   4.274   2.798   3.143  0.6679  2.1118 -1.0876
 4974SOL    MW419664   4.295   2.772   3.063  0.2650  0.2801 -0.6462
 4975SOL     OW19665   2.522   4.302   3.363 -0.5018 -0.4498 -0.3443
 4975SOL    HW219666   2.589   4.234   3.353 -0.8494 -0.6123 -1.8231
 4975SOL    HW319667   2.541   4.364   3.293 -0.4396  0.7855  0.7370
 4975SOL    MW419668   2.533   4.301   3.352 -0.5395 -0.3082 -0.3968
 4976SOL     OW19669   5.828   3.073   5.058  0.5638 -0.0246  0.1289
 4976SOL    HW219670   5.740   3.043   5.081  0.8027  0.0599  1.1801
 4976SOL    HW319671   5.835   3.055   4.964 -0.5109 -0.1853  0.0653
 4976SOL    MW419672   5.817   3.066   5.049  0.4535 -0.0347  0.2592
 4977SOL     OW19673   2.765   5.910   1.598  0.3648 -0.5379  0.3770
 4977SOL    HW219674   2.750   5.907   1.503 -0.4565 -0.8635  0.5053
 4977SOL    HW319675   2.713   5.984   1.628  1.2581  0.0642  0.4779
 4977SOL    MW419676   2.756   5.919   1.589  0.3743 -0.5014  0.4072
 4978SOL     OW19677   0.034   1.013   2.873  0.5613  0.2404 -0.0917
 4978SOL    HW219678  -0.004   1.014   2.961 -2.4289 -1.5373 -1.2107
 4978SOL    HW319679   0.084   1.094   2.868  1.0398  0.2962  3.2789
 4978SOL    MW419680   0.036   1.024   2.884  0.2299  0.0132  0.2054
 4979SOL     OW19681   5.327   3.399   3.353  0.1307  0.3119 -0.4331
 4979SOL    HW219682   5.368   3.398   3.266  1.1321  0.6886  0.0256
 4979SOL    HW319683   5.394   3.432   3.411  0.0336 -1.4949  0.7779
 4979SOL    MW419684   5.341   3.403   3.349  0.2500  0.1232 -0.2128
 4980SOL     OW19685   6.073   4.479   6.340  0.4598 -0.2952  0.4978
 4980SOL    HW219686   6.080   4.472   6.435  0.6461 -1.9580  0.3836
 4980SOL    HW319687   6.065   4.573   6.323  2.0924  0.1617  2.0340
 4980SOL    MW419688   6.073   4.491   6.350  0.6998 -0.4543  0.6854
 4981SOL     OW19689   6.092   5.838   6.202 -0.3642 -0.0583  0.1269
 4981SOL    HW219690   6.005   5.818   6.237 -0.7305 -0.2737 -0.8816
 4981SOL    HW319691   6.117   5.758   6.155 -0.6830  0.8494 -1.6715
 4981SOL    MW419692   6.084   5.824   6.200 -0.4546  0.0330 -0.2435
 4982SOL     OW19693   4.309   2.619   3.933  0.1072  0.0798  0.0691
 4982SOL    HW219694   4.219   2.613   3.965  0.1909  1.5919  0.6815
 4982SOL    HW319695   4.362   2.577   4.001 -0.1502 -1.1891 -0.4897
 4982SOL    MW419696   4.304   2.613   3.946  0.0843  0.1119  0.0762
 4983SOL     OW19697   4.957   6.198   3.405  0.5437  0.6560 -0.2696
 4983SOL    HW219698   5.028   6.208   3.341 -0.1194  1.7658 -0.8628
 4983SOL    HW319699   4.886   6.253   3.371 -0.0749  0.7315  1.0750
 4983SOL    MW419700   4.957   6.207   3.392  0.3746  0.8124 -0.1704
 4984SOL     OW19701   0.758   5.796   3.537  0.0911 -0.7697  0.4441
 4984SOL    HW219702   0.732   5.731   3.472  1.4810 -1.6151  0.7048
 4984SOL    HW319703   0.853   5.800   3.530  0.0452  1.3921  0.3121
 4984SOL    MW419704   0.767   5.788   3.527  0.2684 -0.5960  0.4611
 4985SOL     OW19705   5.695   4.566   2.403  0.1032 -0.5670 -0.1178
 4985SOL    HW219706   5.612   4.528   2.433 -0.1739  0.2817  0.2243
 4985SOL    HW319707   5.670   4.631   2.338  0.2857  1.4087  1.7004
 4985SOL    MW419708   5.681   4.569   2.398  0.0907 -0.1944  0.1672
 4986SOL     OW19709   1.535   3.195   2.672 -0.4627  0.1803  1.0121
 4986SOL    HW219710   1.568   3.217   2.586 -1.9303  2.0628  0.8625
 4986SOL    HW319711   1.612   3.170   2.722  0.7653  1.4618 -0.1508
 4986SOL    MW419712   1.549   3.195   2.667 -0.4943  0.5978  0.8389
 4987SOL     OW19713   0.840   6.293   5.728 -1.1463  0.2856  0.3544
 4987SOL    HW219714   0.899   6.225   5.760  0.2588  1.5318  0.5060
 4987SOL    HW319715   0.810   6.259   5.643 -1.8024 -1.2504  1.1581
 4987SOL    MW419716   0.844   6.279   5.721 -1.0475  0.2473  0.4805
 4988SOL     OW19717   2.124   4.775   0.318 -0.1927  0.6159  0.7927
 4988SOL    HW219718   2.139   4.867   0.296 -1.0151  0.9308  1.5003
 4988SOL    HW319719   2.057   4.745   0.257 -0.5954  0.7556  1.1603
 4988SOL    MW419720   2.117   4.783   0.307 -0.3543  0.6759  0.9346
 4989SOL     OW19721   5.688   1.772   5.107  0.5217  0.3985  0.1174
 4989SOL    HW219722   5.727   1.685   5.108 -2.5296 -1.1065  1.9815
 4989SOL    HW319723   5.729   1.816   5.032  5.1368 -1.0825  1.4197
 4989SOL    MW419724   5.699   1.767   5.098  0.7280  0.0045  0.5352
 4990SOL     OW19725   3.423   5.767   4.125 -0.0449 -0.2205 -0.0453
 4990SOL    HW219726   3.380   5.699   4.177  0.8155 -1.7490 -1.2536
 4990SOL    HW319727   3.516   5.758   4.147  0.0310  0.9233  0.1529
 4990SOL    MW419728   3.430   5.756   4.135  0.0786 -0.2713 -0.1786
 4991SOL     OW19729   3.778   3.708   0.041 -0.1315 -0.1748 -0.7258
 4991SOL    HW219730   3.869   3.725   0.016 -0.2154  1.7933  0.1602
 4991SOL    HW319731   3.726   3.757  -0.023 -0.5205  0.0002 -0.2816
 4991SOL    MW419732   3.783   3.717   0.029 -0.1939  0.1079 -0.5503
 4992SOL     OW19733   5.235   2.330   0.262  0.5830 -0.0456  0.0635
 4992SOL    HW219734   5.294   2.329   0.337  0.2545  0.9479  0.3477
 4992SOL    HW319735   5.148   2.320   0.300  0.5392 -1.3963 -0.3447
 4992SOL    MW419736   5.231   2.328   0.277  0.5339 -0.0928  0.0471
 4993SOL     OW19737   6.080   3.783   3.925 -0.3515 -0.0879 -0.3987
 4993SOL    HW219738   5.989   3.763   3.904 -0.2429 -1.1259  0.0465
 4993SOL    HW319739   6.090   3.876   3.904 -1.4429 -0.0209 -0.6734
 4993SOL    MW419740   6.069   3.793   3.919 -0.4812 -0.2160 -0.3762
 4994SOL     OW19741   4.218   5.958   0.968  0.2376 -0.5628 -0.1551
 4994SOL    HW219742   4.168   5.908   0.903 -0.4214  2.6213 -2.3586
 4994SOL    HW319743   4.155   5.975   1.038  0.0525 -1.5376 -0.0657
 4994SOL    MW419744   4.203   5.954   0.969  0.1262 -0.2713 -0.4340
 4995SOL     OW19745   4.737   3.584   1.010  0.2547  0.3509  0.2937
 4995SOL    HW219746   4.677   3.511   0.993  0.2858  0.1178  1.1244
 4995SOL    HW319747   4.691   3.661   0.979  1.5127 -0.2696 -3.7664
 4995SOL    MW419748   4.723   3.584   1.004  0.4247  0.2383 -0.1324
 4996SOL     OW19749   4.613   0.770   1.602  0.5637 -0.2221  0.0345
 4996SOL    HW219750   4.634   0.834   1.669 -0.4371  0.5544 -0.3595
 4996SOL    HW319751   4.565   0.702   1.648  1.2844 -0.5003  0.3850
 4996SOL    MW419752   4.610   0.770   1.617  0.5267 -0.1564  0.0288
 4997SOL     OW19753   1.679   2.683   4.810  0.6691  1.0749  0.2467
 4997SOL    HW219754   1.713   2.710   4.895 -0.0988  1.7232  0.3600
 4997SOL    HW319755   1.734   2.728   4.746  1.1663  0.6883  0.3941
 4997SOL    MW419756   1.691   2.692   4.813  0.6334  1.1094  0.2811
 4998SOL     OW19757   5.212   2.782   0.253  0.1375  0.4686  0.1042
 4998SOL    HW219758   5.272   2.726   0.203  0.0085  2.2472 -2.1556
 4998SOL    HW319759   5.127   2.768   0.213 -0.1145  1.3933  0.3054
 4998SOL    MW419760   5.209   2.773   0.241  0.0872  0.8253 -0.1674
 4999SOL     OW19761   6.159   0.105   4.408  0.1086 -0.1922  0.2480
 4999SOL    HW219762   6.221   0.044   4.448 -1.8124 -2.0952  0.4909
 4999SOL    HW319763   6.149   0.074   4.319 -1.3314 -0.6412  0.5391
 4999SOL    MW419764   6.166   0.093   4.402 -0.3348 -0.5025  0.3185
 5000SOL     OW19765   4.696   5.248   4.684  0.0436  0.0416  0.4495
 5000SOL    HW219766   4.753   5.186   4.728  1.5053  0.6830 -0.4614
 5000SOL    HW319767   4.719   5.240   4.591 -1.5925  0.0891  0.0137
 5000SOL    MW419768   4.707   5.239   4.677  0.0206  0.1325  0.2718
 5001SOL     OW19769   6.389   3.266   3.545 -0.4207  0.0670  0.6184
 5001SOL    HW219770   6.398   3.360   3.527 -1.1001  0.2664  1.2297
 5001SOL    HW319771   6.347   3.230   3.467 -1.0870  0.4636  0.7852
 5001SOL    MW419772   6.385   3.274   3.533 -0.5982  0.1457  0.7211
 5002SOL     OW19773   1.540   3.058   4.246 -0.8381  0.1892 -0.2995
 5002SOL    HW219774   1.501   3.008   4.175 -1.3057  0.8905 -0.5507
 5002SOL    HW319775   1.483   3.041   4.321 -1.0289  0.3796 -0.3991
 5002SOL    MW419776   1.527   3.049   4.247 -0.9250  0.3069 -0.3457
 5003SOL     OW19777   2.583   5.585   1.574  0.0052  0.1888  0.1556
 5003SOL    HW219778   2.573   5.497   1.539 -0.8009 -0.3567  1.6606
 5003SOL    HW319779   2.676   5.594   1.591  0.7997  1.1595 -3.6634
 5003SOL    MW419780   2.594   5.575   1.571  0.0037  0.2449 -0.1497
 5004SOL     OW19781   4.333   2.606   1.277  0.1812  0.1775  0.3874
 5004SOL    HW219782   4.369   2.524   1.311  0.4931  0.0927 -0.1434
 5004SOL    HW319783   4.354   2.606   1.184 -0.2338  0.6414  0.2849
 5004SOL    MW419784   4.341   2.596   1.269  0.1676  0.2275  0.3039
 5005SOL     OW19785   0.863   6.400   0.365 -0.3895  0.0132 -0.3846
 5005SOL    HW219786   0.943   6.354   0.342 -0.3224 -0.5485  0.8519
 5005SOL    HW319787   0.879   6.490   0.340  0.8270  0.0014  0.2501
 5005SOL    MW419788   0.876   6.405   0.359 -0.2202 -0.0625 -0.1377
 5006SOL     OW19789   0.378   5.282   5.780 -0.4767 -0.5054  0.4992
 5006SOL    HW219790   0.315   5.224   5.737 -0.8253 -1.0011  1.6625
 5006SOL    HW319791   0.431   5.224   5.835 -0.0415  0.1204  0.7591
 5006SOL    MW419792   0.377   5.267   5.781 -0.4652 -0.4882  0.6870
 5007SOL     OW19793   4.573   2.550   2.884 -0.1018 -0.3055 -0.2551
 5007SOL    HW219794   4.605   2.516   2.801 -1.3323 -1.3675 -0.3231
 5007SOL    HW319795   4.616   2.495   2.950  2.1268  1.5291 -0.0117
 5007SOL    MW419796   4.583   2.539   2.882  0.0299 -0.2036 -0.2320
 5008SOL     OW19797   3.422   3.800   6.082 -0.0249 -0.4101  0.3206
 5008SOL    HW219798   3.477   3.789   6.160  1.4120  0.6649 -0.4873
 5008SOL    HW319799   3.357   3.865   6.108  0.3449 -0.1790  0.6851
 5008SOL    MW419800   3.421   3.807   6.096  0.2135 -0.2378  0.2621
 5009SOL     OW19801   2.028   0.672   4.720 -0.1370  0.0506 -0.2780
 5009SOL    HW219802   2.093   0.601   4.723 -2.2959 -2.1176 -1.4183
 5009SOL    HW319803   2.029   0.701   4.629 -0.8223 -0.0592 -0.3222
 5009SOL    MW419804   2.037   0.667   4.708 -0.5123 -0.2500 -0.4343
 5010SOL     OW19805   4.428   2.936   6.421  0.0873 -0.3965  0.0806
 5010SOL    HW219806   4.523   2.942   6.427  0.0724 -0.0026 -0.0149
 5010SOL    HW319807   4.396   3.020   6.455 -0.2110 -0.4036 -0.1673
 5010SOL    MW419808   4.436   2.948   6.426  0.0460 -0.3454  0.0353
 5011SOL     OW19809   1.094   0.293   4.479 -0.5121 -0.5092 -0.0930
 5011SOL    HW219810   1.120   0.384   4.464 -0.2597 -0.7849 -1.4455
 5011SOL    HW319811   1.102   0.282   4.574  2.1818  0.0754 -0.1662
 5011SOL    MW419812   1.098   0.304   4.489 -0.1234 -0.4685 -0.2811
 5012SOL     OW19813   1.712   4.550   0.049  0.3673 -0.3097  0.5559
 5012SOL    HW219814   1.788   4.532  -0.006 -0.2937 -1.0531 -0.1370
 5012SOL    HW319815   1.671   4.465   0.062  0.0888 -0.0342  1.5894
 5012SOL    MW419816   1.717   4.536   0.044  0.2433 -0.3714  0.6008
 5013SOL     OW19817   2.601   2.928   5.923  0.2623  0.1095  0.6881
 5013SOL    HW219818   2.625   2.837   5.943  0.9491  0.0514 -0.3294
 5013SOL    HW319819   2.521   2.920   5.871  0.1436  0.1155  0.8657
 5013SOL    MW419820   2.593   2.915   5.919  0.3372  0.1026  0.5773
 5014SOL     OW19821   2.442   5.328   3.897 -0.3211  0.3507 -0.1677
 5014SOL    HW219822   2.525   5.310   3.940 -0.7310 -0.4626  0.3080
 5014SOL    HW319823   2.402   5.397   3.951  0.0084  0.6933 -0.3573
 5014SOL    MW419824   2.448   5.335   3.910 -0.3317  0.2886 -0.1299
 5015SOL     OW19825   0.688   4.335   1.584  0.6036  0.4985 -0.8285
 5015SOL    HW219826   0.632   4.409   1.560  0.9917  0.6064 -1.4046
 5015SOL    HW319827   0.722   4.359   1.671 -1.8338 -0.4904  0.5068
 5015SOL    MW419828   0.685   4.348   1.593  0.3332  0.3823 -0.7283
 5016SOL     OW19829   2.064   5.939   3.733 -0.2962 -0.4901 -0.1337
 5016SOL    HW219830   2.027   5.949   3.645 -0.1547 -1.2839 -0.2957
 5016SOL    HW319831   1.993   5.899   3.784 -1.2705  2.2251  0.8048
 5016SOL    MW419832   2.050   5.935   3.728 -0.4061 -0.2366 -0.0313
 5017SOL     OW19833   3.224   1.129   2.611  0.2565 -0.3855  0.3868
 5017SOL    HW219834   3.144   1.134   2.662  0.6574 -1.0201  1.0881
 5017SOL    HW319835   3.251   1.220   2.599 -0.3839 -0.1916  0.4372
 5017SOL    MW419836   3.217   1.142   2.616  0.2249 -0.4437  0.4860
 5018SOL     OW19837   1.020   3.478   3.096  0.4439 -0.3178 -0.1602
 5018SOL    HW219838   1.078   3.527   3.155  1.0216  0.4804 -1.3321
 5018SOL    HW319839   1.018   3.390   3.132  1.1682  0.0255  0.7763
 5018SOL    MW419840   1.028   3.473   3.108  0.6157 -0.1672 -0.1913
 5019SOL     OW19841   0.639   6.183   3.773 -0.0227  0.3078  0.0552
 5019SOL    HW219842   0.642   6.279   3.782 -0.2004  0.2887  0.3295
 5019SOL    HW319843   0.609   6.168   3.684 -1.4121  0.5133  0.4566
 5019SOL    MW419844   0.636   6.194   3.763 -0.2295  0.3324  0.1444
 5020SOL     OW19845   1.987   5.422   3.719  0.0420 -0.2668 -0.0352
 5020SOL    HW219846   1.907   5.474   3.714 -0.9062 -1.6556  0.0088
 5020SOL    HW319847   2.014   5.429   3.811  2.2609  3.3834 -0.7879
 5020SOL    MW419848   1.980   5.430   3.731  0.2096  0.0316 -0.1287
 5021SOL     OW19849   2.313   6.298   0.063 -0.3562  0.0541 -0.0318
 5021SOL    HW219850   2.381   6.317  -0.002  0.3587 -0.9654  0.3853
 5021SOL    HW319851   2.357   6.306   0.148 -0.7938 -0.4714  0.2545
 5021SOL    MW419852   2.328   6.302   0.066 -0.3196 -0.1498  0.0610
 5022SOL     OW19853   1.611   4.623   1.996 -0.2636  0.1188  0.2533
 5022SOL    HW219854   1.517   4.630   2.014 -0.0833 -0.8478  1.7482
 5022SOL    HW319855   1.640   4.549   2.049  0.9741 -0.9401 -1.7695
 5022SOL    MW419856   1.603   4.614   2.005 -0.0765 -0.1484  0.1837
 5023SOL     OW19857   0.279   1.432   3.653 -0.1704 -0.3644  0.1716
 5023SOL    HW219858   0.346   1.493   3.685  0.9753 -1.2596 -0.4565
 5023SOL    HW319859   0.202   1.451   3.707 -0.0000  1.9250 -0.2943
 5023SOL    MW419860   0.278   1.443   3.665  0.0032 -0.1804  0.0273
 5024SOL     OW19861   5.671   1.129   6.137 -0.1927  0.5765  0.3471
 5024SOL    HW219862   5.684   1.044   6.095 -0.9609  0.3730  0.5161
 5024SOL    HW319863   5.718   1.123   6.220  1.9511  1.2260 -0.7406
 5024SOL    MW419864   5.679   1.117   6.142 -0.0112  0.6354  0.2259
 5025SOL     OW19865   6.026   1.058   5.512  0.4185 -0.4442 -0.3384
 5025SOL    HW219866   6.121   1.057   5.498  0.5503  0.2096  0.4307
 5025SOL    HW319867   6.009   1.143   5.552 -0.6623 -0.0534 -1.5510
 5025SOL    MW419868   6.037   1.069   5.515  0.2932 -0.3064 -0.3969
 5026SOL     OW19869   1.490   0.119   4.732  0.0075  0.1654 -0.2009
 5026SOL    HW219870   1.575   0.092   4.767 -0.6343 -1.3002  0.2957
 5026SOL    HW319871   1.511   0.167   4.652  1.3191  0.2423  0.1645
 5026SOL    MW419872   1.504   0.122   4.726  0.0958 -0.0178 -0.0872
 5027SOL     OW19873   1.074   0.285   1.595  0.1872  0.2420  0.0964
 5027SOL    HW219874   1.123   0.292   1.513  2.2003  0.6596  1.2764
 5027SOL    HW319875   1.013   0.213   1.581  1.1880 -0.3433 -1.4236
 5027SOL    MW419876   1.073   0.277   1.582  0.5848  0.2199  0.0515
 5028SOL     OW19877   2.002   5.211   1.640  0.2070 -0.0713 -0.7313
 5028SOL    HW219878   2.006   5.135   1.697 -3.1177  0.7333  0.8927
 5028SOL    HW319879   2.092   5.241   1.632  1.2699 -2.5759  0.7913
 5028SOL    MW419880   2.014   5.205   1.647 -0.0914 -0.2956 -0.3161
 5029SOL     OW19881   3.783   1.302   4.052 -0.0885  0.6195 -0.0572
 5029SOL    HW219882   3.839   1.373   4.082 -0.5019  0.8507  0.1801
 5029SOL    HW319883   3.819   1.276   3.967  2.1459 -1.1954  1.3365
 5029SOL    MW419884   3.795   1.308   4.045  0.1518  0.4105  0.1580
 5030SOL     OW19885   4.508   0.530   3.668 -0.2525 -0.1496 -0.3484
 5030SOL    HW219886   4.497   0.563   3.757 -0.0152 -1.8095  0.3151
 5030SOL    HW319887   4.421   0.538   3.628 -0.9562 -1.6338  0.8244
 5030SOL    MW419888   4.495   0.536   3.674 -0.3141 -0.5644 -0.1062
 5031SOL     OW19889   0.795   4.024   5.670 -0.0676 -1.2364 -0.0309
 5031SOL    HW219890   0.728   3.988   5.728 -1.8921 -1.4935 -2.2137
 5031SOL    HW319891   0.857   3.952   5.658 -0.9398 -1.9606 -0.2744
 5031SOL    MW419892   0.795   4.010   5.676 -0.4234 -1.3659 -0.3510
 5032SOL     OW19893   4.491   2.200   2.559 -0.0056 -0.3218  0.0415
 5032SOL    HW219894   4.552   2.143   2.511  1.1696  2.7395 -2.4402
 5032SOL    HW319895   4.498   2.171   2.650  1.4700 -3.2169 -0.8856
 5032SOL    MW419896   4.500   2.189   2.564  0.3442 -0.2999 -0.4082
 5033SOL     OW19897   0.055   2.904   3.736  0.2688 -0.2203 -0.1660
 5033SOL    HW219898   0.035   2.885   3.644 -1.2371 -1.4473  0.3831
 5033SOL    HW319899  -0.030   2.921   3.776  0.8205 -0.5639  1.1900
 5033SOL    MW419900   0.041   2.904   3.729  0.1429 -0.4275  0.0853
 5034SOL     OW19901   1.440   5.715   3.978 -0.3706  0.3639  0.1584
 5034SOL    HW219902   1.363   5.712   4.034  0.1734  1.0493  0.9823
 5034SOL    HW319903   1.481   5.629   3.988 -1.9912 -0.7011 -1.7548
 5034SOL    MW419904   1.435   5.704   3.987 -0.5126  0.3138  0.0147
 5035SOL     OW19905   6.202   5.325   4.475  0.1332 -0.2344 -0.0909
 5035SOL    HW219906   6.239   5.370   4.399 -0.6255  1.2623  0.3884
 5035SOL    HW319907   6.108   5.344   4.471  0.0210 -0.5087  0.9679
 5035SOL    MW419908   6.194   5.334   4.464  0.0183 -0.0731  0.1120
 5036SOL     OW19909   4.568   4.035   0.181  0.0143  0.1959 -0.2357
 5036SOL    HW219910   4.530   4.078   0.105 -2.5625 -1.2202  0.1526
 5036SOL    HW319911   4.558   4.098   0.252  1.7772  1.2397 -0.8676
 5036SOL    MW419912   4.562   4.049   0.180 -0.0931  0.1468 -0.2678
 5037SOL     OW19913   1.397   1.116   5.830 -0.2336 -0.1056 -0.1906
 5037SOL    HW219914   1.370   1.030   5.860  0.0445 -0.3357 -0.5952
 5037SOL    HW319915   1.342   1.134   5.754 -1.8112  1.0093  1.1462
 5037SOL    MW419916   1.386   1.107   5.824 -0.4051  0.0112 -0.0676
 5038SOL     OW19917   4.840   3.168   5.404  0.2375 -0.0683  0.1156
 5038SOL    HW219918   4.750   3.139   5.393  0.9582 -3.0037  0.9066
 5038SOL    HW319919   4.843   3.203   5.493 -0.0695 -0.1148  0.1458
 5038SOL    MW419920   4.829   3.169   5.414  0.2921 -0.4617  0.2240
 5039SOL     OW19921   4.193   5.791   3.575  0.0793  0.3238  0.0635
 5039SOL    HW219922   4.164   5.880   3.552 -1.6331 -1.0098 -3.7726
 5039SOL    HW319923   4.268   5.774   3.518  0.1305 -0.8541  0.4502
 5039SOL    MW419924   4.199   5.801   3.564 -0.1399 -0.0075 -0.3916
 5040SOL     OW19925   0.761   1.921   2.612  0.5858  0.4506  0.1352
 5040SOL    HW219926   0.705   1.930   2.689  0.5507 -1.5196  0.3986
 5040SOL    HW319927   0.833   1.982   2.627 -0.2587  1.2742  0.9374
 5040SOL    MW419928   0.763   1.930   2.624  0.4698  0.2993  0.2758
 5041SOL     OW19929   0.354   0.413   1.621  0.1281  0.9096 -0.7743
 5041SOL    HW219930   0.306   0.369   1.692  1.1053  1.2779  0.1522
 5041SOL    HW319931   0.305   0.494   1.606  0.8963  1.7088  0.7731
 5041SOL    MW419932   0.341   0.418   1.629  0.3584  1.0636 -0.4479
 5042SOL     OW19933   5.676   6.356   3.037  0.0589 -0.3227 -0.5138
 5042SOL    HW219934   5.747   6.397   3.087  0.3015  1.0051 -1.8416
 5042SOL    HW319935   5.608   6.423   3.033 -1.6412 -1.8192  1.3199
 5042SOL    MW419936   5.677   6.370   3.043 -0.1334 -0.3450 -0.4471
 5043SOL     OW19937   1.333   0.425   0.506  0.1813 -0.7257 -0.0896
 5043SOL    HW219938   1.367   0.339   0.528  1.0941  0.1638  2.4070
 5043SOL    HW319939   1.381   0.452   0.428  0.5611 -2.0904 -0.3402
 5043SOL    MW419940   1.344   0.417   0.499  0.3518 -0.7884  0.2067
 5044SOL     OW19941   1.683   0.355   4.235  0.2532 -0.3083 -0.6496
 5044SOL    HW219942   1.770   0.321   4.218  0.3337 -0.2546 -0.3409
 5044SOL    HW319943   1.625   0.299   4.184  0.0430 -2.9560  2.1956
 5044SOL    MW419944   1.687   0.343   4.226  0.2361 -0.6505 -0.2335
 5045SOL     OW19945   1.315   5.022   0.432 -0.1679 -0.1626 -0.3217
 5045SOL    HW219946   1.312   4.960   0.359  1.2226 -1.4831  0.6872
 5045SOL    HW319947   1.270   4.976   0.504  0.4732  0.1705  0.3014
 5045SOL    MW419948   1.308   5.008   0.432  0.1001 -0.2928 -0.1064
 5046SOL     OW19949   3.519   3.984   1.424 -0.0723  0.4024 -0.5908
 5046SOL    HW219950   3.534   4.056   1.485 -1.8059  0.0076  0.3900
 5046SOL    HW319951   3.595   3.926   1.436  0.0627  0.7865  0.5301
 5046SOL    MW419952   3.531   3.986   1.434 -0.2832  0.4010 -0.3135
 5047SOL     OW19953   2.791   6.061   5.299 -0.0369 -0.4400  0.1663
 5047SOL    HW219954   2.817   6.118   5.227 -0.2918 -0.0421  0.3852
 5047SOL    HW319955   2.874   6.036   5.340  0.2471 -2.0143 -1.2485
 5047SOL    MW419956   2.806   6.065   5.295 -0.0331 -0.5952  0.0085
 5048SOL     OW19957   2.097   1.555   3.991  0.2082  0.0623 -0.0977
 5048SOL    HW219958   2.058   1.491   3.932 -1.3944  1.0643 -0.1851
 5048SOL    HW319959   2.169   1.508   4.034 -0.7008 -1.6771 -0.4003
 5048SOL    MW419960   2.102   1.541   3.989 -0.1231 -0.0350 -0.1492
 5049SOL     OW19961   0.063   0.077   0.997 -0.1300 -0.2329 -0.1971
 5049SOL    HW219962   0.100   0.003   0.949  2.0655  0.9352 -0.4301
 5049SOL    HW319963   0.132   0.102   1.059 -1.3051  0.8565  0.7153
 5049SOL    MW419964   0.077   0.070   0.999  0.0046  0.0650 -0.1074
 5050SOL     OW19965   3.066   4.621   3.945  0.3652 -0.0232  0.0469
 5050SOL    HW219966   3.158   4.639   3.927  0.2332 -0.1473 -0.8115
 5050SOL    HW319967   3.050   4.659   4.032  1.6041 -1.3394  0.8873
 5050SOL    MW419968   3.076   4.628   3.954  0.5113 -0.2132  0.0446
 5051SOL     OW19969   6.121   1.361   2.840 -0.0540  0.0107  0.3650
 5051SOL    HW219970   6.169   1.290   2.798 -1.7964 -0.8540 -0.2809
 5051SOL    HW319971   6.039   1.366   2.791 -1.2542  0.4234  2.2986
 5051SOL    MW419972   6.116   1.352   2.828 -0.4422 -0.0489  0.5349
 5052SOL     OW19973   0.942   3.510   4.704 -0.0915  0.4789  0.3530
 5052SOL    HW219974   0.857   3.546   4.681 -0.5843 -1.5828 -1.3474
 5052SOL    HW319975   1.004   3.581   4.687 -1.3330  1.6366  0.5348
 5052SOL    MW419976   0.939   3.524   4.699 -0.3203  0.3596  0.1526
 5053SOL     OW19977   2.499   4.852   5.180 -0.2539 -0.1582  0.0076
 5053SOL    HW219978   2.529   4.829   5.092  0.0991 -0.8974  0.3070
 5053SOL    HW319979   2.526   4.777   5.234 -0.8521  0.0902  0.6591
 5053SOL    MW419980   2.507   4.839   5.175 -0.2862 -0.2230  0.1331
 5054SOL     OW19981   4.763   1.780   6.074 -0.3178 -0.1176  0.4948
 5054SOL    HW219982   4.717   1.789   6.158 -0.9712 -0.3903  0.1725
 5054SOL    HW319983   4.826   1.852   6.074 -0.1834 -0.2156  1.2943
 5054SOL    MW419984   4.765   1.790   6.085 -0.3863 -0.1665  0.5577
 5055SOL     OW19985   0.392   3.296   1.179  0.2102 -0.2950 -0.7845
 5055SOL    HW219986   0.337   3.373   1.164 -0.3949 -0.6845 -0.5887
 5055SOL    HW319987   0.470   3.311   1.125  0.0336  0.3866 -0.8544
 5055SOL    MW419988   0.395   3.308   1.170  0.1071 -0.2565 -0.7679
 5056SOL     OW19989   2.610   3.097   0.262 -0.0362  0.6684  0.0257
 5056SOL    HW219990   2.686   3.147   0.232  0.1991 -1.1063 -2.6404
 5056SOL    HW319991   2.536   3.137   0.217  0.2206 -1.5425 -2.5668
 5056SOL    MW419992   2.610   3.109   0.252  0.0287  0.1425 -0.6681
 5057SOL     OW19993   5.798   2.724   4.058  1.0272  0.0313 -0.6461
 5057SOL    HW219994   5.743   2.790   4.100 -1.0673 -2.3571  0.6706
 5057SOL    HW319995   5.866   2.705   4.122 -0.3016 -1.3308  0.4371
 5057SOL    MW419996   5.800   2.730   4.072  0.5755 -0.4636 -0.3295
 5058SOL     OW19997   4.454   4.153   3.874  0.1998 -0.3633  0.2576
 5058SOL    HW219998   4.394   4.110   3.813 -0.0718 -0.7741  0.7994
 5058SOL    HW319999   4.405   4.229   3.906 -0.9006 -1.7924  2.2435
 5058SOL    MW420000   4.440   4.157   3.871  0.0188 -0.6060  0.5911
 5059SOL     OW20001   4.961   4.460   1.797  0.0053 -0.8579  0.4479
 5059SOL    HW220002   4.869   4.435   1.788 -0.4367  0.7641  0.0596
 5059SOL    HW320003   4.993   4.463   1.707 -0.7916  2.6932  0.1506
 5059SOL    MW420004   4.953   4.457   1.784 -0.1582 -0.1754  0.3575
 5060SOL     OW20005   0.516   6.379   4.857  0.3424 -0.1044  0.4455
 5060SOL    HW220006   0.501   6.285   4.864  1.8605 -0.5755 -1.7332
 5060SOL    HW320007   0.490   6.401   4.768  1.0252  1.3188  0.5708
 5060SOL    MW420008   0.511   6.369   4.847  0.6327  0.0212  0.1746
 5061SOL     OW20009   0.113   5.496   4.388 -0.3794 -0.2378  0.4154
 5061SOL    HW220010   0.085   5.434   4.456 -0.4482 -0.6517  0.0160
 5061SOL    HW320011   0.132   5.577   4.436  1.0360 -0.9573  1.1325
 5061SOL    MW420012   0.112   5.499   4.404 -0.2017 -0.3874  0.4573
 5062SOL     OW20013   2.084   1.652   4.394 -0.1621 -0.2510 -0.3301
 5062SOL    HW220014   2.122   1.735   4.422 -1.5072  0.4936 -0.6466
 5062SOL    HW320015   2.159   1.594   4.383  0.8567  1.0678 -0.5974
 5062SOL    MW420016   2.099   1.655   4.396 -0.2051  0.0213 -0.4072
 5063SOL     OW20017   4.406   0.173   6.271  0.4738 -0.1363 -0.2837
 5063SOL    HW220018   4.356   0.141   6.346  0.1782  2.1082  0.5434
 5063SOL    HW320019   4.440   0.093   6.229 -1.1851 -1.5564  0.9291
 5063SOL    MW420020   4.404   0.158   6.275  0.2159 -0.0275 -0.0146
 5064SOL     OW20021   4.963   4.319   5.575 -0.9946 -0.3604  0.0837
 5064SOL    HW220022   5.025   4.351   5.641  0.1882 -1.8833 -0.2356
 5064SOL    HW320023   4.894   4.385   5.573  0.0283  0.8019  1.2989
 5064SOL    MW420024   4.962   4.332   5.583 -0.7036 -0.4080  0.2019
 5065SOL     OW20025   2.080   4.981   4.561  0.4263  0.1751 -0.2153
 5065SOL    HW220026   2.120   4.936   4.636 -1.0720 -0.0004  0.5087
 5065SOL    HW320027   2.154   5.001   4.503  1.7569  0.9731  1.6419
 5065SOL    MW420028   2.095   4.978   4.563  0.4042  0.2572  0.1252
 5066SOL     OW20029   4.583   5.032   0.739  0.7821  0.6758  0.0796
 5066SOL    HW220030   4.574   5.113   0.689 -0.8495  0.4417 -0.0612
 5066SOL    HW320031   4.494   5.012   0.768  1.0451 -1.3667 -0.3751
 5066SOL    MW420032   4.570   5.040   0.736  0.6016  0.3754  0.0010
 5067SOL     OW20033   3.732   5.375   3.187 -0.1805  0.3899  0.1895
 5067SOL    HW220034   3.661   5.422   3.231 -0.2235 -1.0931  1.7882
 5067SOL    HW320035   3.812   5.402   3.233  0.0032  0.1884 -0.0066
 5067SOL    MW420036   3.733   5.385   3.199 -0.1620  0.1677  0.3745
 5068SOL     OW20037   5.392   5.457   4.045  0.1714  0.3710  0.6827
 5068SOL    HW220038   5.349   5.376   4.016  1.2963  0.7602 -2.4556
 5068SOL    HW320039   5.326   5.525   4.032  0.4097  0.4301 -0.2670
 5068SOL    MW420040   5.377   5.455   4.039  0.3513  0.4302  0.1433
 5069SOL     OW20041   6.065   4.546   5.657 -0.3370 -0.2634  0.4300
 5069SOL    HW220042   6.021   4.619   5.613  0.1269 -0.6292 -0.6698
 5069SOL    HW320043   5.997   4.508   5.712 -0.3555  1.5330  1.7421
 5069SOL    MW420044   6.050   4.551   5.658 -0.2783 -0.0747  0.4580
 5070SOL     OW20045   4.642   4.380   6.366 -0.3423  0.1852  0.0305
 5070SOL    HW220046   4.619   4.430   6.288 -0.0739 -0.5785 -0.5402
 5070SOL    HW320047   4.640   4.445   6.437  1.5589  1.4045 -0.9278
 5070SOL    MW420048   4.639   4.395   6.365 -0.0561  0.2453 -0.1712
 5071SOL     OW20049   2.797   0.206   4.357 -0.0154 -0.0029  0.0544
 5071SOL    HW220050   2.771   0.152   4.432 -0.8703 -0.7585 -0.7712
 5071SOL    HW320051   2.728   0.273   4.352  0.4844  0.5587  0.4287
 5071SOL    MW420052   2.784   0.208   4.366 -0.0622 -0.0285 -0.0052
 5072SOL     OW20053   4.504   6.316   0.245 -1.0696 -0.5905  0.2425
 5072SOL    HW220054   4.498   6.264   0.165 -2.2234  0.6576 -0.5255
 5072SOL    HW320055   4.419   6.305   0.287 -0.3665 -1.4816  1.4809
 5072SOL    MW420056   4.492   6.308   0.240 -1.1291 -0.5434  0.3046
 5073SOL     OW20057   1.255   3.094   0.800  0.4181  0.3231 -0.1938
 5073SOL    HW220058   1.313   3.057   0.733  1.3986  1.1342  0.1702
 5073SOL    HW320059   1.188   3.140   0.751  2.1201  2.4332 -0.6837
 5073SOL    MW420060   1.254   3.095   0.785  0.7720  0.7085 -0.2104
 5074SOL     OW20061   2.960   1.590   6.033  0.6926  0.6779 -0.4296
 5074SOL    HW220062   2.975   1.577   6.126  3.9281  4.4666 -0.1221
 5074SOL    HW320063   2.866   1.607   6.025 -0.1755 -2.3361  1.5448
 5074SOL    MW420064   2.950   1.590   6.044  1.0050  0.7801 -0.1285
 5075SOL     OW20065   3.694   1.450   5.217  0.2706 -0.1900 -0.1455
 5075SOL    HW220066   3.741   1.406   5.147  2.7012 -1.0533  1.9012
 5075SOL    HW320067   3.646   1.521   5.173  0.4525 -1.6137 -2.8212
 5075SOL    MW420068   3.694   1.454   5.202  0.6153 -0.4918 -0.2285
 5076SOL     OW20069   5.739   0.633   4.419  0.1144  0.3422  0.1830
 5076SOL    HW220070   5.739   0.630   4.324  1.1999  0.5793  0.1650
 5076SOL    HW320071   5.782   0.551   4.445 -2.3181 -0.9153  0.5547
 5076SOL    MW420072   5.745   0.622   4.410 -0.0633  0.2075  0.2297
 5077SOL     OW20073   4.235   4.814   3.412  0.2028 -0.6720 -0.2371
 5077SOL    HW220074   4.210   4.767   3.491 -3.2465  0.5003 -0.4966
 5077SOL    HW320075   4.201   4.760   3.340  0.1416  0.0358 -0.7523
 5077SOL    MW420076   4.227   4.801   3.413 -0.2604 -0.4240 -0.3394
 5078SOL     OW20077   4.801   2.610   5.889 -0.0098 -0.1880  0.4654
 5078SOL    HW220078   4.840   2.559   5.960  1.7498  1.0742  0.4657
 5078SOL    HW320079   4.860   2.685   5.877 -0.5238 -0.0782 -1.9767
 5078SOL    MW420080   4.814   2.613   5.897  0.1545 -0.0070  0.1433
 5079SOL     OW20081   4.516   5.885   3.864  0.1689 -0.0838 -0.4456
 5079SOL    HW220082   4.429   5.921   3.844  0.3395 -0.4048 -1.8694
 5079SOL    HW320083   4.562   5.956   3.907 -0.3943  0.4923 -0.7788
 5079SOL    MW420084   4.510   5.899   3.867  0.1171 -0.0501 -0.6774
 5080SOL     OW20085   5.821   1.542   5.036  0.2893 -0.1131  0.3141
 5080SOL    HW220086   5.906   1.582   5.054 -0.0880 -0.1850  2.6013
 5080SOL    HW320087   5.821   1.461   5.087 -1.2978  0.1211  0.7412
 5080SOL    MW420088   5.832   1.537   5.045  0.0301 -0.0917  0.6722
 5081SOL     OW20089   0.686   1.649   3.556 -0.0092 -0.5077 -0.7665
 5081SOL    HW220090   0.776   1.620   3.573  0.3352  0.7264 -0.4294
 5081SOL    HW320091   0.696   1.735   3.515 -1.0313 -0.5316 -1.0773
 5081SOL    MW420092   0.700   1.656   3.553 -0.0986 -0.3480 -0.7631
 5082SOL     OW20093   1.416   3.742   2.440  0.3006  0.1434  0.2508
 5082SOL    HW220094   1.425   3.796   2.361 -1.1644  0.2680  0.1485
 5082SOL    HW320095   1.345   3.681   2.419  1.5365 -1.4767  0.5815
 5082SOL    MW420096   1.408   3.741   2.427  0.2704 -0.0539  0.2809
 5083SOL     OW20097   4.240   5.835   4.648  0.7375 -0.1268  0.4786
 5083SOL    HW220098   4.295   5.913   4.635  0.3474  0.1784  0.6557
 5083SOL    HW320099   4.259   5.807   4.737 -0.2133  0.6351  0.9441
 5083SOL    MW420100   4.250   5.842   4.658  0.5606  0.0140  0.5634
 5084SOL     OW20101   5.338   4.778   3.639 -0.3928 -0.1785 -0.0827
 5084SOL    HW220102   5.362   4.731   3.719 -0.4308  0.2447  0.1761
 5084SOL    HW320103   5.253   4.741   3.615  0.1152 -1.0858 -0.5390
 5084SOL    MW420104   5.330   4.767   3.646 -0.3308 -0.2423 -0.1088
 5085SOL     OW20105   4.565   5.502   6.139 -0.3275  0.5967 -0.1131
 5085SOL    HW220106   4.519   5.507   6.223 -0.9593 -1.4675 -0.2830
 5085SOL    HW320107   4.516   5.437   6.088  1.8331 -0.5074 -0.9145
 5085SOL    MW420108   4.553   5.494   6.143 -0.1258  0.1787 -0.2412
 5086SOL     OW20109   1.194   3.530   1.241 -0.5950 -0.5079 -0.0261
 5086SOL    HW220110   1.272   3.583   1.226 -0.5510 -0.0869  1.4946
 5086SOL    HW320111   1.149   3.528   1.157  1.6762 -1.8268 -1.3009
 5086SOL    MW420112   1.199   3.536   1.228 -0.2895 -0.6264  0.0063
 5087SOL     OW20113   5.892   2.893   3.384  0.0894  0.4755 -0.8201
 5087SOL    HW220114   5.837   2.964   3.351 -2.6149 -1.6852 -1.3284
 5087SOL    HW320115   5.838   2.815   3.375  1.9013 -1.3022  2.1661
 5087SOL    MW420116   5.878   2.892   3.379 -0.0283 -0.0442 -0.4932
 5088SOL     OW20117   2.441   1.494   5.033 -0.4334  0.1173  0.3070
 5088SOL    HW220118   2.477   1.498   4.944 -0.0944 -0.0659  0.4382
 5088SOL    HW320119   2.405   1.406   5.040 -2.0610  0.6757 -0.2677
 5088SOL    MW420120   2.441   1.483   5.022 -0.6034  0.1668  0.2485
 5089SOL     OW20121   1.077   2.705   3.524  0.4601  0.0744 -0.2504
 5089SOL    HW220122   1.119   2.774   3.575  0.2304  1.6175 -2.0322
 5089SOL    HW320123   1.140   2.684   3.456  0.5661 -1.6072  0.3201
 5089SOL    MW420124   1.091   2.711   3.522  0.4438  0.0561 -0.4102
 5090SOL     OW20125   3.459   3.510   4.129  0.2894  0.0546  0.3145
 5090SOL    HW220126   3.407   3.459   4.191  0.7395  0.9914  1.5146
 5090SOL    HW320127   3.397   3.571   4.091  0.2566  0.3800  0.8703
 5090SOL    MW420128   3.444   3.511   4.132  0.3445  0.2212  0.5461
 5091SOL     OW20129   2.884   2.385   0.558  0.6467  0.4584 -0.2925
 5091SOL    HW220130   2.798   2.368   0.596  0.8151 -0.5005 -0.2936
 5091SOL    HW320131   2.910   2.300   0.521  1.4878  0.7933 -0.4863
 5091SOL    MW420132   2.876   2.371   0.558  0.7799  0.3761 -0.3182
 5092SOL     OW20133   1.400   1.358   0.642  0.5827 -0.0325  0.0608
 5092SOL    HW220134   1.479   1.310   0.666  0.5858  0.1186  0.3580
 5092SOL    HW320135   1.372   1.318   0.560  1.3375  0.3530 -0.3930
 5092SOL    MW420136   1.407   1.346   0.634  0.6827  0.0383  0.0401
 5093SOL     OW20137   3.029   6.134   4.147 -0.9550 -0.4791  0.2608
 5093SOL    HW220138   3.030   6.122   4.242 -0.8653 -0.5708  0.2484
 5093SOL    HW320139   2.941   6.106   4.121 -0.3947 -2.1901  0.1007
 5093SOL    MW420140   3.017   6.128   4.156 -0.8693 -0.7169  0.2381
 5094SOL     OW20141   1.681   6.351   5.360  0.7535 -0.3629 -0.3006
 5094SOL    HW220142   1.622   6.282   5.328  0.6631 -1.7598  2.5558
 5094SOL    HW320143   1.626   6.429   5.366  0.3246 -0.5317 -1.6183
 5094SOL    MW420144   1.666   6.352   5.356  0.6850 -0.5695 -0.0976
 5095SOL     OW20145   3.832   5.054   5.891  0.0363  0.4422  0.5204
 5095SOL    HW220146   3.798   5.137   5.858  0.9705  0.5663 -0.1865
 5095SOL    HW320147   3.760   5.017   5.942 -1.3260  0.5001 -1.2516
 5095SOL    MW420148   3.818   5.060   5.893 -0.0202  0.4662  0.1933
 5096SOL     OW20149   2.235   0.740   2.207 -0.3541  0.3441  0.4670
 5096SOL    HW220150   2.146   0.765   2.184 -1.5131 -1.1653  2.8226
 5096SOL    HW320151   2.262   0.806   2.271 -0.4719 -0.1521  1.0357
 5096SOL    MW420152   2.227   0.752   2.213 -0.5225  0.0795  0.8528
 5097SOL     OW20153   3.563   5.747   2.747 -0.1286  0.0018  1.2402
 5097SOL    HW220154   3.567   5.707   2.833  0.4980  0.4204  1.4148
 5097SOL    HW320155   3.605   5.833   2.758  2.0776 -0.8220  0.0415
 5097SOL    MW420156   3.569   5.753   2.760  0.2452 -0.0516  1.1051
 5098SOL     OW20157   4.982   4.065   6.398  0.2459  0.0903  0.2838
 5098SOL    HW220158   4.962   4.158   6.408 -0.7148 -0.0696  0.0045
 5098SOL    HW320159   4.985   4.031   6.488 -0.9203  0.1109  0.3532
 5098SOL    MW420160   4.980   4.073   6.411 -0.0347  0.0719  0.2561
 5099SOL     OW20161   0.167   2.078   5.523 -0.2577 -0.5185 -0.2633
 5099SOL    HW220162   0.090   2.025   5.544  0.0582  0.1045  2.8868
 5099SOL    HW320163   0.139   2.134   5.450 -1.9845 -1.9271 -0.7491
 5099SOL    MW420164   0.153   2.078   5.516 -0.4439 -0.6222  0.0882
 5100SOL     OW20165   2.547   6.199   3.397 -0.1053 -0.5627 -0.1453
 5100SOL    HW220166   2.581   6.110   3.395  0.6087 -0.2976 -0.3868
 5100SOL    HW320167   2.452   6.189   3.403 -0.0245 -1.3343 -0.0551
 5100SOL    MW420168   2.539   6.186   3.397 -0.0004 -0.6295 -0.1653
 5101SOL     OW20169   5.459   1.730   6.187  0.1267 -0.0919 -1.1276
 5101SOL    HW220170   5.376   1.771   6.212  0.1279 -0.3047 -0.7635
 5101SOL    HW320171   5.437   1.638   6.174  0.7388 -0.6545  1.3118
 5101SOL    MW420172   5.445   1.723   6.188  0.2077 -0.1942 -0.7577
 5102SOL     OW20173   2.292   1.983   5.386  0.0792  0.2891  0.0972
 5102SOL    HW220174   2.325   2.064   5.425  0.0961  0.8328 -0.9877
 5102SOL    HW320175   2.359   1.959   5.321 -1.3145  1.0967 -1.7382
 5102SOL    MW420176   2.306   1.990   5.382 -0.1025  0.4674 -0.2881
 5103SOL     OW20177   5.262   5.371   0.860 -0.5182 -0.1500  0.2873
 5103SOL    HW220178   5.275   5.466   0.859  0.0084 -0.1968  1.5434
 5103SOL    HW320179   5.171   5.360   0.889 -1.1472 -0.0128 -1.5073
 5103SOL    MW420180   5.251   5.382   0.864 -0.5317 -0.1381  0.2162
 5104SOL     OW20181   2.074   2.239   5.102 -0.2192 -0.1072 -0.3196
 5104SOL    HW220182   2.118   2.251   5.018 -0.5481  2.4320 -0.1952
 5104SOL    HW320183   2.143   2.251   5.167 -0.1825 -1.0197 -0.1649
 5104SOL    MW420184   2.089   2.242   5.100 -0.2578  0.1074 -0.2828
 5105SOL     OW20185   5.986   3.222   2.488  0.0807  0.1614  0.3921
 5105SOL    HW220186   6.037   3.227   2.407 -1.6554 -1.1636 -0.8427
 5105SOL    HW320187   5.899   3.254   2.464 -0.4570 -0.1917  1.7654
 5105SOL    MW420188   5.981   3.227   2.475 -0.2193 -0.0600  0.4104
 5106SOL     OW20189   6.101   2.805   2.973 -0.1733  0.0115  0.2748
 5106SOL    HW220190   6.049   2.886   2.969  0.5093  0.5655  1.8414
 5106SOL    HW320191   6.190   2.834   2.991  0.3024 -1.0529 -0.2486
 5106SOL    MW420192   6.106   2.819   2.975 -0.0204 -0.0559  0.4125
 5107SOL     OW20193   2.166   3.810   1.739  0.4540 -0.6949 -0.3382
 5107SOL    HW220194   2.177   3.749   1.667  1.5121 -1.1351  0.1656
 5107SOL    HW320195   2.237   3.874   1.728 -0.9673  0.8106 -1.1802
 5107SOL    MW420196   2.177   3.811   1.728  0.4061 -0.5544 -0.3828
 5108SOL     OW20197   0.473   6.448   0.363  0.2234 -0.4001  0.4116
 5108SOL    HW220198   0.478   6.366   0.412 -0.0886 -0.1743  0.8185
 5108SOL    HW320199   0.448   6.421   0.274 -0.7594 -0.6658  0.7592
 5108SOL    MW420200   0.471   6.433   0.358  0.0526 -0.4053  0.5112
 5109SOL     OW20201   4.903   3.868   3.846 -0.0290 -0.0578 -0.5279
 5109SOL    HW220202   4.817   3.840   3.878  0.2833 -0.5923 -0.1490
 5109SOL    HW320203   4.918   3.814   3.768  1.5426 -2.6517  1.4145
 5109SOL    MW420204   4.894   3.857   3.840  0.2196 -0.4706 -0.2216
 5110SOL     OW20205   1.279   2.884   4.701  0.1829 -0.7794 -0.2014
 5110SOL    HW220206   1.329   2.811   4.738  3.6295  2.3533  2.1239
 5110SOL    HW320207   1.226   2.916   4.774 -0.1375 -0.0610 -0.7348
 5110SOL    MW420208   1.279   2.878   4.715  0.5954 -0.2713  0.0350
 5111SOL     OW20209   0.052   4.819   3.313  0.6782 -0.2845  0.4328
 5111SOL    HW220210   0.043   4.888   3.248  0.9654  1.7072  2.3826
 5111SOL    HW320211  -0.036   4.808   3.350  0.5038 -1.4354 -0.2615
 5111SOL    MW420212   0.039   4.826   3.309  0.6931 -0.1735  0.5985
 5112SOL     OW20213   5.988   5.585   4.858  0.0731  0.2277 -0.0164
 5112SOL    HW220214   5.936   5.629   4.791  1.0079  1.1748 -0.1420
 5112SOL    HW320215   5.937   5.507   4.880 -0.7581  0.4485 -1.0635
 5112SOL    MW420216   5.974   5.580   4.852  0.0868  0.3818 -0.1711
 5113SOL     OW20217   6.066   3.632   2.587 -0.4323  0.7941 -0.1567
 5113SOL    HW220218   5.995   3.572   2.610 -1.3278  0.9108 -2.3550
 5113SOL    HW320219   6.038   3.672   2.505  2.7074 -0.0943 -1.8186
 5113SOL    MW420220   6.053   3.629   2.579 -0.1362  0.6923 -0.6660
 5114SOL     OW20221   2.118   1.711   2.359 -0.0285  0.1701  0.1562
 5114SOL    HW220222   2.175   1.741   2.288  0.3572  1.2077  0.8776
 5114SOL    HW320223   2.095   1.791   2.407 -0.1918 -0.5199  1.2679
 5114SOL    MW420224   2.123   1.726   2.356  0.0008  0.2160  0.3980
 5115SOL     OW20225   2.447   3.851   4.385 -0.3219  0.4961 -0.8227
 5115SOL    HW220226   2.483   3.787   4.324  0.9959 -0.8502  1.2343
 5115SOL    HW320227   2.520   3.907   4.408 -0.3727  0.0087  0.6469
 5115SOL    MW420228   2.461   3.850   4.380 -0.1547  0.2541 -0.3574
 5116SOL     OW20229   5.939   6.331   1.467  0.6880 -0.3876  0.7899
 5116SOL    HW220230   5.854   6.367   1.442  1.1439 -1.0786 -2.0786
 5116SOL    HW320231   5.920   6.276   1.543 -0.9845  1.2350  1.6534
 5116SOL    MW420232   5.925   6.329   1.474  0.5275 -0.2647  0.5254
 5117SOL     OW20233   3.537   2.612   2.091  0.1852  1.1787 -0.0377
 5117SOL    HW220234   3.472   2.570   2.034  0.5205 -0.1143  0.5002
 5117SOL    HW320235   3.489   2.632   2.171  0.6349 -0.7553  0.7821
 5117SOL    MW420236   3.522   2.609   2.094  0.2888  0.7529  0.1415
 5118SOL     OW20237   5.865   2.780   1.333  0.1266 -0.3710 -0.2764
 5118SOL    HW220238   5.792   2.830   1.298 -0.1855  0.3277  1.2625
 5118SOL    HW320239   5.942   2.812   1.287 -0.4285 -0.5459 -1.3436
 5118SOL    MW420240   5.866   2.791   1.323  0.0122 -0.3019 -0.2142
 5119SOL     OW20241   1.305   3.223   3.156  0.0282  0.4176 -0.5088
 5119SOL    HW220242   1.213   3.226   3.130  0.3939  2.0613 -1.8765
 5119SOL    HW320243   1.349   3.175   3.085  0.4225  1.0006 -0.6700
 5119SOL    MW420244   1.299   3.217   3.143  0.1285  0.7114 -0.7105
 5120SOL     OW20245   1.188   4.176   4.968 -0.0966  0.1817 -0.1822
 5120SOL    HW220246   1.099   4.169   5.003  0.1131  0.5918  0.4674
 5120SOL    HW320247   1.217   4.263   4.996  0.8716 -0.3349  0.4907
 5120SOL    MW420248   1.180   4.187   4.976  0.0588  0.1676 -0.0077
 5121SOL     OW20249   1.439   6.235   1.783 -0.2534 -0.4082 -0.8888
 5121SOL    HW220250   1.456   6.172   1.713 -1.0170 -0.7464 -0.7786
 5121SOL    HW320251   1.477   6.317   1.751  0.2142 -0.7787 -1.2964
 5121SOL    MW420252   1.446   6.238   1.770 -0.2924 -0.5017 -0.9281
 5122SOL     OW20253   0.091   2.463   2.526 -0.4149 -0.5308 -0.3254
 5122SOL    HW220254   0.035   2.392   2.494 -0.8918 -0.8516  1.1595
 5122SOL    HW320255   0.056   2.484   2.612  0.4642  0.7106 -0.2535
 5122SOL    MW420256   0.079   2.456   2.533 -0.3618 -0.4094 -0.1200
 5123SOL     OW20257   6.259   1.772   4.757  0.2140 -0.9959 -0.2862
 5123SOL    HW220258   6.340   1.741   4.716  1.2613 -1.5487  2.0268
 5123SOL    HW320259   6.215   1.692   4.786 -0.8998 -0.6654 -1.0150
 5123SOL    MW420260   6.264   1.757   4.755  0.2052 -1.0252 -0.0772
 5124SOL     OW20261   5.845   0.833   3.795 -0.1939 -0.3581 -0.1289
 5124SOL    HW220262   5.846   0.835   3.891  2.1904  1.3902 -0.0986
 5124SOL    HW320263   5.822   0.923   3.769  1.6848 -0.0779 -1.0811
 5124SOL    MW420264   5.842   0.845   3.804  0.3685 -0.0905 -0.2506
 5125SOL     OW20265   2.199   2.827   5.127  0.0485  0.0981 -0.1660
 5125SOL    HW220266   2.142   2.756   5.097  0.0551  0.1322 -0.2594
 5125SOL    HW320267   2.287   2.791   5.122 -0.1135 -1.0305  2.8188
 5125SOL    MW420268   2.203   2.813   5.122  0.0280 -0.0463  0.2155
 5126SOL     OW20269   1.851   5.345   0.092 -0.6482 -0.0897  0.1822
 5126SOL    HW220270   1.769   5.302   0.066 -1.5337  0.9805  1.0921
 5126SOL    HW320271   1.873   5.400   0.017  0.3719 -1.8747 -0.8991
 5126SOL    MW420272   1.843   5.347   0.079 -0.6304 -0.1840  0.1596
 5127SOL     OW20273   3.690   5.053   1.331 -0.3063 -0.1069  0.5774
 5127SOL    HW220274   3.748   5.118   1.371 -0.7722  0.6938 -0.0151
 5127SOL    HW320275   3.741   4.972   1.332  0.3611  0.3040  1.1592
 5127SOL    MW420276   3.705   5.051   1.337 -0.2797  0.0530  0.5760
 5128SOL     OW20277   0.266   1.920   2.720 -1.1205 -0.0702 -0.0230
 5128SOL    HW220278   0.236   1.834   2.688 -0.9081 -0.0716 -0.2278
 5128SOL    HW320279   0.348   1.901   2.764 -2.0743 -0.2681  1.7494
 5128SOL    MW420280   0.273   1.906   2.721 -1.2183 -0.0965  0.1838
 5129SOL     OW20281   0.918   0.247   0.324 -0.2223  0.0390 -0.0024
 5129SOL    HW220282   0.826   0.268   0.309 -0.3672 -1.0868 -0.9158
 5129SOL    HW320283   0.960   0.264   0.239  0.1190 -0.8206 -0.0176
 5129SOL    MW420284   0.912   0.252   0.311 -0.1964 -0.2230 -0.1249
 5130SOL     OW20285   0.696   4.672   0.677 -0.1765 -0.5784  0.0041
 5130SOL    HW220286   0.604   4.689   0.654  0.3934  0.8826 -1.4628
 5130SOL    HW320287   0.738   4.758   0.668  1.3158 -1.2062  0.7485
 5130SOL    MW420288   0.689   4.686   0.672  0.0956 -0.4685 -0.0912
 5131SOL     OW20289   6.078   3.766   4.257  0.0906  0.2266 -0.3420
 5131SOL    HW220290   6.082   3.768   4.353  1.1238 -1.9447 -0.2815
 5131SOL    HW320291   6.047   3.678   4.236 -0.4551  0.7814 -2.0134
 5131SOL    MW420292   6.074   3.755   4.267  0.1549  0.0133 -0.5546
 5132SOL     OW20293   5.065   6.187   4.717  0.5702 -0.1941  0.5064
 5132SOL    HW220294   5.036   6.278   4.717  1.3219  0.1015 -1.6049
 5132SOL    HW320295   5.080   6.166   4.809  1.1695  2.0756  0.9789
 5132SOL    MW420296   5.063   6.196   4.729  0.7484  0.1444  0.2902
 5133SOL     OW20297   3.219   0.097   3.532 -0.2621  0.2140  0.3197
 5133SOL    HW220298   3.159   0.102   3.457  0.5175  1.6512 -0.2602
 5133SOL    HW320299   3.267   0.016   3.518 -0.0795  0.4873 -0.8264
 5133SOL    MW420300   3.217   0.087   3.520 -0.1352  0.4397  0.0920
 5134SOL     OW20301   0.477   0.787   1.289 -0.6565 -0.5447  0.1896
 5134SOL    HW220302   0.475   0.769   1.195 -0.0244  1.7482 -0.3459
 5134SOL    HW320303   0.536   0.722   1.325  0.1746 -0.6385 -1.2460
 5134SOL    MW420304   0.484   0.776   1.281 -0.4635 -0.2546 -0.0705
 5135SOL     OW20305   3.520   2.604   0.535 -0.0251  0.5414 -0.2378
 5135SOL    HW220306   3.510   2.650   0.451  2.2957 -0.4992 -1.1628
 5135SOL    HW320307   3.518   2.511   0.512  2.2937  0.2348  0.5582
 5135SOL    MW420308   3.518   2.598   0.521  0.5870  0.3637 -0.2548
 5136SOL     OW20309   6.178   5.818   0.412  0.2010  0.2283 -0.3832
 5136SOL    HW220310   6.121   5.867   0.471  0.1746  0.7914 -0.8590
 5136SOL    HW320311   6.265   5.856   0.426  0.3560 -0.2511 -0.0541
 5136SOL    MW420312   6.182   5.830   0.421  0.2180  0.2393 -0.4026
 5137SOL     OW20313   4.362   4.199   5.272 -0.5653 -0.2964 -0.4237
 5137SOL    HW220314   4.389   4.174   5.361  1.3533  1.3830 -0.4613
 5137SOL    HW320315   4.423   4.151   5.215 -0.5226  0.1097 -0.7234
 5137SOL    MW420316   4.374   4.189   5.277 -0.3065 -0.0212 -0.4682
 5138SOL     OW20317   0.782   5.542   4.194 -0.7321  0.1861 -0.2042
 5138SOL    HW220318   0.767   5.634   4.174  0.0820  0.0073 -1.8404
 5138SOL    HW320319   0.699   5.511   4.230 -2.0347  0.8515 -2.4254
 5138SOL    MW420320   0.769   5.550   4.196 -0.7965  0.2503 -0.7131
 5139SOL     OW20321   0.019   2.196   4.382  0.0372 -0.1499  0.3479
 5139SOL    HW220322   0.005   2.102   4.390 -0.7277  0.0132  1.1471
 5139SOL    HW320323   0.111   2.209   4.401 -0.2395 -0.5585  2.1221
 5139SOL    MW420324   0.029   2.186   4.385 -0.1002 -0.1823  0.6874
 5140SOL     OW20325   5.264   4.542   4.689 -0.0190  0.3092 -0.4238
 5140SOL    HW220326   5.201   4.525   4.759  0.5980 -3.0958 -0.5258
 5140SOL    HW320327   5.212   4.579   4.618 -1.2246  0.8345  0.6972
 5140SOL    MW420328   5.249   4.545   4.689 -0.0967 -0.0707 -0.2893
 5141SOL     OW20329   0.572   2.806   4.587 -0.0755 -0.3588 -0.2661
 5141SOL    HW220330   0.534   2.725   4.552 -3.0059  1.1915 -1.0169
 5141SOL    HW320331   0.497   2.864   4.601  1.7172  1.6526  1.9323
 5141SOL    MW420332   0.557   2.803   4.584 -0.2256  0.1111 -0.0751
 5142SOL     OW20333   1.692   6.370   4.493  0.8453  0.5009  0.0609
 5142SOL    HW220334   1.714   6.299   4.553  0.2785  1.0419  0.9256
 5142SOL    HW320335   1.685   6.327   4.407  0.2735 -0.5323  0.6075
 5142SOL    MW420336   1.694   6.355   4.489  0.6950  0.4360  0.2471
 5143SOL     OW20337   5.534   5.019   5.675  0.3580  0.7470 -0.0169
 5143SOL    HW220338   5.526   5.099   5.727  3.7948  1.8383 -0.8649
 5143SOL    HW320339   5.612   4.976   5.709 -0.6239 -1.5905 -0.5143
 5143SOL    MW420340   5.543   5.024   5.687  0.6819  0.5826 -0.1944
 5144SOL     OW20341   1.425   0.345   1.914  0.0549  0.1386  0.1058
 5144SOL    HW220342   1.505   0.301   1.939  0.1573  0.4611  0.3555
 5144SOL    HW320343   1.361   0.275   1.901 -0.4954  0.0067  2.9174
 5144SOL    MW420344   1.427   0.330   1.916 -0.0042  0.1638  0.5097
 5145SOL     OW20345   5.157   3.450   4.295 -0.1722 -1.3178 -0.0816
 5145SOL    HW220346   5.113   3.427   4.212 -1.3454 -0.2570  0.2059
 5145SOL    HW320347   5.194   3.537   4.279 -0.6276 -0.9925  0.5619
 5145SOL    MW420348   5.156   3.459   4.282 -0.3871 -1.1349  0.0412
 5146SOL     OW20349   0.801   5.273   4.756  0.2773 -0.1050 -0.4296
 5146SOL    HW220350   0.769   5.334   4.822  1.0648 -1.4453  1.2553
 5146SOL    HW320351   0.896   5.271   4.769  0.3052 -1.4110 -0.6560
 5146SOL    MW420352   0.809   5.281   4.766  0.3849 -0.4541 -0.2372
 5147SOL     OW20353   5.957   0.124   4.609  0.1152  0.0472 -0.0243
 5147SOL    HW220354   5.918   0.203   4.571 -0.4324 -0.3875 -0.3840
 5147SOL    HW320355   6.035   0.109   4.555 -0.6911 -0.6012 -1.0668
 5147SOL    MW420356   5.962   0.132   4.597 -0.0635 -0.0957 -0.2093
 5148SOL     OW20357   4.864   0.628   2.225 -0.4083 -0.3169  0.0696
 5148SOL    HW220358   4.939   0.687   2.226 -0.1179 -0.6714 -0.4427
 5148SOL    HW320359   4.882   0.564   2.293 -1.4590  1.0637  1.7195
 5148SOL    MW420360   4.876   0.628   2.234 -0.5086 -0.1815  0.2197
 5149SOL     OW20361   0.673   3.315   1.948  0.1969 -0.4496 -0.0799
 5149SOL    HW220362   0.733   3.263   2.000  0.8874  1.2297  0.8803
 5149SOL    HW320363   0.695   3.292   1.857  1.9061 -0.3296  0.2590
 5149SOL    MW420364   0.684   3.305   1.943  0.5135 -0.2122  0.0915
 5150SOL     OW20365   6.432   3.242   1.137  0.8062 -0.1482  0.4923
 5150SOL    HW220366   6.455   3.155   1.167 -2.1385 -0.5500  1.9415
 5150SOL    HW320367   6.343   3.233   1.102  0.7758  2.0991 -0.1699
 5150SOL    MW420368   6.423   3.230   1.136  0.4137  0.0953  0.5961
 5151SOL     OW20369   1.720   6.128   3.508  0.2057  0.3307  0.2448
 5151SOL    HW220370   1.741   6.217   3.480 -0.6721  0.6473  0.5577
 5151SOL    HW320371   1.657   6.097   3.443  1.8912 -0.7654 -0.9357
 5151SOL    MW420372   1.714   6.136   3.496  0.3123  0.2278  0.1303
 5152SOL     OW20373   1.528   4.468   3.919 -0.2717 -0.4111 -0.3824
 5152SOL    HW220374   1.437   4.455   3.894 -0.7172  0.8673  0.5307
 5152SOL    HW320375   1.572   4.491   3.837 -1.0244  0.2316 -0.6171
 5152SOL    MW420376   1.522   4.469   3.905 -0.4298 -0.1576 -0.2929
 5153SOL     OW20377   0.961   1.163   2.534  0.3680  0.1729 -0.0911
 5153SOL    HW220378   1.010   1.244   2.550 -0.2846  0.5039  0.2658
 5153SOL    HW320379   0.869   1.189   2.538  0.1298 -0.7581  0.9148
 5153SOL    MW420380   0.955   1.177   2.536  0.2505  0.0938  0.0887
 5154SOL     OW20381   5.900   5.676   5.260  0.5909  0.4259  0.4497
 5154SOL    HW220382   5.939   5.732   5.193 -0.0396  0.5701  0.1960
 5154SOL    HW320383   5.975   5.632   5.301  0.9851  0.3325 -0.3491
 5154SOL    MW420384   5.915   5.677   5.257  0.5597  0.4326  0.3108
 5155SOL     OW20385   2.657   4.038   4.472  0.6610  0.0824 -0.1154
 5155SOL    HW220386   2.714   3.962   4.485  0.7291  0.5143  2.7018
 5155SOL    HW320387   2.630   4.063   4.561 -0.0725  2.8203 -1.0301
 5155SOL    MW420388   2.661   4.031   4.486  0.5732  0.5006  0.1356
 5156SOL     OW20389   0.521   3.246   0.096 -0.1830  0.7542 -0.3143
 5156SOL    HW220390   0.476   3.170   0.059 -0.7392  1.2022 -0.5830
 5156SOL    HW320391   0.607   3.214   0.122  1.0427  0.8394 -3.8255
 5156SOL    MW420392   0.526   3.232   0.095 -0.0947  0.8246 -0.8130
 5157SOL     OW20393   4.343   1.328   4.623  0.2913 -0.1825  0.5204
 5157SOL    HW220394   4.297   1.397   4.670 -1.0783  0.1713 -1.2361
 5157SOL    HW320395   4.363   1.366   4.538 -1.1270 -2.1197 -0.7664
 5157SOL    MW420396   4.339   1.342   4.618 -0.0765 -0.3914  0.1189
 5158SOL     OW20397   0.874   1.363   5.706 -0.0963  0.0756  0.2452
 5158SOL    HW220398   0.869   1.408   5.790 -1.7684  0.3623  0.0333
 5158SOL    HW320399   0.856   1.431   5.641 -1.5624 -0.6321 -0.1419
 5158SOL    MW420400   0.871   1.378   5.708 -0.5103  0.0201  0.1662
 5159SOL     OW20401   1.280   1.584   0.200 -0.6726 -0.2796 -0.1861
 5159SOL    HW220402   1.371   1.561   0.186 -0.7151 -1.2951  1.0522
 5159SOL    HW320403   1.283   1.670   0.242 -0.1116 -1.5118  2.4655
 5159SOL    MW420404   1.292   1.592   0.203 -0.6042 -0.5762  0.3272
 5160SOL     OW20405   3.122   1.004   3.814 -0.6645 -0.3827 -0.7230
 5160SOL    HW220406   3.097   1.038   3.728  1.1693  1.3358 -0.6727
 5160SOL    HW320407   3.201   0.953   3.797  0.5479  1.1399  0.0412
 5160SOL    MW420408   3.129   1.002   3.800 -0.2626  0.0449 -0.6155
 5161SOL     OW20409   0.589   2.572   1.539 -0.2127 -0.4077  0.0049
 5161SOL    HW220410   0.659   2.599   1.480 -0.4032  0.8027  0.2860
 5161SOL    HW320411   0.604   2.479   1.555 -0.9920 -1.1472 -3.0454
 5161SOL    MW420412   0.600   2.563   1.534 -0.3407 -0.3456 -0.3605
 5162SOL     OW20413   3.483   5.320   0.296  0.1720 -0.0028 -0.0369
 5162SOL    HW220414   3.460   5.329   0.203  1.4886 -2.6034 -0.6959
 5162SOL    HW320415   3.578   5.329   0.298  0.2085 -0.5103  0.9912
 5162SOL    MW420416   3.492   5.323   0.284  0.3505 -0.4128  0.0118
 5163SOL     OW20417   2.817   3.293   0.244 -0.1887  0.3561  0.1277
 5163SOL    HW220418   2.766   3.367   0.212 -0.3379  0.2818  0.1911
 5163SOL    HW320419   2.874   3.269   0.171 -0.0906  0.5785  0.1326
 5163SOL    MW420420   2.817   3.300   0.231 -0.1954  0.3757  0.1367
 5164SOL     OW20421   0.957   0.064   3.990  0.2020 -0.1065  0.1358
 5164SOL    HW220422   0.992   0.036   4.075 -1.1279 -1.1269  0.3818
 5164SOL    HW320423   0.985   0.155   3.981  1.0260 -0.2239  1.3028
 5164SOL    MW420424   0.966   0.072   4.000  0.1353 -0.2566  0.3222
 5165SOL     OW20425   0.877   2.169   4.017  0.2238 -0.0275  0.3372
 5165SOL    HW220426   0.918   2.210   4.093  1.1461 -0.9127  0.3400
 5165SOL    HW320427   0.919   2.210   3.941  0.5499 -0.3675  0.3314
 5165SOL    MW420428   0.888   2.180   4.017  0.3885 -0.1892  0.3368
 5166SOL     OW20429   3.511   2.702   1.620  0.5179  0.4476 -0.0855
 5166SOL    HW220430   3.598   2.734   1.596  0.5134 -0.8425 -2.0832
 5166SOL    HW320431   3.528   2.623   1.671  0.4918  1.6538  1.8850
 5166SOL    MW420432   3.525   2.696   1.624  0.5139  0.4365 -0.0891
 5167SOL     OW20433   6.083   0.835   2.038  0.3044 -0.0431 -0.0553
 5167SOL    HW220434   5.996   0.796   2.030  0.3683 -0.4297  0.9625
 5167SOL    HW320435   6.086   0.900   1.968 -1.0083  0.3478  0.2068
 5167SOL    MW420436   6.072   0.838   2.028  0.1396 -0.0425  0.1136
 5168SOL     OW20437   2.508   4.214   1.871  0.1730  0.2544  0.0873
 5168SOL    HW220438   2.540   4.134   1.828 -1.6900  0.7488 -2.4716
 5168SOL    HW320439   2.425   4.188   1.910  0.1960  0.6386  0.3921
 5168SOL    MW420440   2.501   4.200   1.871 -0.0698  0.3703 -0.2101
 5169SOL     OW20441   1.815   5.563   0.285 -0.5689 -0.9246  0.0165
 5169SOL    HW220442   1.869   5.636   0.255  0.1913 -1.1036  0.9296
 5169SOL    HW320443   1.830   5.495   0.220 -2.6030  0.2374 -1.8316
 5169SOL    MW420444   1.824   5.564   0.272 -0.7370 -0.7949 -0.1069
 5170SOL     OW20445   0.170   4.600   1.785  0.7984  0.3880 -0.0167
 5170SOL    HW220446   0.190   4.674   1.843 -0.8556  0.8980 -0.0373
 5170SOL    HW320447   0.108   4.546   1.836  0.3089  0.1796 -0.8215
 5170SOL    MW420448   0.164   4.603   1.800  0.5156  0.4278 -0.1256
 5171SOL     OW20449   2.346   3.034   4.561 -0.2174  0.5653  0.0037
 5171SOL    HW220450   2.300   3.085   4.628 -0.2012  0.7747 -0.1433
 5171SOL    HW320451   2.276   2.997   4.507 -0.2368  0.1847  0.2939
 5171SOL    MW420452   2.331   3.036   4.563 -0.2178  0.5427  0.0226
 5172SOL     OW20453   1.102   5.010   1.555 -0.5100  0.8510  0.5256
 5172SOL    HW220454   1.024   5.065   1.565 -0.5220  0.7587  0.9603
 5172SOL    HW320455   1.164   5.064   1.506 -0.1688  1.6211  1.7484
 5172SOL    MW420456   1.100   5.025   1.550 -0.4665  0.9405  0.7443
 5173SOL     OW20457   1.778   6.212   0.313 -0.0266 -0.1451  0.0402
 5173SOL    HW220458   1.793   6.247   0.225 -2.0977  0.1456 -0.2510
 5173SOL    HW320459   1.809   6.281   0.371  1.2556 -0.2887 -0.4315
 5173SOL    MW420460   1.784   6.226   0.309 -0.1307 -0.1257 -0.0604
 5174SOL     OW20461   5.847   4.152   2.262  0.0908 -0.3385  0.7211
 5174SOL    HW220462   5.752   4.158   2.257  0.2186  1.4985 -1.9786
 5174SOL    HW320463   5.872   4.222   2.322 -0.2252 -0.1225  0.6066
 5174SOL    MW420464   5.838   4.162   2.269  0.0660 -0.0676  0.3498
 5175SOL     OW20465   5.569   2.120   5.483 -0.7944  0.5361  0.1068
 5175SOL    HW220466   5.643   2.080   5.529 -1.5728  0.0633  1.0032
 5175SOL    HW320467   5.603   2.202   5.448  0.7520 -0.6987 -1.4540
 5175SOL    MW420468   5.583   2.126   5.484 -0.6930  0.3108  0.0191
 5176SOL     OW20469   0.286   5.588   2.306 -0.0386 -0.6158 -0.0495
 5176SOL    HW220470   0.223   5.516   2.308  2.4700 -3.0080 -0.3684
 5176SOL    HW320471   0.334   5.580   2.388  1.3324 -0.3501 -0.7907
 5176SOL    MW420472   0.284   5.577   2.317  0.4732 -0.8963 -0.1894
 5177SOL     OW20473   0.417   0.789   4.054 -0.4005  0.3907 -0.0508
 5177SOL    HW220474   0.344   0.806   4.114  0.1890 -1.0311  1.1356
 5177SOL    HW320475   0.430   0.872   4.008 -1.9728  1.0282  0.5765
 5177SOL    MW420476   0.409   0.802   4.056 -0.5302  0.2872  0.1885
 5178SOL     OW20477   1.890   2.984   4.895  0.7294  0.2249  0.6619
 5178SOL    HW220478   1.888   3.074   4.862 -1.0642  0.0127  0.1159
 5178SOL    HW320479   1.956   2.940   4.840 -0.0391  0.6365 -0.6333
 5178SOL    MW420480   1.899   2.990   4.883  0.3913  0.2512  0.4190
 5179SOL     OW20481   4.809   1.286   2.918  0.2860 -0.0328  0.2752
 5179SOL    HW220482   4.772   1.220   2.858  3.7664 -1.5598 -0.4507
 5179SOL    HW320483   4.799   1.247   3.005  0.7422 -0.7160  0.0294
 5179SOL    MW420484   4.802   1.272   2.921  0.8054 -0.3244  0.1470
 5180SOL     OW20485   2.829   5.267   1.911  0.7413  0.1352  0.0212
 5180SOL    HW220486   2.864   5.265   1.822  0.4951  0.7089 -0.0957
 5180SOL    HW320487   2.869   5.346   1.949  0.6848  0.0031  0.3516
 5180SOL    MW420488   2.839   5.277   1.904  0.7014  0.1935  0.0494
 5181SOL     OW20489   0.036   4.207   3.117  0.0064 -0.1283  0.1063
 5181SOL    HW220490  -0.026   4.176   3.052 -2.1391  2.7834  0.5403
 5181SOL    HW320491   0.072   4.288   3.080 -0.3257  0.9254  1.9160
 5181SOL    MW420492   0.032   4.214   3.104 -0.3205  0.3949  0.4023
 5182SOL     OW20493   5.173   5.850   4.526  0.3394 -0.0224  0.5312
 5182SOL    HW220494   5.098   5.853   4.586 -0.0211 -1.1733  0.1720
 5182SOL    HW320495   5.169   5.933   4.478  0.3060  0.6641  1.7033
 5182SOL    MW420496   5.162   5.861   4.527  0.2874 -0.0837  0.6384
 5183SOL     OW20497   2.695   3.052   2.227 -0.0158  0.1545 -0.6778
 5183SOL    HW220498   2.705   3.105   2.306 -3.4121 -2.3798  1.7618
 5183SOL    HW320499   2.666   3.115   2.160  0.2708  1.9937  0.8386
 5183SOL    MW420500   2.692   3.067   2.229 -0.4261  0.0628 -0.1559
 5184SOL     OW20501   5.525   4.956   3.331 -0.4209  0.2027  0.0373
 5184SOL    HW220502   5.474   5.009   3.270 -1.1661 -0.4026  0.1225
 5184SOL    HW320503   5.461   4.900   3.374  0.2682 -0.3204  0.4080
 5184SOL    MW420504   5.510   4.955   3.328 -0.4283  0.0538  0.0974
 5185SOL     OW20505   5.102   4.081   4.997 -0.4021  0.4454 -0.1136
 5185SOL    HW220506   5.057   4.162   4.972 -0.0116  0.9979  0.9297
 5185SOL    HW320507   5.058   4.052   5.077  0.5856  0.5832  0.4924
 5185SOL    MW420508   5.090   4.088   5.004 -0.2202  0.5365  0.1040
 5186SOL     OW20509   2.150   1.258   6.134 -0.5858 -0.1821 -0.2658
 5186SOL    HW220510   2.210   1.240   6.206  0.2393 -1.0716 -1.1555
 5186SOL    HW320511   2.206   1.290   6.064 -0.8040 -2.9277 -1.8122
 5186SOL    MW420512   2.165   1.260   6.135 -0.5057 -0.6617 -0.5872
 5187SOL     OW20513   4.873   0.111   3.361 -0.2131  0.3840 -0.4355
 5187SOL    HW220514   4.960   0.139   3.390 -0.3282  1.0795 -0.7537
 5187SOL    HW320515   4.848   0.043   3.424  0.1923  0.7920  0.1777
 5187SOL    MW420516   4.881   0.106   3.373 -0.1748  0.5296 -0.3965
 5188SOL     OW20517   5.741   3.873   4.553  0.1502  0.3925  0.1647
 5188SOL    HW220518   5.765   3.965   4.556  0.2322  0.3638  0.4075
 5188SOL    HW320519   5.790   3.833   4.625 -0.8969  0.3957  0.8971
 5188SOL    MW420520   5.751   3.880   4.563  0.0228  0.3891  0.2934
 5189SOL     OW20521   3.984   1.674   0.459 -0.8187  0.3238  0.7018
 5189SOL    HW220522   3.971   1.579   0.461 -0.1957  0.1268 -1.5163
 5189SOL    HW320523   4.066   1.689   0.505 -1.2319 -0.1386  1.5982
 5189SOL    MW420524   3.993   1.664   0.465 -0.7911  0.2368  0.5274
 5190SOL     OW20525   4.910   5.112   4.864  0.1617  0.5147  0.3933
 5190SOL    HW220526   4.867   5.107   4.949  0.3882  1.0161  0.5338
 5190SOL    HW320527   4.961   5.031   4.858 -3.4802 -1.9810 -1.2477
 5190SOL    MW420528   4.911   5.100   4.874 -0.2890  0.2516  0.1953
 5191SOL     OW20529   4.663   1.286   0.682 -0.3035  0.1623  0.1421
 5191SOL    HW220530   4.709   1.296   0.765  1.2071  0.2623 -0.6697
 5191SOL    HW320531   4.621   1.371   0.668  0.2084  0.4631  0.3714
 5191SOL    MW420532   4.664   1.299   0.691 -0.0367  0.2152  0.0652
 5192SOL     OW20533   2.920   1.181   1.952  0.4100 -0.6189  0.1391
 5192SOL    HW220534   3.011   1.210   1.938  0.6246 -1.6764 -0.7037
 5192SOL    HW320535   2.882   1.251   2.005  2.1016 -0.7965  1.7058
 5192SOL    MW420536   2.927   1.194   1.957  0.6615 -0.7819  0.2346
 5193SOL     OW20537   2.421   3.309   6.035  0.1181 -0.8117 -0.1562
 5193SOL    HW220538   2.508   3.315   5.995  0.6108  1.3610  1.0887
 5193SOL    HW320539   2.417   3.221   6.072  1.3267 -1.3375 -1.2153
 5193SOL    MW420540   2.432   3.298   6.034  0.3426 -0.5944 -0.1317
 5194SOL     OW20541   2.756   5.062   3.033  0.2858 -0.1130 -0.4673
 5194SOL    HW220542   2.835   5.029   3.075 -0.4091 -0.7391  0.3975
 5194SOL    HW320543   2.741   5.001   2.960  0.8752  0.3173 -0.9601
 5194SOL    MW420544   2.764   5.050   3.029  0.2719 -0.1388 -0.4182
 5195SOL     OW20545   2.599   5.451   0.817  0.0049 -0.4114 -0.5393
 5195SOL    HW220546   2.546   5.375   0.841  1.1952 -1.0599  0.1715
 5195SOL    HW320547   2.679   5.413   0.780  0.2938  0.5119 -0.8819
 5195SOL    MW420548   2.603   5.436   0.816  0.2000 -0.3751 -0.4907
 5196SOL     OW20549   3.935   2.428   5.605 -0.1913  0.5906  0.1164
 5196SOL    HW220550   3.969   2.339   5.607 -1.0589  0.2006  2.9885
 5196SOL    HW320551   3.920   2.450   5.697  1.1440  4.1929 -0.3543
 5196SOL    MW420552   3.938   2.419   5.618 -0.1296  1.0144  0.4333
 5197SOL     OW20553   5.961   0.887   6.422  0.4516 -0.5112 -0.0783
 5197SOL    HW220554   6.049   0.859   6.396  0.0737  0.5964 -2.9301
 5197SOL    HW320555   5.904   0.817   6.391  0.1511 -0.2208 -0.1790
 5197SOL    MW420556   5.965   0.874   6.415  0.3621 -0.3268 -0.4679
 5198SOL     OW20557   1.922   5.609   2.087  0.1107  0.6502  1.2620
 5198SOL    HW220558   1.875   5.566   2.014  2.3413 -0.2704  0.2792
 5198SOL    HW320559   1.889   5.699   2.087 -0.8321  0.3365 -0.1065
 5198SOL    MW420560   1.911   5.615   2.077  0.2806  0.4873  0.9517
 5199SOL     OW20561   6.301   2.537   5.935 -0.6718 -0.1731 -0.3428
 5199SOL    HW220562   6.264   2.621   5.907  0.1685  0.1163 -0.6241
 5199SOL    HW320563   6.351   2.507   5.859 -1.9949 -1.5706 -0.7180
 5199SOL    MW420564   6.303   2.544   5.921 -0.7355 -0.3193 -0.4294
 5200SOL     OW20565   3.331   4.643   3.900  0.2313  0.2190  0.2957
 5200SOL    HW220566   3.390   4.593   3.844  0.8488  1.0718  0.1696
 5200SOL    HW320567   3.372   4.640   3.986  0.3884  0.7125  0.2353
 5200SOL    MW420568   3.344   4.636   3.904  0.3335  0.3966  0.2711
 5201SOL     OW20569   2.086   1.812   1.875 -0.6061 -0.0596 -0.1294
 5201SOL    HW220570   2.007   1.832   1.825 -0.2760 -0.7377 -0.9704
 5201SOL    HW320571   2.137   1.756   1.816  0.3821  0.1577  0.4979
 5201SOL    MW420572   2.082   1.807   1.861 -0.4322 -0.1204 -0.1576
 5202SOL     OW20573   3.881   2.173   0.467  0.2684 -0.5131  0.0565
 5202SOL    HW220574   3.969   2.167   0.431  0.2132  0.7358 -0.3428
 5202SOL    HW320575   3.881   2.256   0.516 -1.0295  0.1442 -0.9920
 5202SOL    MW420576   3.892   2.183   0.469  0.0899 -0.2616 -0.1345
 5203SOL     OW20577   1.106   0.237   5.531 -0.1566 -0.3485 -0.5474
 5203SOL    HW220578   1.113   0.142   5.518  0.3189 -0.5203  0.7956
 5203SOL    HW320579   1.195   0.269   5.517 -0.4102 -0.0268 -1.4601
 5203SOL    MW420580   1.119   0.228   5.528 -0.1273 -0.3287 -0.4906
 5204SOL     OW20581   3.984   3.172   1.720 -0.2627  0.3416  0.9074
 5204SOL    HW220582   4.070   3.172   1.679 -0.7141  0.6046 -0.0496
 5204SOL    HW320583   3.988   3.099   1.783 -0.4435 -1.9082 -1.4940
 5204SOL    MW420584   3.996   3.162   1.723 -0.3461  0.0794  0.4643
 5205SOL     OW20585   2.785   4.668   0.594  0.3369  0.2831  0.8137
 5205SOL    HW220586   2.706   4.719   0.575  1.6042  1.1917 -2.5909
 5205SOL    HW320587   2.847   4.731   0.630  0.7944  0.4429 -0.2374
 5205SOL    MW420588   2.783   4.683   0.596  0.5645  0.4241  0.2258
 5206SOL     OW20589   4.462   0.989   1.980  0.8202 -0.2973  0.5625
 5206SOL    HW220590   4.398   0.975   2.050 -0.6104  1.5117 -0.2773
 5206SOL    HW320591   4.540   0.943   2.009 -0.3179 -1.1706  2.4521
 5206SOL    MW420592   4.464   0.981   1.993  0.4813 -0.1739  0.7010
 5207SOL     OW20593   6.359   5.398   1.983  0.7927 -0.0815 -0.4331
 5207SOL    HW220594   6.369   5.487   1.949  2.2044 -0.3646 -0.7758
 5207SOL    HW320595   6.382   5.341   1.910  0.9499 -0.7196  0.1072
 5207SOL    MW420596   6.363   5.402   1.969  0.9997 -0.2030 -0.4070
 5208SOL     OW20597   1.061   1.480   0.583  0.5627  0.9798 -0.1216
 5208SOL    HW220598   1.061   1.428   0.503  0.0362 -1.2397  1.2385
 5208SOL    HW320599   0.988   1.542   0.571 -0.4707 -0.3064 -0.7809
 5208SOL    MW420600   1.051   1.481   0.571  0.3569  0.5172 -0.0291
 5209SOL     OW20601   4.055   1.623   0.890  0.1731  0.2814 -0.2007
 5209SOL    HW220602   4.077   1.590   0.977 -1.3215 -0.7466 -0.1723
 5209SOL    HW320603   4.038   1.717   0.903  0.0989  0.1646  0.5991
 5209SOL    MW420604   4.055   1.631   0.904 -0.0339  0.1303 -0.0914
 5210SOL     OW20605   3.078   5.608   1.710  0.1635 -0.0086  0.0885
 5210SOL    HW220606   3.111   5.596   1.799  0.1361 -0.8072 -0.0021
 5210SOL    HW320607   3.151   5.649   1.664  1.2918 -2.2286 -0.2372
 5210SOL    MW420608   3.092   5.612   1.716  0.3088 -0.4069  0.0336
 5211SOL     OW20609   2.720   4.774   3.530  0.0253 -0.3176 -1.0308
 5211SOL    HW220610   2.815   4.791   3.534 -0.1706  0.6156  0.1820
 5211SOL    HW320611   2.682   4.858   3.503 -0.6588  0.1441  1.2118
 5211SOL    MW420612   2.728   4.787   3.527 -0.0908 -0.1335 -0.5749
 5212SOL     OW20613   1.755   0.251   1.729 -0.1135  0.9646  0.8668
 5212SOL    HW220614   1.709   0.317   1.678 -0.4795  1.7928  2.2006
 5212SOL    HW320615   1.742   0.278   1.820  1.9085  0.5016  1.3465
 5212SOL    MW420616   1.747   0.263   1.735  0.1050  1.0128  1.1060
 5213SOL     OW20617   2.287   0.087   4.066 -0.2947 -0.6123  0.6688
 5213SOL    HW220618   2.260   0.003   4.103  1.8394 -0.9430  1.6147
 5213SOL    HW320619   2.382   0.082   4.062 -0.2058  1.2055 -0.6664
 5213SOL    MW420620   2.296   0.075   4.070 -0.0014 -0.4161  0.6174
 5214SOL     OW20621   4.900   5.685   5.925  0.3657 -0.0175  0.3142
 5214SOL    HW220622   4.901   5.604   5.975  1.1950 -0.4937 -0.4594
 5214SOL    HW320623   4.984   5.687   5.879  0.3186  1.2248  0.2348
 5214SOL    MW420624   4.911   5.675   5.926  0.4689  0.0836  0.2017
 5215SOL     OW20625   0.336   0.573   2.752 -0.7069  0.1861  0.4787
 5215SOL    HW220626   0.261   0.633   2.756 -0.4862  0.7252 -1.9126
 5215SOL    HW320627   0.302   0.490   2.786 -2.4489  0.3989 -0.5974
 5215SOL    MW420628   0.322   0.570   2.757 -0.9076  0.2853  0.0212
 5216SOL     OW20629   4.471   3.398   2.969 -0.1864 -0.2458  0.1126
 5216SOL    HW220630   4.505   3.426   2.883 -1.7212 -0.2485 -0.5256
 5216SOL    HW320631   4.385   3.361   2.950 -0.7253  0.1110  1.7162
 5216SOL    MW420632   4.464   3.397   2.955 -0.4600 -0.1991  0.2400
 5217SOL     OW20633   4.517   5.219   4.969  0.5737 -0.1193 -0.0049
 5217SOL    HW220634   4.605   5.182   4.961  0.4031 -0.3665 -0.8915
 5217SOL    HW320635   4.532   5.310   4.994  1.0035 -0.6862  1.9335
 5217SOL    MW420636   4.531   5.226   4.971  0.6079 -0.2267  0.1339
 5218SOL     OW20637   5.894   1.271   1.701  0.0015 -0.5165  0.6788
 5218SOL    HW220638   5.871   1.185   1.735  0.1891 -0.3060  1.3511
 5218SOL    HW320639   5.988   1.265   1.682 -0.5448 -1.4777 -2.3652
 5218SOL    MW420640   5.904   1.259   1.703 -0.0459 -0.6155  0.3659
 5219SOL     OW20641   0.025   5.326   3.197  0.0780  0.0337 -0.6579
 5219SOL    HW220642   0.036   5.325   3.292  0.2773 -2.4284 -0.6438
 5219SOL    HW320643  -0.067   5.350   3.184 -0.2678 -0.7249  0.2311
 5219SOL    MW420644   0.014   5.329   3.208  0.0586 -0.3913 -0.5388
 5220SOL     OW20645   4.022   4.079   4.542  0.2231  0.6021  0.3060
 5220SOL    HW220646   3.980   4.055   4.625  0.9726 -3.2071 -0.1993
 5220SOL    HW320647   4.105   4.119   4.568 -0.1759  0.7591  1.3869
 5220SOL    MW420648   4.028   4.081   4.557  0.2693  0.1202  0.3820
 5221SOL     OW20649   3.073   2.171   1.973 -0.1872 -0.0226  0.3305
 5221SOL    HW220650   3.022   2.154   2.053  0.5955  1.7092  1.2553
 5221SOL    HW320651   3.147   2.224   2.003  0.6308 -0.1126 -1.4245
 5221SOL    MW420652   3.076   2.176   1.988  0.0240  0.1940  0.2210
 5222SOL     OW20653   0.442   3.770   1.314 -0.2444  0.2326  0.6080
 5222SOL    HW220654   0.472   3.844   1.367 -0.1019  0.7233 -0.1287
 5222SOL    HW320655   0.517   3.711   1.309 -0.3103  0.1063  1.0767
 5222SOL    MW420656   0.456   3.772   1.320 -0.2343  0.2807  0.5727
 5223SOL     OW20657   5.108   4.887   5.211 -0.0944  0.2727  0.3713
 5223SOL    HW220658   5.018   4.885   5.179 -0.2367  1.9152  0.6044
 5223SOL    HW320659   5.140   4.798   5.195 -2.5211 -1.1571  2.5483
 5223SOL    MW420660   5.100   4.875   5.205 -0.4334  0.3008  0.6893
 5224SOL     OW20661   4.526   4.507   1.724 -0.1793 -0.0772 -0.3806
 5224SOL    HW220662   4.505   4.495   1.817  0.3267  0.8172 -0.1347
 5224SOL    HW320663   4.586   4.435   1.704 -1.7632 -1.4156 -0.5442
 5224SOL    MW420664   4.531   4.496   1.734 -0.3215 -0.1358 -0.3698
 5225SOL     OW20665   2.528   2.729   4.297 -0.5836  0.2630  0.2605
 5225SOL    HW220666   2.439   2.740   4.262 -1.3260  1.0537  2.2316
 5225SOL    HW320667   2.555   2.642   4.266 -2.7488 -0.7614  1.0129
 5225SOL    MW420668   2.520   2.719   4.288 -0.9672  0.2322  0.6198
 5226SOL     OW20669   6.076   1.624   3.876  0.5598 -0.0507  0.1628
 5226SOL    HW220670   6.129   1.646   3.800  0.9746  1.9190  0.9472
 5226SOL    HW320671   6.135   1.634   3.951 -0.6954  1.5323  1.0111
 5226SOL    MW420672   6.090   1.628   3.876  0.4490  0.4181  0.3782
 5227SOL     OW20673   1.852   1.319   6.161  0.5618 -0.0765  0.0672
 5227SOL    HW220674   1.945   1.326   6.183  0.2659  1.4592  0.9853
 5227SOL    HW320675   1.851   1.314   6.065  1.5785  0.2586  0.0259
 5227SOL    MW420676   1.864   1.319   6.151  0.6569  0.1703  0.1829
 5228SOL     OW20677   2.731   3.165   3.192 -0.1043  0.1981  0.0073
 5228SOL    HW220678   2.794   3.094   3.179 -0.1934 -0.5454  3.0513
 5228SOL    HW320679   2.647   3.121   3.205 -0.3578  0.9188  0.8800
 5228SOL    MW420680   2.728   3.150   3.192 -0.1495  0.1951  0.5240
 5229SOL     OW20681   3.834   4.631   4.716 -0.1165  0.1481  0.4868
 5229SOL    HW220682   3.878   4.546   4.723  0.7517  0.5826  0.4172
 5229SOL    HW320683   3.758   4.614   4.660 -1.8406 -1.3091  3.0581
 5229SOL    MW420684   3.830   4.617   4.709 -0.2294  0.0132  0.8168
 5230SOL     OW20685   5.025   1.546   2.866  0.1016  0.2231  0.0094
 5230SOL    HW220686   4.960   1.588   2.810 -1.2056 -0.9509  0.5834
 5230SOL    HW320687   5.108   1.585   2.840 -0.3933 -0.4544 -2.9086
 5230SOL    MW420688   5.027   1.557   2.855 -0.1361 -0.0212 -0.2999
 5231SOL     OW20689   3.124   1.646   3.346  0.0123  0.4152  0.0840
 5231SOL    HW220690   3.100   1.733   3.315  1.3110  0.5705 -0.5665
 5231SOL    HW320691   3.198   1.661   3.405  0.3953 -0.2446 -0.2132
 5231SOL    MW420692   3.131   1.660   3.349  0.2342  0.3487 -0.0410
 5232SOL     OW20693   0.184   4.133   1.363  0.2751 -0.0116  0.9212
 5232SOL    HW220694   0.213   4.199   1.300  0.8685  0.8649  2.0890
 5232SOL    HW320695   0.201   4.050   1.319 -0.3995  0.5753 -0.5407
 5232SOL    MW420696   0.190   4.131   1.349  0.2644  0.1815  0.8823
 5233SOL     OW20697   3.009   0.546   0.818 -0.0661 -0.6284 -0.3767
 5233SOL    HW220698   2.998   0.584   0.906 -0.8940  1.8332 -1.4618
 5233SOL    HW320699   2.987   0.453   0.830 -0.7154 -0.2641  1.9100
 5233SOL    MW420700   3.005   0.538   0.831 -0.2610 -0.2555 -0.2182
 5234SOL     OW20701   1.373   4.527   4.526  0.3026  0.5019  0.2416
 5234SOL    HW220702   1.384   4.441   4.566  0.0231  0.4476  0.2040
 5234SOL    HW320703   1.364   4.510   4.432  1.1668  0.6449  0.1228
 5234SOL    MW420704   1.374   4.514   4.519  0.3798  0.5136  0.2210
 5235SOL     OW20705   4.737   4.039   6.273 -0.3069 -0.2824 -0.0659
 5235SOL    HW220706   4.748   3.974   6.204  2.7899  1.6776 -1.6479
 5235SOL    HW320707   4.822   4.039   6.318 -2.3505 -1.8859  4.3449
 5235SOL    MW420708   4.750   4.030   6.270 -0.1679 -0.2354  0.3073
 5236SOL     OW20709   5.712   4.078   5.822  0.1277 -0.3301 -0.1140
 5236SOL    HW220710   5.725   4.147   5.888 -1.0766 -0.2146  0.0274
 5236SOL    HW320711   5.798   4.036   5.814  0.2773 -0.4545  1.6621
 5236SOL    MW420712   5.725   4.082   5.830 -0.0114 -0.3312  0.1390
 5237SOL     OW20713   6.349   3.263   1.882  0.2581 -0.3982 -0.2676
 5237SOL    HW220714   6.308   3.347   1.863  0.4961 -0.2518 -0.1359
 5237SOL    HW320715   6.389   3.237   1.799 -0.2539 -0.6328 -0.4491
 5237SOL    MW420716   6.349   3.271   1.869  0.2219 -0.4098 -0.2741
 5238SOL     OW20717   5.266   4.297   0.294 -0.1433 -0.3042 -0.1389
 5238SOL    HW220718   5.187   4.326   0.340  0.5549  0.4022  0.6309
 5238SOL    HW320719   5.243   4.211   0.259 -0.2370 -1.5604  2.7711
 5238SOL    MW420720   5.252   4.289   0.295 -0.0635 -0.3768  0.3466
 5239SOL     OW20721   1.070   2.283   1.953  0.7124 -0.5588  0.0288
 5239SOL    HW220722   1.057   2.265   1.859 -1.8078  0.4752  0.0942
 5239SOL    HW320723   0.985   2.266   1.992  1.6086 -0.5415  2.0932
 5239SOL    MW420724   1.057   2.279   1.946  0.4981 -0.4201  0.3098
 5240SOL     OW20725   1.991   6.239   4.356 -0.4986 -0.1769 -0.3142
 5240SOL    HW220726   1.973   6.145   4.351  1.6674 -0.7593  1.0785
 5240SOL    HW320727   2.053   6.247   4.429 -0.7097  2.3584 -0.3294
 5240SOL    MW420728   1.997   6.227   4.365 -0.2407  0.0808 -0.1324
 5241SOL     OW20729   2.781   2.140   0.994  0.0322 -0.1232  1.1019
 5241SOL    HW220730   2.716   2.123   1.062 -0.4825 -1.4893  0.3135
 5241SOL    HW320731   2.857   2.172   1.041 -0.8205  0.3982  2.1636
 5241SOL    MW420732   2.782   2.142   1.009 -0.1482 -0.2346  1.1380
 5242SOL     OW20733   4.163   2.918   4.199 -0.0047 -0.1080  0.7627
 5242SOL    HW220734   4.071   2.908   4.224 -0.8981  1.1662 -1.6239
 5242SOL    HW320735   4.189   3.001   4.239 -0.4417  0.3664  0.0844
 5242SOL    MW420736   4.154   2.928   4.207 -0.1802  0.1227  0.3584
 5243SOL     OW20737   2.742   1.599   5.078  0.0858  0.2583  0.4123
 5243SOL    HW220738   2.750   1.504   5.088 -1.3584  0.0672  0.0895
 5243SOL    HW320739   2.744   1.633   5.167 -2.6003 -0.4401  0.8397
 5243SOL    MW420740   2.743   1.591   5.091 -0.4592  0.1410  0.4261
 5244SOL     OW20741   6.073   2.380   5.877 -0.4027 -0.1103 -0.0177
 5244SOL    HW220742   5.989   2.426   5.869  0.7073  2.2781  0.9634
 5244SOL    HW320743   6.134   2.447   5.908  1.5775 -2.0993  0.6614
 5244SOL    MW420744   6.070   2.395   5.880  0.0050 -0.0576  0.2013
 5245SOL     OW20745   1.868   3.377   5.840  0.1756  0.0965  0.4607
 5245SOL    HW220746   1.860   3.293   5.794 -0.4716  0.3018  0.1886
 5245SOL    HW320747   1.838   3.358   5.929  0.4473 -0.0629  0.5181
 5245SOL    MW420748   1.863   3.363   5.846  0.1260  0.1026  0.4323
 5246SOL     OW20749   4.405   3.435   0.175  0.3052  0.0106  0.4376
 5246SOL    HW220750   4.312   3.441   0.156 -0.1608  0.2605  2.5054
 5246SOL    HW320751   4.448   3.484   0.104 -1.0623 -0.6318 -0.8754
 5246SOL    MW420752   4.399   3.442   0.163  0.0633 -0.0412  0.5372
 5247SOL     OW20753   3.927   4.243   1.000 -0.2137  0.0271 -0.4167
 5247SOL    HW220754   3.972   4.277   0.923 -0.5349  1.5767  0.0566
 5247SOL    HW320755   3.834   4.252   0.980 -0.3413 -1.4712 -0.6480
 5247SOL    MW420756   3.921   4.249   0.987 -0.2729  0.0339 -0.3848
 5248SOL     OW20757   4.766   2.753   5.421  0.1349  0.0314 -0.3481
 5248SOL    HW220758   4.690   2.798   5.456 -0.4551 -0.1226 -1.3931
 5248SOL    HW320759   4.801   2.704   5.496 -1.4959 -0.8429 -0.0904
 5248SOL    MW420760   4.761   2.752   5.436 -0.1581 -0.1043 -0.4520
 5249SOL     OW20761   0.873   4.345   2.845 -0.0293  0.1693 -0.0580
 5249SOL    HW220762   0.909   4.266   2.805 -0.0517  0.4295 -0.6018
 5249SOL    HW320763   0.928   4.361   2.921  0.4621  0.0774 -0.3921
 5249SOL    MW420764   0.885   4.337   2.850  0.0326  0.1915 -0.1738
 5250SOL     OW20765   6.295   4.201   0.793 -0.0517 -0.0911  0.0837
 5250SOL    HW220766   6.308   4.185   0.886 -0.9523 -0.2650  0.1966
 5250SOL    HW320767   6.305   4.296   0.783 -0.3623 -0.0160  0.4415
 5250SOL    MW420768   6.298   4.212   0.804 -0.2115 -0.1041  0.1458
 5251SOL     OW20769   2.967   0.741   5.824 -0.1643 -0.3413  0.1906
 5251SOL    HW220770   3.047   0.689   5.818 -0.6214 -0.9590 -0.7406
 5251SOL    HW320771   2.918   0.702   5.896  0.2662 -0.0967  0.6220
 5251SOL    MW420772   2.971   0.729   5.833 -0.1678 -0.3905  0.1246
 5252SOL     OW20773   4.914   4.321   6.389  0.1454  0.1570  0.1493
 5252SOL    HW220774   4.824   4.338   6.361  0.6832 -0.1093 -1.9150
 5252SOL    HW320775   4.963   4.398   6.361  1.1646 -1.2108 -2.1051
 5252SOL    MW420776   4.909   4.333   6.382  0.3508 -0.0586 -0.4205
 5253SOL     OW20777   0.996   2.835   5.531 -0.4858  0.3409 -0.3877
 5253SOL    HW220778   1.088   2.859   5.543 -0.5176  0.2726 -0.0100
 5253SOL    HW320779   0.961   2.826   5.620 -0.8957  0.5114 -0.5287
 5253SOL    MW420780   1.004   2.837   5.544 -0.5441  0.3544 -0.3565
 5254SOL     OW20781   4.076   5.751   0.272  0.8146  0.4129 -0.2885
 5254SOL    HW220782   3.983   5.745   0.294  0.7344  2.1404 -0.0356
 5254SOL    HW320783   4.077   5.785   0.182  1.2103 -0.3963 -0.6030
 5254SOL    MW420784   4.064   5.755   0.263  0.8562  0.5341 -0.2966
 5255SOL     OW20785   3.686   6.426   5.805 -0.3298 -0.2114 -0.3597
 5255SOL    HW220786   3.720   6.407   5.893 -0.3143  3.3707  0.5568
 5255SOL    HW320787   3.594   6.446   5.818  0.1217  2.5414 -0.6330
 5255SOL    MW420788   3.679   6.426   5.819 -0.2682  0.6244 -0.2748
 5256SOL     OW20789   2.998   1.667   5.441 -0.0601  0.2716  0.3582
 5256SOL    HW220790   2.963   1.700   5.524 -0.9224  1.3083 -0.3895
 5256SOL    HW320791   2.927   1.613   5.405  0.3456 -0.2476  0.3258
 5256SOL    MW420792   2.984   1.664   5.448 -0.1203  0.3399  0.2552
 5257SOL     OW20793   0.466   3.806   2.470 -0.0746  0.2344  0.0609
 5257SOL    HW220794   0.439   3.843   2.554 -0.8015 -0.2069  0.0300
 5257SOL    HW320795   0.555   3.773   2.485 -0.3371 -0.1702  0.7601
 5257SOL    MW420796   0.474   3.807   2.483 -0.2051  0.1228  0.1490
 5258SOL     OW20797   5.590   1.731   3.853  0.3348 -0.5384  0.2358
 5258SOL    HW220798   5.663   1.678   3.820  0.9632  0.6354 -0.3228
 5258SOL    HW320799   5.528   1.734   3.780  0.0187 -0.9667  0.4754
 5258SOL    MW420800   5.591   1.724   3.839  0.3760 -0.4400  0.1937
 5259SOL     OW20801   3.611   1.056   3.337  0.1808  0.3472  0.0552
 5259SOL    HW220802   3.637   1.149   3.335  1.5525  0.0185  1.1721
 5259SOL    HW320803   3.524   1.057   3.377 -1.3331  1.3862 -2.8783
 5259SOL    MW420804   3.603   1.069   3.342  0.1621  0.4409 -0.1845
 5260SOL     OW20805   5.492   4.671   5.076 -0.4564 -0.3352  0.3317
 5260SOL    HW220806   5.406   4.699   5.108 -0.4516  1.6080 -1.1825
 5260SOL    HW320807   5.481   4.661   4.982  0.7842 -0.8382  0.2209
 5260SOL    MW420808   5.479   4.673   5.068 -0.2921 -0.1452  0.1173
 5261SOL     OW20809   3.257   6.425   2.288  0.0388 -0.2762  0.2431
 5261SOL    HW220810   3.233   6.445   2.378  0.8077 -0.5091  0.5077
 5261SOL    HW320811   3.351   6.444   2.283  0.0732 -0.5888 -0.4084
 5261SOL    MW420812   3.267   6.430   2.299  0.1448 -0.3481  0.1920
 5262SOL     OW20813   1.017   2.986   4.505  0.0254  0.2963 -0.0747
 5262SOL    HW220814   1.028   2.892   4.524 -0.0105  0.0646 -1.1340
 5262SOL    HW320815   0.941   3.012   4.557  1.9218  0.5347  2.8049
 5262SOL    MW420816   1.009   2.977   4.514  0.2709  0.2972  0.1654
 5263SOL     OW20817   2.534   3.971   3.650  0.7245  0.3344 -0.9284
 5263SOL    HW220818   2.620   3.945   3.683  0.3034  1.0660  0.8548
 5263SOL    HW320819   2.496   3.890   3.616  1.4045 -0.3668 -0.0824
 5263SOL    MW420820   2.540   3.957   3.650  0.7586  0.3384 -0.5815
 5264SOL     OW20821   0.356   2.550   1.043  0.1725 -0.3537 -0.0037
 5264SOL    HW220822   0.269   2.522   1.013  0.1347  1.4431 -1.7473
 5264SOL    HW320823   0.416   2.511   0.981  0.4529  0.0401  0.0192
 5264SOL    MW420824   0.352   2.541   1.031  0.2045 -0.0647 -0.2307
 5265SOL     OW20825   1.662   3.506   1.115 -0.0493  0.6119  0.2652
 5265SOL    HW220826   1.701   3.440   1.057 -0.8846 -1.4765  1.9482
 5265SOL    HW320827   1.703   3.588   1.088  2.5151 -0.8334 -0.6613
 5265SOL    MW420828   1.672   3.508   1.103  0.1788  0.1457  0.3650
 5266SOL     OW20829   2.791   3.985   1.482  0.3318 -0.4942  0.2064
 5266SOL    HW220830   2.861   4.048   1.500  0.6502 -1.1939  1.5453
 5266SOL    HW320831   2.833   3.900   1.490 -0.7756 -0.9426  1.5839
 5266SOL    MW420832   2.805   3.982   1.485  0.2277 -0.6457  0.5648
 5267SOL     OW20833   0.993   1.617   4.463  0.0728 -0.6073  0.3484
 5267SOL    HW220834   0.904   1.640   4.491 -0.4959 -1.1139 -0.9589
 5267SOL    HW320835   1.021   1.548   4.524 -1.1653 -1.7515 -0.3257
 5267SOL    MW420836   0.985   1.611   4.475 -0.1656 -0.8251  0.0870
 5268SOL     OW20837   0.426   0.404   4.774 -0.2414  0.0565  0.4224
 5268SOL    HW220838   0.515   0.402   4.811 -1.0989  2.3003  2.9076
 5268SOL    HW320839   0.370   0.425   4.848 -2.5393  1.4975 -1.5914
 5268SOL    MW420840   0.431   0.406   4.789 -0.6577  0.5427  0.4846
 5269SOL     OW20841   4.747   3.072   1.506 -0.1100  0.3695 -0.2513
 5269SOL    HW220842   4.793   3.137   1.453  1.0943 -1.0036 -0.9534
 5269SOL    HW320843   4.664   3.058   1.460 -0.5815  1.6870  0.1459
 5269SOL    MW420844   4.742   3.079   1.493 -0.0133  0.3622 -0.2915
 5270SOL     OW20845   2.630   4.300   3.754  0.1876 -0.5108  0.1392
 5270SOL    HW220846   2.581   4.224   3.722 -2.0452  0.6899  0.5425
 5270SOL    HW320847   2.671   4.337   3.675 -2.4393  0.4286 -0.9073
 5270SOL    MW420848   2.629   4.295   3.739 -0.4536 -0.2284  0.0543
 5271SOL     OW20849   2.841   3.509   5.917 -0.1246 -0.1486 -0.4149
 5271SOL    HW220850   2.894   3.498   5.838 -1.6046 -0.6724 -1.3808
 5271SOL    HW320851   2.841   3.604   5.933 -0.3219  0.0361 -1.4326
 5271SOL    MW420852   2.848   3.520   5.909 -0.3459 -0.1933 -0.6766
 5272SOL     OW20853   5.454   3.076   2.177 -0.4182  0.1379 -0.6871
 5272SOL    HW220854   5.364   3.045   2.189  0.1712 -1.5224 -0.2337
 5272SOL    HW320855   5.461   3.092   2.083 -0.5101 -2.1471 -1.1458
 5272SOL    MW420856   5.443   3.074   2.166 -0.3526 -0.3826 -0.6878
 5273SOL     OW20857   0.464   5.158   2.778 -0.7213  0.2955 -0.5280
 5273SOL    HW220858   0.504   5.141   2.864  0.3710 -0.4743 -1.1597
 5273SOL    HW320859   0.444   5.072   2.744 -0.9510  0.5869 -1.1383
 5273SOL    MW420860   0.467   5.145   2.785 -0.6075  0.2324 -0.6919
 5274SOL     OW20861   4.322   5.393   6.010  0.1807  0.3367  0.0878
 5274SOL    HW220862   4.295   5.301   6.011 -0.3580  0.4384  2.8086
 5274SOL    HW320863   4.266   5.433   5.944  0.4388 -1.2647 -1.1593
 5274SOL    MW420864   4.311   5.386   6.002  0.1437  0.1388  0.2822
 5275SOL     OW20865   1.023   2.039   4.656 -0.0067  0.1718  0.1675
 5275SOL    HW220866   0.937   2.017   4.692  0.1260  0.5421  0.7257
 5275SOL    HW320867   1.079   2.050   4.733  1.1941 -2.5086 -0.1881
 5275SOL    MW420868   1.019   2.037   4.671  0.1692 -0.1330  0.1943
 5276SOL     OW20869   4.594   0.740   5.744  0.8418 -0.3264  0.2238
 5276SOL    HW220870   4.501   0.728   5.759  0.3684  1.7426 -0.7564
 5276SOL    HW320871   4.615   0.674   5.677  0.4184 -1.6534  1.3387
 5276SOL    MW420872   4.585   0.730   5.737  0.7235 -0.2285  0.2416
 5277SOL     OW20873   2.795   4.055   5.707 -0.0015  0.2577 -0.2665
 5277SOL    HW220874   2.825   4.085   5.622 -0.1567  0.9037 -0.0969
 5277SOL    HW320875   2.797   3.959   5.701 -1.1667  0.2854 -1.3997
 5277SOL    MW420876   2.799   4.046   5.695 -0.1757  0.3466 -0.3936
 5278SOL     OW20877   0.384   3.619   3.767  0.6527 -0.4154 -0.2674
 5278SOL    HW220878   0.468   3.657   3.790 -0.0606  0.2204  1.4319
 5278SOL    HW320879   0.403   3.526   3.753  1.5833 -0.3410  0.4086
 5278SOL    MW420880   0.398   3.611   3.768  0.6814 -0.3217  0.0460
 5279SOL     OW20881   2.460   3.338   4.872  0.2963  0.3878  0.1255
 5279SOL    HW220882   2.441   3.394   4.796  0.9472  0.6451  0.1429
 5279SOL    HW320883   2.405   3.261   4.860  0.6563  0.2574 -0.8065
 5279SOL    MW420884   2.450   3.335   4.860  0.4297  0.4045  0.0048
 5280SOL     OW20885   6.361   5.401   2.576 -0.3466  0.2388  0.2257
 5280SOL    HW220886   6.293   5.403   2.509 -0.5481  1.6204  0.4456
 5280SOL    HW320887   6.435   5.359   2.532 -0.9199 -0.1385 -0.4157
 5280SOL    MW420888   6.362   5.395   2.561 -0.4488  0.3713  0.1701
 5281SOL     OW20889   2.114   5.566   0.843 -0.2562 -0.0332  0.1632
 5281SOL    HW220890   2.136   5.601   0.757 -1.4090  3.1503  1.0097
 5281SOL    HW320891   2.031   5.521   0.830 -0.5960  0.7193 -0.3796
 5281SOL    MW420892   2.106   5.565   0.830 -0.4531  0.4861  0.2033
 5282SOL     OW20893   4.451   1.003   3.253  0.4824 -0.0479 -0.9272
 5282SOL    HW220894   4.428   1.013   3.345  0.0498  2.2625 -1.2345
 5282SOL    HW320895   4.367   1.008   3.207  0.7499 -0.7125 -1.5112
 5282SOL    MW420896   4.437   1.005   3.259  0.4606  0.1692 -1.0448
 5283SOL     OW20897   4.712   5.208   3.096  0.7522  0.1743  0.5536
 5283SOL    HW220898   4.631   5.259   3.087  0.4817 -0.2831  0.3616
 5283SOL    HW320899   4.715   5.185   3.189 -0.6408 -1.8897  0.1615
 5283SOL    MW420900   4.702   5.211   3.107  0.5327 -0.1584  0.4765
 5284SOL     OW20901   6.098   3.485   6.345 -0.5735  0.3832 -0.2074
 5284SOL    HW220902   6.074   3.392   6.339 -2.2575  0.6655  1.4578
 5284SOL    HW320903   6.188   3.488   6.311 -1.0123 -1.5818 -1.7650
 5284SOL    MW420904   6.107   3.473   6.339 -0.8536  0.1612 -0.1932
 5285SOL     OW20905   3.227   4.707   3.480  0.1241 -0.4494 -0.1231
 5285SOL    HW220906   3.145   4.667   3.450  0.3345 -2.5582  1.8254
 5285SOL    HW320907   3.279   4.633   3.513  1.2139  1.2402  2.2615
 5285SOL    MW420908   3.223   4.692   3.480  0.2956 -0.5047  0.4486
 5286SOL     OW20909   0.971   1.619   3.319  0.1152  0.2409  0.2434
 5286SOL    HW220910   1.065   1.598   3.314  1.2581  4.5082 -0.2026
 5286SOL    HW320911   0.950   1.611   3.412  1.5296  1.1176  0.6871
 5286SOL    MW420912   0.981   1.615   3.331  0.4526  0.9196  0.2431
 5287SOL     OW20913   5.799   3.800   3.651  0.3847 -0.6567 -0.0900
 5287SOL    HW220914   5.763   3.871   3.705 -0.4144 -0.2590 -1.1057
 5287SOL    HW320915   5.779   3.721   3.701  2.9711 -0.1435  2.0028
 5287SOL    MW420916   5.791   3.799   3.665  0.6205 -0.5365  0.0521
 5288SOL     OW20917   6.309   2.943   5.668 -0.3435 -0.8770  0.2460
 5288SOL    HW220918   6.254   2.937   5.589 -2.9414  1.7016  1.6491
 5288SOL    HW320919   6.266   2.887   5.732  0.9991 -1.9383  0.2412
 5288SOL    MW420920   6.296   2.935   5.666 -0.5091 -0.6768  0.4305
 5289SOL     OW20921   5.229   3.196   0.565 -0.2986 -0.0256 -0.1626
 5289SOL    HW220922   5.303   3.170   0.510  0.1599 -0.5900  0.6981
 5289SOL    HW320923   5.254   3.282   0.600  0.5121 -0.7512  1.0903
 5289SOL    MW420924   5.242   3.204   0.562 -0.1312 -0.1958  0.1162
 5290SOL     OW20925   0.283   5.648   2.609 -0.3561 -0.1922 -0.3258
 5290SOL    HW220926   0.346   5.719   2.625 -0.6960 -0.1702  1.0592
 5290SOL    HW320927   0.208   5.692   2.569 -0.3332  0.1361 -0.0159
 5290SOL    MW420928   0.282   5.663   2.606 -0.3979 -0.1460 -0.1022
 5291SOL     OW20929   2.879   1.734   4.191  0.0584  0.6337 -0.3188
 5291SOL    HW220930   2.928   1.740   4.109 -0.3881 -0.5577 -0.6958
 5291SOL    HW320931   2.847   1.643   4.193 -0.4453  0.8239  0.8790
 5291SOL    MW420932   2.881   1.723   4.180 -0.0669  0.5016 -0.2105
 5292SOL     OW20933   2.553   0.595   2.922  0.2828  0.4619  0.0109
 5292SOL    HW220934   2.506   0.673   2.952  1.4226  0.9955  0.5175
 5292SOL    HW320935   2.513   0.523   2.970 -0.2988  0.8392  0.1033
 5292SOL    MW420936   2.542   0.596   2.933  0.3564  0.5821  0.0899
 5293SOL     OW20937   1.638   1.346   0.398  0.2330  0.5300  0.2195
 5293SOL    HW220938   1.628   1.255   0.426 -3.0920  0.4948 -0.6515
 5293SOL    HW320939   1.731   1.355   0.378  0.7428 -2.5442  0.7459
 5293SOL    MW420940   1.649   1.335   0.399 -0.1384  0.1198  0.1741
 5294SOL     OW20941   0.708   0.635   0.629  0.0969  0.2960 -0.0450
 5294SOL    HW220942   0.613   0.632   0.641  0.3305 -0.1212  2.0469
 5294SOL    HW320943   0.738   0.550   0.662  1.1631  0.2253 -1.1553
 5294SOL    MW420944   0.699   0.623   0.635  0.2684  0.2316  0.0845
 5295SOL     OW20945   2.420   5.234   4.283  0.0757 -0.2948 -0.0219
 5295SOL    HW220946   2.393   5.217   4.192 -0.8463  1.8524 -0.1986
 5295SOL    HW320947   2.384   5.320   4.303  1.5335 -0.0840  1.9199
 5295SOL    MW420948   2.412   5.243   4.273  0.1464  0.0163  0.2110
 5296SOL     OW20949   3.460   2.709   5.778 -0.3844 -0.0205  1.0731
 5296SOL    HW220950   3.531   2.695   5.715 -0.9490  1.9722 -0.0665
 5296SOL    HW320951   3.484   2.789   5.824 -0.9671 -0.3876  2.0498
 5296SOL    MW420952   3.473   2.717   5.776 -0.5358  0.1940  1.0516
 5297SOL     OW20953   0.910   4.704   2.222  0.3683 -0.9795 -0.0542
 5297SOL    HW220954   0.935   4.755   2.145  0.1452 -1.8565 -0.7248
 5297SOL    HW320955   0.921   4.765   2.296  2.0297 -0.5690 -0.5943
 5297SOL    MW420956   0.915   4.719   2.222  0.5580 -1.0411 -0.2139
 5298SOL     OW20957   1.385   5.535   3.331  0.1292  0.0532 -0.1447
 5298SOL    HW220958   1.416   5.530   3.422  0.7243 -0.3245 -0.3662
 5298SOL    HW320959   1.347   5.623   3.324 -3.9078 -1.2776  1.7000
 5298SOL    MW420960   1.384   5.546   3.342 -0.3249 -0.1722  0.0695
 5299SOL     OW20961   6.043   3.815   5.981 -0.1645  0.6264 -0.7805
 5299SOL    HW220962   6.110   3.803   5.913 -0.5981 -0.2853 -1.0585
 5299SOL    HW320963   6.081   3.880   6.040  1.1619 -0.1605 -0.7120
 5299SOL    MW420964   6.057   3.822   5.980 -0.0467  0.4023 -0.8081
 5300SOL     OW20965   5.911   4.086   0.705  0.1652  0.3806 -0.0417
 5300SOL    HW220966   5.890   3.993   0.716  0.4548  0.0829 -1.7782
 5300SOL    HW320967   5.963   4.108   0.782  0.2212 -0.9344  0.3180
 5300SOL    MW420968   5.915   4.077   0.717  0.2108  0.1678 -0.2234
 5301SOL     OW20969   0.196   2.349   4.823  0.6621  0.2682  0.5800
 5301SOL    HW220970   0.164   2.380   4.738  1.5136 -0.0123  0.1439
 5301SOL    HW320971   0.192   2.426   4.879  2.6410  1.1998 -0.4602
 5301SOL    MW420972   0.191   2.363   4.819  1.0355  0.3541  0.3852
 5302SOL     OW20973   0.421   0.107   1.716  0.5068 -0.3351  0.1221
 5302SOL    HW220974   0.488   0.039   1.715  1.3497  0.4766  0.5255
 5302SOL    HW320975   0.466   0.186   1.688 -0.0562  0.4210  1.2556
 5302SOL    MW420976   0.436   0.108   1.712  0.5437 -0.1282  0.3249
 5303SOL     OW20977   1.334   3.018   3.360  0.2154  0.2423 -0.0136
 5303SOL    HW220978   1.383   2.940   3.337  2.2855  0.4810  2.9428
 5303SOL    HW320979   1.324   3.066   3.278  0.1083 -2.4022 -1.6456
 5303SOL    MW420980   1.339   3.014   3.346  0.4744 -0.0751  0.1612
 5304SOL     OW20981   1.897   3.995   1.672  0.0229  0.3575 -0.3928
 5304SOL    HW220982   1.816   3.969   1.628  0.0909  2.3685 -1.8886
 5304SOL    HW320983   1.956   3.921   1.661 -1.7349 -1.3997  1.2578
 5304SOL    MW420984   1.894   3.982   1.665 -0.2000  0.3910 -0.3723
 5305SOL     OW20985   3.224   1.636   5.597 -0.1964 -0.1170 -0.2999
 5305SOL    HW220986   3.237   1.731   5.591  0.3037 -0.1274  0.4767
 5305SOL    HW320987   3.156   1.617   5.533 -1.6217  1.0429  0.7847
 5305SOL    MW420988   3.217   1.646   5.588 -0.3185  0.0347 -0.0543
 5306SOL     OW20989   3.666   2.290   2.447 -0.2975  0.1615  0.5225
 5306SOL    HW220990   3.648   2.383   2.458 -0.5131  0.2297 -0.3108
 5306SOL    HW320991   3.685   2.258   2.535  0.8224  1.2123  0.6796
 5306SOL    MW420992   3.666   2.298   2.460 -0.1782  0.3092  0.4333
 5307SOL     OW20993   3.880   1.358   1.536 -0.2918  0.6992  0.2346
 5307SOL    HW220994   3.793   1.319   1.528 -0.3050  0.9064 -0.7632
 5307SOL    HW320995   3.885   1.386   1.627 -0.2288 -1.7321  1.0448
 5307SOL    MW420996   3.869   1.356   1.547 -0.2852  0.4058  0.2098
 5308SOL     OW20997   6.039   1.048   2.188 -0.4026 -0.0521  0.2471
 5308SOL    HW220998   6.064   0.966   2.147  0.4586 -0.7001  1.9738
 5308SOL    HW320999   6.121   1.093   2.207 -0.8239  0.7626  0.2362
 5308SOL    MW421000   6.053   1.043   2.185 -0.3446 -0.0301  0.4735
 5309SOL     OW21001   6.044   1.796   0.176  0.8875  0.0649  0.0378
 5309SOL    HW221002   6.138   1.814   0.167  0.7800  1.3546  1.2437
 5309SOL    HW321003   6.003   1.882   0.180 -0.5486 -0.4474 -1.9716
 5309SOL    MW421004   6.051   1.809   0.175  0.6838  0.1675 -0.0682
 5310SOL     OW21005   0.446   4.690   1.097  0.4130 -0.1021 -0.2000
 5310SOL    HW221006   0.482   4.686   1.009  0.6225  0.3438 -0.1375
 5310SOL    HW321007   0.504   4.751   1.144  0.1996 -0.1990  0.1946
 5310SOL    MW421008   0.459   4.698   1.092  0.4125 -0.0561 -0.1397
 5311SOL     OW21009   2.966   1.235   0.340 -0.0079 -0.2720 -0.4774
 5311SOL    HW221010   3.018   1.310   0.371  1.8676 -1.9758  0.7156
 5311SOL    HW321011   2.908   1.214   0.413 -0.3023 -0.1981 -0.6875
 5311SOL    MW421012   2.965   1.242   0.354  0.2007 -0.4870 -0.3477
 5312SOL     OW21013   4.127   6.178   0.062  0.1731 -0.5746  0.0253
 5312SOL    HW221014   4.065   6.245   0.036  0.2622  0.0898  1.4711
 5312SOL    HW321015   4.192   6.177  -0.009  1.0126  1.9534  0.6384
 5312SOL    MW421016   4.127   6.187   0.049  0.2956 -0.1534  0.2970
 5313SOL     OW21017   3.289   0.920   2.457 -0.5453  0.2563  0.1293
 5313SOL    HW221018   3.385   0.924   2.451 -0.5737 -0.1173 -0.7908
 5313SOL    HW321019   3.265   0.997   2.509  0.2570  0.3056  0.4461
 5313SOL    MW421020   3.298   0.930   2.463 -0.4432  0.2135  0.0497
 5314SOL     OW21021   2.373   4.946   3.525  0.1394 -0.5354  0.5685
 5314SOL    HW221022   2.461   4.982   3.516 -0.2293  0.3771  0.4373
 5314SOL    HW321023   2.371   4.871   3.467  0.5759 -0.0581 -0.0712
 5314SOL    MW421024   2.384   4.941   3.517  0.1483 -0.3520  0.4668
 5315SOL     OW21025   4.721   0.156   2.672 -0.2315  0.6498 -0.3543
 5315SOL    HW221026   4.801   0.166   2.621  0.0412 -0.5358 -0.1825
 5315SOL    HW321027   4.736   0.208   2.751  1.4338 -1.5078  0.8576
 5315SOL    MW421028   4.733   0.164   2.675  0.0242  0.2087 -0.1717
 5316SOL     OW21029   2.785   2.900   0.894  0.5509  0.1987  0.3577
 5316SOL    HW221030   2.817   2.988   0.875  1.5385 -0.0131  0.9669
 5316SOL    HW321031   2.690   2.907   0.887  0.6951  0.8759 -1.3839
 5316SOL    MW421032   2.777   2.913   0.891  0.7002  0.2601  0.2083
 5317SOL     OW21033   4.436   3.744   0.356  0.2281  0.1482 -0.2168
 5317SOL    HW221034   4.379   3.693   0.299  1.4073 -0.1690 -1.1572
 5317SOL    HW321035   4.484   3.802   0.296  0.4764  0.8140  0.6079
 5317SOL    MW421036   4.435   3.745   0.341  0.4164  0.1942 -0.2320
 5318SOL     OW21037   2.185   4.413   0.085  0.2798  0.1060  0.0719
 5318SOL    HW221038   2.240   4.491   0.097  2.3342 -1.0396 -1.2366
 5318SOL    HW321039   2.106   4.445   0.042  0.8111  1.5427  0.1263
 5318SOL    MW421040   2.182   4.427   0.081  0.6210  0.1444 -0.0935
 5319SOL     OW21041   3.925   0.607   2.108  0.3066  0.1318  0.1445
 5319SOL    HW221042   3.979   0.685   2.119  1.2507 -0.0786 -2.3457
 5319SOL    HW321043   3.839   0.641   2.084  0.2682  0.4147  0.6657
 5319SOL    MW421044   3.921   0.622   2.106  0.4261  0.1414 -0.1153
 5320SOL     OW21045   6.206   5.255   2.765  0.3922 -0.3588 -0.2712
 5320SOL    HW221046   6.137   5.313   2.798 -0.0751 -0.1634 -1.5185
 5320SOL    HW321047   6.262   5.312   2.712  0.0623 -0.9685 -1.3200
 5320SOL    MW421048   6.204   5.270   2.762  0.2870 -0.4134 -0.5742
 5321SOL     OW21049   0.897   3.728   1.625  0.0398  0.0760  0.1339
 5321SOL    HW221050   0.915   3.677   1.545  0.8133  1.0103 -0.3069
 5321SOL    HW321051   0.821   3.685   1.664  0.4642 -1.2057 -0.4045
 5321SOL    MW421052   0.889   3.716   1.619  0.1979  0.0302  0.0047
 5322SOL     OW21053   0.217   0.750   4.484 -0.3857 -0.1972  0.3212
 5322SOL    HW221054   0.187   0.805   4.557  0.4042  0.5365  0.1168
 5322SOL    HW321055   0.303   0.719   4.512  0.6387  1.3860 -0.9222
 5322SOL    MW421056   0.224   0.753   4.497 -0.1463  0.1085  0.1302
 5323SOL     OW21057   4.756   2.998   1.771  0.0526 -0.0149 -0.7363
 5323SOL    HW221058   4.834   3.009   1.825 -0.1984  0.7294 -0.5084
 5323SOL    HW321059   4.786   3.014   1.681 -0.5515  4.7603 -0.3672
 5323SOL    MW421060   4.770   3.002   1.766 -0.0602  0.7133 -0.6575
 5324SOL     OW21061   0.458   4.043   2.317  0.1140 -0.1698 -0.2656
 5324SOL    HW221062   0.414   4.099   2.380  0.4859 -1.1681  0.9354
 5324SOL    HW321063   0.464   3.958   2.361  1.7509 -0.4960 -1.0258
 5324SOL    MW421064   0.453   4.039   2.331  0.3791 -0.3446 -0.2074
 5325SOL     OW21065   6.171   1.313   1.619  0.1383 -0.0138 -0.2554
 5325SOL    HW221066   6.181   1.299   1.524  1.9327  0.9074 -0.2490
 5325SOL    HW321067   6.257   1.291   1.655 -0.4344 -0.0310  1.1340
 5325SOL    MW421068   6.184   1.308   1.611  0.2995  0.1055 -0.0712
 5326SOL     OW21069   5.960   0.851   5.718 -0.5952  0.3403  0.0037
 5326SOL    HW221070   5.980   0.908   5.644 -1.9332 -1.5018 -1.8710
 5326SOL    HW321071   6.036   0.794   5.725 -0.2561  0.8264  0.4047
 5326SOL    MW421072   5.972   0.851   5.709 -0.7270  0.1614 -0.1907
 5327SOL     OW21073   1.698   3.636   2.166  0.7162 -0.0979 -0.0349
 5327SOL    HW221074   1.693   3.708   2.103 -0.6927 -0.9603 -0.9657
 5327SOL    HW321075   1.758   3.573   2.127  0.2859 -0.3733 -0.2691
 5327SOL    MW421076   1.705   3.637   2.152  0.4736 -0.2480 -0.1886
 5328SOL     OW21077   0.962   3.244   5.602 -0.2942 -0.1771  0.1311
 5328SOL    HW221078   0.926   3.322   5.645 -0.5533  0.0801 -0.5446
 5328SOL    HW321079   0.885   3.190   5.583 -0.6286  1.2339 -3.0682
 5328SOL    MW421080   0.947   3.247   5.605 -0.3725  0.0430 -0.3802
 5329SOL     OW21081   1.941   1.628   5.908 -0.3469 -0.0448 -0.2286
 5329SOL    HW221082   1.956   1.636   6.002 -0.9886 -1.1623 -0.0129
 5329SOL    HW321083   1.926   1.718   5.878 -1.6880  0.1891  1.0180
 5329SOL    MW421084   1.941   1.641   5.917 -0.6085 -0.1614 -0.0356
 5330SOL     OW21085   2.570   1.217   1.190  0.2626  0.0359  0.1496
 5330SOL    HW221086   2.544   1.302   1.153 -1.3166 -0.9299 -1.1277
 5330SOL    HW321087   2.623   1.177   1.121 -1.4882 -1.1867 -0.5682
 5330SOL    MW421088   2.573   1.223   1.176 -0.1768 -0.2528 -0.1136
 5331SOL     OW21089   2.768   3.984   4.880 -0.0181 -0.6481 -0.0581
 5331SOL    HW221090   2.752   4.022   4.967 -0.2391  0.3816 -0.5393
 5331SOL    HW321091   2.693   4.012   4.828  0.2229 -1.0892 -0.6442
 5331SOL    MW421092   2.756   3.993   4.885 -0.0155 -0.5705 -0.1989
 5332SOL     OW21093   0.419   6.332   2.196  0.0605  0.0754 -0.3743
 5332SOL    HW221094   0.434   6.238   2.183 -0.0079  0.2958 -2.1870
 5332SOL    HW321095   0.342   6.336   2.253 -0.4663 -0.9730 -0.9818
 5332SOL    MW421096   0.411   6.320   2.202 -0.0180 -0.0338 -0.6936
 5333SOL     OW21097   4.122   4.856   2.810  0.2488 -0.0639 -0.2822
 5333SOL    HW221098   4.043   4.900   2.841  0.2653  0.6922 -1.2812
 5333SOL    HW321099   4.194   4.906   2.849  0.2645 -1.0561  1.0448
 5333SOL    MW421100   4.121   4.868   2.820  0.2531 -0.0951 -0.2389
 5334SOL     OW21101   3.691   4.017   3.986 -0.5074  0.1253 -0.6236
 5334SOL    HW221102   3.648   4.081   4.042 -0.4983 -0.9924  0.7218
 5334SOL    HW321103   3.779   4.051   3.972 -0.0990 -0.1621  1.0954
 5334SOL    MW421104   3.697   4.030   3.991 -0.4523 -0.0601 -0.2192
 5335SOL     OW21105   5.326   5.749   4.001 -0.1790 -1.3050  0.1572
 5335SOL    HW221106   5.362   5.752   4.090  1.0180 -1.0668 -0.3206
 5335SOL    HW321107   5.231   5.748   4.014 -0.0755  0.5004  1.4027
 5335SOL    MW421108   5.318   5.749   4.014 -0.0074 -1.0354  0.2585
 5336SOL     OW21109   5.965   5.086   0.815  0.5467  0.2907  0.8760
 5336SOL    HW221110   6.030   5.018   0.832  1.7588  1.2397  0.1113
 5336SOL    HW321111   5.957   5.133   0.898 -0.1258 -0.6120  1.3408
 5336SOL    MW421112   5.972   5.083   0.828  0.6179  0.2968  0.8364
 5337SOL     OW21113   2.525   5.602   6.427  0.1943  0.0589 -0.1149
 5337SOL    HW221114   2.539   5.525   6.372  2.1609  1.0813 -1.1292
 5337SOL    HW321115   2.459   5.574   6.491  0.4738 -2.2785 -0.7697
 5337SOL    MW421116   2.518   5.588   6.428  0.4906 -0.1146 -0.3351
 5338SOL     OW21117   3.288   1.809   4.144 -0.6520  0.1725  0.0837
 5338SOL    HW221118   3.366   1.857   4.172  0.7824 -0.1783 -2.9697
 5338SOL    HW321119   3.243   1.868   4.084  0.5594 -1.6647 -2.8685
 5338SOL    MW421120   3.293   1.823   4.140 -0.3029 -0.1162 -0.7087
 5339SOL     OW21121   3.117   2.754   6.109  0.2459 -0.1626  0.2670
 5339SOL    HW221122   3.151   2.716   6.189  1.4909 -0.3509 -0.3202
 5339SOL    HW321123   3.180   2.823   6.086 -1.6526  1.9506  1.0096
 5339SOL    MW421124   3.130   2.758   6.116  0.1597  0.0913  0.2876
 5340SOL     OW21125   3.354   1.052   4.031 -0.2587  0.2685 -0.8010
 5340SOL    HW221126   3.286   1.009   4.083  0.8798 -1.0738 -0.3627
 5340SOL    HW321127   3.351   1.007   3.947 -0.3849  0.7065 -1.0344
 5340SOL    MW421128   3.344   1.040   4.027 -0.1251  0.1492 -0.7739
 5341SOL     OW21129   3.753   4.695   0.343 -0.0335 -0.3948  0.1631
 5341SOL    HW221130   3.812   4.620   0.354  1.5034  0.6964 -0.2591
 5341SOL    HW321131   3.677   4.674   0.397 -0.0318 -2.6337 -0.5945
 5341SOL    MW421132   3.751   4.682   0.351  0.1695 -0.5462  0.0074
 5342SOL     OW21133   1.312   0.694   4.032  0.0959 -0.5470 -0.0243
 5342SOL    HW221134   1.291   0.621   3.974  1.3687 -1.2012  0.2976
 5342SOL    HW321135   1.236   0.752   4.026  0.3456 -0.3577 -2.7025
 5342SOL    MW421136   1.299   0.692   4.024  0.2967 -0.6084 -0.3352
 5343SOL     OW21137   5.534   0.659   5.892  0.2998 -0.4041 -0.1379
 5343SOL    HW221138   5.608   0.598   5.889  0.7220  0.0249  0.9970
 5343SOL    HW321139   5.556   0.728   5.830  1.4597  0.3594  1.0639
 5343SOL    MW421140   5.547   0.660   5.884  0.5085 -0.2468  0.1704
 5344SOL     OW21141   5.233   4.382   0.015 -0.4158  0.1041  0.2430
 5344SOL    HW221142   5.230   4.326   0.092 -0.9586  0.5950  0.5892
 5344SOL    HW321143   5.294   4.452   0.039 -1.2965  0.7661  0.5888
 5344SOL    MW421144   5.241   4.384   0.028 -0.6036  0.2562  0.3343
 5345SOL     OW21145   1.078   2.207   0.455 -0.4507  0.5444 -0.0487
 5345SOL    HW221146   1.038   2.271   0.515 -1.1924  0.5843 -0.5743
 5345SOL    HW321147   1.003   2.166   0.411  0.0042 -0.7678  0.3499
 5345SOL    MW421148   1.063   2.210   0.457 -0.4886  0.3765 -0.0655
 5346SOL     OW21149   1.772   6.151   4.637  0.2399 -0.2639  0.6851
 5346SOL    HW221150   1.704   6.111   4.693 -0.6054 -1.0338 -0.8273
 5346SOL    HW321151   1.853   6.112   4.668 -0.4396 -2.2871  0.0655
 5346SOL    MW421152   1.773   6.140   4.649  0.0387 -0.6324  0.4038
 5347SOL     OW21153   4.975   6.447   4.759 -0.4591 -0.0418  0.3111
 5347SOL    HW221154   4.930   6.450   4.844  0.7411 -0.8391  0.9969
 5347SOL    HW321155   5.038   6.519   4.763  2.3672 -2.3746  1.7706
 5347SOL    MW421156   4.977   6.457   4.771  0.0722 -0.4548  0.5941
 5348SOL     OW21157   5.507   5.157   0.585  0.0329  0.2657  0.2172
 5348SOL    HW221158   5.509   5.243   0.542 -1.1101  0.4597  0.5166
 5348SOL    HW321159   5.595   5.122   0.572  0.0309  0.7665 -1.3672
 5348SOL    MW421160   5.519   5.164   0.578 -0.1182  0.3574  0.0476
 5349SOL     OW21161   4.932   0.039   6.086 -0.0102  0.1471 -0.1506
 5349SOL    HW221162   4.996  -0.028   6.061 -1.5716 -0.5059 -2.7448
 5349SOL    HW321163   4.962   0.118   6.042 -1.4184 -0.4044 -2.2451
 5349SOL    MW421164   4.945   0.041   6.077 -0.4020 -0.0118 -0.7692
 5350SOL     OW21165   1.276   2.022   1.118  0.2073  0.5623 -0.0673
 5350SOL    HW221166   1.278   2.046   1.211 -0.1753 -1.9881  0.6763
 5350SOL    HW321167   1.282   1.926   1.118  0.2500  0.5007 -2.6956
 5350SOL    MW421168   1.277   2.012   1.130  0.1625  0.2177 -0.3160
 5351SOL     OW21169   2.771   0.945   1.368 -0.6187  0.8195 -0.0496
 5351SOL    HW221170   2.831   0.871   1.366 -1.0380  0.4877 -0.2491
 5351SOL    HW321171   2.686   0.908   1.391 -1.0464  1.0826 -1.1426
 5351SOL    MW421172   2.768   0.931   1.371 -0.7304  0.8104 -0.2201
 5352SOL     OW21173   1.634   1.488   3.213  0.0984 -0.0478  0.1819
 5352SOL    HW221174   1.578   1.558   3.180  0.5180  0.4543  0.5177
 5352SOL    HW321175   1.722   1.515   3.188  0.6654  1.2747  3.1790
 5352SOL    MW421176   1.638   1.501   3.205  0.2286  0.1929  0.6217
 5353SOL     OW21177   4.883   1.306   0.512 -0.1204  0.3220  0.0671
 5353SOL    HW221178   4.811   1.288   0.573 -1.2726  0.3077 -1.2555
 5353SOL    HW321179   4.861   1.255   0.434 -0.6879  3.2508 -1.8106
 5353SOL    MW421180   4.870   1.297   0.510 -0.3473  0.7065 -0.3551
 5354SOL     OW21181   2.302   1.546   2.486  0.1918 -0.1205 -0.5379
 5354SOL    HW221182   2.334   1.601   2.557  1.9487 -1.1300 -0.4908
 5354SOL    HW321183   2.230   1.596   2.448 -0.4755  0.6640  1.6117
 5354SOL    MW421184   2.297   1.560   2.490  0.3356 -0.1502 -0.2481
 5355SOL     OW21185   5.812   3.228   1.310  0.4331  0.0463  0.3529
 5355SOL    HW221186   5.877   3.295   1.331 -1.3308  1.5321  1.3327
 5355SOL    HW321187   5.791   3.188   1.395  0.5830 -0.9465 -0.0584
 5355SOL    MW421188   5.818   3.232   1.324  0.2201  0.1113  0.4279
 5356SOL     OW21189   5.342   3.544   5.259 -0.3502 -0.4644  0.0456
 5356SOL    HW221190   5.342   3.498   5.175  1.4996 -2.5291  1.0637
 5356SOL    HW321191   5.358   3.636   5.237  0.2491 -0.9839 -1.8526
 5356SOL    MW421192   5.344   3.550   5.245 -0.0271 -0.8054 -0.0705
 5357SOL     OW21193   2.841   3.434   4.110 -0.6343  0.4511  0.2618
 5357SOL    HW221194   2.929   3.408   4.135 -0.5950 -0.4887 -0.7752
 5357SOL    HW321195   2.785   3.365   4.146 -0.8612  0.5964  0.1881
 5357SOL    MW421196   2.845   3.421   4.118 -0.6590  0.3463  0.1152
 5358SOL     OW21197   1.862   1.934   4.388  0.5282  0.1296  0.2317
 5358SOL    HW221198   1.946   1.889   4.391  0.0473 -1.0143 -1.6796
 5358SOL    HW321199   1.847   1.952   4.295 -1.1491  0.6721  0.5612
 5358SOL    MW421200   1.871   1.930   4.376  0.2435  0.0503  0.0230
 5359SOL     OW21201   5.360   0.889   5.320 -0.5127 -0.0825 -0.4668
 5359SOL    HW221202   5.416   0.865   5.247  2.2309  0.4485  1.3221
 5359SOL    HW321203   5.344   0.983   5.308 -0.2425 -0.0412 -0.5083
 5359SOL    MW421204   5.365   0.898   5.309 -0.1151 -0.0070 -0.2363
 5360SOL     OW21205   1.182   0.347   1.325 -0.2261  0.0727 -0.0035
 5360SOL    HW221206   1.141   0.309   1.248 -1.1829 -0.5471  0.7871
 5360SOL    HW321207   1.233   0.421   1.291  0.5348 -1.0376 -1.3915
 5360SOL    MW421208   1.183   0.352   1.310 -0.2519 -0.1556 -0.0823
 5361SOL     OW21209   0.279   2.230   2.938 -0.2837 -0.3819  0.2063
 5361SOL    HW221210   0.258   2.299   3.001  0.4832 -0.2932  0.3687
 5361SOL    HW321211   0.283   2.275   2.854 -2.4334 -0.6833 -0.1129
 5361SOL    MW421212   0.276   2.245   2.936 -0.4661 -0.4099  0.1856
 5362SOL     OW21213   1.645   6.397   2.972 -0.1560 -0.3955  0.0210
 5362SOL    HW221214   1.689   6.466   2.922 -1.3500  1.2188  1.1163
 5362SOL    HW321215   1.675   6.410   3.062 -1.4885 -0.3733  0.4844
 5362SOL    MW421216   1.655   6.408   2.978 -0.4893 -0.1795  0.2266
 5363SOL     OW21217   4.756   5.444   3.968 -0.0756  0.3237 -0.0143
 5363SOL    HW221218   4.717   5.525   3.935  1.3634  2.0216  2.2015
 5363SOL    HW321219   4.847   5.447   3.937  0.8314  1.1262  2.4922
 5363SOL    MW421220   4.763   5.455   3.959  0.2340  0.6536  0.6087
 5364SOL     OW21221   2.914   6.338   2.464 -0.1840  0.3630 -0.0217
 5364SOL    HW221222   2.852   6.406   2.436  0.1067  1.0843  1.0535
 5364SOL    HW321223   2.938   6.294   2.383  1.4289  3.0464 -1.1414
 5364SOL    MW421224   2.909   6.341   2.450  0.0672  0.8122 -0.0276
 5365SOL     OW21225   1.418   5.733   5.726 -0.7776  0.5342  0.1141
 5365SOL    HW221226   1.471   5.668   5.681 -0.6719  0.5234  0.2548
 5365SOL    HW321227   1.333   5.730   5.681 -0.1612  1.7138 -1.1987
 5365SOL    MW421228   1.414   5.724   5.714 -0.6823  0.6884 -0.0405
 5366SOL     OW21229   2.664   1.765   5.303 -0.0944 -0.6278 -0.4475
 5366SOL    HW221230   2.638   1.701   5.369 -0.9172 -1.8518 -1.9099
 5366SOL    HW321231   2.593   1.828   5.301  0.6685  0.3192  0.9219
 5366SOL    MW421232   2.651   1.765   5.311 -0.1023 -0.6644 -0.4598
 5367SOL     OW21233   2.178   3.202   6.314 -0.0846 -0.4741  0.0803
 5367SOL    HW221234   2.085   3.194   6.290 -0.6213  2.1638  0.9017
 5367SOL    HW321235   2.185   3.154   6.396 -0.9768  0.1007  0.5147
 5367SOL    MW421236   2.166   3.195   6.321 -0.2731 -0.0502  0.2460
 5368SOL     OW21237   5.592   3.315   5.007  0.1925  0.0104  0.4961
 5368SOL    HW221238   5.602   3.323   4.912  1.8429 -0.6121  0.5892
 5368SOL    HW321239   5.513   3.366   5.027  0.8211  1.6457 -0.9720
 5368SOL    MW421240   5.583   3.323   4.997  0.4932  0.1440  0.3147
 5369SOL     OW21241   5.307   4.260   1.984  0.2795  0.5059 -0.0852
 5369SOL    HW221242   5.308   4.256   1.889 -1.9486 -1.9854 -0.0975
 5369SOL    HW321243   5.238   4.323   2.004 -1.1754 -0.9819 -0.2040
 5369SOL    MW421244   5.298   4.268   1.974 -0.2064 -0.0191 -0.1025
 5370SOL     OW21245   1.133   1.875   4.474 -0.6167 -0.0968  0.0757
 5370SOL    HW221246   1.096   1.933   4.540  0.7124 -1.0162  1.7110
 5370SOL    HW321247   1.090   1.791   4.489  1.1818 -0.8680  1.2352
 5370SOL    MW421248   1.122   1.872   4.484 -0.2040 -0.3199  0.4444
 5371SOL     OW21249   3.261   4.912   3.786  0.4192 -0.0219 -0.0973
 5371SOL    HW221250   3.286   4.824   3.815  0.5655  0.1625  0.3516
 5371SOL    HW321251   3.171   4.922   3.815 -0.4238 -0.8999 -2.2086
 5371SOL    MW421252   3.253   4.902   3.794  0.3273 -0.1134 -0.3166
 5372SOL     OW21253   5.883   5.525   1.802  0.2046  0.1793 -0.3054
 5372SOL    HW221254   5.793   5.548   1.779 -0.2326 -0.2419  0.8990
 5372SOL    HW321255   5.876   5.481   1.886  1.3624 -1.3602 -0.9516
 5372SOL    MW421256   5.871   5.522   1.810  0.2997 -0.0794 -0.2318
 5373SOL     OW21257   5.831   5.875   5.858  0.2197  0.3838 -0.2879
 5373SOL    HW221258   5.846   5.919   5.774 -2.3440  0.9717 -0.5083
 5373SOL    HW321259   5.868   5.787   5.846  0.7704  0.7808 -1.6628
 5373SOL    MW421260   5.838   5.869   5.845 -0.0459  0.5138 -0.4984
 5374SOL     OW21261   4.309   1.800   2.132  0.2638  0.1387 -0.1707
 5374SOL    HW221262   4.215   1.805   2.145  0.2331 -1.1189  0.2436
 5374SOL    HW321263   4.340   1.890   2.141 -0.5964  0.2639  2.0565
 5374SOL    MW421264   4.301   1.812   2.135  0.1463 -0.0107  0.1778
 5375SOL     OW21265   6.098   5.075   2.587 -0.2296  0.1739  0.2277
 5375SOL    HW221266   6.110   5.115   2.501 -1.5523  0.9868  0.3990
 5375SOL    HW321267   6.137   5.138   2.648  1.5773 -0.8372  0.2002
 5375SOL    MW421268   6.105   5.089   2.584 -0.1657  0.1478  0.2467
 5376SOL     OW21269   5.674   2.020   3.934  0.2775 -0.6503  0.5608
 5376SOL    HW221270   5.601   2.066   3.977 -0.3697  0.1370 -1.2636
 5376SOL    HW321271   5.635   1.937   3.905 -0.4382  0.4354 -1.8329
 5376SOL    MW421272   5.659   2.015   3.936  0.0977 -0.4032  0.0043
 5377SOL     OW21273   4.668   5.656   0.852 -0.0043 -0.4260  0.2964
 5377SOL    HW221274   4.675   5.722   0.920  0.3090 -0.1684  0.0201
 5377SOL    HW321275   4.574   5.647   0.836 -0.0737 -0.4371  0.7086
 5377SOL    MW421276   4.656   5.663   0.859  0.0278 -0.3935  0.3143
 5378SOL     OW21277   2.755   3.249   2.881 -0.3668  0.4663  0.0495
 5378SOL    HW221278   2.767   3.243   2.975  0.7449  0.7529 -0.0598
 5378SOL    HW321279   2.662   3.268   2.870 -0.5797  0.0686  1.0652
 5378SOL    MW421280   2.745   3.251   2.892 -0.2482  0.4516  0.1691
 5379SOL     OW21281   4.648   3.790   5.254 -0.0458 -0.1712  0.5904
 5379SOL    HW221282   4.658   3.856   5.186  0.3170 -0.0921  0.7182
 5379SOL    HW321283   4.603   3.835   5.325 -0.9237 -0.3995  0.1992
 5379SOL    MW421284   4.644   3.804   5.255 -0.1138 -0.1909  0.5556
 5380SOL     OW21285   4.573   0.291   5.029  0.0648 -0.1208  0.2118
 5380SOL    HW221286   4.536   0.235   4.962  2.0677 -0.0423 -1.0626
 5380SOL    HW321287   4.659   0.317   4.994  1.1068  0.1218  2.6888
 5380SOL    MW421288   4.580   0.287   5.016  0.4665 -0.0784  0.3705
 5381SOL     OW21289   6.057   1.427   6.353  0.3922 -0.2757 -0.0628
 5381SOL    HW221290   6.043   1.455   6.444  2.6170  0.0922  0.2301
 5381SOL    HW321291   6.068   1.332   6.359 -1.5833 -0.5602 -0.2882
 5381SOL    MW421292   6.057   1.418   6.366  0.4250 -0.2647 -0.0539
 5382SOL     OW21293   1.750   6.059   1.830 -0.0650  0.7197 -0.6571
 5382SOL    HW221294   1.808   5.984   1.842 -0.1988  0.6828 -0.2412
 5382SOL    HW321295   1.711   6.045   1.743 -0.8050 -0.1801 -0.1957
 5382SOL    MW421296   1.752   6.047   1.820 -0.1803  0.5961 -0.5413
 5383SOL     OW21297   6.032   1.992   4.365 -0.2012  0.4478  0.3310
 5383SOL    HW221298   5.946   1.960   4.392 -0.2523 -1.1604 -1.5019
 5383SOL    HW321299   6.089   1.972   4.439 -1.0647 -0.2015  0.8409
 5383SOL    MW421300   6.028   1.985   4.378 -0.3219  0.1499  0.1564
 5384SOL     OW21301   6.126   1.926   3.696  0.2799 -0.1638  0.1756
 5384SOL    HW221302   6.042   1.892   3.666 -1.3935  2.3042  1.6645
 5384SOL    HW321303   6.147   1.996   3.635 -0.6559  1.5936  1.7549
 5384SOL    MW421304   6.118   1.931   3.684 -0.0644  0.3937  0.5804
 5385SOL     OW21305   1.544   3.474   1.572 -0.1531  0.3590  0.5089
 5385SOL    HW221306   1.624   3.474   1.519  0.6562  1.5790  1.6724
 5385SOL    HW321307   1.502   3.558   1.551 -0.5875  0.1909  0.6962
 5385SOL    MW421308   1.549   3.485   1.562 -0.1036  0.4978  0.6871
 5386SOL     OW21309   3.602   2.297   3.533 -0.2948  0.1086 -0.2167
 5386SOL    HW221310   3.672   2.332   3.478 -0.5057 -0.3563 -0.7927
 5386SOL    HW321311   3.526   2.292   3.475 -0.5771 -0.1912  0.1747
 5386SOL    MW421312   3.602   2.301   3.519 -0.3598  0.0077 -0.2411
 5387SOL     OW21313   3.582   1.112   5.558 -0.0789  0.1652  0.2205
 5387SOL    HW221314   3.597   1.198   5.519  0.2984  0.2783  0.6022
 5387SOL    HW321315   3.615   1.121   5.648  3.2152 -1.3499 -0.6517
 5387SOL    MW421316   3.589   1.124   5.565  0.4055 -0.0198  0.1558
 5388SOL     OW21317   3.046   1.877   1.061 -0.0484  0.0032  0.2297
 5388SOL    HW221318   2.980   1.834   1.114  1.9632 -1.0537  2.0552
 5388SOL    HW321319   3.129   1.853   1.102  1.4806  1.4173 -1.8129
 5388SOL    MW421320   3.048   1.868   1.073  0.4187  0.0503  0.2011
 5389SOL     OW21321   0.812   0.817   0.857  0.0448  0.0071  0.2531
 5389SOL    HW221322   0.787   0.773   0.775 -1.7227  1.8613 -0.2892
 5389SOL    HW321323   0.865   0.752   0.904 -0.2932 -1.7199 -1.6092
 5389SOL    MW421324   0.816   0.803   0.852 -0.2330  0.0239 -0.0642
 5390SOL     OW21325   3.593   0.788   5.804 -0.1709 -0.5753 -0.0390
 5390SOL    HW221326   3.546   0.704   5.804 -1.0436 -0.1098 -1.0029
 5390SOL    HW321327   3.524   0.854   5.807  0.4654  0.1244 -0.4504
 5390SOL    MW421328   3.578   0.786   5.805 -0.2021 -0.4215 -0.2205
 5391SOL     OW21329   1.620   2.330   5.788 -0.0094  0.0484  0.0055
 5391SOL    HW221330   1.557   2.388   5.831  0.6785  1.1351 -0.3943
 5391SOL    HW321331   1.585   2.317   5.700  0.4987  0.9766 -0.3477
 5391SOL    MW421332   1.607   2.336   5.782  0.1484  0.3142 -0.0938
 5392SOL     OW21333   6.085   3.357   1.465 -0.2561  0.6776  0.5116
 5392SOL    HW221334   6.082   3.451   1.484  0.3437  0.7387  0.3232
 5392SOL    HW321335   6.173   3.342   1.430 -0.6615  0.2175 -0.3598
 5392SOL    MW421336   6.096   3.367   1.463 -0.2304  0.6250  0.3718
 5393SOL     OW21337   3.059   6.065   1.190 -0.0223 -0.1403  0.0022
 5393SOL    HW221338   3.018   6.063   1.103  0.7006  0.0640 -0.3513
 5393SOL    HW321339   3.143   6.109   1.176 -0.8250  1.9045  1.2090
 5393SOL    MW421340   3.065   6.071   1.176 -0.0328  0.1565  0.1147
 5394SOL     OW21341   1.779   0.196   3.623  0.5910  0.1328 -0.0190
 5394SOL    HW221342   1.695   0.241   3.613  0.2700 -0.3595  0.3957
 5394SOL    HW321343   1.836   0.260   3.666  0.3754  0.4064 -0.1362
 5394SOL    MW421344   1.776   0.210   3.627  0.5202  0.1039  0.0202
 5395SOL     OW21345   3.373   2.530   3.450  0.1955 -0.0915 -0.3751
 5395SOL    HW221346   3.358   2.536   3.544 -0.4271 -1.2336 -0.3898
 5395SOL    HW321347   3.359   2.619   3.418 -2.4593 -0.2237  0.2051
 5395SOL    MW421348   3.369   2.542   3.458 -0.2369 -0.2596 -0.3005
 5396SOL     OW21349   6.222   0.239   0.328 -0.8467  0.2013  0.4360
 5396SOL    HW221350   6.230   0.226   0.234 -3.4409 -1.0676  0.2917
 5396SOL    HW321351   6.256   0.327   0.344  1.2864 -0.2116 -1.3539
 5396SOL    MW421352   6.228   0.249   0.318 -0.9076 -0.0206  0.1808
 5397SOL     OW21353   0.918   6.199   4.356  0.0718 -0.4288  0.1665
 5397SOL    HW221354   0.901   6.183   4.449 -0.6339 -0.8733 -0.0312
 5397SOL    HW321355   0.832   6.194   4.314  0.5926 -2.2673 -0.8083
 5397SOL    MW421356   0.905   6.196   4.362  0.0474 -0.7300  0.0118
 5398SOL     OW21357   2.736   4.450   3.555  0.4094 -0.0747  0.4049
 5398SOL    HW221358   2.678   4.521   3.527  0.1305 -0.1010  0.9141
 5398SOL    HW321359   2.813   4.495   3.589  1.4453 -0.0464 -1.7935
 5398SOL    MW421360   2.739   4.465   3.556  0.5093 -0.0744  0.1820
 5399SOL     OW21361   5.617   0.851   0.884  0.0287 -0.1407  0.4745
 5399SOL    HW221362   5.523   0.833   0.880  0.0892 -0.6650  1.1895
 5399SOL    HW321363   5.647   0.839   0.794 -0.7233  0.8461  0.0757
 5399SOL    MW421364   5.608   0.847   0.871 -0.0625 -0.0797  0.5162
 5400SOL     OW21365   2.878   6.261   1.273  0.5885  0.6894  0.3522
 5400SOL    HW221366   2.949   6.199   1.288  0.7723  0.6172 -0.7865
 5400SOL    HW321367   2.848   6.283   1.361 -0.2227 -1.8512  0.7886
 5400SOL    MW421368   2.883   6.256   1.287  0.5057  0.3447  0.2595
 5401SOL     OW21369   0.513   1.537   5.005  0.0799 -0.0840  0.0754
 5401SOL    HW221370   0.531   1.491   5.087 -0.4806  0.3477  0.4500
 5401SOL    HW321371   0.459   1.612   5.031  0.9748  0.7944 -0.5153
 5401SOL    MW421372   0.508   1.541   5.019  0.1240  0.0889  0.0469
 5402SOL     OW21373   3.808   0.139   2.013  0.0403 -0.3356  0.0482
 5402SOL    HW221374   3.843   0.127   1.925  1.7708 -0.5929  0.7406
 5402SOL    HW321375   3.882   0.168   2.066 -0.5018 -1.9762  1.8408
 5402SOL    MW421376   3.822   0.141   2.009  0.1971 -0.5860  0.3760
 5403SOL     OW21377   6.006   0.137   5.362  0.2537  0.6765  0.1574
 5403SOL    HW221378   6.088   0.145   5.411 -0.0303  2.7204  0.3833
 5403SOL    HW321379   5.965   0.223   5.369 -1.1714  0.1748 -1.2981
 5403SOL    MW421380   6.011   0.149   5.370  0.0282  0.8800 -0.0049
 5404SOL     OW21381   3.464   0.387   3.947 -0.4226 -0.4757  0.4276
 5404SOL    HW221382   3.402   0.409   3.877  2.4246 -0.8863 -2.4736
 5404SOL    HW321383   3.509   0.470   3.967  0.7344 -0.8735 -0.3946
 5404SOL    MW421384   3.462   0.401   3.940  0.1057 -0.5824 -0.0637
 5405SOL     OW21385   6.401   2.686   4.560  0.2452  0.2084  0.5062
 5405SOL    HW221386   6.496   2.692   4.571  0.0293  0.4110  2.7032
 5405SOL    HW321387   6.366   2.694   4.649 -1.7635 -1.3297 -0.0750
 5405SOL    MW421388   6.409   2.688   4.573 -0.0483  0.0322  0.7194
 5406SOL     OW21389   4.880   6.107   0.475  0.6148 -0.0097 -0.4819
 5406SOL    HW221390   4.786   6.095   0.483  0.3786  1.4876 -0.6246
 5406SOL    HW321391   4.892   6.144   0.387  1.4188 -0.8420 -0.7351
 5406SOL    MW421392   4.869   6.110   0.464  0.6897  0.0780 -0.5342
 5407SOL     OW21393   5.128   4.125   0.592 -0.6205  0.4219  0.1951
 5407SOL    HW221394   5.041   4.097   0.623 -0.4146  0.7199  1.0859
 5407SOL    HW321395   5.111   4.201   0.537 -0.9921 -0.0358 -0.3260
 5407SOL    MW421396   5.114   4.131   0.589 -0.6423  0.4008  0.2439
 5408SOL     OW21397   5.558   1.249   5.434  0.3538 -0.6592 -0.5767
 5408SOL    HW221398   5.512   1.305   5.496 -0.5344 -2.3070  0.3340
 5408SOL    HW321399   5.517   1.267   5.350  0.4270  0.3858 -0.3982
 5408SOL    MW421400   5.547   1.259   5.431  0.2463 -0.7387 -0.4330
 5409SOL     OW21401   5.423   4.061   5.701  0.0635  0.2291  0.4967
 5409SOL    HW221402   5.331   4.071   5.727 -0.6362 -0.4884 -1.4565
 5409SOL    HW321403   5.472   4.060   5.783 -1.6941  0.4285  1.5972
 5409SOL    MW421404   5.417   4.062   5.715 -0.2607  0.1608  0.3842
 5410SOL     OW21405   0.601   3.136   4.099 -0.1062  1.3254 -0.0744
 5410SOL    HW221406   0.523   3.084   4.083 -0.8869  2.2061  0.7318
 5410SOL    HW321407   0.639   3.098   4.179 -0.2255  1.4688  0.0519
 5410SOL    MW421408   0.596   3.124   4.108 -0.2249  1.4605  0.0487
 5411SOL     OW21409   4.703   3.534   3.741  0.5820  0.2531  0.2723
 5411SOL    HW221410   4.745   3.602   3.688  1.6735 -0.5663  0.0576
 5411SOL    HW321411   4.664   3.475   3.677 -0.8752  0.9568  0.4688
 5411SOL    MW421412   4.703   3.535   3.726  0.5338  0.2379  0.2699
 5412SOL     OW21413   2.218   5.979   4.051 -0.1654 -0.5768  0.0391
 5412SOL    HW221414   2.245   5.957   3.962  1.1310  1.0184  0.0031
 5412SOL    HW321415   2.207   6.074   4.050 -1.1369 -0.6433  1.3395
 5412SOL    MW421416   2.220   5.989   4.039 -0.1225 -0.3751  0.2060
 5413SOL     OW21417   2.233   1.957   4.969  0.3284  0.1738 -0.2162
 5413SOL    HW221418   2.297   1.972   5.039  0.4656 -0.5270 -0.1847
 5413SOL    HW321419   2.220   1.862   4.968 -1.9140  0.4116  0.8398
 5413SOL    MW421420   2.240   1.946   4.978  0.0506  0.1127 -0.0727
 5414SOL     OW21421   5.203   6.356   2.708 -0.1078 -0.4086  0.0679
 5414SOL    HW221422   5.206   6.326   2.799  1.1773  0.8004  0.4656
 5414SOL    HW321423   5.201   6.275   2.656  1.9619 -1.2339  1.1238
 5414SOL    MW421424   5.203   6.341   2.713  0.3348 -0.3580  0.2597
 5415SOL     OW21425   2.513   1.018   0.521  0.0936 -0.3052 -0.5871
 5415SOL    HW221426   2.472   1.015   0.608 -1.6293  0.0665 -1.3400
 5415SOL    HW321427   2.535   0.927   0.502 -0.9284 -0.6148 -0.3779
 5415SOL    MW421428   2.510   1.006   0.530 -0.2685 -0.2970 -0.6588
 5416SOL     OW21429   6.437   2.554   6.199 -0.1013  0.5304  0.0799
 5416SOL    HW221430   6.409   2.539   6.109  1.6928  1.3856 -0.6519
 5416SOL    HW321431   6.461   2.467   6.231  1.5563  0.5077 -1.1046
 5416SOL    MW421432   6.436   2.540   6.192  0.3541  0.6403 -0.1729
 5417SOL     OW21433   3.275   3.398   6.223  0.1003  0.3045  0.0480
 5417SOL    HW221434   3.203   3.445   6.182  1.5553  1.6520 -1.0806
 5417SOL    HW321435   3.236   3.356   6.300 -1.6551  1.8135  0.0342
 5417SOL    MW421436   3.260   3.398   6.228  0.0607  0.6814 -0.1027
 5418SOL     OW21437   2.333   1.265   0.343  0.3541 -0.0935  0.4288
 5418SOL    HW221438   2.364   1.190   0.395 -0.3016  1.1521  2.7867
 5418SOL    HW321439   2.254   1.294   0.390 -0.5326  0.8890 -1.5688
 5418SOL    MW421440   2.326   1.259   0.356  0.1506  0.2005  0.4763
 5419SOL     OW21441   2.892   4.505   1.208  1.1643  0.6369 -0.2632
 5419SOL    HW221442   2.810   4.481   1.252  1.1651  0.8269 -0.1573
 5419SOL    HW321443   2.895   4.600   1.215  1.9483  0.5480  0.7110
 5419SOL    MW421444   2.881   4.514   1.214  1.2678  0.6503 -0.1207
 5420SOL     OW21445   3.563   3.118   4.097 -0.4544 -0.3809  0.1010
 5420SOL    HW221446   3.615   3.123   4.017  0.0372 -0.6463  0.4004
 5420SOL    HW321447   3.585   3.033   4.135 -0.9574 -0.4129  0.3335
 5420SOL    MW421448   3.572   3.107   4.091 -0.4559 -0.4201  0.1712
 5421SOL     OW21449   2.241   2.258   6.263 -0.1317 -0.2140 -0.0412
 5421SOL    HW221450   2.287   2.304   6.192  0.8967 -0.5215  0.3994
 5421SOL    HW321451   2.256   2.312   6.340 -0.9032 -0.0948  0.0318
 5421SOL    MW421452   2.249   2.271   6.264 -0.0978 -0.2389  0.0266
 5422SOL     OW21453   6.258   0.549   2.061 -0.1405  0.2688  0.8310
 5422SOL    HW221454   6.348   0.514   2.058 -0.4440 -0.4579 -1.0951
 5422SOL    HW321455   6.206   0.477   2.097 -0.4078 -0.5127 -1.0161
 5422SOL    MW421456   6.263   0.535   2.066 -0.2159  0.0698  0.3332
 5423SOL     OW21457   0.389   5.014   1.234 -0.2135 -0.3594  0.1832
 5423SOL    HW221458   0.371   5.086   1.173 -0.0870  0.2845  0.8911
 5423SOL    HW321459   0.485   5.009   1.237 -0.2000 -1.7950 -1.2724
 5423SOL    MW421460   0.399   5.023   1.226 -0.1950 -0.4639  0.0846
 5424SOL     OW21461   1.723   5.509   3.804  0.2979  0.5727  0.2723
 5424SOL    HW221462   1.682   5.506   3.891 -0.2207 -1.0459  0.0139
 5424SOL    HW321463   1.760   5.597   3.798 -1.3743  1.4145  1.3377
 5424SOL    MW421464   1.722   5.520   3.815  0.0089  0.4702  0.3788
 5425SOL     OW21465   0.707   2.858   0.641  0.1961 -0.3719 -0.1949
 5425SOL    HW221466   0.676   2.852   0.732 -0.9423  0.1960 -0.5327
 5425SOL    HW321467   0.631   2.836   0.588  0.9157 -0.9173 -1.0285
 5425SOL    MW421468   0.693   2.854   0.646  0.1408 -0.3690 -0.3494
 5426SOL     OW21469   2.441   3.432   4.573  0.0133  0.3718  0.2770
 5426SOL    HW221470   2.509   3.499   4.562 -0.1937  0.4729 -0.4668
 5426SOL    HW321471   2.472   3.359   4.519 -0.4558  0.4194 -0.0660
 5426SOL    MW421472   2.454   3.432   4.564 -0.0759  0.3914  0.1336
 5427SOL     OW21473   5.618   4.931   5.959 -0.2756  0.2163  0.0336
 5427SOL    HW221474   5.682   4.901   5.894 -0.6702  1.3715 -0.9009
 5427SOL    HW321475   5.646   5.020   5.981 -0.1940 -0.1258  1.4072
 5427SOL    MW421476   5.630   4.938   5.953 -0.3169  0.3236  0.0915
 5428SOL     OW21477   3.192   6.153   3.663  0.1151  0.1997  0.1829
 5428SOL    HW221478   3.246   6.075   3.677 -1.2220 -1.2807 -2.2592
 5428SOL    HW321479   3.251   6.226   3.679  1.6328 -1.2822  1.8099
 5428SOL    MW421480   3.207   6.152   3.667  0.1389 -0.1912  0.0754
 5429SOL     OW21481   0.320   5.270   3.979  0.5979 -0.1591 -0.1720
 5429SOL    HW221482   0.232   5.245   4.009  1.0209 -0.0124  1.2680
 5429SOL    HW321483   0.351   5.333   4.045  1.7006 -0.0425 -0.7779
 5429SOL    MW421484   0.312   5.275   3.992  0.7992 -0.1244 -0.0620
 5430SOL     OW21485   0.959   0.649   5.525 -0.5208  0.4011 -0.2378
 5430SOL    HW221486   0.934   0.734   5.489 -0.4909 -0.0458 -1.3774
 5430SOL    HW321487   1.048   0.635   5.493 -1.0686 -0.7220 -1.3971
 5430SOL    MW421488   0.968   0.658   5.516 -0.5891  0.1940 -0.5411
 5431SOL     OW21489   0.629   0.081   2.237 -0.2213  0.6456  0.6407
 5431SOL    HW221490   0.640   0.070   2.332 -0.2488  0.2914  0.6068
 5431SOL    HW321491   0.575   0.006   2.212  1.6267 -0.5557 -0.0064
 5431SOL    MW421492   0.623   0.069   2.247  0.0189  0.4404  0.5509
 5432SOL     OW21493   3.869   3.846   5.483  0.2328 -0.3409  0.4370
 5432SOL    HW221494   3.908   3.780   5.425 -1.5584  1.6561 -3.3979
 5432SOL    HW321495   3.777   3.820   5.491 -0.5483  1.5535 -1.2735
 5432SOL    MW421496   3.862   3.834   5.476 -0.1066  0.1725 -0.2946
 5433SOL     OW21497   3.115   1.965   2.321 -0.2624  0.0642  0.3811
 5433SOL    HW221498   3.073   1.880   2.332  0.0018 -0.1405 -0.1766
 5433SOL    HW321499   3.043   2.028   2.325 -0.5450 -0.2369  0.0933
 5433SOL    MW421500   3.100   1.963   2.323 -0.2648 -0.0025  0.2696
 5434SOL     OW21501   1.962   2.993   0.695  0.0824  0.3003 -0.0776
 5434SOL    HW221502   2.038   3.008   0.751  0.9721  0.1702 -1.2131
 5434SOL    HW321503   1.906   3.070   0.709 -0.6790 -0.6165  2.4337
 5434SOL    MW421504   1.964   3.005   0.705  0.0993  0.1622  0.1039
 5435SOL     OW21505   0.682   1.054   3.427  0.1872 -0.0823 -0.1134
 5435SOL    HW221506   0.713   0.987   3.488 -2.1645  1.3479  2.8807
 5435SOL    HW321507   0.617   1.009   3.373 -0.8853 -0.4702  1.4272
 5435SOL    MW421508   0.678   1.039   3.428 -0.2646  0.0552  0.4849
 5436SOL     OW21509   2.283   4.323   1.569  0.1685 -0.1739  0.2665
 5436SOL    HW221510   2.199   4.367   1.583 -0.2271 -0.8626  0.1140
 5436SOL    HW321511   2.344   4.367   1.628 -0.3358  0.2272  0.4948
 5436SOL    MW421512   2.280   4.334   1.579  0.0498 -0.2118  0.2765
 5437SOL     OW21513   0.831   0.440   0.031 -0.3371 -0.2270 -0.9804
 5437SOL    HW221514   0.900   0.504   0.016  0.5923 -0.5420  1.5314
 5437SOL    HW321515   0.874   0.355   0.020 -0.2417 -0.4257  0.7091
 5437SOL    MW421516   0.846   0.437   0.027 -0.2019 -0.2948 -0.4261
 5438SOL     OW21517   2.862   6.235   5.103 -0.2169 -0.2077  0.9303
 5438SOL    HW221518   2.902   6.238   5.016 -1.4915 -1.2306  0.2702
 5438SOL    HW321519   2.869   6.324   5.136  2.0560 -0.1985  0.6301
 5438SOL    MW421520   2.868   6.247   5.096 -0.0852 -0.3414  0.8036
 5439SOL     OW21521   5.371   2.237   2.911  0.2002  0.1554  0.7833
 5439SOL    HW221522   5.280   2.226   2.937 -0.3937  1.9172 -0.3411
 5439SOL    HW321523   5.381   2.332   2.900  2.3595  0.0578  1.5322
 5439SOL    MW421524   5.360   2.248   2.913  0.4067  0.3749  0.7338
 5440SOL     OW21525   1.199   6.146   5.878 -0.1246  0.1268 -0.1932
 5440SOL    HW221526   1.244   6.115   5.956  2.3655  0.2313 -1.4945
 5440SOL    HW321527   1.206   6.242   5.882  0.1059  0.1297 -0.5858
 5440SOL    MW421528   1.206   6.155   5.888  0.2344  0.1410 -0.4167
 5441SOL     OW21529   5.433   0.056   3.014  0.2745  0.8322  0.0563
 5441SOL    HW221530   5.425   0.110   2.936  1.4210  0.8564 -0.0502
 5441SOL    HW321531   5.421   0.116   3.087  0.4456  1.0281 -0.0786
 5441SOL    MW421532   5.430   0.071   3.013  0.4483  0.8613  0.0244
 5442SOL     OW21533   6.283   0.512   5.141 -0.1825 -0.3654  0.3806
 5442SOL    HW221534   6.191   0.516   5.168  0.0218  0.3937  0.9862
 5442SOL    HW321535   6.320   0.596   5.167  0.6466 -0.5929 -0.0210
 5442SOL    MW421536   6.275   0.523   5.148 -0.0462 -0.2953  0.4075
 5443SOL     OW21537   5.985   0.785   0.248  0.4513  0.2551  0.4583
 5443SOL    HW221538   5.967   0.829   0.165 -3.6850 -0.2827  0.8738
 5443SOL    HW321539   5.971   0.852   0.315  2.1453  0.2599  0.8610
 5443SOL    MW421540   5.981   0.799   0.246  0.1291  0.1848  0.5663
 5444SOL     OW21541   5.617   4.302   0.016  0.1610 -0.0659  0.1489
 5444SOL    HW221542   5.645   4.392  -0.002  1.8782 -0.3504  1.2079
 5444SOL    HW321543   5.572   4.307   0.100 -1.0920  0.0184 -0.5018
 5444SOL    MW421544   5.614   4.315   0.024  0.2223 -0.0923  0.2028
 5445SOL     OW21545   1.833   0.957   1.208  0.6641 -0.0913 -0.0656
 5445SOL    HW221546   1.891   0.885   1.235 -0.5113 -0.4303  1.7683
 5445SOL    HW321547   1.787   0.981   1.289 -0.8412  0.9846 -1.2040
 5445SOL    MW421548   1.835   0.951   1.222  0.3104  0.0060  0.0262
 5446SOL     OW21549   4.588   4.659   3.062  0.1867  0.2715 -0.3607
 5446SOL    HW221550   4.629   4.603   2.996  0.4260  0.2801 -0.2215
 5446SOL    HW321551   4.643   4.737   3.065 -0.2847  0.6208 -0.7257
 5446SOL    MW421552   4.601   4.662   3.054  0.1561  0.3188 -0.3905
 5447SOL     OW21553   4.586   0.738   2.579 -1.0050  0.1049 -0.6901
 5447SOL    HW221554   4.652   0.801   2.552 -0.9515  1.0172  1.3448
 5447SOL    HW321555   4.503   0.775   2.549 -0.7601 -0.2386 -1.8415
 5447SOL    MW421556   4.584   0.751   2.572 -0.9656  0.1800 -0.5735
 5448SOL     OW21557   1.634   4.584   1.696 -0.4899 -0.2034 -0.0067
 5448SOL    HW221558   1.621   4.491   1.679  0.8375 -0.6384  1.2348
 5448SOL    HW321559   1.626   4.593   1.791  3.5464  0.1543  0.4742
 5448SOL    MW421560   1.631   4.573   1.706  0.2178 -0.2136  0.2206
 5449SOL     OW21561   3.342   2.239   1.401 -0.0247 -0.7413  0.1778
 5449SOL    HW221562   3.380   2.312   1.448  0.7476 -1.5019  0.7753
 5449SOL    HW321563   3.369   2.251   1.310 -0.5408  0.1068  0.1274
 5449SOL    MW421564   3.350   2.250   1.395  0.0091 -0.7297  0.2500
 5450SOL     OW21565   2.667   4.300   4.390  0.3206  0.3822  0.5923
 5450SOL    HW221566   2.750   4.314   4.344 -1.0263 -0.8300 -2.5117
 5450SOL    HW321567   2.659   4.205   4.395 -2.2685  0.3109 -2.2445
 5450SOL    MW421568   2.677   4.290   4.384 -0.1987  0.2129 -0.1915
 5451SOL     OW21569   2.583   5.199   6.321 -0.2838  0.0045 -0.1819
 5451SOL    HW221570   2.639   5.276   6.308 -0.1700 -0.1437 -0.5761
 5451SOL    HW321571   2.644   5.129   6.346 -0.1120 -0.4921 -1.8865
 5451SOL    MW421572   2.599   5.200   6.322 -0.2461 -0.0806 -0.4588
 5452SOL     OW21573   0.689   3.925   4.425 -0.1488 -0.4204  0.1086
 5452SOL    HW221574   0.628   3.891   4.359 -0.4726 -0.4131  0.4033
 5452SOL    HW321575   0.700   4.017   4.403 -0.6597 -0.2945  0.3690
 5452SOL    MW421576   0.682   3.932   4.413 -0.2589 -0.4029  0.1818
 5453SOL     OW21577   1.023   1.281   5.405 -0.0547  0.1878 -0.1271
 5453SOL    HW221578   0.993   1.196   5.438 -0.5863 -0.0916 -1.2784
 5453SOL    HW321579   1.056   1.326   5.483  3.9236 -2.5076  0.0811
 5453SOL    MW421580   1.024   1.276   5.420  0.4001 -0.2047 -0.2515
 5454SOL     OW21581   2.633   2.163   2.768  0.0158 -0.2374 -0.3146
 5454SOL    HW221582   2.590   2.138   2.849 -0.9150 -0.9798 -1.0104
 5454SOL    HW321583   2.721   2.125   2.774  0.6876  1.4384  1.1989
 5454SOL    MW421584   2.639   2.155   2.779 -0.0183 -0.1143 -0.2067
 5455SOL     OW21585   5.165   3.256   0.272  0.1692  0.3980 -0.3660
 5455SOL    HW221586   5.193   3.177   0.225  1.6125  1.3142 -1.1123
 5455SOL    HW321587   5.198   3.245   0.361  3.7128  1.6836 -1.3269
 5455SOL    MW421588   5.173   3.244   0.277  0.8272  0.6885 -0.5912
 5456SOL     OW21589   4.299   3.587   0.626  0.7166  0.0992  0.3365
 5456SOL    HW221590   4.336   3.643   0.558  0.9883 -0.6965 -0.1887
 5456SOL    HW321591   4.288   3.644   0.702  0.7593  0.9114 -0.2592
 5456SOL    MW421592   4.302   3.602   0.627  0.7581  0.1014  0.1886
 5457SOL     OW21593   2.870   0.370   3.486  0.1033  0.4967  0.0813
 5457SOL    HW221594   2.945   0.428   3.493 -1.3472  2.3289  1.1420
 5457SOL    HW321595   2.860   0.331   3.573 -1.0833  1.4958  0.4195
 5457SOL    MW421596   2.879   0.372   3.498 -0.2446  0.8702  0.2658
 5458SOL     OW21597   0.699   3.034   1.492 -0.1855 -0.8074  0.1555
 5458SOL    HW221598   0.776   2.979   1.505  0.0856 -0.2270  1.0569
 5458SOL    HW321599   0.709   3.069   1.403  1.4633  0.5835  0.8472
 5458SOL    MW421600   0.710   3.032   1.482  0.0678 -0.5473  0.3657
 5459SOL     OW21601   2.382   5.489   3.088  0.4915 -0.2655  0.2461
 5459SOL    HW221602   2.415   5.449   3.007 -1.8830  0.1513 -1.0311
 5459SOL    HW321603   2.409   5.581   3.081 -0.0787 -0.1315 -0.3232
 5459SOL    MW421604   2.390   5.496   3.076  0.1030 -0.1928  0.0025
 5460SOL     OW21605   5.670   1.699   3.428 -0.3110 -0.2899  0.3991
 5460SOL    HW221606   5.611   1.725   3.499 -0.9319  1.1547 -0.5780
 5460SOL    HW321607   5.704   1.782   3.395  0.7095 -0.9977 -0.3628
 5460SOL    MW421608   5.666   1.714   3.433 -0.2582 -0.1927  0.1696
 5461SOL     OW21609   5.795   6.150   3.571 -0.6635  0.3030 -0.3127
 5461SOL    HW221610   5.718   6.205   3.559 -1.2285 -0.0934  1.1763
 5461SOL    HW321611   5.764   6.078   3.627  0.4548 -0.6277 -0.8414
 5461SOL    MW421612   5.781   6.147   3.577 -0.5905  0.1279 -0.1860
 5462SOL     OW21613   1.935   1.408   2.942 -0.2324  0.0730 -0.4507
 5462SOL    HW221614   1.990   1.333   2.963 -0.3892  0.5587  2.0497
 5462SOL    HW321615   1.904   1.391   2.853  0.6314 -2.2454 -0.3869
 5462SOL    MW421616   1.938   1.396   2.933 -0.1391 -0.1688 -0.1124
 5463SOL     OW21617   0.201   0.142   3.781  0.3281  0.3239 -0.5029
 5463SOL    HW221618   0.272   0.089   3.746  1.0803  0.7117  0.3990
 5463SOL    HW321619   0.178   0.101   3.865 -0.5346  0.1890 -0.7908
 5463SOL    MW421620   0.207   0.130   3.788  0.3135  0.3573 -0.4219
 5464SOL     OW21621   3.901   2.497   3.756  0.6147 -0.0945  0.0996
 5464SOL    HW221622   3.907   2.579   3.805 -0.5051 -0.8372  1.5456
 5464SOL    HW321623   3.830   2.449   3.798  0.0350 -1.0624 -1.8804
 5464SOL    MW421624   3.893   2.502   3.768  0.3905 -0.3202  0.0292
 5465SOL     OW21625   6.401   4.713   6.166  0.3031 -0.4977  0.1269
 5465SOL    HW221626   6.464   4.785   6.157 -1.4533  0.9595 -1.6005
 5465SOL    HW321627   6.394   4.677   6.077 -1.6846 -0.1952  0.1042
 5465SOL    MW421628   6.408   4.718   6.153 -0.1909 -0.2655 -0.1040
 5466SOL     OW21629   5.771   5.037   1.308 -0.4846  0.1816  0.1556
 5466SOL    HW221630   5.747   5.042   1.216  0.1580  1.3423  0.0268
 5466SOL    HW321631   5.833   4.965   1.314 -0.3902  0.2229 -0.3453
 5466SOL    MW421632   5.776   5.028   1.297 -0.3874  0.3402  0.0726
 5467SOL     OW21633   1.291   4.888   0.209 -1.0064 -0.0217 -0.3323
 5467SOL    HW221634   1.214   4.922   0.162 -1.5713  0.2589  0.7739
 5467SOL    HW321635   1.363   4.946   0.181 -0.6910 -1.5084 -2.9523
 5467SOL    MW421636   1.291   4.900   0.199 -1.0393 -0.1808 -0.5320
 5468SOL     OW21637   1.335   2.332   0.402  0.1504 -0.4642 -0.0156
 5468SOL    HW221638   1.256   2.278   0.400  0.2931 -0.7446 -3.1423
 5468SOL    HW321639   1.319   2.401   0.337  2.4510 -0.5815 -0.8020
 5468SOL    MW421640   1.323   2.334   0.393  0.4728 -0.5167 -0.5319
 5469SOL     OW21641   6.221   3.152   0.349 -0.2301  0.4813 -0.2767
 5469SOL    HW221642   6.272   3.084   0.305 -0.3095  0.0841  0.2338
 5469SOL    HW321643   6.201   3.215   0.280 -0.2146 -0.0480 -0.7751
 5469SOL    MW421644   6.225   3.151   0.334 -0.2386  0.3591 -0.2751
 5470SOL     OW21645   6.369   2.241   1.718  0.3197 -0.6052 -0.3994
 5470SOL    HW221646   6.303   2.307   1.739  0.3043 -1.3757  2.3683
 5470SOL    HW321647   6.319   2.163   1.695  0.1966 -1.0653  1.2880
 5470SOL    MW421648   6.354   2.239   1.718  0.3014 -0.7676  0.1884
 5471SOL     OW21649   0.191   3.318   0.641 -0.3050  0.2991  0.0248
 5471SOL    HW221650   0.191   3.305   0.736 -0.3526 -0.3529 -0.0571
 5471SOL    HW321651   0.140   3.244   0.607  0.9786 -0.3202 -0.6155
 5471SOL    MW421652   0.184   3.307   0.649 -0.1419  0.1314 -0.0705
 5472SOL     OW21653   6.095   4.008   3.486  0.5095  0.1950  0.1794
 5472SOL    HW221654   6.169   3.993   3.544  0.6861 -0.1784 -0.1372
 5472SOL    HW321655   6.053   3.922   3.480  0.4409  0.2555 -0.1776
 5472SOL    MW421656   6.099   3.994   3.493  0.5238  0.1537  0.0905
 5473SOL     OW21657   4.354   1.960   4.409 -0.5707 -0.4387 -0.0711
 5473SOL    HW221658   4.382   2.044   4.373 -1.8871  0.4725  0.9794
 5473SOL    HW321659   4.434   1.921   4.445 -0.4994  2.1494  2.9735
 5473SOL    MW421660   4.368   1.966   4.409 -0.7350  0.0230  0.4692
 5474SOL     OW21661   2.938   1.896   0.803  0.0744 -0.7432 -0.0855
 5474SOL    HW221662   2.951   1.875   0.896  0.6166  0.5176  0.1439
 5474SOL    HW321663   2.843   1.897   0.793  0.0049 -2.2083  0.1154
 5474SOL    MW421664   2.927   1.893   0.814  0.1368 -0.7702 -0.0287
 5475SOL     OW21665   0.554   4.547   3.500  0.1278  0.1482 -0.1445
 5475SOL    HW221666   0.561   4.492   3.578  2.1799 -0.9013 -1.0132
 5475SOL    HW321667   0.508   4.492   3.436  0.7064  0.0470 -0.4801
 5475SOL    MW421668   0.549   4.533   3.502  0.4749 -0.0036 -0.3034
 5476SOL     OW21669   1.178   5.657   0.945 -0.1644  0.5706 -0.2741
 5476SOL    HW221670   1.191   5.722   1.014 -1.2502  1.0658 -0.5094
 5476SOL    HW321671   1.109   5.694   0.890 -0.1870 -0.3875 -0.9180
 5476SOL    MW421672   1.171   5.670   0.947 -0.3106  0.5095 -0.3901
 5477SOL     OW21673   4.989   2.310   0.725  0.4255 -0.2285 -0.4501
 5477SOL    HW221674   5.045   2.377   0.764 -1.2108  1.2217 -0.5066
 5477SOL    HW321675   5.043   2.272   0.655  0.6470  2.6774 -2.0111
 5477SOL    MW421676   5.004   2.314   0.721  0.2389  0.3463 -0.6635
 5478SOL     OW21677   4.331   1.956   0.263  0.3772 -0.0786 -0.2666
 5478SOL    HW221678   4.387   2.031   0.245  1.2668 -1.0618 -1.8936
 5478SOL    HW321679   4.266   1.957   0.192 -1.2396  0.5997  1.1558
 5478SOL    MW421680   4.330   1.966   0.251  0.2812 -0.1188 -0.2936
 5479SOL     OW21681   2.228   5.544   1.355 -0.4366 -0.6863 -0.0655
 5479SOL    HW221682   2.237   5.567   1.447  0.6761 -1.0005 -0.0828
 5479SOL    HW321683   2.253   5.452   1.351 -1.3545 -0.9280 -0.5532
 5479SOL    MW421684   2.233   5.535   1.366 -0.4109 -0.7597 -0.1321
 5480SOL     OW21685   2.662   3.441   3.232  0.2734  0.0497  0.2375
 5480SOL    HW221686   2.706   3.457   3.315 -0.6841 -2.3599  1.3317
 5480SOL    HW321687   2.687   3.351   3.209 -1.5872 -0.2901 -0.6673
 5480SOL    MW421688   2.671   3.431   3.240 -0.0984 -0.3131  0.2625
 5481SOL     OW21689   1.358   4.301   4.678  0.2627  0.4462  0.2038
 5481SOL    HW221690   1.379   4.303   4.771  1.6046 -0.2827 -0.0560
 5481SOL    HW321691   1.263   4.310   4.674  0.1926  0.5182  1.6345
 5481SOL    MW421692   1.348   4.303   4.690  0.4305  0.3595  0.3583
 5482SOL     OW21693   3.275   6.226   1.169  0.4484 -0.2414 -0.0112
 5482SOL    HW221694   3.247   6.318   1.158  4.2589  1.0594 -0.0871
 5482SOL    HW321695   3.279   6.214   1.264 -0.3155 -0.4843  0.0028
 5482SOL    MW421696   3.272   6.237   1.180  0.8504 -0.1018 -0.0194
 5483SOL     OW21697   5.454   5.497   3.291 -0.3540  0.2542 -0.5617
 5483SOL    HW221698   5.477   5.522   3.381  2.1260 -0.3623 -0.9454
 5483SOL    HW321699   5.389   5.428   3.301 -0.1291  0.2028  0.7739
 5483SOL    MW421700   5.449   5.492   3.304  0.0029  0.1661 -0.4361
 5484SOL     OW21701   1.281   0.482   5.047 -0.0856  0.3665 -0.0274
 5484SOL    HW221702   1.217   0.467   5.117 -0.3009 -0.4248 -0.3812
 5484SOL    HW321703   1.239   0.545   4.989 -0.2970  0.3166  0.0704
 5484SOL    MW421704   1.267   0.488   5.048 -0.1419  0.2555 -0.0612
 5485SOL     OW21705   0.955   2.259   3.744 -0.0273 -0.3094  0.0817
 5485SOL    HW221706   0.870   2.230   3.710 -0.0882 -0.1874  0.1260
 5485SOL    HW321707   0.935   2.342   3.788  0.1282 -0.2442  0.0282
 5485SOL    MW421708   0.941   2.266   3.745 -0.0148 -0.2847  0.0805
 5486SOL     OW21709   4.057   1.046   1.871 -0.1374  0.3131  0.4913
 5486SOL    HW221710   4.032   1.067   1.781  0.1547 -0.2181  0.2842
 5486SOL    HW321711   4.138   1.095   1.885 -0.0993  0.2721  0.4119
 5486SOL    MW421712   4.065   1.056   1.861 -0.0938  0.2376  0.4535
 5487SOL     OW21713   0.645   4.671   2.665 -0.2755  0.4421  0.0941
 5487SOL    HW221714   0.608   4.667   2.753  1.0407  0.7982  0.6855
 5487SOL    HW321715   0.587   4.616   2.612 -0.8356 -0.1328  1.2708
 5487SOL    MW421716   0.632   4.663   2.670 -0.1758  0.4132  0.3274
 5488SOL     OW21717   3.125   0.374   0.071  0.2491 -0.2110 -0.0321
 5488SOL    HW221718   3.138   0.412  -0.016  1.0237 -0.5537 -0.0761
 5488SOL    HW321719   3.209   0.386   0.115 -0.2468  0.2815  0.8084
 5488SOL    MW421720   3.138   0.381   0.065  0.2859 -0.1912  0.0730
 5489SOL     OW21721   4.872   0.945   6.223 -0.2437  0.2190  0.7355
 5489SOL    HW221722   4.850   0.858   6.257  0.6845 -0.1272  0.4767
 5489SOL    HW321723   4.967   0.950   6.227 -0.0320  0.0828 -1.9470
 5489SOL    MW421724   4.882   0.934   6.228 -0.0933  0.1553  0.3474
 5490SOL     OW21725   2.485   2.957   0.891 -0.1724  0.2980 -0.1895
 5490SOL    HW221726   2.505   3.050   0.884 -1.7118  0.7427  0.8004
 5490SOL    HW321727   2.411   2.944   0.831 -0.0121 -0.2692 -0.2702
 5490SOL    MW421728   2.478   2.968   0.882 -0.3544  0.2818 -0.0696
 5491SOL     OW21729   5.372   0.940   3.658 -0.0146  0.4268  0.4298
 5491SOL    HW221730   5.438   0.890   3.705  1.0771  1.9862  0.6544
 5491SOL    HW321731   5.356   1.017   3.713 -0.7084  0.9502 -0.4669
 5491SOL    MW421732   5.378   0.944   3.671  0.0379  0.7016  0.3411
 5492SOL     OW21733   1.810   5.883   3.206  0.3900 -0.0274  0.1091
 5492SOL    HW221734   1.888   5.837   3.173  1.3773  1.9448 -0.4556
 5492SOL    HW321735   1.820   5.973   3.175 -2.0739  0.3262  0.1456
 5492SOL    MW421736   1.822   5.889   3.198  0.1952  0.2794  0.0394
 5493SOL     OW21737   6.284   0.811   1.381 -0.0512 -0.2014  0.1403
 5493SOL    HW221738   6.238   0.889   1.352 -0.2419  0.0542  1.0696
 5493SOL    HW321739   6.348   0.793   1.313 -1.0424 -0.1422 -0.8242
 5493SOL    MW421740   6.286   0.819   1.368 -0.2072 -0.1598  0.1356
 5494SOL     OW21741   6.030   5.971   2.327  0.2743 -0.4893 -0.2049
 5494SOL    HW221742   6.082   5.981   2.407  0.0884 -0.9305 -0.0198
 5494SOL    HW321743   6.078   6.019   2.260 -1.1855  2.6867  0.8452
 5494SOL    MW421744   6.043   5.978   2.329  0.0572 -0.1285 -0.0419
 5495SOL     OW21745   5.512   0.171   0.706  0.5966  0.3193  0.4274
 5495SOL    HW221746   5.459   0.146   0.782 -2.5278  3.0453 -0.6115
 5495SOL    HW321747   5.488   0.107   0.638  1.3022 -0.4732  0.9043
 5495SOL    MW421748   5.502   0.159   0.707  0.2775  0.5744  0.3532
 5496SOL     OW21749   6.438   3.688   5.115  0.3930  0.0978 -0.0302
 5496SOL    HW221750   6.354   3.703   5.073 -1.1320 -2.7505  1.6957
 5496SOL    HW321751   6.432   3.733   5.200  0.4704 -0.3597  0.2233
 5496SOL    MW421752   6.426   3.696   5.121  0.2020 -0.3384  0.2310
 5497SOL     OW21753   1.229   0.111   1.908 -0.3751 -0.2536  0.2557
 5497SOL    HW221754   1.162   0.179   1.920 -2.0762 -1.8883  0.5797
 5497SOL    HW321755   1.235   0.101   1.813 -0.8849 -0.3318  0.2246
 5497SOL    MW421756   1.221   0.119   1.897 -0.6668 -0.4796  0.2944
 5498SOL     OW21757   4.421   2.113   1.311 -0.5160  0.0334  0.4910
 5498SOL    HW221758   4.443   2.126   1.219 -0.8267  1.6180  0.6185
 5498SOL    HW321759   4.342   2.058   1.308 -0.2995 -0.2620 -0.1546
 5498SOL    MW421760   4.413   2.107   1.298 -0.5284  0.2035  0.4226
 5499SOL     OW21761   6.383   2.454   4.259 -0.2245  0.1079  0.5657
 5499SOL    HW221762   6.314   2.490   4.315  0.3294 -0.9575  2.0266
 5499SOL    HW321763   6.378   2.359   4.275  1.3106 -0.0169  0.4157
 5499SOL    MW421764   6.373   2.446   4.269  0.0511 -0.0491  0.7386
 5500SOL     OW21765   3.125   3.321   5.843  0.1055 -0.4402  0.1280
 5500SOL    HW221766   3.066   3.246   5.833 -0.2496  0.0331 -1.9909
 5500SOL    HW321767   3.199   3.301   5.786  0.5208  0.3461  0.3792
 5500SOL    MW421768   3.127   3.309   5.834  0.1135 -0.2740 -0.1184
 5501SOL     OW21769   1.264   4.867   2.180 -0.7775  0.1637 -0.0461
 5501SOL    HW221770   1.321   4.938   2.207 -0.2239 -0.0762 -0.5716
 5501SOL    HW321771   1.237   4.825   2.262  0.2668 -0.0835  0.1857
 5501SOL    MW421772   1.268   4.871   2.194 -0.5667  0.0994 -0.0849
 5502SOL     OW21773   4.458   3.641   6.008 -0.0675  0.0716 -0.5044
 5502SOL    HW221774   4.430   3.714   6.064  1.5516  2.2065 -2.2933
 5502SOL    HW321775   4.377   3.609   5.968 -1.1441 -0.8956  2.1892
 5502SOL    MW421776   4.443   3.646   6.010  0.0040  0.2257 -0.3851
 5503SOL     OW21777   4.169   2.479   5.170  0.1621 -0.1575 -0.3445
 5503SOL    HW221778   4.166   2.383   5.171 -1.4555 -0.1721 -1.6606
 5503SOL    HW321779   4.097   2.506   5.227  1.4316  0.3499  1.1118
 5503SOL    MW421780   4.159   2.470   5.178  0.1162 -0.0925 -0.3260
 5504SOL     OW21781   4.867   5.455   6.083  0.3264  0.1601  0.5967
 5504SOL    HW221782   4.778   5.422   6.094 -0.5332  1.8057 -0.9352
 5504SOL    HW321783   4.919   5.406   6.147 -1.9237  0.1993  2.5633
 5504SOL    MW421784   4.862   5.444   6.093 -0.0839  0.3824  0.6541
 5505SOL     OW21785   3.644   4.318   1.254  0.1233  0.5381  0.0963
 5505SOL    HW221786   3.602   4.305   1.339  1.5840  1.0647  0.9397
 5505SOL    HW321787   3.636   4.233   1.210 -0.4779  0.1975  0.8334
 5505SOL    MW421788   3.637   4.305   1.260  0.2367  0.5626  0.3048
 5506SOL     OW21789   0.527   1.468   3.402  0.2018  1.0516 -0.4777
 5506SOL    HW221790   0.563   1.554   3.424 -1.6341  2.3443 -2.2040
 5506SOL    HW321791   0.591   1.429   3.343  0.9121  1.3373  0.0860
 5506SOL    MW421792   0.540   1.474   3.397  0.0533  1.2598 -0.6311
 5507SOL     OW21793   2.028   0.200   1.621  0.3844 -0.8526  0.2130
 5507SOL    HW221794   1.950   0.188   1.675  0.4832 -2.6506  0.0162
 5507SOL    HW321795   2.026   0.127   1.559  2.6763 -1.5056  0.7945
 5507SOL    MW421796   2.018   0.189   1.620  0.6998 -1.1760  0.2638
 5508SOL     OW21797   5.673   6.418   1.429 -0.1596 -0.5854  0.3693
 5508SOL    HW221798   5.642   6.435   1.340  1.9246 -0.2165 -0.3503
 5508SOL    HW321799   5.618   6.346   1.460  0.7715 -2.6114 -2.2672
 5508SOL    MW421800   5.662   6.411   1.422  0.2382 -0.8040 -0.0735
 5509SOL     OW21801   4.431   4.975   4.391 -0.0294 -0.0351  0.1874
 5509SOL    HW221802   4.436   4.882   4.368  0.1461  0.1346 -0.4997
 5509SOL    HW321803   4.514   5.012   4.359 -1.4846  1.0092 -2.7744
 5509SOL    MW421804   4.443   4.967   4.383 -0.1982  0.1251 -0.2941
 5510SOL     OW21805   4.890   4.838   0.695 -0.0818  0.3132 -0.4859
 5510SOL    HW221806   4.859   4.827   0.786 -1.2371  2.3718 -0.5637
 5510SOL    HW321807   4.811   4.827   0.642  0.5489 -0.6464 -1.2578
 5510SOL    MW421808   4.875   4.835   0.700 -0.1510  0.4582 -0.5980
 5511SOL     OW21809   5.398   2.445   1.840  0.0969 -0.5678 -0.1145
 5511SOL    HW221810   5.305   2.423   1.839 -0.1635  0.4878 -0.8542
 5511SOL    HW321811   5.416   2.469   1.930 -0.7122  0.6148 -0.2434
 5511SOL    MW421812   5.388   2.446   1.851 -0.0442 -0.2725 -0.2291
 5512SOL     OW21813   2.547   5.355   3.315 -0.0254 -0.4637  0.1193
 5512SOL    HW221814   2.505   5.409   3.248  0.3555  0.2057  0.4190
 5512SOL    HW321815   2.635   5.390   3.324  0.3475 -1.3543  0.0784
 5512SOL    MW421816   2.553   5.366   3.307  0.0740 -0.4929  0.1535
 5513SOL     OW21817   3.041   4.621   3.285 -0.4974 -0.1862  0.4544
 5513SOL    HW221818   3.100   4.680   3.237 -1.9634  0.4719 -0.6338
 5513SOL    HW321819   3.083   4.535   3.277  0.7461  0.3866  0.4710
 5513SOL    MW421820   3.055   4.617   3.277 -0.5268 -0.0238  0.3130
 5514SOL     OW21821   1.133   3.579   3.355  0.6259 -0.3955  0.2746
 5514SOL    HW221822   1.110   3.659   3.403  1.9599  1.1074 -1.4382
 5514SOL    HW321823   1.225   3.564   3.377  0.2391 -1.8497  1.0210
 5514SOL    MW421824   1.142   3.588   3.364  0.7508 -0.3891  0.1471
 5515SOL     OW21825   4.478   4.699   1.047  0.0695 -0.0029  0.0158
 5515SOL    HW221826   4.384   4.717   1.034  0.7257  2.1090 -2.6559
 5515SOL    HW321827   4.515   4.785   1.067  1.6349 -0.5833 -0.3201
 5515SOL    MW421828   4.470   4.713   1.048  0.3626  0.1992 -0.3810
 5516SOL     OW21829   5.934   1.031   2.769 -0.3400  0.2568 -0.1572
 5516SOL    HW221830   6.000   1.042   2.700 -0.0287 -0.6665 -0.0218
 5516SOL    HW321831   5.860   0.989   2.726 -0.2499 -0.0767  0.0081
 5516SOL    MW421832   5.933   1.027   2.755 -0.2871  0.0910 -0.1175
 5517SOL     OW21833   4.752   5.502   1.885  0.3549  0.6830  0.2974
 5517SOL    HW221834   4.691   5.485   1.813  1.1301  1.1346 -0.4913
 5517SOL    HW321835   4.705   5.564   1.942  0.3627  1.6655 -0.7256
 5517SOL    MW421836   4.738   5.508   1.883  0.4582  0.8722  0.0584
 5518SOL     OW21837   3.885   4.922   6.262  0.1602 -0.2916 -0.5354
 5518SOL    HW221838   3.864   4.844   6.211 -2.5426  0.4663 -0.7244
 5518SOL    HW321839   3.845   4.907   6.347 -1.2156  1.1874 -0.8615
 5518SOL    MW421840   3.877   4.910   6.266 -0.3779  0.0036 -0.6034
 5519SOL     OW21841   2.088   5.476   3.370  0.7932 -0.0376 -0.3966
 5519SOL    HW221842   2.141   5.420   3.313  1.2747 -1.1863  1.1246
 5519SOL    HW321843   2.130   5.562   3.364  0.7746 -0.1029 -1.8223
 5519SOL    MW421844   2.101   5.480   3.362  0.8543 -0.1978 -0.3840
 5520SOL     OW21845   2.529   4.214   2.430 -0.1356 -0.1670 -0.2461
 5520SOL    HW221846   2.566   4.229   2.517 -1.4090 -1.0069  0.4779
 5520SOL    HW321847   2.466   4.143   2.443 -1.3162  0.5764 -1.5930
 5520SOL    MW421848   2.526   4.206   2.443 -0.4593 -0.1797 -0.3283
 5521SOL     OW21849   5.007   2.572   2.586 -0.4950  0.5638 -0.2965
 5521SOL    HW221850   4.971   2.610   2.666  1.3693  2.5755 -0.3172
 5521SOL    HW321851   5.040   2.486   2.612 -0.4909  0.9376  0.9556
 5521SOL    MW421852   5.007   2.565   2.600 -0.2485  0.8785 -0.1341
 5522SOL     OW21853   4.781   5.628   2.248 -0.0646  0.6537 -0.0007
 5522SOL    HW221854   4.740   5.662   2.328  0.6101  2.7726 -0.4888
 5522SOL    HW321855   4.864   5.675   2.243 -0.0344  0.4493 -1.8769
 5522SOL    MW421856   4.786   5.639   2.258  0.0284  0.9063 -0.3126
 5523SOL     OW21857   4.701   6.085   3.560 -0.1368 -0.6790 -0.8548
 5523SOL    HW221858   4.721   6.147   3.630 -2.1729 -3.0682  2.0899
 5523SOL    HW321859   4.711   6.136   3.479  1.4240  2.4954  1.1440
 5523SOL    MW421860   4.705   6.100   3.558 -0.1995 -0.5754 -0.2026
 5524SOL     OW21861   4.170   3.953   3.393  0.4910 -0.4392 -0.0237
 5524SOL    HW221862   4.252   4.002   3.392  0.5467 -0.5287  0.0980
 5524SOL    HW321863   4.146   3.949   3.486  0.9046 -1.3423  0.0574
 5524SOL    MW421864   4.178   3.959   3.405  0.5529 -0.5702  0.0031
 5525SOL     OW21865   3.073   0.319   2.544  0.2244 -0.5451  0.2155
 5525SOL    HW221866   3.104   0.229   2.549  1.6158 -0.0312  2.0598
 5525SOL    HW321867   2.979   0.313   2.556 -0.0252 -1.8653 -1.7881
 5525SOL    MW421868   3.065   0.306   2.546  0.3751 -0.6515  0.1945
 5526SOL     OW21869   0.506   0.715   5.031  0.2683 -0.4093 -0.5830
 5526SOL    HW221870   0.419   0.678   5.046  0.5798 -1.0073 -0.1978
 5526SOL    HW321871   0.496   0.772   4.955 -0.6878  0.3427  0.0943
 5526SOL    MW421872   0.494   0.717   5.023  0.1833 -0.3890 -0.4428
 5527SOL     OW21873   5.084   5.076   1.100  0.0838 -0.0255  0.3687
 5527SOL    HW221874   5.127   5.141   1.155  0.6366 -0.3399  0.3246
 5527SOL    HW321875   5.146   5.061   1.028 -0.3170 -0.1359  0.0426
 5527SOL    MW421876   5.098   5.082   1.098  0.1038 -0.0815  0.3198
 5528SOL     OW21877   2.379   4.294   6.373 -0.8636  0.0127 -0.4477
 5528SOL    HW221878   2.300   4.322   6.420 -1.1478 -0.8790 -0.3649
 5528SOL    HW321879   2.367   4.327   6.284 -2.2102 -1.5942 -0.9312
 5528SOL    MW421880   2.367   4.302   6.368 -1.0787 -0.3170 -0.5005
 5529SOL     OW21881   5.107   2.431   1.535 -0.0356 -0.5392  0.3032
 5529SOL    HW221882   5.174   2.376   1.494 -0.6519 -0.0809 -1.3917
 5529SOL    HW321883   5.038   2.370   1.560 -0.2533 -0.6735 -0.6070
 5529SOL    MW421884   5.107   2.416   1.533 -0.1456 -0.4965 -0.0405
 5530SOL     OW21885   1.628   2.883   2.524 -0.0486 -0.3359  0.2656
 5530SOL    HW221886   1.676   2.939   2.584  0.1846 -0.6435  0.3715
 5530SOL    HW321887   1.581   2.822   2.581  0.2294 -0.6752  0.1401
 5530SOL    MW421888   1.628   2.882   2.540  0.0188 -0.4213  0.2630
 5531SOL     OW21889   3.980   5.775   1.767  0.1954  0.0103 -0.2731
 5531SOL    HW221890   3.988   5.836   1.694  0.2812  0.0731 -0.2113
 5531SOL    HW321891   3.945   5.827   1.839 -0.2745 -0.1441 -0.3869
 5531SOL    MW421892   3.976   5.790   1.767  0.1447 -0.0018 -0.2799
 5532SOL     OW21893   3.536   1.447   6.316 -0.3920 -0.4665  0.1578
 5532SOL    HW221894   3.578   1.362   6.307 -0.2488 -0.5114  1.1126
 5532SOL    HW321895   3.458   1.430   6.369 -1.2837 -0.2771 -1.0487
 5532SOL    MW421896   3.531   1.434   6.322 -0.4907 -0.4474  0.1246
 5533SOL     OW21897   1.133   3.981   3.931  0.1653  0.5838  0.4403
 5533SOL    HW221898   1.210   3.999   3.985  0.2476  0.8807  0.2221
 5533SOL    HW321899   1.085   4.064   3.929 -1.9993 -0.3908  3.4596
 5533SOL    MW421900   1.137   3.994   3.938 -0.1095  0.4944  0.8099
 5534SOL     OW21901   3.446   0.630   6.331 -0.1248  0.0357  0.2389
 5534SOL    HW221902   3.532   0.669   6.319  0.8035 -2.2661 -1.1451
 5534SOL    HW321903   3.404   0.638   6.246 -1.1972  0.8139  0.8059
 5534SOL    MW421904   3.452   0.636   6.319 -0.1438 -0.1653  0.1311
 5535SOL     OW21905   3.693   2.731   3.460  0.0174 -0.1382  0.3191
 5535SOL    HW221906   3.778   2.774   3.464 -0.6583  1.2156  0.5383
 5535SOL    HW321907   3.645   2.766   3.535 -0.2697 -1.9656  1.0561
 5535SOL    MW421908   3.698   2.741   3.471 -0.1096 -0.2007  0.4453
 5536SOL     OW21909   4.063   5.964   4.444 -0.4364  0.0389  0.0972
 5536SOL    HW221910   4.126   5.905   4.487 -0.8890 -2.1264 -1.9965
 5536SOL    HW321911   4.115   6.008   4.377 -0.7193 -0.2521 -0.3147
 5536SOL    MW421912   4.078   5.962   4.441 -0.5334 -0.2852 -0.2334
 5537SOL     OW21913   1.098   0.403   5.246 -0.1316 -0.4257  0.2346
 5537SOL    HW221914   1.074   0.371   5.333 -2.1932 -0.8435 -0.4314
 5537SOL    HW321915   1.075   0.331   5.187  0.8726  0.0001 -0.7143
 5537SOL    MW421916   1.092   0.389   5.250 -0.2711 -0.4246  0.0215
 5538SOL     OW21917   0.078   0.917   3.497  0.5304 -0.1766 -0.4940
 5538SOL    HW221918   0.077   0.879   3.585 -1.2117 -0.4826 -0.6145
 5538SOL    HW321919   0.128   0.998   3.506  1.3307 -0.7593  0.5237
 5538SOL    MW421920   0.085   0.922   3.510  0.4061 -0.2938 -0.3756
 5539SOL     OW21921   0.212   4.859   2.890  0.2071  0.4326  0.2282
 5539SOL    HW221922   0.267   4.837   2.965 -0.8813 -0.2346  0.8574
 5539SOL    HW321923   0.139   4.799   2.895 -0.5961  1.2975 -0.5894
 5539SOL    MW421924   0.210   4.848   2.900 -0.0424  0.4587  0.2033
 5540SOL     OW21925   0.661   0.254   5.157 -0.0633  0.0705  0.1358
 5540SOL    HW221926   0.653   0.348   5.141 -0.3040  0.1060  0.4438
 5540SOL    HW321927   0.697   0.219   5.076  0.4024  0.4831  0.1585
 5540SOL    MW421928   0.665   0.262   5.144 -0.0336  0.1296  0.1794
 5541SOL     OW21929   1.314   0.136   4.398  0.2312 -0.3312 -0.3041
 5541SOL    HW221930   1.241   0.194   4.421  0.8006 -0.1790  1.2112
 5541SOL    HW321931   1.392   0.187   4.420  0.7480 -1.4927  0.5989
 5541SOL    MW421932   1.315   0.151   4.404  0.3745 -0.4644  0.0150
 5542SOL     OW21933   3.775   3.987   0.841 -0.0065  0.4167 -0.2600
 5542SOL    HW221934   3.749   4.056   0.902  0.3368 -1.9626  2.8652
 5542SOL    HW321935   3.693   3.942   0.819  0.1749 -0.5758  0.9861
 5542SOL    MW421936   3.760   3.990   0.846  0.0627 -0.0281  0.3168
 5543SOL     OW21937   4.944   5.462   1.217 -0.2793 -0.3854  0.0752
 5543SOL    HW221938   4.895   5.543   1.229 -0.3170 -0.3768 -0.1445
 5543SOL    HW321939   4.884   5.403   1.172  0.6489  0.3727 -2.2978
 5543SOL    MW421940   4.930   5.465   1.213 -0.1618 -0.2842 -0.2669
 5544SOL     OW21941   4.272   1.683   5.096 -0.2608  0.2406  0.1684
 5544SOL    HW221942   4.329   1.629   5.150  0.1883  0.8365  0.3044
 5544SOL    HW321943   4.295   1.773   5.120  0.1342  0.5247 -1.1895
 5544SOL    MW421944   4.283   1.688   5.106 -0.1495  0.3567  0.0072
 5545SOL     OW21945   2.301   2.545   2.209  0.4875 -0.4687 -0.3714
 5545SOL    HW221946   2.374   2.584   2.162  1.0188 -0.7699  0.1921
 5545SOL    HW321947   2.306   2.452   2.187  1.6544 -0.8805  1.4228
 5545SOL    MW421948   2.311   2.538   2.200  0.7116 -0.5628 -0.0603
 5546SOL     OW21949   0.316   3.731   4.535  0.0659 -0.2757 -0.1724
 5546SOL    HW221950   0.375   3.802   4.509 -1.2170  0.5577 -0.9099
 5546SOL    HW321951   0.294   3.688   4.453  0.2678 -1.0889  0.1933
 5546SOL    MW421952   0.321   3.735   4.521 -0.0767 -0.2730 -0.2215
 5547SOL     OW21953   4.919   2.144   3.323  0.6146  0.1591  0.3040
 5547SOL    HW221954   4.941   2.057   3.357  0.0983 -0.0710  0.0469
 5547SOL    HW321955   4.948   2.204   3.392 -1.9200 -0.3737  1.9742
 5547SOL    MW421956   4.926   2.140   3.337  0.2121  0.0585  0.4904
 5548SOL     OW21957   3.411   2.298   3.906  0.2636  0.2890 -0.0338
 5548SOL    HW221958   3.361   2.327   3.983  0.2098 -2.6431  1.1728
 5548SOL    HW321959   3.349   2.247   3.855  1.1683 -0.6703 -0.2120
 5548SOL    MW421960   3.396   2.295   3.909  0.3759 -0.2244  0.1019
 5549SOL     OW21961   0.051   4.686   5.485 -0.1454 -0.2795 -0.1227
 5549SOL    HW221962   0.134   4.725   5.512 -1.1998  1.7810  0.3198
 5549SOL    HW321963   0.011   4.751   5.428 -2.8780  0.2374  2.1768
 5549SOL    MW421964   0.057   4.699   5.481 -0.6451  0.0606  0.2391
 5550SOL     OW21965   4.485   3.570   6.331  0.0053 -0.0523 -0.0531
 5550SOL    HW221966   4.488   3.557   6.236 -0.0374 -1.1247  0.0749
 5550SOL    HW321967   4.518   3.659   6.344 -1.3691  0.6664 -1.1756
 5550SOL    MW421968   4.490   3.580   6.320 -0.1816 -0.0989 -0.1843
 5551SOL     OW21969   3.599   0.472   5.803  0.3971 -0.0372 -0.0539
 5551SOL    HW221970   3.639   0.400   5.756 -0.7611 -0.3597 -0.5733
 5551SOL    HW321971   3.540   0.430   5.866 -0.8833  0.4314 -0.8929
 5551SOL    MW421972   3.597   0.457   5.805  0.0754 -0.0179 -0.2331
 5552SOL     OW21973   3.853   2.562   1.813  0.0628  0.0186  0.1443
 5552SOL    HW221974   3.806   2.621   1.872 -0.7346 -0.6372  0.1848
 5552SOL    HW321975   3.785   2.521   1.761  0.7159  0.1450 -0.8430
 5552SOL    MW421976   3.838   2.565   1.814  0.0437 -0.0512  0.0194
 5553SOL     OW21977   3.081   2.061   5.488 -0.1337 -0.1736 -0.1657
 5553SOL    HW221978   3.089   1.991   5.552 -2.0830 -1.7336 -1.5392
 5553SOL    HW321979   3.134   2.132   5.525  1.4147 -2.0972  1.5801
 5553SOL    MW421980   3.089   2.061   5.502 -0.1866 -0.6332 -0.1166
 5554SOL     OW21981   1.138   1.706   5.675  0.2448 -0.2367 -0.0360
 5554SOL    HW221982   1.143   1.616   5.708 -3.2738 -0.9233 -0.9450
 5554SOL    HW321983   1.164   1.699   5.583  2.1666  0.1712  0.4353
 5554SOL    MW421984   1.142   1.693   5.667  0.0341 -0.2734 -0.0938
 5555SOL     OW21985   3.766   2.354   3.280  0.0253  0.3833 -0.5267
 5555SOL    HW221986   3.674   2.372   3.259  0.1803  1.5398 -0.2690
 5555SOL    HW321987   3.796   2.432   3.326  0.7691 -0.5378  0.6107
 5555SOL    MW421988   3.757   2.366   3.283  0.1439  0.4143 -0.3426
 5556SOL     OW21989   3.547   4.022   2.024  0.5506  0.1402 -0.3869
 5556SOL    HW221990   3.614   3.964   1.989  0.2200 -1.5256  1.5622
 5556SOL    HW321991   3.593   4.077   2.087  0.0597 -1.4864  1.4839
 5556SOL    MW421992   3.562   4.022   2.027  0.4422 -0.2942  0.1171
 5557SOL     OW21993   4.780   2.077   0.147  0.2010 -0.2211 -0.0109
 5557SOL    HW221994   4.814   2.064   0.058 -1.0188  1.2469 -0.7316
 5557SOL    HW321995   4.778   1.989   0.185  1.7013 -0.7511 -1.0547
 5557SOL    MW421996   4.784   2.063   0.140  0.2380 -0.0974 -0.2437
 5558SOL     OW21997   4.507   4.221   0.373  0.0044 -0.2240 -0.3556
 5558SOL    HW221998   4.574   4.285   0.399  1.1281 -1.2102 -0.7103
 5558SOL    HW321999   4.443   4.271   0.324  0.1362  0.8742  0.5659
 5558SOL    MW422000   4.508   4.236   0.370  0.1701 -0.2092 -0.2808
 5559SOL     OW22001   5.014   5.499   1.666 -0.2423 -0.2898 -0.3591
 5559SOL    HW222002   5.051   5.575   1.621  1.4380 -1.2037 -0.6209
 5559SOL    HW322003   5.008   5.525   1.757  0.2324  0.1923 -0.4633
 5559SOL    MW422004   5.018   5.512   1.672  0.0420 -0.3467 -0.4074
 5560SOL     OW22005   3.973   0.985   0.239 -0.3887  0.3620 -0.9657
 5560SOL    HW222006   4.005   1.067   0.202  0.1331  0.9366  0.7127
 5560SOL    HW322007   3.905   0.957   0.177 -0.7585  2.1633 -1.4449
 5560SOL    MW422008   3.968   0.992   0.226 -0.3686  0.6755 -0.8075
 5561SOL     OW22009   0.705   2.324   2.428  0.1834  0.2318 -0.1673
 5561SOL    HW222010   0.734   2.243   2.388 -1.2928 -0.8662  0.8609
 5561SOL    HW322011   0.641   2.360   2.367 -0.4417 -0.3092  0.1472
 5561SOL    MW422012   0.700   2.318   2.415 -0.0938  0.0156  0.0099
 5562SOL     OW22013   4.460   4.670   4.267  0.3805 -0.3048 -0.0218
 5562SOL    HW222014   4.478   4.720   4.187 -0.0421 -0.7630 -0.4137
 5562SOL    HW322015   4.364   4.668   4.273  0.4043 -0.5881  0.2959
 5562SOL    MW422016   4.449   4.676   4.257  0.3279 -0.4026 -0.0316
 5563SOL     OW22017   5.978   5.993   4.082 -0.3311  0.5237  0.1120
 5563SOL    HW222018   6.070   6.014   4.096 -0.6120  1.5655  0.4928
 5563SOL    HW322019   5.976   5.898   4.076  0.8143  0.5050 -0.2791
 5563SOL    MW422020   5.990   5.983   4.083 -0.2170  0.6587  0.1106
 5564SOL     OW22021   1.235   0.469   3.889  0.2849 -0.1932  0.3898
 5564SOL    HW222022   1.172   0.427   3.948  0.1298  1.0684  1.1538
 5564SOL    HW322023   1.189   0.474   3.805 -0.5036  0.3815  0.8449
 5564SOL    MW422024   1.221   0.464   3.885  0.1604  0.0491  0.5507
 5565SOL     OW22025   0.624   4.077   4.064  0.1594 -0.0234 -0.5511
 5565SOL    HW222026   0.543   4.123   4.042 -1.4165 -2.1442  0.3927
 5565SOL    HW322027   0.685   4.145   4.089 -1.2936  1.6682 -1.3789
 5565SOL    MW422028   0.621   4.092   4.064 -0.2402 -0.0800 -0.5358
 5566SOL     OW22029   6.166   4.497   3.868  0.4053 -0.0264 -0.1439
 5566SOL    HW222030   6.181   4.452   3.785  0.2669 -0.5128  0.0882
 5566SOL    HW322031   6.247   4.485   3.917  0.5343  0.3720 -0.2599
 5566SOL    MW422032   6.179   4.489   3.863  0.4041 -0.0380 -0.1286
 5567SOL     OW22033   3.054   6.243   3.226  0.3087  0.3075 -0.2523
 5567SOL    HW222034   2.995   6.294   3.281 -0.2005 -0.9950  0.4583
 5567SOL    HW322035   3.131   6.299   3.214 -0.0774  1.0880  0.7804
 5567SOL    MW422036   3.057   6.257   3.232  0.1906  0.2387 -0.0223
 5568SOL     OW22037   2.152   0.583   5.780  0.1282 -0.4183 -0.5950
 5568SOL    HW222038   2.075   0.552   5.828  0.1339 -0.0776 -0.3627
 5568SOL    HW322039   2.226   0.542   5.825  0.1808  0.4499  0.1301
 5568SOL    MW422040   2.151   0.574   5.793  0.1359 -0.2588 -0.4687
 5569SOL     OW22041   3.016   4.169   0.370 -0.4927 -0.3440  0.0983
 5569SOL    HW222042   3.031   4.246   0.314 -2.2884  0.3403  0.4751
 5569SOL    HW322043   2.959   4.112   0.318 -0.0660 -0.9098  0.2470
 5569SOL    MW422044   3.010   4.172   0.356 -0.6734 -0.3283  0.1676
 5570SOL     OW22045   4.530   2.153   1.947 -0.1505  0.4857  0.0602
 5570SOL    HW222046   4.440   2.176   1.923 -0.3019 -0.5610 -0.4297
 5570SOL    HW322047   4.547   2.071   1.900  1.0425  0.6429  0.1915
 5570SOL    MW422048   4.520   2.145   1.937 -0.0131  0.3683  0.0129
 5571SOL     OW22049   0.664   0.596   1.578 -0.1582 -0.0497 -0.2842
 5571SOL    HW222050   0.742   0.607   1.632  0.3316  0.5528 -1.0865
 5571SOL    HW322051   0.610   0.673   1.598 -0.9219 -0.8539  0.8473
 5571SOL    MW422052   0.667   0.608   1.588 -0.1943 -0.0763 -0.2408
 5572SOL     OW22053   4.149   3.333   4.071  0.1736 -0.3595 -0.1016
 5572SOL    HW222054   4.109   3.263   4.122 -0.8540 -0.0516 -0.4558
 5572SOL    HW322055   4.213   3.289   4.015  1.6405 -0.6478  1.7252
 5572SOL    MW422056   4.152   3.318   4.070  0.2315 -0.3569  0.0927
 5573SOL     OW22057   0.083   1.263   5.548  0.0945 -0.3052  0.3316
 5573SOL    HW222058   0.149   1.217   5.496  0.5777  1.9338 -1.1655
 5573SOL    HW322059   0.132   1.303   5.619 -0.2435 -1.5246  1.2963
 5573SOL    MW422060   0.098   1.262   5.550  0.1137 -0.1707  0.2613
 5574SOL     OW22061   2.814   0.147   0.040  0.2604 -0.1846  0.6237
 5574SOL    HW222062   2.910   0.141   0.048  0.4181  1.7327  0.6528
 5574SOL    HW322063   2.789   0.067  -0.007  1.9032 -0.5817  0.3444
 5574SOL    MW422064   2.823   0.135   0.035  0.4980  0.0160  0.5907
 5575SOL     OW22065   2.073   4.764   2.466 -0.3704  0.4618 -0.1816
 5575SOL    HW222066   2.068   4.673   2.436 -0.8948  0.8386 -1.3089
 5575SOL    HW322067   2.107   4.812   2.390 -0.6551  1.2896  0.2026
 5575SOL    MW422068   2.077   4.758   2.452 -0.4771  0.6207 -0.2797
 5576SOL     OW22069   3.658   0.158   3.913  0.5820  0.6146  0.0343
 5576SOL    HW222070   3.603   0.235   3.930  1.0485  1.6471 -2.6546
 5576SOL    HW322071   3.748   0.189   3.926  0.7102 -0.3796  1.9102
 5576SOL    MW422072   3.663   0.172   3.917  0.6605  0.6197 -0.0730
 5577SOL     OW22073   4.134   6.414   5.496  0.0709  0.2516 -0.0264
 5577SOL    HW222074   4.183   6.412   5.414  0.0772  1.0607 -0.0511
 5577SOL    HW322075   4.115   6.507   5.511 -1.3307 -0.0346  0.0659
 5577SOL    MW422076   4.138   6.426   5.487 -0.1132  0.3206 -0.0175
 5578SOL     OW22077   3.285   6.160   2.336  0.1257  0.3410  0.2614
 5578SOL    HW222078   3.277   6.255   2.327 -0.0013  0.7964  3.6501
 5578SOL    HW322079   3.379   6.142   2.330  0.3169  0.9587  1.1375
 5578SOL    MW422080   3.296   6.170   2.334  0.1342  0.4826  0.8241
 5579SOL     OW22081   4.841   2.398   3.181  0.3309  0.6858 -0.1628
 5579SOL    HW222082   4.867   2.462   3.115  1.4163 -0.5419 -0.9817
 5579SOL    HW322083   4.910   2.401   3.247  0.6467  0.0324 -0.4550
 5579SOL    MW422084   4.853   2.407   3.181  0.5157  0.4376 -0.3094
 5580SOL     OW22085   4.434   2.990   2.924 -0.2355  0.0820  0.0451
 5580SOL    HW222086   4.373   3.035   2.982  1.1273 -2.3455  3.7472
 5580SOL    HW322087   4.379   2.952   2.855 -2.1588  1.8795  0.4944
 5580SOL    MW422088   4.419   2.991   2.922 -0.3094 -0.0011  0.5928
 5581SOL     OW22089   4.150   0.982   5.588 -0.4549 -0.0530  0.4965
 5581SOL    HW222090   4.155   0.935   5.505  3.1607 -1.1992  1.1714
 5581SOL    HW322091   4.113   0.917   5.649 -0.5435 -0.1390  0.3536
 5581SOL    MW422092   4.145   0.967   5.585  0.0104 -0.2156  0.5667
 5582SOL     OW22093   0.564   4.280   6.161  0.2684  0.2757  0.2689
 5582SOL    HW222094   0.492   4.329   6.122 -0.0559 -0.0945  0.4030
 5582SOL    HW322095   0.595   4.336   6.232  0.4305  0.6524 -0.0935
 5582SOL    MW422096   0.559   4.294   6.165  0.2470  0.2766  0.2387
 5583SOL     OW22097   5.216   5.844   1.036  0.0071  0.7183 -0.2617
 5583SOL    HW222098   5.309   5.852   1.016 -0.1273 -1.5882 -2.2868
 5583SOL    HW322099   5.172   5.866   0.954 -0.9292 -2.4629 -0.7631
 5583SOL    MW422100   5.223   5.848   1.023 -0.1342 -0.0058 -0.5950
 5584SOL     OW22101   0.710   1.283   2.598  0.7263  0.9757  0.3357
 5584SOL    HW222102   0.710   1.352   2.532  1.0768  1.3527  0.7224
 5584SOL    HW322103   0.621   1.247   2.594 -0.3669  3.2311  1.9523
 5584SOL    MW422104   0.698   1.288   2.589  0.6283  1.3230  0.6000
 5585SOL     OW22105   0.850   5.292   3.311 -0.4025  0.1858  0.8141
 5585SOL    HW222106   0.897   5.225   3.361  0.4739  1.1373  1.2825
 5585SOL    HW322107   0.902   5.371   3.320 -2.3801  1.4633  1.8461
 5585SOL    MW422108   0.863   5.293   3.319 -0.5478  0.4799  1.0121
 5586SOL     OW22109   1.360   2.672   5.290  0.1764 -0.0492  0.1790
 5586SOL    HW222110   1.287   2.617   5.263  0.4340 -0.2180 -0.1888
 5586SOL    HW322111   1.436   2.636   5.244  0.5501 -0.0701  0.7950
 5586SOL    MW422112   1.361   2.660   5.281  0.2597 -0.0742  0.2118
 5587SOL     OW22113   4.043   1.670   3.283  0.3357 -0.7563 -0.1799
 5587SOL    HW222114   4.002   1.592   3.247  0.0856 -0.8585  0.3200
 5587SOL    HW322115   3.980   1.741   3.268 -0.0286 -0.9078  0.5617
 5587SOL    MW422116   4.029   1.669   3.277  0.2546 -0.7898 -0.0161
 5588SOL     OW22117   3.727   2.611   5.118  0.8015 -0.1192  0.2704
 5588SOL    HW222118   3.762   2.628   5.206  0.5763 -0.5073  0.4383
 5588SOL    HW322119   3.791   2.552   5.078  0.3181 -0.8867  0.6034
 5588SOL    MW422120   3.740   2.605   5.125  0.7080 -0.2717  0.3365
 5589SOL     OW22121   2.645   1.097   4.712  0.4185  0.5764  0.0735
 5589SOL    HW222122   2.595   1.020   4.685  2.2886 -0.3373 -0.9426
 5589SOL    HW322123   2.607   1.169   4.661 -0.3156  0.0521 -0.1439
 5589SOL    MW422124   2.633   1.096   4.702  0.5684  0.3867 -0.0893
 5590SOL     OW22125   4.045   0.764   2.337  0.0968 -0.2539 -0.1098
 5590SOL    HW222126   3.960   0.744   2.375  0.4057 -1.1738  0.1431
 5590SOL    HW322127   4.069   0.848   2.375 -1.5841  1.0483 -1.7571
 5590SOL    MW422128   4.037   0.772   2.347 -0.0842 -0.2035 -0.2938
 5591SOL     OW22129   1.425   3.694   3.659  0.0624 -0.5033 -0.3896
 5591SOL    HW222130   1.425   3.642   3.739  2.3378 -2.3836 -1.4950
 5591SOL    HW322131   1.334   3.690   3.629 -0.4431 -1.3061  1.1295
 5591SOL    MW422132   1.413   3.686   3.665  0.2959 -0.8573 -0.3351
 5592SOL     OW22133   2.452   6.220   4.166  0.0814 -0.2329  0.3284
 5592SOL    HW222134   2.360   6.231   4.144  0.5673 -1.5760 -2.9808
 5592SOL    HW322135   2.465   6.125   4.172  0.6233 -0.0717  4.5398
 5592SOL    MW422136   2.442   6.209   4.164  0.2170 -0.3888  0.4474
 5593SOL     OW22137   4.295   5.726   4.886 -0.5012 -0.1206  0.1200
 5593SOL    HW222138   4.291   5.631   4.900  1.9712 -0.4183 -0.6346
 5593SOL    HW322139   4.370   5.754   4.939 -1.2848  1.4676  0.4484
 5593SOL    MW422140   4.305   5.717   4.895 -0.2784  0.0496  0.0638
 5594SOL     OW22141   1.541   5.823   3.095  0.3111 -1.1302 -0.4876
 5594SOL    HW222142   1.547   5.787   3.007  2.6904 -1.3042 -0.3144
 5594SOL    HW322143   1.632   5.826   3.127 -0.3875 -0.3081  1.6499
 5594SOL    MW422144   1.554   5.819   3.088  0.5329 -1.0447 -0.1828
 5595SOL     OW22145   5.581   2.660   1.136  0.4979 -0.0524  0.1710
 5595SOL    HW222146   5.554   2.626   1.221  0.2487  0.1626  0.1800
 5595SOL    HW322147   5.506   2.644   1.079 -0.4903  2.3334  0.6599
 5595SOL    MW422148   5.568   2.654   1.140  0.3346  0.2908  0.2367
 5596SOL     OW22149   0.108   0.227   5.375  0.4910  1.0251  0.3879
 5596SOL    HW222150   0.082   0.215   5.284  0.7105  0.4143  0.4049
 5596SOL    HW322151   0.183   0.168   5.387  0.1917  0.7814  1.0816
 5596SOL    MW422152   0.115   0.218   5.365  0.4805  0.9123  0.4817
 5597SOL     OW22153   1.438   0.430   0.231 -0.3312 -0.1135  0.3637
 5597SOL    HW222154   1.480   0.370   0.169 -1.5685 -1.9989  1.2330
 5597SOL    HW322155   1.378   0.482   0.178 -0.1785 -0.5565 -0.2510
 5597SOL    MW422156   1.435   0.429   0.216 -0.4743 -0.4207  0.3973
 5598SOL     OW22157   1.285   3.137   5.386  0.3693 -0.2464  0.0023
 5598SOL    HW222158   1.366   3.177   5.417 -0.4099  1.7509 -0.3229
 5598SOL    HW322159   1.224   3.211   5.379 -1.4694 -1.6687  0.2081
 5598SOL    MW422160   1.288   3.152   5.389  0.0239 -0.1705 -0.0135
 5599SOL     OW22161   3.695   0.198   4.709  0.2068 -0.1752  0.3912
 5599SOL    HW222162   3.720   0.108   4.731  1.0186  0.4958  2.4530
 5599SOL    HW322163   3.616   0.188   4.656  0.5963 -2.1099  0.0943
 5599SOL    MW422164   3.688   0.185   4.705  0.3653 -0.3420  0.6241
 5600SOL     OW22165   3.748   3.279   3.233 -0.4735 -0.4052  0.4541
 5600SOL    HW222166   3.731   3.252   3.143 -1.2893  0.6489  0.2765
 5600SOL    HW322167   3.671   3.329   3.259  0.7543  1.3485  0.9183
 5600SOL    MW422168   3.736   3.282   3.225 -0.4192 -0.0347  0.4919
 5601SOL     OW22169   3.556   3.598   4.843  0.1630 -0.3488 -0.3157
 5601SOL    HW222170   3.547   3.573   4.751 -1.3320 -1.7509  0.1704
 5601SOL    HW322171   3.524   3.523   4.892 -0.3873  0.8918  1.3301
 5601SOL    MW422172   3.551   3.585   4.838 -0.1069 -0.3701 -0.0344
 5602SOL     OW22173   1.778   4.521   5.128 -0.1637 -0.3777  0.0494
 5602SOL    HW222174   1.840   4.469   5.077 -1.2749 -1.9538  0.2349
 5602SOL    HW322175   1.746   4.587   5.067  0.5445 -0.5244 -0.4868
 5602SOL    MW422176   1.782   4.523   5.113 -0.2169 -0.6050  0.0031
 5603SOL     OW22177   6.225   6.352   5.847  0.3511  0.6311  0.7801
 5603SOL    HW222178   6.305   6.393   5.813  1.2163 -0.9567  0.7952
 5603SOL    HW322179   6.195   6.412   5.916  0.5088  2.1381 -0.4103
 5603SOL    MW422180   6.232   6.366   5.852  0.4861  0.6204  0.6250
 5604SOL     OW22181   2.526   4.174   0.982 -0.0169 -0.1003  0.2053
 5604SOL    HW222182   2.535   4.261   1.019  0.8387  0.1888 -0.6557
 5604SOL    HW322183   2.592   4.121   1.027  0.3339  0.0072 -0.1809
 5604SOL    MW422184   2.536   4.178   0.993  0.1422 -0.0480  0.0407
 5605SOL     OW22185   6.170   5.612   6.031  0.1792 -0.7878 -0.3385
 5605SOL    HW222186   6.262   5.627   6.008  1.2951 -2.4015  2.5248
 5605SOL    HW322187   6.161   5.516   6.032 -1.2026 -0.6760  0.4530
 5605SOL    MW422188   6.181   5.601   6.028  0.1441 -0.9860  0.1437
 5606SOL     OW22189   3.647   4.329   0.619  0.2062 -0.2007  0.0513
 5606SOL    HW222190   3.729   4.359   0.657  0.6349 -0.5516 -0.5709
 5606SOL    HW322191   3.673   4.261   0.557 -0.5399 -0.1882 -0.2897
 5606SOL    MW422192   3.661   4.324   0.616  0.1643 -0.2453 -0.0757
 5607SOL     OW22193   5.855   2.987   2.397 -0.0329  0.7094 -0.9051
 5607SOL    HW222194   5.909   3.038   2.457 -0.8415  1.8294 -1.1025
 5607SOL    HW322195   5.838   2.905   2.445 -0.6969  1.5920  0.4331
 5607SOL    MW422196   5.860   2.983   2.411 -0.2272  0.9736 -0.7546
 5608SOL     OW22197   5.214   4.754   6.408  0.0702 -0.4218  0.0230
 5608SOL    HW222198   5.159   4.808   6.466 -0.2125  0.1651 -0.7730
 5608SOL    HW322199   5.227   4.808   6.331 -0.7062 -1.7151 -1.0562
 5608SOL    MW422200   5.208   4.768   6.406 -0.0695 -0.5150 -0.2244
 5609SOL     OW22201   3.791   1.068   2.795  0.2289  0.0544  0.4935
 5609SOL    HW222202   3.851   1.138   2.769  0.4447 -0.6533 -1.0479
 5609SOL    HW322203   3.705   1.111   2.797  0.2924  0.3098 -0.8870
 5609SOL    MW422204   3.787   1.083   2.792  0.2657 -0.0053  0.1080
 5610SOL     OW22205   6.386   1.414   0.075 -0.3628 -0.1245  0.2248
 5610SOL    HW222206   6.313   1.360   0.044  0.4041 -1.1778  0.1825
 5610SOL    HW322207   6.450   1.411   0.004  0.5210 -0.8147  1.0306
 5610SOL    MW422208   6.384   1.406   0.062 -0.1450 -0.3546  0.3255
 5611SOL     OW22209   4.275   5.148   5.916 -0.1537  0.1647 -0.7760
 5611SOL    HW222210   4.206   5.109   5.970  1.3624 -2.7052 -0.7306
 5611SOL    HW322211   4.240   5.142   5.826 -0.3520 -0.4471 -0.6672
 5611SOL    MW422212   4.261   5.142   5.911  0.0201 -0.2947 -0.7557
 5612SOL     OW22213   4.352   0.205   2.007 -0.5783 -0.4569  0.0526
 5612SOL    HW222214   4.340   0.119   1.965  0.9330 -0.9743  0.6255
 5612SOL    HW322215   4.373   0.185   2.098 -0.3276  0.5385  0.2271
 5612SOL    MW422216   4.353   0.191   2.013 -0.3458 -0.3938  0.1512
 5613SOL     OW22217   4.324   6.400   1.853 -0.1030 -0.0326 -0.1711
 5613SOL    HW222218   4.297   6.309   1.867 -0.9875 -0.3905 -3.4395
 5613SOL    HW322219   4.245   6.444   1.820  1.4285  0.6291 -3.3133
 5613SOL    MW422220   4.310   6.394   1.851 -0.0176  0.0075 -1.0169
 5614SOL     OW22221   6.161   0.642   5.751  0.3512  0.1690  0.3960
 5614SOL    HW222222   6.225   0.615   5.818  1.2664  0.7758 -0.2263
 5614SOL    HW322223   6.183   0.589   5.674  1.3034  1.6803 -0.4084
 5614SOL    MW422224   6.173   0.631   5.750  0.5976  0.4485  0.2078
 5615SOL     OW22225   1.060   2.032   0.940  0.3047  0.4927  0.3879
 5615SOL    HW222226   1.139   2.030   0.994  0.0609  0.3461  0.7435
 5615SOL    HW322227   1.056   1.944   0.901  0.7003  0.7270 -0.1959
 5615SOL    MW422228   1.070   2.020   0.941  0.3247  0.5043  0.3578
 5616SOL     OW22229   3.087   4.950   2.720  0.3199  0.7031 -0.0910
 5616SOL    HW222230   3.035   5.022   2.685 -0.9805  0.7538  1.8164
 5616SOL    HW322231   3.122   4.907   2.642 -2.2933  0.8791 -1.4947
 5616SOL    MW422232   3.084   4.954   2.705 -0.1964  0.7330 -0.0246
 5617SOL     OW22233   0.604   2.294   0.506 -0.0036  0.4024  0.4599
 5617SOL    HW222234   0.650   2.231   0.562 -0.6592 -0.7497 -0.2726
 5617SOL    HW322235   0.673   2.345   0.465  0.5132  1.6483  2.6650
 5617SOL    MW422236   0.619   2.292   0.508 -0.0219  0.4148  0.6542
 5618SOL     OW22237   1.968   0.807   2.157  0.4497  0.2411 -0.4836
 5618SOL    HW222238   1.958   0.888   2.107 -0.1100 -0.0640 -0.8653
 5618SOL    HW322239   1.899   0.749   2.125 -0.3475  0.2594  1.0713
 5618SOL    MW422240   1.958   0.810   2.146  0.2707  0.2033 -0.3288
 5619SOL     OW22241   6.282   0.304   3.895 -0.0057  0.6835  0.0638
 5619SOL    HW222242   6.288   0.335   3.804  0.8737 -0.3999 -0.2622
 5619SOL    HW322243   6.215   0.360   3.934 -0.5755  1.0165 -1.3168
 5619SOL    MW422244   6.274   0.315   3.888  0.0351  0.5845 -0.1614
 5620SOL     OW22245   0.915   6.263   2.335  0.1020  0.4066 -0.3922
 5620SOL    HW222246   1.008   6.261   2.359  0.5654  0.4939 -2.0868
 5620SOL    HW322247   0.898   6.177   2.296 -0.5500  0.3897 -0.0913
 5620SOL    MW422248   0.925   6.251   2.333  0.0771  0.4159 -0.5760
 5621SOL     OW22249   5.098   4.618   6.005  0.1384  0.4914  0.3870
 5621SOL    HW222250   5.180   4.611   6.054  0.0619 -1.5134  0.3166
 5621SOL    HW322251   5.033   4.574   6.061 -1.1847  2.8934  0.9208
 5621SOL    MW422252   5.100   4.612   6.019 -0.0463  0.5438  0.4482
 5622SOL     OW22253   1.436   2.163   5.616  0.2161  0.0999 -1.0607
 5622SOL    HW222254   1.473   2.075   5.613 -2.6564 -1.2231 -2.6622
 5622SOL    HW322255   1.396   2.170   5.703  0.2170 -0.2797 -1.0304
 5622SOL    MW422256   1.435   2.152   5.627 -0.1627 -0.1247 -1.2680
 5623SOL     OW22257   0.559   3.891   0.659  0.1730 -0.1256  0.2679
 5623SOL    HW222258   0.532   3.933   0.577 -1.1556 -0.9262  0.2628
 5623SOL    HW322259   0.487   3.911   0.720 -1.2048 -3.3879 -0.0974
 5623SOL    MW422260   0.546   3.900   0.656 -0.1840 -0.6617  0.2191
 5624SOL     OW22261   1.773   3.526   1.369  0.4638  0.1652  0.4624
 5624SOL    HW222262   1.717   3.522   1.291 -0.7222 -0.2884  1.2988
 5624SOL    HW322263   1.850   3.475   1.347 -0.1819 -0.5533 -0.1793
 5624SOL    MW422264   1.776   3.519   1.356  0.2221  0.0106  0.4881
 5625SOL     OW22265   2.411   0.827   3.042  0.4753 -0.0014  0.1460
 5625SOL    HW222266   2.420   0.811   3.136 -1.0827 -2.4734 -0.0387
 5625SOL    HW322267   2.386   0.920   3.036 -0.6296 -0.0992  2.2874
 5625SOL    MW422268   2.409   0.837   3.054  0.1240 -0.3405  0.4041
 5626SOL     OW22269   2.994   0.731   3.343 -0.1803 -0.0352 -0.2438
 5626SOL    HW222270   2.920   0.706   3.287  0.1144  0.9167 -1.1010
 5626SOL    HW322271   3.008   0.824   3.323  0.6399  0.0356  0.6138
 5626SOL    MW422272   2.986   0.740   3.333 -0.0332  0.0998 -0.2437
 5627SOL     OW22273   4.145   1.216   0.159 -0.7699  0.0215  0.2707
 5627SOL    HW222274   4.207   1.145   0.141 -2.6318 -1.7787  0.5411
 5627SOL    HW322275   4.129   1.256   0.074 -0.7558 -0.8206 -0.1415
 5627SOL    MW422276   4.151   1.212   0.145 -1.0137 -0.3271  0.2520
 5628SOL     OW22277   0.741   2.506   3.767  0.2484  0.2831 -0.0805
 5628SOL    HW222278   0.677   2.519   3.837  1.9122  0.5195  1.4480
 5628SOL    HW322279   0.758   2.593   3.733  0.7323  0.3745  0.3995
 5628SOL    MW422280   0.735   2.519   3.772  0.5318  0.3263  0.1845
 5629SOL     OW22281   5.715   2.487   2.490 -0.2076  0.1375  0.1957
 5629SOL    HW222282   5.770   2.489   2.412  2.1538 -0.1633  1.7378
 5629SOL    HW322283   5.625   2.490   2.457  0.6939 -0.1647 -2.4993
 5629SOL    MW422284   5.710   2.487   2.475  0.2229  0.0579  0.0436
 5630SOL     OW22285   3.625   5.312   2.262  0.8223 -0.0795  0.6223
 5630SOL    HW222286   3.626   5.291   2.169  0.6120 -0.4450  0.7024
 5630SOL    HW322287   3.592   5.233   2.305  0.6997  0.1659  0.9881
 5630SOL    MW422288   3.621   5.299   2.255  0.7784 -0.0953  0.6811
 5631SOL     OW22289   4.728   1.603   4.915 -0.4488  0.0678 -0.1963
 5631SOL    HW222290   4.664   1.671   4.939  0.6750  0.1432  3.2084
 5631SOL    HW322291   4.687   1.521   4.942 -1.1762 -0.5422 -2.9049
 5631SOL    MW422292   4.714   1.601   4.922 -0.3965 -0.0027 -0.1045
 5632SOL     OW22293   4.616   5.613   0.131 -0.2653 -0.0471  0.1831
 5632SOL    HW222294   4.667   5.553   0.076 -0.7174 -0.8017  0.5590
 5632SOL    HW322295   4.645   5.700   0.105  0.3931 -0.4253 -0.4025
 5632SOL    MW422296   4.627   5.616   0.121 -0.2381 -0.1965  0.1554
 5633SOL     OW22297   1.126   6.421   5.821  0.2907  0.1142 -0.6751
 5633SOL    HW222298   1.192   6.488   5.839 -1.4948  1.4481  1.4394
 5633SOL    HW322299   1.050   6.470   5.788 -0.3531 -1.1035 -1.0554
 5633SOL    MW422300   1.125   6.436   5.819 -0.0298  0.1295 -0.4463
 5634SOL     OW22301   2.826   2.378   4.336 -0.4866 -0.6410  0.3362
 5634SOL    HW222302   2.821   2.340   4.424  1.2906 -0.0073  0.7429
 5634SOL    HW322303   2.918   2.372   4.312 -0.7633  0.1772 -1.0555
 5634SOL    MW422304   2.837   2.372   4.345 -0.2886 -0.4495  0.2063
 5635SOL     OW22305   3.029   5.913   1.725  0.6892  0.0862  0.4762
 5635SOL    HW222306   2.941   5.938   1.697  1.1035 -0.1345 -1.1317
 5635SOL    HW322307   3.029   5.817   1.725  1.5229  0.0230 -1.7543
 5635SOL    MW422308   3.018   5.904   1.721  0.8538  0.0487 -0.0302
 5636SOL     OW22309   4.855   3.272   2.779  0.4119  0.1027  0.0492
 5636SOL    HW222310   4.797   3.343   2.750 -0.9427 -0.0332  2.2445
 5636SOL    HW322311   4.924   3.269   2.712 -1.2053  1.3637 -1.7976
 5636SOL    MW422312   4.856   3.281   2.766  0.0198  0.2512  0.0952
 5637SOL     OW22313   0.144   3.248   4.034 -0.0984  0.1089  0.8105
 5637SOL    HW222314   0.152   3.243   3.939  1.0997  2.2153  0.7409
 5637SOL    HW322315   0.203   3.181   4.068 -0.0955 -0.2567  0.0877
 5637SOL    MW422316   0.153   3.239   4.026  0.0601  0.3385  0.7059
 5638SOL     OW22317   4.175   4.752   4.265 -0.4002 -0.6205  0.3232
 5638SOL    HW222318   4.189   4.778   4.174 -0.9543 -2.1465 -0.2253
 5638SOL    HW322319   4.147   4.833   4.309 -1.6275 -0.1693 -1.2025
 5638SOL    MW422320   4.173   4.766   4.259 -0.6352 -0.7623  0.0495
 5639SOL     OW22321   2.016   4.573   5.439  0.2222  0.0856  0.2653
 5639SOL    HW222322   1.922   4.573   5.422 -0.1212 -0.4182  1.9669
 5639SOL    HW322323   2.043   4.664   5.425 -0.4590  0.1833 -0.4947
 5639SOL    MW422324   2.007   4.585   5.435  0.0870  0.0320  0.3895
 5640SOL     OW22325   1.267   2.269   3.511 -0.6983  0.2801  0.2327
 5640SOL    HW222326   1.230   2.192   3.555  0.8038 -0.2062  0.7111
 5640SOL    HW322327   1.259   2.340   3.576 -0.5703  0.1187  0.4267
 5640SOL    MW422328   1.261   2.268   3.526 -0.4832  0.1947  0.3214
 5641SOL     OW22329   1.220   2.326   2.900 -0.4094 -0.1877  0.3312
 5641SOL    HW222330   1.167   2.394   2.942  0.1079 -1.1758  2.7936
 5641SOL    HW322331   1.167   2.247   2.906  0.0745 -0.5451 -0.0405
 5641SOL    MW422332   1.206   2.325   2.906 -0.2773 -0.3652  0.6070
 5642SOL     OW22333   1.924   5.654   4.157  0.1763  0.3440  0.3160
 5642SOL    HW222334   1.947   5.586   4.094 -0.5739  0.1493  0.2364
 5642SOL    HW322335   1.839   5.626   4.192 -0.8587  1.9637 -0.7776
 5642SOL    MW422336   1.916   5.641   4.154 -0.0592  0.5320  0.1612
 5643SOL     OW22337   5.735   0.800   1.675  0.2764 -0.3660  0.3903
 5643SOL    HW222338   5.686   0.718   1.680 -1.4678  0.6438  0.6955
 5643SOL    HW322339   5.671   0.864   1.644  1.9657  0.6166 -1.3311
 5643SOL    MW422340   5.720   0.798   1.671  0.2691 -0.1031  0.2035
 5644SOL     OW22341   4.353   1.919   5.193 -0.4363 -0.3208 -0.3461
 5644SOL    HW222342   4.433   1.966   5.168 -1.1899  0.9136 -0.5342
 5644SOL    HW322343   4.327   1.958   5.276 -0.1093 -1.6675  0.4016
 5644SOL    MW422344   4.360   1.930   5.200 -0.4926 -0.3356 -0.2723
 5645SOL     OW22345   4.942   3.885   1.513  0.1729 -0.6156  0.0918
 5645SOL    HW222346   4.935   3.796   1.550 -0.4756 -0.7033 -0.2242
 5645SOL    HW322347   4.894   3.940   1.575  1.5534 -0.2867  0.8997
 5645SOL    MW422348   4.934   3.880   1.526  0.2695 -0.5838  0.1567
 5646SOL     OW22349   2.593   0.570   2.007  0.4894 -0.5014  0.2841
 5646SOL    HW222350   2.681   0.582   1.973  0.7858  0.8656  1.4651
 5646SOL    HW322351   2.583   0.475   2.017  1.2906 -0.7590 -1.1864
 5646SOL    MW422352   2.603   0.559   2.004  0.6342 -0.3550  0.2459
 5647SOL     OW22353   1.054   4.118   5.798 -0.1709 -0.6196  0.0799
 5647SOL    HW222354   0.959   4.112   5.809 -0.2747  1.4861  0.7808
 5647SOL    HW322355   1.065   4.174   5.721  0.5248 -1.1358 -0.2086
 5647SOL    MW422356   1.043   4.125   5.789 -0.0928 -0.4099  0.1343
 5648SOL     OW22357   4.186   4.907   0.178  0.6301 -0.4907 -0.4249
 5648SOL    HW222358   4.272   4.931   0.213  0.6928 -1.6494  0.3074
 5648SOL    HW322359   4.201   4.891   0.085  0.7551  1.3289 -0.7396
 5648SOL    MW422360   4.199   4.908   0.171  0.6549 -0.4035 -0.3698
 5649SOL     OW22361   2.621   0.408   4.418  0.1745  0.0953 -0.2199
 5649SOL    HW222362   2.539   0.358   4.417 -0.4394  1.0036  1.1927
 5649SOL    HW322363   2.593   0.499   4.415  1.2017  0.3996 -0.9826
 5649SOL    MW422364   2.606   0.413   4.417  0.2290  0.2553 -0.1341
 5650SOL     OW22365   4.741   4.848   4.221 -0.2461  0.1518 -0.0991
 5650SOL    HW222366   4.744   4.826   4.314  0.0132 -0.3900 -0.2323
 5650SOL    HW322367   4.727   4.764   4.177 -2.2977  0.6150 -0.4517
 5650SOL    MW422368   4.739   4.834   4.227 -0.4826  0.1414 -0.1632
 5651SOL     OW22369   4.454   0.737   6.263 -0.0002 -0.2881 -0.6425
 5651SOL    HW222370   4.401   0.697   6.332  0.4468  0.3522  0.0796
 5651SOL    HW322371   4.446   0.676   6.189  2.6768 -3.0890  1.1588
 5651SOL    MW422372   4.446   0.724   6.263  0.4119 -0.5732 -0.3096
 5652SOL     OW22373   3.272   3.541   5.357  0.1852  0.2415  0.0500
 5652SOL    HW222374   3.334   3.527   5.428 -0.0802  0.6009  0.3534
 5652SOL    HW322375   3.243   3.632   5.366 -0.8836 -0.1065  0.3229
 5652SOL    MW422376   3.276   3.551   5.367  0.0092  0.2430  0.1260
 5653SOL     OW22377   3.107   4.314   1.305 -0.3314  0.3190 -0.5116
 5653SOL    HW222378   3.153   4.362   1.375 -1.6585  0.0003  0.6363
 5653SOL    HW322379   3.029   4.367   1.287 -1.0528 -0.6227 -0.2712
 5653SOL    MW422380   3.103   4.327   1.312 -0.6017  0.1527 -0.3284
 5654SOL     OW22381   4.299   0.343   6.049 -0.1505  0.8734 -0.1487
 5654SOL    HW222382   4.339   0.294   6.120 -1.6001  0.2328  0.2686
 5654SOL    HW322383   4.211   0.363   6.081  0.0120  2.7561 -0.7713
 5654SOL    MW422384   4.292   0.339   6.063 -0.3203  1.0373 -0.1758
 5655SOL     OW22385   2.531   1.992   0.543  0.4025 -0.1102  0.8099
 5655SOL    HW222386   2.575   2.039   0.473 -2.8025  2.3865  0.2686
 5655SOL    HW322387   2.452   1.956   0.503  1.0289 -3.2118  2.0430
 5655SOL    MW422388   2.526   1.993   0.529  0.0623 -0.1900  0.9012
 5656SOL     OW22389   1.150   0.895   0.928  0.0863 -0.5972 -0.6932
 5656SOL    HW222390   1.124   0.809   0.961 -0.0215 -0.4546 -0.3951
 5656SOL    HW322391   1.103   0.905   0.845  0.4388 -1.0060 -0.9431
 5656SOL    MW422392   1.140   0.885   0.922  0.1186 -0.6323 -0.6868
 5657SOL     OW22393   5.625   2.803   5.313 -0.6125  0.6416 -0.5078
 5657SOL    HW222394   5.605   2.772   5.224 -1.5983 -0.6404  0.1262
 5657SOL    HW322395   5.560   2.871   5.329 -2.0324 -0.7726  0.0666
 5657SOL    MW422396   5.614   2.807   5.303 -0.9299  0.2859 -0.3483
 5658SOL     OW22397   6.299   2.605   3.366  0.3591 -0.0235 -0.5699
 5658SOL    HW222398   6.337   2.519   3.352  1.2905  0.3644 -0.5108
 5658SOL    HW322399   6.212   2.600   3.325 -0.0221 -1.2948  0.3406
 5658SOL    MW422400   6.292   2.593   3.359  0.4317 -0.1400 -0.4420
 5659SOL     OW22401   5.238   5.328   3.323 -0.0332 -0.1131 -0.9476
 5659SOL    HW222402   5.149   5.344   3.355 -0.1612 -3.1690  0.5609
 5659SOL    HW322403   5.229   5.262   3.255  1.0992 -0.6615 -0.5922
 5659SOL    MW422404   5.225   5.322   3.319  0.0993 -0.5886 -0.7017
 5660SOL     OW22405   5.488   5.835   5.179 -0.0006 -0.3114  0.1691
 5660SOL    HW222406   5.493   5.815   5.272 -0.2828  1.1619  0.5249
 5660SOL    HW322407   5.535   5.918   5.170 -1.6449  0.5746 -0.6600
 5660SOL    MW422408   5.495   5.843   5.190 -0.2548 -0.0001  0.1066
 5661SOL     OW22409   1.791   1.934   1.458 -0.0470 -0.0427  0.1084
 5661SOL    HW222410   1.814   2.020   1.494  3.2646 -0.5847 -0.3514
 5661SOL    HW322411   1.773   1.951   1.366  0.2370  0.2111  0.0958
 5661SOL    MW422412   1.792   1.948   1.451  0.4274 -0.0807  0.0460
 5662SOL     OW22413   1.887   6.375   2.336  0.3012 -0.1384  0.1557
 5662SOL    HW222414   1.912   6.420   2.417 -0.6187  1.3405 -0.3364
 5662SOL    HW322415   1.808   6.421   2.307 -0.0113 -1.3528 -1.0079
 5662SOL    MW422416   1.880   6.387   2.343  0.1386 -0.1035 -0.0628
 5663SOL     OW22417   0.922   5.671   0.664 -0.2117 -0.6570  0.2684
 5663SOL    HW222418   0.976   5.650   0.588 -3.2219  0.2046 -2.3000
 5663SOL    HW322419   0.952   5.757   0.692  0.2016 -0.5013 -0.6334
 5663SOL    MW422420   0.933   5.679   0.658 -0.5543 -0.5228 -0.1894
 5664SOL     OW22421   6.105   3.645   1.557 -0.0668 -0.4066 -0.8456
 5664SOL    HW222422   6.100   3.726   1.507  3.1317  2.3171  2.6334
 5664SOL    HW322423   6.031   3.650   1.618  0.4948  0.3385 -0.1974
 5664SOL    MW422424   6.094   3.656   1.559  0.4293  0.0511 -0.3010
 5665SOL     OW22425   2.337   4.611   2.863  0.6408 -0.4787 -0.5010
 5665SOL    HW222426   2.324   4.565   2.946  2.5304 -0.1728  0.0070
 5665SOL    HW322427   2.373   4.696   2.888 -0.0225  0.1394 -1.5845
 5665SOL    MW422428   2.340   4.616   2.878  0.8026 -0.3568 -0.5769
 5666SOL     OW22429   4.206   0.757   2.681  0.1437  0.0235 -0.1973
 5666SOL    HW222430   4.122   0.780   2.640  0.8886 -0.0099 -1.7924
 5666SOL    HW322431   4.223   0.667   2.652  1.5366  0.6161 -1.2924
 5666SOL    MW422432   4.197   0.748   2.672  0.4258  0.0973 -0.5522
 5667SOL     OW22433   0.591   0.495   0.151 -0.5309 -0.2046  0.1096
 5667SOL    HW222434   0.530   0.501   0.077 -0.4994 -0.7124  0.0419
 5667SOL    HW322435   0.675   0.476   0.111 -0.4878 -0.3473  0.2690
 5667SOL    MW422436   0.594   0.493   0.136 -0.5211 -0.2904  0.1217
 5668SOL     OW22437   6.149   3.578   4.700 -0.2439  0.5592  0.2074
 5668SOL    HW222438   6.243   3.559   4.704  0.3291  2.4500 -1.7830
 5668SOL    HW322439   6.129   3.618   4.784  1.5819  3.0860 -0.4256
 5668SOL    MW422440   6.159   3.581   4.711  0.0726  1.1420 -0.1387
 5669SOL     OW22441   0.101   5.077   4.584  0.2801 -0.2606  0.5223
 5669SOL    HW222442   0.161   5.003   4.599 -0.3230 -0.8151  0.2702
 5669SOL    HW322443   0.154   5.143   4.540  0.5651 -0.9715 -0.2178
 5669SOL    MW422444   0.116   5.076   4.581  0.2381 -0.4276  0.3914
 5670SOL     OW22445   0.224   5.906   2.873  0.0257  0.4772 -0.2168
 5670SOL    HW222446   0.280   5.956   2.932  0.2436 -1.7347  1.5668
 5670SOL    HW322447   0.140   5.899   2.918  0.1695 -1.1942 -0.1484
 5670SOL    MW422448   0.220   5.912   2.887  0.0734 -0.0351  0.0275
 5671SOL     OW22449   4.152   5.997   2.233 -0.3707 -0.4661  0.3060
 5671SOL    HW222450   4.130   6.082   2.196  0.8359 -0.4096 -0.3281
 5671SOL    HW322451   4.076   5.942   2.214 -0.7824  0.2250 -0.0758
 5671SOL    MW422452   4.139   6.001   2.226 -0.2658 -0.3675  0.1720
 5672SOL     OW22453   4.274   1.199   0.826 -0.2439 -0.1077  0.4412
 5672SOL    HW222454   4.331   1.149   0.767  0.0919  0.4650  0.2803
 5672SOL    HW322455   4.314   1.285   0.832 -0.4635 -0.0455  1.2357
 5672SOL    MW422456   4.287   1.204   0.819 -0.2286 -0.0240  0.5248
 5673SOL     OW22457   3.367   3.033   4.885 -0.0834 -0.1036 -0.0892
 5673SOL    HW222458   3.304   2.978   4.838  0.4534  0.1369 -1.1136
 5673SOL    HW322459   3.403   3.091   4.818  1.7645 -0.7102  0.3296
 5673SOL    MW422460   3.363   3.033   4.870  0.2312 -0.1519 -0.1691
 5674SOL     OW22461   3.734   3.939   2.609 -0.3155  0.1525 -0.5671
 5674SOL    HW222462   3.704   3.922   2.519  0.6688  1.4299 -1.1661
 5674SOL    HW322463   3.803   3.873   2.624 -1.9843 -1.5258  0.1115
 5674SOL    MW422464   3.739   3.928   2.599 -0.4058  0.0996 -0.5566
 5675SOL     OW22465   3.022   3.210   0.479 -0.2542  0.3622 -0.0136
 5675SOL    HW222466   2.936   3.205   0.438 -0.4759  1.4532  0.2881
 5675SOL    HW322467   3.067   3.280   0.433  0.9073 -0.9175 -0.9099
 5675SOL    MW422468   3.017   3.218   0.467 -0.1302  0.3373 -0.0920
 5676SOL     OW22469   4.169   5.247   5.668  0.0082  0.3465 -0.7975
 5676SOL    HW222470   4.157   5.326   5.719  0.2454  0.2362 -0.5723
 5676SOL    HW322471   4.208   5.277   5.586  0.1749  0.4507 -0.6794
 5676SOL    MW422472   4.173   5.261   5.664  0.0615  0.3457 -0.7522
 5677SOL     OW22473   5.447   2.152   4.058 -0.0140 -0.0942 -0.0730
 5677SOL    HW222474   5.368   2.141   4.005  0.1328 -0.1593 -0.2779
 5677SOL    HW322475   5.431   2.231   4.108  0.2021  0.4589 -0.8520
 5677SOL    MW422476   5.434   2.161   4.057  0.0339 -0.0298 -0.2028
 5678SOL     OW22477   4.147   0.784   0.297  0.2723 -0.3073  0.0804
 5678SOL    HW222478   4.085   0.732   0.348  1.9608 -1.1774  1.3402
 5678SOL    HW322479   4.098   0.863   0.274 -1.3504 -1.0245  0.8743
 5678SOL    MW422480   4.132   0.788   0.301  0.2810 -0.5167  0.3514
 5679SOL     OW22481   4.990   5.536   4.291 -0.3849  0.2911  0.4176
 5679SOL    HW222482   5.002   5.560   4.199  0.8823 -1.1216  0.1747
 5679SOL    HW322483   4.920   5.471   4.290 -0.3342  0.2358  0.4457
 5679SOL    MW422484   4.982   5.531   4.279 -0.2110  0.0974  0.3893
 5680SOL     OW22485   6.284   5.546   5.201 -0.0974 -0.5795  0.1187
 5680SOL    HW222486   6.258   5.514   5.115 -1.0405  0.4495  0.0001
 5680SOL    HW322487   6.317   5.635   5.184  5.4777 -2.2845 -0.0716
 5680SOL    MW422488   6.285   5.554   5.187  0.5137 -0.6687  0.0780
 5681SOL     OW22489   3.182   6.134   1.801 -0.0894 -0.1926  0.3977
 5681SOL    HW222490   3.143   6.183   1.874  0.0718 -0.3923  0.6218
 5681SOL    HW322491   3.123   6.059   1.789  1.1283 -1.4714  1.9074
 5681SOL    MW422492   3.169   6.130   1.809  0.0925 -0.3877  0.6265
 5682SOL     OW22493   6.004   3.753   3.466  0.0706 -0.4338  0.4263
 5682SOL    HW222494   5.939   3.737   3.534 -0.2621 -2.1177 -0.2257
 5682SOL    HW322495   6.085   3.715   3.501 -0.2895 -2.0474 -0.3961
 5682SOL    MW422496   6.006   3.746   3.480 -0.0208 -0.8688  0.2318
 5683SOL     OW22497   1.858   0.498   0.808  1.0323 -0.8900  0.2887
 5683SOL    HW222498   1.821   0.419   0.770  2.1144 -1.9147  1.2968
 5683SOL    HW322499   1.950   0.497   0.783  0.9111  0.4539 -0.3033
 5683SOL    MW422500   1.865   0.488   0.800  1.1591 -0.8479  0.3436
 5684SOL     OW22501   6.229   1.932   0.643 -0.2676 -0.5146 -0.2744
 5684SOL    HW222502   6.177   2.011   0.630 -0.1985 -0.3856  0.2097
 5684SOL    HW322503   6.178   1.879   0.704  0.6758  0.1269  1.1283
 5684SOL    MW422504   6.216   1.935   0.649 -0.1340 -0.4129 -0.0255
 5685SOL     OW22505   1.388   0.274   5.551  0.3363 -0.3774  0.9434
 5685SOL    HW222506   1.402   0.203   5.615 -1.3212 -0.6032  1.0971
 5685SOL    HW322507   1.410   0.354   5.599  1.0913 -0.6977  1.1414
 5685SOL    MW422508   1.393   0.275   5.566  0.2172 -0.4494  0.9898
 5686SOL     OW22509   1.311   5.831   1.927 -0.0504 -0.3207 -0.4025
 5686SOL    HW222510   1.393   5.873   1.952 -0.8769  1.4548 -0.5394
 5686SOL    HW322511   1.337   5.753   1.878  1.5469 -0.6128  0.8289
 5686SOL    MW422512   1.325   5.826   1.924  0.0513 -0.1250 -0.2581
 5687SOL     OW22513   5.336   3.904   0.489 -0.3596 -0.2282 -0.4896
 5687SOL    HW222514   5.431   3.893   0.498 -0.5179 -2.0305 -0.6913
 5687SOL    HW322515   5.318   3.986   0.534  1.3467  0.3821 -0.8159
 5687SOL    MW422516   5.346   3.913   0.496 -0.1554 -0.3855 -0.5593
 5688SOL     OW22517   4.067   5.647   3.038 -0.4563  0.6051 -0.3051
 5688SOL    HW222518   4.026   5.632   3.123 -0.6212  0.5457 -0.3938
 5688SOL    HW322519   4.000   5.623   2.974  0.1457 -0.7866 -0.4648
 5688SOL    MW422520   4.053   5.642   3.041 -0.3986  0.4137 -0.3379
 5689SOL     OW22521   1.572   2.409   0.699 -0.4576  0.2451 -0.0679
 5689SOL    HW222522   1.483   2.389   0.726 -0.6656  2.6993  1.3688
 5689SOL    HW322523   1.624   2.402   0.779  0.0110  1.9579 -0.1803
 5689SOL    MW422524   1.567   2.406   0.713 -0.4232  0.7949  0.1068
 5690SOL     OW22525   6.403   5.819   3.019  0.5735  0.4474  0.7101
 5690SOL    HW222526   6.353   5.740   2.997  0.2297  0.3162  1.9048
 5690SOL    HW322527   6.337   5.885   3.037  0.8228  0.5132  1.4381
 5690SOL    MW422528   6.388   5.817   3.019  0.5610  0.4388  0.9638
 5691SOL     OW22529   3.109   4.897   4.887  0.5478 -0.0722 -0.0167
 5691SOL    HW222530   3.134   4.807   4.905  1.2098 -0.0826 -0.8977
 5691SOL    HW322531   3.015   4.901   4.907 -0.2747 -1.7920 -2.8693
 5691SOL    MW422532   3.100   4.886   4.892  0.5266 -0.3004 -0.5093
 5692SOL     OW22533   2.455   2.516   2.438  0.2675  0.2988  0.3517
 5692SOL    HW222534   2.432   2.439   2.490  0.5474  0.6597  1.0298
 5692SOL    HW322535   2.382   2.526   2.376  0.6723 -1.0343 -0.3746
 5692SOL    MW422536   2.442   2.507   2.437  0.3578  0.1705  0.3453
 5693SOL     OW22537   0.607   3.589   0.605  0.3758  0.3056 -0.1244
 5693SOL    HW222538   0.542   3.550   0.546 -0.3032 -0.3742  1.0343
 5693SOL    HW322539   0.583   3.682   0.607  0.8417  0.4762 -1.4393
 5693SOL    MW422540   0.595   3.596   0.597  0.3477  0.2384 -0.1450
 5694SOL     OW22541   5.161   5.216   0.055 -0.6873 -0.0621  0.0062
 5694SOL    HW222542   5.151   5.310   0.071 -1.2492  0.0663 -1.0005
 5694SOL    HW322543   5.244   5.208   0.008 -0.0011 -0.2236  1.2163
 5694SOL    MW422544   5.170   5.227   0.051 -0.6709 -0.0664  0.0330
 5695SOL     OW22545   1.846   0.176   1.057  0.1765  0.3609 -0.1503
 5695SOL    HW222546   1.839   0.264   1.021  0.8714  0.7841  0.6911
 5695SOL    HW322547   1.940   0.160   1.062  0.0652 -0.2266  0.1794
 5695SOL    MW422548   1.858   0.185   1.053  0.2535  0.3392  0.0042
 5696SOL     OW22549   2.121   6.077   0.142 -0.0999 -0.5851  0.5131
 5696SOL    HW222550   2.056   6.062   0.074 -1.1023  0.8606  1.0912
 5696SOL    HW322551   2.182   6.141   0.105  0.0755 -0.7407  0.5306
 5696SOL    MW422552   2.120   6.083   0.128 -0.2090 -0.4149  0.5917
 5697SOL     OW22553   6.118   5.439   2.398 -0.0441  0.3559 -0.2620
 5697SOL    HW222554   6.112   5.455   2.304 -1.0920  2.4217  0.1094
 5697SOL    HW322555   6.027   5.428   2.426  0.1583  1.0052  0.6837
 5697SOL    MW422556   6.105   5.439   2.389 -0.1556  0.7141 -0.0882
 5698SOL     OW22557   1.312   4.209   0.678  0.2858  0.0770  0.4055
 5698SOL    HW222558   1.217   4.196   0.678  0.4575 -1.9572 -1.9900
 5698SOL    HW322559   1.328   4.270   0.606  0.8215 -0.0761  0.3879
 5698SOL    MW422560   1.301   4.215   0.669  0.3791 -0.2116  0.0872
 5699SOL     OW22561   2.439   2.775   1.622  0.1955 -0.3596  0.3714
 5699SOL    HW222562   2.374   2.808   1.560 -0.1274  0.2312  1.0147
 5699SOL    HW322563   2.523   2.786   1.577 -0.0638 -0.2358 -0.0852
 5699SOL    MW422564   2.442   2.781   1.608  0.1187 -0.2653  0.3960
 5700SOL     OW22565   2.460   6.025   6.159 -0.1555 -0.1312  0.1761
 5700SOL    HW222566   2.400   5.955   6.134 -0.8592  0.3015  0.6144
 5700SOL    HW322567   2.523   6.031   6.086 -1.0820 -0.0951 -0.6372
 5700SOL    MW422568   2.461   6.016   6.146 -0.3706 -0.0694  0.1266
 5701SOL     OW22569   6.127   6.235   2.624 -0.4393 -0.0333 -0.2494
 5701SOL    HW222570   6.081   6.151   2.623 -0.1701 -0.2146 -2.2386
 5701SOL    HW322571   6.073   6.291   2.680 -2.0609 -0.8055 -0.9416
 5701SOL    MW422572   6.113   6.231   2.631 -0.6177 -0.1591 -0.6032
 5702SOL     OW22573   2.687   4.495   2.830 -0.0556 -0.6193  1.0350
 5702SOL    HW222574   2.772   4.454   2.846  1.0242  0.2433 -1.9654
 5702SOL    HW322575   2.701   4.588   2.850  0.6074  0.0226 -1.9492
 5702SOL    MW422576   2.700   4.502   2.835  0.1744 -0.4208  0.2454
 5703SOL     OW22577   1.955   5.327   2.412  0.4827  0.1917  0.7117
 5703SOL    HW222578   2.039   5.367   2.392  0.8318  0.6231  2.8258
 5703SOL    HW322579   1.952   5.248   2.359  2.5685 -0.2238  1.1430
 5703SOL    MW422580   1.966   5.322   2.403  0.8040  0.1938  1.0475
 5704SOL     OW22581   6.204   5.404   3.107 -0.3607  0.2820  0.1023
 5704SOL    HW222582   6.149   5.345   3.159 -0.7132 -0.3723 -0.9888
 5704SOL    HW322583   6.196   5.488   3.151  1.0069 -0.6669  2.3495
 5704SOL    MW422584   6.196   5.407   3.120 -0.2268  0.0705  0.2548
 5705SOL     OW22585   4.414   1.151   5.938 -0.4885 -0.2550 -0.0592
 5705SOL    HW222586   4.399   1.138   5.844  0.1403 -1.9681  0.0466
 5705SOL    HW322587   4.507   1.171   5.945 -0.1444 -1.8748  0.3206
 5705SOL    MW422588   4.424   1.152   5.926 -0.3602 -0.6948  0.0049
 5706SOL     OW22589   5.084   4.469   5.336 -0.2201  1.0231  0.9472
 5706SOL    HW222590   4.990   4.454   5.329 -0.5210  2.4870  1.4767
 5706SOL    HW322591   5.120   4.384   5.364 -1.1509  0.0210 -0.7795
 5706SOL    MW422592   5.076   4.456   5.339 -0.3826  1.0841  0.7892
 5707SOL     OW22593   1.517   0.475   2.295 -0.2209  0.7079  0.1676
 5707SOL    HW222594   1.501   0.548   2.355 -3.2205  0.5214 -0.2675
 5707SOL    HW322595   1.490   0.508   2.210 -1.5449 -0.8495 -0.0522
 5707SOL    MW422596   1.511   0.489   2.292 -0.7913  0.4778  0.0812
 5708SOL     OW22597   5.004   5.413   5.734 -0.2625  0.2604  0.0424
 5708SOL    HW222598   4.999   5.343   5.799  0.2642  1.3030  1.2450
 5708SOL    HW322599   5.063   5.379   5.666 -0.4417 -0.6588  0.3335
 5708SOL    MW422600   5.011   5.399   5.733 -0.2166  0.2767  0.2395
 5709SOL     OW22601   0.436   4.703   0.244 -0.5738  0.4430  0.3220
 5709SOL    HW222602   0.486   4.648   0.304  0.0727  0.4363 -0.2129
 5709SOL    HW322603   0.474   4.790   0.255 -0.2445  0.3829 -0.2928
 5709SOL    MW422604   0.448   4.707   0.254 -0.4450  0.4342  0.1703
 5710SOL     OW22605   0.774   3.092   2.125 -0.6904 -0.1177  1.0947
 5710SOL    HW222606   0.683   3.065   2.114 -0.6657 -0.2107  1.1218
 5710SOL    HW322607   0.815   3.021   2.174 -0.1417 -0.9952 -0.5635
 5710SOL    MW422608   0.767   3.079   2.130 -0.6148 -0.2458  0.8795
 5711SOL     OW22609   4.285   0.828   4.072  0.0095  0.2780  0.0273
 5711SOL    HW222610   4.253   0.870   4.152 -1.9223 -0.0633 -0.5229
 5711SOL    HW322611   4.223   0.854   4.005  1.8610  0.9456 -1.5057
 5711SOL    MW422612   4.272   0.837   4.074 -0.0011  0.3210 -0.2475
 5712SOL     OW22613   4.304   0.457   0.616 -0.3145 -0.2827 -0.5448
 5712SOL    HW222614   4.318   0.393   0.546 -0.2836 -0.5798 -0.2646
 5712SOL    HW322615   4.392   0.482   0.643 -0.3211  0.2639 -1.0038
 5712SOL    MW422616   4.317   0.452   0.610 -0.3113 -0.2498 -0.5684
 5713SOL     OW22617   4.494   6.409   2.668 -0.3482 -0.0906  0.8786
 5713SOL    HW222618   4.494   6.395   2.763  0.2229 -0.3316  0.8488
 5713SOL    HW322619   4.560   6.477   2.654 -1.5488  1.0986  0.7979
 5713SOL    MW422620   4.503   6.416   2.679 -0.4313  0.0345  0.8640
 5714SOL     OW22621   2.331   4.438   3.078  0.2387  0.0313  0.1308
 5714SOL    HW222622   2.415   4.406   3.111  0.3064 -1.2769 -1.2070
 5714SOL    HW322623   2.272   4.362   3.082 -1.0788  1.0755  1.6005
 5714SOL    MW422624   2.334   4.424   3.083  0.0738 -0.0035  0.1482
 5715SOL     OW22625   3.487   5.072   6.386  0.2605 -0.2772 -0.3725
 5715SOL    HW222626   3.452   5.161   6.378 -0.0361 -0.4478 -1.0825
 5715SOL    HW322627   3.548   5.063   6.313 -0.5737 -1.0350 -0.9991
 5715SOL    MW422628   3.490   5.082   6.376  0.1113 -0.3997 -0.5489
 5716SOL     OW22629   0.941   2.711   3.863 -0.3781  0.2457  0.5293
 5716SOL    HW222630   0.860   2.726   3.912  0.8288  1.8084  2.1917
 5716SOL    HW322631   0.996   2.786   3.885  1.5738 -0.8361 -0.4402
 5716SOL    MW422632   0.937   2.723   3.872  0.0387  0.3092  0.6207
 5717SOL     OW22633   4.416   1.025   3.528 -0.4483  0.1336 -0.3500
 5717SOL    HW222634   4.474   0.967   3.577 -1.8925 -0.7124  0.4233
 5717SOL    HW322635   4.435   1.112   3.562  0.6270 -0.0635 -0.4005
 5717SOL    MW422636   4.426   1.029   3.539 -0.4969 -0.0040 -0.2547
 5718SOL     OW22637   4.665   0.279   3.425  0.0873  0.3450 -0.9020
 5718SOL    HW222638   4.711   0.199   3.400 -0.2961 -0.0175 -0.4637
 5718SOL    HW322639   4.720   0.319   3.492 -0.4905 -0.3725  0.0209
 5718SOL    MW422640   4.678   0.274   3.431 -0.0395  0.2025 -0.7224
 5719SOL     OW22641   4.108   2.643   3.247  0.0458 -0.4503  0.0556
 5719SOL    HW222642   4.072   2.673   3.330  1.0603 -0.4171  0.5033
 5719SOL    HW322643   4.039   2.660   3.183 -0.2604  0.7381  0.6759
 5719SOL    MW422644   4.094   2.649   3.249  0.1392 -0.2891  0.1965
 5720SOL     OW22645   5.054   1.089   0.161  0.8057  0.6249  0.1568
 5720SOL    HW222646   4.987   1.075   0.227  1.8618 -1.3067  0.9199
 5720SOL    HW322647   5.087   1.177   0.177  1.1545  0.1429  2.3603
 5720SOL    MW422648   5.050   1.099   0.172  0.9910  0.3065  0.5482
 5721SOL     OW22649   4.887   0.307   0.488 -0.2338  0.3331  0.1214
 5721SOL    HW222650   4.881   0.215   0.512 -0.2661  0.1768 -0.4774
 5721SOL    HW322651   4.925   0.307   0.401 -1.7315  0.7994 -0.5591
 5721SOL    MW422652   4.891   0.295   0.480 -0.4357  0.3740 -0.0474
 5722SOL     OW22653   4.182   3.360   4.693 -0.2757 -0.1549  0.5588
 5722SOL    HW222654   4.221   3.332   4.776 -2.6610 -0.4890  1.6413
 5722SOL    HW322655   4.096   3.394   4.717 -1.1245 -0.4590 -1.7975
 5722SOL    MW422656   4.176   3.361   4.707 -0.7024 -0.2391  0.3907
 5723SOL     OW22657   0.857   0.106   5.351 -0.0755 -0.0363 -0.5068
 5723SOL    HW222658   0.889   0.163   5.422 -1.5868  0.3740 -0.1082
 5723SOL    HW322659   0.805   0.165   5.296  0.6318 -0.4749 -1.6726
 5723SOL    MW422660   0.854   0.121   5.353 -0.1816 -0.0400 -0.6080
 5724SOL     OW22661   3.364   3.579   0.007  0.2761 -0.3350  0.1345
 5724SOL    HW222662   3.314   3.532  -0.060 -0.8412 -0.8986  1.3112
 5724SOL    HW322663   3.390   3.511   0.069  1.9689  0.0601 -0.1079
 5724SOL    MW422664   3.361   3.564   0.006  0.3521 -0.3572  0.2578
 5725SOL     OW22665   2.362   0.409   3.018  0.2301 -0.4008  0.6072
 5725SOL    HW222666   2.344   0.378   2.929  0.1620 -3.8939  1.6855
 5725SOL    HW322667   2.290   0.468   3.038 -0.8275 -1.0790 -1.0100
 5725SOL    MW422668   2.350   0.413   3.009  0.0816 -0.9512  0.5361
 5726SOL     OW22669   0.653   3.423   1.076 -0.3599  0.1271 -0.1237
 5726SOL    HW222670   0.606   3.473   1.010 -0.5242  1.3479  0.8758
 5726SOL    HW322671   0.738   3.404   1.036 -0.4325  0.8929 -0.6637
 5726SOL    MW422672   0.658   3.427   1.062 -0.3912  0.3892 -0.0631
 5727SOL     OW22673   2.623   3.849   4.028  0.6574 -0.1310 -0.5259
 5727SOL    HW222674   2.658   3.791   3.960  0.6599  0.4756 -1.0511
 5727SOL    HW322675   2.545   3.888   3.987  0.5946  0.1500 -0.1372
 5727SOL    MW422676   2.617   3.846   4.013  0.6495 -0.0139 -0.5439
 5728SOL     OW22677   0.834   5.744   1.050 -0.3729 -0.3421 -0.3841
 5728SOL    HW222678   0.810   5.817   0.993  1.0606 -0.0463 -0.6606
 5728SOL    HW322679   0.867   5.786   1.130 -1.9937 -0.7486  0.5552
 5728SOL    MW422680   0.835   5.760   1.053 -0.3976 -0.3567 -0.2966
 5729SOL     OW22681   4.084   5.671   2.516 -0.5942 -0.9094 -0.3185
 5729SOL    HW222682   4.049   5.583   2.500 -0.1957 -1.2577  0.7008
 5729SOL    HW322683   4.138   5.689   2.439 -0.3137 -1.7397 -0.3274
 5729SOL    MW422684   4.086   5.662   2.504 -0.5046 -1.0649 -0.1852
 5730SOL     OW22685   3.938   4.806   4.037  0.5007  0.0287  0.0391
 5730SOL    HW222686   3.951   4.900   4.048  0.4016  0.1532 -0.8272
 5730SOL    HW322687   3.844   4.793   4.049  0.6023 -0.0540  0.7701
 5730SOL    MW422688   3.928   4.817   4.040  0.5011  0.0342  0.0212
 5731SOL     OW22689   6.075   2.607   3.164 -0.0780 -0.2394  0.1663
 5731SOL    HW222690   6.119   2.533   3.121  2.3992  1.3695 -0.3123
 5731SOL    HW322691   6.078   2.677   3.100 -1.2616  0.6614  1.0467
 5731SOL    MW422692   6.082   2.606   3.150  0.0927  0.0918  0.2193
 5732SOL     OW22693   6.275   4.679   5.074 -0.1063 -0.2219 -0.9519
 5732SOL    HW222694   6.197   4.629   5.096  1.0315 -1.7541 -0.2487
 5732SOL    HW322695   6.246   4.741   5.007 -2.2769  0.3787  0.4768
 5732SOL    MW422696   6.261   4.681   5.068 -0.2425 -0.3448 -0.6706
 5733SOL     OW22697   2.672   0.724   0.530  0.0806  0.4130  0.0015
 5733SOL    HW222698   2.730   0.658   0.568  0.5291  0.3697 -0.7307
 5733SOL    HW322699   2.649   0.690   0.444 -0.1533  0.9430 -0.1552
 5733SOL    MW422700   2.677   0.711   0.524  0.1089  0.4772 -0.1158
 5734SOL     OW22701   3.234   4.151   4.396  0.2449  0.3633  0.3170
 5734SOL    HW222702   3.145   4.119   4.381  0.4173  0.2811 -0.5716
 5734SOL    HW322703   3.264   4.102   4.473 -0.4337  0.3122  0.5562
 5734SOL    MW422704   3.226   4.140   4.405  0.1781  0.3457  0.2313
 5735SOL     OW22705   5.004   1.853   2.241 -0.7644 -0.1734 -1.0920
 5735SOL    HW222706   5.064   1.805   2.183  1.7296  3.0847 -1.4721
 5735SOL    HW322707   4.956   1.912   2.183 -1.8469 -0.2792 -0.3389
 5735SOL    MW422708   5.006   1.854   2.225 -0.5782  0.2425 -1.0428
 5736SOL     OW22709   4.483   0.542   4.944 -0.3844  0.0307 -0.2639
 5736SOL    HW222710   4.475   0.455   4.985 -1.2412  0.3983  0.3689
 5736SOL    HW322711   4.394   0.564   4.917  0.0341  0.1852 -1.5478
 5736SOL    MW422712   4.470   0.533   4.946 -0.4422  0.0996 -0.3498
 5737SOL     OW22713   3.053   5.283   0.825 -0.4425  0.2464  0.2106
 5737SOL    HW222714   2.969   5.306   0.785 -0.6609 -0.2331  0.3946
 5737SOL    HW322715   3.053   5.329   0.909  0.7478  2.7005 -0.9959
 5737SOL    MW422716   3.042   5.292   0.831 -0.3143  0.5069  0.0757
 5738SOL     OW22717   1.371   2.694   2.467  0.0887  1.1077 -0.5484
 5738SOL    HW222718   1.375   2.616   2.412  0.6469  0.2464  0.6702
 5738SOL    HW322719   1.278   2.715   2.472 -0.6113 -1.8454  2.2431
 5738SOL    MW422720   1.359   2.687   2.461  0.0700  0.6044 -0.0193
 5739SOL     OW22721   2.564   2.695   3.811 -0.1979  0.4391  0.1242
 5739SOL    HW222722   2.491   2.651   3.855 -0.0695  1.1086  1.0229
 5739SOL    HW322723   2.550   2.676   3.718 -1.5668  0.6256  0.2623
 5739SOL    MW422724   2.552   2.686   3.805 -0.3616  0.5521  0.2610
 5740SOL     OW22725   1.137   1.442   4.619 -0.7692  0.3866  0.4713
 5740SOL    HW222726   1.130   1.358   4.666  2.9021 -1.3433 -1.6134
 5740SOL    HW322727   1.200   1.493   4.671 -0.4715  0.4913  0.0090
 5740SOL    MW422728   1.145   1.437   4.632 -0.2455  0.1722  0.1352
 5741SOL     OW22729   0.429   1.301   3.854  0.1477 -0.3453 -0.2558
 5741SOL    HW222730   0.486   1.288   3.778 -1.4906  0.9786 -1.8325
 5741SOL    HW322731   0.344   1.323   3.815 -0.5192  1.3861  1.9675
 5741SOL    MW422732   0.425   1.302   3.839 -0.1564  0.0578 -0.1705
 5742SOL     OW22733   0.846   6.150   0.501  0.8894  0.1198 -0.7604
 5742SOL    HW222734   0.912   6.114   0.442  1.8090  0.8119 -0.1871
 5742SOL    HW322735   0.831   6.239   0.469  1.5199  0.5608  0.1168
 5742SOL    MW422736   0.853   6.157   0.489  1.0939  0.2693 -0.5691
 5743SOL     OW22737   4.738   0.341   2.868  0.2278  0.1384 -0.1439
 5743SOL    HW222738   4.770   0.326   2.957  0.8655 -0.1421 -0.4147
 5743SOL    HW322739   4.798   0.405   2.831 -0.1744  0.4300 -0.2970
 5743SOL    MW422740   4.750   0.347   2.875  0.2589  0.1399 -0.1998
 5744SOL     OW22741   0.127   0.597   1.887  0.2392 -0.1704 -0.2411
 5744SOL    HW222742   0.193   0.621   1.953 -0.0955  0.4317 -0.1255
 5744SOL    HW322743   0.138   0.502   1.878  1.0972 -0.0906 -0.1957
 5744SOL    MW422744   0.137   0.587   1.895  0.3083 -0.0805 -0.2199
 5745SOL     OW22745   4.301   5.728   2.734  0.5265 -0.0544 -0.8789
 5745SOL    HW222746   4.235   5.717   2.666  0.1872 -1.3977 -0.3517
 5745SOL    HW322747   4.379   5.685   2.699  0.4601 -0.4300 -0.5622
 5745SOL    MW422748   4.303   5.721   2.720  0.4730 -0.2812 -0.7675
 5746SOL     OW22749   1.714   1.879   0.875 -0.2198 -0.2430 -0.1885
 5746SOL    HW222750   1.722   1.971   0.902 -1.8111 -0.5120  1.3970
 5746SOL    HW322751   1.622   1.869   0.849 -0.2861 -1.5525  0.4368
 5746SOL    MW422752   1.703   1.890   0.875 -0.4385 -0.4512  0.1032
 5747SOL     OW22753   0.300   0.050   1.955  0.2668 -0.4829  0.0679
 5747SOL    HW222754   0.341   0.092   1.879  2.0238  0.8417  1.6592
 5747SOL    HW322755   0.367  -0.009   1.989  0.2549  0.3618  1.6589
 5747SOL    MW422756   0.314   0.048   1.949  0.4970 -0.1967  0.4878
 5748SOL     OW22757   5.872   1.793   5.857 -0.1472 -0.3276 -0.1197
 5748SOL    HW222758   5.797   1.736   5.876 -0.9165 -0.0607 -2.1053
 5748SOL    HW322759   5.924   1.744   5.793  1.7855 -0.7806  1.6832
 5748SOL    MW422760   5.869   1.779   5.851  0.0063 -0.3521 -0.1438
 5749SOL     OW22761   5.745   3.454   5.391 -0.8298 -0.0884 -0.1211
 5749SOL    HW222762   5.660   3.448   5.435 -0.9611  0.0619 -0.3527
 5749SOL    HW322763   5.761   3.365   5.358 -1.9292  0.3408 -1.9741
 5749SOL    MW422764   5.736   3.441   5.392 -0.9922 -0.0119 -0.3962
 5750SOL     OW22765   4.324   4.358   3.999 -0.3740 -0.3922 -0.1834
 5750SOL    HW222766   4.377   4.370   4.078 -0.1040 -0.5341 -0.3407
 5750SOL    HW322767   4.239   4.329   4.031 -0.3503 -0.1875  0.0700
 5750SOL    MW422768   4.320   4.356   4.014 -0.3353 -0.3839 -0.1707
 5751SOL     OW22769   3.483   5.590   0.452 -0.1221  0.3210  0.1890
 5751SOL    HW222770   3.483   5.506   0.406  0.1891  0.6812 -0.4784
 5751SOL    HW322771   3.390   5.614   0.457 -0.2244 -0.1316  0.5184
 5751SOL    MW422772   3.471   5.582   0.447 -0.0946  0.3088  0.1444
 5752SOL     OW22773   2.280   5.554   3.980 -0.4109  0.0749  0.0485
 5752SOL    HW222774   2.310   5.620   3.918 -0.1570  0.3098  0.4195
 5752SOL    HW322775   2.318   5.580   4.064 -0.8900 -0.1423  0.3398
 5752SOL    MW422776   2.289   5.566   3.983 -0.4406  0.0772  0.1359
 5753SOL     OW22777   0.318   5.982   0.796 -0.3662 -0.2136 -0.4266
 5753SOL    HW222778   0.247   5.958   0.737 -1.7202  0.2399  0.9470
 5753SOL    HW322779   0.306   5.925   0.872  1.1951 -0.6260 -0.4535
 5753SOL    MW422780   0.307   5.972   0.799 -0.3388 -0.2082 -0.2490
 5754SOL     OW22781   1.427   3.818   4.997 -0.5326  0.8516  0.2038
 5754SOL    HW222782   1.340   3.787   5.020 -0.9078  1.6943 -0.0589
 5754SOL    HW322783   1.413   3.879   4.925  0.4796 -0.6199 -1.3175
 5754SOL    MW422784   1.414   3.822   4.990 -0.4486  0.7687 -0.0316
 5755SOL     OW22785   0.853   5.322   6.268  0.1496  0.0561 -0.1373
 5755SOL    HW222786   0.759   5.317   6.285 -0.0040  1.3369 -0.5151
 5755SOL    HW322787   0.865   5.403   6.219  1.3155 -0.6264 -1.0626
 5755SOL    MW422788   0.842   5.332   6.264  0.2832  0.1350 -0.3093
 5756SOL     OW22789   3.664   4.870   4.436  0.3224  0.1998  0.0244
 5756SOL    HW222790   3.681   4.944   4.378 -0.6144  0.6758  0.3318
 5756SOL    HW322791   3.728   4.879   4.507  0.7785  0.2170 -0.3890
 5756SOL    MW422792   3.675   4.881   4.438  0.2590  0.2649  0.0104
 5757SOL     OW22793   1.360   3.985   4.498  0.0903 -0.2415 -0.2395
 5757SOL    HW222794   1.342   4.006   4.590  0.2086  2.8289 -0.7947
 5757SOL    HW322795   1.295   3.919   4.475  0.4858 -1.5683  2.1865
 5757SOL    MW422796   1.349   3.979   4.507  0.1581 -0.0114  0.0073
 5758SOL     OW22797   6.307   1.585   2.442 -0.4011 -0.1796  0.0751
 5758SOL    HW222798   6.262   1.584   2.526 -2.5289 -2.7233 -0.9379
 5758SOL    HW322799   6.318   1.678   2.422 -0.7211  0.5046  2.6590
 5758SOL    MW422800   6.303   1.597   2.450 -0.7241 -0.4249  0.2824
 5759SOL     OW22801   2.174   6.283   2.714 -0.2617 -0.5017  0.4357
 5759SOL    HW222802   2.210   6.366   2.745 -1.5764  0.0143  0.6420
 5759SOL    HW322803   2.246   6.243   2.665  0.1557  1.1031 -0.3216
 5759SOL    MW422804   2.188   6.289   2.712 -0.3801 -0.2219  0.3630
 5760SOL     OW22805   5.388   3.939   1.378 -0.1216  0.3337 -0.4013
 5760SOL    HW222806   5.323   3.996   1.420 -0.9305  0.4179 -1.6967
 5760SOL    HW322807   5.472   3.980   1.397 -0.5784  1.1524 -0.0901
 5760SOL    MW422808   5.390   3.952   1.386 -0.2886  0.4528 -0.5311
 5761SOL     OW22809   3.348   5.380   1.732  0.0894  0.1202  0.1317
 5761SOL    HW222810   3.359   5.473   1.712 -0.7948  0.1494 -0.2529
 5761SOL    HW322811   3.436   5.343   1.722  0.3570  0.8216 -0.1712
 5761SOL    MW422812   3.361   5.387   1.728  0.0080  0.2166  0.0410
 5762SOL     OW22813   3.610   1.861   1.478 -0.1015 -0.0590  0.3037
 5762SOL    HW222814   3.625   1.769   1.455 -1.5524 -0.5318  1.1370
 5762SOL    HW322815   3.649   1.871   1.565 -3.0751 -0.9320  1.8689
 5762SOL    MW422816   3.617   1.850   1.486 -0.6853 -0.2365  0.6202
 5763SOL     OW22817   1.241   4.039   2.080  0.1896 -0.7309  0.2112
 5763SOL    HW222818   1.305   4.068   2.015 -1.3567  2.4165 -0.1029
 5763SOL    HW322819   1.169   4.005   2.028 -0.2156 -0.0730  0.3290
 5763SOL    MW422820   1.240   4.039   2.065 -0.0679 -0.2288  0.1853
 5764SOL     OW22821   2.224   1.537   2.941 -0.0242  0.4779 -0.5174
 5764SOL    HW222822   2.262   1.472   3.001  0.3983  1.1858 -0.0114
 5764SOL    HW322823   2.137   1.502   2.921  0.4748 -0.6345 -0.8602
 5764SOL    MW422824   2.218   1.524   2.946  0.0974  0.4245 -0.4959
 5765SOL     OW22825   0.698   6.221   4.177 -0.5546 -0.2075 -0.1815
 5765SOL    HW222826   0.736   6.152   4.122  0.4407 -0.9337  1.3663
 5765SOL    HW322827   0.608   6.191   4.194 -0.6794 -0.2630 -0.9021
 5765SOL    MW422828   0.691   6.208   4.172 -0.4397 -0.3107 -0.0724
 5766SOL     OW22829   5.945   1.571   6.114  0.0036 -0.5793 -0.1424
 5766SOL    HW222830   5.986   1.509   6.174  0.3935 -0.7894 -0.6231
 5766SOL    HW322831   5.963   1.657   6.153  0.0881 -0.7202  0.1361
 5766SOL    MW422832   5.952   1.574   6.127  0.0662 -0.6256 -0.1691
 5767SOL     OW22833   6.369   6.232   0.277  0.1858  0.6501 -0.0460
 5767SOL    HW222834   6.392   6.317   0.315 -1.0044  0.8965  0.1738
 5767SOL    HW322835   6.273   6.228   0.284  0.1704 -0.4219 -0.6679
 5767SOL    MW422836   6.359   6.243   0.283  0.0267  0.5412 -0.0990
 5768SOL     OW22837   5.327   2.119   0.956  0.1528 -0.2309  0.7312
 5768SOL    HW222838   5.329   2.048   0.891  0.7993 -2.0014  2.5789
 5768SOL    HW322839   5.332   2.199   0.904 -0.1769 -1.5306 -1.4315
 5768SOL    MW422840   5.328   2.120   0.941  0.1946 -0.6360  0.6896
 5769SOL     OW22841   3.200   3.060   2.015  0.3103 -0.0760  0.5503
 5769SOL    HW222842   3.197   3.099   1.928 -2.1418 -3.1283 -0.9193
 5769SOL    HW322843   3.112   3.075   2.051  0.8595 -0.0417  1.9480
 5769SOL    MW422844   3.188   3.067   2.008  0.0593 -0.4742  0.5408
 5770SOL     OW22845   0.478   1.326   5.229  0.5891 -0.0289 -0.3789
 5770SOL    HW222846   0.484   1.275   5.148 -0.2801  0.0743 -0.5216
 5770SOL    HW322847   0.527   1.274   5.293 -0.9555 -1.5116 -0.3188
 5770SOL    MW422848   0.485   1.312   5.227  0.2706 -0.2109 -0.3898
 5771SOL     OW22849   3.205   0.333   5.821 -0.4822 -0.7396  0.2410
 5771SOL    HW222850   3.288   0.315   5.776 -0.7633 -0.0517 -0.5932
 5771SOL    HW322851   3.170   0.247   5.842 -0.1474 -1.0782 -0.5286
 5771SOL    MW422852   3.211   0.319   5.818 -0.4751 -0.6935  0.0294
 5772SOL     OW22853   4.725   4.450   3.237 -0.0807 -0.2171 -0.1298
 5772SOL    HW222854   4.732   4.541   3.266 -1.2045 -0.5110  1.1229
 5772SOL    HW322855   4.765   4.399   3.307 -0.8302 -0.7895 -0.1105
 5772SOL    MW422856   4.731   4.455   3.250 -0.3278 -0.3314  0.0380
 5773SOL     OW22857   3.250   1.111   4.342  0.2336  0.8430 -0.2217
 5773SOL    HW222858   3.239   1.199   4.307  0.8163  2.3202  2.8950
 5773SOL    HW322859   3.334   1.113   4.388 -0.9396 -0.4053  2.2242
 5773SOL    MW422860   3.259   1.123   4.344  0.1557  0.8732  0.5122
 5774SOL     OW22861   0.379   4.318   4.463  0.7899  0.4205  0.0238
 5774SOL    HW222862   0.327   4.381   4.414 -2.2963 -1.5319  0.5254
 5774SOL    HW322863   0.362   4.339   4.555  1.4527  0.1513  0.2147
 5774SOL    MW422864   0.370   4.329   4.469  0.4702  0.1274  0.1152
 5775SOL     OW22865   4.041   6.361   3.483  0.2914  0.2194  0.0872
 5775SOL    HW222866   4.104   6.432   3.498 -1.3168  1.6327  0.5311
 5775SOL    HW322867   4.003   6.344   3.570  1.2513 -1.8364  0.1598
 5775SOL    MW422868   4.044   6.368   3.497  0.2059  0.1346  0.1554
 5776SOL     OW22869   5.351   3.799   5.535 -0.2504  0.0859 -0.0659
 5776SOL    HW222870   5.339   3.715   5.580  1.2603  0.5038  1.2203
 5776SOL    HW322871   5.343   3.865   5.604 -0.3068  0.9271 -0.8585
 5776SOL    MW422872   5.348   3.796   5.550 -0.0585  0.2520 -0.0008
 5777SOL     OW22873   6.333   0.791   1.892 -0.4004  0.4329 -0.0694
 5777SOL    HW222874   6.388   0.717   1.868  0.6905  0.9243  0.7915
 5777SOL    HW322875   6.254   0.752   1.929  0.8926 -0.3612  2.0061
 5777SOL    MW422876   6.330   0.776   1.894 -0.0859  0.3929  0.3180
 5778SOL     OW22877   0.058   4.684   4.300  0.7513 -0.1953 -0.2106
 5778SOL    HW222878   0.077   4.752   4.236  0.4164  0.2356  0.1405
 5778SOL    HW322879   0.087   4.721   4.383  0.0339 -0.2416  0.0673
 5778SOL    MW422880   0.064   4.698   4.302  0.6124 -0.1445 -0.1276
 5779SOL     OW22881   3.649   0.064   2.922 -0.5867 -0.1691  0.2914
 5779SOL    HW222882   3.598   0.093   2.847  1.0830 -2.2166 -1.7988
 5779SOL    HW322883   3.601  -0.010   2.957 -1.0791  0.4427  0.9486
 5779SOL    MW422884   3.636   0.058   2.917 -0.4314 -0.3585  0.1024
 5780SOL     OW22885   3.171   5.520   0.674  0.5940  0.3070  0.3689
 5780SOL    HW222886   3.259   5.483   0.667  0.0104 -0.9851 -0.6832
 5780SOL    HW322887   3.116   5.446   0.698 -0.4834  0.6755 -0.8532
 5780SOL    MW422888   3.175   5.505   0.676  0.3749  0.1851  0.0689
 5781SOL     OW22889   2.913   0.848   0.457  0.2948 -0.4310  0.7329
 5781SOL    HW222890   2.828   0.809   0.478  0.5910 -1.6696 -0.2778
 5781SOL    HW322891   2.937   0.898   0.535 -0.4841 -1.5865  1.7339
 5781SOL    MW422892   2.905   0.850   0.470  0.2311 -0.7469  0.7316
 5782SOL     OW22893   1.437   1.818   0.848  0.5866 -0.4552 -0.2967
 5782SOL    HW222894   1.431   1.912   0.832 -1.1932 -0.5313 -0.3274
 5782SOL    HW322895   1.396   1.778   0.772  1.3565 -1.2718 -0.2966
 5782SOL    MW422896   1.431   1.825   0.836  0.4534 -0.5730 -0.3007
 5783SOL     OW22897   5.635   5.623   5.120 -0.6953 -0.5358 -0.0363
 5783SOL    HW222898   5.585   5.701   5.142 -0.2911 -0.8283  2.1838
 5783SOL    HW322899   5.724   5.642   5.150 -0.6200 -1.8521  0.6564
 5783SOL    MW422900   5.640   5.636   5.127 -0.6320 -0.7480  0.3480
 5784SOL     OW22901   4.984   1.818   0.734  0.0322 -0.0623  0.2111
 5784SOL    HW222902   4.958   1.746   0.791 -1.5839 -0.3943 -0.8574
 5784SOL    HW322903   4.927   1.890   0.759 -1.0466 -0.3542 -1.2205
 5784SOL    MW422904   4.973   1.818   0.745 -0.3234 -0.1446 -0.1188
 5785SOL     OW22905   4.777   2.200   3.972 -0.8121 -0.1899  0.4248
 5785SOL    HW222906   4.744   2.140   3.906 -0.9821 -0.7932  1.0535
 5785SOL    HW322907   4.711   2.270   3.975 -1.3656 -0.7142  0.7289
 5785SOL    MW422908   4.764   2.202   3.964 -0.9076 -0.3387  0.5479
 5786SOL     OW22909   0.675   3.608   1.313  0.1147  0.2733  0.6784
 5786SOL    HW222910   0.763   3.647   1.313 -0.4353  1.5857 -0.0857
 5786SOL    HW322911   0.673   3.553   1.235  1.0192 -1.6874  1.9560
 5786SOL    MW422912   0.687   3.606   1.303  0.1615  0.1878  0.7461
 5787SOL     OW22913   2.305   2.882   0.705 -0.0766 -0.0489  0.4610
 5787SOL    HW222914   2.381   2.829   0.679  2.2685  2.6495  1.3397
 5787SOL    HW322915   2.231   2.823   0.694  2.1294 -2.9684 -0.1833
 5787SOL    MW422916   2.305   2.867   0.700  0.5239 -0.0781  0.4919
 5788SOL     OW22917   1.731   1.439   3.484  0.1532 -0.1193 -0.4236
 5788SOL    HW222918   1.659   1.399   3.533 -1.2769  2.4304 -0.2820
 5788SOL    HW322919   1.691   1.462   3.400 -0.1606  3.8690  0.6358
 5788SOL    MW422920   1.716   1.437   3.479 -0.0769  0.7433 -0.2651
 5789SOL     OW22921   3.027   6.060   0.297 -0.2101  0.5067 -0.4632
 5789SOL    HW222922   3.039   6.113   0.217 -0.3369  1.0549 -0.1221
 5789SOL    HW322923   3.010   5.972   0.264  0.1915  0.6331 -1.0403
 5789SOL    MW422924   3.026   6.056   0.282 -0.1738  0.5957 -0.4943
 5790SOL     OW22925   0.925   2.040   5.182  0.0578 -0.1156  0.1435
 5790SOL    HW222926   0.877   2.089   5.116  1.5365  0.0077 -0.8846
 5790SOL    HW322927   0.872   2.048   5.261 -0.8386  1.2641 -0.5626
 5790SOL    MW422928   0.912   2.047   5.184  0.1346  0.0827 -0.0853
 5791SOL     OW22929   2.258   2.900   3.649  0.1849 -0.4538  0.6881
 5791SOL    HW222930   2.207   2.964   3.599  0.6699 -1.0383 -0.5941
 5791SOL    HW322931   2.346   2.905   3.612  0.0172 -2.5286 -0.1519
 5791SOL    MW422932   2.263   2.909   3.637  0.2268 -0.8047  0.4081
 5792SOL     OW22933   3.841   3.666   5.760 -0.1257 -0.0761  0.0808
 5792SOL    HW222934   3.924   3.633   5.792 -0.4821 -0.3432  0.7423
 5792SOL    HW322935   3.820   3.739   5.818  0.2742  0.8296 -0.8850
 5792SOL    MW422936   3.849   3.671   5.772 -0.1200  0.0081  0.0406
 5793SOL     OW22937   4.170   2.809   4.809 -0.7731  0.6135 -0.3957
 5793SOL    HW222938   4.190   2.844   4.896  0.9744  1.6937 -1.1635
 5793SOL    HW322939   4.193   2.716   4.815 -0.1867  0.7860  0.1635
 5793SOL    MW422940   4.176   2.801   4.822 -0.4652  0.7788 -0.4232
 5794SOL     OW22941   3.976   2.743   6.102 -0.3104 -0.0871  0.3989
 5794SOL    HW222942   4.061   2.731   6.146 -0.8184  1.8810  2.0362
 5794SOL    HW322943   3.979   2.832   6.067 -1.6115 -0.0786  0.2737
 5794SOL    MW422944   3.988   2.753   6.103 -0.5491  0.1737  0.5984
 5795SOL     OW22945   5.418   0.245   3.230 -0.4788 -0.0255 -0.1486
 5795SOL    HW222946   5.435   0.234   3.324 -0.6300 -0.2070 -0.1423
 5795SOL    HW322947   5.480   0.312   3.202 -3.0076  3.0089  0.8994
 5795SOL    MW422948   5.429   0.252   3.239 -0.8324  0.3509 -0.0095
 5796SOL     OW22949   3.566   1.218   5.859  0.3709  0.0179 -0.4351
 5796SOL    HW222950   3.648   1.245   5.900  0.3681  0.0641 -0.4593
 5796SOL    HW322951   3.508   1.294   5.870  0.1581 -0.2152  0.0587
 5796SOL    MW422952   3.569   1.232   5.866  0.3424 -0.0068 -0.3731
 5797SOL     OW22953   2.219   1.070   0.980 -0.2107 -0.6519 -0.4635
 5797SOL    HW222954   2.294   1.058   1.038 -0.8592  0.4845  0.6440
 5797SOL    HW322955   2.178   0.983   0.976 -1.0737 -0.4279  2.0890
 5797SOL    MW422956   2.224   1.057   0.987 -0.4101 -0.4724  0.0194
 5798SOL     OW22957   1.271   5.037   3.106 -0.2798  0.4247  0.0761
 5798SOL    HW222958   1.309   5.061   3.022  1.3238  1.2687  1.0019
 5798SOL    HW322959   1.176   5.036   3.090 -0.1124  2.2961 -1.3086
 5798SOL    MW422960   1.263   5.040   3.093 -0.0461  0.7830  0.0156
 5799SOL     OW22961   3.060   4.589   1.737  0.0871  0.4277  0.0719
 5799SOL    HW222962   3.044   4.640   1.816  0.9336 -0.7228  1.0346
 5799SOL    HW322963   3.155   4.593   1.725 -0.0493  0.6889 -0.9656
 5799SOL    MW422964   3.071   4.596   1.746  0.1808  0.3103  0.0621
 5800SOL     OW22965   1.492   2.677   4.508 -0.0476  0.0910 -0.0313
 5800SOL    HW222966   1.565   2.733   4.534 -1.4485  1.7041  0.6440
 5800SOL    HW322967   1.459   2.641   4.591  0.3321 -1.1344 -0.3892
 5800SOL    MW422968   1.497   2.680   4.523 -0.1823  0.1421  0.0106
 5801SOL     OW22969   2.662   5.968   2.037  1.1121  0.0576  0.4769
 5801SOL    HW222970   2.613   6.023   2.098 -0.0718 -0.7020  0.2458
 5801SOL    HW322971   2.699   5.898   2.091  0.5551 -0.2845  0.4267
 5801SOL    MW422972   2.661   5.966   2.052  0.8824 -0.0877  0.4398
 5802SOL     OW22973   5.245   3.039   1.859 -0.4776  0.1751 -0.4507
 5802SOL    HW222974   5.270   2.959   1.812 -0.2096  0.5700 -0.9810
 5802SOL    HW322975   5.322   3.096   1.853 -0.3294  0.1397  0.6995
 5802SOL    MW422976   5.259   3.036   1.852 -0.4227  0.2225 -0.3689
 5803SOL     OW22977   1.483   2.220   6.358 -0.6537  0.7075  0.1478
 5803SOL    HW222978   1.431   2.233   6.278  0.2553  0.5303 -0.4869
 5803SOL    HW322979   1.548   2.153   6.333 -1.5751 -0.8100  1.6127
 5803SOL    MW422980   1.484   2.213   6.344 -0.6553  0.4839  0.2573
 5804SOL     OW22981   6.096   3.489   5.890 -0.3738  0.0352 -0.1077
 5804SOL    HW222982   6.176   3.468   5.843  0.0535 -1.2626  1.1026
 5804SOL    HW322983   6.096   3.584   5.898 -1.0094  0.4541 -3.5455
 5804SOL    MW422984   6.106   3.499   5.885 -0.4013 -0.0807 -0.4016
 5805SOL     OW22985   5.774   0.216   5.608 -0.2539  0.1645 -0.1830
 5805SOL    HW222986   5.758   0.259   5.692  0.8219 -0.1824  0.2049
 5805SOL    HW322987   5.688   0.217   5.564 -0.5038  1.6525  0.2939
 5805SOL    MW422988   5.760   0.222   5.613 -0.1449  0.3151 -0.0689
 5806SOL     OW22989   3.712   1.964   6.375 -0.1343 -0.0877  0.3948
 5806SOL    HW222990   3.688   2.010   6.455 -2.1196  1.2500 -0.8856
 5806SOL    HW322991   3.639   1.904   6.359 -0.9201  1.2826 -1.5515
 5806SOL    MW422992   3.699   1.962   6.383 -0.4999  0.2696 -0.0309
 5807SOL     OW22993   5.160   2.692   2.009  0.0058 -0.2190 -0.2240
 5807SOL    HW222994   5.222   2.630   2.049 -0.0249 -0.1246 -0.0298
 5807SOL    HW322995   5.150   2.660   1.919 -0.0868 -0.5563 -0.0974
 5807SOL    MW422996   5.167   2.679   2.003 -0.0105 -0.2510 -0.1817
 5808SOL     OW22997   3.507   5.924   0.570 -0.1340 -0.7962 -0.5599
 5808SOL    HW222998   3.487   5.835   0.597 -1.4156 -0.2911  0.3035
 5808SOL    HW322999   3.438   5.946   0.507  1.3239 -1.0679 -2.3071
 5808SOL    MW423000   3.495   5.915   0.566 -0.1107 -0.7654 -0.6765
 5809SOL     OW23001   2.414   0.332   2.693  0.3896  0.2722  0.4493
 5809SOL    HW223002   2.494   0.300   2.735  1.9626  1.0620 -1.7114
 5809SOL    HW323003   2.425   0.427   2.689 -0.2543  0.3255 -0.6062
 5809SOL    MW423004   2.426   0.340   2.698  0.5122  0.3835  0.0250
 5810SOL     OW23005   5.110   2.014   0.551  0.2354 -0.4678 -0.4374
 5810SOL    HW223006   5.031   2.037   0.500  0.5596 -1.1067 -1.2516
 5810SOL    HW323007   5.085   1.935   0.599  0.4155 -0.7448 -0.7957
 5810SOL    MW423008   5.096   2.007   0.550  0.3019 -0.5887 -0.5921
 5811SOL     OW23009   2.450   2.875   1.886 -0.4390  0.5076 -0.7912
 5811SOL    HW223010   2.462   2.871   1.791 -1.3949  1.7659 -0.9909
 5811SOL    HW323011   2.380   2.812   1.904 -0.9302  0.9586 -1.0705
 5811SOL    MW423012   2.442   2.866   1.875 -0.6299  0.7331 -0.8544
 5812SOL     OW23013   0.649   2.613   6.043 -0.0820 -0.2953  0.1942
 5812SOL    HW223014   0.684   2.537   5.996 -0.5293 -0.5851  0.3241
 5812SOL    HW323015   0.712   2.683   6.025  1.5689 -1.2410  1.8402
 5812SOL    MW423016   0.662   2.612   6.035  0.0768 -0.4583  0.4285
 5813SOL     OW23017   5.867   6.052   5.652  1.0837  0.1393 -0.3032
 5813SOL    HW223018   5.836   5.991   5.585 -2.1500  1.5655 -0.2880
 5813SOL    HW323019   5.932   6.106   5.607  0.8231 -0.5654 -1.5704
 5813SOL    MW423020   5.871   6.051   5.638  0.6227  0.2345 -0.4684
 5814SOL     OW23021   3.968   4.676   0.660  0.1259  0.2827  0.1880
 5814SOL    HW223022   3.991   4.625   0.582  1.0429  1.9224 -0.6821
 5814SOL    HW323023   3.920   4.751   0.626  1.8101  1.8091  0.9632
 5814SOL    MW423024   3.965   4.679   0.645  0.4691  0.7004  0.1754
 5815SOL     OW23025   1.023   5.019   4.503  0.2793  0.2724  0.4278
 5815SOL    HW223026   1.022   4.985   4.593  1.2676 -0.6239  0.1179
 5815SOL    HW323027   1.092   5.085   4.503 -0.2370  0.8274  0.4996
 5815SOL    MW423028   1.032   5.023   4.515  0.3416  0.2274  0.3964
 5816SOL     OW23029   1.885   3.062   0.052 -0.7645  0.5292 -0.1189
 5816SOL    HW223030   1.938   3.083   0.129 -1.4788  0.5649  0.3824
 5816SOL    HW323031   1.919   2.979   0.020 -2.0290 -0.7748  1.7284
 5816SOL    MW423032   1.896   3.054   0.058 -1.0256  0.3619  0.1910
 5817SOL     OW23033   2.523   1.452   4.772  0.1706 -0.7341  0.8517
 5817SOL    HW223034   2.619   1.451   4.780  0.3111 -0.3767 -0.4691
 5817SOL    HW323035   2.504   1.384   4.707 -0.4104 -0.4410  0.7111
 5817SOL    MW423036   2.533   1.443   4.764  0.1125 -0.6482  0.6589
 5818SOL     OW23037   3.198   4.721   3.042 -0.2482 -0.1099  0.3399
 5818SOL    HW223038   3.117   4.739   2.995 -1.3293 -0.5538  1.9399
 5818SOL    HW323039   3.255   4.795   3.023 -1.2764  0.5373 -0.2669
 5818SOL    MW423040   3.195   4.733   3.033 -0.5265 -0.0831  0.4709
 5819SOL     OW23041   4.207   6.442   0.919 -0.7023 -0.8768 -0.0566
 5819SOL    HW223042   4.217   6.355   0.883 -0.2830 -1.1160  0.6200
 5819SOL    HW323043   4.119   6.442   0.957 -1.4809 -0.3500 -1.7655
 5819SOL    MW423044   4.196   6.431   0.920 -0.7497 -0.8389 -0.1928
 5820SOL     OW23045   3.596   2.444   1.443 -0.0527  0.1190  0.1396
 5820SOL    HW223046   3.541   2.516   1.411 -1.5396 -0.4126  1.3720
 5820SOL    HW323047   3.685   2.474   1.427 -0.6458  1.8662 -0.1676
 5820SOL    MW423048   3.600   2.458   1.437 -0.3272  0.2794  0.2617
 5821SOL     OW23049   4.543   3.158   5.412 -0.0895 -0.1630  0.3065
 5821SOL    HW223050   4.518   3.067   5.397  0.4778 -0.4491  1.0495
 5821SOL    HW323051   4.472   3.194   5.465 -1.0957  0.2879 -1.2736
 5821SOL    MW423052   4.531   3.151   5.417 -0.1474 -0.1413  0.1961
 5822SOL     OW23053   0.914   0.383   2.764 -0.2094  0.2488  0.1502
 5822SOL    HW223054   0.938   0.473   2.783  0.1962 -0.0097  0.8749
 5822SOL    HW323055   0.851   0.390   2.691 -0.3669  1.1211  0.3606
 5822SOL    MW423056   0.909   0.396   2.757 -0.1766  0.3298  0.2736
 5823SOL     OW23057   0.031   3.439   6.035  0.1125 -0.1637  0.1606
 5823SOL    HW223058   0.007   3.467   5.947  1.2094 -1.2528 -0.5130
 5823SOL    HW323059  -0.039   3.378   6.061 -0.5624  0.6668  0.3347
 5823SOL    MW423060   0.019   3.435   6.027  0.1682 -0.1978  0.0947
 5824SOL     OW23061   3.216   5.476   2.270 -0.2303  0.1592  0.2916
 5824SOL    HW223062   3.199   5.430   2.352 -0.4878 -0.2815 -0.0042
 5824SOL    HW323063   3.260   5.412   2.215  0.0965  0.5061  0.1432
 5824SOL    MW423064   3.219   5.462   2.274 -0.2211  0.1468  0.2330
 5825SOL     OW23065   0.766   5.966   3.086  0.3954 -0.4172 -0.5639
 5825SOL    HW223066   0.695   5.939   3.144  1.3705 -1.8514  0.0464
 5825SOL    HW323067   0.762   5.905   3.012  0.8277 -0.3692 -0.6338
 5825SOL    MW423068   0.756   5.954   3.084  0.5811 -0.6001 -0.4926
 5826SOL     OW23069   3.041   5.940   5.008  0.0674 -0.0286 -0.6176
 5826SOL    HW223070   3.122   5.946   4.957 -0.5065  0.6570 -1.4953
 5826SOL    HW323071   2.972   5.947   4.942 -0.7008 -0.1049  0.1713
 5826SOL    MW423072   3.043   5.942   4.992 -0.1097  0.0518 -0.6293
 5827SOL     OW23073   5.259   4.668   3.124 -0.5635 -0.1341 -0.7970
 5827SOL    HW223074   5.348   4.666   3.160 -0.9614  0.6526  0.2726
 5827SOL    HW323075   5.227   4.579   3.136  0.3949 -0.6948 -2.0811
 5827SOL    MW423076   5.267   4.656   3.131 -0.4895 -0.1043 -0.8253
 5828SOL     OW23077   5.231   5.950   5.898 -0.0556 -0.0977 -0.5840
 5828SOL    HW223078   5.150   5.927   5.942 -0.0566 -0.3772 -0.7298
 5828SOL    HW323079   5.221   6.042   5.876 -0.8535 -0.4361 -1.7174
 5828SOL    MW423080   5.219   5.959   5.901 -0.1610 -0.1792 -0.7528
 5829SOL     OW23081   2.578   6.077   3.692 -0.3560  0.0312 -0.0425
 5829SOL    HW223082   2.570   6.021   3.615 -1.5539  2.0187 -1.4695
 5829SOL    HW323083   2.487   6.101   3.713  0.1048  1.3330  0.5583
 5829SOL    MW423084   2.565   6.073   3.684 -0.4532  0.4652 -0.1515
 5830SOL     OW23085   3.645   3.868   2.367 -0.2259 -0.2968 -0.0942
 5830SOL    HW223086   3.626   3.777   2.390  0.0947 -0.4076 -0.2640
 5830SOL    HW323087   3.572   3.895   2.311  0.4087 -0.9198 -1.2606
 5830SOL    MW423088   3.633   3.860   2.362 -0.0999 -0.3936 -0.2705
 5831SOL     OW23089   5.593   5.226   1.772  0.3354  0.0170 -0.1233
 5831SOL    HW223090   5.558   5.145   1.809  1.4674 -0.4356 -0.0017
 5831SOL    HW323091   5.538   5.243   1.696 -0.8494 -0.0499  0.6963
 5831SOL    MW423092   5.581   5.217   1.767  0.3285 -0.0516  0.0009
 5832SOL     OW23093   3.184   3.041   3.401  0.0837  0.0305 -0.0199
 5832SOL    HW223094   3.110   3.079   3.448  0.4358  0.6830  0.0188
 5832SOL    HW323095   3.247   3.113   3.393  0.1045 -0.1079 -1.3393
 5832SOL    MW423096   3.183   3.056   3.406  0.1329  0.0983 -0.1889
 5833SOL     OW23097   2.728   1.688   3.521 -0.1841  0.0453 -0.3301
 5833SOL    HW223098   2.784   1.616   3.496  0.6243  0.0196  1.4512
 5833SOL    HW323099   2.642   1.648   3.535  0.2324 -0.5529  0.5415
 5833SOL    MW423100   2.724   1.673   3.519 -0.0225 -0.0371  0.0199
 5834SOL     OW23101   3.037   0.746   6.351  0.3776  0.4393 -0.4694
 5834SOL    HW223102   3.127   0.774   6.368  0.0748  1.1990 -0.0508
 5834SOL    HW323103   3.009   0.703   6.432 -0.0545  1.3660 -0.1030
 5834SOL    MW423104   3.045   0.744   6.364  0.2806  0.6618 -0.3658
 5835SOL     OW23105   5.661   4.792   2.239 -0.0597 -0.2117  0.2735
 5835SOL    HW223106   5.578   4.795   2.286 -0.5807  0.3657 -0.6555
 5835SOL    HW323107   5.638   4.814   2.149  0.7269 -2.4909 -0.5557
 5835SOL    MW423108   5.647   4.795   2.234 -0.0246 -0.4362  0.0416
 5836SOL     OW23109   4.447   2.053   2.178 -0.3510 -0.5258 -0.4855
 5836SOL    HW223110   4.529   2.038   2.225 -0.0175 -1.6281 -1.3586
 5836SOL    HW323111   4.473   2.099   2.098 -0.9524  1.6532  0.5068
 5836SOL    MW423112   4.461   2.057   2.173 -0.3863 -0.3837 -0.4698
 5837SOL     OW23113   3.935   5.167   4.320  0.6248  0.1021  0.2394
 5837SOL    HW223114   3.841   5.153   4.308  0.4761  2.1724 -1.5488
 5837SOL    HW323115   3.944   5.260   4.336  2.4722  0.2321 -1.1666
 5837SOL    MW423116   3.924   5.177   4.321  0.8489  0.3924 -0.1821
 5838SOL     OW23117   0.426   4.847   5.803 -0.7358 -0.3900  0.5392
 5838SOL    HW223118   0.449   4.779   5.867 -2.4964 -0.3642  1.2465
 5838SOL    HW323119   0.497   4.911   5.810  1.7373 -2.7402 -1.1276
 5838SOL    MW423120   0.439   4.846   5.813 -0.6418 -0.6967  0.4126
 5839SOL     OW23121   6.256   2.421   0.648 -0.7872  0.5636 -0.0735
 5839SOL    HW223122   6.217   2.353   0.593  1.2713 -1.0751  0.3280
 5839SOL    HW323123   6.318   2.466   0.591 -0.6702  0.7276  0.1775
 5839SOL    MW423124   6.259   2.418   0.634 -0.5001  0.3690  0.0126
 5840SOL     OW23125   4.899   1.780   4.626  0.0126 -0.4138  0.2676
 5840SOL    HW223126   4.976   1.807   4.575 -1.3278  2.9661 -0.2876
 5840SOL    HW323127   4.932   1.765   4.714  1.2715  2.0275  0.3018
 5840SOL    MW423128   4.913   1.782   4.631  0.0019  0.3542  0.1989
 5841SOL     OW23129   4.678   2.388   5.472  0.0280  0.7004  0.9186
 5841SOL    HW223130   4.771   2.384   5.449 -0.5969 -0.0640 -1.9222
 5841SOL    HW323131   4.674   2.452   5.543  2.8455 -0.2054  2.0608
 5841SOL    MW423132   4.690   2.396   5.478  0.3173  0.4800  0.6945
 5842SOL     OW23133   3.917   6.317   5.328 -0.3526 -0.4090  0.3681
 5842SOL    HW223134   3.982   6.339   5.395 -2.2467  0.6460  1.9342
 5842SOL    HW323135   3.868   6.243   5.365 -1.2069 -0.0233  0.0328
 5842SOL    MW423136   3.919   6.310   5.342 -0.7152 -0.2189  0.5305
 5843SOL     OW23137   0.252   3.217   1.402  0.2117  0.3734 -0.5029
 5843SOL    HW223138   0.280   3.230   1.312  0.5236  1.0070 -0.3191
 5843SOL    HW323139   0.327   3.173   1.444  0.1328  0.2318 -0.5093
 5843SOL    MW423140   0.266   3.213   1.396  0.2425  0.4383 -0.4795
 5844SOL     OW23141   2.049   1.560   1.587 -0.3644 -0.0424  0.1049
 5844SOL    HW223142   1.999   1.544   1.507 -0.3862 -1.0047  0.2908
 5844SOL    HW323143   1.997   1.519   1.656 -0.7517  1.4912  0.7534
 5844SOL    MW423144   2.035   1.552   1.586 -0.4184  0.0330  0.2150
 5845SOL     OW23145   1.918   3.442   3.794  0.3606  0.6955 -0.4266
 5845SOL    HW223146   1.828   3.414   3.809  0.8970 -0.4707  0.8058
 5845SOL    HW323147   1.948   3.477   3.878  1.1941  0.6687 -0.6964
 5845SOL    MW423148   1.910   3.443   3.807  0.5413  0.5381 -0.2996
 5846SOL     OW23149   4.667   0.585   3.438  0.1801 -0.0269 -0.0747
 5846SOL    HW223150   4.600   0.555   3.500  1.1793 -0.4501  0.8293
 5846SOL    HW323151   4.617   0.625   3.367 -0.9950  0.8541  1.1832
 5846SOL    MW423152   4.652   0.586   3.437  0.1569  0.0335  0.2106
 5847SOL     OW23153   0.883   1.695   2.446  0.1415 -0.2483  0.5016
 5847SOL    HW223154   0.817   1.761   2.470  0.1883 -0.5644  1.5198
 5847SOL    HW323155   0.967   1.738   2.463  0.2740  0.5099 -1.7003
 5847SOL    MW423156   0.885   1.710   2.451  0.1651 -0.1900  0.3455
 5848SOL     OW23157   2.950   2.636   4.391  0.3392  0.6705  0.1229
 5848SOL    HW223158   2.899   2.555   4.381 -2.0268  1.6441  2.7401
 5848SOL    HW323159   3.020   2.613   4.452  0.0567  0.4498  0.3654
 5848SOL    MW423160   2.952   2.622   4.398 -0.0102  0.7698  0.5002
 5849SOL     OW23161   4.841   0.164   5.573  0.6920 -0.0861  0.1451
 5849SOL    HW223162   4.924   0.196   5.608  0.5249  0.3108  0.1887
 5849SOL    HW323163   4.803   0.112   5.644  0.7475  0.0194  0.2532
 5849SOL    MW423164   4.847   0.161   5.587  0.6773 -0.0198  0.1651
 5850SOL     OW23165   5.842   3.931   1.935  0.3152  0.0386  0.1543
 5850SOL    HW223166   5.838   3.877   1.857  0.3524 -0.0813  0.2352
 5850SOL    HW323167   5.907   3.999   1.915 -0.0962  0.3560 -0.1375
 5850SOL    MW423168   5.850   3.933   1.922  0.2658  0.0647  0.1265
 5851SOL     OW23169   5.500   4.364   2.371 -0.5451 -0.4639 -0.5326
 5851SOL    HW223170   5.526   4.278   2.404  0.8307  0.4465  0.8616
 5851SOL    HW323171   5.540   4.368   2.284  0.4270 -0.7714 -0.1189
 5851SOL    MW423172   5.509   4.353   2.364 -0.2353 -0.3843 -0.2941
 5852SOL     OW23173   1.134   4.770   5.850 -0.1963  0.1742 -0.0260
 5852SOL    HW223174   1.178   4.706   5.906 -0.0939  1.9006  1.9726
 5852SOL    HW323175   1.199   4.839   5.836 -1.0927  1.0388 -0.0278
 5852SOL    MW423176   1.148   4.770   5.855 -0.3010  0.5160  0.2375
 5853SOL     OW23177   3.668   5.077   6.152  0.2097 -0.2202  0.2111
 5853SOL    HW223178   3.645   4.992   6.114  0.8584 -0.5992  0.6292
 5853SOL    HW323179   3.757   5.065   6.185  0.2692  0.5926  0.3798
 5853SOL    MW423180   3.677   5.064   6.152  0.3031 -0.1630  0.2886
 5854SOL     OW23181   1.363   1.763   1.118 -0.1404  0.3722 -0.3281
 5854SOL    HW223182   1.321   1.678   1.102 -1.4233  0.6800  1.2106
 5854SOL    HW323183   1.406   1.783   1.035  0.9703 -2.1777 -0.4706
 5854SOL    MW423184   1.363   1.754   1.105 -0.1631  0.0764 -0.1439
 5855SOL     OW23185   5.179   5.775   0.336 -0.4284 -0.2340  0.2337
 5855SOL    HW223186   5.106   5.794   0.395  0.9127  0.4986  1.7436
 5855SOL    HW323187   5.177   5.847   0.273 -1.5308 -0.7040 -0.2860
 5855SOL    MW423188   5.169   5.787   0.336 -0.3969 -0.1993  0.3643
 5856SOL     OW23189   6.039   1.339   5.635 -0.1037 -0.8580 -0.6134
 5856SOL    HW223190   5.944   1.327   5.635 -0.4098  1.1322  0.6624
 5856SOL    HW323191   6.069   1.292   5.713  0.0108 -1.6608 -1.1291
 5856SOL    MW423192   6.030   1.331   5.645 -0.1290 -0.7013 -0.5131
 5857SOL     OW23193   4.711   3.995   1.204 -0.0060 -0.4498  0.4646
 5857SOL    HW223194   4.670   3.915   1.237 -1.6928  0.9476  1.8975
 5857SOL    HW323195   4.804   3.972   1.195 -0.2047 -2.1616  2.1662
 5857SOL    MW423196   4.718   3.981   1.207 -0.2548 -0.4913  0.8781
 5858SOL     OW23197   1.865   1.764   0.427  0.0178  0.5703  0.2391
 5858SOL    HW223198   1.948   1.789   0.467  0.3138  0.7166 -0.4553
 5858SOL    HW323199   1.815   1.845   0.421 -0.6323  0.2991  1.6804
 5858SOL    MW423200   1.869   1.778   0.431 -0.0289  0.5538  0.3376
 5859SOL     OW23201   5.773   3.385   2.356 -0.0449  0.2180 -0.4922
 5859SOL    HW223202   5.755   3.479   2.356 -0.7510  0.0903 -0.0751
 5859SOL    HW323203   5.765   3.359   2.265  0.6615  0.6466 -0.6923
 5859SOL    MW423204   5.770   3.394   2.344 -0.0449  0.2577 -0.4636
 5860SOL     OW23205   4.887   3.149   4.063 -0.1999 -0.0808 -0.0723
 5860SOL    HW223206   4.828   3.189   3.998  0.2515 -0.1704 -0.5482
 5860SOL    HW323207   4.874   3.055   4.052  3.4028 -0.4236 -3.5626
 5860SOL    MW423208   4.877   3.142   4.053  0.3350 -0.1378 -0.5956
 5861SOL     OW23209   3.279   1.163   6.086  0.0750 -0.3393  0.3598
 5861SOL    HW223210   3.216   1.147   6.017  0.2267 -0.0510  0.1510
 5861SOL    HW323211   3.229   1.155   6.167  0.3444 -2.9191  0.3536
 5861SOL    MW423212   3.264   1.160   6.088  0.1306 -0.6416  0.3314
 5862SOL     OW23213   4.973   0.458   5.029 -0.0706  0.0319  0.7255
 5862SOL    HW223214   4.914   0.483   5.101  0.3584  1.4627  0.6050
 5862SOL    HW323215   4.983   0.538   4.977  0.0418 -0.8414 -0.6487
 5862SOL    MW423216   4.966   0.472   5.032  0.0008  0.1054  0.5283
 5863SOL     OW23217   6.306   6.172   6.130  0.1251 -0.4562  0.1470
 5863SOL    HW223218   6.245   6.137   6.066 -0.2376 -1.9019  1.2218
 5863SOL    HW323219   6.367   6.100   6.147  2.5802  1.1253 -1.3422
 5863SOL    MW423220   6.306   6.158   6.124  0.4012 -0.4383  0.0923
 5864SOL     OW23221   3.999   5.080   4.065 -0.2910 -0.1443  0.0095
 5864SOL    HW223222   3.990   5.115   4.154  0.6124  0.4115 -0.1037
 5864SOL    HW323223   3.916   5.100   4.023 -0.2567  0.7559  0.3438
 5864SOL    MW423224   3.987   5.087   4.071 -0.1673  0.0478  0.0387
 5865SOL     OW23225   5.816   1.230   2.927  0.0611  0.1924 -0.2852
 5865SOL    HW223226   5.757   1.178   2.982 -2.0071  2.2891 -0.3632
 5865SOL    HW323227   5.828   1.177   2.848 -1.5063 -0.4436 -0.1354
 5865SOL    MW423228   5.810   1.216   2.924 -0.4186  0.3851 -0.2757
 5866SOL     OW23229   3.224   3.894   2.846  0.0882  0.2525 -0.0406
 5866SOL    HW223230   3.135   3.896   2.880 -0.2387  1.7757 -0.8842
 5866SOL    HW323231   3.280   3.909   2.923 -0.4428  0.3361  0.3311
 5866SOL    MW423232   3.220   3.897   2.861 -0.0250  0.4645 -0.1028
 5867SOL     OW23233   1.261   2.007   0.595 -0.0167 -0.3590  0.3587
 5867SOL    HW223234   1.281   1.929   0.542  1.1491  0.3667 -0.3326
 5867SOL    HW323235   1.204   2.059   0.539  0.2280 -0.1492  0.3023
 5867SOL    MW423236   1.256   2.003   0.580  0.1694 -0.2355  0.2600
 5868SOL     OW23237   1.433   0.063   5.735 -0.0610 -0.2423  0.5857
 5868SOL    HW223238   1.433   0.057   5.830  0.0943  0.1332  0.6109
 5868SOL    HW323239   1.411  -0.025   5.705  0.9929 -0.6481  0.9496
 5868SOL    MW423240   1.430   0.050   5.743  0.0985 -0.2463  0.6370
 5869SOL     OW23241   0.125   0.806   3.768  0.0421  0.3361  0.2652
 5869SOL    HW223242   0.147   0.740   3.834  0.2842  1.4611  1.3561
 5869SOL    HW323243   0.207   0.825   3.724 -0.1412 -0.4991 -0.4547
 5869SOL    MW423244   0.138   0.800   3.771  0.0499  0.3743  0.3142
 5870SOL     OW23245   4.174   3.498   3.365 -0.0952  0.0418 -0.2140
 5870SOL    HW223246   4.079   3.508   3.366  0.0128  1.3351  0.9625
 5870SOL    HW323247   4.207   3.580   3.328  0.5669 -0.3630 -0.5429
 5870SOL    MW423248   4.166   3.510   3.361  0.0064  0.1590 -0.1022
 5871SOL     OW23249   4.940   1.698   1.663 -0.8814 -0.1399 -0.7025
 5871SOL    HW223250   4.928   1.603   1.666 -0.6782 -0.1702 -0.8253
 5871SOL    HW323251   5.033   1.710   1.683 -1.3252  0.1470  1.4123
 5871SOL    MW423252   4.951   1.687   1.666 -0.9131 -0.1061 -0.4397
 5872SOL     OW23253   4.476   1.057   1.683 -0.0307  0.0162  0.2787
 5872SOL    HW223254   4.469   1.029   1.774 -2.1755  1.8124  0.7789
 5872SOL    HW323255   4.388   1.044   1.647  1.1780 -2.2919 -2.1329
 5872SOL    MW423256   4.463   1.052   1.690 -0.1542 -0.0513  0.0265
 5873SOL     OW23257   1.054   0.872   0.663 -0.0296 -0.3801  0.0881
 5873SOL    HW223258   1.115   0.798   0.658 -1.6236 -1.8289  0.8324
 5873SOL    HW323259   0.983   0.848   0.604 -0.7941  0.3447  0.6872
 5873SOL    MW423260   1.053   0.859   0.654 -0.3408 -0.4757  0.2654
 5874SOL     OW23261   6.407   6.376   5.006 -0.1004  0.0600  0.0120
 5874SOL    HW223262   6.344   6.378   4.934  0.0338 -1.4211 -0.1766
 5874SOL    HW323263   6.396   6.460   5.049 -0.7253  0.6765 -1.2774
 5874SOL    MW423264   6.397   6.387   5.002 -0.1651 -0.0541 -0.1830
 5875SOL     OW23265   4.994   6.415   5.415  0.0415 -0.3869  0.1544
 5875SOL    HW223266   4.928   6.461   5.467 -0.5126 -2.2411  1.2293
 5875SOL    HW323267   4.990   6.456   5.329  1.2884  3.1045  1.5709
 5875SOL    MW423268   4.985   6.426   5.411  0.1329 -0.1709  0.4831
 5876SOL     OW23269   1.414   4.438   4.263 -0.2100  0.0753 -0.1719
 5876SOL    HW223270   1.382   4.356   4.299  0.7556 -0.4263 -0.4227
 5876SOL    HW323271   1.501   4.417   4.228  0.3193  1.3405  0.3190
 5876SOL    MW423272   1.421   4.424   4.263 -0.0128  0.1760 -0.1402
 5877SOL     OW23273   3.221   6.178   0.723 -0.1888  0.1049  0.4261
 5877SOL    HW223274   3.299   6.144   0.767 -1.4958 -1.4148  1.7112
 5877SOL    HW323275   3.184   6.241   0.785 -0.2133  0.5069  0.0081
 5877SOL    MW423276   3.226   6.182   0.737 -0.3645 -0.0425  0.5405
 5878SOL     OW23277   5.405   4.773   4.309  0.0980 -0.2602 -0.2932
 5878SOL    HW223278   5.350   4.799   4.234  1.8949  0.4808 -1.4051
 5878SOL    HW323279   5.408   4.850   4.365 -1.8105 -1.0233  0.9983
 5878SOL    MW423280   5.398   4.786   4.306  0.0833 -0.2631 -0.2695
 5879SOL     OW23281   5.435   4.802   2.410  0.2553 -0.3598 -0.3522
 5879SOL    HW223282   5.470   4.853   2.483 -1.4868 -1.0119  1.0147
 5879SOL    HW323283   5.360   4.853   2.380 -0.4932 -1.2749 -0.0658
 5879SOL    MW423284   5.430   4.816   2.416 -0.0733 -0.5666 -0.1341
 5880SOL     OW23285   1.288   1.077   3.977  0.1901 -0.3872  0.0453
 5880SOL    HW223286   1.353   1.119   4.033 -1.2399  1.1009  0.6635
 5880SOL    HW323287   1.328   1.078   3.890  0.4280  1.9800  0.0938
 5880SOL    MW423288   1.302   1.083   3.973  0.0328  0.1214  0.1333
 5881SOL     OW23289   6.338   6.229   1.210 -0.2325 -0.6316 -0.4427
 5881SOL    HW223290   6.276   6.276   1.154 -0.9519 -2.4095 -1.2149
 5881SOL    HW323291   6.424   6.247   1.172 -0.6035 -0.7798 -1.3680
 5881SOL    MW423292   6.341   6.237   1.198 -0.3764 -0.8857 -0.6667
 5882SOL     OW23293   1.937   2.196   0.211 -0.7962  0.9884  0.1083
 5882SOL    HW223294   1.972   2.194   0.122 -0.3632  0.9896  0.2741
 5882SOL    HW323295   1.934   2.289   0.233 -0.5800  0.9723  0.2147
 5882SOL    MW423296   1.941   2.208   0.202 -0.7106  0.9864  0.1442
 5883SOL     OW23297   2.403   0.230   4.442 -0.6437  0.3571 -0.3666
 5883SOL    HW223298   2.337   0.160   4.442 -1.5753  1.2060  1.2622
 5883SOL    HW323299   2.353   0.310   4.427 -0.2029  1.1648  2.1615
 5883SOL    MW423300   2.387   0.231   4.440 -0.7084  0.5756  0.1819
 5884SOL     OW23301   4.381   5.544   6.351 -0.2863  0.4150  0.1083
 5884SOL    HW223302   4.292   5.529   6.317  0.5092 -1.0321 -1.5287
 5884SOL    HW323303   4.380   5.508   6.439 -0.9013 -1.2000 -0.5224
 5884SOL    MW423304   4.369   5.537   6.358 -0.2625  0.0110 -0.1909
 5885SOL     OW23305   1.866   6.136   3.102 -0.2502  0.2989  0.3725
 5885SOL    HW223306   1.774   6.163   3.102 -1.0344 -1.9031  3.1332
 5885SOL    HW323307   1.878   6.089   3.020 -1.7532  0.0919  0.2580
 5885SOL    MW423308   1.856   6.134   3.091 -0.5520 -0.0189  0.7216
 5886SOL     OW23309   3.372   4.028   1.721  0.6314 -0.0595  0.1056
 5886SOL    HW223310   3.299   4.025   1.659 -0.5096  0.6648  1.3816
 5886SOL    HW323311   3.349   4.096   1.783  3.0555  1.2066 -0.2272
 5886SOL    MW423312   3.360   4.036   1.721  0.8007  0.2031  0.2300
 5887SOL     OW23313   5.649   2.877   2.227 -0.1443  0.5910 -0.0736
 5887SOL    HW223314   5.579   2.942   2.223 -0.7813  0.1807  2.3619
 5887SOL    HW323315   5.715   2.917   2.283 -0.5139 -0.7501  1.4068
 5887SOL    MW423316   5.648   2.891   2.234 -0.2771  0.3599  0.4431
 5888SOL     OW23317   2.301   4.058   6.238  0.1391  0.1398 -0.0692
 5888SOL    HW223318   2.337   4.131   6.288  1.0195 -1.1197  1.2304
 5888SOL    HW323319   2.233   4.021   6.294  0.0742 -0.3517 -0.4657
 5888SOL    MW423320   2.297   4.063   6.252  0.2467 -0.0912  0.0500
 5889SOL     OW23321   4.815   2.088   4.886 -0.0040 -0.1560 -0.4603
 5889SOL    HW223322   4.779   2.000   4.877 -0.8846  0.1019  0.4198
 5889SOL    HW323323   4.803   2.127   4.799 -1.9996 -0.0324 -0.1653
 5889SOL    MW423324   4.809   2.081   4.873 -0.3835 -0.1057 -0.3053
 5890SOL     OW23325   0.461   0.381   4.154  0.1886  0.9900  0.1188
 5890SOL    HW223326   0.391   0.369   4.218 -0.1904  2.4059 -0.0066
 5890SOL    HW323327   0.416   0.381   4.069  0.6470 -0.5250 -0.1609
 5890SOL    MW423328   0.446   0.379   4.151  0.1991  0.9769  0.0653
 5891SOL     OW23329   4.825   4.422   5.197 -0.1220 -0.0108 -0.6389
 5891SOL    HW223330   4.789   4.352   5.253 -1.6271 -0.5997 -2.2569
 5891SOL    HW323331   4.871   4.375   5.127 -1.2429  0.5595 -1.8046
 5891SOL    MW423332   4.826   4.406   5.195 -0.4684 -0.0132 -1.0062
 5892SOL     OW23333   2.477   5.700   1.323  0.6682  0.2373  0.1254
 5892SOL    HW223334   2.519   5.652   1.394 -1.0187  0.4643  1.3551
 5892SOL    HW323335   2.390   5.660   1.315  0.4437  0.9064 -1.0919
 5892SOL    MW423336   2.471   5.689   1.332  0.4160  0.3555  0.1270
 5893SOL     OW23337   1.382   4.920   4.244  0.8204 -0.7052  0.3693
 5893SOL    HW223338   1.433   4.893   4.167  1.1206  0.6866  0.0562
 5893SOL    HW323339   1.320   4.984   4.211  0.7034 -0.3644  1.2253
 5893SOL    MW423340   1.381   4.925   4.229  0.8446 -0.4766  0.4409
 5894SOL     OW23341   3.753   3.836   1.844  0.1823  0.4028  0.5471
 5894SOL    HW223342   3.822   3.871   1.901 -1.1038  1.6369  1.4005
 5894SOL    HW323343   3.800   3.806   1.766  1.7989  0.2427  1.5415
 5894SOL    MW423344   3.768   3.837   1.841  0.2259  0.5445  0.7909
 5895SOL     OW23345   3.533   3.609   2.441 -0.6762 -0.4389  0.1891
 5895SOL    HW223346   3.479   3.607   2.519 -1.6907 -0.7456 -0.5075
 5895SOL    HW323347   3.596   3.538   2.453 -0.2492  0.0741  1.1067
 5895SOL    MW423348   3.534   3.600   2.453 -0.7537 -0.4116  0.2183
 5896SOL     OW23349   6.148   3.174   2.754 -0.3289  0.4475 -0.1410
 5896SOL    HW223350   6.159   3.160   2.660 -0.9723 -0.8626 -0.0342
 5896SOL    HW323351   6.198   3.103   2.795 -0.8002  0.4778  0.4891
 5896SOL    MW423352   6.156   3.163   2.747 -0.4760  0.2786 -0.0438
 5897SOL     OW23353   4.481   5.049   3.552  0.2210 -0.2344 -0.3578
 5897SOL    HW223354   4.503   4.967   3.596 -0.4619  0.0600  0.5693
 5897SOL    HW323355   4.385   5.048   3.548  0.2639 -0.5812 -2.5183
 5897SOL    MW423356   4.471   5.038   3.557  0.1365 -0.2413 -0.5205
 5898SOL     OW23357   5.394   1.735   4.753 -0.2840  0.3753  0.7590
 5898SOL    HW223358   5.473   1.709   4.705 -0.4002  0.9274  0.2521
 5898SOL    HW323359   5.335   1.660   4.745  0.7304 -0.6527  2.4175
 5898SOL    MW423360   5.397   1.722   4.745 -0.1655  0.3125  0.9109
 5899SOL     OW23361   1.588   5.308   6.018  0.5317  0.0325  0.3274
 5899SOL    HW223362   1.519   5.347   5.965  0.4843 -1.2951 -0.6168
 5899SOL    HW323363   1.653   5.378   6.026 -1.2802  1.6473  2.0542
 5899SOL    MW423364   1.588   5.322   6.012  0.2864  0.0704  0.4307
 5900SOL     OW23365   4.535   5.574   2.709 -0.4926 -0.0880  0.2360
 5900SOL    HW223366   4.574   5.594   2.794 -1.6396  0.5230  0.6428
 5900SOL    HW323367   4.503   5.484   2.718  0.0488 -0.2917  0.1849
 5900SOL    MW423368   4.536   5.565   2.722 -0.5725 -0.0343  0.2829
 5901SOL     OW23369   1.096   1.777   0.799  0.2373 -0.2634  0.3437
 5901SOL    HW223370   1.059   1.711   0.857  0.4802 -1.1624 -0.5011
 5901SOL    HW323371   1.173   1.735   0.760  0.1985  0.3918 -0.4782
 5901SOL    MW423372   1.101   1.763   0.801  0.2642 -0.2956  0.1238
 5902SOL     OW23373   2.928   3.838   5.227  0.5416 -0.2577  0.1095
 5902SOL    HW223374   2.995   3.784   5.269  1.9452  0.3992 -1.1809
 5902SOL    HW323375   2.978   3.906   5.182 -0.8845 -0.8579 -2.5197
 5902SOL    MW423376   2.944   3.840   5.227  0.5387 -0.2502 -0.4077
 5903SOL     OW23377   5.227   3.962   1.153  0.1816 -0.2666  1.3273
 5903SOL    HW223378   5.226   4.057   1.141  0.5629 -0.4000  0.1508
 5903SOL    HW323379   5.288   3.948   1.226  0.2645  0.3742  1.3858
 5903SOL    MW423380   5.235   3.972   1.161  0.2428 -0.1997  1.1798
 5904SOL     OW23381   1.942   1.184   1.648  0.3700  0.0734  0.1109
 5904SOL    HW223382   1.926   1.266   1.693  0.4012 -0.0494  0.3484
 5904SOL    HW323383   1.867   1.129   1.670 -0.7536  0.7465 -1.7716
 5904SOL    MW423384   1.930   1.187   1.657  0.2259  0.1460 -0.1061
 5905SOL     OW23385   6.296   2.795   0.437 -0.0492  0.1810  0.1271
 5905SOL    HW223386   6.353   2.843   0.497  0.7211 -0.1052 -0.3603
 5905SOL    HW323387   6.314   2.833   0.351  0.8441 -1.1814 -0.3260
 5905SOL    MW423388   6.306   2.806   0.434  0.1703 -0.0365  0.0030
 5906SOL     OW23389   3.521   0.541   1.447 -0.3948  0.3880 -0.9296
 5906SOL    HW223390   3.611   0.530   1.480 -0.8598  1.1319  0.7272
 5906SOL    HW323391   3.516   0.633   1.423 -0.6269  0.2768 -1.3026
 5906SOL    MW423392   3.532   0.551   1.448 -0.4867  0.4715 -0.7602
 5907SOL     OW23393   3.046   2.410   2.765 -0.1731 -0.5888 -0.0618
 5907SOL    HW223394   3.136   2.395   2.794 -0.2262 -0.5251  0.1417
 5907SOL    HW323395   3.019   2.327   2.726  0.3836 -0.2344 -1.2405
 5907SOL    MW423396   3.054   2.397   2.764 -0.1067 -0.5336 -0.1905
 5908SOL     OW23397   5.253   5.649   6.014  0.2956  0.3531 -0.1575
 5908SOL    HW223398   5.239   5.670   6.107 -0.7584 -0.7675 -0.0347
 5908SOL    HW323399   5.347   5.661   6.001  0.1862  2.3832  0.5555
 5908SOL    MW423400   5.264   5.653   6.025  0.1421  0.4731 -0.0472
 5909SOL     OW23401   0.728   6.280   1.706 -0.2708 -0.1442  0.4346
 5909SOL    HW223402   0.777   6.220   1.761  0.3146  3.0910  3.8313
 5909SOL    HW323403   0.636   6.258   1.721 -0.0485 -1.0018  0.5766
 5909SOL    MW423404   0.722   6.269   1.715 -0.1643  0.1695  0.9015
 5910SOL     OW23405   4.502   5.435   1.103  0.2350  0.0997  0.3817
 5910SOL    HW223406   4.578   5.392   1.142 -1.3188 -1.7188  1.6022
 5910SOL    HW323407   4.488   5.512   1.159 -1.2925 -1.8748  2.9438
 5910SOL    MW423408   4.510   5.440   1.116 -0.1715 -0.4007  0.8808
 5911SOL     OW23409   3.991   0.222   2.665 -0.1520 -0.3321  0.2536
 5911SOL    HW223410   4.020   0.205   2.576 -1.5719 -1.5989  0.0157
 5911SOL    HW323411   4.028   0.151   2.717 -1.3932 -1.0135  0.2315
 5911SOL    MW423412   4.000   0.211   2.660 -0.5031 -0.5892  0.2193
 5912SOL     OW23413   5.481   2.547   0.556 -0.0914 -0.6467  0.4036
 5912SOL    HW223414   5.407   2.608   0.550 -0.2174 -0.8352  0.0318
 5912SOL    HW323415   5.514   2.559   0.645 -0.4839 -0.4606  0.5270
 5912SOL    MW423416   5.476   2.557   0.567 -0.1598 -0.6470  0.3708
 5913SOL     OW23417   2.595   1.687   2.032 -0.4071 -0.0779  0.6894
 5913SOL    HW223418   2.574   1.601   1.997  2.1237 -0.7676  0.6897
 5913SOL    HW323419   2.590   1.745   1.956 -2.3196 -0.1348  0.7281
 5913SOL    MW423420   2.591   1.684   2.018 -0.3255 -0.1764  0.6946
 5914SOL     OW23421   2.503   2.997   4.986 -0.2456 -0.5417 -0.2822
 5914SOL    HW223422   2.479   2.918   4.937  0.6636 -0.0346 -1.6018
 5914SOL    HW323423   2.582   3.029   4.942  0.8561 -0.2649  1.7675
 5914SOL    MW423424   2.511   2.991   4.973  0.0197 -0.4383 -0.1858
 5915SOL     OW23425   1.685   3.910   2.637  0.1626  0.1413  0.3836
 5915SOL    HW223426   1.715   3.846   2.573 -0.4351 -0.4689  0.7042
 5915SOL    HW323427   1.646   3.980   2.584  0.3393 -0.0097  0.0526
 5915SOL    MW423428   1.684   3.911   2.621  0.1071  0.0408  0.3822
 5916SOL     OW23429   3.377   3.621   1.675 -0.3815  0.3964  0.3430
 5916SOL    HW223430   3.461   3.578   1.691 -0.8013 -0.0201  1.5486
 5916SOL    HW323431   3.370   3.686   1.745 -1.7879 -0.7070  1.2945
 5916SOL    MW423432   3.387   3.624   1.687 -0.6225  0.1959  0.6276
 5917SOL     OW23433   2.825   3.176   0.833 -0.5559 -0.5039 -0.6302
 5917SOL    HW223434   2.909   3.196   0.791 -0.4227 -1.2806 -0.7547
 5917SOL    HW323435   2.821   3.236   0.907 -0.5543  0.5206 -1.4454
 5917SOL    MW423436   2.836   3.187   0.838 -0.5381 -0.4712 -0.7542
 5918SOL     OW23437   3.552   4.666   0.093  0.1410  0.4680 -0.4559
 5918SOL    HW223438   3.586   4.586   0.132 -1.7088 -0.3397 -0.4412
 5918SOL    HW323439   3.589   4.667   0.005  1.5387  0.5104  0.1040
 5918SOL    MW423440   3.561   4.656   0.086  0.0814  0.3670 -0.3801
 5919SOL     OW23441   5.931   4.389   0.546 -0.3915  0.4341  0.1071
 5919SOL    HW223442   5.926   4.446   0.623  1.7244  0.2106  0.4605
 5919SOL    HW323443   5.972   4.443   0.478  1.4475 -0.5229  0.3843
 5919SOL    MW423444   5.936   4.404   0.547  0.1303  0.2784  0.1903
 5920SOL     OW23445   1.012   4.629   4.575 -0.1879  0.1279 -0.2957
 5920SOL    HW223446   1.070   4.652   4.502  0.2216  1.1146  0.3267
 5920SOL    HW323447   0.927   4.666   4.550 -0.6551 -1.5241 -1.3190
 5920SOL    MW423448   1.009   4.637   4.562 -0.1955  0.0401 -0.3486
 5921SOL     OW23449   3.682   1.997   0.367  0.4724  0.1787  0.0506
 5921SOL    HW223450   3.713   1.906   0.372  0.3407  0.1010 -0.5404
 5921SOL    HW323451   3.758   2.049   0.393  0.6407 -0.0835  0.0930
 5921SOL    MW423452   3.696   1.992   0.371  0.4772  0.1339 -0.0218
 5922SOL     OW23453   0.023   5.179   1.781 -0.0661 -0.2337  0.4599
 5922SOL    HW223454  -0.011   5.102   1.826  0.0784 -0.1859  0.6550
 5922SOL    HW323455  -0.010   5.172   1.691  0.8669 -1.1103  0.1711
 5922SOL    MW423456   0.014   5.168   1.775  0.0761 -0.3430  0.4476
 5923SOL     OW23457   4.544   3.832   1.982 -0.1097 -0.0494 -0.0045
 5923SOL    HW223458   4.569   3.887   2.056 -0.0318 -0.4649  0.2830
 5923SOL    HW323459   4.512   3.751   2.023 -0.8480  0.0309 -0.3927
 5923SOL    MW423460   4.543   3.828   1.998 -0.1968 -0.0936 -0.0178
 5924SOL     OW23461   5.694   0.645   4.128 -0.6769 -0.2484 -0.0686
 5924SOL    HW223462   5.689   0.738   4.107 -1.2664 -0.4126 -0.7000
 5924SOL    HW323463   5.603   0.616   4.129 -0.4835 -0.8664 -0.0993
 5924SOL    MW423464   5.681   0.653   4.125 -0.7291 -0.3516 -0.1560
 5925SOL     OW23465   0.050   5.760   3.680  0.4703 -0.5015 -0.7240
 5925SOL    HW223466   0.030   5.819   3.606  1.7553  1.4434  0.3940
 5925SOL    HW323467   0.146   5.755   3.682  0.4970 -0.0012  1.1643
 5925SOL    MW423468   0.060   5.767   3.670  0.6433 -0.1789 -0.3274
 5926SOL     OW23469   4.932   3.544   0.781 -0.0921  0.4585  0.1411
 5926SOL    HW223470   4.849   3.548   0.829 -0.9438  3.9606 -1.3904
 5926SOL    HW323471   4.995   3.588   0.839 -0.1335  0.9231 -0.1657
 5926SOL    MW423472   4.929   3.550   0.795 -0.2099  0.9819 -0.1014
 5927SOL     OW23473   1.499   5.476   3.620 -0.1865 -0.0211  0.5408
 5927SOL    HW223474   1.558   5.502   3.690  0.8575  1.3922 -0.7924
 5927SOL    HW323475   1.541   5.400   3.579  0.0502  0.1814  0.4079
 5927SOL    MW423476   1.512   5.470   3.624 -0.0175  0.1921  0.3473
 5928SOL     OW23477   5.832   4.930   3.561 -0.5647  0.3840 -0.2664
 5928SOL    HW223478   5.790   5.012   3.535 -0.7582  0.6235  0.7771
 5928SOL    HW323479   5.859   4.891   3.478 -3.3110 -0.0606 -1.0454
 5928SOL    MW423480   5.830   4.936   3.547 -0.9526  0.3570 -0.2315
 5929SOL     OW23481   5.287   5.718   5.530 -0.1966 -0.1174  0.6653
 5929SOL    HW223482   5.217   5.744   5.470  0.5748  0.2707 -0.0822
 5929SOL    HW323483   5.242   5.701   5.613 -1.0567  1.0822  0.4691
 5929SOL    MW423484   5.271   5.719   5.533 -0.2083  0.0921  0.5408
 5930SOL     OW23485   4.707   6.072   4.284  0.0886 -0.0508 -0.8136
 5930SOL    HW223486   4.797   6.042   4.276  1.1543  1.9070  2.1827
 5930SOL    HW323487   4.713   6.167   4.281 -1.9265  0.1239 -0.6920
 5930SOL    MW423488   4.720   6.081   4.282 -0.0366  0.2306 -0.4022
 5931SOL     OW23489   6.350   5.049   2.839  0.7472 -0.0793  0.2300
 5931SOL    HW223490   6.290   5.122   2.822 -0.1784 -1.1313 -1.2747
 5931SOL    HW323491   6.437   5.085   2.823  0.2082  0.2962 -2.2684
 5931SOL    MW423492   6.354   5.063   2.835  0.5539 -0.1686 -0.2982
 5932SOL     OW23493   5.207   1.757   1.612 -0.2179 -0.2022  0.1437
 5932SOL    HW223494   5.218   1.802   1.697  2.7974  1.2315 -0.8699
 5932SOL    HW323495   5.191   1.828   1.550 -0.2451 -1.0455 -0.8280
 5932SOL    MW423496   5.206   1.772   1.615  0.1764 -0.1243 -0.1182
 5933SOL     OW23497   4.905   3.164   0.303  0.2721  0.1294 -0.4907
 5933SOL    HW223498   4.852   3.224   0.354  0.9236  0.2077  0.0996
 5933SOL    HW323499   4.995   3.196   0.313  0.6216 -0.9023 -0.2086
 5933SOL    MW423500   4.910   3.176   0.311  0.4041  0.0036 -0.3756
 5934SOL     OW23501   4.746   4.603   0.429 -0.1541 -0.1389  0.1116
 5934SOL    HW223502   4.826   4.613   0.481 -0.5790  0.9859  0.5642
 5934SOL    HW323503   4.697   4.533   0.472  1.5070 -2.4168 -1.3893
 5934SOL    MW423504   4.750   4.595   0.441  0.0090 -0.2910 -0.0267
 5935SOL     OW23505   2.423   5.410   3.570  0.1602 -0.0258  0.0478
 5935SOL    HW223506   2.439   5.396   3.476  2.2602  1.5935  0.1049
 5935SOL    HW323507   2.396   5.324   3.602 -0.4278 -0.6638 -1.9880
 5935SOL    MW423508   2.421   5.396   3.562  0.3597  0.1037 -0.2132
 5936SOL     OW23509   1.794   4.119   1.309 -0.0201 -0.2216 -0.5539
 5936SOL    HW223510   1.708   4.080   1.295 -0.0972 -0.0372 -0.5977
 5936SOL    HW323511   1.852   4.045   1.323 -0.0678 -0.3837 -1.1559
 5936SOL    MW423512   1.790   4.104   1.309 -0.0366 -0.2187 -0.6391
 5937SOL     OW23513   5.487   5.419   5.660 -0.1414 -0.9609  0.2104
 5937SOL    HW223514   5.486   5.422   5.564 -0.1446  0.6174  0.2378
 5937SOL    HW323515   5.513   5.507   5.687 -1.1738 -1.0622  1.6770
 5937SOL    MW423516   5.490   5.431   5.651 -0.2781 -0.7660  0.4075
 5938SOL     OW23517   3.772   6.268   1.108 -0.0022  0.1632 -0.4744
 5938SOL    HW223518   3.684   6.230   1.108 -0.0001  0.1156  1.1612
 5938SOL    HW323519   3.813   6.235   1.187  1.0828  1.1400 -0.6030
 5938SOL    MW423520   3.766   6.259   1.118  0.1412  0.2858 -0.2756
 5939SOL     OW23521   0.908   0.575   1.733  0.5998 -0.6518 -0.1676
 5939SOL    HW223522   0.897   0.650   1.791 -0.3141 -0.4907 -0.5325
 5939SOL    HW323523   0.880   0.500   1.786  0.5094 -0.6042 -0.1486
 5939SOL    MW423524   0.903   0.575   1.748  0.4673 -0.6243 -0.2133
 5940SOL     OW23525   5.352   4.332   2.688 -0.2036  0.0353  0.4351
 5940SOL    HW223526   5.267   4.378   2.689 -0.1351  0.3177 -1.5180
 5940SOL    HW323527   5.345   4.271   2.615  1.9443  1.5222 -1.1640
 5940SOL    MW423528   5.340   4.330   2.678  0.0889  0.2687 -0.0336
 5941SOL     OW23529   3.506   4.002   4.724  0.3384  0.2978  0.3824
 5941SOL    HW223530   3.572   3.947   4.765  0.0418 -0.3339  0.0216
 5941SOL    HW323531   3.521   4.089   4.761  1.8371  0.3312 -0.2123
 5941SOL    MW423532   3.517   4.006   4.734  0.4970  0.2189  0.2563
 5942SOL     OW23533   4.946   5.967   3.874  0.0465  0.4700 -0.0316
 5942SOL    HW223534   5.001   5.901   3.832  0.3213  0.4635  0.3422
 5942SOL    HW323535   5.005   6.015   3.932 -0.6386 -0.4995  1.5137
 5942SOL    MW423536   4.961   5.965   3.876 -0.0076  0.3412  0.2216
 5943SOL     OW23537   5.725   6.293   0.851 -0.0091  0.0257 -0.7494
 5943SOL    HW223538   5.720   6.389   0.847 -0.6406  0.0802  0.7045
 5943SOL    HW323539   5.818   6.274   0.844  0.2036  0.8105 -0.2220
 5943SOL    MW423540   5.736   6.303   0.850 -0.0644  0.1364 -0.4880
 5944SOL     OW23541   4.081   4.950   0.444 -0.2137  0.3643  0.5248
 5944SOL    HW223542   4.145   4.907   0.501  0.3150 -1.4600 -1.3393
 5944SOL    HW323543   4.112   4.934   0.355 -2.0994  1.3535 -0.3876
 5944SOL    MW423544   4.093   4.942   0.440 -0.3927  0.2541  0.1585
 5945SOL     OW23545   1.770   6.022   0.541  0.1200 -0.5088  0.4450
 5945SOL    HW223546   1.754   6.088   0.474 -1.7811 -1.5834 -0.2384
 5945SOL    HW323547   1.766   6.069   0.624  3.2530  0.9853 -0.1168
 5945SOL    MW423548   1.768   6.037   0.543  0.2825 -0.4535  0.2807
 5946SOL     OW23549   6.266   1.947   5.332  0.0576 -0.2953 -0.3739
 5946SOL    HW223550   6.205   1.873   5.329  1.1553 -1.2043 -1.6390
 5946SOL    HW323551   6.211   2.024   5.319 -0.9356 -0.9978 -0.4668
 5946SOL    MW423552   6.251   1.948   5.330  0.0714 -0.5079 -0.5530
 5947SOL     OW23553   3.847   0.359   0.724 -0.1862  0.2174  0.0642
 5947SOL    HW223554   3.803   0.315   0.796 -1.5645 -0.4552 -1.1328
 5947SOL    HW323555   3.936   0.324   0.725 -0.6385 -0.9672  0.4826
 5947SOL    MW423556   3.853   0.348   0.733 -0.4278 -0.0276 -0.0385
 5948SOL     OW23557   4.434   2.440   1.646  0.1446 -0.1221  0.1802
 5948SOL    HW223558   4.431   2.535   1.658  0.5547 -0.0157 -0.5155
 5948SOL    HW323559   4.470   2.427   1.558 -1.7656 -0.8918 -0.5451
 5948SOL    MW423560   4.439   2.451   1.636 -0.0533 -0.2096 -0.0073
 5949SOL     OW23561   5.666   2.453   4.332  0.6433 -0.5860  0.1500
 5949SOL    HW223562   5.692   2.413   4.249  1.1725 -0.6940  0.3627
 5949SOL    HW323563   5.746   2.453   4.385  0.9190  1.6521 -0.1932
 5949SOL    MW423564   5.680   2.448   4.328  0.7495 -0.3050  0.1328
 5950SOL     OW23565   1.145   1.738   2.109 -0.1886 -0.6605 -0.7859
 5950SOL    HW223566   1.149   1.831   2.132  1.4479 -0.8483 -0.1516
 5950SOL    HW323567   1.131   1.738   2.014 -0.6140  0.2270 -0.7326
 5950SOL    MW423568   1.144   1.750   2.099 -0.0288 -0.5682 -0.6952
 5951SOL     OW23569   0.824   4.476   3.930 -0.2385 -0.7804  0.7894
 5951SOL    HW223570   0.820   4.550   3.990 -1.2570 -0.2029  0.0597
 5951SOL    HW323571   0.893   4.499   3.868 -1.2062  0.0561 -0.0189
 5951SOL    MW423572   0.832   4.489   3.929 -0.5006 -0.5938  0.5865
 5952SOL     OW23573   0.442   4.249   3.863 -0.0509  0.0645  0.4543
 5952SOL    HW223574   0.347   4.239   3.850 -0.0344 -1.4215  1.2132
 5952SOL    HW323575   0.450   4.285   3.951  0.1134 -1.4886  1.0941
 5952SOL    MW423576   0.430   4.252   3.873 -0.0270 -0.3365  0.6389
 5953SOL     OW23577   6.359   2.848   3.498  0.3775  0.0215  0.8795
 5953SOL    HW223578   6.273   2.887   3.512  0.8324  0.4350  2.7576
 5953SOL    HW323579   6.340   2.762   3.460 -0.8359  0.2712  0.8823
 5953SOL    MW423580   6.346   2.842   3.495  0.2774  0.1090  1.1276
 5954SOL     OW23581   4.007   3.671   5.312  0.1705  0.0472  0.5966
 5954SOL    HW223582   4.102   3.685   5.312  0.2455 -0.2524 -1.0587
 5954SOL    HW323583   3.997   3.577   5.327  0.1248  0.1088  0.9555
 5954SOL    MW423584   4.018   3.660   5.314  0.1743  0.0158  0.4256
 5955SOL     OW23585   3.858   6.136   1.786  0.1507  0.0049 -0.3981
 5955SOL    HW223586   3.828   6.197   1.719  0.0722  0.5173  0.1020
 5955SOL    HW323587   3.788   6.134   1.851  1.4369  1.7543  1.1472
 5955SOL    MW423588   3.845   6.144   1.786  0.3100  0.3033 -0.1283
 5956SOL     OW23589   2.312   3.901   2.038  0.0561  0.5551 -0.4725
 5956SOL    HW223590   2.394   3.876   1.996  0.5590 -1.7355  1.5936
 5956SOL    HW323591   2.246   3.847   1.993 -0.0188  0.9465 -0.8369
 5956SOL    MW423592   2.314   3.890   2.026  0.1125  0.3045 -0.2480
 5957SOL     OW23593   5.267   5.194   3.950 -0.0727 -0.0703  0.7107
 5957SOL    HW223594   5.242   5.233   3.866  0.1921 -0.1726  0.5864
 5957SOL    HW323595   5.183   5.183   3.996 -0.3353 -0.9877  0.0465
 5957SOL    MW423596   5.252   5.198   3.945 -0.0724 -0.2048  0.6067
 5958SOL     OW23597   0.836   5.518   1.721  0.2622 -0.3462  0.4246
 5958SOL    HW223598   0.741   5.506   1.714  0.2732 -0.1190 -0.1141
 5958SOL    HW323599   0.852   5.605   1.684  0.8154 -0.8468 -0.5256
 5958SOL    MW423600   0.826   5.528   1.715  0.3367 -0.3823  0.2282
 5959SOL     OW23601   6.089   1.562   1.719  0.2714  0.7308 -0.6554
 5959SOL    HW223602   6.121   1.473   1.708 -0.6154  0.5016 -1.4010
 5959SOL    HW323603   6.103   1.581   1.812 -0.7584 -0.6584 -0.2073
 5959SOL    MW423604   6.095   1.553   1.730  0.0186  0.5173 -0.6947
 5960SOL     OW23605   1.176   5.625   1.576  0.1539 -0.7635 -0.2787
 5960SOL    HW223606   1.134   5.540   1.564 -1.6206  0.0928 -0.4562
 5960SOL    HW323607   1.103   5.687   1.586  1.3966  0.6276  0.6667
 5960SOL    MW423608   1.161   5.622   1.576  0.0838 -0.4670 -0.1774
 5961SOL     OW23609   4.287   4.992   0.801 -0.3055 -0.2252 -0.3263
 5961SOL    HW223610   4.241   5.072   0.777 -1.0671 -0.5490  0.0307
 5961SOL    HW323611   4.280   4.936   0.723  1.2088  0.4626 -0.9991
 5961SOL    MW423612   4.280   4.995   0.788 -0.2062 -0.1772 -0.3679
 5962SOL     OW23613   5.142   1.529   5.940 -0.1185  0.3322 -0.2565
 5962SOL    HW223614   5.079   1.591   5.976 -1.3508 -0.8237 -0.3427
 5962SOL    HW323615   5.109   1.508   5.853 -1.1499 -2.2454  0.6514
 5962SOL    MW423616   5.129   1.534   5.934 -0.4171 -0.1604 -0.1481
 5963SOL     OW23617   0.749   4.780   1.840  0.0554  0.1419 -0.0284
 5963SOL    HW223618   0.814   4.799   1.772 -1.2750  3.1735 -0.6157
 5963SOL    HW323619   0.799   4.778   1.921  0.9778  2.2801 -0.4814
 5963SOL    MW423620   0.764   4.782   1.842  0.0016  0.8240 -0.1657
 5964SOL     OW23621   5.266   5.051   0.489  0.6465 -0.8694 -0.0452
 5964SOL    HW223622   5.195   5.096   0.535 -0.3481  0.8753 -2.9973
 5964SOL    HW323623   5.345   5.078   0.536 -0.1720  1.8641 -0.0531
 5964SOL    MW423624   5.267   5.061   0.502  0.4073 -0.2786 -0.4358
 5965SOL     OW23625   2.777   0.501   0.683 -0.6186  0.8846 -0.3963
 5965SOL    HW223626   2.720   0.497   0.759  2.1204 -1.2080  1.7604
 5965SOL    HW323627   2.858   0.542   0.715  1.0706 -1.1522 -1.7481
 5965SOL    MW423628   2.780   0.506   0.697 -0.0343  0.3398 -0.2901
 5966SOL     OW23629   1.163   5.856   6.131 -0.1363  0.1183  0.3258
 5966SOL    HW223630   1.199   5.786   6.076 -0.1691 -0.3740  0.9117
 5966SOL    HW323631   1.234   5.919   6.140  0.1347 -0.1923  0.3823
 5966SOL    MW423632   1.177   5.855   6.125 -0.1049  0.0124  0.4105
 5967SOL     OW23633   2.586   2.737   2.595 -0.1868  0.6123 -0.1196
 5967SOL    HW223634   2.598   2.799   2.524 -1.6608  1.5466  0.3936
 5967SOL    HW323635   2.527   2.671   2.560  0.0453  0.4070 -0.1297
 5967SOL    MW423636   2.580   2.736   2.581 -0.3507  0.7085 -0.0532
 5968SOL     OW23637   4.111   1.166   3.790 -0.3842 -0.1297 -0.9848
 5968SOL    HW223638   4.071   1.089   3.829 -0.9259  0.0090 -1.2620
 5968SOL    HW323639   4.133   1.222   3.864  0.7633 -0.8953 -0.7200
 5968SOL    MW423640   4.109   1.163   3.805 -0.3043 -0.2125 -0.9864
 5969SOL     OW23641   1.954   4.471   6.342  0.2681  0.4224 -0.5323
 5969SOL    HW223642   1.933   4.383   6.311  0.3136 -0.4070  1.5872
 5969SOL    HW323643   2.024   4.500   6.284 -1.5351  0.2036 -2.9648
 5969SOL    MW423644   1.961   4.463   6.330  0.0362  0.2841 -0.5736
 5970SOL     OW23645   1.852   5.077   4.220 -0.1050 -0.6175 -0.1650
 5970SOL    HW223646   1.863   4.990   4.181  0.2968 -0.7584  0.2504
 5970SOL    HW323647   1.773   5.069   4.275 -2.4166  0.3610 -3.0533
 5970SOL    MW423648   1.843   5.064   4.222 -0.3569 -0.5070 -0.4912
 5971SOL     OW23649   3.876   2.365   5.054 -0.8305  0.0650 -0.5645
 5971SOL    HW223650   3.897   2.333   5.141 -1.9034 -1.1994 -0.7575
 5971SOL    HW323651   3.961   2.393   5.018 -0.1540 -0.8380  0.2948
 5971SOL    MW423652   3.890   2.365   5.061 -0.8828 -0.2210 -0.4766
 5972SOL     OW23653   3.016   2.332   1.769 -0.2363  0.0240  0.1460
 5972SOL    HW223654   3.026   2.259   1.829  0.7873  1.3072  1.5912
 5972SOL    HW323655   3.095   2.330   1.715  0.4632  0.8248  1.0955
 5972SOL    MW423656   3.028   2.322   1.770 -0.0090  0.2989  0.4620
 5973SOL     OW23657   2.060   4.329   1.918  0.5010  0.5943  0.0161
 5973SOL    HW223658   2.100   4.405   1.876  0.0906 -0.5596 -2.6817
 5973SOL    HW323659   2.134   4.280   1.954  0.9525  1.2554  0.0083
 5973SOL    MW423660   2.075   4.333   1.917  0.5065  0.5293 -0.3409
 5974SOL     OW23661   4.759   1.467   3.954  0.0519 -0.0128 -0.2871
 5974SOL    HW223662   4.713   1.550   3.966  0.5575  0.1218  0.8649
 5974SOL    HW323663   4.712   1.406   4.011  0.5426 -0.1630 -0.0345
 5974SOL    MW423664   4.747   1.470   3.963  0.1833 -0.0148 -0.1018
 5975SOL     OW23665   5.186   1.270   3.270  0.8124  0.2934 -0.1946
 5975SOL    HW223666   5.165   1.287   3.362  1.8323 -2.4320  0.6344
 5975SOL    HW323667   5.280   1.285   3.264  1.5396 -3.2245  0.2896
 5975SOL    MW423668   5.196   1.274   3.281  1.0429 -0.5303 -0.0214
 5976SOL     OW23669   4.986   1.546   3.643 -0.1381  0.2725 -0.0431
 5976SOL    HW223670   4.897   1.535   3.676 -0.4428  1.7030 -0.2996
 5976SOL    HW323671   5.017   1.626   3.685  0.2007  1.0254 -1.6273
 5976SOL    MW423672   4.978   1.555   3.653 -0.1336  0.5606 -0.2859
 5977SOL     OW23673   0.054   4.258   1.736  0.3671  0.6977  0.0832
 5977SOL    HW223674   0.045   4.318   1.662  0.3884  0.7614  0.1317
 5977SOL    HW323675  -0.021   4.199   1.728  2.4098 -1.7970 -2.2489
 5977SOL    MW423676   0.043   4.258   1.725  0.6394  0.3769 -0.2181
 5978SOL     OW23677   1.469   5.416   0.484  0.6264  0.3523 -0.0353
 5978SOL    HW223678   1.563   5.421   0.502  0.4118  0.8716  0.9890
 5978SOL    HW323679   1.428   5.406   0.570 -0.1968 -0.9919 -0.5502
 5978SOL    MW423680   1.476   5.415   0.498  0.4895  0.2435  0.0319
 5979SOL     OW23681   5.477   0.292   4.116  0.4309  0.2869 -0.0043
 5979SOL    HW223682   5.475   0.213   4.170  2.6415  1.1998  1.5900
 5979SOL    HW323683   5.506   0.262   4.030 -3.0937 -1.1960 -0.8538
 5979SOL    MW423684   5.481   0.278   4.112  0.2576  0.2117  0.0939
 5980SOL     OW23685   4.622   6.043   0.116 -0.3476  0.2930 -0.0253
 5980SOL    HW223686   4.612   6.016   0.025  1.4105  1.7791 -0.7369
 5980SOL    HW323687   4.704   6.001   0.144 -1.2295 -0.7238  1.1358
 5980SOL    MW423688   4.632   6.034   0.108 -0.2320  0.3549  0.0340
 5981SOL     OW23689   5.887   3.902   2.720 -0.0850  0.3866  0.0668
 5981SOL    HW223690   5.944   3.947   2.657 -0.1708  0.5289  0.0890
 5981SOL    HW323691   5.809   3.879   2.669  1.0406 -2.1720 -0.6694
 5981SOL    MW423692   5.884   3.905   2.705  0.0522  0.0678 -0.0274
 5982SOL     OW23693   1.324   5.427   1.903 -0.3527  0.1342  0.1840
 5982SOL    HW223694   1.260   5.437   1.973 -0.2999 -0.8224  0.3823
 5982SOL    HW323695   1.392   5.371   1.941  1.4080  2.3619  0.5178
 5982SOL    MW423696   1.325   5.421   1.917 -0.1134  0.3019  0.2542
 5983SOL     OW23697   1.459   2.715   1.723  0.0325  0.6802  0.3472
 5983SOL    HW223698   1.519   2.725   1.649 -0.6110 -0.6844 -0.3799
 5983SOL    HW323699   1.408   2.796   1.723 -0.3536  0.4740 -1.0850
 5983SOL    MW423700   1.460   2.727   1.713 -0.1034  0.4730  0.0623
 5984SOL     OW23701   1.484   5.934   3.473  0.0917 -0.3384 -0.1894
 5984SOL    HW223702   1.448   6.008   3.521 -1.6795  2.2356 -4.8100
 5984SOL    HW323703   1.410   5.875   3.459  0.0292 -0.0227 -1.3230
 5984SOL    MW423704   1.470   5.936   3.477 -0.1503  0.0429 -0.9486
 5985SOL     OW23705   5.165   4.819   0.353 -0.7834 -0.1601  0.1634
 5985SOL    HW223706   5.196   4.893   0.405  0.7207  0.3736 -1.4073
 5985SOL    HW323707   5.123   4.859   0.277  0.2976 -0.8762 -0.8457
 5985SOL    MW423708   5.163   4.834   0.350 -0.4424 -0.1842 -0.1769
 5986SOL     OW23709   5.002   3.050   3.244  0.1438 -0.3635  0.1378
 5986SOL    HW223710   4.948   3.023   3.318  1.3880  0.3752  1.3617
 5986SOL    HW323711   4.940   3.091   3.183 -0.9376 -1.1997  0.6385
 5986SOL    MW423712   4.987   3.052   3.245  0.1653 -0.3764  0.3653
 5987SOL     OW23713   5.041   4.534   1.254 -0.3201 -0.2620 -0.2541
 5987SOL    HW223714   4.999   4.470   1.196  0.1839 -0.5060 -0.3539
 5987SOL    HW323715   4.968   4.577   1.298 -0.6716 -1.0136 -0.0752
 5987SOL    MW423716   5.026   4.531   1.253 -0.3000 -0.3934 -0.2437
 5988SOL     OW23717   0.433   2.895   3.840  0.1101 -0.4688 -0.2247
 5988SOL    HW223718   0.524   2.914   3.817  0.1037  2.0775  1.5410
 5988SOL    HW323719   0.405   2.832   3.773  2.4917  0.2793 -2.0800
 5988SOL    MW423720   0.441   2.889   3.828  0.4235 -0.0341 -0.2365
 5989SOL     OW23721   6.189   1.830   3.122  0.1705 -0.1460  0.0157
 5989SOL    HW223722   6.176   1.818   3.028  0.7830 -0.2757 -0.0528
 5989SOL    HW323723   6.108   1.798   3.162  0.2661 -0.9308 -0.4073
 5989SOL    MW423724   6.176   1.824   3.115  0.2639 -0.2666 -0.0491
 5990SOL     OW23725   4.800   6.272   0.692  0.1559 -0.5021 -0.2135
 5990SOL    HW223726   4.843   6.218   0.626 -0.2459  0.0443 -0.9507
 5990SOL    HW323727   4.866   6.336   0.718 -0.4535  0.9715 -2.0811
 5990SOL    MW423728   4.814   6.274   0.687  0.0225 -0.2356 -0.5571
 5991SOL     OW23729   3.128   1.066   1.654 -0.4121  0.0339 -0.1998
 5991SOL    HW223730   3.086   1.151   1.637  1.2245  0.9636  0.1905
 5991SOL    HW323731   3.062   1.017   1.703 -0.6449  1.9129  1.5222
 5991SOL    MW423732   3.114   1.071   1.658 -0.2269  0.4045  0.0789
 5992SOL     OW23733   5.740   3.386   2.065  0.2095  0.4741  0.5478
 5992SOL    HW223734   5.765   3.318   2.003 -1.2848  0.0574  0.3709
 5992SOL    HW323735   5.730   3.465   2.012  0.0124  0.3756  0.4400
 5992SOL    MW423736   5.742   3.387   2.050 -0.0136  0.4061  0.5102
 5993SOL     OW23737   4.773   2.193   1.580 -0.2250 -1.4133 -0.2367
 5993SOL    HW223738   4.740   2.261   1.639  0.4851 -1.7834  0.6053
 5993SOL    HW323739   4.864   2.181   1.606 -0.0187 -1.8900 -1.1372
 5993SOL    MW423740   4.781   2.200   1.591 -0.1041 -1.5250 -0.2444
 5994SOL     OW23741   5.062   3.687   0.954 -0.2916  0.1461 -0.3102
 5994SOL    HW223742   5.019   3.771   0.934 -0.7347 -0.1709 -0.7060
 5994SOL    HW323743   5.026   3.661   1.038  0.4342  0.7319  0.1975
 5994SOL    MW423744   5.052   3.695   0.962 -0.2543  0.1816 -0.2954
 5995SOL     OW23745   2.053   5.017   2.959  0.3556  0.1139  0.2295
 5995SOL    HW223746   2.015   5.033   3.046 -2.7956 -1.2642 -0.7538
 5995SOL    HW323747   2.001   5.072   2.900  0.3279 -1.3159 -1.1312
 5995SOL    MW423748   2.041   5.027   2.963 -0.0638 -0.2566 -0.0797
 5996SOL     OW23749   1.104   0.497   3.624 -0.2787 -0.1574  0.5951
 5996SOL    HW223750   1.030   0.530   3.571 -0.9389  0.2222  1.7227
 5996SOL    HW323751   1.105   0.403   3.607  2.0517  0.3492 -3.2140
 5996SOL    MW423752   1.094   0.489   3.615 -0.0583 -0.0405  0.2413
 5997SOL     OW23753   1.726   1.260   3.885  0.0721  0.5161 -0.2289
 5997SOL    HW223754   1.747   1.166   3.883  0.3920  0.5856 -2.2033
 5997SOL    HW323755   1.657   1.270   3.820 -0.3672  1.5755  0.3870
 5997SOL    MW423756   1.720   1.249   3.876  0.0564  0.6650 -0.4081
 5998SOL     OW23757   2.827   3.742   2.266 -0.3546 -0.0485 -0.0865
 5998SOL    HW223758   2.822   3.796   2.187  1.2426 -1.7629 -1.4550
 5998SOL    HW323759   2.779   3.791   2.332 -2.4535  1.0886 -2.3111
 5998SOL    MW423760   2.820   3.755   2.264 -0.4208 -0.1246 -0.5605
 5999SOL     OW23761   5.424   4.121   3.359  0.0391  0.1886 -0.2930
 5999SOL    HW223762   5.388   4.210   3.356 -2.0201 -0.5956 -0.2507
 5999SOL    HW323763   5.382   4.075   3.287 -0.3623 -1.2481  0.8184
 5999SOL    MW423764   5.414   4.127   3.349 -0.2855 -0.1044 -0.1408
 6000SOL     OW23765   6.090   1.727   0.462 -0.5642  0.0699 -0.7759
 6000SOL    HW223766   6.080   1.749   0.370 -0.6310 -2.4794 -1.4445
 6000SOL    HW323767   6.154   1.790   0.495  0.8226 -0.0926 -3.0027
 6000SOL    MW423768   6.097   1.739   0.454 -0.3900 -0.2879 -1.1579
 6001SOL     OW23769   2.972   3.390   2.798 -0.0978  0.4181 -0.0491
 6001SOL    HW223770   2.993   3.417   2.888  1.9910 -1.0775 -0.0170
 6001SOL    HW323771   2.889   3.344   2.806  0.8035 -1.0715  1.4427
 6001SOL    MW423772   2.964   3.388   2.811  0.2967  0.0242  0.1520
 6002SOL     OW23773   5.762   4.295   5.993  0.0934  0.1176  0.0533
 6002SOL    HW223774   5.816   4.283   6.070 -2.6731  0.2768  2.1817
 6002SOL    HW323775   5.789   4.379   5.956 -0.1273  1.2693  2.3528
 6002SOL    MW423776   5.772   4.304   5.998 -0.3008  0.2906  0.6375
 6003SOL     OW23777   6.251   4.201   4.090  0.6919 -0.1951  0.0653
 6003SOL    HW223778   6.180   4.262   4.111  0.7698 -0.0783 -0.0063
 6003SOL    HW323779   6.330   4.249   4.114  0.8190  0.1746 -1.0490
 6003SOL    MW423780   6.252   4.216   4.096  0.7190 -0.1309 -0.0911
 6004SOL     OW23781   0.427   4.441   3.286 -0.3080  0.0662  0.0831
 6004SOL    HW223782   0.341   4.471   3.258 -0.1268 -0.6190 -1.3269
 6004SOL    HW323783   0.428   4.348   3.262  0.2903 -0.2905  1.4288
 6004SOL    MW423784   0.416   4.433   3.279 -0.2051 -0.0713  0.0746
 6005SOL     OW23785   5.244   5.288   2.206  0.2340 -0.4122 -0.2519
 6005SOL    HW223786   5.182   5.308   2.276  0.8130 -0.7184  0.3605
 6005SOL    HW323787   5.318   5.246   2.251  1.0633  0.3106 -0.9076
 6005SOL    MW423788   5.246   5.285   2.221  0.4198 -0.3573 -0.2576
 6006SOL     OW23789   2.226   0.424   0.252 -0.2244 -0.2114  0.0802
 6006SOL    HW223790   2.216   0.328   0.251 -1.0984 -0.1368  0.7045
 6006SOL    HW323791   2.272   0.444   0.170 -2.1616 -0.9475 -1.2541
 6006SOL    MW423792   2.231   0.414   0.241 -0.5953 -0.2987 -0.0135
 6007SOL     OW23793   0.200   5.796   2.151 -0.7515 -0.2099  0.3596
 6007SOL    HW223794   0.105   5.782   2.147 -1.0914  1.1996  2.0827
 6007SOL    HW323795   0.235   5.715   2.187 -1.0776 -1.3198 -1.6821
 6007SOL    MW423796   0.192   5.783   2.155 -0.8393 -0.1704  0.3176
 6008SOL     OW23797   4.691   0.144   1.250  0.2793 -0.3151  0.2750
 6008SOL    HW223798   4.774   0.107   1.218  0.9328  1.7927 -0.6175
 6008SOL    HW323799   4.648   0.070   1.294  2.3229 -1.6407  0.2102
 6008SOL    MW423800   4.697   0.129   1.252  0.6351 -0.2119  0.1487
 6009SOL     OW23801   4.709   1.207   1.693 -0.0133  0.1002  0.1298
 6009SOL    HW223802   4.635   1.146   1.687  0.6761 -0.7870  0.6128
 6009SOL    HW323803   4.786   1.152   1.700  0.6777  1.0278 -0.0070
 6009SOL    MW423804   4.709   1.192   1.693  0.1689  0.1055  0.1755
 6010SOL     OW23805   3.163   1.567   0.955 -0.1094  0.5092  0.3044
 6010SOL    HW223806   3.071   1.594   0.960  0.0012  1.5496 -2.2077
 6010SOL    HW323807   3.163   1.479   0.994 -2.0024  0.7684  1.0418
 6010SOL    MW423808   3.151   1.559   0.961 -0.3446  0.6806  0.0703
 6011SOL     OW23809   4.420   3.160   0.806 -0.1656  0.2366 -0.1273
 6011SOL    HW223810   4.499   3.139   0.757  0.5630 -1.3508  1.6096
 6011SOL    HW323811   4.374   3.077   0.815 -0.1995  0.4284  1.9565
 6011SOL    MW423812   4.424   3.147   0.801 -0.0739  0.0525  0.3768
 6012SOL     OW23813   4.182   3.188   3.587  0.0546  0.2631 -0.2155
 6012SOL    HW223814   4.208   3.215   3.499 -1.0783  0.8519 -0.3890
 6012SOL    HW323815   4.168   3.093   3.581  1.8504 -0.0357 -0.1704
 6012SOL    MW423816   4.184   3.179   3.575  0.1420  0.3013 -0.2325
 6013SOL     OW23817   2.216   2.434   0.334 -0.0274  0.1322  0.1467
 6013SOL    HW223818   2.237   2.445   0.427  1.0390  1.8230 -0.2555
 6013SOL    HW323819   2.120   2.427   0.332 -0.0730  0.1270  1.3602
 6013SOL    MW423820   2.206   2.434   0.346  0.1073  0.3546  0.2537
 6014SOL     OW23821   4.261   4.168   4.678  0.0444  0.0389  0.0148
 6014SOL    HW223822   4.311   4.191   4.600 -0.2717 -1.5910 -0.7272
 6014SOL    HW323823   4.322   4.118   4.732  0.5264  1.9007  1.2702
 6014SOL    MW423824   4.275   4.164   4.675  0.0663  0.0695  0.0826
 6015SOL     OW23825   0.511   6.376   6.086 -0.0597 -0.2547 -0.2943
 6015SOL    HW223826   0.475   6.319   6.154 -1.6851  1.5052  0.3825
 6015SOL    HW323827   0.563   6.441   6.134 -0.3728  0.3843 -0.8133
 6015SOL    MW423828   0.513   6.377   6.101 -0.3154  0.0618 -0.2735
 6016SOL     OW23829   5.731   1.325   0.576  0.1322 -0.0089 -0.1397
 6016SOL    HW223830   5.674   1.291   0.645 -0.4429  1.0265 -0.0885
 6016SOL    HW323831   5.806   1.363   0.623 -0.1833  0.5536 -0.0786
 6016SOL    MW423832   5.734   1.326   0.591  0.0147  0.2019 -0.1249
 6017SOL     OW23833   5.122   1.672   2.487  0.0719  0.4274 -0.0329
 6017SOL    HW223834   5.144   1.595   2.435 -1.8487 -0.1139 -0.1233
 6017SOL    HW323835   5.143   1.747   2.430  1.3561 -0.0208 -0.1791
 6017SOL    MW423836   5.128   1.672   2.473 -0.0121  0.2969 -0.0641
 6018SOL     OW23837   4.562   4.718   3.990  0.0143  0.2326  0.2662
 6018SOL    HW223838   4.647   4.682   4.014 -1.3778 -2.1334  2.0102
 6018SOL    HW323839   4.524   4.653   3.931  0.0659  2.1298 -2.0093
 6018SOL    MW423840   4.568   4.705   3.985 -0.1625  0.1708  0.1961
 6019SOL     OW23841   4.650   3.394   0.309 -0.1891 -0.4957 -0.1827
 6019SOL    HW223842   4.558   3.400   0.282  0.5549 -1.1070 -3.2390
 6019SOL    HW323843   4.694   3.355   0.234  2.6786  0.1975  1.0195
 6019SOL    MW423844   4.644   3.389   0.296  0.2874 -0.4849 -0.4274
 6020SOL     OW23845   4.041   5.122   0.964  0.9615  0.3457  0.1372
 6020SOL    HW223846   3.969   5.124   1.027  0.8026 -0.1813 -0.0216
 6020SOL    HW323847   4.040   5.033   0.929  1.0971  0.6102 -0.5531
 6020SOL    MW423848   4.031   5.110   0.968  0.9585  0.3110  0.0252
 6021SOL     OW23849   3.566   3.187   5.575 -0.0101 -0.1022  0.0272
 6021SOL    HW223850   3.607   3.273   5.567  1.2100 -0.7824 -1.8254
 6021SOL    HW323851   3.613   3.145   5.647 -0.5689  0.7385  0.8990
 6021SOL    MW423852   3.578   3.193   5.583  0.0771 -0.0810 -0.1022
 6022SOL     OW23853   5.618   1.935   0.686  0.0082  0.2307  0.2448
 6022SOL    HW223854   5.610   1.922   0.592 -0.7075  1.3986  0.1147
 6022SOL    HW323855   5.705   1.902   0.708 -0.5484 -1.8268 -0.4737
 6022SOL    MW423856   5.629   1.929   0.677 -0.1596  0.1133  0.1328
 6023SOL     OW23857   0.842   2.076   6.339  0.0143  0.2373 -0.2194
 6023SOL    HW223858   0.904   2.148   6.331 -2.3296  2.5046  0.5891
 6023SOL    HW323859   0.896   1.998   6.352  2.6528  1.8938 -0.6282
 6023SOL    MW423860   0.857   2.075   6.340  0.0531  0.7550 -0.1667
 6024SOL     OW23861   6.389   2.325   3.407  0.0581  0.2662 -0.0280
 6024SOL    HW223862   6.460   2.308   3.345  0.9599  1.3863  0.6603
 6024SOL    HW323863   6.423   2.294   3.491 -0.5470  0.1834  0.1920
 6024SOL    MW423864   6.403   2.319   3.410  0.0972  0.4030  0.0919
 6025SOL     OW23865   2.132   3.980   1.426  0.2660  0.3024  0.0258
 6025SOL    HW223866   2.183   4.011   1.500  0.3204 -0.2454  0.2187
 6025SOL    HW323867   2.115   4.059   1.374  0.7505  0.5854  0.2961
 6025SOL    MW423868   2.136   3.995   1.429  0.3371  0.2675  0.0869
 6026SOL     OW23869   2.079   2.245   5.983 -0.0672 -0.0426 -0.5598
 6026SOL    HW223870   2.082   2.149   5.974  2.6448 -0.0239 -0.5664
 6026SOL    HW323871   2.139   2.264   6.055 -2.0999  1.5778  0.8400
 6026SOL    MW423872   2.087   2.235   5.992  0.0224  0.1736 -0.3760
 6027SOL     OW23873   2.576   1.541   4.139  0.2275 -0.5790  0.1722
 6027SOL    HW223874   2.572   1.621   4.190  0.5071 -0.1361 -0.4800
 6027SOL    HW323875   2.668   1.533   4.113  0.1007 -0.8144 -0.2195
 6027SOL    MW423876   2.588   1.550   4.142  0.2477 -0.5516  0.0345
 6028SOL     OW23877   3.918   0.655   3.915  0.2376  0.0471  0.2429
 6028SOL    HW223878   3.939   0.654   3.821 -1.6564  2.3793 -0.2987
 6028SOL    HW323879   3.822   0.655   3.918  0.2169 -2.0016  2.3134
 6028SOL    MW423880   3.908   0.655   3.903 -0.0150  0.0845  0.4446
 6029SOL     OW23881   5.533   1.688   2.827  0.1717 -0.5187  0.1670
 6029SOL    HW223882   5.444   1.718   2.811 -0.4493 -1.1798  2.1178
 6029SOL    HW323883   5.535   1.600   2.789 -0.2331 -0.7575  0.6777
 6029SOL    MW423884   5.521   1.680   2.820  0.0363 -0.6374  0.4918
 6030SOL     OW23885   0.471   4.196   0.607 -0.2431  0.1347 -0.7997
 6030SOL    HW223886   0.395   4.218   0.554 -1.0158 -0.7678 -0.1006
 6030SOL    HW323887   0.530   4.150   0.547 -0.2648  0.7794 -1.3265
 6030SOL    MW423888   0.469   4.192   0.592 -0.3479  0.1007 -0.7770
 6031SOL     OW23889   1.543   4.850   4.019 -0.1160  1.1684  0.2423
 6031SOL    HW223890   1.478   4.814   3.960  0.1336 -0.0690  0.6920
 6031SOL    HW323891   1.590   4.915   3.966 -1.0037  1.3047 -0.3953
 6031SOL    MW423892   1.541   4.854   4.004 -0.2002  1.0231  0.2175
 6032SOL     OW23893   0.839   0.056   6.337  0.3582  0.1121 -0.1602
 6032SOL    HW223894   0.873  -0.014   6.282  1.5362  0.9339 -0.5142
 6032SOL    HW323895   0.808   0.012   6.416 -0.8742 -1.0271 -1.2369
 6032SOL    MW423896   0.839   0.041   6.340  0.3510  0.0702 -0.3490
 6033SOL     OW23897   5.815   0.864   1.179 -0.1157  0.3865  0.0130
 6033SOL    HW223898   5.857   0.907   1.253  0.9441  0.6414 -0.7199
 6033SOL    HW323899   5.758   0.798   1.219  1.3882 -0.3497  1.0458
 6033SOL    MW423900   5.813   0.861   1.194  0.2226  0.3230  0.0526
 6034SOL     OW23901   3.828   5.594   2.891 -0.2997  0.7947 -0.0372
 6034SOL    HW223902   3.828   5.663   2.825 -1.5154 -0.5816 -1.5631
 6034SOL    HW323903   3.793   5.517   2.846  1.4682 -1.0023  1.4168
 6034SOL    MW423904   3.824   5.593   2.877 -0.2269  0.3760 -0.0467
 6035SOL     OW23905   6.156   2.645   2.740 -0.0141  0.2359 -0.4044
 6035SOL    HW223906   6.082   2.588   2.719 -0.9307  1.3908 -0.4157
 6035SOL    HW323907   6.121   2.708   2.803  0.9084  0.9099 -0.5464
 6035SOL    MW423908   6.142   2.646   2.745 -0.0134  0.4772 -0.4246
 6036SOL     OW23909   5.359   0.737   5.565  0.0528 -0.3803 -0.2260
 6036SOL    HW223910   5.351   0.812   5.624  1.1478 -1.3126  1.1905
 6036SOL    HW323911   5.379   0.775   5.480  0.3828  0.9368  0.4145
 6036SOL    MW423912   5.361   0.752   5.561  0.2408 -0.3295  0.0454
 6037SOL     OW23913   5.936   2.223   6.069 -0.2424  0.1619  0.0802
 6037SOL    HW223914   5.978   2.279   6.004 -0.4159  1.6538  1.2009
 6037SOL    HW323915   5.936   2.136   6.029  0.2882  0.8875 -1.6048
 6037SOL    MW423916   5.941   2.219   6.055 -0.1952  0.4545  0.0058
 6038SOL     OW23917   2.488   3.247   0.936 -0.3171  0.0780 -0.3062
 6038SOL    HW223918   2.437   3.321   0.902  0.7596  0.7900 -0.3989
 6038SOL    HW323919   2.579   3.271   0.921  0.2435  0.2253  2.5767
 6038SOL    MW423920   2.493   3.260   0.930 -0.1011  0.1914  0.0619
 6039SOL     OW23921   3.792   3.711   3.747 -0.4753 -0.1048  0.3806
 6039SOL    HW223922   3.880   3.685   3.777  0.0377  1.1587  0.0457
 6039SOL    HW323923   3.733   3.675   3.813  0.5417  1.6777  2.4023
 6039SOL    MW423924   3.796   3.703   3.760 -0.2734  0.2971  0.6032
 6040SOL     OW23925   4.003   1.406   3.287  0.1992 -0.0126  0.2391
 6040SOL    HW223926   3.941   1.386   3.358 -0.1369 -0.3889 -0.1464
 6040SOL    HW323927   4.089   1.391   3.325 -0.0177 -1.9478  0.0940
 6040SOL    MW423928   4.006   1.401   3.302  0.1262 -0.3175  0.1691
 6041SOL     OW23929   6.219   4.843   2.701 -0.4372  0.5628 -0.0420
 6041SOL    HW223930   6.285   4.898   2.743  0.2445  0.2834 -0.7262
 6041SOL    HW323931   6.172   4.903   2.642  0.5227  0.3631 -1.0357
 6041SOL    MW423932   6.222   4.858   2.699 -0.2206  0.4996 -0.2634
 6042SOL     OW23933   6.201   3.958   5.598  1.0009 -0.3088 -0.7133
 6042SOL    HW223934   6.123   3.977   5.649  0.5365  1.9094 -2.0794
 6042SOL    HW323935   6.167   3.919   5.517  1.3435  0.1132 -1.0643
 6042SOL    MW423936   6.186   3.956   5.594  0.9848  0.0396 -0.9398
 6043SOL     OW23937   1.053   0.172   5.084 -0.4863 -0.3911 -0.0275
 6043SOL    HW223938   1.100   0.171   5.000 -0.4000  0.3382  0.0140
 6043SOL    HW323939   1.036   0.079   5.102 -0.3236 -0.5697 -0.7502
 6043SOL    MW423940   1.057   0.159   5.075 -0.4534 -0.3185 -0.1174
 6044SOL     OW23941   4.709   2.933   1.150 -0.7381  0.1798 -0.4594
 6044SOL    HW223942   4.788   2.947   1.202 -0.8156  0.2946 -0.3699
 6044SOL    HW323943   4.727   2.976   1.067  0.0377 -1.4366 -1.1644
 6044SOL    MW423944   4.722   2.941   1.146 -0.6460 -0.0183 -0.5406
 6045SOL     OW23945   1.521   1.791   0.551 -0.2622 -0.3415  0.0988
 6045SOL    HW223946   1.573   1.720   0.588  0.2243 -0.0345  0.0079
 6045SOL    HW323947   1.434   1.752   0.537 -0.1992 -0.7143  0.7092
 6045SOL    MW423948   1.516   1.776   0.554 -0.1897 -0.3502  0.1674
 6046SOL     OW23949   1.557   5.959   1.637 -0.2980 -0.1718  0.3514
 6046SOL    HW223950   1.591   5.889   1.692 -1.0080  0.3447  1.4975
 6046SOL    HW323951   1.624   5.973   1.571  0.6409 -0.7404  1.1557
 6046SOL    MW423952   1.570   5.952   1.636 -0.2678 -0.1787  0.6087
 6047SOL     OW23953   5.592   3.923   1.093 -0.7733  0.6858 -0.0688
 6047SOL    HW223954   5.527   3.857   1.118  1.5310 -1.6700  0.1236
 6047SOL    HW323955   5.608   3.907   1.000 -0.1983  0.9765 -0.0238
 6047SOL    MW423956   5.586   3.912   1.084 -0.3934  0.4133 -0.0375
 6048SOL     OW23957   3.847   1.660   4.357  0.1065  0.5216 -0.1153
 6048SOL    HW223958   3.833   1.721   4.429  0.4681 -0.2825  0.6558
 6048SOL    HW323959   3.889   1.712   4.289  0.6833  1.0587  0.6400
 6048SOL    MW423960   3.851   1.675   4.358  0.2303  0.4864  0.0861
 6049SOL     OW23961   5.062   5.360   2.402  0.8443 -0.5932 -0.5763
 6049SOL    HW223962   4.974   5.388   2.375  0.8786  0.7650  0.5905
 6049SOL    HW323963   5.083   5.416   2.477  2.6262 -1.0313 -0.6989
 6049SOL    MW423964   5.053   5.371   2.408  1.0840 -0.4718 -0.4385
 6050SOL     OW23965   6.381   0.194   1.520 -0.0078 -0.2350 -0.3124
 6050SOL    HW223966   6.351   0.140   1.448  0.7840 -0.3132 -0.5998
 6050SOL    HW323967   6.386   0.133   1.595  1.1943 -0.6743 -0.7103
 6050SOL    MW423968   6.378   0.178   1.521  0.2553 -0.3033 -0.4028
 6051SOL     OW23969   3.650   0.569   3.251  0.8139  0.0741 -0.0152
 6051SOL    HW223970   3.656   0.501   3.183  1.7498  0.9595 -0.8373
 6051SOL    HW323971   3.638   0.650   3.203 -0.7473  0.4760  0.9836
 6051SOL    MW423972   3.649   0.570   3.236  0.7314  0.2440  0.0081
 6052SOL     OW23973   5.631   0.841   2.021  0.7717 -0.2501  0.7790
 6052SOL    HW223974   5.568   0.908   1.995  2.2560  0.5641 -0.8364
 6052SOL    HW323975   5.631   0.845   2.117 -1.1210  0.1782  0.8006
 6052SOL    MW423976   5.622   0.850   2.030  0.7178 -0.0862  0.5687
 6053SOL     OW23977   6.101   2.856   5.482 -0.3614  0.3268 -0.8011
 6053SOL    HW223978   6.092   2.873   5.389 -1.3455  1.9318 -0.4576
 6053SOL    HW323979   6.022   2.894   5.521 -0.9558 -2.0363  0.5066
 6053SOL    MW423980   6.090   2.864   5.475 -0.5697  0.2267 -0.5832
 6054SOL     OW23981   0.629   0.262   1.604  0.1799 -0.0501 -0.6763
 6054SOL    HW223982   0.673   0.269   1.689  0.9885 -0.4535 -1.0485
 6054SOL    HW323983   0.619   0.353   1.575  0.9326  0.0437 -0.6576
 6054SOL    MW423984   0.633   0.275   1.612  0.3859 -0.0910 -0.7229
 6055SOL     OW23985   0.973   4.795   3.804  0.3514 -0.0423  0.3537
 6055SOL    HW223986   1.006   4.797   3.715  0.4357 -0.8228  0.3573
 6055SOL    HW323987   0.878   4.799   3.795  0.3919  0.7610  0.2741
 6055SOL    MW423988   0.965   4.796   3.791  0.3679 -0.0393  0.3436
 6056SOL     OW23989   0.968   1.449   4.260  0.4886  0.3498 -0.0636
 6056SOL    HW223990   0.921   1.499   4.193  0.8546  2.3118  1.0486
 6056SOL    HW323991   0.993   1.515   4.325  2.5667 -1.0356  0.6303
 6056SOL    MW423992   0.965   1.465   4.260  0.8111  0.4258  0.1747
 6057SOL     OW23993   3.590   0.317   3.112  0.2319  0.2418 -0.4741
 6057SOL    HW223994   3.666   0.260   3.126  2.6013  3.1536 -0.5091
 6057SOL    HW323995   3.574   0.312   3.017 -1.5560 -2.4836 -0.1526
 6057SOL    MW423996   3.598   0.309   3.101  0.3087  0.2664 -0.4363
 6058SOL     OW23997   4.907   4.999   6.288 -0.3900 -0.0929 -0.1808
 6058SOL    HW223998   4.965   4.972   6.359 -0.1931  1.9807  0.5230
 6058SOL    HW323999   4.887   5.091   6.307 -2.0625 -0.0943 -1.6614
 6058SOL    MW424000   4.912   5.007   6.300 -0.5847  0.1805 -0.2833
 6059SOL     OW24001   2.574   5.885   5.697 -0.7772  0.6756 -0.0217
 6059SOL    HW224002   2.599   5.869   5.606 -1.3867  0.4172 -0.1474
 6059SOL    HW324003   2.536   5.973   5.696  0.5088  1.2634  0.2558
 6059SOL    MW424004   2.572   5.894   5.685 -0.6879  0.7191 -0.0017
 6060SOL     OW24005   2.732   3.495   2.405  0.4343  0.3530  0.1731
 6060SOL    HW224006   2.674   3.508   2.480 -1.3794 -1.9236 -0.6853
 6060SOL    HW324007   2.747   3.583   2.370 -1.0497  1.1941  1.5168
 6060SOL    MW424008   2.726   3.508   2.410 -0.0008  0.1636  0.2372
 6061SOL     OW24009   2.690   6.369   1.848  0.2270 -0.6251 -0.6619
 6061SOL    HW224010   2.661   6.439   1.789  1.4293 -0.7402 -1.4356
 6061SOL    HW324011   2.628   6.370   1.920 -1.6934 -0.8776 -2.2184
 6061SOL    MW424012   2.678   6.378   1.849  0.1322 -0.6736 -0.9693
 6062SOL     OW24013   2.968   1.047   0.657  0.5290 -0.0885  0.1023
 6062SOL    HW224014   2.987   1.079   0.745  0.5811 -1.7240  0.7128
 6062SOL    HW324015   2.888   1.093   0.631 -0.8315 -1.2773  1.9738
 6062SOL    MW424016   2.960   1.057   0.665  0.3564 -0.4611  0.4298
 6063SOL     OW24017   1.395   0.792   0.820 -0.4264  0.4560 -0.0283
 6063SOL    HW224018   1.434   0.875   0.793  0.4481  0.2949  0.6634
 6063SOL    HW324019   1.318   0.817   0.872 -1.2809  0.7788 -1.4096
 6063SOL    MW424020   1.390   0.806   0.824 -0.4238  0.4773 -0.1193
 6064SOL     OW24021   4.107   2.366   3.314  0.3398 -0.0423 -0.8284
 6064SOL    HW224022   4.054   2.372   3.394  1.8832 -1.5557  0.3710
 6064SOL    HW324023   4.136   2.456   3.299  0.4543  0.1988  0.6463
 6064SOL    MW424024   4.104   2.379   3.323  0.5585 -0.2101 -0.4756
 6065SOL     OW24025   1.778   0.043   3.207 -0.1588  0.1167  0.5121
 6065SOL    HW224026   1.854   0.064   3.153 -0.2925 -1.1663 -0.2165
 6065SOL    HW324027   1.726   0.124   3.206  0.6165  0.6298  0.0515
 6065SOL    MW424028   1.781   0.057   3.200 -0.0741  0.0151  0.3552
 6066SOL     OW24029   4.738   5.232   5.901 -0.1347  0.0167  0.7357
 6066SOL    HW224030   4.829   5.239   5.932  0.0691  0.7092  0.0152
 6066SOL    HW324031   4.691   5.191   5.974  0.9340 -1.2164  0.7581
 6066SOL    MW424032   4.744   5.228   5.915  0.0332 -0.0546  0.6436
 6067SOL     OW24033   1.282   6.077   2.161 -0.1026  0.4782  0.3064
 6067SOL    HW224034   1.242   6.137   2.098  0.4135  1.1652  0.6207
 6067SOL    HW324035   1.374   6.075   2.138 -0.2973 -1.1574 -0.4541
 6067SOL    MW424036   1.289   6.085   2.150 -0.0602  0.3530  0.2475
 6068SOL     OW24037   6.262   3.796   5.821  0.2235 -0.0409 -0.5808
 6068SOL    HW224038   6.254   3.848   5.741  1.8040  1.0796 -0.0711
 6068SOL    HW324039   6.343   3.827   5.862 -0.6596 -0.3990  1.5888
 6068SOL    MW424040   6.272   3.807   5.816  0.3155  0.0597 -0.2273
 6069SOL     OW24041   4.624   3.129   4.696 -0.3901 -0.0080  0.5518
 6069SOL    HW224042   4.713   3.164   4.689 -0.7237  0.6286 -0.7747
 6069SOL    HW324043   4.635   3.045   4.742  0.9386 -0.1143  0.0764
 6069SOL    MW424044   4.638   3.122   4.701 -0.2588  0.0620  0.3141
 6070SOL     OW24045   0.527   0.532   5.517  0.2748  0.2893 -0.0973
 6070SOL    HW224046   0.607   0.522   5.464 -0.3229 -0.3888 -0.9100
 6070SOL    HW324047   0.489   0.444   5.518  0.1366  0.3454  1.2824
 6070SOL    MW424048   0.533   0.519   5.510  0.1777  0.2072 -0.0225
 6071SOL     OW24049   0.758   5.133   5.507  0.4033  0.5011 -0.0127
 6071SOL    HW224050   0.831   5.183   5.472  0.2677  1.8683  1.5649
 6071SOL    HW324051   0.686   5.196   5.515 -0.9707 -0.7901 -1.4561
 6071SOL    MW424052   0.758   5.148   5.504  0.2041  0.5112  0.0050
 6072SOL     OW24053   3.051   1.630   2.658 -0.3617 -0.5098 -0.6391
 6072SOL    HW224054   3.143   1.640   2.635 -0.1611  0.5894  0.4774
 6072SOL    HW324055   3.053   1.596   2.748 -1.0450 -0.9800 -0.7994
 6072SOL    MW424056   3.063   1.627   2.667 -0.4254 -0.4268 -0.5129
 6073SOL     OW24057   5.564   5.928   2.853 -0.1491 -0.4397  0.6194
 6073SOL    HW224058   5.550   5.909   2.946 -0.1459 -1.4652  0.4251
 6073SOL    HW324059   5.583   6.022   2.850 -1.2195 -0.1631  1.5351
 6073SOL    MW424060   5.564   5.938   2.865 -0.2899 -0.5385  0.7146
 6074SOL     OW24061   4.429   1.267   3.705 -0.1359  0.2912  0.3670
 6074SOL    HW224062   4.368   1.339   3.722 -0.8700  0.0334 -1.0383
 6074SOL    HW324063   4.511   1.310   3.682 -0.4766  0.6967 -0.1321
 6074SOL    MW424064   4.432   1.282   3.704 -0.2777  0.3107  0.1158
 6075SOL     OW24065   2.636   0.198   0.994 -0.6431  0.1760  0.0613
 6075SOL    HW224066   2.647   0.124   0.935  0.1391  0.5088 -0.2180
 6075SOL    HW324067   2.715   0.198   1.049 -1.1216  0.1743  0.7751
 6075SOL    MW424068   2.648   0.188   0.994 -0.6030  0.2197  0.1186
 6076SOL     OW24069   2.987   4.381   4.866  0.4433 -0.1534 -0.3271
 6076SOL    HW224070   3.062   4.350   4.918  0.4043  0.4333  0.0887
 6076SOL    HW324071   2.990   4.328   4.786 -0.0555 -1.7338  0.6650
 6076SOL    MW424072   2.998   4.370   4.862  0.3724 -0.2845 -0.1413
 6077SOL     OW24073   2.602   2.125   4.721  0.1839  0.0892 -0.6298
 6077SOL    HW224074   2.527   2.121   4.661 -0.4510 -0.1791  0.1674
 6077SOL    HW324075   2.655   2.197   4.687 -0.3249  0.1517 -1.3301
 6077SOL    MW424076   2.599   2.134   4.709  0.0330  0.0620 -0.6170
 6078SOL     OW24077   4.434   6.316   2.931 -0.0866 -0.2429 -0.3212
 6078SOL    HW224078   4.487   6.364   2.994 -1.0550 -0.1922  0.4782
 6078SOL    HW324079   4.344   6.326   2.962 -0.6568  0.2513 -2.0157
 6078SOL    MW424080   4.429   6.324   2.943 -0.2896 -0.1710 -0.4393
 6079SOL     OW24081   3.685   4.532   3.524 -0.1904 -0.0565 -0.1379
 6079SOL    HW224082   3.780   4.535   3.530 -0.1919 -0.9935  0.6411
 6079SOL    HW324083   3.668   4.481   3.445  0.0865 -4.4112  2.2686
 6079SOL    MW424084   3.695   4.525   3.514 -0.1541 -0.7547  0.2824
 6080SOL     OW24085   1.571   4.224   0.014 -0.1625  0.5697 -0.2545
 6080SOL    HW224086   1.629   4.192   0.083  1.8304  1.3580 -1.4764
 6080SOL    HW324087   1.535   4.145  -0.025 -0.1926  0.0694  0.7576
 6080SOL    MW424088   1.574   4.210   0.018  0.0965  0.6077 -0.2822
 6081SOL     OW24089   0.504   4.798   3.367  0.5707 -1.1378  0.0880
 6081SOL    HW224090   0.424   4.812   3.418  0.7377 -1.1923  0.3643
 6081SOL    HW324091   0.536   4.713   3.395  1.1407 -0.7807  0.5405
 6081SOL    MW424092   0.498   4.789   3.377  0.6679 -1.0979  0.1842
 6082SOL     OW24093   5.805   5.275   2.338 -0.6518 -0.4935  0.6929
 6082SOL    HW224094   5.768   5.195   2.299 -0.3974 -0.5543  0.5748
 6082SOL    HW324095   5.813   5.335   2.264 -1.2197 -0.2163  0.8517
 6082SOL    MW424096   5.801   5.272   2.323 -0.6931 -0.4649  0.6983
 6083SOL     OW24097   1.875   4.572   0.283 -0.6135 -0.7341  0.4025
 6083SOL    HW224098   1.799   4.566   0.225 -0.2092  0.8135 -0.3417
 6083SOL    HW324099   1.851   4.637   0.349 -0.1477 -0.6331  0.4802
 6083SOL    MW424100   1.862   4.580   0.284 -0.4987 -0.5166  0.3146
 6084SOL     OW24101   5.818   4.551   3.350  0.2820  0.0636 -0.8463
 6084SOL    HW224102   5.815   4.535   3.444  0.3740  0.0065 -0.8535
 6084SOL    HW324103   5.794   4.643   3.341  0.8662  0.2356 -0.7193
 6084SOL    MW424104   5.815   4.561   3.361  0.3712  0.0787 -0.8305
 6085SOL     OW24105   0.334   5.120   6.429 -0.2072  0.6205  0.0853
 6085SOL    HW224106   0.430   5.119   6.422 -0.2978 -0.9383 -2.2244
 6085SOL    HW324107   0.311   5.029   6.448 -1.2669  0.5967 -1.1353
 6085SOL    MW424108   0.344   5.108   6.430 -0.3590  0.4117 -0.3804
 6086SOL     OW24109   3.410   4.167   2.889  0.1392  0.4055  0.2898
 6086SOL    HW224110   3.364   4.245   2.918  1.0216 -0.1352  3.6385
 6086SOL    HW324111   3.501   4.194   2.882  0.0926  0.2487 -1.1154
 6086SOL    MW424112   3.416   4.180   2.892  0.2495  0.3134  0.5462
 6087SOL     OW24113   4.693   4.079   5.654 -0.3344  0.1166 -0.0959
 6087SOL    HW224114   4.735   4.005   5.697  0.0314  0.1433 -0.4036
 6087SOL    HW324115   4.721   4.156   5.704 -1.0226  0.0229  0.4618
 6087SOL    MW424116   4.702   4.080   5.666 -0.3769  0.1078 -0.0629
 6088SOL     OW24117   1.826   0.521   3.963 -0.3155 -0.1885  0.2160
 6088SOL    HW224118   1.732   0.513   3.979 -0.0755 -1.0846  1.2597
 6088SOL    HW324119   1.867   0.481   4.039  0.9283  0.5871 -0.0150
 6088SOL    MW424120   1.819   0.515   3.975 -0.1198 -0.2044  0.3233
 6089SOL     OW24121   3.298   3.247   2.424 -0.0439 -0.5416 -0.5522
 6089SOL    HW224122   3.359   3.272   2.494 -0.3757 -0.5092 -0.2710
 6089SOL    HW324123   3.276   3.156   2.442 -2.8133  0.3786  1.4544
 6089SOL    MW424124   3.303   3.239   2.436 -0.4530 -0.4160 -0.2504
 6090SOL     OW24125   6.126   4.048   6.145 -0.3056  0.5430  0.2050
 6090SOL    HW224126   6.049   4.097   6.174 -1.7831 -2.0183  0.9005
 6090SOL    HW324127   6.172   4.025   6.225 -0.0643  0.1180 -0.0499
 6090SOL    MW424128   6.122   4.052   6.159 -0.4687  0.1490  0.2631
 6091SOL     OW24129   4.047   6.313   5.952 -0.3942  0.2125 -0.3738
 6091SOL    HW224130   4.073   6.235   6.000 -0.6042  0.5606  0.3232
 6091SOL    HW324131   3.964   6.338   5.992  0.6841  2.0017  0.8687
 6091SOL    MW424132   4.039   6.306   5.964 -0.2797  0.4945 -0.1179
 6092SOL     OW24133   6.004   2.957   6.376  0.2583 -0.0118 -0.0488
 6092SOL    HW224134   5.914   2.955   6.343  0.1511 -0.2876  0.2538
 6092SOL    HW324135   6.054   2.904   6.315  0.0844 -0.4182  0.1556
 6092SOL    MW424136   5.999   2.950   6.364  0.2212 -0.1018  0.0181
 6093SOL     OW24137   4.225   2.672   6.195 -0.1649  0.1467 -0.0822
 6093SOL    HW224138   4.269   2.756   6.184  0.2171 -0.1456 -0.8795
 6093SOL    HW324139   4.268   2.632   6.270 -1.4850  1.3561  1.3971
 6093SOL    MW424140   4.237   2.678   6.203 -0.2887  0.2677  0.0078
 6094SOL     OW24141   4.489   5.707   1.653 -0.1037  0.3319  0.5533
 6094SOL    HW224142   4.405   5.689   1.612  0.4277  1.5334 -1.1522
 6094SOL    HW324143   4.532   5.621   1.657 -0.8251 -0.0629  0.1099
 6094SOL    MW424144   4.484   5.693   1.648 -0.1288  0.4383  0.2697
 6095SOL     OW24145   1.590   5.569   0.764  0.3450  0.1975 -0.8225
 6095SOL    HW224146   1.651   5.610   0.702 -1.2077  0.3168 -2.3318
 6095SOL    HW324147   1.638   5.493   0.797  1.7075  0.8813 -1.1353
 6095SOL    MW424148   1.604   5.565   0.760  0.3199  0.3035 -1.0629
 6096SOL     OW24149   4.305   5.826   5.440  0.0238 -0.4088  0.4260
 6096SOL    HW224150   4.282   5.796   5.352 -1.5653  0.6861  0.4204
 6096SOL    HW324151   4.220   5.834   5.485  0.8591 -2.6149  2.6442
 6096SOL    MW424152   4.291   5.823   5.435 -0.0756 -0.5554  0.7179
 6097SOL     OW24153   4.373   4.234   2.139  0.2151  0.4458  0.4200
 6097SOL    HW224154   4.330   4.201   2.218 -0.6358 -0.1722 -0.2780
 6097SOL    HW324155   4.463   4.202   2.146 -0.0939 -0.4014  0.7001
 6097SOL    MW424156   4.379   4.225   2.151  0.0620  0.2525  0.3648
 6098SOL     OW24157   2.111   1.971   6.229 -0.2135 -0.1805  0.1395
 6098SOL    HW224158   2.191   1.960   6.280  0.0156  1.1566  0.1004
 6098SOL    HW324159   2.060   2.036   6.278 -0.5795  0.1313 -0.6356
 6098SOL    MW424160   2.115   1.978   6.242 -0.2316  0.0371  0.0321
 6099SOL     OW24161   2.563   2.742   3.124  0.4075 -0.1239  0.0028
 6099SOL    HW224162   2.629   2.743   3.054  0.3306 -1.9938 -0.1221
 6099SOL    HW324163   2.484   2.708   3.082 -0.0711  0.1764  0.6463
 6099SOL    MW424164   2.562   2.738   3.109  0.3342 -0.3310  0.0712
 6100SOL     OW24165   4.492   0.433   2.960 -0.5303 -0.2257  0.1516
 6100SOL    HW224166   4.572   0.394   2.925 -2.0934 -2.4409 -1.2098
 6100SOL    HW324167   4.505   0.433   3.055  1.1356 -0.3327 -0.0360
 6100SOL    MW424168   4.504   0.428   2.968 -0.5167 -0.5321 -0.0528
 6101SOL     OW24169   0.902   5.470   3.718 -0.3020  0.3268  0.0134
 6101SOL    HW224170   0.936   5.381   3.725  1.1830  0.7672 -1.1250
 6101SOL    HW324171   0.955   5.511   3.650 -2.0899  1.5657 -0.7360
 6101SOL    MW424172   0.913   5.464   3.710 -0.3420  0.5484 -0.2357
 6102SOL     OW24173   2.849   5.804   0.648  0.0070 -0.2151  0.3453
 6102SOL    HW224174   2.872   5.719   0.611 -0.8576 -0.3805  0.1780
 6102SOL    HW324175   2.933   5.840   0.677  0.5250 -0.6810 -0.5066
 6102SOL    MW424176   2.863   5.798   0.647 -0.0387 -0.2984  0.2108
 6103SOL     OW24177   3.020   2.605   5.636 -0.4143 -0.7864  0.1157
 6103SOL    HW224178   3.014   2.605   5.731 -0.1741 -1.2469  0.1305
 6103SOL    HW324179   3.081   2.534   5.615  0.8895  0.4001 -0.2936
 6103SOL    MW424180   3.027   2.596   5.646 -0.2106 -0.6906  0.0636
 6104SOL     OW24181   2.110   4.386   2.667 -0.4406  0.1200 -1.1575
 6104SOL    HW224182   2.183   4.339   2.707  0.0688  1.4384 -0.4966
 6104SOL    HW324183   2.148   4.429   2.591 -0.6340  0.4538 -1.0654
 6104SOL    MW424184   2.124   4.385   2.662 -0.3989  0.3380 -1.0581
 6105SOL     OW24185   2.293   5.881   0.167  0.2505 -0.3218 -0.7103
 6105SOL    HW224186   2.232   5.954   0.169 -0.8710 -1.2285 -0.3728
 6105SOL    HW324187   2.333   5.879   0.254  0.6785  0.1939 -0.8904
 6105SOL    MW424188   2.291   5.890   0.178  0.1590 -0.3734 -0.6896
 6106SOL     OW24189   0.798   2.460   5.868 -0.5761 -0.1935 -0.0609
 6106SOL    HW224190   0.776   2.368   5.857  1.7452 -0.6064 -2.2753
 6106SOL    HW324191   0.767   2.502   5.787 -0.3605  0.6802  0.2987
 6106SOL    MW424192   0.791   2.453   5.856 -0.2414 -0.1327 -0.3056
 6107SOL     OW24193   4.331   2.948   5.758 -0.5140  0.1765  0.6971
 6107SOL    HW224194   4.270   2.876   5.771 -0.8225 -0.2134 -2.3112
 6107SOL    HW324195   4.412   2.906   5.729  0.8808  0.7910  3.3197
 6107SOL    MW424196   4.334   2.933   5.756 -0.3707  0.2062  0.6462
 6108SOL     OW24197   3.940   4.612   3.823  0.1052  0.0114  0.2336
 6108SOL    HW224198   3.955   4.663   3.903 -3.2256 -0.0234  1.0508
 6108SOL    HW324199   3.893   4.534   3.854 -0.7320 -0.2902 -1.6819
 6108SOL    MW424200   3.936   4.608   3.838 -0.4447 -0.0330  0.0887
 6109SOL     OW24201   3.662   5.442   4.123  0.4420  0.1894  0.0992
 6109SOL    HW224202   3.613   5.403   4.050  1.6099  0.4986 -0.8911
 6109SOL    HW324203   3.620   5.407   4.202  0.2695 -1.5899 -0.7309
 6109SOL    MW424204   3.650   5.432   4.124  0.5733 -0.0046 -0.1410
 6110SOL     OW24205   0.100   4.108   4.609 -0.0933 -0.1241  0.0033
 6110SOL    HW224206   0.009   4.127   4.586 -1.1254 -1.6045  2.5396
 6110SOL    HW324207   0.097   4.022   4.650  2.5703 -0.4571 -0.3517
 6110SOL    MW424208   0.087   4.099   4.611  0.1219 -0.3633  0.2911
 6111SOL     OW24209   0.929   5.909   2.575  0.3507  0.3940  0.4037
 6111SOL    HW224210   0.913   5.998   2.607 -0.8348  0.5542 -0.5857
 6111SOL    HW324211   1.002   5.917   2.515 -0.6397  0.9567 -0.7507
 6111SOL    MW424212   0.936   5.922   2.572  0.0636  0.4894  0.1208
 6112SOL     OW24213   0.030   2.374   1.455 -0.7954 -0.1052 -0.1803
 6112SOL    HW224214  -0.005   2.358   1.543 -0.9262  0.6130 -0.0958
 6112SOL    HW324215   0.060   2.465   1.458  1.2733 -0.7212 -0.1745
 6112SOL    MW424216   0.029   2.384   1.467 -0.5397 -0.0917 -0.1684
 6113SOL     OW24217   5.482   5.291   1.522  0.3368  0.0149 -0.6309
 6113SOL    HW224218   5.558   5.318   1.471  0.6720  1.2897  0.4739
 6113SOL    HW324219   5.418   5.361   1.508  1.1215  1.4237  2.0805
 6113SOL    MW424220   5.483   5.304   1.514  0.4845  0.3690 -0.1274
 6114SOL     OW24221   0.126   2.933   1.524 -0.3489  0.5863  0.7280
 6114SOL    HW224222   0.093   2.843   1.519  0.3494  0.3873 -2.3818
 6114SOL    HW324223   0.220   2.924   1.508 -0.4563  1.9288 -0.9276
 6114SOL    MW424224   0.134   2.920   1.521 -0.2710  0.7372  0.0993
 6115SOL     OW24225   2.238   2.323   3.640  0.0212  0.1520 -0.1860
 6115SOL    HW224226   2.186   2.399   3.668 -0.9478 -0.4329 -0.3676
 6115SOL    HW324227   2.325   2.340   3.676 -0.3671  0.9902  0.4084
 6115SOL    MW424228   2.243   2.336   3.649 -0.1579  0.1855 -0.1315
 6116SOL     OW24229   4.560   3.653   3.470 -0.3344 -0.5311  0.3013
 6116SOL    HW224230   4.498   3.660   3.542  0.9435 -0.8386  1.4613
 6116SOL    HW324231   4.535   3.724   3.410 -2.0406 -0.9067  0.5179
 6116SOL    MW424232   4.548   3.663   3.472 -0.3909 -0.6212  0.4829
 6117SOL     OW24233   5.825   1.887   1.837  0.3207  0.0976 -0.0402
 6117SOL    HW224234   5.819   1.791   1.830  0.8035  0.1234 -0.8638
 6117SOL    HW324235   5.753   1.919   1.783 -0.6345  0.1969  1.2442
 6117SOL    MW424236   5.815   1.878   1.829  0.2584  0.1141  0.0206
 6118SOL     OW24237   3.574   3.695   6.276  0.3328  0.0740 -0.0355
 6118SOL    HW224238   3.501   3.657   6.325 -0.8171  0.5770 -1.2925
 6118SOL    HW324239   3.608   3.623   6.223 -0.3806  0.2241 -0.7212
 6118SOL    MW424240   3.569   3.680   6.275  0.0870  0.1602 -0.2918
 6119SOL     OW24241   0.603   0.574   2.878  0.3438  0.1595  0.3609
 6119SOL    HW224242   0.615   0.481   2.862  0.7506  0.6058 -2.4378
 6119SOL    HW324243   0.515   0.593   2.845  0.8903  1.0199 -0.6718
 6119SOL    MW424244   0.593   0.564   2.871  0.4696  0.3319 -0.1446
 6120SOL     OW24245   0.794   1.754   4.962  0.0401 -0.1014 -0.1922
 6120SOL    HW224246   0.732   1.712   4.902 -1.4139  0.0995  1.1121
 6120SOL    HW324247   0.756   1.741   5.049  2.1853 -0.5363  0.7236
 6120SOL    MW424248   0.780   1.747   4.966  0.1313 -0.1323  0.1007
 6121SOL     OW24249   4.575   0.914   3.750  0.2883  0.0929  0.5799
 6121SOL    HW224250   4.519   0.975   3.798 -0.1436  1.9391 -2.0525
 6121SOL    HW324251   4.641   0.969   3.708  1.3601 -1.5428  0.0027
 6121SOL    MW424252   4.576   0.929   3.751  0.3727  0.1207  0.1565
 6122SOL     OW24253   5.110   5.484   0.064  0.1955 -0.0842  0.1520
 6122SOL    HW224254   5.097   5.528   0.148 -1.4816 -1.4305  0.6429
 6122SOL    HW324255   5.024   5.484   0.023  1.4540  3.3292 -3.1061
 6122SOL    MW424256   5.097   5.490   0.070  0.1402  0.1886 -0.2131
 6123SOL     OW24257   2.502   0.804   6.082  0.7201  0.1691  0.4667
 6123SOL    HW224258   2.514   0.794   6.176  0.8622 -0.5246  0.3780
 6123SOL    HW324259   2.526   0.720   6.045  0.4948  0.3775 -0.1787
 6123SOL    MW424260   2.507   0.792   6.089  0.7091  0.1051  0.3698
 6124SOL     OW24261   5.688   5.447   0.796 -0.0797  0.1011  0.3526
 6124SOL    HW224262   5.633   5.372   0.818  0.7852 -0.7169 -0.1700
 6124SOL    HW324263   5.632   5.523   0.809 -1.3943 -0.7123 -0.3499
 6124SOL    MW424264   5.673   5.447   0.801 -0.1390 -0.1142  0.1910
 6125SOL     OW24265   5.184   1.075   1.472  0.3621  0.3783  0.0040
 6125SOL    HW224266   5.238   1.077   1.393  1.1610  1.5279  0.5407
 6125SOL    HW324267   5.094   1.081   1.441  0.6268 -0.0880 -0.8543
 6125SOL    MW424268   5.179   1.076   1.458  0.5024  0.4684 -0.0384
 6126SOL     OW24269   3.902   0.601   3.385 -0.1590  0.0115  1.0095
 6126SOL    HW224270   3.960   0.557   3.323 -1.0030 -0.4568  0.5422
 6126SOL    HW324271   3.818   0.606   3.340 -0.0306  2.3663  0.9416
 6126SOL    MW424272   3.899   0.595   3.371 -0.2534  0.2604  0.9389
 6127SOL     OW24273   0.100   3.902   1.015  0.0627 -0.5341 -0.8998
 6127SOL    HW224274   0.171   3.907   0.952  1.7882  0.9275  1.0091
 6127SOL    HW324275   0.141   3.870   1.095 -1.8753 -1.5895 -0.2412
 6127SOL    MW424276   0.115   3.898   1.018  0.0346 -0.4805 -0.5610
 6128SOL     OW24277   4.603   3.870   3.298  0.7345 -0.2169  0.3558
 6128SOL    HW224278   4.670   3.820   3.251  1.0181 -0.4200  0.9693
 6128SOL    HW324279   4.534   3.885   3.233  1.2949 -0.1538 -0.2353
 6128SOL    MW424280   4.603   3.866   3.283  0.8459 -0.2354  0.3587
 6129SOL     OW24281   6.215   2.114   3.193 -0.2046  0.2183  0.1854
 6129SOL    HW224282   6.127   2.141   3.221  0.3907  1.3098  1.1556
 6129SOL    HW324283   6.206   2.023   3.167 -1.7518  0.5022 -0.3746
 6129SOL    MW424284   6.202   2.106   3.194 -0.3302  0.3998  0.2396
 6130SOL     OW24285   4.261   3.513   5.850 -0.0829 -0.2465 -0.6010
 6130SOL    HW224286   4.343   3.509   5.801  1.8330  2.9852  1.9361
 6130SOL    HW324287   4.204   3.568   5.796 -0.3182 -1.7216 -1.9324
 6130SOL    MW424288   4.265   3.519   5.836  0.1388 -0.0148 -0.4419
 6131SOL     OW24289   2.321   4.323   3.574 -0.0986 -0.5144  0.6936
 6131SOL    HW224290   2.379   4.322   3.498 -0.5462 -0.5206  0.3456
 6131SOL    HW324291   2.306   4.415   3.592 -2.8522 -0.4223 -1.4735
 6131SOL    MW424292   2.327   4.335   3.567 -0.5210 -0.5030  0.3617
 6132SOL     OW24293   1.873   3.603   4.810  0.5243  0.2033 -0.4432
 6132SOL    HW224294   1.794   3.657   4.800 -0.0886 -0.4319  0.6287
 6132SOL    HW324295   1.903   3.622   4.899  0.0851 -1.4361  0.0990
 6132SOL    MW424296   1.866   3.613   4.821  0.3855 -0.0968 -0.2303
 6133SOL     OW24297   2.663   0.155   5.839 -0.1750 -0.0100  0.0778
 6133SOL    HW224298   2.608   0.100   5.783  0.1534  0.6450 -0.9057
 6133SOL    HW324299   2.740   0.175   5.785  0.8566 -0.5826  1.2922
 6133SOL    MW424300   2.666   0.150   5.824  0.0044  0.0008  0.1082
 6134SOL     OW24301   5.281   1.110   1.740 -0.2767 -0.2525  0.0676
 6134SOL    HW224302   5.270   1.102   1.645  0.8283  1.8649 -0.3211
 6134SOL    HW324303   5.212   1.171   1.767  0.5861  0.6762  0.2549
 6134SOL    MW424304   5.270   1.117   1.731 -0.0170  0.1494  0.0410
 6135SOL     OW24305   3.093   3.534   3.461 -0.3993 -0.0330 -0.3144
 6135SOL    HW224306   3.165   3.534   3.524 -0.5767  0.4331 -0.1078
 6135SOL    HW324307   3.135   3.553   3.377 -0.2798  0.2801 -0.1877
 6135SOL    MW424308   3.108   3.537   3.458 -0.4069  0.0698 -0.2704
 6136SOL     OW24309   6.308   5.441   5.784  0.4705 -0.0923 -0.2038
 6136SOL    HW224310   6.382   5.432   5.843  0.2074  0.6311  0.2535
 6136SOL    HW324311   6.298   5.536   5.772  0.4780 -0.2205 -1.3647
 6136SOL    MW424312   6.316   5.453   5.790  0.4368 -0.0138 -0.2966
 6137SOL     OW24313   4.469   1.427   1.973  0.1644  0.0320  0.3995
 6137SOL    HW224314   4.445   1.505   1.923  1.1444  1.2104  1.6800
 6137SOL    HW324315   4.416   1.357   1.935  0.7964  0.8539 -2.1839
 6137SOL    MW424316   4.459   1.428   1.962  0.3771  0.2959  0.2276
 6138SOL     OW24317   4.853   0.855   2.555  0.2503  0.0508  0.6793
 6138SOL    HW224318   4.868   0.910   2.479  1.4013 -1.8694 -0.5875
 6138SOL    HW324319   4.931   0.799   2.560 -0.5919 -1.0769  2.2001
 6138SOL    MW424320   4.865   0.855   2.546  0.2910 -0.3513  0.7128
 6139SOL     OW24321   5.883   1.941   2.353  0.5113  0.1541  0.1324
 6139SOL    HW224322   5.890   2.037   2.356  0.5221  0.1887 -0.6647
 6139SOL    HW324323   5.825   1.924   2.279 -1.1094 -0.4027  1.4794
 6139SOL    MW424324   5.876   1.952   2.343  0.2989  0.0852  0.2050
 6140SOL     OW24325   5.004   5.763   4.981 -0.1378 -0.0590 -0.0803
 6140SOL    HW224326   4.954   5.794   5.057 -0.5321 -1.4096  0.2446
 6140SOL    HW324327   5.095   5.786   5.001 -0.5871  2.6282 -0.7828
 6140SOL    MW424328   5.010   5.770   4.994 -0.2491  0.1174 -0.1301
 6141SOL     OW24329   3.773   1.864   4.547 -0.1185 -0.2146  0.3294
 6141SOL    HW224330   3.677   1.861   4.546 -0.1401  0.1401  1.0588
 6141SOL    HW324331   3.795   1.943   4.498 -0.2020 -0.1865  0.3372
 6141SOL    MW424332   3.763   1.874   4.540 -0.1324 -0.1641  0.4266
 6142SOL     OW24333   6.409   1.979   3.992  0.6723 -0.0229  0.1353
 6142SOL    HW224334   6.493   1.951   4.030 -0.1016 -0.4881  1.5752
 6142SOL    HW324335   6.401   1.928   3.912  0.9366 -1.3652  0.9295
 6142SOL    MW424336   6.419   1.969   3.987  0.6050 -0.2614  0.4301
 6143SOL     OW24337   0.783   2.814   6.385  0.7243 -0.3995 -0.3854
 6143SOL    HW224338   0.709   2.852   6.338  0.5204 -0.0471  0.2156
 6143SOL    HW324339   0.775   2.720   6.369  1.3594 -0.2018 -2.0555
 6143SOL    MW424340   0.772   2.806   6.377  0.7812 -0.3269 -0.5264
 6144SOL     OW24341   0.131   0.603   3.341  0.6622  0.2345  0.5845
 6144SOL    HW224342   0.049   0.580   3.298  1.1356 -1.2512  0.4014
 6144SOL    HW324343   0.159   0.684   3.299  0.6112 -0.6441 -1.2398
 6144SOL    MW424344   0.124   0.611   3.330  0.7179 -0.0774  0.3196
 6145SOL     OW24345   3.771   3.718   5.145  0.0135 -0.4864  0.0138
 6145SOL    HW224346   3.753   3.800   5.192 -0.6552 -0.6619  0.0749
 6145SOL    HW324347   3.862   3.699   5.165 -0.2051 -0.4646  1.1154
 6145SOL    MW424348   3.780   3.726   5.154 -0.1035 -0.5067  0.1672
 6146SOL     OW24349   0.411   2.732   4.117 -0.1161  0.1237 -0.3521
 6146SOL    HW224350   0.340   2.698   4.171  0.2603  0.6253  0.4865
 6146SOL    HW324351   0.372   2.746   4.031 -0.4129 -1.9283 -0.6051
 6146SOL    MW424352   0.397   2.729   4.113 -0.1056 -0.0809 -0.2748
 6147SOL     OW24353   1.802   4.896   4.484 -0.0784  0.2737  0.0776
 6147SOL    HW224354   1.887   4.937   4.466 -0.4756  0.7786 -0.6975
 6147SOL    HW324355   1.815   4.803   4.465 -0.1892  0.6256 -1.8733
 6147SOL    MW424356   1.815   4.889   4.479 -0.1454  0.3867 -0.2821
 6148SOL     OW24357   2.677   2.325   0.777 -0.4163  0.1474  0.4682
 6148SOL    HW224358   2.731   2.262   0.825 -0.4946 -0.6822 -0.4985
 6148SOL    HW324359   2.679   2.404   0.831  1.6454  0.1016  0.5343
 6148SOL    MW424360   2.685   2.327   0.790 -0.1546  0.0319  0.3494
 6149SOL     OW24361   0.766   0.956   2.212 -0.3255  0.0470 -0.0475
 6149SOL    HW224362   0.841   1.014   2.226 -0.6063  0.4278 -0.1034
 6149SOL    HW324363   0.697   0.992   2.267 -0.8790  0.4810 -0.9920
 6149SOL    MW424364   0.767   0.968   2.221 -0.4356  0.1545 -0.1795
 6150SOL     OW24365   0.137   4.227   3.797 -0.0583  0.2530  0.5453
 6150SOL    HW224366   0.123   4.203   3.705 -0.4915 -0.4670  0.7854
 6150SOL    HW324367   0.097   4.155   3.846 -1.3095  1.4257  1.3156
 6150SOL    MW424368   0.129   4.214   3.791 -0.2806  0.3127  0.6786
 6151SOL     OW24369   5.970   1.502   0.192  0.0904 -0.0439 -0.2840
 6151SOL    HW224370   6.028   1.465   0.258 -1.3843 -0.4953  0.7972
 6151SOL    HW324371   5.979   1.597   0.202  0.2890 -0.1119  0.1835
 6151SOL    MW424372   5.979   1.510   0.202 -0.0780 -0.1124 -0.0797
 6152SOL     OW24373   1.888   2.947   1.052 -0.2965  0.2752  0.2531
 6152SOL    HW224374   1.835   2.973   0.976  1.7864 -1.5593 -1.9954
 6152SOL    HW324375   1.962   3.007   1.051  0.0193 -0.1066  0.4852
 6152SOL    MW424376   1.891   2.958   1.042  0.0200 -0.0172 -0.0130
 6153SOL     OW24377   3.230   1.869   5.293  0.2169  0.6288 -0.1136
 6153SOL    HW224378   3.174   1.942   5.321  1.1619  1.5273 -0.5057
 6153SOL    HW324379   3.300   1.866   5.359  1.0568  1.1296 -0.9503
 6153SOL    MW424380   3.232   1.878   5.305  0.4524  0.8134 -0.2757
 6154SOL     OW24381   0.741   4.949   2.620 -0.0670 -0.2854 -0.2796
 6154SOL    HW224382   0.796   4.954   2.542 -0.2521  0.2447 -0.3755
 6154SOL    HW324383   0.735   4.855   2.639  3.1977 -0.2977  1.3939
 6154SOL    MW424384   0.747   4.937   2.613  0.3393 -0.2171 -0.0714
 6155SOL     OW24385   5.502   6.317   5.070  0.0759  0.4415  0.9114
 6155SOL    HW224386   5.494   6.227   5.037  2.9323  0.1994  0.6427
 6155SOL    HW324387   5.415   6.337   5.106 -1.3940 -1.4688 -1.2934
 6155SOL    MW424388   5.489   6.307   5.070  0.2588  0.1575  0.5850
 6156SOL     OW24389   4.848   2.494   0.144  0.0926  0.1565  0.4831
 6156SOL    HW224390   4.895   2.442   0.079 -1.0383  0.7979 -0.8975
 6156SOL    HW324391   4.759   2.458   0.144  0.1125  0.0615  1.8140
 6156SOL    MW424392   4.842   2.482   0.136 -0.0540  0.2286  0.4765
 6157SOL     OW24393   1.335   3.621   2.010  0.4619  0.5376  0.1575
 6157SOL    HW224394   1.279   3.672   2.070  0.2140  1.0582 -0.5020
 6157SOL    HW324395   1.306   3.648   1.923 -1.1770 -2.3167 -0.3078
 6157SOL    MW424396   1.324   3.632   2.007  0.2130  0.2297  0.0091
 6158SOL     OW24397   6.125   3.578   0.365  0.5830 -0.5861  0.1257
 6158SOL    HW224398   6.168   3.664   0.362  2.3321 -1.4123  0.5937
 6158SOL    HW324399   6.031   3.599   0.361  0.9883  1.2675 -1.0931
 6158SOL    MW424400   6.118   3.592   0.364  0.8673 -0.4505  0.0266
 6159SOL     OW24401   5.477   2.134   1.516  0.1252 -0.4220  0.2402
 6159SOL    HW224402   5.507   2.223   1.535  1.1952 -0.6396 -0.3053
 6159SOL    HW324403   5.494   2.123   1.422  0.9216 -1.5274  0.4986
 6159SOL    MW424404   5.483   2.144   1.506  0.3714 -0.5966  0.2023
 6160SOL     OW24405   1.851   4.243   5.285 -0.3037  0.3621  0.5655
 6160SOL    HW224406   1.807   4.313   5.237  1.2434  0.2796 -1.0722
 6160SOL    HW324407   1.830   4.164   5.236 -1.3370 -0.2430  1.9169
 6160SOL    MW424408   1.843   4.242   5.272 -0.2359  0.2714  0.5278
 6161SOL     OW24409   1.114   5.477   2.102  0.3735  0.4690  0.4807
 6161SOL    HW224410   1.130   5.570   2.116  0.4177  0.4077  0.8586
 6161SOL    HW324411   1.024   5.473   2.071  0.2755  0.6199  0.7349
 6161SOL    MW424412   1.104   5.489   2.100  0.3664  0.4808  0.5641
 6162SOL     OW24413   4.410   0.791   4.412 -0.0387  0.0748 -0.4141
 6162SOL    HW224414   4.366   0.864   4.368  0.4752  1.4020  1.1788
 6162SOL    HW324415   4.383   0.799   4.504  0.8419 -1.1221 -0.0317
 6162SOL    MW424416   4.401   0.802   4.418  0.1453  0.0920 -0.1535
 6163SOL     OW24417   0.383   1.218   1.484 -0.4991 -0.0906 -0.2897
 6163SOL    HW224418   0.449   1.165   1.439  0.7765  0.3593  0.9433
 6163SOL    HW324419   0.338   1.155   1.542  0.0523 -0.1045  0.1377
 6163SOL    MW424420   0.386   1.202   1.486 -0.2581 -0.0331 -0.0706
 6164SOL     OW24421   1.784   6.394   2.025  0.0485  0.1585  0.1583
 6164SOL    HW224422   1.696   6.359   2.034 -0.1051  1.0282  2.9310
 6164SOL    HW324423   1.810   6.371   1.936 -2.0458 -2.2019  0.0561
 6164SOL    MW424424   1.776   6.386   2.015 -0.2481 -0.0381  0.5106
 6165SOL     OW24425   1.178   0.074   1.079  0.2148  0.4866  0.4085
 6165SOL    HW224426   1.107   0.009   1.080 -1.5312  2.2801  1.4796
 6165SOL    HW324427   1.237   0.046   1.149 -0.5911  0.1046  0.9551
 6165SOL    MW424428   1.176   0.061   1.088 -0.1219  0.6728  0.6220
 6166SOL     OW24429   1.069   4.920   4.765  0.1356  0.1336  0.0990
 6166SOL    HW224430   1.006   4.870   4.816 -1.1628 -0.2066 -1.7393
 6166SOL    HW324431   1.133   4.855   4.734 -1.8927 -0.6787 -2.8092
 6166SOL    MW424432   1.069   4.905   4.767 -0.3033 -0.0184 -0.5272
 6167SOL     OW24433   3.225   1.460   6.291 -0.7365  0.4498 -0.9998
 6167SOL    HW224434   3.269   1.442   6.208 -1.1487  2.5414 -1.7443
 6167SOL    HW324435   3.131   1.453   6.269 -0.8439  0.9446 -0.7065
 6167SOL    MW424436   3.218   1.457   6.277 -0.8050  0.7910 -1.0593
 6168SOL     OW24437   1.990   0.539   3.456  0.3240  0.2883  0.7091
 6168SOL    HW224438   2.004   0.446   3.439 -1.4255  0.0509  0.3818
 6168SOL    HW324439   1.925   0.542   3.526 -0.7262  1.2449 -0.2645
 6168SOL    MW424440   1.983   0.527   3.463 -0.0454  0.3832  0.5375
 6169SOL     OW24441   0.363   6.353   3.719 -0.4580  0.1559  0.0321
 6169SOL    HW224442   0.437   6.343   3.659 -0.6991 -0.6799 -0.1294
 6169SOL    HW324443   0.307   6.277   3.702 -1.4704  0.8843 -0.0048
 6169SOL    MW424444   0.365   6.342   3.709 -0.6234  0.1418  0.0059
 6170SOL     OW24445   5.786   4.871   4.015 -0.3830  0.3744  0.0049
 6170SOL    HW224446   5.730   4.798   3.988  2.5668 -1.6393 -1.1878
 6170SOL    HW324447   5.792   4.926   3.938 -0.4296  0.3983  0.0183
 6170SOL    MW424448   5.779   4.868   4.001  0.0000  0.1119 -0.1507
 6171SOL     OW24449   3.852   1.388   1.232 -0.2687  0.0907  0.0058
 6171SOL    HW224450   3.936   1.427   1.208 -0.2340  0.5239  0.7709
 6171SOL    HW324451   3.859   1.373   1.327 -2.0630  2.8364  0.7088
 6171SOL    MW424452   3.864   1.391   1.242 -0.5008  0.5101  0.1995
 6172SOL     OW24453   3.903   2.176   3.752 -0.0386 -0.0816  0.5361
 6172SOL    HW224454   3.818   2.219   3.764 -0.3841 -0.9291  1.2881
 6172SOL    HW324455   3.960   2.243   3.715 -1.0313  0.5091  0.0527
 6172SOL    MW424456   3.899   2.190   3.749 -0.2152 -0.1155  0.5715
 6173SOL     OW24457   6.233   5.477   4.908 -0.3901  0.2954 -0.1481
 6173SOL    HW224458   6.241   5.382   4.901 -2.3128 -0.0926  1.7629
 6173SOL    HW324459   6.142   5.495   4.886 -0.7857  1.3221  2.0248
 6173SOL    MW424460   6.222   5.467   4.904 -0.6960  0.3797  0.3907
 6174SOL     OW24461   6.379   4.106   5.165 -0.1671  0.8174 -0.3966
 6174SOL    HW224462   6.465   4.127   5.129 -1.2888  1.7912 -2.6901
 6174SOL    HW324463   6.345   4.190   5.194 -0.5920  0.5289 -0.0588
 6174SOL    MW424464   6.386   4.120   5.164 -0.3712  0.9078 -0.6546
 6175SOL     OW24465   0.278   5.657   4.030  0.4717  0.2011  0.0399
 6175SOL    HW224466   0.306   5.669   3.939  0.5473 -0.5541 -0.0430
 6175SOL    HW324467   0.186   5.681   4.030  0.6952  1.0954 -0.0390
 6175SOL    MW424468   0.270   5.661   4.018  0.5112  0.2195  0.0185
 6176SOL     OW24469   3.470   0.761   0.250 -1.1961 -0.2969  0.0673
 6176SOL    HW224470   3.482   0.847   0.289 -0.7681 -0.3780  0.1178
 6176SOL    HW324471   3.550   0.713   0.273 -0.4613 -0.0165 -1.7622
 6176SOL    MW424472   3.482   0.766   0.258 -1.0427 -0.2706 -0.1674
 6177SOL     OW24473   3.011   4.126   3.222  0.1641 -0.1008  0.0074
 6177SOL    HW224474   2.931   4.165   3.188 -1.4966 -3.2428 -0.0988
 6177SOL    HW324475   3.080   4.189   3.200 -1.9674  1.8372 -1.6616
 6177SOL    MW424476   3.010   4.139   3.215 -0.3362 -0.2597 -0.2269
 6178SOL     OW24477   4.877   5.300   0.636  0.0480 -0.2156  0.2580
 6178SOL    HW224478   4.921   5.385   0.632 -0.7524  0.2080  0.2400
 6178SOL    HW324479   4.948   5.236   0.644  0.6854  0.4064 -0.3583
 6178SOL    MW424480   4.892   5.303   0.637  0.0265 -0.0776  0.1743
 6179SOL     OW24481   0.273   2.316   0.212  0.4077 -0.1072 -0.2128
 6179SOL    HW224482   0.344   2.297   0.150 -0.7360 -1.2077 -1.2315
 6179SOL    HW324483   0.227   2.233   0.223  2.1824 -0.7811  4.3825
 6179SOL    MW424484   0.276   2.303   0.205  0.4910 -0.3413  0.2591
 6180SOL     OW24485   0.144   1.213   3.980  0.1310 -0.3014 -0.0573
 6180SOL    HW224486   0.072   1.168   3.935  0.2286  0.0894 -0.6122
 6180SOL    HW324487   0.107   1.299   4.003  0.6197  0.1533 -0.9352
 6180SOL    MW424488   0.129   1.218   3.977  0.2084 -0.1898 -0.2464
 6181SOL     OW24489   2.998   0.824   5.390 -0.4945  0.2736  0.4552
 6181SOL    HW224490   3.085   0.829   5.429  0.0677 -1.2542 -0.5165
 6181SOL    HW324491   2.946   0.773   5.452  0.3124 -1.8817 -0.5363
 6181SOL    MW424492   3.003   0.818   5.403 -0.3138 -0.2124  0.1962
 6182SOL     OW24493   5.501   2.799   6.159 -0.1265  0.4574 -0.3058
 6182SOL    HW224494   5.441   2.869   6.186  0.9836  1.4198 -0.2921
 6182SOL    HW324495   5.545   2.833   6.081  0.7370 -0.0483 -0.0557
 6182SOL    MW424496   5.499   2.812   6.152  0.1339  0.5176 -0.2710
 6183SOL     OW24497   4.087   4.399   5.521 -0.5815 -0.2344 -0.5563
 6183SOL    HW224498   4.116   4.422   5.433 -0.0662 -1.6387 -0.7755
 6183SOL    HW324499   3.994   4.381   5.512 -0.0789 -2.8216 -1.3853
 6183SOL    MW424500   4.079   4.400   5.508 -0.4472 -0.7610 -0.6946
 6184SOL     OW24501   4.419   4.477   5.648 -0.3474 -0.0761  0.4755
 6184SOL    HW224502   4.440   4.532   5.723 -2.1060  1.4185 -0.0225
 6184SOL    HW324503   4.356   4.413   5.682 -2.1439  1.3964  0.1170
 6184SOL    MW424504   4.413   4.476   5.662 -0.8165  0.3153  0.3625
 6185SOL     OW24505   1.593   0.035   1.673  0.1126  0.8028 -0.2992
 6185SOL    HW224506   1.643   0.116   1.678  1.0861  0.2507 -0.7979
 6185SOL    HW324507   1.536   0.046   1.598 -1.0690  1.7215  0.6913
 6185SOL    MW424508   1.592   0.047   1.664  0.0851  0.8511 -0.2343
 6186SOL     OW24509   5.248   1.506   4.732 -0.1003  0.1603 -0.0643
 6186SOL    HW224510   5.275   1.427   4.779 -1.9888 -0.2065  0.5083
 6186SOL    HW324511   5.158   1.522   4.762 -0.5696  1.2222 -1.8875
 6186SOL    MW424512   5.239   1.498   4.742 -0.4114  0.2520 -0.2293
 6187SOL     OW24513   4.068   5.123   1.936 -0.1067  0.2418  0.0608
 6187SOL    HW224514   4.077   5.213   1.967 -0.5011  0.6111 -0.8551
 6187SOL    HW324515   4.128   5.072   1.991 -0.1650  0.9950  0.8451
 6187SOL    MW424516   4.077   5.128   1.947 -0.1664  0.3899  0.0435
 6188SOL     OW24517   4.328   1.494   4.326 -0.0593  0.3003 -0.0242
 6188SOL    HW224518   4.416   1.529   4.334 -0.3255  0.9571  0.0912
 6188SOL    HW324519   4.296   1.529   4.243  0.1877 -0.8493 -0.6237
 6188SOL    MW424520   4.335   1.503   4.316 -0.0618  0.2353 -0.0881
 6189SOL     OW24521   0.235   2.470   3.904  0.0830 -0.1168 -0.1802
 6189SOL    HW224522   0.316   2.514   3.931 -0.2591  1.0234 -0.9287
 6189SOL    HW324523   0.165   2.531   3.928 -0.6567 -1.4579  1.2298
 6189SOL    MW424524   0.236   2.484   3.911 -0.0597 -0.1433 -0.0929
 6190SOL     OW24525   1.088   2.212   3.293  0.3886  0.1219  0.1077
 6190SOL    HW224526   1.097   2.125   3.255 -0.5968 -0.7623  1.7865
 6190SOL    HW324527   1.170   2.226   3.340  0.5217  0.0661 -0.1079
 6190SOL    MW424528   1.100   2.202   3.295  0.2761 -0.0021  0.3008
 6191SOL     OW24529   2.248   3.174   3.493  0.2978 -0.3771 -0.4133
 6191SOL    HW224530   2.163   3.217   3.490  0.6842  0.4093 -0.5830
 6191SOL    HW324531   2.304   3.228   3.436  0.4444 -1.9478 -1.8238
 6191SOL    MW424532   2.244   3.187   3.485  0.3681 -0.4806 -0.6217
 6192SOL     OW24533   1.745   5.514   2.253 -0.3675 -0.5231  0.2652
 6192SOL    HW224534   1.803   5.480   2.321  0.2571  0.5380  0.2776
 6192SOL    HW324535   1.803   5.546   2.185 -0.9842 -1.1582 -0.5774
 6192SOL    MW424536   1.760   5.514   2.253 -0.3665 -0.4669  0.1556
 6193SOL     OW24537   1.534   5.026   1.570  0.0175  1.2337  0.0895
 6193SOL    HW224538   1.626   5.046   1.552  0.8248 -0.1325  2.2730
 6193SOL    HW324539   1.520   4.940   1.531 -0.0925  1.0948  0.4324
 6193SOL    MW424540   1.545   5.017   1.563  0.1095  1.0351  0.4228
 6194SOL     OW24541   1.073   1.501   2.299  0.2586 -0.1537  0.0764
 6194SOL    HW224542   1.101   1.450   2.224  3.2155  2.0740 -0.5165
 6194SOL    HW324543   1.074   1.592   2.268  0.0592  0.7029  2.3776
 6194SOL    MW424544   1.077   1.506   2.285  0.6224  0.2532  0.3018
 6195SOL     OW24545   1.910   5.810   0.176  0.1154  0.1085 -0.3516
 6195SOL    HW224546   1.931   5.864   0.100 -0.3663  0.0914 -0.4993
 6195SOL    HW324547   1.828   5.847   0.210  0.3367  0.1292  0.1689
 6195SOL    MW424548   1.902   5.822   0.171  0.0810  0.1090 -0.3024
 6196SOL     OW24549   4.033   5.760   0.903 -0.0845  0.0266 -0.0876
 6196SOL    HW224550   4.053   5.733   0.814 -0.4733 -1.7951  0.3204
 6196SOL    HW324551   4.092   5.707   0.958  2.7714  3.6063  0.7263
 6196SOL    MW424552   4.044   5.749   0.899  0.2410  0.2585  0.0736
 6197SOL     OW24553   5.015   5.315   0.954 -0.3920  0.5319  0.0153
 6197SOL    HW224554   4.954   5.290   0.885  0.0927 -1.0773  0.1158
 6197SOL    HW324555   5.030   5.234   1.003  0.8081  1.1881  0.7917
 6197SOL    MW424556   5.009   5.301   0.951 -0.1697  0.4062  0.1310
 6198SOL     OW24557   3.416   4.332   4.853  0.4535 -0.4977 -0.1984
 6198SOL    HW224558   3.471   4.394   4.902  1.3350 -0.3305 -1.3607
 6198SOL    HW324559   3.373   4.386   4.786  0.3634 -0.9610 -0.5185
 6198SOL    MW424560   3.417   4.348   4.851  0.5579 -0.5368 -0.3940
 6199SOL     OW24561   4.382   2.264   6.003  0.7037 -0.8488  0.3422
 6199SOL    HW224562   4.308   2.223   6.048 -0.6432 -0.5028 -1.4325
 6199SOL    HW324563   4.415   2.196   5.944 -0.1422 -0.1113 -1.0274
 6199SOL    MW424564   4.377   2.249   6.001  0.4144 -0.7059 -0.0726
 6200SOL     OW24565   0.849   0.798   0.472 -0.1808  0.5170 -0.4507
 6200SOL    HW224566   0.803   0.740   0.533 -0.3479  0.2502 -0.8269
 6200SOL    HW324567   0.779   0.847   0.428 -0.1373 -0.2100 -1.3431
 6200SOL    MW424568   0.834   0.797   0.474 -0.1971  0.3859 -0.6181
 6201SOL     OW24569   3.245   4.443   2.670 -0.0828 -0.5977 -0.0460
 6201SOL    HW224570   3.174   4.491   2.712  0.2638  2.2971 -2.4239
 6201SOL    HW324571   3.320   4.502   2.675  0.9467 -1.7260 -1.4103
 6201SOL    MW424572   3.246   4.457   2.676  0.0988 -0.3646 -0.5397
 6202SOL     OW24573   1.431   1.593   5.090  0.2553 -0.1540  0.0627
 6202SOL    HW224574   1.365   1.609   5.023  0.5254 -0.4535 -0.2763
 6202SOL    HW324575   1.493   1.665   5.079  0.7298 -0.6530 -0.5443
 6202SOL    MW424576   1.430   1.605   5.080  0.3535 -0.2594 -0.0621
 6203SOL     OW24577   3.125   1.917   3.264 -0.3420 -0.5366 -0.0072
 6203SOL    HW224578   3.081   1.993   3.226  1.3391  0.2055 -0.5563
 6203SOL    HW324579   3.131   1.937   3.357  0.9124  0.4688 -0.2781
 6203SOL    MW424580   3.120   1.930   3.271  0.0453 -0.3060 -0.1154
 6204SOL     OW24581   1.626   2.314   2.498 -0.7443 -0.2875  0.4576
 6204SOL    HW224582   1.663   2.365   2.426  1.3801 -0.0036  1.6898
 6204SOL    HW324583   1.586   2.379   2.556  1.6529  0.0734  1.8462
 6204SOL    MW424584   1.625   2.329   2.496 -0.1477 -0.2024  0.8034
 6205SOL     OW24585   5.760   5.061   4.219  0.4337  0.0633 -0.2976
 6205SOL    HW224586   5.807   5.140   4.192 -1.3812  0.9290 -1.1035
 6205SOL    HW324587   5.791   4.993   4.158 -0.6825  1.0583 -2.0633
 6205SOL    MW424588   5.771   5.062   4.207  0.0470  0.3088 -0.6369
 6206SOL     OW24589   1.628   4.540   0.538 -0.3265  0.3097 -0.4431
 6206SOL    HW224590   1.700   4.569   0.594 -1.8743  1.6356  0.9681
 6206SOL    HW324591   1.594   4.620   0.500 -0.5501 -0.3949 -1.7596
 6206SOL    MW424592   1.633   4.554   0.541 -0.5602  0.3916 -0.4306
 6207SOL     OW24593   1.857   4.235   6.227 -0.0921 -0.4574 -0.3794
 6207SOL    HW224594   1.910   4.195   6.158 -1.9205  0.5676 -2.5012
 6207SOL    HW324595   1.813   4.161   6.269 -1.3425 -0.9414 -2.4291
 6207SOL    MW424596   1.858   4.220   6.224 -0.4983 -0.3860 -0.9298
 6208SOL     OW24597   3.276   2.402   0.027 -0.5765  0.5099  0.8515
 6208SOL    HW224598   3.181   2.409   0.026 -0.6252 -0.0827  0.2833
 6208SOL    HW324599   3.296   2.359   0.110 -0.7912  0.7872  1.0473
 6208SOL    MW424600   3.267   2.397   0.038 -0.6112  0.4683  0.8024
 6209SOL     OW24601   5.319   6.329   1.815 -0.3226  0.1480 -0.3329
 6209SOL    HW224602   5.264   6.396   1.855  0.1093 -0.8271  2.0192
 6209SOL    HW324603   5.265   6.249   1.819  1.1516 -0.8346  2.0484
 6209SOL    MW424604   5.305   6.327   1.821 -0.0711 -0.1103  0.2916
 6210SOL     OW24605   2.718   5.369   2.301 -0.0532  0.0202  0.3018
 6210SOL    HW224606   2.808   5.343   2.279  0.1875  0.5529  0.6227
 6210SOL    HW324607   2.690   5.306   2.367  0.9237  1.1758  1.8947
 6210SOL    MW424608   2.726   5.358   2.307  0.1075  0.2430  0.5543
 6211SOL     OW24609   4.359   2.258   2.331 -0.1502  0.2502  0.5997
 6211SOL    HW224610   4.412   2.249   2.410  1.7481  0.2473 -0.5992
 6211SOL    HW324611   4.374   2.177   2.282 -2.1393 -0.2165  0.6662
 6211SOL    MW424612   4.368   2.246   2.335 -0.1622  0.1882  0.4503
 6212SOL     OW24613   0.778   0.324   1.837 -0.0739 -0.5377 -0.3437
 6212SOL    HW224614   0.711   0.312   1.904  0.4089  2.2508  0.7750
 6212SOL    HW324615   0.815   0.236   1.825 -1.5617 -1.5151  1.5036
 6212SOL    MW424616   0.774   0.311   1.844 -0.2065 -0.2988  0.0476
 6213SOL     OW24617   4.701   2.960   6.425  0.2267  0.2490 -0.8525
 6213SOL    HW224618   4.763   2.911   6.370  2.2933  2.4103 -0.6524
 6213SOL    HW324619   4.717   2.930   6.514 -1.1023 -1.2169 -1.0686
 6213SOL    MW424620   4.711   2.950   6.429  0.3240  0.3407 -0.8546
 6214SOL     OW24621   0.937   3.465   4.259 -0.4650  0.2116 -0.6688
 6214SOL    HW224622   0.936   3.434   4.350 -0.1644  1.2074 -0.3127
 6214SOL    HW324623   1.005   3.531   4.257 -1.0301  0.7856 -1.4267
 6214SOL    MW424624   0.946   3.469   4.271 -0.4999  0.4187 -0.7218
 6215SOL     OW24625   0.950   6.302   0.767 -0.1793  0.4509 -0.2873
 6215SOL    HW224626   0.949   6.394   0.742 -0.5885  0.0176 -2.0489
 6215SOL    HW324627   0.859   6.274   0.760 -0.0382 -0.1208  0.0940
 6215SOL    MW424628   0.938   6.310   0.763 -0.2147  0.3183 -0.4694
 6216SOL     OW24629   4.798   1.007   5.141  0.0592  0.0970 -0.0055
 6216SOL    HW224630   4.771   1.020   5.050  1.3039 -2.3479 -0.8207
 6216SOL    HW324631   4.732   0.948   5.177  0.5248 -0.3621  0.1103
 6216SOL    MW424632   4.786   1.001   5.134  0.2849 -0.2861 -0.0978
 6217SOL     OW24633   1.130   4.701   0.985  0.1806  0.4149 -0.2706
 6217SOL    HW224634   1.056   4.760   1.003 -0.0762  0.0489 -0.1219
 6217SOL    HW324635   1.093   4.631   0.931  0.2605 -0.1398  0.3805
 6217SOL    MW424636   1.115   4.700   0.980  0.1573  0.2934 -0.1651
 6218SOL     OW24637   1.468   1.297   2.840 -0.1996 -0.2070 -0.1719
 6218SOL    HW224638   1.441   1.272   2.751  2.2444  1.8013 -1.6031
 6218SOL    HW324639   1.442   1.222   2.894 -2.9725 -0.9555 -2.2900
 6218SOL    MW424640   1.461   1.284   2.835 -0.2430 -0.0408 -0.6402
 6219SOL     OW24641   5.174   2.038   4.612 -0.0829  0.5317 -0.0197
 6219SOL    HW224642   5.261   1.999   4.623 -0.0674  0.3228 -0.8082
 6219SOL    HW324643   5.191   2.128   4.585 -0.1161  0.5460  0.0066
 6219SOL    MW424644   5.188   2.044   4.610 -0.0852  0.5060 -0.1203
 6220SOL     OW24645   0.712   0.040   3.868 -0.0758  0.3747  0.1883
 6220SOL    HW224646   0.660   0.046   3.948  0.4309  0.0096  0.5519
 6220SOL    HW324647   0.802   0.042   3.899  0.1270 -0.9520 -0.2803
 6220SOL    MW424648   0.717   0.041   3.883  0.0178  0.1515  0.1744
 6221SOL     OW24649   5.137   2.531   5.873 -0.3751 -0.4350  0.4417
 6221SOL    HW224650   5.125   2.502   5.963 -1.4675 -0.6407  0.2413
 6221SOL    HW324651   5.074   2.479   5.822 -1.8830  1.7300 -0.0347
 6221SOL    MW424652   5.127   2.520   5.878 -0.7182 -0.1765  0.3524
 6222SOL     OW24653   4.776   5.670   1.289  0.4695 -0.1333  0.0431
 6222SOL    HW224654   4.763   5.704   1.201 -0.6161 -1.0793 -0.1879
 6222SOL    HW324655   4.688   5.656   1.323  0.8782 -0.4251  1.0125
 6222SOL    MW424656   4.763   5.672   1.282  0.3802 -0.2966  0.1406
 6223SOL     OW24657   2.274   1.073   5.906  0.2093 -0.4124  0.1844
 6223SOL    HW224658   2.285   1.013   5.832  0.6781  0.0202 -0.1075
 6223SOL    HW324659   2.191   1.048   5.945 -0.6063  0.0841 -1.1699
 6223SOL    MW424660   2.265   1.062   5.901  0.1636 -0.2898 -0.0328
 6224SOL     OW24661   3.278   2.304   0.630  0.2902  0.0006  0.3992
 6224SOL    HW224662   3.373   2.313   0.634  0.2745  0.3418  0.0352
 6224SOL    HW324663   3.260   2.221   0.675  0.5091  1.3511  3.1950
 6224SOL    MW424664   3.288   2.294   0.637  0.3170  0.2238  0.7200
 6225SOL     OW24665   5.719   3.660   5.753 -0.1971 -0.3879  0.1878
 6225SOL    HW224666   5.748   3.675   5.843 -2.4900 -1.6571  1.2165
 6225SOL    HW324667   5.736   3.567   5.737 -1.3516 -0.5728 -0.0452
 6225SOL    MW424668   5.725   3.650   5.763 -0.6519 -0.5797  0.2928
 6226SOL     OW24669   4.607   2.049   5.137  0.0811  0.4197 -0.3101
 6226SOL    HW224670   4.658   1.992   5.079 -0.1525 -0.0479 -0.0598
 6226SOL    HW324671   4.608   2.135   5.094  0.8475  0.3507 -0.4479
 6226SOL    MW424672   4.614   2.053   5.124  0.1514  0.3489 -0.2953
 6227SOL     OW24673   2.573   1.778   4.963 -0.4920 -0.0259  0.1626
 6227SOL    HW224674   2.631   1.715   5.007  0.5664  0.7144 -0.1410
 6227SOL    HW324675   2.556   1.738   4.878  0.1959  0.0993 -0.0391
 6227SOL    MW424676   2.578   1.764   4.958 -0.2616  0.0883  0.0959
 6228SOL     OW24677   4.838   4.578   0.933  0.2814  0.1677 -0.0823
 6228SOL    HW224678   4.840   4.515   1.005 -0.1763  0.6552  0.3591
 6228SOL    HW324679   4.752   4.566   0.894  1.4348 -1.9941 -2.2775
 6228SOL    MW424680   4.827   4.568   0.937  0.3732 -0.0532 -0.3137
 6229SOL     OW24681   2.546   6.415   5.478  0.0605  0.2937  0.3706
 6229SOL    HW224682   2.463   6.435   5.435  0.5250  1.1844 -0.1508
 6229SOL    HW324683   2.600   6.492   5.460  1.0587 -0.3625  0.5441
 6229SOL    MW424684   2.542   6.428   5.470  0.2535  0.3246  0.3247
 6230SOL     OW24685   2.484   2.563   5.021 -0.2955  0.7774  0.2850
 6230SOL    HW224686   2.539   2.488   5.046 -0.7702 -0.2881 -1.6723
 6230SOL    HW324687   2.538   2.615   4.962 -0.4145  1.3023  0.6292
 6230SOL    MW424688   2.498   2.560   5.017 -0.3739  0.7061  0.0722
 6231SOL     OW24689   6.199   1.183   0.114 -0.9173 -0.1290 -0.2331
 6231SOL    HW224690   6.130   1.196   0.180  0.0174 -0.2719  0.7937
 6231SOL    HW324691   6.156   1.134   0.045 -2.3435  1.3505 -0.4698
 6231SOL    MW424692   6.184   1.178   0.114 -0.9821  0.0474 -0.1289
 6232SOL     OW24693   2.516   3.532   0.360  0.1551 -0.2372  0.0106
 6232SOL    HW224694   2.584   3.505   0.420  0.2693  1.8161  0.8944
 6232SOL    HW324695   2.545   3.500   0.274  0.5080 -2.2829  0.8492
 6232SOL    MW424696   2.529   3.524   0.356  0.2167 -0.2362  0.2378
 6233SOL     OW24697   3.614   2.170   5.936  0.0595 -0.1611  0.3637
 6233SOL    HW224698   3.678   2.104   5.912  0.6612  0.3336  0.5910
 6233SOL    HW324699   3.646   2.206   6.019 -0.3125  0.3488  0.2920
 6233SOL    MW424700   3.627   2.166   5.944  0.0898 -0.0286  0.3842
 6234SOL     OW24701   4.292   4.708   2.056  0.2162  0.2553 -0.0700
 6234SOL    HW224702   4.252   4.681   2.140 -0.7796  1.1501 -0.2338
 6234SOL    HW324703   4.340   4.631   2.027 -0.2274 -0.3959  0.8610
 6234SOL    MW424704   4.293   4.694   2.064  0.0263  0.2875  0.0312
 6235SOL     OW24705   1.037   0.138   2.324  0.5123 -0.5585  0.5682
 6235SOL    HW224706   0.983   0.061   2.302 -1.0803 -0.1153  2.6076
 6235SOL    HW324707   1.079   0.114   2.406  1.8053 -0.0690  0.0628
 6235SOL    MW424708   1.035   0.124   2.332  0.4728 -0.4354  0.7706
 6236SOL     OW24709   0.742   2.337   5.384 -0.2095  0.7524 -0.1849
 6236SOL    HW224710   0.771   2.249   5.407 -0.4881  0.6415 -0.2452
 6236SOL    HW324711   0.814   2.395   5.410  0.7879  0.3341 -1.8635
 6236SOL    MW424712   0.755   2.333   5.390 -0.1146  0.6826 -0.4143
 6237SOL     OW24713   3.740   2.860   2.481  0.8289  0.5433 -0.5568
 6237SOL    HW224714   3.790   2.790   2.521 -0.0664  0.5156  0.5811
 6237SOL    HW324715   3.787   2.880   2.400  3.4076  1.3876  1.0168
 6237SOL    MW424716   3.753   2.854   2.476  1.0510  0.6510 -0.1991
 6238SOL     OW24717   5.914   1.375   1.985  0.2735 -0.1964 -0.4495
 6238SOL    HW224718   5.892   1.349   1.896 -1.3545  0.0283 -0.1420
 6238SOL    HW324719   5.844   1.338   2.039  0.4915  0.8285  0.5700
 6238SOL    MW424720   5.902   1.366   1.980  0.0875 -0.0315 -0.2744
 6239SOL     OW24721   4.972   1.099   4.574  0.4545  0.1525 -0.4461
 6239SOL    HW224722   4.933   1.180   4.607 -0.7114 -0.4685 -0.2543
 6239SOL    HW324723   5.061   1.124   4.549  1.5730  0.6322  3.3590
 6239SOL    MW424724   4.979   1.113   4.575  0.4483  0.1338  0.0813
 6240SOL     OW24725   3.958   1.250   3.570 -0.0989 -0.4955 -0.7371
 6240SOL    HW224726   4.012   1.233   3.647 -1.0426 -1.8178 -0.3235
 6240SOL    HW324727   3.935   1.163   3.537  0.8742  0.0228 -2.9856
 6240SOL    MW424728   3.962   1.236   3.576 -0.0950 -0.6016 -0.9792
 6241SOL     OW24729   3.419   4.260   1.062  0.4673  0.2078  0.0873
 6241SOL    HW224730   3.352   4.209   1.107 -0.5213  0.8122 -0.6441
 6241SOL    HW324731   3.455   4.317   1.129 -0.4255  0.5310  0.3150
 6241SOL    MW424732   3.415   4.261   1.076  0.2190  0.3302  0.0208
 6242SOL     OW24733   5.070   3.368   5.768  0.3467 -0.1249 -0.8176
 6242SOL    HW224734   5.054   3.459   5.744 -1.5430 -1.0108 -3.4897
 6242SOL    HW324735   5.022   3.354   5.849 -0.2111  1.0010 -0.9490
 6242SOL    MW424736   5.062   3.378   5.775  0.0237 -0.0932 -1.1875
 6243SOL     OW24737   4.249   6.091   4.276 -1.2332  0.2013 -0.0138
 6243SOL    HW224738   4.325   6.148   4.278  1.8385 -3.4507 -1.6042
 6243SOL    HW324739   4.205   6.113   4.194 -1.3716  1.5930  0.3953
 6243SOL    MW424740   4.253   6.102   4.266 -0.8462 -0.0969 -0.1697
 6244SOL     OW24741   0.800   5.156   5.996  0.2842  0.0545  0.3399
 6244SOL    HW224742   0.817   5.166   6.090 -0.7683  0.1839  0.5328
 6244SOL    HW324743   0.829   5.066   5.977 -1.1398 -0.6398  1.2075
 6244SOL    MW424744   0.806   5.145   6.006 -0.0425 -0.0200  0.4798
 6245SOL     OW24745   5.923   4.712   2.144 -0.6519 -0.4837  0.2311
 6245SOL    HW224746   5.982   4.680   2.211 -0.0585 -0.3451 -0.2151
 6245SOL    HW324747   5.867   4.776   2.189 -1.3545 -1.5690  0.9523
 6245SOL    MW424748   5.923   4.716   2.159 -0.6663 -0.6086  0.2674
 6246SOL     OW24749   6.256   2.185   0.309  0.2339 -0.3258  0.0633
 6246SOL    HW224750   6.237   2.141   0.226  1.6911  1.3945 -1.2610
 6246SOL    HW324751   6.269   2.276   0.285  2.0919 -0.0265  1.9834
 6246SOL    MW424752   6.255   2.191   0.295  0.6713 -0.0593  0.1419
 6247SOL     OW24753   3.955   1.886   0.948 -0.6025  0.5889 -0.4054
 6247SOL    HW224754   3.941   1.922   0.860 -2.2456  0.3707 -0.2508
 6247SOL    HW324755   3.954   1.963   1.005  1.6685  0.8795 -0.6402
 6247SOL    MW424756   3.953   1.901   0.944 -0.5197  0.5984 -0.4160
 6248SOL     OW24757   1.821   6.263   1.272  0.3781  0.2803 -0.4874
 6248SOL    HW224758   1.774   6.329   1.222 -1.0348  0.0866  0.5368
 6248SOL    HW324759   1.879   6.312   1.330 -0.9820  0.6874  0.5821
 6248SOL    MW424760   1.823   6.278   1.273  0.0122  0.3084 -0.2112
 6249SOL     OW24761   2.559   3.619   5.529 -0.2357 -0.2071  0.2282
 6249SOL    HW224762   2.526   3.595   5.615  1.0746 -0.0086  0.8156
 6249SOL    HW324763   2.527   3.708   5.515  0.3660  0.1336  0.9592
 6249SOL    MW424764   2.550   3.628   5.539  0.0166 -0.1360  0.4021
 6250SOL     OW24765   4.046   0.736   5.668 -0.2017 -0.4915 -0.6762
 6250SOL    HW224766   3.989   0.702   5.737  0.6478 -0.2810  0.1570
 6250SOL    HW324767   4.119   0.675   5.665  0.7051  0.5209 -0.0489
 6250SOL    MW424768   4.048   0.723   5.677  0.0300 -0.3302 -0.4835
 6251SOL     OW24769   5.676   3.617   1.900  0.1509  0.8085 -0.1294
 6251SOL    HW224770   5.646   3.675   1.970 -0.6311  1.1166 -0.7098
 6251SOL    HW324771   5.596   3.572   1.870  0.5573  0.3133 -0.4942
 6251SOL    MW424772   5.661   3.618   1.905  0.1013  0.7838 -0.2541
 6252SOL     OW24773   4.322   4.506   2.956  0.1397 -0.3276 -0.0587
 6252SOL    HW224774   4.268   4.550   3.022  1.4527 -1.7006  2.0490
 6252SOL    HW324775   4.270   4.429   2.930 -0.1064 -0.1258 -0.1732
 6252SOL    MW424776   4.308   4.502   2.961  0.2805 -0.4821  0.2043
 6253SOL     OW24777   0.237   0.537   1.163  0.2024 -0.4709  0.9447
 6253SOL    HW224778   0.318   0.520   1.210  0.5760 -1.2500  0.0396
 6253SOL    HW324779   0.258   0.520   1.071 -0.4642  1.1482  0.4448
 6253SOL    MW424780   0.250   0.533   1.157  0.1638 -0.3601  0.7593
 6254SOL     OW24781   1.264   6.450   3.236  0.3224 -0.0837  0.1070
 6254SOL    HW224782   1.276   6.373   3.291 -1.8444 -1.0093 -0.6094
 6254SOL    HW324783   1.170   6.465   3.236  0.3247  0.4932 -2.5061
 6254SOL    MW424784   1.253   6.442   3.243  0.0368 -0.1297 -0.3323
 6255SOL     OW24785   3.816   2.644   0.105 -0.0536  0.3696 -0.6416
 6255SOL    HW224786   3.843   2.562   0.064 -0.3500  0.5835 -1.2755
 6255SOL    HW324787   3.890   2.703   0.091  0.9086 -0.2760  1.3475
 6255SOL    MW424788   3.829   2.641   0.098  0.0343  0.3127 -0.4628
 6256SOL     OW24789   3.904   3.926   1.206  0.2738 -0.3978 -0.4905
 6256SOL    HW224790   3.876   3.870   1.279 -0.2563  0.6962  0.1692
 6256SOL    HW324791   3.937   3.864   1.140  1.3064 -1.3778  0.8889
 6256SOL    MW424792   3.904   3.910   1.207  0.3401 -0.3828 -0.2215
 6257SOL     OW24793   4.785   4.588   4.086  0.1631 -0.2758  0.1469
 6257SOL    HW224794   4.777   4.527   4.160  0.0144  1.6965  1.8674
 6257SOL    HW324795   4.879   4.602   4.077  0.1556  1.6873  2.0313
 6257SOL    MW424796   4.796   4.582   4.095  0.1425  0.2434  0.6225
 6258SOL     OW24797   0.798   1.993   4.816  0.1798  0.2601 -0.4455
 6258SOL    HW224798   0.783   1.914   4.869  1.0686  0.0567 -0.4706
 6258SOL    HW324799   0.715   2.010   4.773 -0.1828 -0.3400  0.0080
 6258SOL    MW424800   0.785   1.984   4.817  0.2492  0.1541 -0.3889
 6259SOL     OW24801   5.051   5.197   4.384  0.1472  0.2695 -0.1010
 6259SOL    HW224802   5.028   5.207   4.477 -2.0833  0.8111 -0.6493
 6259SOL    HW324803   5.122   5.259   4.370  0.0106  0.7172  1.0700
 6259SOL    MW424804   5.057   5.206   4.395 -0.1651  0.4001 -0.0188
 6260SOL     OW24805   2.538   0.631   0.305  0.6029  0.3046  0.2938
 6260SOL    HW224806   2.460   0.675   0.273  0.4536  0.1403  0.4278
 6260SOL    HW324807   2.539   0.547   0.259  0.1326 -0.1295  1.0543
 6260SOL    MW424808   2.528   0.625   0.295  0.5211  0.2257  0.4118
 6261SOL     OW24809   0.527   5.862   0.643 -0.7105 -0.4519 -0.1715
 6261SOL    HW224810   0.470   5.924   0.689 -0.4050  0.8907 -1.4783
 6261SOL    HW324811   0.616   5.890   0.666 -0.5656 -1.4864  0.5513
 6261SOL    MW424812   0.532   5.874   0.652 -0.6511 -0.4113 -0.2486
 6262SOL     OW24813   1.448   2.767   3.287  0.0563 -0.1117 -0.2289
 6262SOL    HW224814   1.501   2.723   3.353 -0.8259  0.1171  0.6481
 6262SOL    HW324815   1.465   2.719   3.206  1.3455 -0.2384  0.0983
 6262SOL    MW424816   1.457   2.755   3.285  0.1100 -0.0983 -0.0701
 6263SOL     OW24817   3.334   2.964   2.903 -0.0128  0.4387 -0.2923
 6263SOL    HW224818   3.269   2.946   2.835 -0.3847 -0.8441  0.3728
 6263SOL    HW324819   3.393   2.889   2.900  0.7217  1.0033 -0.0654
 6263SOL    MW424820   3.333   2.952   2.894  0.0350  0.3439 -0.1746
 6264SOL     OW24821   0.996   1.859   6.405  0.8615 -0.1198  0.1588
 6264SOL    HW224822   1.006   1.774   6.448 -0.6508 -0.6322 -0.4095
 6264SOL    HW324823   1.060   1.858   6.334  1.7170 -0.2541  0.9172
 6264SOL    MW424824   1.006   1.848   6.401  0.7749 -0.2051  0.1839
 6265SOL     OW24825   6.346   5.266   5.551  0.0576  0.1335  0.0938
 6265SOL    HW224826   6.329   5.337   5.612 -2.4441 -0.3161  0.0172
 6265SOL    HW324827   6.263   5.253   5.505  1.0451 -1.4445 -1.3803
 6265SOL    MW424828   6.333   5.273   5.553 -0.1422 -0.1340 -0.1108
 6266SOL     OW24829   0.796   3.741   4.612  0.0365  0.4973  0.4120
 6266SOL    HW224830   0.747   3.792   4.548  1.0606  0.4395 -0.4336
 6266SOL    HW324831   0.775   3.782   4.697 -1.6446  0.3262  0.1184
 6266SOL    MW424832   0.787   3.753   4.615 -0.0502  0.4671  0.2617
 6267SOL     OW24833   5.501   4.407   5.998  0.2614 -0.1862 -0.2275
 6267SOL    HW224834   5.591   4.375   5.991  0.3783  0.1876 -0.4663
 6267SOL    HW324835   5.469   4.372   6.082  1.6326  2.1331  1.3529
 6267SOL    MW424836   5.508   4.398   6.008  0.4578  0.1691 -0.0505
 6268SOL     OW24837   6.344   4.094   1.474 -0.1225 -0.2054 -0.2200
 6268SOL    HW224838   6.286   4.026   1.440  1.5154 -1.5280 -0.5054
 6268SOL    HW324839   6.417   4.095   1.413  0.1409  1.4753  0.0862
 6268SOL    MW424840   6.346   4.085   1.462  0.1283 -0.1581 -0.2172
 6269SOL     OW24841   1.289   3.455   6.036  0.1181  0.3177 -0.1448
 6269SOL    HW224842   1.223   3.403   6.083  0.6696  1.4564  2.0421
 6269SOL    HW324843   1.281   3.428   5.945  0.1427 -3.3330  0.7836
 6269SOL    MW424844   1.279   3.445   6.030  0.1941 -0.0138  0.2662
 6270SOL     OW24845   3.851   0.872   4.749  0.4580 -0.2908  0.1255
 6270SOL    HW224846   3.919   0.819   4.790 -0.9511 -1.1487  1.4704
 6270SOL    HW324847   3.772   0.817   4.753 -0.8094  1.4628  0.5768
 6270SOL    MW424848   3.849   0.858   4.755  0.1048 -0.1726  0.3625
 6271SOL     OW24849   4.984   5.311   1.469 -0.1519  0.4088  0.1296
 6271SOL    HW224850   4.962   5.353   1.386 -0.8321  0.3970  0.2978
 6271SOL    HW324851   4.983   5.381   1.533 -0.6613  0.2489  0.3023
 6271SOL    MW424852   4.981   5.326   1.466 -0.3088  0.3861  0.1746
 6272SOL     OW24853   1.785   6.083   2.501 -0.2833  0.6772 -0.0848
 6272SOL    HW224854   1.818   6.171   2.520 -0.3062  0.5931  0.3536
 6272SOL    HW324855   1.863   6.029   2.494 -0.2098  0.9231 -1.3951
 6272SOL    MW424856   1.800   6.088   2.502 -0.2766  0.6985 -0.1998
 6273SOL     OW24857   2.766   3.365   6.170  0.2789 -0.4057  0.3202
 6273SOL    HW224858   2.788   3.406   6.086 -1.6794  1.3513  0.5652
 6273SOL    HW324859   2.774   3.271   6.154  0.2583 -0.1044 -1.7502
 6273SOL    MW424860   2.770   3.358   6.156  0.0178 -0.1342  0.0794
 6274SOL     OW24861   2.047   4.462   1.597  0.5652 -0.0390 -0.0995
 6274SOL    HW224862   1.981   4.395   1.616  1.0411  0.0592  2.2823
 6274SOL    HW324863   2.012   4.541   1.637  0.8424  0.7242 -1.3193
 6274SOL    MW424864   2.033   4.463   1.605  0.6646  0.0747  0.0538
 6275SOL     OW24865   5.971   0.672   3.128 -0.2103 -0.7724 -0.6611
 6275SOL    HW224866   6.019   0.596   3.095 -1.1838 -1.4714 -0.4918
 6275SOL    HW324867   5.902   0.635   3.183 -1.8734  0.1182 -2.0439
 6275SOL    MW424868   5.969   0.657   3.131 -0.5582 -0.7471 -0.8212
 6276SOL     OW24869   1.523   1.543   4.508 -0.1413  0.0157  0.2460
 6276SOL    HW224870   1.443   1.497   4.482  0.1910  0.1187 -1.0158
 6276SOL    HW324871   1.523   1.623   4.456  0.2554  0.5338  1.0204
 6276SOL    MW424872   1.513   1.548   4.498 -0.0451  0.0977  0.1817
 6277SOL     OW24873   2.321   4.034   2.515  0.1627 -0.2302 -0.6816
 6277SOL    HW224874   2.232   4.022   2.547  0.3999 -0.4959 -0.1108
 6277SOL    HW324875   2.338   3.955   2.464  1.1066 -1.6260  1.6506
 6277SOL    MW424876   2.311   4.022   2.512  0.3186 -0.4495 -0.2986
 6278SOL     OW24877   2.509   2.051   3.001 -0.2393 -0.2121  0.0734
 6278SOL    HW224878   2.507   2.088   3.089 -1.9127  0.6014 -0.2619
 6278SOL    HW324879   2.535   1.960   3.014  0.5011  0.1435  1.2923
 6278SOL    MW424880   2.512   2.044   3.014 -0.3624 -0.0578  0.1900
 6279SOL     OW24881   1.087   5.083   5.319 -0.4390 -0.2147  0.2319
 6279SOL    HW224882   1.030   5.097   5.243 -1.2375 -0.2782  0.8136
 6279SOL    HW324883   1.064   5.154   5.379 -0.1243 -0.4289  0.6058
 6279SOL    MW424884   1.077   5.094   5.317 -0.5028 -0.2513  0.3580
 6280SOL     OW24885   3.454   4.932   1.764  0.0269  0.1943 -0.7795
 6280SOL    HW224886   3.378   4.965   1.812  0.9658  0.3446  0.6626
 6280SOL    HW324887   3.460   4.988   1.687 -2.4343 -1.0257 -1.9771
 6280SOL    MW424888   3.445   4.944   1.760 -0.1740  0.0532 -0.7472
 6281SOL     OW24889   3.220   0.773   1.890  0.0784 -0.3698  0.0417
 6281SOL    HW224890   3.222   0.688   1.846 -3.3830 -0.1779 -0.7555
 6281SOL    HW324891   3.201   0.753   1.982 -3.1987 -0.5298 -0.5583
 6281SOL    MW424892   3.217   0.759   1.896 -0.8107 -0.3656 -0.1426
 6282SOL     OW24893   0.949   3.380   3.403 -0.3271 -1.2842 -0.2478
 6282SOL    HW224894   1.015   3.449   3.395 -0.6945 -0.4835  2.5010
 6282SOL    HW324895   0.993   3.310   3.451 -0.4300 -2.3432 -1.6416
 6282SOL    MW424896   0.964   3.380   3.409 -0.3891 -1.3182 -0.0690
 6283SOL     OW24897   6.127   5.965   5.255 -0.1006 -0.5260  0.2386
 6283SOL    HW224898   6.146   5.959   5.349  1.8790 -0.3619 -0.1010
 6283SOL    HW324899   6.178   6.041   5.226 -0.5247 -0.7088 -1.0151
 6283SOL    MW424900   6.137   5.974   5.264  0.1046 -0.5285  0.0284
 6284SOL     OW24901   2.280   6.370   1.030 -0.5686  0.2373  0.3298
 6284SOL    HW224902   2.367   6.367   0.992  1.0578  2.2285  3.4337
 6284SOL    HW324903   2.238   6.446   0.988 -0.8536 -0.6908 -1.1295
 6284SOL    MW424904   2.286   6.380   1.020 -0.3916  0.3776  0.5468
 6285SOL     OW24905   2.667   6.191   0.645 -0.4189  0.4595  0.4789
 6285SOL    HW224906   2.701   6.191   0.555 -1.1429  1.2678  0.1877
 6285SOL    HW324907   2.648   6.100   0.663 -1.5128  0.4199 -0.6968
 6285SOL    MW424908   2.669   6.179   0.635 -0.6587  0.5609  0.2853
 6286SOL     OW24909   0.415   3.203   3.190  0.4277 -0.3470  0.3234
 6286SOL    HW224910   0.352   3.186   3.259  1.7921 -3.4237  0.9497
 6286SOL    HW324911   0.492   3.237   3.236  0.4650  0.0680 -0.0320
 6286SOL    MW424912   0.417   3.205   3.205  0.6126 -0.6981  0.3591
 6287SOL     OW24913   1.123   3.742   0.159 -0.6444  0.4233  0.1674
 6287SOL    HW224914   1.215   3.743   0.134 -0.9808  0.1239 -1.1869
 6287SOL    HW324915   1.105   3.650   0.180  0.1900  0.9566  3.9741
 6287SOL    MW424916   1.133   3.730   0.158 -0.5787  0.4542  0.4910
 6288SOL     OW24917   6.293   6.295   1.488  0.7397  0.0176 -0.5476
 6288SOL    HW224918   6.300   6.292   1.392  0.7154 -1.4489 -0.5246
 6288SOL    HW324919   6.383   6.282   1.518  0.6418 -0.2590 -0.3708
 6288SOL    MW424920   6.306   6.293   1.479  0.7236 -0.2124 -0.5213
 6289SOL     OW24921   1.528   1.509   6.050  0.5901  0.4142 -0.2441
 6289SOL    HW224922   1.592   1.447   6.016 -0.4680 -0.9533  0.1855
 6289SOL    HW324923   1.546   1.512   6.144 -0.8881 -1.1414  0.1308
 6289SOL    MW424924   1.539   1.501   6.058  0.2555  0.0285 -0.1379
 6290SOL     OW24925   1.150   4.162   1.451  0.6146  0.4760  0.0090
 6290SOL    HW224926   1.056   4.171   1.467  0.5236  1.4010 -0.9053
 6290SOL    HW324927   1.191   4.189   1.533  0.0826 -1.9266  1.1483
 6290SOL    MW424928   1.143   4.167   1.464  0.5324  0.2811  0.0387
 6291SOL     OW24929   3.538   5.311   3.915 -0.2984 -0.1153 -0.2131
 6291SOL    HW224930   3.618   5.262   3.898 -1.1988 -1.7016 -0.0635
 6291SOL    HW324931   3.478   5.247   3.953 -1.9455  0.8061 -1.1397
 6291SOL    MW424932   3.541   5.296   3.918 -0.6345 -0.2030 -0.3156
 6292SOL     OW24933   5.113   4.621   5.573 -0.2318  0.0861  0.2015
 6292SOL    HW224934   5.090   4.575   5.492 -0.2677  1.1546 -0.4142
 6292SOL    HW324935   5.153   4.703   5.544 -0.5217  0.6257  1.2547
 6292SOL    MW424936   5.115   4.626   5.559 -0.2748  0.2983  0.2592
 6293SOL     OW24937   1.778   5.390   5.066  0.5303 -0.3291  0.0184
 6293SOL    HW224938   1.738   5.357   5.146  2.2873 -1.0649  0.6576
 6293SOL    HW324939   1.848   5.327   5.047  0.5283  0.1645 -1.7669
 6293SOL    MW424940   1.782   5.377   5.074  0.7618 -0.3611 -0.1328
 6294SOL     OW24941   3.117   3.528   6.026 -0.1874  0.4166 -0.0729
 6294SOL    HW224942   3.105   3.463   5.956  1.2993  0.3810 -0.3360
 6294SOL    HW324943   3.029   3.561   6.043 -0.8506 -0.9880 -0.5905
 6294SOL    MW424944   3.104   3.524   6.019 -0.0788  0.2266 -0.1759
 6295SOL     OW24945   2.527   3.762   5.192 -0.6987  0.3186 -0.5515
 6295SOL    HW224946   2.508   3.831   5.129  1.0211  0.5661 -0.8360
 6295SOL    HW324947   2.448   3.707   5.192 -1.0359  0.7616 -2.3183
 6295SOL    MW424948   2.514   3.764   5.184 -0.5163  0.4097 -0.8221
 6296SOL     OW24949   5.489   3.298   2.332 -0.1842  0.0311  0.2355
 6296SOL    HW224950   5.583   3.310   2.334 -0.2362  1.4959 -2.0948
 6296SOL    HW324951   5.476   3.214   2.287 -0.0141 -0.8213  1.7284
 6296SOL    MW424952   5.499   3.289   2.326 -0.1686  0.1119  0.1250
 6297SOL     OW24953   0.393   2.515   6.152 -0.3858 -0.4903 -0.6222
 6297SOL    HW224954   0.476   2.541   6.112 -0.2484 -0.8887 -0.6026
 6297SOL    HW324955   0.326   2.556   6.097 -0.1948  2.5525  1.1909
 6297SOL    MW424956   0.395   2.524   6.139 -0.3425 -0.1414 -0.3804
 6298SOL     OW24957   5.262   2.657   2.673  0.3275  0.1006 -0.0102
 6298SOL    HW224958   5.184   2.653   2.618  0.0310 -0.0355  0.4179
 6298SOL    HW324959   5.278   2.751   2.686 -0.9146  0.1495  1.5002
 6298SOL    MW424960   5.254   2.669   2.668  0.1245  0.0891  0.2456
 6299SOL     OW24961   5.394   1.292   5.210 -0.6360 -0.3471 -0.6446
 6299SOL    HW224962   5.322   1.281   5.273  0.0679 -0.3005  0.1838
 6299SOL    HW324963   5.401   1.386   5.199  0.9951 -0.1635  1.3332
 6299SOL    MW424964   5.385   1.303   5.217 -0.3279 -0.3167 -0.2743
 6300SOL     OW24965   4.435   5.036   5.595 -0.1634  0.3763 -0.4057
 6300SOL    HW224966   4.379   4.997   5.662  0.1100 -1.4653 -1.1748
 6300SOL    HW324967   4.519   5.049   5.638 -0.0689 -0.5369 -0.2841
 6300SOL    MW424968   4.439   5.032   5.609 -0.1148  0.0128 -0.4911
 6301SOL     OW24969   0.383   6.219   6.264  0.3015  0.1509  0.6675
 6301SOL    HW224970   0.295   6.187   6.284  0.5021  0.1538  1.5740
 6301SOL    HW324971   0.441   6.146   6.287  0.3837 -0.9400 -2.5428
 6301SOL    MW424972   0.379   6.205   6.270  0.3388  0.0073  0.3636
 6302SOL     OW24973   1.981   3.561   4.062 -0.2737  0.0836 -0.0558
 6302SOL    HW224974   1.918   3.528   4.126 -0.2178  0.8684  0.4201
 6302SOL    HW324975   2.012   3.644   4.099 -2.1388  1.9002 -2.2272
 6302SOL    MW424976   1.976   3.568   4.075 -0.5124  0.4268 -0.2795
 6303SOL     OW24977   3.517   3.797   2.763  0.3674 -0.4462  0.3083
 6303SOL    HW224978   3.601   3.813   2.721  0.2690 -0.6029  0.0523
 6303SOL    HW324979   3.458   3.861   2.724  0.5861  0.3253  1.1911
 6303SOL    MW424980   3.521   3.807   2.753  0.3833 -0.3651  0.3910
 6304SOL     OW24981   4.531   2.392   4.602 -0.2856  0.1485 -0.1912
 6304SOL    HW224982   4.486   2.357   4.525  0.6102 -1.0834 -0.1920
 6304SOL    HW324983   4.560   2.479   4.576 -0.8136  0.1099 -0.9255
 6304SOL    MW424984   4.529   2.399   4.589 -0.2371 -0.0191 -0.2882
 6305SOL     OW24985   5.965   2.934   3.989  0.0277  0.3534  0.4124
 6305SOL    HW224986   5.929   2.994   4.055 -0.1768 -0.9483  1.5195
 6305SOL    HW324987   5.910   2.856   3.993  0.7101 -0.2026 -0.5062
 6305SOL    MW424988   5.953   2.932   3.998  0.0907  0.1083  0.4373
 6306SOL     OW24989   4.939   1.386   5.018  0.4013 -0.9012  0.6122
 6306SOL    HW224990   5.014   1.327   5.023  0.7687 -0.4175  0.8416
 6306SOL    HW324991   4.878   1.353   5.083 -0.0537 -1.9354 -0.2998
 6306SOL    MW424992   4.941   1.374   5.027  0.3897 -0.9739  0.5221
 6307SOL     OW24993   1.289   5.988   0.136 -0.1547  0.3259  0.4475
 6307SOL    HW224994   1.372   5.949   0.108  0.3019  0.2470  1.8176
 6307SOL    HW324995   1.234   5.987   0.058  1.4155  1.1559 -0.7189
 6307SOL    MW424996   1.293   5.983   0.122  0.1127  0.4250  0.4744
 6308SOL     OW24997   0.237   2.270   1.769  0.0179 -0.3483 -0.5722
 6308SOL    HW224998   0.211   2.362   1.772 -0.9958 -0.5017 -2.8046
 6308SOL    HW324999   0.155   2.223   1.752  0.6265 -1.6177 -0.1136
 6308SOL    MW425000   0.223   2.276   1.767 -0.0355 -0.5360 -0.8062
 6309SOL     OW25001   6.082   3.749   2.323  0.2538 -0.3942 -0.2190
 6309SOL    HW225002   6.008   3.749   2.263  0.8208 -1.2068 -0.9519
 6309SOL    HW325003   6.158   3.733   2.267  1.0062  0.5952  0.4911
 6309SOL    MW425004   6.082   3.747   2.308  0.4279 -0.3708 -0.2220
 6310SOL     OW25005   3.670   6.015   4.645  0.7580 -0.3307  0.0842
 6310SOL    HW225006   3.660   5.978   4.733  1.4129 -0.9088 -0.0719
 6310SOL    HW325007   3.697   5.941   4.591 -0.9674 -0.2859 -0.9143
 6310SOL    MW425008   3.673   6.000   4.650  0.6168 -0.4010 -0.0681
 6311SOL     OW25009   6.019   1.615   5.657 -0.5547 -0.3606 -0.4517
 6311SOL    HW225010   6.113   1.632   5.646 -0.4943  0.3827  1.0008
 6311SOL    HW325011   6.008   1.524   5.630  1.1096 -1.3553  1.8592
 6311SOL    MW425012   6.030   1.605   5.652 -0.3271 -0.3938  0.0448
 6312SOL     OW25013   0.128   6.351   0.048  0.3173  0.2744 -0.3332
 6312SOL    HW225014   0.137   6.444   0.068  0.9690 -0.0353  0.8964
 6312SOL    HW325015   0.109   6.310   0.133 -0.8181 -0.6194 -0.9832
 6312SOL    MW425016   0.127   6.358   0.062  0.2535  0.1156 -0.2568
 6313SOL     OW25017   3.021   3.526   4.991 -0.7130 -0.3666  0.0715
 6313SOL    HW225018   3.102   3.552   4.949 -0.1884  0.6888  1.6300
 6313SOL    HW325019   2.967   3.605   4.991 -0.5897 -0.2519  1.5553
 6313SOL    MW425020   3.024   3.540   4.986 -0.6275 -0.2122  0.4729
 6314SOL     OW25021   4.183   5.779   6.103 -0.5092  0.1057 -0.3927
 6314SOL    HW225022   4.219   5.803   6.018 -0.9368  0.0693 -0.5843
 6314SOL    HW325023   4.234   5.830   6.166  0.0595 -0.1483 -0.6398
 6314SOL    MW425024   4.194   5.788   6.100 -0.4906  0.0674 -0.4506
 6315SOL     OW25025   5.196   3.821   0.273 -0.2491  0.6888  0.1737
 6315SOL    HW225026   5.222   3.729   0.267  0.0257  0.8046 -0.6684
 6315SOL    HW325027   5.247   3.856   0.346 -0.5140  0.1242  0.6315
 6315SOL    MW425028   5.206   3.814   0.282 -0.2478  0.6296  0.1230
 6316SOL     OW25029   0.504   5.485   0.088 -0.2398 -0.2039 -0.3079
 6316SOL    HW225030   0.596   5.463   0.105  0.0704  0.2935 -1.2768
 6316SOL    HW325031   0.459   5.465   0.170  0.8959  0.5016  0.5172
 6316SOL    MW425032   0.510   5.479   0.101 -0.0490 -0.0452 -0.3269
 6317SOL     OW25033   0.550   2.022   0.311 -0.2024 -0.0971 -0.0346
 6317SOL    HW225034   0.486   2.038   0.380 -0.3148 -1.9020  0.3200
 6317SOL    HW325035   0.619   2.087   0.327 -1.2081  0.8744  0.4943
 6317SOL    MW425036   0.551   2.033   0.322 -0.3499 -0.2071  0.0820
 6318SOL     OW25037   0.518   5.482   1.806  0.6969 -0.1544 -0.1250
 6318SOL    HW225038   0.516   5.528   1.890 -0.5587 -0.0665 -0.1834
 6318SOL    HW325039   0.452   5.413   1.814 -0.2251  0.5242 -1.3817
 6318SOL    MW425040   0.509   5.479   1.818  0.4096 -0.0533 -0.2985
 6319SOL     OW25041   3.595   6.298   4.524 -0.0545  0.9190 -0.5932
 6319SOL    HW225042   3.610   6.204   4.531 -0.0241  0.8979 -0.9085
 6319SOL    HW325043   3.501   6.308   4.535 -0.0967  0.8189 -0.8435
 6319SOL    MW425044   3.585   6.287   4.526 -0.0561  0.9030 -0.6678
 6320SOL     OW25045   0.589   4.405   6.425  0.2788 -0.1603 -0.1458
 6320SOL    HW225046   0.584   4.498   6.401  2.0561 -0.5298 -2.1801
 6320SOL    HW325047   0.637   4.404   6.508  1.9357  0.6561 -1.0619
 6320SOL    MW425048   0.594   4.417   6.433  0.7319 -0.1013 -0.5351
 6321SOL     OW25049   5.612   0.150   5.132 -0.0255 -0.0695 -0.0331
 6321SOL    HW225050   5.662   0.072   5.158 -1.5263 -1.5452 -1.3696
 6321SOL    HW325051   5.527   0.139   5.174 -0.5985  0.3180 -1.0698
 6321SOL    MW425052   5.607   0.138   5.141 -0.2991 -0.2131 -0.3462
 6322SOL     OW25053   0.951   3.379   1.528  0.5097  0.0391 -0.2493
 6322SOL    HW225054   0.877   3.349   1.582  2.9493 -1.2186  2.6924
 6322SOL    HW325055   0.970   3.306   1.470 -0.4578  0.3415 -0.9726
 6322SOL    MW425056   0.944   3.365   1.528  0.7039 -0.0870  0.0434
 6323SOL     OW25057   1.561   5.902   0.056 -0.0658  0.3156 -0.0344
 6323SOL    HW225058   1.615   5.881   0.132  1.6690 -0.3782 -1.4100
 6323SOL    HW325059   1.578   5.832  -0.007 -0.9268  1.2130 -1.3321
 6323SOL    MW425060   1.570   5.890   0.058  0.0495  0.3424 -0.3871
 6324SOL     OW25061   1.670   4.110   2.294 -0.3757 -0.3177  0.2333
 6324SOL    HW225062   1.614   4.048   2.248 -0.7660 -0.4563  0.8856
 6324SOL    HW325063   1.628   4.123   2.379 -0.5640  1.2028 -0.0572
 6324SOL    MW425064   1.657   4.104   2.299 -0.4520 -0.1354  0.2810
 6325SOL     OW25065   4.011   0.642   3.628  0.3777  0.1864 -0.2238
 6325SOL    HW225066   4.102   0.645   3.597  0.4524 -2.7581 -0.5676
 6325SOL    HW325067   3.962   0.608   3.553 -1.0029  1.4714  0.0560
 6325SOL    MW425068   4.017   0.638   3.614  0.2054 -0.0325 -0.2323
 6326SOL     OW25069   1.424   4.539   0.724  0.2358  0.2445 -0.0346
 6326SOL    HW225070   1.473   4.550   0.806 -0.6316 -0.3387  0.5865
 6326SOL    HW325071   1.491   4.533   0.656  1.0723 -1.5166  0.8961
 6326SOL    MW425072   1.439   4.540   0.726  0.2317 -0.0648  0.1701
 6327SOL     OW25073   3.061   2.142   2.630 -0.3874 -0.2975 -0.2360
 6327SOL    HW225074   3.020   2.149   2.544  0.6292  0.7345 -0.6575
 6327SOL    HW325075   3.148   2.106   2.613 -0.5666 -1.0998  0.4873
 6327SOL    MW425076   3.067   2.138   2.616 -0.2769 -0.2672 -0.1962
 6328SOL     OW25077   4.782   4.786   4.501  0.2284 -0.7686 -0.1479
 6328SOL    HW225078   4.740   4.790   4.586  0.3461 -1.9534 -0.0159
 6328SOL    HW325079   4.863   4.737   4.516  0.3095 -0.8898 -0.9110
 6328SOL    MW425080   4.788   4.780   4.514  0.2546 -0.9409 -0.2312
 6329SOL     OW25081   3.718   5.725   1.724 -0.1132  0.3250  0.1433
 6329SOL    HW225082   3.723   5.682   1.639  0.2999  1.0768 -0.2156
 6329SOL    HW325083   3.809   5.734   1.752 -0.1581  1.4666 -0.0425
 6329SOL    MW425084   3.731   5.720   1.717 -0.0646  0.5748  0.0714
 6330SOL     OW25085   4.441   2.507   6.332 -0.2301 -0.0991  0.2104
 6330SOL    HW225086   4.420   2.415   6.313  1.2196 -0.4129 -0.0379
 6330SOL    HW325087   4.456   2.509   6.426 -0.2367 -0.1330  0.2123
 6330SOL    MW425088   4.440   2.495   6.342 -0.0397 -0.1450  0.1779
 6331SOL     OW25089   1.172   5.256   5.958 -0.3857 -0.2843  0.2065
 6331SOL    HW225090   1.170   5.282   6.050  1.7491 -0.0490  0.2550
 6331SOL    HW325091   1.094   5.295   5.920 -2.0074 -1.4220  2.1412
 6331SOL    MW425092   1.162   5.264   5.966 -0.3180 -0.4034  0.4681
 6332SOL     OW25093   3.443   2.247   2.704  0.7040  0.1941  0.0784
 6332SOL    HW225094   3.415   2.298   2.628  0.2134 -0.6821 -0.3393
 6332SOL    HW325095   3.535   2.271   2.717  0.7974  0.3307 -0.8058
 6332SOL    MW425096   3.451   2.257   2.696  0.6516  0.0965 -0.0933
 6333SOL     OW25097   3.822   4.487   2.466  0.0359 -0.5630 -0.6787
 6333SOL    HW225098   3.764   4.415   2.493 -0.0759  0.2054  1.2524
 6333SOL    HW325099   3.900   4.443   2.432 -0.1200 -1.6063  0.2586
 6333SOL    MW425100   3.824   4.472   2.465  0.0006 -0.5993 -0.3003
 6334SOL     OW25101   3.373   5.999   3.358 -0.1424  0.2117  0.1835
 6334SOL    HW225102   3.366   6.092   3.377 -1.9160 -0.1712  1.7159
 6334SOL    HW325103   3.374   5.956   3.443 -0.3559 -1.2220 -0.4894
 6334SOL    MW425104   3.372   6.005   3.371 -0.4046 -0.0279  0.2969
 6335SOL     OW25105   4.251   0.572   5.231 -0.3329 -0.8466  0.7675
 6335SOL    HW225106   4.308   0.592   5.156 -0.5111 -0.3275  0.7707
 6335SOL    HW325107   4.198   0.499   5.200  0.4181 -1.4299  0.8108
 6335SOL    MW425108   4.252   0.565   5.217 -0.2573 -0.8550  0.7736
 6336SOL     OW25109   1.949   2.634   4.416 -0.0244  0.1056 -0.6567
 6336SOL    HW225110   1.859   2.619   4.388 -0.0640 -1.5176  0.1850
 6336SOL    HW325111   2.003   2.592   4.349 -0.0111 -1.0657  0.0559
 6336SOL    MW425112   1.944   2.626   4.403 -0.0279 -0.2631 -0.4516
 6337SOL     OW25113   5.486   6.060   1.230 -0.2523  0.5045 -0.8807
 6337SOL    HW225114   5.569   6.015   1.247 -1.0091 -0.2154  1.2507
 6337SOL    HW325115   5.509   6.128   1.166  2.0633  0.5898 -0.0795
 6337SOL    MW425116   5.500   6.063   1.224 -0.0466  0.4207 -0.4938
 6338SOL     OW25117   5.823   2.764   0.189 -0.2069  0.2497  1.2141
 6338SOL    HW225118   5.906   2.811   0.177  0.7036 -1.4552  0.6135
 6338SOL    HW325119   5.836   2.712   0.268  0.5684 -2.4916 -0.5802
 6338SOL    MW425120   5.836   2.764   0.198  0.0155 -0.3370  0.8981
 6339SOL     OW25121   4.964   3.116   3.658  0.7804  0.2754  0.4266
 6339SOL    HW225122   4.934   3.191   3.710  0.4232  1.0640 -0.8773
 6339SOL    HW325123   5.046   3.145   3.618 -0.1649  0.6075 -1.3752
 6339SOL    MW425124   4.971   3.129   3.660  0.6086  0.4233  0.0169
 6340SOL     OW25125   1.208   6.290   2.323 -0.5761  0.1706 -0.2223
 6340SOL    HW225126   1.227   6.282   2.417 -0.2734  0.4522 -0.2577
 6340SOL    HW325127   1.236   6.207   2.285  2.8002  1.3805 -0.6479
 6340SOL    MW425128   1.214   6.278   2.331 -0.0907  0.3674 -0.2831
 6341SOL     OW25129   4.940   4.570   2.110  0.0372  0.3483  0.1722
 6341SOL    HW225130   4.850   4.585   2.082 -0.1799  0.6976  1.0182
 6341SOL    HW325131   4.947   4.617   2.194  0.2013 -1.8512  1.4679
 6341SOL    MW425132   4.929   4.578   2.118  0.0302  0.1042  0.4548
 6342SOL     OW25133   4.756   4.832   3.397 -0.2900 -0.0696  0.2449
 6342SOL    HW225134   4.779   4.812   3.488 -0.1005  0.0113  0.2158
 6342SOL    HW325135   4.676   4.783   3.381 -1.1394  1.0435  0.9140
 6342SOL    MW425136   4.748   4.823   3.407 -0.3771  0.0879  0.3293
 6343SOL     OW25137   0.292   3.934   3.887  0.2689  1.0168 -0.3887
 6343SOL    HW225138   0.313   3.909   3.797  0.4951 -1.7797  0.3381
 6343SOL    HW325139   0.198   3.952   3.885  0.0147 -0.2448 -0.9893
 6343SOL    MW425140   0.282   3.933   3.875  0.2652  0.4814 -0.3720
 6344SOL     OW25141   0.501   2.221   1.267 -0.0319  0.7824 -0.3763
 6344SOL    HW225142   0.475   2.171   1.190 -1.1566 -0.5841  0.8238
 6344SOL    HW325143   0.422   2.224   1.321  0.5771  2.1740  0.4910
 6344SOL    MW425144   0.487   2.215   1.264 -0.0999  0.7857 -0.1035
 6345SOL     OW25145   1.621   1.792   4.399  0.4780  0.4710 -0.4508
 6345SOL    HW225146   1.693   1.856   4.394  1.9325 -1.0543 -0.0049
 6345SOL    HW325147   1.625   1.745   4.316 -0.1063  0.4812 -0.4845
 6345SOL    MW425148   1.631   1.794   4.388  0.5928  0.2711 -0.3965
 6346SOL     OW25149   1.300   1.359   3.536 -0.3679 -0.2351  0.6091
 6346SOL    HW225150   1.284   1.414   3.460  0.9632  2.6481  2.2547
 6346SOL    HW325151   1.371   1.301   3.509 -0.2396  0.4167 -0.5044
 6346SOL    MW425152   1.307   1.358   3.522 -0.1754  0.2313  0.6793
 6347SOL     OW25153   3.302   1.812   1.194  0.2577 -0.2917 -0.6111
 6347SOL    HW225154   3.297   1.851   1.281 -0.1141 -0.0693 -0.7336
 6347SOL    HW325155   3.326   1.720   1.210  1.1893 -0.0162 -0.3257
 6347SOL    MW425156   3.305   1.805   1.207  0.3315 -0.2260 -0.5896
 6348SOL     OW25157   0.191   4.260   0.538  0.1864 -0.1570  0.4388
 6348SOL    HW225158   0.139   4.185   0.566  0.1168  0.1072  1.0248
 6348SOL    HW325159   0.178   4.325   0.607  0.5611  0.2475  0.1292
 6348SOL    MW425160   0.182   4.259   0.551  0.2266 -0.0688  0.4753
 6349SOL     OW25161   2.573   0.612   2.305  0.6295  0.2191  0.5260
 6349SOL    HW225162   2.578   0.594   2.212  0.7101  1.3504  0.2967
 6349SOL    HW325163   2.592   0.705   2.313  0.9961  0.0665  1.7079
 6349SOL    MW425164   2.576   0.622   2.294  0.6885  0.3483  0.6517
 6350SOL     OW25165   5.676   0.573   2.574  1.0349  0.4642 -0.0387
 6350SOL    HW225166   5.752   0.557   2.630 -0.4542 -0.2355  1.9005
 6350SOL    HW325167   5.707   0.637   2.509  3.4725 -0.4036  0.1537
 6350SOL    MW425168   5.690   0.579   2.573  1.1600  0.2574  0.2425
 6351SOL     OW25169   4.749   1.165   2.230  0.1392 -0.2488  0.2545
 6351SOL    HW225170   4.654   1.155   2.230  0.1550 -0.4389 -0.7844
 6351SOL    HW325171   4.769   1.214   2.150  0.7899  1.1435  1.2259
 6351SOL    MW425172   4.739   1.170   2.220  0.2271 -0.0902  0.2456
 6352SOL     OW25173   5.138   1.199   4.094  0.2626 -0.0731 -0.0403
 6352SOL    HW225174   5.153   1.282   4.048 -2.1287 -0.4908 -1.7764
 6352SOL    HW325175   5.098   1.225   4.178 -1.0222  0.5666 -0.8178
 6352SOL    MW425176   5.134   1.214   4.099 -0.2224 -0.0438 -0.3720
 6353SOL     OW25177   6.388   4.941   1.922  0.1651 -0.0233 -0.0749
 6353SOL    HW225178   6.301   4.963   1.955  0.6824  1.4217  0.4120
 6353SOL    HW325179   6.372   4.900   1.837 -0.9841  0.5079 -0.1311
 6353SOL    MW425180   6.375   4.939   1.915  0.0817  0.2374 -0.0181
 6354SOL     OW25181   6.052   2.594   0.694 -0.7371  0.1895  0.2860
 6354SOL    HW225182   6.084   2.678   0.661  0.4515 -0.0429  0.7965
 6354SOL    HW325183   6.125   2.534   0.682 -0.5703 -0.1267  2.3917
 6354SOL    MW425184   6.066   2.597   0.688 -0.5583  0.1171  0.6312
 6355SOL     OW25185   3.736   3.528   2.801 -0.0773  0.3626 -0.0997
 6355SOL    HW225186   3.734   3.441   2.761  0.2545  0.9973 -1.5358
 6355SOL    HW325187   3.790   3.517   2.880 -1.6974 -1.1600  0.8676
 6355SOL    MW425188   3.743   3.515   2.806 -0.2473  0.2455 -0.1616
 6356SOL     OW25189   5.040   2.516   3.730  0.4044  0.6921 -0.3363
 6356SOL    HW225190   4.953   2.555   3.722 -0.0277 -0.1170  0.2517
 6356SOL    HW325191   5.098   2.579   3.689 -0.4290  1.3651 -0.5172
 6356SOL    MW425192   5.036   2.529   3.724  0.2374  0.6741 -0.2826
 6357SOL     OW25193   0.479   5.974   3.925  0.1116  0.0433 -0.2569
 6357SOL    HW225194   0.543   5.910   3.892 -0.4031 -0.5670 -0.0833
 6357SOL    HW325195   0.516   6.059   3.899  0.9345 -0.2997 -0.2629
 6357SOL    MW425196   0.493   5.977   3.917  0.1523 -0.0825 -0.2348
 6358SOL     OW25197   2.121   1.602   5.655 -0.1936  0.3266  0.2094
 6358SOL    HW225198   2.139   1.691   5.624  0.5239  0.6260  1.4430
 6358SOL    HW325199   2.055   1.613   5.723  1.9245  0.2772  2.3801
 6358SOL    MW425200   2.115   1.615   5.660  0.1805  0.3596  0.6586
 6359SOL     OW25201   0.710   2.466   5.141 -0.4185  0.2873 -0.6978
 6359SOL    HW225202   0.720   2.413   5.220 -0.0952 -0.9739 -1.5582
 6359SOL    HW325203   0.645   2.532   5.165  0.8282  0.9391  1.1150
 6359SOL    MW425204   0.703   2.468   5.155 -0.2114  0.2069 -0.5722
 6360SOL     OW25205   0.883   5.810   0.044 -0.5383 -0.0011  0.0317
 6360SOL    HW225206   0.934   5.736   0.012 -0.6930 -0.0257 -0.1586
 6360SOL    HW325207   0.797   5.799   0.004 -0.3293  0.7166 -0.6484
 6360SOL    MW425208   0.878   5.799   0.035 -0.5311  0.0904 -0.0831
 6361SOL     OW25209   0.116   5.378   5.929  0.2464 -0.0606  0.1749
 6361SOL    HW225210   0.181   5.386   5.859 -1.3282 -0.1650 -1.3975
 6361SOL    HW325211   0.162   5.402   6.009  2.2453 -0.3326 -0.8325
 6361SOL    MW425212   0.131   5.382   5.930  0.3024 -0.1103 -0.1655
 6362SOL     OW25213   1.180   1.800   6.221  0.5815 -0.1191 -0.6702
 6362SOL    HW225214   1.271   1.825   6.207  0.8092 -0.6524 -0.1898
 6362SOL    HW325215   1.185   1.712   6.258 -0.0457  0.4371  0.8450
 6362SOL    MW425216   1.193   1.792   6.224  0.5288 -0.1161 -0.4069
 6363SOL     OW25217   2.342   5.590   1.048 -0.2051  0.0637  0.6074
 6363SOL    HW225218   2.251   5.595   1.018 -0.0121  0.0752  0.0080
 6363SOL    HW325219   2.394   5.606   0.969  0.3174  0.4339  1.0163
 6363SOL    MW425220   2.337   5.593   1.034 -0.1107  0.1141  0.5823
 6364SOL     OW25221   4.081   0.145   2.139  0.1356 -0.2364  0.6167
 6364SOL    HW225222   4.086   0.054   2.110 -0.0820 -0.2975  0.7633
 6364SOL    HW325223   4.153   0.189   2.094 -1.6927  0.2478 -2.0903
 6364SOL    MW425224   4.091   0.138   2.130 -0.1343 -0.1806  0.2789
 6365SOL     OW25225   3.127   4.271   4.634 -0.1461 -0.3886  0.1567
 6365SOL    HW225226   3.150   4.191   4.683  1.1913 -0.1137  0.0014
 6365SOL    HW325227   3.132   4.244   4.542  1.0424  0.0399  0.0786
 6365SOL    MW425228   3.131   4.257   4.628  0.1871 -0.2958  0.1259
 6366SOL     OW25229   5.101   4.478   2.606 -0.1505 -0.1550 -0.0506
 6366SOL    HW225230   5.058   4.558   2.634  0.9404 -0.2495  2.0839
 6366SOL    HW325231   5.166   4.506   2.542 -0.5166  0.5190 -0.1279
 6366SOL    MW425232   5.104   4.492   2.601 -0.0549 -0.0786  0.2208
 6367SOL     OW25233   6.060   5.702   5.603 -0.4218  0.4379 -0.7306
 6367SOL    HW225234   5.994   5.655   5.653 -0.0293  0.4356 -0.1991
 6367SOL    HW325235   6.143   5.668   5.636 -0.1436 -0.9170 -2.6749
 6367SOL    MW425236   6.062   5.691   5.614 -0.3333  0.2589 -0.9170
 6368SOL     OW25237   5.978   0.401   3.627  0.0107 -0.3061 -0.0596
 6368SOL    HW225238   6.072   0.415   3.632 -0.0532  0.0787  0.1427
 6368SOL    HW325239   5.940   0.489   3.633 -0.3458 -0.4228 -0.5049
 6368SOL    MW425240   5.985   0.415   3.629 -0.0447 -0.2707 -0.0916
 6369SOL     OW25241   0.403   6.279   3.978  0.6157 -0.3256 -0.2206
 6369SOL    HW225242   0.413   6.308   3.887  2.0566 -0.6654 -0.1946
 6369SOL    HW325243   0.444   6.349   4.029  0.5489 -0.5302  0.1137
 6369SOL    MW425244   0.410   6.292   3.972  0.7970 -0.3974 -0.1730
 6370SOL     OW25245   4.391   2.612   5.421  0.6751  0.2827  0.4619
 6370SOL    HW225246   4.466   2.569   5.380  1.1903  1.4936  0.1148
 6370SOL    HW325247   4.343   2.540   5.463  0.7052 -0.8563 -1.3445
 6370SOL    MW425248   4.394   2.597   5.421  0.7470  0.2922  0.1777
 6371SOL     OW25249   2.507   4.890   0.230  0.0586 -0.1831  0.1133
 6371SOL    HW225250   2.567   4.891   0.156  0.2795  0.3948  0.2948
 6371SOL    HW325251   2.421   4.909   0.191  0.1744  0.1207  0.0021
 6371SOL    MW425252   2.503   4.893   0.215  0.1030 -0.0668  0.1226
 6372SOL     OW25253   6.118   1.520   5.911  0.1271  0.0193  0.2270
 6372SOL    HW225254   6.072   1.533   5.828  0.3654  1.0391  0.2468
 6372SOL    HW325255   6.051   1.530   5.978  0.2594  0.9863  0.2309
 6372SOL    MW425256   6.103   1.523   5.909  0.1760  0.2814  0.2301
 6373SOL     OW25257   6.157   1.480   4.484  0.0508 -0.2402 -0.7585
 6373SOL    HW225258   6.245   1.451   4.507  0.6206  1.4902 -0.6289
 6373SOL    HW325259   6.113   1.492   4.568  0.8199  2.1413 -0.6279
 6373SOL    MW425260   6.163   1.478   4.498  0.2275  0.3023 -0.7242
 6374SOL     OW25261   3.894   6.327   2.788 -0.0636  0.6090 -0.1769
 6374SOL    HW225262   3.874   6.270   2.714  0.4356  0.5507 -0.2751
 6374SOL    HW325263   3.988   6.344   2.779 -0.2928  1.8510 -0.4333
 6374SOL    MW425264   3.904   6.322   2.777 -0.0280  0.7652 -0.2237
 6375SOL     OW25265   5.785   5.090   0.594 -0.6539  0.1655 -0.3098
 6375SOL    HW225266   5.842   5.065   0.521 -0.6760 -0.4563 -0.1194
 6375SOL    HW325267   5.842   5.085   0.671 -1.5627 -3.0728  0.2717
 6375SOL    MW425268   5.800   5.086   0.594 -0.7767 -0.3438 -0.2079
 6376SOL     OW25269   4.151   5.471   1.904 -0.8036 -0.1066 -0.2631
 6376SOL    HW225270   4.218   5.527   1.943  0.2687 -1.0224 -0.7201
 6376SOL    HW325271   4.099   5.440   1.978  0.4156 -0.8140  0.3316
 6376SOL    MW425272   4.153   5.474   1.919 -0.5013 -0.3207 -0.2450
 6377SOL     OW25273   2.945   1.736   2.394 -0.0466  0.1863 -0.3799
 6377SOL    HW225274   2.962   1.690   2.477  1.5463 -0.6329 -1.1107
 6377SOL    HW325275   2.880   1.683   2.349  0.1401 -0.1562 -0.2519
 6377SOL    MW425276   2.939   1.723   2.399  0.1882  0.0330 -0.4595
 6378SOL     OW25277   6.022   4.436   0.246  0.0667  1.2131 -0.2835
 6378SOL    HW225278   6.092   4.446   0.311 -0.1328  0.3792  0.0723
 6378SOL    HW325279   5.958   4.503   0.269 -1.3649 -0.7853  2.1902
 6378SOL    MW425280   6.023   4.446   0.258 -0.1485  0.8395  0.0898
 6379SOL     OW25281   2.295   0.248   5.785 -0.0360  0.2293 -0.0442
 6379SOL    HW225282   2.344   0.321   5.823  1.6346 -1.1119  0.5256
 6379SOL    HW325283   2.363   0.184   5.761 -1.4485 -1.2455 -0.2583
 6379SOL    MW425284   2.311   0.249   5.787 -0.0019 -0.1422  0.0028
 6380SOL     OW25285   0.663   1.263   1.629 -0.6807 -0.3854 -0.1618
 6380SOL    HW225286   0.600   1.247   1.699 -1.8314  0.9543 -0.8343
 6380SOL    HW325287   0.609   1.273   1.550  0.4618 -0.2976 -0.9638
 6380SOL    MW425288   0.647   1.262   1.628 -0.6818 -0.1970 -0.3563
 6381SOL     OW25289   3.573   5.196   3.302 -0.0146 -0.1340 -0.6621
 6381SOL    HW225290   3.489   5.240   3.317 -0.0863 -0.5512  0.2037
 6381SOL    HW325291   3.615   5.248   3.234 -1.0735 -0.0534 -1.2848
 6381SOL    MW425292   3.567   5.208   3.295 -0.1638 -0.1784 -0.6300
 6382SOL     OW25293   5.638   1.410   3.377  0.5892 -0.0489 -0.3781
 6382SOL    HW225294   5.654   1.399   3.471 -2.2895  0.9332  0.3094
 6382SOL    HW325295   5.666   1.499   3.358 -0.7078  0.4746  0.0556
 6382SOL    MW425296   5.644   1.420   3.387  0.0382  0.1497 -0.2302
 6383SOL     OW25297   1.975   0.845   3.680 -0.0537 -0.4703  0.4096
 6383SOL    HW225298   2.049   0.879   3.630 -0.0578 -0.7742  0.1891
 6383SOL    HW325299   2.010   0.770   3.727 -0.2957 -0.8257  0.0360
 6383SOL    MW425300   1.989   0.840   3.679 -0.0862 -0.5573  0.3312
 6384SOL     OW25301   5.340   3.999   6.335  0.3027  0.3130 -0.3244
 6384SOL    HW225302   5.349   4.085   6.293  0.2152  0.6419  0.3083
 6384SOL    HW325303   5.280   3.951   6.278  1.1370  0.3085 -1.2255
 6384SOL    MW425304   5.333   4.004   6.322  0.4012  0.3558 -0.3598
 6385SOL     OW25305   0.249   1.864   1.775  0.4391  0.0183  0.1085
 6385SOL    HW225306   0.175   1.917   1.745 -0.4787 -0.2395  1.7474
 6385SOL    HW325307   0.228   1.775   1.746  0.1583 -0.0316  0.4548
 6385SOL    MW425308   0.236   1.860   1.767  0.2809 -0.0223  0.3704
 6386SOL     OW25309   2.399   2.155   2.563 -0.0017 -0.3515  0.5116
 6386SOL    HW225310   2.430   2.161   2.654  0.7373 -0.8038  0.2994
 6386SOL    HW325311   2.468   2.107   2.517 -1.1267 -1.6040  0.0520
 6386SOL    MW425312   2.412   2.150   2.569 -0.0526 -0.5764  0.4230
 6387SOL     OW25313   4.956   1.434   3.129  0.0563  0.2855  0.5597
 6387SOL    HW225314   5.043   1.408   3.159  0.5536  2.0660  0.7727
 6387SOL    HW325315   4.964   1.442   3.034  0.9485  3.0625  0.7863
 6387SOL    MW425316   4.968   1.432   3.120  0.2396  0.8868  0.6177
 6388SOL     OW25317   3.335   5.172   5.561 -0.1302 -0.3524 -0.0343
 6388SOL    HW225318   3.382   5.239   5.610  0.3080 -0.3794 -0.4119
 6388SOL    HW325319   3.259   5.218   5.524 -0.6863 -0.4274  0.9990
 6388SOL    MW425320   3.331   5.187   5.562 -0.1457 -0.3658  0.0522
 6389SOL     OW25321   4.718   5.318   1.187  0.0543 -0.3403 -0.3396
 6389SOL    HW225322   4.683   5.252   1.247 -0.8321 -0.4391 -0.9452
 6389SOL    HW325323   4.733   5.270   1.105  0.7941 -0.1007 -0.3545
 6389SOL    MW425324   4.716   5.303   1.184  0.0350 -0.3217 -0.4215
 6390SOL     OW25325   2.277   2.803   4.160 -0.2763 -0.1559 -0.0337
 6390SOL    HW225326   2.250   2.880   4.210 -0.2014 -1.2062  1.7010
 6390SOL    HW325327   2.292   2.836   4.072 -2.8906  1.3199 -0.0300
 6390SOL    MW425328   2.276   2.818   4.155 -0.6114 -0.0997  0.1957
 6391SOL     OW25329   4.332   6.082   2.438 -0.3301  0.3727  0.3500
 6391SOL    HW225330   4.293   6.049   2.519 -1.0890 -0.9794 -0.5368
 6391SOL    HW325331   4.265   6.069   2.371  0.3491  1.2981 -0.5515
 6391SOL    MW425332   4.318   6.076   2.440 -0.3406  0.3164  0.1140
 6392SOL     OW25333   0.982   4.552   1.436  0.3631 -0.7294  0.5391
 6392SOL    HW225334   1.019   4.631   1.397 -0.1366 -0.3860  0.7547
 6392SOL    HW325335   1.058   4.506   1.473  0.8327 -0.9966 -0.7017
 6392SOL    MW425336   0.997   4.556   1.436  0.3591 -0.7194  0.4039
 6393SOL     OW25337   1.438   1.726   1.713 -0.0773  0.0212  0.1914
 6393SOL    HW225338   1.349   1.743   1.742 -0.0700  2.0850 -0.8192
 6393SOL    HW325339   1.451   1.785   1.638  2.2626  0.1290  0.6020
 6393SOL    MW425340   1.428   1.736   1.707  0.2324  0.3077  0.1122
 6394SOL     OW25341   6.283   2.916   4.397 -0.4769 -0.1111 -0.0954
 6394SOL    HW225342   6.317   2.844   4.450 -0.2761  0.3227  0.3789
 6394SOL    HW325343   6.312   2.896   4.308 -1.8415 -1.4756 -0.2687
 6394SOL    MW425344   6.291   2.904   4.392 -0.6305 -0.2339 -0.0557
 6395SOL     OW25345   3.037   5.084   3.140  0.5416 -0.1301 -0.1452
 6395SOL    HW225346   3.102   5.151   3.125  0.0998  0.4538  0.4781
 6395SOL    HW325347   3.045   5.063   3.233  0.8783 -1.1650 -0.3914
 6395SOL    MW425348   3.046   5.090   3.151  0.5278 -0.1896 -0.0954
 6396SOL     OW25349   3.301   2.735   5.243 -0.7062  0.3450  0.1418
 6396SOL    HW225350   3.292   2.640   5.250 -1.0440  0.4136  0.6740
 6396SOL    HW325351   3.255   2.770   5.319 -0.5017  0.9349  0.0050
 6396SOL    MW425352   3.294   2.727   5.254 -0.7237  0.4319  0.1940
 6397SOL     OW25353   2.091   2.390   1.178 -0.1261 -0.1475 -0.3383
 6397SOL    HW225354   2.098   2.483   1.198 -2.8913  0.1438 -0.2895
 6397SOL    HW325355   2.120   2.382   1.087  2.0402  0.3696  0.2571
 6397SOL    MW425356   2.096   2.401   1.169 -0.2051 -0.0409 -0.2533
 6398SOL     OW25357   2.832   0.289   0.459 -0.3682 -0.1041 -0.1826
 6398SOL    HW225358   2.790   0.333   0.533 -1.5946 -2.2278  0.4844
 6398SOL    HW325359   2.926   0.302   0.473 -0.6287  0.6217  1.0354
 6398SOL    MW425360   2.839   0.296   0.471 -0.5644 -0.2886  0.0661
 6399SOL     OW25361   2.160   1.957   4.124  0.0247 -0.1052  0.1799
 6399SOL    HW225362   2.111   1.892   4.074  0.0796 -0.9498  1.1836
 6399SOL    HW325363   2.252   1.932   4.113  0.0719  0.0276  0.2681
 6399SOL    MW425364   2.165   1.945   4.116  0.0382 -0.1991  0.3240
 6400SOL     OW25365   4.994   0.127   2.625  0.0879  0.0166  0.8639
 6400SOL    HW225366   5.011   0.142   2.718  1.6021 -0.6949  0.7383
 6400SOL    HW325367   5.020   0.036   2.611 -1.4496 -0.3189  0.0119
 6400SOL    MW425368   5.000   0.117   2.636  0.0848 -0.1215  0.7349
 6401SOL     OW25369   4.437   5.557   4.545 -0.6715 -0.1477  0.1383
 6401SOL    HW225370   4.492   5.600   4.480  0.5226 -0.8227  0.6624
 6401SOL    HW325371   4.358   5.533   4.498 -1.6520  3.0264 -0.0602
 6401SOL    MW425372   4.434   5.559   4.530 -0.6433  0.1820  0.1813
 6402SOL     OW25373   4.821   4.672   1.369  0.3387  0.5384 -0.0465
 6402SOL    HW225374   4.737   4.629   1.353  1.2391 -0.6044 -2.0092
 6402SOL    HW325375   4.810   4.760   1.333 -0.7662  1.2780  1.9386
 6402SOL    MW425376   4.808   4.678   1.362  0.3117  0.4852 -0.0436
 6403SOL     OW25377   5.258   0.695   3.029  0.8451  0.0273 -0.0041
 6403SOL    HW225378   5.243   0.733   2.942  0.8588  1.2253  0.4999
 6403SOL    HW325379   5.256   0.600   3.014  3.8018  0.1174 -1.8508
 6403SOL    MW425380   5.256   0.687   3.016  1.2370  0.1972 -0.1813
 6404SOL     OW25381   0.887   3.669   2.945 -0.4716 -0.6628 -0.1518
 6404SOL    HW225382   0.832   3.609   2.895 -2.6159 -0.1169  1.3899
 6404SOL    HW325383   0.936   3.613   3.005  0.6227 -1.1490 -1.4678
 6404SOL    MW425384   0.887   3.654   2.946 -0.6101 -0.6549 -0.1220
 6405SOL     OW25385   5.497   5.233   0.857  1.2158  0.3400 -0.0859
 6405SOL    HW225386   5.499   5.185   0.775  0.5987  1.0097 -0.5071
 6405SOL    HW325387   5.414   5.281   0.855  1.1653  0.3141  0.9535
 6405SOL    MW425388   5.486   5.233   0.846  1.1277  0.4249 -0.0043
 6406SOL     OW25389   1.414   4.096   3.816  0.1166 -0.3571 -0.1006
 6406SOL    HW225390   1.388   4.188   3.827  1.4508  0.1587 -1.0394
 6406SOL    HW325391   1.406   4.080   3.722  0.5042 -1.0197 -0.0275
 6406SOL    MW425392   1.409   4.106   3.805  0.3438 -0.3764 -0.2148
 6407SOL     OW25393   1.073   2.221   5.764 -0.1699  0.5313  0.1396
 6407SOL    HW225394   1.078   2.280   5.688 -0.3238  0.0165 -0.2741
 6407SOL    HW325395   1.043   2.138   5.728  2.3689 -0.5372  0.3097
 6407SOL    MW425396   1.069   2.218   5.749  0.1447  0.3224  0.1075
 6408SOL     OW25397   2.358   2.841   2.699 -0.5666  0.3630 -0.0293
 6408SOL    HW225398   2.345   2.802   2.786 -0.3952  1.3751  0.4675
 6408SOL    HW325399   2.413   2.778   2.653  0.3775  0.3824  1.0298
 6408SOL    MW425400   2.363   2.827   2.704 -0.4195  0.4991  0.1760
 6409SOL     OW25401   1.270   6.262   2.588 -0.1928 -0.1733 -0.2863
 6409SOL    HW225402   1.346   6.320   2.579  0.6271 -1.0197  0.8609
 6409SOL    HW325403   1.296   6.181   2.545 -0.3976 -0.5052  0.2001
 6409SOL    MW425404   1.283   6.259   2.581 -0.1117 -0.3288 -0.0708
 6410SOL     OW25405   1.114   5.476   5.655 -0.1823  0.4435 -0.5299
 6410SOL    HW225406   1.184   5.411   5.656 -0.3519  0.2627 -0.4386
 6410SOL    HW325407   1.158   5.558   5.634  0.3615  0.6853  1.3342
 6410SOL    MW425408   1.129   5.478   5.652 -0.1329  0.4516 -0.2719
 6411SOL     OW25409   1.048   1.689   4.803  0.4064  0.0296 -0.2981
 6411SOL    HW225410   1.028   1.720   4.891 -0.0924 -0.1949 -0.3327
 6411SOL    HW325411   0.981   1.727   4.747  0.7630  0.2318 -0.5996
 6411SOL    MW425412   1.037   1.698   4.807  0.3877  0.0266 -0.3424
 6412SOL     OW25413   3.270   4.171   3.853 -0.5368  0.3865 -0.4816
 6412SOL    HW225414   3.245   4.225   3.928 -0.9519  0.4174 -0.6385
 6412SOL    HW325415   3.311   4.093   3.892  0.0197  0.7906 -0.2560
 6412SOL    MW425416   3.272   4.168   3.868 -0.5181  0.4439 -0.4726
 6413SOL     OW25417   3.290   5.966   4.009 -0.6931 -0.4466  0.2838
 6413SOL    HW225418   3.352   5.907   4.052  0.1384  0.8015  0.8671
 6413SOL    HW325419   3.212   5.964   4.064 -1.0664 -1.7341 -0.2453
 6413SOL    MW425420   3.288   5.958   4.022 -0.6327 -0.4518  0.2910
 6414SOL     OW25421   1.119   5.872   3.869 -0.2414  0.0659  0.6492
 6414SOL    HW225422   1.047   5.926   3.835  0.4400 -0.3436 -1.6858
 6414SOL    HW325423   1.198   5.912   3.832  0.2990 -2.4121 -1.1945
 6414SOL    MW425424   1.120   5.884   3.859 -0.0802 -0.3151  0.0979
 6415SOL     OW25425   0.518   3.434   4.006 -0.2034  0.4122 -0.3965
 6415SOL    HW225426   0.607   3.397   4.003 -0.0507  0.8007 -0.6790
 6415SOL    HW325427   0.473   3.394   3.932 -1.0079 -1.6401  1.1057
 6415SOL    MW425428   0.524   3.424   3.996 -0.2894  0.1927 -0.2355
 6416SOL     OW25429   6.162   3.382   0.590 -0.2280 -0.4938  0.4139
 6416SOL    HW225430   6.155   3.427   0.506 -1.4921 -0.4954  0.5038
 6416SOL    HW325431   6.125   3.295   0.575  0.1093 -0.7144  0.8194
 6416SOL    MW425432   6.156   3.377   0.577 -0.3502 -0.5231  0.4792
 6417SOL     OW25433   4.310   4.539   1.387 -0.3051  0.1511  0.4005
 6417SOL    HW225434   4.306   4.499   1.474  0.4042 -0.7710  0.0276
 6417SOL    HW325435   4.313   4.464   1.327  1.2043  0.7568 -0.3198
 6417SOL    MW425436   4.310   4.524   1.390 -0.0124  0.1094  0.2562
 6418SOL     OW25437   1.303   3.740   6.131 -0.6966  0.2194  0.5524
 6418SOL    HW225438   1.216   3.779   6.135 -0.8544  0.0398 -0.6489
 6418SOL    HW325439   1.290   3.656   6.086 -0.1219 -0.4901  1.6746
 6418SOL    MW425440   1.290   3.734   6.125 -0.6416  0.1021  0.5419
 6419SOL     OW25441   4.838   5.548   3.350  0.8492  0.5355  0.1189
 6419SOL    HW225442   4.893   5.470   3.360  0.3905  0.4369  2.1197
 6419SOL    HW325443   4.749   5.514   3.340  0.6524  0.7780  0.9632
 6419SOL    MW425444   4.834   5.533   3.350  0.7627  0.5545  0.4943
 6420SOL     OW25445   2.236   0.655   3.474  0.8827  0.2590 -0.3170
 6420SOL    HW225446   2.155   0.605   3.484  1.5361 -0.8569 -0.4309
 6420SOL    HW325447   2.231   0.721   3.543  1.2943 -1.7800  1.8198
 6420SOL    MW425448   2.224   0.657   3.484  1.0232 -0.1572 -0.0501
 6421SOL     OW25449   1.415   3.267   3.477  0.0522 -0.8622  0.1331
 6421SOL    HW225450   1.477   3.231   3.540  0.3141 -0.0595  0.3418
 6421SOL    HW325451   1.394   3.192   3.420 -0.2130 -1.6003  1.1705
 6421SOL    MW425452   1.421   3.252   3.478  0.0518 -0.8536  0.2975
 6422SOL     OW25453   5.566   3.556   1.002  0.1234 -0.0023  0.5707
 6422SOL    HW225454   5.622   3.480   1.014 -0.5218 -0.2940  1.8939
 6422SOL    HW325455   5.626   3.625   0.972  0.8290 -0.8303  0.0278
 6422SOL    MW425456   5.581   3.555   1.000  0.1314 -0.1500  0.6737
 6423SOL     OW25457   6.429   1.637   0.608  0.2102 -0.4007 -0.1989
 6423SOL    HW225458   6.498   1.575   0.632 -0.3202 -0.0713  2.4615
 6423SOL    HW325459   6.469   1.723   0.618 -0.1267 -0.2413 -0.1886
 6423SOL    MW425460   6.443   1.640   0.612  0.0958 -0.3362  0.1534
 6424SOL     OW25461   3.349   1.009   2.144  0.2082 -0.1195  0.3093
 6424SOL    HW225462   3.345   1.005   2.049  0.1187 -0.0439  0.3106
 6424SOL    HW325463   3.402   0.933   2.169  1.2433  0.5217  0.1307
 6424SOL    MW425464   3.355   0.998   2.135  0.3330 -0.0249  0.2859
 6425SOL     OW25465   1.719   6.450   4.879  0.1490  0.2675  0.0972
 6425SOL    HW225466   1.812   6.445   4.900  0.1401  0.9081  0.3171
 6425SOL    HW325467   1.687   6.360   4.891  0.2961  0.4303  2.1662
 6425SOL    MW425468   1.727   6.437   4.884  0.1672  0.3735  0.3992
 6426SOL     OW25469   2.745   4.974   6.331  0.5332 -0.4021  0.4117
 6426SOL    HW225470   2.747   4.901   6.392  0.7300  0.0868  1.0012
 6426SOL    HW325471   2.837   4.997   6.318  0.6671 -1.8162 -1.7056
 6426SOL    MW425472   2.757   4.967   6.337  0.5769 -0.5242  0.2102
 6427SOL     OW25473   1.614   6.163   6.110  0.1818 -0.7141 -0.3074
 6427SOL    HW225474   1.669   6.085   6.115 -1.4877 -2.0762 -1.8255
 6427SOL    HW325475   1.613   6.186   6.017  0.1046  0.7239  0.0357
 6427SOL    MW425476   1.621   6.155   6.098 -0.0487 -0.7041 -0.4624
 6428SOL     OW25477   1.986   1.278   0.026 -0.5615  0.4848  0.2732
 6428SOL    HW225478   1.997   1.368  -0.006  0.6420  0.5592  0.8538
 6428SOL    HW325479   2.075   1.244   0.033 -1.0422 -1.1387 -0.9529
 6428SOL    MW425480   1.999   1.286   0.022 -0.4661  0.2804  0.1880
 6429SOL     OW25481   5.612   0.969   5.432 -0.1490  0.0658  0.2382
 6429SOL    HW225482   5.595   1.060   5.455  1.3219  0.6226 -0.7631
 6429SOL    HW325483   5.524   0.930   5.423 -0.7879  0.9974  1.9799
 6429SOL    MW425484   5.598   0.976   5.434 -0.0392  0.2622  0.3359
 6430SOL     OW25485   3.401   6.284   3.424 -0.8484 -0.4637  0.2750
 6430SOL    HW225486   3.486   6.241   3.420 -1.0915 -1.1876  2.1430
 6430SOL    HW325487   3.384   6.310   3.333 -0.3529 -3.6035 -0.8457
 6430SOL    MW425488   3.410   6.282   3.411 -0.8151 -0.9734  0.3736
 6431SOL     OW25489   1.345   4.901   5.436  0.7096  0.2690 -0.0353
 6431SOL    HW225490   1.326   4.946   5.354  2.3027  0.5719 -0.2734
 6431SOL    HW325491   1.366   4.811   5.410 -0.8107 -0.2084  0.2748
 6431SOL    MW425492   1.346   4.895   5.422  0.7192  0.2460 -0.0258
 6432SOL     OW25493   4.432   5.757   3.443 -0.1041 -0.6495  0.3989
 6432SOL    HW225494   4.431   5.829   3.380 -1.6798 -0.5095  0.5389
 6432SOL    HW325495   4.498   5.782   3.507  1.3017 -0.6345 -0.9889
 6432SOL    MW425496   4.441   5.770   3.443 -0.1265 -0.6290  0.2343
 6433SOL     OW25497   1.177   1.939   5.429  0.0766 -0.2841 -1.1854
 6433SOL    HW225498   1.239   1.869   5.409  0.8578  0.0082  0.0462
 6433SOL    HW325499   1.208   2.014   5.378  1.6149  0.2502  0.3903
 6433SOL    MW425500   1.189   1.940   5.420  0.3826 -0.1750 -0.8150
 6434SOL     OW25501   1.998   1.687   4.776  0.2094  0.1819 -0.1786
 6434SOL    HW225502   2.085   1.661   4.747  0.2964 -1.0707  1.1214
 6434SOL    HW325503   2.006   1.695   4.871 -1.6504 -2.4015  0.2922
 6434SOL    MW425504   2.010   1.685   4.785 -0.0245 -0.3242  0.0550
 6435SOL     OW25505   0.793   5.956   0.703 -0.2731 -0.8590  0.0058
 6435SOL    HW225506   0.804   6.032   0.646  1.9194 -2.2671 -1.6220
 6435SOL    HW325507   0.752   5.991   0.782  1.6794  2.2494 -0.1712
 6435SOL    MW425508   0.789   5.971   0.706  0.2738 -0.6347 -0.2323
 6436SOL     OW25509   0.319   1.710   0.263 -0.1332  0.4316  0.2724
 6436SOL    HW225510   0.309   1.793   0.309 -0.7569  0.4241  0.1712
 6436SOL    HW325511   0.378   1.729   0.190 -2.5870  1.5860 -1.5574
 6436SOL    MW425512   0.325   1.723   0.259 -0.5393  0.5829  0.0176
 6437SOL     OW25513   4.328   4.605   4.645  0.5190 -0.3554  0.0149
 6437SOL    HW225514   4.401   4.591   4.585  0.8078  0.0131  0.2773
 6437SOL    HW325515   4.331   4.699   4.665 -1.0167  0.0209 -1.2504
 6437SOL    MW425516   4.338   4.616   4.640  0.3545 -0.2572 -0.1174
 6438SOL     OW25517   4.406   1.332   3.126 -0.1018  0.2465  0.1349
 6438SOL    HW225518   4.488   1.283   3.122 -1.0110 -1.6414  2.3398
 6438SOL    HW325519   4.349   1.289   3.062  0.3079  1.0012 -0.7636
 6438SOL    MW425520   4.409   1.320   3.117 -0.1677  0.0970  0.3073
 6439SOL     OW25521   4.326   1.734   3.258 -0.1542 -0.2990  0.1887
 6439SOL    HW225522   4.341   1.824   3.230 -0.4251 -0.7504 -1.5224
 6439SOL    HW325523   4.231   1.728   3.270 -0.2855 -0.6608 -0.9163
 6439SOL    MW425524   4.315   1.745   3.256 -0.2073 -0.4063 -0.1829
 6440SOL     OW25525   1.596   4.806   1.312 -0.7020  0.2379  0.7529
 6440SOL    HW225526   1.638   4.882   1.271  0.1893 -1.9550 -2.9053
 6440SOL    HW325527   1.662   4.772   1.372 -0.1672  1.0102  0.6164
 6440SOL    MW425528   1.610   4.812   1.314 -0.5138  0.0504  0.2522
 6441SOL     OW25529   1.299   1.477   1.914 -0.5338 -0.3371 -0.8286
 6441SOL    HW225530   1.230   1.505   1.975 -1.4191 -2.6642 -0.6493
 6441SOL    HW325531   1.306   1.383   1.928  2.9020 -0.1852 -0.6866
 6441SOL    MW425532   1.291   1.468   1.924 -0.1973 -0.6241 -0.7862
 6442SOL     OW25533   3.762   4.569   1.178 -0.4973  0.1394  0.2332
 6442SOL    HW225534   3.734   4.576   1.086  1.5270 -3.2488 -0.8234
 6442SOL    HW325535   3.732   4.482   1.206  1.5737 -0.1694  1.7300
 6442SOL    MW425536   3.754   4.558   1.169  0.0430 -0.3484  0.2912
 6443SOL     OW25537   0.845   6.130   2.734  0.6480 -0.4377  0.3157
 6443SOL    HW225538   0.894   6.075   2.795  0.2158 -0.7763  0.3614
 6443SOL    HW325539   0.865   6.220   2.761  0.7818 -0.5828  0.6969
 6443SOL    MW425540   0.854   6.135   2.746  0.6086 -0.5015  0.3721
 6444SOL     OW25541   0.645   6.415   2.935  0.6372 -0.2435 -0.0342
 6444SOL    HW225542   0.649   6.321   2.919  1.4630 -0.4143  1.0663
 6444SOL    HW325543   0.570   6.445   2.884 -0.1581 -1.6382  0.2611
 6444SOL    MW425544   0.636   6.407   2.926  0.6412 -0.4500  0.1500
 6445SOL     OW25545   2.458   1.960   5.148 -0.2133  0.5369 -0.5992
 6445SOL    HW225546   2.482   2.039   5.100  2.2531 -0.3552 -1.0170
 6445SOL    HW325547   2.481   1.888   5.089 -0.5000 -0.5164  0.5340
 6445SOL    MW425548   2.464   1.961   5.134  0.0743  0.2802 -0.5048
 6446SOL     OW25549   2.611   4.636   5.353  0.1099  0.0838  0.5011
 6446SOL    HW225550   2.561   4.667   5.428 -1.3540 -4.0719  1.5536
 6446SOL    HW325551   2.655   4.557   5.385 -1.3373 -2.4583 -3.1077
 6446SOL    MW425552   2.611   4.629   5.367 -0.2742 -0.7999  0.1639
 6447SOL     OW25553   3.714   1.635   2.354  0.0736  0.1359  0.1889
 6447SOL    HW225554   3.724   1.723   2.390 -0.5063 -0.0734  0.8748
 6447SOL    HW325555   3.680   1.649   2.265  2.1180  0.6831 -0.5795
 6447SOL    MW425556   3.711   1.649   2.347  0.2668  0.1805  0.1780
 6448SOL     OW25557   4.739   5.418   4.234  0.0191 -0.1177 -0.5192
 6448SOL    HW225558   4.724   5.440   4.142 -0.2933 -1.5212 -0.8315
 6448SOL    HW325559   4.689   5.485   4.283 -1.2923 -0.3961 -1.4148
 6448SOL    MW425560   4.730   5.430   4.229 -0.1952 -0.3396 -0.6786
 6449SOL     OW25561   5.284   1.704   0.531  0.9191  0.0880  0.0662
 6449SOL    HW225562   5.360   1.671   0.579  0.6359 -0.7961 -0.0614
 6449SOL    HW325563   5.210   1.658   0.569  0.2317  2.0878  1.2351
 6449SOL    MW425564   5.285   1.693   0.542  0.7910  0.2352  0.2036
 6450SOL     OW25565   4.512   4.344   1.046 -0.0015 -0.2829 -0.1695
 6450SOL    HW225566   4.531   4.257   1.012 -0.2621 -0.1107 -0.7891
 6450SOL    HW325567   4.597   4.381   1.068  0.2413 -0.1779 -1.2268
 6450SOL    MW425568   4.525   4.337   1.044 -0.0038 -0.2463 -0.3908
 6451SOL     OW25569   0.730   0.822   3.598  0.5041  0.2312 -0.3620
 6451SOL    HW225570   0.791   0.797   3.667  0.4386  1.7193  0.2801
 6451SOL    HW325571   0.648   0.841   3.644 -0.4037 -1.4963 -1.1842
 6451SOL    MW425572   0.728   0.821   3.613  0.3757  0.1996 -0.3858
 6452SOL     OW25573   6.289   4.775   4.003  0.2043 -0.4290  0.0812
 6452SOL    HW225574   6.357   4.830   3.965 -0.0571  0.0656  0.3183
 6452SOL    HW325575   6.327   4.687   4.005  0.3200 -0.4228 -1.0819
 6452SOL    MW425576   6.303   4.770   3.998  0.1851 -0.3629 -0.0410
 6453SOL     OW25577   3.364   4.442   4.398  0.5616  0.4980  0.1894
 6453SOL    HW225578   3.348   4.442   4.303 -0.3020 -0.1175  0.3210
 6453SOL    HW325579   3.368   4.535   4.422 -1.7392  0.7275 -0.0694
 6453SOL    MW425580   3.362   4.454   4.388  0.1441  0.4471  0.1726
 6454SOL     OW25581   1.211   4.148   0.054  0.2612  0.2798  0.2534
 6454SOL    HW225582   1.127   4.193   0.045 -0.0650 -0.2875  0.4249
 6454SOL    HW325583   1.249   4.150  -0.034  0.6214  1.5979  0.4216
 6454SOL    MW425584   1.205   4.154   0.041  0.2657  0.3789  0.2982
 6455SOL     OW25585   5.657   4.199   0.707 -0.2421  0.1845 -0.4640
 6455SOL    HW225586   5.749   4.173   0.708 -0.5953 -1.2914  1.7338
 6455SOL    HW325587   5.657   4.285   0.666  2.0854  0.1626 -0.6731
 6455SOL    MW425588   5.669   4.207   0.702  0.0184 -0.0132 -0.2016
 6456SOL     OW25589   0.552   4.470   5.824 -0.2261 -0.1742 -0.5907
 6456SOL    HW225590   0.528   4.538   5.888  0.4583 -0.7413  0.3030
 6456SOL    HW325591   0.496   4.396   5.845  0.8864 -0.8189  0.2364
 6456SOL    MW425592   0.542   4.469   5.835  0.0110 -0.3341 -0.3637
 6457SOL     OW25593   4.734   3.518   2.672 -0.0733  0.4810  0.2026
 6457SOL    HW225594   4.646   3.543   2.643  0.0956  0.9006  0.0437
 6457SOL    HW325595   4.751   3.574   2.748  1.5265  3.1791 -1.9420
 6457SOL    MW425596   4.725   3.529   2.678  0.1601  0.8924 -0.1013
 6458SOL     OW25597   2.823   4.727   2.162 -0.0296  0.1200 -0.3452
 6458SOL    HW225598   2.812   4.647   2.212  0.3066  0.6653  0.6392
 6458SOL    HW325599   2.735   4.754   2.138 -0.2521  0.1641  0.4903
 6458SOL    MW425600   2.810   4.720   2.165 -0.0146  0.1978 -0.1051
 6459SOL     OW25601   4.242   4.141   2.363 -0.1286 -0.3301 -0.0950
 6459SOL    HW225602   4.207   4.218   2.408 -1.0782 -1.2102  0.7270
 6459SOL    HW325603   4.262   4.079   2.433  0.1221 -1.0296 -0.7769
 6459SOL    MW425604   4.240   4.143   2.378 -0.2208 -0.5385 -0.0765
 6460SOL     OW25605   4.869   3.843   4.194  0.1720  0.7620 -0.6661
 6460SOL    HW225606   4.840   3.767   4.144 -3.4877  1.8461 -0.4806
 6460SOL    HW325607   4.939   3.810   4.250 -0.1761 -2.0706 -1.7360
 6460SOL    MW425608   4.874   3.829   4.195 -0.3568  0.5313 -0.7828
 6461SOL     OW25609   2.707   0.226   1.401  0.0023 -0.2800  0.2900
 6461SOL    HW225610   2.623   0.269   1.419  1.1745  1.8262  1.0753
 6461SOL    HW325611   2.685   0.133   1.394 -2.0735 -0.0875  2.7202
 6461SOL    MW425612   2.693   0.220   1.402 -0.1169  0.0233  0.7142
 6462SOL     OW25613   2.054   1.573   1.006  0.3890  0.5557 -0.6679
 6462SOL    HW225614   2.035   1.610   0.920 -2.1448 -1.1151 -0.9444
 6462SOL    HW325615   2.055   1.478   0.991  1.8992  0.2961  0.8265
 6462SOL    MW425616   2.051   1.566   0.993  0.2539  0.3010 -0.5072
 6463SOL     OW25617   3.756   2.811   1.554  0.2720 -0.1324 -0.3112
 6463SOL    HW225618   3.757   2.903   1.527 -0.4911  0.3261  1.1179
 6463SOL    HW325619   3.822   2.806   1.623  0.7185 -0.8074 -0.7729
 6463SOL    MW425620   3.765   2.822   1.560  0.2302 -0.1610 -0.1835
 6464SOL     OW25621   5.056   0.325   5.660 -0.4363 -0.4754 -0.3630
 6464SOL    HW225622   5.077   0.416   5.681  0.6794 -0.8057  0.0239
 6464SOL    HW325623   5.132   0.294   5.611 -1.0751 -1.0270 -1.0247
 6464SOL    MW425624   5.069   0.333   5.656 -0.3733 -0.5917 -0.3992
 6465SOL     OW25625   0.269   6.075   0.479  0.4152 -0.3811  0.4465
 6465SOL    HW225626   0.364   6.080   0.494  0.6993 -0.1039 -1.2249
 6465SOL    HW325627   0.260   6.030   0.395 -0.7755  1.8429 -0.7225
 6465SOL    MW425628   0.281   6.070   0.470  0.2956 -0.0511  0.0717
 6466SOL     OW25629   6.230   3.382   0.179  0.4577  0.4697 -0.3279
 6466SOL    HW225630   6.212   3.452   0.241 -0.4712  1.0078 -1.1775
 6466SOL    HW325631   6.191   3.412   0.096  1.7930 -0.1612 -1.2157
 6466SOL    MW425632   6.222   3.395   0.176  0.5113  0.4575 -0.5572
 6467SOL     OW25633   4.537   6.257   5.843 -0.1106 -0.0730 -0.3111
 6467SOL    HW225634   4.518   6.170   5.877  0.3634 -0.1206 -0.1624
 6467SOL    HW325635   4.487   6.263   5.762  1.2942 -1.1691 -1.2963
 6467SOL    MW425636   4.528   6.247   5.837  0.1373 -0.2239 -0.4214
 6468SOL     OW25637   0.398   0.943   6.245 -0.6371 -0.1325 -0.4353
 6468SOL    HW225638   0.407   0.990   6.328  0.6949 -1.3851  0.1740
 6468SOL    HW325639   0.384   1.012   6.180 -1.2462  0.9058  0.7505
 6468SOL    MW425640   0.398   0.958   6.247 -0.5417 -0.1608 -0.1985
 6469SOL     OW25641   1.308   5.988   4.803 -0.4492 -0.4673 -0.0160
 6469SOL    HW225642   1.401   5.975   4.787  0.0151  1.9176  0.3002
 6469SOL    HW325643   1.303   6.016   4.895 -1.8115 -3.0395  0.7852
 6469SOL    MW425644   1.320   5.990   4.813 -0.5677 -0.4920  0.1314
 6470SOL     OW25645   5.676   5.787   4.046  0.0658  0.6358  0.8201
 6470SOL    HW225646   5.646   5.741   3.968  0.4988  2.3379 -0.4244
 6470SOL    HW325647   5.648   5.733   4.119 -0.6561 -0.8461 -0.5042
 6470SOL    MW425648   5.669   5.774   4.045  0.0276  0.6649  0.4812
 6471SOL     OW25649   2.082   3.333   5.130  0.7500 -0.0148  0.7259
 6471SOL    HW225650   2.126   3.260   5.086 -0.3344  0.7168 -1.7556
 6471SOL    HW325651   2.146   3.404   5.127  0.5420  0.1442 -0.0530
 6471SOL    MW425652   2.097   3.333   5.124  0.5794  0.1027  0.2957
 6472SOL     OW25653   5.611   2.163   2.157  0.7176  0.2591  0.2026
 6472SOL    HW225654   5.659   2.089   2.120  0.7901  0.8094 -0.8664
 6472SOL    HW325655   5.590   2.137   2.246  0.7430 -1.0390 -0.1574
 6472SOL    MW425656   5.615   2.150   2.164  0.7305  0.1604  0.0140
 6473SOL     OW25657   4.447   0.814   1.407  0.0325 -0.3522 -0.4705
 6473SOL    HW225658   4.517   0.802   1.471 -0.1212 -1.0920 -0.4361
 6473SOL    HW325659   4.373   0.846   1.458 -0.1990 -1.2783 -0.2086
 6473SOL    MW425660   4.447   0.817   1.422 -0.0183 -0.5720 -0.4314
 6474SOL     OW25661   2.898   3.136   0.008 -0.3247  0.0264 -0.6405
 6474SOL    HW225662   2.850   3.149  -0.074 -0.8093  0.4922 -0.2888
 6474SOL    HW325663   2.904   3.041   0.018  1.5711 -0.0886 -2.2608
 6474SOL    MW425664   2.893   3.125  -0.001 -0.1385  0.0726 -0.8079
 6475SOL     OW25665   2.504   4.886   2.550 -0.4775  0.0889  0.6384
 6475SOL    HW225666   2.504   4.982   2.542 -1.4674  0.0006 -0.9232
 6475SOL    HW325667   2.422   4.866   2.596  0.0870  0.0127  1.6352
 6475SOL    MW425668   2.493   4.896   2.555 -0.5336  0.0672  0.5639
 6476SOL     OW25669   1.117   4.500   0.650 -0.0795  0.2493  0.7032
 6476SOL    HW225670   1.211   4.493   0.667 -0.4230 -0.3630  2.4804
 6476SOL    HW325671   1.103   4.446   0.572  1.2415  1.5346 -0.4787
 6476SOL    MW425672   1.128   4.492   0.642  0.0495  0.3381  0.7817
 6477SOL     OW25673   2.256   1.412   0.712 -0.1220 -0.6268 -0.0459
 6477SOL    HW225674   2.183   1.412   0.775  2.4045  0.9119  3.2335
 6477SOL    HW325675   2.293   1.324   0.719 -0.5223 -0.8169 -0.2677
 6477SOL    MW425676   2.251   1.400   0.722  0.1586 -0.4489  0.3575
 6478SOL     OW25677   4.609   0.761   2.135  0.4346  0.0464  0.6324
 6478SOL    HW225678   4.608   0.691   2.069  2.6182  1.8794 -1.5604
 6478SOL    HW325679   4.657   0.723   2.209  1.1896 -0.9669 -0.3366
 6478SOL    MW425680   4.615   0.747   2.136  0.8223  0.1545  0.2152
 6479SOL     OW25681   4.299   6.272   1.416 -0.1729 -0.0473  0.1457
 6479SOL    HW225682   4.277   6.324   1.339  1.1163  0.1153 -0.1383
 6479SOL    HW325683   4.225   6.284   1.476 -1.1317 -0.0709 -1.0010
 6479SOL    MW425684   4.287   6.280   1.414 -0.1293 -0.0289 -0.0431
 6480SOL     OW25685   5.414   3.324   6.260 -0.5592 -0.2718  0.0839
 6480SOL    HW225686   5.474   3.268   6.210 -0.5534 -0.5455  0.3926
 6480SOL    HW325687   5.447   3.321   6.350 -1.2668 -0.7536  0.3372
 6480SOL    MW425688   5.426   3.316   6.265 -0.6518 -0.3715  0.1581
 6481SOL     OW25689   3.417   1.040   4.766  0.5708  0.2042 -0.3454
 6481SOL    HW225690   3.434   0.957   4.722  0.0277 -0.1003  0.0134
 6481SOL    HW325691   3.376   1.016   4.849  0.2912  0.8350 -0.2926
 6481SOL    MW425692   3.414   1.026   4.771  0.4622  0.2473 -0.2911
 6482SOL     OW25693   4.050   4.166   0.089  0.5934  0.3009  0.1800
 6482SOL    HW225694   4.072   4.135   0.001 -0.2137 -0.1536  0.1210
 6482SOL    HW325695   4.059   4.088   0.145  1.7831  0.7416  0.6439
 6482SOL    MW425696   4.054   4.151   0.085  0.6439  0.2991  0.2334
 6483SOL     OW25697   1.712   4.864   2.047  0.2316  0.5476  0.3780
 6483SOL    HW225698   1.684   4.774   2.032  0.8219  0.5494 -0.8693
 6483SOL    HW325699   1.646   4.917   2.003 -0.7448  0.8156  2.0631
 6483SOL    MW425700   1.700   4.859   2.039  0.1807  0.5832  0.4358
 6484SOL     OW25701   0.859   4.076   4.861  0.0793  0.2728 -0.1428
 6484SOL    HW225702   0.879   4.139   4.930  0.2376  0.4892 -0.3888
 6484SOL    HW325703   0.932   4.013   4.864  0.9055  1.1469 -1.1429
 6484SOL    MW425704   0.871   4.076   4.871  0.2092  0.4167 -0.3072
 6485SOL     OW25705   1.120   5.250   1.817  0.1539 -0.0913 -0.4725
 6485SOL    HW225706   1.186   5.311   1.851 -0.3199 -0.7794  1.8477
 6485SOL    HW325707   1.164   5.166   1.812 -0.3773 -0.4758  0.7357
 6485SOL    MW425708   1.134   5.247   1.821  0.0213 -0.2328 -0.0070
 6486SOL     OW25709   2.666   1.632   1.316  0.4065  0.2228  0.7710
 6486SOL    HW225710   2.741   1.688   1.299  0.6347  0.0450  1.1930
 6486SOL    HW325711   2.655   1.633   1.411 -0.2778  0.4420  0.6978
 6486SOL    MW425712   2.674   1.639   1.326  0.3463  0.2283  0.8170
 6487SOL     OW25713   4.317   2.019   3.167 -0.1675  0.0951 -0.3677
 6487SOL    HW225714   4.383   2.088   3.155  1.4132 -1.2585  0.0507
 6487SOL    HW325715   4.278   2.039   3.252  0.0461  0.6496 -0.3901
 6487SOL    MW425716   4.321   2.031   3.177  0.0692 -0.0103 -0.3155
 6488SOL     OW25717   6.338   2.686   4.848  0.2419 -0.0143 -0.0282
 6488SOL    HW225718   6.260   2.632   4.839  0.1713 -0.0275  0.5899
 6488SOL    HW325719   6.306   2.770   4.882  0.4434  0.1258 -0.1848
 6488SOL    MW425720   6.324   2.690   4.852  0.2592  0.0025  0.0327
 6489SOL     OW25721   0.462   4.314   2.213 -0.0066 -0.2314  0.0977
 6489SOL    HW225722   0.482   4.366   2.291 -0.2922  0.6536 -0.3930
 6489SOL    HW325723   0.455   4.224   2.245 -1.4735  0.2707  1.3588
 6489SOL    MW425724   0.463   4.309   2.228 -0.2378 -0.0484  0.1994
 6490SOL     OW25725   2.110   3.487   6.349 -0.4498 -0.1070  0.1375
 6490SOL    HW225726   2.156   3.529   6.421 -0.2757  0.0421 -0.0566
 6490SOL    HW325727   2.173   3.424   6.313  0.0108  0.8766 -0.8270
 6490SOL    MW425728   2.124   3.484   6.354 -0.3661  0.0425 -0.0154
 6491SOL     OW25729   5.728   0.077   3.451 -0.2556  0.2494  0.3396
 6491SOL    HW225730   5.767   0.111   3.532 -1.6654  1.1480  0.6855
 6491SOL    HW325731   5.666   0.010   3.481 -2.3152  2.0109  0.2482
 6491SOL    MW425732   5.725   0.073   3.466 -0.7134  0.6004  0.3732
 6492SOL     OW25733   0.455   1.174   2.583 -0.1993  0.0337  0.0995
 6492SOL    HW225734   0.454   1.121   2.663 -0.8617 -0.9595 -0.5415
 6492SOL    HW325735   0.406   1.253   2.606  2.4414  1.3677  1.6656
 6492SOL    MW425736   0.449   1.177   2.597  0.0617  0.0787  0.2216
 6493SOL     OW25737   6.143   2.773   3.728 -0.1472  0.3751 -0.4188
 6493SOL    HW225738   6.144   2.753   3.821 -1.1406  1.6907 -0.0962
 6493SOL    HW325739   6.052   2.758   3.701  0.7568 -3.1986 -1.9795
 6493SOL    MW425740   6.131   2.769   3.737 -0.1590  0.0772 -0.5822
 6494SOL     OW25741   0.045   6.097   3.232  0.3294  0.0784 -0.2936
 6494SOL    HW225742   0.126   6.050   3.252 -0.2558 -1.1986 -0.7637
 6494SOL    HW325743   0.065   6.146   3.152  0.8607  0.3766  0.0192
 6494SOL    MW425744   0.058   6.097   3.224  0.3223 -0.0508 -0.3143
 6495SOL     OW25745   3.774   3.124   2.125  0.0256  0.1426 -0.0923
 6495SOL    HW225746   3.782   3.213   2.092  0.5173  0.1589  0.0740
 6495SOL    HW325747   3.798   3.069   2.051 -1.5884  0.1011 -0.6222
 6495SOL    MW425748   3.778   3.128   2.111 -0.1225  0.1392 -0.1403
 6496SOL     OW25749   5.067   1.847   4.183 -0.0708 -0.5335 -0.2116
 6496SOL    HW225750   5.030   1.935   4.191 -1.2126 -1.0250  0.2178
 6496SOL    HW325751   5.081   1.818   4.273  1.0208 -0.5137 -0.3657
 6496SOL    MW425752   5.064   1.855   4.196 -0.0775 -0.5957 -0.1753
 6497SOL     OW25753   0.528   3.990   1.457  0.2987 -0.5052  0.3378
 6497SOL    HW225754   0.589   3.941   1.512  2.5575  2.8225  1.0688
 6497SOL    HW325755   0.485   4.051   1.517  1.9559  2.4133 -1.2208
 6497SOL    MW425756   0.531   3.992   1.472  0.8154  0.3189  0.2286
 6498SOL     OW25757   5.825   5.047   4.812 -1.0610 -0.1896  0.0754
 6498SOL    HW225758   5.906   5.006   4.779 -0.0600  1.7645 -0.0256
 6498SOL    HW325759   5.790   4.983   4.873  0.0184 -1.5265 -0.6304
 6498SOL    MW425760   5.831   5.033   4.815 -0.7865 -0.1082 -0.0310
 6499SOL     OW25761   0.693   2.366   3.056  0.2035 -0.1630 -0.3506
 6499SOL    HW225762   0.646   2.308   2.996  0.8130  1.5609 -2.6575
 6499SOL    HW325763   0.784   2.336   3.054  0.0182 -0.8298  0.6864
 6499SOL    MW425764   0.699   2.354   3.047  0.2595 -0.0235 -0.5181
 6500SOL     OW25765   2.052   0.591   5.519  0.2658 -0.2907 -0.3583
 6500SOL    HW225766   2.092   0.590   5.606 -1.0567  0.2012  0.2782
 6500SOL    HW325767   1.958   0.596   5.535 -0.0648 -1.0774 -1.8208
 6500SOL    MW425768   2.045   0.592   5.533  0.0477 -0.3296 -0.4673
 6501SOL     OW25769   0.110   4.510   3.778 -0.0451  0.6722  0.0353
 6501SOL    HW225770   0.120   4.416   3.762 -1.5201  0.7867 -2.0955
 6501SOL    HW325771   0.189   4.549   3.741 -0.2456  0.3736 -0.7322
 6501SOL    MW425772   0.122   4.502   3.771 -0.2661  0.6479 -0.3471
 6502SOL     OW25773   4.232   5.849   5.832  0.2914  0.0696 -0.0098
 6502SOL    HW225774   4.256   5.786   5.765  1.0669 -0.8184  1.0479
 6502SOL    HW325775   4.295   5.920   5.822  1.7441 -1.0048  1.0235
 6502SOL    MW425776   4.244   5.850   5.822  0.5854 -0.1893  0.2661
 6503SOL     OW25777   5.831   2.547   6.423 -0.4371 -0.2654  0.4592
 6503SOL    HW225778   5.753   2.495   6.447 -0.8968  0.6277  0.9553
 6503SOL    HW325779   5.831   2.620   6.485  1.0929 -0.5151  0.8014
 6503SOL    MW425780   5.821   2.550   6.435 -0.2959 -0.1805  0.5698
 6504SOL     OW25781   2.033   2.971   1.764  0.1617  0.2900 -0.6041
 6504SOL    HW225782   2.088   2.907   1.808 -1.8896 -2.1373 -1.3215
 6504SOL    HW325783   2.094   3.025   1.714  1.9777 -1.9100 -0.9319
 6504SOL    MW425784   2.048   2.970   1.763  0.1307 -0.3205 -0.7420
 6505SOL     OW25785   6.005   6.245   5.492  0.5918 -0.6375 -0.5592
 6505SOL    HW225786   5.967   6.325   5.455  2.5222  0.3406 -0.5398
 6505SOL    HW325787   6.095   6.269   5.514  0.5643 -2.2169  1.5086
 6505SOL    MW425788   6.012   6.259   5.490  0.8429 -0.7168 -0.2838
 6506SOL     OW25789   4.614   4.995   0.064  0.6799  0.1974  0.3143
 6506SOL    HW225790   4.577   4.914   0.029  2.4956  0.0632 -1.4723
 6506SOL    HW325791   4.698   4.970   0.102  1.1072  1.1733  0.0536
 6506SOL    MW425792   4.620   4.981   0.064  0.9758  0.3085  0.0442
 6507SOL     OW25793   3.271   4.405   2.964  0.2205  0.0115 -0.1937
 6507SOL    HW225794   3.226   4.417   2.881  0.4817 -0.9277 -0.4822
 6507SOL    HW325795   3.324   4.484   2.974  0.4926 -0.0487 -1.1098
 6507SOL    MW425796   3.272   4.417   2.955  0.2909 -0.1204 -0.3527
 6508SOL     OW25797   1.745   3.352   1.871  0.3113  0.3442  0.3783
 6508SOL    HW225798   1.746   3.259   1.850 -1.9952  0.4812 -0.6769
 6508SOL    HW325799   1.668   3.363   1.927  0.9264  1.5317  1.0301
 6508SOL    MW425800   1.735   3.341   1.875  0.0882  0.5189  0.3251
 6509SOL     OW25801   4.233   5.195   6.313  0.1686  0.1538 -0.1883
 6509SOL    HW225802   4.190   5.111   6.297  1.0084 -0.1690 -0.8851
 6509SOL    HW325803   4.183   5.235   6.384 -0.9804 -0.3958 -0.6612
 6509SOL    MW425804   4.221   5.189   6.320  0.1278  0.0387 -0.3427
 6510SOL     OW25805   5.399   6.010   3.952 -0.1703  0.3201  0.4354
 6510SOL    HW225806   5.378   5.917   3.957  0.8536  0.0261 -0.3286
 6510SOL    HW325807   5.479   6.019   4.004  0.4782  0.5147 -0.5707
 6510SOL    MW425808   5.407   5.999   3.959  0.0504  0.3070  0.2019
 6511SOL     OW25809   5.838   0.660   3.586  0.3770  0.5043 -0.3984
 6511SOL    HW225810   5.926   0.688   3.561  0.2073  1.8387  0.3737
 6511SOL    HW325811   5.815   0.717   3.660 -0.7288 -0.5209  0.0812
 6511SOL    MW425812   5.846   0.671   3.593  0.2087  0.5451 -0.2332
 6512SOL     OW25813   0.550   2.357   3.580  0.3419  0.3148  0.1757
 6512SOL    HW225814   0.579   2.386   3.493  0.2503  0.0921  0.0694
 6512SOL    HW325815   0.581   2.425   3.640 -2.4058  2.2306 -0.3865
 6512SOL    MW425816   0.558   2.370   3.576 -0.0327  0.5382  0.0875
 6513SOL     OW25817   0.783   4.332   5.782 -0.0644 -0.6656  0.0051
 6513SOL    HW225818   0.700   4.379   5.774  0.5041  0.1217 -1.9107
 6513SOL    HW325819   0.762   4.241   5.759 -0.2062 -0.2091 -1.8342
 6513SOL    MW425820   0.769   4.326   5.778 -0.0081 -0.5015 -0.4904
 6514SOL     OW25821   0.598   5.176   1.590 -0.2983 -0.0166  0.9204
 6514SOL    HW225822   0.599   5.272   1.597  0.5057 -0.0392  1.1888
 6514SOL    HW325823   0.523   5.157   1.534  0.3491  0.8451 -0.2788
 6514SOL    MW425824   0.588   5.187   1.584 -0.1068  0.0941  0.7976
 6515SOL     OW25825   3.872   4.429   0.754 -0.4769  0.6232  0.2174
 6515SOL    HW225826   3.910   4.506   0.711  0.0409 -0.0977 -0.6560
 6515SOL    HW325827   3.941   4.363   0.750 -0.7495  0.2489  1.3813
 6515SOL    MW425828   3.886   4.431   0.748 -0.4446  0.4787  0.2558
 6516SOL     OW25829   1.959   4.123   2.262  0.1042  0.0771 -0.1969
 6516SOL    HW225830   1.872   4.141   2.298  0.1671 -1.1698  0.6245
 6516SOL    HW325831   1.951   4.144   2.169 -0.7846  0.9328  0.0583
 6516SOL    MW425832   1.947   4.128   2.255 -0.0048  0.0255 -0.0549
 6517SOL     OW25833   3.090   1.826   1.741 -0.5521 -0.0587  0.1706
 6517SOL    HW225834   3.114   1.736   1.716 -0.2117 -0.1034  0.6392
 6517SOL    HW325835   3.084   1.873   1.657  2.6312  0.3062  0.0222
 6517SOL    MW425836   3.093   1.820   1.726 -0.0872 -0.0165  0.2128
 6518SOL     OW25837   3.023   4.602   2.750  0.1296 -0.5610 -0.1338
 6518SOL    HW225838   2.990   4.560   2.829  0.6109  0.8228  0.8309
 6518SOL    HW325839   2.955   4.664   2.725  0.0438 -0.8920 -0.7339
 6518SOL    MW425840   3.010   4.605   2.757  0.1818 -0.4221 -0.0857
 6519SOL     OW25841   0.739   3.515   6.334  0.1426  0.3049  0.1758
 6519SOL    HW225842   0.677   3.518   6.261  0.9793 -0.4158 -0.5945
 6519SOL    HW325843   0.684   3.513   6.412 -0.8970 -1.7980 -0.5206
 6519SOL    MW425844   0.724   3.515   6.334  0.1158 -0.0677 -0.0177
 6520SOL     OW25845   4.032   4.278   3.068  0.2889 -0.6408  0.4563
 6520SOL    HW225846   4.071   4.233   2.993  0.0143 -0.1480  0.0110
 6520SOL    HW325847   3.977   4.212   3.110 -0.2484 -0.6812 -0.2936
 6520SOL    MW425848   4.030   4.264   3.064  0.1818 -0.5811  0.2986
 6521SOL     OW25849   3.489   1.302   3.790  0.1400  0.0592  0.1840
 6521SOL    HW225850   3.528   1.218   3.765  0.2941 -0.0414  0.7696
 6521SOL    HW325851   3.473   1.295   3.884  0.2394  0.7200  0.2549
 6521SOL    MW425852   3.492   1.290   3.799  0.1734  0.1331  0.2706
 6522SOL     OW25853   5.074   0.646   4.844 -0.0556 -0.6333  0.0310
 6522SOL    HW225854   5.061   0.739   4.828  0.3585  0.2482  3.8507
 6522SOL    HW325855   5.166   0.631   4.822  0.5626  0.5231  1.6492
 6522SOL    MW425856   5.085   0.656   4.839  0.0806 -0.3644  0.7484
 6523SOL     OW25857   3.239   0.421   4.161 -0.0162 -0.1092  0.0805
 6523SOL    HW225858   3.319   0.412   4.109  0.5422  1.6224  0.5640
 6523SOL    HW325859   3.257   0.495   4.219 -1.4117 -0.6725  1.2743
 6523SOL    MW425860   3.252   0.430   4.162 -0.1266  0.0449  0.3018
 6524SOL     OW25861   5.283   6.243   5.897 -0.0157  0.2505  0.0267
 6524SOL    HW225862   5.222   6.278   5.832 -0.9425  0.1542  0.8216
 6524SOL    HW325863   5.237   6.253   5.981 -0.2201 -2.6018  0.3435
 6524SOL    MW425864   5.269   6.249   5.900 -0.1649 -0.1386  0.1734
 6525SOL     OW25865   4.202   4.672   3.157 -0.4760 -0.0485  0.3032
 6525SOL    HW225866   4.224   4.755   3.114 -0.8461  0.3751  0.9285
 6525SOL    HW325867   4.107   4.665   3.149 -0.4036 -0.6481 -0.1601
 6525SOL    MW425868   4.193   4.682   3.150 -0.5152 -0.0717  0.3246
 6526SOL     OW25869   6.060   4.706   3.721  0.1498 -0.0796  0.4732
 6526SOL    HW225870   6.000   4.650   3.672  2.2870 -0.2346 -2.1768
 6526SOL    HW325871   6.100   4.648   3.786 -0.2706 -0.7524  0.1369
 6526SOL    MW425872   6.057   4.691   3.724  0.3763 -0.1888  0.0792
 6527SOL     OW25873   4.954   3.511   3.334 -0.4131  0.0169 -0.1401
 6527SOL    HW225874   5.006   3.517   3.414  0.7411 -2.3541 -0.6179
 6527SOL    HW325875   4.876   3.463   3.359 -0.2222 -0.4056 -0.3439
 6527SOL    MW425876   4.951   3.506   3.348 -0.2356 -0.3517 -0.2301
 6528SOL     OW25877   4.438   4.107   2.755  0.3946 -0.6556 -0.4900
 6528SOL    HW225878   4.481   4.190   2.738 -0.8324  0.0626 -0.2433
 6528SOL    HW325879   4.461   4.086   2.846 -0.4826  0.1904 -0.0519
 6528SOL    MW425880   4.446   4.115   2.765  0.1170 -0.4492 -0.3997
 6529SOL     OW25881   6.077   2.241   4.271  0.0215  0.0245  0.0274
 6529SOL    HW225882   6.072   2.155   4.313  0.6020 -0.0620 -0.0700
 6529SOL    HW325883   6.103   2.223   4.181 -3.0732  0.0567 -0.9879
 6529SOL    MW425884   6.080   2.227   4.265 -0.3102  0.0173 -0.1194
 6530SOL     OW25885   3.419   1.361   2.092  0.1204 -0.0952 -0.4853
 6530SOL    HW225886   3.406   1.316   2.176  1.7919 -3.0679 -1.6579
 6530SOL    HW325887   3.343   1.337   2.040  0.7858 -1.3131 -0.9497
 6530SOL    MW425888   3.407   1.352   2.096  0.4287 -0.6481 -0.7013
 6531SOL     OW25889   6.278   1.909   1.804  0.0929  0.2428  0.0219
 6531SOL    HW225890   6.205   1.957   1.842 -0.2754 -0.8860  0.7753
 6531SOL    HW325891   6.333   1.885   1.879  1.3035  1.1433 -0.5342
 6531SOL    MW425892   6.276   1.912   1.819  0.2040  0.2127  0.0479
 6532SOL     OW25893   2.679   4.344   5.565 -0.5761 -0.3727 -0.5407
 6532SOL    HW225894   2.648   4.351   5.656 -4.2243 -1.3097 -1.5307
 6532SOL    HW325895   2.748   4.410   5.559 -0.3516 -0.0857  2.8221
 6532SOL    MW425896   2.684   4.354   5.577 -1.0278 -0.4585 -0.2276
 6533SOL     OW25897   0.410   0.984   0.108  0.6036 -0.0091  0.1411
 6533SOL    HW225898   0.454   1.065   0.135 -0.4446  0.1669  1.4572
 6533SOL    HW325899   0.451   0.916   0.163  0.6336 -0.1688 -0.0792
 6533SOL    MW425900   0.422   0.985   0.119  0.4692 -0.0070  0.2857
 6534SOL     OW25901   1.244   4.570   1.224  1.0583 -0.2677 -0.1614
 6534SOL    HW225902   1.239   4.536   1.314 -0.8496 -0.6796 -0.3736
 6534SOL    HW325903   1.181   4.642   1.223  0.0173 -1.1514 -1.5061
 6534SOL    MW425904   1.235   4.575   1.236  0.6692 -0.4387 -0.3668
 6535SOL     OW25905   0.173   3.982   6.220 -0.6650 -0.6888  0.4831
 6535SOL    HW225906   0.101   4.027   6.264 -0.9856  0.2166 -0.8868
 6535SOL    HW325907   0.252   4.021   6.257 -0.8428 -1.6303  1.9347
 6535SOL    MW425908   0.174   3.993   6.231 -0.7308 -0.6936  0.4939
 6536SOL     OW25909   1.878   5.391   1.442 -0.3257 -0.1656  0.2224
 6536SOL    HW225910   1.949   5.377   1.505  0.5684 -1.5591 -1.0256
 6536SOL    HW325911   1.872   5.486   1.434  0.9853 -0.0012  0.8338
 6536SOL    MW425912   1.887   5.402   1.449 -0.0347 -0.3277  0.1384
 6537SOL     OW25913   3.928   5.124   3.697 -0.1882 -0.1194 -0.5073
 6537SOL    HW225914   3.890   5.174   3.625 -0.0369  0.1555 -0.3930
 6537SOL    HW325915   3.924   5.033   3.667  1.4325  0.1232 -1.5907
 6537SOL    MW425916   3.922   5.118   3.684  0.0456 -0.0511 -0.6351
 6538SOL     OW25917   0.757   3.051   5.452 -0.0964  0.3081  0.0567
 6538SOL    HW225918   0.688   2.985   5.455  0.8600 -0.8920 -1.8786
 6538SOL    HW325919   0.828   3.008   5.403  0.9689  2.4195 -0.3406
 6538SOL    MW425920   0.757   3.036   5.446  0.1703  0.4283 -0.2511
 6539SOL     OW25921   0.227   5.082   3.601 -0.1554 -0.3024 -0.1783
 6539SOL    HW225922   0.158   5.143   3.577 -0.1725 -0.4900 -0.6025
 6539SOL    HW325923   0.299   5.103   3.541  1.3774  2.0546  2.2422
 6539SOL    MW425924   0.228   5.093   3.590  0.0446 -0.0162  0.0851
 6540SOL     OW25925   0.238   1.428   3.337  0.0763  0.1264 -0.3541
 6540SOL    HW225926   0.241   1.433   3.242  0.0370 -2.5327 -0.5808
 6540SOL    HW325927   0.329   1.438   3.364  0.6001 -2.2171 -0.9944
 6540SOL    MW425928   0.250   1.430   3.328  0.1402 -0.5336 -0.4685
 6541SOL     OW25929   2.719   4.790   0.093 -0.5599 -0.9405 -0.0678
 6541SOL    HW225930   2.790   4.813   0.153 -0.3866 -1.9138  0.1175
 6541SOL    HW325931   2.710   4.695   0.103 -0.6683 -1.0849 -1.4391
 6541SOL    MW425932   2.727   4.781   0.102 -0.5513 -1.0880 -0.2243
 6542SOL     OW25933   5.637   3.539   2.696 -0.1897 -0.7723 -0.1576
 6542SOL    HW225934   5.607   3.462   2.647  0.5239 -0.9074 -0.4016
 6542SOL    HW325935   5.733   3.530   2.698  0.2070  1.4485 -2.5367
 6542SOL    MW425936   5.646   3.527   2.689 -0.0432 -0.4971 -0.5037
 6543SOL     OW25937   1.346   4.335   5.744 -0.1112  0.4299  0.3940
 6543SOL    HW225938   1.381   4.260   5.791  0.0708 -0.5458 -1.2096
 6543SOL    HW325939   1.416   4.361   5.684 -0.4125  1.4687  0.4732
 6543SOL    MW425940   1.360   4.329   5.742 -0.1270  0.4382  0.1929
 6544SOL     OW25941   3.608   0.455   5.365  0.5514 -0.5935  0.5676
 6544SOL    HW225942   3.629   0.519   5.433 -0.3382 -0.9747  1.2245
 6544SOL    HW325943   3.603   0.507   5.285  1.6558 -0.1481  0.7740
 6544SOL    MW425944   3.610   0.471   5.363  0.5797 -0.5850  0.6815
 6545SOL     OW25945   1.898   6.037   6.418  0.6505 -0.0814  0.1482
 6545SOL    HW225946   1.888   6.009   6.327 -0.9255  0.9556 -0.0377
 6545SOL    HW325947   1.840   6.113   6.426  1.7756  0.6623  1.6704
 6545SOL    MW425948   1.889   6.044   6.407  0.5911  0.1535  0.3245
 6546SOL     OW25949   0.024   0.585   0.817  0.1861  0.1819  0.2821
 6546SOL    HW225950   0.104   0.636   0.808 -0.0300  0.7332  1.4157
 6546SOL    HW325951   0.051   0.494   0.800  0.9138  0.4442  0.0258
 6546SOL    MW425952   0.038   0.579   0.813  0.2536  0.2892  0.3979
 6547SOL     OW25953   6.115   3.438   2.936 -0.0374 -0.6262  0.0237
 6547SOL    HW225954   6.120   3.528   2.968 -0.6505  0.0578 -1.6496
 6547SOL    HW325955   6.201   3.422   2.898 -0.1055 -0.5378 -0.1701
 6547SOL    MW425956   6.127   3.448   2.935 -0.1272 -0.5243 -0.2226
 6548SOL     OW25957   0.505   3.694   5.419 -0.4830  0.2380  0.2707
 6548SOL    HW225958   0.410   3.690   5.411 -0.5521 -1.1583  1.3665
 6548SOL    HW325959   0.532   3.760   5.355 -2.0981 -0.0235 -0.7417
 6548SOL    MW425960   0.496   3.702   5.409 -0.7052  0.0193  0.2817
 6549SOL     OW25961   0.250   2.178   0.680  0.3240 -0.8897 -0.3749
 6549SOL    HW225962   0.163   2.216   0.696  0.7834  0.3532 -0.7211
 6549SOL    HW325963   0.286   2.229   0.608  0.6540 -2.5637 -1.4588
 6549SOL    MW425964   0.243   2.190   0.673  0.4282 -0.9466 -0.5636
 6550SOL     OW25965   2.345   3.623   2.119  0.1431 -0.4444 -0.0208
 6550SOL    HW225966   2.324   3.690   2.185 -0.2576 -1.0238  0.4549
 6550SOL    HW325967   2.439   3.630   2.107  0.7100 -1.9922  2.5433
 6550SOL    MW425968   2.354   3.633   2.126  0.1650 -0.7251  0.3803
 6551SOL     OW25969   1.716   0.463   5.463  0.9821  0.2005  0.7035
 6551SOL    HW225970   1.723   0.424   5.376  1.4883  0.5445  0.5875
 6551SOL    HW325971   1.690   0.553   5.447 -0.8607 -0.2421  1.0006
 6551SOL    MW425972   1.713   0.469   5.449  0.8057  0.1875  0.7274
 6552SOL     OW25973   1.182   3.394   1.690 -0.5321 -0.1047  0.0079
 6552SOL    HW225974   1.112   3.362   1.633 -0.1411 -0.0502 -0.5080
 6552SOL    HW325975   1.246   3.323   1.692 -0.1176  0.2535 -0.3615
 6552SOL    MW425976   1.181   3.380   1.683 -0.4259 -0.0502 -0.1089
 6553SOL     OW25977   5.334   2.298   6.112 -0.4467  0.0783  0.5476
 6553SOL    HW225978   5.367   2.350   6.038 -1.2020  0.6719  0.6227
 6553SOL    HW325979   5.394   2.319   6.184  0.7572 -1.0837 -0.0658
 6553SOL    MW425980   5.347   2.308   6.112 -0.3875  0.0033  0.4766
 6554SOL     OW25981   3.082   2.117   6.346 -1.1415  0.1537 -0.1935
 6554SOL    HW225982   3.176   2.129   6.363 -1.4309  0.8727  1.0398
 6554SOL    HW325983   3.061   2.034   6.389 -1.4724  1.0286  1.4378
 6554SOL    MW425984   3.092   2.108   6.354 -1.2233  0.3640  0.1845
 6555SOL     OW25985   1.153   0.381   2.474 -0.2313  0.2869  0.3151
 6555SOL    HW225986   1.211   0.430   2.531  2.9038 -2.9710  0.2515
 6555SOL    HW325987   1.126   0.305   2.526  1.1591 -1.7629 -1.7186
 6555SOL    MW425988   1.157   0.377   2.488  0.3658 -0.4134  0.0384
 6556SOL     OW25989   1.771   6.106   1.537  0.6342 -0.2477  0.4537
 6556SOL    HW225990   1.759   6.157   1.456  1.5331  0.8839  0.9933
 6556SOL    HW325991   1.853   6.059   1.523 -0.0939 -1.4243  0.0373
 6556SOL    MW425992   1.781   6.107   1.524  0.6568 -0.2536  0.4700
 6557SOL     OW25993   3.474   1.264   5.264  0.1460  0.4754 -0.2955
 6557SOL    HW225994   3.545   1.326   5.253  0.3361  0.6451  1.5702
 6557SOL    HW325995   3.416   1.304   5.329  0.4324 -1.3784  1.2003
 6557SOL    MW425996   3.476   1.277   5.271  0.2089  0.2532  0.1480
 6558SOL     OW25997   4.270   3.907   5.491 -0.5964  0.4198  0.3325
 6558SOL    HW225998   4.234   3.993   5.514 -3.5408  0.0316 -2.2206
 6558SOL    HW325999   4.234   3.848   5.556 -2.6028  0.4818 -0.6234
 6558SOL    MW426000   4.261   3.911   5.502 -1.2496  0.3768 -0.1304
 6559SOL     OW26001   2.844   4.135   0.118  0.1742 -0.0497 -0.2246
 6559SOL    HW226002   2.755   4.169   0.110  0.3266  0.5236  0.3448
 6559SOL    HW326003   2.899   4.214   0.117  0.6335 -0.3679 -0.1218
 6559SOL    MW426004   2.840   4.150   0.117  0.2549 -0.0160 -0.1359
 6560SOL     OW26005   3.652   2.820   3.919  0.3349  0.3376 -0.7143
 6560SOL    HW226006   3.602   2.739   3.932 -2.8146  2.0387 -1.1937
 6560SOL    HW326007   3.625   2.851   3.832  2.2199  1.4621 -0.9540
 6560SOL    MW426008   3.642   2.814   3.909  0.1681  0.7104 -0.8092
 6561SOL     OW26009   5.871   2.525   0.377 -0.1362  0.0416 -0.2078
 6561SOL    HW226010   5.908   2.448   0.334 -0.2750 -0.5189  0.6390
 6561SOL    HW326011   5.776   2.510   0.375 -0.1733  0.2640 -0.1712
 6561SOL    MW426012   5.863   2.513   0.371 -0.1594 -0.0030 -0.0913
 6562SOL     OW26013   4.396   1.986   4.790  0.1906  0.3717 -0.0277
 6562SOL    HW226014   4.306   1.999   4.760  0.6882  1.7678 -1.0212
 6562SOL    HW326015   4.427   2.074   4.809  1.7102  0.0259 -0.7826
 6562SOL    MW426016   4.388   1.999   4.789  0.4568  0.5103 -0.2584
 6563SOL     OW26017   2.596   4.588   6.204  0.3285 -0.3143 -0.2255
 6563SOL    HW226018   2.649   4.572   6.282  1.3647  0.9916 -0.6342
 6563SOL    HW326019   2.517   4.632   6.237 -0.0443 -1.3199  0.2642
 6563SOL    MW426020   2.592   4.592   6.219  0.4161 -0.2747 -0.2148
 6564SOL     OW26021   4.944   3.977   0.258  0.3264  0.8696  0.1463
 6564SOL    HW226022   4.873   3.920   0.227 -0.4703  1.0899  1.4970
 6564SOL    HW326023   5.017   3.918   0.275 -0.6913  0.1015  2.1410
 6564SOL    MW426024   4.944   3.962   0.256  0.0870  0.7974  0.5877
 6565SOL     OW26025   5.206   6.078   2.588  0.4360  0.2368 -0.2721
 6565SOL    HW226026   5.217   6.101   2.496  1.2130 -0.7339 -0.4463
 6565SOL    HW326027   5.264   6.002   2.601  0.1053  0.1615  0.9354
 6565SOL    MW426028   5.215   6.071   2.578  0.4949  0.0988 -0.1358
 6566SOL     OW26029   0.670   0.463   3.340 -0.5238 -0.3193 -0.1779
 6566SOL    HW226030   0.601   0.530   3.348  0.3665  0.4861  1.0691
 6566SOL    HW326031   0.638   0.404   3.272 -3.1040 -0.7327  1.2613
 6566SOL    MW426032   0.656   0.464   3.332 -0.7468 -0.2676  0.1765
 6567SOL     OW26033   2.240   2.580   4.483  0.1392  0.7910  0.4910
 6567SOL    HW226034   2.263   2.512   4.547 -1.8573  0.0664  0.5087
 6567SOL    HW326035   2.222   2.532   4.403 -3.0113  0.9893  0.9474
 6567SOL    MW426036   2.240   2.565   4.481 -0.5399  0.7216  0.5535
 6568SOL     OW26037   4.532   0.697   2.848  0.6438  0.1996 -0.1220
 6568SOL    HW226038   4.532   0.603   2.867  0.7390  0.2388  0.0745
 6568SOL    HW326039   4.538   0.702   2.753 -1.1629 -0.0252 -0.2840
 6568SOL    MW426040   4.533   0.685   2.838  0.4180  0.1751 -0.1175
 6569SOL     OW26041   0.123   3.004   1.228  0.0080 -0.2251 -0.5237
 6569SOL    HW226042   0.147   3.013   1.320  0.4998  0.4989 -0.7165
 6569SOL    HW326043   0.171   2.926   1.199  1.0310  0.3906 -0.5367
 6569SOL    MW426044   0.132   2.995   1.236  0.2079 -0.0483 -0.5508
 6570SOL     OW26045   2.212   5.682   0.600  0.4001 -0.1855  0.3190
 6570SOL    HW226046   2.160   5.672   0.521 -3.5953  1.7601  2.4373
 6570SOL    HW326047   2.214   5.776   0.616  1.5299 -0.4891  2.2868
 6570SOL    MW426048   2.206   5.693   0.592  0.0220  0.0311  0.8581
 6571SOL     OW26049   2.729   4.426   1.970 -0.1344 -0.6313 -0.2679
 6571SOL    HW226050   2.658   4.386   2.019  0.5322  0.9853  2.2124
 6571SOL    HW326051   2.808   4.403   2.018  0.7243 -0.1324 -1.3902
 6571SOL    MW426052   2.730   4.418   1.983  0.0668 -0.3522 -0.0887
 6572SOL     OW26053   3.843   4.816   1.326 -0.3897  0.1887 -0.9427
 6572SOL    HW226054   3.793   4.750   1.278  0.3766 -0.6346 -0.6478
 6572SOL    HW326055   3.934   4.798   1.303 -0.0996  0.5064 -0.0808
 6572SOL    MW426056   3.849   4.805   1.317 -0.2503  0.1220 -0.7901
 6573SOL     OW26057   2.980   4.873   2.960  0.1928 -0.2562 -0.0745
 6573SOL    HW226058   3.013   4.944   3.014  0.3918 -1.1133  0.9629
 6573SOL    HW326059   2.993   4.903   2.870 -1.5715  1.8712  0.2855
 6573SOL    MW426060   2.986   4.886   2.955 -0.0137 -0.0886  0.1099
 6574SOL     OW26061   0.794   3.393   0.337 -0.3327  0.4625  0.2669
 6574SOL    HW226062   0.795   3.304   0.302 -0.2730  0.0609  1.2722
 6574SOL    HW326063   0.731   3.440   0.281 -0.4696 -0.2410 -0.1813
 6574SOL    MW426064   0.786   3.388   0.325 -0.3429  0.3167  0.3404
 6575SOL     OW26065   4.352   5.125   3.198 -0.2643 -0.3575 -0.7469
 6575SOL    HW226066   4.257   5.131   3.193 -0.3552 -2.0979 -2.4303
 6575SOL    HW326067   4.371   5.117   3.292 -1.8376 -0.7273 -0.4376
 6575SOL    MW426068   4.342   5.124   3.210 -0.4839 -0.6359 -0.9282
 6576SOL     OW26069   5.536   4.936   6.417  0.7435 -0.1242  0.0713
 6576SOL    HW226070   5.565   5.021   6.384  0.0534  0.4307  0.8622
 6576SOL    HW326071   5.466   4.956   6.479 -1.2851 -1.3882 -1.6416
 6576SOL    MW426072   5.530   4.949   6.421  0.3848 -0.2177 -0.0503
 6577SOL     OW26073   3.692   2.195   0.926  0.4137 -0.3241 -0.3350
 6577SOL    HW226074   3.638   2.212   0.848 -0.2906  1.1520  0.4461
 6577SOL    HW326075   3.641   2.130   0.976  0.3343 -0.4373 -0.5589
 6577SOL    MW426076   3.678   2.188   0.922  0.3103 -0.1443 -0.2615
 6578SOL     OW26077   3.792   2.304   0.127 -0.2460  0.3117 -0.2628
 6578SOL    HW226078   3.788   2.364   0.053  0.9820  0.6486 -0.0706
 6578SOL    HW326079   3.866   2.335   0.179  1.0358 -1.9179 -0.6403
 6578SOL    MW426080   3.801   2.316   0.124  0.0851  0.0620 -0.2873
 6579SOL     OW26081   2.928   3.140   5.078 -0.0489 -0.3097 -0.3544
 6579SOL    HW226082   2.921   3.044   5.080  0.5450 -0.3786  2.2085
 6579SOL    HW326083   3.020   3.157   5.060 -0.1290 -0.1995 -0.6760
 6579SOL    MW426084   2.939   3.129   5.076  0.0189 -0.3043 -0.0587
 6580SOL     OW26085   1.991   5.191   1.980  0.1646  0.7215 -0.3208
 6580SOL    HW226086   1.928   5.245   1.932 -0.6705 -0.9311 -1.1531
 6580SOL    HW326087   1.967   5.101   1.958 -0.1816 -0.1603  3.1047
 6580SOL    MW426088   1.979   5.186   1.971  0.0087  0.3871  0.0214
 6581SOL     OW26089   2.454   3.566   5.784 -0.2646 -0.0989 -0.2933
 6581SOL    HW226090   2.448   3.606   5.870  0.2327 -1.6066  0.4697
 6581SOL    HW326091   2.439   3.473   5.799  1.2985 -0.6155 -1.6216
 6581SOL    MW426092   2.451   3.559   5.797  0.0073 -0.3660 -0.3679
 6582SOL     OW26093   4.083   5.607   6.300  0.1855 -0.0207  0.6395
 6582SOL    HW226094   4.051   5.681   6.352 -0.6453  1.3148 -1.6348
 6582SOL    HW326095   4.127   5.648   6.225 -2.2909 -1.6858 -1.9390
 6582SOL    MW426096   4.085   5.622   6.297 -0.2509 -0.0642 -0.0008
 6583SOL     OW26097   3.757   1.123   1.913  0.2724 -0.4676 -0.5457
 6583SOL    HW226098   3.809   1.198   1.884 -0.5659 -0.4573 -2.1049
 6583SOL    HW326099   3.772   1.119   2.008  0.8228  1.2870 -0.5265
 6583SOL    MW426100   3.765   1.133   1.922  0.2344 -0.2347 -0.7489
 6584SOL     OW26101   4.441   3.775   1.606 -0.6191 -0.2774  0.4119
 6584SOL    HW226102   4.464   3.854   1.654 -0.1719 -1.3766  2.0667
 6584SOL    HW326103   4.488   3.705   1.650 -0.2466 -1.3785 -1.5940
 6584SOL    MW426104   4.450   3.776   1.618 -0.5109 -0.5677  0.3656
 6585SOL     OW26105   5.454   1.492   1.104 -0.2793 -0.1361 -0.3982
 6585SOL    HW226106   5.549   1.498   1.095 -0.1731  0.0681  0.6326
 6585SOL    HW326107   5.424   1.584   1.102 -0.7474 -0.2638 -3.0653
 6585SOL    MW426108   5.463   1.505   1.103 -0.3270 -0.1260 -0.6141
 6586SOL     OW26109   3.528   2.195   0.691  0.5630 -0.6956  0.1155
 6586SOL    HW226110   3.576   2.269   0.654 -1.6222  0.7577 -0.0602
 6586SOL    HW326111   3.490   2.151   0.615 -0.8217  0.0233  0.3502
 6586SOL    MW426112   3.529   2.199   0.676  0.0920 -0.4090  0.1233
 6587SOL     OW26113   5.961   1.262   2.434 -0.0665 -0.4513  0.3341
 6587SOL    HW226114   6.008   1.333   2.389  0.5667 -1.0446  0.0525
 6587SOL    HW326115   5.906   1.307   2.499  0.7623  0.2611  0.5561
 6587SOL    MW426116   5.960   1.278   2.437  0.1264 -0.4356  0.3262
 6588SOL     OW26117   1.754   6.024   1.138  0.4430  0.0086 -0.3635
 6588SOL    HW226118   1.792   6.097   1.186  0.8872 -0.0366 -0.6420
 6588SOL    HW326119   1.671   6.006   1.183  1.1622 -0.4819  0.7923
 6588SOL    MW426120   1.748   6.032   1.150  0.5965 -0.0621 -0.2477
 6589SOL     OW26121   2.316   5.047   5.399  0.4358  0.0030 -0.0209
 6589SOL    HW226122   2.298   5.098   5.478  2.8293  0.9797 -0.0064
 6589SOL    HW326123   2.405   5.013   5.412  1.1109  0.6113 -2.4478
 6589SOL    MW426124   2.326   5.050   5.411  0.8406  0.2122 -0.3392
 6590SOL     OW26125   2.356   0.854   1.655 -0.4666  0.3041 -0.2568
 6590SOL    HW226126   2.300   0.793   1.703  1.1751 -0.4678  0.7449
 6590SOL    HW326127   2.307   0.937   1.656 -1.2887 -0.1622  1.1941
 6590SOL    MW426128   2.342   0.857   1.662 -0.3585  0.1408  0.0668
 6591SOL     OW26129   1.074   3.856   4.427  0.1844 -0.2558 -0.0697
 6591SOL    HW226130   1.103   3.787   4.366  0.6049 -0.4072  0.2963
 6591SOL    HW326131   0.981   3.841   4.438  0.0065  0.0504 -1.0371
 6591SOL    MW426132   1.066   3.845   4.420  0.2164 -0.2354 -0.1491
 6592SOL     OW26133   0.614   2.018   3.221 -0.5282  0.1204  0.4163
 6592SOL    HW226134   0.553   2.092   3.232 -0.1074  0.7475 -1.2308
 6592SOL    HW326135   0.679   2.050   3.159 -0.0806 -1.5030  0.0160
 6592SOL    MW426136   0.614   2.032   3.214 -0.4136 -0.0111  0.1462
 6593SOL     OW26137   0.622   0.203   6.212 -0.3447  0.2685 -0.3783
 6593SOL    HW226138   0.698   0.190   6.269 -0.9075 -2.5038 -0.1149
 6593SOL    HW326139   0.641   0.284   6.165  2.3607  0.1369  0.3162
 6593SOL    MW426140   0.634   0.212   6.213 -0.0620 -0.1146 -0.2519
 6594SOL     OW26141   6.074   3.187   5.562 -0.6815 -0.3708 -0.8676
 6594SOL    HW226142   6.143   3.174   5.497  0.5533 -0.1209  0.3340
 6594SOL    HW326143   6.046   3.278   5.550  1.0783  0.3910  0.2964
 6594SOL    MW426144   6.080   3.198   5.552 -0.2864 -0.2374 -0.5555
 6595SOL     OW26145   6.416   2.551   0.463 -0.5345  0.5267  0.1509
 6595SOL    HW226146   6.351   2.621   0.467 -1.4764 -0.3305  0.3578
 6595SOL    HW326147   6.493   2.592   0.424 -1.1751  1.5900 -0.0416
 6595SOL    MW426148   6.418   2.565   0.458 -0.7433  0.5539  0.1528
 6596SOL     OW26149   5.742   3.701   6.291  0.4374  0.5498 -0.5638
 6596SOL    HW226150   5.700   3.782   6.261  0.7981  0.5988 -0.9584
 6596SOL    HW326151   5.673   3.635   6.286 -0.2749  1.1122  1.1632
 6596SOL    MW426152   5.727   3.703   6.286  0.3910  0.6305 -0.3880
 6597SOL     OW26153   5.491   3.168   1.882  0.0323 -0.1625  0.1670
 6597SOL    HW226154   5.481   3.260   1.906  1.1353 -0.3850  1.6519
 6597SOL    HW326155   5.534   3.170   1.796  2.2744  0.7744  1.2299
 6597SOL    MW426156   5.495   3.180   1.874  0.4736 -0.0683  0.5031
 6598SOL     OW26157   1.443   1.058   0.802  0.0441 -0.2964  0.3328
 6598SOL    HW226158   1.374   1.070   0.737 -0.7705 -2.3926  0.7436
 6598SOL    HW326159   1.514   1.115   0.772 -0.6889 -0.4485 -1.8354
 6598SOL    MW426160   1.443   1.067   0.789 -0.1601 -0.5930  0.1009
 6599SOL     OW26161   3.507   1.996   1.030 -0.0807 -0.0034 -0.4865
 6599SOL    HW226162   3.438   1.930   1.032  1.2131 -1.4374 -0.6263
 6599SOL    HW326163   3.538   2.001   1.121 -0.0572  0.2977 -0.5091
 6599SOL    MW426164   3.502   1.988   1.043  0.0931 -0.1529 -0.5079
 6600SOL     OW26165   5.204   0.189   4.805  0.2945  0.0242  0.0164
 6600SOL    HW226166   5.208   0.221   4.715  1.0256 -0.0677  0.0139
 6600SOL    HW326167   5.289   0.147   4.820  1.2205  2.2509  1.5796
 6600SOL    MW426168   5.216   0.187   4.795  0.5132  0.3059  0.2223
 6601SOL     OW26169   4.092   0.883   0.635 -0.3275  0.3910 -0.7892
 6601SOL    HW226170   4.157   0.833   0.585 -1.2249 -1.0144 -0.6184
 6601SOL    HW326171   4.119   0.874   0.726 -0.9617 -0.5574 -0.6776
 6601SOL    MW426172   4.104   0.875   0.641 -0.5296  0.0804 -0.7519
 6602SOL     OW26173   1.048   1.951   1.431 -0.7080  0.0830  0.1948
 6602SOL    HW226174   1.076   1.860   1.420  0.6731  0.5146 -0.0502
 6602SOL    HW326175   0.996   1.970   1.353 -2.3307 -0.9394  0.9756
 6602SOL    MW426176   1.045   1.942   1.419 -0.7399  0.0050  0.2655
 6603SOL     OW26177   2.851   5.382   3.274 -0.1718  0.3861  0.1089
 6603SOL    HW226178   2.893   5.364   3.189  1.0392  0.3598  0.6890
 6603SOL    HW326179   2.914   5.348   3.338 -1.1795  0.2002  1.0136
 6603SOL    MW426180   2.865   5.375   3.271 -0.1450  0.3581  0.3048
 6604SOL     OW26181   4.986   2.803   2.424 -0.2533  0.1391 -0.5521
 6604SOL    HW226182   4.968   2.719   2.466 -0.2889 -0.0652 -0.9748
 6604SOL    HW326183   4.943   2.798   2.339  0.2049  0.3749 -0.8031
 6604SOL    MW426184   4.978   2.792   2.418 -0.1976  0.1433 -0.6410
 6605SOL     OW26185   3.258   1.572   4.002 -0.3322 -0.2993  0.8174
 6605SOL    HW226186   3.284   1.658   4.034  0.8649 -0.3778  0.1072
 6605SOL    HW326187   3.237   1.585   3.909 -0.0408 -0.7895  0.6772
 6605SOL    MW426188   3.258   1.585   3.994 -0.1358 -0.3743  0.7052
 6606SOL     OW26189   6.098   1.932   3.990  0.2964  0.4219 -0.6878
 6606SOL    HW226190   6.190   1.919   4.012  0.9470  2.3124 -2.0110
 6606SOL    HW326191   6.093   1.913   3.896 -1.5237 -3.3449 -0.0306
 6606SOL    MW426192   6.109   1.928   3.980  0.1421  0.1744 -0.7757
 6607SOL     OW26193   1.448   2.482   4.135 -0.6912  0.3415 -0.1902
 6607SOL    HW226194   1.392   2.559   4.128  0.5149  1.2190 -0.4771
 6607SOL    HW326195   1.522   2.511   4.188 -0.4838 -0.7942  0.1784
 6607SOL    MW426196   1.450   2.496   4.141 -0.5047  0.3074 -0.1794
 6608SOL     OW26197   0.309   4.319   0.068  0.2827 -0.2265  0.6092
 6608SOL    HW226198   0.244   4.346   0.004  1.8008 -0.9819 -1.3634
 6608SOL    HW326199   0.381   4.381   0.056  1.0163 -1.0140  0.8407
 6608SOL    MW426200   0.310   4.331   0.058  0.5798 -0.4301  0.3795
 6609SOL     OW26201   4.730   2.263   0.892  0.1869 -0.2255 -0.4325
 6609SOL    HW226202   4.755   2.172   0.875 -0.5727 -0.1230 -2.4653
 6609SOL    HW326203   4.808   2.314   0.869  0.3548 -0.3024 -0.0472
 6609SOL    MW426204   4.744   2.257   0.886  0.1088 -0.2221 -0.6499
 6610SOL     OW26205   3.965   3.634   6.090 -0.4171  0.1064  0.0308
 6610SOL    HW226206   3.899   3.580   6.133 -0.7064 -0.7731 -1.4773
 6610SOL    HW326207   4.049   3.597   6.120 -0.6102 -1.1393 -0.8811
 6610SOL    MW426208   3.968   3.622   6.100 -0.4808 -0.1740 -0.2884
 6611SOL     OW26209   4.452   1.714   1.900  0.1998  0.0805  0.0627
 6611SOL    HW226210   4.540   1.692   1.931 -0.1355  0.9908  1.8468
 6611SOL    HW326211   4.411   1.755   1.976 -0.7326  2.4791 -1.6207
 6611SOL    MW426212   4.458   1.717   1.914  0.0326  0.5171  0.0760
 6612SOL     OW26213   2.327   3.250   1.852 -0.2154  0.2956  0.0650
 6612SOL    HW226214   2.279   3.249   1.770  0.2994  2.4097 -0.3272
 6612SOL    HW326215   2.417   3.226   1.828 -0.4838 -1.0999  0.3754
 6612SOL    MW426216   2.333   3.247   1.838 -0.1829  0.3904  0.0542
 6613SOL     OW26217   3.303   0.492   0.892 -0.4698  0.2914 -0.2700
 6613SOL    HW226218   3.391   0.454   0.889 -0.6202 -0.0257 -0.8512
 6613SOL    HW326219   3.249   0.430   0.842 -0.8790  0.8573 -0.5370
 6613SOL    MW426220   3.308   0.479   0.885 -0.5436  0.3242 -0.3819
 6614SOL     OW26221   3.731   0.811   1.140 -0.1994  0.7856  0.0408
 6614SOL    HW226222   3.742   0.717   1.122 -0.9150  0.1495  2.5754
 6614SOL    HW326223   3.691   0.845   1.060 -0.1256 -1.1039 -0.8693
 6614SOL    MW426224   3.727   0.803   1.127 -0.2841  0.4524  0.2552
 6615SOL     OW26225   4.084   4.272   4.127  0.0282  0.1068  0.1209
 6615SOL    HW226226   4.068   4.203   4.063  1.2268 -0.2722  0.2126
 6615SOL    HW326227   3.997   4.309   4.144 -0.2411  0.8141 -2.3586
 6615SOL    MW426228   4.070   4.268   4.121  0.1508  0.1501 -0.1941
 6616SOL     OW26229   4.925   3.979   3.200  0.0794  0.0472 -0.4627
 6616SOL    HW226230   4.999   3.953   3.146  1.0826 -0.2380  0.9774
 6616SOL    HW326231   4.866   4.025   3.141  0.8644 -0.7149 -1.8874
 6616SOL    MW426232   4.927   3.981   3.185  0.3153 -0.0910 -0.4606
 6617SOL     OW26233   3.906   2.722   1.226  0.0887  0.5431 -0.4994
 6617SOL    HW226234   3.981   2.776   1.249  1.5129 -1.1104 -1.0536
 6617SOL    HW326235   3.881   2.679   1.308  0.3532  0.3717 -0.5093
 6617SOL    MW426236   3.912   2.724   1.240  0.3115  0.3024 -0.5739
 6618SOL     OW26237   1.581   4.160   6.136 -0.1753 -0.2818  0.1029
 6618SOL    HW226238   1.659   4.210   6.160 -1.1085  1.1541  0.2744
 6618SOL    HW326239   1.610   4.069   6.134  0.8728 -0.1309  3.0474
 6618SOL    MW426240   1.595   4.154   6.139 -0.1601 -0.0724  0.5140
 6619SOL     OW26241   4.297   5.589   3.771 -0.1626  0.0673 -0.2719
 6619SOL    HW226242   4.229   5.526   3.749  1.2852 -1.0478 -1.8994
 6619SOL    HW326243   4.271   5.670   3.727 -1.0449  0.0457  0.1909
 6619SOL    MW426244   4.285   5.591   3.763 -0.0880 -0.0826 -0.4256
 6620SOL     OW26245   0.449   6.122   4.208 -0.1731 -0.3711  0.6893
 6620SOL    HW226246   0.434   6.139   4.115  1.3554  0.6128  0.5795
 6620SOL    HW326247   0.423   6.031   4.221  1.7345 -1.2727 -1.2475
 6620SOL    MW426248   0.444   6.113   4.198  0.2803 -0.3602  0.4193
 6621SOL     OW26249   5.572   0.542   5.540  0.2160  0.5368 -0.0636
 6621SOL    HW226250   5.657   0.572   5.573  0.1191  1.0521 -0.2795
 6621SOL    HW326251   5.508   0.589   5.594  0.0644 -0.4229  0.6128
 6621SOL    MW426252   5.575   0.552   5.551  0.1832  0.4781 -0.0029
 6622SOL     OW26253   4.172   0.945   0.902 -0.4779 -0.5100 -0.0567
 6622SOL    HW226254   4.184   1.032   0.865  1.3960 -0.8092 -0.2679
 6622SOL    HW326255   4.094   0.952   0.957  0.1216  1.5245  0.6116
 6622SOL    MW426256   4.163   0.957   0.905 -0.1516 -0.2811  0.0036
 6623SOL     OW26257   4.188   1.081   3.192  0.2233 -0.3217  0.6849
 6623SOL    HW226258   4.121   1.129   3.144  0.2776 -0.7003  0.2309
 6623SOL    HW326259   4.139   1.015   3.242  0.2386 -0.4507  0.5290
 6623SOL    MW426260   4.173   1.079   3.192  0.2325 -0.3887  0.6045
 6624SOL     OW26261   5.802   3.387   4.412 -0.0306 -0.2252  0.3218
 6624SOL    HW226262   5.749   3.308   4.417 -0.5310 -0.1088 -2.0612
 6624SOL    HW326263   5.857   3.385   4.490  2.3858 -4.6331 -1.1823
 6624SOL    MW426264   5.802   3.376   4.423  0.2222 -0.7914 -0.1910
 6625SOL     OW26265   1.383   3.017   0.544  0.0336 -0.0011 -0.2571
 6625SOL    HW226266   1.311   2.972   0.500 -0.4690  1.9976 -1.5946
 6625SOL    HW326267   1.442   3.044   0.474  0.7169  0.7209  0.5630
 6625SOL    MW426268   1.381   3.015   0.529  0.0574  0.3578 -0.3254
 6626SOL     OW26269   1.943   5.548   4.631  0.2954 -0.8528 -0.4199
 6626SOL    HW226270   1.952   5.597   4.713 -1.8208  1.2921 -1.3425
 6626SOL    HW326271   2.003   5.591   4.571  1.3439 -1.9904 -0.2243
 6626SOL    MW426272   1.952   5.560   4.634  0.1545 -0.7199 -0.5158
 6627SOL     OW26273   2.128   4.805   3.262  0.0720  0.2263  0.1456
 6627SOL    HW226274   2.203   4.780   3.315 -0.4821  1.1266  1.4053
 6627SOL    HW326275   2.147   4.771   3.175  2.0784  0.7026  0.3630
 6627SOL    MW426276   2.140   4.797   3.257  0.2636  0.4080  0.3405
 6628SOL     OW26277   1.513   5.248   3.213 -0.7513  0.3148 -0.4446
 6628SOL    HW226278   1.558   5.294   3.143  0.4526 -1.2640 -0.7707
 6628SOL    HW326279   1.563   5.270   3.292  0.9546 -1.7515 -0.8642
 6628SOL    MW426280   1.525   5.257   3.214 -0.3674 -0.1661 -0.5430
 6629SOL     OW26281   5.979   3.743   3.184 -0.5160  0.0252 -0.6040
 6629SOL    HW226282   5.979   3.750   3.279  0.0518  0.2444 -0.6133
 6629SOL    HW326283   6.064   3.702   3.163 -0.0610  1.1658 -1.0824
 6629SOL    MW426284   5.990   3.739   3.194 -0.3811  0.2046 -0.6683
 6630SOL     OW26285   6.286   6.002   2.428  0.1100 -0.0183  0.4558
 6630SOL    HW226286   6.284   5.959   2.514 -0.7286 -1.3737 -0.2221
 6630SOL    HW326287   6.375   6.039   2.422  0.9882 -1.9464  0.9293
 6630SOL    MW426288   6.298   6.001   2.439  0.1152 -0.4515  0.4288
 6631SOL     OW26289   3.983   1.839   4.183 -0.1617  0.3902  0.2191
 6631SOL    HW226290   3.897   1.824   4.143 -0.1938 -0.1566  0.4731
 6631SOL    HW326291   4.045   1.807   4.117 -0.1296  1.2264 -0.1604
 6631SOL    MW426292   3.980   1.833   4.169 -0.1617  0.4284  0.2026
 6632SOL     OW26293   4.874   4.294   3.442  0.3184  0.4110 -0.1906
 6632SOL    HW226294   4.946   4.249   3.399  0.3404 -0.4734  0.7367
 6632SOL    HW326295   4.801   4.232   3.438 -0.2311  1.0805 -0.6395
 6632SOL    MW426296   4.874   4.280   3.436  0.2488  0.3826 -0.1275
 6633SOL     OW26297   0.519   0.555   5.900  0.3731 -0.0830 -0.0650
 6633SOL    HW226298   0.582   0.599   5.843 -0.0329 -0.0322 -0.4804
 6633SOL    HW326299   0.527   0.462   5.877  0.2892 -0.0752 -0.1264
 6633SOL    MW426300   0.528   0.548   5.890  0.3085 -0.0753 -0.1280
 6634SOL     OW26301   2.848   5.964   0.983  0.2323  0.0901  0.2000
 6634SOL    HW226302   2.762   6.001   0.966  0.0725 -0.4505 -0.1921
 6634SOL    HW326303   2.832   5.870   0.993  0.5772  0.1575  1.5594
 6634SOL    MW426304   2.835   5.957   0.982  0.2567  0.0277  0.3276
 6635SOL     OW26305   3.486   5.479   2.620 -0.7250 -0.2163  0.5094
 6635SOL    HW226306   3.487   5.492   2.526 -0.2446 -0.0017  0.5418
 6635SOL    HW326307   3.486   5.567   2.657 -0.1165 -0.3028  0.7161
 6635SOL    MW426308   3.486   5.492   2.613 -0.5813 -0.1994  0.5410
 6636SOL     OW26309   0.596   5.603   6.129  0.3007 -0.0393  0.2869
 6636SOL    HW226310   0.553   5.594   6.044  1.1908  0.6498 -0.2604
 6636SOL    HW326311   0.689   5.597   6.109  0.5512  0.7786  1.1260
 6636SOL    MW426312   0.603   5.601   6.115  0.4512  0.1595  0.3254
 6637SOL     OW26313   1.800   1.974   0.129  0.3995 -0.2198 -0.3725
 6637SOL    HW226314   1.843   2.057   0.148 -1.6710  0.7965  0.1829
 6637SOL    HW326315   1.741   1.960   0.203 -1.3014 -0.7666 -1.7541
 6637SOL    MW426316   1.798   1.983   0.141 -0.0981 -0.1579 -0.4815
 6638SOL     OW26317   2.261   0.586   1.511  0.2536 -0.0473  0.4147
 6638SOL    HW226318   2.340   0.566   1.562  1.1177 -0.8748 -1.1851
 6638SOL    HW326319   2.274   0.675   1.480  1.2172 -0.6434 -0.9590
 6638SOL    MW426320   2.273   0.595   1.514  0.4947 -0.2351  0.0224
 6639SOL     OW26321   1.902   2.125   0.478 -0.0371 -0.1716  0.6528
 6639SOL    HW226322   1.818   2.156   0.510  0.0857  1.5575 -0.5348
 6639SOL    HW326323   1.904   2.151   0.385  2.4182  1.3624  1.0229
 6639SOL    MW426324   1.891   2.133   0.470  0.3031  0.2589  0.5450
 6640SOL     OW26325   0.575   5.346   6.284  0.0643  0.6018 -0.8779
 6640SOL    HW226326   0.520   5.391   6.349 -0.8613  0.7162 -1.7299
 6640SOL    HW326327   0.592   5.412   6.217  2.7666  1.1454  0.1916
 6640SOL    MW426328   0.570   5.361   6.284  0.2987  0.6886 -0.8492
 6641SOL     OW26329   5.661   3.131   5.701  0.1581  0.1937  0.0874
 6641SOL    HW226330   5.714   3.210   5.693  0.8966 -0.2674  0.3514
 6641SOL    HW326331   5.589   3.144   5.639  1.1541  0.3652 -1.0759
 6641SOL    MW426332   5.659   3.143   5.692  0.3869  0.1555 -0.0313
 6642SOL     OW26333   1.647   3.232   2.423 -0.1526 -0.3153  0.2089
 6642SOL    HW226334   1.731   3.278   2.416  0.4496 -1.0001  2.1997
 6642SOL    HW326335   1.655   3.159   2.362  0.2841  0.1983 -0.3694
 6642SOL    MW426336   1.659   3.229   2.414 -0.0155 -0.3379  0.3952
 6643SOL     OW26337   1.591   5.752   2.827  0.1669  0.3669  0.2484
 6643SOL    HW226338   1.536   5.681   2.796  0.5394 -0.4235  1.3409
 6643SOL    HW326339   1.567   5.827   2.772 -1.1380 -0.2633 -0.0760
 6643SOL    MW426340   1.581   5.753   2.815  0.0439  0.1795  0.3497
 6644SOL     OW26341   3.749   3.407   4.484  0.0337 -0.0846  0.3577
 6644SOL    HW226342   3.703   3.361   4.414 -1.0610 -0.7266  1.4577
 6644SOL    HW326343   3.794   3.479   4.439  2.1589 -2.4040 -1.4884
 6644SOL    MW426344   3.749   3.411   4.469  0.1697 -0.4753  0.2592
 6645SOL     OW26345   3.021   4.817   1.576  0.3252 -0.0406  0.3332
 6645SOL    HW226346   3.046   4.734   1.616  1.7960 -1.1437 -2.5846
 6645SOL    HW326347   2.930   4.805   1.551  0.6185 -0.9245 -0.3534
 6645SOL    MW426348   3.012   4.805   1.578  0.5580 -0.3028 -0.1424
 6646SOL     OW26349   3.354   3.216   3.744 -0.0519  0.6383 -0.1956
 6646SOL    HW226350   3.447   3.196   3.732 -0.2663 -0.4729 -0.1641
 6646SOL    HW326351   3.330   3.170   3.825 -0.9325 -0.2187 -0.9136
 6646SOL    MW426352   3.363   3.207   3.753 -0.1964  0.3786 -0.2862
 6647SOL     OW26353   2.528   3.842   1.857  0.2255 -0.2459 -0.4104
 6647SOL    HW226354   2.602   3.902   1.842 -0.0197  0.0713 -0.3620
 6647SOL    HW326355   2.566   3.770   1.908  0.4162  0.1101 -0.0392
 6647SOL    MW426356   2.543   3.841   1.862  0.2183 -0.1571 -0.3550
 6648SOL     OW26357   3.792   1.016   3.533 -0.6262 -0.4138  0.2343
 6648SOL    HW226358   3.839   0.932   3.534 -2.2034 -1.3379  0.3692
 6648SOL    HW326359   3.727   1.006   3.463 -4.0894 -1.2428  3.2891
 6648SOL    MW426360   3.789   1.004   3.524 -1.2912 -0.6451  0.6552
 6649SOL     OW26361   1.915   4.222   2.566  0.3255  0.0750  0.1037
 6649SOL    HW226362   1.965   4.140   2.563 -1.3853 -1.0060 -1.0504
 6649SOL    HW326363   1.972   4.284   2.611  2.1194 -1.4487  0.0432
 6649SOL    MW426364   1.929   4.219   2.572  0.3365 -0.2687 -0.0565
 6650SOL     OW26365   1.619   4.984   3.106  0.2042  0.3516  0.7285
 6650SOL    HW226366   1.635   4.953   3.195 -0.6536  1.2478  1.2127
 6650SOL    HW326367   1.603   5.077   3.115  1.4671  0.7310 -0.5566
 6650SOL    MW426368   1.619   4.992   3.118  0.2576  0.5199  0.6228
 6651SOL     OW26369   6.260   1.278   1.351 -0.6437  0.2376  0.3014
 6651SOL    HW226370   6.352   1.251   1.346  0.0721  2.2006  1.4931
 6651SOL    HW326371   6.263   1.373   1.345 -2.2606  0.6197  3.4990
 6651SOL    MW426372   6.273   1.287   1.350 -0.7626  0.5470  0.8805
 6652SOL     OW26373   1.042   1.005   1.498 -0.3389 -0.5843 -0.9933
 6652SOL    HW226374   0.987   1.058   1.441 -1.5830 -1.7151 -0.8772
 6652SOL    HW326375   1.129   1.043   1.489 -1.0190  0.8747 -1.6283
 6652SOL    MW426376   1.047   1.017   1.489 -0.5928 -0.5410 -1.0618
 6653SOL     OW26377   0.344   0.902   1.928 -0.1839  0.4503  0.4379
 6653SOL    HW226378   0.373   0.856   1.849  1.6776  1.8658  0.2221
 6653SOL    HW326379   0.280   0.966   1.897  2.1469  2.5578 -0.4291
 6653SOL    MW426380   0.340   0.905   1.914  0.3693  0.9151  0.2950
 6654SOL     OW26381   0.446   5.063   4.903  0.3110  0.4541 -0.0040
 6654SOL    HW226382   0.535   5.035   4.881 -0.8571 -2.1734 -2.0038
 6654SOL    HW326383   0.426   5.132   4.840  0.0499 -0.8886 -1.4630
 6654SOL    MW426384   0.456   5.068   4.892  0.1224 -0.0697 -0.4603
 6655SOL     OW26385   2.601   6.437   2.852  0.7902  0.3531  0.1412
 6655SOL    HW226386   2.680   6.384   2.865 -1.0272 -2.4094  0.8513
 6655SOL    HW326387   2.551   6.426   2.933 -1.3868  0.0109 -1.1618
 6655SOL    MW426388   2.605   6.428   2.864  0.2632 -0.0566  0.0630
 6656SOL     OW26389   3.433   4.770   2.374 -0.0365  0.4391  0.0062
 6656SOL    HW226390   3.498   4.763   2.444 -1.5881 -3.9262  1.3169
 6656SOL    HW326391   3.352   4.795   2.419 -0.3983  0.5988 -0.7211
 6656SOL    MW426392   3.431   4.772   2.389 -0.2889 -0.1158  0.0832
 6657SOL     OW26393   2.535   6.056   3.098  0.0282  0.1900  0.1338
 6657SOL    HW226394   2.558   5.986   3.037  1.9306  1.0591 -0.2180
 6657SOL    HW326395   2.469   6.107   3.052  0.8367  0.3520 -0.8851
 6657SOL    MW426396   2.529   6.053   3.084  0.3859  0.3261 -0.0471
 6658SOL     OW26397   3.005   5.541   4.235 -0.2023 -0.0523  0.4538
 6658SOL    HW226398   2.943   5.543   4.309 -1.0083  1.6641 -0.1897
 6658SOL    HW326399   3.042   5.453   4.236 -2.9890 -1.3311  0.6336
 6658SOL    MW426400   3.001   5.530   4.245 -0.6763  0.0054  0.3926
 6659SOL     OW26401   1.628   1.047   1.959 -0.8713  0.2830  0.0729
 6659SOL    HW226402   1.648   1.079   2.047 -0.1670  0.5844 -0.1941
 6659SOL    HW326403   1.533   1.035   1.959 -0.8279 -0.1282  1.0083
 6659SOL    MW426404   1.618   1.050   1.970 -0.7726  0.2685  0.1611
 6660SOL     OW26405   2.174   4.627   5.671  0.2671  0.0052  0.0786
 6660SOL    HW226406   2.113   4.591   5.608 -0.3183  1.6666 -0.3663
 6660SOL    HW326407   2.212   4.551   5.716 -0.8248 -1.1058 -0.8453
 6660SOL    MW426408   2.171   4.612   5.669  0.0458  0.0778 -0.1020
 6661SOL     OW26409   0.407   2.985   2.530  0.2960  0.4358  0.3666
 6661SOL    HW226410   0.346   2.922   2.567  0.4160  0.2300  0.2181
 6661SOL    HW326411   0.493   2.956   2.560  0.1512  2.1914  2.7358
 6661SOL    MW426412   0.410   2.973   2.539  0.2927  0.6403  0.6596
 6662SOL     OW26413   3.563   1.417   1.098 -0.2294  0.1215  0.4204
 6662SOL    HW226414   3.563   1.457   1.011 -1.1650 -0.7527 -0.0028
 6662SOL    HW326415   3.654   1.416   1.125  0.3224 -1.3943 -1.3839
 6662SOL    MW426416   3.575   1.422   1.090 -0.2800 -0.1939  0.1265
 6663SOL     OW26417   6.237   1.544   1.295  0.0936 -0.6606  0.2767
 6663SOL    HW226418   6.184   1.522   1.219 -0.2910 -0.2005  0.4032
 6663SOL    HW326419   6.177   1.592   1.353  0.8698  0.6836  0.0134
 6663SOL    MW426420   6.222   1.548   1.293  0.1453 -0.4225  0.2587
 6664SOL     OW26421   3.212   2.057   0.738  0.2378  0.1471  0.0492
 6664SOL    HW226422   3.295   2.010   0.735  0.6020  0.5064  2.5291
 6664SOL    HW326423   3.151   1.997   0.780 -0.6153  0.1326 -1.1541
 6664SOL    MW426424   3.215   2.043   0.743  0.1733  0.1926  0.2176
 6665SOL     OW26425   5.675   6.007   0.086 -0.0620 -0.0207 -0.3085
 6665SOL    HW226426   5.757   5.958   0.092 -0.6723 -0.8865  1.9742
 6665SOL    HW326427   5.673   6.059   0.166 -2.0717 -0.5761  0.0336
 6665SOL    MW426428   5.686   6.007   0.097 -0.4077 -0.2082  0.0378
 6666SOL     OW26429   4.460   4.169   6.380  0.2490 -0.1043  0.4648
 6666SOL    HW226430   4.528   4.230   6.351  0.1517  0.6638  1.7951
 6666SOL    HW326431   4.444   4.113   6.304  1.9110  0.1100 -0.0788
 6666SOL    MW426432   4.467   4.170   6.366  0.4554  0.0253  0.5686
 6667SOL     OW26433   3.955   2.703   4.541  0.2538  0.3249 -0.5648
 6667SOL    HW226434   3.973   2.774   4.479 -0.1872  0.0275 -1.0497
 6667SOL    HW326435   3.922   2.748   4.619  1.7363  0.7700 -0.1697
 6667SOL    MW426436   3.953   2.719   4.543  0.3912  0.3444 -0.5766
 6668SOL     OW26437   0.723   0.581   2.625 -0.1733  0.0639  0.6872
 6668SOL    HW226438   0.674   0.585   2.707 -2.7014 -2.7414 -0.4902
 6668SOL    HW326439   0.658   0.601   2.557  1.2117 -0.2175 -0.7987
 6668SOL    MW426440   0.708   0.584   2.627 -0.3241 -0.3434  0.3358
 6669SOL     OW26441   2.905   6.366   3.016  0.1812  0.0534  0.3445
 6669SOL    HW226442   2.827   6.356   3.072 -0.7019  2.4844 -0.2904
 6669SOL    HW326443   2.976   6.329   3.068 -1.3491 -2.2166  0.9788
 6669SOL    MW426444   2.904   6.360   3.030 -0.1372  0.0747  0.3444
 6670SOL     OW26445   6.392   5.982   0.443 -0.1369 -0.3451  0.0604
 6670SOL    HW226446   6.385   6.071   0.409 -0.5806  0.1936  1.4648
 6670SOL    HW326447   6.466   5.986   0.504  0.8664 -1.3650 -1.0256
 6670SOL    MW426448   6.401   5.994   0.447 -0.0630 -0.4086  0.1024
 6671SOL     OW26449   0.844   1.085   0.654  0.4631  0.2399 -0.5297
 6671SOL    HW226450   0.788   1.101   0.730 -0.8400  0.5742 -1.5306
 6671SOL    HW326451   0.865   0.992   0.660 -1.6393 -0.3310 -1.0391
 6671SOL    MW426452   0.839   1.075   0.665  0.0138  0.2087 -0.7289
 6672SOL     OW26453   2.752   5.508   4.025  0.0992  0.2284  0.3449
 6672SOL    HW226454   2.759   5.450   4.101 -0.1646 -0.2128  0.0287
 6672SOL    HW326455   2.683   5.570   4.050 -0.8078 -0.6228  0.0058
 6672SOL    MW426456   2.744   5.509   4.039 -0.0553  0.0579  0.2584
 6673SOL     OW26457   4.836   0.063   4.532  0.4847 -0.5446 -0.4932
 6673SOL    HW226458   4.750   0.042   4.569  0.3407 -1.8991 -1.5591
 6673SOL    HW326459   4.893   0.073   4.609 -0.5078 -0.0535  0.2044
 6673SOL    MW426460   4.832   0.062   4.547  0.3347 -0.6585 -0.5418
 6674SOL     OW26461   2.501   5.714   5.059 -0.5898 -0.0447 -0.1007
 6674SOL    HW226462   2.523   5.657   4.985 -0.7986  1.3176 -1.2599
 6674SOL    HW326463   2.411   5.742   5.042 -0.6866  0.1764  0.7515
 6674SOL    MW426464   2.492   5.710   5.047 -0.6301  0.1642 -0.1412
 6675SOL     OW26465   2.278   3.951   5.722  0.6834  0.0409  0.1500
 6675SOL    HW226466   2.212   3.981   5.659  0.4245 -0.4488  0.1809
 6675SOL    HW326467   2.287   4.024   5.783 -0.1694 -0.0581  0.4053
 6675SOL    MW426468   2.270   3.965   5.722  0.5367 -0.0368  0.1877
 6676SOL     OW26469   2.417   2.262   5.514 -0.1536  0.2995  0.8546
 6676SOL    HW226470   2.459   2.347   5.522  0.0145  0.3323 -0.2106
 6676SOL    HW326471   2.489   2.200   5.501 -0.3853  0.4099 -1.3921
 6676SOL    MW426472   2.432   2.265   5.513 -0.1620  0.3184  0.4177
 6677SOL     OW26473   3.526   0.391   2.841  0.4930 -0.6523 -0.1039
 6677SOL    HW226474   3.527   0.312   2.787  0.8759 -0.6549 -0.0997
 6677SOL    HW326475   3.617   0.422   2.839  0.2501  0.0669 -0.5131
 6677SOL    MW426476   3.538   0.385   2.834  0.5114 -0.5578 -0.1573
 6678SOL     OW26477   0.684   1.826   0.832 -0.0733 -0.1592  0.0868
 6678SOL    HW226478   0.744   1.894   0.804  0.4960 -0.2061  1.1506
 6678SOL    HW326479   0.718   1.745   0.793  1.4396 -0.4354  1.8374
 6678SOL    MW426480   0.696   1.824   0.823  0.2014 -0.2018  0.4581
 6679SOL     OW26481   6.372   1.517   2.102 -0.1284 -0.3071 -0.7209
 6679SOL    HW226482   6.464   1.540   2.099 -0.0086 -0.8100 -1.0229
 6679SOL    HW326483   6.371   1.421   2.098 -0.5961 -0.4061  0.8790
 6679SOL    MW426484   6.384   1.508   2.101 -0.1743 -0.3865 -0.5497
 6680SOL     OW26485   4.243   3.739   0.834 -0.0706 -0.3104  0.1530
 6680SOL    HW226486   4.245   3.833   0.816  1.0121 -0.5395 -1.1115
 6680SOL    HW326487   4.265   3.731   0.926  0.8660  0.6238  0.0203
 6680SOL    MW426488   4.246   3.751   0.844  0.1958 -0.2174 -0.0313
 6681SOL     OW26489   2.615   2.080   5.531 -0.0084 -0.0790  0.1134
 6681SOL    HW226490   2.696   2.129   5.544 -0.6262  0.9106  0.3361
 6681SOL    HW326491   2.582   2.065   5.620 -1.3910  1.8236 -0.0159
 6681SOL    MW426492   2.622   2.084   5.545 -0.2723  0.3026  0.1257
 6682SOL     OW26493   1.911   2.462   0.296 -0.0240  0.0805 -0.5792
 6682SOL    HW226494   1.886   2.517   0.221  2.0148  0.7943 -0.7961
 6682SOL    HW326495   1.861   2.497   0.369 -1.9733 -0.5549 -1.5411
 6682SOL    MW426496   1.901   2.474   0.296 -0.0122  0.0908 -0.7348
 6683SOL     OW26497   3.631   4.344   3.324  0.0742 -0.0634  0.2013
 6683SOL    HW226498   3.570   4.280   3.287  0.6212 -0.1337 -0.5808
 6683SOL    HW326499   3.680   4.295   3.390  1.6768 -0.9245 -1.5676
 6683SOL    MW426500   3.629   4.329   3.328  0.3578 -0.1863 -0.1353
 6684SOL     OW26501   3.851   2.887   5.384 -0.1908  0.2442  0.2183
 6684SOL    HW226502   3.776   2.829   5.375  0.2817 -0.1348 -1.8316
 6684SOL    HW326503   3.813   2.974   5.399 -1.0088 -0.0398 -0.1896
 6684SOL    MW426504   3.836   2.891   5.385 -0.2364  0.1568 -0.1060
 6685SOL     OW26505   4.573   2.365   0.679  0.3994 -0.4569  0.0208
 6685SOL    HW226506   4.595   2.282   0.636 -0.3161 -1.3757  1.3296
 6685SOL    HW326507   4.625   2.364   0.759 -0.7210 -0.3526  0.7647
 6685SOL    MW426508   4.583   2.354   0.684  0.1572 -0.5643  0.2916
 6686SOL     OW26509   4.674   0.575   1.156 -0.0701  0.0790  0.6448
 6686SOL    HW226510   4.593   0.610   1.118  1.7062  0.9566 -2.6900
 6686SOL    HW326511   4.725   0.653   1.179 -1.2408 -0.3569  5.8697
 6686SOL    MW426512   4.670   0.590   1.154  0.0098  0.1373  0.8942
 6687SOL     OW26513   4.606   2.548   5.693 -0.3080  0.3933 -0.0708
 6687SOL    HW226514   4.526   2.588   5.727  0.1846  2.6296 -1.3847
 6687SOL    HW326515   4.665   2.546   5.768 -0.5616  1.6183  0.1827
 6687SOL    MW426516   4.603   2.553   5.707 -0.2765  0.8500 -0.2107
 6688SOL     OW26517   6.368   1.400   3.054 -0.2201  0.1641  0.0919
 6688SOL    HW226518   6.287   1.400   3.004 -0.8344  0.4655  1.0584
 6688SOL    HW326519   6.371   1.486   3.096  0.8475  0.3450 -0.3197
 6688SOL    MW426520   6.358   1.412   3.053 -0.1603  0.2277  0.1651
 6689SOL     OW26521   6.366   4.383   2.230  0.2626  0.4941  0.1946
 6689SOL    HW226522   6.378   4.291   2.250  2.0372  1.0562  2.0184
 6689SOL    HW326523   6.387   4.391   2.137  0.6393 -0.8341  0.1543
 6689SOL    MW426524   6.370   4.372   2.221  0.5464  0.3930  0.4299
 6690SOL     OW26525   2.487   5.746   3.120 -0.0483 -0.2179  0.1113
 6690SOL    HW226526   2.579   5.721   3.115 -0.3504 -1.1080 -2.5014
 6690SOL    HW326527   2.466   5.776   3.031 -1.8366  1.7136  1.0980
 6690SOL    MW426528   2.497   5.747   3.107 -0.3241 -0.0805 -0.1032
 6691SOL     OW26529   4.772   4.226   6.065  0.0658 -0.0636  0.3900
 6691SOL    HW226530   4.692   4.254   6.021 -0.2080 -0.6860  0.4747
 6691SOL    HW326531   4.743   4.157   6.125  0.7920 -1.0036 -0.2949
 6691SOL    MW426532   4.758   4.220   6.067  0.1255 -0.2697  0.3108
 6692SOL     OW26533   0.912   6.195   4.627 -0.4245  0.3301 -0.0497
 6692SOL    HW226534   0.992   6.246   4.616 -0.5160  0.0413 -2.5152
 6692SOL    HW326535   0.895   6.198   4.721  2.1928  0.8176  0.4914
 6692SOL    MW426536   0.920   6.202   4.638 -0.0913  0.3563 -0.3036
 6693SOL     OW26537   4.490   3.998   0.713 -0.0146 -0.8314 -0.1587
 6693SOL    HW226538   4.520   3.918   0.671 -0.7652 -0.6238 -1.1175
 6693SOL    HW326539   4.570   4.050   0.726  0.2484 -0.9697 -1.1842
 6693SOL    MW426540   4.505   3.994   0.709 -0.0789 -0.8223 -0.4205
 6694SOL     OW26541   3.105   3.353   0.748 -0.1577  0.1676  0.0530
 6694SOL    HW226542   3.114   3.359   0.653 -0.2950  1.5193  0.1076
 6694SOL    HW326543   3.184   3.394   0.783 -0.5338  0.5274  0.5085
 6694SOL    MW426544   3.116   3.359   0.740 -0.2254  0.3934  0.1203
 6695SOL     OW26545   1.244   4.489   1.482 -0.5715  0.0236 -0.3136
 6695SOL    HW226546   1.278   4.404   1.512  0.2075  0.4341  0.0002
 6695SOL    HW326547   1.300   4.553   1.526 -1.4431  0.7108 -0.1991
 6695SOL    MW426548   1.256   4.486   1.492 -0.5837  0.1684 -0.2571
 6696SOL     OW26549   1.157   0.556   4.430  0.1160 -0.0224 -0.0075
 6696SOL    HW226550   1.245   0.590   4.446  0.4420 -0.1946 -1.3072
 6696SOL    HW326551   1.107   0.632   4.399  0.3267 -0.3124 -1.0792
 6696SOL    MW426552   1.162   0.571   4.428  0.1868 -0.0834 -0.3204
 6697SOL     OW26553   4.012   0.366   3.684  0.0882 -0.0892 -0.1497
 6697SOL    HW226554   3.965   0.322   3.613  0.2843 -1.2991  0.4486
 6697SOL    HW326555   4.001   0.459   3.666 -1.6964 -0.3532 -0.5825
 6697SOL    MW426556   4.004   0.372   3.672 -0.1214 -0.2837 -0.1278
 6698SOL     OW26557   4.521   4.796   6.092 -0.1236 -0.5384 -0.1297
 6698SOL    HW226558   4.525   4.890   6.072 -0.7058  0.0188  2.1303
 6698SOL    HW326559   4.445   4.787   6.150 -0.3601 -2.5066 -0.6789
 6698SOL    MW426560   4.512   4.807   6.097 -0.2316 -0.7246  0.0960
 6699SOL     OW26561   3.148   1.096   6.314 -0.1898 -0.1342  0.3005
 6699SOL    HW226562   3.145   1.144   6.396  1.0490  1.4549 -0.5186
 6699SOL    HW326563   3.187   1.012   6.337 -1.7202 -0.5247  1.6455
 6699SOL    MW426564   3.153   1.091   6.328 -0.2283  0.0240  0.3699
 6700SOL     OW26565   3.870   2.632   2.596 -0.3290  0.1363  0.0748
 6700SOL    HW226566   3.790   2.583   2.575 -0.6331  0.9409 -0.6701
 6700SOL    HW326567   3.941   2.577   2.561 -0.6576  0.1657 -0.6518
 6700SOL    MW426568   3.869   2.618   2.589 -0.4125  0.2463 -0.1194
 6701SOL     OW26569   4.291   3.725   3.281 -0.1757  0.1575  0.0104
 6701SOL    HW226570   4.260   3.799   3.334 -3.6099  0.7698 -2.5168
 6701SOL    HW326571   4.288   3.757   3.191  0.2913 -2.4190 -0.9962
 6701SOL    MW426572   4.287   3.739   3.276 -0.5672 -0.1017 -0.4558
 6702SOL     OW26573   3.702   3.948   3.576  0.4088  0.3317 -0.7787
 6702SOL    HW226574   3.695   3.911   3.488 -0.9972  0.2925 -0.6702
 6702SOL    HW326575   3.733   3.876   3.630 -0.3760 -0.1397 -0.9397
 6702SOL    MW426576   3.705   3.933   3.571  0.1197  0.2643 -0.7857
 6703SOL     OW26577   2.846   4.608   4.807  0.0238  0.0174 -0.4304
 6703SOL    HW226578   2.767   4.565   4.775 -0.9922  0.7966  0.9280
 6703SOL    HW326579   2.905   4.535   4.829 -0.6809 -0.6054 -0.5491
 6703SOL    MW426580   2.843   4.592   4.806 -0.2032  0.0381 -0.2668
 6704SOL     OW26581   6.340   0.952   1.649 -0.2443 -0.5294 -0.2215
 6704SOL    HW226582   6.347   0.883   1.582 -0.5854 -0.7963  0.0130
 6704SOL    HW326583   6.342   0.904   1.732  0.2955 -0.1903 -0.0340
 6704SOL    MW426584   6.342   0.936   1.651 -0.2181 -0.5199 -0.1658
 6705SOL     OW26585   4.821   1.353   6.101 -0.0606  0.3041 -0.1109
 6705SOL    HW226586   4.819   1.415   6.029 -0.8206  1.1536  0.6165
 6705SOL    HW326587   4.775   1.397   6.172 -1.2488 -1.3492  0.2152
 6705SOL    MW426588   4.815   1.367   6.101 -0.3176  0.1981  0.0281
 6706SOL     OW26589   5.318   0.970   0.088 -0.0273  0.4739  0.0024
 6706SOL    HW226590   5.226   0.961   0.062  0.1731 -1.9455 -0.0403
 6706SOL    HW326591   5.361   1.004   0.010 -0.3867 -1.4750 -1.1161
 6706SOL    MW426592   5.312   0.973   0.074 -0.0483 -0.1025 -0.1508
 6707SOL     OW26593   2.794   5.994   4.066 -0.2007 -0.1459 -0.0923
 6707SOL    HW226594   2.796   6.046   3.985  1.7298  0.4036  0.2452
 6707SOL    HW326595   2.849   5.918   4.046  0.3881  0.0590  0.7356
 6707SOL    MW426596   2.802   5.991   4.052  0.1317 -0.0464  0.0614
 6708SOL     OW26597   3.227   0.882   5.552  0.1864 -0.2254 -0.3382
 6708SOL    HW226598   3.230   0.962   5.604 -0.4332 -1.1954  1.2568
 6708SOL    HW326599   3.319   0.864   5.531  0.6630 -0.6312  1.8092
 6708SOL    MW426600   3.240   0.890   5.556  0.1676 -0.4069  0.1555
 6709SOL     OW26601   3.504   6.104   3.760 -0.3283 -0.3834 -0.1493
 6709SOL    HW226602   3.551   6.024   3.735 -0.9849 -0.7507 -0.2289
 6709SOL    HW326603   3.543   6.130   3.843  1.6915  0.6847 -1.3476
 6709SOL    MW426604   3.515   6.097   3.768 -0.1484 -0.2909 -0.3179
 6710SOL     OW26605   2.162   4.090   0.181  0.8873  0.0294 -0.0228
 6710SOL    HW226606   2.248   4.055   0.203  1.2079  0.7976 -0.0259
 6710SOL    HW326607   2.125   4.027   0.119  1.4639 -0.2762 -0.0606
 6710SOL    MW426608   2.168   4.077   0.176  1.0057  0.0904 -0.0282
 6711SOL     OW26609   4.625   3.804   0.912 -0.6504  0.1917  0.2940
 6711SOL    HW226610   4.558   3.807   0.844  0.9844  3.3622 -1.3989
 6711SOL    HW326611   4.636   3.895   0.939  0.3480 -0.7022  3.2644
 6711SOL    MW426612   4.618   3.816   0.907 -0.3030  0.4921  0.4626
 6712SOL     OW26613   1.007   2.936   1.057  0.1898 -0.1007  0.2574
 6712SOL    HW226614   0.979   2.973   0.974  0.3117  1.1861  0.7696
 6712SOL    HW326615   0.926   2.914   1.103  0.1227 -0.8198 -0.1852
 6712SOL    MW426616   0.993   2.938   1.052  0.1970 -0.0258  0.2666
 6713SOL     OW26617   6.030   3.985   2.444 -0.4722 -0.0338  0.1171
 6713SOL    HW226618   6.059   3.906   2.399  1.3631  0.2352  0.7608
 6713SOL    HW326619   5.947   4.008   2.401  0.3161 -0.7693 -1.8973
 6713SOL    MW426620   6.023   3.978   2.432 -0.1260 -0.0954 -0.0638
 6714SOL     OW26621   5.744   4.688   0.540 -0.3865 -0.1408  0.0827
 6714SOL    HW226622   5.765   4.670   0.632 -0.8801 -0.4428  0.1357
 6714SOL    HW326623   5.658   4.729   0.543 -1.5202 -2.3790 -0.4291
 6714SOL    MW426624   5.736   4.691   0.552 -0.6012 -0.4759  0.0222
 6715SOL     OW26625   4.645   4.129   4.750 -0.0087  0.8690 -0.3017
 6715SOL    HW226626   4.712   4.062   4.734  0.1349  0.9277  0.0361
 6715SOL    HW326627   4.625   4.164   4.663 -0.4270  0.0658 -0.5379
 6715SOL    MW426628   4.652   4.125   4.736 -0.0450  0.7707 -0.2883
 6716SOL     OW26629   6.318   4.747   2.346  0.0534  0.0194 -0.0285
 6716SOL    HW226630   6.349   4.734   2.436 -0.2789  0.0539  0.0897
 6716SOL    HW326631   6.272   4.665   2.325  2.0806 -0.9538 -0.9784
 6716SOL    MW426632   6.316   4.734   2.356  0.2770 -0.1045 -0.1382
 6717SOL     OW26633   0.298   0.283   2.796  0.0705  0.0586 -0.1051
 6717SOL    HW226634   0.278   0.260   2.705  0.1939 -1.0701  0.1477
 6717SOL    HW326635   0.212   0.292   2.838 -0.0409  1.9115 -0.6211
 6717SOL    MW426636   0.284   0.281   2.790  0.0721  0.1541 -0.1398
 6718SOL     OW26637   4.121   3.048   6.265  0.4248  0.8569 -0.2484
 6718SOL    HW226638   4.178   3.120   6.292  0.0724  0.7185  0.9016
 6718SOL    HW326639   4.097   3.004   6.347  1.7757 -1.4491 -0.9772
 6718SOL    MW426640   4.126   3.051   6.279  0.5566  0.5344 -0.1928
 6719SOL     OW26641   3.712   5.956   0.372 -0.2715  0.3756  0.6842
 6719SOL    HW226642   3.759   5.873   0.380 -0.0568  0.4815  0.5131
 6719SOL    HW326643   3.646   5.953   0.442  0.6495  0.6697  1.5943
 6719SOL    MW426644   3.709   5.945   0.383 -0.1217  0.4284  0.7817
 6720SOL     OW26645   2.075   6.029   0.447  0.4885  0.5393 -0.2083
 6720SOL    HW226646   2.075   6.047   0.354  1.3040 -0.0867 -0.3413
 6720SOL    HW326647   1.983   6.035   0.473  0.3026  1.0842 -0.9686
 6720SOL    MW426648   2.063   6.032   0.438  0.5716  0.5286 -0.3262
 6721SOL     OW26649   1.926   0.397   4.508  0.1033 -0.2402 -0.3718
 6721SOL    HW226650   1.915   0.458   4.434 -0.9152  0.5273  0.3755
 6721SOL    HW326651   1.873   0.436   4.578  0.9779 -1.0082  0.7343
 6721SOL    MW426652   1.917   0.410   4.507  0.0843 -0.2403 -0.1273
 6722SOL     OW26653   1.977   0.215   5.428 -0.4965 -0.3111 -0.2522
 6722SOL    HW226654   1.961   0.198   5.521 -0.6090  1.7458  0.1463
 6722SOL    HW326655   2.046   0.282   5.428 -1.0057  0.2376 -1.6217
 6722SOL    MW426656   1.984   0.222   5.440 -0.5785  0.0326 -0.3804
 6723SOL     OW26657   1.547   2.089   3.075 -0.1201  0.0233  0.2867
 6723SOL    HW226658   1.523   2.182   3.067 -0.7265 -0.1875 -0.4473
 6723SOL    HW326659   1.642   2.088   3.073 -0.1123  0.6290  0.2344
 6723SOL    MW426660   1.556   2.101   3.074 -0.1991  0.0754  0.1830
 6724SOL     OW26661   0.772   4.145   6.014  0.0454  0.3961  0.1130
 6724SOL    HW226662   0.694   4.173   6.062  0.5224 -0.1485  1.2497
 6724SOL    HW326663   0.811   4.226   5.982 -0.2087  0.8000  0.7950
 6724SOL    MW426664   0.767   4.159   6.016  0.0748  0.3776  0.3530
 6725SOL     OW26665   6.240   5.839   3.833 -0.2232 -0.2669  0.0579
 6725SOL    HW226666   6.316   5.808   3.782 -0.9243 -2.5164  0.2470
 6725SOL    HW326667   6.187   5.887   3.771 -0.3883 -1.8056 -1.0576
 6725SOL    MW426668   6.243   5.841   3.818 -0.3375 -0.7667 -0.0644
 6726SOL     OW26669   1.200   2.227   4.090 -0.6264 -0.1093  0.1103
 6726SOL    HW226670   1.124   2.283   4.079  0.2536  1.6819  2.3378
 6726SOL    HW326671   1.241   2.225   4.003 -2.0427  0.6469 -0.6050
 6726SOL    MW426672   1.196   2.234   4.077 -0.6972  0.2268  0.3098
 6727SOL     OW26673   2.317   1.128   0.727 -0.0027  0.8080 -0.0778
 6727SOL    HW226674   2.290   1.115   0.818  0.8859 -1.5716 -0.0835
 6727SOL    HW326675   2.252   1.080   0.676  1.2214 -0.5948 -0.4177
 6727SOL    MW426676   2.305   1.120   0.732  0.2760  0.3090 -0.1234
 6728SOL     OW26677   2.826   2.587   1.165  0.4161  0.0285  0.2044
 6728SOL    HW226678   2.903   2.532   1.152  0.6250 -0.1546  2.0155
 6728SOL    HW326679   2.860   2.676   1.175  0.3225  0.0520  0.3167
 6728SOL    MW426680   2.840   2.592   1.165  0.4314  0.0074  0.4582
 6729SOL     OW26681   0.481   2.292   0.028  0.2165  0.2798 -0.1898
 6729SOL    HW226682   0.413   2.260  -0.031  0.6335  1.0290 -1.1105
 6729SOL    HW326683   0.551   2.227   0.021  0.3010  0.4088 -0.6166
 6729SOL    MW426684   0.481   2.279   0.019  0.2827  0.3957 -0.3676
 6730SOL     OW26685   6.289   5.126   1.566  0.7374 -0.1906  0.5689
 6730SOL    HW226686   6.230   5.189   1.525  1.6193  0.7426  0.7057
 6730SOL    HW326687   6.233   5.075   1.625  0.6471  3.4107  3.9646
 6730SOL    MW426688   6.274   5.127   1.568  0.8418  0.4076  1.0350
 6731SOL     OW26689   0.338   2.336   0.492 -0.4736 -0.6696  0.0405
 6731SOL    HW226690   0.433   2.326   0.502 -0.1695  0.6275 -1.2086
 6731SOL    HW326691   0.321   2.312   0.401 -1.4163 -1.3058  0.3746
 6731SOL    MW426692   0.349   2.332   0.481 -0.5578 -0.5824 -0.0802
 6732SOL     OW26693   5.678   5.337   1.320  0.1432  0.1607  0.3559
 6732SOL    HW226694   5.718   5.252   1.300  0.9328  0.7664 -0.7529
 6732SOL    HW326695   5.619   5.354   1.246  1.5421  1.4964 -0.4998
 6732SOL    MW426696   5.675   5.328   1.308  0.4319  0.4168  0.0967
 6733SOL     OW26697   1.543   5.960   2.684  0.3424  0.1546  0.0510
 6733SOL    HW226698   1.572   6.050   2.702  0.7706 -0.0810  0.5405
 6733SOL    HW326699   1.458   5.971   2.641  0.4550  0.8003 -0.0178
 6733SOL    MW426700   1.536   5.973   2.680  0.4138  0.2087  0.1065
 6734SOL     OW26701   4.139   3.233   0.989 -0.2967  0.2245 -0.4190
 6734SOL    HW226702   4.048   3.217   1.014 -0.2751 -1.0371 -1.1031
 6734SOL    HW326703   4.158   3.166   0.924  1.4156 -0.0920  0.3664
 6734SOL    MW426704   4.129   3.222   0.984 -0.0679  0.0163 -0.4057
 6735SOL     OW26705   1.071   3.611   2.631 -0.7126  0.6130  0.5679
 6735SOL    HW226706   0.977   3.599   2.644 -0.5459 -1.0459  0.4169
 6735SOL    HW326707   1.084   3.600   2.537 -0.1491 -1.0683  0.8097
 6735SOL    MW426708   1.060   3.608   2.620 -0.6162  0.1723  0.5799
 6736SOL     OW26709   1.478   5.149   4.816 -0.1605 -0.2545 -0.5004
 6736SOL    HW226710   1.438   5.128   4.900  0.1996  0.2926 -0.1875
 6736SOL    HW326711   1.557   5.094   4.813  1.5269  1.9356  0.9252
 6736SOL    MW426712   1.483   5.139   4.827  0.1097  0.1066 -0.2711
 6737SOL     OW26713   2.964   5.958   3.285 -0.7290 -0.0661 -0.3873
 6737SOL    HW226714   3.010   6.042   3.281  0.4885 -0.7156 -0.6641
 6737SOL    HW326715   2.872   5.982   3.295 -0.1662  1.3014  2.6809
 6737SOL    MW426716   2.958   5.973   3.286 -0.4941  0.0287 -0.0190
 6738SOL     OW26717   6.361   5.100   0.189 -0.4503 -0.1557  0.0823
 6738SOL    HW226718   6.412   5.025   0.220  0.5475 -0.0978 -1.2931
 6738SOL    HW326719   6.417   5.176   0.206 -0.0375 -0.0882 -1.4328
 6738SOL    MW426720   6.375   5.100   0.195 -0.2642 -0.1391 -0.2991
 6739SOL     OW26721   5.631   2.398   6.127  0.2073 -0.2870  0.1979
 6739SOL    HW226722   5.618   2.420   6.035  1.1356  0.3740  0.2046
 6739SOL    HW326723   5.668   2.310   6.126 -4.1472 -2.3433  0.1944
 6739SOL    MW426724   5.634   2.390   6.115 -0.2447 -0.4711  0.1983
 6740SOL     OW26725   4.979   0.985   5.464 -1.1696 -0.0320 -0.1960
 6740SOL    HW226726   5.039   1.025   5.402 -0.9083  0.7869  0.5540
 6740SOL    HW326727   4.913   0.940   5.410 -0.1971 -0.4916 -1.0277
 6740SOL    MW426728   4.978   0.984   5.449 -1.0068  0.0154 -0.2068
 6741SOL     OW26729   5.575   4.150   1.913  0.0514  0.4299  0.0019
 6741SOL    HW226730   5.617   4.065   1.897 -0.9973 -0.0255 -0.4395
 6741SOL    HW326731   5.482   4.132   1.906 -0.1869  1.6326 -0.1000
 6741SOL    MW426732   5.569   4.136   1.910 -0.1184  0.5285 -0.0697
 6742SOL     OW26733   1.521   2.250   4.428 -0.3230  0.0221 -0.3193
 6742SOL    HW226734   1.485   2.166   4.398 -0.8172  0.8352 -2.1842
 6742SOL    HW326735   1.445   2.305   4.441  0.0305  0.3764  0.2637
 6742SOL    MW426736   1.507   2.246   4.426 -0.3416  0.1761 -0.4884
 6743SOL     OW26737   1.490   2.361   3.046 -0.4247 -0.1966 -0.6854
 6743SOL    HW226738   1.416   2.351   2.986  0.0898 -0.5005 -1.2794
 6743SOL    HW326739   1.450   2.385   3.129 -1.1490  0.3132 -1.1683
 6743SOL    MW426740   1.475   2.363   3.049 -0.4524 -0.1695 -0.8275
 6744SOL     OW26741   3.528   4.568   0.504 -0.0681  0.1528  0.0158
 6744SOL    HW226742   3.435   4.543   0.501 -0.2218  0.3007  1.9158
 6744SOL    HW326743   3.570   4.495   0.550  0.7064  0.2253 -0.5713
 6744SOL    MW426744   3.521   4.555   0.510  0.0138  0.1819  0.1890
 6745SOL     OW26745   1.782   5.930   6.135  0.4217 -0.0824  0.3371
 6745SOL    HW226746   1.860   5.946   6.082 -0.0587 -0.3699 -0.4766
 6745SOL    HW326747   1.766   5.836   6.126 -0.2833  0.0560  0.1324
 6745SOL    MW426748   1.790   5.919   6.127  0.2653 -0.1021  0.2027
 6746SOL     OW26749   3.799   5.217   4.960 -0.2884 -0.1878  0.8077
 6746SOL    HW226750   3.794   5.125   4.934 -1.2344  0.0119  0.2354
 6746SOL    HW326751   3.797   5.215   5.056 -3.2905 -0.6728  0.8313
 6746SOL    MW426752   3.798   5.204   4.970 -0.8093 -0.2254  0.7353
 6747SOL     OW26753   4.974   1.155   3.725  0.3787  0.2051 -0.2278
 6747SOL    HW226754   4.948   1.149   3.817 -2.2165  0.9112 -0.8235
 6747SOL    HW326755   5.022   1.075   3.708  0.3928 -0.2178  1.5870
 6747SOL    MW426756   4.977   1.144   3.735  0.0382  0.2424 -0.0670
 6748SOL     OW26757   3.191   4.663   5.701 -0.3314 -0.0805 -0.1531
 6748SOL    HW226758   3.171   4.676   5.794 -3.0922  1.2206 -0.7980
 6748SOL    HW326759   3.146   4.582   5.677 -2.9870  1.5066 -1.0518
 6748SOL    MW426760   3.182   4.654   5.710 -1.0460  0.3006 -0.3567
 6749SOL     OW26761   4.147   3.751   0.223  0.1908 -0.2151  0.3974
 6749SOL    HW226762   4.147   3.729   0.130  0.1381 -1.8295  0.7569
 6749SOL    HW326763   4.177   3.842   0.225 -0.1839 -0.0077 -1.2122
 6749SOL    MW426764   4.151   3.760   0.211  0.1344 -0.4007  0.2325
 6750SOL     OW26765   1.460   1.099   4.369 -0.1749  0.0625  0.1382
 6750SOL    HW226766   1.377   1.145   4.382  0.1257  0.1197  2.2364
 6750SOL    HW326767   1.507   1.110   4.452  1.3704 -1.1158 -0.5215
 6750SOL    MW426768   1.455   1.107   4.382  0.0686 -0.0854  0.3280
 6751SOL     OW26769   6.258   4.595   1.857 -0.6373  0.2274  0.3415
 6751SOL    HW226770   6.259   4.592   1.762  2.9864 -3.1112  0.2353
 6751SOL    HW326771   6.186   4.537   1.883  0.0250 -0.9985 -0.4843
 6751SOL    MW426772   6.249   4.587   1.848 -0.0718 -0.3748  0.2185
 6752SOL     OW26773   2.559   0.456   6.214 -0.9382  0.1212 -0.0592
 6752SOL    HW226774   2.559   0.476   6.120 -0.3248 -1.3624 -0.3966
 6752SOL    HW326775   2.652   0.459   6.239 -1.0324 -0.1906  0.3403
 6752SOL    MW426776   2.571   0.459   6.205 -0.8697 -0.1157 -0.0510
 6753SOL     OW26777   4.552   2.624   4.865  0.9001 -0.0532 -0.3092
 6753SOL    HW226778   4.494   2.614   4.789  0.7306 -0.1270 -0.1717
 6753SOL    HW326779   4.492   2.639   4.939  0.9490 -1.8205  0.1249
 6753SOL    MW426780   4.536   2.625   4.865  0.8842 -0.2961 -0.2337
 6754SOL     OW26781   4.026   2.826   0.785  0.1238 -0.1092  0.3637
 6754SOL    HW226782   4.078   2.779   0.850  0.2850 -2.3547 -1.2763
 6754SOL    HW326783   4.079   2.903   0.763  1.1530 -0.5580  1.1894
 6754SOL    MW426784   4.040   2.830   0.790  0.2808 -0.4647  0.2563
 6755SOL     OW26785   5.971   0.412   5.574 -0.1111 -0.0361 -0.2490
 6755SOL    HW226786   5.903   0.347   5.592  1.2609 -0.8479  2.6053
 6755SOL    HW326787   5.933   0.495   5.605 -0.8385  0.0516 -1.3446
 6755SOL    MW426788   5.957   0.414   5.581 -0.0261 -0.1317 -0.0170
 6756SOL     OW26789   5.765   2.494   1.342  0.0375  0.1498  0.4882
 6756SOL    HW226790   5.770   2.519   1.434  0.4723  3.6708 -0.3483
 6756SOL    HW326791   5.823   2.556   1.297  1.5047 -2.7711 -2.0045
 6756SOL    MW426792   5.773   2.505   1.348  0.2884  0.2289  0.0489
 6757SOL     OW26793   4.625   6.112   4.548  0.3951  0.1583  0.2311
 6757SOL    HW226794   4.668   6.089   4.630 -1.5579 -2.1450  0.7194
 6757SOL    HW326795   4.692   6.096   4.480  0.8061 -2.0260  1.0557
 6757SOL    MW426796   4.640   6.107   4.549  0.1916 -0.4338  0.4044
 6758SOL     OW26797   2.348   4.822   3.948 -0.0362  0.6134 -0.4294
 6758SOL    HW226798   2.430   4.799   3.905 -0.1066 -0.8238  0.1452
 6758SOL    HW326799   2.295   4.863   3.879  1.3614  2.1401 -0.6492
 6758SOL    MW426800   2.352   4.824   3.933  0.1389  0.6252 -0.3826
 6759SOL     OW26801   4.762   4.194   5.349  0.3917  0.0630  0.4119
 6759SOL    HW226802   4.752   4.181   5.444  1.3286 -0.1231  0.4938
 6759SOL    HW326803   4.684   4.153   5.311 -1.0121  1.8595  1.2124
 6759SOL    MW426804   4.750   4.187   5.357  0.3301  0.2755  0.5283
 6760SOL     OW26805   4.351   3.020   1.090  0.7217 -0.1681  0.1090
 6760SOL    HW226806   4.424   3.043   1.149 -0.4204  0.0626  1.4948
 6760SOL    HW326807   4.285   3.087   1.106 -0.1777 -0.9037 -0.4187
 6760SOL    MW426808   4.352   3.032   1.100  0.4524 -0.2347  0.2222
 6761SOL     OW26809   2.088   3.558   1.337 -0.3655  0.4612  0.1226
 6761SOL    HW226810   2.081   3.636   1.282  0.6967  0.2713 -0.3017
 6761SOL    HW326811   2.108   3.591   1.424 -0.5933  0.6928  0.0869
 6761SOL    MW426812   2.090   3.573   1.341 -0.2554  0.4667  0.0619
 6762SOL     OW26813   1.739   4.219   4.970 -0.0949  0.6220  0.0038
 6762SOL    HW226814   1.677   4.187   4.904  1.7349 -1.5479 -0.8126
 6762SOL    HW326815   1.751   4.145   5.029  0.7277  1.4431  0.9026
 6762SOL    MW426816   1.732   4.205   4.969  0.2551  0.4441  0.0147
 6763SOL     OW26817   0.291   3.830   0.504 -0.4442  0.2778 -0.1593
 6763SOL    HW226818   0.275   3.759   0.566 -1.6889  0.3793 -0.3469
 6763SOL    HW326819   0.380   3.814   0.472 -1.0666 -1.7969 -0.9783
 6763SOL    MW426820   0.301   3.818   0.508 -0.6905  0.0175 -0.2921
 6764SOL     OW26821   0.963   5.541   0.176 -0.2461 -0.2443  0.1322
 6764SOL    HW226822   1.020   5.572   0.247 -1.3037 -0.2462  1.0223
 6764SOL    HW326823   1.013   5.473   0.133  0.4081 -0.2934  0.9361
 6764SOL    MW426824   0.977   5.536   0.180 -0.2994 -0.2510  0.3557
 6765SOL     OW26825   0.562   2.688   3.434  0.6339  0.2632 -0.7197
 6765SOL    HW226826   0.580   2.603   3.396  1.6039 -0.6274  1.5357
 6765SOL    HW326827   0.648   2.723   3.457  0.2136  1.6390 -1.1419
 6765SOL    MW426828   0.576   2.682   3.432  0.7064  0.3273 -0.4779
 6766SOL     OW26829   4.461   3.058   3.976  0.1550  0.1477  0.0924
 6766SOL    HW226830   4.404   3.124   3.938  1.7192  1.4487 -0.0992
 6766SOL    HW326831   4.428   2.975   3.942 -1.4354  0.8697 -0.2073
 6766SOL    MW426832   4.449   3.056   3.966  0.1515  0.4146  0.0276
 6767SOL     OW26833   2.618   4.304   6.163  0.2994  0.2880 -0.4296
 6767SOL    HW226834   2.556   4.317   6.091 -2.0273 -0.2968  1.3368
 6767SOL    HW326835   2.629   4.391   6.202 -1.2139  0.0672  0.5747
 6767SOL    MW426836   2.611   4.317   6.159 -0.2073  0.1817 -0.0641
 6768SOL     OW26837   3.560   4.522   4.662 -0.7727 -0.0468  0.2898
 6768SOL    HW226838   3.465   4.521   4.648 -0.7585  2.2392 -0.3404
 6768SOL    HW326839   3.596   4.555   4.580  0.2989  2.1983  1.5914
 6768SOL    MW426840   3.552   4.526   4.649 -0.6294  0.5510  0.3784
 6769SOL     OW26841   3.590   0.992   1.533 -0.4039  0.0221  0.0823
 6769SOL    HW226842   3.633   0.952   1.609 -0.3506  0.9233  0.5443
 6769SOL    HW326843   3.611   1.085   1.541 -1.4180  0.2950 -0.3767
 6769SOL    MW426844   3.599   0.999   1.544 -0.5306  0.1770  0.0827
 6770SOL     OW26845   4.873   0.831   0.433 -0.7850  0.5803 -0.0337
 6770SOL    HW226846   4.809   0.760   0.438 -0.5032  0.3590  0.4864
 6770SOL    HW326847   4.912   0.835   0.520  1.1129 -0.4111 -0.7751
 6770SOL    MW426848   4.870   0.822   0.445 -0.4974  0.4203 -0.0629
 6771SOL     OW26849   1.965   0.714   2.443 -0.2814  0.1742  0.2011
 6771SOL    HW226850   1.981   0.739   2.352  0.6414  1.6624  0.7383
 6771SOL    HW326851   1.992   0.622   2.447  1.5863  0.6260 -0.6047
 6771SOL    MW426852   1.971   0.705   2.432  0.0868  0.4301  0.1657
 6772SOL     OW26853   4.044   4.645   5.356 -0.1310 -0.3666  0.3276
 6772SOL    HW226854   4.129   4.674   5.388 -0.7391  1.1802  0.6672
 6772SOL    HW326855   4.042   4.673   5.264  0.0092 -1.0927  0.0948
 6772SOL    MW426856   4.055   4.653   5.348 -0.1927 -0.2583  0.3417
 6773SOL     OW26857   6.050   6.244   0.557  0.1803 -0.1168  0.4915
 6773SOL    HW226858   6.068   6.336   0.541 -0.9084 -0.1075 -0.8525
 6773SOL    HW326859   6.034   6.238   0.651  0.0525  1.1002  0.5568
 6773SOL    MW426860   6.050   6.255   0.568  0.0198  0.0450  0.3228
 6774SOL     OW26861   2.025   1.161   1.255  0.7528 -0.5523  0.2179
 6774SOL    HW226862   2.036   1.205   1.171  0.3754  0.1181  0.5130
 6774SOL    HW326863   1.959   1.094   1.239  0.1098  0.0810  0.1573
 6774SOL    MW426864   2.018   1.158   1.242  0.6182 -0.3803  0.2488
 6775SOL     OW26865   0.793   4.162   0.487  0.2030  0.6454 -0.0607
 6775SOL    HW226866   0.774   4.231   0.424  2.4282  0.6833 -0.8003
 6775SOL    HW326867   0.855   4.105   0.442 -0.6505 -1.1830  0.9760
 6775SOL    MW426868   0.799   4.164   0.473  0.3840  0.4092 -0.0215
 6776SOL     OW26869   1.166   4.399   5.288 -0.1363 -0.0169  0.1748
 6776SOL    HW226870   1.203   4.370   5.372  2.5993  1.2328 -0.4994
 6776SOL    HW326871   1.167   4.494   5.293  1.6875  0.1406 -1.8549
 6776SOL    MW426872   1.171   4.408   5.300  0.4652  0.1687 -0.1820
 6777SOL     OW26873   0.853   0.496   3.831  0.0986  0.1048  0.3317
 6777SOL    HW226874   0.803   0.441   3.771  1.0060 -0.1926 -0.1728
 6777SOL    HW326875   0.789   0.558   3.866 -0.5910 -0.1728 -0.4120
 6777SOL    MW426876   0.838   0.497   3.827  0.1273  0.0289  0.1670
 6778SOL     OW26877   2.252   2.998   0.067  0.0910  0.4127  0.5925
 6778SOL    HW226878   2.207   2.941   0.128 -0.2529 -0.0465 -0.0793
 6778SOL    HW326879   2.257   2.948  -0.015 -1.1418  1.7165 -0.3226
 6778SOL    MW426880   2.247   2.984   0.064 -0.1170  0.5241  0.3831
 6779SOL     OW26881   3.700   2.328   4.842 -0.1452 -0.3037  0.7236
 6779SOL    HW226882   3.782   2.350   4.885  0.0739 -0.9037  0.6256
 6779SOL    HW326883   3.639   2.310   4.914  0.3130 -1.6362  0.7941
 6779SOL    MW426884   3.703   2.329   4.857 -0.0558 -0.5586  0.7200
 6780SOL     OW26885   3.960   2.833   3.475  0.1856  0.1397 -0.2236
 6780SOL    HW226886   3.959   2.864   3.565 -0.5532 -1.7730  0.4938
 6780SOL    HW326887   3.948   2.911   3.422  0.0319  1.2373  1.3540
 6780SOL    MW426888   3.958   2.847   3.480  0.0679  0.0322  0.0792
 6781SOL     OW26889   5.668   5.082   1.022  0.0757  0.1008  0.4925
 6781SOL    HW226890   5.614   5.006   1.045  1.0227 -0.5865  0.4911
 6781SOL    HW326891   5.610   5.137   0.969 -0.1908 -1.3683 -0.8395
 6781SOL    MW426892   5.653   5.079   1.018  0.1655 -0.1837  0.3166
 6782SOL     OW26893   1.414   5.395   1.485 -0.1616  0.3173 -0.9736
 6782SOL    HW226894   1.496   5.417   1.530  0.4852 -1.0985 -1.4113
 6782SOL    HW326895   1.385   5.479   1.447 -0.1940  1.3352  1.1605
 6782SOL    MW426896   1.421   5.409   1.486 -0.0805  0.2648 -0.7498
 6783SOL     OW26897   0.378   5.604   1.585  0.7708  0.2127  0.2138
 6783SOL    HW226898   0.297   5.582   1.539  0.1622  0.1980  1.2609
 6783SOL    HW326899   0.380   5.545   1.661  1.4752  0.6026  0.5128
 6783SOL    MW426900   0.368   5.593   1.589  0.7834  0.2622  0.3914
 6784SOL     OW26901   0.824   2.545   0.573 -0.2240  0.5101 -0.0363
 6784SOL    HW226902   0.766   2.599   0.627  0.3504  0.9187  0.1770
 6784SOL    HW326903   0.911   2.558   0.610 -0.1782 -1.2461  0.5706
 6784SOL    MW426904   0.828   2.554   0.585 -0.1422  0.3323  0.0719
 6785SOL     OW26905   0.590   3.242   3.585  0.5031  0.1771 -0.1791
 6785SOL    HW226906   0.643   3.303   3.636 -0.9281 -0.4445  2.2053
 6785SOL    HW326907   0.607   3.157   3.625 -0.4580 -0.3898 -0.9507
 6785SOL    MW426908   0.599   3.239   3.597  0.1875  0.0203  0.0337
 6786SOL     OW26909   3.044   3.019   3.735  0.1214  0.0384  0.6232
 6786SOL    HW226910   3.016   3.093   3.789 -0.2888  1.7233 -1.7508
 6786SOL    HW326911   2.962   2.982   3.702  0.3575 -1.0714  1.2492
 6786SOL    MW426912   3.029   3.024   3.738  0.0984  0.1143  0.3926
 6787SOL     OW26913   2.768   5.654   2.968  0.0073  0.1393  0.0129
 6787SOL    HW226914   2.724   5.673   2.885  1.3788 -0.6161 -0.9313
 6787SOL    HW326915   2.810   5.737   2.992 -0.1825  0.2968 -0.1955
 6787SOL    MW426916   2.768   5.668   2.960  0.1632  0.0604 -0.1392
 6788SOL     OW26917   1.403   3.939   0.153  0.2450  0.9531  0.1091
 6788SOL    HW226918   1.331   3.985   0.110 -1.5208 -0.3318  1.4840
 6788SOL    HW326919   1.430   3.873   0.090  0.4947  1.6799 -0.5641
 6788SOL    MW426920   1.397   3.936   0.139  0.0450  0.8795  0.2017
 6789SOL     OW26921   1.711   4.091   3.816  0.2163 -0.1748  0.4536
 6789SOL    HW226922   1.709   3.997   3.798  0.7887 -0.4017  1.4956
 6789SOL    HW326923   1.619   4.118   3.813  0.1723 -0.3277 -1.8984
 6789SOL    MW426924   1.699   4.082   3.813  0.2861 -0.2249  0.2807
 6790SOL     OW26925   3.095   5.534   4.636 -0.5750  0.7065  0.0659
 6790SOL    HW226926   3.016   5.506   4.589  0.3749 -1.7162 -0.2192
 6790SOL    HW326927   3.090   5.490   4.721  1.5815 -1.6144 -0.8709
 6790SOL    MW426928   3.084   5.525   4.641 -0.1651  0.0806 -0.0953
 6791SOL     OW26929   0.251   4.041   3.081  0.0351 -0.0598  0.1075
 6791SOL    HW226930   0.332   4.090   3.099 -0.1019 -0.3013  1.5502
 6791SOL    HW326931   0.182   4.107   3.084 -0.2667 -0.3588  3.0072
 6791SOL    MW426932   0.253   4.056   3.084 -0.0228 -0.1311  0.6804
 6792SOL     OW26933   2.852   0.700   5.572 -0.5145  0.2024 -0.4728
 6792SOL    HW226934   2.873   0.708   5.665  1.3908 -0.5601 -0.7737
 6792SOL    HW326935   2.763   0.733   5.564 -1.3572 -1.2292  1.8994
 6792SOL    MW426936   2.843   0.705   5.583 -0.3743 -0.0871 -0.1995
 6793SOL     OW26937   1.087   4.049   2.307 -0.5606 -0.0976  0.1520
 6793SOL    HW226938   1.151   4.044   2.237 -1.8458  1.6932 -1.2680
 6793SOL    HW326939   1.127   4.002   2.380  1.2515 -1.1918 -1.4434
 6793SOL    MW426940   1.100   4.042   2.307 -0.4911 -0.0057 -0.2458
 6794SOL     OW26941   1.197   2.573   1.230  0.0692 -0.2841 -0.1206
 6794SOL    HW226942   1.144   2.493   1.241 -0.3987  0.2293  1.6409
 6794SOL    HW326943   1.241   2.585   1.314  1.4931  0.3947 -0.9232
 6794SOL    MW426944   1.196   2.564   1.242  0.1954 -0.1268  0.0059
 6795SOL     OW26945   1.096   5.169   0.353  0.3848 -0.8228 -0.0259
 6795SOL    HW226946   1.183   5.141   0.381  0.4757 -1.0117 -0.4882
 6795SOL    HW326947   1.113   5.225   0.277  0.2086  0.4738  0.8675
 6795SOL    MW426948   1.110   5.173   0.347  0.3736 -0.6766  0.0310
 6796SOL     OW26949   2.019   2.590   3.417  0.0521  0.0523  0.0056
 6796SOL    HW226950   1.994   2.531   3.346  0.4826 -0.0934 -0.0286
 6796SOL    HW326951   1.994   2.544   3.497  1.0606 -0.5184  0.0107
 6796SOL    MW426952   2.013   2.576   3.418  0.2419 -0.0422  0.0017
 6797SOL     OW26953   1.530   6.271   2.046  0.5967 -0.4294 -0.3967
 6797SOL    HW226954   1.494   6.257   1.958 -0.7063 -1.4236  0.2617
 6797SOL    HW326955   1.482   6.346   2.080  0.7950 -0.3192 -0.3535
 6797SOL    MW426956   1.519   6.279   2.039  0.4509 -0.5460 -0.3041
 6798SOL     OW26957   1.626   2.038   2.390  0.2476 -0.4252  0.1433
 6798SOL    HW226958   1.717   2.010   2.379 -0.0638 -1.8523  0.9221
 6798SOL    HW326959   1.628   2.101   2.461  0.4580 -1.6105  1.2265
 6798SOL    MW426960   1.638   2.042   2.398  0.2343 -0.7699  0.3890
 6799SOL     OW26961   2.592   1.431   3.199 -0.0813  0.1018  0.3956
 6799SOL    HW226962   2.650   1.388   3.262  0.6340 -1.5102 -1.2515
 6799SOL    HW326963   2.559   1.508   3.245 -0.2409 -1.4145  2.9797
 6799SOL    MW426964   2.595   1.436   3.213 -0.0080 -0.3109  0.5192
 6800SOL     OW26965   0.236   4.467   5.207 -0.1650 -0.0929  0.2713
 6800SOL    HW226966   0.188   4.431   5.133  2.8210 -1.4520 -1.1914
 6800SOL    HW326967   0.289   4.537   5.168 -1.0349  1.5069  1.8454
 6800SOL    MW426968   0.237   4.472   5.192  0.1142 -0.0611  0.2860
 6801SOL     OW26969   1.151   1.026   6.183  1.0948  0.3097 -0.3971
 6801SOL    HW226970   1.093   0.992   6.114  1.2522  0.6310 -0.6882
 6801SOL    HW326971   1.119   1.115   6.199  0.5175 -0.0460  0.5468
 6801SOL    MW426972   1.139   1.033   6.176  1.0394  0.3051 -0.3110
 6802SOL     OW26973   2.313   2.367   4.922  0.1057 -0.3906  0.2810
 6802SOL    HW226974   2.312   2.363   4.826  0.5883  0.6415  0.2170
 6802SOL    HW326975   2.367   2.443   4.942 -0.9643  0.1240  1.3459
 6802SOL    MW426976   2.320   2.377   4.912  0.0282 -0.1865  0.4130
 6803SOL     OW26977   1.842   1.112   3.044  0.3682  0.2837 -0.4897
 6803SOL    HW226978   1.798   1.068   2.970  0.8235 -0.5320 -0.2907
 6803SOL    HW326979   1.855   1.042   3.108 -2.8154  1.5146  1.7639
 6803SOL    MW426980   1.838   1.097   3.043  0.0082  0.3385 -0.1661
 6804SOL     OW26981   0.718   1.486   2.394 -0.1889  0.0879  0.0242
 6804SOL    HW226982   0.643   1.542   2.372 -1.8290 -1.2433  1.8367
 6804SOL    HW326983   0.790   1.547   2.408  0.0958  1.2988 -4.8015
 6804SOL    MW426984   0.717   1.502   2.393 -0.3678  0.0721 -0.3733
 6805SOL     OW26985   2.262   4.006   5.301 -0.4824  0.6478  0.5585
 6805SOL    HW226986   2.272   3.930   5.357  0.0528  0.0131 -0.3817
 6805SOL    HW326987   2.200   3.979   5.234  2.0621 -0.1162 -1.6579
 6805SOL    MW426988   2.255   3.993   5.300 -0.0761  0.4632  0.1420
 6806SOL     OW26989   2.391   5.766   6.244 -0.4566  0.1528 -0.4063
 6806SOL    HW226990   2.432   5.729   6.322 -0.9601  0.3688 -0.0351
 6806SOL    HW326991   2.395   5.695   6.179  1.0566  0.3715 -0.5851
 6806SOL    MW426992   2.397   5.751   6.246 -0.3234  0.2102 -0.3809
 6807SOL     OW26993   0.365   2.556   2.168 -0.2874  0.0403  0.1468
 6807SOL    HW226994   0.331   2.469   2.150 -1.7765  0.4678  0.8363
 6807SOL    HW326995   0.371   2.597   2.081  0.6652 -0.7964 -0.2114
 6807SOL    MW426996   0.362   2.550   2.154 -0.3582 -0.0137  0.1905
 6808SOL     OW26997   4.903   4.787   5.924  0.3325  0.4373 -0.0359
 6808SOL    HW226998   4.848   4.771   6.001  1.8603  0.1042  1.0455
 6808SOL    HW326999   4.978   4.729   5.936  0.6808  0.4946 -1.7284
 6808SOL    MW427000   4.906   4.777   5.936  0.5800  0.4009 -0.1165
 6809SOL     OW27001   1.239   5.689   0.128 -0.4112 -0.5653 -0.0961
 6809SOL    HW227002   1.279   5.776   0.135  0.5609 -1.1170  2.3717
 6809SOL    HW327003   1.313   5.629   0.117 -0.9259 -1.2312 -0.0273
 6809SOL    MW427004   1.254   5.693   0.127 -0.3509 -0.7260  0.2386
 6810SOL     OW27005   5.633   6.165   5.796 -0.4963 -0.7551  0.0785
 6810SOL    HW227006   5.635   6.259   5.816 -0.3104 -1.0314  1.4656
 6810SOL    HW327007   5.712   6.151   5.743 -0.3346 -0.1909  0.1571
 6810SOL    MW427008   5.644   6.176   5.792 -0.4504 -0.7171  0.2719
 6811SOL     OW27009   4.876   4.482   6.093 -0.5367 -0.0861 -0.2826
 6811SOL    HW227010   4.859   4.389   6.077 -1.9428  0.0943 -0.0344
 6811SOL    HW327011   4.789   4.519   6.108 -0.1321  1.4975 -1.5541
 6811SOL    MW427012   4.862   4.475   6.093 -0.6688  0.1466 -0.4176
 6812SOL     OW27013   2.620   2.188   0.352  0.4881  0.0356 -0.2667
 6812SOL    HW227014   2.584   2.276   0.361  0.1547  0.2839 -2.9979
 6812SOL    HW327015   2.699   2.200   0.300  1.1285 -1.1715  0.3855
 6812SOL    MW427016   2.626   2.201   0.346  0.5286 -0.0909 -0.5410
 6813SOL     OW27017   5.765   3.897   4.975 -0.3436  0.4724  0.8267
 6813SOL    HW227018   5.824   3.949   5.029 -2.2288  1.8533  1.6732
 6813SOL    HW327019   5.704   3.858   5.037  0.9023 -2.8079  0.2231
 6813SOL    MW427020   5.765   3.899   4.990 -0.4280  0.2218  0.8587
 6814SOL     OW27021   2.985   4.422   6.273  0.5369 -0.1695  0.2021
 6814SOL    HW227022   2.988   4.465   6.188  0.1447 -3.3099 -1.5656
 6814SOL    HW327023   3.072   4.436   6.310  2.0804 -1.6952 -2.4562
 6814SOL    MW427024   2.997   4.429   6.267  0.6888 -0.7851 -0.3819
 6815SOL     OW27025   2.819   6.112   3.816  0.5502 -0.3765 -0.1111
 6815SOL    HW227026   2.802   6.194   3.862  0.1370 -0.2025 -0.5617
 6815SOL    HW327027   2.735   6.087   3.779  0.8179 -0.6386 -0.5617
 6815SOL    MW427028   2.806   6.120   3.817  0.5310 -0.3881 -0.2300
 6816SOL     OW27029   4.623   0.331   6.239  0.0973 -0.5696  0.1527
 6816SOL    HW227030   4.544   0.280   6.257  1.3708 -2.7890 -0.1864
 6816SOL    HW327031   4.682   0.309   6.312  1.7878 -2.0638 -1.5697
 6816SOL    MW427032   4.621   0.321   6.251  0.4884 -1.0595 -0.1193
 6817SOL     OW27033   2.664   0.287   2.784 -0.5424  0.2534 -0.5750
 6817SOL    HW227034   2.664   0.199   2.823  1.2749 -0.0367 -1.1504
 6817SOL    HW327035   2.716   0.339   2.844  0.0846  0.4368 -1.2680
 6817SOL    MW427036   2.671   0.282   2.797 -0.2199  0.2393 -0.7424
 6818SOL     OW27037   0.333   6.232   4.432  0.1583 -0.3743 -0.1113
 6818SOL    HW227038   0.385   6.306   4.464  0.6191 -0.3950 -0.7934
 6818SOL    HW327039   0.381   6.201   4.355  0.2236 -1.6921  0.4447
 6818SOL    MW427040   0.346   6.238   4.426  0.2277 -0.5509 -0.1280
 6819SOL     OW27041   3.073   1.507   0.388  0.1102 -0.4080  0.6238
 6819SOL    HW227042   3.069   1.499   0.483 -0.4906 -0.8719  0.5698
 6819SOL    HW327043   3.163   1.531   0.369  0.0326  0.5377  1.3676
 6819SOL    MW427044   3.084   1.509   0.398  0.0207 -0.3444  0.7148
 6820SOL     OW27045   0.106   4.315   6.025  0.1574  0.1007  0.3070
 6820SOL    HW227046   0.044   4.292   6.094 -1.7005  3.0902 -0.1945
 6820SOL    HW327047   0.071   4.274   5.946 -0.5947  0.8598  0.2359
 6820SOL    MW427048   0.094   4.307   6.023 -0.1870  0.5952  0.2314
 6821SOL     OW27049   5.514   3.312   4.227 -0.2616 -0.0007 -0.4120
 6821SOL    HW227050   5.574   3.346   4.161 -1.0098  0.5547 -0.8146
 6821SOL    HW327051   5.434   3.291   4.179 -0.7358  0.1974  0.2734
 6821SOL    MW427052   5.511   3.314   4.212 -0.4229  0.0987 -0.3747
 6822SOL     OW27053   5.099   5.357   4.901 -0.1856  0.7496  0.2657
 6822SOL    HW227054   5.034   5.397   4.959 -2.0246  0.4682 -1.5252
 6822SOL    HW327055   5.070   5.267   4.890  0.2344  0.7521 -0.9540
 6822SOL    MW427056   5.087   5.350   4.907 -0.3729  0.7128 -0.1315
 6823SOL     OW27057   1.913   0.788   5.922  0.0692 -0.0380  0.0505
 6823SOL    HW227058   1.960   0.837   5.855  1.7734 -0.9550  0.4870
 6823SOL    HW327059   1.973   0.789   5.997 -0.1782 -2.0554  0.3225
 6823SOL    MW427060   1.927   0.794   5.923  0.2614 -0.4252  0.1440
 6824SOL     OW27061   2.132   2.160   2.011  0.1701  0.3949  1.1140
 6824SOL    HW227062   2.203   2.129   1.955 -0.6694 -2.1070  1.2937
 6824SOL    HW327063   2.157   2.133   2.099 -1.0997 -0.8669  1.1293
 6824SOL    MW427064   2.144   2.152   2.015 -0.1082 -0.1016  1.1397
 6825SOL     OW27065   1.772   3.341   3.373  0.4113 -0.1865 -0.8416
 6825SOL    HW227066   1.725   3.258   3.376  0.6846 -0.3359  1.0069
 6825SOL    HW327067   1.726   3.397   3.436  1.7978  0.1490 -0.0738
 6825SOL    MW427068   1.760   3.337   3.382  0.6303 -0.1619 -0.4964
 6826SOL     OW27069   0.241   6.199   5.427  0.2127 -0.2273  0.1008
 6826SOL    HW227070   0.192   6.219   5.347  1.0621  0.0317 -0.3619
 6826SOL    HW327071   0.248   6.284   5.472  2.2191  0.2169 -0.9647
 6826SOL    MW427072   0.235   6.213   5.423  0.5895 -0.1345 -0.1008
 6827SOL     OW27073   4.615   5.507   4.759  0.8822 -0.5333  0.1638
 6827SOL    HW227074   4.527   5.513   4.722  0.3833  2.1404  1.5083
 6827SOL    HW327075   4.641   5.416   4.744 -1.9408 -1.3323 -0.6098
 6827SOL    MW427076   4.607   5.496   4.752  0.4439 -0.2859  0.2391
 6828SOL     OW27077   3.326   2.428   1.630  0.1526 -0.2592 -0.0077
 6828SOL    HW227078   3.287   2.515   1.617 -1.1843 -0.8487 -0.1109
 6828SOL    HW327079   3.361   2.431   1.719 -1.8215 -0.3039  0.8187
 6828SOL    MW427080   3.325   2.440   1.640 -0.2843 -0.3429  0.0877
 6829SOL     OW27081   4.139   0.238   4.134  0.0149  0.1988 -0.0142
 6829SOL    HW227082   4.115   0.260   4.224  0.5623  0.8405 -0.0163
 6829SOL    HW327083   4.089   0.300   4.081  1.1809  1.1523 -0.0466
 6829SOL    MW427084   4.129   0.249   4.139  0.2409  0.4093 -0.0188
 6830SOL     OW27085   4.481   2.883   5.401  0.2507 -0.1108  0.2472
 6830SOL    HW227086   4.434   2.801   5.418 -1.5563  1.5117  4.3672
 6830SOL    HW327087   4.516   2.873   5.312 -0.4210 -5.0000  0.2816
 6830SOL    MW427088   4.479   2.871   5.391 -0.0764 -0.5418  0.7954
 6831SOL     OW27089   5.010   2.942   5.594  0.0813 -0.2668 -0.3291
 6831SOL    HW227090   5.063   3.021   5.604  1.0913 -1.0098  0.5203
 6831SOL    HW327091   4.927   2.962   5.637 -0.3074  0.8655 -1.5406
 6831SOL    MW427092   5.006   2.955   5.601  0.1632 -0.2154 -0.3769
 6832SOL     OW27093   3.187   5.665   3.480  0.2394  0.3956  0.1761
 6832SOL    HW227094   3.098   5.684   3.509  0.5522  1.0947  0.7268
 6832SOL    HW327095   3.196   5.711   3.397  0.3003  0.8961  0.4561
 6832SOL    MW427096   3.176   5.674   3.473  0.2887  0.5538  0.2857
 6833SOL     OW27097   1.945   2.619   4.736  0.5785  0.0705  0.1730
 6833SOL    HW227098   1.951   2.583   4.647  0.4068  0.9910 -0.2272
 6833SOL    HW327099   2.011   2.571   4.786  1.1271 -0.0177 -0.6149
 6833SOL    MW427100   1.954   2.608   4.730  0.6282  0.1803  0.0163
 6834SOL     OW27101   3.721   6.171   0.035 -0.2040 -0.0361  0.7127
 6834SOL    HW227102   3.763   6.206  -0.045  2.6318  0.7042  2.3693
 6834SOL    HW327103   3.728   6.076   0.026 -0.4712  0.0190 -0.1764
 6834SOL    MW427104   3.728   6.163   0.023  0.1349  0.0689  0.8140
 6835SOL     OW27105   5.080   4.062   5.604  0.3924  0.1154  0.0597
 6835SOL    HW227106   5.019   4.131   5.578 -0.2178 -0.1532  0.7356
 6835SOL    HW327107   5.094   4.077   5.698  0.4644 -0.5146  0.1518
 6835SOL    MW427108   5.074   4.073   5.613  0.3214 -0.0032  0.1610
 6836SOL     OW27109   0.839   4.858   0.508 -0.1905 -0.4206  0.2788
 6836SOL    HW227110   0.919   4.872   0.558  0.8433 -2.0240 -0.8141
 6836SOL    HW327111   0.793   4.942   0.512  2.3439  1.1161 -0.4282
 6836SOL    MW427112   0.844   4.871   0.515  0.2803 -0.4294  0.0413
 6837SOL     OW27113   4.006   2.499   4.822 -0.5336  0.5449  0.0628
 6837SOL    HW227114   4.098   2.514   4.800 -0.2847  2.0861  1.8789
 6837SOL    HW327115   3.967   2.587   4.823 -1.8759 -0.0228 -0.0123
 6837SOL    MW427116   4.013   2.513   4.819 -0.6779  0.6733  0.2925
 6838SOL     OW27117   1.249   0.674   0.630  0.4373 -0.4751 -0.4039
 6838SOL    HW227118   1.314   0.734   0.666  0.0401  1.0278 -2.0442
 6838SOL    HW327119   1.297   0.620   0.568  0.2359  0.4201 -1.3771
 6838SOL    MW427120   1.264   0.675   0.627  0.3583 -0.1587 -0.7487
 6839SOL     OW27121   0.175   3.041   0.199 -0.1268 -0.4765 -0.3049
 6839SOL    HW227122   0.139   3.125   0.227  0.7193 -0.4687  0.8053
 6839SOL    HW327123   0.103   2.979   0.210 -0.8487  0.1260 -1.4107
 6839SOL    MW427124   0.161   3.044   0.204 -0.1104 -0.3960 -0.3043
 6840SOL     OW27125   4.014   5.933   1.542 -0.2997 -0.2967  0.2606
 6840SOL    HW227126   4.106   5.932   1.515 -0.0248  0.3301  1.1351
 6840SOL    HW327127   3.993   6.026   1.551 -1.5048 -0.3441 -1.4642
 6840SOL    MW427128   4.024   5.946   1.539 -0.4224 -0.2202  0.1484
 6841SOL     OW27129   2.097   3.395   0.676 -0.2455 -0.4843 -0.1821
 6841SOL    HW227130   2.026   3.393   0.612 -0.3238 -2.9506 -0.1466
 6841SOL    HW327131   2.174   3.367   0.627 -0.0777 -1.3275  0.5327
 6841SOL    MW427132   2.098   3.391   0.661 -0.2337 -0.9209 -0.0831
 6842SOL     OW27133   2.829   4.729   2.576 -0.2496 -0.1116 -0.6254
 6842SOL    HW227134   2.746   4.687   2.555 -0.7189  1.6139 -2.6074
 6842SOL    HW327135   2.836   4.800   2.512  0.1323  3.2877  2.8187
 6842SOL    MW427136   2.819   4.733   2.565 -0.2611  0.5646 -0.4325
 6843SOL     OW27137   5.177   4.391   3.113  0.0174  0.0064  0.0902
 6843SOL    HW227138   5.240   4.347   3.057  0.1497 -1.3887  1.2891
 6843SOL    HW327139   5.147   4.324   3.174 -2.0384  0.8300  0.0678
 6843SOL    MW427140   5.181   4.377   3.114 -0.2364 -0.0690  0.2454
 6844SOL     OW27141   0.863   2.078   2.330 -0.0752  0.4492  0.2148
 6844SOL    HW227142   0.948   2.087   2.373  0.9057 -1.7948 -1.0621
 6844SOL    HW327143   0.879   2.015   2.260 -3.4802 -2.4623  1.7760
 6844SOL    MW427144   0.877   2.071   2.326 -0.3950 -0.2310  0.2523
 6845SOL     OW27145   0.306   4.661   2.447  0.5295 -0.1040  0.1454
 6845SOL    HW227146   0.278   4.670   2.356 -0.4751 -1.9290  0.2151
 6845SOL    HW327147   0.224   4.646   2.495  0.4722  4.6445  2.0713
 6845SOL    MW427148   0.291   4.660   2.441  0.3894  0.2817  0.4087
 6846SOL     OW27149   1.437   3.133   6.260 -0.0653  0.5176  0.3512
 6846SOL    HW227150   1.380   3.184   6.318 -1.6120 -0.3613 -0.3362
 6846SOL    HW327151   1.470   3.196   6.197 -0.4877  1.0000  0.6024
 6846SOL    MW427152   1.434   3.148   6.260 -0.3251  0.4653  0.2936
 6847SOL     OW27153   5.827   4.514   1.991  0.0961 -0.3198  0.0395
 6847SOL    HW227154   5.747   4.558   1.962  0.0343  0.0291  0.7328
 6847SOL    HW327155   5.864   4.572   2.058 -0.0354 -1.3602  1.0327
 6847SOL    MW427156   5.821   4.528   1.996  0.0706 -0.4111  0.2620
 6848SOL     OW27157   0.138   5.442   2.968 -0.1655  0.0666  0.8782
 6848SOL    HW227158   0.173   5.366   2.922 -1.8948  0.0454 -0.5051
 6848SOL    HW327159   0.091   5.405   3.043 -1.5973 -0.3536 -0.1737
 6848SOL    MW427160   0.136   5.427   2.972 -0.5826  0.0083  0.5569
 6849SOL     OW27161   2.014   4.237   0.731 -0.7468  0.2088 -0.2527
 6849SOL    HW227162   2.015   4.283   0.647  0.5456  1.3768  0.3704
 6849SOL    HW327163   2.094   4.183   0.730 -0.7467  0.1994  0.2118
 6849SOL    MW427164   2.025   4.236   0.720 -0.5762  0.3617 -0.1092
 6850SOL     OW27165   0.250   3.036   5.322  0.3905  0.3416 -0.3836
 6850SOL    HW227166   0.262   3.127   5.352 -0.0482  0.3904 -0.3549
 6850SOL    HW327167   0.275   2.983   5.398 -0.6814  0.4656  0.0698
 6850SOL    MW427168   0.255   3.041   5.336  0.1912  0.3644 -0.3200
 6851SOL     OW27169   1.444   2.083   0.793 -0.2968 -0.3417  0.4052
 6851SOL    HW227170   1.424   2.163   0.841  0.1819  1.2875 -1.9133
 6851SOL    HW327171   1.371   2.071   0.732  0.7792 -0.2039 -0.9804
 6851SOL    MW427172   1.432   2.092   0.791 -0.0917 -0.1086 -0.0835
 6852SOL     OW27173   2.312   1.484   0.025  0.1398 -0.3511 -0.2146
 6852SOL    HW227174   2.325   1.407  -0.030  0.8509  0.5485 -1.3518
 6852SOL    HW327175   2.369   1.469   0.101 -0.4613 -1.3754  0.0441
 6852SOL    MW427176   2.322   1.472   0.028  0.1543 -0.3675 -0.3305
 6853SOL     OW27177   1.680   1.014   1.436 -0.1833 -0.0551 -0.1659
 6853SOL    HW227178   1.592   0.975   1.433 -1.2969  2.3698 -1.4590
 6853SOL    HW327179   1.702   1.016   1.529 -1.7557 -0.1620  0.2411
 6853SOL    MW427180   1.671   1.009   1.448 -0.5377  0.2508 -0.2828
 6854SOL     OW27181   0.342   0.358   3.449 -0.6396 -0.1389 -0.0017
 6854SOL    HW227182   0.281   0.410   3.501 -0.1926 -0.7331  1.1696
 6854SOL    HW327183   0.303   0.270   3.446 -0.0686 -0.4178  0.4062
 6854SOL    MW427184   0.329   0.353   3.455 -0.5053 -0.2541  0.2066
 6855SOL     OW27185   1.166   1.972   1.717  0.0352 -0.4298 -0.0501
 6855SOL    HW227186   1.127   1.897   1.763  1.5711 -0.5079  1.1782
 6855SOL    HW327187   1.115   1.979   1.636 -0.9811 -1.9834  0.4141
 6855SOL    MW427188   1.154   1.963   1.712  0.1038 -0.6451  0.1732
 6856SOL     OW27189   4.829   1.640   2.198 -0.0395  0.1779  0.0266
 6856SOL    HW227190   4.903   1.700   2.204 -0.0102  0.0416  1.2029
 6856SOL    HW327191   4.791   1.639   2.286 -0.3960 -1.0801 -0.1200
 6856SOL    MW427192   4.833   1.648   2.210 -0.0827 -0.0061  0.1625
 6857SOL     OW27193   3.006   1.139   2.825  0.5569 -0.0502 -0.1620
 6857SOL    HW227194   3.011   1.066   2.886  1.8959  0.8434  0.8496
 6857SOL    HW327195   2.929   1.188   2.852  0.7825 -0.0119  0.4273
 6857SOL    MW427196   2.997   1.136   2.837  0.7634  0.0728  0.0492
 6858SOL     OW27197   4.195   2.169   3.919 -0.0040 -0.6082 -1.3131
 6858SOL    HW227198   4.151   2.136   3.841 -0.5852 -2.7220 -0.1573
 6858SOL    HW327199   4.133   2.231   3.958 -0.0632 -0.2030 -2.0253
 6858SOL    MW427200   4.181   2.173   3.914 -0.0885 -0.8336 -1.2546
 6859SOL     OW27201   3.529   0.089   2.327  0.8884 -0.4257 -0.0153
 6859SOL    HW227202   3.544   0.181   2.349  1.5169 -0.2299 -1.2045
 6859SOL    HW327203   3.572   0.040   2.398 -0.9731  0.1511  1.6049
 6859SOL    MW427204   3.537   0.094   2.340  0.7258 -0.3238  0.0416
 6860SOL     OW27205   0.271   2.375   5.843 -0.4445  0.2001 -0.0573
 6860SOL    HW227206   0.342   2.345   5.786 -1.3982 -0.0019 -1.1682
 6860SOL    HW327207   0.297   2.464   5.869  0.4641 -0.0704 -0.0093
 6860SOL    MW427208   0.284   2.383   5.839 -0.4505  0.1377 -0.1976
 6861SOL     OW27209   3.904   0.141   5.027  0.1954  0.0295  0.1331
 6861SOL    HW227210   3.995   0.154   4.998  0.0090 -0.8216 -0.8908
 6861SOL    HW327211   3.858   0.219   4.998  0.0048 -0.8035 -2.0051
 6861SOL    MW427212   3.910   0.153   5.019  0.1457 -0.1927 -0.2841
 6862SOL     OW27213   5.164   1.349   3.553  0.3196  0.4826  0.1503
 6862SOL    HW227214   5.158   1.269   3.605 -1.0612 -0.4162 -1.3153
 6862SOL    HW327215   5.098   1.407   3.591 -0.3162  0.0329 -0.2684
 6862SOL    MW427216   5.155   1.346   3.565  0.0535  0.3047 -0.0983
 6863SOL     OW27217   3.019   3.852   4.064  0.1151 -0.1769 -0.1475
 6863SOL    HW227218   3.064   3.810   4.137 -0.9311  1.0795  1.2742
 6863SOL    HW327219   2.958   3.913   4.105 -1.7215 -0.6219 -2.0154
 6863SOL    MW427220   3.017   3.854   4.079 -0.2653 -0.0699 -0.2064
 6864SOL     OW27221   0.387   5.493   5.393 -0.1035 -0.3149  0.5615
 6864SOL    HW227222   0.417   5.455   5.310  0.9968 -2.4031  1.8172
 6864SOL    HW327223   0.291   5.493   5.386 -0.0224  0.3237 -1.0004
 6864SOL    MW427224   0.378   5.488   5.381  0.0523 -0.5061  0.5211
 6865SOL     OW27225   4.702   0.557   5.190 -0.4206  0.4316  0.5429
 6865SOL    HW227226   4.703   0.470   5.231  2.9195 -0.3590 -0.9016
 6865SOL    HW327227   4.662   0.542   5.104  1.8324 -0.2252 -0.4794
 6865SOL    MW427228   4.697   0.544   5.184  0.3174  0.2406  0.2174
 6866SOL     OW27229   0.909   5.837   1.307 -0.2355  0.3103 -0.0479
 6866SOL    HW227230   0.925   5.743   1.315  0.6541  0.4083 -0.5309
 6866SOL    HW327231   0.820   5.849   1.341  0.1194 -0.5127  1.2341
 6866SOL    MW427232   0.899   5.826   1.313 -0.0713  0.2147  0.0575
 6867SOL     OW27233   5.369   4.645   0.357 -0.1508 -0.0303  0.1828
 6867SOL    HW227234   5.298   4.706   0.337  1.6991  1.7151 -1.3945
 6867SOL    HW327235   5.382   4.596   0.276 -0.5504 -1.4687  0.9533
 6867SOL    MW427236   5.361   4.647   0.344  0.0406  0.0102  0.0764
 6868SOL     OW27237   5.492   2.393   5.299  0.1730 -0.1148 -0.1377
 6868SOL    HW227238   5.489   2.466   5.237  0.5593  1.0195  1.1371
 6868SOL    HW327239   5.541   2.325   5.253  2.7434  1.6164 -0.1680
 6868SOL    MW427240   5.498   2.394   5.285  0.5631  0.2633  0.0265
 6869SOL     OW27241   2.125   4.709   1.121 -0.0797 -0.0387  0.3183
 6869SOL    HW227242   2.145   4.671   1.035  1.7896  1.0739  0.1892
 6869SOL    HW327243   2.190   4.779   1.131 -0.0361 -0.3473  2.7793
 6869SOL    MW427244   2.136   4.713   1.111  0.1727  0.0674  0.6260
 6870SOL     OW27245   0.681   5.179   4.189 -0.0813 -0.3869 -0.2212
 6870SOL    HW227246   0.770   5.214   4.195  0.1501 -1.1804  1.5810
 6870SOL    HW327247   0.640   5.229   4.118  1.6019  0.4060 -0.6787
 6870SOL    MW427248   0.687   5.191   4.180  0.1713 -0.3870 -0.0438
 6871SOL     OW27249   4.710   4.654   1.981 -0.2694  0.1513 -0.4164
 6871SOL    HW227250   4.712   4.671   1.887 -0.5197 -0.2032 -0.4898
 6871SOL    HW327251   4.697   4.740   2.021 -1.1833  0.1899 -0.7607
 6871SOL    MW427252   4.709   4.667   1.974 -0.4230  0.1096 -0.4715
 6872SOL     OW27253   3.188   0.642   1.572 -0.8217  0.0056  0.2809
 6872SOL    HW227254   3.227   0.727   1.589 -1.1294  0.0608  0.7229
 6872SOL    HW327255   3.111   0.661   1.518  0.4997 -0.2198 -1.8289
 6872SOL    MW427256   3.183   0.656   1.567 -0.6880 -0.0169  0.0609
 6873SOL     OW27257   0.927   6.185   3.170 -0.2315 -0.6336  0.1225
 6873SOL    HW227258   0.895   6.116   3.112 -1.7673  0.3259 -0.2237
 6873SOL    HW327259   0.883   6.169   3.253 -0.7838  0.0737 -0.0342
 6873SOL    MW427260   0.917   6.174   3.173 -0.5070 -0.4137  0.0561
 6874SOL     OW27261   4.162   1.912   3.666  0.2840  0.1994  0.2114
 6874SOL    HW227262   4.171   1.823   3.632  2.2453  0.8608 -1.2452
 6874SOL    HW327263   4.085   1.947   3.622  0.2103 -0.4105 -0.1560
 6874SOL    MW427264   4.153   1.905   3.656  0.5330  0.2062 -0.0293
 6875SOL     OW27265   5.018   5.754   5.417 -0.1845 -0.2857  0.3360
 6875SOL    HW227266   4.964   5.713   5.484 -0.7708  0.5459  0.3870
 6875SOL    HW327267   5.029   5.845   5.446  0.2158 -0.1215 -0.2954
 6875SOL    MW427268   5.012   5.761   5.429 -0.2091 -0.1543  0.2594
 6876SOL     OW27269   0.253   4.842   0.988  0.4147 -0.2792 -0.1713
 6876SOL    HW227270   0.259   4.929   1.026  1.8849  0.1602 -1.3289
 6876SOL    HW327271   0.325   4.793   1.028 -0.7512 -1.1894  0.9186
 6876SOL    MW427272   0.263   4.847   0.998  0.4548 -0.3413 -0.1803
 6877SOL     OW27273   6.013   6.020   6.002 -0.2792  0.4643  0.2411
 6877SOL    HW227274   5.950   5.965   5.956  0.3897 -0.4341  0.3826
 6877SOL    HW327275   6.040   5.968   6.078  0.6121  0.8408  0.1950
 6877SOL    MW427276   6.008   6.006   6.006 -0.0733  0.3954  0.2537
 6878SOL     OW27277   1.917   5.064   3.199 -0.0334 -0.0684 -0.4413
 6878SOL    HW227278   1.892   4.972   3.209 -1.3261  0.4002  1.0673
 6878SOL    HW327279   1.851   5.099   3.138  1.6223 -0.5307 -2.6188
 6878SOL    MW427280   1.905   5.057   3.192  0.0145 -0.0676 -0.5295
 6879SOL     OW27281   5.505   1.192   2.762  0.4221 -0.4359 -0.1090
 6879SOL    HW227282   5.411   1.178   2.774  0.1789  0.2661 -1.1052
 6879SOL    HW327283   5.543   1.174   2.848 -0.4929 -1.7530  0.0478
 6879SOL    MW427284   5.497   1.187   2.775  0.2693 -0.5171 -0.2197
 6880SOL     OW27285   2.948   0.564   4.372 -0.6180 -0.0130  0.2756
 6880SOL    HW227286   2.950   0.483   4.423 -2.0446 -0.7034 -0.7090
 6880SOL    HW327287   2.893   0.623   4.424 -1.2683 -0.3822  0.0125
 6880SOL    MW427288   2.941   0.561   4.386 -0.8920 -0.1528  0.1110
 6881SOL     OW27289   1.684   6.405   4.104  0.2119  0.1363 -0.0707
 6881SOL    HW227290   1.678   6.404   4.009  1.6342  2.7075 -0.2579
 6881SOL    HW327291   1.695   6.312   4.128 -2.0195 -0.7834 -2.1876
 6881SOL    MW427292   1.685   6.392   4.095  0.1051  0.3542 -0.3747
 6882SOL     OW27293   2.597   2.991   5.242 -0.5114  0.8674 -0.9877
 6882SOL    HW227294   2.566   2.989   5.151 -0.1259 -0.0468 -1.1159
 6882SOL    HW327295   2.581   3.080   5.271 -1.4568  0.9443 -1.6745
 6882SOL    MW427296   2.591   3.002   5.234 -0.5853  0.7569 -1.0952
 6883SOL     OW27297   6.226   3.526   1.942 -0.6695 -0.6405  0.5331
 6883SOL    HW227298   6.153   3.502   1.999 -0.4691  1.9310  2.0580
 6883SOL    HW327299   6.197   3.606   1.898  0.5896 -0.5478 -0.2009
 6883SOL    MW427300   6.213   3.534   1.943 -0.4769 -0.2890  0.6374
 6884SOL     OW27301   0.705   2.968   3.747 -0.1027  0.1071 -0.1172
 6884SOL    HW227302   0.788   3.011   3.768 -0.1230 -0.5352  1.4234
 6884SOL    HW327303   0.728   2.897   3.687  0.3740  0.2837 -0.1458
 6884SOL    MW427304   0.719   2.965   3.742 -0.0425  0.0456  0.0823
 6885SOL     OW27305   3.339   4.349   0.814 -0.4499  0.2575  0.5021
 6885SOL    HW227306   3.246   4.334   0.795 -0.3910  0.0592  0.3682
 6885SOL    HW327307   3.354   4.301   0.895 -0.4144  0.1099  0.4097
 6885SOL    MW427308   3.329   4.341   0.822 -0.4375  0.2118  0.4722
 6886SOL     OW27309   5.347   1.976   0.443 -0.1950 -0.4174 -0.0542
 6886SOL    HW227310   5.255   1.981   0.468  0.5061 -0.5866  3.0809
 6886SOL    HW327311   5.368   1.883   0.445  0.2415 -0.3190  0.1871
 6886SOL    MW427312   5.338   1.965   0.447 -0.0449 -0.4267  0.3913
 6887SOL     OW27313   4.410   2.511   2.537  0.2916 -0.4835  0.6587
 6887SOL    HW227314   4.454   2.593   2.514 -1.0424 -0.1444 -0.9637
 6887SOL    HW327315   4.479   2.445   2.533  1.0675  0.3211  0.2618
 6887SOL    MW427316   4.425   2.513   2.533  0.2180 -0.3326  0.3923
 6888SOL     OW27317   1.312   2.613   1.472  0.5933  0.0057  0.4181
 6888SOL    HW227318   1.402   2.641   1.460  0.1056  0.8084 -1.6894
 6888SOL    HW327319   1.313   2.564   1.555  2.0360  3.7535  2.8803
 6888SOL    MW427320   1.324   2.610   1.482  0.7193  0.6061  0.4649
 6889SOL     OW27321   0.966   2.410   1.566 -0.2450  0.4704 -0.1301
 6889SOL    HW227322   0.916   2.490   1.555 -1.7682 -0.1120  1.8763
 6889SOL    HW327323   1.047   2.438   1.608 -0.6653  1.0192  0.3369
 6889SOL    MW427324   0.970   2.424   1.570 -0.5015  0.4659  0.1962
 6890SOL     OW27325   5.764   4.794   4.601 -0.3839  0.2189 -0.1621
 6890SOL    HW227326   5.800   4.883   4.599 -1.6208  0.7289 -1.2213
 6890SOL    HW327327   5.756   4.769   4.509 -0.5153 -0.7978  0.1089
 6890SOL    MW427328   5.768   4.802   4.589 -0.5645  0.1520 -0.2661
 6891SOL     OW27329   3.269   6.408   3.180 -0.1013 -0.1305 -0.3947
 6891SOL    HW227330   3.271   6.504   3.182 -0.4784 -0.0859 -1.4799
 6891SOL    HW327331   3.351   6.383   3.137 -0.5419 -0.2307 -1.2030
 6891SOL    MW427332   3.280   6.418   3.174 -0.2092 -0.1378 -0.6445
 6892SOL     OW27333   2.608   4.668   1.234  0.3447  0.6738  0.3944
 6892SOL    HW227334   2.649   4.736   1.180  1.5859  0.1123  0.5957
 6892SOL    HW327335   2.517   4.696   1.243  0.7833  2.2120  0.3101
 6892SOL    MW427336   2.602   4.681   1.228  0.5663  0.8027  0.4098
 6893SOL     OW27337   6.179   4.045   4.988 -0.0317  0.5166 -0.0933
 6893SOL    HW227338   6.250   4.064   5.049  0.1953  0.1151 -0.2288
 6893SOL    HW327339   6.214   4.067   4.902  0.2238 -0.4358 -0.2509
 6893SOL    MW427340   6.193   4.050   4.984  0.0320  0.3380 -0.1319
 6894SOL     OW27341   2.064   3.207   3.066  0.0932 -0.1762 -0.0731
 6894SOL    HW227342   2.061   3.137   3.131  0.9513 -1.6724 -1.5836
 6894SOL    HW327343   1.972   3.222   3.043 -0.0145 -2.1671 -1.0987
 6894SOL    MW427344   2.051   3.200   3.071  0.1922 -0.6363 -0.4077
 6895SOL     OW27345   2.972   5.359   5.028 -0.0411  0.6124 -0.7693
 6895SOL    HW227346   2.920   5.425   5.075 -0.2830 -0.3206  0.3190
 6895SOL    HW327347   2.989   5.291   5.094  0.7797 -0.0937 -1.6848
 6895SOL    MW427348   2.968   5.359   5.043  0.0353  0.3961 -0.7465
 6896SOL     OW27349   0.102   0.159   4.548 -0.3852 -0.1045  0.0661
 6896SOL    HW227350   0.184   0.208   4.548 -0.2071 -0.3529  1.2826
 6896SOL    HW327351   0.123   0.078   4.595 -1.5433  0.2448  1.2376
 6896SOL    MW427352   0.115   0.154   4.554 -0.5145 -0.0912  0.3812
 6897SOL     OW27353   5.261   0.307   0.098  0.1073 -0.2204  0.2750
 6897SOL    HW227354   5.174   0.323   0.133  0.8323  2.3325  1.1299
 6897SOL    HW327355   5.302   0.249   0.163 -0.2672  0.3194  1.0138
 6897SOL    MW427356   5.255   0.302   0.111  0.1535  0.1876  0.4853
 6898SOL     OW27357   4.788   5.046   2.741  0.3502  0.2019 -0.0144
 6898SOL    HW227358   4.756   5.132   2.713 -2.1697 -0.2223  1.2536
 6898SOL    HW327359   4.716   4.986   2.721  1.4120 -1.3360  0.5823
 6898SOL    MW427360   4.774   5.050   2.735  0.1578 -0.0570  0.2316
 6899SOL     OW27361   4.964   3.518   1.887  0.7481 -0.4719  0.3227
 6899SOL    HW227362   4.913   3.443   1.858 -0.2767  0.2438  0.2236
 6899SOL    HW327363   4.917   3.551   1.963 -1.3378  2.6268 -2.0687
 6899SOL    MW427364   4.951   3.513   1.893  0.3377  0.0314 -0.0059
 6900SOL     OW27365   3.901   1.376   1.819 -0.3153 -0.1242 -0.2955
 6900SOL    HW227366   3.985   1.423   1.819 -0.6082  0.4126  0.0588
 6900SOL    HW327367   3.836   1.443   1.840 -0.5992 -0.9075  1.5416
 6900SOL    MW427368   3.904   1.391   1.822 -0.3914 -0.1567 -0.0064
 6901SOL     OW27369   2.346   3.335   0.511  0.4328  0.1086 -0.1052
 6901SOL    HW227370   2.332   3.242   0.495 -2.5528  0.4630 -0.2481
 6901SOL    HW327371   2.353   3.374   0.424 -1.2472  0.2987 -0.1964
 6901SOL    MW427372   2.345   3.328   0.498 -0.1828  0.1804 -0.1361
 6902SOL     OW27373   4.791   3.784   0.114 -0.1110  0.3842 -0.1622
 6902SOL    HW227374   4.707   3.793   0.069 -0.1248 -1.9534 -0.7185
 6902SOL    HW327375   4.856   3.780   0.044  0.3018  0.6128  0.1999
 6902SOL    MW427376   4.789   3.784   0.099 -0.0584  0.1059 -0.1879
 6903SOL     OW27377   6.241   4.899   4.279  0.4642  0.3410 -0.3147
 6903SOL    HW227378   6.318   4.954   4.286 -0.3627  1.4725  0.2048
 6903SOL    HW327379   6.262   4.836   4.209  1.4897  1.2022 -0.7991
 6903SOL    MW427380   6.254   4.898   4.270  0.4904  0.6039 -0.3101
 6904SOL     OW27381   1.436   0.690   2.493 -0.1458  0.0405 -0.6812
 6904SOL    HW227382   1.424   0.765   2.552  0.8523  0.3410 -0.8456
 6904SOL    HW327383   1.376   0.624   2.526  0.7755 -0.0043  1.0166
 6904SOL    MW427384   1.426   0.691   2.505  0.1075  0.0742 -0.4789
 6905SOL     OW27385   5.624   5.622   4.287  0.3168 -0.6534 -0.1722
 6905SOL    HW227386   5.538   5.649   4.319  1.6160  0.3854  2.8301
 6905SOL    HW327387   5.614   5.528   4.268 -1.0432 -1.0245  1.9875
 6905SOL    MW427388   5.611   5.613   4.289  0.3088 -0.5653  0.5089
 6906SOL     OW27389   0.606   5.440   1.457  0.3924 -0.2476 -0.2957
 6906SOL    HW227390   0.562   5.504   1.513  0.1293 -0.8225  0.1658
 6906SOL    HW327391   0.549   5.433   1.380 -1.0912 -1.9655  0.8728
 6906SOL    MW427392   0.593   5.448   1.454  0.1619 -0.5501 -0.0807
 6907SOL     OW27393   3.485   6.230   0.176  0.4433  0.5635 -0.3022
 6907SOL    HW227394   3.417   6.214   0.111  0.8485 -0.7492 -0.4222
 6907SOL    HW327395   3.567   6.206   0.132  0.7412 -0.1757  0.6232
 6907SOL    MW427396   3.487   6.225   0.162  0.5361  0.2928 -0.1959
 6908SOL     OW27397   1.679   5.871   0.316  0.2075  0.1571  0.6288
 6908SOL    HW227398   1.722   5.910   0.391  0.1446 -0.9064  1.2333
 6908SOL    HW327399   1.617   5.808   0.353 -0.1402 -0.0707 -0.2947
 6908SOL    MW427400   1.676   5.868   0.331  0.1533 -0.0133  0.5867
 6909SOL     OW27401   1.755   4.282   1.930 -0.4639  0.3003  0.1361
 6909SOL    HW227402   1.769   4.188   1.942  1.2635  0.6326  0.9884
 6909SOL    HW327403   1.842   4.321   1.939 -1.2048  2.0395  0.2086
 6909SOL    MW427404   1.768   4.275   1.932 -0.3337  0.5736  0.2581
 6910SOL     OW27405   0.256   6.298   2.624 -0.2512 -0.3875 -0.3848
 6910SOL    HW227406   0.343   6.258   2.621 -0.2720 -0.6146  1.1912
 6910SOL    HW327407   0.196   6.223   2.622 -0.4487 -0.2177 -1.8334
 6910SOL    MW427408   0.260   6.283   2.623 -0.2800 -0.3951 -0.3680
 6911SOL     OW27409   6.339   6.113   0.856 -0.0966 -0.3731  0.4586
 6911SOL    HW227410   6.284   6.041   0.824  0.0903  0.7569 -2.8176
 6911SOL    HW327411   6.277   6.183   0.879 -0.1823  0.0567 -0.9692
 6911SOL    MW427412   6.324   6.113   0.854 -0.0832 -0.1673 -0.1621
 6912SOL     OW27413   3.949   4.110   3.947  0.0532 -0.0687 -1.0509
 6912SOL    HW227414   3.953   4.167   3.870  0.4115  0.2914 -0.7698
 6912SOL    HW327415   3.988   4.028   3.918 -0.4404 -0.1705 -1.4499
 6912SOL    MW427416   3.954   4.107   3.933  0.0353 -0.0346 -1.0664
 6913SOL     OW27417   3.605   0.610   5.127  0.2661 -0.1093 -0.4316
 6913SOL    HW227418   3.604   0.541   5.061 -2.1803 -0.9585  0.3702
 6913SOL    HW327419   3.537   0.672   5.099 -0.3795 -0.1624  0.9059
 6913SOL    MW427420   3.596   0.609   5.115 -0.1419 -0.2283 -0.1493
 6914SOL     OW27421   1.111   0.147   4.764 -0.0284 -0.3409 -0.0064
 6914SOL    HW227422   1.144   0.058   4.758  1.3601  0.1797 -0.5624
 6914SOL    HW327423   1.190   0.201   4.774 -0.9072  0.7070  1.8423
 6914SOL    MW427424   1.126   0.142   4.765  0.0388 -0.1340  0.1641
 6915SOL     OW27425   4.633   5.663   4.376  0.1445 -0.5736 -0.1738
 6915SOL    HW227426   4.590   5.748   4.378 -0.6659 -0.9612 -0.4455
 6915SOL    HW327427   4.694   5.665   4.449  0.2511  0.2965 -0.2788
 6915SOL    MW427428   4.635   5.674   4.386  0.0517 -0.5099 -0.2235
 6916SOL     OW27429   0.062   6.085   5.604  0.1913 -0.0281 -0.4543
 6916SOL    HW227430   0.132   6.122   5.550  0.0583  1.3457  0.2788
 6916SOL    HW327431  -0.012   6.145   5.593  0.1351  0.2517  1.1747
 6916SOL    MW427432   0.061   6.098   5.596  0.1663  0.1901 -0.1426
 6917SOL     OW27433   3.862   0.921   3.151  0.3176 -0.5397 -0.8966
 6917SOL    HW227434   3.850   1.004   3.103 -0.0118 -0.1946 -0.2267
 6917SOL    HW327435   3.921   0.870   3.095 -0.0396 -0.1379 -1.6668
 6917SOL    MW427436   3.868   0.926   3.137  0.2270 -0.4412 -0.9099
 6918SOL     OW27437   5.312   1.404   1.343 -0.0195 -0.2272  0.3337
 6918SOL    HW227438   5.352   1.448   1.268 -0.0668 -1.1637 -0.2634
 6918SOL    HW327439   5.383   1.353   1.382  0.0937  0.5390  1.1610
 6918SOL    MW427440   5.327   1.403   1.338 -0.0108 -0.2497  0.3640
 6919SOL     OW27441   0.637   6.262   1.343 -0.2885  0.5850 -0.1554
 6919SOL    HW227442   0.614   6.246   1.434  1.7211  1.0435  0.4873
 6919SOL    HW327443   0.553   6.268   1.298 -1.3018 -0.8132  1.4388
 6919SOL    MW427444   0.623   6.261   1.349 -0.1571  0.4610  0.1398
 6920SOL     OW27445   1.828   2.817   2.042 -0.3767  0.7955  0.1645
 6920SOL    HW227446   1.883   2.895   2.036  0.8635 -0.0796 -0.4539
 6920SOL    HW327447   1.891   2.744   2.041 -1.4263 -0.1802  1.8551
 6920SOL    MW427448   1.844   2.817   2.041 -0.3516  0.5513  0.3060
 6921SOL     OW27449   4.871   1.906   2.484 -0.8239  0.0253  0.2710
 6921SOL    HW227450   4.874   1.843   2.556  0.0255  0.6157  0.7792
 6921SOL    HW327451   4.917   1.863   2.412 -1.1530 -0.3377  0.2801
 6921SOL    MW427452   4.878   1.892   2.484 -0.7553  0.0553  0.3393
 6922SOL     OW27453   3.979   5.623   3.866  0.2741 -0.0166 -0.2104
 6922SOL    HW227454   3.949   5.567   3.939  1.7565 -0.3926  0.1562
 6922SOL    HW327455   4.049   5.675   3.904 -0.5087  1.5076 -0.7883
 6922SOL    MW427456   3.984   5.622   3.881  0.3664  0.1349 -0.2383
 6923SOL     OW27457   4.991   1.569   5.220  0.2351 -0.4285  0.4773
 6923SOL    HW227458   4.972   1.502   5.155 -1.8590 -1.2738  1.8293
 6923SOL    HW327459   4.977   1.652   5.175  3.0057 -0.7946 -1.2629
 6923SOL    MW427460   4.986   1.571   5.206  0.3243 -0.5884  0.4261
 6924SOL     OW27461   2.753   3.803   3.360 -0.1903 -0.0547  0.1499
 6924SOL    HW227462   2.809   3.828   3.433 -1.6256  1.0406  0.9338
 6924SOL    HW327463   2.696   3.879   3.347 -1.6788 -1.2178 -0.4124
 6924SOL    MW427464   2.753   3.816   3.368 -0.5761 -0.0637  0.1792
 6925SOL     OW27465   4.131   3.428   0.058 -0.0088  0.5085  0.4885
 6925SOL    HW227466   4.143   3.353   0.000 -1.5414  1.2275 -0.8456
 6925SOL    HW327467   4.045   3.412   0.099 -0.1693  1.3283  0.4832
 6925SOL    MW427468   4.121   3.416   0.056 -0.2322  0.7115  0.3117
 6926SOL     OW27469   1.393   5.644   1.728  0.2929  0.2759 -0.2986
 6926SOL    HW227470   1.382   5.563   1.778  1.6123 -0.5319 -1.2402
 6926SOL    HW327471   1.318   5.646   1.669 -0.5773  0.5732  0.7678
 6926SOL    MW427472   1.382   5.634   1.727  0.3522  0.2085 -0.2821
 6927SOL     OW27473   0.916   4.786   1.609 -0.1191 -0.1780 -0.7587
 6927SOL    HW227474   0.932   4.714   1.548  0.5216 -0.1973 -0.5776
 6927SOL    HW327475   0.976   4.855   1.582  0.5525 -0.3855  0.1564
 6927SOL    MW427476   0.926   4.785   1.598  0.0541 -0.2079 -0.6141
 6928SOL     OW27477   2.031   0.152   2.501 -0.6466  0.7654  0.1152
 6928SOL    HW227478   2.044   0.246   2.491 -2.5647  1.1588  0.9291
 6928SOL    HW327479   2.059   0.134   2.591  2.6090 -0.0820 -0.9115
 6928SOL    MW427480   2.036   0.162   2.512 -0.4702  0.7055  0.0871
 6929SOL     OW27481   3.840   1.994   5.815  0.3761 -0.0491 -0.6649
 6929SOL    HW227482   3.854   1.909   5.774 -0.6413 -0.6621  0.1950
 6929SOL    HW327483   3.893   1.990   5.895 -1.0756 -0.6211  0.3074
 6929SOL    MW427484   3.849   1.982   5.820  0.0503 -0.2055 -0.4232
 6930SOL     OW27485   6.049   0.123   2.011 -0.1553  0.1402 -0.4467
 6930SOL    HW227486   6.052   0.030   1.989 -2.3823 -0.0046 -0.3678
 6930SOL    HW327487   6.023   0.167   1.930 -3.0730  0.1900  0.4097
 6930SOL    MW427488   6.046   0.117   1.998 -0.8341  0.1276 -0.3233
 6931SOL     OW27489   6.385   2.051   6.248  0.3071 -0.3082 -0.1943
 6931SOL    HW227490   6.309   1.994   6.240  0.0928  0.0737 -0.8790
 6931SOL    HW327491   6.456   2.003   6.206  0.5904 -0.9123  0.9374
 6931SOL    MW427492   6.384   2.038   6.242  0.3162 -0.3375 -0.1353
 6932SOL     OW27493   3.897   1.925   3.167  0.3132  0.0513 -0.2319
 6932SOL    HW227494   3.911   1.897   3.077  0.7418  0.6756 -0.3642
 6932SOL    HW327495   3.945   2.007   3.175 -0.2470  0.3298  0.3850
 6932SOL    MW427496   3.906   1.932   3.156  0.2958  0.1704 -0.1680
 6933SOL     OW27497   1.326   3.011   0.178 -0.1225 -0.1756  0.1760
 6933SOL    HW227498   1.348   2.936   0.233 -0.3607  0.2804  0.9023
 6933SOL    HW327499   1.403   3.023   0.122  0.3638 -0.2732  0.8178
 6933SOL    MW427500   1.339   3.002   0.178 -0.0897 -0.1283  0.3565
 6934SOL     OW27501   4.041   4.756   5.100 -0.1195 -0.2557 -0.0328
 6934SOL    HW227502   4.105   4.699   5.057 -0.7469 -0.9711 -0.0288
 6934SOL    HW327503   4.062   4.844   5.067  0.4577 -0.5678 -0.5238
 6934SOL    MW427504   4.053   4.760   5.090 -0.1261 -0.3913 -0.0970
 6935SOL     OW27505   3.293   5.864   3.750  0.5987  0.1999  0.2638
 6935SOL    HW227506   3.300   5.880   3.845  0.7490 -3.0924  0.9293
 6935SOL    HW327507   3.206   5.825   3.740  1.0795 -0.6421 -0.7456
 6935SOL    MW427508   3.282   5.861   3.761  0.6820 -0.3456  0.2184
 6936SOL     OW27509   5.475   0.986   3.385 -0.1304 -0.5867  0.4063
 6936SOL    HW227510   5.454   0.972   3.478 -0.7118 -1.3350  0.1755
 6936SOL    HW327511   5.397   0.959   3.339  0.0350  0.1100 -0.2981
 6936SOL    MW427512   5.462   0.980   3.392 -0.1853 -0.5935  0.2829
 6937SOL     OW27513   5.970   5.550   3.380  0.2892  0.0853  0.0602
 6937SOL    HW227514   5.899   5.596   3.335  0.2992 -0.0753 -0.1202
 6937SOL    HW327515   5.925   5.494   3.443  0.2644  0.1097  0.0646
 6937SOL    MW427516   5.955   5.549   3.382  0.2873  0.0673  0.0370
 6938SOL     OW27517   3.617   5.690   0.659  0.2411  0.3928 -0.3178
 6938SOL    HW227518   3.582   5.659   0.576 -1.0156  1.9445 -0.4266
 6938SOL    HW327519   3.688   5.749   0.635 -0.5137  1.3153 -0.3556
 6938SOL    MW427520   3.622   5.694   0.645 -0.0243  0.7193 -0.3371
 6939SOL     OW27521   5.137   1.181   4.996  0.4630 -0.0035 -0.1800
 6939SOL    HW227522   5.214   1.202   4.945  0.0592 -0.0045 -0.7983
 6939SOL    HW327523   5.107   1.097   4.961  0.6667 -0.4226  0.6283
 6939SOL    MW427524   5.143   1.172   4.985  0.4366 -0.0589 -0.1549
 6940SOL     OW27525   0.464   5.236   4.664 -0.1260 -1.0155 -0.0881
 6940SOL    HW227526   0.540   5.196   4.621  0.1235  1.2283 -1.9440
 6940SOL    HW327527   0.394   5.229   4.599 -0.8481 -0.9352  0.6708
 6940SOL    MW427528   0.465   5.230   4.650 -0.1883 -0.7089 -0.2329
 6941SOL     OW27529   5.329   0.099   0.267  0.0380  0.7491 -0.3333
 6941SOL    HW227530   5.265   0.090   0.337 -0.5536 -1.1062 -1.0647
 6941SOL    HW327531   5.395   0.033   0.286 -0.2432  0.0654 -1.6095
 6941SOL    MW427532   5.329   0.089   0.279 -0.0771  0.4141 -0.5982
 6942SOL     OW27533   6.289   6.051   1.709  0.5399 -0.4657 -0.3914
 6942SOL    HW227534   6.272   6.095   1.626  0.7481 -0.0436 -0.2151
 6942SOL    HW327535   6.203   6.023   1.740  0.5669 -1.5832 -1.2600
 6942SOL    MW427536   6.276   6.053   1.702  0.5709 -0.5574 -0.4827
 6943SOL     OW27537   5.134   5.129   1.854  0.1413  0.2470 -0.2189
 6943SOL    HW227538   5.130   5.091   1.767 -0.4272 -1.6091  0.5670
 6943SOL    HW327539   5.224   5.114   1.883  0.3843  1.0393 -0.5478
 6943SOL    MW427540   5.145   5.122   1.846  0.0984  0.1067 -0.1586
 6944SOL     OW27541   3.860   0.397   2.292  0.4861  0.0759 -0.1796
 6944SOL    HW227542   3.930   0.383   2.355 -1.2236  0.5720  1.9826
 6944SOL    HW327543   3.900   0.448   2.221  2.6238 -1.0129  0.1832
 6944SOL    MW427544   3.874   0.402   2.291  0.5426 -0.0023  0.1535
 6945SOL     OW27545   3.564   1.662   4.808  0.0224  0.3657 -0.8663
 6945SOL    HW227546   3.486   1.617   4.774 -0.1481 -0.1482  0.1738
 6945SOL    HW327547   3.557   1.654   4.903  1.4864  0.0740 -0.7597
 6945SOL    MW427548   3.553   1.655   4.816  0.1930  0.2594 -0.7150
 6946SOL     OW27549   3.254   0.703   1.245  0.4963 -0.0886  0.0511
 6946SOL    HW227550   3.340   0.735   1.271  0.7351  0.4426 -1.3066
 6946SOL    HW327551   3.242   0.736   1.156 -0.9098 -0.5598  0.0424
 6946SOL    MW427552   3.264   0.712   1.236  0.3423 -0.0807 -0.1292
 6947SOL     OW27553   3.985   1.412   0.455 -0.7224 -0.0458  0.5899
 6947SOL    HW227554   4.063   1.427   0.402  0.2773 -0.4703  1.8731
 6947SOL    HW327555   3.921   1.375   0.394 -0.5117  1.8444 -0.8443
 6947SOL    MW427556   3.987   1.409   0.440 -0.5627  0.1476  0.5699
 6948SOL     OW27557   0.715   1.223   0.412  0.3626 -0.0981  0.6236
 6948SOL    HW227558   0.688   1.308   0.445  2.6817  0.6661  0.7349
 6948SOL    HW327559   0.773   1.188   0.480  1.0495 -0.8532 -0.3262
 6948SOL    MW427560   0.719   1.229   0.426  0.7592 -0.0969  0.5130
 6949SOL     OW27561   0.425   2.136   1.651  0.0162  0.6033 -0.0728
 6949SOL    HW227562   0.388   2.047   1.654  1.2698 -0.0447 -2.0240
 6949SOL    HW327563   0.378   2.183   1.720 -0.8725 -1.4886  0.8566
 6949SOL    MW427564   0.414   2.130   1.660  0.0643  0.2418 -0.2076
 6950SOL     OW27565   0.681   2.723   1.768 -0.1124 -0.3234  0.1681
 6950SOL    HW227566   0.676   2.679   1.683 -2.0639  0.2871 -0.0872
 6950SOL    HW327567   0.774   2.730   1.787  0.5692  1.8150 -3.1525
 6950SOL    MW427568   0.692   2.718   1.759 -0.2799  0.0393 -0.3037
 6951SOL     OW27569   0.127   5.009   5.217  0.2628  0.5062 -0.2719
 6951SOL    HW227570   0.176   4.961   5.151  0.8627  1.0636 -0.2362
 6951SOL    HW327571   0.193   5.058   5.266 -0.1864  0.2723  0.6079
 6951SOL    MW427572   0.142   5.009   5.215  0.2827  0.5489 -0.1511
 6952SOL     OW27573   4.503   0.050   3.279  0.2027  0.5014 -0.0140
 6952SOL    HW227574   4.568   0.063   3.210 -0.1760  0.5223 -0.3681
 6952SOL    HW327575   4.430   0.106   3.254  0.1305  0.6390  0.4954
 6952SOL    MW427576   4.502   0.059   3.267  0.1432  0.5223  0.0065
 6953SOL     OW27577   3.725   0.381   4.197 -0.2625  0.7033 -0.2832
 6953SOL    HW227578   3.681   0.465   4.209 -1.7808 -0.1455  0.4044
 6953SOL    HW327579   3.779   0.393   4.118 -0.2757  2.3676 -0.0755
 6953SOL    MW427580   3.726   0.393   4.188 -0.4646  0.8109 -0.1651
 6954SOL     OW27581   0.387   0.175   6.355  0.1455 -0.0648 -0.5898
 6954SOL    HW227582   0.383   0.096   6.409  0.9916  0.9274  0.9821
 6954SOL    HW327583   0.467   0.164   6.304  0.6753  0.0992  0.1848
 6954SOL    MW427584   0.397   0.163   6.355  0.3270  0.0878 -0.2802
 6955SOL     OW27585   5.398   2.555   6.232  0.1221  0.6140  0.1393
 6955SOL    HW227586   5.420   2.647   6.221  0.7984  0.9114  3.1422
 6955SOL    HW327587   5.479   2.508   6.212  0.5304  0.9046  1.0510
 6955SOL    MW427588   5.412   2.561   6.228  0.2652  0.6916  0.6557
 6956SOL     OW27589   5.412   1.759   1.201 -0.3994 -0.0113 -0.2975
 6956SOL    HW227590   5.460   1.806   1.132  0.5142  1.2828  1.1504
 6956SOL    HW327591   5.334   1.812   1.216 -1.2230 -0.9573 -1.1614
 6956SOL    MW427592   5.408   1.772   1.194 -0.3875  0.0346 -0.2204
 6957SOL     OW27593   4.192   2.934   0.510 -0.1226  0.1727 -0.0027
 6957SOL    HW227594   4.252   2.986   0.456  1.2447 -1.9736 -0.6675
 6957SOL    HW327595   4.144   2.881   0.447 -1.5222  0.6287  0.6525
 6957SOL    MW427596   4.194   2.934   0.494 -0.1269 -0.0503 -0.0040
 6958SOL     OW27597   4.055   3.153   5.738 -0.3875  0.2647 -0.1467
 6958SOL    HW227598   4.063   3.083   5.673 -1.0116 -0.6632  0.7488
 6958SOL    HW327599   4.145   3.176   5.760 -0.1786 -0.4977 -0.2015
 6958SOL    MW427600   4.068   3.147   5.733 -0.4423  0.0417 -0.0358
 6959SOL     OW27601   2.514   2.666   5.725 -0.2187  0.2251  0.2193
 6959SOL    HW227602   2.587   2.648   5.784 -0.7753  1.0184  1.1804
 6959SOL    HW327603   2.436   2.641   5.774 -0.6439  0.0048 -0.5426
 6959SOL    MW427604   2.513   2.660   5.739 -0.3483  0.3007  0.2456
 6960SOL     OW27605   5.441   5.006   1.820  0.0423 -0.0802  0.0822
 6960SOL    HW227606   5.456   4.974   1.731  0.5141 -2.6237  0.9944
 6960SOL    HW327607   5.404   4.931   1.866 -0.0917  1.1478  2.0577
 6960SOL    MW427608   5.438   4.992   1.814  0.0869 -0.2538  0.4632
 6961SOL     OW27609   5.099   2.175   2.411 -0.3098  0.1750 -0.1441
 6961SOL    HW227610   5.146   2.195   2.330  3.3287 -0.1436  1.6935
 6961SOL    HW327611   5.145   2.099   2.447 -2.7971 -0.6631  1.5211
 6961SOL    MW427612   5.111   2.168   2.405 -0.1579  0.0224  0.3181
 6962SOL     OW27613   1.657   3.915   1.559 -0.3926  0.2402 -0.1309
 6962SOL    HW227614   1.599   3.943   1.629 -2.7115  0.0996 -1.8826
 6962SOL    HW327615   1.630   3.826   1.540 -0.6447  0.6744 -1.9692
 6962SOL    MW427616   1.646   3.907   1.566 -0.7318  0.2789 -0.6045
 6963SOL     OW27617   3.659   2.318   5.658 -0.3840  1.0131 -0.0762
 6963SOL    HW227618   3.687   2.282   5.742 -1.7799  0.0334  0.0112
 6963SOL    HW327619   3.674   2.412   5.666 -0.2763  0.9124  1.1735
 6963SOL    MW427620   3.665   2.325   5.670 -0.5539  0.8705  0.1002
 6964SOL     OW27621   4.416   1.084   3.902  0.8685  0.1381  0.0327
 6964SOL    HW227622   4.323   1.063   3.902  0.9879 -0.4295  0.6869
 6964SOL    HW327623   4.429   1.137   3.823 -0.0573  0.4859  0.1112
 6964SOL    MW427624   4.406   1.088   3.891  0.7621  0.1091  0.1294
 6965SOL     OW27625   4.240   0.209   1.521  0.0702 -0.1175 -0.2352
 6965SOL    HW227626   4.282   0.294   1.509 -1.3519  0.7059  0.2871
 6965SOL    HW327627   4.307   0.155   1.563 -0.4691  2.3784  4.5811
 6965SOL    MW427628   4.254   0.213   1.525 -0.1886  0.3204  0.4691
 6966SOL     OW27629   2.523   1.010   3.458  0.3598  0.2582  0.3752
 6966SOL    HW227630   2.600   0.973   3.502  0.6456 -0.4780 -0.6950
 6966SOL    HW327631   2.514   1.098   3.494  2.3827  0.7898 -0.2879
 6966SOL    MW427632   2.532   1.016   3.469  0.6644  0.2312  0.1465
 6967SOL     OW27633   5.541   4.564   3.993 -0.3463 -0.0084  0.4682
 6967SOL    HW227634   5.630   4.551   4.024  0.1254  1.4380 -0.2082
 6967SOL    HW327635   5.540   4.522   3.907 -0.5477 -0.6744  0.7888
 6967SOL    MW427636   5.553   4.557   3.986 -0.3106  0.0945  0.4212
 6968SOL     OW27637   3.464   3.720   5.140 -0.4185  0.1234 -0.0863
 6968SOL    HW227638   3.465   3.756   5.229  0.1503 -0.8686  0.3240
 6968SOL    HW327639   3.556   3.711   5.117 -0.3591 -3.8477  1.0251
 6968SOL    MW427640   3.476   3.724   5.149 -0.3356 -0.5314  0.1145
 6969SOL     OW27641   2.963   1.562   0.124 -0.0568 -0.5459 -0.4371
 6969SOL    HW227642   2.884   1.508   0.129 -0.1946 -0.3385 -0.3765
 6969SOL    HW327643   2.998   1.561   0.213  0.0293 -0.6668 -0.4716
 6969SOL    MW427644   2.957   1.555   0.136 -0.0636 -0.5345 -0.4336
 6970SOL     OW27645   4.188   5.051   2.522 -0.3580 -0.4489 -0.2797
 6970SOL    HW227646   4.128   5.121   2.497  0.7146 -0.2570 -2.5333
 6970SOL    HW327647   4.161   5.027   2.611 -2.2761  1.1643 -0.3591
 6970SOL    MW427648   4.177   5.057   2.531 -0.4695 -0.2107 -0.5875
 6971SOL     OW27649   5.286   0.482   3.249 -0.1794  0.3725  0.2099
 6971SOL    HW227650   5.355   0.548   3.260  0.4150 -0.2890  0.6124
 6971SOL    HW327651   5.334   0.399   3.244 -0.9204 -0.0406 -0.1474
 6971SOL    MW427652   5.302   0.480   3.250 -0.1987  0.2307  0.2159
 6972SOL     OW27653   4.617   4.196   1.892  0.5594  0.3725  0.3324
 6972SOL    HW227654   4.598   4.140   1.968  1.1250 -0.9207 -0.4338
 6972SOL    HW327655   4.706   4.228   1.907  1.0767 -0.7316 -0.2487
 6972SOL    MW427656   4.626   4.192   1.904  0.7023  0.0562  0.1546
 6973SOL     OW27657   2.687   5.268   4.783  0.1038 -0.1143  0.3241
 6973SOL    HW227658   2.646   5.192   4.824  1.1403 -0.7533  0.2105
 6973SOL    HW327659   2.680   5.338   4.848  1.7322 -1.1100  1.6334
 6973SOL    MW427660   2.681   5.267   4.797  0.4554 -0.3300  0.4818
 6974SOL     OW27661   2.645   6.132   0.209 -0.3664 -0.1216 -0.4948
 6974SOL    HW227662   2.671   6.071   0.279 -2.2532  0.7851  1.0912
 6974SOL    HW327663   2.593   6.078   0.149 -0.6050 -0.4359 -0.0126
 6974SOL    MW427664   2.642   6.117   0.210 -0.6468 -0.0434 -0.2219
 6975SOL     OW27665   5.553   5.410   0.493  0.1197 -0.5394  0.2175
 6975SOL    HW227666   5.646   5.393   0.506 -0.0616 -1.7813 -0.0249
 6975SOL    HW327667   5.542   5.409   0.397  0.0993  1.0877  0.1618
 6975SOL    MW427668   5.564   5.408   0.482  0.0931 -0.4886  0.1782
 6976SOL     OW27669   6.146   5.788   1.489 -0.1415  0.4217  0.4554
 6976SOL    HW227670   6.109   5.836   1.563 -0.9278  0.8033 -0.1685
 6976SOL    HW327671   6.205   5.724   1.529  0.4269  1.4620  1.3323
 6976SOL    MW427672   6.149   5.786   1.504 -0.1703  0.6093  0.4888
 6977SOL     OW27673   5.801   5.483   2.148 -0.1681  0.2339 -0.5947
 6977SOL    HW227674   5.709   5.464   2.129 -0.7356  0.3183  1.7463
 6977SOL    HW327675   5.798   5.565   2.198  1.1071 -0.1373  0.1178
 6977SOL    MW427676   5.788   5.491   2.152 -0.0747  0.1961 -0.1918
 6978SOL     OW27677   5.313   4.374   3.412 -0.2481  0.3943  0.2945
 6978SOL    HW227678   5.397   4.420   3.406  0.8489 -1.5743 -0.7124
 6978SOL    HW327679   5.248   4.437   3.383  1.1896  1.2831 -1.1808
 6978SOL    MW427680   5.316   4.388   3.407  0.0863  0.2519 -0.0330
 6979SOL     OW27681   5.697   4.694   4.358 -0.0293 -0.1766  0.3385
 6979SOL    HW227682   5.684   4.604   4.390 -0.8706 -0.2841 -0.2528
 6979SOL    HW327683   5.608   4.725   4.339  0.3953 -0.1166 -1.8406
 6979SOL    MW427684   5.683   4.686   4.360 -0.0843 -0.1829 -0.0271
 6980SOL     OW27685   0.991   1.057   5.532  0.0224  0.4107 -0.9353
 6980SOL    HW227686   1.072   1.008   5.541  0.1932  0.1997 -3.1911
 6980SOL    HW327687   0.958   1.066   5.622  2.1539 -0.1002 -0.0540
 6980SOL    MW427688   0.997   1.052   5.545  0.3262  0.3154 -1.1166
 6981SOL     OW27689   4.531   6.040   1.241  0.7719  0.2720 -0.1175
 6981SOL    HW227690   4.623   6.018   1.257  0.8675 -0.2387 -1.2241
 6981SOL    HW327691   4.535   6.121   1.189  0.6249 -0.0796 -0.6810
 6981SOL    MW427692   4.544   6.048   1.236  0.7651  0.1583 -0.3378
 6982SOL     OW27693   2.304   2.634   5.908 -0.5014 -0.0487 -0.2469
 6982SOL    HW227694   2.247   2.691   5.960 -0.7902 -0.9066  0.3852
 6982SOL    HW327695   2.253   2.614   5.830  0.0907  1.5791 -1.0926
 6982SOL    MW427696   2.290   2.639   5.905 -0.4614  0.0529 -0.2751
 6983SOL     OW27697   4.241   4.097   3.727  0.7528 -0.5021 -0.0027
 6983SOL    HW227698   4.280   4.159   3.665 -0.7368  0.6395  0.1576
 6983SOL    HW327699   4.195   4.034   3.672 -1.4181  1.0776 -0.1338
 6983SOL    MW427700   4.240   4.097   3.711  0.2698 -0.1431  0.0011
 6984SOL     OW27701   2.728   2.826   4.622 -0.0605 -0.5472  0.0174
 6984SOL    HW227702   2.767   2.861   4.542  0.4244  0.2245  0.5850
 6984SOL    HW327703   2.641   2.797   4.595 -0.8811  2.0058 -0.2759
 6984SOL    MW427704   2.722   2.827   4.608 -0.1048 -0.1086  0.0536
 6985SOL     OW27705   5.564   5.948   1.696  0.1676 -0.1773  0.3317
 6985SOL    HW227706   5.480   5.905   1.681  0.0575 -0.5755  1.8915
 6985SOL    HW327707   5.549   6.039   1.671 -0.1339 -0.6430 -1.2632
 6985SOL    MW427708   5.550   5.955   1.691  0.1133 -0.2913  0.3271
 6986SOL     OW27709   4.251   2.950   5.039 -0.3312 -0.1568  0.9347
 6986SOL    HW227710   4.168   2.941   5.084 -0.2987  2.2007  1.6008
 6986SOL    HW327711   4.242   3.031   4.988  0.5536 -1.3702 -1.3100
 6986SOL    MW427712   4.239   2.959   5.038 -0.2102 -0.0059  0.7264
 6987SOL     OW27713   4.707   2.562   1.529 -0.1856 -0.4954  0.0852
 6987SOL    HW227714   4.654   2.623   1.479 -1.5201 -0.3852  1.5826
 6987SOL    HW327715   4.744   2.614   1.600  0.5924 -0.9355  0.0179
 6987SOL    MW427716   4.705   2.577   1.532 -0.2590 -0.5389  0.2739
 6988SOL     OW27717   4.578   0.954   5.530  0.1876  0.1754 -0.4316
 6988SOL    HW227718   4.560   0.891   5.600  1.7466  0.3266  0.1400
 6988SOL    HW327719   4.660   0.995   5.555  0.3659  0.8156 -1.9585
 6988SOL    MW427720   4.586   0.951   5.543  0.4168  0.2798 -0.5576
 6989SOL     OW27721   4.361   5.823   6.342 -0.4093 -0.7995 -0.0859
 6989SOL    HW227722   4.429   5.875   6.300 -1.1409 -0.6758 -1.1506
 6989SOL    HW327723   4.387   5.732   6.325 -0.9408 -0.7532 -1.2530
 6989SOL    MW427724   4.373   5.818   6.334 -0.5760 -0.7771 -0.3804
 6990SOL     OW27725   2.337   0.845   5.745 -0.0007  0.1495 -0.1159
 6990SOL    HW227726   2.318   0.816   5.656  1.8984 -0.8550 -0.2526
 6990SOL    HW327727   2.303   0.775   5.801 -0.8802  0.6151 -0.0510
 6990SOL    MW427728   2.330   0.832   5.741  0.1338  0.0784 -0.1254
 6991SOL     OW27729   3.735   3.155   4.742 -0.7156  0.6217 -0.4095
 6991SOL    HW227730   3.704   3.154   4.832  0.2004 -0.4718 -0.0930
 6991SOL    HW327731   3.820   3.112   4.744 -0.3827  1.1450 -1.7004
 6991SOL    MW427732   3.742   3.149   4.754 -0.5508  0.5465 -0.5380
 6992SOL     OW27733   5.732   3.263   0.466 -0.0219  0.0756 -0.0780
 6992SOL    HW227734   5.715   3.300   0.552  0.6419  0.5518 -0.1429
 6992SOL    HW327735   5.810   3.209   0.478 -0.7913 -1.0706 -0.0549
 6992SOL    MW427736   5.740   3.261   0.479 -0.0358 -0.0128 -0.0835
 6993SOL     OW27737   1.070   6.027   0.322 -0.1320 -0.8665  0.2991
 6993SOL    HW227738   1.152   6.000   0.279 -0.6228 -1.8463 -0.0434
 6993SOL    HW327739   1.014   5.949   0.318 -1.0087 -0.2693  0.7148
 6993SOL    MW427740   1.074   6.013   0.316 -0.3124 -0.9170  0.3088
 6994SOL     OW27741   2.186   4.572   0.876 -0.3824  0.6968  0.2729
 6994SOL    HW227742   2.276   4.548   0.854  0.3615  1.5433  2.1701
 6994SOL    HW327743   2.148   4.492   0.911 -0.4832  0.2664 -0.7734
 6994SOL    MW427744   2.193   4.559   0.878 -0.2975  0.7517  0.3852
 6995SOL     OW27745   3.761   5.839   3.889  0.1859  0.3306  0.0865
 6995SOL    HW227746   3.722   5.763   3.846  0.7008  0.2965 -0.3345
 6995SOL    HW327747   3.825   5.872   3.826  0.7481  0.4595  0.7122
 6995SOL    MW427748   3.764   5.833   3.875  0.3280  0.3431  0.1135
 6996SOL     OW27749   3.333   4.439   3.519 -0.1203 -0.0820  0.4978
 6996SOL    HW227750   3.272   4.381   3.564 -1.2148  2.4888  2.5443
 6996SOL    HW327751   3.395   4.467   3.587 -0.7133  2.4863  0.0654
 6996SOL    MW427752   3.333   4.435   3.534 -0.3429  0.5960  0.7108
 6997SOL     OW27753   5.300   3.273   4.791 -0.0549  0.0854 -0.2751
 6997SOL    HW227754   5.242   3.202   4.819  0.0091  0.4948  0.9239
 6997SOL    HW327755   5.250   3.320   4.725 -1.0562  0.3684  0.6656
 6997SOL    MW427756   5.286   3.270   4.786 -0.1786  0.1767  0.0073
 6998SOL     OW27757   0.085   4.573   5.928 -0.1369 -0.7908  0.0914
 6998SOL    HW227758   0.048   4.494   5.966  1.3798 -1.3954  0.3841
 6998SOL    HW327759   0.147   4.542   5.862  1.0167  0.0950  0.6995
 6998SOL    MW427760   0.089   4.559   5.924  0.2154 -0.7537  0.2103
 6999SOL     OW27761   1.621   0.202   1.294  0.6840 -0.2177  0.1058
 6999SOL    HW227762   1.608   0.286   1.250 -0.2420  0.1179  0.9915
 6999SOL    HW327763   1.668   0.149   1.230 -0.7108  0.2185 -1.3527
 6999SOL    MW427764   1.626   0.206   1.279  0.3778 -0.1158  0.0302
 7000SOL     OW27765   2.560   3.210   3.650  0.1698  0.4723  0.1597
 7000SOL    HW227766   2.476   3.233   3.610 -1.0667  0.2838  2.4951
 7000SOL    HW327767   2.601   3.293   3.672 -0.0239  0.5506  0.2235
 7000SOL    MW427768   2.554   3.224   3.648 -0.0189  0.4578  0.4763
 7001SOL     OW27769   3.171   2.468   4.038  0.5038 -0.5449  0.0483
 7001SOL    HW227770   3.159   2.553   4.081  3.2481  0.1126 -0.2790
 7001SOL    HW327771   3.175   2.405   4.110 -0.7873 -0.2998  0.3449
 7001SOL    MW427772   3.170   2.471   4.053  0.6955 -0.4258  0.0442
 7002SOL     OW27773   5.398   2.828   2.921  0.5002  0.5572 -0.2809
 7002SOL    HW227774   5.333   2.867   2.980  0.8467  0.8998 -0.1256
 7002SOL    HW327775   5.376   2.735   2.920  1.2866  0.3154  1.4299
 7002SOL    MW427776   5.386   2.821   2.928  0.6497  0.5705 -0.0347
 7003SOL     OW27777   3.913   0.233   3.899  0.5291 -0.0423  0.4838
 7003SOL    HW227778   3.927   0.287   3.821 -1.7812 -2.3306 -1.7110
 7003SOL    HW327779   3.987   0.171   3.898 -0.3784 -1.1788 -1.0216
 7003SOL    MW427780   3.925   0.232   3.888  0.1046 -0.4941 -0.0044
 7004SOL     OW27781   0.800   4.943   4.070 -0.2661  0.1609 -0.3578
 7004SOL    HW227782   0.848   4.920   4.150 -1.8452 -0.6134  0.4213
 7004SOL    HW327783   0.728   4.999   4.100 -0.1413  0.9220 -1.4207
 7004SOL    MW427784   0.797   4.947   4.085 -0.4579  0.1591 -0.3952
 7005SOL     OW27785   0.457   4.369   4.117  0.4595  0.0131  0.3488
 7005SOL    HW227786   0.386   4.358   4.180  1.6706 -1.9014  1.4940
 7005SOL    HW327787   0.537   4.353   4.167  1.5576 -0.1672 -1.3581
 7005SOL    MW427788   0.458   4.365   4.132  0.7641 -0.2632  0.2747
 7006SOL     OW27789   2.045   3.733   1.977  0.1054 -0.5494 -0.1743
 7006SOL    HW227790   1.955   3.748   1.948 -0.2981 -0.6106  0.9846
 7006SOL    HW327791   2.097   3.740   1.898 -0.9262 -0.5446 -0.8737
 7006SOL    MW427792   2.040   3.736   1.963 -0.0840 -0.5568 -0.1137
 7007SOL     OW27793   4.821   4.430   4.581 -0.1779  0.4394 -0.6092
 7007SOL    HW227794   4.832   4.343   4.542 -1.0206 -0.3355  0.8370
 7007SOL    HW327795   4.910   4.466   4.583  0.3284 -0.7693 -0.3556
 7007SOL    MW427796   4.834   4.423   4.576 -0.2223  0.1777 -0.3849
 7008SOL     OW27797   0.577   4.679   6.409  0.5306  0.2420  0.9094
 7008SOL    HW227798   0.669   4.678   6.383  0.8988  0.1549  2.1186
 7008SOL    HW327799   0.579   4.711   6.500 -0.5837 -0.2369  1.1118
 7008SOL    MW427800   0.590   4.683   6.418  0.4322  0.1673  1.0956
 7009SOL     OW27801   6.037   5.245   6.247 -0.2225 -0.0395 -0.6145
 7009SOL    HW227802   6.068   5.155   6.241 -1.0185 -0.3905  0.1783
 7009SOL    HW327803   5.997   5.250   6.334  0.6488  1.3513 -0.2617
 7009SOL    MW427804   6.036   5.234   6.258 -0.2125  0.0977 -0.4634
 7010SOL     OW27805   1.963   1.059   2.022 -0.1449  0.5462  0.0904
 7010SOL    HW227806   1.969   1.155   2.027  0.0921  0.4627  1.7939
 7010SOL    HW327807   2.019   1.036   1.947  1.2237  1.6226  0.7316
 7010SOL    MW427808   1.971   1.069   2.013  0.0669  0.6772  0.3998
 7011SOL     OW27809   5.678   1.075   3.736 -0.1603  0.3803  0.1549
 7011SOL    HW227810   5.687   1.168   3.715 -0.0869  0.2834 -0.2347
 7011SOL    HW327811   5.687   1.072   3.832 -0.5253  0.8161  0.2070
 7011SOL    MW427812   5.680   1.087   3.746 -0.1988  0.4250  0.1104
 7012SOL     OW27813   4.303   3.550   3.824 -0.1439  0.4366 -0.3308
 7012SOL    HW227814   4.355   3.580   3.898  0.1658  1.0400 -0.7883
 7012SOL    HW327815   4.213   3.549   3.857  0.0438  0.2639  0.1843
 7012SOL    MW427816   4.298   3.554   3.838 -0.0783  0.4934 -0.3232
 7013SOL     OW27817   0.571   1.176   4.238  0.0927 -0.1724  0.4093
 7013SOL    HW227818   0.616   1.183   4.154  1.7392 -1.4374  1.1391
 7013SOL    HW327819   0.480   1.199   4.218  0.9598  2.3694 -1.1465
 7013SOL    MW427820   0.565   1.180   4.224  0.4244 -0.0040  0.3004
 7014SOL     OW27821   4.328   1.064   0.409 -0.0978 -0.2118  0.4184
 7014SOL    HW227822   4.238   1.042   0.431 -0.0301 -0.0814  0.8362
 7014SOL    HW327823   4.365   1.099   0.490 -0.2499  1.6443 -0.2787
 7014SOL    MW427824   4.321   1.065   0.423 -0.1090  0.0503  0.3816
 7015SOL     OW27825   4.442   6.349   6.144  0.1077 -0.0185 -0.4584
 7015SOL    HW227826   4.349   6.353   6.124 -0.0143 -0.5778 -0.0264
 7015SOL    HW327827   4.486   6.356   6.059 -0.3362 -0.2629 -0.7080
 7015SOL    MW427828   4.436   6.351   6.130  0.0330 -0.1245 -0.4344
 7016SOL     OW27829   1.369   1.106   3.712  0.1916 -0.5198  0.4936
 7016SOL    HW227830   1.373   1.015   3.682 -0.2688 -0.7779  1.1943
 7016SOL    HW327831   1.288   1.140   3.674 -0.3983 -0.8503  1.4134
 7016SOL    MW427832   1.359   1.099   3.703  0.0530 -0.5975  0.7074
 7017SOL     OW27833   3.847   2.520   0.356 -0.0807  0.1307  0.0895
 7017SOL    HW227834   3.818   2.573   0.282  0.0750 -0.1351 -0.1628
 7017SOL    HW327835   3.849   2.582   0.429 -0.2328  0.3965 -0.1270
 7017SOL    MW427836   3.844   2.535   0.356 -0.0802  0.1307  0.0276
 7018SOL     OW27837   0.992   0.675   1.005 -0.0647 -0.5373 -0.4086
 7018SOL    HW227838   1.050   0.600   0.993  0.0477 -0.2740 -1.7659
 7018SOL    HW327839   0.924   0.644   1.065 -0.1643 -1.8219 -1.1465
 7018SOL    MW427840   0.991   0.661   1.011 -0.0630 -0.6721 -0.6850
 7019SOL     OW27841   4.099   3.094   0.144  0.0391  0.3047  0.0295
 7019SOL    HW227842   4.032   3.161   0.162 -0.0011 -0.0950  1.4910
 7019SOL    HW327843   4.182   3.142   0.148 -0.0232  0.3810  0.5704
 7019SOL    MW427844   4.101   3.110   0.147  0.0256  0.2620  0.2937
 7020SOL     OW27845   5.040   3.677   6.004  0.3253 -0.0315 -0.4804
 7020SOL    HW227846   5.127   3.712   6.024  0.5743 -0.5464 -0.6538
 7020SOL    HW327847   4.993   3.678   6.088  0.6405 -0.1631 -0.3041
 7020SOL    MW427848   5.045   3.682   6.018  0.3997 -0.1168 -0.4800
 7021SOL     OW27849   2.945   5.760   4.037  0.7258  0.4346  0.0985
 7021SOL    HW227850   2.900   5.676   4.033  1.7810 -0.1144 -1.3145
 7021SOL    HW327851   3.000   5.755   4.115  1.0837 -0.3736 -0.1987
 7021SOL    MW427852   2.947   5.749   4.047  0.9123  0.2555 -0.1272
 7022SOL     OW27853   1.254   4.060   0.969  0.3112 -0.1187  0.4461
 7022SOL    HW227854   1.261   4.142   1.017  0.6988 -0.3314  0.7584
 7022SOL    HW327855   1.229   4.086   0.880 -1.2307  0.2449  0.9397
 7022SOL    MW427856   1.251   4.074   0.963  0.1589 -0.0988  0.5525
 7023SOL     OW27857   2.855   5.259   2.819  0.0352 -0.2355 -0.8239
 7023SOL    HW227858   2.796   5.314   2.767  0.6991  0.3115 -1.0106
 7023SOL    HW327859   2.796   5.200   2.868 -0.6008 -0.8743 -2.3046
 7023SOL    MW427860   2.839   5.258   2.819  0.0389 -0.2476 -1.0439
 7024SOL     OW27861   5.588   6.410   4.540  0.0557  0.7646  0.0402
 7024SOL    HW227862   5.674   6.389   4.504 -0.1389 -0.0801  0.0479
 7024SOL    HW327863   5.605   6.478   4.605  0.6775  0.7886 -0.1394
 7024SOL    MW427864   5.601   6.416   4.544  0.1121  0.6563  0.0175
 7025SOL     OW27865   3.954   5.825   2.113  0.2931 -0.1897  0.0306
 7025SOL    HW227866   3.868   5.868   2.119 -0.6100 -1.4094 -2.6003
 7025SOL    HW327867   3.934   5.732   2.114  1.4662 -0.4955 -1.4012
 7025SOL    MW427868   3.940   5.819   2.114  0.3287 -0.3910 -0.5054
 7026SOL     OW27869   1.114   2.694   1.819  0.9759 -0.6448  0.1259
 7026SOL    HW227870   1.041   2.668   1.875  1.2942 -0.2534  0.7436
 7026SOL    HW327871   1.180   2.726   1.881  1.7503 -1.2005 -0.4029
 7026SOL    MW427872   1.113   2.695   1.835  1.1201 -0.6665  0.1376
 7027SOL     OW27873   3.833   4.889   0.554  0.2703 -0.0180 -0.0625
 7027SOL    HW227874   3.903   4.944   0.518 -0.7949  1.9725  0.7530
 7027SOL    HW327875   3.798   4.843   0.478  3.5798 -2.5364 -0.2677
 7027SOL    MW427876   3.838   4.890   0.539  0.5664 -0.0877  0.0180
 7028SOL     OW27877   6.237   0.496   4.812 -0.0004  0.1753  0.7837
 7028SOL    HW227878   6.272   0.409   4.793  1.4750  0.6641  1.1338
 7028SOL    HW327879   6.261   0.512   4.903  0.5770  1.3319  0.4385
 7028SOL    MW427880   6.244   0.486   4.821  0.2705  0.3924  0.7844
 7029SOL     OW27881   2.899   5.262   1.121  0.0987  0.5321  0.4933
 7029SOL    HW227882   2.980   5.313   1.125  0.6431 -0.2691  0.0823
 7029SOL    HW327883   2.831   5.326   1.106  1.0332  0.9804 -2.4119
 7029SOL    MW427884   2.901   5.277   1.120  0.2938  0.4856  0.0557
 7030SOL     OW27885   1.931   2.839   0.437  0.0934  0.6060 -0.0867
 7030SOL    HW227886   1.920   2.929   0.467  0.1387  0.5086  0.2328
 7030SOL    HW327887   1.962   2.792   0.514  0.3150  0.3686 -0.3185
 7030SOL    MW427888   1.934   2.844   0.451  0.1286  0.5618 -0.0751
 7031SOL     OW27889   5.618   2.802   1.734  0.5771 -0.4932 -0.7457
 7031SOL    HW227890   5.648   2.823   1.823  2.2729 -2.2217 -0.8351
 7031SOL    HW327891   5.650   2.874   1.680  2.6938 -1.1562 -0.4556
 7031SOL    MW427892   5.626   2.814   1.739  1.0801 -0.8087 -0.7192
 7032SOL     OW27893   3.938   4.565   1.534  0.6575  0.2206 -0.0937
 7032SOL    HW227894   3.934   4.474   1.505 -0.0608  0.0484  0.4992
 7032SOL    HW327895   4.017   4.601   1.493  1.3006 -0.8513  0.1684
 7032SOL    MW427896   3.948   4.558   1.525  0.6476  0.0565  0.0191
 7033SOL     OW27897   3.618   0.713   4.754  0.2710  0.6403  0.0012
 7033SOL    HW227898   3.686   0.646   4.757 -0.9986 -0.7431 -0.7261
 7033SOL    HW327899   3.568   0.692   4.675 -0.8293  1.7899  0.3677
 7033SOL    MW427900   3.621   0.702   4.744 -0.0417  0.6095 -0.0464
 7034SOL     OW27901   3.922   1.211   3.081  0.0877 -0.2445  0.5175
 7034SOL    HW227902   3.963   1.258   3.008 -2.0354 -1.0380 -1.3141
 7034SOL    HW327903   3.935   1.268   3.156  2.0894  0.7813 -0.5135
 7034SOL    MW427904   3.929   1.225   3.081  0.0717 -0.2139  0.1398
 7035SOL     OW27905   4.500   5.607   3.986 -0.1069  0.8088  0.5720
 7035SOL    HW227906   4.547   5.691   3.985  0.1377  0.6829 -0.6187
 7035SOL    HW327907   4.453   5.605   3.902  2.0525 -1.4073 -0.7280
 7035SOL    MW427908   4.500   5.618   3.974  0.2103  0.4998  0.2434
 7036SOL     OW27909   4.043   6.237   5.683  0.1874  0.1626  0.4028
 7036SOL    HW227910   4.044   6.284   5.767  0.2317  0.1079  0.4328
 7036SOL    HW327911   4.094   6.292   5.624 -1.3227  1.1152 -0.0842
 7036SOL    MW427912   4.050   6.250   5.686 -0.0060  0.2811  0.3425
 7037SOL     OW27913   1.324   3.630   0.376  0.3962 -0.0952 -1.0414
 7037SOL    HW227914   1.418   3.645   0.377  0.4097 -0.2119 -0.1080
 7037SOL    HW327915   1.310   3.558   0.436 -0.4160  0.7119 -0.2320
 7037SOL    MW427916   1.334   3.622   0.384  0.2908 -0.0041 -0.8114
 7038SOL     OW27917   1.318   2.527   0.169 -0.8318 -0.4693 -0.2751
 7038SOL    HW227918   1.361   2.592   0.225 -0.5024 -1.1277  0.2446
 7038SOL    HW327919   1.240   2.572   0.136 -1.9413 -0.5780  1.9947
 7038SOL    MW427920   1.313   2.541   0.172 -0.9348 -0.5705  0.0930
 7039SOL     OW27921   4.123   3.194   2.192 -0.2266 -0.1239 -0.5515
 7039SOL    HW227922   4.087   3.117   2.234  1.0667 -0.5923 -0.2681
 7039SOL    HW327923   4.215   3.174   2.178  0.1719  1.4104 -0.3714
 7039SOL    MW427924   4.130   3.181   2.195 -0.0034  0.0167 -0.4904
 7040SOL     OW27925   5.142   0.923   3.986  0.6031 -0.4813 -0.0377
 7040SOL    HW227926   5.140   1.002   4.039  0.6904  0.6434 -1.6200
 7040SOL    HW327927   5.187   0.949   3.905  0.2638 -2.0345 -0.7820
 7040SOL    MW427928   5.148   0.937   3.982  0.5698 -0.5378 -0.3447
 7041SOL     OW27929   0.639   1.567   0.196  0.1090  0.5190  0.5923
 7041SOL    HW227930   0.628   1.485   0.149  2.3904 -0.0930  0.9977
 7041SOL    HW327931   0.623   1.635   0.130  0.0966 -0.2832 -0.2546
 7041SOL    MW427932   0.636   1.566   0.181  0.4084  0.3324  0.5341
 7042SOL     OW27933   3.300   0.220   1.404  0.4466 -0.4363 -0.1209
 7042SOL    HW227934   3.355   0.281   1.355 -1.1599  1.0916 -0.1077
 7042SOL    HW327935   3.270   0.157   1.338  1.1921 -0.5567 -0.3586
 7042SOL    MW427936   3.303   0.220   1.389  0.3330 -0.2506 -0.1505
 7043SOL     OW27937   4.598   5.927   2.635  0.1477 -0.6437 -0.3665
 7043SOL    HW227938   4.534   5.966   2.695 -2.9805 -0.5500 -3.4422
 7043SOL    HW327939   4.656   5.999   2.611 -3.4565  1.6488 -3.3234
 7043SOL    MW427940   4.597   5.942   2.640 -0.7405 -0.3289 -1.1624
 7044SOL     OW27941   4.946   2.663   5.611 -0.0430  0.1465 -0.2992
 7044SOL    HW227942   4.976   2.721   5.681  0.6801 -1.1405  0.5031
 7044SOL    HW327943   4.940   2.577   5.653 -0.1053 -0.5516 -1.6933
 7044SOL    MW427944   4.949   2.660   5.626  0.0442 -0.1154 -0.3773
 7045SOL     OW27945   1.362   6.039   2.478  0.0379  0.3457 -0.3465
 7045SOL    HW227946   1.307   5.986   2.420  1.4977 -0.4434 -1.0602
 7045SOL    HW327947   1.443   6.052   2.429  1.6913 -1.1089  1.8128
 7045SOL    MW427948   1.365   6.034   2.464  0.4486  0.0497 -0.1557
 7046SOL     OW27949   2.854   1.925   1.877 -0.2831  0.0578  1.5028
 7046SOL    HW227950   2.915   1.984   1.922  0.0529  1.3793 -0.5471
 7046SOL    HW327951   2.909   1.876   1.817 -1.0841  0.7147  0.1763
 7046SOL    MW427952   2.869   1.927   1.875 -0.3445  0.3188  1.0573
 7047SOL     OW27953   1.169   3.856   1.415 -0.8047  0.3045 -0.3073
 7047SOL    HW227954   1.161   3.852   1.319 -0.2016  1.0211 -0.3960
 7047SOL    HW327955   1.159   3.949   1.436  2.3531  0.7117 -0.0375
 7047SOL    MW427956   1.167   3.868   1.405 -0.3085  0.4528 -0.2834
 7048SOL     OW27957   3.708   4.202   4.982 -0.7204  1.0232 -0.1311
 7048SOL    HW227958   3.690   4.134   5.046  1.0008  0.9723  0.3261
 7048SOL    HW327959   3.657   4.277   5.012 -1.3269  0.4576  0.2838
 7048SOL    MW427960   3.699   4.203   4.994 -0.5733  0.9419 -0.0160
 7049SOL     OW27961   2.030   5.704   1.219  0.2101 -0.1977  0.4346
 7049SOL    HW227962   2.107   5.656   1.249 -0.3210 -2.0975 -1.0795
 7049SOL    HW327963   2.062   5.792   1.200  1.1503  0.2302  3.5560
 7049SOL    MW427964   2.044   5.710   1.220  0.2641 -0.3919  0.6466
 7050SOL     OW27965   0.183   4.575   6.321 -0.0150 -0.0919 -0.2376
 7050SOL    HW227966   0.200   4.664   6.350  0.1924 -0.1647 -0.1293
 7050SOL    HW327967   0.110   4.582   6.260  0.8825  0.3423 -1.3048
 7050SOL    MW427968   0.176   4.588   6.317  0.1308 -0.0442 -0.3641
 7051SOL     OW27969   4.880   1.320   4.728  0.3793  0.4270 -0.2688
 7051SOL    HW227970   4.897   1.390   4.666  1.2136 -0.2297 -0.7995
 7051SOL    HW327971   4.906   1.356   4.813  1.1012  0.6574 -0.5814
 7051SOL    MW427972   4.886   1.334   4.731  0.5846  0.3708 -0.3800
 7052SOL     OW27973   3.313   5.585   1.347  0.2020  0.2345  0.1767
 7052SOL    HW227974   3.220   5.576   1.365  0.2436 -0.2485  0.1573
 7052SOL    HW327975   3.317   5.620   1.258  0.0506 -0.6202 -0.1745
 7052SOL    MW427976   3.302   5.589   1.337  0.1875  0.0580  0.1278
 7053SOL     OW27977   0.088   4.458   0.715 -0.6798 -0.4267  1.1092
 7053SOL    HW227978  -0.007   4.466   0.705 -0.3934  0.3878 -2.2713
 7053SOL    HW327979   0.120   4.548   0.703  0.6119 -1.1153 -1.2633
 7053SOL    MW427980   0.079   4.471   0.712 -0.4716 -0.4101  0.3502
 7054SOL     OW27981   5.046   5.940   3.462  0.3840 -0.3470  0.1884
 7054SOL    HW227982   4.970   5.884   3.478  0.6772 -0.4441  1.3121
 7054SOL    HW327983   5.010   6.027   3.451  0.0434 -0.5345 -0.2324
 7054SOL    MW427984   5.031   5.944   3.462  0.3777 -0.3846  0.2811
 7055SOL     OW27985   5.089   1.958   0.167 -0.5403  0.3288 -0.1463
 7055SOL    HW227986   5.043   1.956   0.251 -0.1051 -0.2726  0.0790
 7055SOL    HW327987   5.166   2.013   0.183 -0.5138  0.3028 -0.1867
 7055SOL    MW427988   5.093   1.965   0.181 -0.4794  0.2460 -0.1219
 7056SOL     OW27989   2.843   3.741   6.214 -0.7978 -0.2468 -0.0854
 7056SOL    HW227990   2.861   3.823   6.259  2.3480 -1.1491  0.5728
 7056SOL    HW327991   2.853   3.761   6.121 -0.4665  0.2083  0.0460
 7056SOL    MW427992   2.847   3.754   6.208 -0.3390 -0.3058  0.0188
 7057SOL     OW27993   2.088   0.679   4.073  0.8412 -0.3282  0.5631
 7057SOL    HW227994   2.049   0.672   3.986  1.1341  3.3216  0.0005
 7057SOL    HW327995   2.173   0.634   4.065 -0.0996 -2.0667 -0.2702
 7057SOL    MW427996   2.094   0.672   4.060  0.7557 -0.0760  0.3790
 7058SOL     OW27997   5.782   0.141   0.734  0.5370  0.2850  0.1860
 7058SOL    HW227998   5.690   0.158   0.712  0.9369  0.5533 -1.4436
 7058SOL    HW327999   5.828   0.153   0.651  1.7961 -1.7818  0.5124
 7058SOL    MW428000   5.776   0.145   0.720  0.7559  0.0477  0.0140
 7059SOL     OW28001   5.389   3.109   4.553  0.3061  0.2016  0.8109
 7059SOL    HW228002   5.402   3.075   4.641  1.9497  2.6405  1.6248
 7059SOL    HW328003   5.369   3.202   4.567  1.0554  0.7405 -1.4003
 7059SOL    MW428004   5.388   3.117   4.567  0.6218  0.5945  0.6265
 7060SOL     OW28005   5.530   6.101   2.119  0.0387  0.6557 -0.3887
 7060SOL    HW228006   5.482   6.022   2.093  1.5199 -0.5165  0.2915
 7060SOL    HW328007   5.590   6.071   2.188  1.6690  2.0715 -1.1284
 7060SOL    MW428008   5.531   6.086   2.125  0.4492  0.6878 -0.3965
 7061SOL     OW28009   6.079   1.452   5.382  0.1753  1.0889  0.4752
 7061SOL    HW228010   6.099   1.408   5.464  0.3412 -1.3595 -0.7825
 7061SOL    HW328011   5.983   1.455   5.379  0.1711  2.1976  1.2219
 7061SOL    MW428012   6.069   1.447   5.392  0.1966  0.9121  0.4078
 7062SOL     OW28013   2.751   3.948   2.081  0.3320 -0.1355  0.2858
 7062SOL    HW228014   2.816   3.953   2.011  1.6972  0.7891  1.5620
 7062SOL    HW328015   2.765   4.027   2.132  1.0670 -1.8804  2.9967
 7062SOL    MW428016   2.762   3.959   2.078  0.6091 -0.2438  0.8119
 7063SOL     OW28017   2.109   1.237   3.613 -0.1260  0.0601 -0.0366
 7063SOL    HW228018   2.169   1.296   3.567 -0.1945 -0.6096 -0.9952
 7063SOL    HW328019   2.040   1.218   3.550 -1.0035  0.2804  0.8291
 7063SOL    MW428020   2.108   1.243   3.599 -0.2508  0.0008 -0.0489
 7064SOL     OW28021   1.833   4.574   4.802  0.4263  0.0371 -0.3058
 7064SOL    HW228022   1.870   4.485   4.796  0.9949  0.3173 -1.1780
 7064SOL    HW328023   1.763   4.575   4.736 -0.6727 -0.2545  0.8248
 7064SOL    MW428024   1.829   4.562   4.792  0.3563  0.0356 -0.2717
 7065SOL     OW28025   2.060   0.410   2.822 -0.4609 -0.0126 -0.3485
 7065SOL    HW228026   1.968   0.435   2.812 -0.2234  1.5904  1.0355
 7065SOL    HW328027   2.106   0.461   2.756 -0.2378  1.6397  1.0227
 7065SOL    MW428028   2.054   0.420   2.812 -0.4002  0.4169  0.0150
 7066SOL     OW28029   4.866   4.939   1.271 -0.2940  0.4015 -0.2522
 7066SOL    HW228030   4.906   4.910   1.189 -0.7937  1.6787 -0.9833
 7066SOL    HW328031   4.921   5.010   1.301  0.0053 -0.1963  0.6634
 7066SOL    MW428032   4.878   4.944   1.264 -0.3204  0.4911 -0.2279
 7067SOL     OW28033   0.614   1.424   0.706  0.0178  0.1728 -0.1400
 7067SOL    HW228034   0.588   1.332   0.715 -0.4305  0.0881 -1.8743
 7067SOL    HW328035   0.588   1.447   0.617  0.1114  2.0010  0.2679
 7067SOL    MW428036   0.607   1.415   0.695 -0.0290  0.4028 -0.3150
 7068SOL     OW28037   1.800   2.007   4.794 -0.0705  0.6297 -0.1942
 7068SOL    HW228038   1.895   1.997   4.782  0.2694  2.0892  1.0692
 7068SOL    HW328039   1.790   2.033   4.885 -1.7718 -0.2013 -0.1056
 7068SOL    MW428040   1.811   2.009   4.804 -0.2501  0.7126 -0.0159
 7069SOL     OW28041   0.015   4.855   0.333 -0.1078 -0.1629 -0.0771
 7069SOL    HW228042   0.069   4.778   0.346  0.7828  0.6964  1.5336
 7069SOL    HW328043  -0.072   4.829   0.365  0.4985 -0.1314  1.7142
 7069SOL    MW428044   0.010   4.842   0.339  0.0897 -0.0454  0.3717
 7070SOL     OW28045   6.114   0.050   6.064  0.3712  0.7683  0.4030
 7070SOL    HW228046   6.099   0.005   6.147 -0.5677  2.9538  1.4806
 7070SOL    HW328047   6.027   0.057   6.024  0.4070  2.1173  0.5354
 7070SOL    MW428048   6.100   0.045   6.069  0.2520  1.2346  0.5626
 7071SOL     OW28049   5.855   5.756   3.629  0.2201  0.2804  0.2015
 7071SOL    HW228050   5.787   5.810   3.669  1.7317  4.0742 -1.8114
 7071SOL    HW328051   5.828   5.746   3.538  1.3010  0.0073 -0.1097
 7071SOL    MW428052   5.843   5.762   3.623  0.5622  0.7449 -0.1052
 7072SOL     OW28053   1.651   0.401   6.314 -0.1022 -0.1177 -0.0822
 7072SOL    HW228054   1.695   0.411   6.398 -1.3636 -0.0354  0.5978
 7072SOL    HW328055   1.711   0.349   6.261  1.2399  0.8335  0.4516
 7072SOL    MW428056   1.665   0.396   6.318 -0.0915  0.0187  0.0779
 7073SOL     OW28057   1.775   2.356   0.896 -0.3834 -0.4742 -0.6138
 7073SOL    HW228058   1.809   2.442   0.921 -1.7611 -0.1222  0.1786
 7073SOL    HW328059   1.770   2.308   0.979 -0.1055 -1.1488 -0.9806
 7073SOL    MW428060   1.779   2.361   0.910 -0.5285 -0.5168 -0.5576
 7074SOL     OW28061   3.732   4.892   1.906  0.4701 -0.1148  0.0142
 7074SOL    HW228062   3.794   4.885   1.833  0.5392  1.1580 -0.0693
 7074SOL    HW328063   3.647   4.908   1.864  0.8041  2.5991  0.1972
 7074SOL    MW428064   3.729   4.893   1.891  0.5233  0.4112  0.0274
 7075SOL     OW28065   2.048   5.815   5.193  0.4232  0.5226 -0.2602
 7075SOL    HW228066   1.975   5.755   5.212  1.3395 -0.6078 -0.1917
 7075SOL    HW328067   2.107   5.805   5.268  0.7641  1.2468 -0.4297
 7075SOL    MW428068   2.046   5.805   5.206  0.5891  0.4690 -0.2735
 7076SOL     OW28069   4.707   5.254   2.545  0.4538 -0.5967  0.0569
 7076SOL    HW228070   4.756   5.266   2.464  0.0413 -0.7216 -0.2189
 7076SOL    HW328071   4.616   5.243   2.516  0.2858 -0.5268  0.5444
 7076SOL    MW428072   4.701   5.254   2.531  0.3772 -0.6039  0.0849
 7077SOL     OW28073   1.497   4.621   3.356  0.1552  0.1277 -0.3005
 7077SOL    HW228074   1.413   4.644   3.315  0.7147  0.9250 -1.0547
 7077SOL    HW328075   1.531   4.550   3.302  0.5240  0.6412 -0.7599
 7077SOL    MW428076   1.491   4.615   3.343  0.2777  0.3006 -0.4606
 7078SOL     OW28077   3.709   3.368   1.483  0.6989 -0.4222 -0.1892
 7078SOL    HW228078   3.684   3.429   1.553  1.8967  2.0983 -1.7828
 7078SOL    HW328079   3.626   3.341   1.445  0.1042 -0.2020  0.8973
 7078SOL    MW428080   3.695   3.373   1.488  0.7785 -0.0606 -0.2561
 7079SOL     OW28081   4.947   5.137   4.121  0.2747 -0.0544 -0.1696
 7079SOL    HW228082   4.981   5.148   4.210 -1.1406 -1.2539  0.5750
 7079SOL    HW328083   4.922   5.226   4.094 -1.4894  0.0591  1.6186
 7079SOL    MW428084   4.948   5.150   4.129 -0.1448 -0.1977  0.1646
 7080SOL     OW28085   4.286   2.548   4.748  0.7880  0.5051  0.0904
 7080SOL    HW228086   4.269   2.538   4.654 -0.6650 -0.0535  0.3813
 7080SOL    HW328087   4.327   2.466   4.774  0.8894  0.5295  0.0090
 7080SOL    MW428088   4.289   2.536   4.739  0.6097  0.4346  0.1181
 7081SOL     OW28089   5.250   0.164   5.539 -0.0420 -0.0099 -0.1124
 7081SOL    HW228090   5.331   0.200   5.574 -1.1547  1.3009  1.2417
 7081SOL    HW328091   5.221   0.100   5.604  0.7237 -1.7424 -1.4000
 7081SOL    MW428092   5.257   0.161   5.552 -0.0878 -0.0656 -0.1036
 7082SOL     OW28093   3.964   3.651   4.906 -0.2181  0.1070  0.3396
 7082SOL    HW228094   4.026   3.702   4.854 -0.6288  1.1494  0.8575
 7082SOL    HW328095   3.896   3.713   4.931 -1.8115 -1.1311 -0.6927
 7082SOL    MW428096   3.963   3.666   4.902 -0.4825  0.0812  0.2717
 7083SOL     OW28097   0.779   6.066   3.424 -0.2204 -0.4747  0.1664
 7083SOL    HW228098   0.756   5.980   3.459 -1.6349 -0.0068  0.4313
 7083SOL    HW328099   0.707   6.123   3.450 -0.5341  0.2627 -2.1370
 7083SOL    MW428100   0.767   6.062   3.432 -0.4484 -0.3157 -0.1025
 7084SOL     OW28101   5.170   0.071   3.490  0.0545  0.4706  0.2413
 7084SOL    HW228102   5.134   0.040   3.574 -0.1878  2.6483  1.0106
 7084SOL    HW328103   5.234   0.137   3.514 -0.1076  1.2377 -1.2947
 7084SOL    MW428104   5.173   0.076   3.504  0.0011  0.8591  0.1402
 7085SOL     OW28105   5.394   1.347   1.983 -0.2831 -0.1053  0.5933
 7085SOL    HW228106   5.416   1.436   2.008 -0.2578 -0.3413  1.4331
 7085SOL    HW328107   5.327   1.357   1.915 -1.1925  0.5449  1.5634
 7085SOL    MW428108   5.388   1.360   1.977 -0.3997 -0.0506  0.8321
 7086SOL     OW28109   1.166   3.658   4.246 -0.0247  0.5136 -0.2734
 7086SOL    HW228110   1.161   3.670   4.151 -0.3160  1.4338 -0.1475
 7086SOL    HW328111   1.225   3.583   4.257  0.5493  0.8112 -1.1572
 7086SOL    MW428112   1.173   3.649   4.235  0.0126  0.6743 -0.3734
 7087SOL     OW28113   0.689   1.683   1.419 -0.0960 -0.2480 -0.3963
 7087SOL    HW228114   0.640   1.652   1.495  1.3923  2.0061  1.6280
 7087SOL    HW328115   0.661   1.774   1.408  0.5134 -0.2170 -1.8776
 7087SOL    MW428116   0.679   1.691   1.428  0.1808  0.0535 -0.3246
 7088SOL     OW28117   0.072   4.081   0.133 -0.2479  0.4208 -0.0469
 7088SOL    HW228118   0.030   4.093   0.218 -0.2652 -2.0289  0.3599
 7088SOL    HW328119   0.146   4.023   0.151 -0.0336  0.1629 -1.6381
 7088SOL    MW428120   0.076   4.075   0.146 -0.2219  0.0635 -0.2032
 7089SOL     OW28121   1.293   1.347   0.347 -0.1538  0.0962 -0.5156
 7089SOL    HW228122   1.335   1.307   0.271  1.2380 -0.6324  0.5888
 7089SOL    HW328123   1.291   1.441   0.326  3.4343  0.4143 -0.0936
 7089SOL    MW428124   1.299   1.354   0.335  0.5033  0.0421 -0.3142
 7090SOL     OW28125   4.262   5.855   0.700  0.2921 -0.2167 -0.0999
 7090SOL    HW228126   4.192   5.868   0.636  1.4411 -1.4066 -1.6761
 7090SOL    HW328127   4.335   5.907   0.667 -0.4742  3.2641  2.9334
 7090SOL    MW428128   4.262   5.864   0.688  0.3426  0.0856  0.0924
 7091SOL     OW28129   3.843   2.709   0.571  0.1456 -0.0506  0.2333
 7091SOL    HW228130   3.912   2.735   0.632  0.1258  1.4859 -0.3505
 7091SOL    HW328131   3.765   2.756   0.602  0.6136  2.5401 -2.1413
 7091SOL    MW428132   3.842   2.719   0.583  0.2047  0.4940 -0.1571
 7092SOL     OW28133   4.118   5.302   3.939  0.5004 -0.0913  0.0077
 7092SOL    HW228134   4.194   5.321   3.994  0.4074 -2.1507  0.9650
 7092SOL    HW328135   4.075   5.229   3.983 -1.7577  0.6681 -0.7926
 7092SOL    MW428136   4.122   5.295   3.952  0.1902 -0.2628  0.0284
 7093SOL     OW28137   3.537   1.641   5.089 -0.4496  0.0164  0.1951
 7093SOL    HW228138   3.558   1.731   5.112 -0.5843  0.1016 -0.0136
 7093SOL    HW328139   3.442   1.635   5.098 -0.3306 -0.4278  1.3422
 7093SOL    MW428140   3.527   1.652   5.093 -0.4517 -0.0309  0.3189
 7094SOL     OW28141   5.039   5.397   3.923 -0.3654  0.4380  0.6632
 7094SOL    HW228142   5.045   5.490   3.945 -0.0986  0.6307 -0.1852
 7094SOL    HW328143   5.067   5.392   3.832  0.8132 -0.6429  1.0615
 7094SOL    MW428144   5.043   5.409   3.914 -0.1747  0.3208  0.6038
 7095SOL     OW28145   5.459   5.348   0.247 -0.3711  0.4969  0.2249
 7095SOL    HW228146   5.430   5.257   0.242  1.2809 -0.1230  0.9999
 7095SOL    HW328147   5.382   5.397   0.275 -1.6617 -0.4180 -1.5018
 7095SOL    MW428148   5.445   5.342   0.250 -0.3234  0.2944  0.0993
 7096SOL     OW28149   0.471   6.041   1.498  0.1680  0.2540  0.2349
 7096SOL    HW228150   0.396   6.066   1.443  0.7870 -0.8487 -1.1686
 7096SOL    HW328151   0.438   5.969   1.552  0.3758 -0.7463 -0.9192
 7096SOL    MW428152   0.456   6.035   1.498  0.2771 -0.0235 -0.1025
 7097SOL     OW28153   0.463   1.498   5.944  0.3787 -0.5078 -0.2529
 7097SOL    HW228154   0.378   1.489   5.987  0.5898  0.4240  0.3861
 7097SOL    HW328155   0.524   1.450   6.000  0.3946 -0.5905 -0.3401
 7097SOL    MW428156   0.460   1.491   5.957  0.4087 -0.3958 -0.1801
 7098SOL     OW28157   1.868   4.915   0.158 -0.0117 -0.8103 -0.1818
 7098SOL    HW228158   1.787   4.865   0.173 -0.8444  0.7850  0.9749
 7098SOL    HW328159   1.872   4.976   0.232  0.9384  0.8564 -1.5488
 7098SOL    MW428160   1.858   4.916   0.170  0.0038 -0.3799 -0.2095
 7099SOL     OW28161   5.640   5.605   1.489 -0.6928  0.2693  0.5428
 7099SOL    HW228162   5.688   5.686   1.507 -0.1723  0.0168  0.3067
 7099SOL    HW328163   5.594   5.586   1.571 -0.7252  0.7411  0.6351
 7099SOL    MW428164   5.640   5.613   1.502 -0.6284  0.2983  0.5238
 7100SOL     OW28165   5.449   3.636   4.078 -0.1504 -0.5607 -0.4000
 7100SOL    HW228166   5.537   3.674   4.080 -0.8376  1.1150 -0.0825
 7100SOL    HW328167   5.462   3.544   4.098  1.3994 -0.0428  1.3159
 7100SOL    MW428168   5.462   3.629   4.081 -0.0366 -0.2713 -0.1317
 7101SOL     OW28169   5.483   6.246   4.105  0.1741 -0.2731  0.1131
 7101SOL    HW228170   5.569   6.216   4.076  0.1118  0.8919 -1.4187
 7101SOL    HW328171   5.501   6.312   4.172  0.6745  1.8479 -1.9524
 7101SOL    MW428172   5.496   6.251   4.110  0.2319  0.1605 -0.3616
 7102SOL     OW28173   3.881   3.182   4.418  0.2864 -0.1417 -0.0145
 7102SOL    HW228174   3.956   3.150   4.468 -2.1276 -2.3918  2.4988
 7102SOL    HW328175   3.859   3.265   4.460  1.7754  0.9915 -1.3420
 7102SOL    MW428176   3.888   3.189   4.431  0.1643 -0.2891  0.1419
 7103SOL     OW28177   5.286   5.355   4.306  0.6812  0.5848  0.4381
 7103SOL    HW228178   5.257   5.435   4.349  2.2927  1.2839  0.3100
 7103SOL    HW328179   5.340   5.385   4.233  0.5609 -0.6184 -0.1820
 7103SOL    MW428180   5.289   5.369   4.302  0.8780  0.5183  0.3394
 7104SOL     OW28181   5.578   0.447   3.068  0.1168 -0.2169 -0.2389
 7104SOL    HW228182   5.523   0.447   2.989  1.9553  0.4163 -1.5802
 7104SOL    HW328183   5.619   0.534   3.068  3.1542 -1.5302 -0.8338
 7104SOL    MW428184   5.576   0.459   3.057  0.7601 -0.3066 -0.4943
 7105SOL     OW28185   2.606   4.966   5.461 -0.2590 -0.3959  0.5546
 7105SOL    HW228186   2.687   4.916   5.473 -0.4752 -1.1686 -1.0428
 7105SOL    HW328187   2.626   5.052   5.499  1.6523 -0.2574 -0.6407
 7105SOL    MW428188   2.619   4.971   5.468 -0.0354 -0.4796  0.1861
 7106SOL     OW28189   0.340   3.036   4.078 -0.1930 -0.1708  0.1689
 7106SOL    HW228190   0.355   3.010   3.987  1.2354  2.7162 -0.5169
 7106SOL    HW328191   0.289   2.963   4.115 -1.0511 -1.3358 -2.9630
 7106SOL    MW428192   0.335   3.023   4.071 -0.1177  0.0564 -0.3348
 7107SOL     OW28193   0.354   2.558   3.234 -0.3736 -0.4686  0.1184
 7107SOL    HW228194   0.344   2.605   3.151 -0.6603 -0.1184  0.3492
 7107SOL    HW328195   0.302   2.608   3.297  0.3645 -0.3520  0.6599
 7107SOL    MW428196   0.346   2.571   3.232 -0.3141 -0.4070  0.2203
 7108SOL     OW28197   0.897   2.882   4.248  0.0234  0.8782  0.2589
 7108SOL    HW228198   0.806   2.859   4.269  1.0844 -2.4422  1.7739
 7108SOL    HW328199   0.922   2.945   4.316 -0.8097  0.9969  0.4684
 7108SOL    MW428200   0.888   2.888   4.259  0.0535  0.4558  0.4864
 7109SOL     OW28201   5.812   2.474   1.864 -0.4738  0.1497  0.4216
 7109SOL    HW228202   5.790   2.528   1.788 -1.6596  0.5521  1.0259
 7109SOL    HW328203   5.855   2.397   1.827 -0.6577  0.5345 -0.6202
 7109SOL    MW428204   5.815   2.471   1.849 -0.6545  0.2535  0.3639
 7110SOL     OW28205   3.391   0.478   0.141 -0.1451 -0.2219 -0.6235
 7110SOL    HW228206   3.407   0.530   0.063 -3.4724 -0.5720 -1.7002
 7110SOL    HW328207   3.362   0.542   0.207  1.9365 -0.0250  0.1847
 7110SOL    MW428208   3.389   0.494   0.140 -0.3095 -0.2421 -0.6589
 7111SOL     OW28209   6.174   4.168   2.593 -0.0488 -0.2398 -0.3738
 7111SOL    HW228210   6.260   4.133   2.615  0.4547  0.3165 -1.3950
 7111SOL    HW328211   6.139   4.108   2.528 -0.1204 -0.0633 -0.4996
 7111SOL    MW428212   6.180   4.156   2.587  0.0082 -0.1432 -0.5251
 7112SOL     OW28213   0.310   3.953   0.825  0.3281 -0.3800 -0.1773
 7112SOL    HW228214   0.341   4.024   0.880 -0.2059 -0.6508  0.4755
 7112SOL    HW328215   0.269   3.997   0.750  0.2690 -0.0050  0.0736
 7112SOL    MW428216   0.309   3.968   0.822  0.2498 -0.3662 -0.0581
 7113SOL     OW28217   5.846   6.442   6.019 -0.4324  0.4763 -0.1359
 7113SOL    HW228218   5.860   6.357   6.062 -2.2572  0.7659  1.1300
 7113SOL    HW328219   5.848   6.421   5.926  1.3346 -0.5585  0.0823
 7113SOL    MW428220   5.848   6.428   6.012 -0.4401  0.3780  0.0599
 7114SOL     OW28221   3.642   4.244   0.906 -0.2815 -0.0514 -0.6458
 7114SOL    HW228222   3.558   4.250   0.952  0.3586  0.3495  0.5305
 7114SOL    HW328223   3.625   4.280   0.819 -1.2025  0.5191 -0.2440
 7114SOL    MW428224   3.629   4.250   0.901 -0.3186  0.0768 -0.4376
 7115SOL     OW28225   1.785   3.273   3.071  0.1416 -0.1078 -0.1642
 7115SOL    HW228226   1.764   3.237   3.157 -2.0870 -0.1479 -0.6684
 7115SOL    HW328227   1.708   3.324   3.047  1.5302  1.6055 -1.2804
 7115SOL    MW428228   1.772   3.275   3.080  0.0308  0.1130 -0.3780
 7116SOL     OW28229   3.755   5.296   5.784  0.2139  0.1756  0.2021
 7116SOL    HW228230   3.706   5.322   5.706 -0.2570  0.6522  0.6430
 7116SOL    HW328231   3.774   5.379   5.828 -0.3109 -0.1465  1.0537
 7116SOL    MW428232   3.751   5.311   5.779  0.0825  0.1960  0.3726
 7117SOL     OW28233   1.621   4.888   3.364 -0.7112 -0.7942  0.3129
 7117SOL    HW228234   1.679   4.916   3.435 -0.7678 -0.5838  0.2763
 7117SOL    HW328235   1.641   4.795   3.353 -0.8590 -0.8809  0.7504
 7117SOL    MW428236   1.631   4.879   3.372 -0.7382 -0.7779  0.3658
 7118SOL     OW28237   4.369   4.554   0.162 -0.2586 -0.5114  0.2823
 7118SOL    HW228238   4.355   4.459   0.166  0.1938 -0.6143 -0.4170
 7118SOL    HW328239   4.374   4.574   0.069  0.5158  0.0634  0.4330
 7118SOL    MW428240   4.368   4.544   0.150 -0.0968 -0.4491  0.2100
 7119SOL     OW28241   0.555   2.696   5.236  0.4869 -0.7147  0.2816
 7119SOL    HW228242   0.547   2.726   5.327  1.0312 -0.7268  0.3314
 7119SOL    HW328243   0.570   2.777   5.186 -1.3535 -0.4975 -0.0096
 7119SOL    MW428244   0.556   2.711   5.242  0.3159 -0.6876  0.2498
 7120SOL     OW28245   3.316   5.834   2.068  0.0519 -0.1408  0.2611
 7120SOL    HW228246   3.370   5.838   2.147 -0.1502  1.5790  0.3594
 7120SOL    HW328247   3.233   5.874   2.094 -1.0317 -2.0526 -0.0992
 7120SOL    MW428248   3.312   5.840   2.082 -0.1177 -0.1661  0.2266
 7121SOL     OW28249   1.716   3.663   5.086  0.0874 -0.0631  0.4138
 7121SOL    HW228250   1.781   3.593   5.089 -0.2943 -0.4001  1.1821
 7121SOL    HW328251   1.641   3.625   5.039  0.8518  0.7064 -1.5426
 7121SOL    MW428252   1.714   3.649   5.080  0.1379 -0.0060  0.2570
 7122SOL     OW28253   2.439   1.042   5.162 -0.3597  0.5657  0.0140
 7122SOL    HW228254   2.380   0.973   5.133  0.3874 -0.9005  1.7390
 7122SOL    HW328255   2.381   1.112   5.191 -1.3835 -1.0532  2.1897
 7122SOL    MW428256   2.424   1.042   5.162 -0.3962  0.1587  0.5287
 7123SOL     OW28257   5.540   1.239   1.719  0.0654 -0.3692 -0.0727
 7123SOL    HW228258   5.587   1.228   1.802  0.3671  0.0367 -0.1823
 7123SOL    HW328259   5.452   1.207   1.736 -0.2556  0.9182  0.7915
 7123SOL    MW428260   5.535   1.234   1.732  0.0628 -0.1458  0.0269
 7124SOL     OW28261   0.767   4.424   1.842 -0.0895 -0.1613  0.0353
 7124SOL    HW228262   0.775   4.417   1.937 -0.8775  2.7300  0.3986
 7124SOL    HW328263   0.845   4.471   1.814 -0.8124  0.7829 -0.4534
 7124SOL    MW428264   0.778   4.429   1.851 -0.2889  0.3448  0.0187
 7125SOL     OW28265   1.445   1.894   4.093 -0.2615  0.8894  0.0792
 7125SOL    HW228266   1.499   1.847   4.030  0.0154 -0.2476  1.1464
 7125SOL    HW328267   1.432   1.980   4.053 -0.0483  0.2203 -1.4999
 7125SOL    MW428268   1.450   1.899   4.079 -0.1968  0.6511  0.0117
 7126SOL     OW28269   4.004   1.504   4.115 -0.2236  0.5970 -0.6560
 7126SOL    HW228270   4.012   1.514   4.210 -1.1558  0.4702 -0.5551
 7126SOL    HW328271   4.082   1.456   4.089  0.8169  1.9717 -0.1737
 7126SOL    MW428272   4.015   1.499   4.124 -0.2093  0.7616 -0.5791
 7127SOL     OW28273   5.844   2.755   0.549 -0.0995 -0.5681 -0.3400
 7127SOL    HW228274   5.839   2.737   0.643 -2.5312  2.0209  0.1492
 7127SOL    HW328275   5.868   2.671   0.510  1.1935 -1.6930  2.5507
 7127SOL    MW428276   5.847   2.742   0.556 -0.2497 -0.3749  0.1059
 7128SOL     OW28277   2.707   0.415   3.244 -0.0742 -0.1359  0.0331
 7128SOL    HW228278   2.750   0.394   3.326  0.8883  0.7466 -0.2107
 7128SOL    HW328279   2.615   0.392   3.257  0.2091 -0.7193  1.0754
 7128SOL    MW428280   2.700   0.409   3.256  0.0901 -0.0965  0.1384
 7129SOL     OW28281   5.094   4.179   3.286 -0.0869 -0.0776  0.1074
 7129SOL    HW228282   5.160   4.127   3.331 -0.2311  0.6610  1.1857
 7129SOL    HW328283   5.029   4.114   3.257  0.6298 -0.6965 -0.1617
 7129SOL    MW428284   5.094   4.163   3.288 -0.0114 -0.0618  0.2141
 7130SOL     OW28285   6.061   3.359   0.926  0.1668  0.3239  0.1639
 7130SOL    HW228286   6.151   3.327   0.920 -0.2478 -0.8747  0.0096
 7130SOL    HW328287   6.052   3.421   0.854  0.5309 -0.4558 -0.5767
 7130SOL    MW428288   6.071   3.363   0.916  0.1601  0.0629  0.0458
 7131SOL     OW28289   3.009   4.791   3.631  0.3001 -0.1938  0.0482
 7131SOL    HW228290   3.006   4.700   3.658  2.2662 -0.1575  0.5534
 7131SOL    HW328291   3.088   4.798   3.577 -0.5237  0.9489 -1.0930
 7131SOL    MW428292   3.019   4.780   3.627  0.4508 -0.0383 -0.0358
 7132SOL     OW28293   5.222   5.323   5.591 -0.2206 -0.3363  0.3147
 7132SOL    HW228294   5.311   5.338   5.622  0.5144  1.8018 -2.4961
 7132SOL    HW328295   5.214   5.228   5.585  1.4853 -0.5962  1.5354
 7132SOL    MW428296   5.232   5.312   5.595  0.1014 -0.0885  0.1049
 7133SOL     OW28297   3.803   1.136   0.861  0.1411 -0.0235 -0.3696
 7133SOL    HW228298   3.823   1.132   0.955 -0.1038 -1.2654 -0.3560
 7133SOL    HW328299   3.885   1.165   0.821  1.1744 -2.2702 -0.0241
 7133SOL    MW428300   3.817   1.139   0.868  0.2451 -0.4838 -0.3222
 7134SOL     OW28301   5.302   1.509   0.324 -0.1937 -0.0707  0.1968
 7134SOL    HW228302   5.304   1.565   0.402 -1.2249 -2.0604  1.7767
 7134SOL    HW328303   5.292   1.569   0.251 -1.8993  1.7972  1.8310
 7134SOL    MW428304   5.301   1.524   0.325 -0.5548 -0.0867  0.6209
 7135SOL     OW28305   0.857   5.886   6.006  0.2592 -0.0564  0.0024
 7135SOL    HW228306   0.923   5.817   6.003  0.5194  0.1052  1.3933
 7135SOL    HW328307   0.774   5.839   6.003  0.4168 -0.2918 -1.1933
 7135SOL    MW428308   0.855   5.871   6.005  0.3143 -0.0661  0.0281
 7136SOL     OW28309   5.273   0.796   1.510 -0.3182  0.3361 -0.4995
 7136SOL    HW228310   5.361   0.829   1.528 -0.1295 -0.8537  0.9510
 7136SOL    HW328311   5.278   0.702   1.525 -1.7698  0.2015 -0.6438
 7136SOL    MW428312   5.285   0.788   1.514 -0.4848  0.1613 -0.3272
 7137SOL     OW28313   2.143   0.990   5.353  0.4162  0.5798  0.0916
 7137SOL    HW228314   2.129   0.961   5.263 -2.8138  0.0588  0.6400
 7137SOL    HW328315   2.197   0.922   5.392  0.6923  0.1083 -1.0548
 7137SOL    MW428316   2.149   0.977   5.346  0.0265  0.4489  0.0127
 7138SOL     OW28317   4.124   5.566   0.676  0.0241 -0.5622 -0.5729
 7138SOL    HW228318   4.037   5.542   0.646 -0.7556  0.1188  0.9969
 7138SOL    HW328319   4.150   5.495   0.735 -0.4226  0.2464  0.6464
 7138SOL    MW428320   4.116   5.553   0.680 -0.1377 -0.3657 -0.2049
 7139SOL     OW28321   4.074   0.083   2.420 -0.1287  0.0927 -0.1949
 7139SOL    HW228322   4.083   0.099   2.326  0.2444  0.7416 -0.0531
 7139SOL    HW328323   4.161   0.053   2.447  1.2613  4.3228  0.7803
 7139SOL    MW428324   4.087   0.081   2.411  0.1039  0.7364 -0.0475
 7140SOL     OW28325   4.116   2.762   5.819 -0.6102 -0.3019  0.4102
 7140SOL    HW228326   4.110   2.819   5.896 -0.1971  1.2987 -0.6764
 7140SOL    HW328327   4.048   2.794   5.760  0.7977  0.3103 -0.9672
 7140SOL    MW428328   4.107   2.774   5.821 -0.3700 -0.0099  0.0851
 7141SOL     OW28329   5.920   4.327   1.629 -0.2273 -0.2720  0.0814
 7141SOL    HW228330   5.974   4.315   1.551 -0.9000  1.0818 -0.6280
 7141SOL    HW328331   5.978   4.305   1.702  1.0220  0.3640 -0.6893
 7141SOL    MW428332   5.935   4.322   1.628 -0.1512 -0.0095 -0.1139
 7142SOL     OW28333   1.957   5.853   1.885 -0.1005  0.5235  0.4552
 7142SOL    HW228334   2.012   5.921   1.925  0.7913  1.0214 -1.5416
 7142SOL    HW328335   2.012   5.775   1.883 -0.1568  0.4886  0.2354
 7142SOL    MW428336   1.971   5.852   1.890  0.0098  0.5846  0.1627
 7143SOL     OW28337   4.185   3.930   1.505 -0.6258 -0.2625  0.5573
 7143SOL    HW228338   4.202   3.903   1.595 -1.2600 -1.2466  0.3932
 7143SOL    HW328339   4.172   4.025   1.511  0.7202 -0.1084  1.2816
 7143SOL    MW428340   4.185   3.939   1.518 -0.5319 -0.3720  0.6312
 7144SOL     OW28341   5.842   2.752   4.959  0.4189 -0.8026  0.4386
 7144SOL    HW228342   5.870   2.836   4.923  2.1658 -2.2024 -1.6953
 7144SOL    HW328343   5.746   2.753   4.950  0.1171  1.7895  2.6004
 7144SOL    MW428344   5.833   2.763   4.954  0.6096 -0.6453  0.4423
 7145SOL     OW28345   5.059   4.879   3.787  0.2101 -0.0537 -0.4789
 7145SOL    HW228346   4.980   4.904   3.834 -0.5696 -0.2319 -1.6553
 7145SOL    HW328347   5.074   4.788   3.813 -1.8291 -1.1201 -2.5863
 7145SOL    MW428348   5.051   4.870   3.797 -0.1618 -0.2179 -0.9122
 7146SOL     OW28349   6.255   1.519   3.666 -0.2263  0.1201 -0.3687
 7146SOL    HW228350   6.299   1.439   3.637  0.2270  0.1927  0.1056
 7146SOL    HW328351   6.275   1.584   3.598 -0.6678 -0.1828 -0.7995
 7146SOL    MW428352   6.263   1.517   3.653 -0.2248  0.0897 -0.3629
 7147SOL     OW28353   3.070   3.963   5.903 -0.3590 -0.4393  0.7108
 7147SOL    HW228354   3.113   4.032   5.853 -2.1235 -0.2086 -0.5717
 7147SOL    HW328355   3.104   3.973   5.992  1.0083  0.6990  0.0947
 7147SOL    MW428356   3.080   3.973   5.908 -0.4114 -0.2587  0.4603
 7148SOL     OW28357   4.851   1.932   1.772  0.6190  0.0695  0.2685
 7148SOL    HW228358   4.879   1.844   1.745 -0.1425 -0.6863  1.7961
 7148SOL    HW328359   4.757   1.934   1.754  0.7815  0.9188 -0.5743
 7148SOL    MW428360   4.842   1.921   1.766  0.5399  0.0819  0.3588
 7149SOL     OW28361   0.546   2.893   3.195  0.2397 -0.5422 -0.4234
 7149SOL    HW228362   0.529   2.963   3.258  1.3890 -0.0228 -0.6627
 7149SOL    HW328363   0.529   2.812   3.243 -0.3522 -0.1257  0.0866
 7149SOL    MW428364   0.541   2.891   3.210  0.3133 -0.4187 -0.3877
 7150SOL     OW28365   2.542   3.187   1.657 -0.5758  0.0021  0.1240
 7150SOL    HW228366   2.555   3.205   1.563 -1.3611 -1.0928 -0.2034
 7150SOL    HW328367   2.612   3.126   1.680  0.5424  1.4095  0.6409
 7150SOL    MW428368   2.553   3.182   1.647 -0.5319  0.0433  0.1490
 7151SOL     OW28369   0.438   6.385   0.086 -0.3142  0.4179 -0.0826
 7151SOL    HW228370   0.393   6.319   0.033 -0.5028  0.5947 -0.1444
 7151SOL    HW328371   0.531   6.363   0.077 -0.4345 -0.4441  0.7224
 7151SOL    MW428372   0.444   6.373   0.078 -0.3550  0.3275  0.0154
 7152SOL     OW28373   5.003   0.345   1.212  0.0872 -1.0571 -0.2607
 7152SOL    HW228374   4.995   0.430   1.169  1.7360 -0.4852  0.4847
 7152SOL    HW328375   4.989   0.364   1.305  1.5106 -1.3807  0.0443
 7152SOL    MW428376   5.000   0.359   1.219  0.4925 -1.0243 -0.1221
 7153SOL     OW28377   5.847   2.715   3.686 -0.2595  0.5232 -0.0094
 7153SOL    HW228378   5.858   2.810   3.688  0.1179  0.4718  0.8284
 7153SOL    HW328379   5.753   2.702   3.693 -0.3875  0.8471 -0.9743
 7153SOL    MW428380   5.836   2.726   3.687 -0.2266  0.5592 -0.0262
 7154SOL     OW28381   1.356   2.224   2.513 -0.4872 -0.0328  0.9325
 7154SOL    HW228382   1.446   2.254   2.513 -0.4576  0.1729 -1.6361
 7154SOL    HW328383   1.308   2.289   2.563  0.3334  1.6850 -0.4114
 7154SOL    MW428384   1.361   2.236   2.519 -0.3750  0.2210  0.4163
 7155SOL     OW28385   0.516   4.442   1.257  0.0977  0.0394 -0.3415
 7155SOL    HW228386   0.542   4.514   1.201 -1.4459  0.1897 -0.9092
 7155SOL    HW328387   0.598   4.409   1.293  0.9883  0.8764 -1.5256
 7155SOL    MW428388   0.531   4.447   1.255  0.0116  0.1697 -0.5726
 7156SOL     OW28389   6.333   6.153   4.840 -0.5671  0.5168 -0.1045
 7156SOL    HW228390   6.250   6.177   4.880 -1.8022 -1.6193 -1.2045
 7156SOL    HW328391   6.314   6.144   4.747  0.7176 -0.5991 -0.3009
 7156SOL    MW428392   6.320   6.155   4.833 -0.5605  0.0877 -0.2756
 7157SOL     OW28393   3.667   2.151   1.677  0.3008  0.1422 -0.4824
 7157SOL    HW228394   3.572   2.146   1.669  0.2994 -1.5909  0.2267
 7157SOL    HW328395   3.694   2.063   1.703  2.0690  0.6977 -0.2874
 7157SOL    MW428396   3.658   2.139   1.679  0.5339 -0.0132 -0.3631
 7158SOL     OW28397   3.499   2.358   3.232 -0.3978 -0.4716 -0.2489
 7158SOL    HW228398   3.494   2.401   3.147  0.1715 -0.9521 -0.5341
 7158SOL    HW328399   3.451   2.416   3.291  0.2180  0.4724 -0.6471
 7158SOL    MW428400   3.492   2.371   3.229 -0.2414 -0.4105 -0.3391
 7159SOL     OW28401   5.814   2.348   2.108  0.6613 -0.1366 -0.3058
 7159SOL    HW228402   5.793   2.402   2.032  1.2812  1.3330  0.5287
 7159SOL    HW328403   5.744   2.282   2.110  0.0596  0.4195 -1.5382
 7159SOL    MW428404   5.802   2.346   2.098  0.6637  0.1306 -0.3583
 7160SOL     OW28405   5.097   3.342   0.883 -0.5101  0.0764  0.0132
 7160SOL    HW228406   5.036   3.413   0.865  0.4882  0.9594  0.0162
 7160SOL    HW328407   5.069   3.271   0.825 -1.9315  0.2116  0.4916
 7160SOL    MW428408   5.085   3.342   0.873 -0.5659  0.2107  0.0767
 7161SOL     OW28409   2.633   2.124   6.262  0.5621  0.0782 -1.0662
 7161SOL    HW228410   2.712   2.178   6.259 -0.5863  1.8699 -1.0346
 7161SOL    HW328411   2.662   2.036   6.238  2.8518  0.2920  0.5514
 7161SOL    MW428412   2.647   2.120   6.259  0.7127  0.3428 -0.8486
 7162SOL     OW28413   6.241   4.473   0.765 -0.2268  0.2619  0.2521
 7162SOL    HW228414   6.215   4.474   0.857 -0.7336  0.2671  0.1123
 7162SOL    HW328415   6.237   4.564   0.737  0.8361  0.3901  0.4666
 7162SOL    MW428416   6.237   4.485   0.773 -0.1535  0.2795  0.2619
 7163SOL     OW28417   3.069   4.424   5.643  0.4113 -0.1458 -0.1384
 7163SOL    HW228418   3.156   4.385   5.651  0.5984  0.4081  0.5803
 7163SOL    HW328419   3.014   4.373   5.703  0.5854  0.4750  0.5599
 7163SOL    MW428420   3.073   4.412   5.652  0.4589  0.0092  0.0485
 7164SOL     OW28421   3.789   5.802   5.300  0.8041 -0.2342  0.1103
 7164SOL    HW228422   3.747   5.864   5.241  0.4903 -1.3377 -0.8690
 7164SOL    HW328423   3.788   5.719   5.252  0.4767 -1.1917  1.6829
 7164SOL    MW428424   3.783   5.799   5.286  0.7195 -0.5061  0.1886
 7165SOL     OW28425   2.113   5.223   0.132  0.2014 -0.4835 -0.2169
 7165SOL    HW228426   2.165   5.254   0.058  0.6242  2.2353  1.1174
 7165SOL    HW328427   2.023   5.248   0.110  0.0164 -1.4408 -0.6320
 7165SOL    MW428428   2.108   5.230   0.119  0.2328 -0.2511 -0.0956
 7166SOL     OW28429   6.429   3.569   4.723  0.2954 -0.4191  0.6760
 7166SOL    HW228430   6.462   3.571   4.634 -1.4559 -0.0556  0.0036
 7166SOL    HW328431   6.415   3.661   4.745 -0.1597 -0.5561  0.9773
 7166SOL    MW428432   6.431   3.582   4.714  0.0043 -0.3892  0.6271
 7167SOL     OW28433   4.937   5.905   4.216  0.3275  0.2336  0.0616
 7167SOL    HW228434   4.961   5.929   4.306 -0.6542  1.6277 -0.0184
 7167SOL    HW328435   4.990   5.964   4.161 -0.7308  0.9851 -0.1898
 7167SOL    MW428436   4.947   5.916   4.221  0.0584  0.5167  0.0179
 7168SOL     OW28437   1.058   2.610   0.067 -0.1780  0.2148 -0.0621
 7168SOL    HW228438   1.094   2.694   0.036 -0.8206  0.6665  0.3767
 7168SOL    HW328439   1.051   2.556  -0.012  0.7058  0.3914 -0.2771
 7168SOL    MW428440   1.062   2.614   0.052 -0.1462  0.2977 -0.0326
 7169SOL     OW28441   4.179   6.245   3.028  0.2002  0.3793 -0.0503
 7169SOL    HW228442   4.126   6.306   3.079  0.8468  0.9207  0.0006
 7169SOL    HW328443   4.216   6.185   3.093  1.2479  1.2390  0.1916
 7169SOL    MW428444   4.177   6.245   3.043  0.4237  0.5642 -0.0116
 7170SOL     OW28445   5.813   4.550   4.082 -0.0443 -0.2130  0.5063
 7170SOL    HW228446   5.896   4.596   4.068  0.2930 -0.8962  0.2050
 7170SOL    HW328447   5.832   4.459   4.060 -0.8760 -0.3815  0.4443
 7170SOL    MW428448   5.827   4.544   4.077 -0.1095 -0.3253  0.4584
 7171SOL     OW28449   1.561   2.954   1.977 -0.3991  0.4269  0.1568
 7171SOL    HW228450   1.590   2.966   2.068 -0.5009 -0.0948  0.2613
 7171SOL    HW328451   1.635   2.982   1.924  0.5349 -1.4103  0.4181
 7171SOL    MW428452   1.575   2.959   1.982 -0.2893  0.1156  0.2051
 7172SOL     OW28453   5.103   4.787   1.538 -0.4125 -0.1869  0.5857
 7172SOL    HW228454   5.198   4.782   1.549 -0.4518  0.5019  1.3699
 7172SOL    HW328455   5.084   4.880   1.546 -1.0324 -0.1977 -0.6946
 7172SOL    MW428456   5.113   4.799   1.541 -0.4994 -0.0974  0.5203
 7173SOL     OW28457   5.173   1.469   4.465 -0.3063  0.3652 -0.1311
 7173SOL    HW228458   5.204   1.480   4.555 -0.3789  3.1531 -0.3592
 7173SOL    HW328459   5.080   1.493   4.469 -0.2605  0.7093 -0.9490
 7173SOL    MW428460   5.165   1.474   4.478 -0.3098  0.7784 -0.2691
 7174SOL     OW28461   1.569   2.349   5.486 -0.4951 -0.5847 -0.2220
 7174SOL    HW228462   1.525   2.271   5.519  0.5382 -1.2853 -0.4698
 7174SOL    HW328463   1.601   2.325   5.399  1.1161 -0.4015  0.2857
 7174SOL    MW428464   1.568   2.336   5.479 -0.1462 -0.6529 -0.1877
 7175SOL     OW28465   4.258   3.305   5.241  0.9645 -0.1302 -0.4336
 7175SOL    HW228466   4.206   3.358   5.181  2.3261  1.0052 -0.6605
 7175SOL    HW328467   4.197   3.239   5.273 -0.4729  0.8236 -1.0838
 7175SOL    MW428468   4.243   3.303   5.237  0.9545  0.1454 -0.5494
 7176SOL     OW28469   0.261   1.360   1.896  0.0124  0.1632  0.1899
 7176SOL    HW228470   0.229   1.428   1.837  1.2489  0.2370 -0.4380
 7176SOL    HW328471   0.259   1.400   1.983  0.7456  1.0199 -0.1750
 7176SOL    MW428472   0.256   1.374   1.900  0.2723  0.2860  0.0589
 7177SOL     OW28473   1.855   5.442   6.087  0.2631  0.1995 -0.1580
 7177SOL    HW228474   1.942   5.447   6.048  0.4493 -1.0282  0.0393
 7177SOL    HW328475   1.868   5.467   6.178  0.4718 -0.2667 -0.0573
 7177SOL    MW428476   1.868   5.446   6.094  0.3152 -0.0240 -0.1187
 7178SOL     OW28477   4.813   1.977   0.856 -0.4842  0.3982  0.5256
 7178SOL    HW228478   4.751   1.905   0.871  0.1243 -0.4385 -0.7320
 7178SOL    HW328479   4.878   1.968   0.926  0.3561 -1.1984 -0.3738
 7178SOL    MW428480   4.813   1.966   0.867 -0.2931  0.0771  0.2410
 7179SOL     OW28481   3.027   4.829   0.632 -0.3070 -0.2839  0.3687
 7179SOL    HW228482   3.115   4.796   0.651 -0.7633 -1.1728  1.0160
 7179SOL    HW328483   3.040   4.894   0.564  0.8146 -0.6675  0.1990
 7179SOL    MW428484   3.040   4.833   0.626 -0.2192 -0.4518  0.4317
 7180SOL     OW28485   2.281   1.819   0.923 -0.0171  0.7045 -0.5484
 7180SOL    HW228486   2.299   1.778   1.008 -2.2103  1.2877  0.2594
 7180SOL    HW328487   2.293   1.748   0.860  1.9491  0.3320  0.1635
 7180SOL    MW428488   2.285   1.804   0.926 -0.0471  0.7323 -0.3479
 7181SOL     OW28489   5.580   1.032   4.585  0.2272  0.1363  0.0176
 7181SOL    HW228490   5.561   0.954   4.534  0.6103 -0.7886  1.2648
 7181SOL    HW328491   5.593   1.101   4.519 -0.2886 -0.7917 -1.0811
 7181SOL    MW428492   5.579   1.031   4.569  0.2097 -0.1082  0.0372
 7182SOL     OW28493   1.022   0.179   6.085 -0.4409 -0.5254  0.6508
 7182SOL    HW228494   1.052   0.223   6.165  1.2928  2.2449 -1.3709
 7182SOL    HW328495   0.962   0.241   6.044 -0.9660 -1.7043 -0.4506
 7182SOL    MW428496   1.018   0.193   6.090 -0.2814 -0.3155  0.2388
 7183SOL     OW28497   4.045   0.441   4.811  0.4279 -0.0723 -0.4585
 7183SOL    HW228498   4.026   0.428   4.904  0.0952  0.4404 -0.4553
 7183SOL    HW328499   4.116   0.506   4.809 -0.5956  1.0693 -0.6050
 7183SOL    MW428500   4.052   0.448   4.823  0.2490  0.1459 -0.4774
 7184SOL     OW28501   3.078   0.528   3.533 -0.0386 -0.1158 -0.4997
 7184SOL    HW228502   3.161   0.492   3.501  0.5244 -0.0047  0.7804
 7184SOL    HW328503   3.059   0.601   3.474  0.9952  0.1240 -0.5464
 7184SOL    MW428504   3.086   0.533   3.521  0.1721 -0.0695 -0.3369
 7185SOL     OW28505   6.317   3.372   0.836 -0.5161  0.4536  0.1556
 7185SOL    HW228506   6.312   3.416   0.751  0.0614  1.2520  0.5301
 7185SOL    HW328507   6.348   3.284   0.815  0.9975  1.0750 -0.3380
 7185SOL    MW428508   6.321   3.366   0.822 -0.2402  0.6409  0.1399
 7186SOL     OW28509   5.686   4.936   0.225  0.3624 -0.6061 -0.1930
 7186SOL    HW228510   5.628   4.902   0.294  0.3999 -1.4972 -0.5856
 7186SOL    HW328511   5.629   4.946   0.149  0.5907 -0.8980 -0.4043
 7186SOL    MW428512   5.670   4.933   0.224  0.3974 -0.7622 -0.2727
 7187SOL     OW28513   3.718   1.802   4.077  0.4025  0.3333 -0.2325
 7187SOL    HW228514   3.674   1.719   4.056 -0.2482  0.6164 -0.0169
 7187SOL    HW328515   3.732   1.844   3.992  0.6472  0.0453 -0.3346
 7187SOL    MW428516   3.714   1.797   4.063  0.3489  0.3326 -0.2175
 7188SOL     OW28517   1.094   6.290   3.853 -0.1422 -0.6564  0.2117
 7188SOL    HW228518   1.050   6.354   3.910  0.2608 -0.5917  0.4531
 7188SOL    HW328519   1.182   6.281   3.890 -0.1611 -1.2774  0.1213
 7188SOL    MW428520   1.100   6.297   3.866 -0.0915 -0.7298  0.2316
 7189SOL     OW28521   6.049   3.815   6.411 -0.2064 -0.5095  0.4705
 7189SOL    HW228522   5.975   3.873   6.393  0.5008 -0.1878 -1.6525
 7189SOL    HW328523   6.017   3.728   6.387  0.2898 -0.2722 -1.1524
 7189SOL    MW428524   6.035   3.811   6.406 -0.0476 -0.4358 -0.0237
 7190SOL     OW28525   3.026   2.851   0.492  0.3314 -0.3188  0.8750
 7190SOL    HW228526   3.038   2.872   0.399 -1.1931 -4.7503 -0.5922
 7190SOL    HW328527   3.115   2.842   0.526  0.9292  0.6723 -0.3364
 7190SOL    MW428528   3.039   2.852   0.484  0.2092 -0.7727  0.5216
 7191SOL     OW28529   3.308   6.184   2.911 -0.2549  0.1494  0.0753
 7191SOL    HW228530   3.214   6.182   2.926 -0.3779 -0.4790 -0.7451
 7191SOL    HW328531   3.320   6.149   2.823  0.8140 -0.6999  0.5262
 7191SOL    MW428532   3.297   6.179   2.902 -0.1301 -0.0455  0.0266
 7192SOL     OW28533   2.032   0.284   4.744 -0.0607  0.5476 -0.0508
 7192SOL    HW228534   2.104   0.345   4.761  1.1430 -0.7278 -0.3553
 7192SOL    HW328535   2.004   0.304   4.655  0.5147  0.4790 -0.2520
 7192SOL    MW428536   2.038   0.295   4.734  0.1740  0.3703 -0.1175
 7193SOL     OW28537   0.372   3.707   4.047  0.1976  0.4036  0.2108
 7193SOL    HW228538   0.319   3.765   3.993  1.0446  2.5376  1.5583
 7193SOL    HW328539   0.405   3.640   3.987 -0.5644  1.4819 -1.4601
 7193SOL    MW428540   0.369   3.706   4.032  0.2088  0.8274  0.1681
 7194SOL     OW28541   5.311   2.948   2.507 -0.4025  0.3418  0.5563
 7194SOL    HW228542   5.393   2.951   2.556  0.6082  0.5616 -1.0524
 7194SOL    HW328543   5.243   2.974   2.570  1.0979  2.9359  1.2362
 7194SOL    MW428544   5.313   2.952   2.522 -0.0712  0.7130  0.4337
 7195SOL     OW28545   4.083   4.947   4.439  0.1934 -0.3043 -0.3425
 7195SOL    HW228546   4.020   5.005   4.395 -0.5225 -0.2682  0.6998
 7195SOL    HW328547   4.121   5.002   4.508 -0.1022 -0.9116  0.3116
 7195SOL    MW428548   4.080   4.962   4.442  0.0600 -0.3797 -0.1187
 7196SOL     OW28549   0.319   2.254   6.244 -0.4561 -0.2329 -0.5478
 7196SOL    HW228550   0.345   2.333   6.198 -0.8155 -0.1484 -0.6053
 7196SOL    HW328551   0.232   2.273   6.279  0.3836  0.2435  1.4226
 7196SOL    MW428552   0.311   2.267   6.243 -0.3928 -0.1589 -0.2954
 7197SOL     OW28553   3.971   4.526   0.428 -0.5851 -0.5983  0.2685
 7197SOL    HW228554   4.022   4.569   0.359  0.4887  0.6203  1.7542
 7197SOL    HW328555   3.953   4.438   0.394 -1.1578  0.3588 -2.0492
 7197SOL    MW428556   3.975   4.520   0.415 -0.5190 -0.3112  0.1587
 7198SOL     OW28557   4.128   3.821   4.727 -0.2131 -0.2445 -0.5266
 7198SOL    HW228558   4.209   3.868   4.709  0.6974 -0.7249  1.9549
 7198SOL    HW328559   4.063   3.889   4.744  0.0460  0.1238 -0.9988
 7198SOL    MW428560   4.130   3.836   4.727 -0.0588 -0.2593 -0.2615
 7199SOL     OW28561   3.091   4.745   4.177  0.1167  0.1409 -0.5329
 7199SOL    HW228562   3.080   4.833   4.214 -3.4678 -0.2771 -0.2090
 7199SOL    HW328563   3.103   4.689   4.254 -2.0140 -0.0851 -0.2954
 7199SOL    MW428564   3.091   4.749   4.192 -0.6373  0.0559 -0.4589
 7200SOL     OW28565   3.506   5.092   4.704 -0.0783 -0.4362 -0.0538
 7200SOL    HW228566   3.560   5.171   4.710 -0.0074 -0.1796 -2.6585
 7200SOL    HW328567   3.563   5.021   4.733  0.1845  0.3358  1.3793
 7200SOL    MW428568   3.521   5.093   4.708 -0.0343 -0.3005 -0.2084
 7201SOL     OW28569   1.059   3.435   4.965  0.3109 -0.5502 -0.0859
 7201SOL    HW228570   0.994   3.469   4.902 -0.8228  1.2624  1.9256
 7201SOL    HW328571   1.013   3.366   5.011  0.1056  0.0907  0.6914
 7201SOL    MW428572   1.044   3.431   4.963  0.1342 -0.2265  0.2821
 7202SOL     OW28573   1.653   4.163   5.635 -0.1831 -0.1144 -0.5133
 7202SOL    HW228574   1.676   4.085   5.584  0.6088  0.5674 -1.2203
 7202SOL    HW328575   1.598   4.129   5.706 -0.1535 -1.2661 -1.0140
 7202SOL    MW428576   1.649   4.148   5.638 -0.0747 -0.1764 -0.6727
 7203SOL     OW28577   0.757   0.922   1.134  0.0984  0.5767  0.7483
 7203SOL    HW228578   0.761   0.865   1.211 -0.0735 -0.0516  0.2954
 7203SOL    HW328579   0.849   0.945   1.116  0.4342 -1.4609 -0.4575
 7203SOL    MW428580   0.770   0.918   1.142  0.1200  0.2250  0.5295
 7204SOL     OW28581   2.569   4.124   4.721  0.2356 -0.2079  0.2562
 7204SOL    HW228582   2.475   4.127   4.705  0.0723 -2.2043  0.5463
 7204SOL    HW328583   2.595   4.216   4.732 -1.3592  0.5059 -1.4555
 7204SOL    MW428584   2.560   4.136   4.720  0.0036 -0.3772  0.0686
 7205SOL     OW28585   5.670   3.778   1.539  0.3339  0.2997 -0.0067
 7205SOL    HW228586   5.621   3.714   1.488  0.4417 -0.5295  0.8800
 7205SOL    HW328587   5.745   3.801   1.484  0.8042 -1.0727  0.0224
 7205SOL    MW428588   5.674   3.772   1.525  0.4101  0.0092  0.1141
 7206SOL     OW28589   1.541   2.885   5.200 -0.0372  0.3473 -0.3000
 7206SOL    HW228590   1.565   2.922   5.284  0.3675  1.4189 -0.8603
 7206SOL    HW328591   1.483   2.812   5.221  0.1203  0.5492  0.8968
 7206SOL    MW428592   1.536   2.880   5.214  0.0370  0.5153 -0.2160
 7207SOL     OW28593   4.758   4.320   2.297  0.3230 -0.0172 -0.0070
 7207SOL    HW228594   4.829   4.289   2.353  0.8113  1.4327  0.2127
 7207SOL    HW328595   4.680   4.275   2.330  0.9333 -0.6771  0.5515
 7207SOL    MW428596   4.757   4.310   2.309  0.4680  0.0871  0.0956
 7208SOL     OW28597   1.170   5.570   2.517 -0.9497 -0.0915 -0.1128
 7208SOL    HW228598   1.108   5.522   2.462  0.0817 -0.0094 -1.4112
 7208SOL    HW328599   1.215   5.502   2.567 -0.4072 -0.3914 -0.9805
 7208SOL    MW428600   1.168   5.554   2.516 -0.7420 -0.1202 -0.3986
 7209SOL     OW28601   3.083   2.991   1.305  0.5772  0.1193  0.3095
 7209SOL    HW228602   3.080   2.960   1.395  0.2690  0.5776  0.4614
 7209SOL    HW328603   3.007   2.951   1.263  1.0164 -0.5125  0.1139
 7209SOL    MW428604   3.072   2.982   1.311  0.5945  0.0964  0.3038
 7210SOL     OW28605   3.927   3.469   1.777  0.0260 -0.1969  0.2475
 7210SOL    HW228606   3.923   3.378   1.747  0.1804 -0.9029  2.2156
 7210SOL    HW328607   4.017   3.481   1.807 -0.1405  0.4325  0.5146
 7210SOL    MW428608   3.938   3.459   1.777  0.0244 -0.2070  0.5424
 7211SOL     OW28609   6.157   0.811   0.607  0.2379 -0.3729  0.4928
 7211SOL    HW228610   6.127   0.720   0.603  1.0875 -0.6933  0.9739
 7211SOL    HW328611   6.252   0.805   0.595  0.2754  0.4726  0.3198
 7211SOL    MW428612   6.166   0.798   0.605  0.3549 -0.3036  0.5335
 7212SOL     OW28613   5.960   5.347   0.066  0.6054 -0.2589  0.5389
 7212SOL    HW228614   6.040   5.396   0.088  0.3527  0.4785 -0.1430
 7212SOL    HW328615   5.891   5.392   0.114  0.3572  0.1371 -0.1696
 7212SOL    MW428616   5.962   5.359   0.075  0.5393 -0.1093  0.3554
 7213SOL     OW28617   2.064   4.963   1.738  0.8408 -0.3228  0.1255
 7213SOL    HW228618   2.159   4.973   1.748  0.7383 -0.2603  1.0534
 7213SOL    HW328619   2.040   4.895   1.800  0.4050 -1.0210 -0.7861
 7213SOL    MW428620   2.073   4.955   1.747  0.7698 -0.4067  0.1277
 7214SOL     OW28621   2.002   0.040   4.883  0.0196 -0.2453 -0.1518
 7214SOL    HW228622   2.040   0.059   4.969 -0.3538  0.1132 -0.0614
 7214SOL    HW328623   2.010   0.121   4.834  0.5226 -0.5451 -0.5727
 7214SOL    MW428624   2.008   0.053   4.888  0.0367 -0.2375 -0.1954
 7215SOL     OW28625   6.013   3.225   3.105 -0.1109 -0.7213  0.7546
 7215SOL    HW228626   6.052   3.292   3.050 -0.7321  0.5769  1.8276
 7215SOL    HW328627   5.941   3.189   3.052  1.3187 -1.8486 -0.5138
 7215SOL    MW428628   6.008   3.229   3.091 -0.0042 -0.6988  0.7288
 7216SOL     OW28629   0.376   2.976   3.442  0.5215 -0.0453  0.8589
 7216SOL    HW228630   0.298   2.945   3.396  0.5914  1.1547 -0.1201
 7216SOL    HW328631   0.394   2.908   3.507 -1.1519 -0.4913  0.9027
 7216SOL    MW428632   0.368   2.963   3.445  0.3099  0.0542  0.7355
 7217SOL     OW28633   4.768   1.182   5.747 -0.1163  0.2733  0.0228
 7217SOL    HW228634   4.802   1.119   5.810  0.5269  1.4103  0.8452
 7217SOL    HW328635   4.733   1.253   5.800 -0.3972  0.8317 -0.8881
 7217SOL    MW428636   4.768   1.183   5.762 -0.0685  0.4970  0.0111
 7218SOL     OW28637   5.226   4.225   5.383  0.1567  0.3515  0.3539
 7218SOL    HW228638   5.158   4.178   5.432  1.1342 -1.3441  0.1483
 7218SOL    HW328639   5.285   4.259   5.450 -0.3919  1.0781  0.4869
 7218SOL    MW428640   5.225   4.223   5.399  0.2133  0.2237  0.3443
 7219SOL     OW28641   3.268   2.343   4.538  0.0340  0.6343 -0.3663
 7219SOL    HW228642   3.201   2.291   4.583 -0.2539 -0.0326 -1.5472
 7219SOL    HW328643   3.342   2.284   4.527 -0.3707  0.3694 -1.8988
 7219SOL    MW428644   3.269   2.329   4.543 -0.0574  0.5114 -0.7243
 7220SOL     OW28645   1.147   5.851   2.421  0.2007  0.2061  0.0765
 7220SOL    HW228646   1.125   5.843   2.328  0.8704  0.1712 -0.0823
 7220SOL    HW328647   1.177   5.764   2.446  0.2475  0.2764  0.2655
 7220SOL    MW428648   1.148   5.839   2.412  0.2952  0.2108  0.0805
 7221SOL     OW28649   4.319   2.691   4.328 -0.0315 -0.4324  0.0932
 7221SOL    HW228650   4.263   2.634   4.380 -2.7077 -0.0725 -2.1375
 7221SOL    HW328651   4.291   2.779   4.350 -0.2892 -0.2387 -0.9442
 7221SOL    MW428652   4.308   2.695   4.337 -0.4186 -0.3594 -0.3380
 7222SOL     OW28653   3.690   5.972   2.851  0.2886 -0.0048  0.6623
 7222SOL    HW228654   3.674   6.066   2.840 -0.7543 -0.2890 -0.6319
 7222SOL    HW328655   3.780   5.966   2.881  0.9378  1.3631 -0.8549
 7222SOL    MW428656   3.700   5.984   2.853  0.2367  0.1382  0.2914
 7223SOL     OW28657   0.148   5.513   1.457  0.1602  0.1005 -0.1988
 7223SOL    HW228658   0.105   5.574   1.398  1.6683 -0.5284 -2.0682
 7223SOL    HW328659   0.135   5.427   1.416  0.3875 -0.4963  0.9378
 7223SOL    MW428660   0.141   5.510   1.444  0.3891 -0.0612 -0.2955
 7224SOL     OW28661   0.715   5.600   5.311  0.3566 -0.1412  0.4121
 7224SOL    HW228662   0.658   5.589   5.234  0.9326 -1.6688  0.1701
 7224SOL    HW328663   0.658   5.639   5.377  0.0159  1.8672 -0.9658
 7224SOL    MW428664   0.700   5.604   5.309  0.3876 -0.0778  0.1984
 7225SOL     OW28665   0.998   5.298   5.441 -0.1566 -0.1280  0.0178
 7225SOL    HW228666   1.051   5.364   5.396 -1.4038  0.7737 -0.2006
 7225SOL    HW328667   1.009   5.317   5.534  0.0393 -0.0605 -0.0192
 7225SOL    MW428668   1.006   5.309   5.447 -0.2953 -0.0001 -0.0159
 7226SOL     OW28669   4.314   1.501   3.767  0.1830 -0.1811  0.7444
 7226SOL    HW228670   4.248   1.518   3.699 -1.2095 -0.3852  2.0059
 7226SOL    HW328671   4.377   1.572   3.757  0.5048 -0.6936 -1.3343
 7226SOL    MW428672   4.314   1.512   3.756  0.0417 -0.2757  0.6366
 7227SOL     OW28673   3.427   0.175   4.611 -0.0672  0.2655 -0.1587
 7227SOL    HW228674   3.364   0.247   4.615  1.0162  1.2152  0.8956
 7227SOL    HW328675   3.425   0.146   4.520 -1.4364  0.8034 -0.3170
 7227SOL    MW428676   3.419   0.181   4.600 -0.1049  0.4618 -0.0405
 7228SOL     OW28677   2.310   4.046   1.628  0.5880 -0.2233 -0.1341
 7228SOL    HW228678   2.386   4.008   1.583  0.9446  1.0684 -0.6574
 7228SOL    HW328679   2.321   4.141   1.618 -0.9312 -0.0062  0.0706
 7228SOL    MW428680   2.322   4.053   1.621  0.4346 -0.0242 -0.1761
 7229SOL     OW28681   5.125   5.682   5.773  0.0657 -0.4442  0.1610
 7229SOL    HW228682   5.109   5.589   5.756 -1.4347 -0.3103  0.6621
 7229SOL    HW328683   5.181   5.683   5.850  1.0752 -0.9340 -0.5421
 7229SOL    MW428684   5.130   5.670   5.781  0.0009 -0.4911  0.1343
 7230SOL     OW28685   4.956   2.748   0.147  0.6063  0.4133  0.5818
 7230SOL    HW228686   4.889   2.813   0.168  0.2031  0.4024 -0.6390
 7230SOL    HW328687   4.909   2.664   0.150 -0.1368  0.5683 -2.7434
 7230SOL    MW428688   4.941   2.746   0.150  0.4551  0.4323 -0.0180
 7231SOL     OW28689   5.522   4.649   3.194  0.0374 -0.6825 -0.0981
 7231SOL    HW228690   5.571   4.576   3.158 -0.1766 -1.1477  0.5346
 7231SOL    HW328691   5.570   4.675   3.273 -0.0099 -0.2826 -0.1952
 7231SOL    MW428692   5.534   4.643   3.200  0.0029 -0.6912 -0.0275
 7232SOL     OW28693   4.537   2.855   1.893 -0.1037  0.5458 -0.4300
 7232SOL    HW228694   4.588   2.830   1.971 -0.7640  1.1842  0.2248
 7232SOL    HW328695   4.587   2.926   1.853 -0.2941  0.9332  0.0130
 7232SOL    MW428696   4.550   2.861   1.898 -0.2159  0.6811 -0.2852
 7233SOL     OW28697   4.207   0.822   2.082  0.0759  0.0051 -0.2615
 7233SOL    HW228698   4.236   0.795   2.169  1.0906  1.5497 -0.0660
 7233SOL    HW328699   4.117   0.852   2.095  0.1450  0.0073  0.2287
 7233SOL    MW428700   4.199   0.823   2.095  0.2189  0.2092 -0.1711
 7234SOL     OW28701   2.751   5.031   3.775 -0.3972 -0.1909  0.4237
 7234SOL    HW228702   2.741   5.126   3.778 -0.7587  0.1345 -4.2952
 7234SOL    HW328703   2.835   5.014   3.818  1.1462  2.6938 -1.1559
 7234SOL    MW428704   2.761   5.041   3.781 -0.2413  0.2327 -0.4073
 7235SOL     OW28705   1.212   2.632   3.310 -0.2492  0.1773 -0.4183
 7235SOL    HW228706   1.167   2.641   3.226 -0.5052  0.2313 -0.2755
 7235SOL    HW328707   1.277   2.702   3.310 -1.5289  1.4054  0.2410
 7235SOL    MW428708   1.214   2.642   3.299 -0.4518  0.3465 -0.3125
 7236SOL     OW28709   5.176   4.169   5.836  0.3011 -0.2067  0.0641
 7236SOL    HW228710   5.174   4.262   5.814  1.8641  0.0735  0.9205
 7236SOL    HW328711   5.088   4.151   5.871  0.3630  1.2826  1.1076
 7236SOL    MW428712   5.164   4.179   5.838  0.5155  0.0267  0.3148
 7237SOL     OW28713   3.542   5.911   1.634 -0.1221 -0.2328  0.2611
 7237SOL    HW228714   3.604   5.853   1.677  0.3313 -0.3726 -0.5588
 7237SOL    HW328715   3.488   5.946   1.705  2.5767  2.0153  1.4147
 7237SOL    MW428716   3.543   5.908   1.649  0.2938  0.0454  0.3051
 7238SOL     OW28717   1.409   1.759   3.644  0.2891 -0.9618 -0.9605
 7238SOL    HW228718   1.378   1.670   3.664 -3.5692  0.4408  0.3618
 7238SOL    HW328719   1.371   1.779   3.559 -0.5679  0.0253 -0.3748
 7238SOL    MW428720   1.400   1.750   3.635 -0.3330 -0.6465 -0.7088
 7239SOL     OW28721   5.641   3.544   4.648  0.2351  0.7924  0.1138
 7239SOL    HW228722   5.579   3.517   4.581  0.2195  1.6492 -0.2314
 7239SOL    HW328723   5.588   3.592   4.712  0.1771 -0.3722  0.9707
 7239SOL    MW428724   5.626   3.547   4.647  0.2254  0.7518  0.1813
 7240SOL     OW28725   3.460   0.146   1.625 -0.4190 -0.4155 -0.1726
 7240SOL    HW228726   3.403   0.153   1.548 -1.1205 -0.1834  0.3560
 7240SOL    HW328727   3.405   0.106   1.692  0.5601 -1.7892 -0.1535
 7240SOL    MW428728   3.445   0.142   1.624 -0.3824 -0.5661 -0.1004
 7241SOL     OW28729   4.443   2.015   3.596 -0.0894 -0.0752 -0.3077
 7241SOL    HW228730   4.417   1.933   3.636 -1.5852  1.0042  1.0540
 7241SOL    HW328731   4.362   2.052   3.561  0.7683  0.2224 -2.1407
 7241SOL    MW428732   4.429   2.009   3.597 -0.1736  0.1064 -0.3699
 7242SOL     OW28733   2.069   0.495   1.943  0.0528  0.0629  0.3199
 7242SOL    HW228734   2.114   0.433   1.885  0.5751  0.8819 -0.1617
 7242SOL    HW328735   2.098   0.471   2.031 -0.3038 -0.8228  0.2078
 7242SOL    MW428736   2.079   0.483   1.947  0.0746  0.0541  0.2416
 7243SOL     OW28737   3.480   3.451   1.956  0.5133 -0.0583  0.7806
 7243SOL    HW228738   3.466   3.392   2.030  0.1023 -0.1149  0.6616
 7243SOL    HW328739   3.487   3.394   1.880  1.3537 -0.0262  0.8262
 7243SOL    MW428740   3.479   3.436   1.956  0.5700 -0.0615  0.7709
 7244SOL     OW28741   2.401   2.817   1.144 -0.3536  0.1855 -0.1098
 7244SOL    HW228742   2.402   2.742   1.085  1.3513  0.6341 -0.7008
 7244SOL    HW328743   2.401   2.894   1.086 -1.4957  0.6624  0.4835
 7244SOL    MW428744   2.401   2.818   1.129 -0.2793  0.3076 -0.1095
 7245SOL     OW28745   5.310   1.506   1.575 -0.0454  0.5015 -0.0580
 7245SOL    HW228746   5.245   1.575   1.582  0.5414  1.2835 -1.7922
 7245SOL    HW328747   5.302   1.474   1.485  0.8526 -0.5266  0.2014
 7245SOL    MW428748   5.300   1.511   1.564  0.1505  0.4690 -0.2526
 7246SOL     OW28749   4.814   5.842   1.049 -0.2944 -0.2375 -0.1193
 7246SOL    HW228750   4.824   5.897   0.971 -1.0013 -0.4009 -0.3310
 7246SOL    HW328751   4.827   5.903   1.122 -0.2234  0.0377 -0.3552
 7246SOL    MW428752   4.817   5.858   1.048 -0.3783 -0.2228 -0.1784
 7247SOL     OW28753   0.072   2.453   0.989  0.1233  0.0999  0.1824
 7247SOL    HW228754   0.043   2.403   1.065  0.2792 -1.3262 -0.6733
 7247SOL    HW328755   0.005   2.521   0.978  0.2103  0.4736  1.7005
 7247SOL    MW428756   0.059   2.456   0.997  0.1554 -0.0390  0.2698
 7248SOL     OW28757   4.094   2.618   1.433 -0.3596  0.5403 -0.5636
 7248SOL    HW228758   4.170   2.597   1.378  1.5062 -1.4695  2.4899
 7248SOL    HW328759   4.025   2.559   1.403  0.8292 -1.0050 -0.3705
 7248SOL    MW428760   4.095   2.607   1.422  0.0434  0.0713 -0.1352
 7249SOL     OW28761   5.482   2.697   4.329 -0.1809 -0.1935  0.3409
 7249SOL    HW228762   5.412   2.667   4.271  1.0041  0.3209 -1.4421
 7249SOL    HW328763   5.559   2.649   4.299  0.2778 -0.7527  2.2675
 7249SOL    MW428764   5.483   2.687   4.318  0.0359 -0.1994  0.3599
 7250SOL     OW28765   2.202   3.363   0.219 -0.8173 -0.0561 -0.1940
 7250SOL    HW228766   2.202   3.457   0.201  0.3450  0.2666  1.3269
 7250SOL    HW328767   2.275   3.329   0.168  0.4835  0.3362  1.3637
 7250SOL    MW428768   2.211   3.371   0.210 -0.4923  0.0383  0.2122
 7251SOL     OW28769   2.200   0.712   1.827 -0.1589  0.1428  0.4506
 7251SOL    HW228770   2.147   0.650   1.876  1.7339 -0.4439  1.8964
 7251SOL    HW328771   2.148   0.793   1.825 -1.7401 -0.8484  0.3993
 7251SOL    MW428772   2.186   0.715   1.833 -0.1178 -0.0654  0.6346
 7252SOL     OW28773   4.224   1.959   2.881  0.4583  0.8499  0.1044
 7252SOL    HW228774   4.270   1.883   2.846 -1.7187  0.2237 -1.5908
 7252SOL    HW328775   4.227   1.948   2.976  1.0068 -0.8054 -0.0811
 7252SOL    MW428776   4.231   1.948   2.889  0.2434  0.5489 -0.1438
 7253SOL     OW28777   5.155   1.914   3.366 -0.1640 -0.3057 -0.7093
 7253SOL    HW228778   5.184   1.911   3.457  1.6711 -0.7885 -1.2713
 7253SOL    HW328779   5.076   1.860   3.365 -0.7867  0.4894  0.7500
 7253SOL    MW428780   5.148   1.907   3.378 -0.0040 -0.2645 -0.5909
 7254SOL     OW28781   4.294   3.248   3.849 -0.1653  0.3524 -0.0963
 7254SOL    HW228782   4.316   3.341   3.844  1.8951 -0.1058 -1.0118
 7254SOL    HW328783   4.263   3.227   3.761  1.1477 -0.1635 -0.4687
 7254SOL    MW428784   4.293   3.258   3.836  0.2798  0.2239 -0.2662
 7255SOL     OW28785   0.381   5.893   2.639 -0.4547  0.6144  0.3984
 7255SOL    HW228786   0.327   5.905   2.718 -0.9609  0.2695  0.1042
 7255SOL    HW328787   0.471   5.887   2.673 -0.6306  0.8316  0.9195
 7255SOL    MW428788   0.386   5.894   2.654 -0.5447  0.5976  0.4283
 7256SOL     OW28789   3.551   0.368   0.816 -0.2606  0.2256 -0.3564
 7256SOL    HW228790   3.557   0.280   0.780 -0.2534  0.4761 -0.9964
 7256SOL    HW328791   3.532   0.423   0.740  2.8709  1.2193 -0.5534
 7256SOL    MW428792   3.550   0.364   0.801  0.1535  0.3897 -0.4669
 7257SOL     OW28793   5.751   3.624   3.849 -0.1295 -0.1338 -0.2420
 7257SOL    HW228794   5.739   3.671   3.932  0.7236  0.4839 -0.4468
 7257SOL    HW328795   5.806   3.549   3.872  0.8867  0.5466 -0.3909
 7257SOL    MW428796   5.757   3.621   3.863  0.1172  0.0374 -0.2887
 7258SOL     OW28797   0.484   5.413   4.892  0.3089  0.4586 -0.4159
 7258SOL    HW228798   0.435   5.496   4.886  0.0191  0.2547 -0.9778
 7258SOL    HW328799   0.465   5.369   4.809  2.2129  0.7894 -1.0724
 7258SOL    MW428800   0.475   5.418   4.880  0.5219  0.4754 -0.5766
 7259SOL     OW28801   4.598   5.304   0.664  0.2151  0.0499  0.5248
 7259SOL    HW228802   4.548   5.372   0.619  0.4064 -0.2724 -0.1800
 7259SOL    HW328803   4.689   5.332   0.656  0.1764  0.6942  1.9045
 7259SOL    MW428804   4.603   5.317   0.657  0.2352  0.0924  0.6138
 7260SOL     OW28805   4.103   3.096   0.736  0.9823  0.1716  0.2529
 7260SOL    HW228806   4.139   3.058   0.655  1.5999 -2.4738  1.6473
 7260SOL    HW328807   4.022   3.138   0.708 -0.0724 -2.6739 -1.5157
 7260SOL    MW428808   4.097   3.096   0.721  0.9246 -0.5529  0.2035
 7261SOL     OW28809   2.967   3.236   5.346 -0.2103  0.0113  0.3811
 7261SOL    HW228810   2.976   3.331   5.333  0.5096 -0.2527 -1.2170
 7261SOL    HW328811   2.952   3.201   5.258 -3.1918 -1.1135  1.2148
 7261SOL    MW428812   2.966   3.244   5.333 -0.5087 -0.1719  0.2802
 7262SOL     OW28813   0.179   1.868   0.785  0.3985  0.5515 -0.0147
 7262SOL    HW228814   0.249   1.934   0.788  0.8496  0.0572  1.7710
 7262SOL    HW328815   0.102   1.913   0.821 -0.1905  1.0345 -1.7944
 7262SOL    MW428816   0.178   1.882   0.790  0.3803  0.5500 -0.0139
 7263SOL     OW28817   3.478   6.125   5.089 -0.0323 -0.0441 -0.6419
 7263SOL    HW228818   3.491   6.099   5.181 -1.0069  0.0509 -0.4628
 7263SOL    HW328819   3.512   6.214   5.084  2.1441 -0.8127 -0.9499
 7263SOL    MW428820   3.484   6.133   5.101  0.1263 -0.1330 -0.6589
 7264SOL     OW28821   4.084   4.186   1.563 -0.7592 -0.0311  0.2810
 7264SOL    HW228822   4.023   4.233   1.506 -3.2125  0.1373  2.8676
 7264SOL    HW328823   4.155   4.248   1.579 -1.1654  0.7155 -0.7045
 7264SOL    MW428824   4.085   4.200   1.557 -1.1365  0.0896  0.4923
 7265SOL     OW28825   5.585   3.592   1.332  0.2131  0.3925  0.0557
 7265SOL    HW228826   5.570   3.508   1.375  1.0654  0.4398  0.4619
 7265SOL    HW328827   5.498   3.619   1.302  0.0447 -1.0051 -0.8007
 7265SOL    MW428828   5.571   3.585   1.334  0.3033  0.2144 -0.0037
 7266SOL     OW28829   0.494   5.798   0.172 -0.2206  0.3045 -0.3691
 7266SOL    HW228830   0.485   5.728   0.236 -0.4972  1.8461  1.3352
 7266SOL    HW328831   0.543   5.758   0.100 -1.6087 -2.0325 -0.1203
 7266SOL    MW428832   0.499   5.783   0.171 -0.4402  0.1996 -0.1114
 7267SOL     OW28833   0.909   1.043   1.759 -0.4168  0.8870  0.4803
 7267SOL    HW228834   0.973   1.036   1.688  1.2141 -0.6967  1.9756
 7267SOL    HW328835   0.829   1.003   1.724  0.1008  0.8504 -0.7183
 7267SOL    MW428836   0.907   1.037   1.745 -0.1333  0.6732  0.5195
 7268SOL     OW28837   1.748   0.043   6.017  0.0390 -0.2480 -0.0825
 7268SOL    HW228838   1.786   0.130   6.007 -0.2928 -0.2661 -1.8119
 7268SOL    HW328839   1.711   0.043   6.106  0.2979  1.2662  0.0478
 7268SOL    MW428840   1.748   0.054   6.027  0.0294 -0.0506 -0.2935
 7269SOL     OW28841   0.441   2.630   2.638  0.0493  0.0212 -0.0014
 7269SOL    HW228842   0.424   2.537   2.648 -0.2984  0.0672 -0.1352
 7269SOL    HW328843   0.463   2.640   2.545 -0.1823  0.1077 -0.0500
 7269SOL    MW428844   0.441   2.619   2.627 -0.0271  0.0387 -0.0255
 7270SOL     OW28845   0.954   3.122   3.798 -0.1677 -0.1029  0.2147
 7270SOL    HW228846   0.915   3.194   3.847 -0.3811  0.0987 -0.2408
 7270SOL    HW328847   0.999   3.070   3.864 -1.1260 -0.2897  0.7427
 7270SOL    MW428848   0.955   3.125   3.813 -0.3223 -0.1009  0.2242
 7271SOL     OW28849   3.614   5.907   4.900  0.4170 -0.4202 -0.4559
 7271SOL    HW228850   3.534   5.859   4.923  0.1949 -0.2984 -0.9494
 7271SOL    HW328851   3.629   5.965   4.974  0.1142 -0.5329 -0.3028
 7271SOL    MW428852   3.605   5.908   4.913  0.3477 -0.4190 -0.5008
 7272SOL     OW28853   3.116   3.788   5.672  0.1503 -0.1255  0.1995
 7272SOL    HW228854   3.023   3.769   5.660  0.2945 -0.0472 -1.1603
 7272SOL    HW328855   3.122   3.824   5.761 -1.4299  1.8153 -0.4093
 7272SOL    MW428856   3.105   3.790   5.683 -0.0392  0.1409 -0.0602
 7273SOL     OW28857   2.734   5.739   4.535 -0.3898  0.6907 -0.1733
 7273SOL    HW228858   2.767   5.820   4.496 -0.2751  1.6104  1.7159
 7273SOL    HW328859   2.685   5.768   4.613 -0.2089 -1.0542  0.6364
 7273SOL    MW428860   2.732   5.754   4.540 -0.3508  0.5818  0.1828
 7274SOL     OW28861   6.102   2.705   1.179 -0.6767  0.6523 -0.3213
 7274SOL    HW228862   6.126   2.662   1.097 -1.7934  1.9224 -1.3610
 7274SOL    HW328863   6.168   2.772   1.191  0.7130 -0.8839  0.9796
 7274SOL    MW428864   6.114   2.708   1.170 -0.6407  0.6172 -0.2869
 7275SOL     OW28865   1.981   1.872   3.448 -0.2642 -0.1269 -0.1492
 7275SOL    HW228866   1.964   1.947   3.505 -0.0412 -0.4100  0.2929
 7275SOL    HW328867   2.016   1.911   3.368 -0.7376  0.2853 -0.1612
 7275SOL    MW428868   1.983   1.887   3.445 -0.2972 -0.1099 -0.0924
 7276SOL     OW28869   2.519   0.404   4.725 -0.9084  0.3613 -0.1024
 7276SOL    HW228870   2.541   0.496   4.742  1.8017 -0.6572  2.6509
 7276SOL    HW328871   2.540   0.392   4.632  1.8483  1.7885  0.2229
 7276SOL    MW428872   2.524   0.415   4.715 -0.1871  0.4152  0.3038
 7277SOL     OW28873   6.350   3.108   4.593  0.2932  0.0499  0.1992
 7277SOL    HW228874   6.418   3.174   4.581  0.5982 -0.3836 -0.5211
 7277SOL    HW328875   6.340   3.068   4.506  0.5810 -1.2934  0.7585
 7277SOL    MW428876   6.358   3.111   4.580  0.3714 -0.1845  0.1779
 7278SOL     OW28877   1.382   1.597   2.390  0.6272  0.2680  0.1402
 7278SOL    HW228878   1.453   1.657   2.367 -0.4178  1.7078  0.4781
 7278SOL    HW328879   1.305   1.634   2.347 -0.4415  0.3258  1.9944
 7278SOL    MW428880   1.381   1.610   2.381  0.3484  0.4656  0.4294
 7279SOL     OW28881   0.035   1.386   5.154 -0.0172 -0.2094  0.1689
 7279SOL    HW228882  -0.002   1.433   5.079 -0.2303 -0.1340  0.3184
 7279SOL    HW328883   0.024   1.447   5.228 -1.0647 -0.8211  0.5331
 7279SOL    MW428884   0.029   1.400   5.154 -0.1835 -0.2802  0.2367
 7280SOL     OW28885   0.725   1.727   2.883  0.1101 -0.2311  0.0054
 7280SOL    HW228886   0.699   1.699   2.971 -0.0488  0.0700  0.0552
 7280SOL    HW328887   0.736   1.646   2.834 -1.9546 -0.3825 -0.3225
 7280SOL    MW428888   0.723   1.713   2.888 -0.1833 -0.2114 -0.0313
 7281SOL     OW28889   0.303   6.101   1.960 -0.0422 -0.2429 -0.0882
 7281SOL    HW228890   0.225   6.105   2.015  0.6011  0.1855  0.8246
 7281SOL    HW328891   0.314   6.008   1.941  0.0207 -0.4677  0.9753
 7281SOL    MW428892   0.294   6.089   1.965  0.0510 -0.2160  0.1726
 7282SOL     OW28893   6.127   2.202   0.541 -0.3907 -0.0771  0.2282
 7282SOL    HW228894   6.034   2.216   0.523 -0.1993 -0.2843 -1.0899
 7282SOL    HW328895   6.164   2.180   0.455  0.7638 -0.5893  0.8347
 7282SOL    MW428896   6.119   2.201   0.527 -0.2131 -0.1720  0.1343
 7283SOL     OW28897   5.015   1.618   4.838  0.4519  0.1294 -0.4412
 7283SOL    HW228898   4.952   1.568   4.891 -0.3073 -0.4543 -1.8421
 7283SOL    HW328899   5.070   1.662   4.903  0.3013 -1.4563  0.8456
 7283SOL    MW428900   5.014   1.617   4.854  0.3319 -0.1568 -0.4563
 7284SOL     OW28901   3.331   6.405   3.994  0.3036 -0.5174  0.1429
 7284SOL    HW228902   3.346   6.432   4.084  0.4581 -0.8759  0.2259
 7284SOL    HW328903   3.250   6.355   3.997 -0.1803  0.2415 -0.0724
 7284SOL    MW428904   3.323   6.402   4.006  0.2601 -0.4646  0.1255
 7285SOL     OW28905   5.186   4.298   3.963  0.3438 -0.1526  0.5513
 7285SOL    HW228906   5.257   4.304   3.900  0.8533 -0.9930  1.0289
 7285SOL    HW328907   5.111   4.268   3.911  0.4291  0.3786  0.1172
 7285SOL    MW428908   5.185   4.295   3.948  0.4223 -0.1934  0.5570
 7286SOL     OW28909   3.763   1.348   0.273 -0.2371 -0.4060 -0.3399
 7286SOL    HW228910   3.743   1.428   0.225 -2.7588 -0.8974 -0.2205
 7286SOL    HW328911   3.742   1.277   0.212  0.9915 -1.0224 -0.0866
 7286SOL    MW428912   3.758   1.349   0.258 -0.4077 -0.5521 -0.2908
 7287SOL     OW28913   4.367   1.803   2.661  0.4116  0.4984  0.5345
 7287SOL    HW228914   4.400   1.714   2.672  0.3409 -0.0255 -2.5765
 7287SOL    HW328915   4.437   1.858   2.698 -0.2796 -0.7101  4.0963
 7287SOL    MW428916   4.381   1.799   2.668  0.3111  0.2698  0.5940
 7288SOL     OW28917   3.626   6.156   1.952  0.0824  0.5775  0.9209
 7288SOL    HW228918   3.596   6.240   1.987  1.1325  0.4247  2.2726
 7288SOL    HW328919   3.550   6.121   1.905 -0.4166  2.2008  0.4698
 7288SOL    MW428920   3.612   6.162   1.951  0.1551  0.7715  1.0397
 7289SOL     OW28921   4.593   2.220   5.678  0.0298  0.0647  0.1637
 7289SOL    HW228922   4.627   2.267   5.601 -0.9032  1.5451  0.5979
 7289SOL    HW328923   4.499   2.210   5.661 -0.1339  0.1333  0.9606
 7289SOL    MW428924   4.585   2.225   5.666 -0.1149  0.2691  0.3261
 7290SOL     OW28925   1.696   3.818   5.797  0.6677  0.1878 -0.0799
 7290SOL    HW228926   1.699   3.862   5.712  0.1351  0.6477  0.1383
 7290SOL    HW328927   1.773   3.851   5.844  0.4068  0.7036 -0.0091
 7290SOL    MW428928   1.707   3.828   5.792  0.5630  0.3166 -0.0418
 7291SOL     OW28929   2.290   4.191   2.064  0.5658 -0.0922  0.6518
 7291SOL    HW228930   2.248   4.226   2.143 -2.3595 -1.5369 -0.1248
 7291SOL    HW328931   2.300   4.098   2.081 -0.8417 -0.5811 -0.8986
 7291SOL    MW428932   2.286   4.183   2.077 -0.0058 -0.3473  0.3448
 7292SOL     OW28933   0.287   3.581   4.277 -0.0153  0.3418  0.3933
 7292SOL    HW228934   0.307   3.638   4.202 -2.4179  0.4687 -0.2428
 7292SOL    HW328935   0.359   3.519   4.280  0.0562  0.1884 -2.1956
 7292SOL    MW428936   0.299   3.580   4.268 -0.3228  0.3383 -0.0322
 7293SOL     OW28937   1.472   2.002   3.337  0.0688  0.2653 -0.5476
 7293SOL    HW228938   1.504   2.051   3.262  1.0985  1.1863  0.4527
 7293SOL    HW328939   1.536   1.931   3.348  0.3440  0.5739 -0.1100
 7293SOL    MW428940   1.485   1.999   3.328  0.2410  0.4276 -0.3579
 7294SOL     OW28941   3.340   6.386   0.522  0.0094 -0.4185 -0.0792
 7294SOL    HW228942   3.299   6.340   0.596  0.0104  2.7456  2.0929
 7294SOL    HW328943   3.267   6.422   0.473  0.0504 -0.6809 -0.3319
 7294SOL    MW428944   3.325   6.384   0.525  0.0150 -0.0357  0.1741
 7295SOL     OW28945   4.767   3.798   1.833  0.4064 -0.0016 -0.1334
 7295SOL    HW228946   4.689   3.821   1.884 -0.8615 -1.3437 -1.3673
 7295SOL    HW328947   4.837   3.791   1.898  0.0604  3.2500  0.7826
 7295SOL    MW428948   4.766   3.800   1.848  0.1934  0.2504 -0.1753
 7296SOL     OW28949   4.901   1.521   4.207  0.0625  0.6740  0.4386
 7296SOL    HW228950   4.994   1.528   4.188  0.1473 -1.1551 -0.0152
 7296SOL    HW328951   4.860   1.507   4.121 -0.3915 -0.3459  0.8000
 7296SOL    MW428952   4.908   1.520   4.193  0.0138  0.2981  0.4264
 7297SOL     OW28953   0.258   5.976   5.052 -0.2378 -0.4647  0.4293
 7297SOL    HW228954   0.330   6.016   5.003  0.3898 -1.5062  0.4832
 7297SOL    HW328955   0.300   5.941   5.131 -1.0553  0.2162  1.1874
 7297SOL    MW428956   0.273   5.977   5.056 -0.2628 -0.5123  0.5364
 7298SOL     OW28957   0.949   0.757   3.742  0.4453  0.2825 -0.0265
 7298SOL    HW228958   0.962   0.663   3.748  0.6307  0.3423  0.6069
 7298SOL    HW328959   1.005   0.793   3.811 -0.4485  0.7738  0.4604
 7298SOL    MW428960   0.958   0.749   3.752  0.3518  0.3552  0.1213
 7299SOL     OW28961   3.634   5.596   3.807  0.0038 -0.4899  0.0722
 7299SOL    HW228962   3.645   5.575   3.714  1.6357  0.6182 -0.0244
 7299SOL    HW328963   3.638   5.511   3.851 -0.0686 -0.9601 -0.7989
 7299SOL    MW428964   3.636   5.582   3.801  0.2095 -0.4057 -0.0555
 7300SOL     OW28965   0.437   5.464   4.146 -0.4654 -0.2349  0.8390
 7300SOL    HW228966   0.392   5.537   4.102 -0.3684 -0.2059  0.7873
 7300SOL    HW328967   0.437   5.488   4.238 -0.5557 -0.2338  0.8389
 7300SOL    MW428968   0.431   5.477   4.152 -0.4645 -0.2309  0.8322
 7301SOL     OW28969   1.956   3.077   4.134 -0.0833 -0.6662 -0.2593
 7301SOL    HW228970   1.912   3.047   4.213 -0.6936  0.4523 -0.1527
 7301SOL    HW328971   2.047   3.093   4.161 -0.2699 -0.3688  0.1947
 7301SOL    MW428972   1.962   3.075   4.148 -0.1884 -0.4794 -0.1853
 7302SOL     OW28973   1.098   3.202   1.372  0.3974  0.0924  0.4041
 7302SOL    HW228974   1.187   3.232   1.352 -0.1697 -0.4338 -3.8655
 7302SOL    HW328975   1.105   3.107   1.373  0.0046  0.0663  0.7460
 7302SOL    MW428976   1.111   3.194   1.369  0.2707  0.0195 -0.1141
 7303SOL     OW28977   2.501   4.622   4.679  0.2578  0.1419 -0.2900
 7303SOL    HW228978   2.573   4.679   4.653 -0.4081  0.9571 -0.4075
 7303SOL    HW328979   2.481   4.647   4.769 -0.7753  0.9088 -0.7136
 7303SOL    MW428980   2.508   4.633   4.687  0.0337  0.3506 -0.3614
 7304SOL     OW28981   5.062   6.107   4.075 -0.4726  0.0536 -0.8704
 7304SOL    HW228982   5.154   6.093   4.095 -0.5871  0.8676  0.3733
 7304SOL    HW328983   5.054   6.201   4.062 -1.1632  0.0271 -0.7039
 7304SOL    MW428984   5.073   6.117   4.076 -0.5788  0.1575 -0.6843
 7305SOL     OW28985   1.189   5.476   3.081  1.1661 -0.1935 -0.1141
 7305SOL    HW228986   1.222   5.396   3.122  0.9310 -0.4724 -0.4553
 7305SOL    HW328987   1.111   5.448   3.033  0.9522  0.2831 -0.0542
 7305SOL    MW428988   1.183   5.462   3.080  1.1068 -0.1674 -0.1512
 7306SOL     OW28989   2.957   4.535   3.681 -0.4511 -0.0618  0.3639
 7306SOL    HW228990   3.015   4.459   3.678  0.7067  0.8162 -0.3313
 7306SOL    HW328991   2.955   4.559   3.774  0.7796  0.2258  0.3397
 7306SOL    MW428992   2.965   4.528   3.693 -0.1359  0.0920  0.2690
 7307SOL     OW28993   4.068   0.038   3.196 -0.7535 -0.2593 -0.1966
 7307SOL    HW228994   4.063   0.019   3.290  0.0691 -0.7136 -0.2360
 7307SOL    HW328995   3.979   0.060   3.171 -0.8773  0.4419  0.8158
 7307SOL    MW428996   4.056   0.038   3.205 -0.6613 -0.2267 -0.0683
 7308SOL     OW28997   5.057   0.225   4.066 -0.0147 -0.6805  0.0280
 7308SOL    HW228998   4.988   0.231   4.000  0.4639  0.8738 -0.3819
 7308SOL    HW328999   5.018   0.265   4.144  0.8519  1.6489 -0.6411
 7308SOL    MW429000   5.042   0.231   4.068  0.1628 -0.1681 -0.1143
 7309SOL     OW29001   5.867   4.778   0.101  0.0603 -0.0716  0.0114
 7309SOL    HW229002   5.805   4.845   0.128  1.3666  1.0021  0.4223
 7309SOL    HW329003   5.895   4.804   0.014  0.8322  0.1116  0.3105
 7309SOL    MW429004   5.862   4.790   0.093  0.3345  0.0943  0.1051
 7310SOL     OW29005   0.804   0.142   5.809  0.3914  0.1268 -0.3684
 7310SOL    HW229006   0.806   0.184   5.722  2.1593 -1.1261 -0.9808
 7310SOL    HW329007   0.786   0.050   5.790  0.5964 -0.1244  0.6309
 7310SOL    MW429008   0.802   0.136   5.795  0.6517 -0.0717 -0.3174
 7311SOL     OW29009   3.507   6.083   0.788 -0.5489 -0.7374 -0.7315
 7311SOL    HW229010   3.500   6.025   0.713  0.4281 -2.0255  0.1472
 7311SOL    HW329011   3.599   6.110   0.790 -0.4179 -1.2181  0.3558
 7311SOL    MW429012   3.518   6.079   0.779 -0.4027 -0.9707 -0.4721
 7312SOL     OW29013   2.735   1.428   2.912  0.9727 -0.1254 -0.2058
 7312SOL    HW229014   2.700   1.421   3.001 -0.0766  0.6341 -0.5527
 7312SOL    HW329015   2.723   1.519   2.888  0.6173 -0.4638 -1.3825
 7312SOL    MW429016   2.729   1.439   2.920  0.7874 -0.0699 -0.4068
 7313SOL     OW29017   5.529   0.758   4.522 -0.3593 -0.2599  0.0910
 7313SOL    HW229018   5.582   0.690   4.481  0.4277  0.2872  0.1731
 7313SOL    HW329019   5.439   0.729   4.510 -0.1354 -0.3610 -1.5933
 7313SOL    MW429020   5.524   0.746   4.515 -0.2259 -0.2011 -0.1204
 7314SOL     OW29021   0.807   0.993   4.931  0.0118 -0.0729  0.0785
 7314SOL    HW229022   0.733   0.990   4.992 -1.0620 -1.1518 -1.2029
 7314SOL    HW329023   0.870   0.932   4.967 -0.4398 -0.3959  0.3387
 7314SOL    MW429024   0.805   0.985   4.944 -0.1895 -0.2579 -0.0562
 7315SOL     OW29025   2.109   6.148   1.647 -0.7104  0.6374 -0.3614
 7315SOL    HW229026   2.146   6.203   1.717 -0.4067  0.9369 -0.7524
 7315SOL    HW329027   2.154   6.178   1.568  1.3160 -1.8176 -0.2565
 7315SOL    MW429028   2.120   6.159   1.646 -0.4030  0.3530 -0.3991
 7316SOL     OW29029   6.149   6.120   3.880  0.5649  1.0310 -0.1032
 7316SOL    HW229030   6.204   6.142   3.954  0.9624 -0.7163  0.1758
 7316SOL    HW329031   6.103   6.040   3.907 -0.0636  0.9340 -1.3450
 7316SOL    MW429032   6.150   6.112   3.893  0.5345  0.7877 -0.2303
 7317SOL     OW29033   6.320   1.690   1.653 -0.0934 -0.1629 -0.3691
 7317SOL    HW229034   6.322   1.774   1.699  0.9511 -0.6628  0.5507
 7317SOL    HW329035   6.236   1.650   1.679  0.3312 -0.2883  0.8460
 7317SOL    MW429036   6.309   1.696   1.662  0.1004 -0.2454 -0.0874
 7318SOL     OW29037   1.527   2.898   6.101 -0.5892  0.0627  0.1601
 7318SOL    HW229038   1.563   2.955   6.034 -0.9736  0.6743  0.4722
 7318SOL    HW329039   1.503   2.956   6.173 -3.3051 -0.1614 -0.4659
 7318SOL    MW429040   1.529   2.913   6.102 -0.9982  0.1139  0.1187
 7319SOL     OW29041   6.136   4.310   1.428  0.2967  0.0170  0.1517
 7319SOL    HW229042   6.110   4.327   1.337  1.5061  0.4150 -0.1382
 7319SOL    HW329043   6.209   4.249   1.420  1.1695  0.9579  0.7955
 7319SOL    MW429044   6.142   4.304   1.415  0.5714  0.1937  0.1984
 7320SOL     OW29045   0.748   4.226   3.407  0.3385  0.2682 -0.1610
 7320SOL    HW229046   0.754   4.305   3.354 -2.4875  0.4150 -0.4542
 7320SOL    HW329047   0.690   4.251   3.479  1.6370 -0.7952  1.3012
 7320SOL    MW429048   0.741   4.240   3.409  0.1369  0.1473 -0.0067
 7321SOL     OW29049   2.672   4.243   2.673 -0.4663 -0.5785  0.1172
 7321SOL    HW229050   2.654   4.332   2.704 -0.7352 -0.9240  0.9857
 7321SOL    HW329051   2.760   4.248   2.634 -0.7711  0.2211 -0.5000
 7321SOL    MW429052   2.681   4.255   2.672 -0.5420 -0.5186  0.1504
 7322SOL     OW29053   1.275   4.370   1.842 -0.2108 -0.2210 -0.7222
 7322SOL    HW229054   1.187   4.333   1.850  0.3971 -2.0185 -1.8174
 7322SOL    HW329055   1.323   4.334   1.916  0.1796 -1.0204 -1.3576
 7322SOL    MW429056   1.270   4.361   1.853 -0.0791 -0.5636 -0.9505
 7323SOL     OW29057   0.104   1.879   3.520  0.1466 -0.0286  0.4520
 7323SOL    HW229058   0.194   1.851   3.535  0.6925  1.5556  0.3673
 7323SOL    HW329059   0.107   1.928   3.437 -0.6204  0.6744  0.8167
 7323SOL    MW429060   0.116   1.882   3.511  0.1174  0.2732  0.4889
 7324SOL     OW29061   3.720   3.250   5.049 -0.1898 -0.1935  0.6498
 7324SOL    HW229062   3.814   3.259   5.040 -0.3489  3.3967  1.2479
 7324SOL    HW329063   3.707   3.223   5.140  0.2273  0.0338  0.7772
 7324SOL    MW429064   3.730   3.247   5.060 -0.1557  0.3102  0.7455
 7325SOL     OW29065   0.921   2.950   5.165 -0.4074 -0.4207  0.0001
 7325SOL    HW229066   0.871   2.954   5.083 -1.7769  0.2808  0.8262
 7325SOL    HW329067   0.965   2.865   5.163 -1.1975 -0.8204 -1.0146
 7325SOL    MW429068   0.920   2.939   5.154 -0.6923 -0.3808 -0.0248
 7326SOL     OW29069   5.825   3.819   5.537 -0.3493  0.5767  0.4851
 7326SOL    HW229070   5.808   3.773   5.620  0.0312 -0.6181 -0.0674
 7326SOL    HW329071   5.743   3.807   5.488 -0.0081 -0.1401  0.0722
 7326SOL    MW429072   5.812   3.811   5.542 -0.2541  0.3245  0.3577
 7327SOL     OW29073   4.745   6.357   2.336  0.0784  0.7644 -0.1313
 7327SOL    HW229074   4.688   6.314   2.399  0.5500  1.0747  0.5305
 7327SOL    HW329075   4.707   6.338   2.251 -0.1074 -0.3760  0.1860
 7327SOL    MW429076   4.733   6.349   2.333  0.1161  0.6549 -0.0021
 7328SOL     OW29077   0.767   3.237   1.701  0.2215  0.7923  0.4568
 7328SOL    HW229078   0.828   3.180   1.749  1.8392  1.5834 -0.5498
 7328SOL    HW329079   0.722   3.179   1.641 -0.0949  0.1669  1.2853
 7328SOL    MW429080   0.769   3.222   1.699  0.3932  0.8141  0.4333
 7329SOL     OW29081   3.070   1.925   3.532 -0.3073 -0.9755  0.2318
 7329SOL    HW229082   2.982   1.893   3.511 -0.7921 -0.9511  2.0520
 7329SOL    HW329083   3.068   1.939   3.626  0.0172  4.0043 -0.2435
 7329SOL    MW429084   3.058   1.922   3.541 -0.3285 -0.3152  0.4092
 7330SOL     OW29085   5.432   3.431   4.489 -0.2423 -0.2520  0.0079
 7330SOL    HW229086   5.453   3.400   4.401 -0.4890 -0.2730 -0.0451
 7330SOL    HW329087   5.388   3.515   4.474  1.4004  0.6777  0.1959
 7330SOL    MW429088   5.429   3.438   4.475 -0.0581 -0.1321  0.0257
 7331SOL     OW29089   5.622   0.297   2.669  0.3540 -0.5694 -0.2873
 7331SOL    HW229090   5.667   0.240   2.607  2.5207  0.4434  0.2416
 7331SOL    HW329091   5.635   0.385   2.634  0.0212 -0.1286  0.6581
 7331SOL    MW429092   5.630   0.301   2.656  0.5960 -0.3776 -0.0928
 7332SOL     OW29093   2.200   2.169   4.299 -0.0050 -0.1370 -0.3485
 7332SOL    HW229094   2.114   2.211   4.303  0.7810  2.0025 -2.6229
 7332SOL    HW329095   2.184   2.086   4.253 -0.8014  0.5471 -1.3553
 7332SOL    MW429096   2.186   2.164   4.293 -0.0064  0.2356 -0.7814
 7333SOL     OW29097   0.334   2.713   1.937  0.3563  0.1941  0.0593
 7333SOL    HW229098   0.260   2.773   1.929  0.5009  0.2936 -0.5441
 7333SOL    HW329099   0.400   2.747   1.876  0.7607 -0.1040  0.3202
 7333SOL    MW429100   0.333   2.726   1.928  0.4288  0.1679  0.0141
 7334SOL     OW29101   6.008   0.559   0.583 -0.4939 -0.0817 -0.1124
 7334SOL    HW229102   6.032   0.480   0.630 -0.6162  0.0666  0.1996
 7334SOL    HW329103   5.923   0.584   0.619 -1.1524 -0.6244 -1.2249
 7334SOL    MW429104   6.000   0.552   0.594 -0.5969 -0.1337 -0.2181
 7335SOL     OW29105   6.387   1.284   3.555 -0.0089  0.1499  0.2987
 7335SOL    HW229106   6.458   1.220   3.549 -0.8832 -0.7475 -1.1962
 7335SOL    HW329107   6.362   1.300   3.464 -1.8376  0.2763  0.7802
 7335SOL    MW429108   6.393   1.277   3.542 -0.3656  0.0482  0.1650
 7336SOL     OW29109   6.004   0.546   4.670  0.1244  0.2761  0.1309
 7336SOL    HW229110   6.097   0.524   4.674 -0.0000 -0.1291  1.3864
 7336SOL    HW329111   5.963   0.469   4.632  0.3786  0.7515 -1.1307
 7336SOL    MW429112   6.011   0.533   4.666  0.1416  0.2854  0.1301
 7337SOL     OW29113   5.298   2.593   0.066 -0.0436 -0.7884 -0.5306
 7337SOL    HW229114   5.267   2.510   0.103  1.0511 -1.0024 -0.0544
 7337SOL    HW329115   5.289   2.581  -0.029 -0.2798 -1.2949 -0.4486
 7337SOL    MW429116   5.292   2.580   0.058  0.0697 -0.8835 -0.4570
 7338SOL     OW29117   1.048   3.452   0.209 -0.3362 -0.1465  0.2967
 7338SOL    HW229118   1.100   3.378   0.239  0.3942 -0.3034 -1.2600
 7338SOL    HW329119   0.961   3.436   0.245  0.9162  0.9482  4.3222
 7338SOL    MW429120   1.043   3.440   0.217 -0.0746 -0.0228  0.6225
 7339SOL     OW29121   0.870   1.081   5.774  0.7375 -0.0806 -0.3458
 7339SOL    HW229122   0.780   1.055   5.795  0.1597  0.9244 -1.4444
 7339SOL    HW329123   0.862   1.173   5.748  2.4529  0.8107  1.9220
 7339SOL    MW429124   0.857   1.090   5.774  0.8876  0.1696 -0.1915
 7340SOL     OW29125   2.818   0.198   4.030 -0.1262 -0.5825 -0.6124
 7340SOL    HW229126   2.858   0.270   4.079 -0.0843 -0.4958 -0.7732
 7340SOL    HW329127   2.873   0.188   3.952 -1.4175  0.7284 -1.7531
 7340SOL    MW429128   2.831   0.206   4.026 -0.2911 -0.3981 -0.7841
 7341SOL     OW29129   2.846   2.198   5.604  0.2086  0.0758 -0.5518
 7341SOL    HW229130   2.855   2.213   5.510 -1.0128 -1.1581 -0.8882
 7341SOL    HW329131   2.931   2.163   5.631  0.9571  1.4993 -0.9400
 7341SOL    MW429132   2.858   2.195   5.596  0.1462  0.1008 -0.6474
 7342SOL     OW29133   5.289   2.490   5.456 -0.4657  0.6213 -0.3684
 7342SOL    HW229134   5.268   2.410   5.503  1.8356  0.9975  1.5251
 7342SOL    HW329135   5.344   2.462   5.383  0.6891  0.4255  0.5331
 7342SOL    MW429136   5.294   2.476   5.452 -0.0097  0.6451  0.0004
 7343SOL     OW29137   4.481   4.179   1.447  0.0234 -0.0370 -0.3916
 7343SOL    HW229138   4.575   4.172   1.429 -0.2556 -1.2398 -1.5218
 7343SOL    HW329139   4.442   4.201   1.363 -0.8606 -1.1228 -0.2802
 7343SOL    MW429140   4.488   4.181   1.434 -0.1301 -0.3390 -0.5260
 7344SOL     OW29141   6.319   0.453   5.893 -0.0554 -0.2624 -0.6576
 7344SOL    HW229142   6.263   0.420   5.962  0.1368  0.2144 -0.2699
 7344SOL    HW329143   6.400   0.403   5.901  0.7820  1.2190  0.8417
 7344SOL    MW429144   6.322   0.442   5.903  0.0804 -0.0040 -0.4087
 7345SOL     OW29145   0.201   1.151   6.103  0.0266  0.7785  0.6114
 7345SOL    HW229146   0.260   1.146   6.027  1.4608  0.6934  1.6976
 7345SOL    HW329147   0.177   1.244   6.108  1.3615  1.1185  1.0812
 7345SOL    MW429148   0.206   1.163   6.093  0.3920  0.8121  0.8167
 7346SOL     OW29149   3.442   2.115   5.009 -0.4009  0.2570 -0.0993
 7346SOL    HW229150   3.371   2.052   5.005 -0.6353  0.5365 -0.3876
 7346SOL    HW329151   3.499   2.093   4.935 -1.5678  1.6577 -1.4863
 7346SOL    MW429152   3.440   2.104   4.998 -0.5858  0.4787 -0.3204
 7347SOL     OW29153   3.139   2.898   2.686 -0.6153 -0.0283 -0.0471
 7347SOL    HW229154   3.071   2.834   2.664 -0.0751 -0.0259 -1.9093
 7347SOL    HW329155   3.091   2.980   2.699 -1.1297 -0.4021  0.4534
 7347SOL    MW429156   3.124   2.900   2.685 -0.6119 -0.0773 -0.2267
 7348SOL     OW29157   3.811   5.060   0.226  0.2594 -0.4606  0.1530
 7348SOL    HW229158   3.779   5.091   0.310 -0.6701  0.7960 -0.6400
 7348SOL    HW329159   3.772   5.119   0.161  2.0375 -0.5557 -1.0686
 7348SOL    MW429160   3.802   5.072   0.228  0.3714 -0.3073 -0.1128
 7349SOL     OW29161   5.275   2.324   1.321  0.2466 -0.4765  0.0077
 7349SOL    HW229162   5.341   2.265   1.285 -0.0948 -0.9029  0.0785
 7349SOL    HW329163   5.195   2.303   1.273  0.1140 -0.1012  0.0619
 7349SOL    MW429164   5.273   2.314   1.310  0.1840 -0.4833  0.0242
 7350SOL     OW29165   0.989   3.579   6.038  0.4908 -0.0343  0.7545
 7350SOL    HW229166   1.008   3.539   6.123 -1.8162 -1.4438  0.6830
 7350SOL    HW329167   0.937   3.657   6.059  0.3865 -0.0713  0.6307
 7350SOL    MW429168   0.985   3.584   6.052  0.1727 -0.2251  0.7287
 7351SOL     OW29169   1.273   1.199   5.565 -0.7116  0.1813  0.0843
 7351SOL    HW229170   1.234   1.275   5.608 -0.2756 -0.1050  1.0304
 7351SOL    HW329171   1.318   1.236   5.489  1.3467  1.2372  1.6993
 7351SOL    MW429172   1.274   1.214   5.561 -0.3825  0.2829  0.4222
 7352SOL     OW29173   5.370   3.986   3.671 -0.0218  0.2001 -0.6150
 7352SOL    HW229174   5.359   3.969   3.764  1.4893 -0.1238 -0.4698
 7352SOL    HW329175   5.295   4.040   3.647 -0.9070 -0.4481  0.5831
 7352SOL    MW429176   5.359   3.991   3.680  0.0608  0.0719 -0.4378
 7353SOL     OW29177   2.842   6.021   4.815  0.2916  0.5483 -0.1115
 7353SOL    HW229178   2.827   6.106   4.775 -0.6961  0.7584  0.6591
 7353SOL    HW329179   2.873   5.966   4.743  1.3048  1.6378 -0.5418
 7353SOL    MW429180   2.844   6.025   4.800  0.2950  0.7197 -0.0666
 7354SOL     OW29181   1.673   1.287   5.120 -0.0219 -0.0527 -0.0229
 7354SOL    HW229182   1.703   1.341   5.193  0.3829  1.0972 -1.0172
 7354SOL    HW329183   1.577   1.292   5.123 -0.0772 -1.2051  1.2794
 7354SOL    MW429184   1.664   1.295   5.130  0.0242 -0.0530  0.0177
 7355SOL     OW29185   1.310   2.143   5.878 -0.6370 -0.7556  0.7288
 7355SOL    HW229186   1.307   2.048   5.886 -0.7825 -0.6691  1.8958
 7355SOL    HW329187   1.219   2.169   5.862 -0.5054 -0.8507 -0.2167
 7355SOL    MW429188   1.298   2.134   5.877 -0.6388 -0.7568  0.7580
 7356SOL     OW29189   1.627   6.252   2.743  0.6722  0.4335 -0.1484
 7356SOL    HW229190   1.625   6.285   2.833 -0.1829  0.3050 -0.1149
 7356SOL    HW329191   1.720   6.251   2.721  0.8830  0.6310  0.6712
 7356SOL    MW429192   1.639   6.257   2.752  0.5872  0.4426 -0.0358
 7357SOL     OW29193   4.440   5.193   2.483 -0.0403  0.0135  0.2499
 7357SOL    HW229194   4.415   5.271   2.433 -0.9253 -0.6446 -0.3546
 7357SOL    HW329195   4.357   5.155   2.511  0.3559 -1.0175  0.0657
 7357SOL    MW429196   4.426   5.198   2.480 -0.1048 -0.2093  0.1458
 7358SOL     OW29197   4.664   1.886   4.795 -0.2138 -0.2159  0.2931
 7358SOL    HW229198   4.580   1.920   4.764 -0.2221 -0.2386  0.2902
 7358SOL    HW329199   4.716   1.874   4.716 -0.5066 -1.0079  0.2047
 7358SOL    MW429200   4.660   1.889   4.781 -0.2535 -0.3234  0.2810
 7359SOL     OW29201   2.282   0.836   4.337  0.5556 -0.0408 -0.2824
 7359SOL    HW229202   2.339   0.791   4.399 -0.9809 -1.5288  0.1208
 7359SOL    HW329203   2.328   0.831   4.253  1.5281 -0.1612  0.2460
 7359SOL    MW429204   2.295   0.830   4.334  0.4812 -0.2530 -0.1594
 7360SOL     OW29205   4.826   6.088   2.594  0.3903  0.7583 -0.1349
 7360SOL    HW229206   4.762   6.159   2.593 -1.2024 -0.5929  1.3162
 7360SOL    HW329207   4.889   6.114   2.662 -0.0978  0.8488  0.2876
 7360SOL    MW429208   4.826   6.101   2.603  0.1157  0.5920  0.1123
 7361SOL     OW29209   4.064   0.833   4.931  0.0951  0.0176  0.0176
 7361SOL    HW229210   4.131   0.901   4.940 -0.5337  0.6801 -0.2281
 7361SOL    HW329211   4.023   0.827   5.017 -2.0966  2.3424 -0.7668
 7361SOL    MW429212   4.067   0.841   4.943 -0.2770  0.4117 -0.1183
 7362SOL     OW29213   2.861   1.578   1.009 -0.2867  0.4524 -0.1400
 7362SOL    HW229214   2.786   1.637   1.014 -2.4972 -2.2832  2.9765
 7362SOL    HW329215   2.832   1.507   0.951  0.5161  0.1163 -0.1374
 7362SOL    MW429216   2.847   1.577   1.002 -0.4725  0.0472  0.2716
 7363SOL     OW29217   0.544   2.175   2.921  0.2938  0.0306  0.2757
 7363SOL    HW229218   0.561   2.180   2.827  0.7201 -0.2832  0.3331
 7363SOL    HW329219   0.450   2.191   2.929  0.0826 -0.8093 -0.2851
 7363SOL    MW429220   0.533   2.177   2.909  0.3222 -0.1216  0.2093
 7364SOL     OW29221   5.790   5.393   3.995  0.3524 -0.4082 -0.8323
 7364SOL    HW229222   5.724   5.383   4.064 -0.3400  0.4804 -1.3487
 7364SOL    HW329223   5.763   5.471   3.947  1.1107 -0.7283 -1.8063
 7364SOL    MW429224   5.778   5.402   3.998  0.3611 -0.3332 -1.0290
 7365SOL     OW29225   4.578   1.060   4.500  0.1578  0.0784  0.1688
 7365SOL    HW229226   4.489   1.024   4.503  0.3423 -0.4095 -0.0504
 7365SOL    HW329227   4.627   1.006   4.563  0.0905  0.9461  0.9877
 7365SOL    MW429228   4.572   1.048   4.509  0.1732  0.1285  0.2479
 7366SOL     OW29229   3.560   4.603   3.216 -0.1197  0.1577 -0.1334
 7366SOL    HW229230   3.643   4.644   3.240  0.3715  1.2481 -3.2921
 7366SOL    HW329231   3.571   4.511   3.241  1.9421  0.3345 -0.2034
 7366SOL    MW429232   3.573   4.596   3.223  0.2171  0.3249 -0.5593
 7367SOL     OW29233   6.234   0.830   6.347 -0.5791  0.4389  0.0453
 7367SOL    HW229234   6.300   0.886   6.387 -1.4341  1.1902  0.4549
 7367SOL    HW329235   6.283   0.769   6.292  0.6214 -0.3310  1.8524
 7367SOL    MW429236   6.249   0.829   6.345 -0.5335  0.4364  0.3378
 7368SOL     OW29237   2.080   2.726   6.066 -0.0276 -0.1002 -0.0431
 7368SOL    HW229238   2.107   2.803   6.116 -1.4160  0.5858 -0.3262
 7368SOL    HW329239   2.023   2.760   5.998 -0.1448 -1.3173 -0.5770
 7368SOL    MW429240   2.076   2.740   6.064 -0.2262 -0.1702 -0.1509
 7369SOL     OW29241   4.725   1.131   3.600 -0.2112 -0.0550 -0.0811
 7369SOL    HW229242   4.816   1.147   3.626 -0.2306  1.1117 -0.6884
 7369SOL    HW329243   4.732   1.078   3.520 -0.0029  1.4939 -1.1198
 7369SOL    MW429244   4.738   1.126   3.593 -0.1863  0.3033 -0.2982
 7370SOL     OW29245   2.860   0.275   1.635  0.4738 -0.3617  0.1752
 7370SOL    HW229246   2.801   0.259   1.562 -1.5130  0.7250  1.4216
 7370SOL    HW329247   2.941   0.306   1.595  0.3000 -2.0753 -1.6217
 7370SOL    MW429248   2.863   0.277   1.620  0.1888 -0.4444  0.1026
 7371SOL     OW29249   5.635   1.434   5.792  0.1347 -0.3549  0.4148
 7371SOL    HW229250   5.647   1.513   5.844  1.9819 -0.3369  0.0353
 7371SOL    HW329251   5.585   1.375   5.849 -0.0014  0.5454  1.2547
 7371SOL    MW429252   5.630   1.436   5.807  0.3605 -0.2337  0.4756
 7372SOL     OW29253   4.634   5.502   5.448 -0.5161 -0.2653 -0.0226
 7372SOL    HW229254   4.578   5.444   5.500 -0.8052 -1.4362 -1.5565
 7372SOL    HW329255   4.686   5.442   5.394  0.0829  0.8941 -0.7663
 7372SOL    MW429256   4.634   5.486   5.448 -0.4752 -0.2668 -0.3231
 7373SOL     OW29257   6.361   1.907   2.327 -0.0285 -0.0448  0.6508
 7373SOL    HW229258   6.423   1.970   2.364  1.0671 -0.8644  0.2640
 7373SOL    HW329259   6.374   1.914   2.232 -1.9502  1.1791  0.4203
 7373SOL    MW429260   6.371   1.916   2.319 -0.1375  0.0086  0.5694
 7374SOL     OW29261   0.130   2.795   0.659  0.4852 -0.2152 -0.2414
 7374SOL    HW229262   0.191   2.862   0.688  1.5956 -0.5654 -1.6943
 7374SOL    HW329263   0.142   2.790   0.564 -1.8700 -0.2380 -0.6174
 7374SOL    MW429264   0.139   2.803   0.650  0.3209 -0.2644 -0.4827
 7375SOL     OW29265   2.028   4.489   4.465 -0.5469  0.0328  0.6699
 7375SOL    HW229266   2.075   4.511   4.385 -0.8148  0.3140  0.5838
 7375SOL    HW329267   2.091   4.502   4.535 -0.4611  0.2895  0.5459
 7375SOL    MW429268   2.042   4.494   4.463 -0.5709  0.1038  0.6422
 7376SOL     OW29269   5.542   6.410   2.173 -0.4244  0.2872 -0.6676
 7376SOL    HW229270   5.482   6.436   2.242  0.3321  0.6400 -0.1375
 7376SOL    HW329271   5.532   6.315   2.167  1.2353 -0.0898  1.5887
 7376SOL    MW429272   5.533   6.401   2.181 -0.1056  0.2840 -0.3000
 7377SOL     OW29273   2.803   5.666   6.180  0.1830  0.4077  0.0491
 7377SOL    HW229274   2.779   5.692   6.091 -0.6605 -2.0923 -0.5451
 7377SOL    HW329275   2.758   5.730   6.236  0.2539  1.6809 -1.2710
 7377SOL    MW429276   2.794   5.678   6.175  0.0810  0.2458 -0.2035
 7378SOL     OW29277   4.205   1.375   1.398 -0.7756  0.0636  0.1974
 7378SOL    HW229278   4.171   1.293   1.361  2.1940 -1.3842  0.3858
 7378SOL    HW329279   4.296   1.379   1.368 -1.4712  4.8475 -2.2082
 7378SOL    MW429280   4.212   1.365   1.389 -0.4756  0.5038 -0.0951
 7379SOL     OW29281   1.601   4.806   5.071  0.1795 -0.2213 -0.1688
 7379SOL    HW229282   1.591   4.777   4.980 -0.2310  0.4942 -0.3578
 7379SOL    HW329283   1.525   4.862   5.087 -0.0918 -0.8408  0.8169
 7379SOL    MW429284   1.589   4.809   5.061  0.0896 -0.2087 -0.0637
 7380SOL     OW29285   2.682   5.843   5.428  0.3387 -0.2757  0.2362
 7380SOL    HW229286   2.699   5.920   5.374 -1.4439  0.0138  0.0423
 7380SOL    HW329287   2.769   5.807   5.446  1.0998  0.8491 -1.0171
 7380SOL    MW429288   2.696   5.848   5.424  0.2040 -0.0891  0.0453
 7381SOL     OW29289   1.805   5.080   1.522 -0.4572  0.0250  0.3578
 7381SOL    HW229290   1.860   5.004   1.502 -0.4853 -0.6300  2.5652
 7381SOL    HW329291   1.865   5.144   1.559  0.0684  2.2195 -3.6428
 7381SOL    MW429292   1.820   5.079   1.524 -0.3916  0.2281  0.1212
 7382SOL     OW29293   2.860   2.877   1.179  0.1427  0.0743 -0.2443
 7382SOL    HW229294   2.836   2.866   1.086 -0.3154 -3.6048  0.1331
 7382SOL    HW329295   2.775   2.881   1.224  0.3232 -0.3750  0.1438
 7382SOL    MW429296   2.845   2.876   1.173  0.1061 -0.4704 -0.1433
 7383SOL     OW29297   3.317   6.071   2.643 -0.0266 -0.1460 -0.1090
 7383SOL    HW229298   3.261   6.118   2.581 -0.8764 -0.1343  0.6444
 7383SOL    HW329299   3.306   5.979   2.620 -2.9456 -0.4818  1.9814
 7383SOL    MW429300   3.308   6.065   2.632 -0.5238 -0.1887  0.2662
 7384SOL     OW29301   0.968   5.858   4.211 -0.6125 -0.1690  0.1649
 7384SOL    HW229302   1.039   5.920   4.228 -0.5593 -0.5489  1.3905
 7384SOL    HW329303   1.008   5.789   4.157 -0.2491  0.0060  0.2088
 7384SOL    MW429304   0.983   5.857   4.206 -0.5575 -0.1960  0.3324
 7385SOL     OW29305   0.603   4.581   3.795  0.0372  0.2186 -0.3245
 7385SOL    HW229306   0.684   4.544   3.830  1.5129  2.3028 -1.2969
 7385SOL    HW329307   0.621   4.675   3.788 -1.9536  0.5533 -1.9644
 7385SOL    MW429308   0.616   4.589   3.799 -0.0308  0.5377 -0.6691
 7386SOL     OW29309   5.506   0.389   4.595  0.0933 -0.0060  0.2166
 7386SOL    HW229310   5.530   0.469   4.642  2.4007  0.6305 -1.8084
 7386SOL    HW329311   5.535   0.318   4.653 -0.2874  0.6317  1.2223
 7386SOL    MW429312   5.513   0.390   4.609  0.3475  0.1621  0.0821
 7387SOL     OW29313   0.300   0.415   5.031 -0.4329  0.3897 -0.1172
 7387SOL    HW229314   0.282   0.460   5.114 -1.4761 -1.3563  0.6641
 7387SOL    HW329315   0.359   0.343   5.056 -1.4599 -0.6882 -0.7273
 7387SOL    MW429316   0.306   0.412   5.046 -0.7060  0.0171 -0.0946
 7388SOL     OW29317   4.116   0.304   0.761 -0.0454  0.2691 -0.3915
 7388SOL    HW229318   4.179   0.369   0.729  0.1833 -0.1913 -0.8914
 7388SOL    HW329319   4.117   0.235   0.695 -0.4825 -0.1216  0.0026
 7388SOL    MW429320   4.125   0.304   0.748 -0.0729  0.1568 -0.4055
 7389SOL     OW29321   4.866   2.025   6.320  0.3047  0.2945 -0.3131
 7389SOL    HW229322   4.961   2.032   6.309  0.4250 -0.2184  0.3535
 7389SOL    HW329323   4.831   2.092   6.262  1.0158 -0.4716 -1.7011
 7389SOL    MW429324   4.874   2.035   6.311  0.4144  0.1258 -0.4083
 7390SOL     OW29325   5.870   1.943   6.316 -0.0165 -0.0822  0.2128
 7390SOL    HW229326   5.960   1.925   6.343  0.1466 -0.9236 -0.8203
 7390SOL    HW329327   5.829   1.857   6.312  0.0923 -0.0925 -2.5324
 7390SOL    MW429328   5.876   1.929   6.319  0.0194 -0.1946 -0.2857
 7391SOL     OW29329   0.585   4.228   0.856 -0.4803 -0.0321 -0.5437
 7391SOL    HW229330   0.677   4.203   0.855 -0.4421 -0.3064  2.0099
 7391SOL    HW329331   0.552   4.204   0.770  0.8639 -3.8189 -0.1631
 7391SOL    MW429332   0.593   4.222   0.845 -0.2979 -0.5679 -0.1566
 7392SOL     OW29333   6.027   2.781   2.281  0.3802 -0.2086  0.0495
 7392SOL    HW229334   5.969   2.856   2.290 -0.5610 -0.8992 -0.1634
 7392SOL    HW329335   6.079   2.781   2.362 -1.3560 -0.7714  1.2308
 7392SOL    MW429336   6.026   2.790   2.293  0.0269 -0.3740  0.1772
 7393SOL     OW29337   4.371   5.994   3.125  0.5146  0.1105  0.3006
 7393SOL    HW229338   4.455   5.958   3.099  0.6720  1.3556 -1.0298
 7393SOL    HW329339   4.307   5.948   3.071  0.5423  0.5536 -0.1144
 7393SOL    MW429340   4.373   5.984   3.115  0.5390  0.3332  0.0703
 7394SOL     OW29341   2.689   1.348   5.931  0.4973 -0.2226 -0.0422
 7394SOL    HW229342   2.734   1.352   5.847  0.6416 -2.0661 -0.1017
 7394SOL    HW329343   2.753   1.308   5.990 -1.1175 -3.4635 -0.2690
 7394SOL    MW429344   2.704   1.343   5.928  0.3033 -0.8935 -0.0800
 7395SOL     OW29345   0.789   0.088   4.275 -0.3410  0.2012 -0.7594
 7395SOL    HW229346   0.800   0.001   4.239  0.3354 -0.0123 -0.0748
 7395SOL    HW329347   0.775   0.073   4.369 -0.2238  0.8273 -0.6377
 7395SOL    MW429348   0.789   0.075   4.283 -0.2363  0.2556 -0.6530
 7396SOL     OW29349   4.033   6.179   4.097 -0.0344  0.1915  0.0914
 7396SOL    HW229350   4.098   6.249   4.096  0.1953  0.0003  1.0392
 7396SOL    HW329351   3.969   6.205   4.163  0.6673 -1.0177  1.3053
 7396SOL    MW429352   4.033   6.191   4.105  0.0885  0.0067  0.3766
 7397SOL     OW29353   5.167   1.806   3.696 -0.1531 -0.3152 -0.3648
 7397SOL    HW229354   5.260   1.781   3.694  0.0954  0.6133 -1.0814
 7397SOL    HW329355   5.134   1.766   3.776  0.8883 -0.6086 -0.0601
 7397SOL    MW429356   5.175   1.797   3.707  0.0171 -0.2314 -0.4191
 7398SOL     OW29357   0.561   0.630   2.390  0.0965 -0.4607  0.0779
 7398SOL    HW229358   0.625   0.666   2.328 -0.0999  1.7926  1.0894
 7398SOL    HW329359   0.477   0.664   2.360 -0.0753  0.1626  1.2130
 7398SOL    MW429360   0.558   0.639   2.378  0.0479 -0.0812  0.3611
 7399SOL     OW29361   3.164   2.107   1.643 -0.2166  0.6781 -0.5423
 7399SOL    HW229362   3.228   2.129   1.575  1.6239 -1.7537  0.2488
 7399SOL    HW329363   3.217   2.078   1.717 -2.2326 -1.0622  0.3131
 7399SOL    MW429364   3.180   2.106   1.644 -0.2397  0.1276 -0.3250
 7400SOL     OW29365   6.117   3.166   4.717 -0.0915 -0.5988  0.5165
 7400SOL    HW229366   6.090   3.086   4.762 -1.5298 -0.5679 -0.2299
 7400SOL    HW329367   6.188   3.138   4.660 -0.4568 -1.3153  0.4004
 7400SOL    MW429368   6.123   3.152   4.715 -0.3295 -0.6893  0.4027
 7401SOL     OW29369   0.494   0.799   2.639 -0.8325 -0.3404 -0.5600
 7401SOL    HW229370   0.531   0.790   2.551 -0.9688 -1.9652 -0.4806
 7401SOL    HW329371   0.406   0.763   2.631 -1.2597  0.5363  0.0061
 7401SOL    MW429372   0.487   0.793   2.626 -0.9069 -0.4391 -0.4748
 7402SOL     OW29373   3.681   5.944   1.377 -0.3389  0.0360  0.1667
 7402SOL    HW229374   3.639   5.940   1.463  0.1127 -0.6981  0.3592
 7402SOL    HW329375   3.610   5.926   1.316 -0.1511 -2.2009  0.5448
 7402SOL    MW429376   3.666   5.941   1.380 -0.2545 -0.3560  0.2420
 7403SOL     OW29377   6.045   4.889   5.350 -0.3032  0.4049 -0.0243
 7403SOL    HW229378   6.016   4.975   5.319  1.3650 -0.1096 -3.4336
 7403SOL    HW329379   6.139   4.889   5.338 -0.2632 -1.9263 -0.0972
 7403SOL    MW429380   6.053   4.900   5.345 -0.0778  0.0294 -0.4837
 7404SOL     OW29381   0.526   4.947   2.169 -0.1357  0.0996 -0.4186
 7404SOL    HW229382   0.499   4.945   2.261 -1.0478  1.2368 -0.6396
 7404SOL    HW329383   0.482   4.872   2.130 -1.2470  0.6674 -0.3011
 7404SOL    MW429384   0.517   4.937   2.176 -0.4027  0.3246 -0.4322
 7405SOL     OW29385   5.695   6.057   4.006  0.0686  0.4060 -0.2524
 7405SOL    HW229386   5.684   5.969   4.043 -1.6112  2.2127  4.1524
 7405SOL    HW329387   5.790   6.065   3.992  0.2604 -2.0573 -0.9848
 7405SOL    MW429388   5.706   6.046   4.009 -0.1277  0.3193  0.2322
 7406SOL     OW29389   0.584   2.816   5.487  0.6465  0.5407 -0.5678
 7406SOL    HW229390   0.500   2.850   5.517  0.5843  0.7433 -0.9627
 7406SOL    HW329391   0.614   2.760   5.558  0.2834  0.6453 -0.3294
 7406SOL    MW429392   0.577   2.813   5.501  0.5904  0.5812 -0.5885
 7407SOL     OW29393   1.472   6.421   3.583  0.2924  0.4424 -0.5165
 7407SOL    HW229394   1.388   6.433   3.627  0.5478  0.3957 -0.0083
 7407SOL    HW329395   1.456   6.352   3.519  0.2850 -0.5646  0.5366
 7407SOL    MW429396   1.459   6.413   3.581  0.3251  0.3034 -0.3105
 7408SOL     OW29397   4.060   4.694   1.888 -0.4031  0.1283  0.0171
 7408SOL    HW229398   4.124   4.682   1.958 -0.9234 -0.0303  0.4756
 7408SOL    HW329399   3.975   4.697   1.933 -0.7533 -0.0652 -0.6144
 7408SOL    MW429400   4.057   4.693   1.903 -0.5179  0.0818 -0.0057
 7409SOL     OW29401   2.432   0.850   2.030  0.1334  0.2085  0.2940
 7409SOL    HW229402   2.365   0.795   2.070 -0.0383  0.0858 -0.1545
 7409SOL    HW329403   2.488   0.789   1.982  0.9540  0.2396  1.2008
 7409SOL    MW429404   2.431   0.835   2.029  0.2190  0.1964  0.3545
 7410SOL     OW29405   1.069   1.813   5.069  0.0854 -0.2350 -0.5539
 7410SOL    HW229406   1.027   1.889   5.110 -1.2491  0.6291 -3.3030
 7410SOL    HW329407   1.019   1.738   5.101  0.4116  0.1456  0.9575
 7410SOL    MW429408   1.057   1.813   5.079 -0.0476 -0.0708 -0.7172
 7411SOL     OW29409   2.547   0.870   2.581 -0.0443 -0.4325  0.1293
 7411SOL    HW229410   2.540   0.777   2.602 -1.5623 -0.4311 -0.2898
 7411SOL    HW329411   2.639   0.890   2.596 -0.0090 -1.6013  1.8694
 7411SOL    MW429412   2.558   0.860   2.586 -0.2400 -0.5865  0.3036
 7412SOL     OW29413   2.871   5.156   4.419  0.2793  0.0582  0.4574
 7412SOL    HW229414   2.882   5.206   4.499  0.0516  0.4316  0.2596
 7412SOL    HW329415   2.836   5.219   4.356  0.9914 -0.0909 -0.0977
 7412SOL    MW429416   2.868   5.171   4.421  0.3432  0.0878  0.3581
 7413SOL     OW29417   6.174   6.095   5.771 -0.2993 -0.2238 -0.0942
 7413SOL    HW229418   6.102   6.076   5.831  2.2846 -1.7359  2.7579
 7413SOL    HW329419   6.195   6.187   5.785 -0.1708 -0.3925  0.8345
 7413SOL    MW429420   6.167   6.104   5.781  0.0586 -0.4456  0.4046
 7414SOL     OW29421   2.036   2.288   2.312  0.3212  0.5670  0.1934
 7414SOL    HW229422   1.957   2.333   2.341  0.7833  0.1488  2.2546
 7414SOL    HW329423   2.096   2.295   2.386  1.9364  0.1848 -1.0275
 7414SOL    MW429424   2.033   2.295   2.326  0.5953  0.4614  0.3043
 7415SOL     OW29425   4.302   5.995   5.059  0.4459  0.1916 -0.2671
 7415SOL    HW229426   4.384   5.980   5.107  0.0640  1.0556  0.6853
 7415SOL    HW329427   4.245   5.923   5.086  0.0056  1.0266  1.1323
 7415SOL    MW429428   4.305   5.983   5.069  0.3374  0.4158  0.0432
 7416SOL     OW29429   2.923   0.873   4.159 -0.0654  0.3213 -0.5901
 7416SOL    HW229430   2.929   0.892   4.066 -0.5555 -0.9861 -0.9141
 7416SOL    HW329431   2.980   0.797   4.171 -1.5398 -0.7802 -0.2338
 7416SOL    MW429432   2.931   0.865   4.149 -0.3246  0.0035 -0.5858
 7417SOL     OW29433   1.706   2.861   5.633  0.3661  0.0216  0.1579
 7417SOL    HW229434   1.621   2.846   5.674  1.8148 -1.3392  2.9588
 7417SOL    HW329435   1.699   2.949   5.596 -2.3293 -0.1832 -0.0116
 7417SOL    MW429436   1.694   2.871   5.634  0.2016 -0.1849  0.5051
 7418SOL     OW29437   5.660   3.989   6.085 -0.1486  0.4165  0.3875
 7418SOL    HW229438   5.680   3.981   5.992 -0.6018  1.0052  0.2290
 7418SOL    HW329439   5.586   4.051   6.088  0.1300  0.7228  1.1616
 7418SOL    MW429440   5.653   3.996   6.073 -0.1716  0.5346  0.4687
 7419SOL     OW29441   5.597   1.084   3.040 -0.6732  0.1791  0.4499
 7419SOL    HW229442   5.541   1.142   3.092  0.3003 -0.3144  2.1555
 7419SOL    HW329443   5.624   1.017   3.103 -1.4408 -1.9212 -1.3443
 7419SOL    MW429444   5.593   1.083   3.055 -0.6461 -0.1631  0.4382
 7420SOL     OW29445   1.741   5.970   5.013 -0.5990 -0.3991  0.2891
 7420SOL    HW229446   1.724   5.913   5.088 -1.0015  0.0818  0.5736
 7420SOL    HW329447   1.822   6.017   5.036 -0.0544 -1.1275 -0.1150
 7420SOL    MW429448   1.749   5.969   5.026 -0.5803 -0.4317  0.2733
 7421SOL     OW29449   2.152   5.956   2.759 -0.0228 -0.2943 -0.6531
 7421SOL    HW229450   2.191   6.006   2.686 -0.0690 -0.6704 -0.9368
 7421SOL    HW329451   2.075   6.007   2.783  0.2385  0.0703 -0.5706
 7421SOL    MW429452   2.147   5.969   2.752  0.0056 -0.2958 -0.6796
 7422SOL     OW29453   5.721   5.746   0.832 -0.4055 -0.0583  0.3942
 7422SOL    HW229454   5.803   5.788   0.805 -0.0518 -1.1396 -0.3031
 7422SOL    HW329455   5.675   5.729   0.750 -1.3171  0.4900  0.7818
 7422SOL    MW429456   5.726   5.749   0.817 -0.4791 -0.1286  0.3534
 7423SOL     OW29457   0.140   3.377   2.256 -0.0897  0.3995 -0.1686
 7423SOL    HW229458   0.224   3.412   2.285 -0.7527  0.5171  1.8155
 7423SOL    HW329459   0.163   3.306   2.196  1.3487  1.6330 -1.1543
 7423SOL    MW429460   0.154   3.372   2.252  0.0126  0.5777 -0.0369
 7424SOL     OW29461   3.253   1.836   3.024 -0.2044 -0.4068 -0.2589
 7424SOL    HW229462   3.211   1.857   3.107 -1.2759  0.3609 -0.9603
 7424SOL    HW329463   3.344   1.819   3.046 -1.1572 -3.9416  1.6076
 7424SOL    MW429464   3.260   1.837   3.038 -0.4715 -0.7719 -0.1052
 7425SOL     OW29465   0.207   4.801   1.945 -0.3908  0.3858  0.3316
 7425SOL    HW229466   0.285   4.852   1.922  0.4843  0.0580  2.3168
 7425SOL    HW329467   0.136   4.864   1.944 -0.0543  0.7778 -1.1232
 7425SOL    MW429468   0.208   4.816   1.942 -0.2310  0.3942  0.4016
 7426SOL     OW29469   0.523   1.906   2.809  0.1254 -0.1715 -0.5978
 7426SOL    HW229470   0.529   1.973   2.877  0.5318 -0.0323 -0.7664
 7426SOL    HW329471   0.587   1.840   2.835 -0.0292 -0.3283 -0.6146
 7426SOL    MW429472   0.532   1.906   2.821  0.1586 -0.1738 -0.6222
 7427SOL     OW29473   3.995   3.524   4.403  0.0191 -0.1616  0.4635
 7427SOL    HW229474   3.993   3.587   4.475  0.8756 -0.7074  0.9863
 7427SOL    HW329475   4.038   3.447   4.439  0.6988 -0.3621 -0.6967
 7427SOL    MW429476   4.001   3.522   4.417  0.2218 -0.2601  0.3794
 7428SOL     OW29477   3.054   5.410   0.240  0.2878 -0.1135 -0.2277
 7428SOL    HW229478   2.973   5.366   0.265 -0.6526 -0.2352 -3.1458
 7428SOL    HW329479   3.040   5.502   0.263  0.5340 -0.5589  1.9029
 7428SOL    MW429480   3.042   5.417   0.246  0.1962 -0.1883 -0.3316
 7429SOL     OW29481   5.787   1.967   3.429 -0.2631 -0.0783  0.0751
 7429SOL    HW229482   5.756   2.046   3.473  0.3410 -0.0824  0.5125
 7429SOL    HW329483   5.845   2.000   3.360 -1.5839 -0.0434 -1.0625
 7429SOL    MW429484   5.790   1.982   3.425 -0.3577 -0.0742 -0.0172
 7430SOL     OW29485   4.429   1.567   5.325  0.3711  0.2159 -0.2580
 7430SOL    HW229486   4.349   1.605   5.360 -0.1838 -0.0416 -1.1930
 7430SOL    HW329487   4.403   1.479   5.298  0.7829  0.3742 -1.2167
 7430SOL    MW429488   4.415   1.560   5.326  0.3522  0.2028 -0.5078
 7431SOL     OW29489   5.368   6.216   6.351  0.5650  0.4602  0.5219
 7431SOL    HW229490   5.301   6.282   6.364  1.8982  1.9687  0.0487
 7431SOL    HW329491   5.341   6.168   6.273  0.1233  1.1632  0.2391
 7431SOL    MW429492   5.356   6.218   6.343  0.6826  0.7520  0.4222
 7432SOL     OW29493   4.297   1.481   2.375 -0.2173  0.0494 -0.0205
 7432SOL    HW229494   4.307   1.532   2.294 -2.5007  1.4518  0.4875
 7432SOL    HW329495   4.207   1.499   2.403  1.0918  1.3264  3.9765
 7432SOL    MW429496   4.286   1.491   2.368 -0.3458  0.4029  0.5739
 7433SOL     OW29497   4.614   3.481   0.690  0.3883  0.2777 -0.0549
 7433SOL    HW229498   4.559   3.449   0.762 -0.3721 -1.7441 -1.4495
 7433SOL    HW329499   4.578   3.567   0.669 -0.0902  0.4178  1.2175
 7433SOL    MW429500   4.602   3.488   0.697  0.2248  0.0294 -0.0710
 7434SOL     OW29501   6.114   6.348   2.324  0.1289  0.5301  0.3357
 7434SOL    HW229502   6.119   6.290   2.400 -0.2751 -1.3878 -1.0307
 7434SOL    HW329503   6.020   6.355   2.305  0.2840 -2.7338 -2.5755
 7434SOL    MW429504   6.102   6.341   2.331  0.0961 -0.1536 -0.2286
 7435SOL     OW29505   4.196   2.290   1.394 -0.2758  0.6163 -0.4330
 7435SOL    HW229506   4.103   2.267   1.394 -0.0464 -0.3757  0.2514
 7435SOL    HW329507   4.237   2.227   1.335 -0.2143  1.9592 -1.8926
 7435SOL    MW429508   4.189   2.279   1.386 -0.2374  0.6626 -0.5352
 7436SOL     OW29509   2.435   0.214   6.276  0.4456 -0.0583  0.3775
 7436SOL    HW229510   2.369   0.194   6.209  0.2256 -0.5494  0.7340
 7436SOL    HW329511   2.490   0.281   6.236  0.5303 -0.5937 -0.4433
 7436SOL    MW429512   2.434   0.220   6.262  0.4278 -0.1938  0.3162
 7437SOL     OW29513   0.218   2.595   0.184  0.8157  0.2354  1.0788
 7437SOL    HW229514   0.271   2.519   0.207 -0.1469 -1.0464 -0.6812
 7437SOL    HW329515   0.248   2.620   0.096 -1.4923 -0.6109 -0.0310
 7437SOL    MW429516   0.229   2.589   0.175  0.3842 -0.0454  0.7002
 7438SOL     OW29517   1.920   5.454   1.060 -0.2854  0.4898  0.0407
 7438SOL    HW229518   1.840   5.504   1.076 -0.7041 -1.0130  3.3539
 7438SOL    HW329519   1.986   5.497   1.114  1.0401  1.1846 -2.0002
 7438SOL    MW429520   1.918   5.467   1.069 -0.1657  0.3832  0.2085
 7439SOL     OW29521   3.904   4.821   3.649  0.6941  0.0585  0.6814
 7439SOL    HW229522   3.814   4.843   3.625  0.6736 -0.6829  0.0409
 7439SOL    HW329523   3.894   4.757   3.720  0.7046 -0.2982  0.3650
 7439SOL    MW429524   3.891   4.815   3.655  0.6928 -0.0864  0.5552
 7440SOL     OW29525   4.912   2.134   0.369 -0.1952 -0.5007  0.2937
 7440SOL    HW229526   4.876   2.119   0.282 -0.2283 -2.0627  0.5420
 7440SOL    HW329527   4.914   2.229   0.379 -1.9234 -0.3375 -0.6769
 7440SOL    MW429528   4.908   2.145   0.359 -0.4276 -0.6853  0.1984
 7441SOL     OW29529   4.127   1.958   4.699 -0.5323  0.7640  0.8245
 7441SOL    HW229530   4.044   1.974   4.744 -0.7934  2.6272 -0.2005
 7441SOL    HW329531   4.105   1.895   4.631 -0.6621 -0.2205  1.7561
 7441SOL    MW429532   4.113   1.952   4.696 -0.5839  0.8800  0.8121
 7442SOL     OW29533   3.920   2.463   6.341  0.3998 -0.1758  0.1770
 7442SOL    HW229534   3.941   2.423   6.257 -0.2788  0.9254 -0.5494
 7442SOL    HW329535   4.004   2.472   6.386  0.9319  0.3231 -0.8926
 7442SOL    MW429536   3.933   2.459   6.336  0.3805  0.0353 -0.0600
 7443SOL     OW29537   2.184   5.314   3.171 -0.2897 -0.6660 -0.2829
 7443SOL    HW229538   2.258   5.366   3.139 -0.4719 -0.3080 -0.1330
 7443SOL    HW329539   2.113   5.333   3.110 -1.3410  1.8361  1.5589
 7443SOL    MW429540   2.184   5.323   3.159 -0.4525 -0.2887 -0.0201
 7444SOL     OW29541   6.422   5.443   0.483  0.1442 -0.3454 -0.2301
 7444SOL    HW229542   6.398   5.355   0.513  0.1467 -0.7734 -1.4397
 7444SOL    HW329543   6.339   5.482   0.456  0.4331 -0.9702 -2.1953
 7444SOL    MW429544   6.408   5.437   0.484  0.1826 -0.4843 -0.6490
 7445SOL     OW29545   4.529   5.516   3.332 -0.5824  0.5597 -0.3040
 7445SOL    HW229546   4.499   5.607   3.331 -1.3496  0.3500  0.8774
 7445SOL    HW329547   4.531   5.493   3.425  0.2811 -0.4244 -0.5454
 7445SOL    MW429548   4.525   5.525   3.344 -0.5697  0.4022 -0.1800
 7446SOL     OW29549   4.326   4.895   3.024  0.2241  0.0329  0.0795
 7446SOL    HW229550   4.387   4.906   2.951  1.1186  0.2423  0.8318
 7446SOL    HW329551   4.334   4.976   3.074 -0.3013 -0.1516  0.4684
 7446SOL    MW429552   4.335   4.907   3.021  0.2728  0.0362  0.2300
 7447SOL     OW29553   2.521   0.127   0.507  0.2927 -0.1957  0.1180
 7447SOL    HW229554   2.495   0.215   0.482  1.8383 -0.5746 -3.6014
 7447SOL    HW329555   2.443   0.073   0.489  0.0557  0.1255  0.1809
 7447SOL    MW429556   2.507   0.131   0.501  0.4653 -0.2033 -0.3644
 7448SOL     OW29557   3.190   1.326   1.947  0.3238  0.0130  0.2004
 7448SOL    HW229558   3.180   1.334   1.852 -1.0062 -0.2297  0.2978
 7448SOL    HW329559   3.147   1.404   1.982 -0.2894 -0.5133  0.6374
 7448SOL    MW429560   3.183   1.338   1.939  0.0674 -0.0884  0.2709
 7449SOL     OW29561   3.318   4.926   1.033 -0.9768 -0.3820 -0.1283
 7449SOL    HW229562   3.249   4.981   1.071 -0.1358  0.4191  0.2598
 7449SOL    HW329563   3.293   4.837   1.058 -0.8820  0.0505  1.6354
 7449SOL    MW429564   3.305   4.921   1.042 -0.8533 -0.2193  0.1556
 7450SOL     OW29565   5.009   2.688   0.705 -0.1030  0.3847  0.3491
 7450SOL    HW229566   5.052   2.759   0.752 -0.6910  0.6250  0.5283
 7450SOL    HW329567   5.067   2.670   0.631  0.0726  1.0256  0.3238
 7450SOL    MW429568   5.022   2.695   0.701 -0.1574  0.5009  0.3694
 7451SOL     OW29569   2.633   5.039   3.494  0.0305  0.3368 -0.4797
 7451SOL    HW229570   2.658   5.113   3.439 -0.6297 -0.9676 -2.6332
 7451SOL    HW329571   2.693   5.043   3.569  2.4714  0.9503 -2.3544
 7451SOL    MW429572   2.644   5.049   3.497  0.2655  0.2456 -1.0112
 7452SOL     OW29573   3.641   2.535   0.786 -0.2922  0.5805 -0.6060
 7452SOL    HW229574   3.681   2.600   0.843 -0.0578  0.0943 -0.2053
 7452SOL    HW329575   3.602   2.586   0.715  0.7272  1.0922 -0.8196
 7452SOL    MW429576   3.641   2.550   0.784 -0.1268  0.5839 -0.5813
 7453SOL     OW29577   2.794   3.419   1.514  0.0504  0.6107 -0.4721
 7453SOL    HW229578   2.842   3.355   1.461  3.0531  1.9069  0.4950
 7453SOL    HW329579   2.839   3.421   1.598 -2.0549  1.6029  0.7332
 7453SOL    MW429580   2.806   3.411   1.518  0.1688  0.9126 -0.1855
 7454SOL     OW29581   6.300   6.333   4.565 -0.5851  0.2424 -0.3491
 7454SOL    HW229582   6.329   6.258   4.513 -1.3221  0.1276 -0.5953
 7454SOL    HW329583   6.220   6.304   4.608 -1.0311  0.9682 -0.6645
 7454SOL    MW429584   6.294   6.320   4.564 -0.7412  0.3230 -0.4232
 7455SOL     OW29585   1.883   1.627   3.625  0.2773 -0.0503  0.2085
 7455SOL    HW229586   1.859   1.718   3.607 -2.2814 -0.3492  1.6820
 7455SOL    HW329587   1.819   1.575   3.577  0.0992 -1.0095  1.4365
 7455SOL    MW429588   1.872   1.632   3.616 -0.0838 -0.2163  0.5649
 7456SOL     OW29589   4.329   1.689   4.111 -0.0612 -0.0779  0.0005
 7456SOL    HW229590   4.335   1.782   4.133  0.3237  0.2926 -1.5819
 7456SOL    HW329591   4.268   1.686   4.038  0.1939 -1.0274 -0.1799
 7456SOL    MW429592   4.322   1.701   4.105  0.0232 -0.1543 -0.2320
 7457SOL     OW29593   4.055   1.514   5.862 -0.4954 -0.2748  0.4117
 7457SOL    HW229594   4.052   1.435   5.916 -0.5589 -0.8447 -0.4055
 7457SOL    HW329595   4.011   1.489   5.781  0.0270  0.4192 -0.0961
 7457SOL    MW429596   4.048   1.500   5.859 -0.4349 -0.2584  0.2369
 7458SOL     OW29597   5.838   1.714   4.651  0.1034  0.9082 -0.9069
 7458SOL    HW229598   5.818   1.621   4.640 -0.2379  1.1223 -2.3532
 7458SOL    HW329599   5.823   1.752   4.564  0.2045  2.3211 -0.3359
 7458SOL    MW429600   5.833   1.707   4.638  0.0717  1.1229 -1.0224
 7459SOL     OW29601   4.218   3.889   1.802  0.2584 -0.0638 -0.0977
 7459SOL    HW229602   4.256   3.971   1.836 -0.9136 -0.2309  1.8026
 7459SOL    HW329603   4.293   3.832   1.786  0.9736  0.6229  0.7153
 7459SOL    MW429604   4.233   3.893   1.805  0.1981  0.0048  0.2603
 7460SOL     OW29605   0.420   4.981   0.414 -0.7998  0.2466  0.0895
 7460SOL    HW229606   0.437   5.067   0.452  0.1632  0.3377 -0.5062
 7460SOL    HW329607   0.430   4.919   0.486  1.2255  0.3941 -0.0267
 7460SOL    MW429608   0.423   4.984   0.428 -0.4056  0.2781 -0.0044
 7461SOL     OW29609   0.766   3.198   4.339  0.4561 -0.3876 -0.4168
 7461SOL    HW229610   0.685   3.249   4.342 -0.6281 -2.0607  0.9671
 7461SOL    HW329611   0.832   3.256   4.377 -0.6770  0.1286  0.8628
 7461SOL    MW429612   0.764   3.212   4.345  0.1636 -0.5402 -0.0654
 7462SOL     OW29613   4.976   1.763   3.069 -0.1563 -0.5064  0.7251
 7462SOL    HW229614   4.999   1.682   3.024  1.3439 -0.0758  0.6517
 7462SOL    HW329615   4.913   1.807   3.012  1.5134 -0.0872 -0.8735
 7462SOL    MW429616   4.971   1.758   3.056  0.2620 -0.3943  0.5045
 7463SOL     OW29617   0.025   3.972   3.878 -0.1074  0.2137 -0.0553
 7463SOL    HW229618  -0.025   3.958   3.797  0.4898 -1.4488 -0.1681
 7463SOL    HW329619  -0.013   3.910   3.941  3.5957 -3.4643 -0.9838
 7463SOL    MW429620   0.013   3.962   3.876  0.4600 -0.4909 -0.1927
 7464SOL     OW29621   5.249   3.204   5.903 -0.5519 -0.2167  0.1994
 7464SOL    HW229622   5.185   3.269   5.873 -1.7288 -1.0706  0.7427
 7464SOL    HW329623   5.244   3.134   5.838  0.8269  0.2787 -0.4707
 7464SOL    MW429624   5.240   3.203   5.891 -0.5253 -0.2640  0.1827
 7465SOL     OW29625   3.041   0.991   3.265 -0.3205 -0.0373 -0.2362
 7465SOL    HW229626   2.951   1.020   3.250 -0.4122  0.2677  0.7735
 7465SOL    HW329627   3.075   0.972   3.178 -0.4863  2.4677 -0.9321
 7465SOL    MW429628   3.034   0.992   3.252 -0.3545  0.3334 -0.1948
 7466SOL     OW29629   6.162   1.122   6.248  0.2499  0.0759 -0.1873
 7466SOL    HW229630   6.091   1.073   6.206 -0.6237  1.0847  0.0766
 7466SOL    HW329631   6.242   1.074   6.223 -0.4580 -0.7350 -0.9797
 7466SOL    MW429632   6.163   1.109   6.239  0.0412  0.1020 -0.2570
 7467SOL     OW29633   0.398   4.229   5.827  0.3733 -0.5910 -0.1603
 7467SOL    HW229634   0.316   4.273   5.801  0.4934  0.7554  1.5784
 7467SOL    HW329635   0.372   4.168   5.895  0.8695  0.2022  0.7551
 7467SOL    MW429636   0.384   4.227   5.832  0.4546 -0.3087  0.1898
 7468SOL     OW29637   0.635   4.450   5.164  0.5285  0.8114  0.4585
 7468SOL    HW229638   0.683   4.426   5.244  0.4001 -0.0811  0.2857
 7468SOL    HW329639   0.565   4.385   5.159 -1.0004  2.3557  0.9539
 7468SOL    MW429640   0.632   4.438   5.174  0.3098  0.8974  0.5010
 7469SOL     OW29641   1.509   4.693   3.039  0.5504 -0.6486 -0.0247
 7469SOL    HW229642   1.543   4.782   3.054  1.8452 -1.1903  0.4628
 7469SOL    HW329643   1.419   4.696   3.069  0.4043  0.6486 -0.5339
 7469SOL    MW429644   1.502   4.705   3.045  0.7019 -0.5490 -0.0276
 7470SOL     OW29645   0.287   1.171   4.220 -0.1240 -0.1437  0.0962
 7470SOL    HW229646   0.268   1.077   4.222 -0.7566 -0.0569 -1.0320
 7470SOL    HW329647   0.239   1.203   4.143 -0.7171  1.2686  1.0156
 7470SOL    MW429648   0.278   1.163   4.210 -0.2857  0.0541  0.0686
 7471SOL     OW29649   1.522   1.250   1.358 -0.1880 -0.3485 -0.0855
 7471SOL    HW229650   1.535   1.312   1.430 -0.4766  0.0359 -0.3577
 7471SOL    HW329651   1.574   1.173   1.383 -2.0797 -1.1586  1.6511
 7471SOL    MW429652   1.531   1.248   1.371 -0.4757 -0.4047  0.1077
 7472SOL     OW29653   1.544   3.342   0.709  0.5377 -0.0228 -0.0317
 7472SOL    HW229654   1.471   3.304   0.759 -0.2635 -1.2281 -1.9988
 7472SOL    HW329655   1.598   3.386   0.775 -0.7750 -1.0076  1.7899
 7472SOL    MW429656   1.541   3.343   0.725  0.2588 -0.3118 -0.0509
 7473SOL     OW29657   2.229   6.421   4.502  0.2206  0.6437  0.6532
 7473SOL    HW229658   2.143   6.461   4.486 -1.4911 -2.0180  2.3441
 7473SOL    HW329659   2.240   6.427   4.597  1.8555  0.7653  0.4719
 7473SOL    MW429660   2.219   6.427   4.512  0.2104  0.3086  0.8524
 7474SOL     OW29661   3.661   2.889   4.212 -0.9646  0.2873  0.1590
 7474SOL    HW229662   3.579   2.843   4.227 -0.0775 -1.0176  1.2061
 7474SOL    HW329663   3.679   2.877   4.118  0.1885 -3.2940  0.6860
 7474SOL    MW429664   3.653   2.881   4.202 -0.6954 -0.3574  0.3667
 7475SOL     OW29665   2.152   2.559   5.377  0.6640 -0.0078 -0.0252
 7475SOL    HW229666   2.241   2.593   5.365 -0.3885  2.4986 -1.6304
 7475SOL    HW329667   2.096   2.621   5.330 -1.8349 -2.2620 -0.2884
 7475SOL    MW429668   2.156   2.572   5.369  0.1954  0.0254 -0.2717
 7476SOL     OW29669   3.067   0.051   0.827 -0.6426  0.3123 -0.1757
 7476SOL    HW229670   3.021   0.040   0.910  0.6951  1.6615  0.7959
 7476SOL    HW329671   3.004   0.022   0.761 -1.6781 -0.9601  1.2971
 7476SOL    MW429672   3.052   0.046   0.829 -0.6027  0.3225  0.1468
 7477SOL     OW29673   4.132   4.109   1.141  0.4154 -0.2527 -0.3935
 7477SOL    HW229674   4.082   4.067   1.211 -0.4282 -0.1726 -0.9427
 7477SOL    HW329675   4.066   4.143   1.081  1.0168  2.5104  0.3690
 7477SOL    MW429676   4.117   4.108   1.143  0.3834  0.1224 -0.3653
 7478SOL     OW29677   5.446   0.086   0.990 -0.4801  0.3558 -0.4740
 7478SOL    HW229678   5.399   0.149   1.044  0.0018  1.3600 -1.2049
 7478SOL    HW329679   5.535   0.087   1.024  0.2238  2.1484 -2.2152
 7478SOL    MW429680   5.451   0.094   1.001 -0.3237  0.7248 -0.8002
 7479SOL     OW29681   2.787   4.702   5.778  0.0237  0.3780 -0.3754
 7479SOL    HW229682   2.788   4.741   5.865 -0.4742  0.1695 -0.2707
 7479SOL    HW329683   2.796   4.608   5.793 -0.6847  0.2809 -0.5025
 7479SOL    MW429684   2.788   4.695   5.791 -0.1354  0.3377 -0.3783
 7480SOL     OW29685   2.571   3.147   1.360  0.2783 -0.5942  0.0686
 7480SOL    HW229686   2.622   3.214   1.314  0.3362 -0.0659  0.8861
 7480SOL    HW329687   2.498   3.129   1.301 -1.1486  2.0080  0.8488
 7480SOL    MW429688   2.568   3.154   1.346  0.0977 -0.1812  0.2794
 7481SOL     OW29689   2.260   2.011   1.777 -0.2147  0.1012 -0.3178
 7481SOL    HW229690   2.205   1.942   1.814 -0.0230 -0.1024 -0.4094
 7481SOL    HW329691   2.223   2.028   1.690 -0.4277  0.3052 -0.1868
 7481SOL    MW429692   2.248   2.004   1.770 -0.2175  0.1013 -0.3126
 7482SOL     OW29693   3.951   3.692   3.330 -0.1397 -0.5582  0.2126
 7482SOL    HW229694   3.911   3.642   3.402  0.7679  0.9814  1.8613
 7482SOL    HW329695   4.000   3.762   3.374  2.5749 -1.0500 -1.7907
 7482SOL    MW429696   3.952   3.695   3.345  0.3382 -0.4200  0.1658
 7483SOL     OW29697   0.515   5.688   5.127 -0.0282 -0.4024 -0.2548
 7483SOL    HW229698   0.439   5.691   5.068 -0.3442  1.6773  0.1541
 7483SOL    HW329699   0.478   5.707   5.213  1.0246  1.7101 -0.1946
 7483SOL    MW429700   0.500   5.691   5.131  0.0690  0.1507 -0.1929
 7484SOL     OW29701   4.776   6.409   5.789 -0.1477 -0.0883  0.1285
 7484SOL    HW229702   4.690   6.376   5.815 -0.1850  0.4762  0.7505
 7484SOL    HW329703   4.781   6.496   5.829  0.2589  0.3397 -0.8284
 7484SOL    MW429704   4.766   6.416   5.798 -0.0990  0.0426  0.0843
 7485SOL     OW29705   1.623   1.052   5.678  0.0088 -0.2065 -0.5358
 7485SOL    HW229706   1.557   1.045   5.747  0.6275 -1.6463 -0.0501
 7485SOL    HW329707   1.652   0.962   5.663 -0.9163 -0.1020 -3.5134
 7485SOL    MW429708   1.619   1.039   5.686 -0.0317 -0.3827 -0.8646
 7486SOL     OW29709   5.318   6.005   6.169  0.3598  0.4676 -0.5791
 7486SOL    HW229710   5.351   5.934   6.224 -0.3226  0.0476 -0.7069
 7486SOL    HW329711   5.304   5.965   6.083 -3.4934 -0.2188  0.2179
 7486SOL    MW429712   5.321   5.991   6.165 -0.2386  0.3216 -0.4908
 7487SOL     OW29713   3.209   3.098   1.727 -0.0413  0.3073  0.0242
 7487SOL    HW229714   3.224   3.192   1.714 -0.0704  0.4269  0.7829
 7487SOL    HW329715   3.296   3.058   1.719 -0.1073  0.3258 -0.8407
 7487SOL    MW429716   3.223   3.105   1.724 -0.0539  0.3256  0.0102
 7488SOL     OW29717   0.657   3.976   1.142 -0.7191 -0.0055  0.1930
 7488SOL    HW229718   0.577   4.003   1.097 -0.2894  0.3480 -0.3681
 7488SOL    HW329719   0.627   3.950   1.229 -1.4252  0.2577  0.0402
 7488SOL    MW429720   0.642   3.976   1.147 -0.7555  0.0759  0.0988
 7489SOL     OW29721   5.207   3.244   3.017  0.0011 -0.2444  1.0148
 7489SOL    HW229722   5.216   3.159   3.060 -0.8167  0.0857  1.8582
 7489SOL    HW329723   5.120   3.274   3.041 -0.3543  0.1128 -0.5964
 7489SOL    MW429724   5.197   3.237   3.026 -0.1537 -0.1537  0.9135
 7490SOL     OW29725   4.251   6.347   4.886 -0.3331  0.5871  0.1632
 7490SOL    HW229726   4.210   6.321   4.968  0.5784 -0.2402  0.3830
 7490SOL    HW329727   4.180   6.348   4.822 -1.4248  3.1030  1.3139
 7490SOL    MW429728   4.236   6.343   4.888 -0.3569  0.8099  0.3440
 7491SOL     OW29729   3.519   6.145   1.076 -0.0553 -0.2558 -0.2767
 7491SOL    HW229730   3.480   6.129   0.990 -0.5111 -0.1982 -0.0842
 7491SOL    HW329731   3.445   6.168   1.132  0.2443 -0.2454  0.1212
 7491SOL    MW429732   3.504   6.146   1.072 -0.0759 -0.2468 -0.1988
 7492SOL     OW29733   2.234   0.484   4.669  0.5777 -0.1440 -0.5355
 7492SOL    HW229734   2.321   0.446   4.684  0.0923 -1.3900 -0.7758
 7492SOL    HW329735   2.230   0.496   4.574  0.2286 -0.7526 -0.6016
 7492SOL    MW429736   2.245   0.481   4.658  0.4676 -0.3887 -0.5759
 7493SOL     OW29737   2.640   2.849   4.070 -0.7472 -0.6787  0.1297
 7493SOL    HW229738   2.606   2.814   4.153 -2.1514 -0.7037 -0.4212
 7493SOL    HW329739   2.617   2.781   4.006 -0.7150 -0.1372 -0.4562
 7493SOL    MW429740   2.632   2.835   4.073 -0.9282 -0.6105 -0.0203
 7494SOL     OW29741   4.041   6.019   5.277  0.3849 -0.2800 -0.3920
 7494SOL    HW229742   3.949   6.001   5.294  0.3043  0.9482  0.6863
 7494SOL    HW329743   4.081   5.933   5.265 -0.3489 -1.0675  2.1701
 7494SOL    MW429744   4.034   6.006   5.278  0.2774 -0.2219  0.0883
 7495SOL     OW29745   3.628   6.341   0.534 -0.2259  0.3253 -0.0553
 7495SOL    HW229746   3.660   6.413   0.481 -1.1053  0.9107  0.1770
 7495SOL    HW329747   3.538   6.327   0.504  0.1804 -1.1742 -0.6039
 7495SOL    MW429748   3.620   6.349   0.523 -0.2883  0.2047 -0.0970
 7496SOL     OW29749   2.688   6.287   3.152 -0.7008 -0.2890  0.4499
 7496SOL    HW229750   2.608   6.332   3.178 -1.0044 -0.9635  0.7172
 7496SOL    HW329751   2.668   6.194   3.163  0.2070 -0.4577  0.7629
 7496SOL    MW429752   2.675   6.281   3.157 -0.6211 -0.4002  0.5265
 7497SOL     OW29753   3.556   5.542   5.394 -0.1310  0.1839 -0.1567
 7497SOL    HW229754   3.643   5.575   5.373 -0.4882  1.4236  0.2890
 7497SOL    HW329755   3.568   5.493   5.475  0.4370 -1.0362 -0.9365
 7497SOL    MW429756   3.569   5.540   5.402 -0.1032  0.1865 -0.2008
 7498SOL     OW29757   6.077   2.323   1.431  0.4486  0.7262  0.5442
 7498SOL    HW229758   6.084   2.276   1.348 -0.1595  0.5751  0.5705
 7498SOL    HW329759   5.990   2.363   1.428  0.7234  1.3506  0.7844
 7498SOL    MW429760   6.066   2.322   1.419  0.4047  0.7886  0.5794
 7499SOL     OW29761   2.752   4.712   1.538  0.5611 -0.0987  0.4045
 7499SOL    HW229762   2.705   4.670   1.466  1.4426 -1.2299  0.4579
 7499SOL    HW329763   2.706   4.681   1.617  1.1504 -0.9154  0.4389
 7499SOL    MW429764   2.739   4.702   1.539  0.7551 -0.3557  0.4161
 7500SOL     OW29765   5.918   6.120   5.147  0.4035  0.4536  0.2123
 7500SOL    HW229766   5.982   6.058   5.182 -1.7208 -1.8437  0.3271
 7500SOL    HW329767   5.909   6.186   5.215  1.8371  0.2390  0.6445
 7500SOL    MW429768   5.925   6.121   5.160  0.3124  0.1222  0.2844
 7501SOL     OW29769   4.576   0.120   3.608 -0.5262 -0.0694  0.1280
 7501SOL    HW229770   4.526   0.044   3.577 -0.6469  0.1025 -0.0997
 7501SOL    HW329771   4.584   0.176   3.531 -0.1997  0.0217  0.2290
 7501SOL    MW429772   4.570   0.117   3.594 -0.4990 -0.0347  0.1113
 7502SOL     OW29773   3.101   5.008   4.299  0.2721 -0.0687 -0.4731
 7502SOL    HW229774   3.038   5.009   4.371  1.0936  1.0054  0.2450
 7502SOL    HW329775   3.186   4.992   4.340  0.5535 -1.0672 -1.3864
 7502SOL    MW429776   3.104   5.006   4.314  0.4176 -0.0587 -0.4989
 7503SOL     OW29777   2.886   3.008   4.129  0.1099 -0.4105  0.3011
 7503SOL    HW229778   2.821   2.948   4.093 -0.2546 -0.7487  1.4736
 7503SOL    HW329779   2.838   3.088   4.148  0.5534  0.1968 -1.0617
 7503SOL    MW429780   2.871   3.011   4.127  0.1203 -0.3750  0.2760
 7504SOL     OW29781   3.762   4.945   4.855 -0.2617 -0.2184 -0.5474
 7504SOL    HW229782   3.785   4.864   4.902  0.7786 -0.0129 -0.6600
 7504SOL    HW329783   3.811   4.938   4.772  1.7434  1.5541  0.3894
 7504SOL    MW429784   3.772   4.933   4.850  0.1401  0.0426 -0.4386
 7505SOL     OW29785   1.858   2.922   1.320 -0.2191 -0.3045  0.0901
 7505SOL    HW229786   1.810   3.005   1.322  0.9729  0.4103  0.3887
 7505SOL    HW329787   1.882   2.911   1.228  2.0084  1.1720  0.4031
 7505SOL    MW429788   1.855   2.932   1.308  0.2321 -0.0154  0.1708
 7506SOL     OW29789   4.601   1.861   4.515 -0.2956 -0.2665 -0.5581
 7506SOL    HW229790   4.671   1.852   4.450 -1.7351 -0.7467 -2.1210
 7506SOL    HW329791   4.594   1.774   4.554 -1.1326 -0.7185 -1.6499
 7506SOL    MW429792   4.610   1.848   4.512 -0.5959 -0.3895 -0.9084
 7507SOL     OW29793   4.582   6.201   2.517  0.8457 -0.3460  0.0860
 7507SOL    HW229794   4.551   6.267   2.580  1.6918 -0.6772  0.8863
 7507SOL    HW329795   4.506   6.145   2.501 -0.1065  1.2283 -1.1823
 7507SOL    MW429796   4.568   6.202   2.523  0.8317 -0.1820  0.0243
 7508SOL     OW29797   4.587   5.086   1.383 -0.2353 -0.2769  0.3263
 7508SOL    HW229798   4.615   5.014   1.440 -0.8720  0.1293  1.1704
 7508SOL    HW329799   4.494   5.097   1.402 -0.2528  0.4580 -0.1455
 7508SOL    MW429800   4.579   5.078   1.393 -0.3217 -0.1263  0.3754
 7509SOL     OW29801   0.033   5.717   1.295  0.3342  0.1824  0.0520
 7509SOL    HW229802  -0.000   5.696   1.208  1.8312 -0.7267 -0.3349
 7509SOL    HW329803   0.065   5.807   1.287  1.8272 -0.3881 -0.8074
 7509SOL    MW429804   0.033   5.726   1.282  0.7287 -0.0128 -0.1124
 7510SOL     OW29805   2.789   3.195   1.924 -0.4565 -0.3686 -0.4405
 7510SOL    HW229806   2.851   3.162   1.988  1.0573  0.2826 -1.5075
 7510SOL    HW329807   2.783   3.125   1.858  0.5720  0.2746 -1.2531
 7510SOL    MW429808   2.796   3.181   1.924 -0.1211 -0.1978 -0.6885
 7511SOL     OW29809   1.036   5.898   0.807  0.1262  0.3204  0.3753
 7511SOL    HW229810   0.950   5.938   0.790 -0.2198 -0.5482  0.0283
 7511SOL    HW329811   1.098   5.955   0.762 -0.4283  0.1011 -0.7063
 7511SOL    MW429812   1.033   5.911   0.799  0.0074  0.1768  0.1868
 7512SOL     OW29813   6.140   4.741   1.623  0.0827  0.6023 -0.1209
 7512SOL    HW229814   6.129   4.823   1.670 -0.7741  1.0841 -1.1203
 7512SOL    HW329815   6.235   4.730   1.616  0.4105 -0.8378  3.9271
 7512SOL    MW429816   6.151   4.751   1.628  0.0129  0.4759  0.2813
 7513SOL     OW29817   0.293   4.319   1.183 -0.0970 -0.2933  0.8679
 7513SOL    HW229818   0.284   4.388   1.118 -0.4253 -1.3899 -0.3027
 7513SOL    HW329819   0.364   4.347   1.240 -0.4695  1.1617  0.6468
 7513SOL    MW429820   0.301   4.332   1.182 -0.1895 -0.2460  0.6843
 7514SOL     OW29821   6.220   0.206   3.348  0.0347  0.4760  0.7626
 7514SOL    HW229822   6.132   0.237   3.367  0.3590 -0.2479  3.9619
 7514SOL    HW329823   6.211   0.111   3.341  0.7113  0.2660  2.4111
 7514SOL    MW429824   6.207   0.198   3.349  0.1668  0.3528  1.4022
 7515SOL     OW29825   3.452   0.339   6.018  0.1630 -0.1367 -0.8156
 7515SOL    HW229826   3.366   0.342   6.059 -0.6027 -0.2597 -2.3460
 7515SOL    HW329827   3.452   0.257   5.968  1.0783 -0.0122 -1.0420
 7515SOL    MW429828   3.441   0.328   6.017  0.1828 -0.1365 -1.0474
 7516SOL     OW29829   1.792   0.471   1.937  0.1452 -0.3199 -0.4140
 7516SOL    HW229830   1.887   0.474   1.925 -0.0714 -0.3925 -2.4717
 7516SOL    HW329831   1.767   0.562   1.949  0.5123 -0.3479  0.6721
 7516SOL    MW429832   1.801   0.483   1.937  0.1651 -0.3332 -0.5422
 7517SOL     OW29833   5.696   5.049   3.809 -0.0157 -0.1731 -0.2751
 7517SOL    HW229834   5.628   5.062   3.876 -1.0503 -0.0577 -1.3238
 7517SOL    HW329835   5.742   5.133   3.805  1.4185 -0.7730  1.7023
 7517SOL    MW429836   5.693   5.062   3.817  0.0370 -0.2370 -0.1525
 7518SOL     OW29837   5.253   1.463   2.305 -0.0533 -0.5722 -0.8614
 7518SOL    HW229838   5.199   1.391   2.272 -1.4826 -0.4347  1.0033
 7518SOL    HW329839   5.326   1.419   2.350  0.9171 -0.7659 -2.5355
 7518SOL    MW429840   5.256   1.448   2.306 -0.1139 -0.5796 -0.8362
 7519SOL     OW29841   3.938   4.088   3.242  0.1638 -0.4084  0.1446
 7519SOL    HW229842   4.026   4.089   3.282  0.8391 -2.7251 -1.1258
 7519SOL    HW329843   3.879   4.078   3.316  0.9642  0.6619  0.9798
 7519SOL    MW429844   3.942   4.087   3.257  0.3585 -0.5729  0.0872
 7520SOL     OW29845   3.812   3.176   3.498  0.0142  0.2718  0.2814
 7520SOL    HW229846   3.905   3.159   3.504 -0.0117  0.4017  1.0747
 7520SOL    HW329847   3.799   3.204   3.407  0.3010 -2.3048 -0.6247
 7520SOL    MW429848   3.822   3.178   3.487  0.0486 -0.0510  0.2665
 7521SOL     OW29849   5.721   3.359   4.056  0.1762  0.1614 -0.8818
 7521SOL    HW229850   5.723   3.333   3.964 -1.8462 -0.7982 -0.7087
 7521SOL    HW329851   5.811   3.350   4.086  0.2398 -3.4297 -1.7568
 7521SOL    MW429852   5.733   3.355   4.048 -0.0822 -0.4390 -0.9744
 7522SOL     OW29853   1.432   3.663   1.195 -0.2256 -0.4266  0.2485
 7522SOL    HW229854   1.485   3.593   1.156 -2.0433 -1.2771 -0.8471
 7522SOL    HW329855   1.433   3.733   1.130 -2.3799 -1.4263 -0.9834
 7522SOL    MW429856   1.439   3.663   1.181 -0.7497 -0.6707 -0.0586
 7523SOL     OW29857   4.968   5.977   6.012 -0.2101  0.6079 -0.2525
 7523SOL    HW229858   4.950   5.896   5.964 -1.4563 -0.3693  1.7308
 7523SOL    HW329859   4.963   6.046   5.945 -2.3806 -0.6167 -1.4841
 7523SOL    MW429860   4.965   5.976   5.997 -0.6609  0.3174 -0.1533
 7524SOL     OW29861   4.704   5.664   2.916 -0.2131 -0.4320  0.0416
 7524SOL    HW229862   4.730   5.611   2.992 -1.6588 -1.4499 -0.1265
 7524SOL    HW329863   4.785   5.706   2.887  0.9206 -2.2497  0.4235
 7524SOL    MW429864   4.718   5.662   2.922 -0.2543 -0.8061  0.0698
 7525SOL     OW29865   0.440   4.504   0.577  0.0685  0.3844 -0.1532
 7525SOL    HW229866   0.464   4.411   0.574  2.9762  1.0691 -1.7997
 7525SOL    HW329867   0.363   4.510   0.521 -0.5801 -1.1122  0.5172
 7525SOL    MW429868   0.433   4.492   0.569  0.3666  0.2773 -0.2820
 7526SOL     OW29869   0.075   5.285   0.887 -0.0293 -0.5144  0.7735
 7526SOL    HW229870  -0.010   5.311   0.923  0.0551 -1.0445  1.3922
 7526SOL    HW329871   0.056   5.257   0.798 -0.7464 -1.8850  1.3218
 7526SOL    MW429872   0.061   5.285   0.880 -0.1128 -0.7652  0.9275
 7527SOL     OW29873   3.538   1.604   2.123 -0.1755  0.2075 -0.4441
 7527SOL    HW229874   3.471   1.661   2.160 -0.6252 -1.5425  1.6426
 7527SOL    HW329875   3.493   1.522   2.104  1.2882 -1.0102  1.0024
 7527SOL    MW429876   3.523   1.601   2.125 -0.0417 -0.1840  0.0221
 7528SOL     OW29877   2.094   2.547   4.978 -0.5957  0.2132  0.2010
 7528SOL    HW229878   2.169   2.488   4.979  0.1231  1.0830  2.4562
 7528SOL    HW329879   2.021   2.494   5.011 -0.7526 -0.3118 -0.9366
 7528SOL    MW429880   2.094   2.532   4.982 -0.5216  0.2587  0.3485
 7529SOL     OW29881   3.721   2.223   2.710  0.5824 -0.0871 -0.1955
 7529SOL    HW229882   3.724   2.133   2.743  0.8950  0.1394  0.4103
 7529SOL    HW329883   3.800   2.264   2.744 -0.4234  0.9186  1.0497
 7529SOL    MW429884   3.732   2.216   2.719  0.4910  0.0755  0.0487
 7530SOL     OW29885   4.999   0.394   0.184  0.6170 -0.0773 -0.0343
 7530SOL    HW229886   5.043   0.470   0.223  1.3235 -1.6769  2.5293
 7530SOL    HW329887   4.908   0.422   0.173  0.9644  1.3060  0.3914
 7530SOL    MW429888   4.993   0.408   0.188  0.7561 -0.1059  0.3601
 7531SOL     OW29889   2.551   3.189   4.469  0.2302 -0.0966 -0.5168
 7531SOL    HW229890   2.475   3.140   4.501  1.4522 -2.6233 -1.2492
 7531SOL    HW329891   2.621   3.167   4.530  0.3657  2.4727  0.3486
 7531SOL    MW429892   2.550   3.179   4.481  0.4093 -0.0910 -0.4992
 7532SOL     OW29893   5.639   0.473   0.125  0.3519 -0.1935 -0.4892
 7532SOL    HW229894   5.624   0.457   0.032  0.2117 -3.4949  0.0021
 7532SOL    HW329895   5.732   0.456   0.138  0.6322  1.4246 -0.1803
 7532SOL    MW429896   5.649   0.469   0.114  0.3704 -0.4156 -0.3837
 7533SOL     OW29897   1.534   4.977   1.851  0.8267 -0.2180  0.0381
 7533SOL    HW229898   1.557   4.998   1.760  1.5344  1.6250  0.6007
 7533SOL    HW329899   1.438   4.978   1.852  0.7809  2.0664 -0.2601
 7533SOL    MW429900   1.524   4.980   1.839  0.9140  0.3265  0.0730
 7534SOL     OW29901   0.554   6.207   3.502 -0.0506 -0.4365  0.3210
 7534SOL    HW229902   0.481   6.154   3.470  0.4886 -0.6206 -0.6338
 7534SOL    HW329903   0.557   6.282   3.442  2.4030 -1.9109 -1.5750
 7534SOL    MW429904   0.544   6.210   3.490  0.3442 -0.6553 -0.0551
 7535SOL     OW29905   5.055   1.733   5.484 -0.4517 -0.2417 -0.3003
 7535SOL    HW229906   5.149   1.727   5.497 -0.7112 -2.3638  1.1628
 7535SOL    HW329907   5.045   1.787   5.406  1.9341  0.4664 -0.1901
 7535SOL    MW429908   5.066   1.739   5.475 -0.1712 -0.4282 -0.0927
 7536SOL     OW29909   2.692   5.047   5.804  0.4155 -0.2095  0.1244
 7536SOL    HW229910   2.686   5.030   5.898 -0.0228 -0.3090  0.0821
 7536SOL    HW329911   2.783   5.073   5.789  1.4546 -3.4344  0.0471
 7536SOL    MW429912   2.703   5.049   5.814  0.4948 -0.6481  0.1086
 7537SOL     OW29913   2.064   6.263   3.843  0.2508  0.0454  0.2238
 7537SOL    HW229914   2.131   6.249   3.777 -0.1975  1.7879 -0.6510
 7537SOL    HW329915   1.998   6.197   3.824  0.7379 -0.3172 -0.2310
 7537SOL    MW429916   2.064   6.252   3.832  0.2559  0.2275  0.0484
 7538SOL     OW29917   0.656   1.779   0.478  0.2584 -0.5362  0.3866
 7538SOL    HW229918   0.569   1.777   0.519 -0.2811 -2.4037 -0.7346
 7538SOL    HW329919   0.645   1.836   0.402 -0.5530 -2.1539 -0.7849
 7538SOL    MW429920   0.643   1.786   0.473  0.0802 -0.9960  0.0841
 7539SOL     OW29921   3.646   6.417   4.150 -0.1858  0.2187 -0.2891
 7539SOL    HW229922   3.642   6.475   4.074  0.3722  0.0789 -0.4234
 7539SOL    HW329923   3.647   6.329   4.112  1.5214  0.1691 -0.1825
 7539SOL    MW429924   3.645   6.413   4.135  0.1131  0.1937 -0.2927
 7540SOL     OW29925   0.516   0.272   5.823 -0.1292 -0.0759 -0.2950
 7540SOL    HW229926   0.594   0.219   5.841 -0.2287 -0.2644 -0.4169
 7540SOL    HW329927   0.456   0.252   5.895  0.1390  0.4696  0.0844
 7540SOL    MW429928   0.518   0.262   5.835 -0.1069 -0.0288 -0.2610
 7541SOL     OW29929   0.650   2.558   2.001 -0.0705 -0.7036 -0.0213
 7541SOL    HW229930   0.641   2.607   2.082 -0.3753 -1.1847  0.2396
 7541SOL    HW329931   0.614   2.616   1.934  3.5164  1.2693 -0.4456
 7541SOL    MW429932   0.644   2.572   2.003  0.3625 -0.5068 -0.0429
 7542SOL     OW29933   5.690   0.160   1.698 -0.6071  0.1276 -0.0319
 7542SOL    HW229934   5.691   0.082   1.643 -0.2782  0.8306 -1.0407
 7542SOL    HW329935   5.728   0.229   1.644 -1.1431  1.0658  0.7421
 7542SOL    MW429936   5.695   0.159   1.684 -0.6344  0.3441 -0.0629
 7543SOL     OW29937   5.370   0.937   1.936 -0.1751  0.3618  0.0068
 7543SOL    HW229938   5.308   0.866   1.956 -0.8116  0.7543 -0.5103
 7543SOL    HW329939   5.334   0.977   1.857  0.4305  0.9742  0.0387
 7543SOL    MW429940   5.357   0.933   1.928 -0.1792  0.4944 -0.0572
 7544SOL     OW29941   2.827   2.915   3.401 -0.0931  0.1303  0.3276
 7544SOL    HW229942   2.883   2.990   3.419  0.0699  0.1344 -0.1774
 7544SOL    HW329943   2.853   2.886   3.313  1.1374 -1.6336  1.2080
 7544SOL    MW429944   2.838   2.921   3.392  0.0907 -0.1019  0.3772
 7545SOL     OW29945   1.666   3.671   2.446  0.3826  0.0211 -0.1132
 7545SOL    HW229946   1.694   3.656   2.355  0.6328  3.9058 -0.8517
 7545SOL    HW329947   1.573   3.690   2.440  0.7052  1.8818  0.1243
 7545SOL    MW429948   1.658   3.671   2.433  0.4581  0.7791 -0.1793
 7546SOL     OW29949   5.616   2.924   4.213 -0.3895 -0.1558 -0.0843
 7546SOL    HW229950   5.642   3.004   4.257  1.2831 -0.9755  0.5182
 7546SOL    HW329951   5.579   2.869   4.282 -1.0534 -0.1166 -0.3979
 7546SOL    MW429952   5.615   2.927   4.228 -0.2564 -0.2587 -0.0461
 7547SOL     OW29953   5.634   1.550   0.256  0.3564 -0.4121  0.6788
 7547SOL    HW229954   5.657   1.457   0.261  1.5824 -0.5085 -3.5802
 7547SOL    HW329955   5.556   1.552   0.201  1.6242  1.1484 -1.1594
 7547SOL    MW429956   5.627   1.538   0.250  0.6855 -0.2189 -0.1256
 7548SOL     OW29957   3.501   4.146   2.424  0.4353  0.0714  0.6410
 7548SOL    HW229958   3.419   4.183   2.392  0.1714 -0.8856  0.1554
 7548SOL    HW329959   3.477   4.059   2.456  1.6133 -1.1896 -1.6546
 7548SOL    MW429960   3.487   4.139   2.424  0.5559 -0.2212  0.2741
 7549SOL     OW29961   4.986   2.993   4.599  0.2128  0.4365  0.7300
 7549SOL    HW229962   5.007   3.051   4.672  2.2164  1.3153 -0.4488
 7549SOL    HW329963   4.958   3.053   4.529 -0.6511 -0.2931  0.4397
 7549SOL    MW429964   4.985   3.009   4.599  0.3632  0.4561  0.5362
 7550SOL     OW29965   6.384   5.856   4.287 -0.0177 -0.5643  0.5368
 7550SOL    HW229966   6.420   5.833   4.202 -0.5301 -0.8585  0.4022
 7550SOL    HW329967   6.297   5.817   4.289 -0.6660  0.7934  0.5543
 7550SOL    MW429968   6.377   5.848   4.276 -0.1708 -0.4240  0.5213
 7551SOL     OW29969   2.939   4.871   0.264  0.4975  0.3565  0.2005
 7551SOL    HW229970   3.026   4.830   0.264  0.1454 -0.4567  1.1893
 7551SOL    HW329971   2.944   4.937   0.333  0.5661  0.8514 -0.2781
 7551SOL    MW429972   2.951   4.874   0.273  0.4601  0.3145  0.2678
 7552SOL     OW29973   4.697   3.556   5.885  0.1807  0.4563 -0.1055
 7552SOL    HW229974   4.761   3.567   5.955 -0.1330  2.2251 -0.0509
 7552SOL    HW329975   4.618   3.600   5.917  0.1640  1.6739 -1.7006
 7552SOL    MW429976   4.695   3.563   5.898  0.1371  0.8503 -0.3088
 7553SOL     OW29977   3.494   4.928   0.208 -0.0948  0.0555 -0.3392
 7553SOL    HW229978   3.510   4.843   0.168  0.2214 -0.0850  0.0835
 7553SOL    HW329979   3.489   4.989   0.134  0.6203 -0.1835 -0.5936
 7553SOL    MW429980   3.495   4.925   0.193  0.0412  0.0054 -0.3170
 7554SOL     OW29981   2.746   3.611   3.912  0.1807 -0.5045 -0.3885
 7554SOL    HW229982   2.838   3.627   3.891  0.0593 -1.6921 -1.9944
 7554SOL    HW329983   2.748   3.545   3.982  0.5710 -1.4306 -1.2480
 7554SOL    MW429984   2.758   3.604   3.919  0.2162 -0.7834 -0.7138
 7555SOL     OW29985   0.014   4.005   2.569  0.3251 -0.5645 -0.6257
 7555SOL    HW229986   0.057   4.018   2.653  1.7801 -1.7091 -1.1383
 7555SOL    HW329987  -0.040   3.928   2.582 -0.3883 -0.0331 -0.4130
 7555SOL    MW429988   0.013   3.997   2.582  0.4229 -0.6454 -0.6652
 7556SOL     OW29989   4.355   5.309   1.757 -0.4226  0.1122 -0.4462
 7556SOL    HW229990   4.410   5.280   1.830  2.4787  1.7539 -1.8252
 7556SOL    HW329991   4.287   5.362   1.798  0.0938 -0.4347  1.2076
 7556SOL    MW429992   4.353   5.312   1.772  0.0283  0.2566 -0.4099
 7557SOL     OW29993   4.128   1.305   4.920  0.2031  0.6356  0.4743
 7557SOL    HW229994   4.136   1.378   4.859  1.8401  0.5757  0.5661
 7557SOL    HW329995   4.034   1.292   4.930 -0.1627  3.2622  1.1113
 7557SOL    MW429996   4.117   1.313   4.913  0.3709  0.9742  0.5704
 7558SOL     OW29997   4.337   6.281   2.231  0.0433  0.1092 -0.2884
 7558SOL    HW229998   4.349   6.308   2.322 -0.8450 -0.5416  0.0373
 7558SOL    HW329999   4.380   6.196   2.226  0.0586  0.1273 -0.4650
 7558SOL    MW430000   4.344   6.273   2.242 -0.0719  0.0258 -0.2688
 7559SOL     OW30001   2.865   2.084   2.124  0.0584 -0.8326  0.0159
 7559SOL    HW230002   2.857   2.060   2.216  0.3214 -0.3768  0.1662
 7559SOL    HW330003   2.823   2.170   2.118  1.2438 -0.2233  0.0125
 7559SOL    MW430004   2.859   2.092   2.136  0.2495 -0.6921  0.0353
 7560SOL     OW30005   4.279   3.721   2.981  0.4772 -0.4237 -0.0620
 7560SOL    HW230006   4.251   3.630   2.968  0.2107 -0.4668  0.7484
 7560SOL    HW330007   4.349   3.734   2.917 -0.3825 -0.7780 -1.1162
 7560SOL    MW430008   4.284   3.711   2.971  0.3287 -0.4761 -0.0941
 7561SOL     OW30009   1.746   4.709   2.281  0.1232 -0.0584  0.3353
 7561SOL    HW230010   1.728   4.779   2.219 -0.0177 -0.4720 -0.0926
 7561SOL    HW330011   1.719   4.629   2.236  1.1713 -0.4899  0.4500
 7561SOL    MW430012   1.740   4.708   2.267  0.2429 -0.1699  0.2940
 7562SOL     OW30013   0.503   0.964   2.384  0.0327  0.4499  0.0790
 7562SOL    HW230014   0.502   1.031   2.452 -0.3602  0.9641 -0.4172
 7562SOL    HW330015   0.422   0.980   2.334  1.1737  1.2554 -1.6029
 7562SOL    MW430016   0.492   0.975   2.386  0.1314  0.6240 -0.2084
 7563SOL     OW30017   2.092   3.039   3.305  0.3627  0.0349  0.3773
 7563SOL    HW230018   2.172   3.089   3.325  0.3564  0.0359  0.3999
 7563SOL    HW330019   2.035   3.054   3.380 -0.5246  1.8117 -0.5966
 7563SOL    MW430020   2.095   3.048   3.317  0.2448  0.2694  0.2518
 7564SOL     OW30021   5.609   5.183   6.338 -0.4916  0.1106  0.3805
 7564SOL    HW230022   5.540   5.211   6.277  0.9555  1.7687 -0.6034
 7564SOL    HW330023   5.616   5.255   6.401  0.6819  0.2273  0.1420
 7564SOL    MW430024   5.601   5.197   6.338 -0.1459  0.3448  0.2192
 7565SOL     OW30025   2.196   1.172   4.234  0.1630 -0.1378 -0.8808
 7565SOL    HW230026   2.168   1.109   4.168  0.5132 -0.1924 -0.9805
 7565SOL    HW330027   2.117   1.223   4.254 -0.0197 -0.3307 -1.1049
 7565SOL    MW430028   2.182   1.171   4.228  0.1851 -0.1705 -0.9235
 7566SOL     OW30029   2.572   4.174   5.870 -0.0847 -0.3352  0.2822
 7566SOL    HW230030   2.579   4.270   5.872 -0.0225 -0.3111 -0.7009
 7566SOL    HW330031   2.646   4.146   5.816 -0.5919 -0.8820 -0.1357
 7566SOL    MW430032   2.583   4.183   5.863 -0.1434 -0.4042  0.0974
 7567SOL     OW30033   2.449   6.450   5.730  0.0967  0.1188 -0.3255
 7567SOL    HW230034   2.382   6.384   5.751  0.7577 -0.1970  0.8976
 7567SOL    HW330035   2.472   6.433   5.639 -0.3128 -0.8304 -0.2620
 7567SOL    MW430036   2.443   6.439   5.721  0.1298 -0.0481 -0.1558
 7568SOL     OW30037   4.641   0.521   5.567 -0.7858 -0.1296 -0.4868
 7568SOL    HW230038   4.632   0.462   5.642 -0.0186 -0.6476 -0.7778
 7568SOL    HW330039   4.683   0.467   5.500 -1.0394  0.4568 -1.1270
 7568SOL    MW430040   4.646   0.506   5.568 -0.7180 -0.1205 -0.6096
 7569SOL     OW30041   1.951   4.340   4.823 -0.0769 -0.6615 -0.3935
 7569SOL    HW230042   1.950   4.304   4.735 -3.0259  0.3648 -0.8710
 7569SOL    HW330043   1.884   4.291   4.870 -0.6365  0.7889  0.3831
 7569SOL    MW430044   1.942   4.329   4.818 -0.5398 -0.3347 -0.3540
 7570SOL     OW30045   2.914   0.672   3.061  0.2107 -0.3825 -0.2816
 7570SOL    HW230046   2.833   0.723   3.066  0.1432 -0.4816 -0.3492
 7570SOL    HW330047   2.888   0.590   3.019  0.4499 -0.2034 -0.7827
 7570SOL    MW430048   2.900   0.668   3.056  0.2334 -0.3720 -0.3567
 7571SOL     OW30049   1.837   3.381   5.034  0.3954 -0.2975  0.1988
 7571SOL    HW230050   1.774   3.323   5.077  0.2185 -1.1960 -1.2165
 7571SOL    HW330051   1.922   3.355   5.071  0.3316 -1.5874 -0.5229
 7571SOL    MW430052   1.840   3.370   5.045  0.3636 -0.5862 -0.0831
 7572SOL     OW30053   3.875   0.725   5.160  0.3326 -0.3350  0.6711
 7572SOL    HW230054   3.787   0.697   5.136  1.2178 -2.1594 -0.6585
 7572SOL    HW330055   3.867   0.754   5.251 -1.7541  0.2360  0.3641
 7572SOL    MW430056   3.862   0.725   5.169  0.1741 -0.5004  0.4552
 7573SOL     OW30057   2.240   1.531   4.661  0.6481 -0.1847 -0.3909
 7573SOL    HW230058   2.253   1.487   4.745  0.4361  1.3133  0.4633
 7573SOL    HW330059   2.159   1.492   4.626  0.8358 -0.9445  0.0064
 7573SOL    MW430060   2.231   1.520   4.668  0.6449 -0.0873 -0.2258
 7574SOL     OW30061   0.645   5.874   1.375 -0.1266  0.2406 -0.2920
 7574SOL    HW230062   0.574   5.810   1.379  0.8464 -0.8215  1.7360
 7574SOL    HW330063   0.608   5.953   1.417 -0.0135 -0.4620  1.1949
 7574SOL    MW430064   0.631   5.876   1.381  0.0167  0.0078  0.1718
 7575SOL     OW30065   5.026   0.912   0.657  0.7332 -0.3510 -0.1476
 7575SOL    HW230066   5.080   0.832   0.656  0.1568 -0.7766  0.9354
 7575SOL    HW330067   4.982   0.910   0.742  1.3861  1.5914  0.2810
 7575SOL    MW430068   5.027   0.901   0.668  0.7433 -0.1509  0.0518
 7576SOL     OW30069   6.312   0.441   1.642  0.0556  0.6044  0.0908
 7576SOL    HW230070   6.244   0.399   1.695 -0.1605  0.3282 -0.3921
 7576SOL    HW330071   6.345   0.370   1.586  1.0777  0.6248  0.6598
 7576SOL    MW430072   6.307   0.426   1.641  0.1620  0.5706  0.1021
 7577SOL     OW30073   4.194   2.102   6.143  0.1036  0.3211  0.2958
 7577SOL    HW230074   4.100   2.089   6.131  0.0445 -0.1375  1.1347
 7577SOL    HW330075   4.231   2.014   6.134  0.3166  0.3263  1.0173
 7577SOL    MW430076   4.187   2.088   6.140  0.1239  0.2613  0.5017
 7578SOL     OW30077   0.514   4.695   2.934  0.1280  0.8124  0.5525
 7578SOL    HW230078   0.468   4.754   2.994 -1.8778  1.4493 -1.4952
 7578SOL    HW330079   0.464   4.613   2.939 -0.3714  1.0362 -0.6015
 7578SOL    MW430080   0.502   4.692   2.943 -0.2025  0.9260  0.1301
 7579SOL     OW30081   4.304   1.001   0.050  0.1427  0.0608  0.7060
 7579SOL    HW230082   4.373   1.003  -0.016  0.2078  2.0450  0.8009
 7579SOL    HW330083   4.331   0.930   0.110  0.7156 -0.9293 -0.6728
 7579SOL    MW430084   4.317   0.992   0.049  0.2269  0.1919  0.5366
 7580SOL     OW30085   1.320   4.381   2.738 -0.4496  0.1545 -0.5312
 7580SOL    HW230086   1.289   4.467   2.710  2.1615  0.9304 -1.2870
 7580SOL    HW330087   1.301   4.379   2.832  0.4663  2.0533 -0.2669
 7580SOL    MW430088   1.313   4.392   2.747  0.0157  0.5074 -0.5961
 7581SOL     OW30089   1.431   2.520   1.105 -0.1350  0.2464 -0.2759
 7581SOL    HW230090   1.343   2.528   1.141  0.3448  0.0029  1.0090
 7581SOL    HW330091   1.434   2.431   1.069 -0.4323  0.2853 -0.4043
 7581SOL    MW430092   1.420   2.509   1.105 -0.1109  0.2194 -0.1233
 7582SOL     OW30093   3.130   1.538   2.115  0.0953 -0.1876  0.0374
 7582SOL    HW230094   3.060   1.595   2.084 -0.0712 -0.1438  0.4988
 7582SOL    HW330095   3.196   1.598   2.150 -0.5246 -0.3126  1.4632
 7582SOL    MW430096   3.130   1.553   2.115 -0.0085 -0.1983  0.2864
 7583SOL     OW30097   0.694   1.530   4.791 -0.8169 -0.1921 -0.0080
 7583SOL    HW230098   0.693   1.457   4.729  1.3824 -0.2275 -0.0533
 7583SOL    HW330099   0.639   1.501   4.863 -0.0447 -1.8864 -0.0553
 7583SOL    MW430100   0.686   1.517   4.792 -0.4248 -0.4203 -0.0202
 7584SOL     OW30101   3.720   2.884   5.004 -0.2330 -0.1767 -0.3743
 7584SOL    HW230102   3.628   2.903   5.023 -0.5143 -0.8332 -1.0578
 7584SOL    HW330103   3.729   2.791   5.025  0.3855 -0.0143  0.0920
 7584SOL    MW430104   3.709   2.874   5.009 -0.1885 -0.2419 -0.4030
 7585SOL     OW30105   3.181   4.134   5.690  0.4169 -0.1875 -0.2184
 7585SOL    HW230106   3.253   4.195   5.676 -0.8808  1.0484 -1.9445
 7585SOL    HW330107   3.161   4.100   5.602  0.1622 -2.0235  0.5050
 7585SOL    MW430108   3.188   4.137   5.676  0.2121 -0.2666 -0.3507
 7586SOL     OW30109   2.917   0.278   0.856  0.2857  0.3621  0.3554
 7586SOL    HW230110   2.821   0.275   0.859  0.2711  1.1564  1.0228
 7586SOL    HW330111   2.942   0.192   0.822 -0.6453  0.0194  0.4903
 7586SOL    MW430112   2.907   0.266   0.852  0.1610  0.4217  0.4612
 7587SOL     OW30113   0.522   2.476   0.832 -0.7188 -0.7373 -0.1663
 7587SOL    HW230114   0.505   2.383   0.845  0.4938 -0.7581  1.6908
 7587SOL    HW330115   0.469   2.500   0.756 -0.1510 -3.1928 -1.4354
 7587SOL    MW430116   0.513   2.467   0.824 -0.4839 -1.0640 -0.0887
 7588SOL     OW30117   0.028   1.909   2.025  0.2636  0.1699 -0.0640
 7588SOL    HW230118   0.035   2.003   2.013 -0.6288  0.1133 -1.2879
 7588SOL    HW330119   0.119   1.878   2.028  0.5612  1.0418  0.1309
 7588SOL    MW430120   0.041   1.917   2.023  0.1851  0.2775 -0.1998
 7589SOL     OW30121   1.753   4.030   0.513  0.0550 -0.2385  0.6225
 7589SOL    HW230122   1.752   4.091   0.586 -1.7619  1.4695 -0.7184
 7589SOL    HW330123   1.668   4.043   0.470  1.7176  0.1605 -2.8344
 7589SOL    MW430124   1.741   4.039   0.517  0.0347  0.0395 -0.0105
 7590SOL     OW30125   4.097   1.969   1.893  0.0637 -0.4084  0.4522
 7590SOL    HW230126   4.060   1.937   1.975 -1.2480 -0.1706 -0.0181
 7590SOL    HW330127   4.164   2.032   1.920  0.4738 -1.1947  1.3371
 7590SOL    MW430128   4.101   1.973   1.907 -0.0552 -0.4807  0.5069
 7591SOL     OW30129   0.930   1.164   3.292 -0.4806 -0.1896  0.3516
 7591SOL    HW230130   0.970   1.175   3.378  1.0322 -0.5367 -0.2656
 7591SOL    HW330131   0.852   1.110   3.307 -0.8673  0.6955  1.6356
 7591SOL    MW430132   0.925   1.158   3.305 -0.3320 -0.1186  0.4396
 7592SOL     OW30133   0.431   5.533   5.926 -0.1085  0.3618  0.2294
 7592SOL    HW230134   0.435   5.454   5.872 -0.9108 -1.3499  2.5147
 7592SOL    HW330135   0.358   5.583   5.890  0.2375 -0.0155 -1.0788
 7592SOL    MW430136   0.422   5.530   5.914 -0.1687  0.0862  0.3583
 7593SOL     OW30137   1.324   0.550   3.196  0.1512 -0.3981  0.6742
 7593SOL    HW230138   1.312   0.469   3.147  0.5697 -0.5917  0.8811
 7593SOL    HW330139   1.256   0.609   3.164  0.3052 -0.5801 -0.0034
 7593SOL    MW430140   1.314   0.547   3.186  0.2267 -0.4477  0.6121
 7594SOL     OW30141   2.821   4.084   0.638 -0.4846 -0.0959 -0.4066
 7594SOL    HW230142   2.873   4.092   0.719 -0.9728  0.4783 -0.1405
 7594SOL    HW330143   2.738   4.127   0.659 -1.1567 -1.1895 -0.7588
 7594SOL    MW430144   2.817   4.091   0.652 -0.6377 -0.1644 -0.4179
 7595SOL     OW30145   2.371   3.503   3.588 -0.7344 -0.2594  0.8309
 7595SOL    HW230146   2.463   3.497   3.615  0.1868 -2.8501 -2.2073
 7595SOL    HW330147   2.369   3.578   3.528 -0.2727 -0.9096 -0.0197
 7595SOL    MW430148   2.383   3.512   3.584 -0.5520 -0.6870  0.3179
 7596SOL     OW30149   4.217   1.116   1.213  0.3265 -0.5479  0.1960
 7596SOL    HW230150   4.225   1.152   1.125 -1.6814  2.3464  1.0352
 7596SOL    HW330151   4.164   1.037   1.202  0.2949 -0.3477 -1.2149
 7596SOL    MW430152   4.211   1.110   1.200  0.0574 -0.1396  0.1205
 7597SOL     OW30153   2.169   4.588   6.199  0.4850 -0.4108  0.2812
 7597SOL    HW230154   2.244   4.622   6.247  0.0868  1.0200 -0.0638
 7597SOL    HW330155   2.149   4.656   6.135 -1.1474 -0.7303  0.4159
 7597SOL    MW430156   2.176   4.601   6.197  0.2171 -0.2641  0.2535
 7598SOL     OW30157   5.838   2.183   0.546  0.5868  0.3325 -0.0269
 7598SOL    HW230158   5.846   2.250   0.614  0.1264  0.1795  0.1759
 7598SOL    HW330159   5.816   2.103   0.593 -2.2677  0.7141 -0.5321
 7598SOL    MW430160   5.836   2.182   0.561  0.1495  0.3627 -0.0668
 7599SOL     OW30161   0.586   1.583   5.395  0.5413  0.1216 -0.1198
 7599SOL    HW230162   0.501   1.577   5.351  1.2062  1.1529 -1.6211
 7599SOL    HW330163   0.614   1.492   5.404 -1.6908 -0.4365  2.5150
 7599SOL    MW430164   0.579   1.570   5.390  0.3346  0.1840  0.0298
 7600SOL     OW30165   3.975   1.198   5.658  0.3849  0.5977 -0.3588
 7600SOL    HW230166   4.051   1.140   5.656  0.2857  0.4590 -0.1446
 7600SOL    HW330167   4.007   1.282   5.625  0.5838  0.4839 -0.4515
 7600SOL    MW430168   3.989   1.202   5.653  0.3981  0.5644 -0.3428
 7601SOL     OW30169   2.351   2.553   3.923 -0.1339 -0.3988 -0.1207
 7601SOL    HW230170   2.277   2.529   3.867 -1.8916  1.1078  1.4552
 7601SOL    HW330171   2.364   2.476   3.979  0.8296 -1.4188 -1.6357
 7601SOL    MW430172   2.343   2.539   3.923 -0.2387 -0.3346 -0.1127
 7602SOL     OW30173   1.104   2.600   0.540  0.4629  0.8204 -0.0677
 7602SOL    HW230174   1.070   2.635   0.457  1.4447  0.1011 -0.7986
 7602SOL    HW330175   1.199   2.611   0.533  0.4614  3.3360  2.1679
 7602SOL    MW430176   1.112   2.606   0.528  0.5922  1.0574  0.1308
 7603SOL     OW30177   0.995   5.113   3.008 -0.1834 -0.1793 -0.7302
 7603SOL    HW230178   0.996   5.065   2.925  0.0002  1.2188 -1.5668
 7603SOL    HW330179   0.923   5.074   3.057 -1.5189  0.1767 -2.3089
 7603SOL    MW430180   0.986   5.101   3.003 -0.3353  0.0521 -1.0488
 7604SOL     OW30181   6.157   2.533   0.101  0.0423  0.2775  0.1533
 7604SOL    HW230182   6.149   2.550   0.007 -2.7630  0.5485  0.3723
 7604SOL    HW330183   6.082   2.478   0.122  0.9054 -0.2058  2.1888
 7604SOL    MW430184   6.146   2.528   0.091 -0.2140  0.2495  0.4507
 7605SOL     OW30185   3.852   6.262   4.299  0.6035 -0.3884 -0.1870
 7605SOL    HW230186   3.805   6.179   4.298 -0.1525  0.0301 -1.2548
 7605SOL    HW330187   3.783   6.328   4.290  1.0669  0.4430  1.7982
 7605SOL    MW430188   3.837   6.260   4.298  0.5649 -0.2235 -0.0660
 7606SOL     OW30189   1.231   5.153   4.161 -0.0865 -0.5155  0.1988
 7606SOL    HW230190   1.136   5.144   4.151  0.0247 -0.9789 -0.4778
 7606SOL    HW330191   1.247   5.247   4.151 -0.5433 -0.3398  0.9971
 7606SOL    MW430192   1.220   5.164   4.159 -0.1321 -0.5535  0.2149
 7607SOL     OW30193   0.074   5.205   4.069  0.0104  0.6449 -0.4717
 7607SOL    HW230194  -0.003   5.261   4.060 -1.4530 -1.2067 -0.2940
 7607SOL    HW330195   0.068   5.170   4.158  1.4299  0.9488 -0.2404
 7607SOL    MW430196   0.063   5.207   4.079  0.0046  0.4407 -0.4177
 7608SOL     OW30197   5.109   4.142   3.616  0.0138  0.3039  0.4711
 7608SOL    HW230198   5.153   4.227   3.620  2.8683 -1.0625  0.7964
 7608SOL    HW330199   5.062   4.136   3.699  1.6808  0.6774  1.4919
 7608SOL    MW430200   5.109   4.153   3.628  0.6103  0.1729  0.6487
 7609SOL     OW30201   2.324   5.940   1.686 -0.3397 -0.8198  0.1130
 7609SOL    HW230202   2.355   5.956   1.597  2.2819  0.3850  1.1305
 7609SOL    HW330203   2.247   5.996   1.695  1.1230  1.4379 -0.5196
 7609SOL    MW430204   2.318   5.950   1.675  0.1992 -0.3630  0.1638
 7610SOL     OW30205   2.344   5.333   5.014 -0.0433 -0.1284 -0.1111
 7610SOL    HW230206   2.343   5.278   5.092  0.6293 -0.1649 -0.1226
 7610SOL    HW330207   2.338   5.271   4.941 -2.6925 -0.0047 -0.0909
 7610SOL    MW430208   2.343   5.317   5.015 -0.3041 -0.1169 -0.1100
 7611SOL     OW30209   4.797   5.348   2.281 -0.2922 -0.1440 -0.2653
 7611SOL    HW230210   4.788   5.443   2.281  0.8706 -0.0233 -0.3270
 7611SOL    HW330211   4.834   5.327   2.196 -1.0699 -0.7228 -0.4758
 7611SOL    MW430212   4.800   5.358   2.270 -0.2414 -0.2045 -0.3012
 7612SOL     OW30213   5.335   5.929   1.429  0.2300  0.4265 -0.0273
 7612SOL    HW230214   5.294   6.014   1.447 -1.1213  0.4088 -2.4918
 7612SOL    HW330215   5.365   5.936   1.338  1.4430 -1.2470  0.1958
 7612SOL    MW430216   5.334   5.941   1.419  0.2118  0.2034 -0.3230
 7613SOL     OW30217   5.359   0.982   6.030  0.0935 -0.4169 -0.0610
 7613SOL    HW230218   5.290   0.974   6.096  0.2361 -3.0555 -0.1456
 7613SOL    HW330219   5.319   0.953   5.948  0.9980 -0.9957 -0.3185
 7613SOL    MW430220   5.345   0.977   6.028  0.2317 -0.8414 -0.1062
 7614SOL     OW30221   2.767   2.018   3.972  0.2209 -0.5448  0.2491
 7614SOL    HW230222   2.743   1.927   3.955  0.5220 -0.4314 -0.9353
 7614SOL    HW330223   2.684   2.063   3.984  0.1148 -1.1769  2.0717
 7614SOL    MW430224   2.753   2.012   3.971  0.2466 -0.6132  0.3333
 7615SOL     OW30225   0.637   5.879   4.445  0.4036  0.0590  0.3577
 7615SOL    HW230226   0.729   5.887   4.468  0.3208  0.0166  0.7164
 7615SOL    HW330227   0.637   5.854   4.353  0.8122 -2.2968  0.9509
 7615SOL    MW430228   0.649   5.877   4.436  0.4466 -0.2574  0.4833
 7616SOL     OW30229   1.869   0.716   6.361 -0.3239 -0.3489 -0.4070
 7616SOL    HW230230   1.936   0.680   6.419 -1.7766 -0.7114  1.1343
 7616SOL    HW330231   1.904   0.802   6.335  0.8907 -0.6873  0.0333
 7616SOL    MW430232   1.883   0.723   6.365 -0.3553 -0.4414 -0.1456
 7617SOL     OW30233   1.084   5.537   5.319  0.1664  0.1722  0.1891
 7617SOL    HW230234   1.046   5.612   5.366 -0.3068  1.4778 -2.1346
 7617SOL    HW330235   1.014   5.506   5.262  1.1850 -0.3428 -0.8215
 7617SOL    MW430236   1.070   5.543   5.318  0.2384  0.2765 -0.2508
 7618SOL     OW30237   2.712   2.134   3.730 -0.5720 -0.3363  0.5833
 7618SOL    HW230238   2.762   2.101   3.805 -0.1340 -1.2575 -0.0957
 7618SOL    HW330239   2.639   2.073   3.720  0.3968 -1.3142 -0.8579
 7618SOL    MW430240   2.709   2.122   3.738 -0.3864 -0.5869  0.3036
 7619SOL     OW30241   3.677   2.843   6.160  0.5886 -0.2407 -0.6472
 7619SOL    HW230242   3.764   2.813   6.185  0.7219  0.8467  0.2574
 7619SOL    HW330243   3.624   2.763   6.157  2.0492 -1.2756 -3.3713
 7619SOL    MW430244   3.682   2.829   6.163  0.7989 -0.2337 -0.8872
 7620SOL     OW30245   5.252   5.649   0.741 -0.3564  0.1508 -0.0439
 7620SOL    HW230246   5.278   5.741   0.747 -1.2056  0.3291  1.4109
 7620SOL    HW330247   5.157   5.652   0.727 -0.4109 -0.5060  0.1550
 7620SOL    MW430248   5.243   5.662   0.740 -0.4756  0.0877  0.1743
 7621SOL     OW30249   3.263   3.743   0.266 -0.1045  0.4962 -0.4251
 7621SOL    HW230250   3.224   3.662   0.231  1.6669 -0.3675 -0.5047
 7621SOL    HW330251   3.232   3.747   0.356  0.8732 -1.0436  0.0169
 7621SOL    MW430252   3.254   3.733   0.273  0.2582  0.1791 -0.3773
 7622SOL     OW30253   1.379   1.320   5.060  0.0356  0.0183  0.5218
 7622SOL    HW230254   1.399   1.408   5.030 -0.6377 -0.5227 -1.7048
 7622SOL    HW330255   1.294   1.328   5.104 -0.7097  0.2819 -0.9149
 7622SOL    MW430256   1.371   1.332   5.062 -0.1516 -0.0183  0.0385
 7623SOL     OW30257   4.827   4.371   3.909 -0.2018 -0.1984  0.3075
 7623SOL    HW230258   4.831   4.441   3.974  0.2432  1.5368 -1.4880
 7623SOL    HW330259   4.740   4.378   3.871  0.1673 -0.0092 -0.5220
 7623SOL    MW430260   4.816   4.381   3.912 -0.0944  0.0555 -0.0388
 7624SOL     OW30261   4.012   3.376   1.447  0.0296 -0.6154 -0.2699
 7624SOL    HW230262   3.922   3.369   1.478 -0.9459  2.3339 -1.9889
 7624SOL    HW330263   4.052   3.440   1.505  0.5387 -0.7691 -0.4468
 7624SOL    MW430264   4.005   3.384   1.459 -0.0320 -0.2465 -0.5200
 7625SOL     OW30265   2.244   4.943   6.337  0.1484 -0.1158  0.0207
 7625SOL    HW230266   2.231   5.036   6.317  0.1756 -0.1089  0.0351
 7625SOL    HW330267   2.155   4.908   6.345  0.0990  0.2627  1.5992
 7625SOL    MW430268   2.230   4.951   6.336  0.1455 -0.0649  0.2309
 7626SOL     OW30269   5.952   4.787   5.591 -0.2936 -0.4888  0.1013
 7626SOL    HW230270   6.032   4.803   5.641  0.9968 -3.1297 -0.9514
 7626SOL    HW330271   5.974   4.813   5.502 -1.8349  2.0181  0.3473
 7626SOL    MW430272   5.966   4.793   5.586 -0.3267 -0.5065 -0.0051
 7627SOL     OW30273   1.153   1.566   1.068  0.3258  0.2162  0.3229
 7627SOL    HW230274   1.186   1.500   1.007  0.5736  0.2733  0.3918
 7627SOL    HW330275   1.062   1.578   1.044 -0.2898 -1.5420  1.5023
 7627SOL    MW430276   1.145   1.559   1.057  0.2772 -0.0082  0.4876
 7628SOL     OW30277   3.040   4.384   0.591  0.1851  0.1826 -0.0768
 7628SOL    HW230278   2.965   4.381   0.651 -2.2956 -0.1724 -2.9114
 7628SOL    HW330279   3.037   4.300   0.545 -1.2561  2.1740 -4.0710
 7628SOL    MW430280   3.030   4.373   0.593 -0.3323  0.3985 -0.9778
 7629SOL     OW30281   4.139   0.472   2.378 -0.0484 -0.1902  0.0840
 7629SOL    HW230282   4.109   0.560   2.356  0.3400 -0.1688 -0.3914
 7629SOL    HW330283   4.177   0.481   2.465 -0.2462  0.0560  0.1479
 7629SOL    MW430284   4.140   0.485   2.386 -0.0232 -0.1549  0.0297
 7630SOL     OW30285   4.154   3.788   4.379  0.1285 -0.6878 -0.0062
 7630SOL    HW230286   4.207   3.866   4.363  0.6015 -1.2423 -1.3079
 7630SOL    HW330287   4.183   3.725   4.313 -0.3532 -1.9193  0.9103
 7630SOL    MW430288   4.165   3.790   4.368  0.1274 -0.9235 -0.0570
 7631SOL     OW30289   5.666   6.195   2.799 -0.5668 -0.7499 -0.0090
 7631SOL    HW230290   5.612   6.241   2.734 -0.6417 -0.7109  0.0806
 7631SOL    HW330291   5.654   6.244   2.880 -1.2121 -1.3243  0.2650
 7631SOL    MW430292   5.657   6.207   2.801 -0.6618 -0.8205  0.0389
 7632SOL     OW30293   3.312   1.387   3.592 -0.1875  0.0724 -0.1215
 7632SOL    HW230294   3.384   1.354   3.645  1.8308 -0.0465 -2.7509
 7632SOL    HW330295   3.250   1.423   3.656  0.6111 -2.7058  2.4576
 7632SOL    MW430296   3.313   1.388   3.607  0.1842 -0.3098 -0.1282
 7633SOL     OW30297   5.789   0.337   5.253  0.3301 -0.5063 -0.5989
 7633SOL    HW230298   5.726   0.276   5.214 -1.0447 -0.0718  0.8568
 7633SOL    HW330299   5.739   0.417   5.269  1.2514 -0.1215  0.5169
 7633SOL    MW430300   5.774   0.339   5.250  0.2702 -0.3982 -0.2596
 7634SOL     OW30301   3.251   0.853   4.237 -0.4598  0.4205  0.3623
 7634SOL    HW230302   3.221   0.938   4.270  0.8209  0.7011  0.8553
 7634SOL    HW330303   3.283   0.807   4.315 -1.5937 -0.7304  0.1757
 7634SOL    MW430304   3.251   0.859   4.252 -0.4405  0.3057  0.4027
 7635SOL     OW30305   0.904   0.786   5.126 -0.1910  0.4050 -0.0545
 7635SOL    HW230306   0.871   0.798   5.214  0.7570 -0.8253  0.5024
 7635SOL    HW330307   0.849   0.718   5.088 -0.6027  0.9378 -0.4234
 7635SOL    MW430308   0.893   0.779   5.132 -0.1202  0.3130 -0.0297
 7636SOL     OW30309   0.094   3.986   0.606  0.0841  0.1151 -0.0645
 7636SOL    HW230310   0.160   3.935   0.559  0.1522  0.1862 -0.0472
 7636SOL    HW330311   0.033   3.921   0.641  0.2836  0.0343  0.1331
 7636SOL    MW430312   0.095   3.971   0.604  0.1194  0.1138 -0.0361
 7637SOL     OW30313   5.883   0.559   2.782 -0.4964  0.1741  0.0991
 7637SOL    HW230314   5.945   0.628   2.804 -0.9756 -0.0713  2.5511
 7637SOL    HW330315   5.938   0.487   2.751  0.3308  0.5098  0.7267
 7637SOL    MW430316   5.899   0.558   2.781 -0.4505  0.1860  0.5054
 7638SOL     OW30317   0.498   5.677   4.594 -0.3934  0.1824  0.7377
 7638SOL    HW230318   0.413   5.704   4.629 -1.0953  0.0499 -0.7773
 7638SOL    HW330319   0.532   5.755   4.551 -1.1244 -0.4845 -1.1788
 7638SOL    MW430320   0.491   5.691   4.593 -0.5825  0.0769  0.2849
 7639SOL     OW30321   3.541   1.634   0.569 -0.1347 -1.2031  0.1847
 7639SOL    HW230322   3.544   1.577   0.646 -0.6657 -0.3663  0.8595
 7639SOL    HW330323   3.487   1.708   0.598 -0.4717 -0.9535 -1.0571
 7639SOL    MW430324   3.534   1.636   0.583 -0.2492 -1.0598  0.1099
 7640SOL     OW30325   0.197   1.401   5.769 -0.5243 -0.1445 -0.2868
 7640SOL    HW230326   0.117   1.441   5.805 -0.4337 -1.8925  2.0746
 7640SOL    HW330327   0.237   1.471   5.718 -2.0673  1.7150  0.8967
 7640SOL    MW430328   0.192   1.416   5.767 -0.7159 -0.1298  0.1809
 7641SOL     OW30329   3.662   0.358   6.199 -0.3083  0.3696 -0.5075
 7641SOL    HW230330   3.604   0.357   6.122 -1.3623 -0.1145  0.2745
 7641SOL    HW330331   3.644   0.442   6.241 -0.9101 -0.0324  0.0632
 7641SOL    MW430332   3.652   0.369   6.194 -0.5268  0.2527 -0.3290
 7642SOL     OW30333   3.044   1.109   1.274  0.3694 -0.2037 -0.2123
 7642SOL    HW230334   2.967   1.087   1.328 -0.4779  1.6153 -0.5904
 7642SOL    HW330335   3.038   1.051   1.199 -0.2686 -0.5382  0.0875
 7642SOL    MW430336   3.033   1.098   1.271  0.1734 -0.0079 -0.2227
 7643SOL     OW30337   0.285   0.712   2.299  0.0429  0.1545  0.8649
 7643SOL    HW230338   0.287   0.807   2.286 -0.6647  0.2547  1.4533
 7643SOL    HW330339   0.314   0.676   2.215 -2.3145  0.8430 -0.3567
 7643SOL    MW430340   0.289   0.720   2.286 -0.3615  0.2586  0.7814
 7644SOL     OW30341   3.823   0.720   2.485  0.0463  0.0008  0.4972
 7644SOL    HW230342   3.806   0.639   2.532 -0.5182 -0.4540 -0.4598
 7644SOL    HW330343   3.736   0.756   2.466  0.2751  0.4766  0.3254
 7644SOL    MW430344   3.809   0.714   2.488  0.0020  0.0036  0.3483
 7645SOL     OW30345   0.054   0.183   0.128 -0.0568 -0.0374 -0.5022
 7645SOL    HW230346   0.129   0.242   0.129 -1.4117  1.7881 -0.1748
 7645SOL    HW330347  -0.000   0.215   0.056 -0.1199 -1.8941 -1.3314
 7645SOL    MW430348   0.057   0.195   0.119 -0.2439 -0.0415 -0.5684
 7646SOL     OW30349   4.767   3.308   5.658 -0.1784 -0.0475 -0.2668
 7646SOL    HW230350   4.851   3.349   5.678  1.1852 -2.2859 -1.0510
 7646SOL    HW330351   4.762   3.233   5.717 -0.3650 -1.4291 -1.9615
 7646SOL    MW430352   4.778   3.303   5.669 -0.0231 -0.5251 -0.5938
 7647SOL     OW30353   2.648   1.586   1.593 -0.5969  0.1792  0.1835
 7647SOL    HW230354   2.606   1.662   1.631 -0.4687 -0.0278  0.7430
 7647SOL    HW330355   2.611   1.511   1.640  0.5441  0.0050  0.8537
 7647SOL    MW430356   2.637   1.586   1.604 -0.4294  0.1289  0.3457
 7648SOL     OW30357   1.505   1.171   3.450  0.0955  0.0719 -0.3057
 7648SOL    HW230358   1.558   1.128   3.517 -0.2344 -0.8035 -0.5916
 7648SOL    HW330359   1.565   1.185   3.377  0.6655  1.7733  0.4541
 7648SOL    MW430360   1.520   1.167   3.449  0.1271  0.1809 -0.2432
 7649SOL     OW30361   3.919   2.202   5.275 -0.6442 -0.4177 -0.7356
 7649SOL    HW230362   3.897   2.124   5.224  0.4524 -1.1468 -0.1413
 7649SOL    HW330363   3.862   2.198   5.352 -0.8533 -0.4331 -0.8927
 7649SOL    MW430364   3.909   2.191   5.279 -0.5271 -0.5159 -0.6779
 7650SOL     OW30365   0.647   3.422   5.406 -0.5877 -0.4767  0.1636
 7650SOL    HW230366   0.638   3.414   5.501 -2.0733  0.3638  0.1351
 7650SOL    HW330367   0.581   3.487   5.382 -0.8708 -1.3606 -1.5582
 7650SOL    MW430368   0.637   3.430   5.415 -0.8211 -0.4824 -0.0673
 7651SOL     OW30369   3.011   4.745   1.958 -0.1237 -0.3974 -0.1954
 7651SOL    HW230370   3.001   4.830   1.916 -0.8412 -0.3085  0.1444
 7651SOL    HW330371   2.963   4.753   2.041  0.5050 -0.8629  0.2217
 7651SOL    MW430372   3.003   4.757   1.964 -0.1354 -0.4471 -0.0956
 7652SOL     OW30373   1.381   6.326   3.930  0.3072  0.1882  1.0085
 7652SOL    HW230374   1.390   6.330   4.025  1.1289  1.7113  0.9048
 7652SOL    HW330375   1.464   6.361   3.897  0.2486 -0.8140 -0.2938
 7652SOL    MW430376   1.394   6.331   3.938  0.4079  0.2570  0.8230
 7653SOL     OW30377   2.999   4.035   4.370 -0.3226  0.3040 -0.3890
 7653SOL    HW230378   3.021   3.943   4.360  2.1616  0.8819 -0.9088
 7653SOL    HW330379   2.924   4.048   4.311 -1.6314 -1.6059  0.7232
 7653SOL    MW430380   2.992   4.025   4.361 -0.1675  0.1283 -0.3108
 7654SOL     OW30381   5.867   5.052   0.021  0.0454  0.0568  0.2876
 7654SOL    HW230382   5.833   5.139   0.043  1.0250  0.5787 -0.1812
 7654SOL    HW330383   5.951   5.047   0.066 -0.1975 -0.8197  0.6442
 7654SOL    MW430384   5.873   5.063   0.030  0.1426  0.0100  0.2728
 7655SOL     OW30385   5.519   4.369   0.320 -0.0578 -0.1984 -0.2976
 7655SOL    HW230386   5.428   4.340   0.330 -0.1818  0.4769  0.7704
 7655SOL    HW330387   5.536   4.420   0.399  1.6328 -1.2894  0.1009
 7655SOL    MW430388   5.509   4.372   0.332  0.1489 -0.2533 -0.1041
 7656SOL     OW30389   6.303   6.026   4.586 -0.2499 -0.6691 -0.3044
 7656SOL    HW230390   6.362   5.961   4.626  1.2570  1.1139  0.5178
 7656SOL    HW330391   6.224   5.976   4.565 -0.6390 -2.0597  3.6000
 7656SOL    MW430392   6.301   6.011   4.588 -0.1024 -0.6173  0.3192
 7657SOL     OW30393   3.859   5.574   0.604 -0.1573  0.3762 -0.0328
 7657SOL    HW230394   3.783   5.544   0.655 -0.5821  1.4775 -0.0079
 7657SOL    HW330395   3.864   5.668   0.621  1.7127  0.1964  0.6020
 7657SOL    MW430396   3.849   5.582   0.613  0.0334  0.4978  0.0543
 7658SOL     OW30397   6.017   4.337   4.085 -0.2120 -0.1352 -0.4682
 7658SOL    HW230398   6.048   4.365   4.171 -0.9849 -1.3782  0.2453
 7658SOL    HW330399   6.065   4.392   4.023  1.3953 -0.1703  0.6975
 7658SOL    MW430400   6.027   4.348   4.088 -0.1019 -0.3038 -0.2202
 7659SOL     OW30401   1.551   3.457   3.110 -0.0072 -0.1283  0.4704
 7659SOL    HW230402   1.545   3.496   3.023  0.3047 -0.7558  0.1652
 7659SOL    HW330403   1.485   3.388   3.110 -0.3569  0.1992  0.9099
 7659SOL    MW430404   1.541   3.453   3.099 -0.0122 -0.1679  0.4881
 7660SOL     OW30405   1.122   0.882   3.569  0.2391  0.2302  0.4060
 7660SOL    HW230406   1.090   0.969   3.592 -0.1612  0.2182 -0.0922
 7660SOL    HW330407   1.061   0.822   3.611  0.6556  0.1792  0.9543
 7660SOL    MW430408   1.110   0.885   3.578  0.2413  0.2219  0.4126
 7661SOL     OW30409   2.370   4.707   6.341  0.3600 -0.1308 -0.1766
 7661SOL    HW230410   2.356   4.682   6.432 -0.4982  2.0985  0.3733
 7661SOL    HW330411   2.340   4.798   6.336 -0.2691 -0.3933 -2.8479
 7661SOL    MW430412   2.365   4.716   6.352  0.1638  0.1287 -0.4565
 7662SOL     OW30413   5.855   4.168   0.367  0.2023 -0.3293 -0.4462
 7662SOL    HW230414   5.853   4.249   0.419  1.5415 -1.3798  1.3378
 7662SOL    HW330415   5.914   4.188   0.294 -0.9637  0.8710 -1.1131
 7662SOL    MW430416   5.862   4.181   0.364  0.2251 -0.3095 -0.2988
 7663SOL     OW30417   1.477   0.539   2.836  0.1629  0.4902  0.4017
 7663SOL    HW230418   1.501   0.558   2.927  3.1724 -0.3089 -0.1147
 7663SOL    HW330419   1.509   0.615   2.787 -1.4916  0.9406 -0.0254
 7663SOL    MW430420   1.484   0.551   2.841  0.3417  0.4442  0.2772
 7664SOL     OW30421   1.989   2.179   6.356 -1.1678  0.2073  0.3750
 7664SOL    HW230422   1.929   2.241   6.314  1.1653  1.9971 -0.6044
 7664SOL    HW330423   2.076   2.210   6.330  0.2379 -1.5578  2.6173
 7664SOL    MW430424   1.992   2.192   6.347 -0.6745  0.2106  0.5416
 7665SOL     OW30425   1.426   4.583   5.141 -0.4767 -0.2907 -0.0414
 7665SOL    HW230426   1.496   4.643   5.116 -1.2392 -0.3907 -2.6645
 7665SOL    HW330427   1.404   4.609   5.231  1.9283  0.6530  0.3498
 7665SOL    MW430428   1.432   4.595   5.150 -0.2600 -0.1794 -0.3359
 7666SOL     OW30429   2.831   4.500   4.255 -0.5568 -0.0990 -0.5241
 7666SOL    HW230430   2.897   4.534   4.316 -0.6911  2.5422 -1.7155
 7666SOL    HW330431   2.758   4.561   4.262 -0.7910 -0.0101 -2.9052
 7666SOL    MW430432   2.830   4.512   4.264 -0.6054  0.2612 -0.9955
 7667SOL     OW30433   2.924   2.078   3.118 -0.3884  0.3283 -0.0406
 7667SOL    HW230434   2.983   2.063   3.044 -0.0148 -0.9086  0.4754
 7667SOL    HW330435   2.931   2.172   3.136  0.4214  0.4296 -0.8302
 7667SOL    MW430436   2.933   2.089   3.111 -0.2323  0.1784 -0.0767
 7668SOL     OW30437   0.747   3.732   2.521 -0.2558  0.1126 -0.2611
 7668SOL    HW230438   0.800   3.789   2.464 -1.3633  1.4375 -0.0125
 7668SOL    HW330439   0.760   3.644   2.485  0.8915  0.6081 -1.1369
 7668SOL    MW430440   0.756   3.728   2.508 -0.2505  0.3528 -0.3439
 7669SOL     OW30441   2.146   3.557   2.842  0.0913 -0.2644  0.0218
 7669SOL    HW230442   2.121   3.647   2.823  0.3498 -0.2608 -0.3089
 7669SOL    HW330443   2.235   3.564   2.877  0.4336 -0.4581 -0.7853
 7669SOL    MW430444   2.154   3.570   2.844  0.1706 -0.2895 -0.1283
 7670SOL     OW30445   4.836   4.043   1.719  0.4737 -0.7912  0.4574
 7670SOL    HW230446   4.808   3.976   1.781  2.4513 -1.6217  0.5188
 7670SOL    HW330447   4.915   4.081   1.758 -0.7222  1.8280  0.5663
 7670SOL    MW430448   4.843   4.039   1.733  0.5769 -0.5552  0.4799
 7671SOL     OW30449   1.256   4.758   3.309  0.5211 -0.2606  0.8309
 7671SOL    HW230450   1.226   4.770   3.219 -1.0250 -0.2665  1.3192
 7671SOL    HW330451   1.290   4.844   3.335  1.3802 -0.3734  0.1116
 7671SOL    MW430452   1.257   4.771   3.301  0.4305 -0.2763  0.8004
 7672SOL     OW30453   1.455   0.504   5.734 -0.1164 -0.2054  0.0487
 7672SOL    HW230454   1.547   0.487   5.756 -0.8863 -1.1684  2.9956
 7672SOL    HW330455   1.452   0.597   5.714  1.7930 -0.5162 -2.2647
 7672SOL    MW430456   1.467   0.514   5.734  0.0339 -0.3734  0.1323
 7673SOL     OW30457   3.549   3.125   2.480 -0.1807 -0.6200 -0.3226
 7673SOL    HW230458   3.549   3.048   2.537  1.0542  0.2681  0.9543
 7673SOL    HW330459   3.528   3.091   2.393 -0.0843 -2.3280  0.2873
 7673SOL    MW430460   3.546   3.111   2.476 -0.0050 -0.7282 -0.0736
 7674SOL     OW30461   5.913   3.150   4.192 -0.0843 -0.5501  0.0542
 7674SOL    HW230462   5.844   3.164   4.257 -0.6945  0.8762 -0.8578
 7674SOL    HW330463   5.993   3.176   4.237 -0.5542  0.8364  0.1231
 7674SOL    MW430464   5.914   3.155   4.206 -0.2268 -0.1790 -0.0570
 7675SOL     OW30465   1.921   0.485   5.890  0.2834 -0.1915 -0.3083
 7675SOL    HW230466   1.888   0.574   5.898  1.3948  0.4326 -2.0347
 7675SOL    HW330467   1.854   0.439   5.839 -0.0337 -0.2103  0.1182
 7675SOL    MW430468   1.908   0.491   5.884  0.3882 -0.1116 -0.4798
 7676SOL     OW30469   5.569   0.743   0.070 -0.6545 -0.0252  0.1141
 7676SOL    HW230470   5.525   0.730  -0.014  0.0522 -1.2158 -0.1048
 7676SOL    HW330471   5.576   0.654   0.106 -0.4225  0.4098  1.1652
 7676SOL    MW430472   5.564   0.729   0.064 -0.5306 -0.1249  0.2239
 7677SOL     OW30473   1.841   3.557   6.331  0.1289 -0.0146 -0.1015
 7677SOL    HW230474   1.935   3.556   6.352 -0.0818 -1.0915  0.8716
 7677SOL    HW330475   1.833   3.624   6.263  1.3514  1.3072  0.9725
 7677SOL    MW430476   1.852   3.566   6.325  0.2624  0.0177  0.1686
 7678SOL     OW30477   3.264   1.723   6.421 -0.5181  0.6970 -0.1560
 7678SOL    HW230478   3.282   1.749   6.331 -2.5120 -1.8954 -1.4227
 7678SOL    HW330479   3.237   1.631   6.415 -0.9820  0.4948  3.0780
 7678SOL    MW430480   3.263   1.714   6.408 -0.8423  0.3283  0.1035
 7679SOL     OW30481   6.115   2.897   0.912  0.3188 -0.3811 -0.3866
 7679SOL    HW230482   6.120   2.880   0.818  0.3897 -0.1936 -0.4179
 7679SOL    HW330483   6.022   2.889   0.934  0.5428 -2.9012  0.0010
 7679SOL    MW430484   6.103   2.894   0.903  0.3577 -0.6888 -0.3396
 7680SOL     OW30485   2.493   4.846   3.208  0.7277 -0.3567 -0.2174
 7680SOL    HW230486   2.471   4.834   3.116  0.0316  0.5316 -0.1831
 7680SOL    HW330487   2.489   4.941   3.221 -2.7032 -0.5933  1.5455
 7680SOL    MW430488   2.490   4.857   3.197  0.1832 -0.2708  0.0197
 7681SOL     OW30489   4.078   4.254   2.056 -0.6605 -0.2551 -0.4076
 7681SOL    HW230490   4.169   4.273   2.035 -0.6637  0.9887  0.5995
 7681SOL    HW330491   4.027   4.311   1.998 -0.7484  0.2886  0.1928
 7681SOL    MW430492   4.083   4.264   2.046 -0.6725 -0.0193 -0.1955
 7682SOL     OW30493   2.561   5.056   4.947 -0.2275  0.4316 -0.3271
 7682SOL    HW230494   2.480   5.020   4.983 -0.7831  1.8482 -0.1130
 7682SOL    HW330495   2.627   4.989   4.964 -1.2828 -0.6112 -0.2295
 7682SOL    MW430496   2.559   5.042   4.954 -0.4401  0.4809 -0.2860
 7683SOL     OW30497   3.849   0.988   1.415 -0.4012 -0.8189 -0.6178
 7683SOL    HW230498   3.769   0.980   1.467 -0.2955  1.6867  0.0322
 7683SOL    HW330499   3.819   1.018   1.329 -0.2419 -0.7694 -0.6564
 7683SOL    MW430500   3.834   0.991   1.410 -0.3662 -0.4818 -0.5371
 7684SOL     OW30501   1.838   3.254   4.809  0.5688 -0.0381  0.0747
 7684SOL    HW230502   1.816   3.306   4.886 -2.9511  0.1043 -0.8726
 7684SOL    HW330503   1.895   3.311   4.758  1.0935  0.7687  1.4910
 7684SOL    MW430504   1.843   3.268   4.813  0.1736  0.0872  0.1366
 7685SOL     OW30505   3.398   0.573   2.685  0.2235 -0.1517  0.2067
 7685SOL    HW230506   3.465   0.641   2.698 -0.3440  0.3470  0.5911
 7685SOL    HW330507   3.430   0.498   2.736  0.8600 -0.1787 -0.2227
 7685SOL    MW430508   3.411   0.572   2.694  0.2326 -0.0894  0.2008
 7686SOL     OW30509   4.244   6.121   0.314  0.0834 -0.0736 -0.0831
 7686SOL    HW230510   4.292   6.042   0.290  0.4085 -0.2090  0.9611
 7686SOL    HW330511   4.193   6.144   0.236  0.9538 -0.5912 -0.8089
 7686SOL    MW430512   4.243   6.114   0.300  0.2411 -0.1597 -0.0411
 7687SOL     OW30513   2.667   1.147   2.282  0.4005 -0.6608  0.2024
 7687SOL    HW230514   2.733   1.133   2.349 -1.1223 -2.1337  1.4603
 7687SOL    HW330515   2.642   1.059   2.253  0.4840 -0.0816 -1.8040
 7687SOL    MW430516   2.673   1.134   2.287  0.2106 -0.7787  0.1036
 7688SOL     OW30517   4.355   3.195   4.862 -0.6822  0.4532  0.2831
 7688SOL    HW230518   4.428   3.176   4.803 -1.2924 -1.5393  0.0970
 7688SOL    HW330519   4.392   3.189   4.950 -1.0018 -2.9790  0.3086
 7688SOL    MW430520   4.370   3.192   4.866 -0.8049 -0.2625  0.2619
 7689SOL     OW30521   4.453   0.915   0.964 -0.0806  0.5865 -0.2168
 7689SOL    HW230522   4.365   0.950   0.955  0.1186  0.7694 -1.7401
 7689SOL    HW330523   4.470   0.870   0.881  1.5228  1.1945 -0.2567
 7689SOL    MW430524   4.444   0.914   0.952  0.1572  0.6909 -0.4231
 7690SOL     OW30525   2.646   1.092   6.299  0.0266 -0.0145  0.5443
 7690SOL    HW230526   2.723   1.089   6.356  0.6883  0.1858 -0.3149
 7690SOL    HW330527   2.652   1.012   6.246  2.1190  1.9721 -2.5899
 7690SOL    MW430528   2.657   1.081   6.299  0.3899  0.2740  0.0174
 7691SOL     OW30529   5.384   2.578   0.948 -0.6501 -0.1686 -0.2599
 7691SOL    HW230530   5.376   2.654   0.890 -0.2974  0.7427  0.8445
 7691SOL    HW330531   5.300   2.574   0.994 -1.1554 -1.2503 -1.2272
 7691SOL    MW430532   5.372   2.588   0.946 -0.6702 -0.1911 -0.2418
 7692SOL     OW30533   0.359   3.928   5.790  0.5643 -0.1198  0.2649
 7692SOL    HW230534   0.454   3.922   5.797  0.6095  0.7351  0.6028
 7692SOL    HW330535   0.326   3.849   5.833  1.0813  0.6879  2.2426
 7692SOL    MW430536   0.367   3.917   5.797  0.6385  0.0995  0.5705
 7693SOL     OW30537   2.473   4.273   1.344  0.0768 -0.0963  0.3751
 7693SOL    HW230538   2.396   4.296   1.396 -0.5038 -2.2771  0.6018
 7693SOL    HW330539   2.463   4.179   1.328  1.6726 -0.0255 -1.3353
 7693SOL    MW430540   2.462   4.264   1.349  0.2108 -0.3747  0.1793
 7694SOL     OW30541   3.727   5.933   3.471  0.0127 -0.0571 -0.5266
 7694SOL    HW230542   3.660   5.876   3.508 -0.7890  1.5365  0.5996
 7694SOL    HW330543   3.788   5.949   3.544  0.7364 -0.1945 -1.0885
 7694SOL    MW430544   3.726   5.928   3.486  0.0024  0.1350 -0.4521
 7695SOL     OW30545   3.492   4.602   2.946 -0.3611 -0.2110  0.1053
 7695SOL    HW230546   3.523   4.601   3.037 -1.9010 -1.6667  0.6576
 7695SOL    HW330547   3.557   4.552   2.898 -0.6325 -1.3015  0.8328
 7695SOL    MW430548   3.504   4.595   2.952 -0.6001 -0.5469  0.2742
 7696SOL     OW30549   1.655   6.390   1.091 -0.0154  0.4121  0.3827
 7696SOL    HW230550   1.575   6.414   1.045 -0.1198  0.9771  0.8483
 7696SOL    HW330551   1.724   6.439   1.047  0.4854 -1.9417 -1.6302
 7696SOL    MW430552   1.653   6.400   1.079  0.0369  0.1761  0.1786
 7697SOL     OW30553   0.592   2.058   3.875  0.2397 -0.5146 -0.3739
 7697SOL    HW230554   0.664   2.001   3.901 -0.1260 -0.4634  0.8137
 7697SOL    HW330555   0.601   2.136   3.930 -0.2570 -0.1574 -0.7797
 7697SOL    MW430556   0.603   2.061   3.886  0.1259 -0.4607 -0.2707
 7698SOL     OW30557   3.779   0.461   2.591  0.0982  0.1746  0.1888
 7698SOL    HW230558   3.805   0.376   2.627 -2.7931 -0.3019  1.4042
 7698SOL    HW330559   3.764   0.443   2.498 -0.6558 -0.7266  0.4657
 7698SOL    MW430560   3.781   0.447   2.583 -0.3828 -0.0072  0.3857
 7699SOL     OW30561   3.326   4.916   0.444 -0.1665 -0.0740 -0.1774
 7699SOL    HW230562   3.368   4.903   0.529 -0.8357  0.6332  0.2727
 7699SOL    HW330563   3.398   4.937   0.384  0.3452 -0.9046  0.1361
 7699SOL    MW430564   3.341   4.917   0.447 -0.1873 -0.0903 -0.0766
 7700SOL     OW30565   2.732   4.025   1.770  0.6343 -0.1392  0.0895
 7700SOL    HW230566   2.801   4.075   1.815 -0.5093  2.1298 -0.5322
 7700SOL    HW330567   2.770   4.003   1.685  0.1314  2.5479 -0.9192
 7700SOL    MW430568   2.746   4.029   1.765  0.4171  0.5147 -0.1256
 7701SOL     OW30569   1.139   0.846   4.980  0.0416  0.6655 -0.2180
 7701SOL    HW230570   1.149   0.762   4.935  1.8196  0.2742  0.7856
 7701SOL    HW330571   1.076   0.828   5.049 -1.3588  0.8077 -1.4134
 7701SOL    MW430572   1.132   0.832   4.983  0.0914  0.6327 -0.2433
 7702SOL     OW30573   1.790   0.783   3.449  0.3297  0.3558  0.0186
 7702SOL    HW230574   1.875   0.827   3.445  0.3587  0.5573  1.9294
 7702SOL    HW330575   1.795   0.728   3.527 -1.1567  0.0626 -0.0630
 7702SOL    MW430576   1.801   0.781   3.459  0.1374  0.3437  0.2599
 7703SOL     OW30577   3.738   1.901   2.420 -0.1272 -0.3624 -0.3500
 7703SOL    HW230578   3.781   1.951   2.351  0.1510  2.4072  1.6550
 7703SOL    HW330579   3.669   1.959   2.453 -0.1215 -1.4609  1.8072
 7703SOL    MW430580   3.734   1.915   2.415 -0.0897 -0.1419  0.1991
 7704SOL     OW30581   0.774   3.302   3.971  0.0838  0.2780 -0.3840
 7704SOL    HW230582   0.728   3.228   4.011  1.0600 -1.2794 -1.9554
 7704SOL    HW330583   0.854   3.311   4.023 -0.0196  0.1756 -0.2074
 7704SOL    MW430584   0.779   3.293   3.983  0.1989  0.0590 -0.5680
 7705SOL     OW30585   2.590   4.993   4.184  0.0161 -0.0031 -0.1484
 7705SOL    HW230586   2.642   4.981   4.264  0.5749  1.5004 -0.2559
 7705SOL    HW330587   2.502   5.013   4.216 -0.0286 -0.5163  0.0629
 7705SOL    MW430588   2.585   4.994   4.199  0.0839  0.1275 -0.1347
 7706SOL     OW30589   4.527   1.395   5.598  0.6055 -0.4563 -0.0926
 7706SOL    HW230590   4.503   1.455   5.669 -1.7546  0.4899 -1.5879
 7706SOL    HW330591   4.503   1.308   5.632 -1.4047  0.0712 -0.0105
 7706SOL    MW430592   4.521   1.391   5.612  0.0289 -0.2618 -0.2790
 7707SOL     OW30593   2.513   5.997   0.012 -0.2370  0.1634 -0.1625
 7707SOL    HW230594   2.477   6.015  -0.075 -1.2551 -0.2366  0.1637
 7707SOL    HW330595   2.446   5.945   0.056 -0.2546  1.3328  1.2775
 7707SOL    MW430596   2.499   5.993   0.007 -0.3736  0.2649  0.0705
 7708SOL     OW30597   2.746   5.413   6.278 -0.2653  0.1150  0.1671
 7708SOL    HW230598   2.774   5.500   6.250 -0.1458 -0.2744 -0.9884
 7708SOL    HW330599   2.816   5.382   6.335 -0.2348  0.7089  0.4592
 7708SOL    MW430600   2.759   5.420   6.282 -0.2455  0.1420  0.0532
 7709SOL     OW30601   3.359   4.830   4.136  0.0066  0.0302 -0.8847
 7709SOL    HW230602   3.276   4.782   4.133  0.0929 -0.1418 -0.5451
 7709SOL    HW330603   3.338   4.915   4.098 -0.4619  0.1802 -0.3079
 7709SOL    MW430604   3.345   4.835   4.131 -0.0438  0.0273 -0.7638
 7710SOL     OW30605   3.888   2.826   2.885  0.4790  0.0576  0.1006
 7710SOL    HW230606   3.969   2.778   2.866  0.7089  0.0375  1.0849
 7710SOL    HW330607   3.855   2.787   2.966 -0.8644 -0.3587 -0.6185
 7710SOL    MW430608   3.894   2.814   2.893  0.3321  0.0000  0.1356
 7711SOL     OW30609   1.925   0.598   4.286  0.3410 -0.4161 -0.1897
 7711SOL    HW230610   1.947   0.651   4.363  1.6085 -1.6240  0.3365
 7711SOL    HW330611   1.987   0.627   4.219  0.5688 -0.7206 -0.1168
 7711SOL    MW430612   1.936   0.608   4.288  0.5383 -0.6156 -0.1106
 7712SOL     OW30613   3.881   5.564   2.106 -0.8858 -0.2238 -0.4611
 7712SOL    HW230614   3.844   5.550   2.193  0.4192  0.5689  0.2516
 7712SOL    HW330615   3.806   5.559   2.047 -1.6573 -1.8359  0.5795
 7712SOL    MW430616   3.866   5.561   2.110 -0.8154 -0.3319 -0.2297
 7713SOL     OW30617   4.792   4.122   2.966  0.0904  0.3672 -0.6803
 7713SOL    HW230618   4.824   4.209   2.990 -1.0019  0.8220 -0.8021
 7713SOL    HW330619   4.828   4.107   2.879  0.1474  0.7819 -0.7340
 7713SOL    MW430620   4.801   4.132   2.958 -0.0462  0.4819 -0.7035
 7714SOL     OW30621   4.948   4.609   6.408  0.5400  0.5554  0.0288
 7714SOL    HW230622   5.040   4.623   6.386  0.5198 -0.5371 -0.7880
 7714SOL    HW330623   4.899   4.651   6.337  0.3962  1.0828  0.4303
 7714SOL    MW430624   4.953   4.617   6.396  0.5183  0.4809 -0.0260
 7715SOL     OW30625   2.674   4.394   4.679 -0.1953 -0.1364 -0.0679
 7715SOL    HW230626   2.673   4.375   4.585 -1.7436 -0.8464  0.0538
 7715SOL    HW330627   2.609   4.464   4.689  1.4002  1.3836  0.2502
 7715SOL    MW430628   2.665   4.401   4.668 -0.1890 -0.0295 -0.0099
 7716SOL     OW30629   0.718   3.529   3.242 -0.2061  0.2381 -0.2705
 7716SOL    HW230630   0.679   3.607   3.281  0.8259  0.8183 -0.3546
 7716SOL    HW330631   0.811   3.537   3.261 -0.1986 -1.4813  0.5692
 7716SOL    MW430632   0.725   3.541   3.249 -0.0689  0.0878 -0.1708
 7717SOL     OW30633   3.716   2.365   2.173 -0.1868 -0.3030  0.3946
 7717SOL    HW230634   3.671   2.448   2.187 -0.8342 -0.2987 -1.3465
 7717SOL    HW330635   3.701   2.315   2.253 -0.3099  1.0202  1.2175
 7717SOL    MW430636   3.708   2.369   2.185 -0.2884 -0.1279  0.2734
 7718SOL     OW30637   0.298   1.811   2.303  0.3101 -0.4051 -0.7699
 7718SOL    HW230638   0.326   1.799   2.212 -0.7119  0.1369 -1.1698
 7718SOL    HW330639   0.239   1.737   2.319  0.4003 -0.4359 -0.5863
 7718SOL    MW430640   0.294   1.800   2.293  0.1872 -0.3376 -0.7984
 7719SOL     OW30641   6.194   4.248   0.541 -0.2655  0.0542  0.0681
 7719SOL    HW230642   6.102   4.242   0.567 -0.4648 -1.5634 -0.9028
 7719SOL    HW330643   6.242   4.230   0.622 -0.8259 -0.2790  0.3381
 7719SOL    MW430644   6.188   4.245   0.555 -0.3657 -0.2032 -0.0244
 7720SOL     OW30645   5.525   5.378   2.527  0.3733  0.0720  0.1106
 7720SOL    HW230646   5.558   5.322   2.457 -0.3167  0.8747 -0.8888
 7720SOL    HW330647   5.490   5.317   2.592  0.0554 -0.6733 -0.7393
 7720SOL    MW430648   5.525   5.363   2.526  0.2403  0.0796 -0.1334
 7721SOL     OW30649   5.534   6.322   3.605  0.7770  0.2224  0.2666
 7721SOL    HW230650   5.528   6.390   3.673 -0.5584  0.1715  0.2190
 7721SOL    HW330651   5.474   6.253   3.635  0.0452  0.2714 -1.0459
 7721SOL    MW430652   5.526   6.322   3.618  0.5043  0.2222  0.0872
 7722SOL     OW30653   0.204   4.325   2.668 -0.6795 -0.4928 -0.4687
 7722SOL    HW230654   0.248   4.271   2.602 -0.9494 -0.6687 -0.5112
 7722SOL    HW330655   0.125   4.274   2.690 -1.7204  0.5607 -1.6004
 7722SOL    MW430656   0.199   4.311   2.662 -0.8525 -0.3770 -0.6236
 7723SOL     OW30657   0.621   3.754   3.399 -0.5591  0.2745  0.4201
 7723SOL    HW230658   0.608   3.814   3.326 -3.7135  0.0836  0.7059
 7723SOL    HW330659   0.670   3.806   3.463 -1.9780  2.1076  0.1112
 7723SOL    MW430660   0.626   3.769   3.398 -1.1625  0.4912  0.4171
 7724SOL     OW30661   4.855   3.482   1.422 -0.6340  0.4280 -0.3354
 7724SOL    HW230662   4.906   3.515   1.496 -0.4076 -0.2950 -0.1501
 7724SOL    HW330663   4.894   3.523   1.345 -1.1073  1.4694 -0.0289
 7724SOL    MW430664   4.867   3.492   1.422 -0.6666  0.4700 -0.2705
 7725SOL     OW30665   1.011   1.545   2.930 -0.2994  0.1072 -0.4690
 7725SOL    HW230666   0.916   1.542   2.920 -0.1435  0.7846 -2.6399
 7725SOL    HW330667   1.038   1.453   2.924 -0.8671 -0.1960  1.2027
 7725SOL    MW430668   1.002   1.532   2.928 -0.3538  0.1565 -0.5348
 7726SOL     OW30669   4.344   4.688   2.748  0.7106 -0.0942 -0.0959
 7726SOL    HW230670   4.337   4.662   2.840 -0.7737  0.2972 -0.0724
 7726SOL    HW330671   4.260   4.729   2.728  0.3519 -1.6600 -2.1042
 7726SOL    MW430672   4.332   4.690   2.757  0.4675 -0.2492 -0.3578
 7727SOL     OW30673   1.760   0.338   0.410  0.2252 -0.0201 -0.2055
 7727SOL    HW230674   1.749   0.423   0.452  1.7153  0.1428 -0.0817
 7727SOL    HW330675   1.850   0.313   0.432 -0.0535 -1.4276 -0.6022
 7727SOL    MW430676   1.771   0.346   0.419  0.3850 -0.1843 -0.2415
 7728SOL     OW30677   6.300   1.930   1.475 -0.3178 -0.2748  0.1542
 7728SOL    HW230678   6.247   1.992   1.525  1.8803 -0.2667  2.7271
 7728SOL    HW330679   6.301   1.851   1.529  2.8799  0.0204  0.7633
 7728SOL    MW430680   6.293   1.928   1.489  0.3941 -0.2347  0.5740
 7729SOL     OW30681   3.876   0.097   1.653  0.2551 -0.2125  0.4724
 7729SOL    HW230682   3.837   0.184   1.648 -0.5439 -0.3683  2.9056
 7729SOL    HW330683   3.962   0.112   1.693  0.8397 -0.3982 -0.6577
 7729SOL    MW430684   3.882   0.111   1.657  0.2268 -0.2576  0.6443
 7730SOL     OW30685   1.883   1.726   2.667  0.5504 -0.3925  0.3553
 7730SOL    HW230686   1.912   1.766   2.749 -0.9108 -1.9843  1.7329
 7730SOL    HW330687   1.787   1.732   2.670  0.4199 -1.5987 -0.6162
 7730SOL    MW430688   1.874   1.732   2.679  0.3404 -0.7617  0.4089
 7731SOL     OW30689   3.858   5.862   0.618  0.4731 -0.5663  0.2104
 7731SOL    HW230690   3.838   5.930   0.683  0.5283 -1.5981  1.3444
 7731SOL    HW330691   3.928   5.900   0.565 -1.0624  1.1734 -0.7101
 7731SOL    MW430692   3.864   5.876   0.620  0.2778 -0.4729  0.2386
 7732SOL     OW30693   2.667   1.616   5.986  0.4213  0.4037 -0.5908
 7732SOL    HW230694   2.669   1.523   5.967 -3.2007  0.3781 -1.7343
 7732SOL    HW330695   2.676   1.659   5.901 -1.9960  0.8248 -0.7294
 7732SOL    MW430696   2.668   1.610   5.972 -0.3755  0.4559 -0.7599
 7733SOL     OW30697   1.107   2.725   0.876 -0.7045  1.0774 -0.2801
 7733SOL    HW230698   1.070   2.753   0.792  0.2890  1.5007 -0.5902
 7733SOL    HW330699   1.072   2.788   0.939 -0.9393  1.1511 -0.4817
 7733SOL    MW430700   1.097   2.737   0.873 -0.6044  1.1430 -0.3476
 7734SOL     OW30701   1.739   3.475   2.663 -0.6754  0.4171  0.0279
 7734SOL    HW230702   1.655   3.434   2.682 -1.0924  1.3605  0.2789
 7734SOL    HW330703   1.746   3.473   2.567 -0.4121 -0.7474  0.0590
 7734SOL    MW430704   1.729   3.469   2.652 -0.6957  0.3879  0.0651
 7735SOL     OW30705   3.954   4.313   3.724 -0.1743  0.2639  0.1092
 7735SOL    HW230706   4.030   4.340   3.672 -0.1033  0.0289  0.0905
 7735SOL    HW330707   3.896   4.389   3.723 -0.4677  0.0434 -0.8610
 7735SOL    MW430708   3.956   4.326   3.717 -0.2036  0.2038 -0.0212
 7736SOL     OW30709   3.327   1.900   5.593  0.4665 -0.3452 -0.7812
 7736SOL    HW230710   3.338   1.939   5.680 -0.4773  0.1069 -0.8545
 7736SOL    HW330711   3.406   1.926   5.545 -0.2949  1.8281 -0.9444
 7736SOL    MW430712   3.339   1.908   5.598  0.2415  0.0012 -0.8124
 7737SOL     OW30713   5.002   6.414   0.883  0.4607 -0.3353  0.0410
 7737SOL    HW230714   5.044   6.500   0.876  1.4964 -0.6987  1.3721
 7737SOL    HW330715   4.970   6.411   0.973  0.4466 -1.3381  0.0075
 7737SOL    MW430716   5.004   6.425   0.894  0.5955 -0.5155  0.2122
 7738SOL     OW30717   5.758   1.341   3.650  0.2139  0.2511  0.0895
 7738SOL    HW230718   5.829   1.328   3.587 -0.7540  0.2219 -1.0364
 7738SOL    HW330719   5.778   1.424   3.692  0.7941  0.3575 -0.3815
 7738SOL    MW430720   5.770   1.350   3.647  0.1627  0.2613 -0.1212
 7739SOL     OW30721   1.691   2.812   0.283  0.3314 -0.2699 -0.4814
 7739SOL    HW230722   1.776   2.811   0.328 -0.1977  0.6475  0.6084
 7739SOL    HW330723   1.709   2.775   0.197  2.2926  1.7607 -1.0455
 7739SOL    MW430724   1.705   2.807   0.277  0.5204  0.1190 -0.4120
 7740SOL     OW30725   5.467   1.342   2.437  0.2970 -0.1880  0.3507
 7740SOL    HW230726   5.550   1.352   2.390  0.0475  1.3708  0.1799
 7740SOL    HW330727   5.456   1.247   2.447  2.1770 -0.4307  0.5333
 7740SOL    MW430728   5.477   1.331   2.432  0.5121 -0.0144  0.3522
 7741SOL     OW30729   1.424   3.521   0.144  0.1835 -0.0557  0.1855
 7741SOL    HW230730   1.470   3.439   0.160  0.2133 -0.4448 -1.7569
 7741SOL    HW330731   1.386   3.543   0.229 -0.8609 -2.6976  0.4908
 7741SOL    MW430732   1.425   3.513   0.158  0.0496 -0.4556 -0.0305
 7742SOL     OW30733   3.741   1.619   6.100 -0.3331 -0.1835  0.1833
 7742SOL    HW230734   3.683   1.681   6.143 -0.7619  0.2686 -1.0203
 7742SOL    HW330735   3.799   1.588   6.170 -1.4894 -0.0374  1.2264
 7742SOL    MW430736   3.741   1.623   6.115 -0.5422 -0.1046  0.1621
 7743SOL     OW30737   5.575   3.670   3.337 -0.4773  0.0925  0.6747
 7743SOL    HW230738   5.603   3.753   3.377 -0.9931 -0.0401  1.3372
 7743SOL    HW330739   5.589   3.605   3.406 -1.3090 -0.1571  0.6208
 7743SOL    MW430740   5.580   3.672   3.351 -0.6551  0.0421  0.7550
 7744SOL     OW30741   5.938   5.368   4.482  0.6723  0.1644  0.3476
 7744SOL    HW230742   5.943   5.343   4.390  0.4907 -0.2332  0.4455
 7744SOL    HW330743   5.868   5.314   4.518 -0.3756  1.4722  0.3454
 7744SOL    MW430744   5.929   5.358   4.475  0.5101  0.2845  0.3602
 7745SOL     OW30745   5.788   2.956   1.558  0.1762  0.1458  0.2013
 7745SOL    HW230746   5.807   2.888   1.493 -0.4748  0.2123 -0.0674
 7745SOL    HW330747   5.873   2.998   1.574  0.2029  0.7803 -1.3522
 7745SOL    MW430748   5.802   2.953   1.551  0.0938  0.2383 -0.0391
 7746SOL     OW30749   5.802   1.569   3.778 -0.0564  0.1553  0.1916
 7746SOL    HW230750   5.828   1.628   3.707 -0.3973  1.9782  1.5009
 7746SOL    HW330751   5.872   1.578   3.843  0.0021 -1.0950  0.3172
 7746SOL    MW430752   5.815   1.578   3.777 -0.0937  0.2308  0.3809
 7747SOL     OW30753   2.658   6.100   2.347  0.4746 -0.4366  0.0590
 7747SOL    HW230754   2.580   6.129   2.299  0.2502 -0.2553  0.5351
 7747SOL    HW330755   2.729   6.153   2.310  0.0894  0.6585  0.8303
 7747SOL    MW430756   2.657   6.111   2.336  0.3941 -0.2682  0.2236
 7748SOL     OW30757   3.588   2.560   4.281 -0.2544  0.2142 -0.0766
 7748SOL    HW230758   3.536   2.480   4.289 -0.2405  0.0251 -1.6116
 7748SOL    HW330759   3.671   2.540   4.324 -0.4002 -0.4684 -0.1014
 7748SOL    MW430760   3.592   2.547   4.288 -0.2718  0.0992 -0.2824
 7749SOL     OW30761   0.763   1.268   2.158  0.7945 -0.4361 -0.1923
 7749SOL    HW230762   0.780   1.280   2.252  2.1558 -0.0986 -0.4629
 7749SOL    HW330763   0.815   1.336   2.115  2.3043 -2.2381 -1.3375
 7749SOL    MW430764   0.772   1.279   2.165  1.1733 -0.6293 -0.3791
 7750SOL     OW30765   6.330   0.860   4.598  0.2310 -0.2728  0.4965
 7750SOL    HW230766   6.279   0.817   4.529  0.4419 -1.1850  0.8900
 7750SOL    HW330767   6.282   0.840   4.679  1.3996 -1.5067  0.9255
 7750SOL    MW430768   6.317   0.852   4.600  0.4130 -0.5560  0.6050
 7751SOL     OW30769   4.595   2.791   4.205  0.0616  0.1208  0.2020
 7751SOL    HW230770   4.499   2.790   4.211 -0.0719 -0.1043 -1.3924
 7751SOL    HW330771   4.624   2.837   4.283 -1.3263 -0.2389  0.9576
 7751SOL    MW430772   4.586   2.797   4.216 -0.1392  0.0437  0.0914
 7752SOL     OW30773   3.932   1.319   2.251 -0.3710 -0.1690 -0.0251
 7752SOL    HW230774   3.971   1.395   2.207 -0.4625 -0.5313 -0.7573
 7752SOL    HW330775   3.898   1.353   2.334 -0.7935  0.6834 -0.5318
 7752SOL    MW430776   3.932   1.334   2.256 -0.4388 -0.1044 -0.1885
 7753SOL     OW30777   5.946   6.187   2.978 -0.0712 -0.0604  0.2528
 7753SOL    HW230778   5.930   6.255   2.913 -0.1907 -1.0664 -0.7945
 7753SOL    HW330779   6.021   6.220   3.029 -0.3605  1.0078  0.0125
 7753SOL    MW430780   5.954   6.201   2.976 -0.1251 -0.0522  0.0829
 7754SOL     OW30781   5.012   3.700   2.665  0.4253 -0.1595 -0.0718
 7754SOL    HW230782   4.985   3.667   2.751 -0.4648 -0.1166 -0.3228
 7754SOL    HW330783   5.088   3.647   2.642  0.6038 -0.2499  0.6902
 7754SOL    MW430784   5.018   3.689   2.673  0.3314 -0.1658 -0.0044
 7755SOL     OW30785   0.113   2.822   6.258  0.1290  0.2658  0.1583
 7755SOL    HW230786   0.192   2.823   6.311 -1.1846 -0.5237  2.2725
 7755SOL    HW330787   0.089   2.729   6.253 -1.1346  0.5687  0.3010
 7755SOL    MW430788   0.120   2.810   6.264 -0.2110  0.2016  0.4561
 7756SOL     OW30789   6.137   4.329   5.471  0.0102  0.0003  0.1036
 7756SOL    HW230790   6.083   4.257   5.439 -0.5898  0.2238  0.5939
 7756SOL    HW330791   6.074   4.393   5.505  0.5028  1.0715 -0.9559
 7756SOL    MW430792   6.121   4.328   5.471 -0.0040  0.1711  0.0285
 7757SOL     OW30793   5.025   1.654   6.184 -0.6460 -0.1901 -0.1890
 7757SOL    HW230794   4.931   1.673   6.189 -0.9910 -1.8978  0.7266
 7757SOL    HW330795   5.066   1.740   6.171 -2.3346  0.5624 -0.9309
 7757SOL    MW430796   5.018   1.668   6.183 -0.9143 -0.3161 -0.1661
 7758SOL     OW30797   6.305   0.995   4.155  0.1377  0.0041 -0.1159
 7758SOL    HW230798   6.330   0.995   4.063  0.8331 -0.5343  0.0593
 7758SOL    HW330799   6.213   1.021   4.156  0.6274  1.9335 -0.8172
 7758SOL    MW430800   6.296   0.999   4.143  0.2941  0.1876 -0.1853
 7759SOL     OW30801   2.294   6.122   5.451 -1.2201 -0.1401 -0.6934
 7759SOL    HW230802   2.359   6.114   5.381 -1.0301  0.7937 -0.6386
 7759SOL    HW330803   2.252   6.036   5.455  0.0461 -0.7824 -0.6953
 7759SOL    MW430804   2.297   6.110   5.443 -1.0280 -0.1017 -0.6864
 7760SOL     OW30805   5.410   3.915   3.984 -0.4988  0.4777  0.4848
 7760SOL    HW230806   5.403   3.823   4.008  1.9488  0.3949  1.1521
 7760SOL    HW330807   5.388   3.962   4.064 -1.2073  0.4598  0.3016
 7760SOL    MW430808   5.406   3.909   3.998 -0.2693  0.4644  0.5486
 7761SOL     OW30809   2.412   0.040   2.638  0.2950  0.1881  0.2971
 7761SOL    HW230810   2.468   0.021   2.713 -0.3442 -0.8395  0.5289
 7761SOL    HW330811   2.379   0.128   2.654  0.1268 -0.0384  1.2535
 7761SOL    MW430812   2.415   0.049   2.650  0.1885  0.0226  0.4538
 7762SOL     OW30813   3.523   6.353   5.364 -0.3722 -0.1964  0.1684
 7762SOL    HW230814   3.539   6.301   5.443 -2.5473  0.6067  1.2070
 7762SOL    HW330815   3.536   6.444   5.393  1.7286  0.0176 -1.2047
 7762SOL    MW430816   3.527   6.358   5.379 -0.3820 -0.0622  0.1242
 7763SOL     OW30817   5.158   1.112   5.278  0.3101  0.7194  0.3858
 7763SOL    HW230818   5.157   1.204   5.302  0.8541  1.2832 -1.5615
 7763SOL    HW330819   5.125   1.110   5.188 -1.1089 -1.1703  0.8671
 7763SOL    MW430820   5.153   1.124   5.269  0.1947  0.5444  0.1924
 7764SOL     OW30821   4.177   5.460   2.761 -0.1829 -0.2922  0.2778
 7764SOL    HW230822   4.154   5.458   2.668  0.1639  2.9995 -0.0165
 7764SOL    HW330823   4.221   5.544   2.773 -2.4137  0.6027  3.8849
 7764SOL    MW430824   4.180   5.471   2.750 -0.4314  0.2602  0.7149
 7765SOL     OW30825   0.512   3.350   4.303 -0.0482  0.9036  0.5231
 7765SOL    HW230826   0.496   3.330   4.211 -2.0617  1.3459  0.7230
 7765SOL    HW330827   0.556   3.434   4.303 -0.3572  1.0688 -0.0365
 7765SOL    MW430828   0.516   3.358   4.291 -0.3546  0.9837  0.4756
 7766SOL     OW30829   2.644   3.781   0.861 -0.0189  0.0704  0.2133
 7766SOL    HW230830   2.698   3.859   0.873 -1.3159  0.7183  2.1674
 7766SOL    HW330831   2.678   3.719   0.925  0.1406 -0.5184 -0.4300
 7766SOL    MW430832   2.656   3.783   0.871 -0.1690  0.0782  0.3863
 7767SOL     OW30833   5.534   1.565   0.637 -0.2526 -0.2441  0.0050
 7767SOL    HW230834   5.592   1.515   0.579 -0.3125 -1.6718  1.1002
 7767SOL    HW330835   5.590   1.593   0.709 -0.2002  1.4329 -0.6456
 7767SOL    MW430836   5.549   1.562   0.639 -0.2536 -0.2112  0.0637
 7768SOL     OW30837   2.009   0.522   0.102  0.9418  0.4738  0.3377
 7768SOL    HW230838   2.087   0.475   0.132  0.6701  0.4660  1.0425
 7768SOL    HW330839   1.951   0.453   0.070  1.2487  0.4857 -0.2545
 7768SOL    MW430840   2.012   0.507   0.102  0.9464  0.4744  0.3526
 7769SOL     OW30841   0.883   2.220   1.750 -0.2310 -0.5926  0.0842
 7769SOL    HW230842   0.872   2.136   1.706 -1.5064  0.7242 -2.3170
 7769SOL    HW330843   0.911   2.280   1.682 -0.7979  1.2637  1.3952
 7769SOL    MW430844   0.885   2.217   1.735 -0.4741 -0.1740 -0.0596
 7770SOL     OW30845   0.996   2.993   2.850 -0.2510  0.3960 -0.1893
 7770SOL    HW230846   0.958   2.918   2.805  0.2375  0.8018 -1.3224
 7770SOL    HW330847   0.944   3.068   2.819  0.0337  0.6753 -0.0001
 7770SOL    MW430848   0.984   2.993   2.840 -0.1490  0.4864 -0.3139
 7771SOL     OW30849   4.555   2.068   6.413  0.4460 -0.4156  0.0321
 7771SOL    HW230850   4.621   2.072   6.483 -0.4556  0.8496  0.8399
 7771SOL    HW330851   4.556   1.976   6.386  1.7001 -0.6728  0.8362
 7771SOL    MW430852   4.564   2.056   6.419  0.4925 -0.2826  0.2448
 7772SOL     OW30853   4.922   0.635   6.061  0.0828  0.3923  0.0716
 7772SOL    HW230854   4.916   0.556   6.007  1.3683  0.2249  0.1494
 7772SOL    HW330855   4.864   0.618   6.135 -0.3924 -0.0778 -0.3981
 7772SOL    MW430856   4.913   0.622   6.063  0.1897  0.3081  0.0199
 7773SOL     OW30857   0.342   1.266   0.507 -0.1842 -0.0079  0.1159
 7773SOL    HW230858   0.304   1.334   0.563  0.5386  0.2267  0.3378
 7773SOL    HW330859   0.274   1.200   0.500 -0.6633  0.4418  0.4264
 7773SOL    MW430860   0.328   1.267   0.514 -0.1520  0.0823  0.1862
 7774SOL     OW30861   1.301   5.606   1.322  0.2894 -0.3821  0.2341
 7774SOL    HW230862   1.289   5.647   1.407  2.7790 -0.0808  0.5217
 7774SOL    HW330863   1.392   5.625   1.299 -0.1583 -0.9058 -2.2661
 7774SOL    MW430864   1.311   5.614   1.330  0.5588 -0.4114 -0.0579
 7775SOL     OW30865   2.482   1.269   4.574 -0.2443  0.4101 -0.0341
 7775SOL    HW230866   2.498   1.262   4.480  0.8841  0.1799  0.1641
 7775SOL    HW330867   2.400   1.222   4.588  1.0619 -2.1665 -0.5033
 7775SOL    MW430868   2.473   1.262   4.564  0.0769  0.0398 -0.0699
 7776SOL     OW30869   4.679   2.737   2.101 -0.0530 -0.2122  0.4173
 7776SOL    HW230870   4.772   2.735   2.123  0.0714  0.2542 -0.0483
 7776SOL    HW330871   4.649   2.647   2.117  0.5900 -0.4904  0.0907
 7776SOL    MW430872   4.687   2.725   2.106  0.0483 -0.1874  0.3127
 7777SOL     OW30873   3.071   2.069   4.899  0.3714 -0.9013  0.5396
 7777SOL    HW230874   3.131   2.014   4.949  0.9752 -1.6801 -0.9742
 7777SOL    HW330875   2.985   2.052   4.937  0.3898 -3.6685 -0.4456
 7777SOL    MW430876   3.068   2.060   4.911  0.4535 -1.3692  0.2099
 7778SOL     OW30877   6.333   1.028   3.122  0.3038  0.4362 -0.3928
 7778SOL    HW230878   6.362   1.093   3.186 -1.5345 -0.4222  1.4547
 7778SOL    HW330879   6.240   1.017   3.140  0.8006 -3.9327  0.6486
 7778SOL    MW430880   6.325   1.035   3.133  0.1268 -0.2535 -0.0116
 7779SOL     OW30881   2.664   2.426   6.066  0.4096  0.0756 -0.3907
 7779SOL    HW230882   2.700   2.361   6.007  0.6388 -0.0535 -0.1142
 7779SOL    HW330883   2.687   2.394   6.154  0.3246  0.4075 -0.2448
 7779SOL    MW430884   2.672   2.414   6.070  0.4286  0.1023 -0.3350
 7780SOL     OW30885   1.168   0.646   1.618 -0.3148 -0.3160 -0.3028
 7780SOL    HW230886   1.079   0.624   1.644 -0.2265 -0.1206  0.1869
 7780SOL    HW330887   1.221   0.570   1.644 -0.3545 -0.4777 -0.6926
 7780SOL    MW430888   1.163   0.633   1.625 -0.3084 -0.3116 -0.2896
 7781SOL     OW30889   3.624   0.766   2.743  0.2223  0.1375 -0.2105
 7781SOL    HW230890   3.581   0.826   2.805 -1.2819  0.7920 -1.8135
 7781SOL    HW330891   3.715   0.794   2.742 -0.1448  1.4134  0.2293
 7781SOL    MW430892   3.630   0.778   2.751 -0.0246  0.3922 -0.3640
 7782SOL     OW30893   4.862   4.277   2.005  0.3342 -0.6163 -0.4308
 7782SOL    HW230894   4.854   4.265   2.099 -0.9019 -0.2230 -0.4645
 7782SOL    HW330895   4.905   4.361   1.995  0.1088 -0.4726 -0.2086
 7782SOL    MW430896   4.866   4.286   2.016  0.1413 -0.5454 -0.4060
 7783SOL     OW30897   0.606   0.954   5.114  0.0322  0.3817 -0.1177
 7783SOL    HW230898   0.575   0.866   5.093  0.5812 -0.2738  1.6582
 7783SOL    HW330899   0.543   1.012   5.072 -2.1620 -0.8884  1.2329
 7783SOL    MW430900   0.594   0.950   5.106 -0.1849  0.1277  0.2948
 7784SOL     OW30901   4.615   1.502   1.137  0.2329  0.4197  0.1929
 7784SOL    HW230902   4.695   1.533   1.180 -0.1010  1.7160 -0.0675
 7784SOL    HW330903   4.645   1.434   1.076  1.1096  0.7387  0.2535
 7784SOL    MW430904   4.630   1.497   1.134  0.3045  0.6328  0.1665
 7785SOL     OW30905   2.190   4.245   2.382 -0.2158  0.2252 -0.0268
 7785SOL    HW230906   2.101   4.212   2.370 -0.2143  0.0818  0.3295
 7785SOL    HW330907   2.239   4.170   2.417  0.1361  0.1948 -0.5836
 7785SOL    MW430908   2.185   4.231   2.385 -0.1692  0.2023 -0.0532
 7786SOL     OW30909   0.973   2.352   3.067 -0.2536  0.6401 -0.0668
 7786SOL    HW230910   0.997   2.443   3.086  2.7365 -0.0408 -0.1087
 7786SOL    HW330911   1.014   2.301   3.136  0.4514 -0.8917 -1.5392
 7786SOL    MW430912   0.981   2.358   3.078  0.2339  0.3481 -0.2666
 7787SOL     OW30913   2.258   3.744   4.744 -0.2635 -0.2860  0.5589
 7787SOL    HW230914   2.240   3.767   4.652 -1.3146  0.2229  0.8750
 7787SOL    HW330915   2.263   3.829   4.789 -0.8961 -0.5609  1.1659
 7787SOL    MW430916   2.256   3.758   4.738 -0.4856 -0.2551  0.6807
 7788SOL     OW30917   5.866   2.533   5.790  0.1006 -0.3978  0.4147
 7788SOL    HW230918   5.925   2.605   5.766 -0.0804 -0.4789 -0.3020
 7788SOL    HW330919   5.782   2.576   5.808  0.0499 -0.4065  0.2006
 7788SOL    MW430920   5.863   2.548   5.789  0.0700 -0.4096  0.2919
 7789SOL     OW30921   2.128   6.341   5.496 -0.7840 -0.2363 -0.6327
 7789SOL    HW230922   2.054   6.337   5.435  1.1017 -0.4322 -3.0237
 7789SOL    HW330923   2.163   6.252   5.498 -0.4973 -0.1138  0.3695
 7789SOL    MW430924   2.123   6.329   5.489 -0.4973 -0.2460 -0.8159
 7790SOL     OW30925   1.488   5.956   5.582  0.6835  0.0818  0.2845
 7790SOL    HW230926   1.579   5.952   5.554  0.7993  0.6134  0.5619
 7790SOL    HW330927   1.478   5.884   5.645  0.3957 -1.1722 -1.1440
 7790SOL    MW430928   1.498   5.946   5.587  0.6608 -0.0135  0.1326
 7791SOL     OW30929   0.831   3.898   0.725 -0.1599  0.4329  0.3912
 7791SOL    HW230930   0.740   3.918   0.703 -0.0694 -0.0897 -0.5108
 7791SOL    HW330931   0.869   3.867   0.643  0.7350  0.2891  0.8486
 7791SOL    MW430932   0.824   3.896   0.711 -0.0299  0.3450  0.3325
 7792SOL     OW30933   2.310   1.401   2.001 -0.0772 -0.0620 -0.1335
 7792SOL    HW230934   2.350   1.315   2.018  0.8287  0.3889  0.0882
 7792SOL    HW330935   2.355   1.433   1.923 -1.4164 -0.3832 -1.0742
 7792SOL    MW430936   2.321   1.394   1.993 -0.1344 -0.0449 -0.2283
 7793SOL     OW30937   3.705   0.685   1.981 -0.0092 -0.0783 -0.2809
 7793SOL    HW230938   3.640   0.721   2.041 -0.1400  0.2497 -0.6219
 7793SOL    HW330939   3.670   0.600   1.956 -0.1413 -0.0484 -0.1988
 7793SOL    MW430940   3.692   0.679   1.986 -0.0439 -0.0311 -0.3150
 7794SOL     OW30941   5.353   2.540   2.896 -0.7699 -0.2641 -0.1665
 7794SOL    HW230942   5.312   2.560   2.812 -1.6274 -2.3776 -0.3054
 7794SOL    HW330943   5.284   2.552   2.961 -0.6387 -0.4293  0.0070
 7794SOL    MW430944   5.339   2.544   2.893 -0.8657 -0.5647 -0.1619
 7795SOL     OW30945   2.358   4.058   1.191 -0.2459  0.0721  0.5100
 7795SOL    HW230946   2.391   4.090   1.107 -1.4327  0.5413  0.2028
 7795SOL    HW330947   2.394   3.969   1.198 -0.9283 -0.3726 -0.9929
 7795SOL    MW430948   2.367   4.050   1.181 -0.4925  0.0753  0.2712
 7796SOL     OW30949   2.295   4.216   4.708  0.1560  0.4316 -0.0202
 7796SOL    HW230950   2.303   4.250   4.619  3.8935  1.8557  0.6985
 7796SOL    HW330951   2.280   4.294   4.762 -1.3500 -0.3393  0.7528
 7796SOL    MW430952   2.294   4.231   4.703  0.4504  0.5178  0.1766
 7797SOL     OW30953   5.818   0.299   6.120  0.3447 -0.1154  0.2059
 7797SOL    HW230954   5.832   0.208   6.091 -0.5969 -0.6448  1.3650
 7797SOL    HW330955   5.903   0.325   6.156  0.8287 -0.2673 -0.7649
 7797SOL    MW430956   5.831   0.290   6.121  0.2843 -0.2052  0.2307
 7798SOL     OW30957   5.223   2.201   5.509  0.2150  0.1649 -0.2087
 7798SOL    HW230958   5.266   2.163   5.432  0.4087 -0.9285  0.4155
 7798SOL    HW330959   5.130   2.188   5.493  0.3079 -1.6477  0.4924
 7798SOL    MW430960   5.216   2.194   5.497  0.2528 -0.2185 -0.0339
 7799SOL     OW30961   5.500   0.919   0.486  0.1025 -0.1490  0.4094
 7799SOL    HW230962   5.456   1.004   0.495  2.7229  1.9667 -3.6397
 7799SOL    HW330963   5.445   0.870   0.425  0.4630  0.1964 -0.2003
 7799SOL    MW430964   5.487   0.924   0.479  0.4958  0.1757 -0.2052
 7800SOL     OW30965   5.817   4.939   2.619  0.3002 -0.0716 -0.2699
 7800SOL    HW230966   5.869   4.872   2.574  1.6219  1.0840 -0.5257
 7800SOL    HW330967   5.810   4.907   2.709 -0.3279 -1.2289 -0.6976
 7800SOL    MW430968   5.823   4.926   2.625  0.3917 -0.0718 -0.3601
 7801SOL     OW30969   3.707   5.375   2.761  0.2002 -0.2375 -1.1337
 7801SOL    HW230970   3.657   5.374   2.680  1.0594 -2.9629 -1.7326
 7801SOL    HW330971   3.795   5.347   2.735  1.9443  3.4863  0.0300
 7801SOL    MW430972   3.712   5.371   2.747  0.5436 -0.1058 -1.0592
 7802SOL     OW30973   6.226   0.521   2.489 -0.4602  0.3188  0.4006
 7802SOL    HW230974   6.303   0.489   2.442 -1.4105 -0.1485 -0.8992
 7802SOL    HW330975   6.259   0.545   2.575  0.9276 -0.9386  0.2635
 7802SOL    MW430976   6.240   0.520   2.494 -0.4025  0.0912  0.2110
 7803SOL     OW30977   0.029   5.269   3.491  0.1417  0.0641  0.0616
 7803SOL    HW230978  -0.066   5.258   3.485 -0.1175  1.9258  0.0940
 7803SOL    HW330979   0.041   5.362   3.513  1.9712 -0.1115 -0.0421
 7803SOL    MW430980   0.018   5.280   3.493  0.3489  0.2866  0.0522
 7804SOL     OW30981   1.640   4.215   4.504 -0.3401 -0.0108 -0.6948
 7804SOL    HW230982   1.733   4.233   4.519 -0.3094 -0.2849 -0.5478
 7804SOL    HW330983   1.597   4.301   4.511 -0.0099  0.2244 -1.4722
 7804SOL    MW430984   1.646   4.229   4.507 -0.2925 -0.0159 -0.7779
 7805SOL     OW30985   0.891   5.655   3.928 -0.1741  0.1084 -0.5452
 7805SOL    HW230986   0.960   5.721   3.922  0.9106 -0.9942 -0.7206
 7805SOL    HW330987   0.910   5.595   3.855 -2.4408  0.7679 -1.7612
 7805SOL    MW430988   0.903   5.656   3.917 -0.3301  0.0500 -0.7288
 7806SOL     OW30989   6.184   1.472   0.390 -0.4793 -0.2325  0.1269
 7806SOL    HW230990   6.275   1.491   0.367 -0.3116 -0.8738  0.2443
 7806SOL    HW330991   6.158   1.545   0.446 -0.5259  0.7384 -1.1213
 7806SOL    MW430992   6.193   1.484   0.395 -0.4633 -0.1890 -0.0223
 7807SOL     OW30993   5.987   3.472   5.532 -0.0775  0.0255  0.2248
 7807SOL    HW230994   5.920   3.470   5.464  1.5523  1.7643 -1.5623
 7807SOL    HW330995   6.067   3.501   5.487  1.5684 -0.6124  2.5202
 7807SOL    MW430996   5.989   3.476   5.517  0.3547  0.1708  0.2919
 7808SOL     OW30997   3.425   4.582   0.931 -0.3781 -0.6304  0.1411
 7808SOL    HW230998   3.392   4.580   1.020 -0.8233 -1.8906 -0.0253
 7808SOL    HW330999   3.392   4.501   0.891 -1.2000  0.4606 -1.5374
 7808SOL    MW431000   3.416   4.571   0.937 -0.5452 -0.6527 -0.1023
 7809SOL     OW31001   6.175   2.918   4.909 -0.1205 -1.0166 -0.6159
 7809SOL    HW231002   6.127   2.901   4.990 -0.2982  0.9602 -0.2664
 7809SOL    HW331003   6.245   2.977   4.934  0.9801 -1.8642 -1.5897
 7809SOL    MW431004   6.178   2.924   4.923  0.0012 -0.8676 -0.6982
 7810SOL     OW31005   4.477   5.899   4.383  0.6161 -0.1189 -0.1316
 7810SOL    HW231006   4.544   5.959   4.415 -0.5028  1.7511 -1.1064
 7810SOL    HW331007   4.396   5.950   4.382 -0.6882 -2.0510  0.2210
 7810SOL    MW431008   4.475   5.913   4.387  0.2964 -0.1271 -0.2137
 7811SOL     OW31009   3.749   3.487   6.167 -0.6277  0.2719  0.1099
 7811SOL    HW231010   3.699   3.407   6.156 -0.1256 -0.2623  1.4666
 7811SOL    HW331011   3.747   3.504   6.262 -2.1990  2.8524 -0.2958
 7811SOL    MW431012   3.742   3.479   6.178 -0.7688  0.5419  0.2354
 7812SOL     OW31013   5.493   1.259   5.953  0.2607 -0.2511 -0.7295
 7812SOL    HW231014   5.547   1.196   6.001 -1.2278 -2.1924 -1.4491
 7812SOL    HW331015   5.453   1.313   6.021 -1.8149 -2.9563  0.3899
 7812SOL    MW431016   5.494   1.258   5.968 -0.2095 -0.8641 -0.6768
 7813SOL     OW31017   6.081   1.340   5.004 -0.4451  0.1162 -0.2095
 7813SOL    HW231018   6.158   1.330   4.947 -1.1073  0.2823 -1.1416
 7813SOL    HW331019   6.041   1.253   5.005 -0.7077  0.2357 -0.3838
 7813SOL    MW431020   6.086   1.327   4.997 -0.5671  0.1538 -0.3555
 7814SOL     OW31021   3.803   1.396   3.753  0.1791 -0.3089  0.0221
 7814SOL    HW231022   3.844   1.351   3.680  0.2952 -0.0866 -0.0500
 7814SOL    HW331023   3.709   1.385   3.739  0.1469  0.9584 -0.9572
 7814SOL    MW431024   3.796   1.389   3.742  0.1902 -0.1124 -0.1166
 7815SOL     OW31025   2.195   4.596   0.516 -0.3466 -0.1604 -0.2865
 7815SOL    HW231026   2.234   4.651   0.585 -0.1987 -1.9287  1.1185
 7815SOL    HW331027   2.170   4.658   0.448  1.1999  1.4794  0.5443
 7815SOL    MW431028   2.197   4.611   0.516 -0.1231 -0.1773  0.0085
 7816SOL     OW31029   4.659   0.664   0.364  0.6288  0.2937  1.0413
 7816SOL    HW231030   4.691   0.628   0.281  0.2440 -0.2597  1.1209
 7816SOL    HW331031   4.627   0.587   0.412  0.2891  0.6841  1.4480
 7816SOL    MW431032   4.659   0.649   0.359  0.5332  0.2722  1.1055
 7817SOL     OW31033   4.214   1.349   3.979  0.4694 -0.1462  0.3417
 7817SOL    HW231034   4.268   1.406   3.924 -0.3389  1.1940  0.9126
 7817SOL    HW331035   4.276   1.286   4.016  1.3479  0.2457 -0.4289
 7817SOL    MW431036   4.229   1.348   3.976  0.4787  0.0823  0.3153
 7818SOL     OW31037   4.078   3.841   3.625  0.2521 -0.1591 -0.0713
 7818SOL    HW231038   4.163   3.802   3.610 -0.0959 -0.9396 -0.0466
 7818SOL    HW331039   4.069   3.844   3.720  0.5798  0.6673 -0.0550
 7818SOL    MW431040   4.088   3.836   3.636  0.2494 -0.1530 -0.0659
 7819SOL     OW31041   6.381   4.109   2.319  0.5232 -0.5530 -0.1315
 7819SOL    HW231042   6.472   4.088   2.301  1.0363  0.8931  0.5938
 7819SOL    HW331043   6.368   4.088   2.411 -0.3437 -2.1764 -0.5821
 7819SOL    MW431044   6.391   4.104   2.329  0.4765 -0.5764 -0.0952
 7820SOL     OW31045   4.306   3.363   2.682  0.0043 -0.1761 -0.2088
 7820SOL    HW231046   4.210   3.365   2.677 -0.0379 -0.9543  0.0292
 7820SOL    HW331047   4.333   3.314   2.604  0.2261  0.2787 -0.4176
 7820SOL    MW431048   4.297   3.357   2.671  0.0280 -0.2188 -0.2050
 7821SOL     OW31049   3.927   4.552   3.064  0.7247  0.5350 -0.0710
 7821SOL    HW231050   3.944   4.458   3.053  0.5550  0.4865  0.0748
 7821SOL    HW331051   3.913   4.584   2.975  1.1176  0.4879 -0.1526
 7821SOL    MW431052   3.927   4.544   3.051  0.7541  0.5224 -0.0625
 7822SOL     OW31053   4.575   3.256   4.350  0.5462  0.0921 -0.2808
 7822SOL    HW231054   4.602   3.178   4.398  0.3831 -0.0283 -0.3830
 7822SOL    HW331055   4.527   3.308   4.414 -0.5177 -0.5180 -0.5567
 7822SOL    MW431056   4.573   3.252   4.365  0.3843 -0.0043 -0.3307
 7823SOL     OW31057   4.242   5.595   1.007  0.0448  0.0420  0.2503
 7823SOL    HW231058   4.206   5.510   0.982  1.6113 -1.0144  1.3835
 7823SOL    HW331059   4.315   5.609   0.945 -0.6263  0.9073 -0.3655
 7823SOL    MW431060   4.247   5.586   0.995  0.1630  0.0168  0.3185
 7824SOL     OW31061   1.128   3.666   3.953 -0.4119 -0.4091 -0.1481
 7824SOL    HW231062   1.069   3.618   3.895 -1.2329 -0.2633  0.5396
 7824SOL    HW331063   1.121   3.757   3.924  0.4784 -0.5597 -0.8906
 7824SOL    MW431064   1.120   3.672   3.941 -0.4028 -0.4097 -0.1553
 7825SOL     OW31065   5.149   6.113   2.312  0.0941  0.4219 -0.3044
 7825SOL    HW231066   5.124   6.202   2.335  0.5163  0.4461  0.0850
 7825SOL    HW331067   5.068   6.062   2.319 -0.3659  0.9478 -1.5038
 7825SOL    MW431068   5.135   6.118   2.316  0.0891  0.4945 -0.4113
 7826SOL     OW31069   3.523   3.051   1.136 -0.2205  0.2926  0.2148
 7826SOL    HW231070   3.611   3.042   1.171 -0.5068  1.2213  1.2404
 7826SOL    HW331071   3.496   2.963   1.112  0.2743 -0.2768  1.6720
 7826SOL    MW431072   3.531   3.038   1.137 -0.1930  0.3400  0.5423
 7827SOL     OW31073   1.700   0.415   5.762  0.2225  0.1083  0.3687
 7827SOL    HW231074   1.707   0.447   5.672 -1.8989  0.4949  0.2819
 7827SOL    HW331075   1.691   0.320   5.754 -1.4189  0.2535  0.0056
 7827SOL    MW431076   1.699   0.407   5.749 -0.2739  0.1785  0.3094
 7828SOL     OW31077   1.565   2.870   0.718  0.3681  0.0560  0.1204
 7828SOL    HW231078   1.508   2.816   0.773  0.7983  0.4626  0.9908
 7828SOL    HW331079   1.506   2.907   0.652 -0.0910 -0.7503  0.0704
 7828SOL    MW431080   1.549   2.868   0.717  0.3643  0.0033  0.2286
 7829SOL     OW31081   4.286   1.661   2.971  0.6133 -0.5478 -0.2326
 7829SOL    HW231082   4.335   1.648   3.053 -0.2067 -0.6736  0.2480
 7829SOL    HW331083   4.341   1.620   2.904  1.0354 -0.9361  0.3362
 7829SOL    MW431084   4.300   1.654   2.973  0.5608 -0.6157 -0.0942
 7830SOL     OW31085   3.625   0.433   3.496 -0.0960 -0.0568  0.3503
 7830SOL    HW231086   3.691   0.364   3.483  0.2721  0.1931  0.8537
 7830SOL    HW331087   3.605   0.464   3.408  0.1922 -0.3882  0.1651
 7830SOL    MW431088   3.631   0.428   3.483 -0.0094 -0.0675  0.3923
 7831SOL     OW31089   3.293   3.375   4.304  0.3634 -0.1857  0.2261
 7831SOL    HW231090   3.378   3.338   4.328  1.1860  1.5370  0.1008
 7831SOL    HW331091   3.268   3.430   4.378 -0.5753 -0.5466  0.1951
 7831SOL    MW431092   3.301   3.377   4.317  0.3481 -0.0060  0.2055
 7832SOL     OW31093   2.682   1.994   1.576 -0.1694 -0.0554 -0.0652
 7832SOL    HW231094   2.648   2.038   1.498 -0.1725  0.0258 -0.0178
 7832SOL    HW331095   2.685   2.062   1.643  0.1601 -0.0444 -0.0911
 7832SOL    MW431096   2.678   2.009   1.574 -0.1263 -0.0432 -0.0623
 7833SOL     OW31097   5.064   2.309   2.666  0.9150 -0.3590  0.0266
 7833SOL    HW231098   4.980   2.277   2.697 -0.0125  0.9780 -0.9925
 7833SOL    HW331099   5.083   2.256   2.589 -0.5490  1.3119 -1.5752
 7833SOL    MW431100   5.056   2.298   2.660  0.5995  0.0379 -0.3192
 7834SOL     OW31101   3.610   1.892   5.163  0.4238 -0.0996  0.4695
 7834SOL    HW231102   3.561   1.957   5.112  0.8434 -0.3390 -0.2468
 7834SOL    HW331103   3.702   1.916   5.152  0.6168 -1.1541 -0.2767
 7834SOL    MW431104   3.615   1.904   5.155  0.5046 -0.2703  0.2765
 7835SOL     OW31105   6.350   3.581   2.488  0.5371  0.5756  0.3669
 7835SOL    HW231106   6.352   3.599   2.394 -1.4183 -0.5570  0.0546
 7835SOL    HW331107   6.258   3.589   2.512  1.0210  0.9394  2.2290
 7835SOL    MW431108   6.338   3.584   2.479  0.3430  0.4742  0.5714
 7836SOL     OW31109   0.082   6.187   4.122  0.5165  0.2696  0.4759
 7836SOL    HW231110   0.102   6.274   4.089  1.1399  0.3414  1.0056
 7836SOL    HW331111   0.076   6.198   4.217  2.0399 -0.4996  0.6939
 7836SOL    MW431112   0.084   6.200   4.130  0.7998  0.1776  0.5746
 7837SOL     OW31113   4.880   0.090   1.633  0.6090  0.3468  0.1888
 7837SOL    HW231114   4.824   0.160   1.599 -0.3480  0.1090  1.2268
 7837SOL    HW331115   4.919   0.127   1.712 -0.0126 -0.3077  0.8214
 7837SOL    MW431116   4.878   0.104   1.639  0.4007  0.2291  0.4092
 7838SOL     OW31117   4.535   5.331   2.153  0.0748 -0.7749  0.6135
 7838SOL    HW231118   4.534   5.277   2.074 -0.4382 -1.2047  0.9063
 7838SOL    HW331119   4.626   5.325   2.184  0.1347 -1.0920  0.3869
 7838SOL    MW431120   4.547   5.323   2.147  0.0150 -0.8735  0.6222
 7839SOL     OW31121   3.366   2.142   6.406  0.0350  0.2800 -0.0501
 7839SOL    HW231122   3.337   2.233   6.416 -0.6179  0.1044 -0.3463
 7839SOL    HW331123   3.440   2.135   6.467 -0.2609  0.8509  0.3938
 7839SOL    MW431124   3.372   2.153   6.415 -0.0902  0.3322 -0.0307
 7840SOL     OW31125   0.243   2.718   4.656  0.0248  0.2776 -0.1562
 7840SOL    HW231126   0.185   2.794   4.664  1.2823  1.5370 -2.1390
 7840SOL    HW331127   0.299   2.722   4.733 -1.0174  0.3401  0.6255
 7840SOL    MW431128   0.243   2.728   4.667  0.0532  0.4520 -0.3147
 7841SOL     OW31129   4.577   1.989   2.744  0.3932  0.0156 -0.2241
 7841SOL    HW231130   4.569   2.039   2.825 -0.7290  0.0171 -0.3191
 7841SOL    HW331131   4.662   1.945   2.750  0.6898  0.6915  0.5622
 7841SOL    MW431132   4.588   1.990   2.755  0.2843  0.1050 -0.1329
 7842SOL     OW31133   1.040   2.718   4.573  0.1124 -0.2274  0.4319
 7842SOL    HW231134   1.109   2.705   4.508  1.2905  0.6627  1.4473
 7842SOL    HW331135   0.962   2.678   4.534  0.6693  0.5788 -1.6652
 7842SOL    MW431136   1.039   2.711   4.559  0.3413 -0.0036  0.2892
 7843SOL     OW31137   3.665   4.854   1.566  0.5000  0.3550 -0.4640
 7843SOL    HW231138   3.634   4.799   1.494 -1.2005 -1.3635  1.4417
 7843SOL    HW331139   3.752   4.883   1.538 -0.3659  0.4405 -3.4994
 7843SOL    MW431140   3.672   4.851   1.553  0.1614  0.1396 -0.6130
 7844SOL     OW31141   4.091   0.322   1.035  0.6555 -0.0622 -0.0807
 7844SOL    HW231142   4.106   0.416   1.039 -1.5953  0.3245  0.9984
 7844SOL    HW331143   4.100   0.300   0.943 -0.2231  1.5021 -0.5749
 7844SOL    MW431144   4.094   0.332   1.024  0.2426  0.1952 -0.0036
 7845SOL     OW31145   2.245   4.080   0.784 -0.1367 -0.2298 -0.3783
 7845SOL    HW231146   2.236   3.985   0.787  1.8532 -0.4272  0.4730
 7845SOL    HW331147   2.307   4.096   0.713  1.1775  0.2612  0.8490
 7845SOL    MW431148   2.252   4.069   0.775  0.2992 -0.1911 -0.1041
 7846SOL     OW31149   4.466   1.724   3.707  0.4005 -0.0917  0.0387
 7846SOL    HW231150   4.519   1.722   3.786 -0.5475 -0.9872  0.6841
 7846SOL    HW331151   4.522   1.688   3.639  0.5805 -1.1677  0.7380
 7846SOL    MW431152   4.480   1.719   3.708  0.2992 -0.3518  0.2161
 7847SOL     OW31153   1.368   0.383   4.246  0.4064 -0.5362  0.4690
 7847SOL    HW231154   1.379   0.294   4.213 -1.5919 -0.8193  0.4412
 7847SOL    HW331155   1.273   0.395   4.251  0.6067  1.7872 -0.0608
 7847SOL    MW431156   1.357   0.373   4.242  0.1691 -0.2670  0.3955
 7848SOL     OW31157   1.061   0.891   4.711  0.0128  0.5773 -0.2162
 7848SOL    HW231158   1.077   0.889   4.805  1.7361  0.3245 -0.4736
 7848SOL    HW331159   1.019   0.807   4.691  0.0857  0.4264  0.2596
 7848SOL    MW431160   1.058   0.880   4.721  0.2498  0.5241 -0.1874
 7849SOL     OW31161   0.129   6.207   5.175 -0.1826  0.3962 -0.3991
 7849SOL    HW231162   0.107   6.266   5.103 -0.6517 -0.3786 -0.8990
 7849SOL    HW331163   0.167   6.130   5.132 -1.4169 -0.5146  0.0884
 7849SOL    MW431164   0.131   6.204   5.160 -0.4073  0.1738 -0.4008
 7850SOL     OW31165   0.528   3.990   0.395  0.2825  0.3290  0.3443
 7850SOL    HW231166   0.610   3.951   0.365  0.7647  0.5437  1.3308
 7850SOL    HW331167   0.527   4.078   0.358  0.5700  0.3765  0.4487
 7850SOL    MW431168   0.538   3.996   0.386  0.3841  0.3636  0.4882
 7851SOL     OW31169   4.190   5.990   2.673  0.0826  0.0110  0.3620
 7851SOL    HW231170   4.165   6.074   2.713  1.4330  0.4464  0.3384
 7851SOL    HW331171   4.272   5.966   2.717  0.8737 -0.1902 -1.1625
 7851SOL    MW431172   4.198   5.998   2.684  0.3652  0.0419  0.1577
 7852SOL     OW31173   5.513   3.502   0.391 -0.7760  0.3314 -0.7079
 7852SOL    HW231174   5.573   3.552   0.446  0.3196  0.5264 -2.0376
 7852SOL    HW331175   5.507   3.551   0.310 -0.2709 -1.2824 -1.7701
 7852SOL    MW431176   5.520   3.515   0.388 -0.5648  0.1442 -1.0235
 7853SOL     OW31177   5.474   1.658   2.319 -0.1999 -0.1900 -0.0894
 7853SOL    HW231178   5.407   1.598   2.352  0.2965 -0.2713  0.7885
 7853SOL    HW331179   5.426   1.740   2.303 -0.4340 -0.1235  0.9191
 7853SOL    MW431180   5.459   1.661   2.321 -0.1653 -0.1920  0.1595
 7854SOL     OW31181   4.972   1.420   1.643  0.4504  0.7179  0.1847
 7854SOL    HW231182   5.007   1.395   1.557 -0.2150  0.6899 -0.0873
 7854SOL    HW331183   4.911   1.351   1.665  0.0037  1.1443  0.3002
 7854SOL    MW431184   4.969   1.408   1.634  0.3037  0.7704  0.1640
 7855SOL     OW31185   1.071   0.159   2.617 -0.3494 -0.0086 -0.5276
 7855SOL    HW231186   1.009   0.198   2.677 -0.9655 -1.0034 -0.4957
 7855SOL    HW331187   1.152   0.150   2.668 -0.4993  0.2798 -0.2370
 7855SOL    MW431188   1.074   0.163   2.631 -0.4505 -0.1018 -0.4851
 7856SOL     OW31189   3.168   1.733   4.805 -0.2179 -0.2721 -0.1995
 7856SOL    HW231190   3.198   1.643   4.801 -1.1575 -0.9977  4.1645
 7856SOL    HW331191   3.077   1.730   4.773  0.6891 -0.1408 -3.0290
 7856SOL    MW431192   3.160   1.721   4.801 -0.2222 -0.3505  0.0029
 7857SOL     OW31193   3.220   4.336   1.707  0.1262  0.0378  0.1421
 7857SOL    HW231194   3.182   4.366   1.790  0.1564  0.7736 -0.1046
 7857SOL    HW331195   3.167   4.260   1.683 -0.8941  0.7533  0.0525
 7857SOL    MW431196   3.208   4.330   1.715 -0.0044  0.2293  0.0977
 7858SOL     OW31197   5.390   1.170   0.537 -0.0332  0.4476  0.0483
 7858SOL    HW231198   5.302   1.180   0.572  0.1707 -0.9506  1.0363
 7858SOL    HW331199   5.382   1.190   0.443 -1.0704  1.8308  0.4029
 7858SOL    MW431200   5.377   1.174   0.529 -0.1431  0.4456  0.2254
 7859SOL     OW31201   3.367   3.632   1.171  0.3814  0.3740  0.0686
 7859SOL    HW231202   3.385   3.710   1.118  0.9223  0.3151  0.1574
 7859SOL    HW331203   3.444   3.623   1.228  0.4136 -0.3305 -0.0695
 7859SOL    MW431204   3.380   3.641   1.172  0.4570  0.2733  0.0621
 7860SOL     OW31205   0.951   0.584   6.148 -0.4123  0.6230 -0.0701
 7860SOL    HW231206   0.982   0.659   6.198  0.8388  0.5193 -0.6599
 7860SOL    HW331207   0.994   0.508   6.188  0.5027  0.5255 -1.1837
 7860SOL    MW431208   0.960   0.584   6.160 -0.1265  0.5965 -0.2948
 7861SOL     OW31209   4.382   0.324   3.962 -0.4198  0.2953 -0.2203
 7861SOL    HW231210   4.320   0.300   4.031  0.1009 -2.6453 -0.6475
 7861SOL    HW331211   4.405   0.415   3.981 -2.8137  0.6282  1.4909
 7861SOL    MW431212   4.377   0.333   3.974 -0.6670 -0.0488 -0.0509
 7862SOL     OW31213   0.753   5.932   5.429  0.2585  0.4969 -0.2862
 7862SOL    HW231214   0.795   5.852   5.459  0.8770  0.6407 -0.7363
 7862SOL    HW331215   0.735   5.917   5.336 -2.4060 -0.2729  0.2781
 7862SOL    MW431216   0.756   5.920   5.421 -0.0115  0.4143 -0.2711
 7863SOL     OW31217   3.149   1.955   3.960 -0.3528  0.6133  0.2478
 7863SOL    HW231218   3.091   1.885   3.929  1.7464 -1.3810  0.5327
 7863SOL    HW331219   3.101   1.995   4.033 -1.4342 -0.8473  0.3889
 7863SOL    MW431220   3.135   1.951   3.965 -0.2185  0.1575  0.3040
 7864SOL     OW31221   3.647   4.480   5.306  0.0484  0.2354  0.5811
 7864SOL    HW231222   3.678   4.395   5.338 -1.3552 -0.7467 -0.5490
 7864SOL    HW331223   3.583   4.508   5.371  0.2581  0.2628  0.7777
 7864SOL    MW431224   3.643   4.472   5.319 -0.1091  0.1095  0.4579
 7865SOL     OW31225   1.650   2.219   5.256 -0.4219 -0.1320  0.3053
 7865SOL    HW231226   1.732   2.269   5.254 -0.0882 -0.6429 -1.8494
 7865SOL    HW331227   1.667   2.147   5.317  0.7631 -0.2468 -0.1269
 7865SOL    MW431228   1.663   2.216   5.263 -0.2215 -0.2146 -0.0360
 7866SOL     OW31229   5.969   4.119   5.387 -0.1492  0.6830 -0.1106
 7866SOL    HW231230   5.878   4.097   5.409 -0.0945  0.4263 -0.1453
 7866SOL    HW331231   6.011   4.035   5.370 -0.4623  0.9004 -2.2304
 7866SOL    MW431232   5.962   4.105   5.387 -0.1833  0.6778 -0.3949
 7867SOL     OW31233   0.739   0.036   4.568 -0.5773 -0.2321 -0.2117
 7867SOL    HW231234   0.785   0.107   4.613 -1.7941  1.2809 -1.2875
 7867SOL    HW331235   0.786  -0.043   4.596  0.9669  0.9826  0.8334
 7867SOL    MW431236   0.751   0.035   4.577 -0.5341  0.1278 -0.2158
 7868SOL     OW31237   2.657   4.667   1.805 -0.0656  0.1091 -0.4037
 7868SOL    HW231238   2.682   4.600   1.869  0.7827 -1.7216 -2.5223
 7868SOL    HW331239   2.718   4.739   1.820  1.0208 -0.8547 -0.0123
 7868SOL    MW431240   2.668   4.668   1.816  0.1897 -0.2596 -0.6316
 7869SOL     OW31241   0.977   5.547   3.255 -0.4457 -0.0491 -0.7369
 7869SOL    HW231242   0.969   5.641   3.239  0.6199  0.4200  1.1875
 7869SOL    HW331243   1.033   5.515   3.184 -0.4113  0.8560 -1.1262
 7869SOL    MW431244   0.983   5.555   3.244 -0.3006  0.1322 -0.5344
 7870SOL     OW31245   5.281   3.694   4.302  0.4833 -0.4162 -0.3005
 7870SOL    HW231246   5.306   3.775   4.347 -3.7472  0.9846 -0.1095
 7870SOL    HW331247   5.342   3.688   4.228  0.6623  3.2284 -0.6017
 7870SOL    MW431248   5.293   3.704   4.298 -0.0513  0.2495 -0.3151
 7871SOL     OW31249   5.281   4.551   2.381  0.1055 -0.0604 -0.1639
 7871SOL    HW231250   5.328   4.628   2.414 -0.1997 -0.1854  0.5868
 7871SOL    HW331251   5.346   4.481   2.381  0.5655  0.3352 -1.4838
 7871SOL    MW431252   5.296   4.552   2.386  0.1259 -0.0247 -0.2390
 7872SOL     OW31253   4.472   6.159   4.899 -0.1558 -0.1289 -0.9130
 7872SOL    HW231254   4.399   6.220   4.894 -0.5713 -0.5890 -0.4855
 7872SOL    HW331255   4.438   6.083   4.946  0.8987  0.1035  0.2752
 7872SOL    MW431256   4.458   6.157   4.904 -0.0715 -0.1590 -0.6998
 7873SOL     OW31257   3.164   2.865   0.205 -0.4794  0.2694  0.0550
 7873SOL    HW231258   3.096   2.847   0.140  1.2434  0.3247 -1.9020
 7873SOL    HW331259   3.205   2.780   0.221 -2.5877 -0.3000  3.2947
 7873SOL    MW431260   3.161   2.851   0.198 -0.5303  0.2015  0.2242
 7874SOL     OW31261   2.703   4.925   4.419  0.1730  0.1364 -0.1076
 7874SOL    HW231262   2.677   4.902   4.508  0.7096 -0.0034  0.0127
 7874SOL    HW331263   2.774   4.987   4.429 -0.8254  1.3836 -0.4363
 7874SOL    MW431264   2.709   4.930   4.432  0.1121  0.2825 -0.1351
 7875SOL     OW31265   6.144   4.366   3.617  0.1841  0.3591 -0.0735
 7875SOL    HW231266   6.127   4.443   3.563  0.4815  0.3879 -0.1287
 7875SOL    HW331267   6.199   4.310   3.562  2.4695  1.4087  1.0026
 7875SOL    MW431268   6.149   4.369   3.602  0.5249  0.5014  0.0612
 7876SOL     OW31269   5.947   5.726   2.249  0.1433 -0.5600  0.2881
 7876SOL    HW231270   5.986   5.804   2.289  0.5770 -0.9015  0.5435
 7876SOL    HW331271   6.015   5.693   2.191 -0.3219 -0.3211 -0.4120
 7876SOL    MW431272   5.961   5.732   2.247  0.1392 -0.5736  0.2294
 7877SOL     OW31273   5.921   4.255   2.719  0.0754 -0.4392  0.6432
 7877SOL    HW231274   6.015   4.262   2.708  0.0370 -0.9470 -0.0832
 7877SOL    HW331275   5.908   4.185   2.783  0.1557 -1.9833 -0.9471
 7877SOL    MW431276   5.931   4.247   2.726  0.0810 -0.7099  0.3376
 7878SOL     OW31277   1.091   3.465   0.991  0.1091  0.4891 -0.1500
 7878SOL    HW231278   1.037   3.413   1.052  2.6713  0.2725  2.1246
 7878SOL    HW331279   1.037   3.541   0.970 -1.8544 -0.6895  0.3213
 7878SOL    MW431280   1.077   3.468   0.996  0.1881  0.3050  0.2123
 7879SOL     OW31281   0.728   4.114   2.266  0.2356  0.4016  0.4205
 7879SOL    HW231282   0.728   4.145   2.356 -1.1089 -1.5001  1.1353
 7879SOL    HW331283   0.641   4.078   2.253  1.0281 -1.1235 -0.9991
 7879SOL    MW431284   0.717   4.114   2.276  0.1627 -0.0506  0.3275
 7880SOL     OW31285   1.261   0.578   1.194  0.4111 -0.0136  0.3817
 7880SOL    HW231286   1.204   0.639   1.240 -1.0699 -0.8942 -0.2381
 7880SOL    HW331287   1.257   0.605   1.103  0.4587 -0.4942  0.2338
 7880SOL    MW431288   1.253   0.590   1.188  0.2220 -0.1932  0.2804
 7881SOL     OW31289   0.592   2.494   1.256 -0.2766 -0.2115  0.3718
 7881SOL    HW231290   0.560   2.404   1.256 -1.1052  0.0713  0.0171
 7881SOL    HW331291   0.529   2.542   1.311  1.1060 -0.1615  1.9703
 7881SOL    MW431292   0.579   2.489   1.263 -0.2035 -0.1676  0.5359
 7882SOL     OW31293   2.714   5.895   1.324  0.7432 -0.3056 -0.6324
 7882SOL    HW231294   2.645   5.831   1.307  0.0511 -0.2308  1.4751
 7882SOL    HW331295   2.670   5.980   1.316  0.4743 -0.2604  0.8709
 7882SOL    MW431296   2.699   5.898   1.321  0.6164 -0.2898 -0.1560
 7883SOL     OW31297   3.668   3.635   2.037  0.0099  0.0454  0.2317
 7883SOL    HW231298   3.589   3.601   1.994  0.1936 -2.3789  1.6443
 7883SOL    HW331299   3.703   3.699   1.975 -3.4309  1.8129 -0.1365
 7883SOL    MW431300   3.662   3.639   2.023 -0.4198 -0.0413  0.3695
 7884SOL     OW31301   5.364   5.981   3.404  0.1480 -0.3646 -0.1394
 7884SOL    HW231302   5.280   5.938   3.414  0.6158 -0.9853  1.5158
 7884SOL    HW331303   5.342   6.073   3.388 -0.8478 -0.4776  0.4799
 7884SOL    MW431304   5.350   5.987   3.403  0.0783 -0.4614  0.1607
 7885SOL     OW31305   1.014   2.590   5.985  0.4792  0.0937 -0.2125
 7885SOL    HW231306   0.971   2.663   6.029  0.4251 -0.1591  0.1574
 7885SOL    HW331307   0.943   2.536   5.951  0.5019 -0.2030  0.2011
 7885SOL    MW431308   0.999   2.592   5.986  0.4751  0.0212 -0.1091
 7886SOL     OW31309   5.229   0.458   1.791 -0.0840 -0.2540 -0.1018
 7886SOL    HW231310   5.220   0.541   1.838 -0.7407  0.2690 -1.1144
 7886SOL    HW331311   5.298   0.411   1.838  0.1038  0.7457  0.6535
 7886SOL    MW431312   5.237   0.463   1.804 -0.1458 -0.0531 -0.1357
 7887SOL     OW31313   2.681   5.973   3.314  0.8072  0.0209 -0.2405
 7887SOL    HW231314   2.618   6.017   3.258  1.2741  3.0157  1.3982
 7887SOL    HW331315   2.633   5.899   3.352 -1.0933  1.0564 -0.5500
 7887SOL    MW431316   2.666   5.969   3.312  0.6180  0.5527 -0.0651
 7888SOL     OW31317   4.414   0.085   0.731  0.0300 -0.1222  0.1800
 7888SOL    HW231318   4.470   0.009   0.742  1.4932  1.0271  1.0558
 7888SOL    HW331319   4.341   0.069   0.791  0.1395 -0.9908  0.0987
 7888SOL    MW431320   4.412   0.073   0.741  0.2375 -0.0852  0.2848
 7889SOL     OW31321   2.678   1.514   6.296  0.2361 -0.1336 -0.7036
 7889SOL    HW231322   2.661   1.475   6.382  1.4018 -1.0251 -0.8522
 7889SOL    HW331323   2.613   1.583   6.288  0.0333 -0.1018  0.8567
 7889SOL    MW431324   2.668   1.518   6.306  0.3631 -0.2470 -0.5173
 7890SOL     OW31325   6.431   2.950   5.261  0.3050 -0.2838 -0.0167
 7890SOL    HW231326   6.445   2.856   5.271  0.9685 -0.0506  1.5586
 7890SOL    HW331327   6.518   2.988   5.270 -0.0998  0.5498  0.4493
 7890SOL    MW431328   6.444   2.943   5.263  0.3391 -0.1430  0.2526
 7891SOL     OW31329   0.103   1.623   4.803 -0.7131  0.1334 -0.1801
 7891SOL    HW231330   0.155   1.556   4.847 -1.1474  0.9436  1.6873
 7891SOL    HW331331   0.166   1.669   4.746  0.0691 -0.4240  0.2212
 7891SOL    MW431332   0.118   1.620   4.801 -0.6672  0.1667  0.1192
 7892SOL     OW31333   5.720   5.687   0.147 -0.1084  0.0924 -0.2505
 7892SOL    HW231334   5.769   5.690   0.065  0.6309 -1.0823  0.1274
 7892SOL    HW331335   5.783   5.656   0.212 -0.2663  2.2922  1.0937
 7892SOL    MW431336   5.735   5.684   0.145 -0.0317  0.2276 -0.0233
 7893SOL     OW31337   4.734   1.782   4.268  0.2685  0.3177 -0.0726
 7893SOL    HW231338   4.704   1.692   4.287  0.5899  0.0673 -0.7362
 7893SOL    HW331339   4.819   1.770   4.226  0.1694  0.9290 -0.4451
 7893SOL    MW431340   4.741   1.768   4.265  0.2978  0.3653 -0.2093
 7894SOL     OW31341   0.347   2.510   5.305  0.8031 -0.9640 -0.4375
 7894SOL    HW231342   0.333   2.440   5.241  1.5673 -0.2192 -1.4481
 7894SOL    HW331343   0.413   2.567   5.264  0.9708 -0.2253  0.8190
 7894SOL    MW431344   0.354   2.508   5.291  0.9260 -0.7682 -0.4051
 7895SOL     OW31345   1.472   3.993   0.721 -0.0099 -0.0140 -0.1518
 7895SOL    HW231346   1.411   4.066   0.729 -1.1566 -0.8587 -0.9286
 7895SOL    HW331347   1.468   3.969   0.629  0.7841 -0.7103 -0.0168
 7895SOL    MW431348   1.464   4.000   0.710 -0.0564 -0.2173 -0.2365
 7896SOL     OW31349   6.065   2.589   4.901  0.2238  0.3186 -0.5028
 7896SOL    HW231350   6.017   2.517   4.860 -0.6261  0.6503 -0.1003
 7896SOL    HW331351   6.004   2.663   4.900  0.9719  0.9495 -0.6166
 7896SOL    MW431352   6.051   2.589   4.896  0.2104  0.4456 -0.4647
 7897SOL     OW31353   2.445   3.748   1.596  0.3765  0.3201  0.0982
 7897SOL    HW231354   2.464   3.824   1.541 -0.2244 -1.1476 -2.2981
 7897SOL    HW331355   2.456   3.780   1.686  1.6192  2.8003 -0.8365
 7897SOL    MW431356   2.449   3.762   1.601  0.4612  0.4537 -0.3413
 7898SOL     OW31357   5.848   1.801   5.526 -0.2325 -0.1210  0.0630
 7898SOL    HW231358   5.761   1.764   5.538 -0.1460 -0.1626  0.5822
 7898SOL    HW331359   5.905   1.746   5.580 -0.1149  0.8109  0.9181
 7898SOL    MW431360   5.844   1.789   5.535 -0.2056 -0.0036  0.2443
 7899SOL     OW31361   5.551   2.466   0.059  0.1869  0.2019 -0.3111
 7899SOL    HW231362   5.580   2.472   0.150 -0.5988 -0.1253 -0.0340
 7899SOL    HW331363   5.474   2.523   0.054 -1.5957 -2.0414  0.0004
 7899SOL    MW431364   5.545   2.475   0.070 -0.1519 -0.1372 -0.2334
 7900SOL     OW31365   3.999   2.171   3.140  0.3618 -0.7816 -0.2602
 7900SOL    HW231366   4.001   2.211   3.053 -1.9282 -1.3811 -0.6561
 7900SOL    HW331367   4.037   2.237   3.197 -0.3954  0.6613 -1.3561
 7900SOL    MW431368   4.004   2.185   3.136 -0.0402 -0.6703 -0.4570
 7901SOL     OW31369   6.372   1.016   6.080  0.4542  0.6784  0.5692
 7901SOL    HW231370   6.352   1.058   5.996  2.1039  0.0851 -0.1564
 7901SOL    HW331371   6.444   1.067   6.116  0.0291  0.6764  1.4581
 7901SOL    MW431372   6.379   1.028   6.073  0.6158  0.5999  0.5908
 7902SOL     OW31373   3.313   1.971   2.671  0.3997 -0.4026  0.5566
 7902SOL    HW231374   3.268   2.005   2.748  1.0375 -0.7536  1.0983
 7902SOL    HW331375   3.384   1.917   2.707  2.2466  1.3792 -0.2364
 7902SOL    MW431376   3.317   1.968   2.686  0.7276 -0.2138  0.5234
 7903SOL     OW31377   1.329   1.369   3.083  0.2964  0.0093 -0.3880
 7903SOL    HW231378   1.307   1.287   3.127  1.9409 -0.1997  0.1364
 7903SOL    HW331379   1.292   1.360   2.995  0.0132 -1.0758 -0.1727
 7903SOL    MW431380   1.322   1.357   3.077  0.4760 -0.1614 -0.2904
 7904SOL     OW31381   4.407   0.204   0.490  0.0554 -0.1771  0.1594
 7904SOL    HW231382   4.342   0.151   0.444  0.1766  0.0487 -0.2774
 7904SOL    HW331383   4.412   0.165   0.578 -0.0526 -0.7183 -0.0699
 7904SOL    MW431384   4.399   0.192   0.496  0.0571 -0.2187  0.0715
 7905SOL     OW31385   2.082   2.445   1.586  0.0787  0.4020 -0.2387
 7905SOL    HW231386   1.995   2.469   1.620 -0.7253 -0.5289 -1.5360
 7905SOL    HW331387   2.143   2.491   1.643 -1.2845  2.1133 -0.0413
 7905SOL    MW431388   2.078   2.454   1.598 -0.2072  0.5049 -0.3839
 7906SOL     OW31389   0.727   5.701   1.996 -0.5475 -0.2191 -0.5361
 7906SOL    HW231390   0.697   5.691   2.087  0.5374 -0.2489 -0.1614
 7906SOL    HW331391   0.762   5.615   1.973  0.2900  0.1094 -0.5465
 7906SOL    MW431392   0.728   5.688   2.005 -0.2939 -0.1797 -0.4881
 7907SOL     OW31393   2.580   1.190   4.985 -0.0977  0.6115 -0.5049
 7907SOL    HW231394   2.615   1.146   4.908  0.0770  1.2728 -0.8155
 7907SOL    HW331395   2.523   1.126   5.026 -0.8230  0.5047 -1.6268
 7907SOL    MW431396   2.577   1.176   4.980 -0.1703  0.6846 -0.6939
 7908SOL     OW31397   2.806   3.086   6.159  0.6570  0.3487  0.0893
 7908SOL    HW231398   2.792   2.992   6.173 -1.2400  0.4873 -0.5702
 7908SOL    HW331399   2.814   3.095   6.065  2.2612  0.7073  0.2463
 7908SOL    MW431400   2.805   3.075   6.149  0.6184  0.4143  0.0230
 7909SOL     OW31401   5.451   2.275   3.442  0.1218  0.1815 -0.0877
 7909SOL    HW231402   5.408   2.332   3.379 -1.4914 -1.3477 -0.4656
 7909SOL    HW331403   5.529   2.323   3.470  0.7084  1.0655 -2.9531
 7909SOL    MW431404   5.456   2.289   3.438 -0.0136  0.0964 -0.5156
 7910SOL     OW31405   5.307   6.140   0.479 -0.3674 -0.5105 -0.3428
 7910SOL    HW231406   5.239   6.171   0.538 -1.5166 -1.1946 -1.2596
 7910SOL    HW331407   5.357   6.218   0.456  0.0243 -0.2078  1.3778
 7910SOL    MW431408   5.305   6.154   0.484 -0.4673 -0.5608 -0.2367
 7911SOL     OW31409   1.191   3.142   5.753  0.3005  0.3793 -0.2298
 7911SOL    HW231410   1.126   3.161   5.685  0.8224 -0.9837 -1.1442
 7911SOL    HW331411   1.263   3.101   5.706  1.3023  0.7306  0.9566
 7911SOL    MW431412   1.192   3.139   5.738  0.5015  0.2458 -0.1939
 7912SOL     OW31413   4.126   3.114   4.535  0.0887  0.2390  0.3202
 7912SOL    HW231414   4.168   3.196   4.509  0.3633  0.3562  1.1274
 7912SOL    HW331415   4.108   3.124   4.628 -2.9798  0.7400 -0.2269
 7912SOL    MW431416   4.129   3.126   4.544 -0.2799  0.3206  0.3545
 7913SOL     OW31417   0.021   0.321   4.117  0.2480 -0.1353 -0.1661
 7913SOL    HW231418   0.031   0.409   4.152  0.3601 -1.1925  2.7757
 7913SOL    HW331419  -0.024   0.333   4.034 -1.7506  2.5575  1.1393
 7913SOL    MW431420   0.017   0.334   4.111 -0.0009  0.0805  0.3942
 7914SOL     OW31421   3.299   1.727   2.507 -0.4617 -0.4231 -0.0214
 7914SOL    HW231422   3.382   1.686   2.530  0.4444  1.6237  0.6130
 7914SOL    HW331423   3.296   1.806   2.561 -1.8811  0.5843 -1.4829
 7914SOL    MW431424   3.310   1.732   2.517 -0.5294 -0.0201 -0.1305
 7915SOL     OW31425   2.850   2.806   3.656  0.2992 -1.1328 -0.4595
 7915SOL    HW231426   2.840   2.837   3.566 -0.9841 -0.5333 -0.1394
 7915SOL    HW331427   2.760   2.791   3.686  0.6864 -1.0260  0.8122
 7915SOL    MW431428   2.837   2.808   3.648  0.1810 -1.0396 -0.2495
 7916SOL     OW31429   0.598   5.589   2.989 -0.2464 -0.1161 -0.1549
 7916SOL    HW231430   0.606   5.519   3.054  1.0187 -1.1812 -1.3982
 7916SOL    HW331431   0.514   5.631   3.010  0.3534 -0.0727  2.4424
 7916SOL    MW431432   0.588   5.585   3.001 -0.0003 -0.2509  0.0237
 7917SOL     OW31433   3.814   6.329   2.189 -0.0474 -0.2565 -0.4572
 7917SOL    HW231434   3.796   6.415   2.151  2.3773  0.9463  0.8797
 7917SOL    HW331435   3.904   6.309   2.163 -0.2032 -1.9292  0.1362
 7917SOL    MW431436   3.824   6.337   2.180  0.2520 -0.3185 -0.2026
 7918SOL     OW31437   3.884   4.969   2.915 -0.0195 -0.0041 -0.4842
 7918SOL    HW231438   3.822   5.029   2.955 -1.8879 -1.2739 -1.2956
 7918SOL    HW331439   3.882   4.891   2.971  0.8708 -0.0678 -0.5205
 7918SOL    MW431440   3.875   4.966   2.928 -0.1485 -0.1800 -0.5960
 7919SOL     OW31441   4.867   0.211   3.848  0.1733 -0.6667  0.0033
 7919SOL    HW231442   4.858   0.287   3.791  0.4843 -0.7337 -0.1347
 7919SOL    HW331443   4.781   0.168   3.843  0.7192 -1.6521 -1.8333
 7919SOL    MW431444   4.854   0.215   3.840  0.2863 -0.8056 -0.2572
 7920SOL     OW31445   2.053   3.906   5.145  0.3681 -0.3147  0.3935
 7920SOL    HW231446   2.051   3.985   5.092  2.8445 -0.2456  0.2722
 7920SOL    HW331447   2.053   3.834   5.081 -1.3040 -0.4426  0.4902
 7920SOL    MW431448   2.053   3.907   5.130  0.4742 -0.3225  0.3902
 7921SOL     OW31449   1.810   5.217   2.986  0.2939 -0.3799  0.5709
 7921SOL    HW231450   1.891   5.266   2.974  1.0685 -2.0805 -2.0036
 7921SOL    HW331451   1.775   5.207   2.898 -1.8780 -1.0950  1.4637
 7921SOL    MW431452   1.816   5.222   2.973  0.1095 -0.6986  0.3490
 7922SOL     OW31453   2.764   4.187   3.133  0.5126 -0.1339 -0.0211
 7922SOL    HW231454   2.713   4.130   3.075  0.0094 -1.0894  1.3160
 7922SOL    HW331455   2.722   4.273   3.125 -1.3796 -0.8857  1.0371
 7922SOL    MW431456   2.752   4.191   3.124  0.1966 -0.3591  0.2950
 7923SOL     OW31457   1.123   6.327   0.302 -0.0152  0.0762  0.6030
 7923SOL    HW231458   1.166   6.244   0.321  1.6317  0.6528 -0.4433
 7923SOL    HW331459   1.128   6.337   0.207  0.6530  1.7808  0.7724
 7923SOL    MW431460   1.129   6.317   0.292  0.2903  0.3772  0.4873
 7924SOL     OW31461   1.014   2.471   2.484  0.2388  0.5371 -0.2576
 7924SOL    HW231462   1.025   2.451   2.391  0.3968 -0.6256  0.0024
 7924SOL    HW331463   0.929   2.433   2.507  0.9837 -0.7521  0.4716
 7924SOL    MW431464   1.004   2.464   2.475  0.3579  0.2136 -0.1271
 7925SOL     OW31465   3.244   4.690   0.729  0.5010 -0.0214 -0.0847
 7925SOL    HW231466   3.262   4.641   0.650 -1.5073 -1.3524  0.2000
 7925SOL    HW331467   3.253   4.626   0.800 -2.9764 -0.3625  0.2203
 7925SOL    MW431468   3.247   4.675   0.728 -0.2228 -0.2420 -0.0069
 7926SOL     OW31469   2.752   4.654   3.263  0.2657  0.1004 -0.0876
 7926SOL    HW231470   2.723   4.707   3.337 -0.8319 -0.0668 -0.3805
 7926SOL    HW331471   2.847   4.650   3.272  0.3406  1.7704  0.1787
 7926SOL    MW431472   2.761   4.661   3.274  0.1308  0.2987 -0.0911
 7927SOL     OW31473   0.416   5.883   2.299 -0.6047 -0.0664 -0.3821
 7927SOL    HW231474   0.340   5.849   2.252 -0.1506 -0.1289 -1.0735
 7927SOL    HW331475   0.403   5.853   2.389 -0.8422 -1.0225 -0.7223
 7927SOL    MW431476   0.404   5.875   2.305 -0.5761 -0.2008 -0.5182
 7928SOL     OW31477   4.662   2.146   0.505 -0.2620 -0.2489  0.3511
 7928SOL    HW231478   4.743   2.128   0.457  0.0688  0.8355  0.4571
 7928SOL    HW331479   4.624   2.060   0.522 -0.3316 -0.6949 -1.7227
 7928SOL    MW431480   4.668   2.132   0.501 -0.2275 -0.1647  0.0914
 7929SOL     OW31481   3.959   0.615   0.764  0.1630  0.3462 -0.0100
 7929SOL    HW231482   4.008   0.611   0.846 -2.3036  0.9531  1.6041
 7929SOL    HW331483   3.917   0.530   0.757  1.9623 -0.4669 -1.8015
 7929SOL    MW431484   3.960   0.603   0.774  0.0750  0.3190 -0.0334
 7930SOL     OW31485   5.561   1.539   4.630 -0.2479 -0.5999  0.5723
 7930SOL    HW231486   5.556   1.518   4.537  0.3401  1.8400 -0.0884
 7930SOL    HW331487   5.625   1.478   4.665  0.8106 -0.4716 -1.0187
 7930SOL    MW431488   5.569   1.529   4.622 -0.0306 -0.2611  0.2752
 7931SOL     OW31489   1.008   3.156   0.035 -0.1358  0.0935 -0.0071
 7931SOL    HW231490   0.972   3.196  -0.044  2.8952  0.1917 -1.4608
 7931SOL    HW331491   0.999   3.061   0.020 -1.3788  0.1151  0.4881
 7931SOL    MW431492   1.002   3.148   0.023  0.1001  0.1093 -0.1336
 7932SOL     OW31493   6.242   1.237   5.226  0.5287  0.4579  0.0618
 7932SOL    HW231494   6.155   1.271   5.203  0.0223  0.2560  1.5626
 7932SOL    HW331495   6.303   1.289   5.173 -0.5325 -0.1372 -1.8483
 7932SOL    MW431496   6.239   1.248   5.216  0.3219  0.3528  0.0078
 7933SOL     OW31497   2.158   6.246   4.102 -0.5569  0.3451 -0.1205
 7933SOL    HW231498   2.098   6.263   4.175 -0.6064 -0.2342 -0.0193
 7933SOL    HW331499   2.105   6.263   4.024 -0.3117  1.6173 -0.0377
 7933SOL    MW431500   2.143   6.250   4.101 -0.5311  0.4365 -0.0962
 7934SOL     OW31501   1.486   1.505   5.542 -0.3538 -0.3767  0.1047
 7934SOL    HW231502   1.519   1.416   5.547 -1.5046 -0.9303 -1.4321
 7934SOL    HW331503   1.551   1.558   5.589  2.3766 -1.4702 -2.2003
 7934SOL    MW431504   1.499   1.500   5.549 -0.1454 -0.5940 -0.4022
 7935SOL     OW31505   4.784   4.717   5.409  0.1445  0.0565 -0.0207
 7935SOL    HW231506   4.768   4.623   5.411  2.6247 -0.4905 -1.5222
 7935SOL    HW331507   4.795   4.742   5.501 -0.4096 -1.1292  0.3853
 7935SOL    MW431508   4.784   4.708   5.421  0.3986 -0.1721 -0.1653
 7936SOL     OW31509   3.254   2.813   3.711 -0.8529  0.3438  0.5487
 7936SOL    HW231510   3.192   2.753   3.669 -2.5708  1.8628  0.8118
 7936SOL    HW331511   3.209   2.897   3.712 -0.0066  0.8586  3.4679
 7936SOL    MW431512   3.240   2.816   3.705 -0.9679  0.6121  0.9686
 7937SOL     OW31513   0.843   4.450   6.051 -0.3472  0.0210 -0.1519
 7937SOL    HW231514   0.842   4.466   5.957  1.2368 -1.8067 -0.5401
 7937SOL    HW331515   0.935   4.464   6.076 -1.1060  2.5933  1.5788
 7937SOL    MW431516   0.855   4.454   6.042 -0.2383  0.1192  0.0252
 7938SOL     OW31517   1.226   5.729   5.099  0.2389 -0.1002 -0.1580
 7938SOL    HW231518   1.253   5.766   5.014 -0.1926 -0.1376 -0.3155
 7938SOL    HW331519   1.139   5.766   5.114  0.5801  0.4352  0.5950
 7938SOL    MW431520   1.219   5.739   5.089  0.2270 -0.0345 -0.0794
 7939SOL     OW31521   3.139   4.012   5.088  0.4222  0.0955  0.0200
 7939SOL    HW231522   3.154   4.106   5.075  0.6850 -0.0530 -0.8259
 7939SOL    HW331523   3.218   3.970   5.054  0.0202 -0.4673 -0.2330
 7939SOL    MW431524   3.152   4.019   5.082  0.4038  0.0017 -0.1250
 7940SOL     OW31525   4.765   3.395   6.304 -0.0257  0.1547  0.2438
 7940SOL    HW231526   4.786   3.333   6.375 -0.2024 -1.2626 -0.8914
 7940SOL    HW331527   4.842   3.393   6.247 -0.9379 -0.8469 -1.0222
 7940SOL    MW431528   4.778   3.387   6.306 -0.1694 -0.1644 -0.0730
 7941SOL     OW31529   2.129   2.626   1.364  0.2169  0.0404  0.0066
 7941SOL    HW231530   2.115   2.552   1.423  0.1367 -0.2102 -0.3257
 7941SOL    HW331531   2.045   2.639   1.320  0.6896 -0.7432 -1.1602
 7941SOL    MW431532   2.116   2.618   1.366  0.2686 -0.0960 -0.1912
 7942SOL     OW31533   4.977   0.484   1.478  0.2866  0.2547  0.3695
 7942SOL    HW231534   4.944   0.570   1.451  0.7639  0.3726  0.1315
 7942SOL    HW331535   5.070   0.500   1.498  0.0830  0.0476  1.5285
 7942SOL    MW431536   4.985   0.498   1.477  0.3227  0.2430  0.4910
 7943SOL     OW31537   4.507   0.773   0.726  0.3381  0.1877 -0.1247
 7943SOL    HW231538   4.538   0.687   0.753 -0.0190  0.0604 -0.1055
 7943SOL    HW331539   4.445   0.755   0.655 -1.6196  0.2221  1.4979
 7943SOL    MW431540   4.503   0.759   0.720  0.0327  0.1755  0.0919
 7944SOL     OW31541   0.345   5.109   2.043  0.0050 -0.3343  0.4898
 7944SOL    HW231542   0.350   5.193   2.089  0.0883  0.2589 -0.5845
 7944SOL    HW331543   0.405   5.052   2.092 -0.6054 -0.0068  1.6733
 7944SOL    MW431544   0.354   5.113   2.056 -0.0646 -0.2128  0.5042
 7945SOL     OW31545   1.828   6.320   1.716  0.4115 -0.1440  0.4356
 7945SOL    HW231546   1.814   6.238   1.670 -2.2812 -0.6173  1.9313
 7945SOL    HW331547   1.750   6.372   1.698  2.2901  2.4426 -0.9633
 7945SOL    MW431548   1.816   6.316   1.708  0.3041  0.1348  0.4484
 7946SOL     OW31549   2.127   3.829   2.854  0.2730 -0.7074 -0.4344
 7946SOL    HW231550   2.171   3.805   2.936 -0.2876 -1.9460 -0.4641
 7946SOL    HW331551   2.039   3.856   2.881  0.6135  0.5170 -0.4918
 7946SOL    MW431552   2.121   3.829   2.869  0.2440 -0.7092 -0.4459
 7947SOL     OW31553   1.668   1.391   2.125 -0.2461 -0.4840 -0.1828
 7947SOL    HW231554   1.634   1.414   2.038  1.7577 -1.1967 -1.2299
 7947SOL    HW331555   1.710   1.471   2.156 -1.2956 -0.1169  0.3260
 7947SOL    MW431556   1.669   1.404   2.117 -0.1202 -0.5296 -0.2538
 7948SOL     OW31557   3.178   5.343   1.518  0.8803 -0.0624 -0.1371
 7948SOL    HW231558   3.138   5.429   1.512 -0.0532 -0.5976 -2.3281
 7948SOL    HW331559   3.243   5.352   1.588 -0.2809  1.9377  0.7717
 7948SOL    MW431560   3.181   5.356   1.526  0.6039  0.1309 -0.3063
 7949SOL     OW31561   0.831   4.287   5.029 -0.1053 -0.0901 -0.5402
 7949SOL    HW231562   0.871   4.246   5.105 -1.1071 -1.3019 -0.6312
 7949SOL    HW331563   0.741   4.305   5.056 -1.1434 -2.5092 -2.0530
 7949SOL    MW431564   0.824   4.284   5.042 -0.3744 -0.5692 -0.7518
 7950SOL     OW31565   4.176   5.500   5.797 -0.8709  0.5685  0.7726
 7950SOL    HW231566   4.235   5.557   5.746 -1.3497  1.2981  1.0179
 7950SOL    HW331567   4.088   5.535   5.779 -1.6524 -2.3283 -2.0434
 7950SOL    MW431568   4.172   5.512   5.788 -1.0372  0.2826  0.4334
 7951SOL     OW31569   2.896   6.437   1.049 -0.3750 -0.0211 -0.3286
 7951SOL    HW231570   2.859   6.372   0.989  0.4508 -1.0019  0.1815
 7951SOL    HW331571   2.905   6.389   1.132  1.6671  0.2725 -0.3397
 7951SOL    MW431572   2.893   6.422   1.052  0.0034 -0.1118 -0.2628
 7952SOL     OW31573   2.753   2.250   1.667  0.1459  0.2990 -0.0438
 7952SOL    HW231574   2.818   2.237   1.598 -0.0204  1.1105 -0.3622
 7952SOL    HW331575   2.805   2.256   1.747  0.3041 -1.2667  0.0183
 7952SOL    MW431576   2.769   2.249   1.668  0.1448  0.1995 -0.0776
 7953SOL     OW31577   1.311   4.193   2.497  0.3147  0.6586  0.5253
 7953SOL    HW231578   1.298   4.098   2.505  0.8633  0.4859 -0.5531
 7953SOL    HW331579   1.285   4.227   2.583 -0.0108 -0.4509  0.8884
 7953SOL    MW431580   1.306   4.185   2.510  0.3442  0.4895  0.4309
 7954SOL     OW31581   4.092   4.610   0.178 -0.5952  0.0823  0.5799
 7954SOL    HW231582   4.186   4.593   0.176 -0.8493 -1.4316  0.4918
 7954SOL    HW331583   4.083   4.700   0.148  0.7525 -0.0781 -0.3815
 7954SOL    MW431584   4.103   4.620   0.174 -0.4509 -0.1386  0.4414
 7955SOL     OW31585   2.853   3.748   0.133  0.1887 -0.0615  0.1444
 7955SOL    HW231586   2.775   3.779   0.178 -0.6777 -2.3773  0.3732
 7955SOL    HW331587   2.882   3.823   0.081 -1.0018  1.4747  1.5809
 7955SOL    MW431588   2.847   3.762   0.132 -0.0827 -0.1643  0.3642
 7956SOL     OW31589   6.379   5.952   5.862 -0.1951 -0.1771 -0.2411
 7956SOL    HW231590   6.306   6.000   5.823  0.9067 -0.1178 -2.3607
 7956SOL    HW331591   6.457   5.996   5.828  0.8854  0.1978  2.5172
 7956SOL    MW431592   6.380   5.964   5.852  0.0928 -0.1198 -0.1569
 7957SOL     OW31593   3.775   6.299   1.560 -0.1942 -0.2241  0.7026
 7957SOL    HW231594   3.683   6.309   1.537 -0.0268  0.4087  0.2994
 7957SOL    HW331595   3.805   6.388   1.578  0.0736 -0.5290  1.8638
 7957SOL    MW431596   3.767   6.312   1.560 -0.1368 -0.1808  0.8026
 7958SOL     OW31597   4.933   4.069   5.913 -0.2426 -0.2141 -0.5903
 7958SOL    HW231598   4.868   3.999   5.905  0.2204 -1.2238  2.8600
 7958SOL    HW331599   4.894   4.130   5.976  1.5369 -0.1270  0.4905
 7958SOL    MW431600   4.919   4.068   5.921  0.0533 -0.3358  0.0075
 7959SOL     OW31601   5.633   2.189   5.148 -0.0623 -0.0095 -0.5600
 7959SOL    HW231602   5.551   2.158   5.111 -0.0649  0.0046 -0.5663
 7959SOL    HW331603   5.664   2.116   5.202 -0.2930  0.1513 -0.2122
 7959SOL    MW431604   5.627   2.175   5.150 -0.0931  0.0136 -0.5149
 7960SOL     OW31605   6.226   1.703   4.333  0.6131  0.6483 -0.1019
 7960SOL    HW231606   6.211   1.632   4.397  1.0114  0.8250  0.1890
 7960SOL    HW331607   6.138   1.737   4.315  0.0730 -1.5343 -2.1357
 7960SOL    MW431608   6.212   1.698   4.339  0.5944  0.3836 -0.3319
 7961SOL     OW31609   2.720   3.404   0.535  0.2329  0.2066  0.3814
 7961SOL    HW231610   2.792   3.413   0.473 -0.5108 -0.2965 -0.5714
 7961SOL    HW331611   2.736   3.472   0.600  2.3414 -0.7430  0.9676
 7961SOL    MW431612   2.732   3.414   0.536  0.4130  0.0149  0.3330
 7962SOL     OW31613   6.418   1.131   4.593  0.2572  0.3519  0.2245
 7962SOL    HW231614   6.444   1.140   4.501  0.4756 -1.0061  0.1355
 7962SOL    HW331615   6.422   1.037   4.610 -0.3172  0.5337  1.4756
 7962SOL    MW431616   6.422   1.120   4.583  0.2102  0.1967  0.3778
 7963SOL     OW31617   1.497   0.171   4.105 -0.6987  0.6713  0.2141
 7963SOL    HW231618   1.557   0.096   4.097  0.9525  1.9603 -0.1944
 7963SOL    HW331619   1.465   0.185   4.016 -2.7848 -0.8549  0.6468
 7963SOL    MW431620   1.501   0.163   4.092 -0.7561  0.6400  0.2173
 7964SOL     OW31621   1.018   4.828   5.437  0.0789 -0.0328  0.0604
 7964SOL    HW231622   1.051   4.916   5.419 -0.7939  0.5583  1.2463
 7964SOL    HW331623   1.085   4.788   5.492  0.5028 -0.1546 -0.5269
 7964SOL    MW431624   1.032   4.834   5.442  0.0197  0.0291  0.1394
 7965SOL     OW31625   0.922   0.925   4.194 -0.1113  0.1066  0.3159
 7965SOL    HW231626   0.837   0.880   4.188 -0.5256  1.0719 -2.1669
 7965SOL    HW331627   0.908   0.992   4.262 -0.6627 -1.0196  1.3592
 7965SOL    MW431628   0.909   0.928   4.202 -0.2387  0.0854  0.1260
 7966SOL     OW31629   3.706   2.149   5.449 -0.0273  0.2976 -0.3276
 7966SOL    HW231630   3.696   2.210   5.523  1.3247 -0.1734  0.2670
 7966SOL    HW331631   3.653   2.073   5.474  0.7966 -0.0614  0.4204
 7966SOL    MW431632   3.698   2.147   5.462  0.2598  0.1881 -0.1505
 7967SOL     OW31633   1.779   3.908   0.180  0.0096  0.0475  0.1541
 7967SOL    HW231634   1.867   3.869   0.187  0.7231  1.4077 -0.8616
 7967SOL    HW331635   1.720   3.836   0.204  1.3527 -1.1098  0.1802
 7967SOL    MW431636   1.783   3.893   0.184  0.2810  0.0743  0.0235
 7968SOL     OW31637   3.311   6.310   4.553 -0.1373 -0.3394  0.3846
 7968SOL    HW231638   3.267   6.345   4.631 -3.2950  0.0853 -1.3870
 7968SOL    HW331639   3.317   6.216   4.569  0.1583 -0.1402  1.5225
 7968SOL    MW431640   3.306   6.302   4.565 -0.5149 -0.2571  0.3010
 7969SOL     OW31641   4.890   3.472   2.439  0.2518  0.3613  0.2941
 7969SOL    HW231642   4.844   3.417   2.375  0.5302  0.8803 -0.3523
 7969SOL    HW331643   4.824   3.487   2.507  0.8637 -2.8305  1.8022
 7969SOL    MW431644   4.875   3.467   2.439  0.3693  0.0086  0.4078
 7970SOL     OW31645   1.605   1.660   1.201  0.2744  0.3497 -0.4920
 7970SOL    HW231646   1.670   1.729   1.193 -0.6624  1.1056 -1.9190
 7970SOL    HW331647   1.523   1.699   1.169 -0.5936 -0.9777 -0.0037
 7970SOL    MW431648   1.602   1.674   1.196  0.0363  0.2743 -0.6158
 7971SOL     OW31649   4.306   2.389   3.770  0.1295  0.4575  0.0861
 7971SOL    HW231650   4.271   2.327   3.834 -2.6923  2.7324  0.9349
 7971SOL    HW331651   4.319   2.470   3.819  1.2596  1.3137 -1.5247
 7971SOL    MW431652   4.303   2.391   3.785 -0.0937  0.8706 -0.0144
 7972SOL     OW31653   5.213   1.447   3.867  0.3608  0.2689  0.1715
 7972SOL    HW231654   5.162   1.428   3.788  0.2335 -1.6511  0.6634
 7972SOL    HW331655   5.164   1.515   3.912 -0.7975 -0.2529 -0.2752
 7972SOL    MW431656   5.200   1.453   3.863  0.1912 -0.0532  0.1775
 7973SOL     OW31657   2.269   0.143   1.356  0.0950 -0.1660  0.1546
 7973SOL    HW231658   2.270   0.235   1.327  0.3947 -0.3608 -0.4766
 7973SOL    HW331659   2.335   0.100   1.301 -0.8725 -1.0084 -0.3847
 7973SOL    MW431660   2.278   0.150   1.345  0.0069 -0.3029  0.0001
 7974SOL     OW31661   1.981   2.575   2.089  0.9070  0.2058  0.0552
 7974SOL    HW231662   2.048   2.555   2.155  2.8272 -0.8901 -2.0868
 7974SOL    HW331663   1.969   2.493   2.042 -1.0541  0.7329 -0.4458
 7974SOL    MW431664   1.988   2.562   2.092  0.9016  0.1308 -0.2935
 7975SOL     OW31665   2.607   0.969   5.886 -0.0396  0.2761 -0.4225
 7975SOL    HW231666   2.574   0.914   5.957 -1.7434  3.0466  1.1100
 7975SOL    HW331667   2.532   0.985   5.829  0.5130  0.6814 -1.0684
 7975SOL    MW431668   2.593   0.964   5.888 -0.1915  0.6951 -0.3055
 7976SOL     OW31669   3.382   1.750   0.898 -0.0828  0.3447 -0.0073
 7976SOL    HW231670   3.303   1.710   0.936 -0.4395 -0.7147 -1.7552
 7976SOL    HW331671   3.443   1.677   0.889  0.8063  1.0042  0.5367
 7976SOL    MW431672   3.379   1.735   0.902 -0.0125  0.2919 -0.1661
 7977SOL     OW31673   5.011   4.810   4.238 -0.1029  0.2865 -0.7265
 7977SOL    HW231674   5.034   4.832   4.328 -1.0219 -0.5001 -0.2716
 7977SOL    HW331675   4.924   4.849   4.225 -0.7139 -1.0021 -0.6883
 7977SOL    MW431676   5.002   4.818   4.248 -0.3048  0.0127 -0.6614
 7978SOL     OW31677   6.385   1.562   5.861 -0.1691  0.0016  0.1411
 7978SOL    HW231678   6.392   1.657   5.869 -0.1831 -0.0801  1.4915
 7978SOL    HW331679   6.300   1.541   5.899  0.3006 -0.6309  0.8839
 7978SOL    MW431680   6.375   1.572   5.867 -0.1090 -0.0926  0.4173
 7979SOL     OW31681   6.014   3.479   2.128  0.0320 -0.4162 -0.2416
 7979SOL    HW231682   5.929   3.440   2.109  0.1511 -0.3413 -0.9798
 7979SOL    HW331683   6.047   3.430   2.203 -1.3893  0.6601  1.1482
 7979SOL    MW431684   6.007   3.467   2.135 -0.1398 -0.2643 -0.1556
 7980SOL     OW31685   3.070   3.758   4.314  0.0925  0.0568 -0.3449
 7980SOL    HW231686   3.159   3.723   4.317 -0.7383 -2.2397 -0.2938
 7980SOL    HW331687   3.014   3.681   4.322 -1.9225  1.5788  1.4422
 7980SOL    MW431688   3.075   3.743   4.316 -0.2829 -0.0454 -0.1024
 7981SOL     OW31689   2.758   1.364   0.163  0.4995 -0.0045 -0.5454
 7981SOL    HW231690   2.802   1.310   0.229 -1.3331 -1.4872 -0.4674
 7981SOL    HW331691   2.685   1.404   0.209  0.7623  1.1001 -1.0595
 7981SOL    MW431692   2.754   1.362   0.178  0.2924 -0.0544 -0.6029
 7982SOL     OW31693   4.116   1.818   4.464 -0.1084  0.2652 -0.3106
 7982SOL    HW231694   4.049   1.854   4.405 -0.3910  0.3211  0.0437
 7982SOL    HW331695   4.195   1.869   4.444  0.1240 -0.5178 -1.4923
 7982SOL    MW431696   4.118   1.830   4.453 -0.1150  0.1693 -0.4198
 7983SOL     OW31697   1.017   2.293   4.555  0.7304  0.3233  0.5036
 7983SOL    HW231698   1.030   2.213   4.606 -1.0167 -0.7314 -0.6093
 7983SOL    HW331699   1.024   2.363   4.619  0.9532 -0.8032  1.7645
 7983SOL    MW431700   1.020   2.291   4.570  0.5293  0.0355  0.5231
 7984SOL     OW31701   0.469   3.974   4.592  0.2349 -0.5185 -0.0646
 7984SOL    HW231702   0.418   4.034   4.538  0.1076 -1.0761 -0.5843
 7984SOL    HW331703   0.557   3.978   4.555 -0.0700 -1.6503 -0.9950
 7984SOL    MW431704   0.474   3.982   4.580  0.1778 -0.7414 -0.2559
 7985SOL     OW31705   3.051   1.996   4.416 -0.5652 -0.6432  0.0144
 7985SOL    HW231706   3.112   1.923   4.416  0.0281 -0.1595  0.3801
 7985SOL    HW331707   2.964   1.956   4.424 -0.4272 -1.4207 -1.8437
 7985SOL    MW431708   3.047   1.981   4.417 -0.4687 -0.6820 -0.1825
 7986SOL     OW31709   1.976   4.444   0.534  0.1018 -0.1312 -0.3186
 7986SOL    HW231710   1.959   4.419   0.443 -2.9706  0.5424 -0.0560
 7986SOL    HW331711   2.054   4.499   0.529 -0.6881  0.9503 -2.7951
 7986SOL    MW431712   1.984   4.448   0.521 -0.4078  0.1004 -0.6107
 7987SOL     OW31713   1.739   4.176   0.232 -0.6065 -0.1506 -0.1465
 7987SOL    HW231714   1.762   4.085   0.216  0.3661 -0.1389  1.0512
 7987SOL    HW331715   1.823   4.221   0.245 -1.0571  0.9493 -0.8104
 7987SOL    MW431716   1.753   4.170   0.232 -0.5376 -0.0039 -0.0760
 7988SOL     OW31717   4.125   4.468   4.526  0.3523 -0.4828  0.1380
 7988SOL    HW231718   4.192   4.525   4.565 -0.8609 -0.6356  2.5902
 7988SOL    HW331719   4.091   4.417   4.599 -0.2084 -2.7721 -1.6075
 7988SOL    MW431720   4.129   4.469   4.541  0.1182 -0.8050  0.2312
 7989SOL     OW31721   0.152   2.984   6.018  0.3697  0.3401  0.1711
 7989SOL    HW231722   0.140   2.928   6.095 -1.4702  1.3005  0.6474
 7989SOL    HW331723   0.078   2.962   5.961  0.9925  0.5728 -0.7591
 7989SOL    MW431724   0.141   2.974   6.020  0.2091  0.4975  0.1112
 7990SOL     OW31725   2.012   1.657   5.201 -0.5308 -0.4837 -0.0526
 7990SOL    HW231726   2.009   1.753   5.201  1.1748 -0.3742  1.3411
 7990SOL    HW331727   1.929   1.631   5.161 -0.8521  1.5644 -0.8898
 7990SOL    MW431728   2.001   1.667   5.196 -0.3481 -0.1990  0.0208
 7991SOL     OW31729   0.784   4.092   3.792  0.2463  0.2681  0.1129
 7991SOL    HW231730   0.726   4.157   3.753  0.0395 -0.6657 -1.2055
 7991SOL    HW331731   0.744   4.070   3.876 -1.9113 -1.0755 -1.1765
 7991SOL    MW431732   0.771   4.097   3.798 -0.0657 -0.0324 -0.2312
 7992SOL     OW31733   3.961   3.957   0.242 -0.6955  0.1718 -0.2330
 7992SOL    HW231734   3.999   3.869   0.233  0.2633  0.6036 -0.4420
 7992SOL    HW331735   3.875   3.941   0.281 -0.4431 -0.8439 -0.0565
 7992SOL    MW431736   3.955   3.943   0.246 -0.5357  0.0947 -0.2373
 7993SOL     OW31737   6.357   3.539   1.688 -0.0562  0.3992  0.4398
 7993SOL    HW231738   6.271   3.575   1.664  0.5502  1.3873 -0.3032
 7993SOL    HW331739   6.420   3.590   1.637  0.9665 -0.5075  0.7522
 7993SOL    MW431740   6.354   3.550   1.678  0.1588  0.4099  0.3830
 7994SOL     OW31741   3.442   4.620   2.658  0.0807  0.3613  0.1361
 7994SOL    HW231742   3.525   4.640   2.614 -0.7763  3.5869 -0.3261
 7994SOL    HW331743   3.443   4.675   2.736 -0.8300 -1.0533  1.1847
 7994SOL    MW431744   3.453   4.630   2.662 -0.1526  0.6002  0.2135
 7995SOL     OW31745   5.889   3.108   1.935  0.1571  0.5450  0.4958
 7995SOL    HW231746   5.975   3.096   1.977  1.3284 -0.8682 -2.0760
 7995SOL    HW331747   5.843   3.026   1.951  0.3008  0.3088 -0.2794
 7995SOL    MW431748   5.895   3.096   1.943  0.3306  0.3274  0.0542
 7996SOL     OW31749   3.376   0.045   6.236  0.1713  0.2609  0.8886
 7996SOL    HW231750   3.457   0.075   6.278  1.0406 -0.0346 -0.5027
 7996SOL    HW331751   3.327   0.125   6.219  0.9567  0.6070  0.2095
 7996SOL    MW431752   3.380   0.059   6.239  0.3896  0.2676  0.6154
 7997SOL     OW31753   2.170   1.151   1.497 -0.0886  0.4233 -0.1335
 7997SOL    HW231754   2.103   1.181   1.559 -0.4362  0.3921 -0.4909
 7997SOL    HW331755   2.120   1.125   1.419  0.1967 -1.0255  0.1325
 7997SOL    MW431756   2.154   1.151   1.495 -0.0968  0.2280 -0.1455
 7998SOL     OW31757   4.641   0.307   5.767 -0.7635  0.5476  0.5949
 7998SOL    HW231758   4.655   0.263   5.850 -0.6687  0.3921  0.4962
 7998SOL    HW331759   4.604   0.240   5.710 -0.8374  0.6565  0.5150
 7998SOL    MW431760   4.638   0.293   5.770 -0.7608  0.5415  0.5713
 7999SOL     OW31761   0.115   1.677   6.181  0.2210 -0.5404 -0.4058
 7999SOL    HW231762   0.127   1.750   6.120 -2.9364 -0.0915 -0.6688
 7999SOL    HW331763   0.136   1.713   6.266  0.7501  0.0372 -0.7723
 7999SOL    MW431764   0.120   1.692   6.184 -0.1258 -0.4049 -0.4888
 8000SOL     OW31765   6.316   0.583   3.222 -0.5743  0.0084 -0.3937
 8000SOL    HW231766   6.286   0.668   3.255  0.1170 -0.1088  0.6025
 8000SOL    HW331767   6.235   0.532   3.209 -0.9409 -0.6233  3.0869
 8000SOL    MW431768   6.301   0.587   3.225 -0.5314 -0.0904  0.1969
 8001SOL     OW31769   2.763   5.510   5.205 -0.3982  0.0866 -0.5054
 8001SOL    HW231770   2.804   5.596   5.191 -0.3783 -0.0248 -1.1774
 8001SOL    HW331771   2.732   5.513   5.295  0.9894  0.2194 -0.0100
 8001SOL    MW431772   2.764   5.522   5.215 -0.2125  0.0894 -0.5287
 8002SOL     OW31773   5.962   4.732   6.000 -0.1912  0.0761  0.1333
 8002SOL    HW231774   5.972   4.770   6.087 -1.8935  0.1105  0.3479
 8002SOL    HW331775   5.983   4.803   5.940 -0.3187  0.4479  0.5266
 8002SOL    MW431776   5.966   4.746   6.004 -0.4326  0.1297  0.2135
 8003SOL     OW31777   6.262   4.469   0.388  0.1857 -0.5430  0.0684
 8003SOL    HW231778   6.246   4.398   0.449 -0.1979 -1.6473 -1.2610
 8003SOL    HW331779   6.350   4.453   0.354 -0.1242 -0.7441 -0.6656
 8003SOL    MW431780   6.271   4.458   0.392  0.0942 -0.7152 -0.2039
 8004SOL     OW31781   2.233   6.367   1.827 -0.6092  0.1953  0.5686
 8004SOL    HW231782   2.274   6.425   1.763  0.4553 -1.2461 -0.1098
 8004SOL    HW331783   2.173   6.423   1.875 -1.1495  1.4060 -1.4318
 8004SOL    MW431784   2.231   6.382   1.825 -0.5400  0.1649  0.2151
 8005SOL     OW31785   4.208   1.269   2.218 -0.1175 -0.1192 -0.1944
 8005SOL    HW231786   4.114   1.254   2.229 -0.3956  2.0238  0.8467
 8005SOL    HW331787   4.229   1.338   2.281  1.9423  0.2833 -1.2320
 8005SOL    MW431788   4.199   1.276   2.228  0.1176  0.2167 -0.1940
 8006SOL     OW31789   0.032   2.498   5.711  0.0262  0.2297  0.3471
 8006SOL    HW231790   0.100   2.437   5.739  0.4826 -0.2679 -1.6535
 8006SOL    HW331791   0.045   2.506   5.616 -2.5401  0.3315 -0.0642
 8006SOL    MW431792   0.043   2.491   5.702 -0.2522  0.1775  0.0289
 8007SOL     OW31793   5.289   0.630   4.433 -0.1719 -0.3043 -0.1946
 8007SOL    HW231794   5.206   0.586   4.454 -0.2733  0.5743  1.3652
 8007SOL    HW331795   5.262   0.706   4.382 -0.1665 -0.8934 -1.1031
 8007SOL    MW431796   5.274   0.634   4.429 -0.1846 -0.2661 -0.1087
 8008SOL     OW31797   4.384   3.441   3.593  0.4486 -0.2844  0.2406
 8008SOL    HW231798   4.323   3.448   3.519  0.8850 -0.0366 -0.1010
 8008SOL    HW331799   4.340   3.489   3.664 -0.4883 -1.4772  0.5060
 8008SOL    MW431800   4.370   3.448   3.593  0.3826 -0.4090  0.2305
 8009SOL     OW31801   5.815   5.065   2.077 -0.6503  0.6991  0.1153
 8009SOL    HW231802   5.845   5.028   2.161  2.8047  2.5017 -0.1343
 8009SOL    HW331803   5.774   4.992   2.032  1.1284 -1.4351  1.7380
 8009SOL    MW431804   5.814   5.051   2.082  0.0402  0.6554  0.2964
 8010SOL     OW31805   0.546   4.251   5.563  0.0586  0.1851  0.2914
 8010SOL    HW231806   0.524   4.194   5.489  0.0807 -0.9844  1.1512
 8010SOL    HW331807   0.496   4.216   5.636 -0.4249  1.6839  0.7205
 8010SOL    MW431808   0.537   4.239   5.563 -0.0023  0.2285  0.4615
 8011SOL     OW31809   4.313   5.996   1.436  0.2812 -0.4758  0.6804
 8011SOL    HW231810   4.288   6.089   1.434 -0.2799 -0.4799  3.5786
 8011SOL    HW331811   4.380   5.988   1.368 -0.3909  1.8041 -0.3613
 8011SOL    MW431812   4.318   6.007   1.426  0.1185 -0.1755  0.9254
 8012SOL     OW31813   0.804   1.585   4.052 -0.6228  0.0202  0.2336
 8012SOL    HW231814   0.709   1.600   4.049 -0.4661  1.4270  1.2860
 8012SOL    HW331815   0.842   1.667   4.022  0.3019 -1.1999 -2.2356
 8012SOL    MW431816   0.796   1.598   4.048 -0.4802  0.0448  0.0467
 8013SOL     OW31817   1.903   3.283   4.429 -0.7868  0.2934  0.0391
 8013SOL    HW231818   1.977   3.292   4.369  0.0311 -1.0750  0.7876
 8013SOL    HW331819   1.931   3.326   4.510  0.3210 -2.3919  1.2170
 8013SOL    MW431820   1.916   3.290   4.432 -0.5327 -0.2415  0.2932
 8014SOL     OW31821   0.515   1.869   6.183 -0.7879  0.2742 -0.5293
 8014SOL    HW231822   0.519   1.844   6.091 -1.8456 -0.1315 -0.4765
 8014SOL    HW331823   0.557   1.955   6.186  0.2103 -0.1699 -1.2080
 8014SOL    MW431824   0.521   1.877   6.171 -0.7958  0.1621 -0.6119
 8015SOL     OW31825   1.041   5.854   3.498  0.3102 -0.0415 -0.5856
 8015SOL    HW231826   1.069   5.762   3.504 -0.7806 -0.3867 -0.4784
 8015SOL    HW331827   1.033   5.871   3.405 -0.7660 -0.4833 -0.5893
 8015SOL    MW431828   1.043   5.844   3.487  0.0243 -0.1453 -0.5719
 8016SOL     OW31829   3.279   0.579   0.379 -0.4040 -0.2423 -0.4568
 8016SOL    HW231830   3.363   0.618   0.403  0.8775 -2.4188 -1.0685
 8016SOL    HW331831   3.233   0.647   0.330  1.0351  0.9883 -0.1474
 8016SOL    MW431832   3.284   0.593   0.376 -0.0451 -0.3671 -0.4967
 8017SOL     OW31833   5.689   2.046   4.730  0.0716 -0.0731 -0.1493
 8017SOL    HW231834   5.665   2.117   4.789  0.5347  0.8872 -1.0911
 8017SOL    HW331835   5.737   1.984   4.786 -0.8670  0.0231  0.8128
 8017SOL    MW431836   5.692   2.047   4.745  0.0088  0.0663 -0.1466
 8018SOL     OW31837   1.085   3.532   6.298 -0.3757 -0.1484 -0.4343
 8018SOL    HW231838   1.085   3.598   6.367 -1.3722 -3.0496  2.6157
 8018SOL    HW331839   1.153   3.470   6.324  0.3790 -0.5314 -3.0371
 8018SOL    MW431840   1.094   3.532   6.310 -0.4076 -0.5817 -0.3753
 8019SOL     OW31841   2.579   1.787   4.293  0.2623  0.2019 -0.3160
 8019SOL    HW231842   2.531   1.758   4.371 -0.2003 -0.5598 -0.8718
 8019SOL    HW331843   2.515   1.837   4.243  0.7468  1.2760  0.0986
 8019SOL    MW431844   2.564   1.790   4.297  0.2652  0.2431 -0.3346
 8020SOL     OW31845   5.030   4.261   1.365 -0.1087 -0.7009 -0.3072
 8020SOL    HW231846   5.089   4.256   1.290 -0.9849  0.9133 -1.1645
 8020SOL    HW331847   5.054   4.342   1.410  0.6260 -1.8091  1.3990
 8020SOL    MW431848   5.041   4.271   1.361 -0.1274 -0.6342 -0.1952
 8021SOL     OW31849   0.877   5.189   0.725 -0.4341  0.6290  0.4556
 8021SOL    HW231850   0.811   5.228   0.782 -0.6340 -0.8978  1.3133
 8021SOL    HW331851   0.933   5.263   0.699 -0.2610  1.3701  2.7233
 8021SOL    MW431852   0.876   5.204   0.729 -0.4377  0.5253  0.8680
 8022SOL     OW31853   1.950   2.124   3.562 -0.5555 -0.4612 -0.3326
 8022SOL    HW231854   1.859   2.147   3.581  0.1413  2.8438 -0.3593
 8022SOL    HW331855   1.987   2.102   3.647 -0.6579  1.3799  0.2420
 8022SOL    MW431856   1.943   2.124   3.576 -0.4771  0.2178 -0.2603
 8023SOL     OW31857   2.962   0.325   4.839 -0.0183  0.2651  1.2183
 8023SOL    HW231858   2.878   0.299   4.877  0.4216 -0.8488  1.4900
 8023SOL    HW331859   2.978   0.413   4.872 -1.9938  1.3395 -0.4174
 8023SOL    MW431860   2.953   0.333   4.848 -0.2209  0.2599  1.0383
 8024SOL     OW31861   0.493   1.404   5.693  0.2390  0.2856 -0.1555
 8024SOL    HW231862   0.467   1.475   5.634  1.4299 -0.2309 -1.3537
 8024SOL    HW331863   0.482   1.441   5.781 -2.5900  0.7399 -0.5826
 8024SOL    MW431864   0.488   1.418   5.697  0.0229  0.2774 -0.3699
 8025SOL     OW31865   5.599   3.175   6.125 -0.4476  0.9289 -0.0292
 8025SOL    HW231866   5.571   3.216   6.043 -1.9499  2.2764  1.0952
 8025SOL    HW331867   5.676   3.225   6.152  1.3489 -0.8271 -1.5768
 8025SOL    MW431868   5.605   3.187   6.118 -0.4088  0.8750 -0.0850
 8026SOL     OW31869   1.855   3.798   0.644  0.2523 -0.2305  0.7738
 8026SOL    HW231870   1.841   3.865   0.577 -0.3922  0.0517  1.1871
 8026SOL    HW331871   1.944   3.767   0.628  0.4375  0.4906  0.3744
 8026SOL    MW431872   1.865   3.803   0.633  0.1917 -0.0981  0.7757
 8027SOL     OW31873   0.870   6.134   0.038 -0.2855 -0.4174  0.1633
 8027SOL    HW231874   0.904   6.084   0.113 -0.6442 -0.6581  0.1669
 8027SOL    HW331875   0.914   6.097  -0.038  1.7218  1.2257  0.4224
 8027SOL    MW431876   0.880   6.123   0.038 -0.0680 -0.2324  0.1980
 8028SOL     OW31877   1.892   3.843   3.226  0.0199 -0.4085  0.3029
 8028SOL    HW231878   1.880   3.749   3.221  0.0762 -0.3952 -0.1259
 8028SOL    HW331879   1.984   3.857   3.203 -0.0417 -0.2311  0.1686
 8028SOL    MW431880   1.903   3.833   3.222  0.0192 -0.3833  0.2286
 8029SOL     OW31881   0.296   2.291   1.444 -0.0216 -0.2172  0.6593
 8029SOL    HW231882   0.213   2.317   1.482  0.4007  0.5170  1.1023
 8029SOL    HW331883   0.341   2.243   1.514  0.3702  0.3301  0.7911
 8029SOL    MW431884   0.291   2.288   1.458  0.0858 -0.0481  0.7352
 8030SOL     OW31885   0.684   6.393   2.506  0.0230 -0.0006 -0.4821
 8030SOL    HW231886   0.606   6.347   2.536 -0.7888  0.9168 -1.1534
 8030SOL    HW331887   0.738   6.324   2.467 -0.6575 -0.5721 -0.4409
 8030SOL    MW431888   0.681   6.378   2.505 -0.1739  0.0450 -0.5652
 8031SOL     OW31889   4.040   3.057   3.328  0.2974  0.2671  0.4872
 8031SOL    HW231890   4.017   3.075   3.236 -0.5134  0.4174  0.7101
 8031SOL    HW331891   4.117   3.001   3.322  0.7910  0.9949 -0.2747
 8031SOL    MW431892   4.047   3.052   3.315  0.2556  0.3829  0.4161
 8032SOL     OW31893   5.158   3.393   4.594  0.8607 -0.4311 -0.2360
 8032SOL    HW231894   5.174   3.407   4.500 -0.2883  1.4482 -0.2142
 8032SOL    HW331895   5.155   3.482   4.630 -0.3606 -1.0663  1.2918
 8032SOL    MW431896   5.160   3.407   4.586  0.5479 -0.2670 -0.0315
 8033SOL     OW31897   2.494   2.178   4.998 -0.2222 -0.0116 -0.0051
 8033SOL    HW231898   2.518   2.139   4.915  2.0168  1.7791 -0.3032
 8033SOL    HW331899   2.424   2.240   4.977 -0.9216 -0.8573 -0.2115
 8033SOL    MW431900   2.488   2.181   4.985 -0.0190  0.1130 -0.0716
 8034SOL     OW31901   4.022   5.333   4.833 -0.1681  0.5808  0.1518
 8034SOL    HW231902   3.940   5.340   4.882  0.1539 -0.6403  0.9029
 8034SOL    HW331903   4.023   5.411   4.778 -2.1889  0.2735 -0.4263
 8034SOL    MW431904   4.011   5.344   4.832 -0.3922  0.3792  0.1746
 8035SOL     OW31905   3.312   2.157   2.300 -0.1388  0.4993  0.2190
 8035SOL    HW231906   3.242   2.092   2.300  0.9810 -0.7728 -0.6630
 8035SOL    HW331907   3.378   2.121   2.360  0.1231  1.2674  0.4014
 8035SOL    MW431908   3.312   2.144   2.308  0.0435  0.4328  0.1267
 8036SOL     OW31909   2.804   2.294   4.599 -0.1036  0.5349 -0.2412
 8036SOL    HW231910   2.884   2.242   4.607 -0.8221 -0.6760 -0.7296
 8036SOL    HW331911   2.817   2.368   4.659  1.1870  0.1211  0.0128
 8036SOL    MW431912   2.816   2.297   4.608 -0.0281  0.3205 -0.2721
 8037SOL     OW31913   5.262   1.652   3.236 -0.1531 -0.0343  0.2177
 8037SOL    HW231914   5.236   1.735   3.276  1.1812 -0.0400  1.1348
 8037SOL    HW331915   5.315   1.608   3.302 -0.7446 -1.5960 -0.2851
 8037SOL    MW431916   5.265   1.657   3.250 -0.0551 -0.2411  0.2724
 8038SOL     OW31917   3.859   0.999   0.507 -0.0284 -1.0726 -0.2205
 8038SOL    HW231918   3.887   0.986   0.416  1.7283 -0.2889  0.1729
 8038SOL    HW331919   3.929   0.961   0.560 -0.0713  0.1955  0.8033
 8038SOL    MW431920   3.872   0.992   0.502  0.1977 -0.8019 -0.0335
 8039SOL     OW31921   4.439   0.839   0.252  0.8032  0.4124 -0.2917
 8039SOL    HW231922   4.504   0.779   0.288  1.2704  0.1962 -1.4524
 8039SOL    HW331923   4.412   0.893   0.326 -1.6318 -2.9220  1.5241
 8039SOL    MW431924   4.444   0.838   0.266  0.5436 -0.0560 -0.2053
 8040SOL     OW31925   0.889   2.382   3.453  0.7706  0.0781 -0.1752
 8040SOL    HW231926   0.917   2.403   3.542 -0.2476 -0.2393  0.2344
 8040SOL    HW331927   0.958   2.326   3.418  1.6012  0.9103  0.1037
 8040SOL    MW431928   0.901   2.378   3.460  0.7458  0.1460 -0.0843
 8041SOL     OW31929   3.164   2.963   5.763  0.3180 -0.8152  0.1565
 8041SOL    HW231930   3.202   3.039   5.719  0.7767 -0.6432  0.8325
 8041SOL    HW331931   3.148   2.900   5.693 -0.2628 -0.0266 -0.4463
 8041SOL    MW431932   3.167   2.965   5.748  0.3019 -0.6885  0.1662
 8042SOL     OW31933   1.118   3.646   5.288 -1.0029  0.1705  0.0865
 8042SOL    HW231934   1.156   3.560   5.307  0.7433  0.5877 -1.1929
 8042SOL    HW331935   1.168   3.707   5.343 -1.2803  0.5039 -0.0266
 8042SOL    MW431936   1.130   3.643   5.298 -0.8091  0.2695 -0.0972
 8043SOL     OW31937   2.870   2.981   2.880 -0.5328  0.4502  0.3606
 8043SOL    HW231938   2.829   3.067   2.874 -0.1832  0.5242 -1.5962
 8043SOL    HW331939   2.803   2.920   2.849  0.0365  0.3173 -0.6531
 8043SOL    MW431940   2.856   2.984   2.875 -0.4116  0.4424 -0.0314
 8044SOL     OW31941   4.996   2.458   5.090  0.1262  0.6416  0.1000
 8044SOL    HW231942   5.014   2.512   5.167  0.5320 -0.5709  0.8881
 8044SOL    HW331943   4.920   2.499   5.049  0.3596  1.7416  0.7194
 8044SOL    MW431944   4.989   2.471   5.095  0.2105  0.6268  0.2857
 8045SOL     OW31945   2.205   5.208   6.012  0.4462 -0.5818  0.4337
 8045SOL    HW231946   2.209   5.303   6.006  2.3945 -0.5467  1.3876
 8045SOL    HW331947   2.118   5.190   6.047  0.4346  0.9374  1.2732
 8045SOL    MW431948   2.194   5.218   6.016  0.7017 -0.3767  0.6703
 8046SOL     OW31949   3.278   4.332   2.417 -0.4203 -0.0306  0.0079
 8046SOL    HW231950   3.247   4.361   2.503  0.0743 -2.6560  1.1484
 8046SOL    HW331951   3.325   4.408   2.382  0.2602  0.7987  2.5089
 8046SOL    MW431952   3.280   4.346   2.424 -0.2653 -0.2676  0.4883
 8047SOL     OW31953   3.622   2.922   0.394  0.2692  0.6916  0.0158
 8047SOL    HW231954   3.602   2.905   0.486 -1.1218  1.7194 -0.0628
 8047SOL    HW331955   3.624   3.018   0.388  3.2342  0.6829 -0.4555
 8047SOL    MW431956   3.620   2.933   0.405  0.4769  0.8261 -0.0567
 8048SOL     OW31957   0.859   1.787   2.169  0.1906  0.4391  0.1150
 8048SOL    HW231958   0.847   1.762   2.261  2.0593  2.0553  0.8857
 8048SOL    HW331959   0.944   1.750   2.145  0.6673  1.7256 -0.2826
 8048SOL    MW431960   0.869   1.779   2.178  0.5000  0.8221  0.1642
 8049SOL     OW31961   2.255   0.372   4.132  0.1694  0.5299  0.2484
 8049SOL    HW231962   2.327   0.387   4.071 -1.9816  0.2852 -2.5455
 8049SOL    HW331963   2.250   0.277   4.140 -0.0540  0.5352  0.1740
 8049SOL    MW431964   2.264   0.361   4.125 -0.1438  0.4983 -0.1300
 8050SOL     OW31965   5.445   2.953   3.988 -0.1792 -0.1545  0.2520
 8050SOL    HW231966   5.368   3.007   4.008  1.7630  2.6074  0.9878
 8050SOL    HW331967   5.491   2.945   4.072  1.4956  0.3025 -0.5798
 8050SOL    MW431968   5.441   2.959   4.002  0.2980  0.2702  0.2393
 8051SOL     OW31969   5.613   3.296   4.738  0.2320 -0.2724 -0.2592
 8051SOL    HW231970   5.522   3.294   4.706 -0.3777  0.9681  1.2835
 8051SOL    HW331971   5.652   3.370   4.691  0.1470 -0.2007 -0.2194
 8051SOL    MW431972   5.606   3.306   4.727  0.1404 -0.0993 -0.0504
 8052SOL     OW31973   2.270   6.079   4.831  0.4282  0.2039 -0.1225
 8052SOL    HW231974   2.300   6.063   4.742  1.6754 -1.1148  0.5026
 8052SOL    HW331975   2.325   6.151   4.863  0.2495  0.4116 -0.2814
 8052SOL    MW431976   2.281   6.087   4.824  0.5692  0.0573 -0.0610
 8053SOL     OW31977   6.330   4.852   5.295 -0.5977 -1.0505 -0.2562
 8053SOL    HW231978   6.316   4.801   5.216  0.2245 -1.4081 -0.1782
 8053SOL    HW331979   6.403   4.910   5.275 -1.0131 -0.4543 -0.0796
 8053SOL    MW431980   6.338   4.853   5.282 -0.5440 -1.0190 -0.2226
 8054SOL     OW31981   0.257   1.542   6.420  0.3720 -0.3948 -0.6123
 8054SOL    HW231982   0.210   1.620   6.451 -0.2178 -1.2490  0.7085
 8054SOL    HW331983   0.267   1.487   6.498 -0.1290 -2.1170 -1.7072
 8054SOL    MW431984   0.252   1.545   6.434  0.2281 -0.7347 -0.5825
 8055SOL     OW31985   5.348   0.929   4.746  0.1425 -0.1724 -0.6123
 8055SOL    HW231986   5.422   0.945   4.688 -1.3884 -0.8454 -2.8591
 8055SOL    HW331987   5.355   0.836   4.769  0.1368 -0.1708 -0.6041
 8055SOL    MW431988   5.359   0.919   4.742 -0.0602 -0.2610 -0.9077
 8056SOL     OW31989   1.208   2.942   3.601 -0.3843 -0.1234  0.1682
 8056SOL    HW231990   1.254   2.969   3.522 -1.1671 -0.2694 -0.3538
 8056SOL    HW331991   1.247   2.994   3.671 -1.1631  1.6363 -0.6515
 8056SOL    MW431992   1.219   2.952   3.600 -0.5903  0.0895 -0.0088
 8057SOL     OW31993   2.466   4.836   2.928  0.0330  0.0145  0.0313
 8057SOL    HW231994   2.561   4.827   2.924  0.1560  1.0181  0.3753
 8057SOL    HW331995   2.449   4.927   2.901 -0.6856  0.3794  1.6126
 8057SOL    MW431996   2.476   4.847   2.924 -0.0456  0.1951  0.2853
 8058SOL     OW31997   1.276   2.503   6.060  0.2079 -0.2165 -0.2465
 8058SOL    HW231998   1.349   2.521   6.000  0.9934 -1.0152  0.4274
 8058SOL    HW331999   1.199   2.540   6.017  0.4486 -2.1401 -2.5359
 8058SOL    MW432000   1.276   2.510   6.046  0.3433 -0.5757 -0.4596
 8059SOL     OW32001   5.076   0.475   5.365  0.6955 -0.1175  0.3610
 8059SOL    HW232002   5.098   0.559   5.324  0.1412 -0.5977 -1.0050
 8059SOL    HW332003   5.085   0.491   5.459  1.1895  1.2929  0.1064
 8059SOL    MW432004   5.080   0.488   5.372  0.6875  0.0052  0.1472
 8060SOL     OW32005   3.501   4.788   0.656  0.3482 -0.4784  0.5130
 8060SOL    HW232006   3.425   4.777   0.714  0.4864 -0.4187  0.7074
 8060SOL    HW332007   3.510   4.704   0.612  0.0984 -0.4485  0.4041
 8060SOL    MW432008   3.492   4.775   0.658  0.3334 -0.4666  0.5243
 8061SOL     OW32009   4.563   4.311   4.935  0.3390 -0.3823  0.1926
 8061SOL    HW232010   4.475   4.345   4.920  0.2610 -0.8978 -0.5790
 8061SOL    HW332011   4.583   4.260   4.856  1.6297  0.3517  0.0224
 8061SOL    MW432012   4.554   4.308   4.923  0.4990 -0.3535  0.0683
 8062SOL     OW32013   4.477   2.244   3.148  0.3669  0.7070 -0.2079
 8062SOL    HW232014   4.467   2.339   3.146 -0.5705  0.6262  0.1675
 8062SOL    HW332015   4.541   2.228   3.218  1.6252  1.1269 -1.2231
 8062SOL    MW432016   4.484   2.255   3.157  0.4092  0.7518 -0.2923
 8063SOL     OW32017   5.226   4.584   4.377  0.1625 -0.6506 -0.6149
 8063SOL    HW232018   5.296   4.650   4.373 -0.6254  0.2916  0.4506
 8063SOL    HW332019   5.261   4.509   4.329  1.5182  0.1481 -0.9307
 8063SOL    MW432020   5.240   4.583   4.370  0.2374 -0.4209 -0.5160
 8064SOL     OW32021   4.874   6.255   1.365 -0.7854 -0.2129 -0.2792
 8064SOL    HW232022   4.791   6.279   1.405 -0.8660 -1.8716  0.6792
 8064SOL    HW332023   4.931   6.331   1.380 -1.9905  0.7722 -0.5790
 8064SOL    MW432024   4.871   6.268   1.373 -0.9550 -0.3018 -0.1923
 8065SOL     OW32025   3.062   2.240   3.572  0.2238 -0.9324  0.0336
 8065SOL    HW232026   3.050   2.303   3.643 -0.9683  0.2448 -1.1375
 8065SOL    HW332027   2.975   2.232   3.533  1.2408  0.4180 -2.8444
 8065SOL    MW432028   3.049   2.248   3.576  0.2007 -0.5989 -0.5006
 8066SOL     OW32029   3.540   1.925   4.247 -0.1566 -0.0321 -0.1918
 8066SOL    HW232030   3.531   1.892   4.336 -0.7346  1.4514  0.3304
 8066SOL    HW332031   3.611   1.874   4.209  1.5380  0.7314  1.8046
 8066SOL    MW432032   3.548   1.914   4.253 -0.0093  0.2643  0.1405
 8067SOL     OW32033   0.884   1.880   4.285  0.2478 -0.2872  0.0950
 8067SOL    HW232034   0.956   1.880   4.222  0.4886  0.8032  0.3478
 8067SOL    HW332035   0.927   1.883   4.371 -0.0171  2.9550  0.2325
 8067SOL    MW432036   0.899   1.880   4.288  0.2446  0.2845  0.1465
 8068SOL     OW32037   1.077   5.001   6.264  0.5034  0.1658  0.5497
 8068SOL    HW232038   1.074   4.991   6.359  0.0688 -2.0410  0.3477
 8068SOL    HW332039   1.145   4.939   6.236  2.8090  2.8980 -0.3952
 8068SOL    MW432040   1.086   4.991   6.273  0.7503  0.2351  0.3984
 8069SOL     OW32041   1.751   1.417   5.905  0.0706  0.4625 -0.5236
 8069SOL    HW232042   1.828   1.473   5.892  0.4190  0.2615  0.5650
 8069SOL    HW332043   1.774   1.334   5.864  1.6850 -0.6108  2.2663
 8069SOL    MW432044   1.764   1.414   5.898  0.3296  0.2943 -0.0119
 8070SOL     OW32045   3.664   2.284   3.817  0.0105  0.4623  0.3795
 8070SOL    HW232046   3.590   2.283   3.879 -0.4607  0.4312 -0.1711
 8070SOL    HW332047   3.626   2.320   3.737  0.8119  1.2691  0.3526
 8070SOL    MW432048   3.649   2.289   3.815  0.0541  0.5646  0.3033
 8071SOL     OW32049   4.452   4.323   3.118 -0.2535 -0.1633  0.2160
 8071SOL    HW232050   4.411   4.394   3.068  0.1976 -0.0592 -0.0118
 8071SOL    HW332051   4.524   4.366   3.165  0.2222 -0.5202 -0.1721
 8071SOL    MW432052   4.456   4.338   3.118 -0.1312 -0.1966  0.1348
 8072SOL     OW32053   1.562   5.344   0.996  0.7103  0.3672  0.2643
 8072SOL    HW232054   1.479   5.393   0.997 -1.0785 -2.4215 -0.7349
 8072SOL    HW332055   1.600   5.360   1.082 -1.2206  1.1982  1.0340
 8072SOL    MW432056   1.556   5.353   1.007  0.2196  0.1089  0.2340
 8073SOL     OW32057   5.165   3.188   5.575 -0.0738 -0.2813  0.6120
 8073SOL    HW232058   5.139   3.227   5.491 -0.8865 -0.1870  0.8975
 8073SOL    HW332059   5.127   3.246   5.641 -0.5486 -1.0752  1.0486
 8073SOL    MW432060   5.157   3.201   5.573 -0.2437 -0.3736  0.7073
 8074SOL     OW32061   2.987   3.486   6.340  0.1579  0.4549 -0.0129
 8074SOL    HW232062   2.949   3.567   6.306 -0.7031  0.2101  0.3310
 8074SOL    HW332063   2.924   3.418   6.316  1.4878 -0.3528 -1.4753
 8074SOL    MW432064   2.974   3.488   6.332  0.2197  0.3161 -0.1605
 8075SOL     OW32065   4.400   3.463   4.552 -0.4345 -0.3344 -0.0617
 8075SOL    HW232066   4.345   3.420   4.617 -0.8425  1.6339  1.0012
 8075SOL    HW332067   4.383   3.557   4.565  1.3332  0.2263 -1.3597
 8075SOL    MW432068   4.390   3.470   4.562 -0.2551 -0.0007 -0.0928
 8076SOL     OW32069   3.250   1.912   1.962 -0.0871 -0.0540 -0.5663
 8076SOL    HW232070   3.192   1.869   1.899  0.8458  0.6317 -1.9178
 8076SOL    HW332071   3.199   1.986   1.995 -1.4629 -1.7081  1.2968
 8076SOL    MW432072   3.235   1.916   1.958 -0.1456 -0.1818 -0.4988
 8077SOL     OW32073   4.066   0.429   1.873 -0.7548  0.4975  0.1484
 8077SOL    HW232074   4.112   0.457   1.952 -0.7976  0.3677  0.2194
 8077SOL    HW332075   4.004   0.499   1.855 -0.2910  0.8376 -0.1439
 8077SOL    MW432076   4.064   0.442   1.881 -0.6992  0.5252  0.1192
 8078SOL     OW32077   2.308   6.109   2.940  0.1622 -0.0730  0.3450
 8078SOL    HW232078   2.271   6.029   2.904 -0.8871  1.2733 -1.7387
 8078SOL    HW332079   2.274   6.179   2.884  4.1710  1.5012 -0.4680
 8078SOL    MW432080   2.299   6.108   2.928  0.5527  0.3123 -0.0371
 8079SOL     OW32081   5.727   2.172   3.709 -0.2210 -0.3858 -0.5123
 8079SOL    HW232082   5.792   2.226   3.754  0.5970 -0.5667 -1.4485
 8079SOL    HW332083   5.696   2.111   3.776  1.5502 -1.1779 -0.3480
 8079SOL    MW432084   5.731   2.171   3.724  0.1206 -0.5142 -0.6141
 8080SOL     OW32085   5.783   1.117   2.224 -0.1336  0.6788 -0.1438
 8080SOL    HW232086   5.869   1.089   2.189  0.8665 -1.5879  3.5991
 8080SOL    HW332087   5.805   1.168   2.302 -2.2678  3.5464 -1.2779
 8080SOL    MW432088   5.797   1.120   2.229 -0.2832  0.7581  0.2004
 8081SOL     OW32089   3.164   0.064   2.577 -0.7427 -0.0545  0.1561
 8081SOL    HW232090   3.119  -0.018   2.555 -1.6766  0.1449  1.2118
 8081SOL    HW332091   3.196   0.050   2.667  1.2265 -0.1334 -0.5008
 8081SOL    MW432092   3.163   0.051   2.586 -0.6061 -0.0386  0.2087
 8082SOL     OW32093   3.501   2.263   5.261 -0.2854 -0.4818  0.6817
 8082SOL    HW232094   3.475   2.196   5.198  1.1383 -0.0213 -0.4515
 8082SOL    HW332095   3.567   2.219   5.316 -1.4486 -0.8526  1.8215
 8082SOL    MW432096   3.506   2.248   5.260 -0.2510 -0.4700  0.6826
 8083SOL     OW32097   1.435   5.147   6.191 -0.0757  0.0236  0.5868
 8083SOL    HW232098   1.359   5.204   6.201  0.1946  0.2159  1.6660
 8083SOL    HW332099   1.486   5.189   6.121 -1.1332 -0.3275 -0.4289
 8083SOL    MW432100   1.432   5.160   6.183 -0.1795  0.0027  0.5952
 8084SOL     OW32101   4.532   5.111   6.045  0.3698 -0.4674 -0.3779
 8084SOL    HW232102   4.526   5.145   6.134  0.1416  1.1898 -0.9753
 8084SOL    HW332103   4.441   5.108   6.014  0.4711 -0.7219 -0.6549
 8084SOL    MW432104   4.519   5.115   6.052  0.3531 -0.2823 -0.4932
 8085SOL     OW32105   3.967   2.042   3.521  0.1915 -0.2902  0.2670
 8085SOL    HW232106   3.931   2.082   3.600  1.6184  2.7214 -0.4842
 8085SOL    HW332107   3.891   2.030   3.463 -0.3314  1.3694  0.5613
 8085SOL    MW432108   3.952   2.045   3.523  0.3108  0.3261  0.2067
 8086SOL     OW32109   3.974   5.447   4.397 -0.3672  0.4580  0.9896
 8086SOL    HW232110   3.973   5.535   4.359 -0.4764  1.1044  2.4277
 8086SOL    HW332111   4.062   5.437   4.432  0.1715 -0.6732 -0.5846
 8086SOL    MW432112   3.985   5.457   4.396 -0.3105  0.3941  0.9717
 8087SOL     OW32113   6.124   1.644   2.040 -0.3136  0.1194 -0.6595
 8087SOL    HW232114   6.104   1.700   2.115  0.8785  0.9877 -0.9481
 8087SOL    HW332115   6.208   1.603   2.063 -0.9417 -1.2048 -0.6577
 8087SOL    MW432116   6.133   1.646   2.053 -0.2392  0.0592 -0.6973
 8088SOL     OW32117   1.416   2.109   3.889 -0.6390  0.0803 -0.3808
 8088SOL    HW232118   1.446   2.201   3.891  3.4197 -1.0484  1.1760
 8088SOL    HW332119   1.346   2.109   3.824  0.5279  3.9333 -1.9951
 8088SOL    MW432120   1.411   2.121   3.881  0.0505  0.4397 -0.3884
 8089SOL     OW32121   2.152   5.529   5.092 -0.3015 -0.1846  0.3371
 8089SOL    HW232122   2.184   5.545   5.181 -0.4430 -0.4899  0.4423
 8089SOL    HW332123   2.224   5.482   5.049  0.3953  1.2851 -0.1785
 8089SOL    MW432124   2.166   5.525   5.098 -0.2282 -0.0310  0.2830
 8090SOL     OW32125   4.589   3.897   3.674 -0.4822  0.3673  1.0688
 8090SOL    HW232126   4.664   3.844   3.646 -1.1877 -0.1052  0.0033
 8090SOL    HW332127   4.589   3.890   3.770  0.0804 -0.6549  1.0063
 8090SOL    MW432128   4.599   3.889   3.683 -0.5011  0.1701  0.9200
 8091SOL     OW32129   5.987   3.260   3.641  0.6044 -0.2607  0.2688
 8091SOL    HW232130   5.951   3.172   3.655  0.9087 -0.6294 -1.1203
 8091SOL    HW332131   6.019   3.258   3.551  1.3379  1.0307  0.4874
 8091SOL    MW432132   5.986   3.248   3.631  0.7413 -0.1390  0.1143
 8092SOL     OW32133   2.435   4.004   0.197  0.3124  0.3194  0.0373
 8092SOL    HW232134   2.473   4.091   0.198  0.3053  0.3343 -0.5902
 8092SOL    HW332135   2.501   3.948   0.238 -0.1370  0.7938  1.4347
 8092SOL    MW432136   2.449   4.008   0.202  0.2522  0.3839  0.1388
 8093SOL     OW32137   3.295   3.983   2.175 -0.1674  0.3590 -0.0583
 8093SOL    HW232138   3.380   3.975   2.131 -0.0530  0.4449  0.1441
 8093SOL    HW332139   3.266   3.893   2.187 -0.4931  0.3462 -0.8648
 8093SOL    MW432140   3.303   3.970   2.171 -0.1953  0.3686 -0.1380
 8094SOL     OW32141   2.315   0.409   1.301 -0.3343 -0.3876  0.4042
 8094SOL    HW232142   2.383   0.458   1.255  0.2866 -1.1505  0.5040
 8094SOL    HW332143   2.299   0.460   1.381 -1.3548  0.8960 -0.5713
 8094SOL    MW432144   2.322   0.423   1.306 -0.3870 -0.3189  0.2886
 8095SOL     OW32145   5.808   3.391   1.727 -0.1951  0.0257 -0.6653
 8095SOL    HW232146   5.761   3.472   1.748  0.1206 -0.2254  1.2361
 8095SOL    HW332147   5.896   3.405   1.761  0.1083 -0.7896 -1.0991
 8095SOL    MW432148   5.813   3.404   1.734 -0.1134 -0.1150 -0.4716
 8096SOL     OW32149   2.750   0.088   2.344  0.3104 -0.0135 -0.2367
 8096SOL    HW232150   2.780   0.131   2.263  0.9857  0.8017  0.4205
 8096SOL    HW332151   2.760   0.156   2.411  0.0668 -0.7848  0.5870
 8096SOL    MW432152   2.755   0.103   2.342  0.3674 -0.0077 -0.0413
 8097SOL     OW32153   3.676   3.160   2.988 -0.0753 -0.2014 -0.0173
 8097SOL    HW232154   3.592   3.141   3.028  0.1446  0.1119  0.6029
 8097SOL    HW332155   3.660   3.234   2.930 -0.3870 -0.6376 -0.4997
 8097SOL    MW432156   3.663   3.167   2.986 -0.0874 -0.2176  0.0009
 8098SOL     OW32157   2.054   6.209   1.055 -0.0901 -0.0528  0.3226
 8098SOL    HW232158   2.001   6.230   1.133  0.5519  0.1633  0.7076
 8098SOL    HW332159   2.118   6.280   1.050  1.1460 -1.0915  0.7607
 8098SOL    MW432160   2.055   6.221   1.065  0.1577 -0.1614  0.4312
 8099SOL     OW32161   3.762   6.372   4.754 -0.3317 -0.2352 -0.3753
 8099SOL    HW232162   3.854   6.371   4.728 -0.9958  0.5180 -3.1212
 8099SOL    HW332163   3.716   6.333   4.680 -2.2921  0.1690  0.5690
 8099SOL    MW432164   3.768   6.367   4.741 -0.6779 -0.0825 -0.6130
 8100SOL     OW32165   1.619   3.233   5.141 -0.1380  0.0628 -0.7784
 8100SOL    HW232166   1.565   3.311   5.149 -1.9177 -1.1303 -0.3528
 8100SOL    HW332167   1.570   3.176   5.081  0.3866 -1.2630 -0.0057
 8100SOL    MW432168   1.605   3.236   5.134 -0.3036 -0.2695 -0.6203
 8101SOL     OW32169   5.523   0.894   1.500  0.5489 -0.3542  0.4002
 8101SOL    HW232170   5.573   0.832   1.448  0.8598  0.2100  0.0187
 8101SOL    HW332171   5.474   0.945   1.436 -1.2961 -1.5161  0.7804
 8101SOL    MW432172   5.523   0.892   1.485  0.3465 -0.4331  0.4000
 8102SOL     OW32173   0.048   0.498   4.528  0.0644  0.1928 -0.3236
 8102SOL    HW232174  -0.042   0.480   4.556  0.7247  0.6279  2.3542
 8102SOL    HW332175   0.048   0.592   4.508 -0.6564 -0.2931 -3.1762
 8102SOL    MW432176   0.036   0.508   4.529  0.0564  0.1861 -0.3467
 8103SOL     OW32177   0.537   2.587   2.388 -0.3837  0.5385 -0.5619
 8103SOL    HW232178   0.471   2.555   2.326 -1.5532 -0.1331  0.9606
 8103SOL    HW332179   0.598   2.637   2.334 -0.1913 -1.6838 -2.5797
 8103SOL    MW432180   0.536   2.589   2.372 -0.5126  0.1567 -0.6273
 8104SOL     OW32181   3.644   3.689   5.547 -0.2357  0.2063  0.5218
 8104SOL    HW232182   3.651   3.610   5.495  0.9490 -0.5414  1.7639
 8104SOL    HW332183   3.713   3.682   5.612 -1.4394  1.2444  2.0040
 8104SOL    MW432184   3.654   3.678   5.549 -0.2382  0.2446  0.8812
 8105SOL     OW32185   5.250   6.011   3.011  0.1895  0.1364 -0.1085
 8105SOL    HW232186   5.167   5.984   3.052  1.0821 -0.1392  1.6160
 8105SOL    HW332187   5.318   5.974   3.067  1.4978  3.0268  0.4388
 8105SOL    MW432188   5.248   6.003   3.024  0.4799  0.4814  0.1912
 8106SOL     OW32189   3.208   0.489   1.849  0.2905 -0.0265 -0.3620
 8106SOL    HW232190   3.293   0.481   1.806  0.0995 -3.1094 -0.4182
 8106SOL    HW332191   3.148   0.443   1.791 -1.0136  0.3149  0.6716
 8106SOL    MW432192   3.211   0.482   1.836  0.0932 -0.3882 -0.2331
 8107SOL     OW32193   6.195   6.135   2.151  0.0459 -0.5983 -0.3712
 8107SOL    HW232194   6.269   6.130   2.090  0.3591 -1.5904  0.0649
 8107SOL    HW332195   6.197   6.224   2.184  0.8488 -0.5196 -0.6089
 8107SOL    MW432196   6.205   6.146   2.147  0.1931 -0.7188 -0.3450
 8108SOL     OW32197   5.464   5.213   2.734 -0.2322 -0.1069 -0.3956
 8108SOL    HW232198   5.375   5.247   2.735  0.4177  1.7709  0.6975
 8108SOL    HW332199   5.484   5.194   2.826  0.2217 -1.2826 -0.7236
 8108SOL    MW432200   5.455   5.215   2.747 -0.0865 -0.0143 -0.2946
 8109SOL     OW32201   6.255   4.796   4.543  0.1989 -0.1687 -0.0048
 8109SOL    HW232202   6.174   4.814   4.592  0.6257  0.4365  0.4854
 8109SOL    HW332203   6.236   4.828   4.454 -0.9436 -2.1910 -0.5570
 8109SOL    MW432204   6.242   4.802   4.537  0.1044 -0.3556 -0.0130
 8110SOL     OW32205   1.653   3.827   3.713  0.2649 -0.4717 -0.1525
 8110SOL    HW232206   1.697   3.769   3.775  0.4959  0.5237  0.6362
 8110SOL    HW332207   1.571   3.781   3.692  0.4533 -1.0939  0.4328
 8110SOL    MW432208   1.648   3.813   3.718  0.3202 -0.4225  0.0288
 8111SOL     OW32209   0.435   0.410   0.432 -0.5380 -0.3776 -0.0397
 8111SOL    HW232210   0.385   0.330   0.447  0.6408 -1.1597 -0.1096
 8111SOL    HW332211   0.510   0.382   0.380 -0.6953  0.9860 -1.0583
 8111SOL    MW432212   0.438   0.396   0.427 -0.4032 -0.3009 -0.1833
 8112SOL     OW32213   2.289   2.275   1.473  0.0477  0.1544  0.0732
 8112SOL    HW232214   2.228   2.341   1.507  0.1150 -0.7845  2.2391
 8112SOL    HW332215   2.309   2.303   1.384 -1.3327  2.0343  0.2985
 8112SOL    MW432216   2.283   2.287   1.466 -0.1255  0.2786  0.3887
 8113SOL     OW32217   5.232   5.668   3.270 -0.1466  0.1194 -0.0299
 8113SOL    HW232218   5.288   5.591   3.278 -2.4669 -1.5635  1.2426
 8113SOL    HW332219   5.217   5.677   3.176 -0.8003 -1.8036 -0.1571
 8113SOL    MW432220   5.237   5.659   3.259 -0.5390 -0.3564  0.1212
 8114SOL     OW32221   4.657   2.519   4.118 -0.6443 -0.1744  0.2446
 8114SOL    HW232222   4.714   2.489   4.189 -0.8867  0.3226  0.6523
 8114SOL    HW332223   4.655   2.614   4.127  1.2467  0.1622 -1.8779
 8114SOL    MW432224   4.664   2.527   4.128 -0.4268 -0.0644  0.0184
 8115SOL     OW32225   3.582   2.132   0.145 -0.1173 -0.1622 -0.0673
 8115SOL    HW232226   3.632   2.213   0.155 -1.4231  0.5488  1.1901
 8115SOL    HW332227   3.622   2.071   0.207  0.8361 -0.4830 -0.9794
 8115SOL    MW432228   3.594   2.134   0.154 -0.1638 -0.1107 -0.0218
 8116SOL     OW32229   2.375   5.233   1.066  0.1378 -0.0578 -0.1220
 8116SOL    HW232230   2.448   5.182   1.030 -0.4993 -1.1486  0.0636
 8116SOL    HW332231   2.335   5.275   0.990 -0.3065 -1.1673 -0.5249
 8116SOL    MW432232   2.379   5.232   1.051 -0.0049 -0.3481 -0.1507
 8117SOL     OW32233   5.524   3.187   1.164 -0.3481 -0.3187  0.0422
 8117SOL    HW232234   5.463   3.130   1.210 -0.3225  0.3862  0.9723
 8117SOL    HW332235   5.471   3.229   1.096 -0.6170 -0.5981  0.0749
 8117SOL    MW432236   5.509   3.185   1.161 -0.3802 -0.2626  0.1692
 8118SOL     OW32237   1.452   0.837   6.430  0.0311 -0.0573  0.2780
 8118SOL    HW232238   1.441   0.830   6.335  0.5442  2.0120  0.0197
 8118SOL    HW332239   1.385   0.901   6.456  0.2045 -0.2591  1.2335
 8118SOL    MW432240   1.441   0.845   6.421  0.1217  0.1891  0.3700
 8119SOL     OW32241   5.470   5.000   5.397 -0.3638 -0.2299  0.0253
 8119SOL    HW232242   5.548   5.015   5.343 -0.9272  3.1682 -0.0174
 8119SOL    HW332243   5.502   5.004   5.487  0.0758 -2.8957  0.0633
 8119SOL    MW432244   5.485   5.002   5.402 -0.3802 -0.1333  0.0247
 8120SOL     OW32245   0.804   2.079   5.438 -0.2764 -0.1518  0.1219
 8120SOL    HW232246   0.715   2.063   5.470  0.1407  2.2413  2.7796
 8120SOL    HW332247   0.859   2.021   5.490 -0.1033 -0.5743 -0.5159
 8120SOL    MW432248   0.799   2.069   5.449 -0.1985  0.1082  0.3884
 8121SOL     OW32249   0.958   1.561   3.590  0.2912  1.3063  0.0278
 8121SOL    HW232250   0.932   1.474   3.620  1.8460  0.6331 -0.4857
 8121SOL    HW332251   0.935   1.619   3.663 -0.8690  0.5125  0.3329
 8121SOL    MW432252   0.951   1.557   3.604  0.3433  1.1128  0.0003
 8122SOL     OW32253   5.881   0.529   0.340  0.1351 -0.2806  0.0054
 8122SOL    HW232254   5.928   0.531   0.423 -0.5457 -1.6784  0.4555
 8122SOL    HW332255   5.874   0.621   0.314  0.2832  0.1878  1.5351
 8122SOL    MW432256   5.886   0.542   0.348  0.0648 -0.4032  0.2666
 8123SOL     OW32257   2.020   1.078   2.308 -0.3293  0.1343  0.0536
 8123SOL    HW232258   1.980   1.070   2.395 -1.8414  0.8837 -0.5420
 8123SOL    HW332259   1.960   1.032   2.250  0.4108  0.0834 -0.6852
 8123SOL    MW432260   2.007   1.071   2.312 -0.4311  0.2264 -0.1225
 8124SOL     OW32261   2.361   5.103   2.875  0.5616 -0.0885 -0.0954
 8124SOL    HW232262   2.399   5.108   2.963  0.7239  0.8722 -0.2133
 8124SOL    HW332263   2.266   5.106   2.890  0.5987  0.5920  0.0202
 8124SOL    MW432264   2.354   5.104   2.889  0.5879  0.1280 -0.0957
 8125SOL     OW32265   1.876   2.821   1.581 -0.3385  0.7544 -0.2962
 8125SOL    HW232266   1.940   2.851   1.645  0.3189 -1.3507  0.1226
 8125SOL    HW332267   1.900   2.865   1.500  2.6086 -0.9915 -0.5207
 8125SOL    MW432268   1.887   2.831   1.579  0.1371  0.2463 -0.2705
 8126SOL     OW32269   4.042   0.257   5.519 -0.3152 -0.0061  0.1403
 8126SOL    HW232270   3.987   0.236   5.444 -0.8762  1.9397 -0.0526
 8126SOL    HW332271   4.122   0.293   5.482  0.3193 -1.0536  0.4577
 8126SOL    MW432272   4.045   0.259   5.505 -0.3055  0.1124  0.1567
 8127SOL     OW32273   0.209   3.676   5.351 -0.4088  0.4183 -0.1751
 8127SOL    HW232274   0.211   3.768   5.324 -0.3339  0.4378 -0.1017
 8127SOL    HW332275   0.180   3.678   5.442 -3.1508  0.2037 -0.9544
 8127SOL    MW432276   0.206   3.689   5.359 -0.7607  0.3925 -0.2683
 8128SOL     OW32277   0.343   3.447   6.399  0.7129 -0.0648 -0.4445
 8128SOL    HW232278   0.295   3.472   6.478  1.8349  1.2939 -0.1486
 8128SOL    HW332279   0.409   3.385   6.430  0.4848 -0.3430 -0.5066
 8128SOL    MW432280   0.345   3.442   6.414  0.8308  0.0778 -0.4136
 8129SOL     OW32281   1.219   2.670   4.128  0.0464  0.2496 -0.3317
 8129SOL    HW232282   1.226   2.642   4.219  0.1993  0.7446 -0.1923
 8129SOL    HW332283   1.151   2.614   4.091 -0.2431  0.2714  0.1706
 8129SOL    MW432284   1.211   2.659   4.135  0.0284  0.3178 -0.2471
 8130SOL     OW32285   5.941   2.445   3.392 -0.1486 -0.2284  0.1819
 8130SOL    HW232286   5.965   2.509   3.325  0.3823 -0.6332 -0.0192
 8130SOL    HW332287   5.999   2.465   3.466 -0.2161 -0.2626  0.2446
 8130SOL    MW432288   5.952   2.456   3.393 -0.0875 -0.2863  0.1636
 8131SOL     OW32289   0.067   3.591   4.445 -0.0069  0.3593  0.1155
 8131SOL    HW232290   0.137   3.571   4.383 -0.6958 -1.6772 -0.0797
 8131SOL    HW332291   0.048   3.684   4.431  0.4105  0.1563 -2.1607
 8131SOL    MW432292   0.073   3.601   4.435 -0.0427  0.0638 -0.2105
 8132SOL     OW32293   6.326   3.953   6.352  0.0715  0.2036  0.2245
 8132SOL    HW232294   6.376   3.977   6.430  0.9825  2.7006 -1.0019
 8132SOL    HW332295   6.294   3.865   6.370  2.0645 -0.1626  2.4922
 8132SOL    MW432296   6.328   3.945   6.365  0.4546  0.4847  0.3619
 8133SOL     OW32297   3.481   3.021   3.153 -0.3472  0.0523 -0.5934
 8133SOL    HW232298   3.427   3.002   3.077 -0.2094 -0.5198 -0.5478
 8133SOL    HW332299   3.519   2.937   3.177 -0.0397  0.3144 -0.1628
 8133SOL    MW432300   3.479   3.008   3.146 -0.2884  0.0114 -0.5306
 8134SOL     OW32301   3.222   2.238   3.093 -0.3727 -0.0808  0.1543
 8134SOL    HW232302   3.302   2.196   3.125 -0.8004 -0.1615  1.1584
 8134SOL    HW332303   3.186   2.283   3.170 -1.7164 -0.7061 -0.0804
 8134SOL    MW432304   3.228   2.239   3.107 -0.6064 -0.1740  0.2558
 8135SOL     OW32305   1.803   3.757   1.060  0.2358 -0.7704  0.3072
 8135SOL    HW232306   1.764   3.827   1.008  0.5666 -0.6509  0.2148
 8135SOL    HW332307   1.824   3.799   1.144  0.2166 -0.8195  0.3364
 8135SOL    MW432308   1.801   3.772   1.064  0.2769 -0.7611  0.2988
 8136SOL     OW32309   5.608   2.106   4.319  0.4970 -0.0736 -0.0211
 8136SOL    HW232310   5.541   2.127   4.253 -0.8243  3.2462  2.1055
 8136SOL    HW332311   5.688   2.146   4.286  0.8135 -1.6677 -1.2823
 8136SOL    MW432312   5.610   2.114   4.306  0.3644  0.1541  0.0931
 8137SOL     OW32313   4.563   4.589   0.796  0.1092 -0.1484  0.3788
 8137SOL    HW232314   4.518   4.654   0.743  0.5733  1.5434  1.9676
 8137SOL    HW332315   4.524   4.597   0.883  1.1119 -1.0287  0.9368
 8137SOL    MW432316   4.552   4.599   0.800  0.3027 -0.0413  0.6621
 8138SOL     OW32317   6.125   4.965   0.154  0.1109 -0.6246 -0.4502
 8138SOL    HW232318   6.143   4.873   0.136  0.1863 -0.9864  1.3733
 8138SOL    HW332319   6.210   5.008   0.146  0.6557 -1.2302  1.5604
 8138SOL    MW432320   6.138   4.959   0.150  0.1927 -0.7522  0.0557
 8139SOL     OW32321   5.409   1.636   0.080  0.6434 -0.3020 -0.1764
 8139SOL    HW232322   5.453   1.719   0.099 -1.6014  0.7505  0.6836
 8139SOL    HW332323   5.334   1.660   0.026  0.4816 -1.9249 -0.7274
 8139SOL    MW432324   5.405   1.650   0.075  0.3259 -0.3773 -0.1356
 8140SOL     OW32325   1.117   1.394   2.570 -0.1156  0.3293 -0.1135
 8140SOL    HW232326   1.127   1.463   2.636  0.5819  0.0343  0.0914
 8140SOL    HW332327   1.089   1.441   2.491  0.3130  0.8466  0.0366
 8140SOL    MW432328   1.114   1.410   2.568  0.0330  0.3586 -0.0667
 8141SOL     OW32329   4.295   2.892   4.523 -0.4110  0.2286 -0.3475
 8141SOL    HW232330   4.294   2.852   4.610 -0.1274  1.0312  0.0302
 8141SOL    HW332331   4.219   2.951   4.523 -1.4881 -1.1041 -1.2943
 8141SOL    MW432332   4.285   2.895   4.534 -0.5157  0.1587 -0.4225
 8142SOL     OW32333   4.679   3.214   3.893 -0.0513  0.5569 -0.3183
 8142SOL    HW232334   4.610   3.152   3.917 -0.2107  1.6490  2.4512
 8142SOL    HW332335   4.665   3.231   3.799 -1.7843 -1.3481 -0.4618
 8142SOL    MW432336   4.668   3.208   3.884 -0.3010  0.4497  0.0281
 8143SOL     OW32337   1.878   6.029   2.821 -0.2341  0.0946 -0.1637
 8143SOL    HW232338   1.853   6.060   2.734 -1.3392 -0.7157 -0.1620
 8143SOL    HW332339   1.862   5.935   2.817 -1.3933  0.2011  1.2514
 8143SOL    MW432340   1.872   6.021   2.809 -0.5329  0.0017  0.0232
 8144SOL     OW32341   3.837   3.519   3.527 -0.0303 -0.3835 -0.3252
 8144SOL    HW232342   3.750   3.511   3.488  0.0437 -3.3152 -0.1295
 8144SOL    HW332343   3.824   3.569   3.608 -1.3890 -0.1583 -0.6729
 8144SOL    MW432344   3.824   3.524   3.533 -0.1998 -0.7406 -0.3453
 8145SOL     OW32345   1.645   0.913   4.569 -0.1244  0.4665  0.0619
 8145SOL    HW232346   1.678   0.878   4.487  1.3114 -0.4512  0.9847
 8145SOL    HW332347   1.655   1.008   4.560  0.7879  0.3284 -0.5240
 8145SOL    MW432348   1.651   0.921   4.557  0.1854  0.3272  0.1063
 8146SOL     OW32349   4.219   4.428   0.961  0.2995 -0.2827 -0.2163
 8146SOL    HW232350   4.311   4.439   0.984 -0.0886  2.1048  0.3905
 8146SOL    HW332351   4.171   4.458   1.037 -1.0002  0.5059 -1.3023
 8146SOL    MW432352   4.225   4.433   0.974  0.0768  0.1363 -0.2795
 8147SOL     OW32353   4.681   3.889   2.615  0.3705  0.0723  0.3426
 8147SOL    HW232354   4.623   3.870   2.688 -0.3957 -1.6559 -0.6622
 8147SOL    HW332355   4.762   3.919   2.656 -0.0570 -0.8056  1.9020
 8147SOL    MW432356   4.684   3.891   2.630  0.2130 -0.2715  0.4158
 8148SOL     OW32357   4.972   3.904   0.803  0.2453  0.0530 -0.4935
 8148SOL    HW232358   4.939   3.846   0.735 -1.1814 -0.8119  0.8676
 8148SOL    HW332359   5.064   3.918   0.780  0.3629 -1.8935 -1.4315
 8148SOL    MW432360   4.980   3.898   0.791  0.0726 -0.3179 -0.4377
 8149SOL     OW32361   5.349   2.806   1.396  0.4842  0.3386 -0.2336
 8149SOL    HW232362   5.355   2.713   1.377 -0.1813  0.4278 -0.9268
 8149SOL    HW332363   5.431   2.843   1.364 -0.5806  0.4810 -3.0153
 8149SOL    MW432364   5.361   2.799   1.390  0.2559  0.3692 -0.6921
 8150SOL     OW32365   4.365   0.814   4.695 -0.1208  0.1868 -0.2091
 8150SOL    HW232366   4.327   0.902   4.691  0.6741  0.5074 -0.8792
 8150SOL    HW332367   4.453   0.828   4.730 -0.0587 -0.3618 -0.1482
 8150SOL    MW432368   4.371   0.828   4.699 -0.0077  0.1567 -0.2895
 8151SOL     OW32369   3.643   5.686   6.417  0.0862 -0.4996  0.2042
 8151SOL    HW232370   3.654   5.702   6.323 -0.6245  1.1942  0.3679
 8151SOL    HW332371   3.723   5.643   6.444  1.7918  1.9290 -0.5971
 8151SOL    MW432372   3.655   5.683   6.408  0.2175  0.0443  0.1201
 8152SOL     OW32373   6.180   1.802   2.840 -0.2524  0.3477 -0.0473
 8152SOL    HW232374   6.145   1.808   2.751  1.1859 -3.5052 -1.0889
 8152SOL    HW332375   6.231   1.882   2.851 -1.0088  1.2594 -2.4416
 8152SOL    MW432376   6.183   1.813   2.830 -0.1624 -0.0404 -0.5006
 8153SOL     OW32377   3.239   2.133   3.755  0.8550 -0.4776  0.8101
 8153SOL    HW232378   3.169   2.181   3.710  1.5116  0.4170  0.7263
 8153SOL    HW332379   3.192   2.074   3.815 -0.0294 -1.5139 -0.8277
 8153SOL    MW432380   3.223   2.131   3.757  0.8250 -0.4963  0.5829
 8154SOL     OW32381   0.085   1.204   0.760  0.3610  0.5145 -0.1737
 8154SOL    HW232382   0.008   1.170   0.806  0.2534  1.1288  0.1127
 8154SOL    HW332383   0.066   1.187   0.667 -0.4213  1.2325 -0.1604
 8154SOL    MW432384   0.072   1.198   0.753  0.2436  0.6903 -0.1342
 8155SOL     OW32385   0.477   1.255   0.111  0.1846 -0.3074  0.5192
 8155SOL    HW232386   0.424   1.305   0.173  0.3650 -0.0574  0.4731
 8155SOL    HW332387   0.427   1.256   0.029  0.9354  1.1982  0.0392
 8155SOL    MW432388   0.464   1.262   0.108  0.3075 -0.0758  0.4498
 8156SOL     OW32389   1.499   5.392   2.390  0.2042  0.6231  0.1603
 8156SOL    HW232390   1.545   5.433   2.316  0.0109  2.0819  0.8148
 8156SOL    HW332391   1.567   5.373   2.454  0.0447  2.0309  0.7871
 8156SOL    MW432392   1.514   5.395   2.388  0.1576  1.0013  0.3293
 8157SOL     OW32393   4.471   5.851   1.046 -0.2411 -0.6184 -0.4262
 8157SOL    HW232394   4.505   5.921   1.102 -0.4009 -2.6650  2.4819
 8157SOL    HW332395   4.383   5.879   1.023 -0.7178 -0.2535  1.6259
 8157SOL    MW432396   4.464   5.864   1.051 -0.3251 -0.8403  0.2282
 8158SOL     OW32397   1.532   4.344   0.968  0.1365  0.4962 -0.3582
 8158SOL    HW232398   1.438   4.343   0.950 -0.0441 -4.3394 -0.5248
 8158SOL    HW332399   1.572   4.323   0.884  1.5846  3.3643 -0.4959
 8158SOL    MW432400   1.525   4.341   0.955  0.3037  0.2366 -0.3983
 8159SOL     OW32401   2.979   2.550   1.474  0.3768 -0.0739 -0.2706
 8159SOL    HW232402   3.007   2.617   1.412  0.8158 -0.4903 -0.5292
 8159SOL    HW332403   2.890   2.575   1.498  1.4645  2.1839  1.8095
 8159SOL    MW432404   2.971   2.562   1.469  0.5782  0.1691 -0.0303
 8160SOL     OW32405   5.798   0.360   4.494  0.2366  0.1807 -0.1650
 8160SOL    HW232406   5.762   0.323   4.413 -0.7356  0.6357  0.0355
 8160SOL    HW332407   5.722   0.369   4.552  1.0541 -0.9037  1.1130
 8160SOL    MW432408   5.783   0.357   4.491  0.2162  0.0977  0.0301
 8161SOL     OW32409   6.323   0.452   0.522  0.7988 -0.0223 -0.8913
 8161SOL    HW232410   6.266   0.411   0.587 -0.3736  2.2989 -0.3459
 8161SOL    HW332411   6.263   0.488   0.457  1.4266  3.2919  0.1760
 8161SOL    MW432412   6.307   0.451   0.522  0.7270  0.7212 -0.6785
 8162SOL     OW32413   1.231   0.934   4.441  0.0946  0.0536 -0.2953
 8162SOL    HW232414   1.308   0.927   4.384  1.1429 -1.6373  1.2223
 8162SOL    HW332415   1.267   0.965   4.525 -1.1206  0.6623  0.0176
 8162SOL    MW432416   1.246   0.937   4.445  0.0726 -0.0892 -0.0538
 8163SOL     OW32417   3.662   3.562   1.721  0.2563 -0.4238  0.4368
 8163SOL    HW232418   3.745   3.529   1.755  1.0558  1.3152  0.2614
 8163SOL    HW332419   3.665   3.656   1.735 -0.0985  0.1922 -2.8273
 8163SOL    MW432420   3.673   3.570   1.727  0.3150 -0.1131 -0.0170
 8164SOL     OW32421   4.214   5.081   3.488 -0.7983  0.0026  0.2102
 8164SOL    HW232422   4.149   5.130   3.437 -0.5356  1.9922  1.6891
 8164SOL    HW332423   4.210   4.992   3.452 -2.5794  0.6506 -1.3736
 8164SOL    MW432424   4.205   5.076   3.476 -0.9986  0.3506  0.1964
 8165SOL     OW32425   4.451   2.585   1.005 -0.2995  0.4288 -0.3199
 8165SOL    HW232426   4.404   2.532   0.941  0.6107  1.5614 -1.9968
 8165SOL    HW332427   4.524   2.529   1.033  0.0094  0.3547 -1.2363
 8165SOL    MW432428   4.455   2.570   1.000 -0.1386  0.5685 -0.6621
 8166SOL     OW32429   3.780   6.023   5.118 -0.0879 -0.0201  0.0548
 8166SOL    HW232430   3.835   5.972   5.059 -1.4697 -1.1903 -0.3074
 8166SOL    HW332431   3.777   6.111   5.080  1.6033  0.1129  0.1811
 8166SOL    MW432432   3.787   6.028   5.105 -0.0471 -0.1570  0.0237
 8167SOL     OW32433   6.387   0.403   1.256 -0.0315  0.1705 -0.1106
 8167SOL    HW232434   6.322   0.473   1.265 -1.5490 -0.9701 -1.5506
 8167SOL    HW332435   6.471   0.449   1.251 -0.8690  1.8082  0.0896
 8167SOL    MW432436   6.389   0.418   1.257 -0.3422  0.2361 -0.2742
 8168SOL     OW32437   5.126   3.546   3.556  0.4809  0.4411  0.5198
 8168SOL    HW232438   5.193   3.614   3.560  0.0602  0.8120  3.1225
 8168SOL    HW332439   5.175   3.465   3.542  1.1344  1.0463 -0.9153
 8168SOL    MW432440   5.142   3.544   3.555  0.5116  0.5699  0.6738
 8169SOL     OW32441   3.283   4.322   5.379  0.7770 -0.3715 -0.5098
 8169SOL    HW232442   3.302   4.341   5.471  2.2054  0.6173 -0.9867
 8169SOL    HW332443   3.207   4.263   5.382  0.5692 -0.0605  1.2767
 8169SOL    MW432444   3.275   4.317   5.391  0.9380 -0.2000 -0.3370
 8170SOL     OW32445   0.281   3.274   5.432  0.0791 -0.3693 -0.0133
 8170SOL    HW232446   0.193   3.311   5.443  0.3713  0.7147 -1.0257
 8170SOL    HW332447   0.325   3.335   5.373  0.9150 -1.8563 -0.9984
 8170SOL    MW432448   0.275   3.287   5.425  0.2279 -0.4224 -0.2769
 8171SOL     OW32449   4.047   3.874   2.884 -0.2726 -0.4208  0.5212
 8171SOL    HW232450   4.026   3.818   2.809  1.2167  0.1203 -0.3553
 8171SOL    HW332451   4.113   3.824   2.932  1.3121  0.6611 -0.4494
 8171SOL    MW432452   4.053   3.860   2.881  0.1330 -0.2067  0.2775
 8172SOL     OW32453   1.598   0.199   4.454  0.9643  0.2569  0.3751
 8172SOL    HW232454   1.627   0.243   4.374 -2.2014 -0.1096 -1.1512
 8172SOL    HW332455   1.645   0.116   4.454  0.8310  0.1390 -1.3149
 8172SOL    MW432456   1.608   0.194   4.443  0.5291  0.1930 -0.0493
 8173SOL     OW32457   5.482   1.566   3.087 -0.2725 -0.5124  0.6864
 8173SOL    HW232458   5.499   1.601   2.999  0.1050 -2.0616  0.1035
 8173SOL    HW332459   5.404   1.611   3.117 -0.1151  0.4067 -0.2392
 8173SOL    MW432460   5.474   1.577   3.079 -0.2019 -0.5955  0.4874
 8174SOL     OW32461   3.789   0.469   1.519  0.1678  0.0971  0.0145
 8174SOL    HW232462   3.827   0.422   1.445 -0.7027  0.8516 -0.9323
 8174SOL    HW332463   3.819   0.559   1.508  0.4475  0.1202  0.8779
 8174SOL    MW432464   3.798   0.475   1.508  0.0899  0.1997  0.0035
 8175SOL     OW32465   5.925   1.727   3.168 -0.2439  0.0407  0.4247
 8175SOL    HW232466   5.929   1.650   3.111 -2.7423 -1.0568  1.5776
 8175SOL    HW332467   5.881   1.793   3.116 -0.3634 -0.1467  0.2846
 8175SOL    MW432468   5.920   1.725   3.154 -0.5893 -0.1289  0.5583
 8176SOL     OW32469   0.203   1.993   5.037 -0.3341 -0.4866  0.4010
 8176SOL    HW232470   0.205   2.058   5.106 -0.4493 -0.7484  0.6522
 8176SOL    HW332471   0.148   1.922   5.071  0.2243 -0.9548  0.3481
 8176SOL    MW432472   0.196   1.992   5.050 -0.2756 -0.5829  0.4272
 8177SOL     OW32473   1.004   3.966   1.966 -0.6095 -0.0150 -0.4053
 8177SOL    HW232474   0.913   3.997   1.965 -0.9396 -0.9159  0.3293
 8177SOL    HW332475   0.998   3.876   1.997  0.4630 -0.3718 -1.1796
 8177SOL    MW432476   0.991   3.958   1.970 -0.5116 -0.1810 -0.4105
 8178SOL     OW32477   5.781   1.563   1.356 -0.6553  0.0205  0.1559
 8178SOL    HW232478   5.718   1.577   1.427 -1.2081 -0.4803 -0.2182
 8178SOL    HW332479   5.856   1.617   1.378 -1.3315  0.8408  0.4796
 8178SOL    MW432480   5.783   1.572   1.368 -0.8174  0.0626  0.1493
 8179SOL     OW32481   4.338   5.570   5.149 -0.3130 -0.3883 -0.6627
 8179SOL    HW232482   4.313   5.513   5.076  0.0610 -1.5813  0.1077
 8179SOL    HW332483   4.431   5.589   5.133  0.0725 -1.5598  0.0555
 8179SOL    MW432484   4.347   5.565   5.137 -0.2128 -0.7003 -0.4663
 8180SOL     OW32485   5.881   3.747   2.140  0.3707 -0.0290 -0.5998
 8180SOL    HW232486   5.909   3.666   2.096  2.8436  1.0447 -1.1285
 8180SOL    HW332487   5.872   3.811   2.069 -2.5362  0.0183 -0.3176
 8180SOL    MW432488   5.883   3.744   2.125  0.3134  0.1189 -0.6323
 8181SOL     OW32489   4.138   5.348   3.010  0.2911  0.3040 -0.1490
 8181SOL    HW232490   4.151   5.362   2.916  1.7072  1.3062  0.1653
 8181SOL    HW332491   4.136   5.437   3.047 -0.2234 -0.0853  0.7873
 8181SOL    MW432492   4.139   5.362   3.002  0.4101  0.3849  0.0160
 8182SOL     OW32493   6.083   6.185   0.287  0.3359 -0.4654  0.2802
 8182SOL    HW232494   6.054   6.102   0.247  0.0366 -0.6117  0.7934
 8182SOL    HW332495   6.076   6.170   0.381  2.9125 -0.7999  0.4978
 8182SOL    MW432496   6.078   6.172   0.294  0.6364 -0.5289  0.3766
 8183SOL     OW32497   3.031   4.153   1.527 -0.1894 -0.1363  0.1870
 8183SOL    HW232498   3.087   4.181   1.454  3.2389 -0.7924  2.3257
 8183SOL    HW332499   2.981   4.232   1.550  1.9367  1.3985 -0.1346
 8183SOL    MW432500   3.032   4.167   1.520  0.5435 -0.0204  0.4267
 8184SOL     OW32501   2.198   5.424   4.337 -0.3599  0.0155  0.0594
 8184SOL    HW232502   2.113   5.390   4.310 -0.7199  1.1717 -0.3550
 8184SOL    HW332503   2.179   5.511   4.374  0.3808 -0.6141  2.0586
 8184SOL    MW432504   2.185   5.431   4.339 -0.3096  0.0850  0.2685
 8185SOL     OW32505   5.422   1.887   5.895  0.0262  0.1224 -0.1486
 8185SOL    HW232506   5.357   1.918   5.832  0.6258 -1.0393 -1.3781
 8185SOL    HW332507   5.485   1.959   5.902 -0.8222  0.8508  0.2857
 8185SOL    MW432508   5.422   1.901   5.888 -0.0066  0.0652 -0.2536
 8186SOL     OW32509   6.140   3.158   4.359 -0.2006  0.2080 -0.0039
 8186SOL    HW232510   6.210   3.092   4.360 -1.0701 -0.7527  1.1829
 8186SOL    HW332511   6.186   3.241   4.349  0.9640 -0.5340 -1.1016
 8186SOL    MW432512   6.155   3.160   4.358 -0.1617 -0.0167  0.0079
 8187SOL     OW32513   0.627   5.702   2.253 -0.8889 -0.5580 -0.6596
 8187SOL    HW232514   0.599   5.633   2.313  0.3632 -0.2223  0.3572
 8187SOL    HW332515   0.566   5.774   2.269  0.5678  0.2743  1.7219
 8187SOL    MW432516   0.615   5.702   2.263 -0.5315 -0.4039 -0.2112
 8188SOL     OW32517   3.982   3.330   3.698 -0.2102  0.3640 -0.4390
 8188SOL    HW232518   4.053   3.286   3.650  0.1695 -0.4952  0.8641
 8188SOL    HW332519   3.920   3.356   3.630  0.5198 -0.4282 -1.4432
 8188SOL    MW432520   3.983   3.327   3.682 -0.0638  0.1462 -0.3995
 8189SOL     OW32521   3.273   0.756   0.960  0.2444  0.2508 -1.2062
 8189SOL    HW232522   3.364   0.786   0.967  0.5524 -0.9709  2.8207
 8189SOL    HW332523   3.280   0.666   0.929  0.6742 -0.4590  0.8020
 8189SOL    MW432524   3.286   0.748   0.957  0.3418 -0.0040 -0.4100
 8190SOL     OW32525   3.936   4.321   1.365  0.1319 -0.7211 -0.3834
 8190SOL    HW232526   3.983   4.379   1.305 -0.1388  0.4411  0.4819
 8190SOL    HW332527   3.846   4.320   1.332 -0.1110  0.2499  0.2187
 8190SOL    MW432528   3.930   4.329   1.353  0.0641 -0.4396 -0.1898
 8191SOL     OW32529   5.175   1.489   4.181 -0.4056 -0.1826 -0.4801
 8191SOL    HW232530   5.204   1.501   4.272 -0.8348 -3.1602  0.1532
 8191SOL    HW332531   5.251   1.516   4.129  1.4468 -2.1835  0.9556
 8191SOL    MW432532   5.189   1.494   4.186 -0.2178 -0.8394 -0.2071
 8192SOL     OW32533   5.199   5.685   1.384  0.6130 -0.1129  0.5117
 8192SOL    HW232534   5.190   5.641   1.299  0.2077 -0.5092  0.7580
 8192SOL    HW332535   5.234   5.771   1.362  0.2533 -0.1120 -0.0923
 8192SOL    MW432536   5.202   5.691   1.370  0.5121 -0.1651  0.4645
 8193SOL     OW32537   1.112   5.091   2.410 -0.1880 -0.4231  0.1551
 8193SOL    HW232538   1.194   5.066   2.453  0.8201  0.3624 -1.2501
 8193SOL    HW332539   1.120   5.185   2.396 -2.0723 -0.0189  1.4710
 8193SOL    MW432540   1.124   5.100   2.414 -0.3036 -0.2662  0.1433
 8194SOL     OW32541   2.863   4.915   2.361  0.5332  0.4006 -0.1590
 8194SOL    HW232542   2.875   4.999   2.317 -2.3173  0.6956 -0.5593
 8194SOL    HW332543   2.860   4.851   2.289  0.2583  0.2866 -0.0469
 8194SOL    MW432544   2.864   4.918   2.345  0.1209  0.4244 -0.1970
 8195SOL     OW32545   1.052   2.621   3.081  0.0179 -0.1903  0.8369
 8195SOL    HW232546   0.980   2.684   3.091 -2.7536 -2.7358 -1.4551
 8195SOL    HW332547   1.098   2.649   3.002  0.0020  0.0104  0.8973
 8195SOL    MW432548   1.049   2.633   3.072 -0.3499 -0.4997  0.5425
 8196SOL     OW32549   2.865   5.504   4.507  0.4344  0.1913 -0.4182
 8196SOL    HW232550   2.787   5.453   4.529  2.0130 -1.9128  0.6792
 8196SOL    HW332551   2.837   5.595   4.515 -1.3160 -0.4743  2.2988
 8196SOL    MW432552   2.851   5.509   4.511  0.4117 -0.1741  0.0851
 8197SOL     OW32553   6.393   1.346   1.808 -0.8096 -0.6050 -0.2104
 8197SOL    HW232554   6.433   1.261   1.830  1.7066  0.9413  1.7330
 8197SOL    HW332555   6.310   1.345   1.855 -1.4577 -2.4677 -1.2953
 8197SOL    MW432556   6.387   1.334   1.817 -0.5631 -0.6468 -0.0971
 8198SOL     OW32557   3.759   5.310   0.402  0.0701  0.3019  0.3366
 8198SOL    HW232558   3.773   5.271   0.488  0.3676 -1.6391 -0.5419
 8198SOL    HW332559   3.846   5.338   0.373  0.7439 -2.6862 -0.9292
 8198SOL    MW432560   3.772   5.309   0.409  0.1983 -0.3484  0.0537
 8199SOL     OW32561   3.048   5.836   4.713 -0.4864 -0.0742  0.3628
 8199SOL    HW232562   3.051   5.758   4.657  0.3542  0.5728 -0.5414
 8199SOL    HW332563   3.133   5.836   4.757  0.0407  0.9825 -0.5994
 8199SOL    MW432564   3.060   5.825   4.711 -0.3059  0.1506  0.1165
 8200SOL     OW32565   5.858   5.242   2.613 -0.1728 -0.0954  0.0709
 8200SOL    HW232566   5.884   5.150   2.612  0.7675  0.1627 -1.5030
 8200SOL    HW332567   5.825   5.259   2.525  0.1674  1.2146  0.1730
 8200SOL    MW432568   5.857   5.232   2.601 -0.0038  0.1115 -0.1233
 8201SOL     OW32569   3.606   2.336   0.441  0.2991 -0.4537 -0.3368
 8201SOL    HW232570   3.677   2.385   0.399  2.0447 -0.0333  2.8048
 8201SOL    HW332571   3.633   2.244   0.436  1.6636 -0.2271  1.6476
 8201SOL    MW432572   3.619   2.330   0.435  0.7094 -0.3683  0.3396
 8202SOL     OW32573   0.651   3.436   5.677 -0.2822  0.1091  0.0651
 8202SOL    HW232574   0.713   3.418   5.747 -1.4076  1.3196  1.4214
 8202SOL    HW332575   0.617   3.523   5.696 -0.8668  0.3457 -1.8129
 8202SOL    MW432576   0.655   3.445   5.689 -0.5078  0.3000 -0.0037
 8203SOL     OW32577   5.965   0.912   4.735  0.3054  0.6648  0.1135
 8203SOL    HW232578   6.041   0.867   4.771 -0.8043 -1.1485  0.3400
 8203SOL    HW332579   5.999   0.996   4.704  2.0706  0.5788  1.6413
 8203SOL    MW432580   5.979   0.917   4.735  0.3919  0.4142  0.3450
 8204SOL     OW32581   3.546   5.979   3.087 -0.2830 -0.3657 -0.5883
 8204SOL    HW232582   3.592   5.962   3.005  1.8043 -1.1152  0.6599
 8204SOL    HW332583   3.548   5.896   3.133  0.8341  0.6475  1.2842
 8204SOL    MW432584   3.552   5.966   3.082  0.1398 -0.3309 -0.1766
 8205SOL     OW32585   4.397   2.184   2.879 -0.4297 -0.1959  0.0141
 8205SOL    HW232586   4.331   2.118   2.904  0.7407 -0.9986  1.0946
 8205SOL    HW332587   4.441   2.206   2.961 -0.0938  1.1785 -0.5107
 8205SOL    MW432588   4.394   2.178   2.893 -0.2309 -0.1205  0.0874
 8206SOL     OW32589   1.321   4.257   3.040 -0.0509  0.1125 -0.3473
 8206SOL    HW232590   1.397   4.206   3.067  0.5257  1.0508 -0.1465
 8206SOL    HW332591   1.284   4.208   2.967 -0.1695 -1.1606  0.5429
 8206SOL    MW432592   1.326   4.244   3.034  0.0095  0.0683 -0.2034
 8207SOL     OW32593   3.026   2.379   5.358 -0.1245  0.3079  0.1178
 8207SOL    HW232594   2.961   2.446   5.376 -0.9986 -0.2485 -0.8361
 8207SOL    HW332595   3.105   2.427   5.332 -0.0919  0.9881  1.3843
 8207SOL    MW432596   3.028   2.394   5.357 -0.2355  0.3242  0.1590
 8208SOL     OW32597   2.987   4.404   5.239 -0.1551 -0.2374  0.4049
 8208SOL    HW232598   3.080   4.417   5.253 -0.0541 -0.7227  0.1886
 8208SOL    HW332599   2.945   4.461   5.303  0.2941 -1.3692  1.7577
 8208SOL    MW432600   2.993   4.413   5.249 -0.0825 -0.4507  0.5549
 8209SOL     OW32601   4.573   0.757   3.237 -0.5751  0.1417  0.3532
 8209SOL    HW232602   4.533   0.843   3.247 -0.5113  0.3306 -0.8545
 8209SOL    HW332603   4.613   0.759   3.150  1.0976 -0.4375  1.0668
 8209SOL    MW432604   4.573   0.768   3.227 -0.3460  0.0902  0.2880
 8210SOL     OW32605   1.959   6.279   5.927 -0.6286 -0.3561 -0.2997
 8210SOL    HW232606   2.007   6.339   5.871 -1.2052  0.6674  0.2775
 8210SOL    HW332607   1.889   6.332   5.965  0.2080 -0.7636  2.0174
 8210SOL    MW432608   1.956   6.294   5.925 -0.5943 -0.2748  0.0822
 8211SOL     OW32609   0.987   2.827   0.655 -0.5337  0.1856 -0.6331
 8211SOL    HW232610   0.893   2.817   0.638 -0.5906  0.2845 -0.3917
 8211SOL    HW332611   1.029   2.765   0.596 -0.7784 -0.1947 -0.4143
 8211SOL    MW432612   0.980   2.818   0.645 -0.5735  0.1485 -0.5724
 8212SOL     OW32613   1.569   6.201   3.259 -0.0180  0.3487 -0.2901
 8212SOL    HW232614   1.532   6.184   3.172 -0.3559 -0.6274  0.0280
 8212SOL    HW332615   1.493   6.201   3.317  0.3408 -0.4245  0.1990
 8212SOL    MW432616   1.554   6.199   3.256 -0.0152  0.1179 -0.1836
 8213SOL     OW32617   1.050   1.244   0.776  0.3962 -0.0677  0.3370
 8213SOL    HW232618   1.045   1.324   0.724 -0.6395 -0.0869  0.3950
 8213SOL    HW332619   0.965   1.202   0.765  0.7933 -0.9781  0.6125
 8213SOL    MW432620   1.038   1.249   0.768  0.3120 -0.1904  0.3810
 8214SOL     OW32621   5.951   5.716   4.054 -0.3730 -0.0484  0.5755
 8214SOL    HW232622   5.975   5.678   3.969  0.9241  0.9326  0.4725
 8214SOL    HW332623   5.858   5.739   4.044 -0.5951 -1.1602 -0.0982
 8214SOL    MW432624   5.942   5.714   4.041 -0.2312 -0.0657  0.4730
 8215SOL     OW32625   4.576   4.527   4.531  0.0128 -0.0178 -0.0150
 8215SOL    HW232626   4.665   4.499   4.552 -0.0380  0.3721  0.7547
 8215SOL    HW332627   4.587   4.603   4.475  0.1572 -0.4261 -0.5469
 8215SOL    MW432628   4.589   4.533   4.527  0.0251 -0.0202  0.0164
 8216SOL     OW32629   4.832   1.743   3.819 -0.1398  0.2003 -0.2179
 8216SOL    HW232630   4.752   1.754   3.869 -0.3312  1.0731 -0.7077
 8216SOL    HW332631   4.847   1.828   3.777  2.4942  0.9567  2.0076
 8216SOL    MW432632   4.824   1.756   3.820  0.1824  0.4152  0.0111
 8217SOL     OW32633   4.366   2.493   5.871  0.0867 -0.7394  0.4929
 8217SOL    HW232634   4.406   2.555   5.931  1.3508 -2.4933  1.5353
 8217SOL    HW332635   4.384   2.407   5.909 -1.1282 -1.7978 -1.1778
 8217SOL    MW432636   4.373   2.489   5.884  0.0932 -1.1104  0.4100
 8218SOL     OW32637   5.532   4.214   1.381  0.3532 -0.2439  0.0767
 8218SOL    HW232638   5.604   4.196   1.321  0.2172  0.5270 -0.3322
 8218SOL    HW332639   5.574   4.229   1.466  0.7475  0.8634 -0.2985
 8218SOL    MW432640   5.547   4.213   1.385  0.3873  0.0039 -0.0267
 8219SOL     OW32641   0.016   2.257   5.358  0.2836 -0.3169  0.3473
 8219SOL    HW232642   0.028   2.349   5.383 -1.5786 -0.2059  1.0227
 8219SOL    HW332643   0.005   2.259   5.263 -2.6643  0.6149  0.5997
 8219SOL    MW432644   0.016   2.270   5.349 -0.3510 -0.1793  0.4698
 8220SOL     OW32645   2.967   2.604   3.382  0.2286  0.4736 -0.2688
 8220SOL    HW232646   3.037   2.550   3.346 -1.2768 -0.8858 -1.2583
 8220SOL    HW332647   2.991   2.616   3.474  2.0221  0.5185 -0.7061
 8220SOL    MW432648   2.979   2.599   3.390  0.2666  0.3001 -0.4570
 8221SOL     OW32649   2.457   3.028   6.156 -0.1462 -0.3186 -0.1850
 8221SOL    HW232650   2.503   2.994   6.233 -1.1689 -2.9491 -0.6226
 8221SOL    HW332651   2.510   2.997   6.082 -1.1916 -1.1163 -0.6120
 8221SOL    MW432652   2.470   3.019   6.156 -0.4191 -0.7709 -0.2991
 8222SOL     OW32653   2.543   1.990   5.791  0.1295 -0.6775 -0.1357
 8222SOL    HW232654   2.531   2.067   5.846 -0.1020 -0.8938  0.1238
 8222SOL    HW332655   2.467   1.935   5.811 -1.8434  0.6723 -3.1247
 8222SOL    MW432656   2.531   1.993   5.801 -0.1614 -0.5280 -0.4958
 8223SOL     OW32657   5.479   3.042   0.866 -0.4337  0.3014  0.2627
 8223SOL    HW232658   5.460   3.134   0.881  0.7618  1.0519 -2.2556
 8223SOL    HW332659   5.564   3.027   0.908 -1.6753 -0.3593  2.7115
 8223SOL    MW432660   5.488   3.052   0.873 -0.4398  0.3133  0.2535
 8224SOL     OW32661   1.001   0.787   4.420 -1.1012  0.0113 -0.3867
 8224SOL    HW232662   1.079   0.838   4.444 -0.4422 -0.6507 -1.0468
 8224SOL    HW332663   0.967   0.830   4.342 -0.5724 -0.5006 -0.9159
 8224SOL    MW432664   1.007   0.799   4.413 -0.9445 -0.1436 -0.5436
 8225SOL     OW32665   5.022   6.070   4.443  0.2040  0.5182 -0.3321
 8225SOL    HW232666   5.048   6.101   4.530 -1.9847  1.6426 -0.0062
 8225SOL    HW332667   5.050   6.140   4.383 -0.6260  0.9949 -0.1773
 8225SOL    MW432668   5.029   6.084   4.446 -0.1943  0.7294 -0.2687
 8226SOL     OW32669   6.056   2.250   2.771  0.0147 -0.3047 -0.6091
 8226SOL    HW232670   5.979   2.306   2.762 -1.1266 -1.4214  1.4892
 8226SOL    HW332671   6.020   2.161   2.771  1.4169 -0.8885 -0.5306
 8226SOL    MW432672   6.041   2.245   2.770  0.0491 -0.5291 -0.3219
 8227SOL     OW32673   4.137   3.003   5.521  0.0624  0.2047  0.0010
 8227SOL    HW232674   4.129   2.908   5.510 -1.7967  0.1627  1.1337
 8227SOL    HW332675   4.214   3.015   5.575  0.4736 -0.6341 -0.3817
 8227SOL    MW432676   4.146   2.992   5.527 -0.1286  0.0885  0.1000
 8228SOL     OW32677   5.074   2.789   5.159 -0.0085  0.5576  0.1586
 8228SOL    HW232678   5.022   2.737   5.221  0.2230  0.1506  0.0220
 8228SOL    HW332679   5.012   2.818   5.093  0.3175 -2.2238 -1.5419
 8228SOL    MW432680   5.059   2.786   5.158  0.0651  0.1370 -0.0838
 8229SOL     OW32681   1.972   5.654   4.885  0.0136 -0.0791  0.3406
 8229SOL    HW232682   2.038   5.601   4.929  0.4529 -2.1386 -2.5139
 8229SOL    HW332683   1.966   5.734   4.938  4.0831 -0.1581  1.2717
 8229SOL    MW432684   1.980   5.658   4.898  0.6085 -0.3613  0.0869
 8230SOL     OW32685   2.814   2.526   5.467  0.2981  0.0562 -0.3209
 8230SOL    HW232686   2.801   2.606   5.415  0.4290  0.7459  0.6762
 8230SOL    HW332687   2.889   2.546   5.523  1.3437 -1.3610 -1.1593
 8230SOL    MW432688   2.822   2.539   5.468  0.4533 -0.0398 -0.2999
 8231SOL     OW32689   2.705   4.125   5.138 -0.2027 -1.1570  0.0453
 8231SOL    HW232690   2.762   4.109   5.213  0.1206  0.2436  0.1251
 8231SOL    HW332691   2.718   4.218   5.118 -2.0117 -0.9547 -0.3144
 8231SOL    MW432692   2.714   4.135   5.145 -0.3987 -0.9455  0.0084
 8232SOL     OW32693   3.615   2.906   0.686 -0.4954  0.3928  0.2577
 8232SOL    HW232694   3.531   2.911   0.731 -0.8656 -0.4812 -0.3255
 8232SOL    HW332695   3.678   2.936   0.751 -0.6072 -3.5970  2.5028
 8232SOL    MW432696   3.612   2.911   0.701 -0.5590 -0.2489  0.4770
 8233SOL     OW32697   3.863   2.024   4.801 -0.0559  0.0842  0.4491
 8233SOL    HW232698   3.907   2.108   4.809 -1.5619  0.7828  2.1388
 8233SOL    HW332699   3.830   2.023   4.711  0.8205  0.8495  0.1087
 8233SOL    MW432700   3.864   2.035   4.790 -0.1390  0.2773  0.6271
 8234SOL     OW32701   1.094   4.068   4.247  0.1372  0.1425 -0.0063
 8234SOL    HW232702   1.086   3.989   4.301 -1.8948  1.7539  2.2708
 8234SOL    HW332703   1.165   4.118   4.287  0.6782 -0.0323 -0.7464
 8234SOL    MW432704   1.102   4.064   4.260 -0.0595  0.3321  0.1965
 8235SOL     OW32705   0.986   1.103   2.261 -0.4407 -0.5061  0.1672
 8235SOL    HW232706   0.988   1.145   2.347 -0.5854  0.9990 -0.5343
 8235SOL    HW332707   1.047   1.029   2.270  0.2344  0.1469  1.2915
 8235SOL    MW432708   0.994   1.098   2.274 -0.3707 -0.2214  0.2230
 8236SOL     OW32709   0.128   6.334   4.730 -0.1793 -0.2045  0.0778
 8236SOL    HW232710   0.091   6.331   4.818  0.1341 -0.4653  0.2010
 8236SOL    HW332711   0.053   6.322   4.672 -0.4836  0.6124  0.2865
 8236SOL    MW432712   0.113   6.332   4.734 -0.1781 -0.1311  0.1216
 8237SOL     OW32713   2.504   5.569   0.396  0.5451 -0.0768  0.0653
 8237SOL    HW232714   2.568   5.550   0.327  0.9692  0.0947  0.4070
 8237SOL    HW332715   2.492   5.664   0.393  1.4235  0.0738  0.9694
 8237SOL    MW432716   2.511   5.579   0.387  0.7169 -0.0343  0.2297
 8238SOL     OW32717   2.098   5.358   0.403  0.0958 -0.5051  0.0921
 8238SOL    HW232718   2.109   5.315   0.319  3.1554  0.7537 -0.2550
 8238SOL    HW332719   2.071   5.447   0.381  2.2022  0.2316  0.2814
 8238SOL    MW432720   2.096   5.364   0.389  0.7774 -0.2418  0.0713
 8239SOL     OW32721   0.958   1.437   2.012  0.1167  0.6024  0.0153
 8239SOL    HW232722   0.911   1.487   1.946 -0.6651 -0.0938  0.0301
 8239SOL    HW332723   0.990   1.359   1.965  3.1172  2.0158 -0.5343
 8239SOL    MW432724   0.956   1.433   1.997  0.4094  0.6970 -0.0553
 8240SOL     OW32725   0.364   0.278   2.114  0.1180  0.5064  0.2513
 8240SOL    HW232726   0.409   0.314   2.037 -1.4512 -0.9954 -1.4730
 8240SOL    HW332727   0.340   0.189   2.088  1.0961 -0.7144  3.1969
 8240SOL    MW432728   0.367   0.271   2.100  0.0400  0.1472  0.4124
 8241SOL     OW32729   2.129   5.609   1.861 -0.3077 -0.2567 -0.3749
 8241SOL    HW232730   2.188   5.624   1.787 -0.9690  0.1160 -0.8379
 8241SOL    HW332731   2.183   5.624   1.938  0.3519 -0.4907 -0.7867
 8241SOL    MW432732   2.144   5.613   1.861 -0.3079 -0.2384 -0.4903
 8242SOL     OW32733   5.938   6.005   4.359  0.4705 -0.2143 -0.0267
 8242SOL    HW232734   5.959   5.992   4.266 -0.9003 -0.2862 -0.3557
 8242SOL    HW332735   5.989   5.939   4.405  0.5405 -0.7275 -0.8250
 8242SOL    MW432736   5.947   5.995   4.353  0.2989 -0.2915 -0.1754
 8243SOL     OW32737   2.013   5.413   2.976 -0.4036  0.3721 -0.6806
 8243SOL    HW232738   1.978   5.497   3.004 -0.2178  0.4728 -0.7476
 8243SOL    HW332739   2.050   5.431   2.889 -0.3066  0.2372 -0.6673
 8243SOL    MW432740   2.013   5.426   2.968 -0.3663  0.3675 -0.6877
 8244SOL     OW32741   0.132   3.973   2.824  0.1031  0.3070 -0.0690
 8244SOL    HW232742   0.125   3.878   2.828 -0.5537  0.3803  0.6603
 8244SOL    HW332743   0.178   3.997   2.905 -1.0048  0.7207  0.4490
 8244SOL    MW432744   0.137   3.964   2.835 -0.1297  0.3713  0.0955
 8245SOL     OW32745   5.709   1.872   1.440 -0.5761 -0.3030 -0.0899
 8245SOL    HW232746   5.735   1.877   1.348 -0.9274  0.4829 -0.1522
 8245SOL    HW332747   5.622   1.832   1.439 -0.7358  0.0374 -0.1360
 8245SOL    MW432748   5.701   1.868   1.428 -0.6435 -0.1544 -0.1042
 8246SOL     OW32749   0.637   3.171   6.138  0.1893  0.0448  0.4236
 8246SOL    HW232750   0.702   3.118   6.091 -0.2977 -1.2730  1.1867
 8246SOL    HW332751   0.606   3.235   6.073  0.6361 -0.7584 -0.5965
 8246SOL    MW432752   0.641   3.173   6.123  0.1840 -0.2350  0.3897
 8247SOL     OW32753   2.223   4.585   4.637 -0.5189  0.1316 -0.0653
 8247SOL    HW232754   2.226   4.529   4.714 -2.4163  0.0607  0.0146
 8247SOL    HW332755   2.314   4.606   4.618  0.0364 -0.5433  1.6842
 8247SOL    MW432756   2.235   4.581   4.644 -0.6960  0.0332  0.1760
 8248SOL     OW32757   0.513   0.897   3.242  0.2086 -0.2597 -0.1676
 8248SOL    HW232758   0.519   0.823   3.304  1.1184  1.2609  1.6707
 8248SOL    HW332759   0.433   0.880   3.193 -0.4334 -1.7135  1.2690
 8248SOL    MW432760   0.503   0.885   3.244  0.2440 -0.2508  0.2645
 8249SOL     OW32761   5.911   4.607   1.567  0.2204  0.5091 -0.6321
 8249SOL    HW232762   5.997   4.639   1.592 -0.4067  1.5806  0.2812
 8249SOL    HW332763   5.911   4.515   1.593  0.9817  0.5756 -0.3648
 8249SOL    MW432764   5.922   4.599   1.574  0.2381  0.6593 -0.4763
 8250SOL     OW32765   5.858   3.855   0.283  0.3934  0.0001  0.4688
 8250SOL    HW232766   5.853   3.821   0.193 -0.5479 -0.0920  0.5524
 8250SOL    HW332767   5.854   3.950   0.273  1.9627  0.0843  0.3123
 8250SOL    MW432768   5.857   3.863   0.269  0.4763 -0.0009  0.4592
 8251SOL     OW32769   2.486   4.912   5.712  0.2019  0.8201  0.1494
 8251SOL    HW232770   2.571   4.945   5.740  0.0107  1.7927 -0.3859
 8251SOL    HW332771   2.493   4.905   5.617  0.2694 -0.8181  0.2445
 8251SOL    MW432772   2.498   4.915   5.703  0.1856  0.7323  0.0913
 8252SOL     OW32773   0.593   4.244   3.639 -0.2688  0.3321  0.3260
 8252SOL    HW232774   0.538   4.258   3.717 -0.6352  2.9562 -0.3034
 8252SOL    HW332775   0.549   4.174   3.591 -1.6586  0.6374  1.0919
 8252SOL    MW432776   0.580   4.237   3.643 -0.5005  0.7186  0.3440
 8253SOL     OW32777   0.158   3.728   2.736 -0.0901  0.0717 -0.4145
 8253SOL    HW232778   0.216   3.663   2.777 -1.2336 -0.9837 -0.3867
 8253SOL    HW332779   0.184   3.728   2.644  0.1691 -0.1482 -0.3434
 8253SOL    MW432780   0.169   3.719   2.729 -0.2068 -0.0965 -0.4014
 8254SOL     OW32781   2.494   3.305   2.810  0.4095  0.4912  0.3654
 8254SOL    HW232782   2.507   3.227   2.755  2.1316  0.1945  1.0930
 8254SOL    HW332783   2.406   3.296   2.845 -0.0325 -0.2570 -0.9023
 8254SOL    MW432784   2.484   3.293   2.807  0.5784  0.3533  0.2941
 8255SOL     OW32785   1.665   5.706   1.707  0.1735  0.5965  0.2089
 8255SOL    HW232786   1.690   5.690   1.798  1.5427  1.9349  0.1035
 8255SOL    HW332787   1.570   5.689   1.705  0.3480 -0.7460  1.5551
 8255SOL    MW432788   1.655   5.701   1.719  0.3772  0.5959  0.3726
 8256SOL     OW32789   1.740   4.545   5.395 -0.3372 -0.3895  0.6225
 8256SOL    HW232790   1.740   4.524   5.301  1.7634 -2.4062  0.9805
 8256SOL    HW332791   1.698   4.631   5.400  1.5914  0.9360 -2.4595
 8256SOL    MW432792   1.735   4.554   5.383  0.1944 -0.4807  0.2631
 8257SOL     OW32793   2.187   2.759   3.190  0.2481  0.0362 -0.6047
 8257SOL    HW232794   2.157   2.849   3.206  0.1358 -0.0995 -0.0545
 8257SOL    HW332795   2.215   2.727   3.275 -0.9695 -0.9190 -0.5379
 8257SOL    MW432796   2.187   2.767   3.203  0.0727 -0.1077 -0.5233
 8258SOL     OW32797   1.720   4.244   3.536 -0.0883 -0.2539 -0.3892
 8258SOL    HW232798   1.727   4.183   3.609 -0.5101  0.7597  0.5326
 8258SOL    HW332799   1.687   4.191   3.463 -2.4321 -0.7612  0.9314
 8258SOL    MW432800   1.717   4.229   3.536 -0.4532 -0.1871 -0.0934
 8259SOL     OW32801   5.315   1.595   5.232  0.6356 -0.0130 -0.2355
 8259SOL    HW232802   5.370   1.629   5.162 -0.1250  0.6380 -0.5365
 8259SOL    HW332803   5.227   1.628   5.211  0.2882 -0.3349  0.6817
 8259SOL    MW432804   5.311   1.604   5.220  0.4894  0.0304 -0.1542
 8260SOL     OW32805   0.514   3.322   5.943  0.2153  0.0134  0.1903
 8260SOL    HW232806   0.549   3.357   5.861  1.5911 -0.3335  0.6119
 8260SOL    HW332807   0.426   3.293   5.920  0.5667 -0.0771 -1.1648
 8260SOL    MW432808   0.507   3.323   5.929  0.4432 -0.0443  0.0672
 8261SOL     OW32809   2.391   3.674   2.943 -0.2724  0.3880 -0.2412
 8261SOL    HW232810   2.396   3.660   3.038 -1.1485  1.6881  0.0122
 8261SOL    HW332811   2.479   3.655   2.912  0.0477  0.0126  0.8423
 8261SOL    MW432812   2.403   3.669   2.952 -0.3457  0.5100 -0.0648
 8262SOL     OW32813   0.803   3.482   2.349 -0.4891  0.4828 -0.1227
 8262SOL    HW232814   0.888   3.464   2.309  0.2545 -0.8550  1.9293
 8262SOL    HW332815   0.747   3.506   2.275  1.5227  0.9866 -1.5833
 8262SOL    MW432816   0.807   3.483   2.334 -0.1256  0.3728 -0.0447
 8263SOL     OW32817   6.235   5.018   2.329 -0.1833 -0.1115  0.1832
 8263SOL    HW232818   6.272   4.930   2.320 -0.2633 -0.1562  0.2930
 8263SOL    HW332819   6.235   5.053   2.239  0.0766 -0.1299  0.1734
 8263SOL    MW432820   6.240   5.011   2.316 -0.1595 -0.1198  0.1964
 8264SOL     OW32821   2.202   0.583   2.633 -0.8633 -0.1041  0.4837
 8264SOL    HW232822   2.295   0.606   2.634 -0.7870 -0.4050  1.1880
 8264SOL    HW332823   2.157   0.667   2.644 -0.6720  0.0386  0.1806
 8264SOL    MW432824   2.209   0.597   2.635 -0.8280 -0.1249  0.5366
 8265SOL     OW32825   0.918   0.279   1.063 -0.6158 -0.2696 -0.2853
 8265SOL    HW232826   0.843   0.234   1.024 -0.2620 -2.1711  1.0708
 8265SOL    HW332827   0.989   0.216   1.058  0.1952  0.5127  0.7689
 8265SOL    MW432828   0.917   0.265   1.057 -0.4621 -0.4172  0.0327
 8266SOL     OW32829   3.608   6.137   2.293 -0.4557 -0.0590 -0.4230
 8266SOL    HW232830   3.644   6.195   2.226 -1.0860  2.1723  1.0642
 8266SOL    HW332831   3.683   6.116   2.349 -0.2316 -0.7214 -0.9510
 8266SOL    MW432832   3.623   6.142   2.292 -0.5093  0.1480 -0.2964
 8267SOL     OW32833   2.286   1.808   2.156 -0.1453  0.4312  0.0086
 8267SOL    HW232834   2.358   1.744   2.153  0.8982  1.5864 -1.9400
 8267SOL    HW332835   2.235   1.789   2.077 -1.0510  0.6502  0.5359
 8267SOL    MW432836   2.289   1.797   2.145 -0.1272  0.6125 -0.1789
 8268SOL     OW32837   4.473   5.358   3.093 -1.0153 -0.4051 -0.0865
 8268SOL    HW232838   4.417   5.281   3.108 -1.7453  0.0842 -0.2307
 8268SOL    HW332839   4.462   5.411   3.172 -0.6055 -0.3940 -0.0373
 8268SOL    MW432840   4.464   5.355   3.106 -1.0575 -0.3391 -0.0990
 8269SOL     OW32841   0.284   1.377   2.681 -0.2108  0.6694  0.0616
 8269SOL    HW232842   0.301   1.467   2.706  0.8327  0.5936 -0.3444
 8269SOL    HW332843   0.214   1.383   2.616  0.0931  1.2182 -0.2164
 8269SOL    MW432844   0.277   1.390   2.676 -0.0330  0.7318 -0.0287
 8270SOL     OW32845   1.999   6.039   6.025 -0.0158 -0.5143 -0.4718
 8270SOL    HW232846   1.983   6.125   5.986 -1.1967  0.3526  1.7764
 8270SOL    HW332847   2.030   6.058   6.113 -1.1878 -2.3928  0.3897
 8270SOL    MW432848   2.001   6.053   6.031 -0.3263 -0.6478 -0.0615
 8271SOL     OW32849   6.379   3.206   2.415  0.1736  0.3063  0.3547
 8271SOL    HW232850   6.418   3.179   2.498 -0.6083 -0.4159  0.5082
 8271SOL    HW332851   6.441   3.269   2.379  0.2860  1.0427  1.7311
 8271SOL    MW432852   6.392   3.211   2.422  0.0853  0.3082  0.5565
 8272SOL     OW32853   4.801   4.344   4.225  0.2874  0.0661 -0.1036
 8272SOL    HW232854   4.710   4.331   4.200  0.0058 -0.4418  1.0925
 8272SOL    HW332855   4.846   4.265   4.193  0.4287  0.5764 -1.1911
 8272SOL    MW432856   4.795   4.332   4.218  0.2689  0.0664 -0.0893
 8273SOL     OW32857   1.313   1.613   0.666  0.0641  0.3774 -0.5278
 8273SOL    HW232858   1.345   1.524   0.675 -0.2600  0.3450  0.4056
 8273SOL    HW332859   1.238   1.606   0.607  0.3833  0.1229 -0.9078
 8273SOL    MW432860   1.307   1.600   0.660  0.0635  0.3396 -0.4548
 8274SOL     OW32861   5.063   3.442   6.206 -0.1603  0.0347 -0.6049
 8274SOL    HW232862   5.054   3.475   6.117  1.0219 -1.4777 -1.3200
 8274SOL    HW332863   5.080   3.349   6.196  0.6606 -0.0452  1.1778
 8274SOL    MW432864   5.064   3.434   6.193  0.1040 -0.1754 -0.4641
 8275SOL     OW32865   6.017   1.214   0.314  0.2733  0.3465 -0.1872
 8275SOL    HW232866   5.992   1.128   0.349  2.0154  0.1101  0.5958
 8275SOL    HW332867   5.934   1.257   0.294 -0.6341 -1.6428 -0.9363
 8275SOL    MW432868   6.003   1.208   0.316  0.3834  0.0529 -0.1828
 8276SOL     OW32869   2.798   3.737   5.006  0.2876 -0.3021 -0.2601
 8276SOL    HW232870   2.825   3.780   5.086 -1.9929  1.5993 -0.4170
 8276SOL    HW332871   2.779   3.808   4.945 -0.9663 -1.5923 -1.4644
 8276SOL    MW432872   2.799   3.752   5.008 -0.1787 -0.2215 -0.4397
 8277SOL     OW32873   1.577   2.734   6.412  0.5050 -0.0546  0.0414
 8277SOL    HW232874   1.506   2.705   6.355 -1.2627 -0.5495  2.3331
 8277SOL    HW332875   1.576   2.829   6.405  0.1741 -0.0955 -0.5742
 8277SOL    MW432876   1.568   2.742   6.404  0.2281 -0.1253  0.2626
 8278SOL     OW32877   5.169   1.776   5.022  0.0273 -0.0776  0.0925
 8278SOL    HW232878   5.152   1.867   4.997 -2.1468 -0.1145  1.1768
 8278SOL    HW332879   5.263   1.764   5.008  0.4690  2.4786  0.3726
 8278SOL    MW432880   5.179   1.786   5.017 -0.2012  0.2548  0.2725
 8279SOL     OW32881   0.182   4.957   1.568 -0.0869  0.2997 -0.0912
 8279SOL    HW232882   0.218   5.041   1.541  1.0497  0.2062  1.0157
 8279SOL    HW332883   0.192   4.900   1.492 -1.1222  1.2130 -0.9447
 8279SOL    MW432884   0.188   4.961   1.555 -0.0735  0.4079 -0.0578
 8280SOL     OW32885   5.534   3.870   2.881 -0.0446 -0.5891  0.1350
 8280SOL    HW232886   5.624   3.878   2.914 -0.3624  0.0460  0.8859
 8280SOL    HW332887   5.517   3.775   2.882  0.0591 -0.6232  1.5894
 8280SOL    MW432888   5.544   3.858   2.885 -0.0729 -0.5098  0.4259
 8281SOL     OW32889   1.092   5.418   4.346 -0.5651  0.6074  0.5167
 8281SOL    HW232890   1.118   5.509   4.329 -0.6085  1.0539  2.5494
 8281SOL    HW332891   1.030   5.425   4.419  2.1665 -1.2310  3.3011
 8281SOL    MW432892   1.088   5.431   4.354 -0.2104  0.4238  1.1523
 8282SOL     OW32893   3.530   0.785   1.330 -0.1064 -0.4456 -0.2222
 8282SOL    HW232894   3.550   0.847   1.400  3.0709 -1.8005  0.2246
 8282SOL    HW332895   3.601   0.795   1.267 -1.3768 -1.2539 -1.8885
 8282SOL    MW432896   3.542   0.794   1.331  0.1452 -0.7310 -0.3831
 8283SOL     OW32897   3.394   4.070   0.198 -0.4509  0.3347  0.1985
 8283SOL    HW232898   3.351   4.055   0.282 -0.4780 -1.2540 -0.0646
 8283SOL    HW332899   3.441   3.988   0.180 -0.2926  0.7113 -1.2360
 8283SOL    MW432900   3.394   4.057   0.206 -0.4336  0.1748 -0.0255
 8284SOL     OW32901   3.708   0.388   0.491  0.0053  0.0058 -0.7699
 8284SOL    HW232902   3.789   0.385   0.441  0.2994  0.8803 -0.3751
 8284SOL    HW332903   3.735   0.388   0.583 -0.4525 -0.0924 -0.6300
 8284SOL    MW432904   3.722   0.388   0.497 -0.0163  0.1082 -0.6994
 8285SOL     OW32905   4.365   3.149   4.214  0.3025 -0.3113  0.0521
 8285SOL    HW232906   4.401   3.121   4.130  0.4590  2.2382 -0.8235
 8285SOL    HW332907   4.439   3.147   4.274  0.4016 -1.2405 -0.0848
 8285SOL    MW432908   4.379   3.145   4.211  0.3363 -0.0976 -0.0815
 8286SOL     OW32909   6.311   1.064   5.519 -0.0680 -0.7802  0.0727
 8286SOL    HW232910   6.379   0.999   5.498 -0.8552 -1.3737 -0.7164
 8286SOL    HW332911   6.354   1.148   5.507  0.4988 -1.1462 -0.5578
 8286SOL    MW432912   6.326   1.066   5.514 -0.0971 -0.9068 -0.1146
 8287SOL     OW32913   2.260   5.254   6.286  0.5515 -0.4979  0.0729
 8287SOL    HW232914   2.201   5.272   6.213  2.2347  1.4503 -0.8950
 8287SOL    HW332915   2.340   5.222   6.245  1.4249  0.3529  1.0497
 8287SOL    MW432916   2.263   5.252   6.271  0.8888 -0.1286  0.0741
 8288SOL     OW32917   5.974   5.937   0.858  0.1389 -0.4848 -0.1671
 8288SOL    HW232918   5.942   5.899   0.940 -0.9871 -0.6219 -0.6579
 8288SOL    HW332919   6.065   5.907   0.852  0.9851  1.3850  2.1477
 8288SOL    MW432920   5.982   5.928   0.868  0.1019 -0.2562  0.0735
 8289SOL     OW32921   2.762   2.777   5.379  0.4646 -0.3515 -0.0907
 8289SOL    HW232922   2.684   2.830   5.362  1.2323  1.3658  1.3912
 8289SOL    HW332923   2.833   2.841   5.387  2.3373 -1.9313 -2.6573
 8289SOL    MW432924   2.761   2.793   5.378  0.8129 -0.3333 -0.2338
 8290SOL     OW32925   1.899   5.772   5.852 -0.6113 -0.1559  0.5825
 8290SOL    HW232926   1.929   5.814   5.933  0.1925 -0.8441  0.6544
 8290SOL    HW332927   1.837   5.705   5.881 -1.4191  0.5493  0.5134
 8290SOL    MW432928   1.895   5.769   5.867 -0.6118 -0.1537  0.5829
 8291SOL     OW32929   3.210   4.507   2.008  0.1540 -0.0535  0.1198
 8291SOL    HW232930   3.173   4.595   2.014 -0.0840 -0.0755 -0.9320
 8291SOL    HW332931   3.283   4.508   2.071 -2.0348 -0.2697  2.8426
 8291SOL    MW432932   3.215   4.519   2.017 -0.1662 -0.0849  0.3402
 8292SOL     OW32933   1.044   2.491   4.741  0.0603 -0.6065 -0.1526
 8292SOL    HW232934   1.053   2.505   4.835  0.5374 -2.8998  0.1926
 8292SOL    HW332935   1.062   2.577   4.703  0.2500  0.2856  1.8111
 8292SOL    MW432936   1.048   2.504   4.748  0.1483 -0.7914  0.1520
 8293SOL     OW32937   0.763   5.470   5.635  0.0630  0.4217 -0.2026
 8293SOL    HW232938   0.715   5.410   5.578  0.9528  0.3254 -0.8706
 8293SOL    HW332939   0.698   5.534   5.662 -0.5519  0.0242 -0.7052
 8293SOL    MW432940   0.748   5.470   5.631  0.0993  0.3566 -0.3570
 8294SOL     OW32941   3.990   5.971   5.767  0.0679 -0.2206 -0.6132
 8294SOL    HW232942   4.004   6.064   5.752  2.0561 -0.7365 -2.5144
 8294SOL    HW332943   4.078   5.936   5.782 -0.7840 -1.5951  1.5746
 8294SOL    MW432944   4.004   5.978   5.767  0.2178 -0.4700 -0.5754
 8295SOL     OW32945   6.050   4.954   4.672  0.4182  0.4113  0.2072
 8295SOL    HW232946   6.135   4.995   4.687  1.0641  0.3875 -2.6880
 8295SOL    HW332947   6.019   4.993   4.590 -1.9409 -0.2630  0.7054
 8295SOL    MW432948   6.057   4.964   4.663  0.1922  0.3192 -0.1091
 8296SOL     OW32949   1.118   1.679   4.022  0.6908  0.4547 -0.7704
 8296SOL    HW232950   1.205   1.656   4.056 -0.0678  1.6821  2.3782
 8296SOL    HW332951   1.100   1.765   4.061 -2.1952 -0.0447 -0.8458
 8296SOL    MW432952   1.127   1.687   4.031  0.2099  0.5508 -0.3649
 8297SOL     OW32953   0.450   2.016   1.060 -0.5512  0.2492  0.1308
 8297SOL    HW232954   0.452   2.080   0.989 -2.1092 -1.0777 -1.2305
 8297SOL    HW332955   0.534   1.972   1.056  0.2200  1.6351  0.5684
 8297SOL    MW432956   0.461   2.018   1.050 -0.6550  0.2570  0.0089
 8298SOL     OW32957   1.610   2.201   4.727 -0.5730  0.6177  0.4103
 8298SOL    HW232958   1.591   2.185   4.635 -0.8094  0.2180  0.5225
 8298SOL    HW332959   1.684   2.145   4.747 -1.0531  0.0601  0.6693
 8298SOL    MW432960   1.617   2.192   4.718 -0.6676  0.4914  0.4593
 8299SOL     OW32961   4.643   2.340   1.780  0.2080  0.1046  0.2734
 8299SOL    HW232962   4.569   2.375   1.729  1.2228 -1.4547 -2.5238
 8299SOL    HW332963   4.602   2.286   1.848 -1.2597  0.0646 -0.5944
 8299SOL    MW432964   4.628   2.337   1.782  0.1483 -0.1064 -0.2101
 8300SOL     OW32965   3.027   5.544   1.305  0.2759  0.3262 -0.6485
 8300SOL    HW232966   2.958   5.519   1.366  2.0003 -0.5107  1.0857
 8300SOL    HW332967   3.016   5.638   1.291  0.5871  0.8354  2.0616
 8300SOL    MW432968   3.017   5.553   1.311  0.5445  0.2830 -0.0621
 8301SOL     OW32969   3.257   5.155   0.674 -0.0785 -0.0300  0.0593
 8301SOL    HW232970   3.230   5.196   0.592  0.1726  0.5545  0.2619
 8301SOL    HW332971   3.191   5.183   0.738  0.9109  1.3201  0.5324
 8301SOL    MW432972   3.245   5.164   0.671  0.0852  0.2252  0.1484
 8302SOL     OW32973   0.432   2.700   2.904  0.0854 -0.2761 -0.1939
 8302SOL    HW232974   0.350   2.651   2.911 -0.4551  0.5601 -0.5588
 8302SOL    HW332975   0.465   2.680   2.817  1.3180 -2.1922  0.6554
 8302SOL    MW432976   0.426   2.691   2.894  0.1768 -0.4185 -0.1300
 8303SOL     OW32977   6.245   5.576   4.635 -0.1943 -0.3902 -0.3332
 8303SOL    HW232978   6.193   5.546   4.710 -1.3596  0.0064 -0.9624
 8303SOL    HW332979   6.272   5.495   4.591 -0.1108 -0.6021  0.0973
 8303SOL    MW432980   6.242   5.561   4.639 -0.3370 -0.3659 -0.3594
 8304SOL     OW32981   4.593   5.966   6.270  0.1022  0.0203 -0.6096
 8304SOL    HW232982   4.628   6.039   6.219 -0.2035 -1.3559 -2.8913
 8304SOL    HW332983   4.638   5.889   6.237 -0.4036 -0.9993  0.9546
 8304SOL    MW432984   4.603   5.965   6.259 -0.0048 -0.2958 -0.7043
 8305SOL     OW32985   2.297   1.208   2.280 -0.3355  0.0717  0.3137
 8305SOL    HW232986   2.205   1.184   2.276 -0.2233 -0.3234 -2.4901
 8305SOL    HW332987   2.340   1.135   2.325 -1.3197  0.0420  1.2167
 8305SOL    MW432988   2.291   1.195   2.285 -0.4505  0.0157  0.0629
 8306SOL     OW32989   3.002   5.609   2.608  0.1637  0.0721 -0.0923
 8306SOL    HW232990   3.080   5.622   2.662  1.0480  0.8373 -1.4748
 8306SOL    HW332991   3.027   5.540   2.546 -0.6324 -0.3973  0.0924
 8306SOL    MW432992   3.015   5.602   2.607  0.1754  0.1112 -0.2503
 8307SOL     OW32993   4.889   4.108   0.946  0.4626  0.3406 -0.3084
 8307SOL    HW232994   4.977   4.145   0.951  0.8448 -0.5837  0.1752
 8307SOL    HW332995   4.898   4.032   0.890  0.1593 -0.2277  0.3904
 8307SOL    MW432996   4.902   4.103   0.940  0.4730  0.1437 -0.1524
 8308SOL     OW32997   0.350   5.873   5.293  0.5311  0.1602 -0.3452
 8308SOL    HW232998   0.400   5.951   5.315 -0.6464  0.4831  1.3809
 8308SOL    HW332999   0.269   5.881   5.342  0.0353 -1.7736 -0.7424
 8308SOL    MW433000   0.346   5.884   5.302  0.3103 -0.0523 -0.1699
 8309SOL     OW33001   5.939   3.048   2.862  0.0335 -0.0669 -0.3437
 8309SOL    HW233002   5.858   3.089   2.830  0.5624  1.2072 -0.0563
 8309SOL    HW333003   6.009   3.106   2.834  0.7194 -0.2286  0.9757
 8309SOL    MW433004   5.937   3.061   2.854  0.1938  0.0798 -0.1317
 8310SOL     OW33005   6.083   5.914   3.593 -0.1022 -0.1163 -0.5777
 8310SOL    HW233006   5.994   5.879   3.587 -1.0123  2.0645 -0.7820
 8310SOL    HW333007   6.135   5.858   3.535 -1.2986 -1.5022 -0.3584
 8310SOL    MW433008   6.078   5.902   3.585 -0.3801 -0.0114 -0.5757
 8311SOL     OW33009   3.526   6.300   3.090 -0.5625  0.1582 -0.4251
 8311SOL    HW233010   3.614   6.264   3.103 -0.2118  0.7576 -1.0646
 8311SOL    HW333011   3.478   6.230   3.046 -0.2526  0.0175 -0.5450
 8311SOL    MW433012   3.531   6.286   3.086 -0.4754  0.2187 -0.5253
 8312SOL     OW33013   0.241   0.041   5.542  0.6166 -0.1020  0.3863
 8312SOL    HW233014   0.307   0.107   5.559 -0.1678  0.7114  0.3690
 8312SOL    HW333015   0.180   0.048   5.615  0.0297 -0.1648 -0.0846
 8312SOL    MW433016   0.241   0.051   5.554  0.4357 -0.0029  0.3219
 8313SOL     OW33017   0.426   4.654   4.453  0.1793  0.6238  0.0542
 8313SOL    HW233018   0.471   4.738   4.455  0.3948  0.5122 -0.1119
 8313SOL    HW333019   0.491   4.593   4.418 -0.3058  0.5847 -0.8015
 8313SOL    MW433020   0.440   4.657   4.449  0.1437  0.6039 -0.0806
 8314SOL     OW33021   1.853   3.604   0.415  0.0746 -0.5619 -0.0170
 8314SOL    HW233022   1.867   3.515   0.447  1.0430 -0.8848 -1.2729
 8314SOL    HW333023   1.807   3.593   0.332 -1.4239  0.2150  0.6696
 8314SOL    MW433024   1.849   3.591   0.408  0.0047 -0.5020 -0.0921
 8315SOL     OW33025   3.196   5.700   5.358  0.3833 -0.8330 -0.0524
 8315SOL    HW233026   3.179   5.793   5.345 -0.8238 -1.1680 -1.0150
 8315SOL    HW333027   3.126   5.670   5.416 -0.5170 -1.5702 -1.4791
 8315SOL    MW433028   3.185   5.708   5.364  0.1053 -0.9745 -0.3676
 8316SOL     OW33029   1.706   0.085   5.748 -0.0364  0.1022  0.0898
 8316SOL    HW233030   1.730   0.074   5.840  1.3968  0.8402 -0.1637
 8316SOL    HW333031   1.612   0.068   5.745 -0.6047  2.3288  2.0967
 8316SOL    MW433032   1.697   0.081   5.759  0.0777  0.4933  0.3211
 8317SOL     OW33033   1.662   5.870   5.304 -0.2206  0.4538 -0.4180
 8317SOL    HW233034   1.704   5.784   5.303  1.1157  1.0853 -0.5589
 8317SOL    HW333035   1.725   5.927   5.350 -1.4475  1.1853  0.4153
 8317SOL    MW433036   1.676   5.867   5.310 -0.2062  0.6336 -0.3266
 8318SOL     OW33037   4.850   6.378   2.842 -0.2337 -0.0500  0.4745
 8318SOL    HW233038   4.831   6.436   2.768 -0.0056  0.2557  0.6533
 8318SOL    HW333039   4.916   6.317   2.810  0.3190  0.4691  0.6062
 8318SOL    MW433040   4.856   6.378   2.828 -0.1307  0.0589  0.5155
 8319SOL     OW33041   6.150   0.910   0.874 -0.4642  0.0241 -0.3182
 8319SOL    HW233042   6.159   0.895   0.780 -2.7634 -0.0430 -0.5934
 8319SOL    HW333043   6.185   0.831   0.914 -0.0854 -0.2409 -1.1435
 8319SOL    MW433044   6.156   0.898   0.867 -0.7176 -0.0197 -0.4634
 8320SOL     OW33045   5.042   5.060   2.467  0.6087 -0.1338  0.5205
 8320SOL    HW233046   5.047   5.156   2.464  0.7921 -0.1500  0.2285
 8320SOL    HW333047   5.085   5.036   2.549  1.3126 -0.0118  0.1951
 8320SOL    MW433048   5.048   5.070   2.477  0.7258 -0.1199  0.4390
 8321SOL     OW33049   2.123   3.092   5.853  0.2798  1.0736  0.4337
 8321SOL    HW233050   2.143   3.025   5.788  1.6121  1.0436  0.8488
 8321SOL    HW333051   2.180   3.166   5.831  0.2378  1.3282  1.1438
 8321SOL    MW433052   2.133   3.093   5.842  0.4500  1.1033  0.5822
 8322SOL     OW33053   1.262   3.924   5.858  0.0559  0.0022 -0.1521
 8322SOL    HW233054   1.237   3.838   5.825 -2.2213  0.7109 -0.5018
 8322SOL    HW333055   1.202   3.985   5.814  1.4449  1.7584  0.2485
 8322SOL    MW433056   1.251   3.921   5.848 -0.0613  0.3274 -0.1454
 8323SOL     OW33057   1.690   4.725   6.263  0.1289 -0.3904 -0.0915
 8323SOL    HW233058   1.612   4.695   6.216 -0.4597 -1.0423  1.2392
 8323SOL    HW333059   1.693   4.669   6.341 -0.4913  2.3458  2.0556
 8323SOL    MW433060   1.680   4.714   6.267 -0.0306 -0.1154  0.3673
 8324SOL     OW33061   0.909   4.912   5.889  0.1967 -0.3926 -0.2385
 8324SOL    HW233062   0.994   4.870   5.872  0.7654  0.8233 -0.4641
 8324SOL    HW333063   0.855   4.887   5.814  0.5432 -0.6783 -0.3977
 8324SOL    MW433064   0.913   4.903   5.876  0.3174 -0.2699 -0.2893
 8325SOL     OW33065   5.565   4.538   1.639 -0.0577 -0.4551 -0.4122
 8325SOL    HW233066   5.591   4.445   1.642 -0.6253 -0.6500 -1.1685
 8325SOL    HW333067   5.634   4.580   1.587 -0.6488 -0.7645 -1.4660
 8325SOL    MW433068   5.578   4.531   1.633 -0.2106 -0.5216 -0.6511
 8326SOL     OW33069   2.968   4.369   2.089 -0.5119 -0.0447  0.1756
 8326SOL    HW233070   3.000   4.295   2.141  1.2160 -0.0899 -0.8772
 8326SOL    HW333071   3.029   4.440   2.108 -0.2892  0.1532 -1.1601
 8326SOL    MW433072   2.980   4.368   2.098 -0.2545 -0.0246 -0.1395
 8327SOL     OW33073   5.676   5.753   2.351 -0.2274  0.2004 -0.2312
 8327SOL    HW233074   5.770   5.741   2.336 -0.4297  0.9275 -2.5021
 8327SOL    HW333075   5.665   5.742   2.445  2.6858  3.3540  0.7043
 8327SOL    MW433076   5.687   5.750   2.361  0.1303  0.7124 -0.4074
 8328SOL     OW33077   3.357   3.669   4.347 -0.0224 -0.0116  0.3143
 8328SOL    HW233078   3.359   3.764   4.334 -1.1117  0.1897  1.3894
 8328SOL    HW333079   3.390   3.633   4.265  2.9909  1.3006  0.8212
 8328SOL    MW433080   3.361   3.677   4.334  0.2315  0.1881  0.5230
 8329SOL     OW33081   4.613   1.985   2.430  0.1402 -0.2664  0.0667
 8329SOL    HW233082   4.562   1.905   2.425 -0.9473  0.2647  1.7027
 8329SOL    HW333083   4.704   1.956   2.435 -0.1549 -1.3345 -0.6383
 8329SOL    MW433084   4.619   1.971   2.430 -0.0423 -0.3373  0.1896
 8330SOL     OW33085   2.473   2.784   4.560  0.4625  0.3835  0.0451
 8330SOL    HW233086   2.491   2.772   4.467 -0.7609 -0.1582 -0.1513
 8330SOL    HW333087   2.436   2.871   4.566  0.4362  0.3750  0.0075
 8330SOL    MW433088   2.471   2.794   4.548  0.2976  0.3109  0.0142
 8331SOL     OW33089   1.848   3.557   2.910  0.3404 -0.0453  0.0450
 8331SOL    HW233090   1.800   3.528   2.832 -1.8299  1.1117  0.8620
 8331SOL    HW333091   1.938   3.529   2.895 -0.4484 -1.7789 -1.8804
 8331SOL    MW433092   1.854   3.549   2.898 -0.0500 -0.1213 -0.1012
 8332SOL     OW33093   1.191   4.252   3.325  0.2723 -0.0433 -0.0658
 8332SOL    HW233094   1.278   4.274   3.292  0.6387  0.3520  1.1061
 8332SOL    HW333095   1.186   4.157   3.318 -0.1562  0.1070 -2.3872
 8332SOL    MW433096   1.202   4.243   3.320  0.2641  0.0287 -0.2175
 8333SOL     OW33097   0.543   2.027   5.565  0.3223 -0.1451 -0.2347
 8333SOL    HW233098   0.497   2.054   5.486  0.7483 -0.4117 -0.5810
 8333SOL    HW333099   0.498   1.947   5.593  0.7608 -0.5816 -0.7507
 8333SOL    MW433100   0.531   2.020   5.558  0.4364 -0.2379 -0.3484
 8334SOL     OW33101   0.981   1.592   5.211  0.2943  0.0450 -0.6752
 8334SOL    HW233102   0.910   1.553   5.159 -0.6345  0.4706  0.2310
 8334SOL    HW333103   1.040   1.519   5.229  2.1695  0.3396 -4.5783
 8334SOL    MW433104   0.979   1.577   5.206  0.4192  0.1401 -1.0706
 8335SOL     OW33105   2.534   1.475   1.114 -0.2495  0.0225 -0.1247
 8335SOL    HW233106   2.453   1.524   1.106 -0.9997 -1.1426  0.1012
 8335SOL    HW333107   2.578   1.513   1.190 -0.6280  0.6089 -0.1996
 8335SOL    MW433108   2.529   1.486   1.123 -0.3984 -0.0538 -0.1048
 8336SOL     OW33109   5.332   4.108   2.488 -0.1088  0.2641  0.1858
 8336SOL    HW233110   5.263   4.041   2.495  0.2223 -0.2806 -1.3718
 8336SOL    HW333111   5.382   4.082   2.411  0.6108  1.7971  0.1121
 8336SOL    MW433112   5.329   4.096   2.479  0.0298  0.3945 -0.0294
 8337SOL     OW33113   1.096   0.794   2.421 -0.5048  0.4002  0.3261
 8337SOL    HW233114   1.059   0.746   2.495 -1.2948  0.3420 -0.0999
 8337SOL    HW333115   1.167   0.846   2.460  0.9892 -1.7339  0.6674
 8337SOL    MW433116   1.101   0.795   2.436 -0.4119  0.1110  0.3149
 8338SOL     OW33117   1.712   5.745   3.520  0.0421  0.2576 -0.1372
 8338SOL    HW233118   1.650   5.806   3.479  0.5994  0.1250 -1.2342
 8338SOL    HW333119   1.664   5.662   3.526 -0.8339  0.8455  1.6703
 8338SOL    MW433120   1.698   5.742   3.515  0.0001  0.3176 -0.0434
 8339SOL     OW33121   4.853   4.731   3.642 -0.4011  0.2236  0.6321
 8339SOL    HW233122   4.931   4.771   3.680 -0.5335  1.2330 -0.1362
 8339SOL    HW333123   4.871   4.637   3.645  1.0688  0.4602 -0.0025
 8339SOL    MW433124   4.865   4.724   3.647 -0.2246  0.3880  0.4470
 8340SOL     OW33125   1.229   2.899   5.904  0.5755 -0.2939 -0.5433
 8340SOL    HW233126   1.174   2.961   5.855  0.4658  1.1559  1.3179
 8340SOL    HW333127   1.210   2.814   5.864 -0.4539  0.6385 -2.1628
 8340SOL    MW433128   1.219   2.896   5.892  0.4253  0.0204 -0.5114
 8341SOL     OW33129   5.854   4.515   5.861  0.6157  0.1403  0.6813
 8341SOL    HW233130   5.806   4.563   5.793  0.3398 -0.9550  0.0837
 8341SOL    HW333131   5.893   4.584   5.915  0.0586  1.0403 -0.0239
 8341SOL    MW433132   5.853   4.530   5.859  0.5058  0.1145  0.5094
 8342SOL     OW33133   4.244   6.197   0.814  0.1498 -0.3191  0.1118
 8342SOL    HW233134   4.234   6.118   0.868 -0.6664  0.6253  1.3896
 8342SOL    HW333135   4.168   6.195   0.757  1.0476 -1.3542 -1.1112
 8342SOL    MW433136   4.233   6.186   0.814  0.1605 -0.3311  0.1191
 8343SOL     OW33137   0.822   3.847   3.620  0.2551  0.1306  0.3520
 8343SOL    HW233138   0.829   3.936   3.653 -0.9699 -0.0581  1.1995
 8343SOL    HW333139   0.881   3.844   3.545  1.0724  1.3551  0.9229
 8343SOL    MW433140   0.830   3.858   3.615  0.2013  0.2673  0.5391
 8344SOL     OW33141   2.191   5.419   2.320 -0.0700  0.2013  0.1793
 8344SOL    HW233142   2.195   5.446   2.228  0.5659  0.4097  0.2588
 8344SOL    HW333143   2.195   5.501   2.369  3.9949  0.0334  0.4802
 8344SOL    MW433144   2.192   5.433   2.314  0.5502  0.2067  0.2295
 8345SOL     OW33145   5.547   2.386   1.589  0.0301 -0.3573  0.4335
 8345SOL    HW233146   5.521   2.395   1.681 -1.9466  2.8733 -0.2563
 8345SOL    HW333147   5.623   2.444   1.580  0.5096 -1.0313  0.1272
 8345SOL    MW433148   5.554   2.395   1.600 -0.1674 -0.0200  0.3021
 8346SOL     OW33149   1.197   3.981   3.270  0.0983 -0.0509  0.0308
 8346SOL    HW233150   1.173   3.971   3.178 -0.0184  0.1895  0.0373
 8346SOL    HW333151   1.283   3.939   3.276 -0.5818 -1.5020  0.1444
 8346SOL    MW433152   1.205   3.974   3.258 -0.0068 -0.2106  0.0466
 8347SOL     OW33153   5.818   1.640   1.746  0.2475 -0.2531 -0.2142
 8347SOL    HW233154   5.896   1.584   1.740  0.7256  0.5186 -1.4112
 8347SOL    HW333155   5.748   1.588   1.706  0.7565  0.0909 -1.5984
 8347SOL    MW433156   5.819   1.625   1.740  0.3777 -0.1059 -0.5548
 8348SOL     OW33157   3.381   3.941   3.962  0.5122 -0.4636  0.2377
 8348SOL    HW233158   3.350   3.942   4.053  0.5729  0.3844  0.2517
 8348SOL    HW333159   3.442   3.867   3.959  1.1374 -0.0046  1.1018
 8348SOL    MW433160   3.385   3.931   3.974  0.6027 -0.2911  0.3535
 8349SOL     OW33161   5.534   3.298   2.612  0.9425  0.4990 -0.3521
 8349SOL    HW233162   5.453   3.275   2.657  1.8333  0.3738  1.2859
 8349SOL    HW333163   5.513   3.292   2.519 -0.4380 -1.3219  0.0193
 8349SOL    MW433164   5.521   3.294   2.606  0.8779  0.2422 -0.0870
 8350SOL     OW33165   0.785   1.408   3.264  0.4261 -0.4247  0.7172
 8350SOL    HW233166   0.855   1.469   3.286  0.1856 -0.3893  1.4000
 8350SOL    HW333167   0.827   1.321   3.267  1.2983 -0.2464 -2.2518
 8350SOL    MW433168   0.800   1.404   3.267  0.5095 -0.3965  0.4156
 8351SOL     OW33169   0.583   3.344   1.406 -0.1667  0.0045 -0.1799
 8351SOL    HW233170   0.507   3.317   1.355 -1.6632  0.8138  1.5120
 8351SOL    HW333171   0.598   3.435   1.380  0.6921 -0.3444 -0.9935
 8351SOL    MW433172   0.575   3.353   1.396 -0.2508  0.0652 -0.0640
 8352SOL     OW33173   1.220   6.327   4.830 -0.0241  0.0415 -0.2326
 8352SOL    HW233174   1.256   6.347   4.917  0.7812 -1.8691 -0.0656
 8352SOL    HW333175   1.295   6.290   4.782 -0.3476  1.4599 -1.9048
 8352SOL    MW433176   1.235   6.325   4.835  0.0395 -0.0234 -0.4312
 8353SOL     OW33177   4.059   1.552   1.168  0.4461  0.4928  0.2573
 8353SOL    HW233178   3.984   1.604   1.199  0.7929  0.6079  0.9178
 8353SOL    HW333179   4.135   1.608   1.185  0.9315 -0.6140  1.9008
 8353SOL    MW433180   4.059   1.566   1.174  0.5559  0.3619  0.5612
 8354SOL     OW33181   0.033   0.600   4.199 -0.7166  0.6041 -0.5383
 8354SOL    HW233182  -0.058   0.627   4.185 -0.3257  1.7741 -0.9971
 8354SOL    HW333183   0.076   0.620   4.116  0.3722  1.9932  0.3080
 8354SOL    MW433184   0.026   0.606   4.186 -0.5214  0.9417 -0.4872
 8355SOL     OW33185   0.763   3.971   1.638  0.3560  0.3121  0.0242
 8355SOL    HW233186   0.797   4.035   1.575 -1.5207  1.1297 -0.2249
 8355SOL    HW333187   0.820   3.895   1.627  1.5485  1.2955 -0.9485
 8355SOL    MW433188   0.775   3.969   1.628  0.2657  0.5497 -0.1370
 8356SOL     OW33189   0.287   5.394   6.152 -0.3431  0.1187  0.6375
 8356SOL    HW233190   0.311   5.303   6.136 -2.3543 -0.0427 -2.4643
 8356SOL    HW333191   0.342   5.444   6.091 -2.3901  0.4264 -1.0775
 8356SOL    MW433192   0.298   5.389   6.142 -0.8786  0.1380  0.0020
 8357SOL     OW33193   5.575   3.788   5.130  0.6222  0.3618 -0.0979
 8357SOL    HW233194   5.583   3.823   5.219 -0.6046 -0.2008  0.2474
 8357SOL    HW333195   5.626   3.707   5.132 -0.1753 -0.1469  0.3881
 8357SOL    MW433196   5.583   3.782   5.142  0.3551  0.2204  0.0118
 8358SOL     OW33197   0.894   6.131   1.200  0.0005 -0.3938 -0.4934
 8358SOL    HW233198   0.822   6.143   1.262 -0.4103  0.2616 -1.0921
 8358SOL    HW333199   0.969   6.108   1.255 -0.0875  1.2409  0.3836
 8358SOL    MW433200   0.895   6.130   1.216 -0.0653 -0.0917 -0.4567
 8359SOL     OW33201   1.001   1.169   1.983  0.4077  0.2035  0.6671
 8359SOL    HW233202   0.965   1.127   1.904  0.6165  1.0249  0.1207
 8359SOL    HW333203   0.934   1.155   2.050 -1.3615  2.3790 -0.5287
 8359SOL    MW433204   0.988   1.161   1.981  0.2018  0.5989  0.4373
 8360SOL     OW33205   1.620   6.406   6.266 -0.3955  0.0757  0.1952
 8360SOL    HW233206   1.611   6.311   6.257 -0.9699  0.2034 -0.7472
 8360SOL    HW333207   1.551   6.431   6.326 -2.5189  0.2855 -2.1919
 8360SOL    MW433208   1.610   6.396   6.273 -0.7514  0.1203 -0.2441
 8361SOL     OW33209   0.081   3.606   3.677 -0.2423 -0.0419 -0.4039
 8361SOL    HW233210   0.021   3.622   3.750 -0.2931 -2.4611  0.1893
 8361SOL    HW333211   0.168   3.616   3.716 -0.2673 -0.1479 -0.3191
 8361SOL    MW433212   0.085   3.609   3.692 -0.2523 -0.3751 -0.3144
 8362SOL     OW33213   3.663   1.884   1.764  0.2295  0.1055 -0.1520
 8362SOL    HW233214   3.712   1.802   1.750  0.0998 -0.1583  0.8842
 8362SOL    HW333215   3.583   1.857   1.808  0.7766  0.9026  1.4292
 8362SOL    MW433216   3.659   1.870   1.768  0.2846  0.1759  0.1934
 8363SOL     OW33217   3.773   4.431   3.916 -0.4098  0.7388 -0.3922
 8363SOL    HW233218   3.723   4.351   3.898  0.5425 -0.0161  0.1787
 8363SOL    HW333219   3.813   4.415   4.001  1.1234  1.1365 -1.0052
 8363SOL    MW433220   3.772   4.418   3.925 -0.0819  0.6916 -0.3977
 8364SOL     OW33221   4.784   3.047   5.761 -0.2934  0.0066 -0.3902
 8364SOL    HW233222   4.710   2.987   5.756 -0.1982 -0.1765  0.3004
 8364SOL    HW333223   4.815   3.040   5.852 -0.1248  0.9067 -0.3672
 8364SOL    MW433224   4.778   3.039   5.773 -0.2586  0.1012 -0.2960
 8365SOL     OW33225   1.928   4.497   2.367  0.3456 -0.0878 -0.2625
 8365SOL    HW233226   1.863   4.558   2.402  0.8365 -0.9031  2.2233
 8365SOL    HW333227   1.911   4.414   2.411  2.4394 -0.5858 -0.2714
 8365SOL    MW433228   1.918   4.494   2.377  0.6866 -0.2610  0.0643
 8366SOL     OW33229   2.409   0.399   0.473  0.1533 -0.4858 -0.5048
 8366SOL    HW233230   2.463   0.479   0.473 -1.5379  0.7328  0.7415
 8366SOL    HW333231   2.346   0.414   0.403 -0.6890 -0.3380  0.2775
 8366SOL    MW433232   2.408   0.412   0.464 -0.1810 -0.3055 -0.2372
 8367SOL     OW33233   5.410   3.328   0.928 -0.2323 -0.3454 -0.0685
 8367SOL    HW233234   5.427   3.418   0.955 -0.0513 -0.5702  0.5843
 8367SOL    HW333235   5.322   3.331   0.890 -0.3384  0.0589  0.1984
 8367SOL    MW433236   5.400   3.341   0.927 -0.2224 -0.3217  0.0528
 8368SOL     OW33237   2.956   5.816   1.264  0.5069 -0.0806  0.3037
 8368SOL    HW233238   2.867   5.835   1.296  0.6473  0.3473  0.4415
 8368SOL    HW333239   2.984   5.897   1.221  0.5303 -0.4781 -0.4440
 8368SOL    MW433240   2.948   5.829   1.263  0.5285 -0.0766  0.2232
 8369SOL     OW33241   5.342   4.424   1.494 -0.3011  0.2585 -0.3464
 8369SOL    HW233242   5.409   4.468   1.545  0.2675  1.5535 -2.0931
 8369SOL    HW333243   5.383   4.343   1.464 -0.1345  0.2053  0.0280
 8369SOL    MW433244   5.356   4.419   1.496 -0.2041  0.4223 -0.5275
 8370SOL     OW33245   5.753   4.512   2.772 -0.1506  0.7776  0.0776
 8370SOL    HW233246   5.670   4.530   2.728 -1.3460  1.9787  2.6092
 8370SOL    HW333247   5.795   4.445   2.718 -2.9806 -0.2218 -1.0627
 8370SOL    MW433248   5.748   4.505   2.759 -0.6817  0.8042  0.2612
 8371SOL     OW33249   4.115   0.161   1.765  0.0020 -0.2876  0.1016
 8371SOL    HW233250   4.139   0.186   1.676 -2.7163  2.0834 -0.1067
 8371SOL    HW333251   4.099   0.244   1.810 -1.2063 -1.4764  2.0033
 8371SOL    MW433252   4.116   0.175   1.759 -0.5160 -0.1316  0.3250
 8372SOL     OW33253   6.146   6.013   2.921  0.0427  0.2074  0.0311
 8372SOL    HW233254   6.090   6.088   2.941  0.8550  0.9191 -0.3087
 8372SOL    HW333255   6.108   5.976   2.841 -1.3097 -0.7350  1.0681
 8372SOL    MW433256   6.134   6.018   2.913 -0.0286  0.1769  0.1231
 8373SOL     OW33257   0.639   0.257   0.286  0.3947 -0.0680 -0.5043
 8373SOL    HW233258   0.609   0.327   0.227 -0.4700  0.8424  0.9370
 8373SOL    HW333259   0.571   0.190   0.280 -0.8547  1.0044  1.0753
 8373SOL    MW433260   0.626   0.258   0.277  0.1158  0.1936 -0.1057
 8374SOL     OW33261   3.260   5.073   1.888  0.1697 -0.2989 -0.0642
 8374SOL    HW233262   3.273   5.167   1.889 -1.8957  0.0440  0.0393
 8374SOL    HW333263   3.238   5.050   1.978 -0.3846 -0.6856 -0.2876
 8374SOL    MW433264   3.259   5.082   1.900 -0.1759 -0.3047 -0.0801
 8375SOL     OW33265   0.806   2.624   4.463 -0.0908  0.1199  0.2235
 8375SOL    HW233266   0.832   2.621   4.371 -3.1159  1.6550 -0.8131
 8375SOL    HW333267   0.787   2.533   4.486  0.7275 -0.2787 -0.6121
 8375SOL    MW433268   0.807   2.611   4.454 -0.3819  0.2699 -0.0235
 8376SOL     OW33269   0.629   2.834   4.306  0.3386 -0.8140  0.2122
 8376SOL    HW233270   0.544   2.805   4.274 -1.2205  2.8124  0.5703
 8376SOL    HW333271   0.626   2.816   4.400  0.2575 -1.3007  0.1196
 8376SOL    MW433272   0.617   2.828   4.314  0.1222 -0.3998  0.2472
 8377SOL     OW33273   3.584   4.253   1.519  0.2079  0.0195  0.3809
 8377SOL    HW233274   3.539   4.305   1.586 -1.0930 -1.1570  0.4818
 8377SOL    HW333275   3.666   4.226   1.561 -0.7242 -0.9605  1.6674
 8377SOL    MW433276   3.589   4.256   1.534 -0.0868 -0.2650  0.5640
 8378SOL     OW33277   4.958   6.200   5.840 -0.3182 -0.3863 -0.1401
 8378SOL    HW233278   4.967   6.147   5.761  0.5259  1.1763 -1.1403
 8378SOL    HW333279   4.876   6.248   5.826 -0.7046 -0.8645  0.4319
 8378SOL    MW433280   4.948   6.199   5.828 -0.2578 -0.2432 -0.1966
 8379SOL     OW33281   3.138   3.480   2.347  0.3870 -0.5944 -0.6038
 8379SOL    HW233282   3.163   3.401   2.395 -1.2230 -0.8028 -0.0587
 8379SOL    HW333283   3.149   3.551   2.410  2.0946 -0.2951 -1.1733
 8379SOL    MW433284   3.143   3.479   2.362  0.3999 -0.5824 -0.6070
 8380SOL     OW33285   0.269   5.240   4.448  0.0193  0.1397 -0.2145
 8380SOL    HW233286   0.310   5.192   4.376  0.4430 -1.7412  1.2049
 8380SOL    HW333287   0.261   5.330   4.415  2.5637 -0.0567 -1.6565
 8380SOL    MW433288   0.273   5.245   4.434  0.4109 -0.1344 -0.2175
 8381SOL     OW33289   0.963   6.019   5.766 -0.3455  0.5392  0.1978
 8381SOL    HW233290   1.033   6.055   5.820  1.5216 -1.1086 -1.0254
 8381SOL    HW333291   0.939   5.937   5.809 -0.3428  0.2773 -0.2900
 8381SOL    MW433292   0.969   6.013   5.779 -0.0988  0.2872 -0.0279
 8382SOL     OW33293   0.839   3.748   4.033 -0.2417 -0.0312  0.1034
 8382SOL    HW233294   0.833   3.815   4.101 -0.6876  0.6455 -0.5891
 8382SOL    HW333295   0.928   3.758   3.997  0.3037 -0.9523  1.1342
 8382SOL    MW433296   0.850   3.758   4.037 -0.2285 -0.0634  0.1481
 8383SOL     OW33297   1.624   1.355   4.309 -0.2716  0.2526  0.1899
 8383SOL    HW233298   1.686   1.322   4.373 -1.7938 -0.2573  1.4795
 8383SOL    HW333299   1.575   1.423   4.356  0.8149  2.2957 -1.5065
 8383SOL    MW433300   1.625   1.360   4.324 -0.3291  0.4549  0.1362
 8384SOL     OW33301   5.184   3.192   6.169  0.2517 -0.1456 -0.5968
 8384SOL    HW233302   5.188   3.212   6.075  0.5219  1.6861 -0.2127
 8384SOL    HW333303   5.254   3.243   6.208 -1.2644  0.8657  0.8938
 8384SOL    MW433304   5.194   3.201   6.161  0.0873  0.2295 -0.3495
 8385SOL     OW33305   1.913   1.709   0.776  0.3323  0.6929 -0.3467
 8385SOL    HW233306   1.837   1.742   0.824  0.7922  1.1360  0.0937
 8385SOL    HW333307   1.887   1.622   0.745 -0.7495  1.2637 -1.1287
 8385SOL    MW433308   1.900   1.702   0.778  0.2502  0.8266 -0.3918
 8386SOL     OW33309   3.537   5.559   3.277  0.1046  0.8127 -0.1708
 8386SOL    HW233310   3.599   5.589   3.343 -0.7484  0.9635  0.5783
 8386SOL    HW333311   3.557   5.612   3.200  0.0607  1.7760  0.4635
 8386SOL    MW433312   3.548   5.570   3.275 -0.0137  0.9597  0.0117
 8387SOL     OW33313   4.247   4.020   0.249 -0.7348  0.8184  0.1014
 8387SOL    HW233314   4.224   4.022   0.342 -1.6287  0.0927 -0.0869
 8387SOL    HW333315   4.342   4.035   0.247 -0.6300  0.3894  1.1629
 8387SOL    MW433316   4.257   4.022   0.261 -0.8389  0.6661  0.2166
 8388SOL     OW33317   4.195   2.712   2.077  0.1519  0.9529 -0.3711
 8388SOL    HW233318   4.227   2.637   2.028 -1.3512  0.4101 -0.5787
 8388SOL    HW333319   4.247   2.713   2.157  0.2708 -0.2414 -0.4211
 8388SOL    MW433320   4.206   2.703   2.081 -0.0308  0.7237 -0.4051
 8389SOL     OW33321   4.391   6.090   3.396 -0.1792 -1.2156  0.1859
 8389SOL    HW233322   4.302   6.086   3.431 -0.2226 -1.2265  0.0755
 8389SOL    HW333323   4.380   6.075   3.302 -0.6300  3.2849 -0.7070
 8389SOL    MW433324   4.377   6.087   3.388 -0.2444 -0.6232  0.0535
 8390SOL     OW33325   4.243   2.488   5.630 -0.3064 -0.0283 -0.0098
 8390SOL    HW233326   4.152   2.496   5.657 -0.2618 -0.8971  0.4351
 8390SOL    HW333327   4.294   2.512   5.707 -0.1199  2.0021 -0.7160
 8390SOL    MW433328   4.238   2.492   5.643 -0.2759  0.1249 -0.0443
 8391SOL     OW33329   4.341   0.470   1.480 -0.4334 -0.3475  0.3411
 8391SOL    HW233330   4.430   0.449   1.454 -0.1176  2.0622 -0.8618
 8391SOL    HW333331   4.350   0.512   1.566 -0.4904 -0.7901  0.5618
 8391SOL    MW433332   4.354   0.473   1.488 -0.3992 -0.0880  0.2115
 8392SOL     OW33333   2.700   5.524   5.532 -0.1185 -0.3451  0.3650
 8392SOL    HW233334   2.693   5.428   5.528  1.0284 -0.6456  3.1406
 8392SOL    HW333335   2.626   5.552   5.585  1.2486 -0.1005  2.2442
 8392SOL    MW433336   2.689   5.515   5.538  0.2132 -0.3525  0.9791
 8393SOL     OW33337   1.989   3.411   4.648  0.0634  0.5417 -0.2793
 8393SOL    HW233338   2.077   3.431   4.617 -0.0478  1.8042  0.1727
 8393SOL    HW333339   1.962   3.489   4.697 -0.5643 -0.5535  1.2074
 8393SOL    MW433340   1.997   3.424   4.650 -0.0341  0.5637 -0.0235
 8394SOL     OW33341   4.314   4.021   4.299  0.3387  0.6267 -0.3896
 8394SOL    HW233342   4.403   3.986   4.301  0.5445  1.0280 -1.5938
 8394SOL    HW333343   4.323   4.111   4.330  0.1300  0.2435  0.7942
 8394SOL    MW433344   4.327   4.028   4.303  0.3383  0.6291 -0.3923
 8395SOL     OW33345   1.623   3.832   1.962  0.4651  0.4236 -0.8065
 8395SOL    HW233346   1.596   3.894   1.894 -2.2203 -0.9442 -1.1290
 8395SOL    HW333347   1.636   3.749   1.916  1.6203  0.1565 -0.0512
 8395SOL    MW433348   1.621   3.829   1.947  0.2632  0.2079 -0.7494
 8396SOL     OW33349   2.085   4.815   5.096  0.5227 -0.8899 -0.4636
 8396SOL    HW233350   2.158   4.873   5.075 -0.6064  0.5264 -0.6655
 8396SOL    HW333351   2.021   4.831   5.027 -0.7027 -0.7697  0.6658
 8396SOL    MW433352   2.086   4.825   5.084  0.2120 -0.6872 -0.3412
 8397SOL     OW33353   3.798   0.337   1.772 -0.1902  0.6161 -0.1625
 8397SOL    HW233354   3.876   0.358   1.823  0.3350 -0.5314 -0.4590
 8397SOL    HW333355   3.796   0.405   1.704 -0.5691  1.8030  1.0011
 8397SOL    MW433356   3.808   0.349   1.769 -0.1709  0.6213 -0.0481
 8398SOL     OW33357   1.976   0.577   0.370  0.3759  0.2731 -0.2915
 8398SOL    HW233358   2.064   0.603   0.398  0.4375 -0.2290 -0.0146
 8398SOL    HW333359   1.982   0.572   0.275  0.7555 -0.1483 -0.2475
 8398SOL    MW433360   1.988   0.580   0.361  0.4341  0.1513 -0.2491
 8399SOL     OW33361   4.910   2.112   4.201 -0.0293 -0.5698  0.0617
 8399SOL    HW233362   4.855   2.140   4.274  0.8886  0.4023  0.4019
 8399SOL    HW333363   4.871   2.153   4.124  0.7688  0.9536  0.4342
 8399SOL    MW433364   4.897   2.121   4.201  0.1971 -0.2406  0.1557
 8400SOL     OW33365   2.316   3.407   1.287  0.1489 -0.3558 -0.5411
 8400SOL    HW233366   2.380   3.442   1.350  1.5572  1.3423 -2.7706
 8400SOL    HW333367   2.234   3.451   1.311  0.7787  0.6699 -0.1816
 8400SOL    MW433368   2.314   3.418   1.299  0.4178  0.0036 -0.7879
 8401SOL     OW33369   4.614   3.986   4.244 -0.6096  0.0514  0.0358
 8401SOL    HW233370   4.598   3.896   4.273  0.8212 -0.5861 -1.0115
 8401SOL    HW333371   4.709   3.992   4.237 -0.7444  1.2812 -1.0435
 8401SOL    MW433372   4.625   3.975   4.247 -0.4386  0.1296 -0.2448
 8402SOL     OW33373   0.811   1.994   1.603 -0.1589 -0.0537 -0.3189
 8402SOL    HW233374   0.893   1.993   1.553 -0.5450  0.0302 -0.9611
 8402SOL    HW333375   0.742   1.990   1.537 -0.6983  0.9420  0.1611
 8402SOL    MW433376   0.813   1.994   1.588 -0.2810  0.0887 -0.3403
 8403SOL     OW33377   2.053   3.165   0.293  0.1332  0.4996  0.3546
 8403SOL    HW233378   2.119   3.104   0.326  0.3965  0.0792 -0.8659
 8403SOL    HW333379   2.105   3.239   0.259 -0.0704  0.5787  0.2151
 8403SOL    MW433380   2.069   3.167   0.293  0.1411  0.4546  0.1752
 8404SOL     OW33381   3.102   4.092   5.426 -0.3919  0.3405 -0.0368
 8404SOL    HW233382   3.009   4.116   5.427 -0.5824  0.1632 -3.0458
 8404SOL    HW333383   3.103   3.997   5.429 -0.5719  0.1796 -2.4888
 8404SOL    MW433384   3.090   4.083   5.426 -0.4408  0.2959 -0.7573
 8405SOL     OW33385   0.321   1.609   0.869 -0.2309  0.1025  0.0416
 8405SOL    HW233386   0.281   1.696   0.875  0.6962  0.5727 -0.3877
 8405SOL    HW333387   0.397   1.614   0.926 -0.6209 -0.6990  0.6412
 8405SOL    MW433388   0.326   1.621   0.877 -0.1600  0.0588  0.0641
 8406SOL     OW33389   5.120   1.799   4.464  0.0147 -0.2969  0.1294
 8406SOL    HW233390   5.196   1.742   4.477  0.3631 -0.2468 -1.4721
 8406SOL    HW333391   5.150   1.885   4.493  0.1827 -0.5047  0.5888
 8406SOL    MW433392   5.134   1.803   4.469  0.0828 -0.3177 -0.0213
 8407SOL     OW33393   2.831   5.106   1.402 -0.2822  0.3004  0.3433
 8407SOL    HW233394   2.816   5.198   1.424 -1.2989  0.1606  0.2847
 8407SOL    HW333395   2.787   5.093   1.318  0.7857  0.0214 -0.1889
 8407SOL    MW433396   2.823   5.116   1.394 -0.2754  0.2452  0.2654
 8408SOL     OW33397   1.646   2.689   2.786  0.2853  0.4496 -0.7113
 8408SOL    HW233398   1.625   2.699   2.879  0.2416  0.4030 -0.7159
 8408SOL    HW333399   1.740   2.703   2.781  0.9697 -2.9860 -0.1465
 8408SOL    MW433400   1.655   2.692   2.798  0.3699 -0.0098 -0.6374
 8409SOL     OW33401   6.349   3.631   3.894  0.3924 -0.3635  0.7589
 8409SOL    HW233402   6.265   3.675   3.908 -0.7885 -2.2734 -0.0209
 8409SOL    HW333403   6.370   3.592   3.979  1.5036  1.6531  1.4900
 8409SOL    MW433404   6.340   3.632   3.907  0.3832 -0.3494  0.7525
 8410SOL     OW33405   3.926   1.537   6.309  0.0374 -0.4213  0.5351
 8410SOL    HW233406   4.000   1.595   6.295 -0.6098  0.1721 -0.5828
 8410SOL    HW333407   3.884   1.569   6.388  0.4134 -0.1655  0.6330
 8410SOL    MW433408   3.930   1.549   6.318  0.0016 -0.3093  0.4006
 8411SOL     OW33409   4.927   2.003   2.035  0.2259  0.0662  0.4845
 8411SOL    HW233410   4.869   2.077   2.050  1.2143  1.0876 -0.5454
 8411SOL    HW333411   4.917   1.982   1.943  2.6029  1.3305 -0.1581
 8411SOL    MW433412   4.918   2.010   2.025  0.6699  0.3678  0.2638
 8412SOL     OW33413   0.877   0.404   0.738  1.1553  0.0314  0.6147
 8412SOL    HW233414   0.941   0.434   0.674 -0.2491  1.4950 -0.1778
 8412SOL    HW333415   0.918   0.422   0.823  2.1057  0.2141  0.1313
 8412SOL    MW433416   0.891   0.411   0.741  1.0954  0.2486  0.4464
 8413SOL     OW33417   1.159   5.557   4.722  0.5832 -0.2040 -0.1687
 8413SOL    HW233418   1.237   5.518   4.684  0.3106 -0.5100 -0.4172
 8413SOL    HW333419   1.086   5.512   4.680  0.2592  0.7833 -0.7006
 8413SOL    MW433420   1.160   5.546   4.711  0.5045 -0.1141 -0.2717
 8414SOL     OW33421   6.091   5.522   5.405  0.2204 -0.3691 -0.5878
 8414SOL    HW233422   6.132   5.551   5.324  0.8459 -0.7875 -0.4221
 8414SOL    HW333423   6.092   5.600   5.461  1.8309 -0.6567 -0.1757
 8414SOL    MW433424   6.096   5.536   5.402  0.5154 -0.4623 -0.5116
 8415SOL     OW33425   3.219   5.254   0.421 -0.5070 -0.1118  0.4613
 8415SOL    HW233426   3.307   5.271   0.388  0.0258 -2.6520  0.3871
 8415SOL    HW333427   3.162   5.302   0.361  0.7710  4.4036  2.3917
 8415SOL    MW433428   3.223   5.263   0.409 -0.2681  0.1488  0.7062
 8416SOL     OW33429   6.266   2.177   4.862  0.0857  0.4342  0.8180
 8416SOL    HW233430   6.256   2.237   4.787  0.8078 -0.1167  0.2602
 8416SOL    HW333431   6.352   2.136   4.848 -1.5073 -2.8992 -0.4478
 8416SOL    MW433432   6.276   2.179   4.850 -0.0292 -0.0783  0.5774
 8417SOL     OW33433   0.922   0.478   1.399 -0.5654  0.0245 -0.6742
 8417SOL    HW233434   0.903   0.469   1.492 -1.2118  0.0136 -0.8016
 8417SOL    HW333435   1.008   0.437   1.388 -0.9745 -0.9830 -0.2794
 8417SOL    MW433436   0.931   0.471   1.410 -0.7046 -0.1099 -0.6389
 8418SOL     OW33437   6.043   1.656   1.447  0.5149 -0.2811 -0.2508
 8418SOL    HW233438   6.035   1.614   1.532 -1.3638  0.6650  0.0971
 8418SOL    HW333439   6.029   1.749   1.465 -1.0585 -0.1820 -1.6842
 8418SOL    MW433440   6.040   1.663   1.460  0.0595 -0.1432 -0.3941
 8419SOL     OW33441   6.028   3.945   0.481  0.0021  0.8128  0.8871
 8419SOL    HW233442   5.969   4.018   0.502  1.0803  2.9432 -2.5214
 8419SOL    HW333443   5.980   3.894   0.415  0.9324  1.1384 -0.0804
 8419SOL    MW433444   6.014   3.948   0.475  0.2671  1.1369  0.3097
 8420SOL     OW33445   1.384   1.236   2.538 -0.1503  0.3552 -0.1293
 8420SOL    HW233446   1.304   1.287   2.549 -0.4930 -0.3649  0.9618
 8420SOL    HW333447   1.411   1.251   2.448 -1.6588  0.4207 -0.5879
 8420SOL    MW433448   1.377   1.245   2.528 -0.3945  0.2688 -0.0458
 8421SOL     OW33449   3.326   4.668   1.700 -0.0533  0.0345  0.0335
 8421SOL    HW233450   3.388   4.739   1.717  1.8776 -1.5651 -0.0150
 8421SOL    HW333451   3.380   4.588   1.700 -1.4150 -1.1018 -3.8265
 8421SOL    MW433452   3.341   4.667   1.702  0.0218 -0.3264 -0.4822
 8422SOL     OW33453   1.322   6.292   1.237  0.2906  0.2798  0.4814
 8422SOL    HW233454   1.373   6.330   1.309  0.4131 -1.0857  1.1419
 8422SOL    HW333455   1.262   6.232   1.280 -1.7598  1.6633 -0.2923
 8422SOL    MW433456   1.321   6.289   1.252  0.0362  0.2822  0.4664
 8423SOL     OW33457   4.388   5.445   0.179  0.0381 -0.5585  0.3278
 8423SOL    HW233458   4.463   5.500   0.157 -1.7983  0.6011 -4.1550
 8423SOL    HW333459   4.329   5.503   0.227 -0.5589  0.5890 -1.6733
 8423SOL    MW433460   4.390   5.460   0.182 -0.2830 -0.2541 -0.5277
 8424SOL     OW33461   6.018   0.480   5.253 -0.4316 -0.3663 -0.4368
 8424SOL    HW233462   5.939   0.426   5.260 -0.4369 -0.3238 -0.1761
 8424SOL    HW333463   5.989   0.568   5.276 -0.1335 -0.4993  0.4882
 8424SOL    MW433464   6.004   0.485   5.257 -0.3930 -0.3782 -0.2803
 8425SOL     OW33465   0.178   3.362   4.777  0.2973 -0.6538 -0.4392
 8425SOL    HW233466   0.125   3.441   4.772  1.9425  0.4995 -0.5383
 8425SOL    HW333467   0.184   3.343   4.870  0.2792 -0.3770 -0.3800
 8425SOL    MW433468   0.172   3.370   4.788  0.5120 -0.4651 -0.4445
 8426SOL     OW33469   4.246   3.743   1.302 -0.3289  0.2812  0.2288
 8426SOL    HW233470   4.162   3.701   1.286 -0.4055 -0.5951  2.6172
 8426SOL    HW333471   4.226   3.818   1.358  0.4184  0.3428  0.4293
 8426SOL    MW433472   4.232   3.747   1.307 -0.2404  0.1737  0.5704
 8427SOL     OW33473   4.053   1.542   2.115 -0.6218  0.0071  0.2729
 8427SOL    HW233474   3.988   1.587   2.061 -0.3720  0.0366 -0.0079
 8427SOL    HW333475   4.122   1.517   2.053 -0.9663 -1.1721  0.3299
 8427SOL    MW433476   4.053   1.544   2.099 -0.6343 -0.1446  0.2434
 8428SOL     OW33477   4.721   0.944   3.392 -0.2047 -0.2168 -0.1030
 8428SOL    HW233478   4.678   0.863   3.365 -0.8348 -0.3803  1.3384
 8428SOL    HW333479   4.751   0.983   3.310 -2.1088 -0.6550 -1.0580
 8428SOL    MW433480   4.720   0.938   3.377 -0.5391 -0.2962 -0.0388
 8429SOL     OW33481   1.081   0.709   5.909 -0.3829 -0.1567  0.1242
 8429SOL    HW233482   1.047   0.647   5.974  1.3157  0.4373  1.6502
 8429SOL    HW333483   1.113   0.654   5.838 -0.2345 -0.9456  0.7885
 8429SOL    MW433484   1.081   0.694   5.908 -0.1393 -0.1824  0.4132
 8430SOL     OW33485   1.970   0.092   4.501 -0.1265  0.4863 -0.6083
 8430SOL    HW233486   1.940   0.179   4.475 -0.5914  1.5372  2.9381
 8430SOL    HW333487   1.901   0.033   4.470 -0.8999  1.6678 -1.2128
 8430SOL    MW433488   1.957   0.096   4.494 -0.2899  0.7808 -0.2202
 8431SOL     OW33489   3.835   5.598   1.002  0.3587 -0.4928 -0.2273
 8431SOL    HW233490   3.894   5.658   0.957  1.4938 -0.0951  1.6712
 8431SOL    HW333491   3.836   5.627   1.094  0.5497 -3.0562  0.6656
 8431SOL    MW433492   3.843   5.610   1.008  0.5337 -0.7786  0.1410
 8432SOL     OW33493   1.245   3.264   4.844  0.3625 -0.4047 -0.1220
 8432SOL    HW233494   1.229   3.235   4.754  1.1861 -0.2234 -0.3285
 8432SOL    HW333495   1.166   3.312   4.868  0.0495 -0.6432 -0.6664
 8432SOL    MW433496   1.232   3.266   4.836  0.4299 -0.4123 -0.2211
 8433SOL     OW33497   3.182   1.061   0.386  0.3737  0.4478 -0.1951
 8433SOL    HW233498   3.106   1.101   0.429  0.6822 -0.0778  0.8825
 8433SOL    HW333499   3.219   1.004   0.453  0.9477 -0.3171 -1.1487
 8433SOL    MW433500   3.177   1.059   0.401  0.4901  0.2775 -0.1788
 8434SOL     OW33501   1.401   5.129   2.192 -0.2307  0.0167 -0.6416
 8434SOL    HW233502   1.474   5.131   2.253  1.2033  0.9918 -2.2778
 8434SOL    HW333503   1.336   5.189   2.229 -0.2024 -0.8034  0.7898
 8434SOL    MW433504   1.402   5.137   2.205 -0.0378  0.0372 -0.6686
 8435SOL     OW33505   3.957   4.414   5.816 -0.1907  0.0201 -0.1206
 8435SOL    HW233506   3.916   4.329   5.834  0.4279 -0.3238 -0.2864
 8435SOL    HW333507   3.885   4.470   5.786 -0.5044 -0.6205 -0.5911
 8435SOL    MW433508   3.942   4.410   5.815 -0.1505 -0.1098 -0.2045
 8436SOL     OW33509   5.959   4.095   2.938 -0.4323  0.1783  0.2512
 8436SOL    HW233510   5.977   4.129   3.025 -1.1728  0.9897  0.1009
 8436SOL    HW333511   5.893   4.027   2.952  1.0872 -1.3126  0.5577
 8436SOL    MW433512   5.952   4.090   2.951 -0.3295  0.0886  0.2718
 8437SOL     OW33513   1.946   3.872   5.409 -0.7298 -0.6088  0.4738
 8437SOL    HW233514   1.956   3.890   5.316 -1.7789 -1.0318  0.2571
 8437SOL    HW333515   2.008   3.930   5.452 -0.1146 -0.5245 -0.4944
 8437SOL    MW433516   1.955   3.882   5.402 -0.7870 -0.6535  0.3175
 8438SOL     OW33517   0.086   3.318   4.503  0.0316 -0.4589  0.6391
 8438SOL    HW233518   0.066   3.411   4.493  1.7949  0.0128  1.0608
 8438SOL    HW333519   0.160   3.317   4.563  1.4663 -1.9801 -1.0553
 8438SOL    MW433520   0.093   3.330   4.510  0.4535 -0.5974  0.4712
 8439SOL     OW33521   3.453   0.583   0.612 -0.1998 -0.0335  0.0826
 8439SOL    HW233522   3.497   0.668   0.621  0.5360 -0.3234 -0.6788
 8439SOL    HW333523   3.360   0.603   0.622 -0.0801  0.9608 -0.6584
 8439SOL    MW433524   3.446   0.597   0.614 -0.0870  0.0595 -0.1156
 8440SOL     OW33525   3.702   1.549   1.889 -0.5607 -0.4038 -0.1823
 8440SOL    HW233526   3.660   1.557   1.975 -1.4685  0.8064 -0.7294
 8440SOL    HW333527   3.632   1.523   1.830 -0.1261 -0.2888 -0.7487
 8440SOL    MW433528   3.688   1.546   1.893 -0.6231 -0.2290 -0.3292
 8441SOL     OW33529   2.376   2.408   6.037  0.1266 -0.0888 -0.1241
 8441SOL    HW233530   2.462   2.440   6.064 -0.7458 -0.3085  3.3914
 8441SOL    HW333531   2.335   2.484   5.996  1.4034  0.5017 -0.3600
 8441SOL    MW433532   2.382   2.423   6.035  0.1800 -0.0399  0.3086
 8442SOL     OW33533   0.928   0.324   4.267 -0.1118 -0.2239 -0.0426
 8442SOL    HW233534   0.873   0.246   4.261 -1.5563  0.4270  2.8398
 8442SOL    HW333535   0.985   0.308   4.342 -1.1158  1.8168  1.2425
 8442SOL    MW433536   0.929   0.312   4.276 -0.4348  0.1312  0.5072
 8443SOL     OW33537   0.027   1.414   4.144 -0.7716  0.0867  0.3355
 8443SOL    HW233538   0.011   1.355   4.218 -1.3710  0.7763  0.7695
 8443SOL    HW333539   0.115   1.448   4.160 -1.1454  0.7298  1.0989
 8443SOL    MW433540   0.037   1.411   4.156 -0.9000  0.2625  0.4935
 8444SOL     OW33541   0.967   0.928   5.994 -0.3316  0.0598  0.2577
 8444SOL    HW233542   1.004   0.849   5.954 -2.9170 -1.9961  1.5473
 8444SOL    HW333543   0.952   0.988   5.921  0.9615 -0.9620 -0.8946
 8444SOL    MW433544   0.970   0.925   5.979 -0.5021 -0.3463  0.2758
 8445SOL     OW33545   0.485   0.795   1.704 -0.0441 -0.5415 -0.1518
 8445SOL    HW233546   0.438   0.801   1.621  0.3628  1.9466 -0.2829
 8445SOL    HW333547   0.569   0.839   1.687 -0.0046  0.1396  1.6040
 8445SOL    MW433548   0.490   0.802   1.691  0.0148 -0.1234  0.0626
 8446SOL     OW33549   3.430   2.944   0.010 -0.3830  0.2685  0.2537
 8446SOL    HW233550   3.484   2.895   0.072 -1.1088  0.5458  1.1192
 8446SOL    HW333551   3.492   2.976  -0.056  0.1890 -1.2754  0.0133
 8446SOL    MW433552   3.446   2.942   0.009 -0.4033  0.1014  0.3362
 8447SOL     OW33553   0.362   1.316   6.298 -0.3697 -0.0434  0.9816
 8447SOL    HW233554   0.305   1.391   6.317 -0.2871  0.2020  0.2808
 8447SOL    HW333555   0.305   1.252   6.257  0.1681  0.8977 -1.3910
 8447SOL    MW433556   0.347   1.317   6.295 -0.2879  0.1132  0.5761
 8448SOL     OW33557   2.179   3.719   6.199 -0.1424  0.7768 -0.1839
 8448SOL    HW233558   2.274   3.723   6.197 -0.1751  2.3581 -0.1419
 8448SOL    HW333559   2.159   3.640   6.249  1.1656  1.4274  1.4611
 8448SOL    MW433560   2.189   3.709   6.205  0.0259  1.0713  0.0387
 8449SOL     OW33561   1.891   3.648   1.586 -0.1550 -0.4830 -0.1420
 8449SOL    HW233562   1.949   3.577   1.613 -0.0806 -1.1004 -1.8545
 8449SOL    HW333563   1.841   3.613   1.513  0.6912  1.5638 -1.8054
 8449SOL    MW433564   1.892   3.634   1.580 -0.0335 -0.2944 -0.5874
 8450SOL     OW33565   2.435   2.156   4.470 -0.0380  0.1548 -0.0893
 8450SOL    HW233566   2.503   2.134   4.407 -0.5042  0.0396 -0.5577
 8450SOL    HW333567   2.353   2.139   4.424 -0.3858 -0.3274  0.6793
 8450SOL    MW433568   2.433   2.151   4.456 -0.1454  0.0760 -0.0497
 8451SOL     OW33569   0.228   0.751   0.744 -0.2055 -0.2083  0.5588
 8451SOL    HW233570   0.257   0.817   0.808  0.4013 -0.9021  1.0196
 8451SOL    HW333571   0.204   0.802   0.667 -0.3690  0.6052  1.1239
 8451SOL    MW433572   0.229   0.766   0.742 -0.1470 -0.1925  0.6941
 8452SOL     OW33573   2.324   0.240   3.235 -0.1415 -0.1915 -0.4380
 8452SOL    HW233574   2.341   0.306   3.168  1.9831 -0.9962 -0.7750
 8452SOL    HW333575   2.359   0.278   3.316 -1.6373  0.2967  0.0012
 8452SOL    MW433576   2.331   0.253   3.237 -0.0585 -0.2333 -0.4245
 8453SOL     OW33577   0.209   5.563   1.877 -0.0103  0.0272  0.1942
 8453SOL    HW233578   0.184   5.475   1.850 -1.6807  1.0103 -1.7313
 8453SOL    HW333579   0.134   5.618   1.852  1.4339  2.1713  0.3073
 8453SOL    MW433580   0.196   5.559   1.870 -0.0401  0.4398 -0.0449
 8454SOL     OW33581   1.896   1.349   0.284  0.2616  0.2047  0.0993
 8454SOL    HW233582   1.959   1.370   0.353 -0.0636  1.5809  0.0112
 8454SOL    HW333583   1.950   1.323   0.209  0.7076  0.8868  0.1797
 8454SOL    MW433584   1.911   1.348   0.283  0.2776  0.4763  0.0983
 8455SOL     OW33585   0.878   0.531   3.171  0.3566  0.3599 -0.1758
 8455SOL    HW233586   0.803   0.502   3.222  1.0707  0.2746  0.8536
 8455SOL    HW333587   0.839   0.576   3.095 -0.7221  0.0740  0.1890
 8455SOL    MW433588   0.863   0.533   3.167  0.3085  0.3109  0.0082
 8456SOL     OW33589   4.791   4.851   0.241 -0.1767  0.5118  0.1021
 8456SOL    HW233590   4.770   4.760   0.223  1.1233 -0.0289  1.1842
 8456SOL    HW333591   4.797   4.856   0.336  1.7853  1.2273 -0.0033
 8456SOL    MW433592   4.789   4.840   0.251  0.2537  0.5349  0.2310
 8457SOL     OW33593   3.331   2.223   1.089 -0.0385 -0.2524 -0.4292
 8457SOL    HW233594   3.354   2.308   1.053  1.7251 -0.5095 -0.0249
 8457SOL    HW333595   3.389   2.161   1.044 -1.0587 -1.2126 -0.4893
 8457SOL    MW433596   3.342   2.226   1.078  0.0596 -0.4130 -0.3837
 8458SOL     OW33597   5.458   2.008   4.551  0.1612 -0.2596  0.4378
 8458SOL    HW233598   5.528   1.987   4.612  0.1916  0.0333  0.5034
 8458SOL    HW333599   5.496   2.071   4.490  0.4241 -1.2902 -0.4809
 8458SOL    MW433600   5.472   2.014   4.551  0.1999 -0.3569  0.3253
 8459SOL     OW33601   5.164   2.759   4.623  0.6204  0.2719 -0.1769
 8459SOL    HW233602   5.171   2.767   4.528  1.0141 -1.0177 -0.2761
 8459SOL    HW333603   5.118   2.838   4.651  1.4007  1.1675 -1.3292
 8459SOL    MW433604   5.159   2.770   4.614  0.7753  0.2199 -0.3420
 8460SOL     OW33605   5.130   0.178   3.187  0.4248  0.9128 -0.4654
 8460SOL    HW233606   5.198   0.183   3.255  0.0962  1.0129 -0.1403
 8460SOL    HW333607   5.082   0.098   3.208  0.3124  0.9543 -0.5694
 8460SOL    MW433608   5.133   0.168   3.199  0.3666  0.9315 -0.4362
 8461SOL     OW33609   4.036   0.762   3.027  0.2105 -0.1141  0.2875
 8461SOL    HW233610   4.117   0.807   3.051  1.1986 -2.6829  2.2436
 8461SOL    HW333611   4.030   0.772   2.932  2.8544  0.1614  0.0810
 8461SOL    MW433612   4.046   0.769   3.017  0.6897 -0.4167  0.5183
 8462SOL     OW33613   2.629   6.405   3.595  0.1621  0.0523  0.6441
 8462SOL    HW233614   2.607   6.331   3.538 -0.1530 -0.4622  1.4132
 8462SOL    HW333615   2.712   6.438   3.560 -0.3422  0.1516 -0.4895
 8462SOL    MW433616   2.637   6.400   3.583  0.0540 -0.0024  0.5960
 8463SOL     OW33617   2.250   6.311   5.110  0.2148  0.6720 -0.3637
 8463SOL    HW233618   2.238   6.401   5.138  0.0703  0.6007 -0.1935
 8463SOL    HW333619   2.299   6.269   5.180 -1.0521  0.2238  0.2978
 8463SOL    MW433620   2.255   6.317   5.123  0.0286  0.6035 -0.2540
 8464SOL     OW33621   1.557   3.173   3.706 -0.0289 -0.1483  0.1461
 8464SOL    HW233622   1.588   3.246   3.761 -1.4916  0.0501  0.7380
 8464SOL    HW333623   1.465   3.163   3.728  0.0375 -1.9414 -0.2188
 8464SOL    MW433624   1.549   3.181   3.716 -0.2131 -0.3587  0.1761
 8465SOL     OW33625   3.104   5.876   4.262  0.7381  0.4426 -0.3670
 8465SOL    HW233626   3.017   5.904   4.290  1.1598  2.4122 -0.9278
 8465SOL    HW333627   3.132   5.814   4.330  0.8637  3.4416  2.5302
 8465SOL    MW433628   3.096   5.871   4.275  0.8103  1.0982 -0.0588
 8466SOL     OW33629   3.866   3.151   3.877  0.0386  0.0867 -0.2751
 8466SOL    HW233630   3.907   3.219   3.824  0.6546 -0.5085 -0.5901
 8466SOL    HW333631   3.878   3.179   3.967  2.2854 -0.6555 -0.2890
 8466SOL    MW433632   3.873   3.164   3.882  0.4163 -0.0897 -0.3185
 8467SOL     OW33633   3.931   5.697   3.596 -0.2464  0.0779 -0.0487
 8467SOL    HW233634   4.025   5.698   3.578 -0.1841  0.2829  0.2746
 8467SOL    HW333635   3.925   5.687   3.691 -0.5421  0.8712  0.0229
 8467SOL    MW433636   3.943   5.696   3.606 -0.2772  0.2096  0.0034
 8468SOL     OW33637   3.841   4.317   5.432  0.2458  0.3219 -0.6602
 8468SOL    HW233638   3.768   4.286   5.485 -0.5493  0.9962 -1.3355
 8468SOL    HW333639   3.865   4.242   5.377  0.0264  0.1182 -0.4769
 8468SOL    MW433640   3.835   4.303   5.431  0.1119  0.3840 -0.7251
 8469SOL     OW33641   6.251   4.315   0.102 -0.0881  0.2454  0.5025
 8469SOL    HW233642   6.179   4.344   0.158  0.3258  0.8267  0.7414
 8469SOL    HW333643   6.247   4.219   0.106  0.6586  0.2507  2.4902
 8469SOL    MW433644   6.241   4.306   0.110  0.0650  0.3228  0.7963
 8470SOL     OW33645   0.606   4.241   2.834  0.0860 -0.1903  0.3326
 8470SOL    HW233646   0.691   4.284   2.844  0.0813  0.0818 -0.7703
 8470SOL    HW333647   0.618   4.156   2.876  0.6025  0.2150  1.0389
 8470SOL    MW433648   0.619   4.236   2.841  0.1535 -0.1009  0.2803
 8471SOL     OW33649   3.215   3.693   1.416  0.4571 -0.4479 -0.0245
 8471SOL    HW233650   3.254   3.644   1.488  0.9117 -0.6982 -0.4378
 8471SOL    HW333651   3.245   3.648   1.337 -0.2960 -0.3704 -0.3634
 8471SOL    MW433652   3.224   3.680   1.415  0.4177 -0.4707 -0.1237
 8472SOL     OW33653   4.007   3.647   2.411 -0.5243 -0.1327 -0.4445
 8472SOL    HW233654   3.974   3.692   2.333  0.7777 -0.1011 -0.9937
 8472SOL    HW333655   3.996   3.554   2.390 -0.8205 -0.1137 -0.3770
 8472SOL    MW433656   4.001   3.641   2.398 -0.3916 -0.1260 -0.5080
 8473SOL     OW33657   1.967   4.567   2.844 -0.6268  0.4034 -0.0076
 8473SOL    HW233658   2.031   4.545   2.777 -1.0441  0.1188 -0.3121
 8473SOL    HW333659   1.897   4.611   2.797 -0.8442  0.3507  0.2655
 8473SOL    MW433660   1.966   4.570   2.829 -0.7106  0.3589 -0.0117
 8474SOL     OW33661   3.354   1.220   2.342 -0.5851  0.1107  0.1297
 8474SOL    HW233662   3.261   1.240   2.331 -0.2033  0.7236 -2.4915
 8474SOL    HW333663   3.370   1.145   2.285  0.9498  1.3793 -1.1953
 8474SOL    MW433664   3.344   1.213   2.333 -0.3322  0.3589 -0.3910
 8475SOL     OW33665   5.423   1.187   0.260 -0.0694  0.6189 -0.6160
 8475SOL    HW233666   5.350   1.139   0.221  2.9918 -2.4584 -3.1829
 8475SOL    HW333667   5.420   1.273   0.219 -3.0074  1.1476  0.5081
 8475SOL    MW433668   5.413   1.192   0.249 -0.0531  0.2827 -0.8063
 8476SOL     OW33669   5.676   5.091   5.208  0.3883 -0.2165  0.0229
 8476SOL    HW233670   5.666   5.168   5.152  1.6415 -0.0179  0.0368
 8476SOL    HW333671   5.694   5.020   5.147 -0.9746 -0.5641 -0.0064
 8476SOL    MW433672   5.677   5.092   5.193  0.3738 -0.2361  0.0209
 8477SOL     OW33673   5.862   1.557   4.392  0.2559 -0.1195  0.1383
 8477SOL    HW233674   5.802   1.631   4.398  0.8067  0.2446  1.6451
 8477SOL    HW333675   5.852   1.525   4.302  0.0366  1.8062 -0.5733
 8477SOL    MW433676   5.853   1.563   4.381  0.2997  0.1826  0.2432
 8478SOL     OW33677   3.965   3.362   2.429 -0.2449  0.1814 -0.1499
 8478SOL    HW233678   3.874   3.338   2.414 -0.1914 -0.4047  0.3843
 8478SOL    HW333679   4.014   3.319   2.359 -0.2930 -0.2194  0.0575
 8478SOL    MW433680   3.959   3.353   2.418 -0.2442  0.0512 -0.0521
 8479SOL     OW33681   3.268   4.497   1.479  0.1352 -0.1867  0.1123
 8479SOL    HW233682   3.278   4.438   1.554  3.2793 -1.5744 -1.2450
 8479SOL    HW333683   3.293   4.583   1.513 -1.4686 -0.1561  1.3363
 8479SOL    MW433684   3.273   4.500   1.494  0.3384 -0.3657  0.0947
 8480SOL     OW33685   2.573   1.827   0.035 -0.1393 -0.0814  0.2257
 8480SOL    HW233686   2.498   1.869  -0.006 -0.2724 -2.1423 -1.8911
 8480SOL    HW333687   2.634   1.898   0.052 -0.8011  1.1475 -2.1313
 8480SOL    MW433688   2.571   1.842   0.031 -0.2442 -0.1912 -0.3645
 8481SOL     OW33689   1.910   5.153   3.488 -0.8551  0.7511 -0.1315
 8481SOL    HW233690   1.867   5.078   3.529 -1.0476  0.5640 -0.6610
 8481SOL    HW333691   1.928   5.124   3.398 -0.7343  1.2620 -0.2776
 8481SOL    MW433692   1.907   5.139   3.482 -0.8646  0.7938 -0.2206
 8482SOL     OW33693   5.106   2.670   1.718  0.1496  0.8259  0.0483
 8482SOL    HW233694   5.192   2.710   1.721  0.9951 -0.9381  0.4827
 8482SOL    HW333695   5.119   2.588   1.670 -1.7127  1.4878 -1.7304
 8482SOL    MW433696   5.119   2.664   1.712  0.0154  0.6805 -0.1291
 8483SOL     OW33697   0.036   6.184   4.390 -0.0378  0.1739  0.0209
 8483SOL    HW233698   0.021   6.109   4.447 -1.4407  0.3796 -0.0564
 8483SOL    HW333699   0.130   6.202   4.398 -0.2182  0.3167  2.4160
 8483SOL    MW433700   0.047   6.177   4.398 -0.2467  0.2199  0.3267
 8484SOL     OW33701   5.697   3.303   3.068 -0.4644  0.0618 -0.0569
 8484SOL    HW233702   5.741   3.374   3.115 -0.0199 -1.5458  2.1126
 8484SOL    HW333703   5.604   3.321   3.078 -0.3714  1.1939 -0.9869
 8484SOL    MW433704   5.691   3.315   3.075 -0.3935 -0.0010  0.1066
 8485SOL     OW33705   5.188   0.083   3.861 -0.1884 -0.1481 -0.1773
 8485SOL    HW233706   5.168   0.144   3.931  1.0065  1.8843 -1.5050
 8485SOL    HW333707   5.115   0.092   3.799  0.3594  0.5422 -0.7378
 8485SOL    MW433708   5.176   0.092   3.862  0.0415  0.2111 -0.4264
 8486SOL     OW33709   5.016   5.277   6.248  0.6268  0.0054 -0.0679
 8486SOL    HW233710   5.072   5.256   6.323 -1.0970 -0.7816  1.0835
 8486SOL    HW333711   5.069   5.257   6.171  2.1147 -0.1009  0.9470
 8486SOL    MW433712   5.030   5.272   6.248  0.5957 -0.1125  0.2179
 8487SOL     OW33713   5.840   3.491   0.020 -0.0789  0.2904 -0.0593
 8487SOL    HW233714   5.809   3.576  -0.012  0.6916  0.9495  0.8534
 8487SOL    HW333715   5.927   3.482  -0.019 -0.5126 -0.5052 -0.8555
 8487SOL    MW433716   5.847   3.501   0.011 -0.0344  0.2724 -0.0439
 8488SOL     OW33717   1.828   2.794   3.284  0.2839  0.0458  0.3728
 8488SOL    HW233718   1.838   2.746   3.202 -0.5182 -1.0153  0.8768
 8488SOL    HW333719   1.905   2.769   3.335  0.5978  0.4241  0.0920
 8488SOL    MW433720   1.839   2.784   3.280  0.2195 -0.0443  0.4022
 8489SOL     OW33721   4.019   5.970   1.169  0.0400  0.0148 -0.3256
 8489SOL    HW233722   4.014   6.036   1.239  0.1513  1.7770 -1.9157
 8489SOL    HW333723   3.927   5.952   1.148 -0.0018  1.0067 -1.0684
 8489SOL    MW433724   4.006   5.976   1.176  0.0492  0.3781 -0.6334
 8490SOL     OW33725   1.383   5.378   5.577  0.2398 -0.3905  0.6761
 8490SOL    HW233726   1.469   5.419   5.562 -0.6874  1.4882  0.1273
 8490SOL    HW333727   1.346   5.368   5.490  0.1303 -1.7901  0.8662
 8490SOL    MW433728   1.389   5.382   5.563  0.1030 -0.3273  0.6288
 8491SOL     OW33729   4.836   6.063   5.083 -0.1742 -0.4933  0.2044
 8491SOL    HW233730   4.818   5.991   5.144 -1.1605 -0.7760 -0.4032
 8491SOL    HW333731   4.760   6.120   5.090 -0.9495 -1.2138 -1.7186
 8491SOL    MW433732   4.824   6.061   5.092 -0.4066 -0.6257 -0.1295
 8492SOL     OW33733   3.813   1.768   5.656  0.6920 -0.1779 -0.5286
 8492SOL    HW233734   3.839   1.676   5.651  0.5153 -0.4904  2.5300
 8492SOL    HW333735   3.732   1.768   5.708  1.7965  1.7933  1.3857
 8492SOL    MW433736   3.806   1.756   5.662  0.8144  0.0409  0.1275
 8493SOL     OW33737   0.468   4.618   4.030  0.6517 -0.2539 -0.2238
 8493SOL    HW233738   0.467   4.537   4.081  1.2384  0.2593  0.6234
 8493SOL    HW333739   0.515   4.595   3.950 -2.3629 -1.7288 -1.7429
 8493SOL    MW433740   0.474   4.604   4.026  0.3314 -0.3808 -0.3124
 8494SOL     OW33741   1.618   4.800   0.235 -0.0833 -0.2556  0.1013
 8494SOL    HW233742   1.573   4.808   0.319 -0.8074  0.9531 -0.3624
 8494SOL    HW333743   1.631   4.706   0.223 -1.3727 -0.5538  0.8569
 8494SOL    MW433744   1.613   4.788   0.244 -0.3489 -0.1355  0.1398
 8495SOL     OW33745   4.147   4.028   0.521 -0.0028  0.0353  0.0464
 8495SOL    HW233746   4.176   3.965   0.586 -0.3939 -1.3855 -1.0827
 8495SOL    HW333747   4.054   4.042   0.541  0.6324  2.2465  1.8139
 8495SOL    MW433748   4.138   4.022   0.532  0.0294  0.1395  0.1306
 8496SOL     OW33749   1.572   1.760   5.939 -0.2594  0.2915  0.5100
 8496SOL    HW233750   1.569   1.679   5.990 -0.1926  0.1278  0.2523
 8496SOL    HW333751   1.630   1.817   5.989  0.4119 -0.1375  0.2313
 8496SOL    MW433752   1.579   1.757   5.952 -0.1620  0.2133  0.4392
 8497SOL     OW33753   0.284   2.154   4.413  0.0860 -0.0477 -0.1191
 8497SOL    HW233754   0.356   2.129   4.354  0.2953 -0.6936  0.3974
 8497SOL    HW333755   0.326   2.210   4.479 -0.1665  0.7556 -0.6226
 8497SOL    MW433756   0.299   2.158   4.414  0.0803 -0.0269 -0.1174
 8498SOL     OW33757   4.240   4.275   4.352  0.1169 -0.6008 -0.2681
 8498SOL    HW233758   4.195   4.348   4.394  1.4372  0.2992 -0.3857
 8498SOL    HW333759   4.185   4.254   4.276  0.1722  0.8380 -0.7284
 8498SOL    MW433760   4.227   4.282   4.347  0.2984 -0.2922 -0.3443
 8499SOL     OW33761   2.247   0.849   1.392 -0.1736 -0.5733  0.1465
 8499SOL    HW233762   2.156   0.844   1.365 -0.2569 -2.6828  0.6806
 8499SOL    HW333763   2.244   0.866   1.486 -0.0775 -1.9921  0.4270
 8499SOL    MW433764   2.235   0.851   1.401 -0.1720 -1.0388  0.2540
 8500SOL     OW33765   3.707   3.496   0.215 -0.0609  0.2209  0.5423
 8500SOL    HW233766   3.613   3.490   0.200  0.0678  0.1599 -0.2485
 8500SOL    HW333767   3.734   3.575   0.168  0.4518 -0.3349 -0.1091
 8500SOL    MW433768   3.698   3.505   0.207  0.0237  0.1395  0.3520
 8501SOL     OW33769   5.673   4.011   3.842  0.5861  0.3148  0.0113
 8501SOL    HW233770   5.592   3.980   3.883  0.5718 -0.1477 -0.3588
 8501SOL    HW333771   5.644   4.050   3.759  0.6553  0.9190  0.2606
 8501SOL    MW433772   5.659   4.012   3.836  0.5933  0.3335 -0.0046
 8502SOL     OW33773   1.815   2.775   0.719  0.4845 -0.2421 -0.0267
 8502SOL    HW233774   1.727   2.812   0.724  0.0913 -0.7390 -2.2279
 8502SOL    HW333775   1.872   2.852   0.714  0.1605  0.0791  1.0020
 8502SOL    MW433776   1.811   2.790   0.719  0.3899 -0.2653 -0.1814
 8503SOL     OW33777   2.257   5.954   0.646 -0.2701  0.3258  0.8012
 8503SOL    HW233778   2.187   5.974   0.584  0.7737 -2.8410 -1.7171
 8503SOL    HW333779   2.212   5.936   0.729 -2.2773  0.0040 -0.3103
 8503SOL    MW433780   2.242   5.954   0.649 -0.3972 -0.1345  0.3223
 8504SOL     OW33781   6.230   6.361   3.356  0.1947  0.2255  0.0851
 8504SOL    HW233782   6.155   6.316   3.395 -0.6574 -1.3273 -3.0295
 8504SOL    HW333783   6.306   6.312   3.387 -0.3608 -0.4021  0.4971
 8504SOL    MW433784   6.230   6.349   3.365  0.0090 -0.0622 -0.2715
 8505SOL     OW33785   3.889   6.167   1.325 -0.1562  0.3543 -0.5038
 8505SOL    HW233786   3.904   6.244   1.381  2.2617  0.0733 -0.6386
 8505SOL    HW333787   3.827   6.114   1.374 -0.2050  1.3902  0.6264
 8505SOL    MW433788   3.883   6.170   1.339  0.1564  0.4539 -0.3725
 8506SOL     OW33789   2.510   3.970   2.227 -0.0242  0.0722  0.1527
 8506SOL    HW233790   2.440   3.938   2.169  0.1574  0.0271 -0.0433
 8506SOL    HW333791   2.589   3.966   2.173  0.6448 -2.3976  1.1871
 8506SOL    MW433792   2.511   3.966   2.212  0.0880 -0.2597  0.2633
 8507SOL     OW33793   2.939   4.483   2.963 -0.1515 -0.9296 -0.2855
 8507SOL    HW233794   2.979   4.396   2.970 -0.0686 -0.7835  1.5518
 8507SOL    HW333795   2.955   4.524   3.048 -1.4930  0.3253 -0.5920
 8507SOL    MW433796   2.946   4.477   2.975 -0.3175 -0.7447 -0.0835
 8508SOL     OW33797   3.982   3.973   5.699  0.4118  0.0280  0.2747
 8508SOL    HW233798   3.928   4.037   5.744 -0.1191  0.8556 -1.4572
 8508SOL    HW333799   3.928   3.942   5.627  1.5061 -0.6431 -0.2908
 8508SOL    MW433800   3.968   3.977   5.696  0.4861  0.0487 -0.0284
 8509SOL     OW33801   0.122   6.182   1.540  0.2213  0.1831  0.5103
 8509SOL    HW233802   0.116   6.176   1.635 -0.8314  1.0985  0.5211
 8509SOL    HW333803   0.172   6.261   1.524 -0.0838  0.3362  0.3046
 8509SOL    MW433804   0.128   6.191   1.550  0.0421  0.3241  0.4846
 8510SOL     OW33805   4.957   5.932   5.661  0.8625  0.5790 -0.5465
 8510SOL    HW233806   5.027   5.993   5.637  1.2046  1.1200  1.6332
 8510SOL    HW333807   5.002   5.862   5.708  0.1655 -0.1165 -0.8923
 8510SOL    MW433808   4.973   5.931   5.664  0.8157  0.5586 -0.3045
 8511SOL     OW33809   2.945   4.189   1.872 -0.1703  0.4016  0.3595
 8511SOL    HW233810   3.026   4.144   1.896 -0.3662 -0.8440 -1.1759
 8511SOL    HW333811   2.938   4.261   1.935  3.1158  1.7620 -0.6541
 8511SOL    MW433812   2.955   4.192   1.884  0.2374  0.4167  0.0232
 8512SOL     OW33813   2.521   1.055   0.117 -0.0878 -0.1866  0.1896
 8512SOL    HW233814   2.560   1.092   0.038 -0.4945  0.1893  0.1633
 8512SOL    HW333815   2.593   1.008   0.159  0.4308  0.6127  0.2112
 8512SOL    MW433816   2.536   1.053   0.112 -0.0730 -0.0315  0.1890
 8513SOL     OW33817   1.344   6.417   2.977  0.4308  0.6907 -0.2557
 8513SOL    HW233818   1.435   6.393   2.994  0.1391 -1.6192 -1.5973
 8513SOL    HW333819   1.308   6.435   3.064  0.9473 -3.1528  0.9193
 8513SOL    MW433820   1.351   6.416   2.991  0.4605 -0.1212 -0.2776
 8514SOL     OW33821   2.493   0.594   2.573 -0.3849  0.2647 -0.3267
 8514SOL    HW233822   2.582   0.569   2.594 -0.3264  0.7873  0.0886
 8514SOL    HW333823   2.489   0.594   2.478  0.4687  1.5924 -0.3926
 8514SOL    MW433824   2.504   0.591   2.563 -0.2646  0.5089 -0.2806
 8515SOL     OW33825   4.014   1.109   4.717  0.0576  0.0994 -0.4586
 8515SOL    HW233826   3.936   1.163   4.706 -0.3228  0.2066  2.1974
 8515SOL    HW333827   3.983   1.031   4.763  1.3413 -0.3449 -0.3098
 8515SOL    MW433828   3.999   1.106   4.721  0.1768  0.0549 -0.0885
 8516SOL     OW33829   5.090   5.933   2.045 -0.3328  0.1190 -0.0591
 8516SOL    HW233830   5.050   5.858   1.999 -0.3015 -0.7517  1.2912
 8516SOL    HW333831   5.103   5.902   2.134 -0.9616  1.9933  0.7200
 8516SOL    MW433832   5.086   5.919   2.050 -0.4116  0.2514  0.2218
 8517SOL     OW33833   2.241   3.523   1.883  0.0171  0.7948 -0.2958
 8517SOL    HW233834   2.272   3.564   1.963  0.6201  0.8289 -0.5423
 8517SOL    HW333835   2.278   3.435   1.884  2.0685  1.5572 -1.6739
 8517SOL    MW433836   2.250   3.517   1.894  0.3674  0.8999 -0.5102
 8518SOL     OW33837   3.709   3.683   1.001 -0.0328  0.4747  0.1653
 8518SOL    HW233838   3.637   3.747   1.010  0.3608  0.9881 -0.2773
 8518SOL    HW333839   3.788   3.737   1.000  0.2526  0.0586 -1.2028
 8518SOL    MW433840   3.710   3.699   1.002  0.0568  0.4875 -0.0736
 8519SOL     OW33841   3.737   3.289   5.922  0.0861  0.2271 -0.0411
 8519SOL    HW233842   3.661   3.345   5.909 -0.1651  0.5818  2.4399
 8519SOL    HW333843   3.801   3.345   5.965  0.8654 -0.6773  0.0178
 8519SOL    MW433844   3.736   3.304   5.926  0.1558  0.1545  0.2940
 8520SOL     OW33845   1.397   2.705   0.872  0.4505  0.2814 -0.1938
 8520SOL    HW233846   1.302   2.711   0.870  0.2590 -2.2240 -1.1624
 8520SOL    HW333847   1.418   2.667   0.958  0.4994 -0.1964 -0.4166
 8520SOL    MW433848   1.387   2.701   0.883  0.4317 -0.1122 -0.3510
 8521SOL     OW33849   5.841   5.742   6.318  0.6698  0.0986  0.0592
 8521SOL    HW233850   5.777   5.802   6.281  0.1142 -0.9358 -0.6943
 8521SOL    HW333851   5.833   5.663   6.266  0.0693 -1.3293  2.1782
 8521SOL    MW433852   5.832   5.740   6.306  0.5173 -0.2263  0.2394
 8522SOL     OW33853   1.967   5.190   5.000  0.1696  0.2892 -0.4723
 8522SOL    HW233854   2.015   5.193   4.917 -0.5706 -1.2168 -0.9871
 8522SOL    HW333855   1.889   5.139   4.981 -0.9185  1.4409  0.7263
 8522SOL    MW433856   1.963   5.184   4.987 -0.0716  0.2425 -0.3821
 8523SOL     OW33857   2.643   4.984   1.584  0.3281 -0.2329  0.6057
 8523SOL    HW233858   2.646   4.889   1.571 -0.8227 -0.4984  2.0035
 8523SOL    HW333859   2.712   5.019   1.528  0.5835 -1.8756 -0.1323
 8523SOL    MW433860   2.652   4.976   1.575  0.2100 -0.4846  0.6928
 8524SOL     OW33861   0.380   2.826   1.010 -0.4283 -0.1247  0.0279
 8524SOL    HW233862   0.374   2.730   1.018 -1.3546 -0.0155  0.8235
 8524SOL    HW333863   0.405   2.856   1.097  0.7512  0.3144 -0.4435
 8524SOL    MW433864   0.382   2.817   1.022 -0.3949 -0.0524  0.0707
 8525SOL     OW33865   3.638   1.166   0.467 -0.0488 -0.2785  0.3266
 8525SOL    HW233866   3.700   1.096   0.486  0.0549 -0.1744  0.3769
 8525SOL    HW333867   3.687   1.226   0.410  0.3630  0.5011  1.4527
 8525SOL    MW433868   3.653   1.165   0.462  0.0192 -0.1619  0.4818
 8526SOL     OW33869   5.801   3.702   6.014 -0.3483 -0.0021  0.4372
 8526SOL    HW233870   5.778   3.698   6.107  1.1678  0.8057  0.8806
 8526SOL    HW333871   5.890   3.737   6.013  0.5022 -2.0500 -1.2243
 8526SOL    MW433872   5.810   3.706   6.026 -0.0361 -0.1657  0.2765
 8527SOL     OW33873   4.959   3.637   2.926  0.1074  0.0523 -0.1061
 8527SOL    HW233874   5.025   3.688   2.972 -0.6540 -0.1465  1.2465
 8527SOL    HW333875   4.979   3.546   2.948  0.2784 -0.1155 -0.9197
 8527SOL    MW433876   4.970   3.632   2.935  0.0295  0.0039 -0.0350
 8528SOL     OW33877   5.602   3.015   3.743 -0.4985  0.0510  0.2982
 8528SOL    HW233878   5.566   3.010   3.832 -1.1955 -0.4700 -0.0086
 8528SOL    HW333879   5.526   3.014   3.686 -0.1950  2.8362 -0.2740
 8528SOL    MW433880   5.587   3.014   3.747 -0.5504  0.3498  0.1822
 8529SOL     OW33881   0.739   2.171   5.885 -0.2645 -0.0099  0.8158
 8529SOL    HW233882   0.813   2.149   5.829 -0.4946  0.6004  0.2565
 8529SOL    HW333883   0.664   2.174   5.826 -0.4349  1.0741  1.0685
 8529SOL    MW433884   0.739   2.168   5.870 -0.3173  0.2136  0.7753
 8530SOL     OW33885   3.837   5.519   0.124  0.4681  0.2076  0.0325
 8530SOL    HW233886   3.794   5.438   0.095  0.5116  0.5089 -0.8726
 8530SOL    HW333887   3.927   5.492   0.141  0.4291  0.0191 -0.0481
 8530SOL    MW433888   3.843   5.504   0.123  0.4687  0.2225 -0.0975
 8531SOL     OW33889   0.855   4.162   1.164  0.0082 -0.3574 -0.5882
 8531SOL    HW233890   0.885   4.185   1.076 -0.9321 -0.5902 -0.9885
 8531SOL    HW333891   0.795   4.089   1.151  0.4613 -0.9154  0.3395
 8531SOL    MW433892   0.851   4.156   1.151 -0.0561 -0.4617 -0.5186
 8532SOL     OW33893   2.802   2.507   1.832  0.3164  0.0856  0.5658
 8532SOL    HW233894   2.767   2.453   1.761  0.3619 -0.1686  0.7354
 8532SOL    HW333895   2.897   2.490   1.831  0.7249  2.0390 -0.9831
 8532SOL    MW433896   2.810   2.498   1.823  0.3763  0.3097  0.3838
 8533SOL     OW33897   1.693   1.136   0.169  0.5888  0.2843 -0.5166
 8533SOL    HW233898   1.705   1.133   0.074 -2.9322  1.1069 -1.1326
 8533SOL    HW333899   1.753   1.204   0.198  0.0308  1.7704 -2.5872
 8533SOL    MW433900   1.702   1.145   0.161  0.0506  0.5889 -0.8711
 8534SOL     OW33901   1.918   3.499   2.050  0.8484 -0.0583  0.4804
 8534SOL    HW233902   1.896   3.449   1.971  1.8839  0.0093  0.1467
 8534SOL    HW333903   1.979   3.565   2.020  0.0223  0.9887  1.0551
 8534SOL    MW433904   1.923   3.501   2.036  0.8760  0.0888  0.5122
 8535SOL     OW33905   3.822   1.037   2.474 -0.3605  0.7439 -0.4015
 8535SOL    HW233906   3.789   1.113   2.522  0.5942  1.5149 -0.9335
 8535SOL    HW333907   3.802   1.057   2.382 -1.9788 -0.6118 -0.3914
 8535SOL    MW433908   3.815   1.050   2.468 -0.4481  0.6668 -0.4703
 8536SOL     OW33909   1.743   3.642   1.816  0.1597 -0.0485  0.3776
 8536SOL    HW233910   1.782   3.645   1.729 -0.2923 -0.1021  0.1679
 8536SOL    HW333911   1.710   3.552   1.825 -0.4298  0.1542  0.3139
 8536SOL    MW433912   1.744   3.630   1.806  0.0223 -0.0289  0.3415
 8537SOL     OW33913   0.508   3.003   5.741  0.0982 -0.1359  0.3466
 8537SOL    HW233914   0.482   2.962   5.824 -1.8776  0.1182 -0.0805
 8537SOL    HW333915   0.490   3.096   5.755 -0.0932 -0.0736 -0.3121
 8537SOL    MW433916   0.502   3.010   5.754 -0.1877 -0.0941  0.2033
 8538SOL     OW33917   5.347   5.835   2.633  0.1969  0.1893 -0.7582
 8538SOL    HW233918   5.399   5.770   2.586  0.6862 -0.3468  0.4794
 8538SOL    HW333919   5.403   5.862   2.706 -0.6217  0.8441 -0.3526
 8538SOL    MW433920   5.362   5.830   2.637  0.1534  0.2050 -0.5414
 8539SOL     OW33921   2.604   3.931   3.069 -0.1429 -0.1309  0.2520
 8539SOL    HW233922   2.661   3.949   2.994 -1.1533 -0.1685 -0.5536
 8539SOL    HW333923   2.598   3.836   3.073 -1.3222 -0.1190 -0.6180
 8539SOL    MW433924   2.611   3.921   3.059 -0.4318 -0.1343  0.0309
 8540SOL     OW33925   4.502   4.690   5.814  0.3798  0.3936  0.6324
 8540SOL    HW233926   4.506   4.690   5.910  0.5130 -0.0527  0.6302
 8540SOL    HW333927   4.423   4.741   5.794  0.0054 -0.0272  1.0031
 8540SOL    MW433928   4.492   4.697   5.824  0.3480  0.2792  0.6810
 8541SOL     OW33929   1.439   0.589   2.052 -0.4223  0.3538 -0.1257
 8541SOL    HW233930   1.354   0.632   2.045 -0.3591  0.3891 -0.6798
 8541SOL    HW333931   1.437   0.519   1.987  0.1786  0.7181 -0.5484
 8541SOL    MW433932   1.428   0.586   2.043 -0.3347  0.4066 -0.2546
 8542SOL     OW33933   3.379   0.951   5.848 -0.3589  0.2851  0.0759
 8542SOL    HW233934   3.392   1.041   5.877  0.0092 -0.1257  1.2751
 8542SOL    HW333935   3.311   0.917   5.906 -0.3500 -0.2719 -0.2325
 8542SOL    MW433936   3.372   0.958   5.859 -0.3092  0.1574  0.1934
 8543SOL     OW33937   5.583   3.889   5.390 -0.0971 -0.1723 -0.1228
 8543SOL    HW233938   5.502   3.877   5.440  0.4253  0.0791  0.8062
 8543SOL    HW333939   5.629   3.959   5.437  0.5745 -0.1934 -0.7498
 8543SOL    MW433940   5.578   3.897   5.403  0.0605 -0.1419 -0.0830
 8544SOL     OW33941   5.848   6.201   1.718 -0.3703 -0.1740  0.0471
 8544SOL    HW233942   5.764   6.204   1.764 -0.3276 -0.4446  0.1456
 8544SOL    HW333943   5.912   6.228   1.783 -0.4171  0.3423 -0.1191
 8544SOL    MW433944   5.845   6.205   1.733 -0.3708 -0.1416  0.0382
 8545SOL     OW33945   4.438   4.855   4.670  0.0816 -0.1511 -0.3751
 8545SOL    HW233946   4.423   4.917   4.599  0.5896  0.3101 -0.0833
 8545SOL    HW333947   4.420   4.905   4.750 -1.4001 -0.9160 -0.1857
 8545SOL    MW433948   4.434   4.870   4.671 -0.0469 -0.1912 -0.3116
 8546SOL     OW33949   6.201   2.536   2.038 -0.7295 -0.1109 -0.1140
 8546SOL    HW233950   6.283   2.584   2.028 -0.7765 -0.1567 -0.7662
 8546SOL    HW333951   6.223   2.462   2.093 -0.0423 -0.8075 -1.2832
 8546SOL    MW433952   6.215   2.533   2.044 -0.6450 -0.2089 -0.3543
 8547SOL     OW33953   6.058   4.115   0.996  0.8381 -0.2039  0.3083
 8547SOL    HW233954   6.016   4.035   1.027  0.8354 -1.7735 -3.1861
 8547SOL    HW333955   6.152   4.094   0.996  1.1511  0.9807  2.1794
 8547SOL    MW433956   6.065   4.102   1.000  0.8790 -0.2547  0.0941
 8548SOL     OW33957   3.853   2.015   5.098  0.0120 -0.0262  0.1506
 8548SOL    HW233958   3.836   2.050   5.011  0.8722  1.3440  0.4944
 8548SOL    HW333959   3.905   1.936   5.082  0.7572  0.5879 -0.5678
 8548SOL    MW433960   3.858   2.009   5.084  0.2238  0.2356  0.1012
 8549SOL     OW33961   6.379   2.608   3.680  0.1544 -0.1312 -0.3415
 8549SOL    HW233962   6.410   2.607   3.770 -0.7299  0.4567 -0.0104
 8549SOL    HW333963   6.337   2.694   3.670 -0.9998 -0.7269 -0.8635
 8549SOL    MW433964   6.377   2.619   3.690 -0.1146 -0.1322 -0.3667
 8550SOL     OW33965   0.257   5.976   5.784 -0.2616 -0.3752  0.0465
 8550SOL    HW233966   0.255   6.049   5.846  0.4173  0.3960 -0.8333
 8550SOL    HW333967   0.226   6.013   5.702 -0.9691 -1.3513 -0.1397
 8550SOL    MW433968   0.252   5.990   5.782 -0.2654 -0.4022 -0.0941
 8551SOL     OW33969   3.829   4.130   4.355  0.0588  0.4290  0.3181
 8551SOL    HW233970   3.860   4.064   4.293 -1.6562 -1.4452  1.3176
 8551SOL    HW333971   3.883   4.116   4.433 -0.5504 -0.0602  0.6570
 8551SOL    MW433972   3.840   4.119   4.357 -0.2479  0.1172  0.4947
 8552SOL     OW33973   2.578   2.404   6.407 -0.1376 -0.4304 -0.0117
 8552SOL    HW233974   2.592   2.309   6.401 -2.8683 -0.9173  0.0912
 8552SOL    HW333975   2.643   2.433   6.471  0.5019 -2.2822  0.2622
 8552SOL    MW433976   2.589   2.395   6.415 -0.4135 -0.7390  0.0380
 8553SOL     OW33977   1.672   4.810   5.409 -0.2783  0.1342 -0.1915
 8553SOL    HW233978   1.636   4.896   5.430 -1.3886 -0.0779 -1.1091
 8553SOL    HW333979   1.702   4.817   5.318 -2.0715 -0.9239 -0.9225
 8553SOL    MW433980   1.671   4.822   5.400 -0.6614 -0.0334 -0.4091
 8554SOL     OW33981   1.578   5.676   1.303  0.5545 -0.2802  0.3624
 8554SOL    HW233982   1.564   5.771   1.299  0.2155 -0.3018  0.8837
 8554SOL    HW333983   1.649   5.665   1.366 -1.0534 -0.4954  2.2201
 8554SOL    MW433984   1.585   5.687   1.311  0.2977 -0.3114  0.6763
 8555SOL     OW33985   0.475   2.798   0.515 -0.2023  0.3507 -0.1859
 8555SOL    HW233986   0.490   2.766   0.426  0.1288 -1.7205  0.5691
 8555SOL    HW333987   0.432   2.725   0.560 -0.0098  1.2158  1.4640
 8555SOL    MW433988   0.471   2.784   0.509 -0.1332  0.1916  0.1314
 8556SOL     OW33989   4.387   2.661   5.110  0.0029  0.5668 -0.1183
 8556SOL    HW233990   4.320   2.594   5.125  0.8110 -0.2514 -0.0744
 8556SOL    HW333991   4.460   2.635   5.167 -0.1225  2.1787  0.8215
 8556SOL    MW433992   4.388   2.649   5.119  0.0930  0.6715  0.0115
 8557SOL     OW33993   2.663   1.857   6.186 -0.3180  0.3971  0.0979
 8557SOL    HW233994   2.607   1.815   6.251 -1.8423  0.5480 -1.0604
 8557SOL    HW333995   2.675   1.791   6.118 -0.1295  0.7857 -0.2524
 8557SOL    MW433996   2.657   1.843   6.186 -0.4942  0.4683 -0.1012
 8558SOL     OW33997   5.662   1.120   2.528 -0.2639 -0.0225  0.0371
 8558SOL    HW233998   5.603   1.129   2.602 -0.3762 -0.7095  0.0350
 8558SOL    HW333999   5.698   1.031   2.536  0.5568  0.2828 -0.1113
 8558SOL    MW434000   5.659   1.109   2.538 -0.1704 -0.0728  0.0173
 8559SOL     OW34001   2.042   1.903   0.591  0.0006 -0.0148 -0.7558
 8559SOL    HW234002   2.013   1.865   0.673  0.8532 -0.4495 -0.6403
 8559SOL    HW334003   1.984   1.978   0.577 -0.4610 -0.2211 -0.0110
 8559SOL    MW434004   2.031   1.908   0.600  0.0522 -0.0994 -0.6423
 8560SOL     OW34005   1.632   1.792   5.013 -0.7454 -0.1319  0.0277
 8560SOL    HW234006   1.668   1.879   5.032 -0.0864 -0.0671 -1.3750
 8560SOL    HW334007   1.648   1.780   4.919 -1.4034 -1.5076  0.0764
 8560SOL    MW434008   1.639   1.802   5.003 -0.7453 -0.3048 -0.1510
 8561SOL     OW34009   6.018   5.668   2.642  0.2831  0.2294  0.1914
 8561SOL    HW234010   6.070   5.642   2.718  0.8674  0.0256 -0.2724
 8561SOL    HW334011   5.940   5.614   2.647  1.2854 -1.3672 -0.5223
 8561SOL    MW434012   6.015   5.658   2.653  0.4924 -0.0081  0.0360
 8562SOL     OW34013   6.295   5.471   4.267  0.1835  0.3442 -0.1475
 8562SOL    HW234014   6.247   5.552   4.248 -1.1513  0.5400  3.3292
 8562SOL    HW334015   6.383   5.499   4.289 -0.0475  0.7690  0.2398
 8562SOL    MW434016   6.300   5.485   4.267 -0.0231  0.4261  0.3623
 8563SOL     OW34017   0.435   6.240   1.737  0.0190  0.2756  0.0759
 8563SOL    HW234018   0.401   6.185   1.808  0.6976 -0.3165 -0.0388
 8563SOL    HW334019   0.394   6.205   1.658 -0.9300  1.0955  0.1906
 8563SOL    MW434020   0.425   6.228   1.736 -0.0166  0.3057  0.0759
 8564SOL     OW34021   3.733   2.183   4.581  0.0245 -0.0919  0.1423
 8564SOL    HW234022   3.784   2.239   4.522  0.6681 -0.8706 -0.0498
 8564SOL    HW334023   3.718   2.237   4.659 -2.2620  1.6027 -1.3077
 8564SOL    MW434024   3.738   2.198   4.583 -0.1922  0.0289 -0.0744
 8565SOL     OW34025   2.838   5.876   3.594  0.6346  0.2019  0.3765
 8565SOL    HW234026   2.855   5.958   3.549  0.0500  0.3927  0.5038
 8565SOL    HW334027   2.864   5.808   3.532 -0.7369  0.4462 -0.5031
 8565SOL    MW434028   2.844   5.878   3.580  0.3765  0.2593  0.2772
 8566SOL     OW34029   5.530   6.064   4.974 -0.0052  0.0356 -0.2765
 8566SOL    HW234030   5.619   6.028   4.969 -0.3783 -0.8147 -1.0769
 8566SOL    HW334031   5.482   6.017   4.906 -0.4819  2.1351 -1.4905
 8566SOL    MW434032   5.536   6.053   4.964 -0.1173  0.2004 -0.5423
 8567SOL     OW34033   6.154   5.543   0.357  0.2116 -0.3457  0.2748
 8567SOL    HW234034   6.181   5.538   0.265  0.3489 -0.7996  0.3392
 8567SOL    HW334035   6.141   5.637   0.373  1.1286 -0.1786  0.0643
 8567SOL    MW434036   6.156   5.555   0.347  0.3507 -0.3836  0.2556
 8568SOL     OW34037   5.553   5.021   2.558 -0.2646 -0.7731  0.2433
 8568SOL    HW234038   5.647   5.009   2.576 -0.0824  1.1174  0.7713
 8568SOL    HW334039   5.523   5.082   2.625 -1.5316 -0.1600 -0.8312
 8568SOL    MW434040   5.562   5.028   2.569 -0.4077 -0.4428  0.1712
 8569SOL     OW34041   6.281   1.382   0.948  0.2859 -0.6215 -0.0616
 8569SOL    HW234042   6.298   1.289   0.936  2.2026 -0.6477  2.2013
 8569SOL    HW334043   6.348   1.411   1.010 -2.0255  1.6141  1.5793
 8569SOL    MW434044   6.292   1.374   0.954  0.2338 -0.3300  0.4535
 8570SOL     OW34045   3.333   6.425   1.872  0.2531  0.1756  0.0477
 8570SOL    HW234046   3.275   6.456   1.941  0.4049  0.2344  0.1509
 8570SOL    HW334047   3.421   6.434   1.909  0.2877 -0.6025  0.1642
 8570SOL    MW434048   3.337   6.430   1.886  0.2777  0.0807  0.0767
 8571SOL     OW34049   2.329   3.059   0.470  0.3545 -0.0394 -0.9553
 8571SOL    HW234050   2.423   3.066   0.486  0.1513  0.9887 -0.1146
 8571SOL    HW334051   2.296   3.010   0.545  0.3561 -1.4246 -1.8244
 8571SOL    MW434052   2.337   3.054   0.482  0.3279 -0.0865 -0.9591
 8572SOL     OW34053   5.342   5.867   0.542 -0.0249 -0.0088  0.0810
 8572SOL    HW234054   5.329   5.961   0.538  3.2170  0.5135 -0.9100
 8572SOL    HW334055   5.311   5.834   0.457 -0.7857  0.2190  0.2710
 8572SOL    MW434056   5.336   5.875   0.530  0.3024  0.0902 -0.0246
 8573SOL     OW34057   6.287   3.665   1.257 -0.4434 -0.0510 -0.2023
 8573SOL    HW234058   6.342   3.599   1.300 -0.1167  0.1954 -0.2416
 8573SOL    HW334059   6.326   3.676   1.171  1.0410  2.0064  0.6420
 8573SOL    MW434060   6.299   3.658   1.252 -0.2044  0.2529 -0.0961
 8574SOL     OW34061   4.185   4.751   1.068 -0.4947 -0.1946 -0.5318
 8574SOL    HW234062   4.119   4.786   1.008  0.7874 -0.6476 -2.2921
 8574SOL    HW334063   4.136   4.728   1.147 -2.0525  1.6316 -0.8778
 8574SOL    MW434064   4.170   4.753   1.070 -0.5311 -0.0134 -0.8097
 8575SOL     OW34065   3.004   5.075   0.460 -0.3994 -0.2209 -0.3150
 8575SOL    HW234066   3.082   5.128   0.446 -0.3744  0.2007  1.2444
 8575SOL    HW334067   2.947   5.129   0.515 -1.4265 -0.8592 -0.7154
 8575SOL    MW434068   3.007   5.089   0.466 -0.5316 -0.2495 -0.1621
 8576SOL     OW34069   1.794   2.114   1.903  0.2316  0.1252 -0.7354
 8576SOL    HW234070   1.858   2.183   1.891 -0.0985  0.3714 -1.1341
 8576SOL    HW334071   1.736   2.146   1.972  0.0493  0.2762 -0.9544
 8576SOL    MW434072   1.795   2.127   1.910  0.1640  0.1776 -0.8169
 8577SOL     OW34073   5.850   2.396   0.755 -0.1841  0.1518  0.5197
 8577SOL    HW234074   5.765   2.440   0.755 -0.0965  0.4470 -1.7559
 8577SOL    HW334075   5.914   2.466   0.741  0.1694 -0.3826 -0.6471
 8577SOL    MW434076   5.847   2.411   0.753 -0.1259  0.1203  0.0655
 8578SOL     OW34077   6.348   4.103   1.047 -0.0206  0.2893  0.0503
 8578SOL    HW234078   6.412   4.033   1.049 -0.9563 -0.5648  1.2286
 8578SOL    HW334079   6.380   4.167   1.111  0.6050  0.7585 -0.7118
 8578SOL    MW434080   6.361   4.102   1.055 -0.0615  0.2386  0.1052
 8579SOL     OW34081   2.948   3.871   3.140  0.1858 -0.6952 -0.6258
 8579SOL    HW234082   3.000   3.948   3.162  0.0475 -0.8133  0.1327
 8579SOL    HW334083   2.871   3.877   3.197  0.5747 -1.8227  0.0491
 8579SOL    MW434084   2.944   3.882   3.151  0.2189 -0.8595 -0.4367
 8580SOL     OW34085   5.649   4.864   1.973 -0.0208  0.5427  0.2235
 8580SOL    HW234086   5.576   4.908   1.928 -1.3109 -0.3486  1.3859
 8580SOL    HW334087   5.636   4.771   1.953 -1.1624  0.0032  3.0718
 8580SOL    MW434088   5.638   4.858   1.964 -0.3416  0.3539  0.7526
 8581SOL     OW34089   6.170   2.222   5.329  0.0963 -0.9602 -0.4834
 8581SOL    HW234090   6.263   2.231   5.351  0.6362 -4.7512 -0.5811
 8581SOL    HW334091   6.125   2.233   5.413  0.5686  0.8717 -0.4268
 8581SOL    MW434092   6.176   2.225   5.343  0.2299 -1.2187 -0.4888
 8582SOL     OW34093   0.228   4.812   0.063  0.5263  0.6051 -0.1552
 8582SOL    HW234094   0.146   4.824   0.110  0.8907 -0.8882  0.9227
 8582SOL    HW334095   0.283   4.760   0.121  1.5166 -0.1356 -1.6689
 8582SOL    MW434096   0.225   4.807   0.077  0.7050  0.3104 -0.2127
 8583SOL     OW34097   1.640   2.159   2.139  0.2444  0.2097  0.2945
 8583SOL    HW234098   1.589   2.237   2.118  0.5428  0.4971  0.6156
 8583SOL    HW334099   1.624   2.145   2.232  0.7197  0.2881  0.3935
 8583SOL    MW434100   1.631   2.168   2.149  0.3465  0.2580  0.3500
 8584SOL     OW34101   5.267   4.947   2.254 -0.6558 -0.7684 -0.3023
 8584SOL    HW234102   5.177   4.976   2.238 -0.4717 -0.3548 -0.6214
 8584SOL    HW334103   5.288   4.893   2.178 -0.7914 -1.2488 -0.0014
 8584SOL    MW434104   5.258   4.944   2.242 -0.6494 -0.7772 -0.3047
 8585SOL     OW34105   0.161   3.700   3.415 -0.0806  0.0654  0.8828
 8585SOL    HW234106   0.127   3.662   3.496 -1.0976  1.0724  0.9617
 8585SOL    HW334107   0.212   3.630   3.374 -1.5906 -1.2606  1.1749
 8585SOL    MW434108   0.163   3.686   3.420 -0.4140  0.0233  0.9317
 8586SOL     OW34109   3.099   1.711   0.629  0.8057 -0.6748 -0.2179
 8586SOL    HW234110   3.109   1.625   0.671 -0.0450  0.1088  1.7098
 8586SOL    HW334111   3.036   1.757   0.684  1.4283  1.2848 -1.0631
 8586SOL    MW434112   3.092   1.706   0.642  0.7756 -0.3129 -0.0751
 8587SOL     OW34113   3.321   5.335   3.344 -0.0348 -0.4148  0.0351
 8587SOL    HW234114   3.265   5.370   3.275 -0.6130 -1.1922  0.1057
 8587SOL    HW334115   3.391   5.400   3.352 -0.2131 -0.0760 -0.9465
 8587SOL    MW434116   3.323   5.348   3.336 -0.1346 -0.4727 -0.0851
 8588SOL     OW34117   3.168   4.699   1.076  0.8175 -0.8208  0.6356
 8588SOL    HW234118   3.229   4.627   1.089  0.5129 -1.0030  1.1085
 8588SOL    HW334119   3.122   4.707   1.160  0.0787 -0.8017  0.2382
 8588SOL    MW434120   3.170   4.691   1.089  0.6798 -0.8423  0.6456
 8589SOL     OW34121   6.065   2.191   2.125  0.7523  0.3372 -0.1942
 8589SOL    HW234122   6.064   2.138   2.046 -0.4054 -0.6325  0.4278
 8589SOL    HW334123   5.972   2.204   2.146  1.0373  1.0341  0.7054
 8589SOL    MW434124   6.052   2.186   2.117  0.6372  0.3013  0.0065
 8590SOL     OW34125   0.368   2.984   4.577 -0.1103  0.3832 -0.4413
 8590SOL    HW234126   0.293   2.974   4.636  0.4636  2.4160  0.7075
 8590SOL    HW334127   0.374   3.078   4.560  1.3592  0.1202 -1.6244
 8590SOL    MW434128   0.359   2.995   4.582  0.1593  0.6167 -0.4458
 8591SOL     OW34129   2.263   6.434   0.506 -0.5204  0.3938  0.5390
 8591SOL    HW234130   2.185   6.465   0.552 -1.7942  1.2292 -1.9643
 8591SOL    HW334131   2.270   6.341   0.530 -1.7084  0.5467  1.5763
 8591SOL    MW434132   2.253   6.425   0.515 -0.8452  0.5242  0.3456
 8592SOL     OW34133   6.003   5.980   4.777 -0.1315 -0.3975  0.1707
 8592SOL    HW234134   6.059   5.943   4.845 -1.5923  1.0744  2.3058
 8592SOL    HW334135   6.026   6.073   4.775 -0.5089 -0.3142 -0.9607
 8592SOL    MW434136   6.013   5.988   4.786 -0.3740 -0.1923  0.3031
 8593SOL     OW34137   1.754   4.855   2.891  0.4244 -0.2582 -0.2692
 8593SOL    HW234138   1.844   4.876   2.918  1.1132 -1.6565 -1.3336
 8593SOL    HW334139   1.699   4.906   2.950  1.8916 -0.4222  1.3326
 8593SOL    MW434140   1.759   4.865   2.902  0.7089 -0.4643 -0.1983
 8594SOL     OW34141   1.835   0.294   6.123 -0.0687  0.3229 -0.3860
 8594SOL    HW234142   1.859   0.379   6.088 -0.4249  1.3638  1.7429
 8594SOL    HW334143   1.918   0.254   6.150  0.1244 -0.1702 -1.5974
 8594SOL    MW434144   1.849   0.300   6.122 -0.0902  0.3952 -0.2649
 8595SOL     OW34145   4.396   3.586   2.034  0.5638 -0.4523  0.2013
 8595SOL    HW234146   4.332   3.649   2.065  1.5176 -0.2915  1.9871
 8595SOL    HW334147   4.411   3.527   2.108  3.6838  0.5312  0.5251
 8595SOL    MW434148   4.390   3.587   2.048  1.1013 -0.3014  0.4796
 8596SOL     OW34149   3.046   5.845   2.466 -1.1197 -0.2548 -0.8802
 8596SOL    HW234150   3.024   5.759   2.503 -0.7986 -0.2108 -0.5766
 8596SOL    HW334151   3.011   5.908   2.529  0.5025 -0.1934  0.0057
 8596SOL    MW434152   3.039   5.842   2.480 -0.8633 -0.2409 -0.7233
 8597SOL     OW34153   2.886   5.570   1.983  0.0337  0.2947  0.0325
 8597SOL    HW234154   2.830   5.594   1.909 -0.8730 -0.1367  0.5633
 8597SOL    HW334155   2.850   5.620   2.056  1.1522  1.0062  0.1197
 8597SOL    MW434156   2.874   5.580   1.983  0.0616  0.3317  0.1140
 8598SOL     OW34157   3.961   4.076   2.290  0.0472  0.4428 -0.4181
 8598SOL    HW234158   4.055   4.092   2.282  0.3551 -0.3564  1.2706
 8598SOL    HW334159   3.945   4.069   2.384 -1.4763 -0.6431 -0.7160
 8598SOL    MW434160   3.971   4.077   2.301 -0.1132  0.1941 -0.2346
 8599SOL     OW34161   3.328   5.800   2.506  0.3527 -0.3379 -0.5518
 8599SOL    HW234162   3.332   5.756   2.591  1.0735  1.8308  0.5906
 8599SOL    HW334163   3.239   5.782   2.475 -0.3122 -0.2454  1.1762
 8599SOL    MW434164   3.317   5.792   2.513  0.3601 -0.0396 -0.1731
 8600SOL     OW34165   3.306   1.616   1.659  0.1405 -0.1101  0.0098
 8600SOL    HW234166   3.265   1.643   1.577 -0.4735 -1.3313 -0.1166
 8600SOL    HW334167   3.374   1.681   1.675  0.9580 -0.3993 -2.0054
 8600SOL    MW434168   3.310   1.628   1.651  0.1673 -0.3094 -0.2728
 8601SOL     OW34169   0.660   3.583   4.315 -0.1965  0.1286  0.6364
 8601SOL    HW234170   0.624   3.664   4.279 -0.7257  0.2077  1.3290
 8601SOL    HW334171   0.747   3.576   4.275 -0.8184  0.1085 -0.7932
 8601SOL    MW434172   0.667   3.593   4.305 -0.3484  0.1364  0.5392
 8602SOL     OW34173   1.744   3.680   3.935  0.2519  0.2740  0.0822
 8602SOL    HW234174   1.689   3.709   4.008 -0.7596  0.4399 -0.7125
 8602SOL    HW334175   1.824   3.648   3.976  0.1970  1.4570  1.1883
 8602SOL    MW434176   1.747   3.680   3.950  0.1112  0.4520  0.1233
 8603SOL     OW34177   4.595   4.336   3.701 -0.0737 -0.1226  0.3076
 8603SOL    HW234178   4.528   4.368   3.641  0.1754  2.9054  1.4570
 8603SOL    HW334179   4.554   4.263   3.746 -2.1981  0.8744  0.1227
 8603SOL    MW434180   4.581   4.331   3.699 -0.3211  0.4085  0.4348
 8604SOL     OW34181   1.561   4.354   1.345 -0.4245  0.8312 -0.5738
 8604SOL    HW234182   1.544   4.432   1.291 -0.4750  1.9541  1.0163
 8604SOL    HW334183   1.657   4.345   1.343 -0.3225  1.6098  0.1153
 8604SOL    MW434184   1.572   4.363   1.337 -0.4177  1.0821 -0.2731
 8605SOL     OW34185   2.169   5.821   3.137  0.0857 -0.0332  0.2831
 8605SOL    HW234186   2.173   5.915   3.121  2.4485 -0.1955 -0.5869
 8605SOL    HW334187   2.212   5.810   3.222  2.9678 -0.4944 -1.0915
 8605SOL    MW434188   2.175   5.832   3.146  0.7777 -0.1154 -0.0130
 8606SOL     OW34189   4.851   6.226   3.838 -0.9276  0.6689 -0.1399
 8606SOL    HW234190   4.873   6.133   3.828 -1.2745  0.6091 -0.3784
 8606SOL    HW334191   4.877   6.247   3.928 -0.8173  0.3476 -0.0951
 8606SOL    MW434192   4.857   6.216   3.849 -0.9588  0.6187 -0.1655
 8607SOL     OW34193   3.178   4.053   3.485 -0.3432 -0.1760 -0.4414
 8607SOL    HW234194   3.116   4.100   3.430 -0.1466  0.3178 -0.2492
 8607SOL    HW334195   3.210   3.981   3.430 -2.1066 -1.2867 -0.0804
 8607SOL    MW434196   3.174   4.050   3.471 -0.5499 -0.2574 -0.3684
 8608SOL     OW34197   1.268   1.528   3.311 -0.1683  0.4333  0.1451
 8608SOL    HW234198   1.296   1.502   3.224  2.0202 -0.3184  1.0110
 8608SOL    HW334199   1.300   1.617   3.321 -1.3662  0.9169 -0.1867
 8608SOL    MW434200   1.276   1.536   3.301 -0.0376  0.3979  0.2156
 8609SOL     OW34201   3.372   0.544   2.228 -0.2957 -0.3483  0.0296
 8609SOL    HW234202   3.445   0.488   2.256 -0.9470 -1.9948 -1.4362
 8609SOL    HW334203   3.321   0.558   2.308  0.8232 -0.3601  0.7763
 8609SOL    MW434204   3.375   0.538   2.242 -0.2340 -0.5671 -0.0653
 8610SOL     OW34205   3.207   3.551   1.935  0.6277  0.1827  0.4497
 8610SOL    HW234206   3.243   3.635   1.906  1.5203 -0.3402 -0.0005
 8610SOL    HW334207   3.283   3.499   1.957  0.1324 -0.8477 -0.2028
 8610SOL    MW434208   3.222   3.555   1.934  0.6801 -0.0222  0.3042
 8611SOL     OW34209   2.045   2.477   2.750 -0.4708  0.3976  0.1427
 8611SOL    HW234210   2.138   2.498   2.758 -0.5293  0.1609  1.7121
 8611SOL    HW334211   2.031   2.404   2.810 -1.2650 -1.0093 -1.6318
 8611SOL    MW434212   2.055   2.470   2.759 -0.5833  0.1808  0.1157
 8612SOL     OW34213   3.455   2.085   3.163 -0.1194  0.1133 -0.2720
 8612SOL    HW234214   3.450   2.079   3.258  0.5060 -0.4923 -0.2628
 8612SOL    HW334215   3.532   2.139   3.147 -0.4524  0.5419 -0.4336
 8612SOL    MW434216   3.465   2.091   3.173 -0.0809  0.0900 -0.2921
 8613SOL     OW34217   3.897   2.801   5.666  0.0443 -0.2595 -0.0185
 8613SOL    HW234218   3.935   2.802   5.578  0.2910 -0.0176  0.0895
 8613SOL    HW334219   3.853   2.886   5.674  0.0494 -0.2682  0.1050
 8613SOL    MW434220   3.896   2.812   5.655  0.0776 -0.2288  0.0120
 8614SOL     OW34221   6.231   1.563   4.087 -0.3270 -0.0125 -0.0868
 8614SOL    HW234222   6.318   1.523   4.078 -0.5352 -0.5334  0.2065
 8614SOL    HW334223   6.229   1.595   4.177 -0.6107 -0.4021  0.0440
 8614SOL    MW434224   6.243   1.562   4.097 -0.3919 -0.1326 -0.0308
 8615SOL     OW34225   6.394   1.623   3.439 -0.2245 -0.4030 -0.6360
 8615SOL    HW234226   6.418   1.712   3.464 -2.6536 -0.0753  0.8608
 8615SOL    HW334227   6.469   1.570   3.466  1.3137  1.1571 -1.6643
 8615SOL    MW434228   6.407   1.628   3.446 -0.3420 -0.1539 -0.5742
 8616SOL     OW34229   5.199   1.359   1.784 -0.5892  0.3488  0.1278
 8616SOL    HW234230   5.110   1.380   1.757 -0.4079  1.3531  0.2841
 8616SOL    HW334231   5.255   1.396   1.715 -0.2327  0.9884  0.7479
 8616SOL    MW434232   5.195   1.366   1.771 -0.5182  0.5657  0.2302
 8617SOL     OW34233   4.292   3.734   5.282 -0.1295  0.4262  0.1863
 8617SOL    HW234234   4.284   3.815   5.334 -1.1902  1.0032 -0.8368
 8617SOL    HW334235   4.312   3.764   5.194  2.2009 -0.5687  0.3068
 8617SOL    MW434236   4.293   3.749   5.278  0.0380  0.3711  0.0672
 8618SOL     OW34237   3.282   5.291   2.743 -0.4746 -0.1597 -0.1697
 8618SOL    HW234238   3.354   5.335   2.697  0.3769  0.0996  1.3331
 8618SOL    HW334239   3.303   5.198   2.736 -0.5404 -0.1426 -0.6058
 8618SOL    MW434240   3.295   5.284   2.736 -0.3710 -0.1232 -0.0290
 8619SOL     OW34241   4.838   2.272   2.114 -0.0737 -0.5035 -0.1199
 8619SOL    HW234242   4.866   2.309   2.198  2.0320 -2.5033  0.1742
 8619SOL    HW334243   4.833   2.347   2.055 -0.0097  0.7350  1.3972
 8619SOL    MW434244   4.841   2.287   2.117  0.2126 -0.6039  0.1190
 8620SOL     OW34245   3.420   0.663   6.023  0.9918  0.4483  0.4289
 8620SOL    HW234246   3.462   0.748   6.011  1.3080  0.3808  1.0306
 8620SOL    HW334247   3.372   0.648   5.942 -0.3598  1.9375  0.8961
 8620SOL    MW434248   3.419   0.672   6.011  0.8552  0.6359  0.5699
 8621SOL     OW34249   0.316   3.817   3.605 -0.0487 -0.2803  0.4301
 8621SOL    HW234250   0.262   3.777   3.536 -1.2613 -1.0174  1.7510
 8621SOL    HW334251   0.335   3.745   3.665 -1.6339  0.8898  2.4728
 8621SOL    MW434252   0.311   3.802   3.604 -0.4179 -0.2232  0.8739
 8622SOL     OW34253   4.543   4.057   1.008  0.2710  0.3592 -0.2583
 8622SOL    HW234254   4.606   4.026   1.074  1.2838 -0.3374 -1.5003
 8622SOL    HW334255   4.467   3.999   1.018  0.6707 -0.1488 -0.1067
 8622SOL    MW434256   4.541   4.045   1.018  0.4573  0.2003 -0.4022
 8623SOL     OW34257   2.019   5.453   3.990  0.2099  0.8956  0.1081
 8623SOL    HW234258   2.103   5.498   3.984  0.2939  0.6712 -0.4135
 8623SOL    HW334259   2.039   5.371   4.037  0.4536  0.4407 -0.7638
 8623SOL    MW434260   2.033   5.448   3.996  0.2531  0.8060 -0.0757
 8624SOL     OW34261   2.989   0.146   3.345 -0.1111 -0.2182 -0.4288
 8624SOL    HW234262   2.933   0.214   3.382  1.4441  0.3854  0.9487
 8624SOL    HW334263   2.935   0.068   3.345 -0.6644  0.0992  1.8207
 8624SOL    MW434264   2.975   0.145   3.350  0.0211 -0.0967  0.0497
 8625SOL     OW34265   2.957   0.415   4.143 -0.0964  0.9417  0.3762
 8625SOL    HW234266   3.052   0.407   4.137 -0.3393 -1.1017 -2.0706
 8625SOL    HW334267   2.943   0.464   4.225  2.9689 -0.0451  1.6494
 8625SOL    MW434268   2.967   0.420   4.153  0.2760  0.5419  0.2213
 8626SOL     OW34269   1.775   2.781   5.053  0.5057  0.5553 -0.5775
 8626SOL    HW234270   1.804   2.860   5.007  0.1445  1.3974  0.6048
 8626SOL    HW334271   1.713   2.812   5.119 -0.6855 -0.8714 -0.9714
 8626SOL    MW434272   1.771   2.796   5.056  0.3009  0.4782 -0.4735
 8627SOL     OW34273   3.024   4.538   2.442 -0.4507 -0.6517 -0.1453
 8627SOL    HW234274   2.976   4.570   2.519 -0.0283 -1.0342  0.2813
 8627SOL    HW334275   2.955   4.506   2.384 -0.8967  1.0958 -0.6391
 8627SOL    MW434276   3.008   4.538   2.445 -0.4538 -0.4716 -0.1541
 8628SOL     OW34277   5.256   3.661   3.262 -0.2863  0.2101  0.7083
 8628SOL    HW234278   5.300   3.694   3.340  0.9512  0.0219  0.1275
 8628SOL    HW334279   5.246   3.567   3.277 -1.7923  0.4708  1.4308
 8628SOL    MW434280   5.261   3.653   3.274 -0.3217  0.2196  0.7270
 8629SOL     OW34281   4.628   0.993   0.091 -0.4402  0.1924 -0.5623
 8629SOL    HW234282   4.614   1.005  -0.003 -1.2947 -0.1344 -0.4830
 8629SOL    HW334283   4.551   0.945   0.121 -1.3767  2.3887  0.7450
 8629SOL    MW434284   4.616   0.988   0.082 -0.6765  0.4391 -0.3794
 8630SOL     OW34285   1.174   3.399   2.836  0.1549  0.3420 -0.9182
 8630SOL    HW234286   1.136   3.478   2.798 -0.1083  0.8289  0.2908
 8630SOL    HW334287   1.124   3.385   2.916  1.6605  0.2486  0.0474
 8630SOL    MW434288   1.162   3.408   2.842  0.3188  0.3939 -0.6313
 8631SOL     OW34289   5.590   1.523   1.564  0.1575  0.1005  0.3405
 8631SOL    HW234290   5.499   1.553   1.564 -0.1741 -0.8816  0.0458
 8631SOL    HW334291   5.584   1.427   1.562  1.1764 -0.0657  2.3266
 8631SOL    MW434292   5.577   1.514   1.564  0.2482 -0.0510  0.5636
 8632SOL     OW34293   0.921   5.135   5.112  0.0408 -0.1323 -0.1842
 8632SOL    HW234294   0.929   5.230   5.100 -0.0660 -0.2592 -1.4687
 8632SOL    HW334295   0.834   5.122   5.148 -0.5183  0.1791 -1.3784
 8632SOL    MW434296   0.911   5.146   5.115 -0.0470 -0.1080 -0.5112
 8633SOL     OW34297   5.524   5.454   5.374 -0.3753  0.4703  0.3034
 8633SOL    HW234298   5.574   5.428   5.297 -0.7271  0.4341  0.0843
 8633SOL    HW334299   5.433   5.451   5.345 -0.4078  3.1987 -0.1328
 8633SOL    MW434300   5.519   5.450   5.360 -0.4260  0.8255  0.2169
 8634SOL     OW34301   0.675   5.082   3.686  0.6212 -0.0145 -0.0829
 8634SOL    HW234302   0.616   5.119   3.752  2.0283  0.8607  0.7365
 8634SOL    HW334303   0.756   5.133   3.695  0.9407 -0.0437 -2.3275
 8634SOL    MW434304   0.678   5.094   3.696  0.8490  0.0971 -0.2710
 8635SOL     OW34305   2.527   0.998   4.412  0.3134 -0.1195 -0.5572
 8635SOL    HW234306   2.542   0.948   4.492 -0.7597 -0.3758 -0.5016
 8635SOL    HW334307   2.433   0.988   4.394  0.8053 -1.4851 -2.7809
 8635SOL    MW434308   2.516   0.990   4.420  0.2367 -0.3335 -0.8432
 8636SOL     OW34309   1.768   3.145   2.816 -0.5706  0.2702 -0.0125
 8636SOL    HW234310   1.829   3.075   2.838  0.6028  1.4849  0.7462
 8636SOL    HW334311   1.756   3.193   2.898 -2.1093  0.3973 -0.2927
 8636SOL    MW434312   1.775   3.143   2.830 -0.6188  0.4472  0.0506
 8637SOL     OW34313   6.297   4.347   4.933  0.3298 -0.0365 -0.0774
 8637SOL    HW234314   6.358   4.420   4.923 -0.2239  0.5252  0.5185
 8637SOL    HW334315   6.265   4.355   5.023  0.5552 -1.2524  0.1223
 8637SOL    MW434316   6.301   4.358   4.944  0.2865 -0.1228  0.0276
 8638SOL     OW34317   2.724   6.301   6.411 -0.1503  0.1236 -0.3264
 8638SOL    HW234318   2.640   6.322   6.368  0.2158 -1.6484 -2.0489
 8638SOL    HW334319   2.699   6.271   6.498 -1.0626  2.2125  0.1870
 8638SOL    MW434320   2.709   6.300   6.417 -0.2224  0.1654 -0.4859
 8639SOL     OW34321   3.509   1.195   4.430  0.1059 -0.3295  0.4224
 8639SOL    HW234322   3.589   1.160   4.469  0.6651 -1.2875 -1.4938
 8639SOL    HW334323   3.536   1.278   4.390 -0.0407 -0.2716  0.4424
 8639SOL    MW434324   3.523   1.201   4.430  0.1603 -0.4483  0.1722
 8640SOL     OW34325   1.770   0.365   2.216 -0.2856  0.0998 -0.2592
 8640SOL    HW234326   1.689   0.407   2.245  0.0054  0.5739 -0.1055
 8640SOL    HW334327   1.786   0.401   2.129 -1.4254 -1.7052 -1.2723
 8640SOL    MW434328   1.761   0.375   2.208 -0.3976 -0.0758 -0.3726
 8641SOL     OW34329   2.711   2.721   4.888 -0.0784 -0.0880 -0.0473
 8641SOL    HW234330   2.720   2.767   4.805  0.8431 -0.6993 -0.2967
 8641SOL    HW334331   2.763   2.772   4.950 -1.3180  0.7540  0.3328
 8641SOL    MW434332   2.719   2.734   4.885 -0.1204 -0.0575 -0.0301
 8642SOL     OW34333   3.695   3.265   2.691 -0.3773 -0.1310  0.0453
 8642SOL    HW234334   3.771   3.215   2.661  0.4751  1.2694 -0.2439
 8642SOL    HW334335   3.630   3.254   2.621 -0.6950 -1.8286  0.5760
 8642SOL    MW434336   3.697   3.257   2.678 -0.3068 -0.1702  0.0772
 8643SOL     OW34337   3.577   2.415   6.332  0.2508 -0.7026 -0.0765
 8643SOL    HW234338   3.576   2.497   6.283  0.1444 -0.4322  0.3751
 8643SOL    HW334339   3.495   2.416   6.382  0.6827 -0.6406  0.6524
 8643SOL    MW434340   3.566   2.426   6.332  0.2938 -0.6587  0.0793
 8644SOL     OW34341   4.242   4.529   0.699 -0.3776  0.1912  0.4539
 8644SOL    HW234342   4.276   4.457   0.646 -2.2811 -0.4097 -0.0177
 8644SOL    HW334343   4.251   4.498   0.789  2.2247  0.9323  0.5373
 8644SOL    MW434344   4.248   4.515   0.703 -0.2854  0.2097  0.4027
 8645SOL     OW34345   0.181   4.418   5.727 -0.0550 -0.0561  0.0381
 8645SOL    HW234346   0.234   4.450   5.654 -0.9489 -0.9887 -1.0628
 8645SOL    HW334347   0.091   4.440   5.703 -0.1666  3.6526  2.9477
 8645SOL    MW434348   0.176   4.425   5.714 -0.1877  0.3102  0.2768
 8646SOL     OW34349   0.587   5.092   6.387  0.6780 -0.3010 -0.4127
 8646SOL    HW234350   0.574   5.182   6.356  0.1322  0.0545  0.7930
 8646SOL    HW334351   0.549   5.038   6.318 -1.4655  0.5047  0.0647
 8646SOL    MW434352   0.580   5.097   6.374  0.3232 -0.1478 -0.1906
 8647SOL     OW34353   4.183   5.872   1.935  0.2474 -0.3127  0.4734
 8647SOL    HW234354   4.159   5.817   1.860  0.9947 -1.0638  0.7730
 8647SOL    HW334355   4.112   5.858   1.998 -1.4338  1.8255 -0.7946
 8647SOL    MW434356   4.171   5.863   1.933  0.1242 -0.1297  0.3456
 8648SOL     OW34357   0.030   2.191   1.983  0.9346 -0.3573 -0.0967
 8648SOL    HW234358  -0.006   2.224   1.901  1.6608 -1.0731 -0.7273
 8648SOL    HW334359   0.114   2.236   1.993  0.0192  1.1707  1.2743
 8648SOL    MW434360   0.036   2.201   1.974  0.9096 -0.2501  0.0010
 8649SOL     OW34361   0.913   1.477   5.945 -0.3641 -0.1623  0.1646
 8649SOL    HW234362   0.958   1.556   5.974 -1.0127 -0.1731  1.2363
 8649SOL    HW334363   0.871   1.442   6.023 -2.5066  0.0315 -0.8094
 8649SOL    MW434364   0.913   1.483   5.959 -0.7324 -0.1382  0.1775
 8650SOL     OW34365   5.483   4.961   4.669 -0.4022 -0.8035  0.2687
 8650SOL    HW234366   5.491   4.959   4.574 -2.3214 -0.8416  0.0804
 8650SOL    HW334367   5.537   4.888   4.699  2.2188  0.6202 -0.5604
 8650SOL    MW434368   5.491   4.951   4.660 -0.3096 -0.6207  0.1345
 8651SOL     OW34369   0.679   0.692   5.719  0.3643 -0.3161  0.4353
 8651SOL    HW234370   0.769   0.697   5.687 -0.6988  2.5276 -2.7243
 8651SOL    HW334371   0.628   0.662   5.644 -1.4991 -0.6597  1.7612
 8651SOL    MW434372   0.684   0.689   5.705 -0.0218  0.0137  0.1934
 8652SOL     OW34373   0.627   1.932   2.122  0.8250 -0.1637 -0.0416
 8652SOL    HW234374   0.576   1.892   2.052  2.4756 -0.5506 -1.0795
 8652SOL    HW334375   0.712   1.889   2.117  0.5968 -1.2602  3.1782
 8652SOL    MW434376   0.631   1.921   2.112  1.0127 -0.3594  0.2463
 8653SOL     OW34377   0.262   3.194   6.288 -0.2657 -0.2437 -0.1051
 8653SOL    HW234378   0.283   3.283   6.316 -0.6106 -0.0363 -0.4939
 8653SOL    HW334379   0.259   3.199   6.193  1.2078 -1.0076 -0.2339
 8653SOL    MW434380   0.265   3.207   6.279 -0.1168 -0.3172 -0.1734
 8654SOL     OW34381   0.534   2.960   2.092 -0.6392 -0.2796 -0.7134
 8654SOL    HW234382   0.491   3.026   2.146  1.2667  1.4772 -1.2368
 8654SOL    HW334383   0.484   2.960   2.010 -0.8081  0.3272 -0.6132
 8654SOL    MW434384   0.522   2.969   2.088 -0.4100  0.0322 -0.7693
 8655SOL     OW34385   0.701   5.319   0.896  0.2172 -0.1066 -0.6814
 8655SOL    HW234386   0.757   5.397   0.897 -1.1156  0.8987  0.9177
 8655SOL    HW334387   0.612   5.354   0.894 -0.4069 -1.6464 -1.6441
 8655SOL    MW434388   0.697   5.334   0.896 -0.0410 -0.1771 -0.5975
 8656SOL     OW34389   5.768   4.604   4.796  0.6358 -0.2814 -0.3747
 8656SOL    HW234390   5.777   4.650   4.879 -1.7152 -1.5906  0.7096
 8656SOL    HW334391   5.760   4.673   4.730  0.7931  0.7905  0.7090
 8656SOL    MW434392   5.768   4.619   4.798  0.3464 -0.3127 -0.0886
 8657SOL     OW34393   1.363   4.995   3.369 -0.2172 -0.0004 -0.0292
 8657SOL    HW234394   1.341   5.022   3.280  0.8746 -0.2018 -0.3743
 8657SOL    HW334395   1.456   4.974   3.365 -0.6038 -2.0461  0.6589
 8657SOL    MW434396   1.372   4.996   3.357 -0.1241 -0.2969  0.0160
 8658SOL     OW34397   5.999   1.729   1.066 -0.0630  0.1809  0.0168
 8658SOL    HW234398   6.024   1.639   1.087 -1.1319  0.0472  0.7642
 8658SOL    HW334399   6.044   1.782   1.132 -2.7218 -0.1707  2.2658
 8658SOL    MW434400   6.009   1.724   1.077 -0.5548  0.1169  0.4121
 8659SOL     OW34401   2.704   1.188   1.530  0.1897 -0.0433  0.5351
 8659SOL    HW234402   2.613   1.186   1.501 -0.2317 -3.8475  1.5206
 8659SOL    HW334403   2.746   1.117   1.481  2.1735  0.4810  1.3772
 8659SOL    MW434404   2.698   1.178   1.520  0.3958 -0.4760  0.7762
 8660SOL     OW34405   4.559   2.302   5.021 -0.5761  0.0523 -0.1397
 8660SOL    HW234406   4.558   2.338   5.109 -2.6639  1.2911 -0.6033
 8660SOL    HW334407   4.638   2.338   4.980 -0.0760  0.1746  0.9038
 8660SOL    MW434408   4.570   2.311   5.027 -0.7856  0.2319 -0.0632
 8661SOL     OW34409   0.597   5.917   1.857 -0.2220  0.3294 -0.3091
 8661SOL    HW234410   0.619   5.826   1.880 -1.2630  0.0931 -0.2283
 8661SOL    HW334411   0.502   5.917   1.846 -0.1814  1.3166 -0.7528
 8661SOL    MW434412   0.588   5.905   1.858 -0.3540  0.4285 -0.3570
 8662SOL     OW34413   2.454   4.836   0.919 -0.3763 -0.0332  0.2213
 8662SOL    HW234414   2.398   4.849   0.995  0.8511 -0.4681  1.2382
 8662SOL    HW334415   2.464   4.741   0.911  1.4723  0.0409  1.0686
 8662SOL    MW434416   2.448   4.825   0.928  0.0296 -0.0808  0.4673
 8663SOL     OW34417   4.924   5.582   0.662  0.5657 -0.2179  0.8289
 8663SOL    HW234418   4.854   5.604   0.722 -0.1875 -0.3898  0.0282
 8663SOL    HW334419   4.930   5.658   0.603  0.3511 -0.6354  0.2625
 8663SOL    MW434420   4.916   5.595   0.662  0.4380 -0.2957  0.6485
 8664SOL     OW34421   5.135   4.435   5.781 -0.1590  0.1055 -0.4707
 8664SOL    HW234422   5.140   4.510   5.722  0.1500 -0.0205 -0.6011
 8664SOL    HW334423   5.097   4.472   5.861  0.8716  0.6136 -0.1947
 8664SOL    MW434424   5.130   4.450   5.784  0.0178  0.1559 -0.4515
 8665SOL     OW34425   0.216   2.035   1.214  0.0551 -0.6597 -0.3089
 8665SOL    HW234426   0.283   2.010   1.151  1.7064  1.1811  0.5857
 8665SOL    HW334427   0.137   1.988   1.187  1.1449 -1.2310 -2.6788
 8665SOL    MW434428   0.214   2.026   1.202  0.4168 -0.4922 -0.5036
 8666SOL     OW34429   5.660   0.136   0.106 -0.7838 -0.2605 -0.0584
 8666SOL    HW234430   5.654   0.041   0.109 -0.4754 -0.3664 -1.7524
 8666SOL    HW334431   5.752   0.154   0.086 -0.9387  0.3581 -0.2517
 8666SOL    MW434432   5.671   0.126   0.104 -0.7635 -0.1928 -0.3074
 8667SOL     OW34433   4.866   0.630   4.602  0.4949 -0.7571 -0.8523
 8667SOL    HW234434   4.898   0.639   4.691  1.3481  0.8215 -1.2805
 8667SOL    HW334435   4.804   0.557   4.606 -1.4105  0.8495  1.5388
 8667SOL    MW434436   4.862   0.622   4.614  0.3561 -0.3368 -0.5933
 8668SOL     OW34437   4.167   0.833   5.352 -0.2579 -0.4364 -0.2005
 8668SOL    HW234438   4.072   0.819   5.361  0.0753 -1.8199  2.2404
 8668SOL    HW334439   4.200   0.749   5.321  0.1993  0.0722 -1.1324
 8668SOL    MW434440   4.159   0.820   5.349 -0.1536 -0.5518 -0.0014
 8669SOL     OW34441   2.123   1.316   2.519  0.6378  0.0762  0.5756
 8669SOL    HW234442   2.186   1.385   2.541 -0.3833  1.2647 -0.1477
 8669SOL    HW334443   2.110   1.325   2.425 -0.9362  0.1431  0.7819
 8669SOL    MW434444   2.130   1.326   2.510  0.2954  0.2418  0.5074
 8670SOL     OW34445   1.008   5.677   2.762  0.8833 -0.4940  0.1818
 8670SOL    HW234446   0.988   5.768   2.741  1.5039  0.1348  2.0688
 8670SOL    HW334447   1.070   5.649   2.695 -1.2503 -0.4179 -1.9561
 8670SOL    MW434448   1.013   5.685   2.750  0.6837 -0.4010  0.1487
 8671SOL     OW34449   3.866   2.133   1.957  0.4339  0.2143 -0.0753
 8671SOL    HW234450   3.917   2.084   1.893  0.9892  0.9852 -0.2333
 8671SOL    HW334451   3.897   2.223   1.949 -0.4433  0.5675  0.3354
 8671SOL    MW434452   3.877   2.138   1.947  0.3915  0.3626 -0.0420
 8672SOL     OW34453   6.074   4.047   0.160 -0.3465  0.0761  0.4738
 8672SOL    HW234454   6.012   4.099   0.110  0.6174 -0.4495 -1.3463
 8672SOL    HW334455   6.086   3.967   0.109  3.1137  0.8840 -0.2391
 8672SOL    MW434456   6.068   4.043   0.147  0.2372  0.1134  0.1396
 8673SOL     OW34457   5.722   1.629   0.833  0.3736  0.3263 -0.1829
 8673SOL    HW234458   5.802   1.600   0.789  1.3581  1.2593  0.9104
 8673SOL    HW334459   5.734   1.602   0.924  0.2587  1.9900  0.3643
 8673SOL    MW434460   5.734   1.621   0.839  0.4884  0.6689  0.0336
 8674SOL     OW34461   0.838   3.788   5.100  0.1209  0.2495 -0.9075
 8674SOL    HW234462   0.903   3.847   5.063  1.2211  1.9353  3.1696
 8674SOL    HW334463   0.883   3.746   5.173 -2.6633 -0.4180  0.5549
 8674SOL    MW434464   0.852   3.790   5.105 -0.1013  0.3839 -0.1767
 8675SOL     OW34465   0.748   5.240   2.484  0.0865 -0.0387  0.7408
 8675SOL    HW234466   0.789   5.269   2.565  1.2565 -0.4558  0.3195
 8675SOL    HW334467   0.654   5.246   2.501  0.1639 -3.4725  3.3941
 8675SOL    MW434468   0.741   5.245   2.497  0.2511 -0.5468  1.0353
 8676SOL     OW34469   1.248   4.571   3.626 -0.4595  0.0706 -0.4217
 8676SOL    HW234470   1.218   4.643   3.570 -0.5887 -0.2280 -0.7384
 8676SOL    HW334471   1.332   4.545   3.590  0.3379  1.0869  0.6314
 8676SOL    MW434472   1.255   4.577   3.614 -0.3713  0.1653 -0.3246
 8677SOL     OW34473   5.749   5.236   4.619 -0.0602  0.3108  0.1534
 8677SOL    HW234474   5.785   5.168   4.676 -0.7582  0.0728  0.3151
 8677SOL    HW334475   5.655   5.216   4.614  0.0479  0.1033 -1.3752
 8677SOL    MW434476   5.741   5.224   4.626 -0.1380  0.2521 -0.0269
 8678SOL     OW34477   5.763   6.400   4.306 -0.1159 -0.3151 -0.1119
 8678SOL    HW234478   5.795   6.373   4.220  0.0844 -1.4677  0.3072
 8678SOL    HW334479   5.762   6.496   4.303 -0.6115 -0.3466 -1.5714
 8678SOL    MW434480   5.767   6.409   4.295 -0.1549 -0.4713 -0.2492
 8679SOL     OW34481   1.349   4.638   2.057  0.3736 -0.6780 -0.6452
 8679SOL    HW234482   1.317   4.718   2.099  1.3862 -1.0478  0.9204
 8679SOL    HW334483   1.297   4.568   2.096  0.3761 -0.9101 -1.0526
 8679SOL    MW434484   1.338   4.639   2.068  0.5076 -0.7574 -0.4924
 8680SOL     OW34485   0.303   1.728   3.064  0.5473  0.5153 -0.2478
 8680SOL    HW234486   0.218   1.710   3.105  0.1830 -0.7101 -1.4599
 8680SOL    HW334487   0.361   1.750   3.136 -0.5677  0.4134  0.7028
 8680SOL    MW434488   0.299   1.729   3.079  0.3522  0.3402 -0.2823
 8681SOL     OW34489   5.444   2.549   1.366 -0.7979  0.0765  0.0546
 8681SOL    HW234490   5.466   2.509   1.450 -0.6709  2.0047  1.0137
 8681SOL    HW334491   5.378   2.492   1.328  1.1856 -2.4017  0.0866
 8681SOL    MW434492   5.438   2.536   1.372 -0.5194  0.0040  0.1853
 8682SOL     OW34493   3.265   6.447   2.823 -0.0444 -0.0123 -0.2246
 8682SOL    HW234494   3.233   6.482   2.906  2.2338 -0.2377  0.8319
 8682SOL    HW334495   3.291   6.357   2.844 -0.4117 -0.4274 -1.4615
 8682SOL    MW434496   3.265   6.439   2.837  0.2078 -0.0968 -0.2484
 8683SOL     OW34497   0.656   3.798   2.062  0.1064 -0.4009  0.1358
 8683SOL    HW234498   0.562   3.805   2.075 -0.3569 -1.1349 -2.2299
 8683SOL    HW334499   0.678   3.871   2.004  0.7180 -1.0036 -0.4122
 8683SOL    MW434500   0.647   3.808   2.056  0.1260 -0.5772 -0.2486
 8684SOL     OW34501   4.173   2.156   4.269  0.4649 -0.1952 -0.5147
 8684SOL    HW234502   4.097   2.120   4.316 -0.5762  0.9397 -1.2649
 8684SOL    HW334503   4.222   2.080   4.240  0.0185 -0.9447  0.6405
 8684SOL    MW434504   4.169   2.142   4.272  0.2686 -0.1443 -0.4613
 8685SOL     OW34505   3.087   0.323   1.091 -0.2265 -0.3688  0.2855
 8685SOL    HW234506   3.020   0.306   1.025  1.6943 -2.6936 -1.2236
 8685SOL    HW334507   3.138   0.396   1.055 -1.4064  0.8958  1.0786
 8685SOL    MW434508   3.085   0.330   1.078 -0.1287 -0.5087  0.1910
 8686SOL     OW34509   6.091   1.718   5.361  0.2338  0.2801  0.0299
 8686SOL    HW234510   6.016   1.726   5.420  0.3777 -0.1978  0.2803
 8686SOL    HW334511   6.115   1.625   5.364  1.2105  0.5268  0.4264
 8686SOL    MW434512   6.085   1.707   5.369  0.3817  0.2496  0.1153
 8687SOL     OW34513   5.584   4.050   2.301 -0.7551  0.1605 -0.3318
 8687SOL    HW234514   5.504   4.052   2.249  0.4071 -0.8539 -2.3044
 8687SOL    HW334515   5.572   3.976   2.360 -0.5072 -1.3751 -2.0893
 8687SOL    MW434516   5.572   4.041   2.302 -0.5691 -0.1760 -0.8240
 8688SOL     OW34517   2.276   3.785   2.332 -0.4713 -0.5453 -0.1997
 8688SOL    HW234518   2.254   3.712   2.390 -2.7370  0.8498  0.8512
 8688SOL    HW334519   2.192   3.815   2.298  0.6754 -0.3701 -3.1600
 8688SOL    MW434520   2.262   3.780   2.336 -0.6189 -0.3381 -0.4517
 8689SOL     OW34521   3.607   1.287   1.559  0.1669 -0.3890  0.3273
 8689SOL    HW234522   3.577   1.335   1.636 -0.8563 -1.5773  0.6970
 8689SOL    HW334523   3.528   1.273   1.507  0.4862 -1.3969  0.0844
 8689SOL    MW434524   3.592   1.292   1.562  0.0741 -0.6788  0.3440
 8690SOL     OW34525   6.104   1.797   2.286 -0.4679 -0.3269  0.0033
 8690SOL    HW234526   6.182   1.852   2.301  0.3240 -1.2411 -0.6598
 8690SOL    HW334527   6.030   1.857   2.300  0.3640  1.2029 -1.5928
 8690SOL    MW434528   6.104   1.812   2.290 -0.2537 -0.2457 -0.2948
 8691SOL     OW34529   1.996   3.428   1.745 -0.6164  0.2920 -0.4281
 8691SOL    HW234530   1.910   3.414   1.785 -1.1562  3.8354 -0.0674
 8691SOL    HW334531   2.048   3.470   1.813  2.2845 -3.6443  0.1036
 8691SOL    MW434532   1.992   3.432   1.759 -0.3049  0.2401 -0.3104
 8692SOL     OW34533   1.583   3.448   0.441 -0.2748  0.1914 -0.2177
 8692SOL    HW234534   1.568   3.399   0.521  2.6630 -2.3058 -0.9721
 8692SOL    HW334535   1.626   3.529   0.470 -0.8808  0.1579  0.8082
 8692SOL    MW434536   1.587   3.452   0.455  0.0328 -0.1425 -0.1819
 8693SOL     OW34537   2.852   2.218   0.197  0.4412 -0.4651  0.1126
 8693SOL    HW234538   2.923   2.224   0.261  0.9872 -0.3830 -0.4898
 8693SOL    HW334539   2.835   2.124   0.189 -1.4639 -0.4175  2.3277
 8693SOL    MW434540   2.859   2.206   0.204  0.2618 -0.4479  0.3254
 8694SOL     OW34541   4.310   0.249   2.858  0.3994 -0.3859 -0.2141
 8694SOL    HW234542   4.232   0.305   2.851  0.4204 -0.4391 -1.0117
 8694SOL    HW334543   4.373   0.302   2.907  0.1919  0.0362 -0.3990
 8694SOL    MW434544   4.308   0.264   2.863  0.3748 -0.3372 -0.3437
 8695SOL     OW34545   1.550   3.856   6.043  0.0486  0.2017  0.0904
 8695SOL    HW234546   1.471   3.806   6.062 -0.2217  0.5799 -0.0341
 8695SOL    HW334547   1.571   3.833   5.952  0.7104 -0.7422  0.4559
 8695SOL    MW434548   1.542   3.846   6.033  0.1003  0.1271  0.1222
 8696SOL     OW34549   1.211   3.541   2.398  0.2870  0.0917  0.2366
 8696SOL    HW234550   1.244   3.461   2.440  0.2217  1.2162  2.5789
 8696SOL    HW334551   1.182   3.512   2.311 -1.1051 -2.7367  1.5214
 8696SOL    MW434552   1.212   3.527   2.392  0.0947 -0.1331  0.7151
 8697SOL     OW34553   1.440   5.485   2.913  0.1366  0.1016 -0.0132
 8697SOL    HW234554   1.378   5.497   2.985  0.8671 -0.9748  0.8418
 8697SOL    HW334555   1.526   5.488   2.956  0.5661 -1.0588 -0.7558
 8697SOL    MW434556   1.443   5.487   2.928  0.2896 -0.1935  0.0016
 8698SOL     OW34557   4.497   3.407   0.950 -0.1601  0.0905 -0.1337
 8698SOL    HW234558   4.468   3.337   0.891 -0.5658  0.3534 -0.2529
 8698SOL    HW334559   4.416   3.442   0.987  0.1439 -0.7542  1.3931
 8698SOL    MW434560   4.483   3.402   0.947 -0.1735  0.0138  0.0521
 8699SOL     OW34561   0.407   5.244   3.726  0.4038  0.4859  0.3033
 8699SOL    HW234562   0.374   5.254   3.815  0.0523 -0.5218  0.3010
 8699SOL    HW334563   0.336   5.201   3.679  0.5326  1.1360 -0.5046
 8699SOL    MW434564   0.393   5.240   3.732  0.3744  0.4387  0.1964
 8700SOL     OW34565   2.301   2.498   0.584 -0.2019  0.6385  0.2145
 8700SOL    HW234566   2.390   2.519   0.554 -0.2757 -0.6157 -1.0363
 8700SOL    HW334567   2.314   2.435   0.655 -0.0606 -0.3523 -0.6525
 8700SOL    MW434568   2.315   2.492   0.589 -0.1930  0.3423 -0.0649
 8701SOL     OW34569   0.370   5.127   6.153 -0.6667  0.7761 -0.1173
 8701SOL    HW234570   0.314   5.055   6.125 -0.7169  0.4108  0.9027
 8701SOL    HW334571   0.347   5.143   6.244  0.1401  1.3312  0.0083
 8701SOL    MW434572   0.360   5.120   6.161 -0.5669  0.8011  0.0339
 8702SOL     OW34573   5.532   3.455   3.524 -0.0697  0.3048  0.5908
 8702SOL    HW234574   5.619   3.418   3.518  0.0235  0.6484 -0.2757
 8702SOL    HW334575   5.521   3.477   3.617  0.3098 -0.7995  0.9031
 8702SOL    MW434576   5.542   3.453   3.536 -0.0073  0.2045  0.5177
 8703SOL     OW34577   5.478   0.028   3.888 -0.3670  0.2501  0.1394
 8703SOL    HW234578   5.384   0.041   3.874 -0.1717 -0.0529 -1.6253
 8703SOL    HW334579   5.483  -0.049   3.944 -1.1692  0.6611  0.8095
 8703SOL    MW434580   5.466   0.020   3.893 -0.4470  0.2644 -0.0050
 8704SOL     OW34581   2.445   4.465   1.765 -0.0885  0.3212  0.3377
 8704SOL    HW234582   2.509   4.528   1.798 -0.8894  0.2348  2.1819
 8704SOL    HW334583   2.477   4.380   1.795 -0.3821  0.1262  0.1063
 8704SOL    MW434584   2.458   4.462   1.773 -0.2329  0.2841  0.5505
 8705SOL     OW34585   3.915   5.847   3.268  0.0266 -0.0397 -0.4954
 8705SOL    HW234586   3.964   5.929   3.257  0.7821  0.1261  3.1574
 8705SOL    HW334587   3.841   5.871   3.324 -1.3567 -1.3806 -1.6397
 8705SOL    MW434588   3.912   5.861   3.274 -0.0562 -0.1947 -0.1644
 8706SOL     OW34589   1.937   5.954   3.465 -0.0257  0.1884  0.6301
 8706SOL    HW234590   1.897   5.909   3.390 -0.0599  0.2330  0.6221
 8706SOL    HW334591   1.868   6.011   3.498  0.3895  1.1432 -0.0960
 8706SOL    MW434592   1.922   5.955   3.459  0.0246  0.3202  0.5332
 8707SOL     OW34593   0.865   3.523   0.572  0.7978  0.1502 -0.2794
 8707SOL    HW234594   0.873   3.483   0.485 -0.8887  0.5892 -0.6681
 8707SOL    HW334595   0.771   3.528   0.588  0.8198  4.1693 -0.3859
 8707SOL    MW434596   0.854   3.519   0.562  0.5782  0.7384 -0.3447
 8708SOL     OW34597   5.718   2.214   0.130  0.1887  0.1370 -0.6268
 8708SOL    HW234598   5.660   2.200   0.204 -0.4132  2.1818 -0.6457
 8708SOL    HW334599   5.662   2.205   0.053  0.5304 -0.6789 -0.7927
 8708SOL    MW434600   5.703   2.211   0.129  0.1544  0.2991 -0.6512
 8709SOL     OW34601   5.297   0.475   0.564 -0.1838  0.0198  0.6318
 8709SOL    HW234602   5.378   0.475   0.615  0.5225 -1.1998 -0.4180
 8709SOL    HW334603   5.327   0.480   0.473 -1.3106 -0.0527  0.2461
 8709SOL    MW434604   5.312   0.475   0.559 -0.2393 -0.1507  0.4424
 8710SOL     OW34605   5.704   3.742   4.107 -0.3824  0.1061 -0.1443
 8710SOL    HW234606   5.712   3.702   4.193 -3.2684  0.0071  0.1521
 8710SOL    HW334607   5.694   3.836   4.125  1.8594  0.5150 -0.6118
 8710SOL    MW434608   5.704   3.749   4.120 -0.4674  0.1470 -0.1668
 8711SOL     OW34609   2.143   4.743   5.922  0.2673 -0.1111 -0.2500
 8711SOL    HW234610   2.172   4.831   5.900  2.3395 -0.8720 -0.7328
 8711SOL    HW334611   2.145   4.696   5.839  0.4374 -0.9458  0.2189
 8711SOL    MW434612   2.147   4.748   5.909  0.5631 -0.3216 -0.2518
 8712SOL     OW34613   4.475   0.102   1.656 -0.4270 -0.8180 -0.7751
 8712SOL    HW234614   4.478   0.187   1.700  1.6076 -1.0011 -0.4692
 8712SOL    HW334615   4.471   0.038   1.727 -0.6534 -1.0186 -0.9677
 8712SOL    MW434616   4.475   0.105   1.671 -0.1885 -0.8686 -0.7602
 8713SOL     OW34617   1.608   4.745   5.719 -0.0310  0.1418  0.4070
 8713SOL    HW234618   1.595   4.826   5.768  2.9192  1.8137 -1.2634
 8713SOL    HW334619   1.592   4.769   5.628  2.6012 -0.5783 -0.3287
 8713SOL    MW434620   1.604   4.759   5.714  0.7055  0.2674  0.0896
 8714SOL     OW34621   0.516   2.537   4.750 -0.0331  0.4506  0.1690
 8714SOL    HW234622   0.595   2.486   4.766 -0.9734 -1.0371  0.2315
 8714SOL    HW334623   0.500   2.528   4.656 -1.1692 -0.8851  0.4604
 8714SOL    MW434624   0.525   2.529   4.740 -0.3070  0.0781  0.2157
 8715SOL     OW34625   5.062   4.121   1.903  0.1356  0.2888 -0.3726
 8715SOL    HW234626   5.147   4.152   1.934 -0.0705  0.0436  0.4825
 8715SOL    HW334627   4.998   4.176   1.948 -0.1515  0.7309 -1.3136
 8715SOL    MW434628   5.065   4.132   1.913  0.0705  0.3148 -0.3839
 8716SOL     OW34629   1.320   5.308   5.294  0.1306 -0.2662  0.8075
 8716SOL    HW234630   1.270   5.385   5.264  0.4539 -0.7158 -0.9940
 8716SOL    HW334631   1.256   5.237   5.293  0.5989 -0.7066 -0.8771
 8716SOL    MW434632   1.305   5.309   5.290  0.2350 -0.3837  0.3476
 8717SOL     OW34633   0.754   6.020   0.970 -0.3226 -1.0641 -0.4929
 8717SOL    HW234634   0.668   6.016   1.014 -0.4731 -1.2195 -0.8030
 8717SOL    HW334635   0.806   6.076   1.028 -1.4118  1.2562 -1.6121
 8717SOL    MW434636   0.749   6.027   0.984 -0.4861 -0.7784 -0.6815
 8718SOL     OW34637   5.475   3.450   1.806  0.2282 -0.1862 -0.1041
 8718SOL    HW234638   5.390   3.466   1.847  0.5724 -0.4490  0.7384
 8718SOL    HW334639   5.454   3.421   1.718 -0.6253 -1.4903  0.4945
 8718SOL    MW434640   5.461   3.448   1.800  0.1610 -0.3929  0.0861
 8719SOL     OW34641   1.851   2.579   1.734 -0.2792  0.0995  0.4837
 8719SOL    HW234642   1.816   2.592   1.822  1.7446  1.1765  1.2041
 8719SOL    HW334643   1.857   2.668   1.697 -2.6324 -0.4507 -1.4335
 8719SOL    MW434644   1.847   2.593   1.741 -0.3227  0.1690  0.3258
 8720SOL     OW34645   1.677   2.381   3.344  0.1374  0.3340 -0.2077
 8720SOL    HW234646   1.678   2.315   3.413  0.4043 -0.5630 -1.0493
 8720SOL    HW334647   1.589   2.375   3.306  0.4524 -0.1848 -0.8770
 8720SOL    MW434648   1.665   2.371   3.348  0.2142  0.1472 -0.4071
 8721SOL     OW34649   4.054   2.365   4.069  0.2704 -0.3070 -0.3709
 8721SOL    HW234650   4.098   2.309   4.133  0.0061 -1.3071 -1.0565
 8721SOL    HW334651   4.065   2.454   4.105  0.1634 -0.8336  1.0283
 8721SOL    MW434652   4.062   2.370   4.082  0.2214 -0.5084 -0.2767
 8722SOL     OW34653   3.720   1.727   0.365 -0.6389  0.0754  0.0492
 8722SOL    HW234654   3.654   1.705   0.431 -0.5037 -0.5268 -0.0106
 8722SOL    HW334655   3.804   1.719   0.411 -0.5691  0.1141 -0.0712
 8722SOL    MW434656   3.722   1.723   0.380 -0.6119  0.0011  0.0254
 8723SOL     OW34657   2.229   5.025   0.290  0.0035  0.2880 -0.1919
 8723SOL    HW234658   2.191   5.094   0.236 -2.8397  0.5610  1.9571
 8723SOL    HW334659   2.299   5.068   0.339  1.5695  0.3839 -2.3544
 8723SOL    MW434660   2.234   5.040   0.289 -0.1650  0.3367 -0.1937
 8724SOL     OW34661   1.174   5.758   2.975 -0.3222  0.2506  0.6283
 8724SOL    HW234662   1.221   5.688   3.021  0.2654  0.7018  0.7210
 8724SOL    HW334663   1.123   5.712   2.909  1.3593 -0.1617 -0.4423
 8724SOL    MW434664   1.173   5.743   2.973 -0.0228  0.2557  0.4993
 8725SOL     OW34665   0.116   3.753   5.602  0.3432 -0.3951 -0.1771
 8725SOL    HW234666   0.171   3.831   5.588  1.6098 -1.4778 -1.6132
 8725SOL    HW334667   0.176   3.688   5.639  0.0449 -1.5870 -1.7169
 8725SOL    MW434668   0.131   3.755   5.605  0.4710 -0.6952 -0.5697
 8726SOL     OW34669   4.687   3.293   3.097  0.4081 -0.1872 -0.0202
 8726SOL    HW234670   4.606   3.332   3.062  0.2177 -0.1643  0.4367
 8726SOL    HW334671   4.681   3.201   3.072  1.3948  0.2681 -2.0817
 8726SOL    MW434672   4.675   3.286   3.089  0.5132 -0.1241 -0.2319
 8727SOL     OW34673   5.510   4.571   1.993 -0.5716  0.4371  0.6874
 8727SOL    HW234674   5.553   4.496   2.035 -0.7792  0.3615  0.7644
 8727SOL    HW334675   5.463   4.533   1.919  1.6020  0.8391 -0.9908
 8727SOL    MW434676   5.510   4.556   1.989 -0.3123  0.4802  0.4761
 8728SOL     OW34677   6.165   0.985   5.195  0.1743 -0.4552 -0.3401
 8728SOL    HW234678   6.101   1.004   5.127  0.7850  0.3321 -0.7068
 8728SOL    HW334679   6.191   1.071   5.228  1.2333 -0.7484 -0.3776
 8728SOL    MW434680   6.160   0.999   5.191  0.3946 -0.3900 -0.3934
 8729SOL     OW34681   3.973   4.910   1.750  0.1681  0.3333 -0.0415
 8729SOL    HW234682   4.004   4.838   1.804  0.4422  0.1651 -0.4197
 8729SOL    HW334683   4.001   4.989   1.798  0.0622  0.1900  0.2597
 8729SOL    MW434684   3.981   4.911   1.764  0.1903  0.2922 -0.0517
 8730SOL     OW34685   0.045   0.482   2.361  0.2534 -1.0622  0.5762
 8730SOL    HW234686   0.080   0.566   2.391 -2.5634 -0.2691  2.0493
 8730SOL    HW334687   0.088   0.417   2.416  1.1057 -0.4058  0.7071
 8730SOL    MW434688   0.055   0.484   2.372 -0.0058 -0.8709  0.7878
 8731SOL     OW34689   4.834   6.096   2.011  0.0676  0.7010 -0.1957
 8731SOL    HW234690   4.903   6.050   2.058 -0.9884 -0.6527  0.0925
 8731SOL    HW334691   4.856   6.086   1.919  0.5167  0.7246 -0.0950
 8731SOL    MW434692   4.846   6.089   2.005 -0.0125  0.5255 -0.1444
 8732SOL     OW34693   2.393   2.359   1.214  0.5201  0.2862  0.5001
 8732SOL    HW234694   2.481   2.350   1.252  0.5514 -1.8473  0.0470
 8732SOL    HW334695   2.389   2.290   1.148 -0.4279  2.2792 -1.6596
 8732SOL    MW434696   2.404   2.349   1.210  0.3992  0.2676  0.1554
 8733SOL     OW34697   0.868   2.817   3.144 -0.4048 -0.4153 -0.0504
 8733SOL    HW234698   0.786   2.772   3.127 -0.4595 -0.1800 -0.4256
 8733SOL    HW334699   0.854   2.864   3.227 -0.6143 -0.4530 -0.0658
 8733SOL    MW434700   0.856   2.818   3.153 -0.4397 -0.3892 -0.1019
 8734SOL     OW34701   2.115   3.098   1.054 -0.4600 -0.0291 -0.5402
 8734SOL    HW234702   2.190   3.101   1.113 -0.8824 -1.3180  0.0973
 8734SOL    HW334703   2.120   3.179   1.004 -0.6417  1.6047  1.9322
 8734SOL    MW434704   2.125   3.109   1.055 -0.5397  0.0164 -0.1299
 8735SOL     OW34705   5.644   3.356   0.730  0.1182 -0.5414  0.5307
 8735SOL    HW234706   5.549   3.359   0.742  0.1463  0.8063  0.5590
 8735SOL    HW334707   5.678   3.339   0.817 -0.0468  0.3294  0.7697
 8735SOL    MW434708   5.636   3.354   0.743  0.1001 -0.2487  0.5660
 8736SOL     OW34709   4.209   0.483   2.102  0.5612  0.1526 -0.2064
 8736SOL    HW234710   4.238   0.574   2.101  0.0683  0.3093 -0.3279
 8736SOL    HW334711   4.155   0.475   2.180  0.1393  0.1130 -0.4966
 8736SOL    MW434712   4.206   0.494   2.112  0.4405  0.1681 -0.2607
 8737SOL     OW34713   0.378   2.725   4.907  0.2248 -0.0381 -0.4054
 8737SOL    HW234714   0.439   2.792   4.940  1.5721 -1.5319  0.2761
 8737SOL    HW334715   0.435   2.656   4.872 -1.1458 -0.1468 -2.5880
 8737SOL    MW434716   0.394   2.725   4.907  0.2217 -0.2495 -0.6035
 8738SOL     OW34717   6.401   6.140   1.967  0.1751  0.5190  0.1851
 8738SOL    HW234718   6.359   6.082   1.904 -1.0056  1.2778  0.2439
 8738SOL    HW334719   6.445   6.206   1.913 -1.1863  1.4115  0.1293
 8738SOL    MW434720   6.401   6.141   1.951 -0.1603  0.7369  0.1855
 8739SOL     OW34721   3.483   4.537   4.141  0.1984 -0.0974  0.2716
 8739SOL    HW234722   3.541   4.552   4.216 -0.7069 -0.3978  1.0521
 8739SOL    HW334723   3.520   4.461   4.096  1.1865  0.5458 -0.0533
 8739SOL    MW434724   3.496   4.529   4.145  0.2093 -0.0522  0.3317
 8740SOL     OW34725   3.135   4.693   2.234 -0.1608 -0.7692  0.2285
 8740SOL    HW234726   3.209   4.635   2.252 -1.6942 -3.2390 -0.9140
 8740SOL    HW334727   3.065   4.660   2.290 -1.2292 -0.3523 -0.8230
 8740SOL    MW434728   3.136   4.681   2.244 -0.5041 -1.0401 -0.0610
 8741SOL     OW34729   1.816   5.070   5.884  0.2075  0.0149 -0.3826
 8741SOL    HW234730   1.755   5.013   5.932  0.3462  0.2944  0.1368
 8741SOL    HW334731   1.849   5.016   5.813  1.3148 -1.0085  0.8427
 8741SOL    MW434732   1.813   5.055   5.881  0.3719 -0.0832 -0.1524
 8742SOL     OW34733   3.948   2.404   2.021 -0.0137  0.6005  0.1091
 8742SOL    HW234734   3.914   2.454   1.947 -1.7968 -0.3270  0.2720
 8742SOL    HW334735   3.875   2.399   2.083 -0.0866 -2.5417 -0.0758
 8742SOL    MW434736   3.934   2.410   2.019 -0.2585  0.0636  0.1062
 8743SOL     OW34737   2.002   4.886   1.474 -0.0743  0.2294  0.1562
 8743SOL    HW234738   1.948   4.808   1.467  1.4191 -0.8673  0.4921
 8743SOL    HW334739   2.015   4.899   1.568 -1.3380  1.6506  0.1748
 8743SOL    MW434740   1.997   4.878   1.485 -0.0440  0.2722  0.2030
 8744SOL     OW34741   0.385   0.143   5.085  0.2139 -0.4362 -0.0328
 8744SOL    HW234742   0.419   0.074   5.142  0.0081  0.8358  1.7009
 8744SOL    HW334743   0.416   0.119   4.997 -1.4384 -3.7538  0.1386
 8744SOL    MW434744   0.394   0.130   5.081 -0.0313 -0.7061  0.2186
 8745SOL     OW34745   3.535   3.276   4.348 -0.2169 -0.1653  0.6801
 8745SOL    HW234746   3.556   3.244   4.260 -0.2184  1.0995  0.2029
 8745SOL    HW334747   3.534   3.197   4.402 -0.9644 -1.0619 -0.5887
 8745SOL    MW434748   3.538   3.261   4.343 -0.3158 -0.1167  0.4498
 8746SOL     OW34749   3.782   5.007   3.240 -0.3291 -0.5299  0.0283
 8746SOL    HW234750   3.704   5.053   3.271  0.1473  0.0578  0.3751
 8746SOL    HW334751   3.763   4.915   3.256 -0.3995 -0.2984  1.3811
 8746SOL    MW434752   3.769   5.001   3.246 -0.2755 -0.4218  0.2526
 8747SOL     OW34753   0.850   4.862   6.156  0.3757  0.0284  0.1621
 8747SOL    HW234754   0.870   4.868   6.062 -1.4348  1.7943 -0.1781
 8747SOL    HW334755   0.923   4.908   6.198  0.7213  0.0621 -0.4480
 8747SOL    MW434756   0.863   4.869   6.149  0.1824  0.2659  0.0367
 8748SOL     OW34757   5.932   5.121   5.271  0.1140 -0.7689 -0.0833
 8748SOL    HW234758   5.837   5.115   5.257  0.1089 -0.7400 -0.0581
 8748SOL    HW334759   5.966   5.148   5.186  0.0532 -0.3052  0.0360
 8748SOL    MW434760   5.924   5.124   5.258  0.1053 -0.7039 -0.0643
 8749SOL     OW34761   1.191   3.063   2.567  0.1735  0.1193 -0.0621
 8749SOL    HW234762   1.242   3.143   2.562 -0.0082  0.2132 -0.4398
 8749SOL    HW334763   1.218   3.012   2.491 -0.1078  0.0553 -0.1195
 8749SOL    MW434764   1.201   3.067   2.557  0.1124  0.1232 -0.1195
 8750SOL     OW34765   0.706   4.011   3.239 -0.3189  0.7345  0.6109
 8750SOL    HW234766   0.758   4.030   3.161 -1.7051  1.2172 -0.2453
 8750SOL    HW334767   0.731   4.079   3.302 -0.6882  1.6293 -0.1815
 8750SOL    MW434768   0.716   4.023   3.237 -0.5505  0.9163  0.3934
 8751SOL     OW34769   0.254   2.362   3.646 -0.1351  0.5218  0.4748
 8751SOL    HW234770   0.340   2.352   3.606 -0.2626  0.1238  0.2893
 8751SOL    HW334771   0.271   2.405   3.729  0.4061 -0.7943  1.0815
 8751SOL    MW434772   0.268   2.366   3.651 -0.0805  0.2957  0.5303
 8752SOL     OW34773   3.649   0.912   5.007 -0.1164 -0.5080  0.5760
 8752SOL    HW234774   3.600   0.919   5.089 -1.2321 -0.6615 -0.0618
 8752SOL    HW334775   3.740   0.904   5.034 -0.2446  1.3952  1.7711
 8752SOL    MW434776   3.655   0.912   5.021 -0.2805 -0.2771  0.6495
 8753SOL     OW34777   0.547   3.491   3.042  0.5284  0.0625  0.1258
 8753SOL    HW234778   0.608   3.529   3.106  0.0752  0.2531  0.4574
 8753SOL    HW334779   0.571   3.399   3.037  1.1551  0.2331 -0.1152
 8753SOL    MW434780   0.558   3.484   3.050  0.5513  0.1101  0.1377
 8754SOL     OW34781   4.937   2.196   5.158  0.0132 -1.0172 -0.0820
 8754SOL    HW234782   4.937   2.286   5.123  1.0402 -0.8901  0.2112
 8754SOL    HW334783   4.900   2.143   5.087 -0.4898 -0.3824 -0.3084
 8754SOL    MW434784   4.932   2.201   5.144  0.0823 -0.9167 -0.0732
 8755SOL     OW34785   5.474   6.069   4.509 -0.3252 -0.8168 -0.3346
 8755SOL    HW234786   5.562   6.034   4.525 -0.2799 -0.0073  1.3914
 8755SOL    HW334787   5.417   6.021   4.569 -0.4054  1.2515  1.3874
 8755SOL    MW434788   5.478   6.058   4.519 -0.3298 -0.4371  0.1203
 8756SOL     OW34789   0.029   4.407   1.961  0.6649 -0.3368  0.2245
 8756SOL    HW234790   0.042   4.351   1.885 -1.0218 -2.6985  1.5464
 8756SOL    HW334791  -0.054   4.452   1.945  0.0784 -1.1738  0.7886
 8756SOL    MW434792   0.020   4.406   1.949  0.3649 -0.7588  0.4733
 8757SOL     OW34793   1.394   6.199   5.699 -0.0180 -0.0471 -0.2647
 8757SOL    HW234794   1.420   6.116   5.660  0.3332  0.2399 -0.6479
 8757SOL    HW334795   1.327   6.175   5.763  0.0639 -0.6214 -0.3861
 8757SOL    MW434796   1.389   6.185   5.702  0.0391 -0.0850 -0.3313
 8758SOL     OW34797   0.136   5.789   6.192  0.6557 -0.5149  0.3448
 8758SOL    HW234798   0.140   5.707   6.240  1.4746  0.7217  2.5647
 8758SOL    HW334799   0.069   5.776   6.126  0.9212 -3.0134  0.4886
 8758SOL    MW434800   0.128   5.777   6.190  0.7988 -0.6814  0.6567
 8759SOL     OW34801   5.924   5.809   1.109 -0.6226  0.3101  0.0808
 8759SOL    HW234802   5.893   5.738   1.166 -0.4751  0.9729  1.0132
 8759SOL    HW334803   5.999   5.845   1.155  1.1475 -0.8052 -1.7981
 8759SOL    MW434804   5.929   5.804   1.123 -0.3696  0.2504 -0.0440
 8760SOL     OW34805   3.482   5.898   2.287  0.2009  0.1322  0.1521
 8760SOL    HW234806   3.521   5.983   2.304 -1.0465  0.6461  0.5514
 8760SOL    HW334807   3.449   5.869   2.372 -1.8048  0.5226 -0.4380
 8760SOL    MW434808   3.483   5.905   2.300 -0.2283  0.2515  0.1269
 8761SOL     OW34809   2.718   1.083   1.785 -0.1853  0.0938  0.0869
 8761SOL    HW234810   2.805   1.113   1.811  0.1498 -0.9607  0.2540
 8761SOL    HW334811   2.709   1.112   1.694  0.4648 -0.0461 -0.0297
 8761SOL    MW434812   2.728   1.091   1.776 -0.0553 -0.0638  0.0935
 8762SOL     OW34813   2.662   2.369   5.122  0.0642 -0.4961 -0.7330
 8762SOL    HW234814   2.714   2.344   5.198  2.0706  2.6657 -0.8664
 8762SOL    HW334815   2.641   2.287   5.078  2.4747 -2.1181  0.9400
 8762SOL    MW434816   2.666   2.355   5.127  0.6469 -0.2929 -0.5298
 8763SOL     OW34817   2.016   5.177   4.723  0.4671 -0.2633 -0.5018
 8763SOL    HW234818   2.030   5.101   4.665 -2.0311 -1.7862  0.6963
 8763SOL    HW334819   1.949   5.228   4.678  0.4167 -0.0525 -0.1829
 8763SOL    MW434820   2.009   5.173   4.709  0.1309 -0.4364 -0.3016
 8764SOL     OW34821   5.115   0.028   0.461  0.1744 -0.1924  0.6171
 8764SOL    HW234822   5.121   0.103   0.519 -0.9921  0.2952  0.1449
 8764SOL    HW334823   5.022   0.022   0.438  0.8139  1.2630 -3.2112
 8764SOL    MW434824   5.103   0.037   0.465  0.1048  0.0639  0.0497
 8765SOL     OW34825   1.813   3.010   4.363  0.3567  0.5259  0.5422
 8765SOL    HW234826   1.830   3.089   4.414  0.5417  2.4681 -2.2840
 8765SOL    HW334827   1.736   3.032   4.310 -0.5459 -1.8066  0.7411
 8765SOL    MW434828   1.805   3.023   4.362  0.2620  0.4744  0.1956
 8766SOL     OW34829   5.307   1.240   4.789  0.0700  0.3407 -0.2221
 8766SOL    HW234830   5.284   1.221   4.698 -2.0640  1.4506  0.0248
 8766SOL    HW334831   5.370   1.172   4.813 -0.8697 -1.1963 -1.8939
 8766SOL    MW434832   5.313   1.229   4.780 -0.3356  0.2843 -0.4101
 8767SOL     OW34833   5.291   6.240   3.300 -0.2712 -0.1175 -0.0782
 8767SOL    HW234834   5.271   6.318   3.352  0.9477 -0.2846  0.7084
 8767SOL    HW334835   5.269   6.264   3.210 -2.8450  0.0433  0.5162
 8767SOL    MW434836   5.286   6.254   3.295 -0.4500 -0.1184  0.1040
 8768SOL     OW34837   2.913   1.109   4.804  0.3920 -0.6823  0.1442
 8768SOL    HW234838   2.975   1.063   4.748  0.2662 -2.0143  1.0640
 8768SOL    HW334839   2.829   1.100   4.759  0.5109 -0.6450 -0.0845
 8768SOL    MW434840   2.910   1.102   4.791  0.3911 -0.8531  0.2354
 8769SOL     OW34841   1.847   2.717   2.450 -0.5239 -0.1537 -0.2903
 8769SOL    HW234842   1.884   2.777   2.386  0.0799 -1.6309 -1.3859
 8769SOL    HW334843   1.783   2.769   2.499 -1.2250  0.9482 -2.2897
 8769SOL    MW434844   1.843   2.732   2.448 -0.5367 -0.2032 -0.6986
 8770SOL     OW34845   3.348   2.655   0.274 -0.2268 -0.7815  0.0280
 8770SOL    HW234846   3.428   2.679   0.228  0.2357 -1.0620  0.6690
 8770SOL    HW334847   3.349   2.559   0.275  0.9033 -0.8211  2.4808
 8770SOL    MW434848   3.359   2.645   0.268 -0.0167 -0.8237  0.4362
 8771SOL     OW34849   0.151   0.674   5.904  0.1948 -0.5238  0.1772
 8771SOL    HW234850   0.179   0.617   5.832  0.9911 -0.1836  0.2088
 8771SOL    HW334851   0.212   0.655   5.975 -0.9231 -1.2532  0.9606
 8771SOL    MW434852   0.163   0.664   5.904  0.1523 -0.5752  0.2847
 8772SOL     OW34853   1.435   0.833   3.775 -0.0503 -0.4808  0.5293
 8772SOL    HW234854   1.382   0.756   3.797 -0.4107 -0.8374 -1.4115
 8772SOL    HW334855   1.470   0.814   3.688  0.5774  1.1712  0.3833
 8772SOL    MW434856   1.432   0.821   3.766 -0.0150 -0.3099  0.2540
 8773SOL     OW34857   4.841   5.817   5.208  0.5995 -1.1164 -0.4328
 8773SOL    HW234858   4.752   5.782   5.221 -0.7515  2.2262  0.5709
 8773SOL    HW334859   4.889   5.789   5.286 -0.8786  0.3683  1.1095
 8773SOL    MW434860   4.835   5.809   5.220  0.2262 -0.4795 -0.0969
 8774SOL     OW34861   3.934   0.510   3.081  0.2949 -0.5049  0.4837
 8774SOL    HW234862   3.863   0.512   3.017  2.0807 -0.2843 -1.5991
 8774SOL    HW334863   3.972   0.597   3.078  0.5783 -0.5548  1.7301
 8774SOL    MW434864   3.930   0.521   3.072  0.5679 -0.4824  0.3734
 8775SOL     OW34865   3.494   3.407   2.929  0.5995 -0.0987  0.1131
 8775SOL    HW234866   3.546   3.473   2.882 -0.5723  1.1016  0.4418
 8775SOL    HW334867   3.464   3.348   2.860  0.3625  0.6262 -0.4194
 8775SOL    MW434868   3.497   3.408   2.914  0.4136  0.1553  0.0862
 8776SOL     OW34869   0.069   1.520   3.805  0.3469 -0.5122 -0.5055
 8776SOL    HW234870   0.058   1.615   3.811 -0.2181 -0.5557 -0.7352
 8776SOL    HW334871  -0.019   1.488   3.783  0.5583 -1.0774 -0.5299
 8776SOL    MW434872   0.056   1.529   3.803  0.3002 -0.5925 -0.5391
 8777SOL     OW34873   5.700   4.395   5.513 -0.0602  0.6798 -0.3226
 8777SOL    HW234874   5.700   4.485   5.545 -0.8336  0.1860  1.1781
 8777SOL    HW334875   5.650   4.399   5.431 -1.6173  1.3724  0.6001
 8777SOL    MW434876   5.693   4.408   5.506 -0.3677  0.7060 -0.0029
 8778SOL     OW34877   3.937   4.464   5.173 -0.3704 -0.2348 -0.6633
 8778SOL    HW234878   3.860   4.476   5.229 -0.1382  2.5880 -0.8182
 8778SOL    HW334879   4.011   4.467   5.234 -0.2201  0.9359 -0.8785
 8778SOL    MW434880   3.937   4.466   5.189 -0.3199  0.2921 -0.7121
 8779SOL     OW34881   1.249   1.174   1.421  0.1090  0.1660  0.1399
 8779SOL    HW234882   1.340   1.193   1.398 -0.0116 -1.5767 -2.1400
 8779SOL    HW334883   1.197   1.221   1.356 -0.4184 -1.9266 -1.0312
 8779SOL    MW434884   1.254   1.182   1.410  0.0235 -0.3400 -0.3154
 8780SOL     OW34885   1.763   2.652   4.060  0.0022 -0.0741  0.3341
 8780SOL    HW234886   1.727   2.675   4.145  0.2840  1.0185  0.1763
 8780SOL    HW334887   1.838   2.712   4.049  0.4530 -0.7441 -0.3279
 8780SOL    MW434888   1.768   2.663   4.070  0.0989 -0.0183  0.2260
 8781SOL     OW34889   0.349   5.820   1.905  0.0808 -0.3918  0.7719
 8781SOL    HW234890   0.299   5.764   1.965 -1.2999  1.1897  1.1653
 8781SOL    HW334891   0.318   5.796   1.818  1.0090 -1.6558  0.7670
 8781SOL    MW434892   0.338   5.809   1.902  0.0211 -0.3499  0.8232
 8782SOL     OW34893   2.014   2.285   4.707 -0.1657  0.4390 -0.2031
 8782SOL    HW234894   1.989   2.267   4.616  0.2030  1.0786 -0.4385
 8782SOL    HW334895   1.931   2.309   4.749 -0.1181  1.6675 -0.7615
 8782SOL    MW434896   2.000   2.286   4.700 -0.1108  0.6855 -0.3078
 8783SOL     OW34897   0.444   0.354   2.381  0.0010  0.2498  0.5940
 8783SOL    HW234898   0.437   0.331   2.289  0.4946  0.0690  0.6007
 8783SOL    HW334899   0.467   0.447   2.381  1.1119 -0.0178  0.5117
 8783SOL    MW434900   0.446   0.363   2.369  0.2127  0.1907  0.5840
 8784SOL     OW34901   1.245   0.178   0.285 -0.3828  0.4621 -0.2906
 8784SOL    HW234902   1.314   0.244   0.291 -1.6415  1.8563 -0.5131
 8784SOL    HW334903   1.290   0.095   0.298  0.8453  1.4964  2.9379
 8784SOL    MW434904   1.260   0.176   0.287 -0.3868  0.7825  0.1060
 8785SOL     OW34905   3.023   6.126   2.892 -0.3670  0.5384 -0.2187
 8785SOL    HW234906   2.999   6.057   2.954  1.1419  1.3055  1.2991
 8785SOL    HW334907   2.953   6.191   2.899 -1.2700 -0.3311 -0.8997
 8785SOL    MW434908   3.011   6.125   2.901 -0.2870  0.5249 -0.1083
 8786SOL     OW34909   2.212   5.155   3.405 -0.2536  0.1355 -0.3638
 8786SOL    HW234910   2.275   5.085   3.426 -0.5349  0.0588  0.2435
 8786SOL    HW334911   2.187   5.138   3.315  2.5223  1.6473 -1.5266
 8786SOL    MW434912   2.217   5.143   3.396  0.0755  0.3248 -0.4371
 8787SOL     OW34913   5.788   2.246   4.163 -0.2930  0.4704 -0.1003
 8787SOL    HW234914   5.793   2.261   4.069  3.0102 -1.6394 -0.4149
 8787SOL    HW334915   5.879   2.235   4.191 -1.0986  1.7349  3.5206
 8787SOL    MW434916   5.800   2.246   4.155  0.0365  0.3588  0.3360
 8788SOL     OW34917   1.663   2.646   3.452 -0.1308  0.3747  0.4197
 8788SOL    HW234918   1.701   2.722   3.407 -1.0817  0.5352 -0.1337
 8788SOL    HW334919   1.672   2.574   3.388 -1.7612  0.6712 -0.1713
 8788SOL    MW434920   1.669   2.646   3.438 -0.4714  0.4350  0.2687
 8789SOL     OW34921   6.159   5.599   2.856  0.1589 -0.3178 -0.1714
 8789SOL    HW234922   6.136   5.523   2.911  2.1001  0.7902  2.3756
 8789SOL    HW334923   6.251   5.586   2.835  0.3348  0.9754 -0.2717
 8789SOL    MW434924   6.168   5.587   2.861  0.4382 -0.0010  0.1514
 8790SOL     OW34925   4.814   3.711   3.578 -0.5216  0.7038 -0.0667
 8790SOL    HW234926   4.741   3.696   3.518 -0.3799 -1.7101  0.2644
 8790SOL    HW334927   4.859   3.787   3.542 -2.0626  1.0475 -1.3968
 8790SOL    MW434928   4.810   3.719   3.565 -0.7062  0.4307 -0.1985
 8791SOL     OW34929   4.597   4.942   1.125  0.1595 -0.2579  0.2537
 8791SOL    HW234930   4.508   4.973   1.109 -0.3791 -1.5467  0.5841
 8791SOL    HW334931   4.623   4.985   1.207 -0.0718  0.3062  0.0303
 8791SOL    MW434932   4.588   4.951   1.134  0.0579 -0.3535  0.2678
 8792SOL     OW34933   2.196   4.945   3.749  0.2208 -0.4487  0.2061
 8792SOL    HW234934   2.116   4.894   3.733  0.4826 -0.8998  0.3146
 8792SOL    HW334935   2.253   4.923   3.676 -0.1109  0.6266 -0.3994
 8792SOL    MW434936   2.193   4.935   3.738  0.2116 -0.3663  0.1405
 8793SOL     OW34937   0.062   2.323   6.323  0.9133 -0.3809  0.0432
 8793SOL    HW234938   0.056   2.341   6.417 -1.5131  1.1586 -0.3325
 8793SOL    HW334939  -0.000   2.251   6.309 -0.1350  0.6365 -0.6324
 8793SOL    MW434940   0.053   2.316   6.334  0.4549 -0.0435 -0.0955
 8794SOL     OW34941   3.549   0.575   4.290  0.4830 -0.1300 -0.0061
 8794SOL    HW234942   3.561   0.670   4.295 -0.7080  0.0894 -0.7722
 8794SOL    HW334943   3.508   0.551   4.373  0.8709  0.0058  0.2259
 8794SOL    MW434944   3.545   0.584   4.302  0.3770 -0.0831 -0.0766
 8795SOL     OW34945   5.538   4.260   4.145 -0.5843 -0.1111 -0.0881
 8795SOL    HW234946   5.601   4.312   4.195 -0.8536 -0.8280  1.0162
 8795SOL    HW334947   5.568   4.269   4.054  2.4228 -2.1030  0.5506
 8795SOL    MW434948   5.550   4.268   4.139 -0.2231 -0.4685  0.1419
 8796SOL     OW34949   2.524   0.699   4.403 -0.1825  0.0156 -0.0757
 8796SOL    HW234950   2.582   0.718   4.329  1.0839 -0.6187  0.7210
 8796SOL    HW334951   2.563   0.745   4.477 -1.7790  1.1491  0.1224
 8796SOL    MW434952   2.537   0.708   4.403 -0.2260  0.0814  0.0556
 8797SOL     OW34953   5.353   0.563   2.176  0.0847  0.6132  0.2558
 8797SOL    HW234954   5.265   0.528   2.162 -0.3872  1.6402  0.6242
 8797SOL    HW334955   5.401   0.491   2.217 -0.1466 -0.4716 -1.2697
 8797SOL    MW434956   5.348   0.549   2.179 -0.0081  0.6055  0.1031
 8798SOL     OW34957   3.930   4.604   4.344  0.2966 -0.0890  0.1878
 8798SOL    HW234958   3.964   4.676   4.291 -0.5020 -0.2377 -0.5375
 8798SOL    HW334959   4.005   4.576   4.397  1.6531 -1.1352 -2.1455
 8798SOL    MW434960   3.944   4.610   4.344  0.3702 -0.2467 -0.2158
 8799SOL     OW34961   4.253   0.276   4.636 -0.5679 -0.1265 -0.0387
 8799SOL    HW234962   4.184   0.316   4.688  0.2248  0.8368  0.3004
 8799SOL    HW334963   4.290   0.209   4.694  0.5822  1.2171  0.8291
 8799SOL    MW434964   4.249   0.272   4.651 -0.3116  0.1779  0.1205
 8800SOL     OW34965   3.707   4.899   0.877 -0.0097  0.2665  0.1444
 8800SOL    HW234966   3.687   4.806   0.883 -2.0895  0.6863  0.3807
 8800SOL    HW334967   3.678   4.936   0.960 -2.5618  1.6363 -1.2320
 8800SOL    MW434968   3.701   4.892   0.889 -0.6208  0.5026 -0.0061
 8801SOL     OW34969   1.593   5.713   4.506  0.3780 -0.8294  0.7831
 8801SOL    HW234970   1.545   5.645   4.554 -1.8901  0.8225  1.0182
 8801SOL    HW334971   1.657   5.746   4.570 -1.5021  0.2242  2.2219
 8801SOL    MW434972   1.595   5.709   4.521 -0.1693 -0.4725  1.0039
 8802SOL     OW34973   5.082   0.570   0.726  0.2063  0.1745 -0.6114
 8802SOL    HW234974   5.119   0.511   0.661  1.0808 -0.3297  0.3160
 8802SOL    HW334975   5.148   0.575   0.795  0.0838  2.0957 -0.5687
 8802SOL    MW434976   5.096   0.563   0.726  0.3055  0.3614 -0.4834
 8803SOL     OW34977   6.301   0.334   2.782  0.3937 -0.0903 -0.0983
 8803SOL    HW234978   6.374   0.334   2.844 -1.0765  0.0411  1.7417
 8803SOL    HW334979   6.275   0.426   2.775  0.9456 -0.0145 -1.4689
 8803SOL    MW434980   6.307   0.346   2.790  0.2726 -0.0630 -0.0363
 8804SOL     OW34981   6.159   3.174   3.351 -0.0759 -0.1133  0.3408
 8804SOL    HW234982   6.108   3.167   3.270  1.8479  1.0320 -1.0651
 8804SOL    HW334983   6.135   3.097   3.402 -2.1480 -0.3125 -0.8369
 8804SOL    MW434984   6.149   3.163   3.347 -0.0955  0.0115 -0.0001
 8805SOL     OW34985   6.210   5.100   0.471  0.5556  0.6847 -0.3047
 8805SOL    HW234986   6.125   5.056   0.476  0.9815 -0.1164  0.1257
 8805SOL    HW334987   6.219   5.123   0.378 -0.4298  1.3999 -0.2337
 8805SOL    MW434988   6.200   5.097   0.459  0.4818  0.6734 -0.2385
 8806SOL     OW34989   5.735   3.022   0.970 -0.4721 -0.6106  0.0682
 8806SOL    HW234990   5.747   3.115   0.952 -0.0938 -0.9226 -1.4171
 8806SOL    HW334991   5.803   3.001   1.035  0.6737 -0.2382 -0.9726
 8806SOL    MW434992   5.746   3.032   0.976 -0.2710 -0.6026 -0.2651
 8807SOL     OW34993   3.638   0.339   4.939  0.1716 -0.3897  0.2966
 8807SOL    HW234994   3.558   0.295   4.966  0.6855 -1.1598  0.6230
 8807SOL    HW334995   3.652   0.309   4.848  0.4059 -0.7448  0.4458
 8807SOL    MW434996   3.629   0.329   4.930  0.2703 -0.5382  0.3593
 8808SOL     OW34997   1.799   2.394   4.839 -0.0776  0.1264 -0.6300
 8808SOL    HW234998   1.796   2.484   4.807  0.7889  0.6701  0.7357
 8808SOL    HW334999   1.726   2.350   4.794 -0.4903  1.4845 -1.3449
 8808SOL    MW435000   1.789   2.400   4.829 -0.0178  0.3773 -0.5441
 8809SOL     OW35001   1.358   2.446   2.310  0.2566  0.4811  0.6223
 8809SOL    HW235002   1.357   2.356   2.342  0.4255  0.7877  1.5047
 8809SOL    HW335003   1.426   2.446   2.242 -0.0804 -0.1621  0.2736
 8809SOL    MW435004   1.367   2.434   2.305  0.2344  0.4367  0.6927
 8810SOL     OW35005   0.131   1.267   2.889  0.1377 -0.3789 -0.2037
 8810SOL    HW235006   0.181   1.298   2.814  1.0599 -1.2997 -0.0008
 8810SOL    HW335007   0.069   1.337   2.908 -0.1799 -0.1748 -1.8718
 8810SOL    MW435008   0.130   1.280   2.882  0.2175 -0.4734 -0.3970
 8811SOL     OW35009   3.144   3.240   1.011 -0.1265  0.3106  0.0751
 8811SOL    HW235010   3.137   3.145   1.016 -1.4533  0.4059  0.4244
 8811SOL    HW335011   3.108   3.262   0.925  0.1378  0.4986  0.0129
 8811SOL    MW435012   3.138   3.231   1.000 -0.2667  0.3480  0.1130
 8812SOL     OW35013   0.126   2.620   2.277  0.8711  0.1634  0.0815
 8812SOL    HW235014   0.215   2.609   2.243  1.2637 -0.3579  1.2336
 8812SOL    HW335015   0.117   2.551   2.342 -0.4885  0.0315 -0.2218
 8812SOL    MW435016   0.136   2.609   2.281  0.7435  0.0772  0.1935
 8813SOL     OW35017   1.785   1.561   5.068 -0.3326 -0.0338 -0.5156
 8813SOL    HW235018   1.736   1.520   5.140 -0.6613  2.7413  1.0012
 8813SOL    HW335019   1.743   1.646   5.058  2.1572  1.1679 -1.3866
 8813SOL    MW435020   1.773   1.567   5.076 -0.0475  0.4909 -0.4304
 8814SOL     OW35021   5.238   0.309   4.556  0.2929 -0.0177  0.3280
 8814SOL    HW235022   5.190   0.383   4.519 -0.7192 -1.1731 -0.7528
 8814SOL    HW335023   5.330   0.337   4.554 -0.1019  1.3524  0.3436
 8814SOL    MW435024   5.244   0.323   4.551  0.1073  0.0106  0.1875
 8815SOL     OW35025   2.891   0.944   2.085 -0.3430 -0.3853  0.1782
 8815SOL    HW235026   2.971   0.913   2.127  0.5176 -0.8960 -1.7151
 8815SOL    HW335027   2.917   1.025   2.040 -0.3412 -1.5294 -2.0119
 8815SOL    MW435028   2.905   0.951   2.085 -0.2292 -0.6036 -0.3605
 8816SOL     OW35029   3.360   1.328   1.423  0.7068  0.0344 -0.5191
 8816SOL    HW235030   3.313   1.297   1.500  0.5279  0.5359 -0.4272
 8816SOL    HW335031   3.351   1.256   1.359 -0.9846  0.4981 -0.8382
 8816SOL    MW435032   3.353   1.314   1.424  0.4600  0.1618 -0.5491
 8817SOL     OW35033   2.394   6.191   0.578 -0.7109 -0.4170 -0.0260
 8817SOL    HW235034   2.353   6.126   0.636 -0.9399 -0.6383 -0.4355
 8817SOL    HW335035   2.471   6.220   0.627 -0.2961 -1.3995 -0.0693
 8817SOL    MW435036   2.399   6.186   0.592 -0.6864 -0.5758 -0.0857
 8818SOL     OW35037   3.560   0.192   4.338 -0.1316  0.0801  0.0911
 8818SOL    HW235038   3.615   0.260   4.298  0.3061  0.7514  1.7705
 8818SOL    HW335039   3.573   0.116   4.282 -0.7223  1.3613 -1.9259
 8818SOL    MW435040   3.569   0.191   4.325 -0.1518  0.3377  0.0466
 8819SOL     OW35041   5.812   2.789   0.831  0.2374 -0.3957 -0.0493
 8819SOL    HW235042   5.782   2.864   0.882  1.6362 -0.5740  1.0984
 8819SOL    HW335043   5.822   2.719   0.896  3.2780 -0.2942 -0.2650
 8819SOL    MW435044   5.809   2.789   0.846  0.8231 -0.4059  0.0737
 8820SOL     OW35045   6.028   0.770   2.859 -0.7623  0.3927  0.6432
 8820SOL    HW235046   5.995   0.769   2.949 -1.7435  1.3674  0.3157
 8820SOL    HW335047   6.021   0.862   2.832  1.8244  0.6100  0.3793
 8820SOL    MW435048   6.023   0.782   2.867 -0.5504  0.5500  0.5652
 8821SOL     OW35049   1.373   1.518   5.815 -0.0035  0.2843  0.1071
 8821SOL    HW235050   1.435   1.521   5.742  1.5301 -0.2349  1.3400
 8821SOL    HW335051   1.428   1.511   5.893 -1.6424 -1.3078  1.1971
 8821SOL    MW435052   1.388   1.518   5.816 -0.0174  0.0058  0.4136
 8822SOL     OW35053   5.464   5.941   5.710 -0.0486 -0.1569 -0.0327
 8822SOL    HW235054   5.414   5.921   5.789 -0.9903  2.0633 -0.0034
 8822SOL    HW335055   5.529   6.005   5.738  1.7402 -1.7160 -0.4448
 8822SOL    MW435056   5.466   5.947   5.724  0.0632 -0.0697 -0.0832
 8823SOL     OW35057   1.584   2.430   0.071 -0.1447 -0.3466 -0.0811
 8823SOL    HW235058   1.547   2.357   0.022  0.9355  0.2986 -1.9569
 8823SOL    HW335059   1.508   2.473   0.111 -0.8832 -1.8704  0.2254
 8823SOL    MW435060   1.569   2.426   0.070 -0.0996 -0.4626 -0.2881
 8824SOL     OW35061   1.749   0.733   0.406 -0.4380 -0.0487 -0.3381
 8824SOL    HW235062   1.826   0.678   0.389 -1.0226 -1.0406  0.1197
 8824SOL    HW335063   1.710   0.748   0.320  0.0755  0.1721 -0.5329
 8824SOL    MW435064   1.754   0.727   0.392 -0.4474 -0.1504 -0.3034
 8825SOL     OW35065   0.108   0.393   2.093  0.8019  0.3528 -0.2685
 8825SOL    HW235066   0.076   0.430   2.175  0.2493 -1.4854  0.3873
 8825SOL    HW335067   0.203   0.400   2.099  0.7414  0.8713  0.1986
 8825SOL    MW435068   0.116   0.399   2.104  0.7210  0.1787 -0.1203
 8826SOL     OW35069   2.742   5.049   5.224  0.1495 -0.4582  0.3153
 8826SOL    HW235070   2.693   5.131   5.228  0.3695 -0.2842 -0.4342
 8826SOL    HW335071   2.688   4.986   5.271 -0.4463 -0.0952  0.1179
 8826SOL    MW435072   2.729   5.052   5.230  0.0999 -0.3873  0.1904
 8827SOL     OW35073   4.643   6.077   5.444  0.6526  0.1688 -0.4729
 8827SOL    HW235074   4.653   6.019   5.519 -0.0206 -0.2033 -0.6577
 8827SOL    HW335075   4.732   6.096   5.416  0.9012  0.0294  0.2025
 8827SOL    MW435076   4.656   6.072   5.450  0.5966  0.1013 -0.4082
 8828SOL     OW35077   2.789   3.631   0.694  0.0622 -0.3523 -0.0876
 8828SOL    HW235078   2.707   3.669   0.725 -1.2337 -2.5284 -0.6456
 8828SOL    HW335079   2.846   3.630   0.772 -0.2819  1.4870  0.2245
 8828SOL    MW435080   2.786   3.636   0.709 -0.1542 -0.3967 -0.1200
 8829SOL     OW35081   4.548   5.446   3.625 -0.2705 -0.0299  0.3164
 8829SOL    HW235082   4.492   5.467   3.700  0.1463  0.7059  0.4247
 8829SOL    HW335083   4.628   5.411   3.663 -0.0916  0.2655  0.2168
 8829SOL    MW435084   4.551   5.444   3.640 -0.1919  0.1062  0.3175
 8830SOL     OW35085   3.039   1.424   0.669  0.0731  0.3628  0.3300
 8830SOL    HW235086   2.946   1.442   0.657 -0.1044 -0.4739  0.3481
 8830SOL    HW335087   3.045   1.391   0.759  0.5991  1.6821  0.7908
 8830SOL    MW435088   3.027   1.422   0.680  0.1190  0.4265  0.3932
 8831SOL     OW35089   4.068   6.354   4.442 -0.0184  0.4745  0.3842
 8831SOL    HW235090   4.071   6.449   4.440 -1.2728  0.5556 -2.2250
 8831SOL    HW335091   3.980   6.332   4.413  0.3433 -1.4905  0.6297
 8831SOL    MW435092   4.057   6.364   4.437 -0.1362  0.2259  0.0723
 8832SOL     OW35093   1.917   6.028   5.326  0.1031 -0.3298  0.2033
 8832SOL    HW235094   1.959   6.042   5.410  2.3294  2.2447 -1.1914
 8832SOL    HW335095   1.970   5.961   5.283  0.8844  0.5921 -0.3043
 8832SOL    MW435096   1.929   6.021   5.331  0.4999  0.1315 -0.0477
 8833SOL     OW35097   6.147   4.026   4.702 -0.5072  0.1136 -0.1844
 8833SOL    HW235098   6.133   4.109   4.656  0.0808 -0.3574 -1.2385
 8833SOL    HW335099   6.134   3.959   4.635  1.1867 -0.5608  0.1072
 8833SOL    MW435100   6.143   4.029   4.687 -0.2061 -0.0375 -0.2850
 8834SOL     OW35101   6.440   3.505   4.113 -0.0300  0.2863  0.5368
 8834SOL    HW235102   6.465   3.427   4.064 -1.0966 -0.2372  0.7777
 8834SOL    HW335103   6.522   3.545   4.141  0.5724  0.1602 -0.9927
 8834SOL    MW435104   6.454   3.500   4.110 -0.0913  0.2006  0.3668
 8835SOL     OW35105   0.566   4.863   6.200 -0.1182  0.5027 -0.1109
 8835SOL    HW235106   0.660   4.878   6.213  0.3545 -1.5438 -0.8744
 8835SOL    HW335107   0.540   4.811   6.276 -0.4186  0.2184 -0.4096
 8835SOL    MW435108   0.575   4.858   6.212 -0.0954  0.1952 -0.2510
 8836SOL     OW35109   4.944   6.379   4.068 -0.0294 -0.0558 -0.1715
 8836SOL    HW235110   4.996   6.459   4.077 -1.0525  0.6455 -0.3215
 8836SOL    HW335111   4.887   6.379   4.145 -0.4283 -0.3300 -0.4618
 8836SOL    MW435112   4.943   6.390   4.080 -0.2170  0.0005 -0.2296
 8837SOL     OW35113   5.118   0.393   2.160 -0.8650  0.0649  0.6050
 8837SOL    HW235114   5.026   0.387   2.133 -0.4428 -0.2396 -0.8352
 8837SOL    HW335115   5.138   0.305   2.194 -1.1030  0.1297  0.9154
 8837SOL    MW435116   5.108   0.380   2.161 -0.8407  0.0333  0.4559
 8838SOL     OW35117   0.803   4.975   3.167 -0.2216 -0.1668  0.1019
 8838SOL    HW235118   0.791   4.999   3.258 -0.2784 -0.4071  0.1588
 8838SOL    HW335119   0.725   5.007   3.123 -0.6237 -0.8539  0.2994
 8838SOL    MW435120   0.791   4.982   3.173 -0.2822 -0.2892  0.1354
 8839SOL     OW35121   4.559   4.875   2.651 -0.4394  0.1172  0.0212
 8839SOL    HW235122   4.562   4.849   2.558 -1.0463 -0.9595  0.2841
 8839SOL    HW335123   4.508   4.806   2.693 -2.2325  1.8141  0.7717
 8839SOL    MW435124   4.553   4.862   2.644 -0.7561  0.1991  0.1549
 8840SOL     OW35125   3.653   0.653   3.965  0.2400 -0.1979 -0.1489
 8840SOL    HW235126   3.602   0.681   3.890  0.8532  1.3147 -0.0482
 8840SOL    HW335127   3.641   0.723   4.030  3.1192  0.7500 -0.4711
 8840SOL    MW435128   3.645   0.666   3.964  0.7008  0.1268 -0.1781
 8841SOL     OW35129   0.313   1.342   3.077  0.0659 -0.2107 -0.1637
 8841SOL    HW235130   0.396   1.357   3.031  0.3562 -0.2973  0.3257
 8841SOL    HW335131   0.248   1.335   3.007  0.9339 -3.3228 -0.7821
 8841SOL    MW435132   0.315   1.343   3.062  0.2187 -0.6327 -0.1807
 8842SOL     OW35133   1.198   1.359   3.974 -0.0104 -0.2209 -0.9886
 8842SOL    HW235134   1.249   1.420   4.027 -2.5581  0.9246  0.3525
 8842SOL    HW335135   1.232   1.272   3.998  1.9987  0.5031 -1.0331
 8842SOL    MW435136   1.209   1.356   3.984 -0.0815  0.0258 -0.8176
 8843SOL     OW35137   0.469   1.545   2.925 -0.6708  0.0363 -0.0768
 8843SOL    HW235138   0.397   1.603   2.952 -1.4406  0.0753 -1.9819
 8843SOL    HW335139   0.496   1.580   2.840  2.1246  0.4323  0.8826
 8843SOL    MW435140   0.463   1.557   2.917 -0.4036  0.0937 -0.2016
 8844SOL     OW35141   4.687   3.656   2.938 -0.2653 -0.0303 -0.0804
 8844SOL    HW235142   4.641   3.654   3.022  0.5253  0.4791  0.3765
 8844SOL    HW335143   4.780   3.663   2.962  0.1588 -2.0116 -0.9513
 8844SOL    MW435144   4.693   3.657   2.952 -0.1051 -0.2245 -0.1350
 8845SOL     OW35145   2.986   4.386   4.065  0.3577  0.0894  0.1097
 8845SOL    HW235146   3.031   4.461   4.026  0.1861  0.4937  0.6688
 8845SOL    HW335147   2.925   4.425   4.128  0.3417 -0.5247  0.4827
 8845SOL    MW435148   2.984   4.401   4.069  0.3329  0.0617  0.2327
 8846SOL     OW35149   1.547   5.951   1.994 -0.0827 -0.1277  0.1664
 8846SOL    HW235150   1.576   5.945   2.085 -1.4384  0.0538  0.6265
 8846SOL    HW335151   1.618   5.997   1.950  0.9094 -0.8361  0.9775
 8846SOL    MW435152   1.560   5.956   2.000 -0.1307 -0.1972  0.3341
 8847SOL     OW35153   3.900   0.791   5.421 -0.0966  0.0482  0.6138
 8847SOL    HW235154   3.925   0.779   5.513 -2.1216 -0.4534  1.1576
 8847SOL    HW335155   3.870   0.882   5.417 -1.0219 -0.2365  0.7473
 8847SOL    MW435156   3.900   0.801   5.433 -0.4859 -0.0556  0.7032
 8848SOL     OW35157   3.082   1.217   5.005 -0.1191  0.5937  0.4597
 8848SOL    HW235158   3.048   1.192   4.919 -0.5441  0.1921  0.7443
 8848SOL    HW335159   3.170   1.179   5.008 -0.6943 -0.7558  0.8253
 8848SOL    MW435160   3.089   1.209   4.994 -0.2511  0.3626  0.5455
 8849SOL     OW35161   3.488   0.848   5.473 -0.0764 -0.7646  0.1509
 8849SOL    HW235162   3.538   0.770   5.499  0.3427 -0.5939 -0.1379
 8849SOL    HW335163   3.526   0.919   5.523 -0.3032 -0.7009  0.2365
 8849SOL    MW435164   3.499   0.847   5.483 -0.0510 -0.7336  0.1241
 8850SOL     OW35165   0.224   0.257   1.431  0.2154 -0.4081 -0.1356
 8850SOL    HW235166   0.132   0.259   1.457  0.2238  0.6978 -0.1526
 8850SOL    HW335167   0.270   0.293   1.507  0.5545 -0.1764 -0.4521
 8850SOL    MW435168   0.218   0.262   1.445  0.2613 -0.2316 -0.1796
 8851SOL     OW35169   5.842   1.296   1.429  0.0119  0.0072  0.3791
 8851SOL    HW235170   5.839   1.286   1.524  3.3751  1.1156  0.7305
 8851SOL    HW335171   5.806   1.383   1.413  0.3309  0.2141  0.7631
 8851SOL    MW435172   5.837   1.306   1.440  0.4977  0.1808  0.4761
 8852SOL     OW35173   4.225   5.005   2.148 -0.3712 -0.0389  0.0894
 8852SOL    HW235174   4.307   5.040   2.185 -0.7502 -0.3186  1.2375
 8852SOL    HW335175   4.251   4.922   2.108 -0.5099 -1.5710  2.9305
 8852SOL    MW435176   4.239   4.999   2.148 -0.4395 -0.2779  0.6157
 8853SOL     OW35177   2.946   3.423   4.724 -0.1413  0.3824 -0.3485
 8853SOL    HW235178   2.950   3.434   4.819  0.7434  0.3176 -0.3733
 8853SOL    HW335179   2.904   3.338   4.711 -1.2072  0.8423 -0.0459
 8853SOL    MW435180   2.941   3.413   4.735 -0.1652  0.4345 -0.3118
 8854SOL     OW35181   5.952   2.325   4.821  0.6012 -0.5857 -0.0992
 8854SOL    HW235182   5.912   2.285   4.744  2.3959 -0.1351 -1.3047
 8854SOL    HW335183   5.943   2.258   4.889 -0.8365 -1.0682 -0.7077
 8854SOL    MW435184   5.945   2.311   4.820  0.6483 -0.5899 -0.3386
 8855SOL     OW35185   1.369   0.956   5.132 -0.4976  0.1788  0.1891
 8855SOL    HW235186   1.292   0.930   5.082 -0.8094  2.6861 -0.7762
 8855SOL    HW335187   1.440   0.958   5.068 -0.0594 -0.2320  0.6537
 8855SOL    MW435188   1.368   0.953   5.117 -0.4809  0.4554  0.1230
 8856SOL     OW35189   4.377   1.158   5.608 -0.3602 -0.2384 -0.7616
 8856SOL    HW235190   4.290   1.117   5.610 -0.1128 -0.7964  1.7521
 8856SOL    HW335191   4.436   1.087   5.580 -0.5305 -0.2516 -1.0924
 8856SOL    MW435192   4.373   1.143   5.605 -0.3501 -0.3138 -0.4736
 8857SOL     OW35193   5.349   3.433   0.646 -0.2188  0.0789 -0.4361
 8857SOL    HW235194   5.390   3.426   0.560  1.2223  1.2056  0.1102
 8857SOL    HW335195   5.331   3.526   0.657  0.6736  0.1311  0.9070
 8857SOL    MW435196   5.352   3.444   0.636  0.0890  0.2344 -0.1868
 8858SOL     OW35197   4.711   4.517   2.829  0.4448 -0.0317 -0.0348
 8858SOL    HW235198   4.782   4.468   2.870  1.1187  0.9951  0.0864
 8858SOL    HW335199   4.753   4.560   2.754  0.1874  1.2862  0.5420
 8858SOL    MW435200   4.726   4.516   2.824  0.4997  0.2776  0.0573
 8859SOL     OW35201   4.823   0.663   0.798  0.3259  0.0100 -0.4421
 8859SOL    HW235202   4.897   0.621   0.754  1.4395  0.4264  0.9576
 8859SOL    HW335203   4.749   0.604   0.781  0.7788 -0.0503 -2.4752
 8859SOL    MW435204   4.823   0.650   0.790  0.5325  0.0570 -0.5257
 8860SOL     OW35205   6.244   3.433   4.306 -0.4172  0.0160 -0.2741
 8860SOL    HW235206   6.307   3.458   4.239  1.9732 -1.4727  1.2816
 8860SOL    HW335207   6.262   3.492   4.379 -2.8021  1.4334 -0.7287
 8860SOL    MW435208   6.255   3.444   4.307 -0.4165  0.0066 -0.1288
 8861SOL     OW35209   2.349   2.779   4.845  0.4045 -0.5281 -0.3171
 8861SOL    HW235210   2.366   2.747   4.757  1.0279 -1.1932  0.0293
 8861SOL    HW335211   2.266   2.826   4.839  0.0010 -1.3179 -1.0694
 8861SOL    MW435212   2.341   2.781   4.833  0.4335 -0.7201 -0.3706
 8862SOL     OW35213   2.099   6.107   3.263  0.3147  0.1508  0.4299
 8862SOL    HW235214   2.011   6.132   3.234  0.1328 -0.9831 -0.0429
 8862SOL    HW335215   2.084   6.035   3.324  0.8335  1.0522  1.6858
 8862SOL    MW435216   2.085   6.101   3.267  0.3592  0.1201  0.5332
 8863SOL     OW35217   0.496   3.332   4.956 -0.8768  0.4060  0.1442
 8863SOL    HW235218   0.452   3.262   5.003  1.0442  0.1938  1.7598
 8863SOL    HW335219   0.567   3.288   4.908 -0.8846  1.0152 -0.4485
 8863SOL    MW435220   0.500   3.317   4.956 -0.6244  0.4584  0.2791
 8864SOL     OW35221   1.157   2.385   5.538 -0.3037  0.1698 -0.2114
 8864SOL    HW235222   1.171   2.297   5.503 -0.6465 -0.3636  0.9259
 8864SOL    HW335223   1.243   2.425   5.538  0.4289 -1.1884  1.8275
 8864SOL    MW435224   1.170   2.378   5.534 -0.2523 -0.0797  0.2077
 8865SOL     OW35225   2.416   4.322   5.231  0.4115  0.3445  0.2091
 8865SOL    HW235226   2.322   4.318   5.250  0.6812 -1.6619  1.4786
 8865SOL    HW335227   2.437   4.234   5.198  2.0112  0.4233  0.9463
 8865SOL    MW435228   2.406   4.310   5.229  0.6581  0.0902  0.4739
 8866SOL     OW35229   3.179   2.646   1.910 -0.5762  0.3020 -0.7602
 8866SOL    HW235230   3.217   2.716   1.961  1.4277  0.0011 -1.7437
 8866SOL    HW335231   3.254   2.599   1.873 -1.8787 -1.3840 -1.4218
 8866SOL    MW435232   3.194   2.649   1.912 -0.4837  0.0399 -0.9772
 8867SOL     OW35233   3.525   3.037   2.204  0.0624  0.4839  0.2510
 8867SOL    HW235234   3.474   3.116   2.188 -0.6502 -0.1910 -0.9547
 8867SOL    HW335235   3.610   3.055   2.165  0.2424  1.0220  0.8758
 8867SOL    MW435236   3.530   3.049   2.197 -0.0079  0.4658  0.1744
 8868SOL     OW35237   6.035   5.622   3.801 -0.3259 -0.0887  0.4451
 8868SOL    HW235238   6.104   5.684   3.778 -0.7912 -0.1107 -1.1223
 8868SOL    HW335239   5.962   5.646   3.744 -1.3540 -0.5572  1.5200
 8868SOL    MW435240   6.034   5.633   3.790 -0.5229 -0.1534  0.3801
 8869SOL     OW35241   0.932   0.399   5.882 -0.9986 -0.2868 -0.0689
 8869SOL    HW235242   0.870   0.362   5.819 -0.0555 -1.6255 -0.2394
 8869SOL    HW335243   1.017   0.394   5.838 -0.1674 -2.1085  1.5773
 8869SOL    MW435244   0.935   0.393   5.868 -0.7645 -0.7038  0.1258
 8870SOL     OW35245   6.128   4.053   2.162  0.1852  0.5307 -0.3834
 8870SOL    HW235246   6.046   4.068   2.209 -0.3485 -0.7512 -0.8618
 8870SOL    HW335247   6.194   4.050   2.231 -0.4114 -0.0719  0.1791
 8870SOL    MW435248   6.126   4.055   2.177  0.0361  0.2821 -0.3723
 8871SOL     OW35249   5.139   1.214   5.725 -0.3695 -0.5483  0.3663
 8871SOL    HW235250   5.219   1.168   5.700 -0.4659 -0.0331 -0.9992
 8871SOL    HW335251   5.097   1.156   5.789  1.0777 -0.8207  1.1283
 8871SOL    MW435252   5.144   1.200   5.730 -0.1913 -0.5162  0.2867
 8872SOL     OW35253   2.023   0.261   3.275 -0.1656  0.2569  0.2420
 8872SOL    HW235254   2.114   0.254   3.247 -0.5154 -1.5211 -0.5675
 8872SOL    HW335255   1.973   0.267   3.193 -0.9501 -1.5831  0.5350
 8872SOL    MW435256   2.028   0.261   3.260 -0.3153 -0.2205  0.1739
 8873SOL     OW35257   2.114   4.916   2.223  0.0529 -0.1634 -0.6260
 8873SOL    HW235258   2.075   4.902   2.137  1.0837  1.7477 -1.4687
 8873SOL    HW335259   2.208   4.902   2.210  0.1692 -0.4148  0.3441
 8873SOL    MW435260   2.122   4.912   2.210  0.2042  0.0556 -0.6092
 8874SOL     OW35261   5.634   1.392   4.084 -0.1443 -0.0682 -0.2463
 8874SOL    HW235262   5.583   1.390   4.003  0.4409 -0.6652 -0.6164
 8874SOL    HW335263   5.703   1.456   4.067 -0.3547  0.2202 -0.0105
 8874SOL    MW435264   5.636   1.400   4.071 -0.0949 -0.1089 -0.2640
 8875SOL     OW35265   3.082   5.365   2.502 -0.0695  0.5192  0.0141
 8875SOL    HW235266   3.027   5.286   2.499  2.4673 -1.3276 -1.3510
 8875SOL    HW335267   3.132   5.356   2.583 -0.7886  1.5251  0.5932
 8875SOL    MW435268   3.081   5.353   2.512  0.1703  0.4083 -0.0896
 8876SOL     OW35269   2.817   1.220   4.431 -0.1429 -0.6104 -0.2691
 8876SOL    HW235270   2.734   1.267   4.424 -0.1414 -0.5783 -0.0789
 8876SOL    HW335271   2.836   1.192   4.342 -1.4170 -2.4185 -0.0230
 8876SOL    MW435272   2.808   1.222   4.418 -0.3108 -0.8447 -0.2116
 8877SOL     OW35273   5.034   2.780   5.859 -0.4534  1.2371  0.2179
 8877SOL    HW235274   5.087   2.701   5.853 -2.6286 -0.2009 -3.9678
 8877SOL    HW335275   5.090   2.850   5.828  0.6596  0.9139  1.4031
 8877SOL    MW435276   5.048   2.779   5.854 -0.5935  1.0047 -0.1780
 8878SOL     OW35277   2.899   1.757   4.799 -0.1365 -0.0353 -0.1314
 8878SOL    HW235278   2.860   1.671   4.783 -2.9993  1.0543  0.4431
 8878SOL    HW335279   2.892   1.769   4.893  1.4283  0.3416 -0.0401
 8878SOL    MW435280   2.893   1.747   4.809 -0.3077  0.1582 -0.0436
 8879SOL     OW35281   2.616   4.453   3.135 -0.1115 -0.4229 -0.5876
 8879SOL    HW235282   2.636   4.470   3.043  0.3045  0.1630 -0.3934
 8879SOL    HW335283   2.658   4.524   3.183 -0.9025 -0.3330  0.0071
 8879SOL    MW435284   2.624   4.464   3.129 -0.1610 -0.3337 -0.4835
 8880SOL     OW35285   6.414   2.504   2.777 -0.4829  0.4316  0.5433
 8880SOL    HW235286   6.386   2.417   2.806 -1.0026  0.5544  0.4231
 8880SOL    HW335287   6.334   2.557   2.781 -0.4705  0.5651 -0.6591
 8880SOL    MW435288   6.400   2.500   2.781 -0.5498  0.4654  0.3688
 8881SOL     OW35289   2.775   3.017   5.682  0.0444 -0.5530  0.1194
 8881SOL    HW235290   2.693   2.967   5.673  0.4963 -1.4571  0.8492
 8881SOL    HW335291   2.785   3.029   5.777  1.0939 -1.0329  0.0769
 8881SOL    MW435292   2.765   3.012   5.694  0.2425 -0.7356  0.2101
 8882SOL     OW35293   5.772   1.442   4.778 -0.8202 -0.1820 -0.0627
 8882SOL    HW235294   5.788   1.348   4.785  0.8476  0.0460 -0.4397
 8882SOL    HW335295   5.779   1.475   4.867  3.7240  0.2584 -0.3306
 8882SOL    MW435296   5.775   1.434   4.791 -0.0006 -0.0938 -0.1478
 8883SOL     OW35297   0.051   4.368   5.404 -0.2429  0.6257 -0.0298
 8883SOL    HW235298   0.121   4.375   5.340  0.3919 -0.9629  0.4463
 8883SOL    HW335299   0.060   4.447   5.458  1.8842 -0.0408  0.6825
 8883SOL    MW435300   0.061   4.380   5.403  0.1215  0.3282  0.1270
 8884SOL     OW35301   0.087   2.720   1.172 -0.1312  0.5572 -0.0346
 8884SOL    HW235302   0.017   2.785   1.183  0.2817  0.9624  0.2398
 8884SOL    HW335303   0.112   2.727   1.080 -0.2359  0.6283 -0.0584
 8884SOL    MW435304   0.081   2.730   1.161 -0.0905  0.6201 -0.0016
 8885SOL     OW35305   4.940   1.106   1.333  0.0813 -0.0863  0.2425
 8885SOL    HW235306   4.952   1.048   1.258  0.7970  1.3970 -0.8568
 8885SOL    HW335307   4.853   1.144   1.319 -0.5699 -1.1694  1.1919
 8885SOL    MW435308   4.930   1.104   1.321  0.0898 -0.0335  0.2227
 8886NA      NA35309   4.963   1.494   5.460 -0.2606 -0.0905  0.0675
 8887NA      NA35310   1.064   0.359   2.273  0.4186 -0.3185  0.5224
 8888NA      NA35311   1.589   0.989   4.207 -0.3113  0.3214  0.3265
 8889NA      NA35312   2.630   3.580   5.061  0.2897  0.4591 -0.4454
 8890NA      NA35313   3.643   4.967   0.675  0.4337  0.0147  0.4358
 8891NA      NA35314   2.097   5.306   3.549  0.0242  0.2484 -0.4716
 8892NA      NA35315   1.667   4.503   1.051 -0.4060 -0.4057  0.1127
   6.42920   6.42920   6.42920
