A-SYNC WITH FASUDIL
35315
  121NASP     N    1   3.264   1.309   5.788 -0.0922  0.4885  0.1629
  121NASP    H1    2   3.298   1.366   5.864 -3.6038  0.6021  1.7982
  121NASP    H2    3   3.208   1.368   5.728  1.6700 -0.4182 -2.5948
  121NASP    H3    4   3.336   1.265   5.731 -1.1417 -0.7253 -0.2777
  121NASP    CA    5   3.184   1.202   5.840 -0.2128 -0.4083 -0.3102
  121NASP    HA    6   3.106   1.244   5.903  0.5936  1.4074 -0.4766
  121NASP    CB    7   3.109   1.117   5.736  0.4176  0.1291  0.3147
  121NASP   HB1    8   3.039   1.050   5.787 -0.2573  1.0261  0.6049
  121NASP   HB2    9   3.175   1.078   5.659  0.5445  3.1069 -1.2127
  121NASP    CG   10   3.017   1.212   5.654  0.0363  1.0171 -0.5186
  121NASP   OD1   11   2.942   1.166   5.566  0.1099  0.5285 -0.4512
  121NASP   OD2   12   3.019   1.339   5.680  0.5053  0.5037 -0.1203
  121NASP     C   13   3.260   1.110   5.925 -0.3259  0.2666 -0.8324
  121NASP     O   14   3.358   1.057   5.878 -0.2103 -0.2925 -0.2514
  122ASN      N   15   3.212   1.086   6.048  0.2968  0.1675  0.1484
  122ASN      H   16   3.119   1.117   6.070 -0.6699 -1.2571 -1.6607
  122ASN     CA   17   3.283   1.009   6.149 -0.2336  0.4323  0.5081
  122ASN     HA   18   3.388   1.040   6.149 -0.0486 -0.1838  0.7502
  122ASN     CB   19   3.228   1.058   6.283  0.2010  0.2637  0.1639
  122ASN    HB1   20   3.131   1.106   6.274  0.6251  0.7903 -2.7179
  122ASN    HB2   21   3.288   1.135   6.331 -1.6858  0.1869  2.8657
  122ASN     CG   22   3.233   0.952   6.386 -0.9177 -0.1085 -0.2894
  122ASN    OD1   23   3.332   0.921   6.450 -0.3185 -0.2112 -0.1928
  122ASN    ND2   24   3.127   0.887   6.413 -0.0395  0.1565 -0.1618
  122ASN   HD21   25   3.128   0.809   6.478  2.9915  1.3171  1.3364
  122ASN   HD22   26   3.051   0.923   6.357  0.2405 -2.4037 -2.3869
  122ASN      C   27   3.289   0.858   6.125  0.4132 -0.0720 -0.4282
  122ASN      O   28   3.193   0.800   6.074 -0.3876 -0.2106 -0.1110
  123GLU      N   29   3.399   0.794   6.168  0.2182  0.0417 -0.3071
  123GLU      H   30   3.474   0.847   6.209  2.0992 -3.1763  0.7586
  123GLU     CA   31   3.428   0.655   6.153 -0.3555  0.3839 -0.5133
  123GLU     HA   32   3.338   0.596   6.134 -0.6813  0.0487  1.7849
  123GLU     CB   33   3.519   0.637   6.033 -0.4219 -0.8169 -0.0430
  123GLU    HB1   34   3.563   0.538   6.039 -0.4927 -0.8240  0.3841
  123GLU    HB2   35   3.597   0.710   6.056 -1.9878  0.7868  0.3970
  123GLU     CG   36   3.452   0.654   5.896  0.3231 -0.4042  0.4510
  123GLU    HG1   37   3.403   0.750   5.889 -0.0201 -0.6592 -0.7214
  123GLU    HG2   38   3.379   0.573   5.893  0.0867 -0.1739 -0.0016
  123GLU     CD   39   3.548   0.649   5.773  0.2714  0.8835 -0.0985
  123GLU    OE1   40   3.655   0.586   5.785 -0.0427  0.7081 -0.6776
  123GLU    OE2   41   3.524   0.713   5.669 -0.2486  0.5608 -0.4881
  123GLU      C   42   3.484   0.584   6.284 -0.2389 -0.0773  0.2113
  123GLU      O   43   3.516   0.465   6.278  0.0014 -0.2534  0.0856
  124ALA      N   44   3.486   0.651   6.393  0.5323 -0.9474  0.5055
  124ALA      H   45   3.453   0.746   6.382 -0.3389 -1.2584  0.3526
  124ALA     CA   46   3.519   0.601   6.526 -0.8996 -0.5173 -0.4284
  124ALA     HA   47   3.612   0.546   6.511 -0.8371 -1.5157  2.9299
  124ALA     CB   48   3.550   0.726   6.607  0.0553  0.8123  0.5642
  124ALA    HB1   49   3.633   0.773   6.554  1.6028 -1.5388  0.7469
  124ALA    HB2   50   3.588   0.689   6.702 -0.6623 -0.0608  0.5183
  124ALA    HB3   51   3.462   0.791   6.617 -0.4690  0.2232 -0.1746
  124ALA      C   52   3.425   0.510   6.595 -0.3950  0.4317  0.2604
  124ALA      O   53   3.437   0.489   6.716  0.1576  0.1709  0.2906
  125TYR      N   54   3.329   0.448   6.527  0.1142  0.0835  0.0013
  125TYR      H   55   3.322   0.470   6.429 -1.9078  0.4408  0.1837
  125TYR     CA   56   3.219   0.377   6.582  0.0058  0.1536 -0.0719
  125TYR     HA   57   3.157   0.449   6.636  1.5909  0.8575  0.8883
  125TYR     CB   58   3.133   0.323   6.472  0.1733  0.5943  1.0421
  125TYR    HB1   59   3.053   0.267   6.520 -0.6236 -0.6478 -1.5501
  125TYR    HB2   60   3.191   0.258   6.407 -1.1941 -1.5621  1.8634
  125TYR     CG   61   3.065   0.423   6.380  0.4858 -0.1025  0.5308
  125TYR    CD1   62   3.120   0.450   6.250  0.4281 -0.7522  0.0806
  125TYR    HD1   63   3.216   0.407   6.225  0.2865 -0.5850 -0.8081
  125TYR    CE1   64   3.061   0.546   6.166  0.3585 -0.1928 -0.0193
  125TYR    HE1   65   3.119   0.567   6.077 -1.0404 -0.7739 -1.0994
  125TYR     CZ   66   2.947   0.618   6.211 -0.3045  0.6857 -0.3375
  125TYR     OH   67   2.897   0.715   6.129  0.8617  0.1484  0.2906
  125TYR     HH   68   2.953   0.735   6.054  0.2098 -0.0717 -0.2623
  125TYR    CE2   69   2.887   0.585   6.332 -0.2815  0.5842 -0.3298
  125TYR    HE2   70   2.803   0.642   6.369 -0.3997 -1.0203  2.1285
  125TYR    CD2   71   2.948   0.486   6.417  0.6409  0.1687 -0.4398
  125TYR    HD2   72   2.897   0.463   6.510 -1.0379 -0.3801 -1.4508
  125TYR      C   73   3.268   0.266   6.674 -0.4341  0.8478 -0.2755
  125TYR      O   74   3.318   0.167   6.627  0.3008  0.0061 -0.1634
  126GLU      N   75   3.257   0.272   6.808  0.0401 -0.3766 -0.1964
  126GLU      H   76   3.206   0.353   6.843  2.6859  1.4653 -0.2778
  126GLU     CA   77   3.301   0.178   6.912 -0.1325 -0.1296 -0.6506
  126GLU     HA   78   3.284   0.227   7.008 -0.6693 -0.3281 -0.6412
  126GLU     CB   79   3.220   0.053   6.911 -0.6886 -0.9603  0.1135
  126GLU    HB1   80   3.248  -0.010   6.995 -1.0080 -1.5686 -0.2301
  126GLU    HB2   81   3.250  -0.004   6.823  2.3318 -0.7769  0.9298
  126GLU     CG   82   3.068   0.056   6.912 -0.1654 -0.1452 -0.1150
  126GLU    HG1   83   3.031  -0.046   6.917  1.6581 -0.8570 -0.3850
  126GLU    HG2   84   3.035   0.100   6.817  0.9945 -0.9808 -0.9396
  126GLU     CD   85   3.023   0.143   7.029 -0.2008 -0.1942 -0.2876
  126GLU    OE1   86   2.928   0.227   7.018 -0.4467  0.3658  0.2526
  126GLU    OE2   87   3.069   0.118   7.140  0.0339 -0.0966 -0.2074
  126GLU      C   88   3.448   0.147   6.906 -0.3130  0.0311 -0.0292
  126GLU      O   89   3.491   0.043   6.954 -0.1674  0.1342  0.4294
  127MET      N   90   3.526   0.240   6.853 -0.7375  0.2754  0.2254
  127MET      H   91   3.484   0.311   6.795 -0.2953  0.0230 -0.4116
  127MET     CA   92   3.668   0.250   6.885 -0.8394  0.3558  0.4244
  127MET     HA   93   3.727   0.161   6.864 -0.6157  0.2974  1.2659
  127MET     CB   94   3.733   0.358   6.801 -0.4902  0.0322 -0.2858
  127MET    HB1   95   3.827   0.401   6.834 -1.4995  2.9605 -0.8999
  127MET    HB2   96   3.666   0.444   6.797  1.0559  1.2401 -1.9655
  127MET     CG   97   3.755   0.321   6.659  0.6121  0.1429  0.0138
  127MET    HG1   98   3.849   0.266   6.656  0.2817 -0.6651  2.5237
  127MET    HG2   99   3.779   0.418   6.615 -0.5382  2.3533  3.8662
  127MET     SD  100   3.634   0.224   6.555 -0.0105 -0.3785 -0.2271
  127MET     CE  101   3.724   0.243   6.409 -0.3066  0.1961  0.1958
  127MET    HE1  102   3.819   0.189   6.412  0.3694  1.3161 -0.4732
  127MET    HE2  103   3.738   0.348   6.385 -0.2255  0.0641 -0.3378
  127MET    HE3  104   3.658   0.191   6.340  0.3958 -1.2292  0.5549
  127MET      C  105   3.680   0.287   7.031 -0.2171  0.2127 -0.3813
  127MET      O  106   3.628   0.385   7.085  0.3811 -0.7354 -0.4324
  128PRO      N  107   3.742   0.203   7.119 -0.1892 -0.1755  0.7653
  128PRO     CD  108   3.819   0.088   7.093 -0.3361 -0.3775 -0.0178
  128PRO    HD1  109   3.901   0.122   7.031 -0.2730 -0.8979 -0.2236
  128PRO    HD2  110   3.762   0.007   7.048 -1.5945  0.3835  0.1400
  128PRO     CG  111   3.872   0.050   7.229  0.0748  0.0540 -0.1050
  128PRO    HG1  112   3.966   0.101   7.249 -0.4753  1.3394 -0.6553
  128PRO    HG2  113   3.887  -0.058   7.236 -1.3103 -0.1998 -0.8005
  128PRO     CB  114   3.769   0.090   7.332 -0.4854  0.4442 -0.2825
  128PRO    HB1  115   3.681   0.026   7.326 -0.6664  0.3693  2.3218
  128PRO    HB2  116   3.815   0.099   7.430 -0.4151  0.7954 -0.3480
  128PRO     CA  117   3.734   0.222   7.266  0.5183 -0.2123 -0.1759
  128PRO     HA  118   3.628   0.237   7.285  0.0190 -2.5658 -0.7726
  128PRO      C  119   3.818   0.339   7.329  0.4413 -0.6928  0.4831
  128PRO      O  120   3.929   0.361   7.280  0.5081 -0.6897 -0.3019
  129SER      N  121   3.768   0.391   7.439 -0.1010  0.2483  0.4087
  129SER      H  122   3.676   0.365   7.472 -0.0670 -1.4289 -0.6797
  129SER     CA  123   3.854   0.478   7.529  0.0857  0.1269  0.5654
  129SER     HA  124   3.886   0.571   7.482  2.2105 -0.7720  0.1001
  129SER     CB  125   3.775   0.515   7.660  0.0788 -0.5343 -0.0479
  129SER    HB1  126   3.844   0.531   7.743  0.0967 -0.8361 -0.0018
  129SER    HB2  127   3.710   0.434   7.694 -1.5020  0.7577  0.1530
  129SER     OG  128   3.688   0.629   7.637 -0.5624  0.2382 -0.1916
  129SER    HG1  129   3.703   0.695   7.705 -0.4120  2.1868 -1.9843
  129SER      C  130   3.975   0.394   7.578 -0.2699  0.2817 -0.1206
  129SER      O  131   3.964   0.272   7.598 -0.3239  0.1879  0.0975
  130GLU      N  132   4.082   0.460   7.612 -0.4077  0.0427 -0.6678
  130GLU      H  133   4.088   0.557   7.588 -0.4592  0.0327 -0.7211
  130GLU     CA  134   4.199   0.391   7.676  0.7485  0.2734 -0.4092
  130GLU     HA  135   4.239   0.307   7.619  2.8756  1.4919 -0.8332
  130GLU     CB  136   4.307   0.498   7.695  0.0267  0.1998  0.1837
  130GLU    HB1  137   4.378   0.456   7.767 -1.0534 -2.7061 -0.3279
  130GLU    HB2  138   4.273   0.585   7.752 -0.4710  0.4006 -0.4079
  130GLU     CG  139   4.387   0.545   7.575 -0.3852 -0.9283 -0.6622
  130GLU    HG1  140   4.316   0.595   7.508  0.3490 -0.0747 -0.8128
  130GLU    HG2  141   4.423   0.455   7.524  1.5575  0.5030 -1.9541
  130GLU     CD  142   4.510   0.636   7.605 -0.2938 -0.0074  0.1873
  130GLU    OE1  143   4.546   0.671   7.720  0.2558 -0.1186 -0.1702
  130GLU    OE2  144   4.586   0.662   7.509 -0.1545  0.8166  0.1098
  130GLU      C  145   4.161   0.329   7.811 -0.3830 -0.3678 -0.0311
  130GLU      O  146   4.057   0.371   7.862 -0.4497 -0.1487 -0.2173
  131GLU      N  147   4.239   0.248   7.877  0.8415 -0.0233 -0.4385
  131GLU      H  148   4.324   0.218   7.832  0.4101 -1.8560 -0.1020
  131GLU     CA  149   4.194   0.185   8.006  0.0417 -0.1537  0.6323
  131GLU     HA  150   4.106   0.125   7.984 -1.1139  0.8925  2.2575
  131GLU     CB  151   4.308   0.097   8.044  0.3783 -0.6574  0.5022
  131GLU    HB1  152   4.397   0.149   8.077  0.1916 -0.3049  0.4585
  131GLU    HB2  153   4.330   0.048   7.949 -0.9896 -0.3830  0.0151
  131GLU     CG  154   4.280  -0.020   8.142  0.4016 -0.0819  0.1450
  131GLU    HG1  155   4.215  -0.095   8.098  1.0757  0.8027 -2.5459
  131GLU    HG2  156   4.227   0.010   8.233  0.1433  0.9607 -0.3287
  131GLU     CD  157   4.401  -0.100   8.182 -0.3851  0.2119 -0.3896
  131GLU    OE1  158   4.416  -0.132   8.302  0.6042 -0.3836  0.0628
  131GLU    OE2  159   4.473  -0.154   8.087 -0.2714 -0.1264  0.1338
  131GLU      C  160   4.166   0.281   8.125 -0.4078  0.3488  0.2235
  131GLU      O  161   4.230   0.385   8.145  0.2548 -0.1666  0.7590
  132GLY      N  162   4.068   0.245   8.212  0.2788 -0.2792  0.1912
  132GLY      H  163   4.013   0.163   8.191 -1.1262  0.7436 -0.2836
  132GLY     CA  164   4.019   0.310   8.329  0.0832 -0.0039  0.1365
  132GLY    HA1  165   4.013   0.417   8.308 -1.1667  0.1875  1.3076
  132GLY    HA2  166   4.089   0.315   8.412  2.6364  0.4917 -1.9135
  132GLY      C  167   3.872   0.268   8.363  0.0113  0.0087  0.3422
  132GLY      O  168   3.791   0.250   8.274 -0.0978 -0.5431  0.5458
  133TYR      N  169   3.843   0.242   8.492 -0.1885 -0.3665 -0.1553
  133TYR      H  170   3.912   0.250   8.565 -1.6942 -1.9900  1.5613
  133TYR     CA  171   3.718   0.185   8.537  0.6803  0.9374 -0.6002
  133TYR     HA  172   3.636   0.207   8.469  1.3031  0.1723 -1.6284
  133TYR     CB  173   3.737   0.030   8.541 -0.1222 -0.2299 -0.2722
  133TYR    HB1  174   3.796   0.001   8.628 -2.6677 -1.9092  1.0229
  133TYR    HB2  175   3.789  -0.001   8.451 -0.3698 -2.9128  0.4467
  133TYR     CG  176   3.610  -0.050   8.543 -0.8138  1.0267 -0.7310
  133TYR    CD1  177   3.545  -0.092   8.661  0.9334  0.3125 -0.2282
  133TYR    HD1  178   3.583  -0.069   8.759  0.3479  1.5420 -0.2642
  133TYR    CE1  179   3.422  -0.163   8.657  0.2212  0.1608  0.3225
  133TYR    HE1  180   3.381  -0.193   8.752  0.3825  0.2211  0.4112
  133TYR     CZ  181   3.356  -0.181   8.532 -0.3889  0.1868 -0.1378
  133TYR     OH  182   3.242  -0.250   8.530 -0.9651  0.0209  0.3582
  133TYR     HH  183   3.229  -0.297   8.613 -0.0560  0.5236  0.8032
  133TYR    CE2  184   3.426  -0.139   8.417  1.0924  0.4673 -0.6618
  133TYR    HE2  185   3.375  -0.155   8.323 -3.3134  0.6221  1.4928
  133TYR    CD2  186   3.554  -0.075   8.417 -0.3886 -0.2368  0.0077
  133TYR    HD2  187   3.602  -0.045   8.325  3.5041 -1.1252  1.5724
  133TYR      C  188   3.675   0.235   8.686 -0.6295  0.1170 -0.4744
  133TYR      O  189   3.755   0.223   8.779 -0.0487  0.2138  0.9425
  134GLN      N  190   3.551   0.287   8.700 -0.0752 -0.1586 -0.2518
  134GLN      H  191   3.499   0.306   8.616  0.2479  0.9949 -0.2014
  134GLN     CA  192   3.506   0.351   8.821 -0.6209  0.5608 -0.1603
  134GLN     HA  193   3.568   0.435   8.853  0.1439 -1.2598  3.7653
  134GLN     CB  194   3.358   0.403   8.797  0.4812  0.2638 -0.0212
  134GLN    HB1  195   3.308   0.438   8.887 -1.3097 -1.7148 -0.1858
  134GLN    HB2  196   3.305   0.315   8.760  1.8524 -1.3119  1.5559
  134GLN     CG  197   3.337   0.508   8.687 -0.3618 -0.0443  0.8708
  134GLN    HG1  198   3.229   0.519   8.672 -0.8018 -0.9911  2.9311
  134GLN    HG2  199   3.379   0.467   8.596 -0.5395  0.5891  0.4959
  134GLN     CD  200   3.399   0.643   8.722 -0.6429 -0.0555  0.4403
  134GLN    OE1  201   3.363   0.708   8.820  0.7806  0.3418 -0.0459
  134GLN    NE2  202   3.509   0.675   8.654  0.3102 -0.2230 -0.0691
  134GLN   HE21  203   3.550   0.762   8.686 -1.2426  1.0713 -1.4225
  134GLN   HE22  204   3.557   0.614   8.590  1.2450 -0.0336  0.4412
  134GLN      C  205   3.522   0.247   8.933  0.2717 -0.3239  0.3673
  134GLN      O  206   3.460   0.142   8.915 -0.2071 -0.1596 -0.6381
  135ASP      N  207   3.590   0.282   9.040 -0.0093  0.0565 -0.4842
  135ASP      H  208   3.644   0.367   9.033  1.9021 -0.9203  1.2948
  135ASP     CA  209   3.568   0.227   9.175  0.0107  0.1602 -0.1923
  135ASP     HA  210   3.626   0.134   9.173  0.8538  0.6830 -0.9203
  135ASP     CB  211   3.616   0.320   9.288 -0.2950  0.2773  0.3492
  135ASP    HB1  212   3.607   0.263   9.380  1.3613  0.7777  0.8482
  135ASP    HB2  213   3.549   0.406   9.292 -0.6577  0.0690 -0.9482
  135ASP     CG  214   3.761   0.369   9.273  0.2003  0.1556  0.0030
  135ASP    OD1  215   3.853   0.320   9.338 -0.3199  0.7368 -0.0761
  135ASP    OD2  216   3.790   0.465   9.198 -0.2938 -0.1312 -0.5286
  135ASP      C  217   3.425   0.191   9.203  0.1622 -0.1536  0.2805
  135ASP      O  218   3.329   0.263   9.157 -0.1650  0.0806  0.3764
  136TYR      N  219   3.404   0.095   9.289  0.8017 -0.1473  0.2821
  136TYR      H  220   3.487   0.043   9.313  0.9215  0.1526  0.5297
  136TYR     CA  221   3.274   0.043   9.314 -0.4193 -0.7777  0.0220
  136TYR     HA  222   3.235   0.015   9.216  1.0284 -0.9911 -0.5107
  136TYR     CB  223   3.279  -0.089   9.392  0.1610 -0.0514 -0.1254
  136TYR    HB1  224   3.348  -0.162   9.352  0.3552 -1.3568  2.3790
  136TYR    HB2  225   3.183  -0.140   9.385  0.2292 -0.1627 -0.2451
  136TYR     CG  226   3.296  -0.068   9.542  0.2686 -0.9226 -0.3725
  136TYR    CD1  227   3.188  -0.052   9.629 -1.0443  0.2815 -0.2846
  136TYR    HD1  228   3.088  -0.071   9.593 -0.9887  0.2952 -0.4489
  136TYR    CE1  229   3.208  -0.044   9.765 -0.1161 -0.2272  0.0562
  136TYR    HE1  230   3.122  -0.041   9.831  0.8951 -1.4055  1.4836
  136TYR     CZ  231   3.339  -0.044   9.816 -0.5071  0.3455 -0.2041
  136TYR     OH  232   3.365  -0.026   9.949 -0.4077  0.2628  0.0668
  136TYR     HH  233   3.280  -0.008   9.991 -1.1146 -1.2511 -0.6564
  136TYR    CE2  234   3.449  -0.071   9.729 -0.4099 -0.4029  0.3958
  136TYR    HE2  235   3.548  -0.074   9.770  0.6257  1.7360 -1.7229
  136TYR    CD2  236   3.428  -0.066   9.589 -0.2288 -0.4498 -0.5716
  136TYR    HD2  237   3.509  -0.088   9.522  0.6022 -0.3475  0.3678
  136TYR      C  238   3.178   0.151   9.377 -0.5664  0.2823 -0.3998
  136TYR      O  239   3.228   0.225   9.462  0.0450 -0.3492 -0.1997
  137GLU      N  240   3.045   0.154   9.343 -0.6246  0.1909 -0.1205
  137GLU      H  241   3.014   0.086   9.275 -0.6822 -0.3329  0.4194
  137GLU     CA  242   2.938   0.235   9.401  0.5317 -0.1512 -1.4348
  137GLU     HA  243   2.978   0.334   9.423  2.7244 -1.3082  0.1395
  137GLU     CB  244   2.827   0.232   9.295  0.2388 -0.2585 -0.7766
  137GLU    HB1  245   2.800   0.131   9.263 -2.7112  0.4252 -0.7508
  137GLU    HB2  246   2.872   0.281   9.209  0.0206  1.1600 -0.1026
  137GLU     CG  247   2.702   0.311   9.338  0.2052 -0.0878  0.1456
  137GLU    HG1  248   2.724   0.414   9.364 -0.7401  0.1364  0.1060
  137GLU    HG2  249   2.658   0.269   9.429  2.4321 -0.4064  1.1490
  137GLU     CD  250   2.594   0.314   9.235 -0.3591 -0.4599 -0.3833
  137GLU    OE1  251   2.526   0.418   9.214  0.1006  0.5296  0.0011
  137GLU    OE2  252   2.580   0.212   9.165  0.3470  0.3207 -0.0668
  137GLU      C  253   2.893   0.176   9.535  0.2445  0.0728  0.7029
  137GLU      O  254   2.848   0.059   9.535 -0.0148  0.0197  0.1428
  138PRO      N  255   2.890   0.260   9.643  0.2232  0.0649  0.5761
  138PRO     CD  256   2.922   0.397   9.644  0.0418  0.4739 -0.3077
  138PRO    HD1  257   2.873   0.464   9.573 -0.9179  1.4483  1.2091
  138PRO    HD2  258   3.030   0.406   9.646  0.2734 -1.8278  0.8084
  138PRO     CG  259   2.872   0.454   9.778  0.4922  1.0874  0.8447
  138PRO    HG1  260   2.766   0.477   9.765  0.3629  1.1128  1.8553
  138PRO    HG2  261   2.932   0.540   9.808  1.3666  1.2626 -1.2355
  138PRO     CB  262   2.874   0.335   9.871 -0.0510  0.5017  0.4041
  138PRO    HB1  263   2.967   0.302   9.916  0.1225  0.9515  0.3777
  138PRO    HB2  264   2.802   0.343   9.953 -1.0824  0.3026 -0.4583
  138PRO     CA  265   2.833   0.217   9.778 -0.4997 -0.0819  0.5281
  138PRO     HA  266   2.889   0.134   9.821  2.9432  2.7991  2.1874
  138PRO      C  267   2.679   0.203   9.769 -0.1046  0.2967  0.2111
  138PRO      O  268   2.608   0.273   9.695  0.1672  0.0170 -0.6871
  139GLU      N  269   2.626   0.121   9.859  0.0545  0.2109  0.3826
  139GLU      H  270   2.696   0.075   9.914 -1.7744  0.8571  3.5367
  139GLU     CA  271   2.485   0.085   9.879  0.3239  0.2790  0.1530
  139GLU     HA  272   2.426   0.172   9.850  1.1793  1.1027  0.8287
  139GLU     CB  273   2.456  -0.031   9.776 -0.0615 -0.5750  0.3453
  139GLU    HB1  274   2.356  -0.073   9.789  0.6891 -2.9387 -0.9524
  139GLU    HB2  275   2.530  -0.110   9.788  1.0670  0.6378  1.7097
  139GLU     CG  276   2.454   0.017   9.628  0.6663 -0.1609  0.6350
  139GLU    HG1  277   2.555   0.022   9.586  0.2469 -0.1194 -0.3909
  139GLU    HG2  278   2.400   0.111   9.621  1.1993  0.0476 -1.0549
  139GLU     CD  279   2.374  -0.081   9.539 -0.3660  0.2123  0.7001
  139GLU    OE1  280   2.384  -0.075   9.415 -0.2216 -0.7046 -0.7761
  139GLU    OE2  281   2.301  -0.169   9.583 -0.3561 -0.1559 -0.4007
  139GLU      C  282   2.455   0.035  10.018 -0.0844 -0.9993  0.1090
  139GLU      O  283   2.513  -0.069  10.057  0.0358 -0.8535 -0.2576
  140CALA     N  284   2.363   0.108  10.092  0.3916  0.0329  0.2008
  140CALA     H  285   2.319   0.190  10.053  0.4972 -0.3799 -0.8448
  140CALA    CA  286   2.347   0.077  10.230  0.4768 -0.2139 -0.4896
  140CALA    HA  287   2.450   0.077  10.268  0.4139  0.6224 -0.2820
  140CALA    CB  288   2.261   0.191  10.297  0.6387 -0.2590 -0.2087
  140CALA   HB1  289   2.155   0.168  10.295 -0.4329  3.8117  0.3508
  140CALA   HB2  290   2.271   0.284  10.241 -4.7467  1.0189  0.4226
  140CALA   HB3  291   2.288   0.197  10.403  1.7307 -2.3108 -0.3201
  140CALA     C  292   2.288  -0.057  10.262  0.2633  0.1138  0.1549
  140CALA   OC1  293   2.332  -0.132  10.352  0.6923 -0.4259 -0.2372
  140CALA   OC2  294   2.207  -0.093  10.175 -0.3174 -0.1825 -0.0114
  141FAS      C  295   4.466   0.378   6.128  0.7280  0.0916  0.4738
  141FAS     C1  296   4.475   0.284   6.013  0.2308  0.0402  0.2760
  141FAS      N  297   4.521   0.146   6.048 -0.1919 -0.2359 -0.1987
  141FAS     C2  298   4.414   0.068   6.124  0.9077  0.1584 -0.4378
  141FAS     C3  299   4.369   0.117   6.259  0.2056 -0.4062  0.9974
  141FAS     N1  300   4.282   0.238   6.248  0.2611  0.2362  0.7783
  141FAS     C4  301   4.328   0.374   6.195 -0.0901 -0.0513 -0.0003
  141FAS      S  302   4.110   0.225   6.238  0.0064 -0.0315 -0.0054
  141FAS      O  303   4.086   0.232   6.093 -0.2719  0.0945 -0.1085
  141FAS     O1  304   4.087   0.096   6.308 -0.5676  0.0553 -0.0617
  141FAS     C5  305   4.065   0.359   6.350 -0.8481  0.1472  0.4715
  141FAS     C6  306   4.124   0.353   6.476  0.2285 -0.0155 -0.4206
  141FAS     C7  307   4.095   0.447   6.573 -0.4082 -0.5568  0.2685
  141FAS     C8  308   4.009   0.557   6.540  0.4818  0.2883 -0.0124
  141FAS     C9  309   3.951   0.564   6.412  0.3196 -0.3049  0.1548
  141FAS    C10  310   3.976   0.468   6.315 -1.4450  0.2673  0.2838
  141FAS    C11  311   3.931   0.498   6.183  0.2670  1.0470  0.3106
  141FAS    C12  312   3.839   0.602   6.159 -0.1867  0.8255  0.3588
  141FAS     N2  313   3.807   0.690   6.257  0.4051 -0.1613  0.2266
  141FAS    C13  314   3.866   0.674   6.377 -0.8276  0.1623 -0.4522
  141FAS      H  315   4.493   0.473   6.080  0.4631 -0.4631 -0.8383
  141FAS     H1  316   4.548   0.361   6.199  0.0482  0.5980  1.3981
  141FAS     H2  317   4.559   0.314   5.951  1.6324 -2.4180  0.8379
  141FAS     H3  318   4.379   0.281   5.961  0.3614 -1.6749  0.0658
  141FAS     H4  319   4.552   0.099   5.962 -0.6092 -0.3014 -0.3147
  141FAS     H5  320   4.450  -0.034   6.140 -5.0046 -2.4267 -0.9540
  141FAS     H6  321   4.328   0.060   6.057  0.1616  4.2910 -0.2488
  141FAS     H7  322   4.456   0.156   6.313  0.5298 -0.5797  0.6068
  141FAS     H8  323   4.321   0.040   6.321 -0.5103 -0.1095  0.8337
  141FAS     H9  324   4.338   0.442   6.281  2.9621 -0.2015 -0.1457
  141FAS    H10  325   4.257   0.416   6.122  1.5426 -1.8038 -2.7450
  141FAS    H11  326   4.197   0.274   6.498  1.1893  1.2736  1.2857
  141FAS    H12  327   4.159   0.452   6.660  1.9886  0.1660 -1.4216
  141FAS    H13  328   3.988   0.632   6.615 -0.4986 -2.0214  2.2018
  141FAS    H14  329   3.960   0.435   6.100 -0.5981  0.4402  0.4513
  141FAS    H15  330   3.793   0.617   6.062  1.3022  1.1776 -0.3176
  141FAS    H16  331   3.835   0.746   6.453  0.1259 -1.6981  1.7957
  141FAS    H17  332   4.605   0.145   6.106 -0.6278  2.3817  0.6109
  142SOL     OW  333   5.848   3.939   2.001  0.0695 -0.1496 -0.4639
  142SOL    HW2  334   5.826   3.846   2.004  0.6342 -0.3210 -1.2246
  142SOL    HW3  335   5.890   3.950   1.915  1.7043  0.4202  0.3674
  142SOL    MW4  336   5.851   3.928   1.990  0.3597 -0.0970 -0.4546
  143SOL     OW  337   0.757   0.796   5.888  0.3627 -0.3316  0.3635
  143SOL    HW2  338   0.692   0.760   5.949  0.6921  0.3964  1.1577
  143SOL    HW3  339   0.756   0.735   5.814 -1.2696 -0.3107  0.3320
  143SOL    MW4  340   0.748   0.783   5.887  0.1908 -0.2328  0.4642
  144SOL     OW  341   2.358   0.605   5.101  0.2677 -0.5337  0.0689
  144SOL    HW2  342   2.320   0.687   5.133  1.0299 -0.0611 -0.2073
  144SOL    HW3  343   2.332   0.540   5.166 -0.5803 -0.1314  0.1482
  144SOL    MW4  344   2.349   0.607   5.114  0.2564 -0.4183  0.0429
  145SOL     OW  345   1.287   3.111   3.863 -0.4712  0.1377 -0.0306
  145SOL    HW2  346   1.293   3.197   3.905 -1.2341  0.3390 -0.3264
  145SOL    HW3  347   1.368   3.104   3.812  0.2128  0.1225  1.0224
  145SOL    MW4  348   1.298   3.122   3.862 -0.4816  0.1622  0.0693
  146SOL     OW  349   4.650   2.938   4.129  0.0588  0.1779  0.5725
  146SOL    HW2  350   4.568   2.986   4.113  0.1194  0.6941  1.6930
  146SOL    HW3  351   4.706   2.961   4.055 -0.7057  0.0463 -0.0625
  146SOL    MW4  352   4.646   2.947   4.117 -0.0341  0.2287  0.6366
  147SOL     OW  353   2.177   4.529   1.807  0.3146  0.6936 -0.4992
  147SOL    HW2  354   2.208   4.526   1.717  1.1303 -0.7255 -0.2023
  147SOL    HW3  355   2.247   4.574   1.855 -0.1547  1.5186 -0.5836
  147SOL    MW4  356   2.191   4.534   1.802  0.3603  0.6152 -0.4711
  148SOL     OW  357   3.553   4.315   0.601  0.2187 -0.2501  0.2516
  148SOL    HW2  358   3.612   4.244   0.576  0.0797 -0.3853  0.3065
  148SOL    HW3  359   3.529   4.356   0.518  1.5822  0.7675  0.3286
  148SOL    MW4  360   3.558   4.311   0.587  0.3802 -0.1336  0.2690
  149SOL     OW  361   4.592   4.324   5.641 -0.6743 -0.0967  0.3592
  149SOL    HW2  362   4.631   4.330   5.554  0.9103 -0.4566  0.9945
  149SOL    HW3  363   4.568   4.414   5.664 -2.5869 -0.2020 -1.0484
  149SOL    MW4  364   4.594   4.337   5.633 -0.7176 -0.1581  0.2573
  150SOL     OW  365   0.481   2.620   5.998 -0.6529 -0.3148 -0.0543
  150SOL    HW2  366   0.472   2.634   5.903 -2.1624 -1.3403 -0.0959
  150SOL    HW3  367   0.501   2.707   6.032 -0.6357  0.1824 -1.2538
  150SOL    MW4  368   0.482   2.634   5.990 -0.8498 -0.3845 -0.2181
  151SOL     OW  369   2.899   6.218   6.105 -0.6378 -0.0719 -0.8058
  151SOL    HW2  370   2.904   6.128   6.074 -0.3319 -0.2131 -0.3438
  151SOL    HW3  371   2.819   6.252   6.064 -1.4857 -0.9511  0.0508
  151SOL    MW4  372   2.889   6.211   6.095 -0.7093 -0.2065 -0.6318
  152SOL     OW  373   0.114   1.049   0.683  0.2298  0.3360  0.6854
  152SOL    HW2  374   0.175   1.113   0.719  1.4768 -0.1313 -0.4959
  152SOL    HW3  375   0.130   0.969   0.734 -0.6894  0.6926  1.5612
  152SOL    MW4  376   0.124   1.047   0.694  0.2731  0.3214  0.6451
  153SOL     OW  377   3.549   5.453   3.100  0.4114  0.4787 -0.0748
  153SOL    HW2  378   3.500   5.423   3.177  2.0439 -0.4384  0.6549
  153SOL    HW3  379   3.497   5.526   3.066 -2.8358 -1.9618 -0.8631
  153SOL    MW4  380   3.536   5.459   3.106  0.1984  0.0357 -0.0826
  154SOL     OW  381   4.913   0.200   2.713  0.2703 -0.5903 -0.5434
  154SOL    HW2  382   4.824   0.165   2.716 -0.5663  1.3908 -0.4804
  154SOL    HW3  383   4.935   0.221   2.803  0.6407 -0.6778 -0.6087
  154SOL    MW4  384   4.904   0.198   2.725  0.2088 -0.3404 -0.5437
  155SOL     OW  385   2.318   4.450   0.441 -0.5473  0.4996 -0.9122
  155SOL    HW2  386   2.293   4.430   0.532 -2.0158 -0.6424 -1.5204
  155SOL    HW3  387   2.353   4.538   0.445 -1.0705  0.6758  0.7029
  155SOL    MW4  388   2.319   4.459   0.454 -0.8101  0.3722 -0.7794
  156SOL     OW  389   4.143   5.074   2.738  0.2741 -0.1249 -0.3558
  156SOL    HW2  390   4.150   5.000   2.678  2.1459 -0.3022  0.0175
  156SOL    HW3  391   4.144   5.034   2.825 -0.0491  0.2689 -0.1681
  156SOL    MW4  392   4.144   5.059   2.742  0.4784 -0.0963 -0.2818
  157SOL     OW  393   2.222   5.639   0.212  0.2402  0.3050  0.1468
  157SOL    HW2  394   2.265   5.577   0.152 -2.4856  0.7100 -2.4670
  157SOL    HW3  395   2.203   5.587   0.290  1.9608 -0.8731 -0.1414
  157SOL    MW4  396   2.225   5.624   0.214  0.1075  0.2030 -0.2361
  158SOL     OW  397   4.818   0.373   0.627 -0.0406  0.2343 -0.7378
  158SOL    HW2  398   4.768   0.396   0.549 -0.1504 -1.7795 -1.3171
  158SOL    HW3  399   4.897   0.428   0.622 -0.9569  1.5424 -1.1944
  158SOL    MW4  400   4.822   0.383   0.616 -0.1760  0.1412 -0.8744
  159SOL     OW  401   5.633   6.002   3.080 -0.1002  0.2217 -0.3258
  159SOL    HW2  402   5.674   6.087   3.064 -0.5199  0.7311  1.1482
  159SOL    HW3  403   5.704   5.939   3.070  0.1322  0.6796 -1.8270
  159SOL    MW4  404   5.648   6.005   3.077 -0.1249  0.3493 -0.3294
  160SOL     OW  405   4.815   0.112   3.882 -0.3601 -0.0953 -0.1184
  160SOL    HW2  406   4.847   0.170   3.813 -2.8732 -0.4689 -1.7358
  160SOL    HW3  407   4.773   0.170   3.946  0.5164  0.1236  0.2712
  160SOL    MW4  408   4.814   0.127   3.881 -0.5760 -0.1157 -0.2804
  161SOL     OW  409   3.072   2.707   3.105  0.3354 -0.1405 -0.8349
  161SOL    HW2  410   2.989   2.673   3.073  0.3619  0.4615 -1.5738
  161SOL    HW3  411   3.131   2.700   3.030  1.1023 -1.0376 -0.1735
  161SOL    MW4  412   3.069   2.702   3.091  0.4401 -0.1794 -0.8451
  162SOL     OW  413   4.078   3.210   0.066  0.3203 -0.4706  0.2251
  162SOL    HW2  414   4.081   3.223   0.161 -0.5647 -0.3440  0.2495
  162SOL    HW3  415   3.995   3.250   0.040 -1.6377 -4.1842  0.0227
  162SOL    MW4  416   4.067   3.217   0.075 -0.0548 -0.9438  0.2016
  163SOL     OW  417   5.768   1.431   6.015  0.5608 -0.1804 -0.3353
  163SOL    HW2  418   5.734   1.512   5.977  0.2611  0.2248  0.7371
  163SOL    HW3  419   5.743   1.363   5.954  0.0996  0.4441 -0.8581
  163SOL    MW4  420   5.760   1.433   6.002  0.4604 -0.0445 -0.2628
  164SOL     OW  421   1.032   2.464   3.079 -0.2747  0.5139 -0.5564
  164SOL    HW2  422   1.081   2.448   2.998  2.0536  1.6722  0.5230
  164SOL    HW3  423   1.099   2.490   3.142 -2.0182 -0.2870  1.7525
  164SOL    MW4  424   1.047   2.466   3.076 -0.1976  0.5611 -0.1093
  165SOL     OW  425   1.920   2.166   1.413  0.0026  0.6382 -0.0734
  165SOL    HW2  426   1.904   2.225   1.487 -1.7026 -0.8476  0.8040
  165SOL    HW3  427   1.940   2.081   1.453 -1.6102 -0.3628 -1.2830
  165SOL    MW4  428   1.921   2.163   1.428 -0.4352  0.3101 -0.1173
  166SOL     OW  429   2.239   3.740   4.474  0.2639  0.1534  0.5243
  166SOL    HW2  430   2.306   3.756   4.408 -0.3481  0.1549 -0.0963
  166SOL    HW3  431   2.274   3.667   4.526  0.4115 -0.3292 -0.2493
  166SOL    MW4  432   2.252   3.732   4.472  0.2026  0.0899  0.3403
  167SOL     OW  433   4.479   3.844   0.589  0.3773  0.1700  0.1926
  167SOL    HW2  434   4.529   3.923   0.608  1.7911  0.0492 -2.5539
  167SOL    HW3  435   4.531   3.773   0.626  0.5636  0.3022  0.1841
  167SOL    MW4  436   4.493   3.845   0.597  0.5884  0.1715 -0.1709
  168SOL     OW  437   4.026   0.409   0.620  0.3967  0.1641 -0.0292
  168SOL    HW2  438   3.978   0.488   0.594  2.7588  1.2424 -1.3569
  168SOL    HW3  439   3.984   0.383   0.702 -1.7466  1.6218 -0.5538
  168SOL    MW4  440   4.014   0.416   0.627  0.4256  0.4987 -0.2736
  169SOL     OW  441   0.096   4.234   1.634  0.8570 -0.3475 -0.0883
  169SOL    HW2  442   0.090   4.254   1.540  1.8322 -1.5597 -0.4457
  169SOL    HW3  443   0.169   4.172   1.640  2.0261  1.1072  1.7190
  169SOL    MW4  444   0.105   4.228   1.622  1.1400 -0.3155  0.1030
  170SOL     OW  445   5.544   3.591   6.194 -0.3298  0.1074  0.0422
  170SOL    HW2  446   5.454   3.610   6.218  0.0082 -1.0026  2.4289
  170SOL    HW3  447   5.537   3.534   6.117 -1.7501 -1.1918  1.0775
  170SOL    MW4  448   5.532   3.586   6.187 -0.4726 -0.2105  0.4937
  171SOL     OW  449   0.820   1.521   2.673  0.9928  0.6560  0.3462
  171SOL    HW2  450   0.880   1.446   2.671 -0.7188 -0.7553 -1.4168
  171SOL    HW3  451   0.856   1.581   2.608  0.5936 -0.1428 -0.6353
  171SOL    MW4  452   0.833   1.519   2.664  0.7143  0.3644 -0.0159
  172SOL     OW  453   0.389   2.875   0.383 -0.3037  0.6749  0.7377
  172SOL    HW2  454   0.353   2.951   0.429 -1.8080 -1.0445  2.5150
  172SOL    HW3  455   0.417   2.816   0.452  2.7399  0.3686 -0.5968
  172SOL    MW4  456   0.388   2.877   0.398 -0.1006  0.4076  0.7961
  173SOL     OW  457   4.011   0.920   0.126 -0.8313  0.0042  0.4216
  173SOL    HW2  458   3.938   0.979   0.107 -0.7236  0.3974  1.1943
  173SOL    HW3  459   4.003   0.902   0.220  0.1793  0.2115  0.5539
  173SOL    MW4  460   4.000   0.925   0.136 -0.6838  0.0834  0.5410
  174SOL     OW  461   1.301   2.131   3.803  0.1526  0.7688  0.8313
  174SOL    HW2  462   1.324   2.057   3.746  0.0505  0.5760  1.0371
  174SOL    HW3  463   1.223   2.169   3.762  0.0546  0.6051  0.8644
  174SOL    MW4  464   1.294   2.126   3.790  0.1262  0.7218  0.8629
  175SOL     OW  465   3.075   1.682  -0.027  0.6166 -0.7702  0.4853
  175SOL    HW2  466   3.089   1.768   0.011  2.4305 -1.7474  2.1882
  175SOL    HW3  467   3.054   1.699  -0.119 -0.9072  1.5356  1.1886
  175SOL    MW4  468   3.074   1.696  -0.034  0.6549 -0.5949  0.8028
  176SOL     OW  469   2.616   5.773   1.801 -0.2415 -0.0729 -0.6402
  176SOL    HW2  470   2.591   5.713   1.731 -0.6963  0.0028 -0.5438
  176SOL    HW3  471   2.697   5.735   1.837 -0.4060 -0.5099 -0.7215
  176SOL    MW4  472   2.624   5.760   1.797 -0.3232 -0.1206 -0.6382
  177SOL     OW  473   0.996   1.868   2.358 -0.1546  0.0214  0.1387
  177SOL    HW2  474   1.080   1.828   2.340 -0.1418  0.3011 -0.4466
  177SOL    HW3  475   0.933   1.795   2.357  0.0933 -0.2022  0.6990
  177SOL    MW4  476   0.999   1.853   2.355 -0.1202  0.0288  0.1354
  178SOL     OW  477   4.882   2.139   2.700  0.1406 -0.1784 -0.1926
  178SOL    HW2  478   4.811   2.080   2.725 -0.3192  0.1115 -0.7736
  178SOL    HW3  479   4.857   2.223   2.738 -0.0847  0.0402 -0.8108
  178SOL    MW4  480   4.869   2.142   2.708  0.0502 -0.1113 -0.3508
  179SOL     OW  481   5.495   1.977   4.819  0.2603  0.3446  0.5972
  179SOL    HW2  482   5.562   1.909   4.817  1.3880  1.4303  0.1404
  179SOL    HW3  483   5.508   2.021   4.903 -0.2049  0.2576  0.7182
  179SOL    MW4  484   5.505   1.974   4.830  0.3477  0.4764  0.5529
  180SOL     OW  485   4.145   0.967   2.229  1.0644  0.0585 -0.3374
  180SOL    HW2  486   4.189   0.892   2.268 -1.8891 -0.0737  3.3389
  180SOL    HW3  487   4.197   1.042   2.256  1.7108 -0.3777 -0.3451
  180SOL    MW4  488   4.158   0.967   2.237  0.7600 -0.0165  0.1466
  181SOL     OW  489   3.477   6.279   5.312 -0.1522 -0.5767 -0.1631
  181SOL    HW2  490   3.517   6.195   5.334  1.4336  0.5379  1.5332
  181SOL    HW3  491   3.438   6.309   5.394  0.0147  0.6991 -0.5341
  181SOL    MW4  492   3.477   6.272   5.326  0.0790 -0.2613  0.0118
  182SOL     OW  493   3.357   0.933   3.159  0.0928  0.1020 -0.0043
  182SOL    HW2  494   3.309   0.977   3.089  0.6890 -0.6905 -0.9339
  182SOL    HW3  495   3.427   0.995   3.181  0.4307 -0.0050 -0.7305
  182SOL    MW4  496   3.360   0.947   3.152  0.2160 -0.0167 -0.2228
  183SOL     OW  497   4.140   3.699   3.665 -0.0699  0.2050 -0.3323
  183SOL    HW2  498   4.136   3.655   3.580 -1.5220 -1.5849  0.5838
  183SOL    HW3  499   4.156   3.628   3.728  0.3514  1.3992  0.9638
  183SOL    MW4  500   4.142   3.684   3.662 -0.2059  0.1264 -0.0404
  184SOL     OW  501   1.354   5.163   2.367  0.2144 -0.4615 -0.9946
  184SOL    HW2  502   1.288   5.093   2.362 -1.1557  0.7602 -0.5836
  184SOL    HW3  503   1.436   5.116   2.382 -0.6648 -1.9944 -0.6920
  184SOL    MW4  504   1.356   5.147   2.369 -0.0824 -0.5026 -0.9004
  185SOL     OW  505   0.697   0.053   5.341  0.3062 -0.1314  0.1130
  185SOL    HW2  506   0.637   0.029   5.271 -0.9303  1.1924  0.6513
  185SOL    HW3  507   0.752  -0.024   5.354 -1.0709 -1.2727 -0.6245
  185SOL    MW4  508   0.696   0.040   5.334 -0.0386 -0.1073  0.0867
  186SOL     OW  509   0.308   3.876   4.877 -0.0200  0.2862 -0.2801
  186SOL    HW2  510   0.266   3.845   4.957  0.2520  0.1303 -0.1986
  186SOL    HW3  511   0.358   3.802   4.845 -0.7868  0.0791 -1.0540
  186SOL    MW4  512   0.309   3.862   4.884 -0.0853  0.2383 -0.3714
  187SOL     OW  513   4.714   3.890   1.930 -0.0947  0.2020  0.2454
  187SOL    HW2  514   4.647   3.847   1.983 -0.3495 -0.9895 -1.0016
  187SOL    HW3  515   4.797   3.862   1.970 -0.3012  0.7803  1.1052
  187SOL    MW4  516   4.716   3.880   1.942 -0.1555  0.1211  0.1943
  188SOL     OW  517   2.985   4.210   5.406 -0.1552 -0.4195  0.0759
  188SOL    HW2  518   2.964   4.219   5.313  1.8012 -1.2314 -0.4928
  188SOL    HW3  519   2.988   4.300   5.439 -2.0553 -0.1703 -0.3182
  188SOL    MW4  520   2.983   4.223   5.398 -0.1477 -0.4937 -0.0511
  189SOL     OW  521   0.989   3.935   4.146 -0.4535  0.2001  0.3105
  189SOL    HW2  522   0.985   3.953   4.052  0.9995  0.4322  0.2669
  189SOL    HW3  523   0.978   3.840   4.153 -0.3500  0.1569 -0.1125
  189SOL    MW4  524   0.987   3.925   4.135 -0.2482  0.2251  0.2489
  190SOL     OW  525   5.683   2.060   6.159 -0.6443  0.1786 -0.8727
  190SOL    HW2  526   5.647   1.972   6.168  1.9217 -0.8505  0.5480
  190SOL    HW3  527   5.638   2.112   6.226  0.3145 -1.0180  0.7573
  190SOL    MW4  528   5.672   2.055   6.169 -0.1793 -0.1151 -0.4702
  191SOL     OW  529   4.693   0.264   5.590 -0.5503 -0.0916 -0.3036
  191SOL    HW2  530   4.657   0.183   5.552  1.3810 -0.9448 -0.4049
  191SOL    HW3  531   4.753   0.298   5.524  4.1375 -2.4538  2.2367
  191SOL    MW4  532   4.696   0.258   5.577  0.3230 -0.5159  0.0182
  192SOL     OW  533   0.832   3.094   4.860  0.0365  0.2182  0.7269
  192SOL    HW2  534   0.833   3.002   4.886  1.3262  0.3196  1.1193
  192SOL    HW3  535   0.925   3.117   4.849 -0.2302  1.6456  1.2602
  192SOL    MW4  536   0.845   3.085   4.862  0.1715  0.4199  0.8490
  193SOL     OW  537   0.683   3.059   4.528 -0.3175  0.5578  0.3757
  193SOL    HW2  538   0.603   3.057   4.476 -0.9398  0.8214  1.2928
  193SOL    HW3  539   0.729   2.978   4.505 -0.0381  1.1660 -1.3734
  193SOL    MW4  540   0.679   3.048   4.518 -0.3628  0.6728  0.2659
  194SOL     OW  541   5.833   3.519   3.253 -0.2936  0.4588 -0.2550
  194SOL    HW2  542   5.913   3.533   3.202 -0.2216  0.3271 -0.1814
  194SOL    HW3  543   5.813   3.604   3.291 -0.0790  0.4497 -0.1185
  194SOL    MW4  544   5.841   3.532   3.251 -0.2558  0.4402 -0.2273
  195SOL     OW  545   1.659   5.038   3.310  0.2908 -0.8294 -0.4111
  195SOL    HW2  546   1.577   4.989   3.313 -0.3571  0.1427 -1.4832
  195SOL    HW3  547   1.667   5.067   3.219  0.6070  1.0648  0.1672
  195SOL    MW4  548   1.649   5.035   3.299  0.2470 -0.4512 -0.4762
  196SOL     OW  549   0.590   0.175   1.426 -0.2572 -0.3458  0.0885
  196SOL    HW2  550   0.606   0.246   1.489 -0.4024 -0.6400  0.4638
  196SOL    HW3  551   0.654   0.108   1.449 -0.6711 -0.6818  0.2790
  196SOL    MW4  552   0.601   0.176   1.438 -0.3310 -0.4290  0.1632
  197SOL     OW  553   0.615   0.154   3.301 -0.6605  0.1906 -0.2260
  197SOL    HW2  554   0.607   0.198   3.385 -2.5819  0.8586 -0.7157
  197SOL    HW3  555   0.705   0.171   3.274 -0.3620  0.9528  1.1525
  197SOL    MW4  556   0.626   0.162   3.308 -0.8746  0.3793 -0.1088
  198SOL     OW  557   6.272   1.139   5.224  0.2434  0.2069  0.3754
  198SOL    HW2  558   6.334   1.162   5.292  1.2417 -0.6811 -0.2073
  198SOL    HW3  559   6.189   1.176   5.253  1.1822  2.0472  0.8136
  198SOL    MW4  560   6.269   1.147   5.237  0.4990  0.3326  0.3563
  199SOL     OW  561   0.576   4.663   5.108  0.6993  0.6037  0.3007
  199SOL    HW2  562   0.531   4.735   5.063  0.5351  1.6273  2.0205
  199SOL    HW3  563   0.640   4.631   5.044  1.1624  2.6371 -0.3157
  199SOL    MW4  564   0.578   4.668   5.093  0.7387  1.0070  0.4463
  200SOL     OW  565   3.910   0.417   5.100  0.4776  0.6802 -0.6357
  200SOL    HW2  566   3.963   0.459   5.033 -0.2901  1.2618 -0.8891
  200SOL    HW3  567   3.934   0.324   5.094 -0.2481  0.5698 -2.3506
  200SOL    MW4  568   3.920   0.410   5.090  0.2806  0.7424 -0.8954
  201SOL     OW  569   4.249   6.326   3.088  0.0780 -0.4334 -0.7463
  201SOL    HW2  570   4.291   6.298   3.170  1.0873 -1.3544 -1.5599
  201SOL    HW3  571   4.318   6.319   3.022 -0.2747  1.7805 -1.4361
  201SOL    MW4  572   4.264   6.321   3.090  0.1646 -0.2628 -0.9447
  202SOL     OW  573   0.542   5.175   2.753 -0.3443 -0.4671 -0.2959
  202SOL    HW2  574   0.475   5.228   2.710 -0.0508  1.8634  1.9110
  202SOL    HW3  575   0.622   5.227   2.746  0.4204 -1.5487  0.1797
  202SOL    MW4  576   0.544   5.189   2.747 -0.2047 -0.3023  0.0580
  203SOL     OW  577   0.629   2.451   4.069 -0.7849 -0.1805  0.2580
  203SOL    HW2  578   0.560   2.473   4.006 -2.7631 -1.5332  1.8001
  203SOL    HW3  579   0.616   2.357   4.086 -0.5169  0.1841  2.8291
  203SOL    MW4  580   0.618   2.441   4.063 -1.0105 -0.3109  0.8007
  204SOL     OW  581   3.561   1.469   3.832  0.6833  0.5378  0.8646
  204SOL    HW2  582   3.543   1.436   3.920  0.0916 -1.8719 -0.0771
  204SOL    HW3  583   3.502   1.419   3.776  1.9816  1.0620 -1.0466
  204SOL    MW4  584   3.551   1.458   3.836  0.7765  0.2891  0.4882
  205SOL     OW  585   1.485   2.811   1.293 -0.1410  0.5638 -0.3581
  205SOL    HW2  586   1.394   2.812   1.263 -0.0804  0.7338 -0.5439
  205SOL    HW3  587   1.491   2.884   1.353 -0.2104  0.3480 -0.0875
  205SOL    MW4  588   1.474   2.821   1.297 -0.1421  0.5577 -0.3469
  206SOL     OW  589   6.287   0.283   2.731  0.0051 -0.6072 -0.2981
  206SOL    HW2  590   6.366   0.261   2.683 -0.6843 -0.8512 -1.3657
  206SOL    HW3  591   6.307   0.366   2.774  0.0810  0.5848 -2.5033
  206SOL    MW4  592   6.300   0.291   2.730 -0.0759 -0.4821 -0.7299
  207SOL     OW  593   2.289   5.970   1.048  0.2222 -0.5851  0.2800
  207SOL    HW2  594   2.215   6.026   1.025  0.3214 -0.7027 -0.3495
  207SOL    HW3  595   2.284   5.961   1.143 -1.6249 -2.0392  0.1000
  207SOL    MW4  596   2.279   5.976   1.058 -0.0084 -0.7925  0.1732
  208SOL     OW  597   2.733   1.428   5.697  0.1335  0.0190 -0.3337
  208SOL    HW2  598   2.751   1.477   5.617  0.5513  3.1768  1.5169
  208SOL    HW3  599   2.811   1.374   5.710  0.7054  0.5838 -1.3167
  208SOL    MW4  600   2.746   1.428   5.688  0.2641  0.5101 -0.2193
  209SOL     OW  601   4.205   5.013   0.853 -0.2696  0.0993 -0.2498
  209SOL    HW2  602   4.203   5.049   0.764 -0.1299  0.7476 -0.0007
  209SOL    HW3  603   4.113   5.007   0.879 -0.3004  0.1694 -0.3435
  209SOL    MW4  604   4.193   5.017   0.845 -0.2553  0.1941 -0.2293
  210SOL     OW  605   0.460   6.424   4.842 -0.0401 -0.1124 -0.1739
  210SOL    HW2  606   0.434   6.409   4.933 -0.5084  0.7948 -0.1453
  210SOL    HW3  607   0.386   6.469   4.803  0.2429 -0.3155 -0.9567
  210SOL    MW4  608   0.447   6.428   4.849 -0.0645 -0.0195 -0.2734
  211SOL     OW  609   5.782   5.310   3.809  0.0612 -0.3967  0.7182
  211SOL    HW2  610   5.825   5.313   3.894 -1.6862  1.1605  1.6272
  211SOL    HW3  611   5.829   5.374   3.755 -1.0956  1.3796  1.7373
  211SOL    MW4  612   5.793   5.318   3.813 -0.3220  0.0431  0.9726
  212SOL     OW  613   1.747   3.667   6.254  0.0846 -0.1076  0.1106
  212SOL    HW2  614   1.827   3.620   6.278  1.0741  0.5867 -1.6262
  212SOL    HW3  615   1.776   3.731   6.189 -1.4939  1.7692  1.1590
  212SOL    MW4  616   1.762   3.669   6.249  0.0069  0.2316  0.0198
  213SOL     OW  617   4.497   4.153   2.354 -0.4306 -0.1294  0.1799
  213SOL    HW2  618   4.562   4.214   2.320 -0.1547 -0.7875 -0.5056
  213SOL    HW3  619   4.537   4.066   2.342 -0.9681 -0.4694  0.7886
  213SOL    MW4  620   4.511   4.149   2.348 -0.4651 -0.2611  0.1698
  214SOL     OW  621   3.974   1.865   4.869  0.7563  0.1562  0.0885
  214SOL    HW2  622   4.067   1.874   4.893  0.6117  2.7503 -0.0063
  214SOL    HW3  623   3.956   1.943   4.816 -0.2124 -2.7936 -4.4322
  214SOL    MW4  624   3.984   1.877   4.865  0.6094  0.1093 -0.5204
  215SOL     OW  625   5.317   5.338   5.210  0.7605  0.5033 -0.2672
  215SOL    HW2  626   5.326   5.406   5.142  1.2097 -0.9474 -1.7177
  215SOL    HW3  627   5.223   5.337   5.231  0.0310 -1.0038 -3.0829
  215SOL    MW4  628   5.306   5.347   5.204  0.7235  0.1131 -0.8301
  216SOL     OW  629   0.186   3.036   4.919  0.4118  0.1522 -0.0475
  216SOL    HW2  630   0.186   2.941   4.914 -0.9285  0.1831 -1.8038
  216SOL    HW3  631   0.116   3.063   4.859  1.1120  2.2510 -0.0071
  216SOL    MW4  632   0.177   3.027   4.910  0.3273  0.4332 -0.2739
  217SOL     OW  633   4.231   5.475   0.066  0.4208 -0.3869 -0.6421
  217SOL    HW2  634   4.240   5.557   0.115  1.1785 -0.9136  0.1067
  217SOL    HW3  635   4.259   5.498  -0.023  0.1529  0.2850 -0.5605
  217SOL    MW4  636   4.236   5.489   0.060  0.4854 -0.3677 -0.5326
  218SOL     OW  637   0.088   3.919   1.729 -0.0182 -0.1862  0.4848
  218SOL    HW2  638   0.005   3.876   1.748 -0.5347  0.7286  0.3514
  218SOL    HW3  639   0.154   3.851   1.744 -0.7682 -0.8712  0.7663
  218SOL    MW4  640   0.086   3.904   1.733 -0.1853 -0.1559  0.5044
  219SOL     OW  641   3.479   3.827   2.859 -0.4197  0.5317 -0.1836
  219SOL    HW2  642   3.422   3.761   2.897 -0.1155 -0.3859 -1.2739
  219SOL    HW3  643   3.472   3.815   2.764 -0.8008  2.4496 -0.4522
  219SOL    MW4  644   3.471   3.817   2.851 -0.4299  0.6637 -0.3629
  220SOL     OW  645   6.367   4.517   3.906 -0.4236  0.3379 -0.3250
  220SOL    HW2  646   6.458   4.522   3.877 -0.1295  2.9122  0.8036
  220SOL    HW3  647   6.373   4.503   4.001 -1.1996  0.5558 -0.2352
  220SOL    MW4  648   6.380   4.516   3.915 -0.4872  0.7063 -0.1643
  221SOL     OW  649   2.476   0.595   0.444  0.2340  0.4196 -0.0452
  221SOL    HW2  650   2.558   0.635   0.475 -0.3153  0.5414  1.3138
  221SOL    HW3  651   2.505   0.519   0.393  1.2098  0.7136  0.0408
  221SOL    MW4  652   2.491   0.590   0.441  0.2903  0.4745  0.1455
  222SOL     OW  653   5.983   1.997   5.898  0.5305  0.5041  0.3514
  222SOL    HW2  654   6.074   2.006   5.926  0.0982  1.9381  1.4000
  222SOL    HW3  655   5.954   1.915   5.936  0.9845  0.7067  1.1509
  222SOL    MW4  656   5.992   1.987   5.907  0.5333  0.7200  0.5953
  223SOL     OW  657   3.973   3.825   4.064  0.1810  0.5869  0.2636
  223SOL    HW2  658   4.066   3.847   4.074  0.4064  1.0979 -2.3677
  223SOL    HW3  659   3.973   3.733   4.039 -0.0282  0.6086  0.1858
  223SOL    MW4  660   3.986   3.816   4.062  0.1831  0.6572 -0.0938
  224SOL     OW  661   1.885   2.826   0.027  0.3694 -0.3248 -0.5301
  224SOL    HW2  662   1.928   2.782   0.100  1.2121  0.4959 -0.5007
  224SOL    HW3  663   1.944   2.814  -0.047  1.2422  1.6996 -0.2454
  224SOL    MW4  664   1.898   2.819   0.027  0.5957  0.0506 -0.4886
  225SOL     OW  665   6.179   1.045   4.174 -0.6507  0.1256 -0.1051
  225SOL    HW2  666   6.227   1.123   4.199 -1.4860  0.3001  1.0082
  225SOL    HW3  667   6.107   1.038   4.237 -2.4035  0.1389 -1.9750
  225SOL    MW4  668   6.176   1.054   4.185 -0.9921  0.1504 -0.2049
  226SOL     OW  669   4.526   1.277   4.165 -0.1299 -0.2768 -0.2791
  226SOL    HW2  670   4.533   1.324   4.082  0.2581 -0.2309 -0.2217
  226SOL    HW3  671   4.615   1.248   4.184 -0.4103 -1.3050 -0.4669
  226SOL    MW4  672   4.538   1.279   4.156 -0.1157 -0.4064 -0.2963
  227SOL     OW  673   1.064   3.827   0.886 -0.3082 -0.0479 -0.1684
  227SOL    HW2  674   1.014   3.875   0.820  0.2059  1.9196  0.8123
  227SOL    HW3  675   1.145   3.801   0.840 -0.4567  0.3008 -0.6356
  227SOL    MW4  676   1.068   3.830   0.871 -0.2599  0.2577 -0.1006
  228SOL     OW  677   3.574   5.628   1.577 -0.1432 -0.1884  0.3098
  228SOL    HW2  678   3.609   5.593   1.496  4.4609  1.6874  1.1714
  228SOL    HW3  679   3.594   5.562   1.643 -2.2026 -0.8870  0.3189
  228SOL    MW4  680   3.581   5.615   1.575  0.1925 -0.0331  0.4247
  229SOL     OW  681   0.643   3.697   0.639  0.0392  1.0073  0.4216
  229SOL    HW2  682   0.690   3.755   0.579 -0.5977  0.0149 -1.0839
  229SOL    HW3  683   0.551   3.715   0.623 -0.1547  1.5601  1.9761
  229SOL    MW4  684   0.637   3.707   0.629 -0.0705  0.9493  0.4281
  230SOL     OW  685   4.645   2.234   1.053 -0.4676 -0.5130  0.4953
  230SOL    HW2  686   4.663   2.177   1.128  0.4624 -0.9911 -0.0837
  230SOL    HW3  687   4.660   2.322   1.087  1.2370 -0.7928  0.5365
  230SOL    MW4  688   4.649   2.238   1.068 -0.1200 -0.6130  0.4244
  231SOL     OW  689   1.977   4.674   4.966  0.4216 -0.3330  0.4522
  231SOL    HW2  690   2.026   4.647   4.888  3.2341 -1.1064  2.3414
  231SOL    HW3  691   2.040   4.723   5.018 -2.0164  2.1492  1.3187
  231SOL    MW4  692   1.992   4.677   4.962  0.4710 -0.1075  0.8158
  232SOL     OW  693   2.344   1.574   4.072 -0.4697  0.7142 -0.8958
  232SOL    HW2  694   2.288   1.643   4.105 -1.4352 -1.3042  2.0596
  232SOL    HW3  695   2.285   1.518   4.021 -0.5032  0.1821 -0.2810
  232SOL    MW4  696   2.329   1.575   4.069 -0.6015  0.3777 -0.4248
  233SOL     OW  697   0.724   2.731   0.690 -0.1546 -0.4214 -0.5354
  233SOL    HW2  698   0.727   2.639   0.716 -1.3589 -0.4609 -0.4388
  233SOL    HW3  699   0.798   2.771   0.734  0.4600 -1.3723 -0.6862
  233SOL    MW4  700   0.734   2.724   0.699 -0.2324 -0.5521 -0.5426
  234SOL     OW  701   5.529   4.092   1.669  0.1143  0.4816 -0.9511
  234SOL    HW2  702   5.528   4.186   1.650  0.8762  0.4147 -1.3830
  234SOL    HW3  703   5.536   4.051   1.583  0.0220  0.0414 -0.7476
  234SOL    MW4  704   5.530   4.099   1.655  0.2027  0.4147 -0.9813
  235SOL     OW  705   0.755   0.692   2.949 -0.0772  0.0548 -0.1699
  235SOL    HW2  706   0.698   0.751   2.900 -1.7666 -0.8538  0.6179
  235SOL    HW3  707   0.706   0.609   2.954  0.4239 -0.1724  2.2104
  235SOL    MW4  708   0.741   0.688   2.943 -0.2340 -0.0950  0.2481
  236SOL     OW  709   5.387   3.425   2.511 -0.5917 -0.5951  0.0571
  236SOL    HW2  710   5.446   3.407   2.585 -0.8059  0.8264  0.6067
  236SOL    HW3  711   5.337   3.501   2.539 -0.5504  0.0919 -1.6353
  236SOL    MW4  712   5.388   3.433   2.524 -0.6145 -0.3169 -0.0937
  237SOL     OW  713   0.126   0.308   4.859 -1.1015  0.4169  0.6715
  237SOL    HW2  714   0.124   0.359   4.940 -1.2126 -0.9213  1.5347
  237SOL    HW3  715   0.042   0.261   4.858 -1.3425  0.8352 -0.5105
  237SOL    MW4  716   0.114   0.309   4.869 -1.1480  0.2955  0.6295
  238SOL     OW  717   3.635   4.753   4.097 -0.1150 -0.0848  0.1430
  238SOL    HW2  718   3.553   4.705   4.095 -0.6624  0.8273  0.4514
  238SOL    HW3  719   3.627   4.814   4.170  0.2792  0.9515 -0.6391
  238SOL    MW4  720   3.623   4.755   4.106 -0.1352  0.1722  0.0805
  239SOL     OW  721   2.817   4.367   4.242  0.4330 -0.6829 -0.5425
  239SOL    HW2  722   2.906   4.365   4.207  0.7243 -1.0981  0.2035
  239SOL    HW3  723   2.774   4.437   4.193  1.3897  0.0465 -0.3807
  239SOL    MW4  724   2.823   4.376   4.231  0.5977 -0.6415 -0.4228
  240SOL     OW  725   3.643   1.175   0.785 -0.1808 -0.0443 -0.2840
  240SOL    HW2  726   3.551   1.152   0.796 -0.4141  0.4023 -1.2048
  240SOL    HW3  727   3.690   1.094   0.802 -0.8360 -0.6140 -1.1374
  240SOL    MW4  728   3.637   1.162   0.789 -0.2980 -0.0606 -0.5181
  241SOL     OW  729   0.688   4.410   1.994  0.0581 -0.5484 -0.2209
  241SOL    HW2  730   0.705   4.383   2.084 -0.2902 -1.5656 -0.4497
  241SOL    HW3  731   0.745   4.485   1.980 -0.7393  0.3617  1.2210
  241SOL    MW4  732   0.698   4.416   2.004 -0.0931 -0.5625 -0.0609
  242SOL     OW  733   1.818   1.501   0.586 -0.3305  0.3190 -0.3761
  242SOL    HW2  734   1.787   1.414   0.564 -0.4397  0.1499  0.4048
  242SOL    HW3  735   1.914   1.494   0.585 -0.2926  0.6772 -2.1493
  242SOL    MW4  736   1.827   1.489   0.583 -0.3399  0.3440 -0.5070
  243SOL     OW  737   0.279   2.225   1.203  0.2243 -0.2605 -0.5625
  243SOL    HW2  738   0.287   2.138   1.243 -0.4940  0.0683  0.3352
  243SOL    HW3  739   0.288   2.209   1.109 -3.1533 -1.8349 -0.8003
  243SOL    MW4  740   0.281   2.211   1.196 -0.3161 -0.4248 -0.4754
  244SOL     OW  741   1.708   5.180   2.349 -0.3158  0.8055 -0.4837
  244SOL    HW2  742   1.671   5.092   2.337 -0.4636  0.8755 -0.5481
  244SOL    HW3  743   1.798   5.165   2.378 -0.0350  0.6326 -1.4135
  244SOL    MW4  744   1.715   5.166   2.351 -0.2983  0.7919 -0.6148
  245SOL     OW  745   0.892   4.800   6.371  0.1204  0.0312  0.3602
  245SOL    HW2  746   0.913   4.818   6.279 -0.1141 -0.5227  0.1918
  245SOL    HW3  747   0.797   4.807   6.376  0.2773  2.2750  1.0635
  245SOL    MW4  748   0.882   4.803   6.359  0.1102  0.2541  0.4307
  246SOL     OW  749   0.307   3.997   5.489  0.7194 -0.8231 -0.0008
  246SOL    HW2  750   0.329   4.014   5.398  0.5096 -0.0691  0.0890
  246SOL    HW3  751   0.359   3.920   5.512  0.1804 -1.4990 -0.9810
  246SOL    MW4  752   0.317   3.989   5.480  0.6206 -0.8128 -0.1183
  247SOL     OW  753   3.944   2.294   0.610 -0.4421  0.5812  0.1092
  247SOL    HW2  754   3.958   2.344   0.529 -0.1545 -0.6510 -0.6218
  247SOL    HW3  755   4.004   2.220   0.603 -0.3841  0.4776  1.4851
  247SOL    MW4  756   3.954   2.291   0.599 -0.3965  0.4050  0.1943
  248SOL     OW  757   3.977   3.747   5.301  0.2700  0.2537  1.2861
  248SOL    HW2  758   4.062   3.707   5.320  0.5362  0.0774 -0.1359
  248SOL    HW3  759   3.964   3.810   5.372  0.1890 -1.7868  3.1804
  248SOL    MW4  760   3.987   3.750   5.313  0.2944 -0.0387  1.3484
  249SOL     OW  761   3.964   1.441   4.631 -0.3143  0.0044  0.5160
  249SOL    HW2  762   3.871   1.432   4.608 -0.7325  1.0150  1.7030
  249SOL    HW3  763   3.984   1.532   4.612  2.1752 -1.3617 -5.5630
  249SOL    MW4  764   3.954   1.452   4.625 -0.0410 -0.0425 -0.1295
  250SOL     OW  765   4.880   6.056   5.840  0.1176  0.0120  0.3083
  250SOL    HW2  766   4.881   6.121   5.769  0.0192  0.9075  1.1137
  250SOL    HW3  767   4.788   6.049   5.865  0.4432  2.0345  2.4123
  250SOL    MW4  768   4.868   6.063   5.834  0.1475  0.3970  0.6921
  251SOL     OW  769   0.620   0.271   3.555  0.2977  0.5105  0.1237
  251SOL    HW2  770   0.619   0.231   3.642  2.7210 -0.7596 -0.3357
  251SOL    HW3  771   0.602   0.364   3.571 -0.2076  0.1570  1.8564
  251SOL    MW4  772   0.618   0.278   3.568  0.5507  0.2963  0.2917
  252SOL     OW  773   0.806   0.750   3.873  0.3617  0.3119  0.3212
  252SOL    HW2  774   0.901   0.740   3.864  0.2822 -0.5332  0.3957
  252SOL    HW3  775   0.769   0.687   3.811 -0.1543 -0.1714  1.1143
  252SOL    MW4  776   0.814   0.741   3.863  0.2831  0.1366  0.4357
  253SOL     OW  777   1.902   5.743   1.548  0.3238  0.1577  0.0397
  253SOL    HW2  778   1.982   5.702   1.581  0.1965 -0.6913 -0.6468
  253SOL    HW3  779   1.832   5.682   1.574 -0.0013  0.4794 -0.0723
  253SOL    MW4  780   1.903   5.729   1.556  0.2641  0.0881 -0.0657
  254SOL     OW  781   3.714   6.116   3.187  0.2592 -0.1563 -0.2173
  254SOL    HW2  782   3.705   6.098   3.281  1.7138 -0.4387 -0.1096
  254SOL    HW3  783   3.687   6.207   3.178  0.3219 -0.0528  0.5300
  254SOL    MW4  784   3.710   6.126   3.198  0.4594 -0.1799 -0.1045
  255SOL     OW  785   3.738   4.294   4.451  0.1435  0.1798  0.3196
  255SOL    HW2  786   3.679   4.288   4.526 -0.2744  2.3563  0.2337
  255SOL    HW3  787   3.685   4.267   4.376 -0.3792  0.9278  0.4119
  255SOL    MW4  788   3.723   4.289   4.451  0.0194  0.5657  0.3205
  256SOL     OW  789   5.549   5.870   3.563 -0.1260 -0.5311  0.3187
  256SOL    HW2  790   5.614   5.874   3.632 -2.9498 -0.5354  3.2184
  256SOL    HW3  791   5.568   5.945   3.507  2.0004 -0.2643  1.2978
  256SOL    MW4  792   5.560   5.880   3.565 -0.2180 -0.4965  0.8305
  257SOL     OW  793   4.492   1.961   0.915  0.1444  0.7749 -0.2889
  257SOL    HW2  794   4.439   1.882   0.905 -0.4013  0.4790  3.6387
  257SOL    HW3  795   4.441   2.030   0.873 -0.8296 -0.4109 -1.1136
  257SOL    MW4  796   4.478   1.960   0.908 -0.0561  0.5794  0.1205
  258SOL     OW  797   1.281   0.404   1.958  0.3907 -0.3258  0.2475
  258SOL    HW2  798   1.212   0.371   2.015 -0.1406 -0.0527 -0.2200
  258SOL    HW3  799   1.274   0.350   1.879  2.5336 -2.1902  1.2143
  258SOL    MW4  800   1.271   0.392   1.955  0.6033 -0.5357  0.3134
  259SOL     OW  801   5.166   0.041   4.126  0.0581 -0.2229  0.0003
  259SOL    HW2  802   5.255   0.076   4.133 -0.3690  0.7520  0.8842
  259SOL    HW3  803   5.175  -0.052   4.148  0.7823 -0.0190  0.6253
  259SOL    MW4  804   5.179   0.033   4.130  0.0973 -0.0674  0.1994
  260SOL     OW  805   5.209   5.193   1.388  0.2756 -0.4493  0.3377
  260SOL    HW2  806   5.224   5.245   1.467  1.7614  0.2055 -0.3320
  260SOL    HW3  807   5.113   5.190   1.379  0.0898  2.4977  0.2436
  260SOL    MW4  808   5.198   5.200   1.397  0.4471  0.0259  0.2369
  261SOL     OW  809   4.870   3.312   5.972 -0.4284  0.1488 -0.5793
  261SOL    HW2  810   4.801   3.291   6.035  0.4052 -0.2451  0.2311
  261SOL    HW3  811   4.835   3.386   5.922 -1.0819  0.5327  0.4034
  261SOL    MW4  812   4.856   3.319   5.974 -0.4046  0.1475 -0.3427
  262SOL     OW  813   0.612   0.463   1.286 -0.8922 -0.2817 -0.4008
  262SOL    HW2  814   0.595   0.512   1.205 -0.3011 -0.4499 -0.6319
  262SOL    HW3  815   0.630   0.531   1.351 -1.2027 -0.1513 -0.4481
  262SOL    MW4  816   0.612   0.478   1.284 -0.8552 -0.2867 -0.4375
  263SOL     OW  817   6.132   5.501   5.782 -0.2870 -0.0206 -0.9503
  263SOL    HW2  818   6.071   5.468   5.847  1.0220  0.7021  0.7276
  263SOL    HW3  819   6.077   5.542   5.715 -1.6463  0.8879  0.6531
  263SOL    MW4  820   6.117   5.502   5.781 -0.2936  0.1946 -0.5174
  264SOL     OW  821   1.120   6.392   4.952 -0.6188 -0.1117 -0.3639
  264SOL    HW2  822   1.062   6.382   4.877 -2.6920 -1.5167  1.3029
  264SOL    HW3  823   1.062   6.418   5.024  0.7942 -1.4944  1.3742
  264SOL    MW4  824   1.105   6.394   4.952 -0.7059 -0.4795  0.0854
  265SOL     OW  825   3.281   1.696   4.233 -0.5256 -0.2457  0.6626
  265SOL    HW2  826   3.362   1.747   4.229 -0.1820 -0.8166  0.2073
  265SOL    HW3  827   3.233   1.733   4.307  0.0514  0.2431  0.7982
  265SOL    MW4  828   3.285   1.708   4.242 -0.4041 -0.2565  0.6204
  266SOL     OW  829   4.690   3.574   1.470 -0.4900 -0.5431 -0.6392
  266SOL    HW2  830   4.606   3.615   1.448 -0.5550  0.2011  0.8652
  266SOL    HW3  831   4.755   3.638   1.442 -0.6004  0.8261  1.9793
  266SOL    MW4  832   4.687   3.588   1.463 -0.5132 -0.2642 -0.0952
  267SOL     OW  833   0.756   4.258   5.170 -0.4826 -0.1419  0.6120
  267SOL    HW2  834   0.831   4.215   5.128  0.0714  0.3375  1.0827
  267SOL    HW3  835   0.753   4.220   5.258 -2.3637 -2.0169 -0.1673
  267SOL    MW4  836   0.766   4.247   5.176 -0.6577 -0.3260  0.5713
  268SOL     OW  837   3.791   5.346   4.577 -0.5917  0.0112  0.7363
  268SOL    HW2  838   3.766   5.308   4.493 -0.6039  2.5816 -0.5480
  268SOL    HW3  839   3.885   5.360   4.569 -0.6862  0.7821  0.8822
  268SOL    MW4  840   3.800   5.343   4.565 -0.6058  0.4521  0.5861
  269SOL     OW  841   0.966   0.232   1.160  0.3426  0.1157  0.4927
  269SOL    HW2  842   1.019   0.189   1.093 -0.1840 -0.8166  0.6465
  269SOL    HW3  843   1.008   0.207   1.243  1.3495  1.7613  0.5074
  269SOL    MW4  844   0.978   0.223   1.162  0.4059  0.2098  0.5149
  270SOL     OW  845   3.194   3.306   2.187 -0.3971 -0.0048 -0.1028
  270SOL    HW2  846   3.202   3.382   2.130 -1.1082 -1.0212 -1.6616
  270SOL    HW3  847   3.136   3.334   2.258  0.1563  1.1749 -0.0988
  270SOL    MW4  848   3.187   3.319   2.189 -0.4179  0.0167 -0.3079
  271SOL     OW  849   1.598   0.967   3.318  0.2142  0.8892  0.8304
  271SOL    HW2  850   1.690   0.948   3.336  0.1803  0.4573  0.5531
  271SOL    HW3  851   1.600   1.052   3.274  0.4719  0.9217  0.9023
  271SOL    MW4  852   1.610   0.976   3.315  0.2437  0.8365  0.8033
  272SOL     OW  853   3.508   5.706   0.651 -0.2689  0.5264  0.0581
  272SOL    HW2  854   3.433   5.748   0.610  0.6505  0.8211 -1.3949
  272SOL    HW3  855   3.582   5.726   0.594  0.5892 -1.3274  0.4239
  272SOL    MW4  856   3.508   5.714   0.638 -0.0344  0.3207 -0.0853
  273SOL     OW  857   0.642   2.388   1.177 -0.4233  0.2137  0.3018
  273SOL    HW2  858   0.693   2.454   1.224 -1.0260  1.0762 -0.2053
  273SOL    HW3  859   0.579   2.355   1.241  0.4428 -0.5005  0.7938
  273SOL    MW4  860   0.640   2.393   1.191 -0.3886  0.2333  0.2998
  274SOL     OW  861   1.959   2.631   4.948 -0.0332 -0.3465 -0.1601
  274SOL    HW2  862   2.013   2.697   4.990 -1.1265  0.4616  0.0251
  274SOL    HW3  863   2.019   2.582   4.893  0.8363  0.7051 -0.1786
  274SOL    MW4  864   1.974   2.633   4.946 -0.0627 -0.1011 -0.1381
  275SOL     OW  865   0.045   4.593   5.792  0.2774  0.3090  0.2539
  275SOL    HW2  866  -0.026   4.621   5.733 -0.6952 -3.5144 -0.6169
  275SOL    HW3  867   0.005   4.528   5.849  2.8775 -1.3894  0.2770
  275SOL    MW4  868   0.030   4.588   5.792  0.4921 -0.4195  0.1420
  276SOL     OW  869   5.383   1.758   1.502 -0.0119 -0.1145  0.3681
  276SOL    HW2  870   5.306   1.732   1.451  0.9709 -0.2970 -1.0864
  276SOL    HW3  871   5.429   1.820   1.446  1.6680 -1.1362  0.5494
  276SOL    MW4  872   5.379   1.763   1.488  0.3394 -0.2734  0.2001
  277SOL     OW  873   5.868   4.279   5.750 -0.0297  0.2045 -0.1504
  277SOL    HW2  874   5.775   4.271   5.728 -0.2078 -2.3439  1.1509
  277SOL    HW3  875   5.913   4.260   5.667 -0.6954 -1.5484 -0.1495
  277SOL    MW4  876   5.862   4.275   5.736 -0.1410 -0.3630  0.0214
  278SOL     OW  877   2.906   5.756   1.495 -0.5476  0.0503 -0.4129
  278SOL    HW2  878   2.975   5.816   1.524 -0.1809  0.2323 -1.5991
  278SOL    HW3  879   2.944   5.712   1.419 -0.8901 -1.5547  0.3121
  278SOL    MW4  880   2.920   5.758   1.489 -0.5444 -0.1375 -0.4738
  279SOL     OW  881   5.846   3.263   0.613 -0.0860  0.5371 -0.3246
  279SOL    HW2  882   5.785   3.337   0.616 -0.8220 -0.0190 -1.0732
  279SOL    HW3  883   5.794   3.188   0.641  1.0627  0.5194  1.9944
  279SOL    MW4  884   5.831   3.263   0.617 -0.0315  0.4614 -0.1174
  280SOL     OW  885   6.114   2.966   3.296  0.1660  0.1847 -0.4056
  280SOL    HW2  886   6.161   3.023   3.236 -0.2663  0.1194 -0.8159
  280SOL    HW3  887   6.023   2.995   3.290  0.1794  0.4358  0.5175
  280SOL    MW4  888   6.108   2.977   3.287  0.1108  0.2092 -0.3379
  281SOL     OW  889   2.287   5.459   5.370 -0.3045  0.2816 -0.1230
  281SOL    HW2  890   2.377   5.477   5.397 -0.8170  1.1361  1.0998
  281SOL    HW3  891   2.288   5.366   5.345  0.6801 -0.0139  0.9062
  281SOL    MW4  892   2.299   5.449   5.370 -0.2422  0.3553  0.1742
  282SOL     OW  893   2.099   4.493   2.892 -0.3444 -0.3025 -0.6220
  282SOL    HW2  894   2.124   4.573   2.938 -2.7686  0.6208 -0.8033
  282SOL    HW3  895   2.133   4.505   2.803  1.1885 -0.4914 -0.0955
  282SOL    MW4  896   2.107   4.505   2.886 -0.4620 -0.2056 -0.5765
  283SOL     OW  897   3.630   1.025   4.873 -0.2157 -0.2267  0.3894
  283SOL    HW2  898   3.603   1.000   4.785 -2.1260  2.5808  0.0484
  283SOL    HW3  899   3.557   0.997   4.929 -0.0956  0.0918  0.7115
  283SOL    MW4  900   3.616   1.018   4.869 -0.4519  0.1858  0.3869
  284SOL     OW  901   3.236   3.574   5.682  0.2356 -0.2469  0.2587
  284SOL    HW2  902   3.316   3.580   5.630  0.4959  0.6546  0.7423
  284SOL    HW3  903   3.166   3.598   5.621  0.5296  0.7313  0.2833
  284SOL    MW4  904   3.238   3.578   5.667  0.3087  0.0011  0.3258
  285SOL     OW  905   5.809   0.249   0.009 -0.4762 -0.3547  0.0083
  285SOL    HW2  906   5.731   0.266  -0.045 -0.4973  1.2108  0.4878
  285SOL    HW3  907   5.865   0.194  -0.046 -1.0368  0.1787 -1.1296
  285SOL    MW4  908   5.806   0.244  -0.006 -0.5530 -0.0778 -0.0786
  286SOL     OW  909   1.649   0.728   3.736  0.3373 -0.3054 -0.7320
  286SOL    HW2  910   1.691   0.812   3.720 -0.1235 -0.2119 -1.5623
  286SOL    HW3  911   1.557   0.744   3.715  0.1632 -0.8957 -0.4342
  286SOL    MW4  912   1.642   0.741   3.731  0.2535 -0.3710 -0.8023
  287SOL     OW  913   1.377   1.889   5.551 -0.0905  0.2441  0.1569
  287SOL    HW2  914   1.320   1.959   5.518  0.0793  0.8126  1.0405
  287SOL    HW3  915   1.380   1.903   5.645  0.9631 -0.2025  0.1962
  287SOL    MW4  916   1.370   1.900   5.559  0.0709  0.2602  0.2787
  288SOL     OW  917   3.060   0.253   4.768  0.4499 -0.2498 -0.5722
  288SOL    HW2  918   3.034   0.286   4.854 -1.6129 -0.0684 -1.1986
  288SOL    HW3  919   2.998   0.182   4.751  0.3910  0.1542 -2.1760
  288SOL    MW4  920   3.048   0.248   4.777  0.1700 -0.1726 -0.8664
  289SOL     OW  921   1.938   4.219   4.295  0.6732  0.4351  0.8860
  289SOL    HW2  922   2.022   4.178   4.315  0.8301 -0.7449 -1.7632
  289SOL    HW3  923   1.958   4.281   4.225 -0.1530  2.7131  2.5574
  289SOL    MW4  924   1.952   4.222   4.289  0.5849  0.5800  0.7570
  290SOL     OW  925   0.706   1.946   4.049 -0.5535 -0.6279  0.1778
  290SOL    HW2  926   0.669   1.904   3.971  0.0165 -0.2120 -0.3259
  290SOL    HW3  927   0.769   1.883   4.083  0.2188 -0.2429 -0.5120
  290SOL    MW4  928   0.710   1.932   4.043 -0.3764 -0.5222  0.0203
  291SOL     OW  929   6.044   3.159   5.584 -0.1494 -0.0929  0.0551
  291SOL    HW2  930   6.086   3.081   5.619  0.7009  0.6530  0.7292
  291SOL    HW3  931   6.091   3.177   5.502 -0.6985 -0.5811 -0.3772
  291SOL    MW4  932   6.056   3.151   5.577 -0.1097 -0.0589  0.0870
  292SOL     OW  933   0.674   3.163   2.663  0.3269 -0.4944  0.5754
  292SOL    HW2  934   0.671   3.175   2.568 -1.2564  0.7362  0.7250
  292SOL    HW3  935   0.628   3.081   2.679 -1.6293  0.5093  0.3882
  292SOL    MW4  936   0.668   3.154   2.653 -0.1401 -0.1996  0.5705
  293SOL     OW  937   6.246   4.834   3.015  0.1458  0.3935  0.3800
  293SOL    HW2  938   6.318   4.812   2.956  0.5852  1.0633  0.6515
  293SOL    HW3  939   6.177   4.867   2.957  0.2505  0.2288  0.1602
  293SOL    MW4  940   6.246   4.836   2.999  0.2176  0.4602  0.3868
  294SOL     OW  941   4.772   3.550   5.049 -0.3283  0.6200  0.3694
  294SOL    HW2  942   4.748   3.461   5.023 -0.2821  0.2960  1.4034
  294SOL    HW3  943   4.856   3.540   5.093 -0.5604  1.1033  0.9354
  294SOL    MW4  944   4.780   3.537   5.051 -0.3528  0.6410  0.5805
  295SOL     OW  945   3.411   1.008   2.084 -0.0839 -0.4818  0.3248
  295SOL    HW2  946   3.359   0.928   2.072 -0.5942 -0.1992  0.6311
  295SOL    HW3  947   3.498   0.977   2.109 -0.0734 -0.9636 -0.2815
  295SOL    MW4  948   3.415   0.993   2.086 -0.1499 -0.5081  0.2852
  296SOL     OW  949   2.601   4.910   0.069  0.2158 -0.5316 -0.9477
  296SOL    HW2  950   2.626   4.994   0.107  1.1739 -0.8162 -0.9389
  296SOL    HW3  951   2.608   4.923  -0.025 -0.8858 -0.2235 -0.9982
  296SOL    MW4  952   2.605   4.923   0.062  0.1969 -0.5285 -0.9532
  297SOL     OW  953   0.616   6.267   4.680 -0.3058 -0.0840  0.2857
  297SOL    HW2  954   0.567   6.329   4.734 -0.5450  0.2649 -0.3274
  297SOL    HW3  955   0.574   6.270   4.595 -0.0123 -0.7328  0.1102
  297SOL    MW4  956   0.604   6.275   4.676 -0.2987 -0.1236  0.1817
  298SOL     OW  957   2.918   4.744   1.451 -0.1521  0.5698 -0.4280
  298SOL    HW2  958   2.884   4.654   1.453  1.1714 -0.0048 -1.7439
  298SOL    HW3  959   2.964   4.753   1.535  1.2994 -0.7009 -1.0208
  298SOL    MW4  960   2.920   4.733   1.463  0.2140  0.3263 -0.6798
  299SOL     OW  961   6.267   4.521   0.195 -0.4663 -0.1639  0.3418
  299SOL    HW2  962   6.205   4.452   0.220 -0.7692  0.5353  1.5845
  299SOL    HW3  963   6.321   4.480   0.127 -1.6802 -1.0881 -0.1138
  299SOL    MW4  964   6.266   4.506   0.189 -0.6664 -0.1936  0.4457
  300SOL     OW  965   5.545   3.506   0.893  0.0946  0.3304 -0.0723
  300SOL    HW2  966   5.549   3.581   0.834 -1.2512  0.1275 -0.4545
  300SOL    HW3  967   5.524   3.544   0.979  1.3337  0.5541  0.1521
  300SOL    MW4  968   5.543   3.521   0.897  0.0805  0.3331 -0.0931
  301SOL     OW  969   4.652   0.233   2.970  0.0242 -0.3144  0.1743
  301SOL    HW2  970   4.638   0.326   2.955 -0.1904 -0.5743 -1.3832
  301SOL    HW3  971   4.572   0.204   3.014  0.0784  0.2247  0.6316
  301SOL    MW4  972   4.639   0.241   2.974  0.0031 -0.2776  0.0291
  302SOL     OW  973   1.460   2.086   2.394 -0.3989 -0.1412  0.6362
  302SOL    HW2  974   1.545   2.054   2.423 -0.6749 -0.9824  0.5261
  302SOL    HW3  975   1.480   2.167   2.346  0.3348 -0.3306  0.6198
  302SOL    MW4  976   1.473   2.093   2.391 -0.3385 -0.2772  0.6195
  303SOL     OW  977   3.265   0.788   2.026 -0.3393  0.2369  0.4374
  303SOL    HW2  978   3.320   0.716   1.996 -0.3817 -0.2537  1.5024
  303SOL    HW3  979   3.250   0.841   1.947  0.5063 -0.3711 -0.1517
  303SOL    MW4  980   3.270   0.786   2.012 -0.2333  0.0920  0.5002
  304SOL     OW  981   2.707   6.150   1.845  0.1027  0.4700  0.0624
  304SOL    HW2  982   2.753   6.231   1.868  0.6684  0.7525 -1.9358
  304SOL    HW3  983   2.631   6.179   1.795  0.2942 -0.2077 -0.6440
  304SOL    MW4  984   2.703   6.164   1.842  0.2026  0.4179 -0.2944
  305SOL     OW  985   3.937   4.543   0.340 -0.1289  0.3716 -0.0203
  305SOL    HW2  986   3.917   4.575   0.428 -0.9242  1.3340 -0.5349
  305SOL    HW3  987   4.030   4.562   0.328  0.2253 -0.6395  0.9604
  305SOL    MW4  988   3.947   4.550   0.350 -0.1871  0.3651  0.0412
  306SOL     OW  989   0.570   4.109   5.013  0.1013  0.2441 -0.4403
  306SOL    HW2  990   0.643   4.148   5.060  0.5372  0.2951 -1.1343
  306SOL    HW3  991   0.523   4.183   4.975 -1.6251  0.3936  1.7734
  306SOL    MW4  992   0.573   4.124   5.014 -0.0690  0.2705 -0.2398
  307SOL     OW  993   3.168   2.054   5.249 -0.3776  0.2473  0.4192
  307SOL    HW2  994   3.086   2.102   5.240  0.2849  1.7875  1.9665
  307SOL    HW3  995   3.196   2.036   5.159 -1.9657  0.4467 -0.1364
  307SOL    MW4  996   3.161   2.058   5.236 -0.4997  0.4768  0.5501
  308SOL     OW  997   2.034   4.318   2.545 -0.4309 -0.1319  0.2143
  308SOL    HW2  998   2.019   4.411   2.558  2.0750  0.4161 -0.3232
  308SOL    HW3  999   1.955   4.287   2.499  0.0907  2.4858 -2.7883
  308SOL    MW4 1000   2.021   4.326   2.541 -0.0314  0.2858 -0.2528
  309SOL     OW 1001   0.923   1.900   3.715  0.3004 -0.0889  0.1962
  309SOL    HW2 1002   0.928   1.814   3.757 -0.5938  0.0652  0.6628
  309SOL    HW3 1003   0.836   1.902   3.675  0.4304  0.4807 -0.0745
  309SOL    MW4 1004   0.912   1.889   3.715  0.1996  0.0066  0.2221
  310SOL     OW 1005   4.704   0.883   5.469 -0.0495  0.2591 -0.5713
  310SOL    HW2 1006   4.703   0.915   5.560  0.7445  0.4218 -0.6092
  310SOL    HW3 1007   4.762   0.944   5.424  0.8373 -0.7605 -0.8282
  310SOL    MW4 1008   4.711   0.895   5.475  0.1722  0.1461 -0.6102
  311SOL     OW 1009   2.946   1.844   0.588  0.5348  0.6247 -0.0288
  311SOL    HW2 1010   3.023   1.891   0.621 -0.4658  1.7048  0.8907
  311SOL    HW3 1011   2.874   1.905   0.601 -0.4111 -0.1648 -1.3591
  311SOL    MW4 1012   2.947   1.858   0.594  0.2780  0.6631 -0.0830
  312SOL     OW 1013   4.767   2.297   2.187  0.2996  1.2993  0.4434
  312SOL    HW2 1014   4.682   2.318   2.225  0.2733 -0.1624  1.2767
  312SOL    HW3 1015   4.826   2.292   2.261  0.5003 -0.4024  0.2184
  312SOL    MW4 1016   4.763   2.299   2.201  0.3226  0.8819  0.5237
  313SOL     OW 1017   2.704   4.360   3.487  0.1368  0.3208  0.1181
  313SOL    HW2 1018   2.772   4.412   3.530 -0.2190  0.7851  0.1228
  313SOL    HW3 1019   2.648   4.329   3.558  0.6285 -0.4858  0.1628
  313SOL    MW4 1020   2.706   4.363   3.502  0.1547  0.2756  0.1246
  314SOL     OW 1021   1.651   3.136   5.637  0.3131 -0.0463 -0.3714
  314SOL    HW2 1022   1.586   3.183   5.689 -0.1689  0.3200 -1.2821
  314SOL    HW3 1023   1.694   3.077   5.699 -1.6361 -1.1148  0.0281
  314SOL    MW4 1024   1.648   3.135   5.652 -0.0077 -0.1389 -0.4389
  315SOL     OW 1025   2.613   1.274   1.349  0.5172  0.5463  0.2677
  315SOL    HW2 1026   2.698   1.287   1.390  0.0422  1.1380  1.1034
  315SOL    HW3 1027   2.624   1.196   1.295  1.5098  0.4626  0.5669
  315SOL    MW4 1028   2.626   1.265   1.348  0.5855  0.6134  0.4174
  316SOL     OW 1029   5.490   3.687   3.410 -0.3221 -0.1588 -0.0015
  316SOL    HW2 1030   5.427   3.691   3.482  0.2604  2.5133  0.4809
  316SOL    HW3 1031   5.436   3.684   3.331 -1.1206  1.8320  0.4093
  316SOL    MW4 1032   5.475   3.687   3.409 -0.3506  0.4564  0.1163
  317SOL     OW 1033   5.102   0.641   3.655 -0.0822  0.1904 -0.3628
  317SOL    HW2 1034   5.092   0.638   3.560  1.5581  0.2151 -0.5586
  317SOL    HW3 1035   5.159   0.567   3.676 -1.1777 -0.3948  0.7425
  317SOL    MW4 1036   5.108   0.631   3.645 -0.0103  0.1164 -0.2428
  318SOL     OW 1037   2.189   4.201   5.775 -0.1504  0.1069 -0.0143
  318SOL    HW2 1038   2.249   4.145   5.826  0.2848 -0.7401 -1.3994
  318SOL    HW3 1039   2.240   4.279   5.756 -0.3309  0.4518  0.8601
  318SOL    MW4 1040   2.204   4.204   5.779 -0.1168  0.0406 -0.0817
  319SOL     OW 1041   3.646   4.419   2.238  0.1429 -0.3029  0.1197
  319SOL    HW2 1042   3.646   4.324   2.250 -0.2123 -0.3218 -0.0052
  319SOL    HW3 1043   3.565   4.448   2.281  0.0497 -0.1034 -0.1881
  319SOL    MW4 1044   3.635   4.410   2.245  0.0837 -0.2790  0.0626
  320SOL     OW 1045   3.304   2.613   5.766  0.0587 -0.2220  0.5614
  320SOL    HW2 1046   3.240   2.644   5.830  1.1124  1.0330  1.0449
  320SOL    HW3 1047   3.368   2.684   5.759  0.5829 -0.8123 -1.0423
  320SOL    MW4 1048   3.304   2.627   5.774  0.2669 -0.1343  0.4136
  321SOL     OW 1049   5.863   0.625   0.986  0.4958 -0.3787 -0.5222
  321SOL    HW2 1050   5.891   0.662   0.902 -0.4546 -0.6806 -0.9857
  321SOL    HW3 1051   5.768   0.619   0.979  0.3551  0.0720  0.7839
  321SOL    MW4 1052   5.854   0.629   0.974  0.3518 -0.3591 -0.4110
  322SOL     OW 1053   5.402   0.643   5.491 -0.3755 -0.0037  0.1643
  322SOL    HW2 1054   5.340   0.698   5.538  0.9442 -0.6058  2.7845
  322SOL    HW3 1055   5.485   0.656   5.537  0.4493 -2.5521 -0.4449
  322SOL    MW4 1056   5.405   0.652   5.503 -0.0926 -0.4194  0.4296
  323SOL     OW 1057   0.879   2.124   4.879  0.1206 -0.0710  0.0212
  323SOL    HW2 1058   0.814   2.181   4.922 -0.0892  1.2134 -1.8824
  323SOL    HW3 1059   0.948   2.114   4.944  0.1987  2.4478  0.4391
  323SOL    MW4 1060   0.879   2.130   4.894  0.1033  0.4308 -0.1748
  324SOL     OW 1061   0.199   0.932   4.202  0.5867  0.0166  0.9269
  324SOL    HW2 1062   0.287   0.899   4.214 -0.2177 -2.2688  0.9974
  324SOL    HW3 1063   0.142   0.861   4.232 -1.2914  0.9491 -0.2159
  324SOL    MW4 1064   0.203   0.918   4.208  0.2328 -0.1619  0.7854
  325SOL     OW 1065   1.168   2.872   1.837 -0.1052  0.0017  0.2455
  325SOL    HW2 1066   1.155   2.915   1.752 -1.7499  1.8615  1.3556
  325SOL    HW3 1067   1.149   2.939   1.902 -1.3967 -1.9958  2.1046
  325SOL    MW4 1068   1.164   2.886   1.834 -0.4926 -0.0165  0.6373
  326SOL     OW 1069   1.906   5.731   0.900 -0.1783  0.0056  0.2760
  326SOL    HW2 1070   1.888   5.639   0.917  0.0557 -0.1768 -0.4327
  326SOL    HW3 1071   2.001   5.739   0.907 -0.1665  0.1200  0.0127
  326SOL    MW4 1072   1.916   5.720   0.903 -0.1459 -0.0034  0.1478
  327SOL     OW 1073   3.162   2.915   3.706  0.1286  0.1402  0.5585
  327SOL    HW2 1074   3.157   2.960   3.622  0.0898 -0.4084  0.2687
  327SOL    HW3 1075   3.136   2.825   3.688  0.0169  0.0399  1.1757
  327SOL    MW4 1076   3.158   2.909   3.693  0.1087  0.0546  0.6017
  328SOL     OW 1077   3.905   3.437   6.087 -0.1784  0.4567 -0.7972
  328SOL    HW2 1078   3.862   3.523   6.083 -0.9853  0.1158  0.2548
  328SOL    HW3 1079   3.878   3.401   6.171  0.5924 -0.6112 -0.9969
  328SOL    MW4 1080   3.896   3.444   6.098 -0.1831  0.2708 -0.6848
  329SOL     OW 1081   2.272   4.167   5.214  0.4015 -0.0058 -0.0069
  329SOL    HW2 1082   2.197   4.109   5.202 -0.3250  0.4373  2.0230
  329SOL    HW3 1083   2.348   4.114   5.188 -0.4971 -0.7589 -1.2316
  329SOL    MW4 1084   2.272   4.152   5.209  0.1871 -0.0467  0.0993
  330SOL     OW 1085   1.255   1.781   4.450  0.5507  0.2303 -0.4630
  330SOL    HW2 1086   1.239   1.863   4.403 -0.4146 -0.3583 -1.2090
  330SOL    HW3 1087   1.254   1.714   4.381  0.2265 -0.5278  0.2726
  330SOL    MW4 1088   1.253   1.783   4.434  0.3806  0.0526 -0.4644
  331SOL     OW 1089   0.842   5.693   1.188 -0.1539 -0.2235  0.2132
  331SOL    HW2 1090   0.760   5.702   1.236  0.0081 -1.2366  0.7153
  331SOL    HW3 1091   0.816   5.670   1.099 -0.4326 -1.7936  0.6591
  331SOL    MW4 1092   0.828   5.691   1.183 -0.1693 -0.5643  0.3383
  332SOL     OW 1093   3.828   3.340   2.093 -0.1941 -0.4306  0.0870
  332SOL    HW2 1094   3.795   3.264   2.141  0.5143 -1.5592 -1.1652
  332SOL    HW3 1095   3.831   3.313   2.002  1.3639  0.6171 -0.2294
  332SOL    MW4 1096   3.824   3.327   2.088  0.1049 -0.4413 -0.1200
  333SOL     OW 1097   0.711   3.869   5.806  0.0330 -0.1360  0.4387
  333SOL    HW2 1098   0.621   3.883   5.836  0.2544 -0.6373  1.3511
  333SOL    HW3 1099   0.727   3.776   5.818 -0.3634 -0.7187 -2.6670
  333SOL    MW4 1100   0.701   3.859   5.811  0.0099 -0.2790  0.1493
  334SOL     OW 1101   2.537   4.570   2.434 -0.1238  0.2185  0.2478
  334SOL    HW2 1102   2.520   4.582   2.527 -0.1903 -2.9849  0.7644
  334SOL    HW3 1103   2.468   4.510   2.405  1.2429 -0.6922 -1.2797
  334SOL    MW4 1104   2.525   4.564   2.443  0.0477 -0.3243  0.1144
  335SOL     OW 1105   3.313   4.884   2.688 -0.0859  0.2525  0.0744
  335SOL    HW2 1106   3.379   4.925   2.633  0.0923 -0.9395 -0.6324
  335SOL    HW3 1107   3.302   4.796   2.652 -0.2209 -0.4571  1.7242
  335SOL    MW4 1108   3.320   4.878   2.676 -0.0802  0.0016  0.1988
  336SOL     OW 1109   6.142   0.896   2.394  0.2874  0.3048  0.7172
  336SOL    HW2 1110   6.145   0.872   2.486 -1.3377  3.5097  1.7252
  336SOL    HW3 1111   6.052   0.925   2.379  0.9218  1.4131 -1.4284
  336SOL    MW4 1112   6.131   0.897   2.404  0.1567  0.8738  0.5671
  337SOL     OW 1113   1.704   3.305   3.360 -0.1748  0.7992 -0.2196
  337SOL    HW2 1114   1.621   3.284   3.402  0.7920 -1.5664  0.6573
  337SOL    HW3 1115   1.686   3.298   3.266 -1.0435  0.6104 -0.0445
  337SOL    MW4 1116   1.691   3.301   3.353 -0.1619  0.4622 -0.0808
  338SOL     OW 1117   1.146   0.578   3.589  0.0305  0.6415 -0.2740
  338SOL    HW2 1118   1.051   0.573   3.599  0.0346  1.0332 -0.0465
  338SOL    HW3 1119   1.161   0.650   3.528  0.2133  1.0769  0.2738
  338SOL    MW4 1120   1.136   0.587   3.582  0.0552  0.7507 -0.1717
  339SOL     OW 1121   4.046   2.339   4.899 -0.5700 -0.1315  0.5852
  339SOL    HW2 1122   4.118   2.398   4.917 -1.9390  1.9219 -0.2920
  339SOL    HW3 1123   4.037   2.286   4.978  0.8903  0.6244  1.2847
  339SOL    MW4 1124   4.054   2.339   4.912 -0.5579  0.2392  0.5617
  340SOL     OW 1125   1.114   4.563   2.901 -0.1436 -0.2977  0.2345
  340SOL    HW2 1126   1.189   4.504   2.900  0.6390  0.6358 -1.5288
  340SOL    HW3 1127   1.127   4.617   2.979  1.8594  0.7995 -0.7803
  340SOL    MW4 1128   1.126   4.562   2.911  0.2239 -0.0298 -0.1321
  341SOL     OW 1129   3.018   0.298   1.824  0.3079 -0.0695  0.0014
  341SOL    HW2 1130   3.014   0.241   1.901 -0.2855  0.0173  0.0410
  341SOL    HW3 1131   3.062   0.245   1.757 -0.9176 -0.8687 -0.2027
  341SOL    MW4 1132   3.023   0.284   1.825  0.0679 -0.1635 -0.0203
  342SOL     OW 1133   5.199   0.733   3.033 -0.2214  0.1424  0.4983
  342SOL    HW2 1134   5.266   0.759   2.971 -1.2254 -0.0888 -0.7254
  342SOL    HW3 1135   5.150   0.814   3.050  0.0257  0.1974  0.9798
  342SOL    MW4 1136   5.201   0.747   3.027 -0.3213  0.1192  0.4003
  343SOL     OW 1137   3.821   3.234   1.327 -0.3987  0.0308  0.2982
  343SOL    HW2 1138   3.740   3.264   1.286  0.2002  2.5741  0.7755
  343SOL    HW3 1139   3.842   3.152   1.283 -3.0181 -0.5002 -0.0775
  343SOL    MW4 1140   3.813   3.227   1.316 -0.6653  0.2963  0.3116
  344SOL     OW 1141   1.260   3.692   4.574 -0.2731  0.3173  0.5515
  344SOL    HW2 1142   1.318   3.763   4.603  0.5213  0.7477 -1.9042
  344SOL    HW3 1143   1.244   3.641   4.654  2.3668  0.9603  1.6180
  344SOL    MW4 1144   1.266   3.695   4.589  0.1800  0.4589  0.3682
  345SOL     OW 1145   3.884   1.028   4.153 -0.3929 -0.1140  0.1015
  345SOL    HW2 1146   3.857   1.024   4.062 -0.0631  0.4940 -0.0237
  345SOL    HW3 1147   3.892   0.936   4.180 -0.8450 -0.2924 -0.3710
  345SOL    MW4 1148   3.881   1.015   4.145 -0.4090 -0.0574  0.0227
  346SOL     OW 1149   5.010   2.504   5.354  0.0314  0.9291  0.0721
  346SOL    HW2 1150   4.986   2.588   5.315 -0.8093  0.9163  0.5332
  346SOL    HW3 1151   4.930   2.452   5.351  0.7086 -0.1047 -0.8033
  346SOL    MW4 1152   4.997   2.508   5.348  0.0098  0.7910  0.0174
  347SOL     OW 1153   5.515   5.164   5.918  0.0643  0.4277  0.0463
  347SOL    HW2 1154   5.461   5.133   5.846 -1.4259 -1.9642  2.0214
  347SOL    HW3 1155   5.454   5.207   5.978  1.1131  1.5426  0.3574
  347SOL    MW4 1156   5.500   5.165   5.916  0.0060  0.2592  0.3479
  348SOL     OW 1157   4.789   1.172   4.238  0.3015  0.3748 -0.3833
  348SOL    HW2 1158   4.874   1.217   4.231  1.1542 -0.9379  0.8110
  348SOL    HW3 1159   4.805   1.085   4.201  0.7950 -1.4070  3.4509
  348SOL    MW4 1160   4.803   1.166   4.232  0.4791 -0.0335  0.2801
  349SOL     OW 1161   5.825   1.273   1.976  0.7600 -0.0635 -0.8505
  349SOL    HW2 1162   5.841   1.358   1.935  0.0772 -0.4032 -1.8363
  349SOL    HW3 1163   5.902   1.259   2.031  0.7662  1.3029 -0.4794
  349SOL    MW4 1164   5.838   1.282   1.978  0.6707  0.0720 -0.9316
  350SOL     OW 1165   2.771   4.469   0.963  0.3874  0.0496  0.4486
  350SOL    HW2 1166   2.676   4.463   0.971  0.4544 -1.0681  0.5278
  350SOL    HW3 1167   2.797   4.387   0.920  1.1918  0.8962 -0.7715
  350SOL    MW4 1168   2.762   4.458   0.958  0.5024  0.0139  0.2981
  351SOL     OW 1169   5.615   1.365   2.165  0.4802 -0.5033 -0.0722
  351SOL    HW2 1170   5.673   1.338   2.094 -0.4178  1.7185 -1.7784
  351SOL    HW3 1171   5.528   1.362   2.126  0.0114  1.1894  0.7631
  351SOL    MW4 1172   5.611   1.361   2.150  0.2998  0.0132 -0.1871
  352SOL     OW 1173   0.365   2.456   4.247 -0.6742  0.0354 -0.3954
  352SOL    HW2 1174   0.327   2.542   4.229 -0.0921  0.7900  1.7432
  352SOL    HW3 1175   0.459   2.469   4.237 -0.3648  0.3353  2.1813
  352SOL    MW4 1176   0.372   2.469   4.243 -0.5566  0.1746  0.2267
  353SOL     OW 1177   6.236   1.046   5.739 -0.3151 -0.5317  0.2912
  353SOL    HW2 1178   6.325   1.021   5.764  0.2058  1.7504  0.9137
  353SOL    HW3 1179   6.189   1.053   5.822 -0.7603 -0.5409  0.0419
  353SOL    MW4 1180   6.241   1.043   5.753 -0.3051 -0.2318  0.3405
  354SOL     OW 1181   3.709   0.193   4.470  0.4635 -0.2610 -0.0065
  354SOL    HW2 1182   3.647   0.262   4.492  1.2220  0.9221 -1.4194
  354SOL    HW3 1183   3.657   0.113   4.469 -0.7425  0.5050  0.1946
  354SOL    MW4 1184   3.694   0.191   4.473  0.4045 -0.0038 -0.1664
  355SOL     OW 1185   4.169   5.630   3.752  0.0573  0.3429  0.5417
  355SOL    HW2 1186   4.137   5.670   3.833  0.3335  0.8941  0.3871
  355SOL    HW3 1187   4.207   5.547   3.780  1.1427  1.0169  1.1472
  355SOL    MW4 1188   4.170   5.625   3.766  0.2369  0.5045  0.6012
  356SOL     OW 1189   3.462   0.450   4.711 -0.7254 -0.1987 -0.1136
  356SOL    HW2 1190   3.438   0.502   4.634  0.4990  0.6443  0.0411
  356SOL    HW3 1191   3.557   0.460   4.718 -0.6444 -1.3445  0.7480
  356SOL    MW4 1192   3.471   0.458   4.702 -0.5532 -0.2387  0.0205
  357SOL     OW 1193   5.641   4.858   5.004  0.0830 -0.2703 -0.1915
  357SOL    HW2 1194   5.697   4.931   5.032 -1.0173  0.7484 -0.5908
  357SOL    HW3 1195   5.587   4.839   5.080 -0.5607  0.2447 -0.5090
  357SOL    MW4 1196   5.641   4.865   5.017 -0.1471 -0.0680 -0.2861
  358SOL     OW 1197   5.318   3.482   0.549  0.6288 -0.3201 -0.4405
  358SOL    HW2 1198   5.304   3.461   0.641  0.2882 -0.8736 -0.6145
  358SOL    HW3 1199   5.412   3.496   0.542  0.6224  0.0013  0.0433
  358SOL    MW4 1200   5.329   3.481   0.560  0.5830 -0.3507 -0.3997
  359SOL     OW 1201   0.623   4.661   5.748 -0.1228  0.3946  0.2845
  359SOL    HW2 1202   0.529   4.651   5.732  0.4325 -0.4923 -3.3484
  359SOL    HW3 1203   0.656   4.708   5.671  2.4306  0.8589  1.5390
  359SOL    MW4 1204   0.615   4.666   5.736  0.2874  0.3389 -0.0293
  360SOL     OW 1205   2.244   3.377   0.917 -0.6099 -0.1514 -0.0392
  360SOL    HW2 1206   2.220   3.387   1.009 -1.7555  0.5255 -0.3937
  360SOL    HW3 1207   2.230   3.285   0.898  2.2062 -0.9134  1.1390
  360SOL    MW4 1208   2.239   3.366   0.927 -0.3895 -0.1626  0.0695
  361SOL     OW 1209   0.428   3.283   0.694  0.3755 -0.3642 -0.0573
  361SOL    HW2 1210   0.485   3.254   0.624  1.9055 -0.1698  1.0550
  361SOL    HW3 1211   0.379   3.356   0.656  1.2779 -0.1661 -0.8778
  361SOL    MW4 1212   0.429   3.289   0.680  0.6965 -0.3124 -0.0188
  362SOL     OW 1213   3.569   3.965   0.875 -0.2582  0.1631 -0.4467
  362SOL    HW2 1214   3.561   4.036   0.938  0.8869 -0.4924  0.4614
  362SOL    HW3 1215   3.648   3.986   0.825 -0.8874  0.4252 -1.3753
  362SOL    MW4 1216   3.578   3.977   0.876 -0.1901  0.1112 -0.4494
  363SOL     OW 1217   0.342   2.088   3.044 -0.5992 -0.4499  0.1742
  363SOL    HW2 1218   0.327   1.994   3.048  0.7743 -0.6442  1.6769
  363SOL    HW3 1219   0.366   2.113   3.133 -1.8673  1.5147  0.0436
  363SOL    MW4 1220   0.343   2.079   3.056 -0.5853 -0.2163  0.3553
  364SOL     OW 1221   1.007   3.034   3.025 -0.2361  0.5158  0.1086
  364SOL    HW2 1222   0.956   3.096   3.076 -1.5075 -0.1711 -0.2764
  364SOL    HW3 1223   1.054   2.982   3.090 -1.2529  0.1412  0.5622
  364SOL    MW4 1224   1.007   3.035   3.040 -0.5380  0.3758  0.1177
  365SOL     OW 1225   2.544   1.054   1.584 -0.1292 -0.1959 -0.2096
  365SOL    HW2 1226   2.615   0.993   1.567  1.4213  0.8198  2.0322
  365SOL    HW3 1227   2.549   1.118   1.512  2.5694  0.9266  0.8374
  365SOL    MW4 1228   2.554   1.055   1.572  0.4314  0.0862  0.2243
  366SOL     OW 1229   5.991   1.377   3.316 -0.2062 -0.3693 -0.0558
  366SOL    HW2 1230   6.000   1.344   3.405 -1.4298 -0.0105  0.2111
  366SOL    HW3 1231   6.081   1.378   3.282  0.1402 -1.5977  0.7697
  366SOL    MW4 1232   6.004   1.373   3.323 -0.3219 -0.4840  0.0884
  367SOL     OW 1233   3.116   2.332   3.824 -0.0981  0.0672  0.6317
  367SOL    HW2 1234   3.034   2.343   3.776  0.5059 -3.0429 -1.4709
  367SOL    HW3 1235   3.090   2.291   3.907 -0.8025  1.0358  0.9002
  367SOL    MW4 1236   3.102   2.328   3.829 -0.1114 -0.2154  0.3897
  368SOL     OW 1237   2.686   1.003   4.467 -0.0125 -0.1008  0.0961
  368SOL    HW2 1238   2.606   1.006   4.415  0.0203 -0.0651  0.0480
  368SOL    HW3 1239   2.741   0.939   4.423  0.3900  0.6082 -0.4523
  368SOL    MW4 1240   2.683   0.995   4.455  0.0449 -0.0026  0.0174
  369SOL     OW 1241   2.217   3.600   2.101 -0.0673  0.3394 -0.4005
  369SOL    HW2 1242   2.303   3.640   2.106  0.3313 -0.6072  1.8920
  369SOL    HW3 1243   2.167   3.643   2.170 -0.5887 -0.8822  0.0224
  369SOL    MW4 1244   2.222   3.611   2.111 -0.0835  0.0533 -0.0423
  370SOL     OW 1245   5.343   2.686   2.352  1.0868  0.1824  0.1596
  370SOL    HW2 1246   5.254   2.651   2.360  0.5112  1.6579  0.5879
  370SOL    HW3 1247   5.368   2.709   2.442  1.4845  0.7401 -0.0860
  370SOL    MW4 1248   5.335   2.684   2.365  1.0633  0.4506  0.1837
  371SOL     OW 1249   2.920   1.705   2.574 -0.0477 -0.1013 -0.3881
  371SOL    HW2 1250   2.937   1.669   2.661 -1.0665  1.0221  0.3095
  371SOL    HW3 1251   3.007   1.728   2.540  0.2943  0.2414  0.6952
  371SOL    MW4 1252   2.934   1.703   2.581 -0.1370  0.0922 -0.1532
  372SOL     OW 1253   5.959   0.819   2.003  0.3614 -0.0473 -0.1368
  372SOL    HW2 1254   6.007   0.895   1.971 -2.1509  1.4886 -0.4461
  372SOL    HW3 1255   5.957   0.759   1.928  0.7075  0.3874 -0.4960
  372SOL    MW4 1256   5.965   0.821   1.989  0.0756  0.2127 -0.2250
  373SOL     OW 1257   6.418   3.089   6.132 -0.3471  0.3390 -0.1128
  373SOL    HW2 1258   6.439   2.998   6.151 -0.5441  0.3459  0.1568
  373SOL    HW3 1259   6.465   3.109   6.051 -0.5549 -0.0923 -0.3383
  373SOL    MW4 1260   6.427   3.080   6.124 -0.4005  0.2830 -0.1070
  374SOL     OW 1261   3.200   4.005   1.984  0.1269  0.2410 -0.1580
  374SOL    HW2 1262   3.196   4.089   1.937  0.0458 -0.0070 -0.5987
  374SOL    HW3 1263   3.226   3.942   1.918  1.7551  0.1634  0.5007
  374SOL    MW4 1264   3.203   4.008   1.969  0.3310  0.1980 -0.1292
  375SOL     OW 1265   1.178   5.181   3.448  0.6774  0.0260 -0.3946
  375SOL    HW2 1266   1.243   5.182   3.518  1.7038  2.3029 -1.2945
  375SOL    HW3 1267   1.228   5.173   3.367 -0.3503 -0.5669 -1.0061
  375SOL    MW4 1268   1.193   5.180   3.447  0.6773  0.2482 -0.5940
  376SOL     OW 1269   2.492   2.373   1.830 -0.4751 -0.5188  0.2869
  376SOL    HW2 1270   2.580   2.357   1.795 -0.9186 -0.3451 -0.9664
  376SOL    HW3 1271   2.474   2.296   1.884  0.2446 -0.8060  0.1404
  376SOL    MW4 1272   2.501   2.360   1.833 -0.4386 -0.5337  0.1022
  377SOL     OW 1273   5.977   5.730   3.802  0.0078 -0.3062 -0.4860
  377SOL    HW2 1274   6.054   5.766   3.756 -2.6393  1.7605 -3.8333
  377SOL    HW3 1275   5.956   5.651   3.753 -1.6289  0.7824 -1.6480
  377SOL    MW4 1276   5.985   5.725   3.789 -0.5574  0.1101 -1.0810
  378SOL     OW 1277   0.810   2.322   2.712  0.2479 -0.1890 -0.1309
  378SOL    HW2 1278   0.798   2.279   2.796  0.8929 -1.8816 -0.8656
  378SOL    HW3 1279   0.744   2.282   2.655  0.1289  0.6067 -0.5706
  378SOL    MW4 1280   0.799   2.311   2.715  0.3173 -0.3074 -0.2859
  379SOL     OW 1281   0.060   0.503   0.466 -0.1010 -0.2945 -0.3820
  379SOL    HW2 1282   0.085   0.499   0.558 -3.9405  0.6825  0.9290
  379SOL    HW3 1283   0.105   0.429   0.425  2.7952  0.0198  1.9075
  379SOL    MW4 1284   0.069   0.493   0.473 -0.2255 -0.1241  0.0930
  380SOL     OW 1285   0.556   0.689   3.347  0.0310 -0.3760 -0.1619
  380SOL    HW2 1286   0.574   0.780   3.322 -0.2838 -0.5855 -1.1816
  380SOL    HW3 1287   0.638   0.643   3.329 -0.5942 -0.7921 -2.1882
  380SOL    MW4 1288   0.569   0.695   3.342 -0.0930 -0.4586 -0.5638
  381SOL     OW 1289   2.387   2.775   4.724  0.2469 -0.6374 -0.2934
  381SOL    HW2 1290   2.394   2.699   4.666  0.9528 -2.5153  2.0918
  381SOL    HW3 1291   2.472   2.781   4.767 -0.6191 -0.1291  1.4512
  381SOL    MW4 1292   2.399   2.766   4.722  0.2258 -0.8181  0.2515
  382SOL     OW 1293   1.873   5.086   4.224 -0.4717 -0.0634  0.6262
  382SOL    HW2 1294   1.787   5.092   4.264 -0.3576  0.9049  0.7530
  382SOL    HW3 1295   1.867   5.140   4.145 -0.6425 -1.8147 -0.5990
  382SOL    MW4 1296   1.861   5.094   4.219 -0.4791 -0.1667  0.4813
  383SOL     OW 1297   3.913   1.209   1.716  0.1947  0.1281 -0.0839
  383SOL    HW2 1298   4.008   1.209   1.707  0.1380 -0.3843 -0.7984
  383SOL    HW3 1299   3.891   1.120   1.742 -0.1076  0.1943 -0.1091
  383SOL    MW4 1300   3.922   1.198   1.718  0.1473  0.0692 -0.1815
  384SOL     OW 1301   5.445   6.212   4.734 -0.2007  0.3605  0.1470
  384SOL    HW2 1302   5.480   6.256   4.811  0.0072 -0.4964  0.5506
  384SOL    HW3 1303   5.517   6.212   4.671  0.4958 -1.2166  0.9006
  384SOL    MW4 1304   5.459   6.218   4.736 -0.0813  0.0393  0.2997
  385SOL     OW 1305   3.869   0.369   4.171 -0.2421 -0.2838  0.3797
  385SOL    HW2 1306   3.837   0.299   4.228 -0.0051  0.5017  1.5099
  385SOL    HW3 1307   3.904   0.435   4.231  0.4261  0.3733 -0.6998
  385SOL    MW4 1308   3.869   0.369   4.186 -0.1227 -0.0935  0.3864
  386SOL     OW 1309   5.237   3.667   1.097 -0.3363 -0.0225 -0.3031
  386SOL    HW2 1310   5.207   3.717   1.173 -1.6627 -1.3930  0.1420
  386SOL    HW3 1311   5.236   3.729   1.025 -1.8357  0.6352  0.2507
  386SOL    MW4 1312   5.233   3.681   1.098 -0.7091 -0.1166 -0.1713
  387SOL     OW 1313   4.543   0.095   3.273 -0.0588 -0.6215 -0.6550
  387SOL    HW2 1314   4.472   0.071   3.332 -0.5733  0.3071 -0.8671
  387SOL    HW3 1315   4.500   0.145   3.203  1.0448  1.8629  0.3340
  387SOL    MW4 1316   4.528   0.099   3.271  0.0189 -0.1712 -0.5525
  388SOL     OW 1317   1.184   1.231  -0.029 -0.6663  0.5663  0.3927
  388SOL    HW2 1318   1.100   1.250   0.014 -0.7907 -1.4461  1.2037
  388SOL    HW3 1319   1.162   1.166  -0.096  0.4712 -1.9891  2.3047
  388SOL    MW4 1320   1.170   1.225  -0.032 -0.5327 -0.0364  0.7520
  389SOL     OW 1321   1.441   4.070   1.434  0.0798 -0.3572 -0.0330
  389SOL    HW2 1322   1.379   4.059   1.505  1.2317 -0.1875  1.0336
  389SOL    HW3 1323   1.524   4.037   1.469  0.4001 -1.5155 -1.7523
  389SOL    MW4 1324   1.444   4.064   1.448  0.2741 -0.4876 -0.1191
  390SOL     OW 1325   0.298   4.498   1.549 -0.1993 -0.7897 -0.0090
  390SOL    HW2 1326   0.275   4.445   1.473 -0.3160  0.6869 -1.0668
  390SOL    HW3 1327   0.391   4.518   1.537 -0.4883  0.4194 -0.4389
  390SOL    MW4 1328   0.308   4.494   1.537 -0.2528 -0.4353 -0.2053
  391SOL     OW 1329   3.411   2.969   0.272 -0.1857  0.1588  0.6494
  391SOL    HW2 1330   3.417   3.015   0.355 -2.7926  0.4119  0.7789
  391SOL    HW3 1331   3.393   3.037   0.207  3.1077  0.1422 -0.4411
  391SOL    MW4 1332   3.409   2.984   0.274 -0.0951  0.1900  0.5226
  392SOL     OW 1333   5.599   3.460   0.557  0.1817 -0.3432 -0.1245
  392SOL    HW2 1334   5.655   3.449   0.480  0.4063  1.6937 -0.3130
  392SOL    HW3 1335   5.608   3.552   0.580 -1.0534 -0.5693  1.4580
  392SOL    MW4 1336   5.608   3.470   0.550  0.0483 -0.1043  0.0594
  393SOL     OW 1337   3.487   3.090   5.832  0.3645 -0.2311  0.3540
  393SOL    HW2 1338   3.396   3.102   5.857  0.0103 -1.0844 -0.4866
  393SOL    HW3 1339   3.534   3.083   5.916 -0.1962  1.0543  0.7979
  393SOL    MW4 1340   3.481   3.090   5.847  0.2438 -0.1741  0.3017
  394SOL     OW 1341   4.852   0.010   0.484  0.0277 -0.1200 -0.7396
  394SOL    HW2 1342   4.898  -0.031   0.557  0.7209  2.0388  0.0907
  394SOL    HW3 1343   4.763  -0.025   0.490  0.8016 -2.2854 -0.7538
  394SOL    MW4 1344   4.846   0.000   0.494  0.2213 -0.1209 -0.6320
  395SOL     OW 1345   6.074   3.060   3.728 -0.2464  0.2849  0.3113
  395SOL    HW2 1346   6.065   2.987   3.789 -2.0055  1.5288  1.6528
  395SOL    HW3 1347   6.136   3.029   3.662  0.0793 -1.9039  1.5497
  395SOL    MW4 1348   6.081   3.047   3.728 -0.4355  0.1602  0.6517
  396SOL     OW 1349   0.193   1.694   2.619  0.5425 -0.0494  0.0320
  396SOL    HW2 1350   0.263   1.691   2.684  0.5334  1.6773  0.1771
  396SOL    HW3 1351   0.118   1.653   2.662  0.8601  0.0624  0.7051
  396SOL    MW4 1352   0.192   1.688   2.634  0.5832  0.1932  0.1400
  397SOL     OW 1353   1.968   3.382   2.008  0.2305  0.0984  0.4811
  397SOL    HW2 1354   1.886   3.354   1.969  1.0121 -0.4777 -0.8229
  397SOL    HW3 1355   2.003   3.447   1.948  0.2942  1.0407  1.5061
  397SOL    MW4 1356   1.962   3.387   1.995  0.3420  0.1467  0.4443
  398SOL     OW 1357   3.074   1.588   0.267  0.2236  0.3658  0.5022
  398SOL    HW2 1358   3.078   1.620   0.177  0.6280 -1.8968 -0.3323
  398SOL    HW3 1359   3.024   1.507   0.262  0.3396  0.1430  2.2992
  398SOL    MW4 1360   3.068   1.582   0.254  0.2923  0.0379  0.6292
  399SOL     OW 1361   5.884   0.488   5.060  0.1933 -0.4339  0.3154
  399SOL    HW2 1362   5.891   0.584   5.058  0.1485 -0.4411 -0.8456
  399SOL    HW3 1363   5.900   0.461   4.969  1.1199 -1.5991  0.7990
  399SOL    MW4 1364   5.887   0.497   5.047  0.3097 -0.5886  0.2261
  400SOL     OW 1365   3.719   3.290   1.565  0.0211  0.1894  0.0537
  400SOL    HW2 1366   3.761   3.268   1.482  1.8694  1.2372  0.6628
  400SOL    HW3 1367   3.640   3.337   1.540  0.4946  0.3945 -1.1170
  400SOL    MW4 1368   3.714   3.293   1.551  0.3274  0.3547 -0.0204
  401SOL     OW 1369   2.351   1.261   0.339  0.0088 -0.4179  0.7072
  401SOL    HW2 1370   2.371   1.306   0.257 -0.2864 -0.8180  0.4136
  401SOL    HW3 1371   2.389   1.317   0.407 -0.3518  0.2711  0.3506
  401SOL    MW4 1372   2.359   1.274   0.337 -0.0777 -0.3798  0.6214
  402SOL     OW 1373   5.106   2.225   3.517  0.6139 -0.0609 -0.1475
  402SOL    HW2 1374   5.043   2.244   3.448 -1.4093  0.6277  1.7522
  402SOL    HW3 1375   5.156   2.307   3.527 -1.7950  1.3314  1.7527
  402SOL    MW4 1376   5.104   2.239   3.509  0.0291  0.2136  0.3538
  403SOL     OW 1377   2.607   1.908   0.392 -0.3599 -0.2355  0.0612
  403SOL    HW2 1378   2.534   1.894   0.332 -1.0199 -0.5574  0.9088
  403SOL    HW3 1379   2.686   1.900   0.338 -0.8560 -2.4801 -0.3947
  403SOL    MW4 1380   2.608   1.905   0.377 -0.5124 -0.5741  0.1129
  404SOL     OW 1381   6.340   2.498   5.706  0.0873  0.6767 -0.4842
  404SOL    HW2 1382   6.334   2.431   5.774 -0.1217  1.4378  0.2697
  404SOL    HW3 1383   6.388   2.570   5.748  1.5022  0.4888 -1.7030
  404SOL    MW4 1384   6.345   2.498   5.721  0.2464  0.7523 -0.5455
  405SOL     OW 1385   2.873   5.792   4.539 -0.3788 -0.2885 -0.0568
  405SOL    HW2 1386   2.900   5.847   4.465 -1.8082  0.3598 -0.1143
  405SOL    HW3 1387   2.952   5.785   4.593 -0.2193  2.0057  0.0773
  405SOL    MW4 1388   2.887   5.798   4.536 -0.5463  0.0998 -0.0467
  406SOL     OW 1389   3.883   0.831   0.952 -0.7423 -0.4126 -0.2818
  406SOL    HW2 1390   3.853   0.893   1.019 -1.2741 -0.5324 -0.4058
  406SOL    HW3 1391   3.820   0.839   0.881 -0.6132 -0.8414 -0.4504
  406SOL    MW4 1392   3.871   0.840   0.952 -0.7954 -0.4850 -0.3204
  407SOL     OW 1393   3.414   0.604   1.848  0.6631  0.2751 -0.3305
  407SOL    HW2 1394   3.488   0.656   1.816  1.1697 -1.1428 -1.5534
  407SOL    HW3 1395   3.442   0.513   1.837 -1.8448 -0.3682 -2.3680
  407SOL    MW4 1396   3.428   0.599   1.842  0.3991  0.0032 -0.7607
  408SOL     OW 1397   4.441   3.327   1.623 -0.3538 -0.6017  0.6582
  408SOL    HW2 1398   4.362   3.307   1.573 -0.3260  1.1956 -0.1614
  408SOL    HW3 1399   4.502   3.257   1.601 -0.3641  0.0933 -1.8219
  408SOL    MW4 1400   4.439   3.315   1.613 -0.3515 -0.2729  0.2229
  409SOL     OW 1401   0.781   2.787   1.834  0.0361  0.1816 -0.2502
  409SOL    HW2 1402   0.734   2.730   1.773  0.1135 -0.0510 -0.0915
  409SOL    HW3 1403   0.713   2.832   1.883 -0.0593  1.1232 -1.1882
  409SOL    MW4 1404   0.766   2.785   1.832  0.0337  0.2752 -0.3530
  410SOL     OW 1405   0.622   0.379   5.295 -0.6649 -0.1757 -0.1576
  410SOL    HW2 1406   0.553   0.444   5.306 -0.2407  0.6786 -2.1547
  410SOL    HW3 1407   0.586   0.317   5.231  0.4797  0.4899 -1.5270
  410SOL    MW4 1408   0.608   0.379   5.288 -0.4579  0.0249 -0.6018
  411SOL     OW 1409   3.904   1.285   2.746  0.8415 -0.5099  0.4459
  411SOL    HW2 1410   3.856   1.208   2.777 -0.7084 -0.2810 -1.2231
  411SOL    HW3 1411   3.927   1.333   2.825 -2.0896 -0.4036  1.3246
  411SOL    MW4 1412   3.901   1.281   2.760  0.2503 -0.4657  0.3416
  412SOL     OW 1413   4.908   0.875   2.852  0.3162  0.4339  0.1175
  412SOL    HW2 1414   4.922   0.780   2.851  2.0097  0.6356 -1.4330
  412SOL    HW3 1415   4.819   0.887   2.820  0.1086 -0.6319  0.2614
  412SOL    MW4 1416   4.898   0.864   2.848  0.5122  0.3199 -0.0681
  413SOL     OW 1417   2.678   3.474   3.726 -0.2642 -0.3366  0.2306
  413SOL    HW2 1418   2.701   3.443   3.813 -1.2703  2.3110  1.5206
  413SOL    HW3 1419   2.754   3.525   3.698 -0.1224 -0.8200 -0.3068
  413SOL    MW4 1420   2.691   3.477   3.734 -0.3782 -0.0510  0.3299
  414SOL     OW 1421   2.761   4.297   4.716  0.1192 -0.3604 -0.7826
  414SOL    HW2 1422   2.797   4.342   4.639 -1.0657  2.8064  0.3344
  414SOL    HW3 1423   2.672   4.331   4.724 -0.1730 -1.4736  1.3320
  414SOL    MW4 1424   2.754   4.307   4.707 -0.0757 -0.0894 -0.3562
  415SOL     OW 1425   4.073   0.110   3.006  0.1598 -0.2339  0.2915
  415SOL    HW2 1426   4.108   0.032   3.049  0.5886  1.3981  3.1194
  415SOL    HW3 1427   3.986   0.084   2.976  0.9360 -2.2474 -0.3865
  415SOL    MW4 1428   4.066   0.096   3.008  0.3188 -0.2843  0.5751
  416SOL     OW 1429   6.281   2.587   0.744 -0.8149  0.0507  0.2686
  416SOL    HW2 1430   6.289   2.649   0.817 -1.8999 -0.3619  0.7581
  416SOL    HW3 1431   6.369   2.582   0.706 -0.2236  0.2216  1.5882
  416SOL    MW4 1432   6.294   2.595   0.748 -0.8801  0.0188  0.5073
  417SOL     OW 1433   4.086   6.326   5.962 -0.0856 -0.7193  0.2847
  417SOL    HW2 1434   4.093   6.399   6.024 -0.5508 -0.6393  0.2406
  417SOL    HW3 1435   4.009   6.345   5.909  0.1528 -0.9273 -0.1443
  417SOL    MW4 1436   4.077   6.338   5.963 -0.1155 -0.7362  0.2223
  418SOL     OW 1437   4.238   1.128   5.900 -0.9539 -0.0174  0.0614
  418SOL    HW2 1438   4.264   1.219   5.882 -1.4293 -0.3366 -2.5843
  418SOL    HW3 1439   4.144   1.126   5.882 -0.8833 -1.1039 -0.2406
  418SOL    MW4 1440   4.229   1.140   5.895 -1.0073 -0.2028 -0.3276
  419SOL     OW 1441   4.473   1.968   1.185 -0.0869  0.0584 -0.0967
  419SOL    HW2 1442   4.490   1.960   1.091 -0.2917 -1.3871 -0.0333
  419SOL    HW3 1443   4.390   1.922   1.199  0.4935 -0.7247  0.9541
  419SOL    MW4 1444   4.464   1.961   1.175 -0.0374 -0.2356  0.0503
  420SOL     OW 1445   0.728   1.377   4.298 -0.0889 -0.0938  0.2681
  420SOL    HW2 1446   0.655   1.394   4.358  0.6752  3.1083  0.4970
  420SOL    HW3 1447   0.776   1.305   4.338 -1.4467 -0.2152  1.7505
  420SOL    MW4 1448   0.725   1.370   4.311 -0.1673  0.3126  0.4939
  421SOL     OW 1449   3.770   5.382   3.665 -0.3361 -0.0968  0.0277
  421SOL    HW2 1450   3.791   5.441   3.738 -1.0950  2.3988 -1.6398
  421SOL    HW3 1451   3.730   5.306   3.707  1.8130 -0.0711  2.3927
  421SOL    MW4 1452   3.768   5.380   3.680 -0.1527  0.2358  0.1198
  422SOL     OW 1453   5.162   0.997   4.143  0.1205  0.6247 -0.0421
  422SOL    HW2 1454   5.172   1.041   4.058 -0.8083 -0.2808 -0.6363
  422SOL    HW3 1455   5.128   1.066   4.201  0.2574  1.1215 -0.5407
  422SOL    MW4 1456   5.159   1.012   4.139  0.0160  0.5708 -0.1863
  423SOL     OW 1457   3.838   1.678   3.603  0.1710 -0.1825  0.1455
  423SOL    HW2 1458   3.750   1.656   3.574  0.5666 -2.3268  0.3904
  423SOL    HW3 1459   3.890   1.599   3.583  1.5399  0.1941  1.9714
  423SOL    MW4 1460   3.833   1.664   3.597  0.4038 -0.4157  0.4187
  424SOL     OW 1461   4.669   5.731   0.932  0.8354 -0.3757 -0.3269
  424SOL    HW2 1462   4.673   5.825   0.948  0.2785 -0.6283  1.6540
  424SOL    HW3 1463   4.698   5.720   0.842  0.8331  1.6928 -0.6247
  424SOL    MW4 1464   4.673   5.742   0.922  0.7616 -0.1361 -0.1048
  425SOL     OW 1465   3.972   1.708   4.372 -0.3881 -0.1113  0.2435
  425SOL    HW2 1466   4.011   1.622   4.359  2.1948  0.9789  0.1492
  425SOL    HW3 1467   3.911   1.719   4.300  0.2162 -1.3602 -0.4814
  425SOL    MW4 1468   3.969   1.698   4.361  0.0324 -0.1322  0.1354
  426SOL     OW 1469   4.227   0.930   1.057  0.2600  0.1882 -0.1031
  426SOL    HW2 1470   4.317   0.920   1.026  0.3224 -0.6897  0.3453
  426SOL    HW3 1471   4.235   0.933   1.152 -0.3070 -1.3654  0.0124
  426SOL    MW4 1472   4.240   0.929   1.065  0.1934 -0.1326 -0.0287
  427SOL     OW 1473   0.263   0.320   0.376 -0.4094 -0.7598 -0.0721
  427SOL    HW2 1474   0.246   0.305   0.283 -0.9696 -1.0735  0.0747
  427SOL    HW3 1475   0.244   0.236   0.418 -0.0318 -0.6564  0.3107
  427SOL    MW4 1476   0.258   0.307   0.370 -0.4335 -0.7875 -0.0023
  428SOL     OW 1477   0.646   1.302   0.448 -0.3466 -0.0010 -0.7419
  428SOL    HW2 1478   0.619   1.228   0.503  1.5132 -0.9728 -1.0466
  428SOL    HW3 1479   0.651   1.264   0.360 -1.0733  0.9603 -1.2106
  428SOL    MW4 1480   0.643   1.287   0.444 -0.1971 -0.0024 -0.8439
  429SOL     OW 1481   2.440   3.965   4.611 -0.1381  0.0407  0.0474
  429SOL    HW2 1482   2.347   3.965   4.636 -0.7095  0.5750 -1.9299
  429SOL    HW3 1483   2.455   4.053   4.576  1.0717 -0.1252  0.0980
  429SOL    MW4 1484   2.430   3.977   4.610 -0.0539  0.0893 -0.2068
  430SOL     OW 1485   5.712   0.468   2.588  0.2339  0.0383 -0.7845
  430SOL    HW2 1486   5.665   0.546   2.561 -0.3890 -0.3904 -0.9626
  430SOL    HW3 1487   5.802   0.498   2.603  0.3474  0.5171 -2.2449
  430SOL    MW4 1488   5.718   0.482   2.586  0.1667  0.0449 -1.0007
  431SOL     OW 1489   0.594   3.661   4.459  0.1124  0.0592 -0.1581
  431SOL    HW2 1490   0.650   3.737   4.441  0.7175 -0.5866 -1.0470
  431SOL    HW3 1491   0.642   3.610   4.523  0.7314 -0.6797 -1.1885
  431SOL    MW4 1492   0.607   3.665   4.465  0.2739 -0.1235 -0.4113
  432SOL     OW 1493   0.672   0.367   1.616  0.0787  0.1337 -0.5144
  432SOL    HW2 1494   0.745   0.401   1.563 -0.0138  0.4956 -0.4103
  432SOL    HW3 1495   0.628   0.446   1.648 -1.3040 -0.0445 -1.8616
  432SOL    MW4 1496   0.676   0.382   1.613 -0.1159  0.1579 -0.6784
  433SOL     OW 1497   4.940   3.004   0.271  0.1961 -0.0610 -0.2615
  433SOL    HW2 1498   4.894   2.923   0.293  0.4210 -0.1767 -0.2204
  433SOL    HW3 1499   4.870   3.066   0.251 -0.0433  0.1733  1.1745
  433SOL    MW4 1500   4.924   3.002   0.271  0.1942 -0.0454 -0.0666
  434SOL     OW 1501   5.605   6.132   1.087 -0.1573 -0.0214  0.8267
  434SOL    HW2 1502   5.565   6.104   1.169  0.5759  0.3132  1.3086
  434SOL    HW3 1503   5.678   6.189   1.113 -0.0693  0.3008 -0.0585
  434SOL    MW4 1504   5.610   6.136   1.101 -0.0490  0.0652  0.7735
  435SOL     OW 1505   1.754   1.029   2.344 -0.5872  0.2499 -0.1358
  435SOL    HW2 1506   1.759   1.064   2.433 -1.3674  1.0497 -0.3918
  435SOL    HW3 1507   1.670   1.060   2.311 -0.4415 -0.2915 -1.0541
  435SOL    MW4 1508   1.743   1.038   2.352 -0.6709  0.2840 -0.2908
  436SOL     OW 1509   1.240   1.659   3.846  0.6261 -0.2384 -0.0322
  436SOL    HW2 1510   1.248   1.619   3.932 -0.4748  0.8552  0.6055
  436SOL    HW3 1511   1.242   1.753   3.863 -0.6853 -0.0030 -1.0800
  436SOL    MW4 1512   1.242   1.666   3.859  0.3078 -0.0631 -0.0863
  437SOL     OW 1513   6.155   3.831   6.077  0.1797  0.2151 -0.6149
  437SOL    HW2 1514   6.204   3.867   6.003 -1.5805 -1.0728 -2.5093
  437SOL    HW3 1515   6.094   3.901   6.101 -2.5350 -0.8796 -3.6252
  437SOL    MW4 1516   6.153   3.845   6.071 -0.4107 -0.0993 -1.2620
  438SOL     OW 1517   1.610   5.461   0.762 -0.0816  0.6204  0.7498
  438SOL    HW2 1518   1.581   5.394   0.824 -0.5523  0.0941 -0.0070
  438SOL    HW3 1519   1.573   5.543   0.794 -1.7835  0.0854  0.2497
  438SOL    MW4 1520   1.601   5.463   0.774 -0.3683  0.4803  0.5840
  439SOL     OW 1521   4.324   0.806   3.803 -0.1998  0.3697 -0.5187
  439SOL    HW2 1522   4.302   0.886   3.851 -0.5678 -0.0861  0.1009
  439SOL    HW3 1523   4.268   0.808   3.726 -1.6248 -0.1904  0.4417
  439SOL    MW4 1524   4.314   0.817   3.799 -0.4364  0.2357 -0.3103
  440SOL     OW 1525   4.664   2.751   2.268  0.1324  0.1909  0.4871
  440SOL    HW2 1526   4.615   2.714   2.342  1.0368 -0.9222  0.5566
  440SOL    HW3 1527   4.598   2.800   2.218 -1.1223 -1.4583  0.4385
  440SOL    MW4 1528   4.649   2.753   2.271  0.0862 -0.1735  0.4899
  441SOL     OW 1529   3.088   3.023   0.750  0.0408  0.4546 -0.1246
  441SOL    HW2 1530   3.003   2.985   0.772 -0.3660  0.3670 -1.6876
  441SOL    HW3 1531   3.069   3.113   0.724  0.1615 -0.0313 -2.0248
  441SOL    MW4 1532   3.075   3.029   0.749  0.0031  0.3789 -0.5816
  442SOL     OW 1533   0.738   5.565   4.041 -0.2957  0.4653  0.2474
  442SOL    HW2 1534   0.726   5.639   4.100 -0.5389  0.1222  0.6334
  442SOL    HW3 1535   0.768   5.604   3.959 -3.2074  1.3383 -0.5436
  442SOL    MW4 1536   0.740   5.580   4.038 -0.7119  0.5352  0.1940
  443SOL     OW 1537   4.572   2.536   1.952  0.0469 -0.0182 -0.2018
  443SOL    HW2 1538   4.558   2.629   1.933 -1.3077 -0.6980 -3.1120
  443SOL    HW3 1539   4.666   2.522   1.936  0.5289  1.0160  1.4569
  443SOL    MW4 1540   4.583   2.547   1.947 -0.0683  0.0286 -0.3669
  444SOL     OW 1541   0.385   3.701   3.011 -0.8845 -0.6793 -0.3190
  444SOL    HW2 1542   0.315   3.654   3.055 -1.4965  0.0343 -0.5149
  444SOL    HW3 1543   0.458   3.638   3.008 -1.0940 -1.0163  0.9760
  444SOL    MW4 1544   0.386   3.686   3.016 -0.9929 -0.6296 -0.1740
  445SOL     OW 1545   5.219   5.368   2.893 -0.3473  0.1366  0.2030
  445SOL    HW2 1546   5.161   5.293   2.878 -1.3810  0.9396 -0.0027
  445SOL    HW3 1547   5.165   5.444   2.871  0.6398  0.9507  0.5048
  445SOL    MW4 1548   5.204   5.368   2.888 -0.3535  0.3500  0.2157
  446SOL     OW 1549   2.701   1.692   2.963 -0.0739  0.3305  0.2795
  446SOL    HW2 1550   2.673   1.651   3.044  0.6479 -2.8186 -0.9247
  446SOL    HW3 1551   2.619   1.717   2.919 -0.4707  1.8240  1.7640
  446SOL    MW4 1552   2.687   1.690   2.968 -0.0310  0.1120  0.3165
  447SOL     OW 1553   4.764   0.683   6.256 -0.1579  0.0865  0.3254
  447SOL    HW2 1554   4.756   0.774   6.227  0.3809  0.6310  1.7815
  447SOL    HW3 1555   4.848   0.680   6.302 -0.1943 -1.1432  0.3498
  447SOL    MW4 1556   4.774   0.695   6.258 -0.0916 -0.0039  0.5207
  448SOL     OW 1557   5.038   4.627   2.876  0.0059  0.0852  0.3531
  448SOL    HW2 1558   5.033   4.691   2.947  1.2967 -0.1049  0.6439
  448SOL    HW3 1559   5.126   4.589   2.884  0.5328  0.6816 -1.8721
  448SOL    MW4 1560   5.049   4.630   2.887  0.2457  0.1388  0.0979
  449SOL     OW 1561   0.210   0.682   4.655 -0.1800 -0.1415  0.0144
  449SOL    HW2 1562   0.200   0.755   4.594 -0.9484 -1.2214 -1.1916
  449SOL    HW3 1563   0.122   0.644   4.663 -0.6486  1.2760  3.5730
  449SOL    MW4 1564   0.197   0.687   4.648 -0.3432 -0.0970  0.3248
  450SOL     OW 1565   0.935   3.080   1.434  0.5627  0.2863 -0.0756
  450SOL    HW2 1566   1.020   3.046   1.463 -0.1912 -1.4367  0.2430
  450SOL    HW3 1567   0.937   3.173   1.458  2.4540  0.3611 -0.3559
  450SOL    MW4 1568   0.946   3.088   1.441  0.7128  0.0688 -0.0706
  451SOL     OW 1569   0.643   2.808   4.035 -0.4001 -0.1666 -1.1344
  451SOL    HW2 1570   0.645   2.897   4.000  1.5937 -0.4056 -1.7718
  451SOL    HW3 1571   0.604   2.817   4.122  0.1854  1.4078 -0.9973
  451SOL    MW4 1572   0.639   2.821   4.042 -0.0598  0.0096 -1.2004
  452SOL     OW 1573   6.018   3.962   5.512 -0.1247  0.3259  0.3240
  452SOL    HW2 1574   5.959   4.037   5.516  0.7494  1.0902 -0.4655
  452SOL    HW3 1575   6.056   3.957   5.600 -2.7350 -1.3947  1.4672
  452SOL    MW4 1576   6.015   3.972   5.525 -0.3538  0.1997  0.3707
  453SOL     OW 1577   0.882   5.527   2.334  0.3548 -0.4169  0.3853
  453SOL    HW2 1578   0.856   5.494   2.420 -2.1893 -2.6318 -1.0405
  453SOL    HW3 1579   0.945   5.596   2.352 -2.5413  1.6433  4.2189
  453SOL    MW4 1580   0.887   5.532   2.348 -0.3629 -0.4373  0.7030
  454SOL     OW 1581   4.906   1.847   1.048  0.0673  0.3773  0.2306
  454SOL    HW2 1582   4.822   1.800   1.050 -0.3702  1.1521  0.6042
  454SOL    HW3 1583   4.955   1.814   1.123  0.5817 -0.9189 -0.6412
  454SOL    MW4 1584   4.901   1.836   1.058  0.0774  0.3085  0.1648
  455SOL     OW 1585   4.891   0.687   3.207 -0.2988 -0.2861  0.3018
  455SOL    HW2 1586   4.856   0.739   3.135  0.3247  1.0607  0.9429
  455SOL    HW3 1587   4.880   0.596   3.178 -1.5815  0.1698 -0.7610
  455SOL    MW4 1588   4.885   0.682   3.194 -0.3857 -0.0482  0.2462
  456SOL     OW 1589   0.750   2.347   1.914 -0.4173 -0.4357  0.0585
  456SOL    HW2 1590   0.658   2.351   1.887 -0.8914 -0.5623  1.5613
  456SOL    HW3 1591   0.755   2.271   1.972 -0.0895  1.3019  2.4479
  456SOL    MW4 1592   0.739   2.337   1.918 -0.4366 -0.2231  0.5720
  457SOL     OW 1593   4.791   5.941   1.660  0.2464 -0.3202 -0.5668
  457SOL    HW2 1594   4.713   5.988   1.690  0.4204  0.5304 -1.3987
  457SOL    HW3 1595   4.864   5.990   1.697  0.4373  0.2244 -1.6242
  457SOL    MW4 1596   4.790   5.954   1.669  0.2945 -0.1362 -0.8161
  458SOL     OW 1597   5.489   3.850   5.260  0.4738  0.2083  0.2273
  458SOL    HW2 1598   5.558   3.810   5.208  0.2337  0.7817 -0.5577
  458SOL    HW3 1599   5.421   3.873   5.196 -0.2986 -0.0394  0.9375
  458SOL    MW4 1600   5.489   3.848   5.245  0.3402  0.2513  0.2174
  459SOL     OW 1601   1.035   6.264   1.259 -0.3682  0.1409 -0.4682
  459SOL    HW2 1602   1.120   6.229   1.287 -1.2200 -0.6738  1.2521
  459SOL    HW3 1603   1.033   6.353   1.294 -0.0569  0.3053 -0.8674
  459SOL    MW4 1604   1.046   6.271   1.267 -0.4395  0.0551 -0.2939
  460SOL     OW 1605   1.644   2.593   1.297  0.4546 -0.1150  0.2893
  460SOL    HW2 1606   1.608   2.526   1.240  1.3565 -2.1672  1.9919
  460SOL    HW3 1607   1.579   2.664   1.294 -1.4251 -1.7459 -0.2693
  460SOL    MW4 1608   1.630   2.594   1.289  0.3256 -0.6009  0.4403
  461SOL     OW 1609   0.282   2.799   2.607  0.1785 -0.1840 -0.1259
  461SOL    HW2 1610   0.247   2.755   2.529 -2.1661  0.7841  0.3033
  461SOL    HW3 1611   0.294   2.729   2.670  0.1701 -0.7130 -0.6987
  461SOL    MW4 1612   0.279   2.784   2.605 -0.1319 -0.1261 -0.1448
  462SOL     OW 1613   5.387   2.943   5.224  0.3210 -0.1765 -0.0277
  462SOL    HW2 1614   5.316   2.880   5.238 -0.8926  1.4639  1.7814
  462SOL    HW3 1615   5.395   2.949   5.129 -1.6171 -0.8116 -0.2828
  462SOL    MW4 1616   5.378   2.935   5.213 -0.0948 -0.0438  0.1773
  463SOL     OW 1617   3.109   0.595   0.467 -0.6507 -0.1660 -0.0024
  463SOL    HW2 1618   3.028   0.551   0.441  0.4210 -1.3977 -1.4791
  463SOL    HW3 1619   3.107   0.679   0.420 -2.1033  0.8761  1.8035
  463SOL    MW4 1620   3.098   0.600   0.457 -0.7009 -0.1910  0.0411
  464SOL     OW 1621   6.105   4.848   0.797  0.0992  0.3999  0.3178
  464SOL    HW2 1622   6.033   4.857   0.860  0.9303  3.4475  1.0359
  464SOL    HW3 1623   6.063   4.846   0.712 -0.8912  0.7175  0.7852
  464SOL    MW4 1624   6.090   4.849   0.794  0.0782  0.8439  0.4742
  465SOL     OW 1625   2.938   0.253   5.627 -0.2253 -0.4166 -0.1150
  465SOL    HW2 1626   2.982   0.338   5.637 -1.4809  0.2867 -0.3722
  465SOL    HW3 1627   2.889   0.241   5.708 -1.0507 -0.2964 -0.5919
  465SOL    MW4 1628   2.938   0.263   5.639 -0.4999 -0.3080 -0.2119
  466SOL     OW 1629   4.848   4.620   2.670 -0.0188 -0.4086 -0.0496
  466SOL    HW2 1630   4.878   4.700   2.626  1.5000 -1.8891 -1.8878
  466SOL    HW3 1631   4.903   4.614   2.748  0.8782 -0.3841 -0.6627
  466SOL    MW4 1632   4.859   4.630   2.675  0.2999 -0.6007 -0.3730
  467SOL     OW 1633   1.646   5.523   2.131  0.3515 -0.1128  0.0834
  467SOL    HW2 1634   1.663   5.614   2.157  1.5211 -0.3979  0.3978
  467SOL    HW3 1635   1.563   5.501   2.173  0.2269  0.7015  0.2887
  467SOL    MW4 1636   1.637   5.532   2.140  0.4894 -0.0430  0.1520
  468SOL     OW 1637   4.646   3.005   2.648 -0.3308 -0.1045 -0.5053
  468SOL    HW2 1638   4.689   3.090   2.659  1.0689 -0.9617  1.0226
  468SOL    HW3 1639   4.694   2.963   2.577  0.2621 -0.3784  0.0495
  468SOL    MW4 1640   4.658   3.010   2.640 -0.0679 -0.2538 -0.2305
  469SOL     OW 1641   1.110   2.742   5.561 -0.4349  0.0664  0.2644
  469SOL    HW2 1642   1.121   2.813   5.498 -0.9680 -0.2781 -0.2288
  469SOL    HW3 1643   1.189   2.689   5.552  0.4967  1.2032  1.4444
  469SOL    MW4 1644   1.122   2.744   5.551 -0.3823  0.1709  0.3550
  470SOL     OW 1645   4.010   2.196   2.358 -0.0317  0.0688 -0.6953
  470SOL    HW2 1646   4.079   2.229   2.301 -0.4844  1.0578 -0.6890
  470SOL    HW3 1647   4.000   2.264   2.425  0.7569 -1.2378  0.8125
  470SOL    MW4 1648   4.017   2.209   2.359  0.0126  0.0269 -0.4955
  471SOL     OW 1649   3.257   2.753   1.494 -0.2951 -0.3421 -0.4937
  471SOL    HW2 1650   3.297   2.832   1.529  2.6977 -0.8756 -2.3915
  471SOL    HW3 1651   3.291   2.682   1.548  1.4798 -0.7879 -2.0645
  471SOL    MW4 1652   3.266   2.754   1.506  0.3340 -0.4713 -0.9513
  472SOL     OW 1653   0.440   1.300   5.452 -0.2079  0.5774  0.3731
  472SOL    HW2 1654   0.521   1.348   5.431  0.3012  0.1824  1.3638
  472SOL    HW3 1655   0.437   1.229   5.387 -0.5019  1.4063 -0.5411
  472SOL    MW4 1656   0.451   1.297   5.440 -0.1795  0.6346  0.3832
  473SOL     OW 1657   3.538   4.439   0.349 -0.2612 -0.3602  0.0683
  473SOL    HW2 1658   3.563   4.531   0.336 -1.2050 -0.4334 -2.7269
  473SOL    HW3 1659   3.443   4.439   0.344 -0.2125 -1.7100 -2.1572
  473SOL    MW4 1660   3.529   4.451   0.347 -0.3793 -0.5479 -0.5941
  474SOL     OW 1661   1.377   0.478   0.143  0.1619 -0.2865 -0.0931
  474SOL    HW2 1662   1.359   0.487   0.236 -0.2814  0.8046 -0.2601
  474SOL    HW3 1663   1.293   0.453   0.105 -0.5884  2.5391 -0.5805
  474SOL    MW4 1664   1.364   0.476   0.150  0.0044  0.2303 -0.1795
  475SOL     OW 1665   0.813   3.920   2.809  0.2223 -0.1139  0.0922
  475SOL    HW2 1666   0.891   3.865   2.803 -0.3503 -0.9700  0.4085
  475SOL    HW3 1667   0.847   4.006   2.834  1.1948 -0.1249 -1.1198
  475SOL    MW4 1668   0.828   3.924   2.812  0.2751 -0.2283 -0.0260
  476SOL     OW 1669   4.198   5.721   0.173 -0.2473 -0.1641  0.6187
  476SOL    HW2 1670   4.164   5.688   0.256  0.3160  0.9739  1.3415
  476SOL    HW3 1671   4.259   5.790   0.199  1.4932 -1.1285 -0.6620
  476SOL    MW4 1672   4.202   5.726   0.187  0.0566 -0.1412  0.5451
  477SOL     OW 1673   6.178   0.929   5.102 -1.2323  0.0155 -0.2361
  477SOL    HW2 1674   6.249   0.865   5.101 -1.2875 -0.1091 -2.8509
  477SOL    HW3 1675   6.221   1.012   5.125 -0.5781 -0.3583 -0.0841
  477SOL    MW4 1676   6.193   0.931   5.105 -1.1533 -0.0502 -0.5611
  478SOL     OW 1677   0.687   5.065   3.149  0.5840  0.4303 -0.3571
  478SOL    HW2 1678   0.720   4.980   3.176 -2.1620  0.1312  2.6130
  478SOL    HW3 1679   0.609   5.045   3.096  1.6537  1.1590 -2.3212
  478SOL    MW4 1680   0.681   5.051   3.145  0.3628  0.4870 -0.2243
  479SOL     OW 1681   3.264   6.341   1.027 -0.0863 -0.0296 -0.3084
  479SOL    HW2 1682   3.291   6.420   0.981  2.2992 -0.3857  0.3357
  479SOL    HW3 1683   3.266   6.272   0.961  0.3249  0.0085 -0.3386
  479SOL    MW4 1684   3.268   6.342   1.012  0.2827 -0.0716 -0.2274
  480SOL     OW 1685   4.986   3.821   2.286 -0.5775  0.0043 -0.3001
  480SOL    HW2 1686   4.952   3.732   2.299  0.5431 -0.6853 -1.7260
  480SOL    HW3 1687   4.930   3.877   2.340 -1.8402 -1.4638 -0.0260
  480SOL    MW4 1688   4.974   3.817   2.295 -0.5962 -0.2804 -0.4520
  481SOL     OW 1689   2.536   0.823   4.960  0.0539  0.4048  0.4036
  481SOL    HW2 1690   2.472   0.763   4.998 -0.5702  0.4943 -0.4827
  481SOL    HW3 1691   2.521   0.906   5.004 -0.0100  0.2617  0.6520
  481SOL    MW4 1692   2.526   0.826   4.971 -0.0369  0.3977  0.3194
  482SOL     OW 1693   0.992   6.076   4.674  0.4870 -0.4345  0.3826
  482SOL    HW2 1694   1.037   6.003   4.716  0.6491 -0.6730 -0.2000
  482SOL    HW3 1695   1.061   6.128   4.634  0.3279 -0.2487  0.3445
  482SOL    MW4 1696   1.007   6.073   4.674  0.4874 -0.4414  0.3007
  483SOL     OW 1697   2.091   0.142   2.080 -0.1880 -0.1018 -0.8475
  483SOL    HW2 1698   2.047   0.126   1.997 -0.5362 -1.3441 -0.4456
  483SOL    HW3 1699   2.180   0.110   2.067  0.2944  1.3183 -1.2774
  483SOL    MW4 1700   2.097   0.136   2.067 -0.1703 -0.0784 -0.8512
  484SOL     OW 1701   5.399   0.039   2.383 -0.0729 -0.4825 -0.0100
  484SOL    HW2 1702   5.386   0.109   2.448  3.2024 -0.5020  0.8598
  484SOL    HW3 1703   5.342   0.063   2.310 -1.6044  1.2037  1.6374
  484SOL    MW4 1704   5.390   0.052   2.382  0.1572 -0.2626  0.3221
  485SOL     OW 1705   0.664   2.040   6.248 -0.3920 -0.0684  0.3601
  485SOL    HW2 1706   0.593   2.075   6.302 -0.3094  0.7452 -0.0329
  485SOL    HW3 1707   0.674   1.950   6.277  1.4710  1.0184  3.5810
  485SOL    MW4 1708   0.656   2.033   6.259 -0.1353  0.1823  0.7332
  486SOL     OW 1709   5.683   2.381   3.699  0.2602  0.2728  0.3957
  486SOL    HW2 1710   5.640   2.435   3.765  0.1068  1.5134 -0.6842
  486SOL    HW3 1711   5.674   2.431   3.618  3.3289  0.3762  0.0122
  486SOL    MW4 1712   5.676   2.395   3.697  0.6448  0.4501  0.2026
  487SOL     OW 1713   3.414   1.273   2.209  0.1120 -0.4125 -0.4129
  487SOL    HW2 1714   3.399   1.180   2.191 -1.4679 -0.6243  1.6733
  487SOL    HW3 1715   3.369   1.318   2.137 -2.5532 -1.2718  0.5768
  487SOL    MW4 1716   3.406   1.267   2.197 -0.4481 -0.5538 -0.0071
  488SOL     OW 1717   2.003   2.327   4.219 -0.0142  0.2615  0.3166
  488SOL    HW2 1718   1.983   2.408   4.171  0.6744  0.6704  0.6978
  488SOL    HW3 1719   1.944   2.329   4.294 -2.7398 -1.5096 -1.6182
  488SOL    MW4 1720   1.992   2.338   4.222 -0.2830  0.0818  0.1117
  489SOL     OW 1721   0.433   2.959   3.250 -0.3252 -0.5826 -0.8797
  489SOL    HW2 1722   0.463   2.915   3.170 -0.3298 -2.4333  0.0854
  489SOL    HW3 1723   0.449   2.895   3.320  1.0907  1.5632  0.8610
  489SOL    MW4 1724   0.439   2.944   3.248 -0.1390 -0.5437 -0.5227
  490SOL     OW 1725   4.935   6.092   0.462 -0.2548 -0.2684 -0.5441
  490SOL    HW2 1726   4.856   6.047   0.432 -1.1621 -0.4829  1.9169
  490SOL    HW3 1727   4.949   6.161   0.398 -2.6706 -0.0040 -0.9041
  490SOL    MW4 1728   4.926   6.095   0.450 -0.6932 -0.2618 -0.2669
  491SOL     OW 1729   3.883   6.193   2.477 -0.0458 -0.3624  0.1304
  491SOL    HW2 1730   3.811   6.136   2.505 -0.5791 -0.8188 -2.0179
  491SOL    HW3 1731   3.849   6.282   2.489  0.0096 -0.4974  1.4990
  491SOL    MW4 1732   3.869   6.197   2.482 -0.1089 -0.4404  0.0275
  492SOL     OW 1733   6.294   0.501   5.090 -0.2964 -0.0914  0.3830
  492SOL    HW2 1734   6.222   0.472   5.146  1.0214 -0.7855  1.7941
  492SOL    HW3 1735   6.251   0.537   5.013 -2.1391 -1.0159  0.9088
  492SOL    MW4 1736   6.279   0.502   5.087 -0.3657 -0.3049  0.6386
  493SOL     OW 1737   2.189   4.978   5.418 -0.2463 -0.0795 -0.1529
  493SOL    HW2 1738   2.142   5.012   5.494  2.4396  0.5505  1.3596
  493SOL    HW3 1739   2.131   4.912   5.381 -2.1144  0.3782  1.7800
  493SOL    MW4 1740   2.175   4.974   5.423 -0.1384  0.0640  0.3017
  494SOL     OW 1741   0.668   0.038   4.080 -0.4414  0.5549 -0.0359
  494SOL    HW2 1742   0.633   0.082   4.003 -0.8186 -0.5540 -0.5262
  494SOL    HW3 1743   0.757   0.072   4.089  0.1498 -0.3190 -1.8488
  494SOL    MW4 1744   0.675   0.048   4.071 -0.4132  0.2933 -0.3398
  495SOL     OW 1745   5.704   1.633   2.163  0.3914  0.0281  0.5453
  495SOL    HW2 1746   5.784   1.648   2.212  0.5338 -1.4481  0.8154
  495SOL    HW3 1747   5.699   1.538   2.153 -1.5304  0.0489  0.8688
  495SOL    MW4 1748   5.714   1.622   2.168  0.1566 -0.1639  0.6236
  496SOL     OW 1749   5.384   2.283   1.135 -0.4569 -0.0621  0.0568
  496SOL    HW2 1750   5.307   2.229   1.121 -1.1015  0.9178 -0.3086
  496SOL    HW3 1751   5.354   2.373   1.118  0.5265  0.4363  0.8273
  496SOL    MW4 1752   5.370   2.288   1.131 -0.4122  0.1329  0.1102
  497SOL     OW 1753   5.641   3.694   0.186 -0.2582  0.7438 -0.2751
  497SOL    HW2 1754   5.630   3.754   0.112  0.4184  2.4860  0.9893
  497SOL    HW3 1755   5.643   3.750   0.263 -0.0528 -0.9575  1.0130
  497SOL    MW4 1756   5.640   3.709   0.186 -0.1419  0.7492  0.0616
  498SOL     OW 1757   1.179   5.603   2.377  0.3023 -0.3375  0.1951
  498SOL    HW2 1758   1.162   5.521   2.424  0.2276  0.1182  0.9933
  498SOL    HW3 1759   1.194   5.576   2.286 -0.6248 -1.1562  0.2580
  498SOL    MW4 1760   1.178   5.588   2.371  0.1701 -0.3854  0.3087
  499SOL     OW 1761   1.090   3.725   1.481 -0.1253 -0.4076 -0.1460
  499SOL    HW2 1762   1.016   3.675   1.517 -0.5150  0.1105 -0.2125
  499SOL    HW3 1763   1.063   3.817   1.491 -0.0409 -0.2380 -1.3361
  499SOL    MW4 1764   1.076   3.731   1.487 -0.1656 -0.3169 -0.3118
  500SOL     OW 1765   5.577   2.499   6.174 -0.7495 -0.2493  0.5650
  500SOL    HW2 1766   5.608   2.479   6.086  2.5878 -0.6031  1.6639
  500SOL    HW3 1767   5.551   2.415   6.210 -0.1234 -0.4423  0.5785
  500SOL    MW4 1768   5.578   2.486   6.167 -0.2266 -0.3215  0.7118
  501SOL     OW 1769   4.648   5.169   5.152 -0.4547  0.0748  0.0499
  501SOL    HW2 1770   4.591   5.189   5.226  0.2253  1.0381  0.3372
  501SOL    HW3 1771   4.719   5.116   5.190 -1.9905 -2.6215 -0.6170
  501SOL    MW4 1772   4.650   5.165   5.167 -0.5676 -0.1539 -0.0002
  502SOL     OW 1773   2.254   3.821   5.548  0.4644  1.0257  0.7369
  502SOL    HW2 1774   2.232   3.914   5.547 -0.9307  0.7291  0.5102
  502SOL    HW3 1775   2.349   3.818   5.551  0.5300  2.4577  0.7074
  502SOL    MW4 1776   2.263   3.833   5.548  0.2890  1.1755  0.7031
  503SOL     OW 1777   2.755   0.678   0.467  0.1439  0.1221  0.1516
  503SOL    HW2 1778   2.768   0.608   0.404  0.7855  0.7941 -0.4883
  503SOL    HW3 1779   2.785   0.642   0.551  1.0485 -0.1790 -0.2854
  503SOL    MW4 1780   2.761   0.664   0.470  0.3479  0.1710  0.0095
  504SOL     OW 1781   1.236   1.546   4.295  0.4695 -0.1391  0.2975
  504SOL    HW2 1782   1.306   1.511   4.240  0.1623 -0.7884  0.3137
  504SOL    HW3 1783   1.156   1.526   4.247  0.3380  1.5098 -0.2215
  504SOL    MW4 1784   1.235   1.539   4.281  0.4116 -0.0072  0.2312
  505SOL     OW 1785   1.355   1.241   5.263  0.1229  0.9153  0.0839
  505SOL    HW2 1786   1.304   1.161   5.251  0.2057  0.7542  0.7215
  505SOL    HW3 1787   1.432   1.229   5.207 -1.0619  1.6685 -1.7907
  505SOL    MW4 1788   1.358   1.229   5.254 -0.0225  0.9934 -0.0793
  506SOL     OW 1789   2.210   5.948   1.312  0.2719  0.2638 -0.5152
  506SOL    HW2 1790   2.123   5.908   1.315 -0.0126  0.9418  0.5722
  506SOL    HW3 1791   2.271   5.875   1.326 -0.1540 -0.0704 -0.4001
  506SOL    MW4 1792   2.207   5.933   1.314  0.1782  0.3092 -0.3566
  507SOL     OW 1793   1.863   5.580   6.324  0.5003  0.1541 -0.1813
  507SOL    HW2 1794   1.868   5.597   6.418  3.0405  1.5828 -0.5151
  507SOL    HW3 1795   1.916   5.501   6.311 -0.7147 -0.6675 -0.3215
  507SOL    MW4 1796   1.870   5.572   6.335  0.6751  0.2342 -0.2439
  508SOL     OW 1797   5.486   3.369   1.702 -0.3747 -0.0698 -0.2798
  508SOL    HW2 1798   5.427   3.350   1.775 -0.1657  1.1706  0.2334
  508SOL    HW3 1799   5.433   3.418   1.640 -0.3613 -0.5152 -0.6489
  508SOL    MW4 1800   5.471   3.373   1.704 -0.3454  0.0351 -0.2608
  509SOL     OW 1801   0.500   4.308   4.185 -0.3272  0.0565  0.3396
  509SOL    HW2 1802   0.452   4.381   4.145 -2.0989 -1.0565  0.3473
  509SOL    HW3 1803   0.502   4.330   4.278  1.3643  1.2768  0.0728
  509SOL    MW4 1804   0.494   4.321   4.192 -0.3378  0.0706  0.3054
  510SOL     OW 1805   0.118   4.197   3.408  0.2587  0.2915 -0.0483
  510SOL    HW2 1806   0.171   4.229   3.335 -1.8345 -0.4964 -2.0696
  510SOL    HW3 1807   0.048   4.146   3.366 -1.2840  0.0979  2.5056
  510SOL    MW4 1808   0.116   4.194   3.393 -0.2210  0.1620  0.0219
  511SOL     OW 1809   0.986   4.335   5.869  0.1992  0.1768  0.2481
  511SOL    HW2 1810   0.906   4.373   5.831 -0.2800 -0.3359  0.7265
  511SOL    HW3 1811   1.051   4.343   5.799 -0.6403 -0.6378 -0.6561
  511SOL    MW4 1812   0.984   4.341   5.854  0.0252  0.0017  0.1919
  512SOL     OW 1813   6.270   4.696   4.793  0.4716  0.7676  0.6169
  512SOL    HW2 1814   6.225   4.620   4.756  1.2929  0.6739 -0.2417
  512SOL    HW3 1815   6.337   4.659   4.850  1.9365  0.7350 -1.0221
  512SOL    MW4 1816   6.273   4.681   4.795  0.7732  0.7509  0.2874
  513SOL     OW 1817   2.562   0.186   2.486 -0.0267  0.4604  0.0506
  513SOL    HW2 1818   2.596   0.207   2.573 -1.7763  0.6023  0.7501
  513SOL    HW3 1819   2.629   0.130   2.446  1.1572  1.0292  1.1812
  513SOL    MW4 1820   2.575   0.181   2.492 -0.1013  0.5542  0.2921
  514SOL     OW 1821   0.776   0.961   2.627  0.5508 -0.1717  0.2786
  514SOL    HW2 1822   0.732   1.041   2.599 -1.5427 -1.7005 -1.1042
  514SOL    HW3 1823   0.716   0.922   2.691  2.1032 -0.1018  1.8488
  514SOL    MW4 1824   0.762   0.966   2.632  0.4794 -0.3642  0.3033
  515SOL     OW 1825   6.053   2.437   3.609  0.1932  0.2719  0.1410
  515SOL    HW2 1826   6.009   2.483   3.681  1.1860  0.0900  0.8855
  515SOL    HW3 1827   5.987   2.375   3.577 -1.0311  1.8552 -0.5959
  515SOL    MW4 1828   6.038   2.435   3.614  0.1627  0.4568  0.1420
  516SOL     OW 1829   2.343   2.040   5.343  0.2060 -0.1704 -0.4102
  516SOL    HW2 1830   2.281   1.995   5.400 -0.1762  0.0187 -0.6765
  516SOL    HW3 1831   2.350   1.984   5.266 -0.3890  0.3039 -0.8100
  516SOL    MW4 1832   2.336   2.027   5.340  0.0770 -0.0829 -0.4981
  517SOL     OW 1833   2.989   2.830   1.539 -0.1533 -0.0502 -0.1047
  517SOL    HW2 1834   3.084   2.816   1.534 -0.3941 -2.0369  0.4530
  517SOL    HW3 1835   2.954   2.750   1.578 -2.0985  0.5736 -0.4628
  517SOL    MW4 1836   2.997   2.818   1.544 -0.4417 -0.2301 -0.0783
  518SOL     OW 1837   4.926   5.803   2.478  0.3619 -0.2639  0.2674
  518SOL    HW2 1838   4.985   5.741   2.435  2.1386  1.4681  0.0858
  518SOL    HW3 1839   4.948   5.797   2.570 -1.3918 -1.8112  0.6605
  518SOL    MW4 1840   4.937   5.794   2.484  0.3650 -0.2396  0.2953
  519SOL     OW 1841   5.924   5.508   4.442  0.3298 -0.3790 -0.1250
  519SOL    HW2 1842   5.933   5.578   4.506 -1.1440 -0.0161 -0.2683
  519SOL    HW3 1843   5.855   5.538   4.383 -0.0941 -1.7823 -0.3990
  519SOL    MW4 1844   5.916   5.521   4.443  0.0794 -0.5163 -0.1801
  520SOL     OW 1845   3.988   4.801   2.199 -0.4991  0.3555 -0.4986
  520SOL    HW2 1846   3.966   4.724   2.250  0.6166  0.7188  0.5905
  520SOL    HW3 1847   3.921   4.806   2.131 -1.2107 -0.9316  0.0890
  520SOL    MW4 1848   3.976   4.791   2.197 -0.4458  0.2336 -0.2774
  521SOL     OW 1849   4.219   0.847   4.231 -0.3178 -0.3903  0.0238
  521SOL    HW2 1850   4.270   0.787   4.177  0.3358  0.6661 -0.5568
  521SOL    HW3 1851   4.214   0.927   4.180  1.6504  1.1928  2.1215
  521SOL    MW4 1852   4.225   0.849   4.218  0.0281 -0.0421  0.2239
  522SOL     OW 1853   5.082   5.401   0.815  0.3273 -0.0871  0.3029
  522SOL    HW2 1854   4.989   5.405   0.840  0.4263 -0.5387  0.7575
  522SOL    HW3 1855   5.129   5.414   0.897  0.6646 -0.9092  0.2443
  522SOL    MW4 1856   5.076   5.403   0.829  0.3849 -0.2551  0.3551
  523SOL     OW 1857   1.459   2.719   0.025  0.1839  0.4100 -0.5028
  523SOL    HW2 1858   1.428   2.778   0.093 -0.7333 -0.4380 -0.1558
  523SOL    HW3 1859   1.525   2.664   0.068  0.3939  0.5962 -0.5877
  523SOL    MW4 1860   1.464   2.719   0.039  0.0906  0.3227 -0.4682
  524SOL     OW 1861   2.997   1.610   1.581 -0.4539 -0.2720  0.0352
  524SOL    HW2 1862   3.065   1.590   1.645 -0.5982  1.2695  0.7170
  524SOL    HW3 1863   2.969   1.699   1.602 -1.9169 -0.4585 -0.9270
  524SOL    MW4 1864   3.002   1.619   1.592 -0.6660 -0.0932 -0.0018
  525SOL     OW 1865   4.254   2.564   0.457 -0.5888 -0.5050  0.1487
  525SOL    HW2 1866   4.270   2.615   0.377 -0.7171 -0.4206  0.1762
  525SOL    HW3 1867   4.300   2.482   0.442  0.5158  0.0209  0.5407
  525SOL    MW4 1868   4.263   2.560   0.444 -0.4600 -0.4245  0.2040
  526SOL     OW 1869   3.638   6.089   5.948  0.0667  0.0789  0.6872
  526SOL    HW2 1870   3.715   6.035   5.930 -0.2167  0.2097 -1.0620
  526SOL    HW3 1871   3.649   6.116   6.040  1.6746 -0.5747  0.7236
  526SOL    MW4 1872   3.650   6.085   5.958  0.2415  0.0099  0.4612
  527SOL     OW 1873   6.316   1.797   5.467  0.2268 -0.7317  0.4543
  527SOL    HW2 1874   6.303   1.707   5.435  1.3575 -1.1848  1.2090
  527SOL    HW3 1875   6.362   1.786   5.550  0.4007  0.5584  0.5411
  527SOL    MW4 1876   6.320   1.784   5.474  0.3989 -0.6212  0.5653
  528SOL     OW 1877   5.014   4.063   4.741 -0.4548  0.1870 -0.5869
  528SOL    HW2 1878   5.063   4.135   4.780  1.1400 -0.8293 -0.6333
  528SOL    HW3 1879   4.925   4.097   4.732 -0.1222  1.5795  0.8783
  528SOL    MW4 1880   5.008   4.077   4.745 -0.2005  0.2366 -0.3997
  529SOL     OW 1881   0.516   1.411   4.502 -0.3692 -0.4053  0.7421
  529SOL    HW2 1882   0.461   1.448   4.434  0.3460 -1.3288 -0.3876
  529SOL    HW3 1883   0.455   1.365   4.560 -0.8683 -0.7896 -0.0674
  529SOL    MW4 1884   0.501   1.410   4.501 -0.3407 -0.5779  0.4862
  530SOL     OW 1885   6.138   5.906   0.553  0.5053 -0.1479 -0.1403
  530SOL    HW2 1886   6.068   5.944   0.607  0.9189  0.6479 -0.1415
  530SOL    HW3 1887   6.138   5.960   0.474  0.7004 -0.5470 -0.4133
  530SOL    MW4 1888   6.129   5.918   0.550  0.5856 -0.0955 -0.1765
  531SOL     OW 1889   4.780   1.441   2.295 -0.4232 -0.3197 -0.0887
  531SOL    HW2 1890   4.811   1.352   2.310  0.8312  0.2963  1.1795
  531SOL    HW3 1891   4.705   1.451   2.354 -0.9590 -0.7099 -0.6848
  531SOL    MW4 1892   4.774   1.430   2.304 -0.3284 -0.2899 -0.0000
  532SOL     OW 1893   3.066   5.314   5.588 -0.1118 -0.2841 -0.1200
  532SOL    HW2 1894   3.125   5.360   5.529  0.4538  1.0853  1.4362
  532SOL    HW3 1895   3.070   5.223   5.559  3.9540 -0.5842  0.7143
  532SOL    MW4 1896   3.075   5.308   5.577  0.4993 -0.1430  0.1954
  533SOL     OW 1897   1.715   0.567   2.035 -0.2265  0.3988 -0.2098
  533SOL    HW2 1898   1.701   0.636   1.970 -1.5779 -0.1925 -0.5826
  533SOL    HW3 1899   1.718   0.613   2.119 -0.1044  1.0147 -0.5497
  533SOL    MW4 1900   1.713   0.582   2.038 -0.3887  0.4020 -0.3038
  534SOL     OW 1901   4.132   5.477   5.446 -0.6855 -0.2289  0.1878
  534SOL    HW2 1902   4.215   5.518   5.424 -0.6988 -0.1601  0.2647
  534SOL    HW3 1903   4.147   5.434   5.530 -0.6045 -0.5835 -0.0083
  534SOL    MW4 1904   4.145   5.476   5.454 -0.6765 -0.2666  0.1721
  535SOL     OW 1905   3.201   2.423   5.251 -0.3625  0.4667 -0.5336
  535SOL    HW2 1906   3.221   2.457   5.339  0.5821  2.2450 -1.3787
  535SOL    HW3 1907   3.240   2.487   5.192 -2.0404 -0.0413 -2.2769
  535SOL    MW4 1908   3.209   2.436   5.255 -0.4593  0.6343 -0.8751
  536SOL     OW 1909   1.759   4.995   5.765 -0.1209  0.2324  0.6352
  536SOL    HW2 1910   1.761   5.011   5.671 -1.7746 -1.6139  0.2035
  536SOL    HW3 1911   1.670   5.017   5.791  0.1923  0.3068  1.6980
  536SOL    MW4 1912   1.748   5.000   5.756 -0.2978 -0.0014  0.7185
  537SOL     OW 1913   0.284   3.798   3.324  0.1656 -0.1401  0.5545
  537SOL    HW2 1914   0.277   3.884   3.366 -0.8057 -0.2107  0.5448
  537SOL    HW3 1915   0.216   3.797   3.258 -0.1458 -1.0996  0.8712
  537SOL    MW4 1916   0.274   3.809   3.321 -0.0037 -0.2760  0.5950
  538SOL     OW 1917   6.077   4.841   2.783  0.8603 -0.1795  0.1563
  538SOL    HW2 1918   6.007   4.781   2.808  0.5795 -0.2851 -0.8526
  538SOL    HW3 1919   6.033   4.924   2.766  0.7743 -0.5530 -1.6719
  538SOL    MW4 1920   6.062   4.844   2.784  0.8119 -0.2427 -0.2180
  539SOL     OW 1921   1.377   1.990   5.817 -0.3203 -0.0621  0.0780
  539SOL    HW2 1922   1.375   1.950   5.904  0.3798 -0.1061  0.0839
  539SOL    HW3 1923   1.467   2.022   5.808 -0.5646  0.5191 -0.3723
  539SOL    MW4 1924   1.389   1.989   5.827 -0.2602  0.0088  0.0194
  540SOL     OW 1925   5.713   3.444   1.273  0.7108 -0.0376 -0.0153
  540SOL    HW2 1926   5.621   3.470   1.264  1.0292  0.6767 -1.4354
  540SOL    HW3 1927   5.747   3.499   1.343  0.0893 -0.2331  0.4471
  540SOL    MW4 1928   5.705   3.454   1.281  0.6708  0.0308 -0.1416
  541SOL     OW 1929   3.681   3.829   3.824  0.0927 -0.8142  0.5932
  541SOL    HW2 1930   3.748   3.877   3.776  0.6012  0.2809  2.3167
  541SOL    HW3 1931   3.625   3.792   3.756  0.2506  1.3918 -0.8281
  541SOL    MW4 1932   3.683   3.830   3.808  0.1806 -0.3787  0.6331
  542SOL     OW 1933   6.365   5.745   1.293 -0.0467 -0.6733 -0.1749
  542SOL    HW2 1934   6.356   5.779   1.382 -2.2341 -0.7967 -0.2859
  542SOL    HW3 1935   6.445   5.693   1.294 -0.2638 -1.0299  1.8297
  542SOL    MW4 1936   6.374   5.743   1.305 -0.3640 -0.7366  0.0750
  543SOL     OW 1937   4.206   3.180   5.624  0.5305  0.7956  0.1716
  543SOL    HW2 1938   4.258   3.246   5.670  1.1117  0.8175 -0.5012
  543SOL    HW3 1939   4.245   3.176   5.537  0.1762 -0.0726  0.0487
  543SOL    MW4 1940   4.218   3.188   5.619  0.5604  0.6840  0.0666
  544SOL     OW 1941   5.105   4.751   6.085 -0.1533 -0.3025 -0.5197
  544SOL    HW2 1942   5.133   4.826   6.032  0.9106 -0.6436 -0.4756
  544SOL    HW3 1943   5.097   4.787   6.174  1.7809 -0.4993 -0.2094
  544SOL    MW4 1944   5.108   4.766   6.090  0.2423 -0.3735 -0.4729
  545SOL     OW 1945   1.697   5.671   3.817  0.1435 -0.3186  0.1114
  545SOL    HW2 1946   1.680   5.723   3.739 -2.2472 -0.1181  0.7065
  545SOL    HW3 1947   1.733   5.733   3.881  0.3071 -0.0770 -0.2152
  545SOL    MW4 1948   1.700   5.686   3.815 -0.1503 -0.2603  0.1468
  546SOL     OW 1949   1.044   3.083   3.694  0.0772 -0.5034 -0.3440
  546SOL    HW2 1950   1.121   3.052   3.740  0.5171  0.8481 -0.1064
  546SOL    HW3 1951   1.053   3.050   3.605  0.3429 -1.3057 -0.0231
  546SOL    MW4 1952   1.055   3.075   3.688  0.1703 -0.4310 -0.2703
  547SOL     OW 1953   5.496   5.645   0.996 -0.0651 -0.8004  0.0273
  547SOL    HW2 1954   5.442   5.633   1.075  1.7426  0.9303  1.6332
  547SOL    HW3 1955   5.494   5.740   0.981 -0.2631 -1.0793 -2.0048
  547SOL    MW4 1956   5.488   5.656   1.005  0.1473 -0.6089 -0.0289
  548SOL     OW 1957   1.953   5.259   0.156  0.3330 -0.1106  0.0904
  548SOL    HW2 1958   1.910   5.174   0.144 -1.3223  0.7058 -0.0356
  548SOL    HW3 1959   1.906   5.299   0.229 -0.4981  1.6327 -1.3214
  548SOL    MW4 1960   1.941   5.253   0.164  0.0050  0.2272 -0.1125
  549SOL     OW 1961   5.868   2.711   2.765 -0.1453  0.0615  0.3566
  549SOL    HW2 1962   5.802   2.770   2.802 -1.4804 -0.2714 -1.4023
  549SOL    HW3 1963   5.871   2.637   2.827 -1.2047  0.2244  0.6193
  549SOL    MW4 1964   5.860   2.709   2.778 -0.4612  0.0390  0.1592
  550SOL     OW 1965   0.428   5.634   2.961  0.1232  0.0153  0.7045
  550SOL    HW2 1966   0.508   5.680   2.934 -0.3166  0.7259  0.5972
  550SOL    HW3 1967   0.456   5.543   2.974  1.5869  0.7509  3.3932
  550SOL    MW4 1968   0.442   5.628   2.959  0.2583  0.2061  1.0451
  551SOL     OW 1969   0.884   4.654   1.126 -0.0863 -0.0172 -0.0505
  551SOL    HW2 1970   0.885   4.569   1.172  0.3120 -1.1715 -2.0735
  551SOL    HW3 1971   0.974   4.669   1.100 -0.0403  1.3814  0.8121
  551SOL    MW4 1972   0.896   4.644   1.129 -0.0277  0.0150 -0.2036
  552SOL     OW 1973   5.484   2.272   4.193 -0.3005  0.1159  0.0976
  552SOL    HW2 1974   5.403   2.273   4.245  0.4842 -1.8480  1.4888
  552SOL    HW3 1975   5.545   2.326   4.244 -0.4781  0.9420 -0.5445
  552SOL    MW4 1976   5.481   2.280   4.207 -0.2204 -0.0342  0.1965
  553SOL     OW 1977   0.488   0.018   2.838  0.1711  0.0639  0.2587
  553SOL    HW2 1978   0.564   0.075   2.826 -0.2325  0.9160  1.5800
  553SOL    HW3 1979   0.493  -0.012   2.929 -0.7501 -0.3413  0.1913
  553SOL    MW4 1980   0.499   0.022   2.848 -0.0037  0.1229  0.4241
  554SOL     OW 1981   6.300   4.740   0.546 -0.0265  0.1032 -0.0356
  554SOL    HW2 1982   6.366   4.673   0.562 -0.3317 -0.2809 -0.3566
  554SOL    HW3 1983   6.336   4.819   0.584  1.3014  0.2608 -1.5419
  554SOL    MW4 1984   6.313   4.741   0.553  0.1084  0.0733 -0.2767
  555SOL     OW 1985   0.915   4.729   3.897  0.4450 -0.3970 -0.0177
  555SOL    HW2 1986   0.949   4.716   3.986  0.1604  0.0469  0.1593
  555SOL    HW3 1987   0.954   4.811   3.868  0.8699 -0.7513 -0.4690
  555SOL    MW4 1988   0.925   4.738   3.905  0.4635 -0.3852 -0.0539
  556SOL     OW 1989   5.475   0.255   2.041 -0.4345  0.2952 -0.7402
  556SOL    HW2 1990   5.467   0.166   2.006 -0.9724 -1.0992  2.5672
  556SOL    HW3 1991   5.569   0.273   2.037 -0.2926 -0.4905 -1.2315
  556SOL    MW4 1992   5.487   0.245   2.036 -0.4868  0.0076 -0.3687
  557SOL     OW 1993   2.358   4.263   1.675 -0.0412  0.2155 -0.3566
  557SOL    HW2 1994   2.287   4.256   1.738 -0.6292  0.9020 -0.9240
  557SOL    HW3 1995   2.345   4.348   1.633  0.1846 -0.3342 -1.5814
  557SOL    MW4 1996   2.347   4.273   1.678 -0.0890  0.2336 -0.5931
  558SOL     OW 1997   3.349   2.570   1.683 -0.4850  0.1930  0.5542
  558SOL    HW2 1998   3.390   2.640   1.733  1.6044 -0.8016  0.3498
  558SOL    HW3 1999   3.421   2.512   1.659 -1.9631 -1.3799 -0.3461
  558SOL    MW4 2000   3.364   2.572   1.686 -0.4043 -0.1457  0.4084
  559SOL     OW 2001   5.029   3.550   5.157  0.1183  0.2311  0.3684
  559SOL    HW2 2002   4.996   3.473   5.204 -2.3017  0.1759 -1.2033
  559SOL    HW3 2003   5.089   3.514   5.092 -1.4573 -0.4772 -0.7588
  559SOL    MW4 2004   5.033   3.535   5.155 -0.4088  0.1304  0.0123
  560SOL     OW 2005   4.566   6.039   1.780 -0.3968  0.3610 -0.2704
  560SOL    HW2 2006   4.547   6.133   1.777  2.0907  0.9313  0.0895
  560SOL    HW3 2007   4.479   5.998   1.782 -1.5705  2.6739  0.8210
  560SOL    MW4 2008   4.552   6.046   1.780 -0.2235  0.7414 -0.0789
  561SOL     OW 2009   0.474   4.416   4.449 -0.2291  0.0411  0.3643
  561SOL    HW2 2010   0.556   4.446   4.488 -0.2316 -0.8456  1.0790
  561SOL    HW3 2011   0.442   4.349   4.509 -1.0235 -0.2560 -0.3731
  561SOL    MW4 2012   0.481   4.411   4.462 -0.3342 -0.1151  0.3613
  562SOL     OW 2013   0.713   4.138   0.113  0.0364 -0.4582  0.5401
  562SOL    HW2 2014   0.751   4.212   0.160 -0.1083 -0.2994  0.4075
  562SOL    HW3 2015   0.777   4.116   0.045  0.5136 -1.0588  1.1751
  562SOL    MW4 2016   0.726   4.145   0.110  0.0803 -0.5165  0.6064
  563SOL     OW 2017   5.393   5.131   4.345 -0.7113  0.3836  0.1772
  563SOL    HW2 2018   5.461   5.199   4.343 -1.1570  0.8510  0.5416
  563SOL    HW3 2019   5.429   5.059   4.294 -0.3899  1.0565 -0.5635
  563SOL    MW4 2020   5.406   5.131   4.338 -0.7277  0.5340  0.1276
  564SOL     OW 2021   1.708   3.395   1.275 -0.0673  0.0524  0.2340
  564SOL    HW2 2022   1.777   3.334   1.301  0.5826  0.2969 -0.8783
  564SOL    HW3 2023   1.751   3.480   1.270 -0.6335  0.3534  0.3130
  564SOL    MW4 2024   1.722   3.398   1.278 -0.0563  0.1244  0.0977
  565SOL     OW 2025   4.416   0.878   5.807  0.7410  1.0941 -0.3472
  565SOL    HW2 2026   4.368   0.954   5.838  0.9347  1.0211  0.1465
  565SOL    HW3 2027   4.353   0.806   5.813  0.4586  1.2708 -1.1239
  565SOL    MW4 2028   4.401   0.878   5.812  0.7293  1.1078 -0.3845
  566SOL     OW 2029   5.310   5.309   6.093  0.3701  0.1149 -0.2395
  566SOL    HW2 2030   5.385   5.368   6.097  0.8005 -0.4414  0.1156
  566SOL    HW3 2031   5.285   5.295   6.184 -1.7155  2.1930 -0.4020
  566SOL    MW4 2032   5.316   5.315   6.106  0.1517  0.3157 -0.2141
  567SOL     OW 2033   2.368   5.459   2.058 -0.2662  0.3404  0.2650
  567SOL    HW2 2034   2.370   5.553   2.079  1.7743  0.9459 -2.1285
  567SOL    HW3 2035   2.430   5.419   2.120 -0.2952  0.7446  0.5604
  567SOL    MW4 2036   2.376   5.466   2.069 -0.0008  0.4736 -0.0118
  568SOL     OW 2037   0.784   2.814   1.145 -0.3024 -0.0631  0.0845
  568SOL    HW2 2038   0.732   2.794   1.223 -0.1000 -0.5102  0.1121
  568SOL    HW3 2039   0.719   2.825   1.076 -0.4888  0.4454  0.3351
  568SOL    MW4 2040   0.769   2.813   1.146 -0.3003 -0.0550  0.1212
  569SOL     OW 2041   1.417   5.933   1.125  0.3099 -0.4968 -0.5348
  569SOL    HW2 2042   1.415   5.874   1.050 -1.9981  0.9106 -1.6861
  569SOL    HW3 2043   1.451   5.880   1.197 -2.5729 -3.5558 -1.2256
  569SOL    MW4 2044   1.421   5.918   1.124 -0.3749 -0.7147 -0.7778
  570SOL     OW 2045   2.697   1.391   1.863 -0.3000  0.1140 -0.3267
  570SOL    HW2 2046   2.680   1.297   1.860  1.0244 -0.1336 -0.6350
  570SOL    HW3 2047   2.678   1.421   1.773 -0.2644  0.0659 -0.3499
  570SOL    MW4 2048   2.692   1.383   1.851 -0.1206  0.0750 -0.3704
  571SOL     OW 2049   6.116   1.823   3.223  0.2188  0.2536  0.0530
  571SOL    HW2 2050   6.146   1.910   3.194 -0.0589  0.2892 -0.1330
  571SOL    HW3 2051   6.125   1.825   3.318 -1.8841  1.2966  0.2905
  571SOL    MW4 2052   6.121   1.835   3.231 -0.0953  0.3959  0.0598
  572SOL     OW 2053   2.446   5.141   0.362 -0.5117 -0.0192 -0.3982
  572SOL    HW2 2054   2.448   5.217   0.420 -0.8252 -0.3193  0.0128
  572SOL    HW3 2055   2.361   5.147   0.318 -0.2017  0.3026 -0.9556
  572SOL    MW4 2056   2.435   5.152   0.364 -0.5121 -0.0164 -0.4175
  573SOL     OW 2057   0.356   6.057   3.737  0.7320  0.3800 -0.1016
  573SOL    HW2 2058   0.424   6.035   3.673  1.1785  0.0403  0.4764
  573SOL    HW3 2059   0.339   6.150   3.724  1.6025  0.5635  0.0112
  573SOL    MW4 2060   0.363   6.066   3.727  0.9058  0.3594 -0.0105
  574SOL     OW 2061   2.628   1.049   0.093 -0.4011  0.1706 -0.2278
  574SOL    HW2 2062   2.647   1.092   0.176 -1.1074 -0.0285  0.0448
  574SOL    HW3 2063   2.655   1.112   0.026  0.8169  0.0544  0.1360
  574SOL    MW4 2064   2.634   1.063   0.095 -0.3336  0.1290 -0.1438
  575SOL     OW 2065   2.775   3.995   1.675 -0.5213 -0.0235  0.4579
  575SOL    HW2 2066   2.816   4.082   1.679 -0.5835  0.0007  0.5721
  575SOL    HW3 2067   2.681   4.013   1.669 -0.4974 -0.0761 -0.0827
  575SOL    MW4 2068   2.768   4.009   1.675 -0.5263 -0.0272  0.4017
  576SOL     OW 2069   0.722   5.391   0.598 -0.1244 -0.9986 -0.4313
  576SOL    HW2 2070   0.642   5.405   0.648 -0.7584 -0.2069 -1.6115
  576SOL    HW3 2071   0.717   5.455   0.527  1.5376 -0.9750 -0.5573
  576SOL    MW4 2072   0.711   5.401   0.595  0.0112 -0.8910 -0.6036
  577SOL     OW 2073   2.187   3.385   1.188  0.1876 -0.0244 -0.4447
  577SOL    HW2 2074   2.120   3.326   1.224 -0.0140  1.3982  1.6403
  577SOL    HW3 2075   2.269   3.352   1.223  0.2343  0.0962 -0.4430
  577SOL    MW4 2076   2.189   3.373   1.197  0.1671  0.1792 -0.1694
  578SOL     OW 2077   2.274   5.206   2.762 -0.3048  0.1500  0.3521
  578SOL    HW2 2078   2.231   5.283   2.724  0.8871  1.5015  1.5855
  578SOL    HW3 2079   2.321   5.166   2.689 -2.5900 -0.6615 -0.7556
  578SOL    MW4 2080   2.274   5.211   2.747 -0.4490  0.2212  0.3687
  579SOL     OW 2081   1.428   1.145   4.411  0.1463 -1.2716 -0.1191
  579SOL    HW2 2082   1.487   1.219   4.397 -0.3181 -0.8021  0.3498
  579SOL    HW3 2083   1.343   1.185   4.431 -0.3785 -1.9301 -0.9187
  579SOL    MW4 2084   1.424   1.160   4.411  0.0158 -1.2965 -0.1628
  580SOL     OW 2085   2.980   1.879   1.951 -0.5261  0.2390  0.2887
  580SOL    HW2 2086   2.962   1.901   2.042  1.3305  0.8678  0.5393
  580SOL    HW3 2087   2.942   1.792   1.939 -1.1386  0.3225  1.5391
  580SOL    MW4 2088   2.973   1.870   1.961 -0.3619  0.3330  0.4868
  581SOL     OW 2089   0.685   0.355   0.808 -0.2343 -0.2947  0.0622
  581SOL    HW2 2090   0.773   0.317   0.811  0.2997  0.8994  0.1874
  581SOL    HW3 2091   0.635   0.303   0.871  0.8477  0.0853  1.2834
  581SOL    MW4 2092   0.690   0.343   0.817 -0.0211 -0.0870  0.2398
  582SOL     OW 2093   1.699   3.867   1.171 -0.0824  0.7151 -0.5023
  582SOL    HW2 2094   1.755   3.792   1.188  0.8092  1.0451 -1.8583
  582SOL    HW3 2095   1.611   3.836   1.192  0.4806 -0.0436  0.9311
  582SOL    MW4 2096   1.695   3.853   1.176  0.1095  0.6586 -0.4921
  583SOL     OW 2097   2.424   1.015   0.474  0.4358 -0.3493 -0.5773
  583SOL    HW2 2098   2.370   1.040   0.549 -0.4024 -0.7269 -1.0376
  583SOL    HW3 2099   2.438   1.098   0.427  0.7169 -0.1607 -0.1640
  583SOL    MW4 2100   2.419   1.029   0.478  0.3623 -0.3742 -0.5835
  584SOL     OW 2101   0.187   5.078   2.180 -0.3667  0.6819 -0.3120
  584SOL    HW2 2102   0.175   5.074   2.275  0.9161  0.5453 -0.1375
  584SOL    HW3 2103   0.276   5.046   2.166 -0.3367  1.2473 -1.5157
  584SOL    MW4 2104   0.197   5.073   2.191 -0.1935  0.7385 -0.4478
  585SOL     OW 2105   1.537   1.715   3.565  0.0176 -0.0587 -0.0863
  585SOL    HW2 2106   1.626   1.702   3.534 -0.3849 -1.1076 -0.8710
  585SOL    HW3 2107   1.538   1.801   3.608  1.5504 -0.3653  0.5208
  585SOL    MW4 2108   1.549   1.725   3.567  0.1667 -0.2376 -0.1098
  586SOL     OW 2109   3.041   4.754   3.287 -0.0436  0.0171 -0.0884
  586SOL    HW2 2110   2.947   4.751   3.267 -0.1079 -1.6963  0.2902
  586SOL    HW3 2111   3.044   4.784   3.378 -0.0482  2.3683 -0.7914
  586SOL    MW4 2112   3.029   4.758   3.296 -0.0527  0.1012 -0.1312
  587SOL     OW 2113   3.238   0.341   1.132 -0.1661  0.7122  0.4659
  587SOL    HW2 2114   3.217   0.320   1.041 -1.5599 -2.3476  1.3496
  587SOL    HW3 2115   3.289   0.422   1.128 -2.5060  2.1940 -2.7836
  587SOL    MW4 2116   3.242   0.349   1.120 -0.6587  0.5040  0.1538
  588SOL     OW 2117   3.504   5.172   2.960  0.5054  0.4204 -0.4679
  588SOL    HW2 2118   3.569   5.198   3.026 -1.5823  2.1186  1.0564
  588SOL    HW3 2119   3.476   5.254   2.920 -0.7567 -0.2655 -1.0485
  588SOL    MW4 2120   3.509   5.186   2.963  0.0634  0.5539 -0.3434
  589SOL     OW 2121   2.026   3.425   5.137 -0.4812 -0.0153 -0.5927
  589SOL    HW2 2122   1.968   3.487   5.181 -0.4442 -0.4099  0.0284
  589SOL    HW3 2123   1.996   3.424   5.046 -1.5998 -0.4013 -0.2261
  589SOL    MW4 2124   2.014   3.433   5.131 -0.6239 -0.1183 -0.4624
  590SOL     OW 2125   2.728   5.720   3.703 -0.3588 -0.3480 -0.0865
  590SOL    HW2 2126   2.691   5.705   3.616 -0.6421  0.0235 -0.0331
  590SOL    HW3 2127   2.681   5.658   3.759 -0.6613 -0.1172 -0.0807
  590SOL    MW4 2128   2.717   5.710   3.699 -0.4361 -0.2685 -0.0787
  591SOL     OW 2129   4.760   5.411   2.683  0.4899 -1.3443 -0.2393
  591SOL    HW2 2130   4.698   5.392   2.753 -0.2291 -0.2396 -0.5572
  591SOL    HW3 2131   4.738   5.500   2.654  1.7870 -1.1796 -0.8088
  591SOL    MW4 2132   4.749   5.420   2.688  0.5662 -1.1768 -0.3564
  592SOL     OW 2133   3.509   0.092   1.651  0.3836  0.0424 -0.3156
  592SOL    HW2 2134   3.604   0.092   1.655  0.4827  1.5086 -1.6922
  592SOL    HW3 2135   3.484   0.000   1.667  1.8625 -0.0231  2.0957
  592SOL    MW4 2136   3.518   0.080   1.654  0.5918  0.2272 -0.1791
  593SOL     OW 2137   4.667   0.398   4.911 -0.3544 -0.0382 -0.6301
  593SOL    HW2 2138   4.725   0.397   4.836  0.2871  0.5878 -0.1512
  593SOL    HW3 2139   4.623   0.484   4.907 -0.3090  0.0023 -0.2859
  593SOL    MW4 2140   4.669   0.409   4.901 -0.2638  0.0498 -0.5215
  594SOL     OW 2141   4.454   0.916   3.469  0.0190 -0.8558  0.1414
  594SOL    HW2 2142   4.362   0.918   3.498  0.0940  2.0068  0.4806
  594SOL    HW3 2143   4.505   0.910   3.550  0.1665 -2.2454 -0.0360
  594SOL    MW4 2144   4.448   0.916   3.484  0.0483 -0.6615  0.1627
  595SOL     OW 2145   2.385   1.258   4.099  0.1359  0.1204  0.5234
  595SOL    HW2 2146   2.304   1.301   4.069 -0.5828 -1.2537  0.4172
  595SOL    HW3 2147   2.418   1.316   4.168 -1.4953  0.2175  1.2833
  595SOL    MW4 2148   2.378   1.272   4.104 -0.1741 -0.0480  0.6097
  596SOL     OW 2149   6.276   1.413   5.968 -0.1759  0.0535 -0.6775
  596SOL    HW2 2150   6.332   1.375   6.036 -2.3278 -0.8182  0.7291
  596SOL    HW3 2151   6.316   1.385   5.885  1.7651  0.0134  0.2173
  596SOL    MW4 2152   6.289   1.404   5.966 -0.2037 -0.0668 -0.3739
  597SOL     OW 2153   2.094   1.338   2.567  0.1358 -0.1763 -0.0532
  597SOL    HW2 2154   2.128   1.291   2.491 -2.2872 -2.0793 -0.0864
  597SOL    HW3 2155   2.024   1.393   2.533 -0.5399 -0.5581  0.6861
  597SOL    MW4 2156   2.089   1.339   2.553 -0.2730 -0.4778  0.0400
  598SOL     OW 2157   3.074   2.952   1.309 -0.3327  0.0940 -0.1933
  598SOL    HW2 2158   3.043   2.898   1.381 -0.9559  0.5396 -0.1164
  598SOL    HW3 2159   3.029   2.918   1.232 -0.4060  0.2321 -0.2126
  598SOL    MW4 2160   3.064   2.941   1.308 -0.4246  0.1710 -0.1857
  599SOL     OW 2161   1.051   5.492   3.752 -0.1157 -0.5734 -0.4252
  599SOL    HW2 2162   0.984   5.559   3.765  1.5084  0.6742  2.4509
  599SOL    HW3 2163   1.010   5.411   3.784 -0.3822  0.1262  1.0930
  599SOL    MW4 2164   1.037   5.490   3.758  0.0634 -0.3165  0.1545
  600SOL     OW 2165   2.162   3.585   2.602 -0.2267 -0.1376 -0.1434
  600SOL    HW2 2166   2.175   3.491   2.591 -0.5186 -0.4608  1.8692
  600SOL    HW3 2167   2.219   3.609   2.675 -0.2148  1.2446 -0.5811
  600SOL    MW4 2168   2.171   3.576   2.610 -0.2636  0.0021  0.0644
  601SOL     OW 2169   4.698   2.531   1.135  0.0278  0.2898  0.4477
  601SOL    HW2 2170   4.786   2.501   1.113  0.4130  2.0190 -0.5827
  601SOL    HW3 2171   4.697   2.535   1.231  0.9045 -0.2277  0.4861
  601SOL    MW4 2172   4.710   2.528   1.145  0.1943  0.4497  0.3168
  602SOL     OW 2173   5.190   3.225   5.369 -0.0655 -0.4457 -0.0018
  602SOL    HW2 2174   5.209   3.283   5.442 -0.8472 -1.8319  1.3647
  602SOL    HW3 2175   5.261   3.160   5.370 -0.7296 -1.1862  0.3262
  602SOL    MW4 2176   5.202   3.224   5.379 -0.2562 -0.7263  0.2217
  603SOL     OW 2177   5.660   4.501   3.271 -0.3957 -0.2630 -0.1302
  603SOL    HW2 2178   5.695   4.443   3.203  0.3355  1.9490 -1.7395
  603SOL    HW3 2179   5.724   4.495   3.342 -1.0533 -2.4370  0.3511
  603SOL    MW4 2180   5.673   4.492   3.272 -0.3860 -0.2579 -0.2790
  604SOL     OW 2181   2.043   6.145   3.826  0.3197  0.0561  0.2599
  604SOL    HW2 2182   2.095   6.069   3.853 -0.3305  0.0311  1.5152
  604SOL    HW3 2183   2.108   6.210   3.801  0.9091 -0.5785  0.0870
  604SOL    MW4 2184   2.058   6.143   3.826  0.3116 -0.0309  0.4027
  605SOL     OW 2185   0.422   6.061   1.095 -0.4804 -0.5239 -0.3955
  605SOL    HW2 2186   0.327   6.059   1.086 -0.8242  1.6983  1.6748
  605SOL    HW3 2187   0.437   6.061   1.190  1.5926 -0.8846 -0.6721
  605SOL    MW4 2188   0.411   6.061   1.106 -0.2522 -0.2783 -0.1589
  606SOL     OW 2189   2.859   2.464   1.385  0.3131 -0.2086  0.3930
  606SOL    HW2 2190   2.855   2.506   1.471 -1.0086  2.3430 -0.8077
  606SOL    HW3 2191   2.947   2.485   1.352  0.6755 -0.8545  0.9090
  606SOL    MW4 2192   2.870   2.472   1.392  0.1865  0.0428  0.3026
  607SOL     OW 2193   3.830   5.093   1.721 -0.1291 -0.0966  0.0812
  607SOL    HW2 2194   3.865   5.040   1.649 -0.7096  0.1593 -0.3967
  607SOL    HW3 2195   3.739   5.065   1.729 -0.0925 -0.0541  0.6586
  607SOL    MW4 2196   3.823   5.082   1.712 -0.2008 -0.0573  0.0943
  608SOL     OW 2197   3.920   6.151   6.111 -0.4646  0.5472  0.0005
  608SOL    HW2 2198   3.889   6.215   6.175 -0.1635  2.2566 -1.4787
  608SOL    HW3 2199   3.982   6.200   6.056  0.8858 -1.4038 -0.3211
  608SOL    MW4 2200   3.924   6.166   6.112 -0.2467  0.5153 -0.2371
  609SOL     OW 2201   4.082   5.602   2.198 -0.0654 -0.3422 -0.0895
  609SOL    HW2 2202   4.093   5.692   2.165  1.4957  0.3221  2.0310
  609SOL    HW3 2203   4.044   5.554   2.124  0.6627  1.6603 -1.8765
  609SOL    MW4 2204   4.079   5.608   2.184  0.2367  0.0097 -0.0455
  610SOL     OW 2205   3.479   1.811   6.234  0.2092  0.2186 -0.0281
  610SOL    HW2 2206   3.557   1.786   6.283 -0.9735 -1.2687  1.1767
  610SOL    HW3 2207   3.439   1.728   6.208 -2.4992  0.7968  1.8965
  610SOL    MW4 2208   3.484   1.797   6.237 -0.3041  0.0986  0.3848
  611SOL     OW 2209   5.531   4.186   2.897 -0.3891 -0.5275 -0.0973
  611SOL    HW2 2210   5.489   4.149   2.975 -0.6963 -0.7854 -0.3857
  611SOL    HW3 2211   5.458   4.206   2.838 -0.0812 -1.3296 -0.7558
  611SOL    MW4 2212   5.516   4.184   2.900 -0.3890 -0.6673 -0.2223
  612SOL     OW 2213   3.889   0.632   0.573 -0.0771  0.6267 -0.1362
  612SOL    HW2 2214   3.915   0.691   0.501  0.3855  2.8522  1.7149
  612SOL    HW3 2215   3.795   0.647   0.584 -0.0365  0.7302  0.0790
  612SOL    MW4 2216   3.880   0.642   0.565 -0.0107  0.9340  0.1364
  613SOL     OW 2217   2.005   6.175   2.300  0.8216 -0.1084  0.5655
  613SOL    HW2 2218   2.077   6.158   2.240  0.6270 -1.4772  0.6902
  613SOL    HW3 2219   2.033   6.137   2.383  0.0158 -0.5618  0.6455
  613SOL    MW4 2220   2.018   6.168   2.303  0.6896 -0.3488  0.5925
  614SOL     OW 2221   1.755   4.026   3.051 -0.1032  0.0888 -0.2671
  614SOL    HW2 2222   1.727   3.937   3.073 -0.7565  0.7790  1.8673
  614SOL    HW3 2223   1.851   4.022   3.054  0.0095 -1.0737 -2.6530
  614SOL    MW4 2224   1.764   4.014   3.054 -0.1745  0.0265 -0.3003
  615SOL     OW 2225   1.702   3.254   4.012 -0.5509 -0.6603  0.3665
  615SOL    HW2 2226   1.723   3.187   4.078  1.7999 -1.3119 -0.9291
  615SOL    HW3 2227   1.709   3.337   4.059 -0.4832 -1.1822  1.3008
  615SOL    MW4 2228   1.706   3.256   4.027 -0.2318 -0.8152  0.3188
  616SOL     OW 2229   2.611   6.348   2.194  0.3312  0.3855  1.0430
  616SOL    HW2 2230   2.662   6.403   2.253  1.0401  0.0976  0.7094
  616SOL    HW3 2231   2.530   6.397   2.179  0.4362  0.7726  1.7075
  616SOL    MW4 2232   2.607   6.361   2.200  0.4386  0.3986  1.0867
  617SOL     OW 2233   4.295   3.169   0.675  0.0699  0.2086 -0.3760
  617SOL    HW2 2234   4.214   3.192   0.721  0.3616  0.2084  0.1412
  617SOL    HW3 2235   4.337   3.105   0.732 -0.2897 -0.9388 -1.3538
  617SOL    MW4 2236   4.290   3.163   0.689  0.0609  0.0572 -0.4368
  618SOL     OW 2237   4.753   2.728   1.682  0.2664  0.4526 -0.6465
  618SOL    HW2 2238   4.770   2.803   1.624  1.2122  0.5828 -0.2056
  618SOL    HW3 2239   4.768   2.652   1.626 -0.2209  0.5797 -0.9617
  618SOL    MW4 2240   4.757   2.728   1.667  0.3269  0.4865 -0.6299
  619SOL     OW 2241   1.158   5.155   2.814  0.4593 -0.3174 -0.4988
  619SOL    HW2 2242   1.166   5.223   2.881 -0.2439 -0.1810 -0.5494
  619SOL    HW3 2243   1.065   5.131   2.814  0.6766 -1.2026 -0.5576
  619SOL    MW4 2244   1.147   5.161   2.823  0.3952 -0.4162 -0.5132
  620SOL     OW 2245   1.087   0.456   2.204  0.3881  0.6071 -0.2852
  620SOL    HW2 2246   1.099   0.419   2.292 -1.0495 -0.4671 -0.4978
  620SOL    HW3 2247   1.069   0.549   2.220 -0.1987  0.3616  0.6027
  620SOL    MW4 2248   1.086   0.463   2.218  0.1210  0.4330 -0.1961
  621SOL     OW 2249   1.696   4.325   1.163  0.0474  0.1066  0.0532
  621SOL    HW2 2250   1.756   4.265   1.207  0.1468  0.4056  0.3286
  621SOL    HW3 2251   1.642   4.269   1.108  0.7474 -0.1469 -0.3917
  621SOL    MW4 2252   1.697   4.310   1.161  0.1528  0.1126  0.0309
  622SOL     OW 2253   6.253   5.025   0.378  0.2070 -0.6838 -0.4615
  622SOL    HW2 2254   6.286   4.960   0.316  0.6233 -1.3573  0.4504
  622SOL    HW3 2255   6.275   5.109   0.338  1.8221 -1.1067 -0.5536
  622SOL    MW4 2256   6.261   5.028   0.365  0.4750 -0.8284 -0.3534
  623SOL     OW 2257   4.325   1.110   5.210 -0.5657 -0.0982 -0.9662
  623SOL    HW2 2258   4.418   1.090   5.206 -0.6348 -0.8211  0.4100
  623SOL    HW3 2259   4.288   1.044   5.268 -1.9890  0.0305 -1.6725
  623SOL    MW4 2260   4.332   1.099   5.217 -0.7626 -0.1766 -0.8778
  624SOL     OW 2261   2.604   2.461   3.144  0.0483 -0.3819  0.5098
  624SOL    HW2 2262   2.549   2.461   3.066  1.1878 -1.0606 -0.3179
  624SOL    HW3 2263   2.542   2.459   3.217 -1.0236 -0.9848 -0.3900
  624SOL    MW4 2264   2.589   2.461   3.144  0.0572 -0.5510  0.2819
  625SOL     OW 2265   1.912   3.594   4.664 -0.2038  0.3069 -0.3629
  625SOL    HW2 2266   1.978   3.633   4.722  1.6997 -0.9824 -1.5221
  625SOL    HW3 2267   1.896   3.661   4.598  0.8193  0.2490 -0.6900
  625SOL    MW4 2268   1.919   3.608   4.663  0.1824  0.1291 -0.5590
  626SOL     OW 2269   0.821   5.562   2.605  0.1108 -0.0848 -0.3738
  626SOL    HW2 2270   0.731   5.592   2.617  0.3131  0.6857 -0.7114
  626SOL    HW3 2271   0.871   5.609   2.672  0.5185  0.7829 -1.2573
  626SOL    MW4 2272   0.816   5.572   2.616  0.1912  0.1314 -0.5349
  627SOL     OW 2273   1.135   4.827   2.779 -0.2997  0.3047  0.2160
  627SOL    HW2 2274   1.063   4.834   2.842 -2.8472 -0.6379 -2.3489
  627SOL    HW3 2275   1.151   4.733   2.771  2.0662  0.5389  1.5353
  627SOL    MW4 2276   1.127   4.816   2.786 -0.3237  0.2112  0.0517
  628SOL     OW 2277   1.739   4.424   3.363 -0.3254  0.0569 -0.5761
  628SOL    HW2 2278   1.821   4.427   3.314 -1.1699 -0.2312 -2.0781
  628SOL    HW3 2279   1.689   4.352   3.323  0.0369 -2.1823  2.5839
  628SOL    MW4 2280   1.743   4.415   3.351 -0.3891 -0.2766 -0.3573
  629SOL     OW 2281   4.111   5.945   1.681 -0.0201  0.3351  0.3789
  629SOL    HW2 2282   4.069   5.966   1.765 -1.0271 -0.4224  0.0803
  629SOL    HW3 2283   4.204   5.933   1.704 -0.1111  1.0731  1.2155
  629SOL    MW4 2284   4.118   5.946   1.695 -0.1650  0.3325  0.4499
  630SOL     OW 2285   1.876   1.002   0.231 -0.7009 -0.2136  0.0705
  630SOL    HW2 2286   1.970   1.000   0.246 -0.9688 -0.8658  1.8934
  630SOL    HW3 2287   1.841   0.933   0.288 -2.3545  0.5255 -0.0020
  630SOL    MW4 2288   1.884   0.992   0.240 -0.9545 -0.2021  0.3015
  631SOL     OW 2289   2.967   2.382   1.991  0.6311 -0.1784  0.7030
  631SOL    HW2 2290   2.916   2.383   1.911 -0.8767  0.1150  1.6279
  631SOL    HW3 2291   3.023   2.304   1.983 -0.2057 -0.7058 -0.2056
  631SOL    MW4 2292   2.968   2.372   1.979  0.3218 -0.2093  0.7052
  632SOL     OW 2293   1.193   1.748   0.413 -0.5449  0.3582 -0.2781
  632SOL    HW2 2294   1.256   1.772   0.344  0.0417  0.9128  0.4349
  632SOL    HW3 2295   1.113   1.794   0.388 -0.3281  0.5852 -0.5751
  632SOL    MW4 2296   1.191   1.757   0.401 -0.4389  0.4614 -0.2232
  633SOL     OW 2297   5.405   5.372   3.553 -0.0579  0.3991 -0.7623
  633SOL    HW2 2298   5.441   5.285   3.572 -0.6393 -0.0751 -1.7525
  633SOL    HW3 2299   5.412   5.419   3.636  0.2372 -0.5978 -0.2002
  633SOL    MW4 2300   5.411   5.366   3.566 -0.0957  0.2050 -0.8188
  634SOL     OW 2301   1.249   0.642   4.875 -0.3231 -0.3710 -0.3426
  634SOL    HW2 2302   1.302   0.587   4.818 -0.3583 -1.6651  0.8325
  634SOL    HW3 2303   1.163   0.644   4.833 -0.0038 -0.2143 -1.0067
  634SOL    MW4 2304   1.244   0.635   4.862 -0.2856 -0.5211 -0.2752
  635SOL     OW 2305   1.189   4.991   4.579 -0.2587  0.3698  0.2156
  635SOL    HW2 2306   1.129   4.968   4.650 -0.6290  0.4828 -0.0581
  635SOL    HW3 2307   1.211   4.907   4.538  0.3596  0.2439  0.7715
  635SOL    MW4 2308   1.184   4.977   4.583 -0.2259  0.3681  0.2528
  636SOL     OW 2309   1.753   4.187   5.152  0.2864 -0.2643 -0.5470
  636SOL    HW2 2310   1.822   4.121   5.151  1.1577  0.5251  1.5409
  636SOL    HW3 2311   1.798   4.270   5.136 -0.2049  0.2221  0.4708
  636SOL    MW4 2312   1.768   4.189   5.150  0.3365 -0.0960 -0.1372
  637SOL     OW 2313   1.945   2.084   0.410 -0.6664 -0.5874 -0.0576
  637SOL    HW2 2314   2.032   2.084   0.449 -1.0157 -1.4963  0.7540
  637SOL    HW3 2315   1.958   2.122   0.323 -0.1601  3.3029  1.5004
  637SOL    MW4 2316   1.958   2.089   0.404 -0.6457 -0.1940  0.2550
  638SOL     OW 2317   0.939   2.593   4.483 -0.0776 -0.4336  0.1222
  638SOL    HW2 2318   0.913   2.555   4.566 -0.9301  0.1235  0.1228
  638SOL    HW3 2319   1.030   2.622   4.497 -0.0834 -0.7051  0.7251
  638SOL    MW4 2320   0.948   2.592   4.495 -0.1908 -0.3959  0.2018
  639SOL     OW 2321   2.797   6.357   1.984 -0.3623 -0.4680  0.4120
  639SOL    HW2 2322   2.740   6.334   2.058 -1.5561 -1.6442 -0.7929
  639SOL    HW3 2323   2.772   6.446   1.961  0.0008 -0.1056  1.3969
  639SOL    MW4 2324   2.786   6.366   1.991 -0.4719 -0.5754  0.3829
  640SOL     OW 2325   6.055   0.903   5.383 -0.1555 -0.9586 -0.3724
  640SOL    HW2 2326   6.126   0.904   5.447 -1.4070 -2.3348  1.1122
  640SOL    HW3 2327   6.098   0.916   5.298  1.5516  0.9477  0.6949
  640SOL    MW4 2328   6.070   0.905   5.380 -0.0954 -0.8887 -0.0357
  641SOL     OW 2329   5.934   0.012   0.345 -0.5304 -0.0900 -0.8120
  641SOL    HW2 2330   5.900  -0.009   0.258 -2.8144  0.2830 -0.0625
  641SOL    HW3 2331   5.932  -0.071   0.392  1.0674 -0.3726 -1.1832
  641SOL    MW4 2332   5.929  -0.002   0.340 -0.6209 -0.0781 -0.7621
  642SOL     OW 2333   1.659   5.950   6.313  0.2505  0.1356 -1.0096
  642SOL    HW2 2334   1.701   5.994   6.239 -1.6475  0.5427 -1.8941
  642SOL    HW3 2335   1.617   5.873   6.275  1.0399 -0.8443  0.0374
  642SOL    MW4 2336   1.659   5.946   6.298  0.1042  0.0600 -0.9881
  643SOL     OW 2337   5.259   0.019   0.505 -0.3508 -0.2969 -0.1103
  643SOL    HW2 2338   5.252  -0.011   0.414 -2.1853 -0.8218  0.1789
  643SOL    HW3 2339   5.226  -0.054   0.557 -2.2127  1.0961  0.7687
  643SOL    MW4 2340   5.254   0.005   0.500 -0.8385 -0.1824  0.0439
  644SOL     OW 2341   0.173   2.157   0.383 -0.4913  0.3528 -0.1212
  644SOL    HW2 2342   0.230   2.204   0.322 -1.1232 -0.2086 -1.1887
  644SOL    HW3 2343   0.225   2.081   0.410  0.2519  1.2395  1.0274
  644SOL    MW4 2344   0.187   2.153   0.378 -0.4766  0.3957 -0.1105
  645SOL     OW 2345   5.185   1.106   3.220 -0.3668 -0.2146  0.5449
  645SOL    HW2 2346   5.212   1.129   3.131 -1.5094 -1.4937 -0.1660
  645SOL    HW3 2347   5.103   1.153   3.233 -1.2730 -1.6068  0.1140
  645SOL    MW4 2348   5.178   1.115   3.210 -0.6371 -0.5671  0.3942
  646SOL     OW 2349   1.919   4.595   2.536  0.1076 -0.6653  0.2210
  646SOL    HW2 2350   1.894   4.621   2.448 -2.1266  0.1973  1.0351
  646SOL    HW3 2351   1.843   4.547   2.570  1.4385 -2.1597  1.2247
  646SOL    MW4 2352   1.905   4.592   2.529 -0.0115 -0.7487  0.4608
  647SOL     OW 2353   3.811   2.920   2.853  0.0505  0.0784 -0.3629
  647SOL    HW2 2354   3.828   2.901   2.945 -0.1159 -0.5161 -0.4445
  647SOL    HW3 2355   3.886   2.971   2.824  0.5004 -0.4258 -0.1046
  647SOL    MW4 2356   3.823   2.924   2.861  0.0879 -0.0666 -0.3396
  648SOL     OW 2357   3.316   2.611   4.027 -0.1273  0.4725  0.0001
  648SOL    HW2 2358   3.409   2.595   4.041 -0.1268  0.0589 -0.4524
  648SOL    HW3 2359   3.301   2.589   3.935 -0.8371 -0.2438  0.2731
  648SOL    MW4 2360   3.326   2.606   4.017 -0.2208  0.3234 -0.0235
  649SOL     OW 2361   0.072   3.855   0.672  0.1659 -0.0548 -0.1515
  649SOL    HW2 2362   0.091   3.897   0.756 -0.3240 -0.4792  0.1781
  649SOL    HW3 2363   0.047   3.928   0.615  1.9468  0.4163 -0.3842
  649SOL    MW4 2364   0.071   3.870   0.676  0.3362 -0.0486 -0.1387
  650SOL     OW 2365   2.512   5.786   5.503  0.0608 -0.6637  0.2033
  650SOL    HW2 2366   2.434   5.825   5.462  0.5750  2.8483  2.1932
  650SOL    HW3 2367   2.585   5.814   5.448  0.2356 -1.2513  0.1212
  650SOL    MW4 2368   2.511   5.795   5.490  0.1517 -0.2779  0.4550
  651SOL     OW 2369   0.082   1.558   1.907 -0.2220 -0.5234 -0.0748
  651SOL    HW2 2370   0.162   1.610   1.911  1.0877 -2.5496  1.0956
  651SOL    HW3 2371   0.071   1.540   1.813  0.5721 -0.0787 -0.2663
  651SOL    MW4 2372   0.091   1.563   1.895  0.0555 -0.7320  0.0543
  652SOL     OW 2373   4.302   5.762   5.504  0.8343 -0.2090  0.0170
  652SOL    HW2 2374   4.361   5.837   5.502  1.4579 -0.6856 -1.8023
  652SOL    HW3 2375   4.240   5.782   5.574  1.1321  1.8846 -0.2462
  652SOL    MW4 2376   4.302   5.775   5.513  0.9558  0.0043 -0.2577
  653SOL     OW 2377   6.114   1.699   0.311  0.0301 -0.1627 -0.8856
  653SOL    HW2 2378   6.113   1.699   0.407  0.1034  1.1197 -0.8667
  653SOL    HW3 2379   6.103   1.607   0.287  0.9957 -0.6325  0.3548
  653SOL    MW4 2380   6.112   1.687   0.321  0.1672 -0.0555 -0.7195
  654SOL     OW 2381   0.425   5.232   6.114 -0.0596 -0.2114  0.4536
  654SOL    HW2 2382   0.479   5.161   6.150  0.8420  0.7604  1.0869
  654SOL    HW3 2383   0.400   5.284   6.190 -0.0346  0.5918 -0.0786
  654SOL    MW4 2384   0.429   5.230   6.129  0.0627  0.0227  0.4669
  655SOL     OW 2385   5.476   4.925   1.581  0.1519  0.0636  0.3669
  655SOL    HW2 2386   5.478   4.836   1.615  0.0749 -0.5939 -1.2910
  655SOL    HW3 2387   5.407   4.924   1.515 -0.5525  1.6302  1.0155
  655SOL    MW4 2388   5.467   4.913   1.577  0.0488  0.1835  0.2337
  656SOL     OW 2389   1.475   3.856   4.669  0.5634  0.6354 -0.1491
  656SOL    HW2 2390   1.478   3.920   4.740  1.3071 -0.0636  0.4663
  656SOL    HW3 2391   1.554   3.873   4.617  0.5211  0.5142 -0.2553
  656SOL    MW4 2392   1.486   3.867   4.671  0.6560  0.5272 -0.0820
  657SOL     OW 2393   4.997   3.878   0.755 -0.5024  0.6565  0.6281
  657SOL    HW2 2394   4.908   3.880   0.790 -1.1322 -1.8638 -0.5725
  657SOL    HW3 2395   4.989   3.912   0.666 -0.3325  0.2392  0.4486
  657SOL    MW4 2396   4.984   3.883   0.748 -0.5631  0.2689  0.4460
  658SOL     OW 2397   2.044   3.059   3.538 -0.7536 -0.1654 -0.1436
  658SOL    HW2 2398   1.985   3.074   3.464 -0.7231  0.5680 -0.0190
  658SOL    HW3 2399   2.015   2.975   3.574 -1.2072 -0.1993 -0.5728
  658SOL    MW4 2400   2.032   3.050   3.533 -0.8094 -0.0731 -0.1838
  659SOL     OW 2401   5.550   2.941   2.586  0.0397  0.0291 -0.0740
  659SOL    HW2 2402   5.552   2.954   2.491  0.1210  0.6904  0.0142
  659SOL    HW3 2403   5.458   2.954   2.610  0.1553  0.6450  0.0410
  659SOL    MW4 2404   5.538   2.944   2.576  0.0657  0.1976 -0.0472
  660SOL     OW 2405   6.314   3.784   0.339 -0.1008 -0.5401  0.3255
  660SOL    HW2 2406   6.316   3.724   0.413 -0.3289 -0.9191  0.0286
  660SOL    HW3 2407   6.251   3.852   0.365 -0.5089 -0.9045  0.3107
  660SOL    MW4 2408   6.306   3.785   0.352 -0.1847 -0.6382  0.2844
  661SOL     OW 2409   0.595   4.377   1.385 -0.2842  0.0166 -0.2618
  661SOL    HW2 2410   0.513   4.392   1.338 -1.1284 -1.4053  0.6644
  661SOL    HW3 2411   0.603   4.452   1.444 -0.6564  0.4134 -0.7059
  661SOL    MW4 2412   0.585   4.389   1.387 -0.4447 -0.1186 -0.1982
  662SOL     OW 2413   0.036   5.873   5.298 -0.4279  0.2384 -0.4976
  662SOL    HW2 2414   0.103   5.936   5.324 -1.4387  1.8866 -1.6552
  662SOL    HW3 2415  -0.013   5.856   5.379  0.9418 -0.4883  0.2164
  662SOL    MW4 2416   0.038   5.879   5.312 -0.3805  0.3600 -0.5561
  663SOL     OW 2417   5.475   4.006   0.949  0.0447  0.2412 -0.3501
  663SOL    HW2 2418   5.464   4.096   0.979 -1.5509  0.0507 -0.2793
  663SOL    HW3 2419   5.386   3.975   0.932  0.3672 -1.8988  1.3864
  663SOL    MW4 2420   5.462   4.014   0.951 -0.1233 -0.0663 -0.1116
  664SOL     OW 2421   2.353   4.949   1.710 -0.5092 -0.3431  0.2529
  664SOL    HW2 2422   2.271   4.902   1.721 -1.2433  0.7832 -0.2490
  664SOL    HW3 2423   2.330   5.041   1.721  0.8107 -0.0460  0.7916
  664SOL    MW4 2424   2.339   4.955   1.713 -0.4319 -0.1553  0.2578
  665SOL     OW 2425   5.666   5.609   4.995  0.1119  0.0172  0.0482
  665SOL    HW2 2426   5.573   5.587   4.986  0.1778 -0.2287 -0.0465
  665SOL    HW3 2427   5.706   5.575   4.915  0.6984 -2.1388  1.1821
  665SOL    MW4 2428   5.659   5.602   4.984  0.1980 -0.2997  0.1853
  666SOL     OW 2429   1.577   3.044   2.892 -0.1408  0.4489  0.5659
  666SOL    HW2 2430   1.506   3.097   2.856 -0.1990  0.8055  1.1999
  666SOL    HW3 2431   1.558   2.955   2.860 -0.2307  0.7408 -0.2152
  666SOL    MW4 2432   1.565   3.039   2.883 -0.1604  0.5345  0.5465
  667SOL     OW 2433   1.821   5.624   2.487 -0.3092 -0.3617 -0.0218
  667SOL    HW2 2434   1.767   5.548   2.507  1.1358 -1.0626  1.4860
  667SOL    HW3 2435   1.767   5.699   2.512 -1.0630 -0.9690  0.2219
  667SOL    MW4 2436   1.807   5.624   2.493 -0.2180 -0.5343  0.2093
  668SOL     OW 2437   0.241   5.180  -0.015  0.2201 -0.1939 -0.1488
  668SOL    HW2 2438   0.248   5.096  -0.059  0.2251 -1.5470  2.2734
  668SOL    HW3 2439   0.331   5.210  -0.006  0.4817 -1.3535  1.4714
  668SOL    MW4 2440   0.254   5.173  -0.020  0.2553 -0.5255  0.3845
  669SOL     OW 2441   2.555   5.286   3.671  0.1349  0.2602  0.0821
  669SOL    HW2 2442   2.569   5.250   3.759  0.4491 -0.5683 -0.2955
  669SOL    HW3 2443   2.527   5.376   3.686 -0.0478  0.0522  1.0393
  669SOL    MW4 2444   2.553   5.293   3.685  0.1522  0.1234  0.1586
  670SOL     OW 2445   1.761   6.162   0.197 -0.1213 -0.0865 -0.0261
  670SOL    HW2 2446   1.816   6.096   0.154  0.7722  0.9221 -0.4859
  670SOL    HW3 2447   1.690   6.179   0.135  0.0304 -0.1099 -0.2040
  670SOL    MW4 2448   1.759   6.156   0.183  0.0166  0.0435 -0.1102
  671SOL     OW 2449   5.649   3.810   0.459  0.1705  0.2530  0.5909
  671SOL    HW2 2450   5.733   3.763   0.457  0.7972  1.3100 -1.8841
  671SOL    HW3 2451   5.595   3.760   0.520  1.7398 -2.0155  0.2603
  671SOL    MW4 2452   5.653   3.797   0.467  0.4603  0.0931  0.2207
  672SOL     OW 2453   3.315   6.043   5.981 -0.1987  0.1728  0.0847
  672SOL    HW2 2454   3.247   6.027   5.916  1.7451 -0.1622 -1.9995
  672SOL    HW3 2455   3.292   6.128   6.020 -1.2928  0.5110 -1.2205
  672SOL    MW4 2456   3.303   6.052   5.977 -0.0866  0.1732 -0.3625
  673SOL     OW 2457   4.460   3.090   1.224 -0.2414 -0.3391  0.0712
  673SOL    HW2 2458   4.457   3.177   1.264  1.8766  0.4986 -1.4239
  673SOL    HW3 2459   4.516   3.039   1.282 -0.4358 -0.3279  0.2702
  673SOL    MW4 2460   4.467   3.094   1.237  0.0124 -0.2271 -0.0998
  674SOL     OW 2461   1.360   5.469  -0.041  0.4657  0.4015 -0.1926
  674SOL    HW2 2462   1.298   5.541  -0.027  0.1706  0.8744 -3.2771
  674SOL    HW3 2463   1.306   5.390  -0.034  0.4504  0.5187  1.4627
  674SOL    MW4 2464   1.344   5.468  -0.038  0.4247  0.4793 -0.3811
  675SOL     OW 2465   5.426   3.730   3.989  0.0873 -0.0607 -0.0371
  675SOL    HW2 2466   5.353   3.770   3.943  1.0615  1.7342 -0.1004
  675SOL    HW3 2467   5.421   3.766   4.078  0.0951 -1.0021  0.3547
  675SOL    MW4 2468   5.416   3.740   3.995  0.2168  0.0519  0.0063
  676SOL     OW 2469   2.753   5.695   2.548 -0.7714 -0.0555  0.1041
  676SOL    HW2 2470   2.741   5.789   2.564 -0.1619 -0.0324  0.4728
  676SOL    HW3 2471   2.848   5.685   2.539 -0.8184 -0.6744  0.2765
  676SOL    MW4 2472   2.764   5.706   2.549 -0.6971 -0.1341  0.1755
  677SOL     OW 2473   4.257   2.154   3.992  0.0234  0.0839 -0.0528
  677SOL    HW2 2474   4.308   2.076   3.971 -2.2927 -1.3594 -0.7052
  677SOL    HW3 2475   4.296   2.187   4.073  0.8833 -1.9505  0.4223
  677SOL    MW4 2476   4.269   2.148   4.000 -0.1687 -0.3750 -0.0762
  678SOL     OW 2477   4.801   3.246   2.652  0.4840 -0.0057 -0.4424
  678SOL    HW2 2478   4.776   3.296   2.729  0.2337  0.0234 -0.5411
  678SOL    HW3 2479   4.888   3.277   2.629  0.8518 -0.5054  0.2436
  678SOL    MW4 2480   4.809   3.256   2.659  0.4995 -0.0678 -0.3649
  679SOL     OW 2481   0.039   2.639   0.294 -0.0438 -0.0103 -0.3837
  679SOL    HW2 2482  -0.053   2.615   0.308  0.3514 -0.7881  1.0263
  679SOL    HW3 2483   0.037   2.735   0.287 -1.0429 -0.0706 -1.1795
  679SOL    MW4 2484   0.027   2.649   0.295 -0.1235 -0.1208 -0.3027
  680SOL     OW 2485   1.405   1.267   1.804 -0.4210 -0.7304  0.2638
  680SOL    HW2 2486   1.489   1.229   1.778 -0.2636 -0.8267  0.9077
  680SOL    HW3 2487   1.349   1.255   1.727 -0.5728 -2.8493  0.6495
  680SOL    MW4 2488   1.409   1.260   1.790 -0.4203 -1.0227  0.3996
  681SOL     OW 2489   0.754   4.794   5.279 -0.1335  0.5453 -0.0342
  681SOL    HW2 2490   0.695   4.728   5.244  1.6834 -2.3929  2.0503
  681SOL    HW3 2491   0.718   4.815   5.365  0.4804  0.6555  0.1990
  681SOL    MW4 2492   0.742   4.788   5.285  0.1872  0.1722  0.2716
  682SOL     OW 2493   3.961   1.459   3.930  0.4986  0.2427  0.6558
  682SOL    HW2 2494   3.949   1.554   3.935  0.8662  0.3221  0.0565
  682SOL    HW3 2495   3.904   1.432   3.858  1.5512  0.2176 -0.1890
  682SOL    MW4 2496   3.952   1.468   3.921  0.6860  0.2498  0.4653
  683SOL     OW 2497   1.571   1.626   6.207  0.0430 -0.3630 -0.0143
  683SOL    HW2 2498   1.660   1.605   6.235  0.1542  0.0011 -0.0842
  683SOL    HW3 2499   1.583   1.683   6.130 -0.2518 -2.0984 -1.4124
  683SOL    MW4 2500   1.585   1.631   6.200  0.0188 -0.5439 -0.2080
  684SOL     OW 2501   6.315   2.292   2.774 -1.1315 -0.3247  0.1075
  684SOL    HW2 2502   6.375   2.265   2.844  0.9771 -1.5262 -2.0350
  684SOL    HW3 2503   6.252   2.221   2.767 -1.1722 -0.3369  0.5408
  684SOL    MW4 2504   6.315   2.279   2.782 -0.8586 -0.4849 -0.1180
  685SOL     OW 2505   5.041   3.864   5.268 -0.0881  0.0114 -0.5471
  685SOL    HW2 2506   4.992   3.808   5.208 -0.4760  2.5126 -2.8006
  685SOL    HW3 2507   5.105   3.806   5.309 -1.4892 -2.3292 -1.4660
  685SOL    MW4 2508   5.043   3.849   5.265 -0.3241  0.0326 -0.9657
  686SOL     OW 2509   0.204   4.537   3.567  0.7275  0.0014 -0.8271
  686SOL    HW2 2510   0.208   4.459   3.623  0.7272 -0.9441 -2.1048
  686SOL    HW3 2511   0.222   4.610   3.627 -0.6387 -0.8191  0.6856
  686SOL    MW4 2512   0.207   4.537   3.583  0.5472 -0.2316 -0.7961
  687SOL     OW 2513   2.502   0.472   2.522 -0.2040  0.3849  0.1174
  687SOL    HW2 2514   2.485   0.464   2.615 -1.7823  0.1212 -0.1797
  687SOL    HW3 2515   2.514   0.383   2.491  2.8198  0.5559  0.4470
  687SOL    MW4 2516   2.502   0.459   2.530 -0.0133  0.3727  0.1217
  688SOL     OW 2517   4.817   3.394   1.670 -0.1449  0.1112 -0.1660
  688SOL    HW2 2518   4.777   3.463   1.617  1.9785  2.8337  1.5239
  688SOL    HW3 2519   4.841   3.437   1.752 -0.9839 -3.3068  2.0604
  688SOL    MW4 2520   4.815   3.409   1.674  0.0245  0.0194  0.3507
  689SOL     OW 2521   0.634   1.261   2.133 -0.3220  0.4296 -0.6469
  689SOL    HW2 2522   0.553   1.285   2.176 -0.5692 -0.5696 -0.5359
  689SOL    HW3 2523   0.619   1.281   2.040 -0.4068  0.9669 -0.5201
  689SOL    MW4 2524   0.621   1.267   2.126 -0.3658  0.3687 -0.6155
  690SOL     OW 2525   0.059   5.058   0.962  0.1049 -0.0306  0.6927
  690SOL    HW2 2526  -0.025   5.016   0.982 -0.0122 -0.4068 -0.4890
  690SOL    HW3 2527   0.093   5.085   1.047 -1.4318  0.5538  1.1625
  690SOL    MW4 2528   0.052   5.056   0.976 -0.1133 -0.0032  0.5988
  691SOL     OW 2529   3.509   5.837   4.501 -0.4794 -0.4061 -0.1966
  691SOL    HW2 2530   3.449   5.899   4.543 -2.1431 -1.2058 -1.2879
  691SOL    HW3 2531   3.482   5.751   4.534  0.9827 -0.6958  0.3343
  691SOL    MW4 2532   3.498   5.834   4.511 -0.5060 -0.5498 -0.2705
  692SOL     OW 2533   5.552   3.037   0.404  0.1222  0.8285 -0.2837
  692SOL    HW2 2534   5.645   3.023   0.424  0.3341 -0.3402 -1.8707
  692SOL    HW3 2535   5.550   3.120   0.357  0.3524  0.9084 -0.1552
  692SOL    MW4 2536   5.564   3.046   0.401  0.1805  0.6849 -0.4761
  693SOL     OW 2537   5.472   4.204   6.168  0.1915  0.0607 -0.5298
  693SOL    HW2 2538   5.522   4.206   6.249 -2.2423 -1.0566  1.1433
  693SOL    HW3 2539   5.439   4.114   6.162 -2.3485  0.9307 -0.9378
  693SOL    MW4 2540   5.474   4.193   6.178 -0.4647  0.0281 -0.3629
  694SOL     OW 2541   0.193   4.416   2.688  0.1982 -0.3728 -0.0031
  694SOL    HW2 2542   0.149   4.470   2.622  3.1621  0.3580 -1.5664
  694SOL    HW3 2543   0.203   4.474   2.764  0.6015  0.2808 -0.5388
  694SOL    MW4 2544   0.188   4.431   2.689  0.6425 -0.1901 -0.2800
  695SOL     OW 2545   1.945   0.637   4.876  0.0095 -0.3177  0.6276
  695SOL    HW2 2546   2.032   0.604   4.856  1.2484  0.6915  3.7105
  695SOL    HW3 2547   1.940   0.635   4.971 -2.9961  0.5963  0.5949
  695SOL    MW4 2548   1.956   0.632   4.886 -0.2236 -0.0640  1.0300
  696SOL     OW 2549   4.667   0.988   0.352 -0.6525  0.3776  0.2571
  696SOL    HW2 2550   4.696   1.054   0.290 -0.0126  0.1810  0.3400
  696SOL    HW3 2551   4.576   1.011   0.371 -0.4906  1.1332  0.1551
  696SOL    MW4 2552   4.659   1.000   0.347 -0.5467  0.4513  0.2546
  697SOL     OW 2553   2.353   1.051   0.038  0.0099 -0.7112  0.4736
  697SOL    HW2 2554   2.445   1.059   0.062 -0.1259  0.6965  0.6048
  697SOL    HW3 2555   2.348   0.968  -0.010  1.4279 -0.5818  0.0532
  697SOL    MW4 2556   2.364   1.041   0.035  0.1790 -0.5084  0.4355
  698SOL     OW 2557   2.344   5.965   4.108 -0.2190 -0.0468 -0.3605
  698SOL    HW2 2558   2.304   5.999   4.028 -2.5106 -2.0583 -0.2132
  698SOL    HW3 2559   2.269   5.938   4.162  1.3224 -0.9925  1.4145
  698SOL    MW4 2560   2.329   5.966   4.105 -0.3180 -0.4370 -0.1069
  699SOL     OW 2561   2.234   5.908   4.567  0.2135 -0.4877  0.0713
  699SOL    HW2 2562   2.192   5.831   4.530  0.1845 -1.5412  2.1789
  699SOL    HW3 2563   2.244   5.968   4.492  0.9067 -2.7854 -1.7820
  699SOL    MW4 2564   2.230   5.906   4.552  0.3011 -0.9299  0.1048
  700SOL     OW 2565   0.283   6.397   0.010  0.0351 -0.0721 -0.1570
  700SOL    HW2 2566   0.245   6.477   0.047 -0.9150 -0.9812  0.8915
  700SOL    HW3 2567   0.355   6.428  -0.045 -1.1128  1.5788 -0.7855
  700SOL    MW4 2568   0.288   6.412   0.008 -0.2417  0.0258 -0.1016
  701SOL     OW 2569   3.636   0.972   3.472  0.1569 -0.1235 -0.3265
  701SOL    HW2 2570   3.643   1.032   3.546 -1.1758  0.0510 -0.3169
  701SOL    HW3 2571   3.724   0.938   3.459  0.5961  0.6113  0.7017
  701SOL    MW4 2572   3.648   0.975   3.480  0.0390 -0.0035 -0.1896
  702SOL     OW 2573   4.544   5.778   6.355  0.1502 -0.3439 -0.5496
  702SOL    HW2 2574   4.604   5.712   6.389 -2.0891 -1.3941  1.6598
  702SOL    HW3 2575   4.543   5.846   6.422 -1.2080 -0.4493 -0.4222
  702SOL    MW4 2576   4.552   5.778   6.369 -0.3245 -0.4964 -0.2413
  703SOL     OW 2577   1.848   4.841   3.340 -0.1281 -0.4076 -0.1895
  703SOL    HW2 2578   1.805   4.927   3.338  0.0887 -0.3121 -1.4705
  703SOL    HW3 2579   1.777   4.780   3.360 -0.2130  0.0953  1.1463
  703SOL    MW4 2580   1.833   4.844   3.343 -0.1107 -0.3287 -0.1823
  704SOL     OW 2581   0.024   1.521   5.314  0.6538 -0.1418 -0.1573
  704SOL    HW2 2582   0.076   1.442   5.329  1.3250  0.3034 -0.1530
  704SOL    HW3 2583  -0.012   1.509   5.226  1.1368 -0.2387 -0.3424
  704SOL    MW4 2584   0.026   1.509   5.304  0.8061 -0.0958 -0.1812
  705SOL     OW 2585   2.348   3.609   4.690 -0.0394 -0.2308 -0.3207
  705SOL    HW2 2586   2.341   3.514   4.677 -0.8093 -0.0058 -1.6953
  705SOL    HW3 2587   2.267   3.632   4.736 -1.7852  0.2568 -3.3684
  705SOL    MW4 2588   2.336   3.599   4.695 -0.3713 -0.1368 -0.9042
  706SOL     OW 2589   4.536   5.507   1.818  0.7007  0.5394 -0.7055
  706SOL    HW2 2590   4.597   5.569   1.859 -0.1693 -0.3299  2.1198
  706SOL    HW3 2591   4.591   5.455   1.760  2.4949  0.5171  0.9075
  706SOL    MW4 2592   4.552   5.508   1.816  0.8226  0.4217 -0.1199
  707SOL     OW 2593   5.082   6.139   4.587 -0.7835  0.8109  0.3239
  707SOL    HW2 2594   5.005   6.168   4.537 -0.4289 -0.5676 -1.1159
  707SOL    HW3 2595   5.046   6.101   4.667 -1.6702 -0.2289 -0.5388
  707SOL    MW4 2596   5.067   6.138   4.591 -0.8537  0.4918  0.0201
  708SOL     OW 2597   3.533   0.349   1.819  0.3564 -0.0304  0.1148
  708SOL    HW2 2598   3.499   0.278   1.763 -0.3363 -0.6538  1.2814
  708SOL    HW3 2599   3.624   0.324   1.836  0.3823 -0.1684 -0.2096
  708SOL    MW4 2600   3.540   0.336   1.814  0.2684 -0.1308  0.2259
  709SOL     OW 2601   1.719   3.226   4.414  0.6011 -0.4838 -0.1983
  709SOL    HW2 2602   1.737   3.177   4.334 -1.2199 -1.1013 -0.2862
  709SOL    HW3 2603   1.709   3.158   4.481  0.1703 -0.0987  0.1320
  709SOL    MW4 2604   1.720   3.211   4.412  0.3040 -0.5144 -0.1663
  710SOL     OW 2605   0.074   6.122   6.213  0.3191 -0.2384 -0.2863
  710SOL    HW2 2606   0.045   6.110   6.303  1.1672 -0.5406 -0.0499
  710SOL    HW3 2607   0.150   6.065   6.203  0.9588  0.6700 -0.8370
  710SOL    MW4 2608   0.080   6.113   6.223  0.5154 -0.1584 -0.3278
  711SOL     OW 2609   1.452   1.250   4.941 -0.7914  0.2317  0.8386
  711SOL    HW2 2610   1.511   1.247   5.017 -1.5349 -0.9543  1.4060
  711SOL    HW3 2611   1.509   1.266   4.866 -0.1423  2.5186  1.7361
  711SOL    MW4 2612   1.467   1.252   4.941 -0.8039  0.3769  1.0319
  712SOL     OW 2613   3.457   2.841   1.293  0.2435 -0.3095  0.4586
  712SOL    HW2 2614   3.380   2.825   1.347  1.9923 -0.8516  2.9782
  712SOL    HW3 2615   3.487   2.754   1.266  0.8873 -0.2611  0.9599
  712SOL    MW4 2616   3.451   2.828   1.297  0.5591 -0.3746  0.8572
  713SOL     OW 2617   5.170   5.073   1.706 -0.1208 -0.1519 -0.2254
  713SOL    HW2 2618   5.085   5.048   1.671 -0.4126 -0.6653  0.7868
  713SOL    HW3 2619   5.206   4.990   1.740  0.5043  0.1721 -0.0880
  713SOL    MW4 2620   5.164   5.059   1.706 -0.0768 -0.1768 -0.0737
  714SOL     OW 2621   0.251   2.316   4.673  0.3979 -0.3304  0.2980
  714SOL    HW2 2622   0.267   2.410   4.680 -0.0290 -0.2502  0.2476
  714SOL    HW3 2623   0.313   2.276   4.734  0.2468  0.0189  0.6827
  714SOL    MW4 2624   0.261   2.323   4.682  0.3216 -0.2737  0.3421
  715SOL     OW 2625   4.426   2.426   0.751 -1.0511 -0.5622  0.2706
  715SOL    HW2 2626   4.439   2.361   0.682 -1.3977  0.4165 -0.7486
  715SOL    HW3 2627   4.484   2.498   0.727 -2.9564  0.8314 -0.3986
  715SOL    MW4 2628   4.436   2.427   0.739 -1.3482 -0.2492  0.0479
  716SOL     OW 2629   2.278   5.529   3.261  0.5172  0.7169 -0.2146
  716SOL    HW2 2630   2.242   5.548   3.175 -1.3073 -0.7423  0.1680
  716SOL    HW3 2631   2.202   5.516   3.317  1.4866 -3.1237  0.5011
  716SOL    MW4 2632   2.263   5.530   3.257  0.4044  0.0176 -0.0697
  717SOL     OW 2633   0.818   5.039   3.680  0.2968 -0.2332 -0.3635
  717SOL    HW2 2634   0.860   5.106   3.734  0.2476 -1.0912  0.7819
  717SOL    HW3 2635   0.806   5.081   3.595  2.8501  0.2871 -0.5622
  717SOL    MW4 2636   0.822   5.053   3.676  0.6272 -0.2778 -0.2386
  718SOL     OW 2637   5.788   4.121   5.492 -0.0088 -0.2970  0.4499
  718SOL    HW2 2638   5.774   4.086   5.404 -0.0335 -0.2598  0.4391
  718SOL    HW3 2639   5.712   4.092   5.542  0.0363 -0.3724  0.4755
  718SOL    MW4 2640   5.776   4.112   5.487 -0.0061 -0.3020  0.4519
  719SOL     OW 2641   2.067   2.651   0.944  0.8616  0.2960  0.0721
  719SOL    HW2 2642   2.053   2.563   0.911  1.9111 -0.1003  0.6170
  719SOL    HW3 2643   2.007   2.659   1.018  0.1475  0.3628 -0.5033
  719SOL    MW4 2644   2.058   2.641   0.950  0.9058  0.2525  0.0681
  720SOL     OW 2645   0.082   2.075   4.747 -0.2356 -0.0488 -0.3413
  720SOL    HW2 2646  -0.011   2.058   4.735 -0.1810  0.1174 -1.0656
  720SOL    HW3 2647   0.087   2.169   4.763 -0.2943 -0.2491  0.8997
  720SOL    MW4 2648   0.071   2.085   4.747 -0.2362 -0.0533 -0.2731
  721SOL     OW 2649   1.266   0.246   1.720 -0.2129 -0.3936  0.2523
  721SOL    HW2 2650   1.236   0.158   1.740  2.3395 -1.1783  1.0479
  721SOL    HW3 2651   1.349   0.233   1.674 -0.9281  1.5896 -1.7873
  721SOL    MW4 2652   1.273   0.233   1.716  0.0295 -0.2355  0.0882
  722SOL     OW 2653   2.892   3.963   6.378 -0.0967  0.0701  0.4029
  722SOL    HW2 2654   2.815   3.908   6.364 -1.4521  1.6906  1.0508
  722SOL    HW3 2655   2.950   3.911   6.433 -1.1699 -0.8358  0.7148
  722SOL    MW4 2656   2.889   3.949   6.383 -0.4171  0.1644  0.5295
  723SOL     OW 2657   2.472   5.559   3.734 -0.0785 -0.1579 -0.0840
  723SOL    HW2 2658   2.413   5.608   3.675 -0.8315  0.8833  1.4702
  723SOL    HW3 2659   2.480   5.615   3.811 -0.0348 -1.9947  1.2949
  723SOL    MW4 2660   2.465   5.573   3.736 -0.1721 -0.2629  0.3030
  724SOL     OW 2661   0.607   5.285   0.991  0.1864  0.3906 -0.1126
  724SOL    HW2 2662   0.642   5.228   0.923  0.6579  0.8083 -0.2305
  724SOL    HW3 2663   0.633   5.242   1.073 -1.3527 -0.7067 -0.1580
  724SOL    MW4 2664   0.615   5.272   0.993  0.0456  0.3009 -0.1341
  725SOL     OW 2665   4.431   3.739   3.629 -0.0266  0.3361 -0.6112
  725SOL    HW2 2666   4.345   3.708   3.661 -0.5413  0.9626 -1.3548
  725SOL    HW3 2667   4.436   3.830   3.657 -0.3180  0.7825 -1.9345
  725SOL    MW4 2668   4.420   3.747   3.637 -0.1330  0.4777 -0.8839
  726SOL     OW 2669   5.786   3.289   2.445  0.0746  0.0664 -0.1592
  726SOL    HW2 2670   5.762   3.228   2.515 -1.8827  0.8111 -0.1193
  726SOL    HW3 2671   5.796   3.374   2.489  1.9947 -0.0376 -0.3299
  726SOL    MW4 2672   5.784   3.292   2.460  0.0696  0.1509 -0.1765
  727SOL     OW 2673   0.849   1.750   6.084 -0.6900  0.4844 -0.4111
  727SOL    HW2 2674   0.936   1.762   6.122 -0.6726  1.2696 -0.6986
  727SOL    HW3 2675   0.847   1.658   6.058 -0.3412  0.1845  0.5763
  727SOL    MW4 2676   0.860   1.739   6.086 -0.6417  0.5485 -0.3188
  728SOL     OW 2677   4.951   1.796   5.043 -0.2000  0.2856  0.3276
  728SOL    HW2 2678   4.903   1.858   5.097 -0.7503 -1.6782  2.2607
  728SOL    HW3 2679   5.019   1.848   5.001 -1.0063  2.2790  1.3546
  728SOL    MW4 2680   4.954   1.811   5.045 -0.3790  0.2895  0.7182
  729SOL     OW 2681   2.995   3.701   4.424 -0.2887  0.2506 -0.3497
  729SOL    HW2 2682   2.996   3.761   4.350  1.0357 -0.5876 -1.0439
  729SOL    HW3 2683   3.087   3.677   4.437 -0.6620 -0.7390  0.6356
  729SOL    MW4 2684   3.008   3.706   4.416 -0.1632  0.0094 -0.3113
  730SOL     OW 2685   3.674   5.619   6.072  0.6407  0.7835 -0.7519
  730SOL    HW2 2686   3.654   5.687   6.008  1.2687  2.1457  0.4341
  730SOL    HW3 2687   3.754   5.578   6.039  1.7860  2.4406 -0.1711
  730SOL    MW4 2688   3.682   5.622   6.059  0.8747  1.1819 -0.5188
  731SOL     OW 2689   5.146   5.369   3.464 -0.3861  0.2360  0.3570
  731SOL    HW2 2690   5.234   5.368   3.502 -0.8261  1.1058  1.4363
  731SOL    HW3 2691   5.160   5.393   3.372  0.5193  0.1266  0.4541
  731SOL    MW4 2692   5.160   5.372   3.457 -0.3247  0.3363  0.5122
  732SOL     OW 2693   1.997   2.262   3.404 -0.8326  0.0598 -0.4438
  732SOL    HW2 2694   1.910   2.231   3.377 -1.0169  0.6384 -0.5270
  732SOL    HW3 2695   1.980   2.329   3.470 -0.4705  0.4483 -0.7310
  732SOL    MW4 2696   1.983   2.267   3.409 -0.8092  0.1874 -0.4927
  733SOL     OW 2697   1.779   2.315   3.716 -0.1465 -0.5743  0.4884
  733SOL    HW2 2698   1.753   2.344   3.804 -1.0076  0.1863  0.0081
  733SOL    HW3 2699   1.696   2.301   3.670  0.2669  0.2032 -0.5605
  733SOL    MW4 2700   1.764   2.317   3.721 -0.2055 -0.3713  0.2866
  734SOL     OW 2701   3.932   4.730   1.202 -0.7519 -0.0275  0.0203
  734SOL    HW2 2702   4.025   4.748   1.212 -0.7177  1.2133 -1.9433
  734SOL    HW3 2703   3.902   4.709   1.290  1.4434 -0.9236  0.6334
  734SOL    MW4 2704   3.940   4.729   1.215 -0.4577  0.0179 -0.1579
  735SOL     OW 2705   0.091   1.489   0.700  0.8466 -0.4223 -0.2004
  735SOL    HW2 2706   0.088   1.572   0.748  0.8092 -0.3175 -0.3808
  735SOL    HW3 2707   0.096   1.516   0.608 -2.4373 -0.6067 -0.5368
  735SOL    MW4 2708   0.091   1.504   0.694  0.4084 -0.4328 -0.2686
  736SOL     OW 2709   1.582   5.009   0.728 -0.2370 -0.6128  0.3499
  736SOL    HW2 2710   1.677   5.001   0.726 -0.2675 -1.8083  1.6911
  736SOL    HW3 2711   1.558   5.035   0.640  1.2075 -1.9583 -0.4941
  736SOL    MW4 2712   1.591   5.011   0.716 -0.0504 -0.9481  0.4155
  737SOL     OW 2713   3.415   5.031   4.589 -0.4404 -0.2252 -0.1375
  737SOL    HW2 2714   3.489   5.021   4.649 -0.4165 -0.0661 -0.1381
  737SOL    HW3 2715   3.342   5.057   4.645  0.1882  2.5296 -0.4497
  737SOL    MW4 2716   3.415   5.033   4.604 -0.3543  0.1592 -0.1787
  738SOL     OW 2717   1.053   2.091   1.487  0.1767 -0.0726  0.6240
  738SOL    HW2 2718   1.128   2.067   1.432  0.6055 -1.7939  1.8476
  738SOL    HW3 2719   0.999   2.011   1.490 -1.2607  0.8641  0.4763
  738SOL    MW4 2720   1.056   2.077   1.480  0.0436 -0.1761  0.7660
  739SOL     OW 2721   0.492   1.076   2.446  0.7953  0.3675  0.0331
  739SOL    HW2 2722   0.475   1.147   2.384  0.0330  0.6934  0.5997
  739SOL    HW3 2723   0.483   1.116   2.532  1.5341 -0.1529  0.3625
  739SOL    MW4 2724   0.488   1.090   2.449  0.7922  0.3418  0.1513
  740SOL     OW 2725   2.831   0.366   0.801 -0.5581 -0.0893  0.1596
  740SOL    HW2 2726   2.833   0.457   0.771 -0.3125  0.1705  0.9568
  740SOL    HW3 2727   2.874   0.317   0.730 -2.1719  0.1714 -1.0624
  740SOL    MW4 2728   2.837   0.372   0.787 -0.7386 -0.0206  0.1035
  741SOL     OW 2729   3.287   1.908   1.029 -0.3963  0.4528  0.0825
  741SOL    HW2 2730   3.229   1.976   1.063 -1.5212  0.2509 -1.3594
  741SOL    HW3 2731   3.374   1.948   1.032 -0.6791  1.0043  1.6507
  741SOL    MW4 2732   3.291   1.923   1.034 -0.5820  0.4989  0.0992
  742SOL     OW 2733   4.564   0.045   5.458 -0.0619  0.3257 -0.0249
  742SOL    HW2 2734   4.478   0.085   5.453  0.3159  1.0746 -0.9248
  742SOL    HW3 2735   4.549  -0.042   5.496 -1.3567  0.0576 -1.0790
  742SOL    MW4 2736   4.551   0.039   5.462 -0.1829  0.3892 -0.2827
  743SOL     OW 2737   5.740   3.248   4.001  0.1090 -0.1667 -0.3252
  743SOL    HW2 2738   5.688   3.276   4.077  1.2369  2.4016 -0.3810
  743SOL    HW3 2739   5.774   3.330   3.965  2.8013 -1.6011 -1.2891
  743SOL    MW4 2740   5.738   3.263   4.006  0.6130 -0.0171 -0.4597
  744SOL     OW 2741   2.632   2.074   3.626 -0.5862 -0.0453  0.3202
  744SOL    HW2 2742   2.552   2.123   3.605 -0.9501 -0.9884 -0.5542
  744SOL    HW3 2743   2.695   2.102   3.560  0.1469  1.4358  1.5916
  744SOL    MW4 2744   2.630   2.084   3.614 -0.5375  0.0257  0.3726
  745SOL     OW 2745   0.897   0.043   4.506  0.1461 -0.3814 -0.0098
  745SOL    HW2 2746   0.909   0.121   4.451  0.4699 -0.2449  0.2461
  745SOL    HW3 2747   0.847  -0.017   4.452 -1.4625  0.5917  0.3443
  745SOL    MW4 2748   0.892   0.046   4.491 -0.0234 -0.2350  0.0707
  746SOL     OW 2749   5.466   5.396   1.459 -0.3073 -0.1490  0.0517
  746SOL    HW2 2750   5.503   5.320   1.504 -0.2974 -0.0466  0.2137
  746SOL    HW3 2751   5.446   5.458   1.528 -0.1275  0.0797 -0.0993
  746SOL    MW4 2752   5.468   5.394   1.474 -0.2823 -0.1053  0.0531
  747SOL     OW 2753   1.676   3.247   1.008 -0.5258 -0.0393  0.2572
  747SOL    HW2 2754   1.635   3.294   0.935  1.3900  1.0337 -0.1786
  747SOL    HW3 2755   1.677   3.311   1.079 -0.7661 -0.4975  0.6744
  747SOL    MW4 2756   1.670   3.262   1.008 -0.3047  0.0418  0.2548
  748SOL     OW 2757   3.321   3.374   2.445  0.0933  0.3558 -0.3966
  748SOL    HW2 2758   3.229   3.393   2.464  0.5517  2.5644 -0.0614
  748SOL    HW3 2759   3.324   3.361   2.350 -0.3641  1.8748 -0.6457
  748SOL    MW4 2760   3.309   3.375   2.435  0.0934  0.8476 -0.3853
  749SOL     OW 2761   3.473   0.824   1.152  0.8279  0.3195  0.2485
  749SOL    HW2 2762   3.437   0.737   1.165  2.2107 -0.5622 -1.4655
  749SOL    HW3 2763   3.423   0.880   1.212 -0.5672 -1.5026  0.8641
  749SOL    MW4 2764   3.462   0.820   1.162  0.8263 -0.0373  0.1036
  750SOL     OW 2765   0.321   0.287   2.064 -0.5340 -0.4921 -0.1018
  750SOL    HW2 2766   0.344   0.374   2.034  1.9620 -0.2471  2.1507
  750SOL    HW3 2767   0.354   0.228   1.996  0.6736  0.2208 -0.1552
  750SOL    MW4 2768   0.329   0.290   2.051 -0.0453 -0.3657  0.1883
  751SOL     OW 2769   2.744   1.912   6.067  0.4496  0.6375  0.1246
  751SOL    HW2 2770   2.765   1.885   6.157 -0.0355 -0.4744 -0.0747
  751SOL    HW3 2771   2.761   1.834   6.014 -1.6003  0.4833 -0.4002
  751SOL    MW4 2772   2.749   1.898   6.072  0.1152  0.4704  0.0290
  752SOL     OW 2773   0.207   4.864   2.560 -0.1862  0.2954  0.1420
  752SOL    HW2 2774   0.264   4.809   2.505  0.3206  0.1200  0.8325
  752SOL    HW3 2775   0.227   4.837   2.650  1.8087  3.2256  0.6827
  752SOL    MW4 2776   0.217   4.853   2.565  0.1439  0.6589  0.3045
  753SOL     OW 2777   4.859   4.562   4.830 -0.7540 -0.5151  0.1724
  753SOL    HW2 2778   4.878   4.651   4.801  1.7524 -1.0666 -0.1649
  753SOL    HW3 2779   4.794   4.529   4.768 -0.2656  0.4637 -0.8933
  753SOL    MW4 2780   4.853   4.569   4.818 -0.3589 -0.4587 -0.0127
  754SOL     OW 2781   6.396   5.938   4.865  0.2324 -0.7141 -0.6618
  754SOL    HW2 2782   6.307   5.943   4.899  1.3430  1.2661  2.2391
  754SOL    HW3 2783   6.417   5.844   4.867 -0.7308 -0.9457  1.7221
  754SOL    MW4 2784   6.387   5.926   4.869  0.2518 -0.4834  0.0354
  755SOL     OW 2785   5.386   1.316   2.023 -0.1850  0.2587  0.1348
  755SOL    HW2 2786   5.442   1.372   1.969 -1.0312  0.8545 -0.1304
  755SOL    HW3 2787   5.400   1.228   1.989 -0.8109  0.6425 -1.1462
  755SOL    MW4 2788   5.395   1.312   2.012 -0.3792  0.3879 -0.0692
  756SOL     OW 2789   2.207   2.604   0.622  0.3221  0.1098  0.8528
  756SOL    HW2 2790   2.270   2.653   0.569  0.3909 -0.1879  0.6526
  756SOL    HW3 2791   2.261   2.542   0.671  0.0908 -0.9970 -0.2441
  756SOL    MW4 2792   2.223   2.602   0.622  0.3007 -0.0755  0.6817
  757SOL     OW 2793   5.252   3.983   1.593  0.3218 -0.1397  0.4940
  757SOL    HW2 2794   5.332   4.037   1.593 -0.4818  1.3179 -2.9754
  757SOL    HW3 2795   5.282   3.896   1.570  0.9678  0.3228 -0.4550
  757SOL    MW4 2796   5.267   3.979   1.590  0.3010  0.1136 -0.0890
  758SOL     OW 2797   2.234   0.808   5.440  0.9114  0.2889  0.2821
  758SOL    HW2 2798   2.248   0.898   5.472 -0.0197  0.4491  0.2571
  758SOL    HW3 2799   2.322   0.774   5.428  1.3057  1.5810 -0.7721
  758SOL    MW4 2800   2.247   0.815   5.442  0.8406  0.4805  0.1397
  759SOL     OW 2801   6.270   5.307   4.420  0.2598  0.3850  0.7625
  759SOL    HW2 2802   6.180   5.311   4.388  0.5912  2.6852 -0.0534
  759SOL    HW3 2803   6.315   5.248   4.359 -0.6563 -0.8360  1.2133
  759SOL    MW4 2804   6.264   5.300   4.408  0.1827  0.5274  0.7144
  760SOL     OW 2805   1.253   5.612   4.332 -0.1051  0.1432 -0.3000
  760SOL    HW2 2806   1.177   5.640   4.382 -0.8531 -0.1023 -1.2863
  760SOL    HW3 2807   1.245   5.517   4.326  1.1041 -0.0708  0.8875
  760SOL    MW4 2808   1.242   5.603   4.338 -0.0442  0.0825 -0.2734
  761SOL     OW 2809   3.073   0.602   4.933 -0.1544  0.2042 -0.1380
  761SOL    HW2 2810   3.132   0.628   5.004 -0.4586  1.3045 -0.2629
  761SOL    HW3 2811   2.992   0.649   4.951 -1.4671 -2.2170  0.7153
  761SOL    MW4 2812   3.070   0.612   4.945 -0.3677  0.0299 -0.0419
  762SOL     OW 2813   0.820   1.128   5.525 -0.3646  0.2749  0.0632
  762SOL    HW2 2814   0.835   1.168   5.439 -1.0217 -0.2692 -0.3118
  762SOL    HW3 2815   0.822   1.202   5.586  5.7510  0.2559  0.4765
  762SOL    MW4 2816   0.822   1.143   5.522  0.3556  0.2006  0.0683
  763SOL     OW 2817   2.435   0.159   4.736  0.2428  0.1798  0.4708
  763SOL    HW2 2818   2.488   0.098   4.684  2.4209  1.7364  0.7421
  763SOL    HW3 2819   2.489   0.176   4.814 -0.8721  1.4981  0.9841
  763SOL    MW4 2820   2.449   0.153   4.740  0.3831  0.5591  0.5744
  764SOL     OW 2821   2.756   1.650   3.368  0.1592 -0.3714  0.2355
  764SOL    HW2 2822   2.712   1.707   3.430 -0.2247 -0.4337  0.0220
  764SOL    HW3 2823   2.695   1.642   3.294  1.1570  0.7676 -0.7505
  764SOL    MW4 2824   2.742   1.656   3.366  0.2402 -0.2293  0.0773
  765SOL     OW 2825   3.016   4.817   1.194 -0.1767  0.3602  0.2278
  765SOL    HW2 2826   2.942   4.875   1.179  0.8030  1.9115  1.0780
  765SOL    HW3 2827   2.996   4.773   1.277 -0.5184  0.1492  0.0339
  765SOL    MW4 2828   3.004   4.819   1.203 -0.0925  0.5371  0.3144
  766SOL     OW 2829   3.044   3.790   1.138 -0.1419  0.2513 -0.4361
  766SOL    HW2 2830   3.003   3.712   1.101 -1.0345  1.0670 -1.2433
  766SOL    HW3 2831   3.136   3.766   1.149 -0.1469 -0.5310 -1.8213
  766SOL    MW4 2832   3.051   3.777   1.134 -0.2603  0.2557 -0.7253
  767SOL     OW 2833   1.781   5.350   4.067 -0.0090 -0.5309  0.1115
  767SOL    HW2 2834   1.859   5.404   4.074  0.5839 -1.3187 -0.3546
  767SOL    HW3 2835   1.741   5.375   3.984 -0.3537 -0.0141  0.4242
  767SOL    MW4 2836   1.786   5.360   4.057  0.0238 -0.5667  0.0913
  768SOL     OW 2837   0.045   2.521   1.581 -0.4732  0.1412  0.3899
  768SOL    HW2 2838   0.047   2.520   1.485  0.8956  1.3737  0.3670
  768SOL    HW3 2839   0.098   2.447   1.607  0.1265  0.4831  0.1656
  768SOL    MW4 2840   0.052   2.511   1.572 -0.2135  0.3489  0.3573
  769SOL     OW 2841   4.675   4.742   5.122 -0.7728  0.9053 -0.5106
  769SOL    HW2 2842   4.612   4.805   5.086  0.2366  1.8792 -0.6529
  769SOL    HW3 2843   4.662   4.663   5.069 -0.6784  1.6630 -1.7250
  769SOL    MW4 2844   4.665   4.740   5.110 -0.6272  1.1338 -0.6896
  770SOL     OW 2845   3.050   5.399   1.534  0.2632  0.1240  0.6096
  770SOL    HW2 2846   2.989   5.327   1.518 -0.2289  0.5347  0.6259
  770SOL    HW3 2847   3.000   5.462   1.585  0.5020  0.7486  0.0843
  770SOL    MW4 2848   3.035   5.398   1.539  0.2298  0.2606  0.5424
  771SOL     OW 2849   6.221   2.708   3.220 -0.3022  0.3255 -0.0414
  771SOL    HW2 2850   6.149   2.768   3.242  0.6441  1.9664 -1.1535
  771SOL    HW3 2851   6.229   2.651   3.296 -1.0664  1.8185  1.2297
  771SOL    MW4 2852   6.212   2.708   3.233 -0.2782  0.7389 -0.0204
  772SOL     OW 2853   6.295   2.280   5.888 -0.0366  0.0447  0.3125
  772SOL    HW2 2854   6.273   2.188   5.895 -2.8637  0.5797 -0.5755
  772SOL    HW3 2855   6.218   2.326   5.920  0.8714  2.1338 -0.3291
  772SOL    MW4 2856   6.282   2.274   5.893 -0.2898  0.3909  0.1107
  773SOL     OW 2857   4.620   3.654   3.419  0.5077 -0.1154  0.5045
  773SOL    HW2 2858   4.552   3.664   3.486  0.3489  0.3571  0.2787
  773SOL    HW3 2859   4.598   3.571   3.375 -0.0844  0.1567  0.2645
  773SOL    MW4 2860   4.608   3.644   3.422  0.4086 -0.0172  0.4430
  774SOL     OW 2861   2.713   1.340   0.178  0.0903  0.0664  0.9404
  774SOL    HW2 2862   2.698   1.406   0.245 -0.2732 -0.4152  1.3402
  774SOL    HW3 2863   2.655   1.366   0.106 -0.0860  0.1609  1.1137
  774SOL    MW4 2864   2.703   1.352   0.177  0.0191  0.0154  1.0160
  775SOL     OW 2865   0.085   5.598   2.937  0.3625  0.0626 -0.0977
  775SOL    HW2 2866   0.104   5.637   2.851  1.0960  0.7495  0.3593
  775SOL    HW3 2867   0.105   5.668   2.999 -0.8799 -0.1789  0.6002
  775SOL    MW4 2868   0.090   5.612   2.934  0.2953  0.1214  0.0547
  776SOL     OW 2869   0.726   2.479   5.971  0.2660 -0.1550 -0.2783
  776SOL    HW2 2870   0.660   2.536   6.011  0.5690 -1.6411  2.5820
  776SOL    HW3 2871   0.679   2.398   5.951  0.8457 -0.6435  0.2874
  776SOL    MW4 2872   0.711   2.476   5.973  0.3824 -0.4155  0.1737
  777SOL     OW 2873   0.561   6.308   1.898 -0.0347 -0.0422  0.0961
  777SOL    HW2 2874   0.488   6.370   1.887  0.0960  0.1945  0.5471
  777SOL    HW3 2875   0.594   6.325   1.986  0.1994 -0.5482  0.1081
  777SOL    MW4 2876   0.556   6.319   1.908  0.0134 -0.0778  0.1572
  778SOL     OW 2877   2.917   1.527   4.246 -0.5838 -0.7214  0.0023
  778SOL    HW2 2878   2.841   1.507   4.300  0.2395 -0.1654  1.4103
  778SOL    HW3 2879   2.992   1.517   4.304  0.3255  0.1287 -0.9672
  778SOL    MW4 2880   2.917   1.523   4.261 -0.3552 -0.5359  0.0602
  779SOL     OW 2881   2.670   4.510   6.074  0.4509  0.1223 -0.4727
  779SOL    HW2 2882   2.733   4.545   6.011  0.8350  1.0900  0.4250
  779SOL    HW3 2883   2.723   4.485   6.149  0.5808 -4.6161 -1.8162
  779SOL    MW4 2884   2.685   4.511   6.075  0.5187 -0.3752 -0.5315
  780SOL     OW 2885   2.732   1.027   2.386  0.6823  0.3562 -0.3205
  780SOL    HW2 2886   2.755   0.935   2.380 -0.2624  0.1798 -2.1530
  780SOL    HW3 2887   2.646   1.033   2.344  0.5885  2.0127  0.0368
  780SOL    MW4 2888   2.724   1.016   2.380  0.5453  0.5515 -0.5152
  781SOL     OW 2889   4.685   0.225   1.107  0.4702  0.3532  0.5764
  781SOL    HW2 2890   4.750   0.155   1.111  2.0042  1.7070  0.2174
  781SOL    HW3 2891   4.672   0.241   1.014 -0.1208  0.3308  0.6521
  781SOL    MW4 2892   4.692   0.218   1.095  0.5946  0.5289  0.5390
  782SOL     OW 2893   2.991   4.253   0.337  0.5848 -0.1334 -0.0500
  782SOL    HW2 2894   2.997   4.183   0.402  2.3674  0.8168  0.8828
  782SOL    HW3 2895   3.023   4.213   0.256  0.3764 -0.7428  0.1634
  782SOL    MW4 2896   2.996   4.238   0.335  0.7925 -0.0884  0.1012
  783SOL     OW 2897   2.581   1.336   4.279  0.5350  0.4776 -0.7990
  783SOL    HW2 2898   2.644   1.270   4.307  0.8022  0.8759 -0.4502
  783SOL    HW3 2899   2.622   1.419   4.302 -0.6515  0.7218  0.5414
  783SOL    MW4 2900   2.595   1.338   4.285  0.4137  0.5624 -0.5762
  784SOL     OW 2901   6.199   1.636   1.295 -0.1070 -0.2424 -0.0155
  784SOL    HW2 2902   6.220   1.631   1.388  0.9840 -1.1446 -0.2892
  784SOL    HW3 2903   6.179   1.729   1.280 -0.2917 -0.0895  1.1047
  784SOL    MW4 2904   6.199   1.648   1.305  0.0126 -0.3412  0.0962
  785SOL     OW 2905   0.690   3.469   5.676  0.1207 -0.3658  0.8127
  785SOL    HW2 2906   0.707   3.501   5.588  0.0926  2.1550  1.6411
  785SOL    HW3 2907   0.776   3.445   5.710  0.2754 -0.2751  0.4875
  785SOL    MW4 2908   0.703   3.470   5.669  0.1374 -0.0213  0.8791
  786SOL     OW 2909   2.341   1.845   3.744 -0.9539  0.3583  0.5766
  786SOL    HW2 2910   2.404   1.772   3.749  0.9093  1.8651  0.1044
  786SOL    HW3 2911   2.336   1.866   3.651 -2.5857 -0.0350  0.5428
  786SOL    MW4 2912   2.349   1.838   3.733 -0.9234  0.5052  0.5099
  787SOL     OW 2913   2.970   0.095   5.407  0.1235  0.7685  0.1023
  787SOL    HW2 2914   2.959   0.158   5.478  2.5111 -0.0954  1.3353
  787SOL    HW3 2915   3.026   0.140   5.343 -0.5532  0.8999 -0.4136
  787SOL    MW4 2916   2.976   0.109   5.408  0.3492  0.6718  0.1969
  788SOL     OW 2917   5.831   3.534   0.917  0.0848  0.4784 -0.3427
  788SOL    HW2 2918   5.814   3.592   0.991 -1.0634 -2.0805  1.5760
  788SOL    HW3 2919   5.744   3.508   0.887  0.5064 -1.3625 -0.1115
  788SOL    MW4 2920   5.817   3.538   0.923 -0.0111 -0.1021 -0.0591
  789SOL     OW 2921   5.941   5.945   5.474 -0.6742  0.4387 -0.4153
  789SOL    HW2 2922   5.960   6.032   5.439 -0.5941  0.7720  0.4119
  789SOL    HW3 2923   5.946   5.887   5.399  1.2439  0.8600 -0.6846
  789SOL    MW4 2924   5.944   5.949   5.460 -0.4106  0.5382 -0.3417
  790SOL     OW 2925   2.420   6.319   5.446  0.0398  0.3084 -0.0808
  790SOL    HW2 2926   2.492   6.257   5.433 -1.0971 -0.9563 -0.6137
  790SOL    HW3 2927   2.341   6.266   5.436 -0.9822  1.8761 -0.6582
  790SOL    MW4 2928   2.419   6.304   5.443 -0.2451  0.3484 -0.2273
  791SOL     OW 2929   5.629   4.650   3.002  0.1492 -0.0152 -0.2904
  791SOL    HW2 2930   5.637   4.602   3.084  1.2460 -0.2057 -0.5042
  791SOL    HW3 2931   5.694   4.719   3.007  0.8212 -0.5523 -1.3521
  791SOL    MW4 2932   5.638   4.652   3.013  0.3825 -0.1112 -0.4587
  792SOL     OW 2933   2.484   4.493   0.934  0.4353  0.1587 -0.4908
  792SOL    HW2 2934   2.406   4.478   0.987  1.0858 -0.0104  0.4440
  792SOL    HW3 2935   2.487   4.588   0.923  0.6649  0.2613  0.3763
  792SOL    MW4 2936   2.474   4.504   0.940  0.5514  0.1499 -0.2530
  793SOL     OW 2937   3.195   4.250   4.840  0.5773  0.2959  0.2280
  793SOL    HW2 2938   3.169   4.337   4.872 -1.2012  0.0918 -0.5375
  793SOL    HW3 2939   3.138   4.189   4.887 -2.8724  0.0241 -3.7222
  793SOL    MW4 2940   3.184   4.253   4.851 -0.1125  0.2331 -0.3942
  794SOL     OW 2941   5.819   4.486   5.438  0.3266  0.0058  0.1052
  794SOL    HW2 2942   5.769   4.476   5.519  0.8538  0.0219  0.4314
  794SOL    HW3 2943   5.824   4.581   5.425  0.5200  0.0114  0.2241
  794SOL    MW4 2944   5.813   4.497   5.447  0.4217  0.0086  0.1639
  795SOL     OW 2945   1.336   6.180   5.905 -0.3961 -0.2809 -0.0926
  795SOL    HW2 2946   1.374   6.250   5.852  0.1250 -0.9455 -0.6280
  795SOL    HW3 2947   1.249   6.211   5.927  0.4678  1.3363  1.2580
  795SOL    MW4 2948   1.330   6.193   5.901 -0.2134 -0.1552  0.0150
  796SOL     OW 2949   0.048   2.936   2.627  0.7860  0.2448 -0.2390
  796SOL    HW2 2950   0.124   2.879   2.621  0.8973 -0.0947  2.6503
  796SOL    HW3 2951  -0.026   2.881   2.601  1.3083  0.0151 -1.2750
  796SOL    MW4 2952   0.048   2.921   2.623  0.8696  0.1697  0.0055
  797SOL     OW 2953   1.841   1.442   2.208  0.0098 -0.1437  0.0715
  797SOL    HW2 2954   1.917   1.489   2.173 -0.2462  1.1460  1.1822
  797SOL    HW3 2955   1.766   1.480   2.162 -0.1782  0.4204  0.8245
  797SOL    MW4 2956   1.841   1.453   2.197 -0.0488  0.1009  0.3174
  798SOL     OW 2957   2.822   1.027   3.638  0.6758 -0.1572 -0.1740
  798SOL    HW2 2958   2.858   0.947   3.676 -0.6477 -1.1804 -0.9804
  798SOL    HW3 2959   2.816   1.009   3.545 -1.9735 -0.1163 -0.0855
  798SOL    MW4 2960   2.826   1.014   3.631  0.1516 -0.2868 -0.2687
  799SOL     OW 2961   4.970   1.037   0.945 -0.0168 -0.6759  0.0505
  799SOL    HW2 2962   4.918   0.957   0.939 -2.6852  0.9745 -0.4424
  799SOL    HW3 2963   4.977   1.055   1.039 -0.0522 -1.0743  0.1313
  799SOL    MW4 2964   4.964   1.029   0.957 -0.3736 -0.5107 -0.0039
  800SOL     OW 2965   1.911   3.926   3.773  0.0992  0.2019 -0.1233
  800SOL    HW2 2966   1.821   3.900   3.754  0.0379 -0.5468  1.1203
  800SOL    HW3 2967   1.964   3.854   3.739  0.3440  1.1122 -1.8056
  800SOL    MW4 2968   1.906   3.913   3.766  0.1234  0.2233 -0.1812
  801SOL     OW 2969   2.638   5.173   0.167 -0.3553 -0.1299 -0.2835
  801SOL    HW2 2970   2.589   5.216   0.097 -0.9032 -1.0009 -0.4530
  801SOL    HW3 2971   2.576   5.170   0.240  0.1898  0.7097  0.2311
  801SOL    MW4 2972   2.623   5.178   0.167 -0.3557 -0.1340 -0.2380
  802SOL     OW 2973   4.754   3.917   0.856  0.2021 -0.2834 -0.0584
  802SOL    HW2 2974   4.708   3.971   0.793 -1.1456 -0.0448  1.0802
  802SOL    HW3 2975   4.689   3.855   0.888  1.2758 -1.4713 -0.0745
  802SOL    MW4 2976   4.739   3.916   0.852  0.1659 -0.4087  0.0897
  803SOL     OW 2977   6.360   5.591   4.153  0.7197 -0.5180  0.2592
  803SOL    HW2 2978   6.288   5.538   4.186  1.7273 -2.6487 -0.7874
  803SOL    HW3 2979   6.396   5.633   4.231  0.2720 -1.8721  1.2382
  803SOL    MW4 2980   6.355   5.590   4.168  0.7936 -0.9778  0.2503
  804SOL     OW 2981   1.683   2.877   1.591  0.3353 -0.3425  0.9809
  804SOL    HW2 2982   1.595   2.865   1.627 -0.1464 -0.1645 -0.0978
  804SOL    HW3 2983   1.716   2.788   1.577  0.5301 -0.4132  1.8460
  804SOL    MW4 2984   1.675   2.864   1.594  0.2975 -0.3284  0.9527
  805SOL     OW 2985   5.292   1.243   5.673  0.6226 -0.6843 -0.3714
  805SOL    HW2 2986   5.239   1.184   5.619  0.4531  0.0333 -0.9973
  805SOL    HW3 2987   5.319   1.312   5.614  1.2017 -0.3639  0.2541
  805SOL    MW4 2988   5.289   1.244   5.658  0.6767 -0.5473 -0.3715
  806SOL     OW 2989   2.184   2.759   2.518  0.2691  0.2653 -0.0270
  806SOL    HW2 2990   2.244   2.686   2.506 -1.1194 -0.8111 -0.5418
  806SOL    HW3 2991   2.200   2.816   2.443  1.7385  0.8276  0.6542
  806SOL    MW4 2992   2.194   2.757   2.507  0.2798  0.1975 -0.0050
  807SOL     OW 2993   1.721   6.043   1.555 -0.2545  0.4543  0.0871
  807SOL    HW2 2994   1.728   5.995   1.638 -0.3811 -1.9140 -1.1972
  807SOL    HW3 2995   1.783   5.999   1.497 -0.9559  1.3737 -1.4012
  807SOL    MW4 2996   1.730   6.031   1.558 -0.3638  0.2631 -0.2787
  808SOL     OW 2997   5.922   5.063   1.632 -0.2729 -0.1392 -0.3292
  808SOL    HW2 2998   5.962   4.984   1.667 -0.3468 -0.4508 -0.9281
  808SOL    HW3 2999   5.856   5.031   1.571 -0.5359  0.3832 -0.3196
  808SOL    MW4 3000   5.919   5.048   1.628 -0.3173 -0.1114 -0.4069
  809SOL     OW 3001   4.135   2.596   3.435  0.2737  0.0758 -0.6235
  809SOL    HW2 3002   4.070   2.526   3.429 -1.0676  1.2182 -0.1036
  809SOL    HW3 3003   4.219   2.551   3.437 -0.5362 -1.4991 -0.4623
  809SOL    MW4 3004   4.138   2.581   3.434 -0.0101  0.0187 -0.5336
  810SOL     OW 3005   0.648   4.005   4.662 -0.0363 -0.0535 -0.1262
  810SOL    HW2 3006   0.574   3.972   4.611 -0.7825  0.5565  0.5286
  810SOL    HW3 3007   0.646   3.953   4.742 -1.6065  1.8828  1.1992
  810SOL    MW4 3008   0.638   3.994   4.666 -0.3419  0.2824  0.1351
  811SOL     OW 3009   3.677   4.136   6.028 -0.1169  0.4630  0.4747
  811SOL    HW2 3010   3.733   4.100   5.959 -0.5491 -1.2037  0.9471
  811SOL    HW3 3011   3.737   4.185   6.084  0.5441  0.3238 -0.0893
  811SOL    MW4 3012   3.692   4.138   6.026 -0.0867  0.2247  0.4626
  812SOL     OW 3013   0.152   1.171   3.708  0.5428 -0.1117  0.7702
  812SOL    HW2 3014   0.098   1.244   3.679  2.5862  1.1421 -0.0798
  812SOL    HW3 3015   0.124   1.154   3.797 -0.2090  1.4951  0.8726
  812SOL    MW4 3016   0.141   1.178   3.716  0.7132  0.2657  0.6715
  813SOL     OW 3017   3.959   3.693   1.312  0.7787 -0.2063 -0.1295
  813SOL    HW2 3018   3.907   3.651   1.243  1.2891 -0.1330 -0.5698
  813SOL    HW3 3019   3.916   3.669   1.393  0.1033 -0.2142 -0.4824
  813SOL    MW4 3020   3.946   3.684   1.313  0.7570 -0.1977 -0.2342
  814SOL     OW 3021   4.929   6.241   5.626  0.1146 -0.3315 -0.6324
  814SOL    HW2 3022   5.021   6.238   5.599 -0.2760 -1.5406 -2.0065
  814SOL    HW3 3023   4.914   6.332   5.649  0.5625  0.9986 -4.7030
  814SOL    MW4 3024   4.939   6.252   5.625  0.1222 -0.3156 -1.3508
  815SOL     OW 3025   2.563   4.799   4.829  0.2572 -0.3683  0.6426
  815SOL    HW2 3026   2.524   4.777   4.914 -1.2803  2.1753  0.7226
  815SOL    HW3 3027   2.638   4.855   4.851  0.5356 -0.6264  0.3542
  815SOL    MW4 3028   2.568   4.804   4.843  0.0911 -0.0667  0.6151
  816SOL     OW 3029   0.543   2.075   1.830  0.2222 -0.3525  0.5429
  816SOL    HW2 3030   0.525   2.169   1.834  0.3520 -0.2006 -1.4737
  816SOL    HW3 3031   0.636   2.067   1.852 -0.1513 -0.2157  2.3160
  816SOL    MW4 3032   0.553   2.086   1.834  0.1901 -0.3144  0.5107
  817SOL     OW 3033   1.275   2.759   6.229  0.3254 -0.0603  0.5298
  817SOL    HW2 3034   1.187   2.721   6.235 -0.0377  0.4675 -0.9651
  817SOL    HW3 3035   1.313   2.747   6.316 -0.1193 -2.9507  0.4205
  817SOL    MW4 3036   1.268   2.752   6.241  0.2188 -0.3720  0.3181
  818SOL     OW 3037   5.563   3.706   0.707 -0.0727  0.3266 -0.2296
  818SOL    HW2 3038   5.494   3.759   0.667  1.0563  2.5763  0.6809
  818SOL    HW3 3039   5.625   3.769   0.743  1.5500 -1.6249  0.5973
  818SOL    MW4 3040   5.562   3.721   0.706  0.2904  0.3659 -0.0004
  819SOL     OW 3041   4.045   6.290   2.050  0.3465  0.1253  0.0334
  819SOL    HW2 3042   4.134   6.256   2.059  0.7810  1.3270  0.4914
  819SOL    HW3 3043   4.042   6.364   2.110 -1.1266 -0.1913  0.3848
  819SOL    MW4 3044   4.056   6.295   2.059  0.2094  0.2421  0.1402
  820SOL     OW 3045   4.288   2.480   4.984 -0.2681 -0.0140 -0.7062
  820SOL    HW2 3046   4.353   2.533   4.938  0.9751  0.5375  1.5325
  820SOL    HW3 3047   4.238   2.543   5.035  1.0281 -0.8295  1.7647
  820SOL    MW4 3048   4.290   2.495   4.985  0.0669 -0.0488 -0.0848
  821SOL     OW 3049   3.005   0.071   1.472 -0.4750  0.4547  0.3754
  821SOL    HW2 3050   3.079   0.100   1.526  0.8423 -1.8835 -0.0560
  821SOL    HW3 3051   2.992   0.143   1.410  0.3733  1.6130  1.4863
  821SOL    MW4 3052   3.013   0.085   1.471 -0.1893  0.2990  0.4651
  822SOL     OW 3053   2.396   2.248   3.577 -0.0173  0.0491 -0.0609
  822SOL    HW2 3054   2.364   2.304   3.648  0.8402  0.3710  0.0923
  822SOL    HW3 3055   2.415   2.309   3.506  3.0965  0.3627  0.8594
  822SOL    MW4 3056   2.394   2.264   3.577  0.5066  0.1329  0.0808
  823SOL     OW 3057   6.163   5.690   6.249  0.8317 -0.1084  0.4893
  823SOL    HW2 3058   6.234   5.628   6.232  0.3910 -0.5844  0.3651
  823SOL    HW3 3059   6.098   5.639   6.299  0.2650  0.1235 -0.0021
  823SOL    MW4 3060   6.164   5.675   6.253  0.6988 -0.1406  0.4081
  824SOL     OW 3061   1.375   1.916   4.157 -0.3318  0.4347  0.3468
  824SOL    HW2 3062   1.380   2.008   4.183 -0.4946  1.3802 -2.6085
  824SOL    HW3 3063   1.453   1.903   4.102  1.1323 -2.0113  2.7425
  824SOL    MW4 3064   1.386   1.926   4.153 -0.1601  0.2367  0.2730
  825SOL     OW 3065   5.702   4.269   2.684 -0.6149  0.2119  0.2037
  825SOL    HW2 3066   5.674   4.233   2.768 -1.9520 -1.4611 -0.8911
  825SOL    HW3 3067   5.747   4.196   2.640  1.2637  1.4470 -0.0490
  825SOL    MW4 3068   5.705   4.255   2.689 -0.5434  0.1541  0.0259
  826SOL     OW 3069   4.537   1.910   0.461  0.6055 -0.4027 -0.1974
  826SOL    HW2 3070   4.583   1.892   0.380 -0.5106 -1.6512 -0.5902
  826SOL    HW3 3071   4.591   1.871   0.530  1.0716 -0.1815 -0.4401
  826SOL    MW4 3072   4.550   1.903   0.460  0.5197 -0.5382 -0.2812
  827SOL     OW 3073   2.109   3.928   4.004  0.3877  0.1278 -0.3930
  827SOL    HW2 3074   2.154   3.960   4.083  0.5251  0.3371 -0.5560
  827SOL    HW3 3075   2.016   3.934   4.025  0.3816  1.5471 -0.7710
  827SOL    MW4 3076   2.103   3.933   4.017  0.4050  0.3427 -0.4644
  828SOL     OW 3077   0.119   1.817   0.050 -0.5140  0.0330  0.1660
  828SOL    HW2 3078   0.182   1.772  -0.007 -0.6060  0.8955 -0.6501
  828SOL    HW3 3079   0.043   1.759   0.053 -0.3306 -0.2302 -0.2342
  828SOL    MW4 3080   0.117   1.803   0.043 -0.5019  0.1121  0.0055
  829SOL     OW 3081   5.452   6.296   4.385 -0.1365  0.2526  0.0007
  829SOL    HW2 3082   5.381   6.231   4.380 -0.5161  0.7568 -1.3927
  829SOL    HW3 3083   5.530   6.244   4.404 -0.4256 -0.6232 -1.1249
  829SOL    MW4 3084   5.453   6.281   4.387 -0.2247  0.2035 -0.3316
  830SOL     OW 3085   5.720   4.108   5.009  0.1464  0.1026 -0.1163
  830SOL    HW2 3086   5.750   4.052   4.938  1.1423 -0.1916  0.5050
  830SOL    HW3 3087   5.770   4.079   5.085  0.4073  1.5645  0.3136
  830SOL    MW4 3088   5.731   4.097   5.010  0.3122  0.2567  0.0224
  831SOL     OW 3089   4.584   2.493   0.430 -0.5877 -0.0217  0.0771
  831SOL    HW2 3090   4.670   2.495   0.473 -1.4311 -0.1411  1.8854
  831SOL    HW3 3091   4.533   2.560   0.476 -0.8097  1.7655 -2.5593
  831SOL    MW4 3092   4.589   2.502   0.442 -0.7282  0.1984 -0.0322
  832SOL     OW 3093   1.422   3.938   4.014 -0.3388 -0.3003 -0.1809
  832SOL    HW2 3094   1.505   3.889   4.016  0.7948  1.4269 -1.6378
  832SOL    HW3 3095   1.380   3.918   4.098  0.5885 -2.8055 -0.2352
  832SOL    MW4 3096   1.428   3.929   4.025 -0.0669 -0.4029 -0.3803
  833SOL     OW 3097   1.220   0.762   0.133 -0.2763 -0.0598 -0.6649
  833SOL    HW2 3098   1.314   0.783   0.132 -0.2424 -0.1950 -0.4935
  833SOL    HW3 3099   1.177   0.846   0.145 -0.0679 -0.2571  2.0106
  833SOL    MW4 3100   1.227   0.776   0.135 -0.2443 -0.1037 -0.2892
  834SOL     OW 3101   3.983   1.161   5.810 -0.3951  0.1944 -0.0777
  834SOL    HW2 3102   3.893   1.185   5.789 -0.4604 -1.6318 -2.2591
  834SOL    HW3 3103   4.034   1.195   5.737  0.4338 -0.3014  0.2543
  834SOL    MW4 3104   3.978   1.169   5.798 -0.2944 -0.1120 -0.3217
  835SOL     OW 3105   2.233   3.739   2.832 -0.6835 -0.3019  0.3048
  835SOL    HW2 3106   2.143   3.771   2.840 -0.2710  0.9371  0.1921
  835SOL    HW3 3107   2.242   3.675   2.903 -0.6833  1.9468  2.4442
  835SOL    MW4 3108   2.222   3.734   2.843 -0.6290  0.1582  0.5722
  836SOL     OW 3109   3.785   3.484   2.637 -0.2297 -0.1832  0.1096
  836SOL    HW2 3110   3.699   3.493   2.679 -0.7281 -4.4724  0.3816
  836SOL    HW3 3111   3.844   3.461   2.709  0.8931  1.2173 -0.3167
  836SOL    MW4 3112   3.781   3.482   2.652 -0.1473 -0.5644  0.0892
  837SOL     OW 3113   6.163   1.849   2.355  0.5277 -0.4948  0.2357
  837SOL    HW2 3114   6.201   1.798   2.427  4.2083 -0.6921 -1.6258
  837SOL    HW3 3115   6.159   1.938   2.389  0.2812 -0.9156  1.3538
  837SOL    MW4 3116   6.168   1.854   2.369  0.9808 -0.5763  0.1376
  838SOL     OW 3117   0.293   3.729   1.501 -0.5243 -0.1292 -0.0170
  838SOL    HW2 3118   0.292   3.732   1.597  1.4486 -0.9385  0.0855
  838SOL    HW3 3119   0.382   3.756   1.478 -0.2069 -2.1992 -1.4779
  838SOL    MW4 3120   0.305   3.733   1.511 -0.2221 -0.5091 -0.1963
  839SOL     OW 3121   5.825   4.288   2.049  0.5651 -0.3530  0.1220
  839SOL    HW2 3122   5.889   4.256   1.985  2.1110  0.1025  1.3806
  839SOL    HW3 3123   5.746   4.237   2.032  0.6811  0.2431 -2.5981
  839SOL    MW4 3124   5.823   4.277   2.038  0.7844 -0.2142 -0.0708
  840SOL     OW 3125   4.707   5.562   0.180 -0.6361  0.2342  0.1973
  840SOL    HW2 3126   4.687   5.518   0.098 -1.9482  0.6577  0.2526
  840SOL    HW3 3127   4.763   5.501   0.228 -0.5652 -0.3799 -0.6468
  840SOL    MW4 3128   4.712   5.548   0.176 -0.7998  0.2091  0.0932
  841SOL     OW 3129   0.808   1.354   1.573 -0.6291  0.0286  0.1370
  841SOL    HW2 3130   0.749   1.316   1.508  2.6941 -2.7000 -1.6375
  841SOL    HW3 3131   0.852   1.426   1.526 -0.3036 -0.0368  0.3374
  841SOL    MW4 3132   0.806   1.359   1.558 -0.1477 -0.3400 -0.0706
  842SOL     OW 3133   5.724   0.729   5.238 -0.3554 -0.4796  0.1108
  842SOL    HW2 3134   5.736   0.647   5.285 -0.4506  0.4677  1.8436
  842SOL    HW3 3135   5.734   0.797   5.304 -0.0891  0.9325 -1.3187
  842SOL    MW4 3136   5.727   0.727   5.253 -0.3328 -0.1683  0.1508
  843SOL     OW 3137   5.704   0.943   0.110  0.4685  0.4615  0.3055
  843SOL    HW2 3138   5.661   0.954   0.195 -0.0718 -0.5179  0.1732
  843SOL    HW3 3139   5.708   1.032   0.074 -1.3096  0.6256  0.4117
  843SOL    MW4 3140   5.699   0.956   0.117  0.1626  0.3539  0.3020
  844SOL     OW 3141   5.120   3.409   2.268 -0.1266 -0.6398 -0.6089
  844SOL    HW2 3142   5.160   3.322   2.270 -0.4679 -0.8972 -2.6319
  844SOL    HW3 3143   5.032   3.395   2.232 -0.5812  0.4207  0.0191
  844SOL    MW4 3144   5.113   3.396   2.264 -0.2316 -0.5338 -0.7929
  845SOL     OW 3145   1.134   1.632   4.801 -0.4454  0.3121  0.7670
  845SOL    HW2 3146   1.087   1.645   4.719 -0.7411  0.7987  1.0089
  845SOL    HW3 3147   1.066   1.609   4.865 -0.4159  1.3485  1.1925
  845SOL    MW4 3148   1.119   1.631   4.799 -0.4805  0.5130  0.8550
  846SOL     OW 3149   0.874   5.986   3.459  0.1436 -0.0909 -0.2964
  846SOL    HW2 3150   0.838   6.058   3.512 -0.7209 -1.0835  0.5034
  846SOL    HW3 3151   0.963   5.974   3.491 -0.6698 -1.3282  1.6966
  846SOL    MW4 3152   0.881   5.994   3.470 -0.0778 -0.3851  0.0721
  847SOL     OW 3153   4.451   5.383   4.195  0.3318 -0.4970 -0.3005
  847SOL    HW2 3154   4.466   5.307   4.139  0.6159 -1.1081  0.5918
  847SOL    HW3 3155   4.368   5.419   4.164 -0.6759 -2.1596  0.3557
  847SOL    MW4 3156   4.442   5.378   4.183  0.2363 -0.7970 -0.0962
  848SOL     OW 3157   3.100   2.396   3.125 -0.0729 -0.6486 -0.1248
  848SOL    HW2 3158   3.124   2.486   3.146 -1.9188 -0.2191  0.3602
  848SOL    HW3 3159   3.006   2.391   3.144 -0.0989 -2.5739 -0.5085
  848SOL    MW4 3160   3.091   2.407   3.130 -0.3199 -0.8460 -0.1115
  849SOL     OW 3161   2.308   1.219   2.696  1.1123  0.1614  0.6400
  849SOL    HW2 3162   2.239   1.256   2.642  0.3098 -1.3876  0.5356
  849SOL    HW3 3163   2.389   1.238   2.649  0.4850 -0.5952 -0.8064
  849SOL    MW4 3164   2.309   1.226   2.683  0.9236 -0.1428  0.4354
  850SOL     OW 3165   2.008   5.181   2.357 -0.1494  0.6363 -0.4577
  850SOL    HW2 3166   2.012   5.253   2.420  0.2752  0.6904 -0.5461
  850SOL    HW3 3167   2.025   5.222   2.273 -1.3124  0.6680 -0.6997
  850SOL    MW4 3168   2.010   5.196   2.354 -0.2469  0.6476 -0.5013
  851SOL     OW 3169   5.960   5.951   0.116 -0.1501 -0.0367 -0.1077
  851SOL    HW2 3170   5.950   5.857   0.131 -0.6354 -0.0334 -0.4076
  851SOL    HW3 3171   5.897   5.972   0.048  1.5506  0.0773 -1.7362
  851SOL    MW4 3172   5.950   5.941   0.109  0.0103 -0.0212 -0.3621
  852SOL     OW 3173   5.770   3.789   5.518 -0.2608  0.2783  0.0704
  852SOL    HW2 3174   5.844   3.849   5.520 -0.7891  1.0504 -1.8662
  852SOL    HW3 3175   5.763   3.758   5.609  1.3892  1.4239  0.6500
  852SOL    MW4 3176   5.779   3.792   5.530 -0.1128  0.5313 -0.1086
  853SOL     OW 3177   5.126   4.485   0.613 -0.0640  0.7173  0.2031
  853SOL    HW2 3178   5.070   4.562   0.614 -0.6524  0.3476  2.7171
  853SOL    HW3 3179   5.086   4.427   0.547  1.2062  2.9840 -2.7754
  853SOL    MW4 3180   5.113   4.487   0.605  0.0259  0.9676  0.1418
  854SOL     OW 3181   2.386   3.259   5.905  0.6688  0.1109  0.1013
  854SOL    HW2 3182   2.354   3.318   5.973 -1.0664 -0.0557 -0.5017
  854SOL    HW3 3183   2.441   3.314   5.849 -1.9123  1.5918 -1.1846
  854SOL    MW4 3184   2.389   3.274   5.906  0.0993  0.2843 -0.1479
  855SOL     OW 3185   0.730   0.608   2.497 -0.6319 -0.1226  0.2523
  855SOL    HW2 3186   0.783   0.638   2.571 -1.0821 -0.2434  0.6275
  855SOL    HW3 3187   0.730   0.682   2.436 -0.1649 -0.0645  0.3202
  855SOL    MW4 3188   0.737   0.622   2.498 -0.6297 -0.1309  0.3108
  856SOL     OW 3189   1.336   0.153   0.379 -0.5458 -0.1914 -0.4937
  856SOL    HW2 3190   1.325   0.203   0.461 -1.0972 -0.2489 -0.5306
  856SOL    HW3 3191   1.375   0.071   0.407 -0.2295  0.0019 -0.3547
  856SOL    MW4 3192   1.340   0.149   0.394 -0.5768 -0.1734 -0.4803
  857SOL     OW 3193   5.187   2.131   5.326  0.3650  0.6958 -0.8043
  857SOL    HW2 3194   5.236   2.196   5.377 -0.7305  0.6687  0.3349
  857SOL    HW3 3195   5.167   2.062   5.389 -0.5076  0.3731 -1.4202
  857SOL    MW4 3196   5.191   2.131   5.341  0.1053  0.6497 -0.7352
  858SOL     OW 3197   3.411   5.957   2.520 -0.1445 -0.4053  0.2105
  858SOL    HW2 3198   3.381   5.948   2.430  0.1727 -0.0806  0.0695
  858SOL    HW3 3199   3.380   6.043   2.547 -0.1079 -0.4397  0.3607
  858SOL    MW4 3200   3.403   5.967   2.512 -0.0979 -0.3670  0.2117
  859SOL     OW 3201   1.294   1.177   3.275 -0.3929 -0.5568 -0.2876
  859SOL    HW2 3202   1.293   1.088   3.240 -0.2742  0.0496 -1.9727
  859SOL    HW3 3203   1.374   1.215   3.239 -0.2447  0.1208  0.7234
  859SOL    MW4 3204   1.304   1.170   3.265 -0.3577 -0.3874 -0.3765
  860SOL     OW 3205   2.163   1.515   2.821  0.0745  0.4985  0.2352
  860SOL    HW2 3206   2.185   1.472   2.738 -0.5486 -2.2476  1.4071
  860SOL    HW3 3207   2.240   1.568   2.841  1.0511 -0.3519 -1.1060
  860SOL    MW4 3208   2.176   1.517   2.813  0.1211  0.0240  0.2129
  861SOL     OW 3209   2.160   0.350   1.002 -0.1006  0.1417  0.6607
  861SOL    HW2 3210   2.139   0.298   0.925  2.9873 -0.3836  0.0788
  861SOL    HW3 3211   2.170   0.286   1.073  0.3435  0.2764  0.7231
  861SOL    MW4 3212   2.158   0.335   1.001  0.3654  0.0902  0.5922
  862SOL     OW 3213   0.947   5.196   3.232 -0.5128 -0.5243  0.0311
  862SOL    HW2 3214   0.970   5.264   3.169 -0.2535 -1.7876 -1.2783
  862SOL    HW3 3215   1.019   5.198   3.296 -0.5149  0.4212  0.0239
  862SOL    MW4 3216   0.960   5.205   3.232 -0.4788 -0.5662 -0.1426
  863SOL     OW 3217   5.008   4.494   2.493  0.2637  0.0364 -0.3828
  863SOL    HW2 3218   4.952   4.528   2.563  0.5884 -0.8887  0.3393
  863SOL    HW3 3219   5.096   4.524   2.517  0.3761 -0.2921 -0.3917
  863SOL    MW4 3220   5.013   4.503   2.506  0.3214 -0.1290 -0.2887
  864SOL     OW 3221   5.112   0.174   5.019  0.1756 -0.1179 -0.6339
  864SOL    HW2 3222   5.203   0.175   5.047  0.3780  0.3563 -1.2692
  864SOL    HW3 3223   5.091   0.082   5.008  0.7452 -0.2112 -0.9883
  864SOL    MW4 3224   5.121   0.162   5.021  0.2774 -0.0676 -0.7645
  865SOL     OW 3225   1.354   4.715   4.101 -0.7894 -0.0060 -0.0731
  865SOL    HW2 3226   1.403   4.671   4.031  0.8076  3.3332 -1.2426
  865SOL    HW3 3227   1.401   4.692   4.181  1.2227  1.0932 -0.8889
  865SOL    MW4 3228   1.367   4.706   4.103 -0.3132  0.5796 -0.3350
  866SOL     OW 3229   1.662   6.359   3.055  0.1474  0.5885  0.2348
  866SOL    HW2 3230   1.588   6.405   3.095  0.4856  0.9220  0.4843
  866SOL    HW3 3231   1.684   6.290   3.118  0.2257  0.6640  0.2905
  866SOL    MW4 3232   1.655   6.356   3.069  0.2023  0.6424  0.2751
  867SOL     OW 3233   2.641   3.239   0.792 -0.1309 -0.1155  0.0380
  867SOL    HW2 3234   2.623   3.306   0.859 -0.9458 -1.2233  0.9717
  867SOL    HW3 3235   2.555   3.204   0.770  0.3146 -1.1282 -0.1304
  867SOL    MW4 3236   2.627   3.243   0.798 -0.1796 -0.3952  0.1389
  868SOL     OW 3237   5.945   1.531   1.575 -0.0756 -0.1671  0.2345
  868SOL    HW2 3238   5.903   1.614   1.598 -0.1877 -0.2212  0.2291
  868SOL    HW3 3239   5.882   1.464   1.603  0.0053 -0.2497  0.2211
  868SOL    MW4 3240   5.931   1.533   1.582 -0.0797 -0.1851  0.2320
  869SOL     OW 3241   4.325   0.618   0.148 -0.0039 -0.4438 -0.0290
  869SOL    HW2 3242   4.412   0.596   0.115 -0.5788  0.5227 -2.4152
  869SOL    HW3 3243   4.267   0.604   0.073 -1.6032  0.8736  0.8988
  869SOL    MW4 3244   4.329   0.613   0.134 -0.2908 -0.1425 -0.2214
  870SOL     OW 3245   3.253   5.093   4.822 -0.2615  0.3840 -0.5158
  870SOL    HW2 3246   3.166   5.082   4.860 -0.1175 -1.1353 -0.5656
  870SOL    HW3 3247   3.312   5.056   4.887  0.2119  0.0261 -1.1474
  870SOL    MW4 3248   3.249   5.087   4.836 -0.1800  0.1363 -0.6057
  871SOL     OW 3249   4.437   6.273   4.491  0.4909  0.2527  0.0765
  871SOL    HW2 3250   4.398   6.186   4.495 -0.1577  0.4704 -1.0465
  871SOL    HW3 3251   4.395   6.314   4.415  1.7250  1.0740 -0.1902
  871SOL    MW4 3252   4.427   6.267   4.481  0.5682  0.3898 -0.1068
  872SOL     OW 3253   0.351   4.982   5.253 -0.3467  0.5541  0.0478
  872SOL    HW2 3254   0.268   5.028   5.263 -0.2894  0.5733  0.4331
  872SOL    HW3 3255   0.342   4.903   5.306 -0.1654  0.4966 -0.0053
  872SOL    MW4 3256   0.339   4.978   5.261 -0.3152  0.5491  0.0916
  873SOL     OW 3257   4.545   5.380   2.886  0.1903 -0.3148  0.2751
  873SOL    HW2 3258   4.465   5.330   2.874  0.9059 -1.3141 -0.4960
  873SOL    HW3 3259   4.549   5.397   2.980 -1.1092  0.0910  0.2781
  873SOL    MW4 3260   4.535   5.376   2.896  0.1133 -0.3931  0.1738
  874SOL     OW 3261   6.168   0.749   0.191  0.2609 -0.2782 -0.2693
  874SOL    HW2 3262   6.081   0.785   0.176 -0.0662 -1.2395 -0.7753
  874SOL    HW3 3263   6.180   0.686   0.119 -0.3080 -3.1986  1.9881
  874SOL    MW4 3264   6.158   0.745   0.179  0.1427 -0.7903 -0.0382
  875SOL     OW 3265   0.303   2.175   6.135  0.7641 -0.3248  0.9634
  875SOL    HW2 3266   0.233   2.171   6.070  0.4619  2.3115  1.0254
  875SOL    HW3 3267   0.258   2.169   6.220  0.7779 -0.1178  0.9850
  875SOL    MW4 3268   0.288   2.174   6.138  0.7261  0.0504  0.9745
  876SOL     OW 3269   2.171   4.692   3.097  0.7783 -0.0263  0.8176
  876SOL    HW2 3270   2.212   4.779   3.100  0.0757  0.4144 -1.0450
  876SOL    HW3 3271   2.212   4.644   3.169  0.0181  2.3394  3.0154
  876SOL    MW4 3272   2.181   4.697   3.107  0.5853  0.3440  0.8618
  877SOL     OW 3273   4.852   5.287   5.919 -0.2896 -0.3610 -0.3090
  877SOL    HW2 3274   4.839   5.241   6.002  0.5226 -0.8270 -0.4328
  877SOL    HW3 3275   4.945   5.309   5.919  0.0407 -1.6412 -1.7475
  877SOL    MW4 3276   4.862   5.284   5.930 -0.1389 -0.5914 -0.5151
  878SOL     OW 3277   6.197   0.412   1.296  0.0748 -0.2610 -0.1359
  878SOL    HW2 3278   6.137   0.389   1.367 -0.8481  1.0881 -0.4572
  878SOL    HW3 3279   6.284   0.408   1.336 -0.4247  0.3738  1.0556
  878SOL    MW4 3280   6.201   0.408   1.311 -0.1128  0.0008 -0.0211
  879SOL     OW 3281   2.574   4.914   4.458 -0.0910 -0.1417 -0.0720
  879SOL    HW2 3282   2.533   4.981   4.404 -0.6480  0.5889  1.2195
  879SOL    HW3 3283   2.527   4.917   4.541  1.8706 -0.0007  1.1094
  879SOL    MW4 3284   2.563   4.923   4.462  0.0943 -0.0267  0.2543
  880SOL     OW 3285   2.237   3.583   1.395  0.8114 -0.1936  0.4491
  880SOL    HW2 3286   2.247   3.502   1.445  1.4911 -1.2631 -1.2988
  880SOL    HW3 3287   2.206   3.553   1.309  1.2461  1.3899 -0.2930
  880SOL    MW4 3288   2.234   3.568   1.390  0.9584 -0.1258  0.1205
  881SOL     OW 3289   0.754   5.177   3.440 -0.1799  0.8086  0.0579
  881SOL    HW2 3290   0.666   5.144   3.423 -0.2969  1.7351 -1.2882
  881SOL    HW3 3291   0.798   5.173   3.355 -0.0151  3.4988 -0.0609
  881SOL    MW4 3292   0.748   5.172   3.427 -0.1736  1.2858 -0.1354
  882SOL     OW 3293   1.089   4.767   2.042  0.0430 -0.3318  0.4315
  882SOL    HW2 3294   1.177   4.764   2.079  1.1703 -1.0182 -2.0551
  882SOL    HW3 3295   1.038   4.819   2.104  2.1609  0.0122  1.9914
  882SOL    MW4 3296   1.094   4.773   2.055  0.4712 -0.3770  0.3092
  883SOL     OW 3297   4.304   2.309   4.602 -0.2391 -0.3994 -0.1769
  883SOL    HW2 3298   4.298   2.397   4.640 -0.3082 -0.6622  0.4252
  883SOL    HW3 3299   4.326   2.252   4.676  1.5101 -0.6618 -0.8396
  883SOL    MW4 3300   4.306   2.313   4.617 -0.0174 -0.4687 -0.1849
  884SOL     OW 3301   4.578   5.441   5.819  0.0211  0.3577 -0.1819
  884SOL    HW2 3302   4.510   5.505   5.841  1.5804  2.1055 -0.2606
  884SOL    HW3 3303   4.660   5.484   5.841  1.1140 -2.1214  0.9876
  884SOL    MW4 3304   4.580   5.455   5.825  0.3710  0.2612 -0.0380
  885SOL     OW 3305   5.908   3.062   4.135  0.0493  0.2720 -0.1297
  885SOL    HW2 3306   5.840   3.099   4.078 -0.8794 -1.6131 -0.3076
  885SOL    HW3 3307   5.869   3.066   4.223  0.7978  1.5814  0.1819
  885SOL    MW4 3308   5.894   3.068   4.139  0.0255  0.1961 -0.1121
  886SOL     OW 3309   4.431   4.826   5.571  0.2320  0.0795  0.0822
  886SOL    HW2 3310   4.335   4.826   5.565  0.2488  0.6989 -0.2879
  886SOL    HW3 3311   4.450   4.881   5.647  0.2882 -0.4302  0.4458
  886SOL    MW4 3312   4.421   4.833   5.581  0.2417  0.0940  0.0813
  887SOL     OW 3313   0.440   3.797   5.825 -0.1011  0.1992  0.0434
  887SOL    HW2 3314   0.446   3.714   5.872 -0.2678  0.3159  0.2729
  887SOL    HW3 3315   0.447   3.773   5.732  0.7449  0.0161  0.1417
  887SOL    MW4 3316   0.442   3.783   5.819 -0.0115  0.1904  0.0866
  888SOL     OW 3317   5.070   5.412   0.181 -0.5662 -0.3723 -0.2536
  888SOL    HW2 3318   5.026   5.454   0.255  0.6263  1.2973 -0.4471
  888SOL    HW3 3319   5.108   5.332   0.218 -0.0876  0.3788  0.9253
  888SOL    MW4 3320   5.069   5.407   0.196 -0.3457 -0.0529 -0.1236
  889SOL     OW 3321   2.586   4.325   0.477 -0.9918 -0.1149  1.0419
  889SOL    HW2 3322   2.651   4.364   0.536  0.2214  2.2783 -1.6154
  889SOL    HW3 3323   2.511   4.384   0.482 -0.2110  1.1538 -0.9489
  889SOL    MW4 3324   2.585   4.338   0.486 -0.7287  0.3682  0.4286
  890SOL     OW 3325   2.056   6.374   6.106 -0.0219  0.0099  0.1105
  890SOL    HW2 3326   1.968   6.376   6.068 -0.2088 -4.8880 -0.3416
  890SOL    HW3 3327   2.043   6.399   6.197 -2.1692 -1.4955  0.2986
  890SOL    MW4 3328   2.042   6.377   6.113 -0.3299 -0.8350  0.0756
  891SOL     OW 3329   2.103   5.816   5.842 -0.3553  0.2590  0.7563
  891SOL    HW2 3330   2.163   5.884   5.870  0.2926  0.2939 -0.6436
  891SOL    HW3 3331   2.054   5.855   5.769 -0.5325 -0.4970  0.4554
  891SOL    MW4 3332   2.104   5.830   5.836 -0.2932  0.1639  0.5319
  892SOL     OW 3333   0.009   4.046   4.772 -0.0184  0.3516  0.4907
  892SOL    HW2 3334  -0.008   4.055   4.866 -1.1203 -0.5939  0.4035
  892SOL    HW3 3335   0.096   4.084   4.760  0.5227 -0.3150  2.0425
  892SOL    MW4 3336   0.019   4.052   4.783 -0.0924  0.1389  0.6839
  893SOL     OW 3337   1.267   3.402   0.485  0.4948 -0.7886  0.2776
  893SOL    HW2 3338   1.188   3.350   0.499  0.6769 -0.8980  0.9151
  893SOL    HW3 3339   1.314   3.355   0.415 -0.7352  0.1230 -1.2418
  893SOL    MW4 3340   1.263   3.389   0.477  0.3566 -0.6828  0.1612
  894SOL     OW 3341   6.395   1.038   1.013 -0.3048 -0.0848  0.0500
  894SOL    HW2 3342   6.445   1.116   1.039 -0.7518 -0.0401  0.8258
  894SOL    HW3 3343   6.329   1.072   0.952  0.7760 -0.1926 -1.2048
  894SOL    MW4 3344   6.393   1.053   1.008 -0.2212 -0.0931 -0.0132
  895SOL     OW 3345   1.380   3.587   4.324 -0.3643  0.1067  0.0446
  895SOL    HW2 3346   1.306   3.526   4.330  0.4072 -0.9652 -0.7766
  895SOL    HW3 3347   1.351   3.665   4.371 -2.0749 -0.2255 -0.3797
  895SOL    MW4 3348   1.366   3.589   4.331 -0.4882 -0.0785 -0.1197
  896SOL     OW 3349   0.283   4.160   1.133  0.0364 -0.0413  0.2096
  896SOL    HW2 3350   0.251   4.100   1.201  0.8951 -0.9259 -0.1479
  896SOL    HW3 3351   0.241   4.129   1.053  0.0946  0.1524  0.1036
  896SOL    MW4 3352   0.273   4.148   1.131  0.1574 -0.1324  0.1484
  897SOL     OW 3353   4.697   2.544   1.429  0.4332 -0.4182 -0.3755
  897SOL    HW2 3354   4.611   2.508   1.451  0.1534  0.3500 -0.1819
  897SOL    HW3 3355   4.756   2.470   1.435  0.4183 -0.2874  3.0586
  897SOL    MW4 3356   4.693   2.530   1.433  0.3943 -0.2996  0.1032
  898SOL     OW 3357   2.869   1.915   3.323  0.2439  0.1638  0.2052
  898SOL    HW2 3358   2.964   1.922   3.335  0.7817 -0.4499 -2.7648
  898SOL    HW3 3359   2.849   1.824   3.345  1.0626 -0.7560 -2.5194
  898SOL    MW4 3360   2.879   1.904   3.328  0.4229 -0.0385 -0.5462
  899SOL     OW 3361   1.271   5.436   4.780 -0.5967  0.1123 -0.1207
  899SOL    HW2 3362   1.284   5.519   4.826  1.0497 -0.4842  0.5287
  899SOL    HW3 3363   1.342   5.433   4.716 -0.3990 -0.9809  0.1431
  899SOL    MW4 3364   1.282   5.447   4.778 -0.3534 -0.1107 -0.0002
  900SOL     OW 3365   4.516   0.152   1.335  0.7103 -0.3056  0.0578
  900SOL    HW2 3366   4.476   0.086   1.279 -0.3203  0.4151 -0.0799
  900SOL    HW3 3367   4.568   0.207   1.276  1.0225 -0.5851  0.0722
  900SOL    MW4 3368   4.518   0.151   1.320  0.6155 -0.2474  0.0415
  901SOL     OW 3369   1.838   6.048   0.668 -0.4182  0.4612  0.1340
  901SOL    HW2 3370   1.825   6.121   0.607 -1.5995 -0.3346 -0.6227
  901SOL    HW3 3371   1.787   5.977   0.630 -1.1818 -0.0694  2.0581
  901SOL    MW4 3372   1.829   6.049   0.655 -0.6748  0.2862  0.2880
  902SOL     OW 3373   1.181   1.715   5.369 -0.3290  0.6993  0.5666
  902SOL    HW2 3374   1.172   1.623   5.346 -0.2803  0.8650 -0.1341
  902SOL    HW3 3375   1.221   1.714   5.456  0.1529  0.0646  0.3439
  902SOL    MW4 3376   1.185   1.703   5.377 -0.2590  0.6374  0.4448
  903SOL     OW 3377   0.328   1.594   3.635 -0.0159  0.0795 -0.6141
  903SOL    HW2 3378   0.342   1.511   3.680 -0.3802  0.1484 -0.3756
  903SOL    HW3 3379   0.416   1.625   3.614  0.1398 -0.1111 -0.2422
  903SOL    MW4 3380   0.342   1.587   3.638 -0.0434  0.0635 -0.5335
  904SOL     OW 3381   3.466   0.323   5.188  0.5633  0.4589  0.2686
  904SOL    HW2 3382   3.446   0.230   5.175  1.6287  0.2080  0.3386
  904SOL    HW3 3383   3.538   0.341   5.126  0.8265  1.0591  0.7368
  904SOL    MW4 3384   3.473   0.313   5.178  0.7386  0.5050  0.3396
  905SOL     OW 3385   2.155   0.392   6.080 -0.0205 -0.9337  0.4836
  905SOL    HW2 3386   2.079   0.376   6.025 -0.1118  0.2974  0.2193
  905SOL    HW3 3387   2.146   0.484   6.107  1.6571 -0.6031 -0.0014
  905SOL    MW4 3388   2.144   0.402   6.076  0.1888 -0.7277  0.3848
  906SOL     OW 3389   4.241   0.685   6.212 -0.1812  0.1181  0.2127
  906SOL    HW2 3390   4.333   0.710   6.204  0.2542 -1.1804  0.7735
  906SOL    HW3 3391   4.193   0.767   6.210  0.9647  0.7997 -0.4506
  906SOL    MW4 3392   4.247   0.699   6.210  0.0274  0.0367  0.1992
  907SOL     OW 3393   2.810   2.192   0.421 -0.5591  0.8842 -0.2216
  907SOL    HW2 3394   2.803   2.143   0.503 -2.9816  4.2925  1.8582
  907SOL    HW3 3395   2.738   2.159   0.367  1.0797 -1.4125 -1.1540
  907SOL    MW4 3396   2.799   2.181   0.424 -0.6625  1.0309 -0.0702
  908SOL     OW 3397   3.658   0.217   5.482  0.2612 -0.3551 -0.0389
  908SOL    HW2 3398   3.734   0.200   5.539  0.0930  0.4366  0.4438
  908SOL    HW3 3399   3.588   0.163   5.518  0.0369  0.4666  0.7833
  908SOL    MW4 3400   3.659   0.208   5.494  0.2094 -0.1423  0.1333
  909SOL     OW 3401   2.649   0.531   6.109 -0.4519  0.2358 -0.0299
  909SOL    HW2 3402   2.672   0.438   6.097  0.2762  0.2906  0.8413
  909SOL    HW3 3403   2.727   0.570   6.147 -1.2762  0.8877  1.0422
  909SOL    MW4 3404   2.662   0.524   6.112 -0.4646  0.3290  0.2265
  910SOL     OW 3405   5.440   5.422   0.613 -0.2198  0.2034 -0.1803
  910SOL    HW2 3406   5.507   5.379   0.561 -1.6440 -0.7108 -1.3505
  910SOL    HW3 3407   5.369   5.440   0.552 -1.5934 -0.0878  1.2507
  910SOL    MW4 3408   5.439   5.419   0.598 -0.5889  0.0443 -0.1459
  911SOL     OW 3409   0.737   3.242   1.977  1.0750  0.4787 -0.0981
  911SOL    HW2 3410   0.711   3.331   2.000 -1.2097  0.1835 -1.2960
  911SOL    HW3 3411   0.683   3.185   2.031  2.5724 -0.2290  0.7170
  911SOL    MW4 3412   0.727   3.246   1.987  0.9711  0.3464 -0.1486
  912SOL     OW 3413   3.382   5.105   1.847  0.0497 -0.5778 -0.5821
  912SOL    HW2 3414   3.416   5.136   1.931  1.6417 -0.4637 -1.2322
  912SOL    HW3 3415   3.345   5.183   1.806  2.5681  0.2604 -1.5029
  912SOL    MW4 3416   3.382   5.119   1.852  0.5920 -0.4522 -0.7893
  913SOL     OW 3417   3.179   1.426   0.825 -0.3574  0.1657 -0.3295
  913SOL    HW2 3418   3.124   1.503   0.810 -1.7166 -0.7721 -0.3666
  913SOL    HW3 3419   3.232   1.419   0.746  0.0105  1.2281 -0.1936
  913SOL    MW4 3420   3.178   1.435   0.812 -0.4882  0.1821 -0.3164
  914SOL     OW 3421   3.520   3.128   1.315  0.1863  0.4535 -0.2441
  914SOL    HW2 3422   3.532   3.033   1.319  1.6572  0.5609 -1.3492
  914SOL    HW3 3423   3.425   3.139   1.302 -0.2161 -0.7731  1.3469
  914SOL    MW4 3424   3.509   3.117   1.313  0.3273  0.3058 -0.1800
  915SOL     OW 3425   3.968   6.404   1.789 -0.3890 -0.2862 -0.6410
  915SOL    HW2 3426   3.985   6.376   1.879  0.5497  0.9200 -0.4319
  915SOL    HW3 3427   3.985   6.325   1.736  0.1925 -0.6818  0.1211
  915SOL    MW4 3428   3.972   6.390   1.794 -0.1885 -0.1792 -0.5129
  916SOL     OW 3429   3.358   4.884   5.818  0.1185 -0.5492  0.2500
  916SOL    HW2 3430   3.316   4.922   5.741 -1.9179 -0.1662  1.4678
  916SOL    HW3 3431   3.328   4.938   5.891  1.0109 -1.6150  1.4616
  916SOL    MW4 3432   3.349   4.896   5.817 -0.0324 -0.6393  0.5705
  917SOL     OW 3433   1.467   2.614   0.913  0.2868 -0.4889  0.4000
  917SOL    HW2 3434   1.415   2.692   0.891  0.9771  0.1502  0.9574
  917SOL    HW3 3435   1.452   2.554   0.840  0.1260  0.3585 -0.2914
  917SOL    MW4 3436   1.458   2.617   0.900  0.3567 -0.2927  0.3824
  918SOL     OW 3437   6.081   1.474   0.162 -0.2961 -0.4111 -0.7374
  918SOL    HW2 3438   6.024   1.489   0.087  0.7580 -0.2474 -1.5345
  918SOL    HW3 3439   6.023   1.440   0.230 -1.3846  0.0401 -1.4135
  918SOL    MW4 3440   6.066   1.471   0.161 -0.3007 -0.3300 -0.9318
  919SOL     OW 3441   5.912   4.512   5.932  0.1329 -0.0108  0.0575
  919SOL    HW2 3442   5.991   4.458   5.927 -0.2632 -0.6452  0.4858
  919SOL    HW3 3443   5.844   4.458   5.892 -0.0195  0.6725 -0.6313
  919SOL    MW4 3444   5.914   4.498   5.926  0.0605 -0.0044  0.0231
  920SOL     OW 3445   0.366   3.283   2.202 -0.5191  0.2876  0.1543
  920SOL    HW2 3446   0.386   3.351   2.138 -0.8537  0.2436  0.0029
  920SOL    HW3 3447   0.328   3.330   2.276  1.0043  0.4909  0.8480
  920SOL    MW4 3448   0.364   3.298   2.203 -0.3622  0.3086  0.2259
  921SOL     OW 3449   4.417   5.188   2.463  0.1559 -0.2437 -0.3792
  921SOL    HW2 3450   4.360   5.248   2.415  0.9640 -0.0998 -1.1750
  921SOL    HW3 3451   4.404   5.212   2.555  1.1361  1.8041 -0.7098
  921SOL    MW4 3452   4.408   5.199   2.469  0.3919  0.0455 -0.5278
  922SOL     OW 3453   6.007   4.281   0.548 -0.5130  0.5493  0.2137
  922SOL    HW2 3454   6.051   4.364   0.560  0.4054  0.1967 -0.6576
  922SOL    HW3 3455   6.001   4.244   0.637 -2.3311  2.1956  0.8532
  922SOL    MW4 3456   6.012   4.287   0.562 -0.6317  0.7200  0.1831
  923SOL     OW 3457   0.757   4.602   4.442 -0.8049 -0.2416  0.2759
  923SOL    HW2 3458   0.713   4.659   4.379 -0.9641 -1.8018 -1.0774
  923SOL    HW3 3459   0.815   4.548   4.389 -0.8838 -1.5466  1.4594
  923SOL    MW4 3460   0.759   4.603   4.427 -0.8363 -0.6196  0.2535
  924SOL     OW 3461   3.336   4.566   5.468 -0.2435  0.0495 -0.2170
  924SOL    HW2 3462   3.367   4.561   5.377 -0.4538 -1.0636 -0.2385
  924SOL    HW3 3463   3.253   4.520   5.467 -0.1674 -0.1060  0.5842
  924SOL    MW4 3464   3.330   4.560   5.456 -0.2612 -0.1179 -0.1142
  925SOL     OW 3465   1.646   0.932   6.344  0.3443  0.1577 -0.2277
  925SOL    HW2 3466   1.698   0.909   6.267  0.1257  2.3294 -1.0940
  925SOL    HW3 3467   1.569   0.977   6.309 -1.4883 -1.7341  1.1047
  925SOL    MW4 3468   1.643   0.935   6.329  0.0737  0.1946 -0.1662
  926SOL     OW 3469   3.808   4.231   5.542  0.7998  0.7190 -0.2389
  926SOL    HW2 3470   3.730   4.230   5.487  0.5980 -1.7114 -0.0363
  926SOL    HW3 3471   3.780   4.274   5.623 -0.2292  0.2774 -0.3449
  926SOL    MW4 3472   3.794   4.236   5.546  0.6374  0.3401 -0.2261
  927SOL     OW 3473   5.013   2.077   4.905 -0.5061  0.2090  0.0342
  927SOL    HW2 3474   4.944   2.142   4.918 -1.4299 -0.4934 -1.1441
  927SOL    HW3 3475   5.015   2.063   4.810  1.6161  0.5740 -0.0343
  927SOL    MW4 3476   5.004   2.084   4.894 -0.3480  0.1645 -0.1303
  928SOL     OW 3477   4.063   0.627   0.900 -0.2265  0.2388 -0.9814
  928SOL    HW2 3478   3.997   0.687   0.935 -0.4234  0.2374 -1.3433
  928SOL    HW3 3479   4.013   0.558   0.856 -0.0232 -0.6701  0.1772
  928SOL    MW4 3480   4.048   0.626   0.899 -0.2257  0.1187 -0.8763
  929SOL     OW 3481   4.038   3.306   3.937  0.0093 -0.0967 -0.4490
  929SOL    HW2 3482   3.963   3.270   3.890 -0.0871  1.0744 -1.2375
  929SOL    HW3 3483   4.010   3.394   3.963  0.8953  0.1359 -0.2353
  929SOL    MW4 3484   4.025   3.313   3.934  0.1135  0.0885 -0.5248
  930SOL     OW 3485   0.902   3.939   1.306  0.2476 -0.6038 -0.4471
  930SOL    HW2 3486   0.838   3.897   1.364 -0.9550 -1.8003 -2.5134
  930SOL    HW3 3487   0.972   3.969   1.365 -1.6014 -0.3591  1.7563
  930SOL    MW4 3488   0.903   3.937   1.322 -0.1550 -0.7294 -0.4290
  931SOL     OW 3489   0.943   4.909   2.218  0.4904 -0.4391 -0.0802
  931SOL    HW2 3490   0.891   4.858   2.281  1.3818 -1.6196 -0.2462
  931SOL    HW3 3491   1.010   4.951   2.273 -0.3087  0.6573  0.0696
  931SOL    MW4 3492   0.945   4.908   2.234  0.5026 -0.4502 -0.0823
  932SOL     OW 3493   3.832   3.747   4.685  0.7590  0.4994 -0.3072
  932SOL    HW2 3494   3.831   3.797   4.767  0.9044 -1.0177  0.6843
  932SOL    HW3 3495   3.750   3.696   4.688  1.3613 -0.5145 -0.4508
  932SOL    MW4 3496   3.821   3.747   4.696  0.8577  0.1655 -0.1954
  933SOL     OW 3497   5.313   6.095   0.144 -0.1741  0.1856 -0.0666
  933SOL    HW2 3498   5.329   6.188   0.158  0.8898 -0.2123  1.6406
  933SOL    HW3 3499   5.392   6.062   0.102  0.0446 -0.2135  0.6512
  933SOL    MW4 3500   5.325   6.103   0.140 -0.0049  0.0805  0.2533
  934SOL     OW 3501   1.397   6.142   4.730 -0.1950  0.8402  0.0400
  934SOL    HW2 3502   1.321   6.172   4.680 -1.5881 -1.3673  0.6899
  934SOL    HW3 3503   1.403   6.048   4.710  1.3413  0.6214  1.3250
  934SOL    MW4 3504   1.388   6.133   4.720 -0.1761  0.5201  0.2953
  935SOL     OW 3505   1.735   4.544   4.886 -0.3477  0.2685  1.1234
  935SOL    HW2 3506   1.682   4.530   4.965  1.6140  0.7317  2.5793
  935SOL    HW3 3507   1.820   4.573   4.919  1.0114 -0.9655 -1.0977
  935SOL    MW4 3508   1.739   4.546   4.901  0.0905  0.1668  1.0224
  936SOL     OW 3509   3.748   6.328   4.127 -0.0158 -0.1372  0.0368
  936SOL    HW2 3510   3.820   6.315   4.188 -0.0175  0.6789  0.2330
  936SOL    HW3 3511   3.776   6.284   4.047  0.4333 -0.3462  0.3034
  936SOL    MW4 3512   3.761   6.321   4.124  0.0432 -0.0571  0.0979
  937SOL     OW 3513   5.126   5.034   3.252  0.0074  0.4433 -0.0441
  937SOL    HW2 3514   5.137   5.125   3.224  0.5016  0.5284  0.4010
  937SOL    HW3 3515   5.090   5.040   3.341 -0.5046  0.1936 -0.2297
  937SOL    MW4 3516   5.123   5.047   3.260  0.0051  0.4216 -0.0098
  938SOL     OW 3517   0.608   0.422   5.962 -0.7598  0.5931 -0.6859
  938SOL    HW2 3518   0.541   0.465   5.908  0.3177  2.3729 -0.7131
  938SOL    HW3 3519   0.614   0.477   6.040  0.3395  0.2088 -0.4831
  938SOL    MW4 3520   0.600   0.435   5.965 -0.4726  0.7772 -0.6627
  939SOL     OW 3521   5.084   3.437   1.045  0.7703 -0.3993  0.1505
  939SOL    HW2 3522   5.064   3.372   1.112 -0.3042 -1.8718 -1.5050
  939SOL    HW3 3523   5.128   3.508   1.092 -1.6419 -0.4546  2.7241
  939SOL    MW4 3524   5.088   3.438   1.060  0.3102 -0.6009  0.2717
  940SOL     OW 3525   5.360   0.361   5.576  0.8802 -0.2206  0.2440
  940SOL    HW2 3526   5.387   0.333   5.663  1.3912  0.4491  0.3051
  940SOL    HW3 3527   5.401   0.446   5.564 -2.0332  1.3837  0.7365
  940SOL    MW4 3528   5.369   0.368   5.586  0.5633  0.0795  0.3171
  941SOL     OW 3529   4.096   4.111   1.267  0.2536  0.1887 -0.2438
  941SOL    HW2 3530   4.031   4.047   1.239 -1.3080 -0.0863  3.4012
  941SOL    HW3 3531   4.179   4.063   1.262 -0.5363 -1.2686 -0.1004
  941SOL    MW4 3532   4.099   4.096   1.263 -0.0567 -0.0398  0.2560
  942SOL     OW 3533   4.963   2.220   6.176  0.0624  0.5750 -0.6739
  942SOL    HW2 3534   5.056   2.241   6.184  0.2153 -0.5835  0.9925
  942SOL    HW3 3535   4.956   2.174   6.092  0.9874  0.6588 -0.8077
  942SOL    MW4 3536   4.975   2.217   6.166  0.2046  0.4332 -0.4717
  943SOL     OW 3537   0.011   3.445   0.482 -0.1734  0.2562 -0.1232
  943SOL    HW2 3538  -0.038   3.507   0.537  1.5098 -0.7096  2.6366
  943SOL    HW3 3539  -0.004   3.360   0.522  1.3065 -0.4897 -1.0555
  943SOL    MW4 3540   0.002   3.442   0.494  0.2439  0.0303  0.1179
  944SOL     OW 3541   2.382   0.106   0.793 -0.1746  0.0705  0.4546
  944SOL    HW2 3542   2.425   0.186   0.823 -1.0445  1.2556 -1.3004
  944SOL    HW3 3543   2.356   0.124   0.703  0.2678 -2.4805 -0.2736
  944SOL    MW4 3544   2.384   0.119   0.785 -0.2310 -0.1097  0.1270
  945SOL     OW 3545   0.029   2.894   0.659  0.7934  0.0378  0.4448
  945SOL    HW2 3546  -0.065   2.908   0.667  0.6689 -0.1175 -0.6032
  945SOL    HW3 3547   0.052   2.930   0.573  1.3933 -1.4315 -0.0371
  945SOL    MW4 3548   0.020   2.901   0.649  0.8561 -0.1766  0.2430
  946SOL     OW 3549   4.807   2.828   1.131  0.2709  0.5178  0.0489
  946SOL    HW2 3550   4.767   2.743   1.111  0.6138  0.3954 -0.1297
  946SOL    HW3 3551   4.746   2.892   1.096  0.0656  0.3446  0.0815
  946SOL    MW4 3552   4.793   2.825   1.124  0.2891  0.4788  0.0296
  947SOL     OW 3553   2.028   6.100   0.919  0.5708 -0.1883 -0.2132
  947SOL    HW2 3554   1.934   6.117   0.905  0.3256 -0.0046  1.4576
  947SOL    HW3 3555   2.065   6.101   0.831 -0.8801  0.4446 -0.8656
  947SOL    MW4 3556   2.020   6.103   0.906  0.3470 -0.0805 -0.0789
  948SOL     OW 3557   1.352   2.961   5.691 -0.1956 -0.0512  0.2611
  948SOL    HW2 3558   1.395   3.013   5.759 -1.4867 -0.8021  1.6975
  948SOL    HW3 3559   1.292   3.022   5.649  0.7208  0.4568 -0.3574
  948SOL    MW4 3560   1.350   2.976   5.695 -0.2450 -0.0833  0.3690
  949SOL     OW 3561   4.538   4.930   4.340 -0.9513  0.2308 -0.5249
  949SOL    HW2 3562   4.609   4.989   4.366 -0.1297 -1.0666  0.3080
  949SOL    HW3 3563   4.462   4.986   4.332 -0.9314  1.0755  3.2053
  949SOL    MW4 3564   4.538   4.945   4.343 -0.8403  0.1711  0.0772
  950SOL     OW 3565   3.177   2.346   0.028  0.4439  0.3399  0.0507
  950SOL    HW2 3566   3.202   2.283  -0.039 -0.1530 -0.3140  0.4264
  950SOL    HW3 3567   3.082   2.339   0.034  0.4917  0.3083  1.0241
  950SOL    MW4 3568   3.168   2.337   0.020  0.3714  0.2494  0.2287
  951SOL     OW 3569   3.441   5.501   1.111 -0.2241 -0.7763  0.5013
  951SOL    HW2 3570   3.529   5.533   1.092 -0.7292  1.0789  1.0808
  951SOL    HW3 3571   3.393   5.514   1.030 -0.7459  1.2064  1.0780
  951SOL    MW4 3572   3.446   5.507   1.098 -0.3596 -0.2699  0.6539
  952SOL     OW 3573   3.268   0.366   1.403 -0.0900  0.2286  0.0720
  952SOL    HW2 3574   3.232   0.326   1.325 -0.6811  1.9094 -0.5535
  952SOL    HW3 3575   3.363   0.361   1.391 -0.0582 -2.1344  0.6635
  952SOL    MW4 3576   3.276   0.360   1.391 -0.1638  0.1386  0.0675
  953SOL     OW 3577   1.781   4.370   1.765 -0.0197  0.4095 -0.4180
  953SOL    HW2 3578   1.829   4.324   1.697 -1.9251  0.3612 -1.7953
  953SOL    HW3 3579   1.811   4.330   1.847 -0.9241 -2.6694 -1.4829
  953SOL    MW4 3580   1.792   4.359   1.767 -0.3904 -0.0031 -0.7402
  954SOL     OW 3581   3.923   6.407   4.642  0.3385  0.5046  0.1597
  954SOL    HW2 3582   3.990   6.363   4.590 -0.6702 -0.1279 -0.6268
  954SOL    HW3 3583   3.885   6.338   4.696 -1.7132  0.2013 -1.5604
  954SOL    MW4 3584   3.927   6.392   4.642 -0.0653  0.3811 -0.1710
  955SOL     OW 3585   1.559   2.591   3.138  0.0658 -0.4371 -0.0584
  955SOL    HW2 3586   1.557   2.686   3.135 -0.2138 -0.4529 -0.4075
  955SOL    HW3 3587   1.546   2.564   3.047  1.6544 -0.7795 -0.2083
  955SOL    MW4 3588   1.557   2.600   3.126  0.2385 -0.4844 -0.1243
  956SOL     OW 3589   4.619   4.171   2.980 -0.1857  0.4722 -0.4253
  956SOL    HW2 3590   4.638   4.109   3.051  2.0564 -0.6106 -1.8712
  956SOL    HW3 3591   4.525   4.188   2.988 -0.4309 -1.3418  1.4184
  956SOL    MW4 3592   4.609   4.165   2.991  0.0778  0.0900 -0.3728
  957SOL     OW 3593   3.140   1.618   3.507  0.1823 -0.1068 -1.0764
  957SOL    HW2 3594   3.084   1.687   3.542 -0.0756 -0.1988 -1.2948
  957SOL    HW3 3595   3.229   1.644   3.529 -0.0288 -0.6775  0.5490
  957SOL    MW4 3596   3.144   1.630   3.514  0.1204 -0.1943 -0.8908
  958SOL     OW 3597   3.254   6.346   4.939  0.0366 -0.4004 -0.5302
  958SOL    HW2 3598   3.260   6.271   4.998  2.1237  2.5404  3.4373
  958SOL    HW3 3599   3.161   6.367   4.936 -0.2737 -1.5015  0.5643
  958SOL    MW4 3600   3.243   6.339   4.946  0.2710 -0.1577  0.1377
  959SOL     OW 3601   4.488   1.294   2.117  0.6109  0.2483  0.4359
  959SOL    HW2 3602   4.562   1.323   2.063 -0.2531  0.3791 -0.7255
  959SOL    HW3 3603   4.415   1.285   2.055  0.0135 -1.2906  1.2928
  959SOL    MW4 3604   4.488   1.296   2.101  0.4180  0.0625  0.3957
  960SOL     OW 3605   0.210   3.498   0.109  0.2337  0.2225  0.2209
  960SOL    HW2 3606   0.158   3.421   0.128  1.0065  0.0566  1.8767
  960SOL    HW3 3607   0.275   3.468   0.045 -0.1559 -0.2096  0.0236
  960SOL    MW4 3608   0.212   3.484   0.103  0.2843  0.1436  0.4134
  961SOL     OW 3609   1.036   2.445   5.345 -0.0184  0.6357  0.2379
  961SOL    HW2 3610   0.993   2.449   5.431  0.8813 -0.3387  0.7538
  961SOL    HW3 3611   0.993   2.373   5.300  0.3771  0.3210  0.3624
  961SOL    MW4 3612   1.025   2.436   5.351  0.1525  0.4656  0.3224
  962SOL     OW 3613   4.894   2.498   2.576  0.0068  0.1414  0.3326
  962SOL    HW2 3614   4.985   2.471   2.586 -0.5637 -1.2641  2.7080
  962SOL    HW3 3615   4.851   2.424   2.533 -0.3835 -0.1704  1.2176
  962SOL    MW4 3616   4.900   2.485   2.572 -0.1200 -0.0852  0.7627
  963SOL     OW 3617   5.938   1.934   2.835  0.5100 -1.1212 -0.5293
  963SOL    HW2 3618   5.910   2.017   2.875 -0.3033 -1.6258 -0.0072
  963SOL    HW3 3619   5.860   1.902   2.790  1.8924  0.3968 -4.3341
  963SOL    MW4 3620   5.924   1.941   2.835  0.5851 -0.9875 -0.9624
  964SOL     OW 3621   5.122   0.459   2.299  0.2541  0.0306  0.0734
  964SOL    HW2 3622   5.133   0.553   2.309  1.7774 -0.1644  0.4982
  964SOL    HW3 3623   5.202   0.421   2.335  0.3085 -1.3596 -1.3804
  964SOL    MW4 3624   5.134   0.466   2.305  0.4623 -0.1786 -0.0624
  965SOL     OW 3625   4.282   1.752   3.499 -0.1452 -0.3025  0.0934
  965SOL    HW2 3626   4.248   1.776   3.413 -3.8357 -1.0586  1.1582
  965SOL    HW3 3627   4.262   1.828   3.555  0.3003 -0.6338  0.7228
  965SOL    MW4 3628   4.274   1.765   3.495 -0.5733 -0.4460  0.3169
  966SOL     OW 3629   0.118   5.526   1.078 -0.7892 -0.3714  0.6083
  966SOL    HW2 3630   0.189   5.462   1.076 -1.3522 -1.0255  1.1226
  966SOL    HW3 3631   0.049   5.488   1.023 -0.5015  0.5669 -0.4323
  966SOL    MW4 3632   0.118   5.513   1.070 -0.8256 -0.3339  0.5388
  967SOL     OW 3633   2.285   5.200   5.269 -0.2988  0.1382 -0.1706
  967SOL    HW2 3634   2.380   5.197   5.257 -0.2254  0.7784  0.2061
  967SOL    HW3 3635   2.266   5.126   5.326 -0.2375 -0.9520 -1.5161
  967SOL    MW4 3636   2.295   5.190   5.275 -0.2810  0.0788 -0.2984
  968SOL     OW 3637   3.651   2.229   4.728  0.3244  0.1305  0.5763
  968SOL    HW2 3638   3.602   2.299   4.684 -0.8597 -0.6298  0.6430
  968SOL    HW3 3639   3.597   2.151   4.717  0.0098 -0.1277  3.2723
  968SOL    MW4 3640   3.637   2.228   4.720  0.1267 -0.0039  0.9408
  969SOL     OW 3641   0.971   1.900   5.307 -0.8010 -0.4645  0.0954
  969SOL    HW2 3642   0.943   1.876   5.218 -0.8299 -0.4250  0.0935
  969SOL    HW3 3643   1.038   1.836   5.329 -2.0987 -1.6234  0.7655
  969SOL    MW4 3644   0.976   1.889   5.298 -0.9760 -0.6122  0.1835
  970SOL     OW 3645   5.842   5.599   5.636  0.0430 -0.2810  0.3805
  970SOL    HW2 3646   5.810   5.689   5.633  1.6156  0.2967  0.2052
  970SOL    HW3 3647   5.806   5.558   5.558  0.6686  0.6884 -0.4408
  970SOL    MW4 3648   5.833   5.606   5.626  0.3330 -0.0768  0.2490
  971SOL     OW 3649   5.230   0.042   1.942 -0.3052  0.2140  0.0463
  971SOL    HW2 3650   5.202   0.126   1.904  2.3194  1.3740  0.3978
  971SOL    HW3 3651   5.181   0.035   2.024 -0.8633  1.2110 -0.1838
  971SOL    MW4 3652   5.220   0.052   1.948 -0.0325  0.4986  0.0623
  972SOL     OW 3653   2.442   0.770   1.301  0.0746 -0.3499  0.0595
  972SOL    HW2 3654   2.414   0.723   1.379 -0.2811  0.4716  0.4464
  972SOL    HW3 3655   2.374   0.751   1.235 -0.1220 -0.2912  0.2442
  972SOL    MW4 3656   2.429   0.762   1.302  0.0017 -0.2338  0.1349
  973SOL     OW 3657   2.752   2.918   2.386 -0.4850  0.1553 -1.1577
  973SOL    HW2 3658   2.784   2.912   2.476  0.1225  0.8903 -1.3143
  973SOL    HW3 3659   2.819   2.875   2.333 -0.7028 -0.0237 -1.2882
  973SOL    MW4 3660   2.765   2.912   2.391 -0.4336  0.2287 -1.1956
  974SOL     OW 3661   2.673   0.823   0.785 -0.7102 -0.1375 -0.3295
  974SOL    HW2 3662   2.708   0.895   0.733 -0.5171 -0.0012 -0.0137
  974SOL    HW3 3663   2.584   0.850   0.808 -0.9378 -0.3680 -0.9094
  974SOL    MW4 3664   2.666   0.836   0.781 -0.7147 -0.1499 -0.3643
  975SOL     OW 3665   4.638   6.313  -0.015 -0.2950  0.7382 -0.4371
  975SOL    HW2 3666   4.691   6.265  -0.079 -1.2721  2.0691 -2.3387
  975SOL    HW3 3667   4.665   6.278   0.070  1.3258 -0.8387 -1.5366
  975SOL    MW4 3668   4.648   6.302  -0.012 -0.2101  0.7058 -0.8330
  976SOL     OW 3669   0.683   3.899   0.462 -0.3791  0.7574  0.4668
  976SOL    HW2 3670   0.639   3.984   0.457  0.8807  1.6284  2.7401
  976SOL    HW3 3671   0.775   3.918   0.443 -0.2733 -0.3550 -0.2789
  976SOL    MW4 3672   0.689   3.913   0.458 -0.1989  0.7256  0.6683
  977SOL     OW 3673   0.377   5.365   0.437  0.0357  0.8850 -0.0373
  977SOL    HW2 3674   0.391   5.457   0.461 -1.3404  0.8488  0.9936
  977SOL    HW3 3675   0.283   5.351   0.449  0.0509 -0.3742 -1.2319
  977SOL    MW4 3676   0.367   5.375   0.442 -0.1438  0.7141 -0.0589
  978SOL     OW 3677   0.909   0.681   2.712 -0.1621 -0.3019 -0.3971
  978SOL    HW2 3678   0.894   0.663   2.805 -1.5004  0.4878 -0.4306
  978SOL    HW3 3679   0.953   0.766   2.711  5.2174 -2.6796 -0.2883
  978SOL    MW4 3680   0.913   0.690   2.724  0.3711 -0.5114 -0.3871
  979SOL     OW 3681   6.341   0.300   1.622  0.0837  0.3086 -0.4615
  979SOL    HW2 3682   6.388   0.265   1.698  0.3937  2.7396  0.5350
  979SOL    HW3 3683   6.263   0.245   1.615 -0.1733  0.2914  1.8721
  979SOL    MW4 3684   6.337   0.288   1.631  0.0907  0.6271 -0.0221
  980SOL     OW 3685   2.799   4.325   2.943  0.2946  0.9938  0.0908
  980SOL    HW2 3686   2.870   4.306   2.882 -1.5915 -2.5415 -1.2403
  980SOL    HW3 3687   2.828   4.288   3.026  0.2895  0.0874 -0.3031
  980SOL    MW4 3688   2.812   4.318   2.946  0.0451  0.4077 -0.1368
  981SOL     OW 3689   4.979   3.097   2.966 -0.4070 -0.9749  0.1539
  981SOL    HW2 3690   5.010   3.064   3.050 -2.0796 -0.9284  0.8328
  981SOL    HW3 3691   4.971   3.020   2.910  0.1121 -1.0908  0.2448
  981SOL    MW4 3692   4.982   3.083   2.969 -0.5592 -0.9841  0.2555
  982SOL     OW 3693   4.278   1.332   0.249  0.1331  0.2157 -0.3447
  982SOL    HW2 3694   4.371   1.316   0.237  0.2943 -1.9894  2.8894
  982SOL    HW3 3695   4.235   1.254   0.212 -0.4397  0.8513 -1.0791
  982SOL    MW4 3696   4.284   1.320   0.242  0.0788  0.0086 -0.0149
  983SOL     OW 3697   3.870   1.625   1.235 -0.2054  0.4363  0.0048
  983SOL    HW2 3698   3.828   1.666   1.159 -1.1306 -0.2713  0.1173
  983SOL    HW3 3699   3.802   1.622   1.302 -0.6893 -2.5889 -0.4830
  983SOL    MW4 3700   3.856   1.630   1.234 -0.3914 -0.0562 -0.0447
  984SOL     OW 3701   0.894   3.070   0.585  0.3073  0.2640  0.1566
  984SOL    HW2 3702   0.800   3.065   0.598  0.1648 -0.8311 -1.0693
  984SOL    HW3 3703   0.911   3.011   0.512  2.0129  0.0217  0.7069
  984SOL    MW4 3704   0.884   3.061   0.577  0.5135  0.0876  0.0674
  985SOL     OW 3705   0.451   2.977   5.685  0.0663 -0.5407 -0.0071
  985SOL    HW2 3706   0.387   3.030   5.639  0.4370  0.6304  0.7641
  985SOL    HW3 3707   0.478   3.031   5.760 -0.3550 -2.2530  1.4664
  985SOL    MW4 3708   0.446   2.991   5.689  0.0596 -0.6121  0.2891
  986SOL     OW 3709   5.598   6.140   2.080 -0.1993  0.1208  0.4848
  986SOL    HW2 3710   5.531   6.074   2.097  0.6707 -0.6511  0.9794
  986SOL    HW3 3711   5.664   6.126   2.147  0.0696  1.4242  0.5191
  986SOL    MW4 3712   5.598   6.129   2.091 -0.0490  0.1909  0.5546
  987SOL     OW 3713   2.171   6.136   5.583  0.1019 -0.1922  0.0031
  987SOL    HW2 3714   2.217   6.131   5.666  1.3128 -1.1952 -0.6870
  987SOL    HW3 3715   2.114   6.058   5.582  0.3169 -0.3496 -0.2257
  987SOL    MW4 3716   2.169   6.125   5.594  0.2900 -0.3453 -0.1182
  988SOL     OW 3717   2.553   1.102   3.707 -0.5542 -0.4270  0.0661
  988SOL    HW2 3718   2.635   1.070   3.668 -0.5160 -0.1663 -0.0679
  988SOL    HW3 3719   2.498   1.023   3.713 -0.3753 -0.5630 -0.0497
  988SOL    MW4 3720   2.556   1.087   3.702 -0.5256 -0.4105  0.0331
  989SOL     OW 3721   4.874   0.842   3.439 -0.1613 -0.0744 -0.1151
  989SOL    HW2 3722   4.957   0.887   3.451 -0.8318  1.0669  0.4890
  989SOL    HW3 3723   4.892   0.774   3.374  0.9735  0.8829 -0.8433
  989SOL    MW4 3724   4.887   0.839   3.432 -0.1001  0.2025 -0.1314
  990SOL     OW 3725   4.074   5.169   3.447 -0.5623  0.9472  0.0282
  990SOL    HW2 3726   4.119   5.205   3.370  0.7987 -2.6579 -1.0572
  990SOL    HW3 3727   4.138   5.178   3.518 -0.3793  0.9966 -0.1397
  990SOL    MW4 3728   4.089   5.175   3.446 -0.3586  0.4781 -0.1371
  991SOL     OW 3729   4.533   1.236   4.468 -0.8114  0.0130 -0.4463
  991SOL    HW2 3730   4.489   1.309   4.425  0.8121  1.0287 -0.4685
  991SOL    HW3 3731   4.605   1.214   4.409 -2.0305 -2.5657 -1.1320
  991SOL    MW4 3732   4.536   1.242   4.455 -0.7580 -0.1933 -0.5397
  992SOL     OW 3733   1.675   3.520   2.809 -0.7611  0.0439  0.4235
  992SOL    HW2 3734   1.688   3.613   2.824 -0.3771  0.0444  0.1234
  992SOL    HW3 3735   1.753   3.478   2.845 -1.0343 -0.1828  0.7578
  992SOL    MW4 3736   1.687   3.527   2.815 -0.7465  0.0141  0.4280
  993SOL     OW 3737   3.222   4.782   2.950  0.3795  0.7511  0.4279
  993SOL    HW2 3738   3.275   4.835   2.891  1.0877 -2.2682 -1.9318
  993SOL    HW3 3739   3.145   4.835   2.968  1.3548  2.8223 -1.1248
  993SOL    MW4 3740   3.219   4.796   2.945  0.6016  0.6260 -0.0883
  994SOL     OW 3741   1.830   3.158   0.341  0.5745  0.4897 -0.0311
  994SOL    HW2 3742   1.762   3.172   0.407  0.7844  1.6582 -0.0415
  994SOL    HW3 3743   1.801   3.080   0.293 -1.1918  1.4131 -0.5692
  994SOL    MW4 3744   1.817   3.150   0.343  0.3692  0.7657 -0.1035
  995SOL     OW 3745   4.806   4.284   4.039  0.6542  0.0169 -0.2197
  995SOL    HW2 3746   4.853   4.277   4.123 -1.0847  0.4542  0.8353
  995SOL    HW3 3747   4.828   4.372   4.007  0.4368  0.2863  0.3531
  995SOL    MW4 3748   4.815   4.295   4.046  0.3961  0.1102 -0.0049
  996SOL     OW 3749   2.693   1.346   3.076  0.0301 -0.0439 -0.3767
  996SOL    HW2 3750   2.751   1.272   3.056  0.9255  0.9215 -1.4751
  996SOL    HW3 3751   2.659   1.374   2.991 -1.6666 -0.2549  0.1979
  996SOL    MW4 3752   2.696   1.340   3.062 -0.0757  0.0557 -0.4458
  997SOL     OW 3753   1.135   5.162   0.397  0.6560 -0.5844 -0.0203
  997SOL    HW2 3754   1.061   5.206   0.353 -0.7926  1.0783  3.6367
  997SOL    HW3 3755   1.097   5.082   0.432  1.5698 -1.4624 -0.9566
  997SOL    MW4 3756   1.120   5.158   0.396  0.5854 -0.4809  0.3387
  998SOL     OW 3757   6.401   1.992   6.192  0.0571  0.5453 -0.0017
  998SOL    HW2 3758   6.483   2.022   6.232  0.6183 -0.2084 -0.5432
  998SOL    HW3 3759   6.337   1.996   6.263  0.7725  0.3034  0.6736
  998SOL    MW4 3760   6.403   1.996   6.207  0.2255  0.4140  0.0160
  999SOL     OW 3761   3.878   3.428   6.377 -0.3020  0.2775 -0.2521
  999SOL    HW2 3762   3.819   3.499   6.405 -0.5755 -0.3708  0.8593
  999SOL    HW3 3763   3.819   3.356   6.355  0.0075  0.1634 -0.7143
  999SOL    MW4 3764   3.862   3.428   6.378 -0.2973  0.1769 -0.1664
 1000SOL     OW 3765   4.199   3.128   1.098 -0.3074  0.1526  0.1536
 1000SOL    HW2 3766   4.270   3.092   1.151 -0.9620  0.0615  0.9793
 1000SOL    HW3 3767   4.124   3.072   1.117  0.1756 -2.0439 -3.3883
 1000SOL    MW4 3768   4.199   3.116   1.107 -0.3300 -0.1492 -0.2048
 1001SOL     OW 3769   2.008   5.050   2.019 -0.0832 -0.0895 -0.1117
 1001SOL    HW2 3770   2.085   5.106   2.031  0.6600 -0.6749 -1.8823
 1001SOL    HW3 3771   1.948   5.102   1.966 -0.9185  0.3308  1.1882
 1001SOL    MW4 3772   2.010   5.064   2.014 -0.0954 -0.1113 -0.1738
 1002SOL     OW 3773   2.366   2.208   6.275  0.4611 -1.2206 -0.2480
 1002SOL    HW2 3774   2.438   2.151   6.301  1.8255  0.2537 -0.6770
 1002SOL    HW3 3775   2.408   2.289   6.247 -1.3707 -0.3113 -0.5068
 1002SOL    MW4 3776   2.381   2.211   6.275  0.3994 -0.9061 -0.3388
 1003SOL     OW 3777   0.855   3.577   1.794  0.0883  0.1904 -0.1223
 1003SOL    HW2 3778   0.931   3.634   1.808  0.8820 -0.9925  0.5433
 1003SOL    HW3 3779   0.892   3.492   1.772 -0.8542 -1.3222  3.4449
 1003SOL    MW4 3780   0.870   3.573   1.793  0.0686 -0.1653  0.4362
 1004SOL     OW 3781   2.759   2.113   5.763 -0.3435  0.3552  0.1257
 1004SOL    HW2 3782   2.784   2.194   5.719  0.6556  1.5208  2.6503
 1004SOL    HW3 3783   2.673   2.130   5.800 -0.0566  0.3664  0.8161
 1004SOL    MW4 3784   2.751   2.126   5.762 -0.1738  0.5105  0.5499
 1005SOL     OW 3785   4.037   2.180   0.038  0.1153 -0.0180 -0.3521
 1005SOL    HW2 3786   3.981   2.203  -0.036 -0.4753 -0.9174 -0.2044
 1005SOL    HW3 3787   4.035   2.257   0.094 -0.0037  0.4105 -0.9345
 1005SOL    MW4 3788   4.029   2.193   0.036  0.0217 -0.0801 -0.4094
 1006SOL     OW 3789   0.255   1.817   3.067 -0.1209 -0.8843 -0.1292
 1006SOL    HW2 3790   0.160   1.821   3.079  0.0697 -0.5857  1.4469
 1006SOL    HW3 3791   0.287   1.762   3.139  1.1863  1.6654  1.3897
 1006SOL    MW4 3792   0.247   1.810   3.078  0.0767 -0.5085  0.2791
 1007SOL     OW 3793   4.356   5.318   0.237  0.2637  0.2591  0.8296
 1007SOL    HW2 3794   4.307   5.385   0.190  0.3174  0.4323  1.0197
 1007SOL    HW3 3795   4.376   5.358   0.322 -1.2857 -0.6326  1.6661
 1007SOL    MW4 3796   4.352   5.332   0.242  0.0664  0.1643  0.9650
 1008SOL     OW 3797   2.719   0.348   4.418 -0.2715 -0.3011 -0.4502
 1008SOL    HW2 3798   2.676   0.263   4.432  0.2859 -0.5411 -0.1451
 1008SOL    HW3 3799   2.767   0.336   4.336 -0.2589 -0.2524 -0.4498
 1008SOL    MW4 3800   2.720   0.335   4.409 -0.1963 -0.3263 -0.4099
 1009SOL     OW 3801   3.504   3.563   0.580 -0.4858  0.0037 -0.2392
 1009SOL    HW2 3802   3.413   3.582   0.558 -0.6994  0.1588  0.7728
 1009SOL    HW3 3803   3.509   3.569   0.675  0.6364  0.2279 -0.2936
 1009SOL    MW4 3804   3.493   3.566   0.589 -0.3659  0.0538 -0.1128
 1010SOL     OW 3805   4.962   4.877   4.368  0.6982 -0.6912 -0.1798
 1010SOL    HW2 3806   4.979   4.920   4.452 -0.9552 -1.5564  0.6354
 1010SOL    HW3 3807   5.000   4.789   4.378  1.0644 -0.5802 -0.5782
 1010SOL    MW4 3808   4.969   4.871   4.381  0.5284 -0.7907 -0.1248
 1011SOL     OW 3809   4.778   0.552   0.383  0.5785 -0.4954  0.0799
 1011SOL    HW2 3810   4.687   0.569   0.361 -0.0565 -2.9915  0.5085
 1011SOL    HW3 3811   4.812   0.636   0.414 -1.3029  0.6786 -0.8961
 1011SOL    MW4 3812   4.771   0.565   0.384  0.2465 -0.6698  0.0077
 1012SOL     OW 3813   3.246   2.592   1.047  0.2988  0.2362  0.1911
 1012SOL    HW2 3814   3.296   2.517   1.014 -0.2392 -0.6098  1.2492
 1012SOL    HW3 3815   3.297   2.668   1.020  2.2329 -0.5942  1.2993
 1012SOL    MW4 3816   3.260   2.592   1.039  0.4830  0.0150  0.4769
 1013SOL     OW 3817   4.516   6.097   0.737  0.3450 -0.0614 -0.0766
 1013SOL    HW2 3818   4.573   6.169   0.709  1.1062 -1.2725 -1.8813
 1013SOL    HW3 3819   4.431   6.138   0.754  1.2238  1.4965  0.7535
 1013SOL    MW4 3820   4.512   6.111   0.735  0.5614 -0.0157 -0.2052
 1014SOL     OW 3821   5.875   5.484   5.962 -0.1077  0.0544  0.4823
 1014SOL    HW2 3822   5.841   5.420   5.900  1.7230 -0.7324  0.2112
 1014SOL    HW3 3823   5.842   5.568   5.930 -0.6317 -0.5121 -0.5252
 1014SOL    MW4 3824   5.866   5.486   5.950  0.0647 -0.1242  0.3136
 1015SOL     OW 3825   5.533   2.587   0.161 -0.1244 -0.8541 -0.5689
 1015SOL    HW2 3826   5.462   2.587   0.225 -0.1066 -2.1856 -0.5323
 1015SOL    HW3 3827   5.516   2.664   0.107 -0.4261  0.0039  0.7044
 1015SOL    MW4 3828   5.522   2.597   0.162 -0.1619 -0.9166 -0.3961
 1016SOL     OW 3829   3.720   6.128   3.494 -0.0332 -0.5490  0.1055
 1016SOL    HW2 3830   3.721   6.033   3.499 -0.5451 -0.7946 -2.5267
 1016SOL    HW3 3831   3.645   6.154   3.547 -1.0265 -1.8112 -0.6116
 1016SOL    MW4 3832   3.710   6.119   3.501 -0.2318 -0.7480 -0.3364
 1017SOL     OW 3833   2.114   1.408   4.279  0.1308 -0.2261  0.4396
 1017SOL    HW2 3834   2.183   1.367   4.331 -0.2272 -1.0983  0.2390
 1017SOL    HW3 3835   2.157   1.481   4.235  0.5319  0.2838  1.6455
 1017SOL    MW4 3836   2.129   1.412   4.280  0.1365 -0.2739  0.5722
 1018SOL     OW 3837   2.117   3.081   0.670 -0.2120 -0.6860  0.5690
 1018SOL    HW2 3838   2.147   3.142   0.603 -1.8089 -1.0988 -0.5730
 1018SOL    HW3 3839   2.118   2.995   0.627 -0.8446 -1.0253  1.2066
 1018SOL    MW4 3840   2.121   3.078   0.655 -0.5062 -0.7852  0.5025
 1019SOL     OW 3841   5.583   2.626   1.081 -0.0302 -0.2801 -0.0746
 1019SOL    HW2 3842   5.608   2.569   1.008 -0.1745  2.0550 -2.0954
 1019SOL    HW3 3843   5.663   2.634   1.134  0.8939 -0.0375 -1.4420
 1019SOL    MW4 3844   5.597   2.620   1.078  0.0727  0.0600 -0.5216
 1020SOL     OW 3845   0.080   2.337   0.728 -1.4964  0.6009 -0.6725
 1020SOL    HW2 3846   0.089   2.384   0.811 -0.2913 -1.6990  0.6160
 1020SOL    HW3 3847   0.153   2.369   0.675  0.0993 -0.6122  0.6659
 1020SOL    MW4 3848   0.091   2.347   0.732 -1.1269  0.1374 -0.3259
 1021SOL     OW 3849   6.006   4.249   4.118  0.7168  0.0699 -0.4291
 1021SOL    HW2 3850   6.054   4.167   4.104 -1.0065 -0.7714 -1.8380
 1021SOL    HW3 3851   6.065   4.303   4.169  2.7264 -1.2799 -1.2072
 1021SOL    MW4 3852   6.020   4.245   4.123  0.7545 -0.2192 -0.7176
 1022SOL     OW 3853   1.260   4.317   4.459 -0.0512  0.7361  0.1662
 1022SOL    HW2 3854   1.304   4.348   4.380  1.5309  1.3400  1.2139
 1022SOL    HW3 3855   1.228   4.397   4.502  1.0341  0.6817  1.1684
 1022SOL    MW4 3856   1.262   4.332   4.454  0.3007  0.8086  0.4367
 1023SOL     OW 3857   0.002   5.113   4.261  0.4725 -0.1541  0.0482
 1023SOL    HW2 3858  -0.021   5.098   4.170 -0.0618 -1.5303  0.3754
 1023SOL    HW3 3859   0.063   5.186   4.259  0.3330 -0.0502 -1.3896
 1023SOL    MW4 3860   0.007   5.120   4.249  0.3836 -0.3219 -0.0983
 1024SOL     OW 3861   5.069   6.356   6.116 -0.2818  0.9774  0.1456
 1024SOL    HW2 3862   5.140   6.348   6.180  1.2299  1.3723 -1.4217
 1024SOL    HW3 3863   5.104   6.318   6.036 -2.2428  0.2227 -0.4143
 1024SOL    MW4 3864   5.083   6.350   6.114 -0.3411  0.9300 -0.1351
 1025SOL     OW 3865   1.883   2.404   5.921 -0.1351 -0.3605 -0.0701
 1025SOL    HW2 3866   1.831   2.484   5.929 -0.7933 -0.7497 -0.4255
 1025SOL    HW3 3867   1.950   2.413   5.989 -0.9694 -0.0802  0.7426
 1025SOL    MW4 3868   1.885   2.416   5.931 -0.3320 -0.3748 -0.0098
 1026SOL     OW 3869   0.878   0.582   3.643 -0.0765  0.2498  0.1200
 1026SOL    HW2 3870   0.842   0.577   3.554  0.4487 -1.0646 -0.0406
 1026SOL    HW3 3871   0.817   0.531   3.696 -0.2107  0.7621  0.4654
 1026SOL    MW4 3872   0.865   0.575   3.638 -0.0249  0.1440  0.1444
 1027SOL     OW 3873   1.498   5.188   2.667 -0.3422  0.0487 -0.1618
 1027SOL    HW2 3874   1.530   5.217   2.582 -1.4992 -0.1624 -0.7019
 1027SOL    HW3 3875   1.488   5.268   2.718  0.2029  0.1918 -0.2748
 1027SOL    MW4 3876   1.501   5.202   2.662 -0.4229  0.0397 -0.2479
 1028SOL     OW 3877   2.775   5.414   1.650 -0.0473  0.7531 -0.1751
 1028SOL    HW2 3878   2.728   5.399   1.732 -1.1630 -0.1856 -0.9526
 1028SOL    HW3 3879   2.753   5.504   1.626 -0.1623  0.8478  0.2786
 1028SOL    MW4 3880   2.766   5.424   1.657 -0.2097  0.6418 -0.2178
 1029SOL     OW 3881   3.474   5.472   2.778 -0.2370 -0.1075 -0.2770
 1029SOL    HW2 3882   3.379   5.482   2.769 -0.4576 -1.3080  0.4595
 1029SOL    HW3 3883   3.494   5.515   2.861 -0.4986 -1.6936  0.6507
 1029SOL    MW4 3884   3.464   5.479   2.788 -0.3006 -0.4751 -0.0574
 1030SOL     OW 3885   5.173   3.323   0.343 -0.3704 -0.4833 -0.5643
 1030SOL    HW2 3886   5.261   3.362   0.346 -0.2407 -0.8389  1.2038
 1030SOL    HW3 3887   5.141   3.344   0.256  0.7555  1.2295 -0.6111
 1030SOL    MW4 3888   5.181   3.331   0.332 -0.2047 -0.3042 -0.3372
 1031SOL     OW 3889   1.418   3.541   0.718  0.3851  0.1912  0.1128
 1031SOL    HW2 3890   1.472   3.564   0.643 -1.0060  0.7187 -0.7681
 1031SOL    HW3 3891   1.347   3.487   0.681 -0.7508  1.0985  0.8979
 1031SOL    MW4 3892   1.416   3.537   0.703  0.0517  0.3805  0.1002
 1032SOL     OW 3893   0.382   0.561   2.795  0.3675 -0.2869  0.3181
 1032SOL    HW2 3894   0.386   0.629   2.729 -0.5111 -1.5906 -1.1547
 1032SOL    HW3 3895   0.300   0.514   2.777  0.5276 -1.2152  1.7886
 1032SOL    MW4 3896   0.372   0.564   2.784  0.2727 -0.5814  0.3178
 1033SOL     OW 3897   0.313   0.573   4.915  0.0609  0.3187  0.3723
 1033SOL    HW2 3898   0.248   0.593   4.983  1.5246 -0.6394  2.1509
 1033SOL    HW3 3899   0.289   0.629   4.842 -1.7710  1.2013  1.5608
 1033SOL    MW4 3900   0.301   0.583   4.914  0.0123  0.3087  0.7638
 1034SOL     OW 3901   2.277   2.349   4.642  0.2788  0.3889  0.0576
 1034SOL    HW2 3902   2.287   2.266   4.687  0.2669 -0.0535 -0.7409
 1034SOL    HW3 3903   2.186   2.348   4.610  0.4318  0.4907 -0.3834
 1034SOL    MW4 3904   2.266   2.338   4.644  0.2974  0.3439 -0.1059
 1035SOL     OW 3905   0.054   1.814   5.734 -0.3839  0.6782 -0.7517
 1035SOL    HW2 3906   0.060   1.746   5.801 -0.3197  1.1016 -0.3233
 1035SOL    HW3 3907   0.142   1.820   5.696  0.4293  2.5173  1.2048
 1035SOL    MW4 3908   0.066   1.806   5.737 -0.2681  0.9767 -0.4370
 1036SOL     OW 3909   4.800   2.902   4.805  0.4784 -0.7861 -0.6293
 1036SOL    HW2 3910   4.857   2.825   4.808 -1.1878 -2.0458 -0.2918
 1036SOL    HW3 3911   4.751   2.899   4.887 -1.3728 -0.7588 -1.6957
 1036SOL    MW4 3912   4.801   2.892   4.816  0.0143 -0.9487 -0.7255
 1037SOL     OW 3913   5.980   4.956   5.217 -0.8761  0.1215 -0.5049
 1037SOL    HW2 3914   6.001   4.924   5.130 -2.0386  1.6540 -1.3971
 1037SOL    HW3 3915   5.908   5.018   5.203 -0.8713  0.6406  1.5018
 1037SOL    MW4 3916   5.973   4.960   5.204 -1.0289  0.3922 -0.3578
 1038SOL     OW 3917   1.255   2.844   3.944 -0.0648 -0.3493 -0.0335
 1038SOL    HW2 3918   1.238   2.937   3.927 -0.1935 -0.3523  0.0800
 1038SOL    HW3 3919   1.174   2.800   3.919  0.6893 -0.6792 -2.1553
 1038SOL    MW4 3920   1.242   2.850   3.938  0.0177 -0.3932 -0.2985
 1039SOL     OW 3921   3.825   0.834   5.118  0.1996  0.2707 -0.5624
 1039SOL    HW2 3922   3.885   0.804   5.186 -0.2314  0.0751 -0.2613
 1039SOL    HW3 3923   3.855   0.923   5.096 -0.9137  1.2014  1.4055
 1039SOL    MW4 3924   3.837   0.842   5.124 -0.0042  0.3677 -0.2631
 1040SOL     OW 3925   5.993   5.312   2.938  0.6664  0.7387  0.6922
 1040SOL    HW2 3926   6.079   5.352   2.953  0.4270  0.3216  3.8483
 1040SOL    HW3 3927   5.931   5.384   2.951  0.4473  0.7904 -0.5026
 1040SOL    MW4 3928   5.996   5.327   2.942  0.6059  0.6905  0.9510
 1041SOL     OW 3929   0.907   5.707   5.041 -0.0130  0.2901 -0.1308
 1041SOL    HW2 3930   0.901   5.664   5.127 -1.2021  0.5972 -0.0408
 1041SOL    HW3 3931   0.846   5.658   4.986  0.4052  0.3811 -0.6822
 1041SOL    MW4 3932   0.898   5.694   5.045 -0.1147  0.3426 -0.1917
 1042SOL     OW 3933   1.209   1.950   1.697 -0.2726 -0.0641 -0.3225
 1042SOL    HW2 3934   1.147   1.993   1.757 -1.6188 -0.4900 -1.3581
 1042SOL    HW3 3935   1.156   1.924   1.622  1.5086  1.1395 -2.0832
 1042SOL    MW4 3936   1.194   1.952   1.695 -0.2152  0.0385 -0.6914
 1043SOL     OW 3937   4.007   2.710   0.988  0.3082  0.4139 -0.2516
 1043SOL    HW2 3938   4.014   2.754   0.903  0.3382 -1.8010 -1.4570
 1043SOL    HW3 3939   4.072   2.754   1.043  0.7261  1.4865 -1.5485
 1043SOL    MW4 3940   4.017   2.722   0.984  0.3673  0.2632 -0.5817
 1044SOL     OW 3941   1.260   3.246   2.597  0.1108  0.1877 -0.1036
 1044SOL    HW2 3942   1.302   3.161   2.581 -1.1355 -0.4358 -0.1983
 1044SOL    HW3 3943   1.166   3.227   2.596 -0.1687  1.3495  1.1531
 1044SOL    MW4 3944   1.253   3.232   2.595 -0.0905  0.2587  0.0497
 1045SOL     OW 3945   3.627   3.309   5.150 -0.8040  0.4239 -0.5721
 1045SOL    HW2 3946   3.683   3.329   5.224  0.0610 -0.6918 -0.8891
 1045SOL    HW3 3947   3.596   3.394   5.119 -0.1078  0.9900  0.2349
 1045SOL    MW4 3948   3.630   3.322   5.156 -0.5980  0.3514 -0.5075
 1046SOL     OW 3949   4.100   1.808   3.277 -1.1325 -0.6928 -0.3421
 1046SOL    HW2 3950   4.038   1.845   3.339  0.2012  0.6272  0.2481
 1046SOL    HW3 3951   4.065   1.832   3.191 -1.4282  0.0659 -0.0179
 1046SOL    MW4 3952   4.087   1.816   3.274 -0.9955 -0.4185 -0.2215
 1047SOL     OW 3953   4.512   4.958   3.222  0.1091  0.2264 -0.6725
 1047SOL    HW2 3954   4.473   5.004   3.296 -1.0689  1.9937 -2.3041
 1047SOL    HW3 3955   4.606   4.956   3.242 -0.2972 -0.2902  1.3312
 1047SOL    MW4 3956   4.519   4.964   3.234 -0.0999  0.3914 -0.6234
 1048SOL     OW 3957   0.676   1.087   6.191  0.0520 -0.4431 -0.3245
 1048SOL    HW2 3958   0.705   1.174   6.219  2.0098 -1.2911  0.4182
 1048SOL    HW3 3959   0.716   1.075   6.105  0.5147 -0.9451 -0.0439
 1048SOL    MW4 3960   0.685   1.097   6.184  0.3714 -0.6212 -0.1895
 1049SOL     OW 3961   5.037   5.054   3.529  0.2952  0.2065  0.2466
 1049SOL    HW2 3962   5.085   5.115   3.585  1.2293  0.6729 -1.0041
 1049SOL    HW3 3963   5.016   4.980   3.585 -0.7081  1.5809  1.7576
 1049SOL    MW4 3964   5.041   5.053   3.543  0.2861  0.4494  0.2809
 1050SOL     OW 3965   1.748   5.286   5.332  0.4443 -0.6418  0.2797
 1050SOL    HW2 3966   1.710   5.347   5.395  1.6196 -0.1864  0.5745
 1050SOL    HW3 3967   1.771   5.341   5.257  1.6782 -0.6737  0.6181
 1050SOL    MW4 3968   1.746   5.301   5.330  0.7621 -0.5860  0.3633
 1051SOL     OW 3969   1.007   0.983   3.676 -0.3204  0.2825 -0.0947
 1051SOL    HW2 3970   1.030   1.035   3.600 -0.5016  1.6036  0.7141
 1051SOL    HW3 3971   0.923   1.019   3.706  0.1438  0.3697  1.1972
 1051SOL    MW4 3972   0.999   0.995   3.670 -0.2831  0.4683  0.1825
 1052SOL     OW 3973   2.579   4.305   5.432 -0.6370  0.1920 -0.0222
 1052SOL    HW2 3974   2.603   4.366   5.501 -0.2267  0.3098 -0.2677
 1052SOL    HW3 3975   2.573   4.220   5.476 -2.5438  0.6021  0.5959
 1052SOL    MW4 3976   2.582   4.302   5.447 -0.8344  0.2617  0.0270
 1053SOL     OW 3977   1.908   6.090   4.331  0.0771 -0.2955  0.1301
 1053SOL    HW2 3978   1.900   6.183   4.350  0.5108 -0.7034  2.7455
 1053SOL    HW3 3979   2.000   6.078   4.308 -0.2411  0.0687 -1.4223
 1053SOL    MW4 3980   1.919   6.100   4.330  0.0923 -0.3013  0.2704
 1054SOL     OW 3981   2.441   4.323   4.707 -0.4687 -0.1547 -0.0582
 1054SOL    HW2 3982   2.392   4.305   4.787 -0.3975 -2.4464 -0.4437
 1054SOL    HW3 3983   2.449   4.418   4.704 -2.7504  0.1525  1.2765
 1054SOL    MW4 3984   2.436   4.333   4.717 -0.7604 -0.4165  0.0670
 1055SOL     OW 3985   0.318   0.222   2.366 -1.1713  0.1753  0.3481
 1055SOL    HW2 3986   0.237   0.193   2.407 -1.6941  0.9599 -0.0988
 1055SOL    HW3 3987   0.292   0.252   2.279 -0.1454 -1.0496 -0.4224
 1055SOL    MW4 3988   0.304   0.222   2.360 -1.1049  0.1172  0.1874
 1056SOL     OW 3989   6.412   1.548   5.025  0.2666 -0.0207 -0.3782
 1056SOL    HW2 3990   6.463   1.556   4.945 -1.0425  0.9949 -1.1366
 1056SOL    HW3 3991   6.333   1.600   5.010 -0.0128  0.2097  1.5718
 1056SOL    MW4 3992   6.408   1.556   5.013  0.0570  0.1437 -0.2210
 1057SOL     OW 3993   4.948   0.529   1.745  0.1354 -0.2443  0.3742
 1057SOL    HW2 3994   5.019   0.466   1.756  0.9276  0.0377 -2.3839
 1057SOL    HW3 3995   4.944   0.545   1.650 -4.9874 -1.8386  0.0254
 1057SOL    MW4 3996   4.957   0.523   1.734 -0.4360 -0.4175 -0.0357
 1058SOL     OW 3997   3.028   4.478   5.556  0.2344 -0.1841 -0.3726
 1058SOL    HW2 3998   2.981   4.447   5.633  1.2121  0.9020  0.6855
 1058SOL    HW3 3999   2.975   4.550   5.523  0.2026 -0.1666 -0.2839
 1058SOL    MW4 4000   3.015   4.483   5.561  0.3592 -0.0385 -0.2213
 1059SOL     OW 4001   5.626   2.076   0.308 -0.1938  0.2345  0.0078
 1059SOL    HW2 4002   5.711   2.034   0.322 -1.2510 -2.1344 -0.2233
 1059SOL    HW3 4003   5.586   2.025   0.238 -1.4258  1.9569 -0.6047
 1059SOL    MW4 4004   5.632   2.064   0.301 -0.4958  0.1492 -0.1035
 1060SOL     OW 4005   3.379   1.192   2.510 -0.2394 -0.3866 -0.3987
 1060SOL    HW2 4006   3.305   1.216   2.454 -1.2943 -1.7653  0.3424
 1060SOL    HW3 4007   3.392   1.098   2.493 -0.6735 -0.8724  1.7072
 1060SOL    MW4 4008   3.371   1.183   2.500 -0.4358 -0.6326 -0.0231
 1061SOL     OW 4009   6.027   3.879   2.874  0.0544  0.4742  0.3130
 1061SOL    HW2 4010   6.110   3.834   2.856  0.9063  1.8791  0.6204
 1061SOL    HW3 4011   6.040   3.921   2.959 -0.7230  1.2936  0.0438
 1061SOL    MW4 4012   6.040   3.878   2.883  0.0642  0.7677  0.3180
 1062SOL     OW 4013   2.176   6.301   4.153  0.1187 -0.7704 -0.4532
 1062SOL    HW2 4014   2.094   6.327   4.111 -0.0104  0.4656  0.4905
 1062SOL    HW3 4015   2.240   6.303   4.083  0.2116  2.6710 -0.4537
 1062SOL    MW4 4016   2.173   6.305   4.138  0.1139 -0.1533 -0.3288
 1063SOL     OW 4017   2.798   4.412   3.839 -0.0168  0.7807  0.0464
 1063SOL    HW2 4018   2.864   4.357   3.796  1.2950  2.6614 -0.4665
 1063SOL    HW3 4019   2.715   4.381   3.804  0.6765 -0.7718 -0.3193
 1063SOL    MW4 4020   2.796   4.401   3.829  0.2477  0.8240 -0.0695
 1064SOL     OW 4021   5.350   5.153   0.694  0.2630 -0.3529 -0.3603
 1064SOL    HW2 4022   5.417   5.114   0.638 -1.1950 -3.0717 -0.3913
 1064SOL    HW3 4023   5.381   5.242   0.710  3.4313 -1.1992 -1.0488
 1064SOL    MW4 4024   5.363   5.160   0.689  0.4886 -0.8232 -0.4552
 1065SOL     OW 4025   1.662   2.519   4.224  0.4510  0.1387  0.0464
 1065SOL    HW2 4026   1.590   2.582   4.225  0.7559  0.6077 -2.0533
 1065SOL    HW3 4027   1.656   2.477   4.138  1.7905 -0.8806  0.4086
 1065SOL    MW4 4028   1.652   2.522   4.212  0.6679  0.0661 -0.1829
 1066SOL     OW 4029   2.483   5.195   6.317  0.6608  0.2646 -0.0688
 1066SOL    HW2 4030   2.389   5.180   6.330  0.5584  0.4946 -0.4916
 1066SOL    HW3 4031   2.488   5.233   6.229  0.9876  1.7329  0.5531
 1066SOL    MW4 4032   2.471   5.198   6.307  0.6904  0.4887 -0.0425
 1067SOL     OW 4033   3.475   1.823   5.371 -0.6975 -0.1181  0.8551
 1067SOL    HW2 4034   3.481   1.744   5.424  2.6087 -0.9202 -0.5010
 1067SOL    HW3 4035   3.434   1.794   5.289  3.0314 -1.3240 -0.8037
 1067SOL    MW4 4036   3.470   1.809   5.367  0.2307 -0.3831  0.4573
 1068SOL     OW 4037   5.937   6.112   4.552 -0.8582  0.1721 -0.2706
 1068SOL    HW2 4038   5.990   6.152   4.483 -2.4918  1.7721 -0.6711
 1068SOL    HW3 4039   5.899   6.034   4.511  1.2513 -1.1164  0.0831
 1068SOL    MW4 4040   5.939   6.107   4.538 -0.7954  0.2132 -0.2768
 1069SOL     OW 4041   6.137   2.392   3.109 -0.0724  0.1780  0.1257
 1069SOL    HW2 4042   6.117   2.451   3.036  0.9410 -0.0091 -0.3294
 1069SOL    HW3 4043   6.233   2.381   3.105 -0.2241 -1.5078  0.1596
 1069SOL    MW4 4044   6.147   2.398   3.099  0.0413 -0.0691  0.0701
 1070SOL     OW 4045   4.562   6.422   4.685  0.5079  0.8240  0.1669
 1070SOL    HW2 4046   4.555   6.365   4.761  0.2241 -0.7179 -0.9570
 1070SOL    HW3 4047   4.531   6.368   4.612  2.4317  1.6189 -1.3220
 1070SOL    MW4 4048   4.557   6.407   4.685  0.7243  0.7255 -0.1778
 1071SOL     OW 4049   5.252   6.360   3.181  0.1651  0.6579 -0.2677
 1071SOL    HW2 4050   5.171   6.406   3.204  0.4573  1.2855 -0.4604
 1071SOL    HW3 4051   5.319   6.429   3.181  0.4484  0.3954 -1.4704
 1071SOL    MW4 4052   5.250   6.375   3.184  0.2411  0.7061 -0.4518
 1072SOL     OW 4053   2.537   4.009   5.532 -0.0556  0.1615  0.4814
 1072SOL    HW2 4054   2.535   3.966   5.618  0.2905  0.3776  0.6003
 1072SOL    HW3 4055   2.447   4.039   5.519 -0.5439 -1.4279 -0.0352
 1072SOL    MW4 4056   2.525   4.007   5.542 -0.0744 -0.0197  0.4289
 1073SOL     OW 4057   4.524   0.642   3.511 -0.2772  0.0666  0.0552
 1073SOL    HW2 4058   4.587   0.599   3.453 -1.1673  0.1812 -1.0122
 1073SOL    HW3 4059   4.495   0.719   3.463 -0.6857  0.4199  0.8493
 1073SOL    MW4 4060   4.529   0.647   3.497 -0.4486  0.1284  0.0191
 1074SOL     OW 4061   3.942   3.537   4.013 -0.0455  0.1635  0.1662
 1074SOL    HW2 4062   3.874   3.551   3.947  0.4844  0.5477 -0.3149
 1074SOL    HW3 4063   3.894   3.514   4.093 -0.7148  0.0570 -0.2577
 1074SOL    MW4 4064   3.927   3.536   4.015 -0.0639  0.2002  0.0468
 1075SOL     OW 4065   4.555   0.960   1.603 -0.1773  0.2123  0.1801
 1075SOL    HW2 4066   4.512   1.014   1.536 -1.2865 -1.8895 -0.9185
 1075SOL    HW3 4067   4.642   0.944   1.568 -0.9331 -1.3371 -1.1338
 1075SOL    MW4 4068   4.561   0.965   1.590 -0.4233 -0.2694 -0.1382
 1076SOL     OW 4069   0.526   1.669   4.590 -0.2233 -0.2293 -0.0051
 1076SOL    HW2 4070   0.493   1.682   4.678 -2.5099 -2.8564 -0.3364
 1076SOL    HW3 4071   0.536   1.574   4.581  0.6057 -0.0059 -2.3583
 1076SOL    MW4 4072   0.523   1.658   4.600 -0.4156 -0.5464 -0.3593
 1077SOL     OW 4073   4.667   1.073   2.181  0.0713 -0.4571  0.1648
 1077SOL    HW2 4074   4.723   1.128   2.237 -0.9296 -1.8406  2.6807
 1077SOL    HW3 4075   4.597   1.132   2.152 -0.2318 -0.0365  1.6869
 1077SOL    MW4 4076   4.665   1.088   2.184 -0.1007 -0.5841  0.6976
 1078SOL     OW 4077   4.802   4.298   2.632  0.0357  0.4428  0.4981
 1078SOL    HW2 4078   4.801   4.299   2.537 -1.8587  0.4590  0.4775
 1078SOL    HW3 4079   4.784   4.389   2.657  2.5123  0.8758  0.9391
 1078SOL    MW4 4080   4.800   4.310   2.623  0.1125  0.5020  0.5536
 1079SOL     OW 4081   1.976   4.036   5.106 -0.2517 -0.4890 -0.5266
 1079SOL    HW2 4082   2.000   4.093   5.034  2.9930  0.5813  1.2057
 1079SOL    HW3 4083   1.920   3.969   5.066 -1.4497  1.9366 -3.2722
 1079SOL    MW4 4084   1.972   4.035   5.091  0.0183 -0.0277 -0.6603
 1080SOL     OW 4085   3.102   1.673   4.654 -0.0595  0.6985  0.8194
 1080SOL    HW2 4086   3.011   1.644   4.649  0.1384  0.1320  0.3162
 1080SOL    HW3 4087   3.109   1.742   4.588 -0.1543  0.8204  0.9377
 1080SOL    MW4 4088   3.091   1.678   4.644 -0.0459  0.6399  0.7686
 1081SOL     OW 4089   4.579   3.248   2.084  0.4495  0.3726  0.0739
 1081SOL    HW2 4090   4.544   3.234   2.172 -0.5123 -1.6912 -0.5863
 1081SOL    HW3 4091   4.583   3.343   2.075 -2.4154  0.6838  1.1973
 1081SOL    MW4 4092   4.575   3.259   2.094 -0.0554  0.1414  0.1350
 1082SOL     OW 4093   2.604   5.767   6.009  0.7853  0.4828  0.4097
 1082SOL    HW2 4094   2.601   5.674   5.987 -0.3667  0.3743  0.9448
 1082SOL    HW3 4095   2.540   5.777   6.080  1.0759  1.6402  0.5344
 1082SOL    MW4 4096   2.595   5.756   6.016  0.6716  0.6212  0.4968
 1083SOL     OW 4097   3.845   3.858  -0.016 -0.0979 -0.3760 -0.0240
 1083SOL    HW2 4098   3.760   3.888  -0.050  0.5432 -1.2879 -2.7482
 1083SOL    HW3 4099   3.826   3.774   0.025 -0.6269 -0.2625 -0.0275
 1083SOL    MW4 4100   3.831   3.851  -0.015 -0.0831 -0.4813 -0.3839
 1084SOL     OW 4101   4.390   2.008   6.301  1.1659 -0.1556 -0.1886
 1084SOL    HW2 4102   4.339   2.064   6.242  1.3133  1.5536  1.2133
 1084SOL    HW3 4103   4.451   1.962   6.243  2.3586  2.5878 -1.2936
 1084SOL    MW4 4104   4.391   2.010   6.285  1.3427  0.4318 -0.1495
 1085SOL     OW 4105   0.163   5.915   5.719  0.2656  0.4608 -0.8178
 1085SOL    HW2 4106   0.216   5.865   5.657  0.8946  1.0012 -0.7394
 1085SOL    HW3 4107   0.171   5.868   5.802  1.9441  1.3628 -0.4168
 1085SOL    MW4 4108   0.171   5.902   5.722  0.5701  0.6511 -0.7545
 1086SOL     OW 4109   4.384   2.765   0.766  0.2441 -0.0166 -0.0464
 1086SOL    HW2 4110   4.294   2.734   0.773  0.1094  0.6777  2.3935
 1086SOL    HW3 4111   4.381   2.853   0.803  2.1436 -0.5494  1.5565
 1086SOL    MW4 4112   4.372   2.773   0.772  0.4769  0.0047  0.4870
 1087SOL     OW 4113   0.303   5.991   5.309  0.3153 -0.0107  0.2124
 1087SOL    HW2 4114   0.352   5.933   5.250 -1.1479 -0.5053 -0.5722
 1087SOL    HW3 4115   0.361   6.001   5.385  1.0662 -1.6692 -0.0728
 1087SOL    MW4 4116   0.317   5.984   5.311  0.2214 -0.2948  0.0712
 1088SOL     OW 4117   3.043   5.051   5.441  0.4423  0.0461  0.2198
 1088SOL    HW2 4118   2.955   5.012   5.441  0.6982 -0.5582 -0.7916
 1088SOL    HW3 4119   3.070   5.048   5.350  1.1717  1.0376  0.4000
 1088SOL    MW4 4120   3.035   5.045   5.429  0.5723  0.0972  0.1101
 1089SOL     OW 4121   4.231   4.800   0.658 -0.0683 -0.5310 -0.0952
 1089SOL    HW2 4122   4.195   4.731   0.713  0.9799  0.7213  2.3504
 1089SOL    HW3 4123   4.230   4.878   0.714 -1.2241  1.5091 -2.7167
 1089SOL    MW4 4124   4.226   4.801   0.673 -0.0825 -0.0966 -0.1184
 1090SOL     OW 4125   1.652   5.138   3.023  0.1122  0.5391 -0.2728
 1090SOL    HW2 4126   1.662   5.233   3.022  2.2592  0.3613 -1.3457
 1090SOL    HW3 4127   1.741   5.104   3.008 -1.0338 -1.5834 -3.3146
 1090SOL    MW4 4128   1.665   5.146   3.021  0.2443  0.2356 -0.8157
 1091SOL     OW 4129   6.360   1.293   1.263  0.0879 -0.3367 -0.1623
 1091SOL    HW2 4130   6.290   1.253   1.314  0.7905 -0.6223  0.5958
 1091SOL    HW3 4131   6.429   1.310   1.326 -0.5601  3.1419 -0.1991
 1091SOL    MW4 4132   6.360   1.290   1.278  0.0951  0.0846 -0.0671
 1092SOL     OW 4133   3.815   1.522   0.840  0.0221 -0.2644 -0.3434
 1092SOL    HW2 4134   3.726   1.558   0.843 -0.4031 -1.2437 -0.8732
 1092SOL    HW3 4135   3.815   1.463   0.765  0.9820 -0.6347 -0.0693
 1092SOL    MW4 4136   3.804   1.519   0.831  0.0926 -0.4425 -0.3771
 1093SOL     OW 4137   1.778   5.166   6.222 -0.8202  0.0462 -0.5690
 1093SOL    HW2 4138   1.718   5.188   6.150  0.3176  2.4832 -0.8547
 1093SOL    HW3 4139   1.848   5.115   6.180 -1.3543 -0.6026 -0.7017
 1093SOL    MW4 4140   1.779   5.162   6.207 -0.7405  0.2821 -0.6242
 1094SOL     OW 4141   5.865   3.009   1.552  0.5542  0.2286 -0.1589
 1094SOL    HW2 4142   5.783   3.047   1.586  0.1482 -1.7850  1.3272
 1094SOL    HW3 4143   5.924   3.009   1.627  0.8283 -1.1630 -0.3427
 1094SOL    MW4 4144   5.862   3.014   1.566  0.5368 -0.2207  0.0129
 1095SOL     OW 4145   2.922   0.795   1.735  0.0223 -0.0157  0.1126
 1095SOL    HW2 4146   2.830   0.770   1.737  0.2499 -0.8326  1.2083
 1095SOL    HW3 4147   2.969   0.714   1.719  0.5866  0.2781  0.2340
 1095SOL    MW4 4148   2.916   0.781   1.733  0.1268 -0.0847  0.2732
 1096SOL     OW 4149   4.733   1.674   2.794  0.0667  0.7988  0.2154
 1096SOL    HW2 4150   4.805   1.621   2.758  0.0167  1.4471 -0.8830
 1096SOL    HW3 4151   4.656   1.617   2.787  0.3509  0.3340  0.7996
 1096SOL    MW4 4152   4.732   1.659   2.788  0.0976  0.8230  0.1475
 1097SOL     OW 4153   5.786   2.736   4.747 -0.0771 -0.8865 -0.1236
 1097SOL    HW2 4154   5.837   2.808   4.784 -2.1471  1.2905 -1.2107
 1097SOL    HW3 4155   5.815   2.731   4.656  0.0078 -1.4085 -0.0693
 1097SOL    MW4 4156   5.797   2.745   4.740 -0.3390 -0.6682 -0.2598
 1098SOL     OW 4157   0.811   1.050   5.968 -0.2212 -0.1276 -0.3181
 1098SOL    HW2 4158   0.787   0.964   5.934 -0.1694 -0.0243 -0.6182
 1098SOL    HW3 4159   0.905   1.058   5.948 -0.1434 -0.1542  0.0362
 1098SOL    MW4 4160   0.820   1.039   5.961 -0.2041 -0.1175 -0.3109
 1099SOL     OW 4161   3.427   4.999   3.287 -0.5737 -0.4624  0.2622
 1099SOL    HW2 4162   3.341   5.025   3.255 -1.2303 -0.5958  1.8491
 1099SOL    HW3 4163   3.445   4.915   3.246 -0.0027  0.7381 -2.1347
 1099SOL    MW4 4164   3.418   4.992   3.278 -0.5850 -0.3216  0.1553
 1100SOL     OW 4165   3.946   4.689   4.279 -0.1999  0.3720 -0.5617
 1100SOL    HW2 4166   3.913   4.763   4.329 -0.8850 -0.2086 -0.1307
 1100SOL    HW3 4167   4.032   4.671   4.316  0.3696  1.4979 -1.2684
 1100SOL    MW4 4168   3.953   4.696   4.290 -0.2151  0.4440 -0.5981
 1101SOL     OW 4169   0.842   3.662   5.968 -0.4459 -0.6713  0.2515
 1101SOL    HW2 4170   0.916   3.722   5.975 -0.6669 -0.4408  0.6086
 1101SOL    HW3 4171   0.882   3.576   5.952 -0.0909 -0.5773  0.6237
 1101SOL    MW4 4172   0.857   3.658   5.967 -0.4282 -0.6285  0.3477
 1102SOL     OW 4173   2.862   1.848   1.566  0.1006  0.4341 -0.3878
 1102SOL    HW2 4174   2.905   1.820   1.485  1.4547  0.9807  0.1038
 1102SOL    HW3 4175   2.808   1.774   1.591 -0.6822  0.4141 -2.0006
 1102SOL    MW4 4176   2.861   1.835   1.559  0.1760  0.5036 -0.5357
 1103SOL     OW 4177   4.023   2.465   1.601  0.7314  0.4263  0.0897
 1103SOL    HW2 4178   4.089   2.492   1.666 -0.7190  2.0990  0.9526
 1103SOL    HW3 4179   3.939   2.489   1.640 -0.5991 -3.0913 -0.2839
 1103SOL    MW4 4180   4.021   2.472   1.614  0.3645  0.1829  0.1542
 1104SOL     OW 4181   5.448   2.653   2.649 -0.1976 -0.0479 -0.0807
 1104SOL    HW2 4182   5.536   2.633   2.618  0.8311  0.4180  2.3353
 1104SOL    HW3 4183   5.446   2.620   2.739 -1.8322  1.7069  0.5866
 1104SOL    MW4 4184   5.459   2.646   2.657 -0.2776  0.2451  0.3261
 1105SOL     OW 4185   2.943   2.615   2.571  0.0506 -0.1311 -0.5113
 1105SOL    HW2 4186   2.964   2.663   2.491 -0.1598  0.0830 -0.4385
 1105SOL    HW3 4187   3.007   2.543   2.573  0.9693  0.6687 -0.1545
 1105SOL    MW4 4188   2.954   2.612   2.561  0.1441  0.0027 -0.4546
 1106SOL     OW 4189   1.043   5.024   0.126  0.0436 -0.2836  0.2690
 1106SOL    HW2 4190   0.961   5.072   0.117  0.4729  0.1565 -2.1865
 1106SOL    HW3 4191   1.110   5.086   0.096  0.9368 -1.4826 -0.3083
 1106SOL    MW4 4192   1.041   5.039   0.121  0.2181 -0.3837 -0.1312
 1107SOL     OW 4193   3.638   1.546   0.427  0.0774 -0.1545  0.0156
 1107SOL    HW2 4194   3.620   1.568   0.518  0.5472 -0.2824  0.1374
 1107SOL    HW3 4195   3.712   1.602   0.403 -0.6137  0.5544 -0.5644
 1107SOL    MW4 4196   3.645   1.556   0.436  0.0482 -0.0779 -0.0449
 1108SOL     OW 4197   1.557   0.728   3.144  0.6224 -0.0778  0.0221
 1108SOL    HW2 4198   1.603   0.767   3.070  0.0399 -0.3656 -0.5015
 1108SOL    HW3 4199   1.501   0.798   3.177 -0.0268 -0.3029 -0.5836
 1108SOL    MW4 4200   1.555   0.742   3.138  0.4599 -0.1455 -0.1269
 1109SOL     OW 4201   6.247   2.506   2.244 -0.3916  0.3485 -0.2405
 1109SOL    HW2 4202   6.276   2.596   2.231 -0.8352  0.4676 -0.4043
 1109SOL    HW3 4203   6.322   2.463   2.287  0.3520  0.4352 -1.4195
 1109SOL    MW4 4204   6.261   2.512   2.248 -0.3520  0.3756 -0.4177
 1110SOL     OW 4205   5.409   0.409   2.258  0.1038 -0.2726  0.0321
 1110SOL    HW2 4206   5.428   0.363   2.175  1.1264  1.1258 -0.5440
 1110SOL    HW3 4207   5.453   0.357   2.325 -0.6910 -1.3938 -0.2812
 1110SOL    MW4 4208   5.417   0.396   2.256  0.1339 -0.2360 -0.0852
 1111SOL     OW 4209   5.424   5.456   2.185 -0.5055  0.1732 -0.5475
 1111SOL    HW2 4210   5.395   5.366   2.200 -2.9727  0.7972 -1.0315
 1111SOL    HW3 4211   5.494   5.449   2.121  0.4777 -1.4887  0.6521
 1111SOL    MW4 4212   5.429   5.443   2.179 -0.7013  0.0362 -0.4531
 1112SOL     OW 4213   2.345   3.324   3.691  0.3497 -0.3014 -0.1995
 1112SOL    HW2 4214   2.366   3.232   3.706 -0.0546 -0.3029  0.4127
 1112SOL    HW3 4215   2.345   3.363   3.779  1.4256  0.4862 -0.5259
 1112SOL    MW4 4216   2.348   3.317   3.705  0.4383 -0.1977 -0.1618
 1113SOL     OW 4217   5.502   0.754   0.454  0.1075 -0.3169  0.4897
 1113SOL    HW2 4218   5.558   0.682   0.425  0.5215  0.5251 -0.9054
 1113SOL    HW3 4219   5.506   0.751   0.550  1.3753 -1.1591  0.4318
 1113SOL    MW4 4220   5.510   0.744   0.463  0.3294 -0.3169  0.2980
 1114SOL     OW 4221   4.385   5.174   3.744 -0.0515  0.4100  0.2078
 1114SOL    HW2 4222   4.458   5.124   3.708  1.6407  2.2073  1.0013
 1114SOL    HW3 4223   4.311   5.112   3.743  1.1451 -1.0952 -1.6967
 1114SOL    MW4 4224   4.385   5.159   3.739  0.3296  0.4486  0.0612
 1115SOL     OW 4225   3.555   4.227   4.245 -0.1976 -0.5344 -0.5326
 1115SOL    HW2 4226   3.547   4.245   4.151 -3.6892 -1.7149 -0.6090
 1115SOL    HW3 4227   3.509   4.144   4.258 -0.2046 -0.2079  2.2784
 1115SOL    MW4 4228   3.548   4.218   4.234 -0.6592 -0.6471 -0.1718
 1116SOL     OW 4229   4.905   6.231   2.727  0.2609 -0.1002  0.0960
 1116SOL    HW2 4230   4.863   6.160   2.677  1.4234  0.4228 -1.6962
 1116SOL    HW3 4231   4.971   6.186   2.780  1.1809 -0.3526 -1.2339
 1116SOL    MW4 4232   4.908   6.215   2.728  0.5356 -0.0645 -0.3159
 1117SOL     OW 4233   6.411   5.237   6.264  0.3668 -0.2390 -0.0940
 1117SOL    HW2 4234   6.502   5.249   6.293  0.5217 -1.9273  0.2550
 1117SOL    HW3 4235   6.369   5.191   6.336 -0.5934 -0.0915 -0.5452
 1117SOL    MW4 4236   6.418   5.232   6.277  0.2605 -0.4423 -0.1075
 1118SOL     OW 4237   3.186   4.987   2.225  0.0255  0.6441 -0.0588
 1118SOL    HW2 4238   3.281   4.998   2.237  0.1274  0.0802 -0.3318
 1118SOL    HW3 4239   3.177   4.943   2.141 -0.5078  1.1152 -0.2539
 1118SOL    MW4 4240   3.198   4.983   2.215 -0.0315  0.6319 -0.1205
 1119SOL     OW 4241   3.375   3.657   4.047 -0.4575  0.2938 -0.1352
 1119SOL    HW2 4242   3.448   3.601   4.022  0.0191  0.7910  0.1252
 1119SOL    HW3 4243   3.297   3.603   4.032  0.0313 -0.7753  1.0405
 1119SOL    MW4 4244   3.374   3.643   4.042 -0.3301  0.2183  0.0543
 1120SOL     OW 4245   0.770   4.371   2.268  0.0577  0.1493  0.2514
 1120SOL    HW2 4246   0.858   4.392   2.300  0.4672 -1.7878  0.5117
 1120SOL    HW3 4247   0.743   4.295   2.320 -1.1412 -0.2132 -0.8573
 1120SOL    MW4 4248   0.778   4.364   2.279 -0.0465 -0.1541  0.1395
 1121SOL     OW 4249   4.065   5.221   0.235  0.7241  0.4134  0.0527
 1121SOL    HW2 4250   4.154   5.255   0.235  1.0550 -0.3902  1.0358
 1121SOL    HW3 4251   4.042   5.212   0.142  1.0928  2.0343 -0.2201
 1121SOL    MW4 4252   4.073   5.224   0.223  0.8164  0.5213  0.1464
 1122SOL     OW 4253   5.506   1.351   2.593  0.0033 -0.8150  0.0445
 1122SOL    HW2 4254   5.410   1.349   2.599 -0.1982 -0.9883 -2.3227
 1122SOL    HW3 4255   5.526   1.441   2.570  0.1524 -1.3086 -1.9536
 1122SOL    MW4 4256   5.496   1.362   2.591 -0.0037 -0.9030 -0.5314
 1123SOL     OW 4257   5.107   5.144   0.318  0.0391  0.1659 -0.7912
 1123SOL    HW2 4258   5.037   5.094   0.275 -0.6867 -0.1811  0.7403
 1123SOL    HW3 4259   5.076   5.157   0.408  2.2756 -0.6394  0.1604
 1123SOL    MW4 4260   5.093   5.139   0.324  0.2384  0.0139 -0.4636
 1124SOL     OW 4261   2.158   1.265   4.896  0.2904 -0.4970  0.6716
 1124SOL    HW2 4262   2.075   1.280   4.942  0.4539  0.3615  0.6970
 1124SOL    HW3 4263   2.210   1.212   4.957 -0.3202 -1.2476  0.5587
 1124SOL    MW4 4264   2.154   1.260   4.910  0.2314 -0.4827  0.6601
 1125SOL     OW 4265   0.133   1.363   5.856 -0.6055  0.4557 -0.4283
 1125SOL    HW2 4266   0.113   1.453   5.884  1.5644 -0.0836  3.4616
 1125SOL    HW3 4267   0.217   1.370   5.811 -0.1069  0.3444  0.4622
 1125SOL    MW4 4268   0.141   1.376   5.853 -0.2534  0.3699  0.2024
 1126SOL     OW 4269   3.264   5.290   5.162  0.4847 -0.0949 -0.2072
 1126SOL    HW2 4270   3.337   5.312   5.104  1.2577 -0.4118  0.6266
 1126SOL    HW3 4271   3.268   5.356   5.231 -0.4640  0.3092 -0.5119
 1126SOL    MW4 4272   3.274   5.302   5.163  0.4615 -0.0834 -0.1374
 1127SOL     OW 4273   5.274   0.754   6.074  0.7466  0.2972 -0.1243
 1127SOL    HW2 4274   5.276   0.688   6.005  2.6818 -0.0410  0.2036
 1127SOL    HW3 4275   5.181   0.766   6.093  0.1385  0.4511 -2.8072
 1127SOL    MW4 4276   5.262   0.747   6.068  0.9217  0.2729 -0.4350
 1128SOL     OW 4277   0.826   5.537   6.018  0.5593 -0.0134  0.3330
 1128SOL    HW2 4278   0.799   5.628   6.036 -0.6407 -0.7527  2.6418
 1128SOL    HW3 4279   0.766   5.508   5.949 -0.9586  0.1286  1.5341
 1128SOL    MW4 4280   0.814   5.545   6.012  0.2007 -0.0922  0.7961
 1129SOL     OW 4281   0.461   3.477   5.836 -0.4142  0.1698 -0.8070
 1129SOL    HW2 4282   0.402   3.441   5.771  0.0864 -2.0071 -0.1434
 1129SOL    HW3 4283   0.548   3.470   5.796 -0.0903 -1.2860  0.0729
 1129SOL    MW4 4284   0.465   3.471   5.823 -0.3054 -0.3095 -0.6034
 1130SOL     OW 4285   4.332   5.655   2.923 -0.3260  0.3661 -0.0132
 1130SOL    HW2 4286   4.397   5.677   2.857 -1.2682  0.3114 -0.9945
 1130SOL    HW3 4287   4.257   5.621   2.873 -0.0818 -2.2809  1.2180
 1130SOL    MW4 4288   4.331   5.653   2.908 -0.4181  0.0097  0.0198
 1131SOL     OW 4289   5.581   3.471   3.594 -0.3463  0.5189 -0.0166
 1131SOL    HW2 4290   5.556   3.510   3.510 -1.7272  0.0058  0.1276
 1131SOL    HW3 4291   5.650   3.409   3.572 -0.4612  0.6296 -0.7180
 1131SOL    MW4 4292   5.587   3.468   3.580 -0.5437  0.4658 -0.0901
 1132SOL     OW 4293   1.550   0.484   2.660  0.5766 -0.4382  0.3426
 1132SOL    HW2 4294   1.554   0.544   2.586  0.0287 -1.1030 -0.2424
 1132SOL    HW3 4295   1.476   0.426   2.641  0.8264 -1.0317  1.0924
 1132SOL    MW4 4296   1.541   0.484   2.648  0.5373 -0.6042  0.3644
 1133SOL     OW 4297   1.364   6.052   2.966  0.9966  0.5770 -0.3391
 1133SOL    HW2 4298   1.303   6.078   2.897  0.7063 -0.7345 -0.6081
 1133SOL    HW3 4299   1.440   6.018   2.920  0.4830 -1.0353 -0.0463
 1133SOL    MW4 4300   1.366   6.051   2.951  0.8906  0.1912 -0.3360
 1134SOL     OW 4301   2.479   3.591   5.978 -0.4338  0.3834  0.5770
 1134SOL    HW2 4302   2.410   3.621   5.918  1.1114  1.1871 -0.8655
 1134SOL    HW3 4303   2.436   3.589   6.063 -2.1141  1.3119 -0.1861
 1134SOL    MW4 4304   2.464   3.594   5.981 -0.4516  0.6119  0.2860
 1135SOL     OW 4305   1.252   5.109   5.580 -0.2762 -0.3313  0.0964
 1135SOL    HW2 4306   1.235   5.020   5.610 -0.4011 -0.3241  0.0490
 1135SOL    HW3 4307   1.236   5.165   5.656 -0.8213 -0.2907 -0.0453
 1135SOL    MW4 4308   1.248   5.105   5.594 -0.3646 -0.3250  0.0715
 1136SOL     OW 4309   1.950   5.901   2.148 -0.3031 -0.0932 -0.0303
 1136SOL    HW2 4310   2.001   5.874   2.224 -1.8604 -0.7086  0.8383
 1136SOL    HW3 4311   1.946   5.997   2.155 -0.5858 -0.1610  0.7638
 1136SOL    MW4 4312   1.956   5.910   2.159 -0.5459 -0.1834  0.1891
 1137SOL     OW 4313   2.285   3.991   5.954  0.1829  0.0160 -0.2878
 1137SOL    HW2 4314   2.193   3.971   5.940 -0.0199  0.7880 -0.1416
 1137SOL    HW3 4315   2.333   3.925   5.903 -0.4746  0.4498 -1.5170
 1137SOL    MW4 4316   2.279   3.980   5.945  0.0694  0.1751 -0.4307
 1138SOL     OW 4317   4.246   3.466   4.391 -0.2129  0.0162 -0.5368
 1138SOL    HW2 4318   4.248   3.466   4.487  0.1920  0.6554 -0.5398
 1138SOL    HW3 4319   4.240   3.559   4.368  0.5562 -0.0820 -1.1504
 1138SOL    MW4 4320   4.245   3.478   4.401 -0.0580  0.0876 -0.6181
 1139SOL     OW 4321   1.937   2.852   5.635 -0.2805  0.0147 -0.0048
 1139SOL    HW2 4322   1.914   2.934   5.680 -1.1034  0.0559 -0.4748
 1139SOL    HW3 4323   1.974   2.880   5.551 -0.6788 -0.0977 -0.2182
 1139SOL    MW4 4324   1.939   2.867   5.630 -0.4416  0.0053 -0.0949
 1140SOL     OW 4325   0.259   0.422   3.518  0.1369 -0.1549  0.1848
 1140SOL    HW2 4326   0.272   0.345   3.574  0.5988 -0.1401  0.1050
 1140SOL    HW3 4327   0.168   0.447   3.532  0.6292  0.7926  2.1428
 1140SOL    MW4 4328   0.249   0.415   3.527  0.2628 -0.0280  0.4326
 1141SOL     OW 4329   3.689   1.466   2.633 -0.2757  0.3906 -0.3760
 1141SOL    HW2 4330   3.752   1.404   2.670  1.4072  1.2691 -1.6460
 1141SOL    HW3 4331   3.606   1.443   2.675  0.9853 -0.3773  1.8734
 1141SOL    MW4 4332   3.686   1.455   2.643  0.1127  0.4052 -0.2468
 1142SOL     OW 4333   0.452   0.671   3.832 -0.2485 -0.8107 -0.2957
 1142SOL    HW2 4334   0.459   0.645   3.740 -0.0629  0.1025 -0.5520
 1142SOL    HW3 4335   0.379   0.734   3.834 -0.0870 -0.6311  0.1322
 1142SOL    MW4 4336   0.443   0.676   3.820 -0.2027 -0.6665 -0.2730
 1143SOL     OW 4337   6.096   0.370   5.272 -0.4541  0.2016  0.4086
 1143SOL    HW2 4338   6.066   0.299   5.215  2.6336 -0.8957 -0.0375
 1143SOL    HW3 4339   6.099   0.332   5.359 -0.7940  0.4523  0.5315
 1143SOL    MW4 4340   6.093   0.356   5.276 -0.0915  0.0899  0.3660
 1144SOL     OW 4341   5.635   1.211   3.670 -0.5883 -0.1156  0.1721
 1144SOL    HW2 4342   5.630   1.245   3.581 -1.0628  0.8318  0.5532
 1144SOL    HW3 4343   5.544   1.192   3.694 -0.2441 -4.1152 -0.9222
 1144SOL    MW4 4344   5.622   1.213   3.661 -0.6055 -0.5183  0.0780
 1145SOL     OW 4345   2.281   4.839   4.191 -0.1536  0.2902 -0.3946
 1145SOL    HW2 4346   2.250   4.805   4.275 -0.6455  1.5653 -0.0370
 1145SOL    HW3 4347   2.273   4.764   4.131  0.8591 -0.8473  0.8112
 1145SOL    MW4 4348   2.276   4.824   4.194 -0.0849  0.3084 -0.1883
 1146SOL     OW 4349   3.341   3.768   3.243 -0.4352  0.1631  0.0003
 1146SOL    HW2 4350   3.300   3.716   3.313  2.5827 -0.6720  1.2878
 1146SOL    HW3 4351   3.318   3.858   3.265  0.0899 -0.1157  1.9009
 1146SOL    MW4 4352   3.332   3.773   3.255  0.0323  0.0161  0.4209
 1147SOL     OW 4353   2.519   1.870   2.822 -0.1063  0.7008  0.3182
 1147SOL    HW2 4354   2.585   1.890   2.756  0.4975 -0.4368  0.5396
 1147SOL    HW3 4355   2.510   1.951   2.872  0.8722  0.9917  0.0623
 1147SOL    MW4 4356   2.527   1.883   2.820  0.1025  0.5891  0.3137
 1148SOL     OW 4357   5.463   2.668   3.367 -0.3536 -0.8574  0.0134
 1148SOL    HW2 4358   5.375   2.685   3.399 -0.1614  0.4074 -0.0754
 1148SOL    HW3 4359   5.484   2.744   3.314  1.0537 -0.8101  0.6001
 1148SOL    MW4 4360   5.454   2.680   3.364 -0.1426 -0.6843  0.0791
 1149SOL     OW 4361   0.218   5.513   6.051 -0.0872  0.3703  0.4156
 1149SOL    HW2 4362   0.307   5.530   6.082  0.0406  0.7418 -0.1336
 1149SOL    HW3 4363   0.229   5.451   5.979 -0.4246 -0.8680  1.3985
 1149SOL    MW4 4364   0.231   5.507   6.046 -0.1148  0.2559  0.4728
 1150SOL     OW 4365   6.067   5.502  -0.005 -0.2760 -0.0318  0.4838
 1150SOL    HW2 4366   6.048   5.410  -0.024 -0.8012 -0.1258  1.4410
 1150SOL    HW3 4367   6.151   5.500   0.042 -0.0265  0.0328  0.0531
 1150SOL    MW4 4368   6.076   5.490  -0.002 -0.3124 -0.0357  0.5533
 1151SOL     OW 4369   4.152   2.092   0.980  0.1383 -0.3860  0.0437
 1151SOL    HW2 4370   4.068   2.132   1.004  0.3027 -0.2758  0.4511
 1151SOL    HW3 4371   4.217   2.158   1.005  0.5543 -1.5797  2.3659
 1151SOL    MW4 4372   4.150   2.106   0.987  0.2149 -0.5290  0.4038
 1152SOL     OW 4373   6.052   2.103   4.298 -0.2162  0.4745  0.1594
 1152SOL    HW2 4374   6.114   2.168   4.267  0.6635  0.0282  0.9405
 1152SOL    HW3 4375   5.985   2.099   4.229 -0.7078  2.7095  0.4221
 1152SOL    MW4 4376   6.051   2.111   4.285 -0.1650  0.7105  0.2971
 1153SOL     OW 4377   4.490   2.840   0.451 -0.5318 -0.5453  0.5398
 1153SOL    HW2 4378   4.582   2.858   0.433 -0.1563 -1.9470  0.9694
 1153SOL    HW3 4379   4.450   2.927   0.460  0.7796  0.0788  0.5260
 1153SOL    MW4 4380   4.497   2.854   0.450 -0.3092 -0.6479  0.5947
 1154SOL     OW 4381   4.665   0.082   2.704 -0.1944  0.3285 -0.1118
 1154SOL    HW2 4382   4.658   0.007   2.645 -3.3574  2.0148 -2.2050
 1154SOL    HW3 4383   4.651   0.046   2.791  2.1644 -1.9406 -0.5568
 1154SOL    MW4 4384   4.662   0.068   2.708 -0.3005  0.2516 -0.4467
 1155SOL     OW 4385   4.138   6.160   4.765 -0.4591  0.2443  0.2384
 1155SOL    HW2 4386   4.151   6.253   4.744 -0.3942 -0.1379 -1.6217
 1155SOL    HW3 4387   4.132   6.117   4.679 -0.0846 -1.5319  1.0517
 1155SOL    MW4 4388   4.139   6.167   4.751 -0.4011 -0.0405  0.1003
 1156SOL     OW 4389   2.502   4.030   5.146  0.3561  0.1027  0.0561
 1156SOL    HW2 4390   2.470   3.985   5.067  1.3984  0.3803 -0.5429
 1156SOL    HW3 4391   2.579   3.980   5.172 -0.4054 -0.4323  1.3569
 1156SOL    MW4 4392   2.508   4.017   5.139  0.3931  0.0688  0.1487
 1157SOL     OW 4393   2.478   1.469   0.512  0.0427  0.2000 -0.6351
 1157SOL    HW2 4394   2.510   1.478   0.601  0.1377 -1.3272 -0.4997
 1157SOL    HW3 4395   2.426   1.548   0.497  1.3561  1.2630  0.1867
 1157SOL    MW4 4396   2.475   1.481   0.522  0.2285  0.1388 -0.5088
 1158SOL     OW 4397   5.748   2.195   5.604 -0.8062 -0.1617  0.0790
 1158SOL    HW2 4398   5.703   2.263   5.553  0.0368  1.0412  0.9068
 1158SOL    HW3 4399   5.817   2.241   5.651  0.6217 -1.8024 -0.3128
 1158SOL    MW4 4400   5.751   2.210   5.603 -0.5066 -0.2195  0.1366
 1159SOL     OW 4401   5.689   3.126   0.793 -0.7337  0.2219 -0.4044
 1159SOL    HW2 4402   5.683   3.175   0.875 -1.7691 -0.7768  0.1473
 1159SOL    HW3 4403   5.615   3.158   0.740 -1.3017 -0.5876 -0.1147
 1159SOL    MW4 4404   5.678   3.137   0.797 -0.9452 -0.0167 -0.2934
 1160SOL     OW 4405   3.055   3.078   5.607  0.5390  0.2009 -1.0965
 1160SOL    HW2 4406   3.073   3.120   5.691  1.0395 -0.1557 -1.0225
 1160SOL    HW3 4407   2.994   3.008   5.628  0.5060  0.2403 -1.0611
 1160SOL    MW4 4408   3.049   3.075   5.621  0.6007  0.1590 -1.0821
 1161SOL     OW 4409   1.704   6.244   2.601 -0.9940 -0.3749  0.0156
 1161SOL    HW2 4410   1.705   6.334   2.568  1.4962 -0.2910  0.0818
 1161SOL    HW3 4411   1.713   6.254   2.696  1.3827 -0.6083 -0.1094
 1161SOL    MW4 4412   1.705   6.258   2.610 -0.3519 -0.3946  0.0079
 1162SOL     OW 4413   3.983   0.341   4.673  0.5430 -0.1061  0.3679
 1162SOL    HW2 4414   3.990   0.245   4.677 -2.6490 -0.6054 -2.0437
 1162SOL    HW3 4415   3.996   0.362   4.581  0.0294  1.6757  0.6741
 1162SOL    MW4 4416   3.986   0.331   4.662  0.0541  0.0631  0.0902
 1163SOL     OW 4417   1.894   3.075   1.868 -1.2137 -0.4231 -0.4197
 1163SOL    HW2 4418   1.825   3.138   1.888 -1.7365 -1.5519  1.6112
 1163SOL    HW3 4419   1.854   2.989   1.883  0.0193 -1.1948 -1.3290
 1163SOL    MW4 4420   1.880   3.072   1.873 -1.1200 -0.6738 -0.2717
 1164SOL     OW 4421   5.883   5.487   0.940  0.2390  0.5264  0.5757
 1164SOL    HW2 4422   5.895   5.555   1.007 -1.0780  0.3640  1.0039
 1164SOL    HW3 4423   5.791   5.495   0.914 -0.2279 -1.7023  1.3277
 1164SOL    MW4 4424   5.872   5.497   0.945  0.0036  0.2109  0.7314
 1165SOL     OW 4425   4.803   3.293   3.060  0.9697 -0.2062  0.2865
 1165SOL    HW2 4426   4.778   3.338   2.979  0.9724  0.3818  0.6049
 1165SOL    HW3 4427   4.863   3.224   3.032  0.0510 -0.7772 -0.3443
 1165SOL    MW4 4428   4.808   3.290   3.046  0.8488 -0.2040  0.2453
 1166SOL     OW 4429   2.519   1.379   2.095 -0.1469 -0.4311 -0.7078
 1166SOL    HW2 4430   2.576   1.401   2.021  0.7447 -0.8024 -0.1438
 1166SOL    HW3 4431   2.441   1.341   2.055  1.1877 -2.6050 -1.4189
 1166SOL    MW4 4432   2.517   1.377   2.080  0.1468 -0.7669 -0.7272
 1167SOL     OW 4433   1.981   5.327   6.320  0.0194 -0.5284  0.3734
 1167SOL    HW2 4434   1.905   5.288   6.276 -0.3539  0.6475 -0.0680
 1167SOL    HW3 4435   1.967   5.307   6.413 -1.6329  0.8808  0.4950
 1167SOL    MW4 4436   1.969   5.319   6.327 -0.2479 -0.1874  0.3312
 1168SOL     OW 4437   3.579   0.688   0.637 -0.3897 -0.3587 -0.5785
 1168SOL    HW2 4438   3.565   0.598   0.608  0.4527 -0.4720 -0.6542
 1168SOL    HW3 4439   3.502   0.708   0.691 -1.5458 -0.4654 -2.1045
 1168SOL    MW4 4440   3.567   0.679   0.640 -0.4311 -0.3877 -0.7898
 1169SOL     OW 4441   1.340   2.946   0.210 -0.3936  0.0705  0.1866
 1169SOL    HW2 4442   1.415   2.943   0.270  0.4476 -1.5327 -0.8724
 1169SOL    HW3 4443   1.263   2.942   0.268  0.3924 -1.4313  1.2151
 1169SOL    MW4 4444   1.340   2.945   0.226 -0.1789 -0.3391  0.1825
 1170SOL     OW 4445   0.657   4.489   6.303 -0.4972 -0.5655  0.3261
 1170SOL    HW2 4446   0.645   4.584   6.314 -1.2739 -0.5397 -0.6452
 1170SOL    HW3 4447   0.673   4.457   6.392 -0.4605  0.4385  0.7022
 1170SOL    MW4 4448   0.658   4.497   6.317 -0.5949 -0.4297  0.2476
 1171SOL     OW 4449   3.935   0.485   5.370 -0.1121 -0.5469  0.2879
 1171SOL    HW2 4450   3.910   0.466   5.279  1.4302  1.8562 -0.7388
 1171SOL    HW3 4451   3.854   0.480   5.419 -1.3937  0.2479 -1.6241
 1171SOL    MW4 4452   3.921   0.482   5.364 -0.0777 -0.1250 -0.0998
 1172SOL     OW 4453   4.304   1.171   2.314 -0.0261  0.0173  0.4986
 1172SOL    HW2 4454   4.362   1.220   2.255 -1.3809  0.3954 -0.5691
 1172SOL    HW3 4455   4.272   1.236   2.376  0.4017 -0.1204  0.8694
 1172SOL    MW4 4456   4.308   1.186   2.314 -0.1484  0.0490  0.4066
 1173SOL     OW 4457   3.207   4.956   3.903 -0.6367  0.6415  0.3826
 1173SOL    HW2 4458   3.177   4.965   3.993  3.1517  0.4567  1.8324
 1173SOL    HW3 4459   3.210   4.862   3.888  0.4655  0.5906  0.7977
 1173SOL    MW4 4460   3.204   4.945   3.913  0.0085  0.6104  0.6287
 1174SOL     OW 4461   2.297   0.831   2.778  0.0944 -0.6179 -0.2905
 1174SOL    HW2 4462   2.348   0.862   2.703 -0.4587 -0.4005 -0.5919
 1174SOL    HW3 4463   2.350   0.762   2.818  1.1236  0.3765  0.0913
 1174SOL    MW4 4464   2.310   0.826   2.773  0.1572 -0.4580 -0.2799
 1175SOL     OW 4465   2.862   5.928   5.969  0.0212  0.7233  0.0361
 1175SOL    HW2 4466   2.914   5.890   6.040 -0.4954  0.3625  0.2347
 1175SOL    HW3 4467   2.776   5.885   5.978  0.8475 -1.9228 -2.8174
 1175SOL    MW4 4468   2.858   5.917   5.980  0.0620  0.3266 -0.3142
 1176SOL     OW 4469   3.516   3.141   2.067  0.3585 -0.2200  0.4951
 1176SOL    HW2 4470   3.573   3.069   2.039 -0.2236 -0.5451  0.1048
 1176SOL    HW3 4471   3.441   3.098   2.107 -0.1323  0.1521 -0.0007
 1176SOL    MW4 4472   3.514   3.126   2.068  0.2169 -0.2138  0.3782
 1177SOL     OW 4473   2.717   5.521   3.897  0.6204  0.0718  0.5850
 1177SOL    HW2 4474   2.666   5.443   3.921 -1.5155  1.3746  0.5286
 1177SOL    HW3 4475   2.759   5.497   3.814 -0.9670 -0.6555 -0.0610
 1177SOL    MW4 4476   2.716   5.507   3.889  0.1292  0.1477  0.4923
 1178SOL     OW 4477   5.988   4.934   3.759  0.3092 -0.1203 -0.3579
 1178SOL    HW2 4478   6.024   4.857   3.804 -1.9907 -1.6504 -0.9901
 1178SOL    HW3 4479   6.005   5.006   3.819  0.4169 -1.5149  1.3701
 1178SOL    MW4 4480   5.995   4.933   3.773  0.0200 -0.5062 -0.2133
 1179SOL     OW 4481   4.431   4.155   6.322 -0.1721  0.2035  0.3673
 1179SOL    HW2 4482   4.471   4.209   6.390  1.0335 -1.0703  0.7151
 1179SOL    HW3 4483   4.475   4.181   6.241  2.8462 -2.3993  0.9806
 1179SOL    MW4 4484   4.442   4.165   6.320  0.3852 -0.3079  0.4941
 1180SOL     OW 4485   2.618   4.348   1.874  0.1701  0.1808 -0.4775
 1180SOL    HW2 4486   2.636   4.402   1.797 -1.8050  2.1250  0.2978
 1180SOL    HW3 4487   2.548   4.290   1.845  0.3787 -0.0419 -0.5342
 1180SOL    MW4 4488   2.611   4.348   1.860 -0.0629  0.4080 -0.3827
 1181SOL     OW 4489   3.079   2.516   4.864 -0.0357  0.3590 -0.2646
 1181SOL    HW2 4490   3.158   2.471   4.891  0.8549  0.6985 -2.1495
 1181SOL    HW3 4491   3.008   2.455   4.884  0.8721 -0.6635 -0.1247
 1181SOL    MW4 4492   3.080   2.502   4.870  0.2016  0.2689 -0.4949
 1182SOL     OW 4493   5.601   4.714   1.930 -0.1360  0.3047  0.0166
 1182SOL    HW2 4494   5.660   4.658   1.980 -0.3048  0.5345  0.4829
 1182SOL    HW3 4495   5.514   4.682   1.951 -0.1829 -0.1165 -0.7728
 1182SOL    MW4 4496   5.597   4.703   1.939 -0.1645  0.2794 -0.0260
 1183SOL     OW 4497   4.919   2.738   1.917 -0.0896 -0.2826 -0.1387
 1183SOL    HW2 4498   4.922   2.687   1.836  1.0858 -0.4247 -0.0128
 1183SOL    HW3 4499   4.893   2.676   1.984  0.2956 -0.4807 -0.1707
 1183SOL    MW4 4500   4.916   2.723   1.915  0.1163 -0.3275 -0.1263
 1184SOL     OW 4501   1.503   1.678   3.241  0.1068  0.7604  0.0551
 1184SOL    HW2 4502   1.503   1.607   3.305  0.1605 -0.0431 -0.8107
 1184SOL    HW3 4503   1.573   1.737   3.270 -0.8925  1.2360  1.5935
 1184SOL    MW4 4504   1.512   1.676   3.253 -0.0180  0.7171  0.1438
 1185SOL     OW 4505   0.687   3.499   2.049 -0.2220  0.0385 -0.1560
 1185SOL    HW2 4506   0.710   3.533   1.963 -0.5879 -2.4733 -1.3274
 1185SOL    HW3 4507   0.593   3.485   2.045 -0.2405 -0.1401  0.6535
 1185SOL    MW4 4508   0.678   3.501   2.037 -0.2727 -0.3165 -0.2037
 1186SOL     OW 4509   5.688   3.671   5.801  0.2541  0.1292  0.3079
 1186SOL    HW2 4510   5.719   3.674   5.891  2.2048  0.1190 -0.3055
 1186SOL    HW3 4511   5.723   3.588   5.767 -0.0426  0.3609 -0.5877
 1186SOL    MW4 4512   5.697   3.660   5.808  0.4723  0.1584  0.1088
 1187SOL     OW 4513   0.989   3.917   3.861  0.0371 -0.4069  0.0331
 1187SOL    HW2 4514   0.923   3.941   3.795  1.3265  0.8404 -0.8517
 1187SOL    HW3 4515   1.067   3.896   3.811  0.7164 -0.5581  1.1267
 1187SOL    MW4 4516   0.990   3.917   3.846  0.2968 -0.2623  0.0606
 1188SOL     OW 4517   0.471   5.097   2.059  0.4291  0.7371  0.3586
 1188SOL    HW2 4518   0.472   5.081   1.964 -0.4209  1.9887  0.1204
 1188SOL    HW3 4519   0.562   5.115   2.081  0.3494  2.6055 -0.6350
 1188SOL    MW4 4520   0.483   5.097   2.049  0.3064  1.1487  0.1961
 1189SOL     OW 4521   6.054   1.304   2.152  0.1744 -0.0189  0.1669
 1189SOL    HW2 4522   6.116   1.248   2.199  0.4234  0.4088  0.3538
 1189SOL    HW3 4523   6.025   1.368   2.217  0.5918  0.6392 -0.2776
 1189SOL    MW4 4524   6.058   1.305   2.167  0.2623  0.1243  0.1329
 1190SOL     OW 4525   3.593   5.441   2.176  0.2750  0.3148  0.2201
 1190SOL    HW2 4526   3.654   5.486   2.118 -0.8816 -0.9903 -2.1458
 1190SOL    HW3 4527   3.594   5.493   2.257  3.5866  0.9998 -0.1063
 1190SOL    MW4 4528   3.601   5.454   2.179  0.5593  0.2330 -0.1351
 1191SOL     OW 4529   5.133   2.562   5.885  0.0622 -0.0838 -0.4080
 1191SOL    HW2 4530   5.042   2.532   5.895  0.3859 -0.4877  1.8646
 1191SOL    HW3 4531   5.131   2.654   5.911  0.1245  0.2626 -1.5597
 1191SOL    MW4 4532   5.121   2.570   5.889  0.1131 -0.0914 -0.2601
 1192SOL     OW 4533   0.224   2.633   3.443 -1.3962 -0.3159 -0.0275
 1192SOL    HW2 4534   0.152   2.686   3.408 -2.3060 -0.8030  1.0335
 1192SOL    HW3 4535   0.180   2.562   3.490 -0.2034 -1.2482 -0.2829
 1192SOL    MW4 4536   0.209   2.630   3.444 -1.3589 -0.5032  0.0788
 1193SOL     OW 4537   0.308   4.065   1.585 -0.3879  0.6495  0.1442
 1193SOL    HW2 4538   0.399   4.086   1.565 -0.7268  1.5843 -0.4578
 1193SOL    HW3 4539   0.265   4.061   1.500 -1.1312  1.2868  0.4792
 1193SOL    MW4 4540   0.314   4.067   1.571 -0.5307  0.8569  0.1090
 1194SOL     OW 4541   5.059   2.847   3.238 -0.7762  0.4059 -0.6142
 1194SOL    HW2 4542   5.086   2.939   3.242 -0.7564  0.3507  1.3458
 1194SOL    HW3 4543   5.079   2.821   3.148 -0.7588  2.3013 -1.2122
 1194SOL    MW4 4544   5.066   2.856   3.227 -0.7713  0.6487 -0.4345
 1195SOL     OW 4545   0.977   2.103   5.575  0.4922 -0.3653  0.3963
 1195SOL    HW2 4546   1.059   2.102   5.526  0.3297  0.2825  0.1003
 1195SOL    HW3 4547   0.945   2.013   5.569 -0.0580 -0.1025 -1.6195
 1195SOL    MW4 4548   0.983   2.091   5.567  0.3982 -0.2451  0.0913
 1196SOL     OW 4549   6.028   2.154   0.938 -0.0308 -0.4307 -0.5604
 1196SOL    HW2 4550   6.086   2.215   0.891  0.9235 -0.8230  0.0843
 1196SOL    HW3 4551   5.974   2.210   0.992  1.3487 -0.1537  0.5931
 1196SOL    MW4 4552   6.029   2.170   0.939  0.2772 -0.4459 -0.3231
 1197SOL     OW 4553   1.817   4.357   3.616  0.2470  0.1653  0.4424
 1197SOL    HW2 4554   1.775   4.273   3.632 -1.9817  0.8938 -1.0454
 1197SOL    HW3 4555   1.792   4.379   3.526  0.5641  2.5091  0.8748
 1197SOL    MW4 4556   1.808   4.349   3.606 -0.0052  0.5706  0.3031
 1198SOL     OW 4557   2.866   3.177   5.052 -0.2723  0.1503 -0.1740
 1198SOL    HW2 4558   2.851   3.160   4.959 -0.5379  0.2801 -0.1552
 1198SOL    HW3 4559   2.897   3.267   5.055 -0.4368  0.2057 -0.1214
 1198SOL    MW4 4560   2.868   3.187   5.040 -0.3290  0.1748 -0.1645
 1199SOL     OW 4561   3.706   2.463   4.547  0.1719 -0.3807 -0.0769
 1199SOL    HW2 4562   3.768   2.475   4.475 -0.5666  1.5229 -0.4615
 1199SOL    HW3 4563   3.757   2.482   4.626 -0.0369  2.1090 -0.4464
 1199SOL    MW4 4564   3.721   2.467   4.548  0.0469  0.1989 -0.1764
 1200SOL     OW 4565   1.705   2.540   5.365 -0.3155 -0.0989  0.1385
 1200SOL    HW2 4566   1.686   2.612   5.425  1.1301  1.8274 -1.5858
 1200SOL    HW3 4567   1.800   2.547   5.349 -0.7328 -0.0705 -2.8325
 1200SOL    MW4 4568   1.715   2.550   5.371 -0.1798  0.1590 -0.4810
 1201SOL     OW 4569   3.039   4.958   3.073  0.1346 -1.0860  0.1842
 1201SOL    HW2 4570   3.043   4.903   3.152 -1.8429  1.4503  2.2083
 1201SOL    HW3 4571   2.947   4.959   3.049  0.5950 -1.1202 -1.7282
 1201SOL    MW4 4572   3.028   4.951   3.080 -0.0656 -0.7559  0.1989
 1202SOL     OW 4573   5.561   0.177   5.410  0.0408 -0.0181 -0.2992
 1202SOL    HW2 4574   5.555   0.272   5.401  0.4316  0.1833  1.2238
 1202SOL    HW3 4575   5.520   0.142   5.331 -0.0788  1.4128 -0.8902
 1202SOL    MW4 4576   5.555   0.185   5.398  0.0766  0.1973 -0.1762
 1203SOL     OW 4577   0.551   5.846   5.901  0.3122 -0.0835 -0.7503
 1203SOL    HW2 4578   0.505   5.929   5.888  0.1662 -0.1450 -0.6333
 1203SOL    HW3 4579   0.626   5.868   5.955  0.3335 -0.0083 -0.8110
 1203SOL    MW4 4580   0.555   5.860   5.907  0.2957 -0.0817 -0.7429
 1204SOL     OW 4581   0.579   2.170   4.400  0.7536 -0.3817 -0.4159
 1204SOL    HW2 4582   0.587   2.114   4.477  2.4224  0.9106  0.4053
 1204SOL    HW3 4583   0.486   2.194   4.398  0.3991 -1.6223  0.3094
 1204SOL    MW4 4584   0.568   2.166   4.410  0.9270 -0.3748 -0.2118
 1205SOL     OW 4585   3.408   1.336   6.169 -0.1474 -0.3520  0.3497
 1205SOL    HW2 4586   3.459   1.401   6.218 -0.5205  1.1175 -1.1300
 1205SOL    HW3 4587   3.344   1.388   6.120 -0.5675 -1.8575 -0.7654
 1205SOL    MW4 4588   3.406   1.352   6.169 -0.2520 -0.3568  0.0074
 1206SOL     OW 4589   1.143   5.670   0.013  0.0555  0.6443 -0.4799
 1206SOL    HW2 4590   1.159   5.658   0.107 -1.1395  0.6952 -0.2639
 1206SOL    HW3 4591   1.202   5.742  -0.012  0.6423  0.3924  0.1439
 1206SOL    MW4 4592   1.153   5.678   0.022 -0.0247  0.6177 -0.3691
 1207SOL     OW 4593   2.058   5.719   4.418  0.3753  0.1691  0.1855
 1207SOL    HW2 4594   2.031   5.628   4.417 -0.0276  0.2883 -0.4439
 1207SOL    HW3 4595   1.982   5.766   4.453  0.3855  0.3194  0.0073
 1207SOL    MW4 4596   2.044   5.713   4.423  0.3235  0.2046  0.0789
 1208SOL     OW 4597   0.386   1.143   6.291  0.3110  0.4502 -0.5877
 1208SOL    HW2 4598   0.324   1.212   6.312  1.0056  0.9257 -0.0762
 1208SOL    HW3 4599   0.363   1.072   6.352  0.8323  0.9578  0.2166
 1208SOL    MW4 4600   0.375   1.142   6.302  0.4714  0.5799 -0.4141
 1209SOL     OW 4601   5.759   5.948   4.761  0.3457 -0.0874  0.7574
 1209SOL    HW2 4602   5.804   5.918   4.840  1.9185 -0.3137 -0.1874
 1209SOL    HW3 4603   5.786   5.886   4.693 -2.5482 -1.1304  0.3923
 1209SOL    MW4 4604   5.768   5.936   4.763  0.1714 -0.2549  0.5846
 1210SOL     OW 4605   3.467   3.647  -0.032 -0.1691 -0.1918  0.2945
 1210SOL    HW2 4606   3.432   3.709   0.032 -0.7694 -0.3260  0.1068
 1210SOL    HW3 4607   3.433   3.562  -0.003 -0.2737 -0.2802 -0.0876
 1210SOL    MW4 4608   3.458   3.644  -0.020 -0.2621 -0.2212  0.2193
 1211SOL     OW 4609   4.258   5.763   3.489 -0.1441 -0.0419  0.8179
 1211SOL    HW2 4610   4.254   5.858   3.493 -0.9269  0.1062 -1.7414
 1211SOL    HW3 4611   4.201   5.733   3.560  1.7258  1.2998  2.9958
 1211SOL    MW4 4612   4.250   5.771   3.498 -0.0007  0.1547  0.7676
 1212SOL     OW 4613   1.192   1.280   4.449  0.0792 -0.3530 -0.4326
 1212SOL    HW2 4614   1.206   1.268   4.543  2.2694 -1.4686 -0.8560
 1212SOL    HW3 4615   1.223   1.369   4.431 -1.8658  0.4884  0.1202
 1212SOL    MW4 4616   1.198   1.290   4.459  0.1115 -0.3892 -0.4155
 1213SOL     OW 4617   5.092   0.139   0.812 -0.4937 -0.0406 -0.7267
 1213SOL    HW2 4618   5.076   0.205   0.880 -3.4622 -0.2646 -1.0902
 1213SOL    HW3 4619   5.097   0.189   0.731 -0.1948 -0.0530 -0.7166
 1213SOL    MW4 4620   5.091   0.154   0.810 -0.8459 -0.0718 -0.7733
 1214SOL     OW 4621   5.330   4.811   0.018 -0.5443 -0.1487 -0.1482
 1214SOL    HW2 4622   5.339   4.884   0.079  0.1987 -0.5382  0.2341
 1214SOL    HW3 4623   5.417   4.804  -0.023 -0.3898 -1.2403  0.3322
 1214SOL    MW4 4624   5.343   4.820   0.021 -0.4259 -0.3441 -0.0344
 1215SOL     OW 4625   0.504   3.998   0.744  0.4065 -0.0521  0.7533
 1215SOL    HW2 4626   0.443   4.071   0.741 -0.9649 -1.0545  2.2681
 1215SOL    HW3 4627   0.452   3.922   0.719  1.2296 -0.8349  1.3446
 1215SOL    MW4 4628   0.489   3.997   0.740  0.3342 -0.2876  1.0312
 1216SOL     OW 4629   4.674   1.957   2.761 -0.1113 -0.6415 -0.4352
 1216SOL    HW2 4630   4.703   1.868   2.742  0.4315 -0.9276  1.4634
 1216SOL    HW3 4631   4.578   1.951   2.765 -0.2264 -0.6313 -2.4832
 1216SOL    MW4 4632   4.665   1.944   2.759 -0.0549 -0.6779 -0.4549
 1217SOL     OW 4633   4.370   6.199   2.659  0.1060 -0.3706 -1.0479
 1217SOL    HW2 4634   4.365   6.265   2.589  0.0428 -0.4672 -1.1350
 1217SOL    HW3 4635   4.280   6.170   2.671 -0.4616  1.9507  1.3139
 1217SOL    MW4 4636   4.357   6.204   2.651  0.0228 -0.0771 -0.7478
 1218SOL     OW 4637   3.335   4.359   4.341  0.2269 -0.5503 -0.0306
 1218SOL    HW2 4638   3.314   4.317   4.424  1.6413 -0.5837  0.3371
 1218SOL    HW3 4639   3.415   4.315   4.311  0.6855  0.5968 -0.5590
 1218SOL    MW4 4640   3.343   4.348   4.348  0.4740 -0.4034 -0.0518
 1219SOL     OW 4641   3.461   4.666   0.584 -0.2570 -0.4945 -0.2261
 1219SOL    HW2 4642   3.440   4.704   0.499 -0.6108 -0.0377  0.0621
 1219SOL    HW3 4643   3.391   4.602   0.599  0.6136 -1.6531 -0.9406
 1219SOL    MW4 4644   3.449   4.662   0.575 -0.1888 -0.5871 -0.2824
 1220SOL     OW 4645   2.530   0.913   2.627 -0.5310 -0.3896 -0.2381
 1220SOL    HW2 4646   2.594   0.842   2.622 -0.1863 -0.1614  0.6962
 1220SOL    HW3 4647   2.543   0.963   2.547  0.2762 -0.5057 -0.1851
 1220SOL    MW4 4648   2.540   0.910   2.616 -0.3790 -0.3748 -0.1078
 1221SOL     OW 4649   2.366   0.269   5.599  0.0223 -0.1905 -0.3357
 1221SOL    HW2 4650   2.401   0.341   5.545  0.2875 -0.4894 -0.5699
 1221SOL    HW3 4651   2.336   0.311   5.679  1.0001  0.0684 -0.0948
 1221SOL    MW4 4652   2.366   0.284   5.602  0.1863 -0.1958 -0.3348
 1222SOL     OW 4653   2.050   3.727   1.034  0.7787 -0.5074 -0.4014
 1222SOL    HW2 4654   2.140   3.758   1.046  0.7926  0.0312 -1.7392
 1222SOL    HW3 4655   2.046   3.700   0.942 -0.6548  0.2805 -0.5977
 1222SOL    MW4 4656   2.062   3.727   1.024  0.5914 -0.3324 -0.6038
 1223SOL     OW 4657   3.643   4.197   3.131 -0.0984  0.2973  0.3033
 1223SOL    HW2 4658   3.577   4.206   3.199 -1.2342  0.4335 -0.7802
 1223SOL    HW3 4659   3.667   4.287   3.108  1.1256  0.2422  1.2933
 1223SOL    MW4 4660   3.638   4.210   3.137 -0.0868  0.3080  0.2909
 1224SOL     OW 4661   0.431   5.651   4.157 -0.0667 -0.0660  0.9407
 1224SOL    HW2 4662   0.357   5.626   4.102 -0.7145 -0.5939  1.9964
 1224SOL    HW3 4663   0.471   5.726   4.113 -0.5860 -0.4452 -0.1946
 1224SOL    MW4 4664   0.426   5.658   4.144 -0.2207 -0.1857  0.9302
 1225SOL     OW 4665   3.637   2.904   1.995  0.5796  0.0466 -0.7705
 1225SOL    HW2 4666   3.569   2.875   1.934 -1.0054  2.2542 -0.2067
 1225SOL    HW3 4667   3.716   2.910   1.941 -0.1516 -0.5878 -1.9667
 1225SOL    MW4 4668   3.638   2.901   1.980  0.2740  0.2542 -0.8539
 1226SOL     OW 4669   6.319   5.548   5.512 -0.3119 -0.0674 -0.0425
 1226SOL    HW2 4670   6.348   5.461   5.487  2.6246  0.9048 -0.3501
 1226SOL    HW3 4671   6.366   5.567   5.592 -2.3706  0.5697  1.0892
 1226SOL    MW4 4672   6.329   5.539   5.519 -0.1961  0.1449  0.0662
 1227SOL     OW 4673   3.974   2.079   5.744  0.0068 -0.5997  0.5566
 1227SOL    HW2 4674   3.931   2.127   5.674 -1.8081 -1.6773  0.8642
 1227SOL    HW3 4675   3.914   2.086   5.819  1.0925 -0.8764  1.4947
 1227SOL    MW4 4676   3.961   2.086   5.745 -0.0894 -0.7784  0.7209
 1228SOL     OW 4677   1.217   2.630   4.656  0.3496 -0.1735  0.0761
 1228SOL    HW2 4678   1.145   2.599   4.710 -0.6915  0.1806 -1.0696
 1228SOL    HW3 4679   1.211   2.726   4.660 -0.0512 -0.1333 -1.0243
 1228SOL    MW4 4680   1.207   2.639   4.663  0.1594 -0.1215 -0.2202
 1229SOL     OW 4681   6.311   1.762   1.557 -0.9856  0.0213  0.1035
 1229SOL    HW2 4682   6.347   1.810   1.632  0.9256 -3.0094  1.3089
 1229SOL    HW3 4683   6.331   1.817   1.481 -0.5733  1.9352  1.5200
 1229SOL    MW4 4684   6.318   1.776   1.557 -0.6790 -0.1260  0.4494
 1230SOL     OW 4685   4.321   5.083   0.034 -0.4062  0.4715  0.1194
 1230SOL    HW2 4686   4.318   5.112   0.125 -2.3404 -1.1797  0.6622
 1230SOL    HW3 4687   4.317   4.987   0.039 -1.7872  0.3701 -1.7090
 1230SOL    MW4 4688   4.320   5.074   0.046 -0.8436  0.2402 -0.0502
 1231SOL     OW 4689   4.214   3.585   5.669  0.1819  0.3064  0.2946
 1231SOL    HW2 4690   4.198   3.592   5.575 -1.1845 -0.6208  0.4212
 1231SOL    HW3 4691   4.237   3.673   5.697  0.4097  0.6255 -0.8720
 1231SOL    MW4 4692   4.215   3.597   5.661  0.0317  0.2262  0.1574
 1232SOL     OW 4693   4.649   6.295   2.501  0.2284  0.0063  0.8137
 1232SOL    HW2 4694   4.687   6.343   2.427  1.3343 -0.2513  1.1860
 1232SOL    HW3 4695   4.695   6.211   2.501 -1.2665 -0.8334  0.5275
 1232SOL    MW4 4696   4.660   6.290   2.491  0.1771 -0.1385  0.8251
 1233SOL     OW 4697   3.120   2.699   5.974  0.5425 -0.8348 -0.3396
 1233SOL    HW2 4698   3.126   2.784   6.016  1.4202 -1.0972  0.0949
 1233SOL    HW3 4699   3.105   2.637   6.046 -0.4917 -1.0056 -0.6930
 1233SOL    MW4 4700   3.119   2.702   5.989  0.5219 -0.8919 -0.3289
 1234SOL     OW 4701   1.521   5.997   3.256 -0.2595  0.0081  0.3529
 1234SOL    HW2 4702   1.552   6.082   3.286 -0.7929  0.5332 -0.5386
 1234SOL    HW3 4703   1.447   6.017   3.199 -0.6257 -1.0755  0.4119
 1234SOL    MW4 4704   1.515   6.011   3.253 -0.3782 -0.0656  0.2430
 1235SOL     OW 4705   0.105   3.618   4.607  1.0817 -0.1029 -0.7974
 1235SOL    HW2 4706   0.107   3.522   4.604  2.6735 -0.1208 -0.2386
 1235SOL    HW3 4707   0.053   3.638   4.684 -0.8409 -0.4418 -1.9322
 1235SOL    MW4 4708   0.098   3.608   4.617  1.0380 -0.1500 -0.8734
 1236SOL     OW 4709   5.162   3.186   5.109 -0.0252 -0.0785  0.7222
 1236SOL    HW2 4710   5.223   3.122   5.073 -1.2241 -0.4653 -0.6842
 1236SOL    HW3 4711   5.177   3.183   5.204  2.0938 -0.1770  0.4266
 1236SOL    MW4 4712   5.172   3.177   5.117  0.0962 -0.1426  0.4976
 1237SOL     OW 4713   4.032   5.889   1.366 -0.6490 -0.0908  0.5142
 1237SOL    HW2 4714   4.018   5.905   1.460 -1.6749 -0.4431  0.4307
 1237SOL    HW3 4715   4.127   5.889   1.356 -0.5141 -0.4365  1.6322
 1237SOL    MW4 4716   4.043   5.891   1.377 -0.7666 -0.1829  0.6507
 1238SOL     OW 4717   6.250   4.885   6.281 -0.1282 -0.0129  0.0971
 1238SOL    HW2 4718   6.237   4.792   6.299 -0.7843 -0.0445 -0.4844
 1238SOL    HW3 4719   6.161   4.921   6.275  0.1121  0.9614  1.8223
 1238SOL    MW4 4720   6.236   4.878   6.282 -0.1830  0.1114  0.2480
 1239SOL     OW 4721   3.275   3.473   5.047  0.6878 -0.5677 -0.1852
 1239SOL    HW2 4722   3.317   3.387   5.053  1.4092 -0.1218  3.2425
 1239SOL    HW3 4723   3.310   3.522   5.121 -1.7550  1.7582 -0.4079
 1239SOL    MW4 4724   3.285   3.468   5.058  0.4607 -0.2020  0.2377
 1240SOL     OW 4725   5.085   0.193   2.483  0.2817  0.5035 -0.2190
 1240SOL    HW2 4726   5.017   0.190   2.551  1.8983  0.5078  1.4961
 1240SOL    HW3 4727   5.120   0.104   2.482  0.1669  0.4644 -1.2035
 1240SOL    MW4 4728   5.080   0.181   2.492  0.4798  0.4989 -0.1226
 1241SOL     OW 4729   1.882   1.866   0.579  0.4066  0.2570 -0.0204
 1241SOL    HW2 4730   1.793   1.835   0.569  0.8791 -0.5240 -2.6042
 1241SOL    HW3 4731   1.895   1.927   0.507  1.5617  1.4134  1.1040
 1241SOL    MW4 4732   1.872   1.870   0.568  0.6213  0.3065 -0.2129
 1242SOL     OW 4733   3.835   2.330   6.292  0.0257  0.5007  0.2159
 1242SOL    HW2 4734   3.814   2.339   6.199  1.1104  1.1728  0.0158
 1242SOL    HW3 4735   3.878   2.412   6.315 -1.6050  0.9853  1.7211
 1242SOL    MW4 4736   3.838   2.342   6.282 -0.0463  0.6533  0.3881
 1243SOL     OW 4737   2.761   5.320   1.370 -0.3464  0.2265 -0.1340
 1243SOL    HW2 4738   2.754   5.359   1.457  0.2632 -0.5793  0.2899
 1243SOL    HW3 4739   2.837   5.363   1.331  0.1424 -0.2961  0.2190
 1243SOL    MW4 4740   2.770   5.331   1.376 -0.2015  0.0512 -0.0315
 1244SOL     OW 4741   1.301   0.505   1.311 -0.0736 -0.2142  0.4723
 1244SOL    HW2 4742   1.227   0.469   1.359  1.0453  0.1122  2.5230
 1244SOL    HW3 4743   1.377   0.455   1.341  0.8100  0.6104 -0.2867
 1244SOL    MW4 4744   1.301   0.494   1.321  0.1906 -0.0623  0.6427
 1245SOL     OW 4745   5.161   1.650   5.949 -0.2176  0.5915 -0.3231
 1245SOL    HW2 4746   5.134   1.721   6.006  0.9874  0.3982  0.5233
 1245SOL    HW3 4747   5.079   1.606   5.925 -0.7947  0.9554  0.8916
 1245SOL    MW4 4748   5.147   1.653   5.953 -0.1347  0.6140 -0.0511
 1246SOL     OW 4749   1.082   1.058   2.201 -0.3717  0.9079 -0.2530
 1246SOL    HW2 4750   1.133   1.066   2.120  2.1940  0.6268  1.2102
 1246SOL    HW3 4751   1.057   0.966   2.205  0.6864  0.6184 -0.0854
 1246SOL    MW4 4752   1.086   1.047   2.191  0.1064  0.8326 -0.0378
 1247SOL     OW 4753   0.979   2.268   0.877  0.1215  0.3574  0.1626
 1247SOL    HW2 4754   0.918   2.264   0.950  0.6039  1.4767  0.6497
 1247SOL    HW3 4755   1.029   2.348   0.892  1.6040 -0.4515 -0.3140
 1247SOL    MW4 4756   0.977   2.278   0.888  0.3808  0.3984  0.1640
 1248SOL     OW 4757   2.399   2.440   0.779  0.5047  0.0829  0.6815
 1248SOL    HW2 4758   2.480   2.428   0.730 -1.1025  0.8155 -2.4564
 1248SOL    HW3 4759   2.427   2.459   0.868  3.7084 -0.6593 -0.0465
 1248SOL    MW4 4760   2.413   2.441   0.784  0.7154  0.0816  0.1714
 1249SOL     OW 4761   2.225   3.637   5.101  0.2819 -0.3508  0.9099
 1249SOL    HW2 4762   2.321   3.639   5.105  0.2311  0.7619  3.1813
 1249SOL    HW3 4763   2.202   3.548   5.127  0.6860 -0.1300  2.0646
 1249SOL    MW4 4764   2.235   3.626   5.105  0.3285 -0.1749  1.3619
 1250SOL     OW 4765   6.052   6.424   1.849 -0.6471  0.0886 -0.2991
 1250SOL    HW2 4766   6.028   6.340   1.888 -1.1056 -0.1458 -1.0698
 1250SOL    HW3 4767   5.972   6.455   1.807 -1.0322  1.8570  1.5908
 1250SOL    MW4 4768   6.038   6.417   1.849 -0.7584  0.2910 -0.1514
 1251SOL     OW 4769   3.329   5.731   1.228  0.2914  0.2574  0.7281
 1251SOL    HW2 4770   3.357   5.719   1.319  2.7856  0.1871  0.0309
 1251SOL    HW3 4771   3.379   5.665   1.179  0.7934  1.8043 -0.9670
 1251SOL    MW4 4772   3.340   5.721   1.233  0.6867  0.4522  0.4124
 1252SOL     OW 4773   6.146   4.410   1.880  0.1017  0.1765 -0.4446
 1252SOL    HW2 4774   6.230   4.364   1.879  0.7928  1.3777 -0.2810
 1252SOL    HW3 4775   6.167   4.497   1.914 -1.4412  0.0967  0.8402
 1252SOL    MW4 4776   6.160   4.416   1.884 -0.0107  0.3245 -0.2535
 1253SOL     OW 4777   5.676   2.315   5.284 -0.7764  0.2900  0.0210
 1253SOL    HW2 4778   5.757   2.271   5.312 -0.5631  1.9991  2.4039
 1253SOL    HW3 4779   5.700   2.360   5.203  0.6357  0.5835  0.5662
 1253SOL    MW4 4780   5.690   2.315   5.277 -0.5620  0.5542  0.4073
 1254SOL     OW 4781   2.996   3.150   6.158  0.2279  0.3235  0.6237
 1254SOL    HW2 4782   2.942   3.183   6.087 -0.3669 -0.5711  0.6471
 1254SOL    HW3 4783   2.935   3.136   6.231  0.9307  1.9151  1.5852
 1254SOL    MW4 4784   2.981   3.153   6.158  0.2421  0.4155  0.7536
 1255SOL     OW 4785   1.163   1.437   5.277 -0.2828 -0.3848 -0.2649
 1255SOL    HW2 4786   1.231   1.377   5.308  0.7613  1.4418  1.1651
 1255SOL    HW3 4787   1.182   1.448   5.184 -0.1841 -1.8404 -0.4440
 1255SOL    MW4 4788   1.175   1.431   5.269 -0.1320 -0.3359 -0.0999
 1256SOL     OW 4789   4.398   3.001   5.656  0.0558  0.1158 -0.1291
 1256SOL    HW2 4790   4.465   3.048   5.604 -1.2188  3.5296  1.0219
 1256SOL    HW3 4791   4.324   3.061   5.658 -2.3585 -2.6773  0.3707
 1256SOL    MW4 4792   4.397   3.015   5.649 -0.4309  0.1977  0.0887
 1257SOL     OW 4793   1.821   2.232   2.589 -0.4605  0.0089  0.4007
 1257SOL    HW2 4794   1.822   2.146   2.546  0.6356  0.3666 -0.3171
 1257SOL    HW3 4795   1.899   2.232   2.644 -0.0463  0.8202 -0.1748
 1257SOL    MW4 4796   1.831   2.221   2.590 -0.2612  0.1631  0.2300
 1258SOL     OW 4797   0.235   3.059   2.139 -0.1253  0.0884  0.2248
 1258SOL    HW2 4798   0.277   3.143   2.157 -0.9081  0.4361  0.4770
 1258SOL    HW3 4799   0.203   3.066   2.049  1.0482 -0.4797 -0.2506
 1258SOL    MW4 4800   0.236   3.071   2.129 -0.0738  0.0593  0.1954
 1259SOL     OW 4801   3.625   1.105   3.714  0.0774  0.6098 -0.2320
 1259SOL    HW2 4802   3.688   1.177   3.716  0.4737  0.2509  0.8342
 1259SOL    HW3 4803   3.613   1.080   3.806 -0.5738 -0.2399 -0.5272
 1259SOL    MW4 4804   3.631   1.111   3.726  0.0438  0.4503 -0.1303
 1260SOL     OW 4805   0.211   5.408   2.137 -0.2035 -0.5128 -0.3372
 1260SOL    HW2 4806   0.304   5.391   2.123  0.1833 -0.6648  1.9215
 1260SOL    HW3 4807   0.173   5.321   2.147  0.1624 -0.4374  2.4726
 1260SOL    MW4 4808   0.218   5.394   2.137 -0.1042 -0.5229  0.3315
 1261SOL     OW 4809   3.325   2.664   5.202  0.0989  0.1904 -0.4263
 1261SOL    HW2 4810   3.400   2.633   5.252  0.3824  0.2197 -0.8298
 1261SOL    HW3 4811   3.275   2.717   5.265  0.2148 -0.1325 -0.0543
 1261SOL    MW4 4812   3.328   2.667   5.217  0.1516  0.1517 -0.4304
 1262SOL     OW 4813   6.413   3.724   2.071  0.5731  0.1389 -0.3870
 1262SOL    HW2 4814   6.480   3.792   2.065 -1.7685  2.6572 -0.2441
 1262SOL    HW3 4815   6.400   3.695   1.980  1.6783 -0.2426 -0.4336
 1262SOL    MW4 4816   6.420   3.729   2.058  0.4099  0.4208 -0.3743
 1263SOL     OW 4817   4.704   3.829   4.912 -0.1067  0.5011 -0.3068
 1263SOL    HW2 4818   4.692   3.882   4.833  0.5857  1.8767  0.4636
 1263SOL    HW3 4819   4.758   3.884   4.970 -0.1986 -0.6562  0.9371
 1263SOL    MW4 4820   4.710   3.843   4.909 -0.0275  0.5299 -0.0410
 1264SOL     OW 4821   2.388   1.039   1.058 -0.1630 -0.1474 -0.0064
 1264SOL    HW2 4822   2.334   1.112   1.025  1.0946  1.4170  1.2131
 1264SOL    HW3 4823   2.385   0.973   0.989 -1.1975  1.1397 -1.2480
 1264SOL    MW4 4824   2.380   1.040   1.045 -0.1336  0.2288 -0.0093
 1265SOL     OW 4825   3.935   5.122   1.281  0.1687  0.0507 -0.2659
 1265SOL    HW2 4826   3.897   5.090   1.199 -3.8133  1.8119  0.6243
 1265SOL    HW3 4827   3.911   5.056   1.346 -0.0232  0.4378  0.0596
 1265SOL    MW4 4828   3.927   5.109   1.279 -0.3820  0.3341 -0.1055
 1266SOL     OW 4829   3.715   2.765   3.941  0.1468 -0.1170 -0.3223
 1266SOL    HW2 4830   3.636   2.814   3.961  0.3963 -0.2863  1.2262
 1266SOL    HW3 4831   3.698   2.724   3.856 -2.4251 -2.1329  1.0240
 1266SOL    MW4 4832   3.702   2.766   3.932 -0.1596 -0.4053  0.0596
 1267SOL     OW 4833   0.033   0.623   3.280  0.2194  0.4819  0.0238
 1267SOL    HW2 4834   0.122   0.650   3.260  0.3047 -0.0666 -0.3532
 1267SOL    HW3 4835  -0.022   0.698   3.255  0.6047  0.9848  0.6571
 1267SOL    MW4 4836   0.037   0.636   3.274  0.2815  0.4759  0.0576
 1268SOL     OW 4837   1.162   3.922   1.124 -0.0277  0.3457 -0.1213
 1268SOL    HW2 4838   1.140   3.890   1.036  0.7840  1.1353 -0.6322
 1268SOL    HW3 4839   1.247   3.883   1.142 -0.1112  0.3331  0.2417
 1268SOL    MW4 4840   1.170   3.913   1.115  0.0684  0.4482 -0.1408
 1269SOL     OW 4841   1.491   4.310   3.643  0.4616 -0.2164  0.2806
 1269SOL    HW2 4842   1.440   4.271   3.713  0.0554  0.1848  0.2146
 1269SOL    HW3 4843   1.433   4.375   3.604  0.4041 -0.9532 -0.9224
 1269SOL    MW4 4844   1.477   4.313   3.647  0.4004 -0.2607  0.1132
 1270SOL     OW 4845   0.128   3.977   0.925  0.5255  0.2034  0.6781
 1270SOL    HW2 4846   0.064   3.952   0.991 -0.2598 -1.4718 -0.6659
 1270SOL    HW3 4847   0.207   3.928   0.949  0.2559 -0.3697  0.3900
 1270SOL    MW4 4848   0.130   3.967   0.937  0.3863 -0.0932  0.4628
 1271SOL     OW 4849   3.133   1.822   4.046 -0.0864 -0.0943 -0.6131
 1271SOL    HW2 4850   3.186   1.770   4.107 -1.3955 -2.4029 -1.3234
 1271SOL    HW3 4851   3.069   1.867   4.102  0.0444 -0.5351 -0.0981
 1271SOL    MW4 4852   3.132   1.821   4.062 -0.2418 -0.4570 -0.6388
 1272SOL     OW 4853   3.356   6.206   4.109 -0.6426 -0.5046 -0.4488
 1272SOL    HW2 4854   3.343   6.300   4.095  0.2417  0.0255  1.7917
 1272SOL    HW3 4855   3.339   6.193   4.202 -0.5601 -2.5440 -0.6701
 1272SOL    MW4 4856   3.352   6.217   4.120 -0.5150 -0.7037 -0.1824
 1273SOL     OW 4857   6.214   4.908   5.961 -0.7493  0.3811 -0.0637
 1273SOL    HW2 4858   6.287   4.951   6.006 -0.3799  0.6047 -0.8536
 1273SOL    HW3 4859   6.136   4.951   5.995 -0.4747  0.6242  0.2753
 1273SOL    MW4 4860   6.214   4.919   5.971 -0.6643  0.4427 -0.1232
 1274SOL     OW 4861   0.774   0.847   2.352  0.3927  0.0179  0.3508
 1274SOL    HW2 4862   0.705   0.901   2.313 -0.8441 -1.2210  0.7264
 1274SOL    HW3 4863   0.774   0.871   2.445 -0.1496 -0.5759  0.5159
 1274SOL    MW4 4864   0.765   0.857   2.359  0.1580 -0.2239  0.4221
 1275SOL     OW 4865   4.872   3.262   4.019  0.5588 -0.0312 -0.3201
 1275SOL    HW2 4866   4.864   3.174   3.982  0.2019  0.3065 -1.0744
 1275SOL    HW3 4867   4.893   3.317   3.943 -1.4969  0.8926 -0.2892
 1275SOL    MW4 4868   4.874   3.257   4.004  0.2405  0.1352 -0.4156
 1276SOL     OW 4869   1.268   2.130   1.057 -0.1342 -0.4688  0.8396
 1276SOL    HW2 4870   1.330   2.058   1.047  0.8502  0.4526  0.0841
 1276SOL    HW3 4871   1.187   2.097   1.018  1.3568  0.1216 -3.3388
 1276SOL    MW4 4872   1.266   2.116   1.051  0.1924 -0.2693  0.1886
 1277SOL     OW 4873   4.846   2.866   4.324 -0.4328 -0.2637  0.0848
 1277SOL    HW2 4874   4.798   2.847   4.404 -0.1723 -1.0660  0.0513
 1277SOL    HW3 4875   4.783   2.911   4.268 -0.3015  1.3923  1.1670
 1277SOL    MW4 4876   4.832   2.870   4.327 -0.3811 -0.1511  0.2232
 1278SOL     OW 4877   0.899   5.161   2.946 -0.6687  0.7804  0.4508
 1278SOL    HW2 4878   0.854   5.213   2.879 -0.9419  0.8904  0.7160
 1278SOL    HW3 4879   0.834   5.151   3.016 -0.1056  1.4089  1.0757
 1278SOL    MW4 4880   0.885   5.167   2.947 -0.6304  0.8779  0.5683
 1279SOL     OW 4881   1.436   4.688   0.703  0.6214 -0.0968 -0.1538
 1279SOL    HW2 4882   1.389   4.739   0.638  0.0344 -0.0819  0.2684
 1279SOL    HW3 4883   1.517   4.736   0.718  0.5222  0.1771 -0.4879
 1279SOL    MW4 4884   1.441   4.701   0.697  0.5308 -0.0587 -0.1422
 1280SOL     OW 4885   3.788   5.246   3.411  0.1179 -0.3451  0.9148
 1280SOL    HW2 4886   3.788   5.301   3.489  0.4675  0.5356  0.3069
 1280SOL    HW3 4887   3.881   5.235   3.388 -0.0082  0.1106  0.1408
 1280SOL    MW4 4888   3.801   5.252   3.418  0.1474 -0.1688  0.7325
 1281SOL     OW 4889   2.966   3.862   2.384  0.4483 -0.0126 -0.0470
 1281SOL    HW2 4890   3.060   3.861   2.364  0.7255 -0.8662  1.2145
 1281SOL    HW3 4891   2.927   3.813   2.311  1.0572 -0.1773 -0.2775
 1281SOL    MW4 4892   2.973   3.855   2.372  0.5652 -0.1470  0.0890
 1282SOL     OW 4893   0.690   3.839   3.475 -0.5529  0.3862  0.2674
 1282SOL    HW2 4894   0.694   3.757   3.524 -0.0032  0.3732  0.2126
 1282SOL    HW3 4895   0.629   3.822   3.404 -0.3643 -0.0127  0.1965
 1282SOL    MW4 4896   0.683   3.826   3.472 -0.4555  0.3319  0.2508
 1283SOL     OW 4897   1.824   3.168   2.602 -0.0781  0.4504  1.0757
 1283SOL    HW2 4898   1.864   3.159   2.516  0.8863  1.0595  1.4471
 1283SOL    HW3 4899   1.775   3.250   2.597  0.7079  0.9526  1.3707
 1283SOL    MW4 4900   1.823   3.178   2.590  0.1528  0.5971  1.1636
 1284SOL     OW 4901   4.756   0.828   1.246 -0.8350  0.1156  0.3859
 1284SOL    HW2 4902   4.797   0.851   1.330  3.1140 -1.8049 -0.7862
 1284SOL    HW3 4903   4.699   0.753   1.267 -0.0444 -0.2291  1.4019
 1284SOL    MW4 4904   4.754   0.821   1.260 -0.2097 -0.1832  0.3653
 1285SOL     OW 4905   4.250   5.828   6.162 -0.2240 -0.0819  0.0958
 1285SOL    HW2 4906   4.182   5.779   6.115 -0.7616 -0.1191  0.8897
 1285SOL    HW3 4907   4.279   5.768   6.231  0.6439 -0.0765 -0.2583
 1285SOL    MW4 4908   4.245   5.813   6.165 -0.1804 -0.0861  0.1538
 1286SOL     OW 4909   0.157   0.707   5.964  0.2782  0.0208 -0.0013
 1286SOL    HW2 4910   0.108   0.781   5.928 -0.1351 -0.3246 -0.1660
 1286SOL    HW3 4911   0.183   0.735   6.051 -0.1151  0.2592  0.0446
 1286SOL    MW4 4912   0.154   0.721   5.971  0.1718  0.0067 -0.0170
 1287SOL     OW 4913   3.365   5.980   1.099  0.6424 -0.4909 -0.1517
 1287SOL    HW2 4914   3.305   5.947   1.033  1.0757 -1.8063  0.0900
 1287SOL    HW3 4915   3.392   5.903   1.148 -0.7859  0.6199  2.5389
 1287SOL    MW4 4916   3.361   5.966   1.096  0.5111 -0.5179  0.2352
 1288SOL     OW 4917   0.135   1.639   5.948 -0.4531  0.1425 -0.2602
 1288SOL    HW2 4918   0.223   1.677   5.954 -0.4861  0.3909 -1.1149
 1288SOL    HW3 4919   0.104   1.635   6.038  0.1665  0.7077 -0.0110
 1288SOL    MW4 4920   0.143   1.644   5.960 -0.3757  0.2499 -0.3401
 1289SOL     OW 4921   5.691   1.497   1.043 -0.3232  0.2366 -0.1647
 1289SOL    HW2 4922   5.688   1.412   1.086 -1.0936  0.4091  0.1262
 1289SOL    HW3 4923   5.754   1.485   0.971 -0.0081 -0.4147  0.2087
 1289SOL    MW4 4924   5.699   1.484   1.039 -0.3833  0.1734 -0.0770
 1290SOL     OW 4925   3.829   6.145   4.764  0.2044  0.1113 -0.2197
 1290SOL    HW2 4926   3.876   6.123   4.844 -0.2171 -2.8339 -0.6663
 1290SOL    HW3 4927   3.736   6.135   4.786 -0.1017  2.0553 -0.3940
 1290SOL    MW4 4928   3.823   6.141   4.777  0.1084 -0.0208 -0.3016
 1291SOL     OW 4929   2.315   3.356   3.419 -0.7571 -0.0811  0.1062
 1291SOL    HW2 4930   2.250   3.426   3.425  1.6427  2.4002 -0.7013
 1291SOL    HW3 4931   2.356   3.353   3.506 -0.1687  0.2738 -0.1511
 1291SOL    MW4 4932   2.312   3.365   3.431 -0.3629  0.2931 -0.0343
 1292SOL     OW 4933   0.158   3.096   3.623  0.3348  0.0478 -0.0727
 1292SOL    HW2 4934   0.183   3.006   3.645  0.9155  0.4390  0.9507
 1292SOL    HW3 4935   0.199   3.113   3.539  1.5946 -0.1101  0.4910
 1292SOL    MW4 4936   0.167   3.086   3.615  0.5776  0.0786  0.1367
 1293SOL     OW 4937   0.316   3.178   0.178 -0.2227  0.6825  0.1112
 1293SOL    HW2 4938   0.317   3.095   0.131 -0.5673  0.7115  0.0460
 1293SOL    HW3 4939   0.365   3.238   0.123 -2.9203  1.4668 -1.6538
 1293SOL    MW4 4940   0.323   3.175   0.165 -0.6241  0.7898 -0.1303
 1294SOL     OW 4941   1.965   2.563   4.053  0.3358  0.0127  0.0519
 1294SOL    HW2 4942   1.914   2.635   4.091  1.4568  0.0355  1.6038
 1294SOL    HW3 4943   2.002   2.600   3.973 -1.4507  0.2173 -0.7231
 1294SOL    MW4 4944   1.963   2.577   4.048  0.2480  0.0427  0.1544
 1295SOL     OW 4945   1.416   6.006   1.953 -0.2958 -0.2009  0.3665
 1295SOL    HW2 4946   1.464   5.936   1.907 -1.4624 -1.3144  0.7909
 1295SOL    HW3 4947   1.329   5.969   1.969 -0.8177  1.2162  0.9653
 1295SOL    MW4 4948   1.411   5.991   1.949 -0.5186 -0.1608  0.5015
 1296SOL     OW 4949   2.167   3.100   0.932  0.0673 -0.2010  0.5387
 1296SOL    HW2 4950   2.085   3.130   0.972  1.3637  1.6959  1.9666
 1296SOL    HW3 4951   2.143   3.078   0.842 -1.7288  1.9687  0.3920
 1296SOL    MW4 4952   2.153   3.101   0.925  0.0014  0.3355  0.7077
 1297SOL     OW 4953   1.501   4.457   0.505  0.4424  0.1078  0.6346
 1297SOL    HW2 4954   1.443   4.522   0.544 -1.7156 -0.9894 -0.5476
 1297SOL    HW3 4955   1.520   4.490   0.417 -2.0065 -1.4741 -0.6046
 1297SOL    MW4 4956   1.496   4.470   0.498 -0.1655 -0.2457  0.3151
 1298SOL     OW 4957   5.716   1.448   5.645 -0.0610  0.6778  0.1593
 1298SOL    HW2 4958   5.788   1.417   5.699  1.2875  2.2901 -0.6248
 1298SOL    HW3 4959   5.755   1.466   5.559 -1.7045  0.2260 -0.7415
 1298SOL    MW4 4960   5.730   1.446   5.641 -0.0999  0.8309 -0.0630
 1299SOL     OW 4961   3.325   5.750   1.513  0.0992  0.0701 -0.0509
 1299SOL    HW2 4962   3.415   5.720   1.526  0.4468  0.9341 -0.3903
 1299SOL    HW3 4963   3.314   5.821   1.576 -0.0869  0.4764 -0.5354
 1299SOL    MW4 4964   3.336   5.756   1.523  0.1205  0.2377 -0.1596
 1300SOL     OW 4965   1.103   3.956   5.632  0.0236 -0.2473  0.5506
 1300SOL    HW2 4966   1.103   4.000   5.547 -0.4736 -1.7730 -0.2730
 1300SOL    HW3 4967   1.170   3.889   5.624 -0.8269 -1.1671  0.9331
 1300SOL    MW4 4968   1.112   3.953   5.619 -0.1542 -0.5700  0.4924
 1301SOL     OW 4969   6.192   0.637   0.446 -0.8302  0.1135  0.2007
 1301SOL    HW2 4970   6.189   0.648   0.351 -1.1431  0.1422  0.2156
 1301SOL    HW3 4971   6.246   0.559   0.459  1.3388  1.4873  0.0891
 1301SOL    MW4 4972   6.199   0.628   0.435 -0.5853  0.2985  0.1880
 1302SOL     OW 4973   3.559   1.336   2.872  0.5167  0.0648  0.2173
 1302SOL    HW2 4974   3.596   1.399   2.934 -1.6615 -0.2634  1.9810
 1302SOL    HW3 4975   3.466   1.359   2.867  0.2829 -1.0885 -1.5452
 1302SOL    MW4 4976   3.552   1.348   2.880  0.1985 -0.1306  0.2174
 1303SOL     OW 4977   1.260   3.445   3.444 -0.9683  0.0537  0.2119
 1303SOL    HW2 4978   1.220   3.523   3.481 -1.1765 -0.5961  1.3913
 1303SOL    HW3 4979   1.235   3.447   3.351 -1.5054  1.0381  0.3667
 1303SOL    MW4 4980   1.251   3.456   3.437 -1.0666  0.0979  0.3880
 1304SOL     OW 4981   1.991   2.065   6.364  0.1800 -0.0058 -0.3354
 1304SOL    HW2 4982   2.024   1.989   6.412  1.5075  0.5731 -0.2741
 1304SOL    HW3 4983   2.048   2.072   6.288 -0.4643  0.4284 -0.7885
 1304SOL    MW4 4984   2.003   2.056   6.361  0.2701  0.1279 -0.3871
 1305SOL     OW 4985   3.662   6.205   5.560 -0.5006 -0.0871  0.0983
 1305SOL    HW2 4986   3.646   6.264   5.486 -0.5531  1.0948  1.0251
 1305SOL    HW3 4987   3.593   6.225   5.623 -0.3341 -0.9309  0.5750
 1305SOL    MW4 4988   3.651   6.215   5.558 -0.4855 -0.0425  0.2835
 1306SOL     OW 4989   5.891   2.175   0.137  0.4242  0.5278 -0.2847
 1306SOL    HW2 4990   5.817   2.234   0.152 -0.0355 -0.0409 -0.2939
 1306SOL    HW3 4991   5.868   2.095   0.185  1.8711  0.9857  1.3021
 1306SOL    MW4 4992   5.878   2.173   0.146  0.5544  0.5132 -0.0765
 1307SOL     OW 4993   4.684   4.408   4.629  0.4331 -0.3083 -0.0081
 1307SOL    HW2 4994   4.615   4.344   4.645  0.1059  0.1306  0.3825
 1307SOL    HW3 4995   4.637   4.490   4.611  0.8343 -0.2930 -1.0413
 1307SOL    MW4 4996   4.669   4.411   4.629  0.4429 -0.2483 -0.0929
 1308SOL     OW 4997   1.176   5.284   2.562  0.2072 -0.1086 -0.8422
 1308SOL    HW2 4998   1.168   5.230   2.641  2.9911  1.9672  1.0494
 1308SOL    HW3 4999   1.233   5.234   2.504  0.4376 -0.4482 -0.3314
 1308SOL    MW4 5000   1.183   5.270   2.565  0.6049  0.1205 -0.5252
 1309SOL     OW 5001   0.216   2.815   3.675 -0.1450 -0.3841  0.7107
 1309SOL    HW2 5002   0.219   2.764   3.594 -0.9708  0.3131  0.2167
 1309SOL    HW3 5003   0.289   2.782   3.727  0.1702 -1.1108 -0.1595
 1309SOL    MW4 5004   0.226   2.804   3.671 -0.2124 -0.3880  0.5307
 1310SOL     OW 5005   5.463   3.282   4.830  0.1951 -0.5584  0.4327
 1310SOL    HW2 5006   5.393   3.324   4.778 -0.0371  1.2470  2.0907
 1310SOL    HW3 5007   5.427   3.197   4.853 -0.1533 -0.9454 -1.3660
 1310SOL    MW4 5008   5.449   3.277   4.826  0.1185 -0.3713  0.4141
 1311SOL     OW 5009   1.984   0.031   3.606 -0.0391 -0.2080  0.1553
 1311SOL    HW2 5010   2.051  -0.019   3.653 -0.0849 -2.2844 -1.8124
 1311SOL    HW3 5011   2.032   0.101   3.563  0.4618 -0.1054  0.8694
 1311SOL    MW4 5012   1.999   0.033   3.607  0.0209 -0.4684 -0.0101
 1312SOL     OW 5013   3.020   1.242   4.638  0.4760 -0.4173 -0.2421
 1312SOL    HW2 5014   3.040   1.300   4.564  0.2710  1.2476  0.9426
 1312SOL    HW3 5015   3.092   1.257   4.700 -0.2030 -0.5075  0.5938
 1312SOL    MW4 5016   3.032   1.252   4.637  0.3594 -0.2096  0.0245
 1313SOL     OW 5017   2.026   2.557   4.442  0.0370  0.2660 -0.3956
 1313SOL    HW2 5018   2.091   2.581   4.376  1.2139 -0.2331  0.5524
 1313SOL    HW3 5019   1.958   2.623   4.433  1.5353  1.9099 -0.2027
 1313SOL    MW4 5020   2.026   2.569   4.432  0.3900  0.4171 -0.2451
 1314SOL     OW 5021   3.638   5.207   2.389 -0.1141  0.1986 -0.1916
 1314SOL    HW2 5022   3.731   5.185   2.390 -0.0119  0.6361  1.1078
 1314SOL    HW3 5023   3.633   5.287   2.336  0.0753 -0.4532 -1.2330
 1314SOL    MW4 5024   3.650   5.215   2.382 -0.0757  0.1703 -0.1575
 1315SOL     OW 5025   6.111   1.636   5.671  0.2574 -0.6944 -0.3144
 1315SOL    HW2 5026   6.064   1.553   5.676  0.5722 -0.9989 -2.1183
 1315SOL    HW3 5027   6.182   1.621   5.609  1.7822  0.2545  1.1034
 1315SOL    MW4 5028   6.114   1.623   5.664  0.5001 -0.6094 -0.3653
 1316SOL     OW 5029   0.347   5.973   2.861  0.1215 -0.5521 -0.1310
 1316SOL    HW2 5030   0.384   5.887   2.840 -0.4017 -0.3533 -2.0307
 1316SOL    HW3 5031   0.259   5.971   2.823 -0.0166  0.7071  0.0842
 1316SOL    MW4 5032   0.340   5.961   2.853  0.0343 -0.3597 -0.3532
 1317SOL     OW 5033   0.043   3.810   4.395  0.0006  0.3802 -0.3111
 1317SOL    HW2 5034   0.057   3.791   4.488  1.5898 -0.2803 -0.6576
 1317SOL    HW3 5035   0.001   3.732   4.360  0.4963  0.1392 -0.3793
 1317SOL    MW4 5036   0.039   3.797   4.403  0.2757  0.2613 -0.3658
 1318SOL     OW 5037   3.776   1.510  -0.004 -0.6356 -0.6411 -0.4194
 1318SOL    HW2 5038   3.811   1.428  -0.039  2.0419  0.9285 -1.7153
 1318SOL    HW3 5039   3.825   1.525   0.076  0.8345  0.9134 -1.5395
 1318SOL    MW4 5040   3.787   1.501   0.002 -0.0884 -0.2289 -0.7381
 1319SOL     OW 5041   2.050   0.600   0.921 -0.0052 -0.3586  0.2195
 1319SOL    HW2 5042   2.066   0.512   0.955  0.0246 -0.0715  0.9833
 1319SOL    HW3 5043   1.959   0.618   0.942 -0.0846 -0.3039 -0.1670
 1319SOL    MW4 5044   2.040   0.591   0.928 -0.0117 -0.3135  0.2693
 1320SOL     OW 5045   2.826   4.007   4.828  0.2233 -0.4815  0.5324
 1320SOL    HW2 5046   2.803   4.078   4.768 -2.1900 -1.2919  0.4033
 1320SOL    HW3 5047   2.854   3.936   4.771  1.6013 -0.0416  0.6135
 1320SOL    MW4 5048   2.827   4.007   4.813  0.0867 -0.5303  0.5260
 1321SOL     OW 5049   5.533   1.816   6.155  0.0488 -0.3909 -0.8701
 1321SOL    HW2 5050   5.453   1.869   6.156 -0.8463 -1.6824 -1.1625
 1321SOL    HW3 5051   5.550   1.796   6.247 -0.5205 -0.8988 -0.8708
 1321SOL    MW4 5052   5.525   1.820   6.167 -0.1444 -0.6283 -0.9088
 1322SOL     OW 5053   1.916   3.042   2.837 -0.3662  0.3292 -0.4151
 1322SOL    HW2 5054   1.863   3.078   2.765 -0.4497  2.5029  0.6777
 1322SOL    HW3 5055   2.006   3.048   2.806 -0.4586  0.4395 -0.6673
 1322SOL    MW4 5056   1.921   3.047   2.823 -0.3894  0.6305 -0.3042
 1323SOL     OW 5057   4.091   5.147   5.085  0.6551  0.3878  0.0754
 1323SOL    HW2 5058   4.062   5.231   5.119 -0.2953  0.8863 -1.7913
 1323SOL    HW3 5059   4.046   5.082   5.139 -1.7002  1.1464 -0.8207
 1323SOL    MW4 5060   4.081   5.149   5.096  0.2189  0.5537 -0.2891
 1324SOL     OW 5061   3.445   2.922   5.260 -0.1544 -0.2938  0.1151
 1324SOL    HW2 5062   3.433   2.829   5.240  0.3069  0.0793 -2.2250
 1324SOL    HW3 5063   3.386   2.939   5.333  0.1929 -2.5351  1.0026
 1324SOL    MW4 5064   3.436   2.912   5.267 -0.0477 -0.5403 -0.0765
 1325SOL     OW 5065   4.994   2.149   3.054 -0.0639 -0.3550 -0.4193
 1325SOL    HW2 5066   4.948   2.218   3.006 -1.8056 -0.3605  1.1371
 1325SOL    HW3 5067   4.957   2.067   3.022 -1.8735 -0.3355  1.4214
 1325SOL    MW4 5068   4.983   2.147   3.044 -0.5324 -0.3532  0.0289
 1326SOL     OW 5069   3.333   0.167   4.747 -0.3026  0.2062 -0.6260
 1326SOL    HW2 5070   3.367   0.250   4.714  0.4700  0.7067  1.2442
 1326SOL    HW3 5071   3.242   0.186   4.770 -1.0620 -0.3301 -2.9202
 1326SOL    MW4 5072   3.325   0.181   4.746 -0.3009  0.2015 -0.6820
 1327SOL     OW 5073   2.577   2.226   0.228  0.1176 -0.4918  0.4961
 1327SOL    HW2 5074   2.540   2.225   0.316 -3.5072  0.6244 -0.8497
 1327SOL    HW3 5075   2.604   2.317   0.214  0.6429 -0.6569  0.4095
 1327SOL    MW4 5076   2.576   2.238   0.238 -0.2914 -0.3663  0.3071
 1328SOL     OW 5077   0.552   5.601   0.488  0.3945  0.3330 -0.2286
 1328SOL    HW2 5078   0.563   5.646   0.404  1.5864  3.3695  1.4199
 1328SOL    HW3 5079   0.597   5.657   0.551  0.3936 -2.3465  2.3294
 1328SOL    MW4 5080   0.559   5.614   0.485  0.5517  0.3801  0.3264
 1329SOL     OW 5081   3.898   3.936   3.370  0.6152  0.2059  0.0837
 1329SOL    HW2 5082   3.983   3.959   3.334  0.2691 -1.0126 -1.6435
 1329SOL    HW3 5083   3.918   3.888   3.450  1.4886  0.9926  0.3570
 1329SOL    MW4 5084   3.912   3.933   3.376  0.6848  0.1489 -0.1081
 1330SOL     OW 5085   6.178   5.876   3.680  0.3417  0.4466 -0.2564
 1330SOL    HW2 5086   6.162   5.935   3.607 -0.3412 -0.6508 -1.0151
 1330SOL    HW3 5087   6.273   5.881   3.694  0.6105  0.0792 -1.7531
 1330SOL    MW4 5088   6.189   5.884   3.673  0.2871  0.2534 -0.5540
 1331SOL     OW 5089   4.669   4.765   6.125  0.3241  0.3287  0.6461
 1331SOL    HW2 5090   4.737   4.776   6.059 -0.3010 -0.8410 -0.2384
 1331SOL    HW3 5091   4.714   4.775   6.209  1.9807 -2.1354  0.1579
 1331SOL    MW4 5092   4.684   4.768   6.128  0.4602 -0.1507  0.4650
 1332SOL     OW 5093   4.113   6.257   3.383 -0.4107  0.3952 -0.0873
 1332SOL    HW2 5094   4.045   6.267   3.449 -0.8861  0.6023 -0.6004
 1332SOL    HW3 5095   4.161   6.340   3.385  1.0425 -0.4127  1.5783
 1332SOL    MW4 5096   4.111   6.269   3.392 -0.2817  0.3159  0.0647
 1333SOL     OW 5097   1.750   4.929   2.638 -0.5189 -0.0489  0.3437
 1333SOL    HW2 5098   1.828   4.919   2.584 -0.3236  0.9165  0.4212
 1333SOL    HW3 5099   1.756   4.858   2.702  1.7846  1.5518  2.1039
 1333SOL    MW4 5100   1.761   4.918   2.639 -0.1892  0.2897  0.5862
 1334SOL     OW 5101   2.561   5.228   5.280  0.1961 -0.0781 -0.3421
 1334SOL    HW2 5102   2.595   5.269   5.200  1.2708  0.1224  0.2042
 1334SOL    HW3 5103   2.579   5.291   5.349 -0.0850 -0.5574  0.1758
 1334SOL    MW4 5104   2.568   5.241   5.278  0.3008 -0.1149 -0.2017
 1335SOL     OW 5105   1.096   0.062   1.839  0.6969  0.3125 -0.4305
 1335SOL    HW2 5106   1.016   0.113   1.847  0.4632 -0.0968 -0.1210
 1335SOL    HW3 5107   1.121   0.042   1.929  0.3369 -0.8063 -0.5666
 1335SOL    MW4 5108   1.089   0.066   1.852  0.6186  0.1109 -0.4076
 1336SOL     OW 5109   1.621   0.315   5.032  0.5222  0.7815  0.0430
 1336SOL    HW2 5110   1.574   0.392   5.065 -1.4233  0.0327 -0.8408
 1336SOL    HW3 5111   1.574   0.290   4.953 -0.1315 -2.4561  1.2952
 1336SOL    MW4 5112   1.609   0.322   5.026  0.1793  0.2556  0.0916
 1337SOL     OW 5113   4.649   0.794   5.159  0.6605  0.1342  0.1886
 1337SOL    HW2 5114   4.726   0.781   5.215  0.4348 -1.1154  0.2351
 1337SOL    HW3 5115   4.589   0.724   5.185  0.5695 -0.5225 -1.6528
 1337SOL    MW4 5116   4.652   0.783   5.170  0.6187 -0.1173 -0.0482
 1338SOL     OW 5117   1.562   5.677   3.067 -0.4219 -1.0384  0.2571
 1338SOL    HW2 5118   1.513   5.729   3.130 -2.0103 -1.2167 -0.7541
 1338SOL    HW3 5119   1.583   5.738   2.996  1.5131 -0.7911  0.9951
 1338SOL    MW4 5120   1.558   5.692   3.066 -0.3762 -1.0293  0.2210
 1339SOL     OW 5121   4.590   4.517   6.092 -0.0086  0.5338 -0.3112
 1339SOL    HW2 5122   4.595   4.612   6.108  1.2170  0.5394 -0.6524
 1339SOL    HW3 5123   4.679   4.486   6.105 -0.7926 -0.9791  2.0587
 1339SOL    MW4 5124   4.602   4.526   6.096  0.0497  0.3349 -0.0435
 1340SOL     OW 5125   3.489   6.239   0.664  0.2275  0.1054  0.1486
 1340SOL    HW2 5126   3.555   6.216   0.730 -0.3359  2.5037  1.6902
 1340SOL    HW3 5127   3.518   6.324   0.631 -0.2715 -0.4162 -1.7446
 1340SOL    MW4 5128   3.502   6.247   0.668  0.0873  0.3530  0.1022
 1341SOL     OW 5129   6.231   4.672   1.956 -0.1178  0.0994  0.6592
 1341SOL    HW2 5130   6.170   4.695   2.026  0.9750 -0.8877  1.9973
 1341SOL    HW3 5131   6.317   4.692   1.992  0.7499 -3.3893  0.9536
 1341SOL    MW4 5132   6.234   4.677   1.970  0.1409 -0.4911  0.8746
 1342SOL     OW 5133   1.290   2.424   6.209  0.7258 -0.1459  0.1932
 1342SOL    HW2 5134   1.234   2.476   6.152  0.7124  1.3387  1.4873
 1342SOL    HW3 5135   1.261   2.446   6.297  2.7423 -0.0132  0.8710
 1342SOL    MW4 5136   1.279   2.434   6.213  0.9901  0.0674  0.4534
 1343SOL     OW 5137   4.552   0.647   5.505  0.4552 -0.4339 -0.1372
 1343SOL    HW2 5138   4.522   0.629   5.416 -0.7730  2.9613 -0.5443
 1343SOL    HW3 5139   4.617   0.716   5.495  0.3512 -0.0392  1.5783
 1343SOL    MW4 5140   4.557   0.654   5.492  0.2794  0.0661  0.0354
 1344SOL     OW 5141   2.273   4.958   0.847  0.7279  0.0696 -0.2465
 1344SOL    HW2 5142   2.323   4.878   0.862  1.4270  0.2809 -1.3289
 1344SOL    HW3 5143   2.186   4.939   0.881  1.4522 -0.3949  1.4503
 1344SOL    MW4 5144   2.268   4.945   0.854  0.9157  0.0362 -0.1654
 1345SOL     OW 5145   4.850   5.240   0.113  0.2020  0.0716  0.3966
 1345SOL    HW2 5146   4.796   5.247   0.192 -0.3019 -2.3572  0.3583
 1345SOL    HW3 5147   4.921   5.304   0.126  1.6159 -1.9403  4.0833
 1345SOL    MW4 5148   4.852   5.249   0.125  0.3220 -0.5143  0.8780
 1346SOL     OW 5149   5.750   5.112   5.124  0.2108  0.1163 -0.1984
 1346SOL    HW2 5150   5.730   5.200   5.158  1.7353  0.1383  0.7140
 1346SOL    HW3 5151   5.783   5.128   5.035  0.8438  0.5073  0.1035
 1346SOL    MW4 5152   5.751   5.126   5.117  0.4955  0.1708 -0.0382
 1347SOL     OW 5153   2.530   4.063   1.587  0.1745  0.7756 -1.0384
 1347SOL    HW2 5154   2.458   4.124   1.606  0.0561  0.3679 -0.1227
 1347SOL    HW3 5155   2.490   3.976   1.594  0.1370  0.5598 -3.1412
 1347SOL    MW4 5156   2.515   4.059   1.590  0.1539  0.6933 -1.1950
 1348SOL     OW 5157   3.610   3.456   1.228  0.0231 -0.3696  0.3598
 1348SOL    HW2 5158   3.579   3.500   1.308 -1.0828 -1.5562  0.6179
 1348SOL    HW3 5159   3.532   3.412   1.194  0.4873  0.0777 -1.3731
 1348SOL    MW4 5160   3.595   3.456   1.234 -0.0616 -0.4672  0.1652
 1349SOL     OW 5161   3.848   4.682   0.138  0.3748 -0.0441  0.1495
 1349SOL    HW2 5162   3.841   4.617   0.069  1.9964 -0.7592  0.6169
 1349SOL    HW3 5163   3.882   4.634   0.213 -0.0499  1.0004  1.0426
 1349SOL    MW4 5164   3.851   4.667   0.139  0.5327 -0.0006  0.3290
 1350SOL     OW 5165   3.894   5.920   5.085  0.7033  0.6107 -0.1382
 1350SOL    HW2 5166   3.871   6.009   5.111  0.5566  0.2445  1.0512
 1350SOL    HW3 5167   3.904   5.924   4.990  0.0508  1.7428 -0.1688
 1350SOL    MW4 5168   3.892   5.932   5.076  0.5979  0.7118  0.0147
 1351SOL     OW 5169   0.062   1.080   3.985  0.4985  0.4786  0.2074
 1351SOL    HW2 5170   0.104   1.021   4.048 -1.5291 -0.3254  0.8682
 1351SOL    HW3 5171   0.086   1.168   4.015 -0.7034  0.1344  2.3432
 1351SOL    MW4 5172   0.071   1.084   3.997  0.0724  0.3271  0.5763
 1352SOL     OW 5173   2.907   0.054   6.361  0.3555 -0.1287  0.6094
 1352SOL    HW2 5174   2.978   0.003   6.400  0.2104 -0.2934  0.6614
 1352SOL    HW3 5175   2.866  -0.006   6.298  1.0608  0.3787 -0.3507
 1352SOL    MW4 5176   2.911   0.039   6.358  0.4294 -0.0835  0.4896
 1353SOL     OW 5177   3.018   0.817   3.488  0.1242 -0.0744 -0.0794
 1353SOL    HW2 5178   3.055   0.737   3.452 -0.4319 -0.6533  0.6084
 1353SOL    HW3 5179   2.978   0.861   3.413  2.4612  0.7460 -0.9128
 1353SOL    MW4 5180   3.017   0.812   3.473  0.3592 -0.0425 -0.0986
 1354SOL     OW 5181   1.097   3.683   3.590 -0.4057  0.3311 -0.4069
 1354SOL    HW2 5182   1.037   3.657   3.660 -2.0298  1.2572 -1.3910
 1354SOL    HW3 5183   1.149   3.754   3.628  0.7488 -1.0601  0.7415
 1354SOL    MW4 5184   1.096   3.689   3.604 -0.4677  0.2697 -0.3853
 1355SOL     OW 5185   5.339   4.513   4.965 -0.0538 -0.5270 -0.7728
 1355SOL    HW2 5186   5.356   4.594   4.917  0.9608 -0.2941 -0.0417
 1355SOL    HW3 5187   5.417   4.459   4.951  2.0148  0.9542  3.4113
 1355SOL    MW4 5188   5.351   4.516   4.957  0.3530 -0.3009 -0.1243
 1356SOL     OW 5189   1.467   2.855   6.014 -0.0326 -0.7514 -0.0041
 1356SOL    HW2 5190   1.401   2.825   6.076  1.1037 -1.2831  0.9824
 1356SOL    HW3 5191   1.496   2.940   6.050  0.6566 -1.0811  0.2413
 1356SOL    MW4 5192   1.462   2.862   6.027  0.2082 -0.8651  0.1584
 1357SOL     OW 5193   5.539   0.439   5.336 -0.4145 -0.4022  0.3589
 1357SOL    HW2 5194   5.628   0.474   5.335 -1.1809  1.6340  0.5368
 1357SOL    HW3 5195   5.487   0.506   5.379 -2.3784 -0.7010 -1.4059
 1357SOL    MW4 5196   5.544   0.452   5.342 -0.7747 -0.1729  0.1495
 1358SOL     OW 5197   5.194   3.987   2.920  0.2758  0.3524  0.8669
 1358SOL    HW2 5198   5.150   3.947   2.995  1.7681 -1.3477  0.9133
 1358SOL    HW3 5199   5.134   4.054   2.889 -1.0392  0.0517  2.6464
 1358SOL    MW4 5200   5.181   3.990   2.926  0.2992  0.0884  1.1078
 1359SOL     OW 5201   6.001   6.103   6.045  0.1834 -0.3562 -0.5017
 1359SOL    HW2 5202   5.909   6.090   6.068  0.3424 -0.1594  0.2672
 1359SOL    HW3 5203   6.038   6.014   6.044  0.5855 -0.2885  1.8484
 1359SOL    MW4 5204   5.994   6.089   6.048  0.2574 -0.3213 -0.0902
 1360SOL     OW 5205   5.148   0.295   1.812 -0.1725 -0.4998 -0.1494
 1360SOL    HW2 5206   5.074   0.257   1.765 -0.4430  1.0674 -1.1002
 1360SOL    HW3 5207   5.224   0.273   1.759 -0.3182  0.1459 -0.6496
 1360SOL    MW4 5208   5.148   0.287   1.799 -0.2274 -0.2078 -0.3409
 1361SOL     OW 5209   2.720   1.139   4.743 -0.5738 -0.3956 -0.4990
 1361SOL    HW2 5210   2.787   1.135   4.675  0.3332 -0.9521  0.3814
 1361SOL    HW3 5211   2.748   1.212   4.799 -2.1580  1.0575 -1.5549
 1361SOL    MW4 5212   2.733   1.148   4.742 -0.6632 -0.2773 -0.5221
 1362SOL     OW 5213   1.071   3.292   4.885  0.0215  0.3316  0.2130
 1362SOL    HW2 5214   1.014   3.332   4.950  0.3382  0.8863  0.1526
 1362SOL    HW3 5215   1.130   3.235   4.936 -0.9597 -0.7205  0.2193
 1362SOL    MW4 5216   1.071   3.289   4.901 -0.0662  0.2660  0.2058
 1363SOL     OW 5217   6.219   6.004   5.201  0.1745  0.7031  0.2441
 1363SOL    HW2 5218   6.289   5.963   5.251  0.3064  2.5537  1.7058
 1363SOL    HW3 5219   6.264   6.054   5.133  0.0064 -1.5734 -1.6710
 1363SOL    MW4 5220   6.234   6.006   5.199  0.1697  0.6469  0.1843
 1364SOL     OW 5221   6.175   5.644   2.390 -0.2036  0.2092  0.4471
 1364SOL    HW2 5222   6.241   5.707   2.360 -1.0615  2.5482  3.0679
 1364SOL    HW3 5223   6.109   5.645   2.321  0.1450  1.6880  0.0938
 1364SOL    MW4 5224   6.175   5.653   2.377 -0.2708  0.7129  0.7463
 1365SOL     OW 5225   2.745   5.981   1.542  0.0724  0.6197  0.1550
 1365SOL    HW2 5226   2.805   5.908   1.556 -0.0312  0.7571  1.4452
 1365SOL    HW3 5227   2.697   5.989   1.625 -0.8704  1.2914 -0.4319
 1365SOL    MW4 5228   2.746   5.972   1.555 -0.0657  0.7264  0.2478
 1366SOL     OW 5229   1.347   4.064   4.789 -0.1001 -0.2928 -0.3612
 1366SOL    HW2 5230   1.375   4.154   4.777  1.9791 -0.8440 -0.0333
 1366SOL    HW3 5231   1.351   4.050   4.884 -0.6319 -0.6654 -0.3893
 1366SOL    MW4 5232   1.351   4.074   4.800  0.1040 -0.4147 -0.3217
 1367SOL     OW 5233   2.875   5.711   1.931 -0.0728  0.2190 -0.0354
 1367SOL    HW2 5234   2.897   5.799   1.901 -2.8839  0.6378 -1.0828
 1367SOL    HW3 5235   2.940   5.655   1.888  1.4769  1.6795  0.2754
 1367SOL    MW4 5236   2.887   5.715   1.922 -0.2392  0.4670 -0.1326
 1368SOL     OW 5237   1.517   4.519   0.203 -1.1217  0.1714 -0.1464
 1368SOL    HW2 5238   1.545   4.428   0.196 -0.5127  0.3259  0.2254
 1368SOL    HW3 5239   1.583   4.568   0.154 -1.4025  0.4235 -0.2778
 1368SOL    MW4 5240   1.530   4.514   0.195 -1.0784  0.2250 -0.1147
 1369SOL     OW 5241   1.736   0.108   5.674 -0.3605 -0.3232  0.4210
 1369SOL    HW2 5242   1.691   0.189   5.698 -2.2561 -0.8606 -1.0595
 1369SOL    HW3 5243   1.819   0.137   5.637 -1.5137  1.1083 -1.2672
 1369SOL    MW4 5244   1.741   0.122   5.672 -0.7627 -0.2052  0.0029
 1370SOL     OW 5245   3.960   1.798   5.653 -0.0555 -0.6562 -0.0172
 1370SOL    HW2 5246   3.977   1.888   5.683 -0.1460  0.7571 -3.6262
 1370SOL    HW3 5247   4.047   1.759   5.644 -0.0137 -0.9921  1.5291
 1370SOL    MW4 5248   3.974   1.805   5.656 -0.0619 -0.5140 -0.2894
 1371SOL     OW 5249   4.816   1.379   5.335  0.0218  0.1027 -0.3255
 1371SOL    HW2 5250   4.828   1.377   5.240  0.0325 -0.1894 -0.3187
 1371SOL    HW3 5251   4.813   1.287   5.361  2.4946  0.1198  0.2665
 1371SOL    MW4 5252   4.817   1.367   5.326  0.3494  0.0664 -0.2465
 1372SOL     OW 5253   1.658   1.504   2.659  0.5885  0.7017  0.3680
 1372SOL    HW2 5254   1.644   1.595   2.633 -0.6820  0.3022 -0.4627
 1372SOL    HW3 5255   1.711   1.509   2.739  1.4661  2.1165 -0.2567
 1372SOL    MW4 5256   1.663   1.516   2.666  0.5367  0.8356  0.1759
 1373SOL     OW 5257   4.194   0.840   3.567  0.1931  0.0404  0.4121
 1373SOL    HW2 5258   4.190   0.758   3.518  0.9192  0.8950 -1.1546
 1373SOL    HW3 5259   4.103   0.864   3.581 -0.0539  0.2303 -1.3636
 1373SOL    MW4 5260   4.182   0.832   3.563  0.2563  0.1782 -0.0289
 1374SOL     OW 5261   5.114   2.835   5.910  0.2457 -0.0013 -0.2116
 1374SOL    HW2 5262   5.037   2.807   5.861  0.6331  0.0080 -0.8518
 1374SOL    HW3 5263   5.085   2.840   6.001 -0.2851 -0.8172 -0.3214
 1374SOL    MW4 5264   5.100   2.832   5.915  0.2268 -0.1077 -0.3105
 1375SOL     OW 5265   4.066   3.039   1.578  0.2242  0.3011 -0.0589
 1375SOL    HW2 5266   4.071   2.978   1.504 -0.2944  0.9160 -0.6170
 1375SOL    HW3 5267   4.138   3.013   1.635  0.8296  0.0048 -0.9304
 1375SOL    MW4 5268   4.076   3.027   1.576  0.2356  0.3432 -0.2475
 1376SOL     OW 5269   4.729   4.358   0.534  0.0018  0.1158  0.0025
 1376SOL    HW2 5270   4.799   4.302   0.566  0.6338  0.0539 -1.4001
 1376SOL    HW3 5271   4.768   4.405   0.460 -1.2048  0.6731 -0.3113
 1376SOL    MW4 5272   4.743   4.357   0.528 -0.0740  0.1812 -0.2240
 1377SOL     OW 5273   0.094   3.717   6.099 -0.9288 -0.4829  0.6306
 1377SOL    HW2 5274   0.179   3.681   6.076 -0.1523  2.0229 -0.7367
 1377SOL    HW3 5275   0.033   3.676   6.038  0.0703  1.0606 -1.4983
 1377SOL    MW4 5276   0.097   3.706   6.088 -0.6946  0.0513  0.1693
 1378SOL     OW 5277   3.198   3.420   3.160 -0.6742 -0.1828  0.7277
 1378SOL    HW2 5278   3.190   3.504   3.115 -1.4302  0.0659  1.3030
 1378SOL    HW3 5279   3.276   3.429   3.216  0.1039 -0.3969 -0.2989
 1378SOL    MW4 5280   3.207   3.432   3.162 -0.6713 -0.1782  0.6681
 1379SOL     OW 5281   1.881   6.352   4.402  0.2831  0.0363 -0.0848
 1379SOL    HW2 5282   1.835   6.370   4.320 -1.0913 -1.0869  0.3835
 1379SOL    HW3 5283   1.863   6.427   4.457 -1.6561 -0.6826  0.3307
 1379SOL    MW4 5284   1.873   6.364   4.398 -0.1541 -0.2068  0.0318
 1380SOL     OW 5285   5.583   4.379   5.565 -0.0981  0.1078  0.4200
 1380SOL    HW2 5286   5.532   4.303   5.536 -0.3706  0.1388  0.8219
 1380SOL    HW3 5287   5.528   4.454   5.545  0.1023  0.1933  0.1776
 1380SOL    MW4 5288   5.569   4.379   5.558 -0.1076  0.1232  0.4410
 1381SOL     OW 5289   4.436   1.581   2.677 -0.3268  0.3639  0.2809
 1381SOL    HW2 5290   4.353   1.541   2.705  0.0807 -0.0227  0.9371
 1381SOL    HW3 5291   4.480   1.511   2.627 -0.9680  0.9839 -1.2262
 1381SOL    MW4 5292   4.431   1.566   2.674 -0.3576  0.3947  0.1686
 1382SOL     OW 5293   4.696   0.438   3.712 -0.2819  0.4056  0.3777
 1382SOL    HW2 5294   4.701   0.522   3.667 -0.0235 -0.2080 -0.8006
 1382SOL    HW3 5295   4.622   0.446   3.771 -1.5686  0.7742 -1.2246
 1382SOL    MW4 5296   4.687   0.450   3.714 -0.4176  0.3732  0.0108
 1383SOL     OW 5297   6.414   2.321  -0.012 -0.1455 -0.2660 -0.0669
 1383SOL    HW2 5298   6.320   2.326   0.009  0.0021  1.6912  0.2808
 1383SOL    HW3 5299   6.418   2.345  -0.105  0.0866  0.4840  0.1357
 1383SOL    MW4 5300   6.402   2.325  -0.022 -0.0954  0.0912  0.0057
 1384SOL     OW 5301   4.652   0.165   1.823 -0.7438  0.4661 -0.2297
 1384SOL    HW2 5302   4.675   0.258   1.824  1.3960  0.0146 -1.0639
 1384SOL    HW3 5303   4.641   0.144   1.730  2.0006 -0.7256 -0.3961
 1384SOL    MW4 5304   4.654   0.174   1.811 -0.0994  0.2493 -0.3617
 1385SOL     OW 5305   4.334   2.348   5.834 -0.1648 -0.5987  0.2285
 1385SOL    HW2 5306   4.386   2.428   5.833  2.2415 -2.0925 -0.4269
 1385SOL    HW3 5307   4.244   2.379   5.850  0.3525  2.3696 -1.8148
 1385SOL    MW4 5308   4.329   2.363   5.836  0.2209 -0.4042 -0.1276
 1386SOL     OW 5309   1.529   0.144   2.077  0.8585  0.4244 -0.2377
 1386SOL    HW2 5310   1.534   0.212   2.145  1.2016 -2.0316  2.3712
 1386SOL    HW3 5311   1.550   0.190   1.996  2.3515  3.1852  1.5520
 1386SOL    MW4 5312   1.532   0.159   2.076  1.1008  0.4646  0.3426
 1387SOL     OW 5313   5.162   4.705   4.114 -0.1728 -0.6922 -0.0084
 1387SOL    HW2 5314   5.205   4.631   4.070  0.1095 -1.0067  0.7758
 1387SOL    HW3 5315   5.111   4.747   4.045  0.1888 -1.2242 -0.6173
 1387SOL    MW4 5316   5.161   4.701   4.099 -0.0878 -0.8039  0.0147
 1388SOL     OW 5317   2.173   1.401   3.952 -0.0527  0.4491 -0.4177
 1388SOL    HW2 5318   2.173   1.364   3.864 -0.1636 -0.2949 -0.1159
 1388SOL    HW3 5319   2.086   1.378   3.987 -0.0036  0.7230 -0.1122
 1388SOL    MW4 5320   2.161   1.393   3.945 -0.0609  0.3871 -0.3376
 1389SOL     OW 5321   0.368   3.331   1.226 -0.2033  0.6404 -0.0123
 1389SOL    HW2 5322   0.403   3.418   1.211 -1.6523  0.8705 -2.7268
 1389SOL    HW3 5323   0.445   3.277   1.243  0.8657  2.1757  0.2102
 1389SOL    MW4 5324   0.382   3.335   1.226 -0.2535  0.8733 -0.3411
 1390SOL     OW 5325   1.872   0.655   5.458 -0.3792  0.6288  0.0122
 1390SOL    HW2 5326   1.883   0.750   5.455 -1.5707  0.7796 -0.0448
 1390SOL    HW3 5327   1.841   0.637   5.547  3.1576 -0.1407  1.2515
 1390SOL    MW4 5328   1.869   0.665   5.469 -0.0697  0.5472  0.1682
 1391SOL     OW 5329   2.629   4.879   3.537  0.1793 -0.0833 -0.3112
 1391SOL    HW2 5330   2.611   4.897   3.445 -0.0875 -2.6349 -0.8289
 1391SOL    HW3 5331   2.613   4.785   3.547  0.3394  0.0844  2.3150
 1391SOL    MW4 5332   2.624   4.869   3.526  0.1652 -0.3979 -0.0330
 1392SOL     OW 5333   2.739   1.779   4.851  0.3905 -0.0977 -0.0042
 1392SOL    HW2 5334   2.767   1.699   4.807 -0.2226 -0.6251  0.5539
 1392SOL    HW3 5335   2.783   1.849   4.802  2.8712 -0.8688  0.9518
 1392SOL    MW4 5336   2.749   1.778   4.838  0.6369 -0.2690  0.1956
 1393SOL     OW 5337   4.984   2.761   5.244  0.0564  0.4806 -0.0079
 1393SOL    HW2 5338   5.019   2.801   5.165  0.5560  0.1984  0.0660
 1393SOL    HW3 5339   4.914   2.820   5.272 -0.6217  0.1908 -1.0646
 1393SOL    MW4 5340   4.979   2.774   5.237  0.0329  0.4051 -0.1375
 1394SOL     OW 5341   0.606   0.744   0.664  0.2827  0.2986  0.0262
 1394SOL    HW2 5342   0.644   0.798   0.595 -0.2947 -0.0524 -0.5719
 1394SOL    HW3 5343   0.612   0.654   0.631 -1.5367  0.2693 -0.3452
 1394SOL    MW4 5344   0.612   0.739   0.651 -0.0335  0.2484 -0.1017
 1395SOL     OW 5345   5.609   2.314   2.845 -0.0806 -0.3905  0.4740
 1395SOL    HW2 5346   5.675   2.325   2.777  0.9431  1.3044  1.6447
 1395SOL    HW3 5347   5.646   2.248   2.904 -0.9203 -1.7807 -0.5113
 1395SOL    MW4 5348   5.623   2.307   2.844 -0.0563 -0.3503  0.4984
 1396SOL     OW 5349   5.829   0.482   6.012 -0.3714 -0.0558  0.1197
 1396SOL    HW2 5350   5.876   0.403   6.040  0.3629  0.6479  0.9305
 1396SOL    HW3 5351   5.820   0.472   5.918  1.0204 -0.4303 -0.0060
 1396SOL    MW4 5352   5.834   0.470   6.003 -0.0909 -0.0124  0.2101
 1397SOL     OW 5353   2.639   5.630   1.549  0.0392 -0.1118 -0.4516
 1397SOL    HW2 5354   2.692   5.678   1.486  1.2588 -1.3864 -0.4460
 1397SOL    HW3 5355   2.580   5.577   1.496  1.2808 -1.4260 -0.5886
 1397SOL    MW4 5356   2.638   5.630   1.534  0.3639 -0.4533 -0.4689
 1398SOL     OW 5357   6.337   0.599   2.469 -0.5379 -0.3732 -0.2986
 1398SOL    HW2 5358   6.383   0.641   2.396  0.6861 -0.3559  0.4447
 1398SOL    HW3 5359   6.296   0.522   2.431 -2.4479  1.1888 -1.5974
 1398SOL    MW4 5360   6.338   0.595   2.454 -0.6284 -0.1648 -0.3719
 1399SOL     OW 5361   5.215   1.407   5.304  0.0726  0.2156  0.0750
 1399SOL    HW2 5362   5.254   1.436   5.387  0.5911  1.0535 -0.4388
 1399SOL    HW3 5363   5.148   1.473   5.285 -0.5784 -0.3978  0.1996
 1399SOL    MW4 5364   5.211   1.420   5.312  0.0551  0.2452  0.0236
 1400SOL     OW 5365   4.957   2.132   4.136 -0.1608  0.1929 -0.0652
 1400SOL    HW2 5366   4.871   2.124   4.177 -0.6196 -0.9884 -1.1952
 1400SOL    HW3 5367   4.939   2.130   4.042  1.1679 -1.1329 -0.3275
 1400SOL    MW4 5368   4.943   2.131   4.129 -0.0460 -0.1379 -0.2489
 1401SOL     OW 5369   4.864   2.753   5.801 -0.8091  0.1282 -0.2080
 1401SOL    HW2 5370   4.840   2.820   5.737 -0.5914 -0.4251 -0.8828
 1401SOL    HW3 5371   4.862   2.671   5.752 -0.8415 -0.3355  0.5516
 1401SOL    MW4 5372   4.861   2.751   5.786 -0.7846 -0.0060 -0.1968
 1402SOL     OW 5373   3.342   6.045   3.762 -0.1612 -0.1235  0.6167
 1402SOL    HW2 5374   3.367   6.004   3.845 -0.4880 -0.6472  0.4607
 1402SOL    HW3 5375   3.394   5.998   3.696  0.1081  0.3003  0.5275
 1402SOL    MW4 5376   3.353   6.033   3.764 -0.1688 -0.1367  0.5843
 1403SOL     OW 5377   4.056   5.611   1.332 -0.0340  0.1791 -0.0560
 1403SOL    HW2 5378   3.991   5.542   1.346 -0.1207  0.6390  2.2519
 1403SOL    HW3 5379   4.007   5.693   1.344  0.8342  0.5433  1.2380
 1403SOL    MW4 5380   4.041   5.613   1.336  0.0691  0.2878  0.4192
 1404SOL     OW 5381   4.547   0.045   0.815 -0.0240 -0.5677 -0.4438
 1404SOL    HW2 5382   4.470   0.024   0.868 -0.4595 -0.1415 -0.8914
 1404SOL    HW3 5383   4.559   0.139   0.826  1.1610 -0.8057  0.5640
 1404SOL    MW4 5384   4.538   0.055   0.823  0.0749 -0.5429 -0.3699
 1405SOL     OW 5385   4.874   0.718   1.971 -0.2401  0.2157  0.3795
 1405SOL    HW2 5386   4.913   0.652   1.913 -0.8098  1.1293 -1.0820
 1405SOL    HW3 5387   4.829   0.667   2.038  0.4416 -0.8668  0.0460
 1405SOL    MW4 5388   4.873   0.702   1.972 -0.2254  0.1934  0.1427
 1406SOL     OW 5389   0.439   6.225   4.050  0.0384 -0.0199 -0.0509
 1406SOL    HW2 5390   0.353   6.225   4.008 -0.2447  1.6442  0.4616
 1406SOL    HW3 5391   0.467   6.134   4.047 -0.8994 -0.2888 -1.9213
 1406SOL    MW4 5392   0.431   6.213   4.044 -0.1227  0.1642 -0.2301
 1407SOL     OW 5393   1.644   4.561   3.759 -0.2829  0.3428  0.1609
 1407SOL    HW2 5394   1.727   4.607   3.744 -0.4790  0.0143 -2.2798
 1407SOL    HW3 5395   1.667   4.469   3.753 -0.5558  0.2061  1.1444
 1407SOL    MW4 5396   1.658   4.555   3.756 -0.3447  0.2814 -0.0314
 1408SOL     OW 5397   4.052   5.297   0.893  0.1999 -0.4761  0.1783
 1408SOL    HW2 5398   3.999   5.222   0.865 -0.3072  0.0050 -0.1513
 1408SOL    HW3 5399   4.109   5.261   0.962 -0.4276 -1.0369  0.4123
 1408SOL    MW4 5400   4.053   5.282   0.899  0.0502 -0.4866  0.1657
 1409SOL     OW 5401   0.309   1.556   2.398 -0.0395  0.4974  0.2914
 1409SOL    HW2 5402   0.278   1.582   2.484 -0.8048 -1.2666  0.5902
 1409SOL    HW3 5403   0.247   1.597   2.337 -0.0143  1.0312  0.6217
 1409SOL    MW4 5404   0.297   1.565   2.401 -0.1371  0.3351  0.3744
 1410SOL     OW 5405   3.368   2.038   5.855 -0.4801  0.2803 -0.3392
 1410SOL    HW2 5406   3.326   1.997   5.931 -1.0238 -0.5156 -1.0477
 1410SOL    HW3 5407   3.363   1.971   5.786  0.0591  0.9628 -1.0555
 1410SOL    MW4 5408   3.362   2.024   5.856 -0.4807  0.2653 -0.5272
 1411SOL     OW 5409   0.012   1.966   1.748  0.3114  0.8750 -0.1248
 1411SOL    HW2 5410  -0.074   2.008   1.751 -1.3281 -2.2144  0.0573
 1411SOL    HW3 5411   0.033   1.949   1.840 -0.0308 -0.4386 -0.2718
 1411SOL    MW4 5412   0.003   1.970   1.760  0.0500  0.2941 -0.1202
 1412SOL     OW 5413   0.444   0.834   4.183 -0.1318  0.2874  0.5290
 1412SOL    HW2 5414   0.465   0.764   4.244  0.2851  1.2097  1.4868
 1412SOL    HW3 5415   0.509   0.902   4.201  1.4147 -0.2540 -2.4902
 1412SOL    MW4 5416   0.455   0.834   4.194  0.1272  0.3377  0.2570
 1413SOL     OW 5417   3.149   1.193   1.607  0.1309  0.1152  0.4522
 1413SOL    HW2 5418   3.105   1.220   1.687  0.8446  0.1546  0.8394
 1413SOL    HW3 5419   3.240   1.222   1.619  0.3775 -0.4176 -0.1106
 1413SOL    MW4 5420   3.155   1.201   1.619  0.2576  0.0501  0.4290
 1414SOL     OW 5421   1.313   0.687   6.262 -0.1940 -0.6639 -0.6388
 1414SOL    HW2 5422   1.248   0.622   6.235  0.3954 -1.5038 -0.0741
 1414SOL    HW3 5423   1.275   0.727   6.341 -0.3129 -0.6955 -0.6801
 1414SOL    MW4 5424   1.299   0.684   6.269 -0.1319 -0.7789 -0.5698
 1415SOL     OW 5425   3.003   3.022   4.158 -0.4229  0.3845 -0.3728
 1415SOL    HW2 5426   3.065   2.958   4.123 -0.0665 -0.1376  1.1480
 1415SOL    HW3 5427   2.918   2.995   4.122 -0.2001 -0.6611 -0.1507
 1415SOL    MW4 5428   3.000   3.010   4.148 -0.3465  0.1777 -0.1429
 1416SOL     OW 5429   4.394   4.760   3.755  0.0691 -1.2856 -0.4008
 1416SOL    HW2 5430   4.337   4.835   3.774  2.6461  0.4183  1.1866
 1416SOL    HW3 5431   4.448   4.789   3.682  1.4419 -1.3127  0.5566
 1416SOL    MW4 5432   4.394   4.774   3.748  0.5902 -1.0644 -0.0651
 1417SOL     OW 5433   2.427   2.747   0.999 -0.1402 -0.1714 -0.6611
 1417SOL    HW2 5434   2.402   2.681   1.063 -1.0699 -0.4018 -1.2408
 1417SOL    HW3 5435   2.374   2.727   0.922  1.1693 -0.1015 -1.6297
 1417SOL    MW4 5436   2.417   2.735   0.997 -0.0901 -0.1925 -0.8654
 1418SOL     OW 5437   3.560   4.970   1.681  0.4012  0.2614  0.1759
 1418SOL    HW2 5438   3.566   4.876   1.696  1.6216  0.1585 -0.7677
 1418SOL    HW3 5439   3.500   5.002   1.748 -0.3736 -1.2458  0.2426
 1418SOL    MW4 5440   3.553   4.962   1.692  0.4600  0.0490  0.0602
 1419SOL     OW 5441   4.168   6.371   5.651  0.2745  0.2454 -0.4951
 1419SOL    HW2 5442   4.190   6.406   5.565 -1.1398  3.0549  0.1645
 1419SOL    HW3 5443   4.087   6.321   5.636  0.8342 -0.5256 -1.0112
 1419SOL    MW4 5444   4.160   6.369   5.637  0.1618  0.5143 -0.4762
 1420SOL     OW 5445   3.847   1.454   2.365 -0.0509  0.3130 -0.0852
 1420SOL    HW2 5446   3.906   1.458   2.289  0.5544  1.2581  0.4131
 1420SOL    HW3 5447   3.783   1.387   2.342  0.9405 -0.4129 -0.8460
 1420SOL    MW4 5448   3.846   1.445   2.352  0.1597  0.3419 -0.1199
 1421SOL     OW 5449   0.917   3.936   0.671  0.0961 -0.0759  0.0563
 1421SOL    HW2 5450   0.974   3.998   0.626 -0.7646  1.9578  1.5691
 1421SOL    HW3 5451   0.832   3.981   0.676 -0.8939 -1.8611  0.2802
 1421SOL    MW4 5452   0.913   3.950   0.666 -0.1480 -0.0431  0.2854
 1422SOL     OW 5453   2.468   4.702   6.133 -0.0058 -0.3579  0.6374
 1422SOL    HW2 5454   2.540   4.653   6.092 -1.8039 -2.0452 -0.6681
 1422SOL    HW3 5455   2.447   4.652   6.212 -0.4140 -0.4687  0.4616
 1422SOL    MW4 5456   2.475   4.689   6.138 -0.2969 -0.5951  0.4420
 1423SOL     OW 5457   4.383   2.827   3.637  0.0487  0.0704  0.6334
 1423SOL    HW2 5458   4.442   2.754   3.653  0.1271  0.2257  1.0630
 1423SOL    HW3 5459   4.336   2.839   3.720 -1.1196 -0.5284  0.0909
 1423SOL    MW4 5460   4.384   2.819   3.650 -0.0951  0.0119  0.6185
 1424SOL     OW 5461   1.152   1.163   4.941 -0.1907  0.3050 -0.4280
 1424SOL    HW2 5462   1.193   1.247   4.962  1.3467 -0.5827  0.3067
 1424SOL    HW3 5463   1.201   1.099   4.993 -2.2111 -0.9066  0.1103
 1424SOL    MW4 5464   1.163   1.166   4.951 -0.2544  0.0280 -0.2601
 1425SOL     OW 5465   6.403   4.048   5.046  0.1041 -0.0741 -0.4976
 1425SOL    HW2 5466   6.366   4.020   5.130  0.6512 -0.6098 -0.4264
 1425SOL    HW3 5467   6.471   4.111   5.069  1.5298 -1.5701 -0.3822
 1425SOL    MW4 5468   6.407   4.053   5.060  0.3644 -0.3421 -0.4730
 1426SOL     OW 5469   3.699   4.582   5.065  0.6187  0.1051 -0.8703
 1426SOL    HW2 5470   3.623   4.580   5.007 -1.4373 -1.7175  1.6564
 1426SOL    HW3 5471   3.737   4.494   5.056  0.4528 -0.0954  0.2592
 1426SOL    MW4 5472   3.694   4.570   5.056  0.3255 -0.1618 -0.3879
 1427SOL     OW 5473   5.499   0.344   0.589 -0.0499 -0.0393  0.6561
 1427SOL    HW2 5474   5.449   0.384   0.660  0.9399  0.6608  0.9805
 1427SOL    HW3 5475   5.442   0.352   0.512 -0.0641  1.6257  0.7994
 1427SOL    MW4 5476   5.485   0.350   0.588  0.0788  0.2727  0.7178
 1428SOL     OW 5477   2.804   1.175   4.046  1.0196 -0.4410  0.6422
 1428SOL    HW2 5478   2.800   1.081   4.030  1.2539 -0.5266  1.0559
 1428SOL    HW3 5479   2.728   1.211   4.000  1.1697 -0.7750  0.1248
 1428SOL    MW4 5480   2.794   1.167   4.038  1.0703 -0.4964  0.6285
 1429SOL     OW 5481   6.154   4.555   6.301 -0.2131 -0.3051 -0.6076
 1429SOL    HW2 5482   6.102   4.477   6.282 -1.8588  0.3977  0.6782
 1429SOL    HW3 5483   6.143   4.569   6.395 -0.7334  1.9619 -0.9279
 1429SOL    MW4 5484   6.146   4.547   6.311 -0.4989  0.0867 -0.4802
 1430SOL     OW 5485   4.677   0.009   2.038  0.0412  0.2560 -0.0561
 1430SOL    HW2 5486   4.672   0.068   1.963 -2.5762  0.1126 -0.0650
 1430SOL    HW3 5487   4.592   0.015   2.080  0.1922 -2.3658  0.8376
 1430SOL    MW4 5488   4.665   0.017   2.033 -0.2842 -0.1088  0.0606
 1431SOL     OW 5489   3.433   6.201   5.731  0.3288 -0.1081  0.2798
 1431SOL    HW2 5490   3.436   6.152   5.814 -0.3320 -0.6568 -0.0133
 1431SOL    HW3 5491   3.359   6.261   5.741  2.8419  3.0908  1.8310
 1431SOL    MW4 5492   3.424   6.202   5.743  0.5731  0.2415  0.4458
 1432SOL     OW 5493   5.622   6.150   3.621 -0.2331 -0.2891  0.1667
 1432SOL    HW2 5494   5.689   6.201   3.577 -1.0386  0.4940 -0.1913
 1432SOL    HW3 5495   5.669   6.101   3.689  0.4761  1.6182  1.1422
 1432SOL    MW4 5496   5.637   6.150   3.624 -0.2458  0.0659  0.2482
 1433SOL     OW 5497   1.713   4.348   4.431 -0.5791 -0.2005  0.4570
 1433SOL    HW2 5498   1.774   4.299   4.375 -2.8152 -0.4068 -2.0068
 1433SOL    HW3 5499   1.741   4.439   4.425 -0.0888 -0.3861 -0.0687
 1433SOL    MW4 5500   1.724   4.353   4.423 -0.8095 -0.2522  0.0626
 1434SOL     OW 5501   6.379   0.757   1.656 -0.1042  0.0440 -0.1215
 1434SOL    HW2 5502   6.393   0.812   1.578 -1.6678  0.7415  0.0299
 1434SOL    HW3 5503   6.398   0.815   1.730 -0.3571 -0.0577  0.0244
 1434SOL    MW4 5504   6.383   0.772   1.655 -0.3439  0.1226 -0.0823
 1435SOL     OW 5505   3.541   5.662   5.019 -0.2667 -0.2462 -0.5027
 1435SOL    HW2 5506   3.615   5.673   4.958 -1.6927  0.5449 -2.1911
 1435SOL    HW3 5507   3.509   5.574   5.001  0.4911 -0.7652  0.5566
 1435SOL    MW4 5508   3.547   5.652   5.008 -0.3549 -0.2103 -0.5857
 1436SOL     OW 5509   1.118   0.488   0.817  0.7198 -0.3729 -0.1691
 1436SOL    HW2 5510   1.058   0.413   0.823 -0.5384  0.4463 -1.5644
 1436SOL    HW3 5511   1.177   0.478   0.891  0.7672 -2.8915 -0.4609
 1436SOL    MW4 5512   1.118   0.477   0.827  0.5600 -0.5971 -0.3917
 1437SOL     OW 5513   0.269   4.002   6.346 -0.2446  0.2170 -0.5433
 1437SOL    HW2 5514   0.344   3.973   6.294  0.2054  0.5443 -0.0803
 1437SOL    HW3 5515   0.283   3.963   6.432 -1.6983 -1.4801 -1.0140
 1437SOL    MW4 5516   0.281   3.993   6.350 -0.3770  0.0363 -0.5443
 1438SOL     OW 5517   1.802   1.923   5.382 -0.4447 -0.5933 -0.0228
 1438SOL    HW2 5518   1.717   1.953   5.350 -0.5818  1.2817  1.9461
 1438SOL    HW3 5519   1.861   1.997   5.369  0.0200 -0.5826  1.8875
 1438SOL    MW4 5520   1.799   1.936   5.376 -0.4015 -0.3445  0.4890
 1439SOL     OW 5521   0.125   2.244   5.084  0.0517  0.0470 -0.5810
 1439SOL    HW2 5522   0.172   2.292   5.152  0.0131 -0.8295  0.0973
 1439SOL    HW3 5523   0.175   2.163   5.074 -1.6441 -1.2391  0.6817
 1439SOL    MW4 5524   0.137   2.239   5.092 -0.1771 -0.2384 -0.3249
 1440SOL     OW 5525   4.480   4.569   5.696  0.3733  0.5511 -0.8131
 1440SOL    HW2 5526   4.465   4.655   5.657 -0.9837  0.7325  0.0335
 1440SOL    HW3 5527   4.409   4.514   5.662 -0.2717  0.4616  0.5938
 1440SOL    MW4 5528   4.469   4.573   5.686  0.1092  0.5632 -0.5158
 1441SOL     OW 5529   4.812   0.677   3.638 -0.0536  0.2220 -0.3366
 1441SOL    HW2 5530   4.887   0.618   3.644  0.5327  1.0416  0.8278
 1441SOL    HW3 5531   4.829   0.730   3.560 -0.1892 -0.5908 -0.9317
 1441SOL    MW4 5532   4.824   0.676   3.629  0.0058  0.2229 -0.2615
 1442SOL     OW 5533   3.578   2.587  -0.026 -0.5761 -0.5893  0.2861
 1442SOL    HW2 5534   3.529   2.516   0.016  0.1016 -0.8300  0.6904
 1442SOL    HW3 5535   3.542   2.667   0.011 -0.3291 -0.7820  0.9655
 1442SOL    MW4 5536   3.567   2.588  -0.016 -0.4541 -0.6465  0.4291
 1443SOL     OW 5537   0.241   0.881   1.683  0.5266  0.2190  0.6806
 1443SOL    HW2 5538   0.288   0.854   1.762 -0.3164 -0.6822  0.8874
 1443SOL    HW3 5539   0.242   0.804   1.627 -1.6272 -0.1998  1.1316
 1443SOL    MW4 5540   0.248   0.867   1.686  0.1312  0.0448  0.7674
 1444SOL     OW 5541   3.592   5.153   1.255 -0.8350 -0.3071 -0.1803
 1444SOL    HW2 5542   3.519   5.137   1.315  1.3049 -2.3155  2.1040
 1444SOL    HW3 5543   3.603   5.071   1.208 -0.4567  0.2093 -1.0159
 1444SOL    MW4 5544   3.584   5.140   1.257 -0.5027 -0.5039  0.0109
 1445SOL     OW 5545   6.084   5.362   0.425  0.5775  0.0888  0.4183
 1445SOL    HW2 5546   6.024   5.354   0.352 -0.9798 -3.4374  1.8241
 1445SOL    HW3 5547   6.065   5.448   0.463 -0.8806  0.6207 -1.3661
 1445SOL    MW4 5548   6.074   5.372   0.421  0.1796 -0.3063  0.3683
 1446SOL     OW 5549   5.947   1.216   1.163 -0.1837 -0.2263 -0.2624
 1446SOL    HW2 5550   5.983   1.304   1.155  0.0327 -0.4603 -2.4884
 1446SOL    HW3 5551   5.896   1.203   1.083  0.9755 -2.6158 -0.7096
 1446SOL    MW4 5552   5.945   1.226   1.152 -0.0022 -0.5724 -0.6151
 1447SOL     OW 5553   5.363   5.913   3.019 -0.0364  0.5686  0.7213
 1447SOL    HW2 5554   5.390   5.832   3.063  0.6880 -1.2480 -2.7408
 1447SOL    HW3 5555   5.444   5.964   3.011 -0.0487  0.6239  0.9451
 1447SOL    MW4 5556   5.377   5.909   3.024  0.0576  0.3362  0.2941
 1448SOL     OW 5557   5.788   1.820   0.580 -0.5328 -0.2686  0.4188
 1448SOL    HW2 5558   5.709   1.807   0.633  0.3774 -0.2390  1.8532
 1448SOL    HW3 5559   5.804   1.915   0.583 -0.4238 -0.2789  0.1793
 1448SOL    MW4 5560   5.780   1.831   0.588 -0.3984 -0.2661  0.5764
 1449SOL     OW 5561   3.100   5.380   3.445 -0.2065 -0.4599  0.1872
 1449SOL    HW2 5562   3.027   5.430   3.481  0.4956  0.4266  0.4304
 1449SOL    HW3 5563   3.125   5.427   3.366  2.2727  1.3185  1.8808
 1449SOL    MW4 5564   3.094   5.393   3.439  0.2132 -0.1083  0.4427
 1450SOL     OW 5565   1.751   6.333   5.300  0.1984 -0.0170  0.3743
 1450SOL    HW2 5566   1.756   6.269   5.229  1.4385 -0.6412  0.9869
 1450SOL    HW3 5567   1.707   6.408   5.261  1.3166 -0.1394 -1.2376
 1450SOL    MW4 5568   1.746   6.334   5.285  0.5096 -0.1155  0.2425
 1451SOL     OW 5569   1.350   0.786   1.330  0.1926  0.3647 -0.6928
 1451SOL    HW2 5570   1.408   0.795   1.407  0.1088  1.2134 -0.7196
 1451SOL    HW3 5571   1.333   0.692   1.324  1.5895  0.0864 -0.6910
 1451SOL    MW4 5572   1.356   0.774   1.340  0.3658  0.4399 -0.6961
 1452SOL     OW 5573   4.709   4.608   1.366  0.0976 -0.2239 -0.1099
 1452SOL    HW2 5574   4.644   4.611   1.296 -0.3796  0.7964  0.3489
 1452SOL    HW3 5575   4.682   4.534   1.421  0.6485 -1.2143 -1.1440
 1452SOL    MW4 5576   4.696   4.599   1.364  0.1073 -0.2199 -0.1858
 1453SOL     OW 5577   5.143   1.585   6.324 -0.0717 -0.5252 -0.7521
 1453SOL    HW2 5578   5.229   1.555   6.294  1.0087 -0.8884  2.3754
 1453SOL    HW3 5579   5.089   1.506   6.326  0.9112 -1.2199  1.4593
 1453SOL    MW4 5580   5.147   1.570   6.320  0.2005 -0.6648 -0.0477
 1454SOL     OW 5581   5.551   0.586   3.477  0.0456  0.2845 -0.5892
 1454SOL    HW2 5582   5.632   0.638   3.480  0.2999  0.0066 -2.0730
 1454SOL    HW3 5583   5.559   0.534   3.398 -1.3421 -0.1814 -0.4416
 1454SOL    MW4 5584   5.563   0.586   3.467 -0.1040  0.1864 -0.7655
 1455SOL     OW 5585   4.104   4.552   0.744 -0.1256  0.4213 -0.1736
 1455SOL    HW2 5586   4.033   4.604   0.705  0.9820  2.8268  0.7808
 1455SOL    HW3 5587   4.072   4.530   0.832 -0.3025  0.1152 -0.3127
 1455SOL    MW4 5588   4.090   4.556   0.751 -0.0028  0.6983 -0.0660
 1456SOL     OW 5589   0.946   0.343   2.594 -0.5106 -0.0144  0.4900
 1456SOL    HW2 5590   1.021   0.387   2.634 -1.7451  0.7592  2.0537
 1456SOL    HW3 5591   0.954   0.252   2.621 -0.5274  0.2152  1.2850
 1456SOL    MW4 5592   0.957   0.337   2.603 -0.6757  0.1180  0.8012
 1457SOL     OW 5593   1.443   0.791   5.249  0.4191 -0.7772  0.3175
 1457SOL    HW2 5594   1.381   0.719   5.255 -0.6379  0.0019 -0.6384
 1457SOL    HW3 5595   1.518   0.754   5.203  0.2285 -1.4674  0.5488
 1457SOL    MW4 5596   1.444   0.777   5.243  0.2545 -0.7655  0.2219
 1458SOL     OW 5597   2.544   4.348   3.712  0.5779  0.1651  0.2006
 1458SOL    HW2 5598   2.528   4.264   3.755 -1.7524  0.7158  0.5508
 1458SOL    HW3 5599   2.457   4.378   3.685  1.1371  3.0431  1.2436
 1458SOL    MW4 5600   2.531   4.341   3.714  0.3442  0.6175  0.3844
 1459SOL     OW 5601   5.608   3.870   3.070  0.5184  0.0860 -0.1499
 1459SOL    HW2 5602   5.521   3.909   3.079  1.1478  1.1052  2.6197
 1459SOL    HW3 5603   5.667   3.940   3.097  2.3490 -0.2814 -2.8000
 1459SOL    MW4 5604   5.604   3.885   3.074  0.8430  0.1720 -0.1341
 1460SOL     OW 5605   1.999   0.183   5.609  0.3523 -0.0596  0.2575
 1460SOL    HW2 5606   2.067   0.234   5.565 -0.5332  0.8488 -0.1049
 1460SOL    HW3 5607   2.044   0.139   5.681  1.3390  0.4378 -0.0390
 1460SOL    MW4 5608   2.014   0.184   5.613  0.3656  0.1258  0.1706
 1461SOL     OW 5609   2.664   5.961   3.986 -0.2730 -0.2155  0.2821
 1461SOL    HW2 5610   2.639   6.052   3.999 -1.9522 -0.5223 -0.5437
 1461SOL    HW3 5611   2.615   5.933   3.908  0.6718 -1.6507  0.1621
 1461SOL    MW4 5612   2.654   5.969   3.977 -0.3699 -0.4453  0.1573
 1462SOL     OW 5613   0.299   2.219   4.391 -0.4316 -0.1824  0.6155
 1462SOL    HW2 5614   0.274   2.259   4.474 -3.0880 -0.2663 -0.0478
 1462SOL    HW3 5615   0.302   2.293   4.329  0.5811 -0.2493  0.5699
 1462SOL    MW4 5616   0.296   2.234   4.394 -0.6484 -0.2023  0.5220
 1463SOL     OW 5617   3.143   5.824   6.096  0.5745 -0.1234 -0.4734
 1463SOL    HW2 5618   3.223   5.865   6.065  2.8540 -3.1572  0.9552
 1463SOL    HW3 5619   3.121   5.872   6.176  0.4336  1.2230 -1.2854
 1463SOL    MW4 5620   3.150   5.836   6.102  0.8566 -0.3460 -0.3920
 1464SOL     OW 5621   4.654   3.018   3.213  0.0633  0.6921 -0.4610
 1464SOL    HW2 5622   4.582   3.002   3.274  0.6413  0.6653  0.2242
 1464SOL    HW3 5623   4.698   3.096   3.247  1.3473 -0.2294  0.0912
 1464SOL    MW4 5624   4.651   3.026   3.226  0.3090  0.5670 -0.2977
 1465SOL     OW 5625   6.299   4.050   5.291 -0.6347  0.4348  0.3443
 1465SOL    HW2 5626   6.345   4.027   5.372  0.1366 -1.2246 -0.5077
 1465SOL    HW3 5627   6.212   4.079   5.320  0.0466  1.0793  1.8249
 1465SOL    MW4 5628   6.293   4.051   5.306 -0.4430  0.3009  0.4273
 1466SOL     OW 5629   1.607   5.243   1.745 -0.0804  0.2979 -0.3356
 1466SOL    HW2 5630   1.678   5.179   1.758 -0.0306  0.4239  0.0206
 1466SOL    HW3 5631   1.643   5.325   1.776 -1.2187 -0.0880  2.2718
 1466SOL    MW4 5632   1.621   5.245   1.751 -0.2240  0.2636  0.0554
 1467SOL     OW 5633   5.468   1.439   4.692  0.6618  0.0132  0.3331
 1467SOL    HW2 5634   5.435   1.499   4.759  1.1270 -0.1878  0.7509
 1467SOL    HW3 5635   5.547   1.401   4.731 -0.2368 -1.7389  0.5597
 1467SOL    MW4 5636   5.474   1.442   4.706  0.6046 -0.2445  0.4181
 1468SOL     OW 5637   5.570   2.485   4.717  0.7089 -0.0820 -0.0576
 1468SOL    HW2 5638   5.661   2.478   4.690  1.0949  0.3810  1.0813
 1468SOL    HW3 5639   5.536   2.396   4.711  1.2275 -0.2562 -0.4715
 1468SOL    MW4 5640   5.577   2.472   4.712  0.8282 -0.0439  0.0380
 1469SOL     OW 5641   5.525   0.153   4.440 -0.0743  0.2457  0.4417
 1469SOL    HW2 5642   5.610   0.121   4.470 -0.8459 -2.2593  0.2132
 1469SOL    HW3 5643   5.483   0.076   4.401 -1.1621  2.1332 -2.4527
 1469SOL    MW4 5644   5.530   0.138   4.439 -0.3196  0.1642  0.0297
 1470SOL     OW 5645   5.600   2.049   4.068 -0.1956 -0.1373 -0.1615
 1470SOL    HW2 5646   5.532   2.108   4.101 -1.7670 -1.8281 -0.1884
 1470SOL    HW3 5647   5.567   2.021   3.982  0.3863 -1.2019 -0.0517
 1470SOL    MW4 5648   5.586   2.053   4.061 -0.3262 -0.5008 -0.1506
 1471SOL     OW 5649   5.524   0.991   5.526  0.8640  0.1033  0.1324
 1471SOL    HW2 5650   5.518   1.085   5.511  0.4728  0.5831  2.8484
 1471SOL    HW3 5651   5.455   0.954   5.471 -1.1589  1.7483  1.4103
 1471SOL    MW4 5652   5.515   0.999   5.517  0.5455  0.3836  0.6593
 1472SOL     OW 5653   6.379   0.035   2.405 -0.3614  0.0142 -0.1965
 1472SOL    HW2 5654   6.421   0.103   2.456 -0.6297  0.2726 -0.3181
 1472SOL    HW3 5655   6.353  -0.031   2.470  2.4705 -1.3995 -0.3340
 1472SOL    MW4 5656   6.381   0.035   2.420 -0.0231 -0.1382 -0.2307
 1473SOL     OW 5657   5.017   3.674   3.409 -0.2997  0.2757 -0.5831
 1473SOL    HW2 5658   4.972   3.599   3.369 -0.1852  0.9133 -1.9738
 1473SOL    HW3 5659   4.948   3.739   3.423 -0.4259 -0.1221  0.7683
 1473SOL    MW4 5660   5.002   3.672   3.406 -0.3012  0.3073 -0.5883
 1474SOL     OW 5661   4.318   5.298   2.732 -0.7017  0.1074  0.2297
 1474SOL    HW2 5662   4.244   5.238   2.740 -1.2208  0.9077  2.1262
 1474SOL    HW3 5663   4.285   5.381   2.764  0.3787  1.1047 -1.1036
 1474SOL    MW4 5664   4.304   5.301   2.737 -0.6277  0.3446  0.3040
 1475SOL     OW 5665   5.067   2.926   0.857 -0.5886  0.5866  0.3812
 1475SOL    HW2 5666   5.057   2.959   0.946 -1.7903  1.1033  0.0670
 1475SOL    HW3 5667   5.136   2.980   0.819 -0.4774  0.7485  0.8112
 1475SOL    MW4 5668   5.075   2.937   0.864 -0.7325  0.6762  0.3965
 1476SOL     OW 5669   5.245   2.442   4.884 -0.6154  0.2161  0.3102
 1476SOL    HW2 5670   5.295   2.374   4.839  1.4606  1.2560  0.9276
 1476SOL    HW3 5671   5.208   2.398   4.961  0.3066 -0.3218  0.4539
 1476SOL    MW4 5672   5.247   2.427   4.889 -0.2199  0.2823  0.4106
 1477SOL     OW 5673   0.979   4.007   2.174  0.1580 -0.2617  0.4108
 1477SOL    HW2 5674   0.983   4.035   2.265 -1.2921 -1.6531  0.9445
 1477SOL    HW3 5675   1.042   3.935   2.168  2.9391  2.0827 -0.6467
 1477SOL    MW4 5676   0.988   4.001   2.185  0.3336 -0.1360  0.3417
 1478SOL     OW 5677   4.312   4.468   2.918  0.3343 -0.3760 -0.0906
 1478SOL    HW2 5678   4.307   4.550   2.968 -0.5624 -0.4187 -0.1019
 1478SOL    HW3 5679   4.352   4.493   2.835  0.2493  0.0095 -0.0170
 1478SOL    MW4 5680   4.317   4.482   2.914  0.2047 -0.3308 -0.0824
 1479SOL     OW 5681   3.741   5.007   1.436  0.1103  0.4864 -0.1071
 1479SOL    HW2 5682   3.714   5.084   1.386 -0.8296 -0.0250 -0.4080
 1479SOL    HW3 5683   3.680   5.004   1.509 -2.2879 -1.9946 -2.0229
 1479SOL    MW4 5684   3.730   5.017   1.439 -0.3301  0.0916 -0.3996
 1480SOL     OW 5685   2.123   5.484   4.667 -0.0122  0.1349 -0.2671
 1480SOL    HW2 5686   2.037   5.522   4.650  0.5546  0.9488 -1.4291
 1480SOL    HW3 5687   2.125   5.473   4.762 -2.2667 -2.0879 -0.3760
 1480SOL    MW4 5688   2.112   5.488   4.678 -0.2348 -0.0510 -0.4348
 1481SOL     OW 5689   2.493   3.451   0.994  0.4940  0.3823  0.6244
 1481SOL    HW2 5690   2.407   3.432   0.956 -0.1773  0.9811  1.7977
 1481SOL    HW3 5691   2.493   3.404   1.077  0.8716  1.2592  1.1315
 1481SOL    MW4 5692   2.481   3.442   1.000  0.4552  0.5770  0.8461
 1482SOL     OW 5693   0.533   0.297   0.021 -0.4103  0.2485 -0.2759
 1482SOL    HW2 5694   0.570   0.355  -0.046  0.2156 -0.0838 -0.2274
 1482SOL    HW3 5695   0.608   0.273   0.075 -0.5829 -0.9067 -0.5229
 1482SOL    MW4 5696   0.548   0.301   0.019 -0.3505  0.0523 -0.3021
 1483SOL     OW 5697   4.313   5.353   6.028  0.4303  0.0135  0.1612
 1483SOL    HW2 5698   4.277   5.404   5.956 -1.1663 -0.2044  0.7633
 1483SOL    HW3 5699   4.393   5.314   5.993  1.5469  2.6339 -0.4303
 1483SOL    MW4 5700   4.319   5.355   6.014  0.3670  0.3305  0.1626
 1484SOL     OW 5701   5.471   6.121   0.514  0.2054 -0.3162  0.3825
 1484SOL    HW2 5702   5.379   6.133   0.536  0.1236  3.4360 -1.2727
 1484SOL    HW3 5703   5.470   6.057   0.443 -0.9411 -1.2545  1.2010
 1484SOL    MW4 5704   5.459   6.114   0.507  0.0433  0.0551  0.2721
 1485SOL     OW 5705   5.091   1.041   4.690 -0.1201  0.8299 -0.2448
 1485SOL    HW2 5706   5.070   1.128   4.658 -0.7792  1.0053  0.6292
 1485SOL    HW3 5707   5.006   1.003   4.715  0.0506 -0.3740 -1.3800
 1485SOL    MW4 5708   5.077   1.047   4.689 -0.1845  0.6942 -0.2793
 1486SOL     OW 5709   4.754   6.366   3.629 -0.2104 -0.1486  0.1482
 1486SOL    HW2 5710   4.770   6.416   3.708 -2.4740  2.2522 -0.7743
 1486SOL    HW3 5711   4.697   6.295   3.657  0.1263 -0.1455  0.8717
 1486SOL    MW4 5712   4.749   6.363   3.643 -0.4646  0.1686  0.1219
 1487SOL     OW 5713   0.555   1.451   1.655 -0.0512 -0.4247 -0.2082
 1487SOL    HW2 5714   0.644   1.420   1.641  0.0275 -1.6419  2.3267
 1487SOL    HW3 5715   0.565   1.538   1.693  0.0638 -0.5469  0.0434
 1487SOL    MW4 5716   0.568   1.458   1.658 -0.0256 -0.6014  0.1595
 1488SOL     OW 5717   4.596   6.074   5.923 -0.1499  0.2360  0.4136
 1488SOL    HW2 5718   4.558   6.045   6.006  0.5602  0.5059  0.8416
 1488SOL    HW3 5719   4.522   6.112   5.875 -0.1008  2.5094  2.0129
 1488SOL    MW4 5720   4.581   6.075   5.927 -0.0497  0.5716  0.6811
 1489SOL     OW 5721   0.234   2.546   5.628 -0.1560 -0.1301  0.2188
 1489SOL    HW2 5722   0.207   2.471   5.575 -1.2063 -0.1932  0.8316
 1489SOL    HW3 5723   0.167   2.612   5.613 -0.0870  0.1084  0.9240
 1489SOL    MW4 5724   0.222   2.545   5.619 -0.2855 -0.1070  0.3927
 1490SOL     OW 5725   3.051   5.338   5.893 -0.0271  0.1099 -0.1635
 1490SOL    HW2 5726   3.020   5.425   5.917 -0.6080 -0.1458  0.0317
 1490SOL    HW3 5727   3.052   5.338   5.797 -2.7625 -0.5741 -0.2634
 1490SOL    MW4 5728   3.047   5.349   5.883 -0.4647 -0.0141 -0.1509
 1491SOL     OW 5729   0.818   3.289   0.836 -0.2084 -0.3822 -0.6650
 1491SOL    HW2 5730   0.903   3.271   0.877 -0.2030  0.4328 -0.3125
 1491SOL    HW3 5731   0.840   3.338   0.757 -0.3274 -0.5301 -0.7899
 1491SOL    MW4 5732   0.832   3.293   0.831 -0.2234 -0.2942 -0.6350
 1492SOL     OW 5733   5.859   6.223   0.516 -0.3098 -0.2640 -0.4843
 1492SOL    HW2 5734   5.782   6.279   0.525  0.5907  1.0601 -0.6955
 1492SOL    HW3 5735   5.830   6.153   0.457 -1.2873  0.3330 -0.7503
 1492SOL    MW4 5736   5.845   6.222   0.509 -0.3199 -0.0105 -0.5472
 1493SOL     OW 5737   0.458   1.141   5.218 -0.1386 -0.2981 -0.3163
 1493SOL    HW2 5738   0.535   1.116   5.166 -0.1437  0.8893 -0.9391
 1493SOL    HW3 5739   0.408   1.198   5.161 -0.5418  0.4342  0.7279
 1493SOL    MW4 5740   0.462   1.145   5.204 -0.1925 -0.0448 -0.2607
 1494SOL     OW 5741   3.607   4.517   5.878  0.8899  0.3015 -0.6040
 1494SOL    HW2 5742   3.526   4.538   5.831  0.1845 -0.4299  0.2462
 1494SOL    HW3 5743   3.595   4.554   5.965  0.5410 -1.6490  0.2187
 1494SOL    MW4 5744   3.595   4.525   5.883  0.7508 -0.0523 -0.3832
 1495SOL     OW 5745   2.427   0.531   2.023 -0.2063  0.6720  0.2526
 1495SOL    HW2 5746   2.454   0.470   1.954 -0.0001 -0.0827  0.9806
 1495SOL    HW3 5747   2.344   0.495   2.055 -0.2831  1.0009  0.4290
 1495SOL    MW4 5748   2.420   0.518   2.018 -0.1892  0.6158  0.3719
 1496SOL     OW 5749   2.873   6.269   5.477 -0.3804 -0.2268  0.4658
 1496SOL    HW2 5750   2.888   6.285   5.570  1.9375  0.3286  0.0391
 1496SOL    HW3 5751   2.907   6.347   5.433 -1.8883 -0.2496 -0.8653
 1496SOL    MW4 5752   2.879   6.281   5.483 -0.2735 -0.1565  0.2339
 1497SOL     OW 5753   0.590   4.114   1.567  0.1503  0.7475 -0.2100
 1497SOL    HW2 5754   0.638   4.143   1.644  1.2314 -0.2258 -0.4820
 1497SOL    HW3 5755   0.631   4.162   1.494 -0.7224  1.5045 -0.2072
 1497SOL    MW4 5756   0.602   4.124   1.567  0.1778  0.7190 -0.2455
 1498SOL     OW 5757   2.749   1.908   6.374  0.1339  0.0029 -0.3241
 1498SOL    HW2 5758   2.741   1.839   6.440 -0.3323  0.9361  0.6251
 1498SOL    HW3 5759   2.677   1.967   6.392  1.7863  1.9358  0.3636
 1498SOL    MW4 5760   2.739   1.907   6.385  0.2904  0.3811 -0.1081
 1499SOL     OW 5761   5.292   0.534   4.847  0.7160 -0.2326 -0.1917
 1499SOL    HW2 5762   5.325   0.580   4.770  0.0001 -0.1847 -0.4827
 1499SOL    HW3 5763   5.213   0.489   4.816 -0.1887  0.6488  0.7562
 1499SOL    MW4 5764   5.286   0.534   4.833  0.5022 -0.1099 -0.1050
 1500SOL     OW 5765   1.342   4.739   0.438 -0.2821 -0.1653  0.4712
 1500SOL    HW2 5766   1.323   4.648   0.414 -0.3003  0.2885 -1.3753
 1500SOL    HW3 5767   1.437   4.748   0.428 -0.4356  0.3493 -0.6788
 1500SOL    MW4 5768   1.352   4.728   0.434 -0.3047 -0.0376  0.0759
 1501SOL     OW 5769   3.994   1.990   4.250  0.0261 -0.1149  0.0382
 1501SOL    HW2 5770   4.018   2.003   4.342  1.6467 -0.7514 -0.2615
 1501SOL    HW3 5771   4.069   1.943   4.213  0.5565  2.3186 -2.2161
 1501SOL    MW4 5772   4.007   1.985   4.258  0.3099  0.1222 -0.2988
 1502SOL     OW 5773   5.553   5.881   0.346 -0.0377  0.8042  0.3629
 1502SOL    HW2 5774   5.546   5.824   0.423  2.5021 -0.1864 -0.0278
 1502SOL    HW3 5775   5.477   5.858   0.292 -1.5299  1.0846  2.2301
 1502SOL    MW4 5776   5.542   5.870   0.349  0.1005  0.7105  0.5577
 1503SOL     OW 5777   0.750   4.468   4.967 -0.2349  0.4450 -0.0522
 1503SOL    HW2 5778   0.827   4.521   4.982  0.8874 -0.9240 -0.7700
 1503SOL    HW3 5779   0.755   4.398   5.033 -1.2774  0.7453  0.3821
 1503SOL    MW4 5780   0.761   4.465   4.978 -0.2244  0.3040 -0.0896
 1504SOL     OW 5781   5.311   0.845   2.561  0.3138  0.3120 -0.2374
 1504SOL    HW2 5782   5.354   0.897   2.493  0.1327  1.3147  0.3867
 1504SOL    HW3 5783   5.248   0.905   2.601  0.2977 -0.3000  0.7034
 1504SOL    MW4 5784   5.309   0.860   2.557  0.2878  0.3636 -0.0310
 1505SOL     OW 5785   2.670   1.164   5.555 -0.5168 -0.3609  0.1075
 1505SOL    HW2 5786   2.764   1.175   5.570 -0.2461 -0.9740 -1.0289
 1505SOL    HW3 5787   2.629   1.233   5.607  0.7410  1.9275 -1.7186
 1505SOL    MW4 5788   2.677   1.174   5.564 -0.3151 -0.1399 -0.2834
 1506SOL     OW 5789   6.267   2.349   3.790 -0.1850 -0.0813  0.3930
 1506SOL    HW2 5790   6.335   2.285   3.769 -0.4946 -0.1017 -0.5726
 1506SOL    HW3 5791   6.217   2.359   3.709 -0.6058  0.8206  0.7515
 1506SOL    MW4 5792   6.269   2.341   3.777 -0.2813  0.0350  0.3129
 1507SOL     OW 5793   6.090   3.683   5.153 -0.1440 -0.2859 -0.0010
 1507SOL    HW2 5794   6.075   3.768   5.112 -1.5226 -0.7169 -0.4686
 1507SOL    HW3 5795   6.076   3.698   5.247 -1.5439 -0.1918 -0.1942
 1507SOL    MW4 5796   6.086   3.696   5.160 -0.5106 -0.3303 -0.0882
 1508SOL     OW 5797   2.148   2.053   4.883 -0.5448  0.1662  0.6009
 1508SOL    HW2 5798   2.080   1.991   4.908 -0.0586 -0.7731 -0.2731
 1508SOL    HW3 5799   2.193   2.010   4.809  3.0245 -0.7552  3.0344
 1508SOL    MW4 5800   2.145   2.039   4.876 -0.0097 -0.0793  0.8066
 1509SOL     OW 5801   2.149   2.412   1.418 -0.1552 -0.2427  0.0919
 1509SOL    HW2 5802   2.157   2.508   1.419  1.4585 -0.3539  0.3421
 1509SOL    HW3 5803   2.082   2.394   1.352 -0.8861  1.0753  0.4373
 1509SOL    MW4 5804   2.141   2.423   1.410 -0.0387 -0.0835  0.1705
 1510SOL     OW 5805   1.112   5.218   4.440 -0.1879 -0.0840  0.1387
 1510SOL    HW2 5806   1.175   5.228   4.369 -0.1945 -0.8629  0.0114
 1510SOL    HW3 5807   1.156   5.161   4.503  0.1205  1.1984  1.1366
 1510SOL    MW4 5808   1.126   5.212   4.439 -0.1481 -0.0176  0.2535
 1511SOL     OW 5809   1.951   4.534   1.373 -0.5963 -0.1034 -0.1402
 1511SOL    HW2 5810   1.898   4.544   1.294 -1.3420  0.7477  0.4438
 1511SOL    HW3 5811   2.040   4.550   1.344 -1.0700  2.3032 -0.4720
 1511SOL    MW4 5812   1.955   4.537   1.359 -0.7572  0.3264 -0.1069
 1512SOL     OW 5813   4.077   1.172   3.518 -0.4793 -0.5925  0.6739
 1512SOL    HW2 5814   4.017   1.098   3.524 -0.3267 -0.6901  1.0003
 1512SOL    HW3 5815   4.108   1.170   3.427 -2.7541  0.8716 -0.2495
 1512SOL    MW4 5816   4.073   1.162   3.507 -0.7593 -0.4122  0.5951
 1513SOL     OW 5817   5.700   4.611   2.336  0.4681  0.2067  0.8528
 1513SOL    HW2 5818   5.742   4.598   2.251 -1.7566  0.3698 -0.3449
 1513SOL    HW3 5819   5.754   4.675   2.380  1.2166  0.7717 -0.8080
 1513SOL    MW4 5820   5.712   4.618   2.331  0.2734  0.3027  0.4757
 1514SOL     OW 5821   3.132   0.614   5.345  0.1571  0.1400  1.0635
 1514SOL    HW2 5822   3.224   0.603   5.368 -0.0101  0.0168  1.6948
 1514SOL    HW3 5823   3.133   0.666   5.265  0.7512  0.8424  1.5170
 1514SOL    MW4 5824   3.144   0.619   5.337  0.2134  0.2164  1.2067
 1515SOL     OW 5825   2.168   5.361   0.671  0.6265 -0.0195 -0.5294
 1515SOL    HW2 5826   2.187   5.406   0.754  2.3097 -0.0094 -0.8861
 1515SOL    HW3 5827   2.253   5.325   0.643 -0.1061 -0.8667 -1.7582
 1515SOL    MW4 5828   2.182   5.362   0.678  0.7519 -0.1299 -0.7386
 1516SOL     OW 5829   1.545   3.469   5.833 -0.3674 -0.2489  0.2965
 1516SOL    HW2 5830   1.584   3.469   5.921  1.4734 -2.5500 -0.4335
 1516SOL    HW3 5831   1.487   3.394   5.833 -2.1500  1.0747  0.2046
 1516SOL    MW4 5832   1.543   3.459   5.845 -0.3597 -0.3779  0.1881
 1517SOL     OW 5833   0.346   4.927   5.965  0.3485 -0.1126 -0.2069
 1517SOL    HW2 5834   0.277   4.899   5.905 -0.7218  2.2450 -0.1886
 1517SOL    HW3 5835   0.299   4.956   6.043  1.5845 -1.0515  0.9336
 1517SOL    MW4 5836   0.331   4.927   5.967  0.3704  0.0746 -0.0540
 1518SOL     OW 5837   4.624   3.520   2.039  0.1489 -0.9336  0.5512
 1518SOL    HW2 5838   4.595   3.534   1.949  4.5199  1.1459 -0.7993
 1518SOL    HW3 5839   4.572   3.581   2.091 -1.3519 -1.0422 -0.7541
 1518SOL    MW4 5840   4.613   3.530   2.034  0.5276 -0.6736  0.2008
 1519SOL     OW 5841   3.109   4.365   4.183  0.5313  0.3717  0.3673
 1519SOL    HW2 5842   3.148   4.312   4.113  0.7728 -1.1418  1.6042
 1519SOL    HW3 5843   3.175   4.367   4.252  0.2645  1.7786  0.5968
 1519SOL    MW4 5844   3.123   4.358   4.183  0.5280  0.3576  0.5608
 1520SOL     OW 5845   5.116   1.168   0.496  0.3494  0.1261  0.0895
 1520SOL    HW2 5846   5.024   1.177   0.518  0.2226  0.6296 -0.5842
 1520SOL    HW3 5847   5.155   1.253   0.519  0.9314 -0.5186  1.6103
 1520SOL    MW4 5848   5.109   1.181   0.502  0.4095  0.1075  0.2013
 1521SOL     OW 5849   4.266   3.894   2.142  0.4117  0.4529 -0.0867
 1521SOL    HW2 5850   4.282   3.898   2.236 -0.9145  1.3866  0.1195
 1521SOL    HW3 5851   4.202   3.963   2.125  0.1466 -0.1201 -1.5825
 1521SOL    MW4 5852   4.260   3.904   2.152  0.2017  0.5005 -0.2568
 1522SOL     OW 5853   1.327   6.373   2.110 -0.3847 -0.5200 -0.4241
 1522SOL    HW2 5854   1.323   6.331   2.024  2.2659  0.9069 -1.3188
 1522SOL    HW3 5855   1.390   6.443   2.101  0.1183 -0.3968  2.7569
 1522SOL    MW4 5856   1.335   6.376   2.098  0.0314 -0.3155 -0.1224
 1523SOL     OW 5857   2.159   5.735   3.950  0.0340  0.0948  0.0931
 1523SOL    HW2 5858   2.254   5.720   3.953  0.0107  0.0644  0.8076
 1523SOL    HW3 5859   2.140   5.749   3.857  0.7457  0.1484 -0.0493
 1523SOL    MW4 5860   2.169   5.735   3.938  0.1248  0.0979  0.1686
 1524SOL     OW 5861   6.154   3.050   6.002 -0.3400  0.2452  0.1452
 1524SOL    HW2 5862   6.246   3.040   6.027 -0.2178 -2.7278 -1.0312
 1524SOL    HW3 5863   6.154   3.040   5.907 -1.9311 -0.4614  0.1912
 1524SOL    MW4 5864   6.166   3.047   5.993 -0.5338 -0.2403 -0.0040
 1525SOL     OW 5865   5.541   1.234   1.124 -0.2628  0.1793 -0.0103
 1525SOL    HW2 5866   5.549   1.140   1.143 -2.1801 -0.1969 -0.7630
 1525SOL    HW3 5867   5.574   1.278   1.202  1.3545 -1.0891  0.0710
 1525SOL    MW4 5868   5.546   1.227   1.137 -0.3024 -0.0377 -0.0989
 1526SOL     OW 5869   2.556   5.879   4.278  0.2581  0.5822  0.3193
 1526SOL    HW2 5870   2.502   5.907   4.204  1.9634  0.4009 -1.0573
 1526SOL    HW3 5871   2.494   5.841   4.341 -1.3154  1.4171 -0.6800
 1526SOL    MW4 5872   2.541   5.878   4.277  0.2755  0.6685  0.0058
 1527SOL     OW 5873   2.480   2.129   2.927  0.8380  0.0239  0.1990
 1527SOL    HW2 5874   2.460   2.214   2.890 -0.4816 -0.3657 -0.0243
 1527SOL    HW3 5875   2.412   2.113   2.992  2.0121 -0.1561  1.4305
 1527SOL    MW4 5876   2.469   2.138   2.931  0.8188 -0.0513  0.3320
 1528SOL     OW 5877   2.987   6.360   4.952  0.1457 -0.0044 -0.7649
 1528SOL    HW2 5878   2.975   6.280   4.901  0.1895 -0.1282 -0.5811
 1528SOL    HW3 5879   2.906   6.368   5.003  1.2769 -1.4880  1.3807
 1528SOL    MW4 5880   2.974   6.350   4.952  0.3007 -0.2164 -0.4576
 1529SOL     OW 5881   0.302   1.930   4.645 -0.5002 -0.5311  0.0546
 1529SOL    HW2 5882   0.284   1.925   4.551 -0.0706 -0.4159 -0.0354
 1529SOL    HW3 5883   0.247   2.002   4.676  1.5480  1.4496 -0.6497
 1529SOL    MW4 5884   0.292   1.939   4.636 -0.1733 -0.2546 -0.0502
 1530SOL     OW 5885   3.911   5.581   0.951  0.5367 -0.1379  0.1353
 1530SOL    HW2 5886   3.919   5.626   0.867 -0.8885 -0.3197 -0.1092
 1530SOL    HW3 5887   3.938   5.490   0.932 -1.7885 -0.7243 -0.6630
 1530SOL    MW4 5888   3.916   5.575   0.937  0.0418 -0.2393 -0.0023
 1531SOL     OW 5889   2.902   3.610   4.847 -0.2085  0.1058  0.3120
 1531SOL    HW2 5890   2.814   3.608   4.811  0.8156 -0.9500 -2.4884
 1531SOL    HW3 5891   2.956   3.568   4.779  2.7037  2.2274  1.1059
 1531SOL    MW4 5892   2.898   3.604   4.833  0.3108  0.2464  0.0472
 1532SOL     OW 5893   1.203   5.733   0.756 -0.2048 -0.1634 -0.1757
 1532SOL    HW2 5894   1.217   5.819   0.797 -0.1158  0.3926 -1.3341
 1532SOL    HW3 5895   1.174   5.677   0.828  0.8799  0.5257  0.8535
 1532SOL    MW4 5896   1.201   5.737   0.771 -0.0499  0.0009 -0.1928
 1533SOL     OW 5897   1.496   5.625   4.020  0.4303 -0.0713 -0.2691
 1533SOL    HW2 5898   1.507   5.683   3.944  0.2031 -1.3359 -1.3070
 1533SOL    HW3 5899   1.408   5.590   4.011  0.5820 -0.6191  0.3093
 1533SOL    MW4 5900   1.486   5.628   4.009  0.4204 -0.3104 -0.3297
 1534SOL     OW 5901   5.172   3.116   4.280  0.2281  0.1704  0.1154
 1534SOL    HW2 5902   5.159   3.149   4.369  1.0857  0.3619  0.1783
 1534SOL    HW3 5903   5.130   3.030   4.280 -1.0320  0.7546  0.2848
 1534SOL    MW4 5904   5.165   3.109   4.292  0.1750  0.2727  0.1460
 1535SOL     OW 5905   3.608   6.179   6.228  0.0711  0.3369 -0.1119
 1535SOL    HW2 5906   3.645   6.267   6.234 -0.9581  0.7818 -0.2325
 1535SOL    HW3 5907   3.524   6.184   6.273  0.1180 -0.6622  0.1300
 1535SOL    MW4 5908   3.602   6.191   6.235 -0.0585  0.2638 -0.0959
 1536SOL     OW 5909   4.889   0.253   1.418  0.6848  0.0778 -0.3439
 1536SOL    HW2 5910   4.851   0.186   1.361 -0.8442 -0.9348  1.7304
 1536SOL    HW3 5911   4.829   0.328   1.411 -0.0218 -0.3799  0.5584
 1536SOL    MW4 5912   4.876   0.254   1.410  0.3899 -0.1162  0.0488
 1537SOL     OW 5913   4.693   1.335   1.293 -0.4783 -0.0886  0.0655
 1537SOL    HW2 5914   4.752   1.407   1.271 -1.5334  1.6809  2.4822
 1537SOL    HW3 5915   4.613   1.354   1.245  0.3126 -1.6190 -1.9733
 1537SOL    MW4 5916   4.690   1.347   1.284 -0.5132 -0.0571  0.1153
 1538SOL     OW 5917   1.244   2.131   5.141  0.2680  0.2844  0.1129
 1538SOL    HW2 5918   1.211   2.061   5.084 -0.7260  1.5185 -0.8754
 1538SOL    HW3 5919   1.223   2.212   5.094  0.7169  1.2837  1.5835
 1538SOL    MW4 5920   1.237   2.132   5.127  0.1961  0.5791  0.1766
 1539SOL     OW 5921   6.345   3.521   3.153 -0.1162 -0.4453 -0.3202
 1539SOL    HW2 5922   6.378   3.563   3.232 -1.5503  2.3469 -1.1034
 1539SOL    HW3 5923   6.255   3.496   3.174 -0.1254 -0.7799 -0.7235
 1539SOL    MW4 5924   6.337   3.523   3.166 -0.3067 -0.1211 -0.4767
 1540SOL     OW 5925   0.406   0.871   1.219 -0.6720 -0.4318  0.5314
 1540SOL    HW2 5926   0.502   0.869   1.224 -0.6074  1.0788  0.2482
 1540SOL    HW3 5927   0.386   0.842   1.130 -0.4249  0.1036  0.2973
 1540SOL    MW4 5928   0.416   0.867   1.207 -0.6309 -0.1619  0.4631
 1541SOL     OW 5929   5.807   4.593   0.715 -0.5671  0.4179 -0.1411
 1541SOL    HW2 5930   5.824   4.675   0.762 -2.3540  0.2090  0.9829
 1541SOL    HW3 5931   5.755   4.619   0.639  0.8486  0.5567 -1.0925
 1541SOL    MW4 5932   5.802   4.608   0.711 -0.6161  0.4086 -0.1183
 1542SOL     OW 5933   4.413   0.717   1.523 -0.1068  0.1803  0.1651
 1542SOL    HW2 5934   4.454   0.698   1.438 -1.6111 -0.0105 -0.5597
 1542SOL    HW3 5935   4.468   0.785   1.562  0.5229  0.3963 -1.0436
 1542SOL    MW4 5936   4.425   0.723   1.517 -0.2222  0.1836 -0.0900
 1543SOL     OW 5937   3.894   1.493   5.175  0.2259  0.6189 -0.0781
 1543SOL    HW2 5938   3.938   1.429   5.120  0.2179  1.1487 -0.7214
 1543SOL    HW3 5939   3.886   1.570   5.119 -1.0161  0.7155  0.2020
 1543SOL    MW4 5940   3.898   1.495   5.161  0.0610  0.7016 -0.1260
 1544SOL     OW 5941   3.150   1.428   5.260 -0.7729 -0.0137 -0.4411
 1544SOL    HW2 5942   3.084   1.442   5.192 -0.9866  0.6096 -0.1139
 1544SOL    HW3 5943   3.232   1.457   5.219 -1.0808  1.4968 -0.0556
 1544SOL    MW4 5944   3.152   1.434   5.245 -0.8417  0.2678 -0.3471
 1545SOL     OW 5945   4.812   1.155   0.531  0.5881 -0.0914 -0.1842
 1545SOL    HW2 5946   4.787   1.235   0.485 -0.6726 -0.2994  0.0900
 1545SOL    HW3 5947   4.761   1.086   0.489  0.1663 -0.4368  0.8498
 1545SOL    MW4 5948   4.802   1.157   0.519  0.3661 -0.1644 -0.0116
 1546SOL     OW 5949   1.295   2.094   1.981  0.6569  0.1987 -0.5162
 1546SOL    HW2 5950   1.328   2.177   2.015  1.7480  0.5658 -2.3126
 1546SOL    HW3 5951   1.298   2.034   2.055  0.5740  1.5616  0.6261
 1546SOL    MW4 5952   1.300   2.097   1.995  0.7899  0.4270 -0.6025
 1547SOL     OW 5953   4.278   1.380   3.083  0.2276 -0.0233  0.5828
 1547SOL    HW2 5954   4.355   1.365   3.137 -0.0308 -1.4985  0.5842
 1547SOL    HW3 5955   4.263   1.474   3.088 -0.1132 -0.1448  3.5279
 1547SOL    MW4 5956   4.286   1.390   3.091  0.1485 -0.2340  0.9716
 1548SOL     OW 5957   4.459   4.907   1.303  0.0824 -0.4216  0.3403
 1548SOL    HW2 5958   4.391   4.862   1.252  0.4259 -0.9181  0.3124
 1548SOL    HW3 5959   4.527   4.927   1.239  0.9268 -1.8646  0.7466
 1548SOL    MW4 5960   4.459   4.904   1.288  0.2391 -0.6775  0.3902
 1549SOL     OW 5961   1.647   4.416   2.291 -0.4266 -0.5607  0.2444
 1549SOL    HW2 5962   1.577   4.396   2.228 -1.7252 -0.4011  1.5687
 1549SOL    HW3 5963   1.725   4.429   2.238 -2.0791  2.7457 -1.6908
 1549SOL    MW4 5964   1.648   4.415   2.276 -0.8160 -0.1034  0.1638
 1550SOL     OW 5965   2.499   4.483   3.982  0.6189 -0.2094 -0.0760
 1550SOL    HW2 5966   2.414   4.521   4.007  0.2116 -1.2003  0.0993
 1550SOL    HW3 5967   2.515   4.517   3.894 -0.4928 -0.8516 -0.5476
 1550SOL    MW4 5968   2.490   4.492   3.974  0.4185 -0.4249 -0.1151
 1551SOL     OW 5969   1.810   4.450   3.042 -0.0977  0.1739 -0.4241
 1551SOL    HW2 5970   1.887   4.408   3.081 -0.2213  1.0785  0.8629
 1551SOL    HW3 5971   1.833   4.543   3.038 -0.7685  0.3235 -0.8869
 1551SOL    MW4 5972   1.823   4.457   3.047 -0.2025  0.3130 -0.3154
 1552SOL     OW 5973   2.493   4.238   2.259 -0.2385  0.8186 -0.0340
 1552SOL    HW2 5974   2.515   4.303   2.193  2.1375  0.5100  0.3642
 1552SOL    HW3 5975   2.502   4.284   2.343  1.6823 -0.0006  0.2611
 1552SOL    MW4 5976   2.497   4.252   2.262  0.3284  0.6698  0.0575
 1553SOL     OW 5977   2.544   2.839   0.064  0.0362  0.1235  0.4929
 1553SOL    HW2 5978   2.620   2.798   0.023 -1.4418 -0.8516 -1.4353
 1553SOL    HW3 5979   2.533   2.922   0.019 -0.5326 -0.1333  0.1445
 1553SOL    MW4 5980   2.552   2.844   0.053 -0.2338 -0.0390  0.1926
 1554SOL     OW 5981   0.868   1.506   5.907  0.0523  0.0056 -0.2193
 1554SOL    HW2 5982   0.931   1.466   5.967 -0.6554  1.4636  1.6301
 1554SOL    HW3 5983   0.914   1.580   5.869 -0.2896  0.6922  0.6494
 1554SOL    MW4 5984   0.882   1.510   5.910 -0.0861  0.2886  0.1394
 1555SOL     OW 5985   0.905   0.878   4.332 -0.2078 -0.2847 -0.0345
 1555SOL    HW2 5986   0.847   0.831   4.391 -0.9710  1.0775  0.3386
 1555SOL    HW3 5987   0.992   0.869   4.371 -0.4927 -0.5532  0.5482
 1555SOL    MW4 5988   0.909   0.870   4.345 -0.3461 -0.1404  0.0916
 1556SOL     OW 5989   4.107   3.562   6.297 -0.2310 -0.0278  0.0322
 1556SOL    HW2 5990   4.037   3.506   6.329  1.0954 -1.4236  0.6450
 1556SOL    HW3 5991   4.126   3.530   6.209  2.1056 -2.2654  1.2139
 1556SOL    MW4 5992   4.101   3.550   6.290  0.2523 -0.5072  0.2690
 1557SOL     OW 5993   1.544   3.302   6.267 -0.1581 -0.2538  0.4209
 1557SOL    HW2 5994   1.517   3.211   6.253 -0.1918 -0.1387 -0.2962
 1557SOL    HW3 5995   1.605   3.297   6.340 -1.7610 -0.5747  1.8030
 1557SOL    MW4 5996   1.548   3.289   6.275 -0.3740 -0.2809  0.5086
 1558SOL     OW 5997   5.255   5.914   2.402  0.3663 -0.0428 -0.0270
 1558SOL    HW2 5998   5.197   5.883   2.472  1.4194 -0.8073  0.5392
 1558SOL    HW3 5999   5.207   5.986   2.362 -1.6443 -1.5977 -0.5832
 1558SOL    MW4 6000   5.241   5.919   2.406  0.2400 -0.3488 -0.0256
 1559SOL     OW 6001   6.393   3.525   0.960  0.3362 -0.2221  0.2534
 1559SOL    HW2 6002   6.357   3.611   0.936 -1.2398 -0.9345 -0.0207
 1559SOL    HW3 6003   6.477   3.522   0.915 -0.5198  0.3563 -1.4841
 1559SOL    MW4 6004   6.399   3.536   0.951  0.0153 -0.2398 -0.0120
 1560SOL     OW 6005   0.406   1.609   0.489  0.4441  0.4925 -0.1436
 1560SOL    HW2 6006   0.316   1.575   0.494  1.4380 -2.2150  2.1156
 1560SOL    HW3 6007   0.440   1.575   0.407 -0.0720  0.0555 -0.1849
 1560SOL    MW4 6008   0.398   1.600   0.479  0.5071  0.0776  0.1490
 1561SOL     OW 6009   1.978   0.288   4.280 -0.1346  0.1094  0.2499
 1561SOL    HW2 6010   2.055   0.240   4.311 -0.2858  1.1824  2.4812
 1561SOL    HW3 6011   1.908   0.260   4.338 -0.9215  0.7504 -0.3740
 1561SOL    MW4 6012   1.979   0.278   4.292 -0.2584  0.3355  0.4620
 1562SOL     OW 6013   2.076   0.460   1.325  0.6821  0.2174  0.6005
 1562SOL    HW2 6014   2.098   0.522   1.255  1.1152  0.5464  1.0190
 1562SOL    HW3 6015   2.134   0.385   1.310  0.0266 -0.1726 -0.0165
 1562SOL    MW4 6016   2.087   0.459   1.314  0.6527  0.2093  0.5743
 1563SOL     OW 6017   5.396   0.353   4.292 -0.8178 -0.5896 -0.1851
 1563SOL    HW2 6018   5.454   0.281   4.317 -1.8263 -0.6158  2.3299
 1563SOL    HW3 6019   5.308   0.320   4.310 -1.5238  0.1987 -1.9447
 1563SOL    MW4 6020   5.392   0.339   4.298 -1.0440 -0.4891 -0.0854
 1564SOL     OW 6021   2.915   3.607   3.628 -0.5765  0.1094  0.5443
 1564SOL    HW2 6022   2.932   3.657   3.708 -0.5613  1.0515 -0.0224
 1564SOL    HW3 6023   2.874   3.670   3.569 -0.1237 -0.4210 -0.3659
 1564SOL    MW4 6024   2.912   3.622   3.630 -0.5148  0.1637  0.3494
 1565SOL     OW 6025   4.224   0.859   2.998 -0.4225 -0.1755 -0.1166
 1565SOL    HW2 6026   4.145   0.873   2.946 -2.0916 -1.2391  1.9408
 1565SOL    HW3 6027   4.222   0.929   3.063 -0.5980 -1.1354  0.9409
 1565SOL    MW4 6028   4.213   0.870   3.000 -0.6659 -0.4424  0.2944
 1566SOL     OW 6029   6.191   2.024  -0.038 -0.2040 -0.5856 -0.0870
 1566SOL    HW2 6030   6.178   2.117  -0.020  0.9664 -0.2409 -0.9054
 1566SOL    HW3 6031   6.108   1.995  -0.075 -0.4469  0.2368 -0.2206
 1566SOL    MW4 6032   6.178   2.033  -0.041 -0.0816 -0.4316 -0.2126
 1567SOL     OW 6033   3.717   0.761   5.469 -0.2608 -0.0653  0.2759
 1567SOL    HW2 6034   3.723   0.666   5.480 -0.2827  0.0487  1.4108
 1567SOL    HW3 6035   3.649   0.788   5.531 -0.5816  0.6449 -0.3622
 1567SOL    MW4 6036   3.709   0.752   5.479 -0.3060  0.0435  0.3415
 1568SOL     OW 6037   3.402   1.832   0.584 -0.6062  0.5937  0.1648
 1568SOL    HW2 6038   3.381   1.817   0.492 -0.8422  1.8348 -0.0007
 1568SOL    HW3 6039   3.472   1.898   0.582  2.4343 -2.3638  0.7335
 1568SOL    MW4 6040   3.409   1.839   0.572 -0.2362  0.3672  0.2180
 1569SOL     OW 6041   5.761   1.325   1.614  0.0034 -0.6439  0.0293
 1569SOL    HW2 6042   5.735   1.329   1.522 -0.5880 -3.1617  0.0207
 1569SOL    HW3 6043   5.821   1.250   1.619 -0.5806 -1.0455  1.7968
 1569SOL    MW4 6044   5.765   1.315   1.602 -0.1517 -1.0290  0.2614
 1570SOL     OW 6045   4.604   2.423   5.618  0.5772  0.4399  0.2845
 1570SOL    HW2 6046   4.605   2.487   5.689 -1.5958 -0.8543  1.5866
 1570SOL    HW3 6047   4.670   2.359   5.643  1.3654  1.1252 -0.0117
 1570SOL    MW4 6048   4.613   2.423   5.631  0.3945  0.3596  0.4173
 1571SOL     OW 6049   3.003   3.444   4.238 -0.7312 -0.2759  0.3091
 1571SOL    HW2 6050   2.976   3.516   4.294  1.5963  1.6712 -0.8970
 1571SOL    HW3 6051   3.073   3.400   4.287  0.0911  0.3412 -0.2838
 1571SOL    MW4 6052   3.009   3.447   4.252 -0.3156  0.0624  0.0717
 1572SOL     OW 6053   5.502   3.891   4.766  0.1702 -0.3741 -0.1818
 1572SOL    HW2 6054   5.432   3.848   4.718  1.7241 -1.2526 -1.7731
 1572SOL    HW3 6055   5.530   3.962   4.708  0.8393 -0.2755  0.2512
 1572SOL    MW4 6056   5.496   3.895   4.752  0.4635 -0.4770 -0.3346
 1573SOL     OW 6057   3.115   3.914   5.193  0.5904 -0.4600 -0.5818
 1573SOL    HW2 6058   3.052   3.846   5.168  0.5673 -1.0458  1.0121
 1573SOL    HW3 6059   3.201   3.876   5.173  0.5390 -0.5661 -0.6037
 1573SOL    MW4 6060   3.118   3.900   5.187  0.5806 -0.5513 -0.3744
 1574SOL     OW 6061   4.672   2.141   3.343  0.6658  0.1458 -0.1539
 1574SOL    HW2 6062   4.694   2.078   3.412 -1.4811  0.9644  1.3651
 1574SOL    HW3 6063   4.754   2.190   3.329  1.5770 -1.0769  0.6618
 1574SOL    MW4 6064   4.686   2.139   3.351  0.5028  0.0925  0.1541
 1575SOL     OW 6065   3.894   5.487   5.978  0.1948  0.2016 -0.0220
 1575SOL    HW2 6066   3.949   5.413   6.004  0.2765  0.5180  0.7077
 1575SOL    HW3 6067   3.863   5.463   5.890 -0.5335 -1.1423  0.5594
 1575SOL    MW4 6068   3.897   5.474   5.970  0.1095  0.0660  0.1510
 1576SOL     OW 6069   6.153   6.214   5.393  0.3280  0.2611 -0.2838
 1576SOL    HW2 6070   6.157   6.136   5.337  0.5519 -1.0693  1.5217
 1576SOL    HW3 6071   6.071   6.257   5.367 -0.1053 -0.8960 -0.9151
 1576SOL    MW4 6072   6.143   6.209   5.382  0.3004 -0.0671 -0.1289
 1577SOL     OW 6073   5.317   6.255   2.920  0.1611 -0.3247  0.0766
 1577SOL    HW2 6074   5.314   6.295   3.007  0.1123 -0.2879  0.0582
 1577SOL    HW3 6075   5.410   6.244   2.902  0.1635 -0.7225  0.3134
 1577SOL    MW4 6076   5.329   6.259   2.929  0.1550 -0.3723  0.1054
 1578SOL     OW 6077   1.527   3.113   2.505 -0.1523  0.0686 -0.2218
 1578SOL    HW2 6078   1.546   3.173   2.433 -0.8739 -2.0748 -2.3159
 1578SOL    HW3 6079   1.612   3.100   2.548  0.6273  0.1855 -1.6747
 1578SOL    MW4 6080   1.541   3.120   2.501 -0.1447 -0.1987 -0.6898
 1579SOL     OW 6081   5.532   5.903   0.889  0.6747  0.1106 -0.3682
 1579SOL    HW2 6082   5.506   5.973   0.950  0.8748  0.8546 -1.1123
 1579SOL    HW3 6083   5.450   5.878   0.847  0.2780 -1.4347  1.2079
 1579SOL    MW4 6084   5.518   5.909   0.892  0.6488  0.0049 -0.2584
 1580SOL     OW 6085   4.938   2.244   3.308  0.0608  0.0836 -0.2164
 1580SOL    HW2 6086   4.967   2.199   3.228  0.0108  1.1588 -0.8643
 1580SOL    HW3 6087   4.909   2.330   3.277 -0.5481  0.2896  0.8898
 1580SOL    MW4 6088   4.938   2.249   3.293 -0.0261  0.2526 -0.1560
 1581SOL     OW 6089   5.178   2.881   1.955  0.3367 -0.0135  0.2650
 1581SOL    HW2 6090   5.164   2.957   1.898  0.6798  0.8346  1.2816
 1581SOL    HW3 6091   5.115   2.816   1.924  2.1090 -0.5164 -2.6617
 1581SOL    MW4 6092   5.168   2.883   1.944  0.6158  0.0321  0.0130
 1582SOL     OW 6093   1.877   3.174   1.615 -0.4542 -0.4330 -0.4037
 1582SOL    HW2 6094   1.964   3.153   1.581 -0.0313  1.2492 -0.4517
 1582SOL    HW3 6095   1.869   3.121   1.695  0.4707 -0.8697 -0.5897
 1582SOL    MW4 6096   1.888   3.164   1.621 -0.2764 -0.2687 -0.4346
 1583SOL     OW 6097   5.483   0.788   5.078 -0.1651 -0.6984  0.4813
 1583SOL    HW2 6098   5.563   0.760   5.123  0.3298  1.6389  1.1765
 1583SOL    HW3 6099   5.416   0.727   5.109  1.2558 -2.6110  0.0168
 1583SOL    MW4 6100   5.485   0.776   5.088  0.0877 -0.6424  0.5118
 1584SOL     OW 6101   5.986   6.064   1.598 -0.6485  0.0513 -0.1799
 1584SOL    HW2 6102   5.909   6.086   1.650 -1.1861  0.4895 -1.1282
 1584SOL    HW3 6103   5.952   6.008   1.528  0.1722 -1.1042  0.3210
 1584SOL    MW4 6104   5.972   6.059   1.596 -0.6112 -0.0433 -0.2390
 1585SOL     OW 6105   5.640   3.090   3.817 -0.3279 -0.4978  0.5943
 1585SOL    HW2 6106   5.606   3.009   3.854 -0.1281  0.1616  2.3131
 1585SOL    HW3 6107   5.656   3.147   3.893  3.6901 -0.3913 -0.0895
 1585SOL    MW4 6108   5.638   3.087   3.832  0.2286 -0.3968  0.7308
 1586SOL     OW 6109   5.907   5.267   0.190  0.2778 -0.4184 -0.1737
 1586SOL    HW2 6110   5.853   5.313   0.126  1.1854  0.7299 -0.1620
 1586SOL    HW3 6111   5.861   5.185   0.206 -0.7084 -0.1002 -1.2137
 1586SOL    MW4 6112   5.894   5.262   0.184  0.2674 -0.2249 -0.3094
 1587SOL     OW 6113   1.180   1.013   6.219 -0.1824 -0.1200  0.1383
 1587SOL    HW2 6114   1.148   1.019   6.129 -0.2565 -0.2753  0.1536
 1587SOL    HW3 6115   1.134   0.938   6.256  1.0079 -1.0381 -0.1733
 1587SOL    MW4 6116   1.170   1.004   6.212 -0.0351 -0.2616  0.0992
 1588SOL     OW 6117   0.288   1.951   3.431  0.1767 -0.1835  0.3414
 1588SOL    HW2 6118   0.252   1.941   3.518 -0.5948  0.7389  0.1431
 1588SOL    HW3 6119   0.324   1.865   3.409 -2.4688 -1.3375  0.2825
 1588SOL    MW4 6120   0.288   1.939   3.439 -0.2742 -0.2141  0.3075
 1589SOL     OW 6121   2.143   0.395   5.456 -0.1749 -0.4022  1.0328
 1589SOL    HW2 6122   2.228   0.353   5.465 -0.5779 -1.1332  1.6315
 1589SOL    HW3 6123   2.155   0.483   5.493  0.9968  0.5198 -1.3538
 1589SOL    MW4 6124   2.156   0.401   5.462 -0.0734 -0.3770  0.7969
 1590SOL     OW 6125   0.157   0.797   0.788 -0.0280 -0.4066  0.3305
 1590SOL    HW2 6126   0.135   0.811   0.880 -0.5810 -0.6077  0.2369
 1590SOL    HW3 6127   0.086   0.741   0.755  0.4830 -0.8248 -0.0683
 1590SOL    MW4 6128   0.145   0.792   0.796 -0.0336 -0.4883  0.2655
 1591SOL     OW 6129   4.913   1.807   0.513  0.0146 -0.1440 -0.3816
 1591SOL    HW2 6130   5.008   1.802   0.522  0.1114  1.0665 -0.4750
 1591SOL    HW3 6131   4.879   1.760   0.589  0.6856 -0.7140 -0.4256
 1591SOL    MW4 6132   4.921   1.800   0.524  0.1159 -0.0595 -0.3998
 1592SOL     OW 6133   4.492   3.327   0.348 -0.3089  0.2593 -0.8140
 1592SOL    HW2 6134   4.467   3.236   0.367 -2.5287  0.7977 -0.8645
 1592SOL    HW3 6135   4.560   3.347   0.412 -1.5178 -0.6891  0.8386
 1592SOL    MW4 6136   4.497   3.317   0.359 -0.7613  0.2052 -0.6026
 1593SOL     OW 6137   3.876   4.835   4.525  0.4964  0.1192 -0.3237
 1593SOL    HW2 6138   3.798   4.815   4.473  1.2428  1.3533 -2.0398
 1593SOL    HW3 6139   3.855   4.917   4.569  0.1209 -0.5765  0.8394
 1593SOL    MW4 6140   3.863   4.843   4.524  0.5454  0.1903 -0.3967
 1594SOL     OW 6141   3.026   5.666   2.476  0.2121 -0.2054  0.2127
 1594SOL    HW2 6142   3.100   5.715   2.513  0.6385  0.1527 -1.0507
 1594SOL    HW3 6143   3.005   5.713   2.395 -1.0842 -0.6002  0.2969
 1594SOL    MW4 6144   3.033   5.679   2.470  0.0973 -0.2102  0.0571
 1595SOL     OW 6145   1.806   5.309   2.122 -0.3177 -0.2257  0.4907
 1595SOL    HW2 6146   1.772   5.399   2.125 -1.3157 -0.5505 -0.3070
 1595SOL    HW3 6147   1.792   5.276   2.210  1.1100  0.7530  1.1152
 1595SOL    MW4 6148   1.799   5.317   2.134 -0.2610 -0.1395  0.4679
 1596SOL     OW 6149   0.861   2.866   4.425  0.3604 -0.3443  0.2407
 1596SOL    HW2 6150   0.881   2.776   4.451 -1.4785 -0.6438  0.7741
 1596SOL    HW3 6151   0.935   2.917   4.456  0.1938 -1.3039  2.3938
 1596SOL    MW4 6152   0.873   2.861   4.432  0.0958 -0.5104  0.5952
 1597SOL     OW 6153   2.805   4.090   1.987 -0.0523  0.4270 -0.5603
 1597SOL    HW2 6154   2.838   4.142   1.915 -1.8186  0.5606 -1.3160
 1597SOL    HW3 6155   2.719   4.061   1.959 -0.7106  0.3074  1.4108
 1597SOL    MW4 6156   2.798   4.093   1.974 -0.3722  0.4289 -0.4000
 1598SOL     OW 6157   0.358   2.065   5.083 -0.0281  0.1101  0.1000
 1598SOL    HW2 6158   0.388   2.104   5.001 -0.0595 -0.5370 -0.2211
 1598SOL    HW3 6159   0.418   2.099   5.149 -0.5031  1.2950 -0.0524
 1598SOL    MW4 6160   0.370   2.075   5.081 -0.0949  0.1810  0.0375
 1599SOL     OW 6161   1.190   2.533   0.017  0.4508 -0.0524 -0.0839
 1599SOL    HW2 6162   1.141   2.455   0.043  1.1426 -0.7214 -0.7333
 1599SOL    HW3 6163   1.129   2.582  -0.038 -0.3525  0.4148  1.1880
 1599SOL    MW4 6164   1.176   2.530   0.013  0.4361 -0.0791 -0.0018
 1600SOL     OW 6165   2.470   4.795   0.929  0.2747 -0.1067 -0.0196
 1600SOL    HW2 6166   2.480   4.802   1.024 -0.1504 -2.4229  0.2604
 1600SOL    HW3 6167   2.556   4.817   0.894  0.5483  0.3935  0.9178
 1600SOL    MW4 6168   2.483   4.799   0.937  0.2547 -0.3463  0.1410
 1601SOL     OW 6169   6.282   4.527   2.776  0.3630 -0.3730 -0.0469
 1601SOL    HW2 6170   6.309   4.553   2.688  0.7791 -0.2068  0.1251
 1601SOL    HW3 6171   6.320   4.439   2.788  1.3756  0.1133  0.4263
 1601SOL    MW4 6172   6.290   4.518   2.766  0.5515 -0.2869  0.0382
 1602SOL     OW 6173   5.359   4.516   3.397  0.0887 -0.1036  0.7997
 1602SOL    HW2 6174   5.279   4.539   3.445 -1.4380  1.4177 -2.1840
 1602SOL    HW3 6175   5.426   4.574   3.433 -0.1994 -1.0315  2.9936
 1602SOL    MW4 6176   5.357   4.527   3.408 -0.1508 -0.0253  0.6955
 1603SOL     OW 6177   6.099   5.492   4.217 -0.1726  0.2644  0.0763
 1603SOL    HW2 6178   6.080   5.575   4.174  0.7690  0.2629 -0.3688
 1603SOL    HW3 6179   6.034   5.486   4.288 -0.9616  0.8398 -0.5740
 1603SOL    MW4 6180   6.088   5.502   4.221 -0.1525  0.3401 -0.0682
 1604SOL     OW 6181   2.974   1.193   5.311 -0.0891 -0.3717  0.1552
 1604SOL    HW2 6182   3.054   1.244   5.306  0.2719 -0.8498  0.8131
 1604SOL    HW3 6183   2.957   1.186   5.405 -0.0085 -1.6383  0.0858
 1604SOL    MW4 6184   2.982   1.199   5.323 -0.0309 -0.6019  0.2328
 1605SOL     OW 6185   1.736   5.247   4.500  0.0259 -0.0076  0.6608
 1605SOL    HW2 6186   1.676   5.271   4.429 -0.4499  1.9815  1.6876
 1605SOL    HW3 6187   1.683   5.192   4.558  0.6732 -2.4583 -0.8832
 1605SOL    MW4 6188   1.721   5.243   4.498  0.0485 -0.0685  0.5926
 1606SOL     OW 6189   6.024   0.473   2.561  0.7226 -0.7540 -0.9248
 1606SOL    HW2 6190   6.028   0.471   2.466  2.3385  2.9328 -1.1110
 1606SOL    HW3 6191   6.115   0.459   2.589  0.7524  0.7277 -0.1471
 1606SOL    MW4 6192   6.037   0.471   2.552  0.9398 -0.0721 -0.8467
 1607SOL     OW 6193   2.386   1.991   2.219  0.3028 -0.6099 -0.7934
 1607SOL    HW2 6194   2.344   1.911   2.188 -0.8362 -0.7108  0.9263
 1607SOL    HW3 6195   2.408   1.974   2.310  0.3458  0.9059 -0.4869
 1607SOL    MW4 6196   2.384   1.979   2.227  0.1582 -0.4232 -0.5261
 1608SOL     OW 6197   0.381   0.117   5.813  0.0165 -0.0200  0.0194
 1608SOL    HW2 6198   0.299   0.153   5.845 -0.2579  0.2475 -0.9482
 1608SOL    HW3 6199   0.446   0.145   5.877 -0.4985  0.5851  0.2861
 1608SOL    MW4 6200   0.379   0.125   5.825 -0.0876  0.0952 -0.0731
 1609SOL     OW 6201   3.843   4.899   0.577 -0.0325  0.6510  0.9065
 1609SOL    HW2 6202   3.879   4.955   0.647  1.4533  2.1691 -0.9655
 1609SOL    HW3 6203   3.858   4.949   0.497 -0.6103 -1.5471 -0.6474
 1609SOL    MW4 6204   3.850   4.913   0.576  0.0873  0.5613  0.4545
 1610SOL     OW 6205   4.074   5.220   6.378  0.2693 -0.4019  0.4650
 1610SOL    HW2 6206   4.024   5.141   6.356 -1.2949  0.3889  0.9942
 1610SOL    HW3 6207   4.159   5.187   6.407 -0.8535 -2.0360  2.1598
 1610SOL    MW4 6208   4.078   5.205   6.379 -0.0852 -0.5132  0.7584
 1611SOL     OW 6209   5.099   2.315   5.674 -0.0791 -0.0937 -0.4517
 1611SOL    HW2 6210   5.103   2.316   5.769 -3.6129  2.6256 -0.1046
 1611SOL    HW3 6211   5.024   2.258   5.654  0.6756 -0.7029 -1.6342
 1611SOL    MW4 6212   5.089   2.308   5.684 -0.4458  0.1847 -0.5619
 1612SOL     OW 6213   3.268   0.919   2.523  0.7393 -0.0501  0.4580
 1612SOL    HW2 6214   3.176   0.936   2.500  1.3282  1.8099 -0.7223
 1612SOL    HW3 6215   3.288   0.836   2.480 -0.5913 -0.9032  1.3981
 1612SOL    MW4 6216   3.258   0.911   2.514  0.6414  0.0828  0.4263
 1613SOL     OW 6217   2.288   6.323   1.250  0.0306  0.0243 -0.3360
 1613SOL    HW2 6218   2.350   6.359   1.187 -1.1756  0.1693 -1.4864
 1613SOL    HW3 6219   2.322   6.236   1.270  0.3116 -0.1098 -1.3618
 1613SOL    MW4 6220   2.301   6.317   1.245 -0.0915  0.0257 -0.6231
 1614SOL     OW 6221   0.397   1.788   4.230  0.5042  0.7992 -0.0065
 1614SOL    HW2 6222   0.370   1.696   4.238 -1.5223  1.4184  0.9828
 1614SOL    HW3 6223   0.383   1.809   4.137  0.4228  0.2739 -0.1182
 1614SOL    MW4 6224   0.391   1.779   4.219  0.2261  0.8116  0.1093
 1615SOL     OW 6225   3.089   3.633   5.455 -0.0270 -0.6081 -0.2283
 1615SOL    HW2 6226   3.019   3.584   5.412  1.1160 -1.6736 -0.9202
 1615SOL    HW3 6227   3.161   3.632   5.393  0.6992  0.2863  0.5677
 1615SOL    MW4 6228   3.089   3.627   5.442  0.2196 -0.6307 -0.2146
 1616SOL     OW 6229   5.228   3.704   0.378  0.0156 -0.0779 -0.1397
 1616SOL    HW2 6230   5.282   3.626   0.389 -0.7598 -0.8441 -1.4193
 1616SOL    HW3 6231   5.200   3.701   0.286  2.1174  3.1521 -1.0697
 1616SOL    MW4 6232   5.231   3.693   0.367  0.1906  0.2472 -0.4312
 1617SOL     OW 6233   5.885   5.373   2.120  0.4091  0.2450  0.0923
 1617SOL    HW2 6234   5.819   5.423   2.072 -0.4431 -1.0615 -0.1157
 1617SOL    HW3 6235   5.837   5.327   2.188  0.7693 -2.1040 -1.1349
 1617SOL    MW4 6236   5.870   5.374   2.122  0.3442 -0.2373 -0.0971
 1618SOL     OW 6237   4.990   0.433   5.083 -0.8498 -0.3245 -0.6877
 1618SOL    HW2 6238   5.030   0.348   5.062 -2.6500 -0.6226 -3.4306
 1618SOL    HW3 6239   4.916   0.411   5.140 -1.8037 -0.7892 -2.0370
 1618SOL    MW4 6240   4.985   0.419   5.087 -1.2131 -0.4251 -1.2276
 1619SOL     OW 6241   2.119   0.866   6.222 -0.2725 -0.4869  0.4567
 1619SOL    HW2 6242   2.149   0.944   6.175  0.5189 -0.4064  1.0952
 1619SOL    HW3 6243   2.190   0.844   6.281  0.1792 -2.6200 -0.7942
 1619SOL    MW4 6244   2.132   0.874   6.223 -0.1085 -0.7578  0.3759
 1620SOL     OW 6245   5.421   2.758   1.839 -0.0218  0.1908 -0.1309
 1620SOL    HW2 6246   5.494   2.791   1.892 -0.5474  0.6143  0.3411
 1620SOL    HW3 6247   5.343   2.779   1.891 -0.3347 -4.0143  1.4784
 1620SOL    MW4 6248   5.420   2.765   1.853 -0.1324 -0.3081  0.1437
 1621SOL     OW 6249   2.519   1.439   0.812  0.2159  0.1916 -0.2379
 1621SOL    HW2 6250   2.497   1.474   0.898 -0.8629 -1.4306  0.1853
 1621SOL    HW3 6251   2.581   1.368   0.830 -2.3766 -2.2758 -0.4073
 1621SOL    MW4 6252   2.525   1.434   0.826 -0.2685 -0.3480 -0.2044
 1622SOL     OW 6253   5.613   5.494   5.787 -0.0562 -0.2673 -0.1399
 1622SOL    HW2 6254   5.639   5.403   5.802  0.1028 -0.1384  0.3937
 1622SOL    HW3 6255   5.689   5.535   5.747 -0.3433 -0.5161 -0.9583
 1622SOL    MW4 6256   5.626   5.487   5.784 -0.0731 -0.2831 -0.1774
 1623SOL     OW 6257   4.608   5.407   6.378 -0.3910 -0.2687  0.0671
 1623SOL    HW2 6258   4.676   5.435   6.317  0.1831 -1.0087  0.3618
 1623SOL    HW3 6259   4.618   5.312   6.383 -0.9784 -0.3030  0.6763
 1623SOL    MW4 6260   4.618   5.399   6.370 -0.3928 -0.3708  0.1863
 1624SOL     OW 6261   0.077   0.802   1.048 -0.1041  0.0226 -0.0746
 1624SOL    HW2 6262   0.047   0.775   1.134 -0.8657  1.2997  0.0895
 1624SOL    HW3 6263   0.027   0.882   1.029 -0.7733 -0.8121 -2.1668
 1624SOL    MW4 6264   0.066   0.809   1.057 -0.2929  0.0809 -0.3290
 1625SOL     OW 6265   5.841   2.988   0.463  0.2858  0.4063 -0.0165
 1625SOL    HW2 6266   5.932   2.965   0.450 -0.1083 -1.0990 -0.2762
 1625SOL    HW3 6267   5.799   2.907   0.493 -0.9575  1.0696  0.1197
 1625SOL    MW4 6268   5.847   2.975   0.466  0.0697  0.2952 -0.0328
 1626SOL     OW 6269   0.004   4.552   2.536  0.0532 -0.2170 -0.2949
 1626SOL    HW2 6270   0.021   4.623   2.474  2.1033 -0.9522 -0.6574
 1626SOL    HW3 6271  -0.032   4.481   2.483 -0.8988  0.1349 -0.1313
 1626SOL    MW4 6272   0.001   4.552   2.521  0.1981 -0.2676 -0.3211
 1627SOL     OW 6273   4.916   5.054   5.809  0.1814 -0.4592 -0.0897
 1627SOL    HW2 6274   4.884   5.139   5.838  1.4626 -0.1300  0.4345
 1627SOL    HW3 6275   4.913   5.058   5.714 -1.1859 -0.4127 -0.0706
 1627SOL    MW4 6276   4.911   5.066   5.800  0.1701 -0.4096 -0.0180
 1628SOL     OW 6277   5.901   6.036   2.694 -0.2191 -0.6079 -0.2860
 1628SOL    HW2 6278   5.876   6.127   2.677  2.0941  0.0985 -0.2470
 1628SOL    HW3 6279   5.913   6.031   2.788 -0.6412 -1.0517 -0.2502
 1628SOL    MW4 6280   5.900   6.047   2.704  0.0304 -0.5733 -0.2761
 1629SOL     OW 6281   1.691   4.681   0.057 -0.7393  0.0700  0.3171
 1629SOL    HW2 6282   1.685   4.623  -0.020  0.7296  1.6455 -1.0633
 1629SOL    HW3 6283   1.609   4.730   0.056 -1.8665 -1.6896  1.3215
 1629SOL    MW4 6284   1.679   4.680   0.047 -0.6942  0.0457  0.2675
 1630SOL     OW 6285   2.481   4.777   5.139  0.3030  0.6189 -0.0730
 1630SOL    HW2 6286   2.392   4.805   5.119  0.6866  2.3990  0.5899
 1630SOL    HW3 6287   2.472   4.685   5.164 -1.3004  0.7074 -0.2365
 1630SOL    MW4 6288   2.468   4.768   5.139  0.1420  0.8654 -0.0071
 1631SOL     OW 6289   2.923   3.859   3.308  0.2125  0.4248 -0.0795
 1631SOL    HW2 6290   3.000   3.879   3.362  1.0425 -0.6705 -0.8027
 1631SOL    HW3 6291   2.914   3.764   3.315 -0.9531  0.5209 -0.1956
 1631SOL    MW4 6292   2.932   3.849   3.316  0.1682  0.2929 -0.1903
 1632SOL     OW 6293   5.451   1.010   0.639 -0.1048 -0.0551  0.4380
 1632SOL    HW2 6294   5.479   1.092   0.680 -0.3126  0.4564 -0.4185
 1632SOL    HW3 6295   5.371   0.987   0.686 -1.8192  1.8998 -1.2668
 1632SOL    MW4 6296   5.444   1.018   0.650 -0.3584  0.2703  0.1001
 1633SOL     OW 6297   1.250   0.005   2.513 -0.0233  0.5350  0.1031
 1633SOL    HW2 6298   1.311  -0.062   2.481 -0.7485 -0.2126  0.2473
 1633SOL    HW3 6299   1.201   0.032   2.435 -0.9290 -0.3766  0.3468
 1633SOL    MW4 6300   1.252   0.000   2.498 -0.2385  0.3161  0.1543
 1634SOL     OW 6301   4.795   5.582   6.277 -0.4119  0.1551  0.4780
 1634SOL    HW2 6302   4.833   5.631   6.351 -2.9228  0.8549  1.4071
 1634SOL    HW3 6303   4.814   5.636   6.201 -0.6230  1.1088  1.0826
 1634SOL    MW4 6304   4.803   5.596   6.277 -0.7711  0.3733  0.6804
 1635SOL     OW 6305   2.594   5.389   5.027 -0.6193 -0.6126  0.1294
 1635SOL    HW2 6306   2.515   5.435   5.057 -0.3368 -0.8925  1.3147
 1635SOL    HW3 6307   2.593   5.402   4.932 -0.0932  2.6438  0.4390
 1635SOL    MW4 6308   2.583   5.397   5.018 -0.5126 -0.2199  0.3266
 1636SOL     OW 6309   5.607   1.445   6.243 -0.1206  0.9221  0.2936
 1636SOL    HW2 6310   5.527   1.475   6.201 -0.3291  0.4838  0.3713
 1636SOL    HW3 6311   5.668   1.429   6.170 -1.1313 -1.8065 -0.0829
 1636SOL    MW4 6312   5.605   1.447   6.228 -0.2814  0.5042  0.2541
 1637SOL     OW 6313   6.111   3.721   4.476 -0.8799 -0.4218  0.1706
 1637SOL    HW2 6314   6.126   3.753   4.565 -1.6207 -0.2327  0.2324
 1637SOL    HW3 6315   6.120   3.798   4.421  0.1620 -0.6483  0.0133
 1637SOL    MW4 6316   6.114   3.735   4.481 -0.8402 -0.4268  0.1580
 1638SOL     OW 6317   2.515   2.889   6.060 -0.2033  0.9328 -0.0128
 1638SOL    HW2 6318   2.497   2.974   6.101 -1.9609  1.1380 -1.1060
 1638SOL    HW3 6319   2.598   2.860   6.099 -0.4232  2.3653  1.6048
 1638SOL    MW4 6320   2.524   2.897   6.070 -0.4642  1.1489  0.0564
 1639SOL     OW 6321   2.520   1.100   5.336 -0.0768 -0.0053 -0.1502
 1639SOL    HW2 6322   2.568   1.139   5.410 -0.7128  0.8406 -0.1779
 1639SOL    HW3 6323   2.579   1.031   5.305  1.3117  1.2213 -0.3992
 1639SOL    MW4 6324   2.534   1.096   5.342  0.0225  0.2682 -0.1867
 1640SOL     OW 6325   2.442   1.904   6.075  0.5572 -0.4380 -0.1129
 1640SOL    HW2 6326   2.525   1.860   6.095 -0.5925 -2.1900  1.1139
 1640SOL    HW3 6327   2.401   1.849   6.009  0.0615  0.0312 -0.2008
 1640SOL    MW4 6328   2.448   1.891   6.069  0.3401 -0.6073  0.0374
 1641SOL     OW 6329   5.666   0.162   2.662  0.4405  0.1056  0.4414
 1641SOL    HW2 6330   5.618   0.171   2.744  2.7405 -1.2251  2.0618
 1641SOL    HW3 6331   5.757   0.182   2.685  1.2730 -0.9667 -1.6118
 1641SOL    MW4 6332   5.672   0.166   2.676  0.8538 -0.2115  0.3843
 1642SOL     OW 6333   6.215   1.948   3.597  0.1690  0.7136 -0.4014
 1642SOL    HW2 6334   6.163   1.868   3.605  1.3588  0.0556  1.3418
 1642SOL    HW3 6335   6.176   2.008   3.660  0.2391  0.9467 -0.5798
 1642SOL    MW4 6336   6.203   1.945   3.606  0.3352  0.6575 -0.1950
 1643SOL     OW 6337   3.751   4.941   0.125  0.3790  0.0961 -0.2333
 1643SOL    HW2 6338   3.801   4.972   0.201 -0.7745  0.2004  0.5025
 1643SOL    HW3 6339   3.755   4.845   0.133  1.0845  0.0840 -0.6101
 1643SOL    MW4 6340   3.758   4.932   0.136  0.3199  0.1083 -0.1860
 1644SOL     OW 6341   5.970   0.749   5.064  0.0972 -0.1057 -0.0839
 1644SOL    HW2 6342   5.892   0.791   5.099  0.6432  0.6859  0.2100
 1644SOL    HW3 6343   6.042   0.809   5.085  0.5321  0.1291 -2.0256
 1644SOL    MW4 6344   5.969   0.763   5.071  0.2266  0.0297 -0.3013
 1645SOL     OW 6345   6.140   2.088   2.746  0.1481 -0.0521 -0.1180
 1645SOL    HW2 6346   6.070   2.023   2.755  0.5103 -0.4567 -0.1865
 1645SOL    HW3 6347   6.167   2.082   2.654  0.3101  0.0613 -0.0784
 1645SOL    MW4 6348   6.135   2.079   2.735  0.2173 -0.0905 -0.1218
 1646SOL     OW 6349   5.702   2.472   5.893  0.0602 -0.1796  0.1007
 1646SOL    HW2 6350   5.620   2.441   5.853  0.5878  0.3791 -1.4649
 1646SOL    HW3 6351   5.749   2.391   5.915 -0.5926 -0.5008  0.3699
 1646SOL    MW4 6352   5.697   2.457   5.891  0.0437 -0.1482 -0.0703
 1647SOL     OW 6353   0.715   3.932   2.119 -0.0066 -0.5094  0.9453
 1647SOL    HW2 6354   0.795   3.979   2.144  0.4710 -0.7461 -0.0832
 1647SOL    HW3 6355   0.649   4.000   2.110  1.1810  0.3611 -2.6686
 1647SOL    MW4 6356   0.717   3.947   2.121  0.2131 -0.4258  0.3328
 1648SOL     OW 6357   4.578   4.219   4.992  0.3275 -0.0644  0.0999
 1648SOL    HW2 6358   4.538   4.180   4.915  0.6719 -0.9218  0.3463
 1648SOL    HW3 6359   4.664   4.176   4.999  0.5585  0.4631  0.5958
 1648SOL    MW4 6360   4.584   4.208   4.983  0.4034 -0.1079  0.1978
 1649SOL     OW 6361   4.144   5.031   3.017 -0.4437  0.4397  0.2002
 1649SOL    HW2 6362   4.156   4.976   3.094  0.2724 -0.3418 -0.4419
 1649SOL    HW3 6363   4.059   5.073   3.030 -1.4208 -1.4693  0.3548
 1649SOL    MW4 6364   4.134   5.029   3.029 -0.4782  0.0847  0.1359
 1650SOL     OW 6365   1.794   4.111   2.203  0.1373  0.8803  0.5977
 1650SOL    HW2 6366   1.814   4.157   2.284  0.1754  0.7531  0.6601
 1650SOL    HW3 6367   1.745   4.033   2.230 -0.3300  1.1213  0.4537
 1650SOL    MW4 6368   1.790   4.107   2.217  0.0807  0.8953  0.5869
 1651SOL     OW 6369   0.770   5.842   1.715 -0.3061 -0.1129  0.6314
 1651SOL    HW2 6370   0.763   5.827   1.809  1.5782  1.1054  1.0165
 1651SOL    HW3 6371   0.838   5.909   1.706 -2.4192  1.9210 -1.4407
 1651SOL    MW4 6372   0.778   5.849   1.726 -0.3363  0.3162  0.4088
 1652SOL     OW 6373   4.112   0.592   3.470 -0.0665 -0.2687  0.4068
 1652SOL    HW2 6374   4.156   0.595   3.386  3.1701 -0.5864  1.9335
 1652SOL    HW3 6375   4.019   0.603   3.450  0.5300 -0.8150 -3.1830
 1652SOL    MW4 6376   4.106   0.594   3.456  0.4392 -0.3827  0.1346
 1653SOL     OW 6377   5.824   1.241   4.122  0.1803 -0.1858 -0.5987
 1653SOL    HW2 6378   5.790   1.192   4.198  0.2357 -0.3332 -0.6686
 1653SOL    HW3 6379   5.852   1.173   4.061 -2.1468 -0.1501 -1.8393
 1653SOL    MW4 6380   5.823   1.226   4.124 -0.1194 -0.2006 -0.7716
 1654SOL     OW 6381   6.248   2.020   3.969  0.1596  0.3264  0.2365
 1654SOL    HW2 6382   6.178   2.049   3.911 -0.1141 -0.2344  0.2787
 1654SOL    HW3 6383   6.248   2.083   4.041 -0.6305  0.0474  0.4899
 1654SOL    MW4 6384   6.239   2.032   3.971  0.0192  0.2156  0.2755
 1655SOL     OW 6385   1.505   2.458   1.505 -0.7976  0.1692  0.4208
 1655SOL    HW2 6386   1.549   2.498   1.430 -0.9300 -0.3947  0.0341
 1655SOL    HW3 6387   1.479   2.372   1.474  0.4848 -0.6872  1.5737
 1655SOL    MW4 6388   1.508   2.452   1.491 -0.6459 -0.0182  0.5219
 1656SOL     OW 6389   4.478   5.005   1.687  0.0632  0.0033  0.1914
 1656SOL    HW2 6390   4.512   4.996   1.776 -0.4451  1.2386  0.5334
 1656SOL    HW3 6391   4.488   4.919   1.648 -0.1306 -0.6763  1.6037
 1656SOL    MW4 6392   4.484   4.993   1.694 -0.0295  0.0766  0.4229
 1657SOL     OW 6393   3.432   0.769   0.870  0.1615 -0.0784 -0.1556
 1657SOL    HW2 6394   3.465   0.780   0.959  0.1898 -2.7258  0.2589
 1657SOL    HW3 6395   3.342   0.739   0.881 -0.7809  2.1807 -1.1560
 1657SOL    MW4 6396   3.425   0.766   0.883  0.0409 -0.1296 -0.2329
 1658SOL     OW 6397   2.761   3.907   2.752  0.6888  0.1354 -0.0875
 1658SOL    HW2 6398   2.701   3.959   2.806 -0.3312  0.9329 -1.9127
 1658SOL    HW3 6399   2.789   3.966   2.683  1.5140 -1.0262 -0.7817
 1658SOL    MW4 6400   2.757   3.922   2.750  0.6631  0.0874 -0.4199
 1659SOL     OW 6401   0.751   2.185   2.939 -0.1182 -0.0045  0.1500
 1659SOL    HW2 6402   0.669   2.143   2.912  0.0429 -0.0741 -0.2293
 1659SOL    HW3 6403   0.782   2.133   3.013 -0.9004  0.5683  0.9061
 1659SOL    MW4 6404   0.744   2.173   2.946 -0.2001  0.0619  0.1997
 1660SOL     OW 6405   4.737   5.418   4.214  0.2518  0.2932 -0.1134
 1660SOL    HW2 6406   4.747   5.509   4.187  0.9160 -0.4802 -2.7764
 1660SOL    HW3 6407   4.649   5.413   4.250 -0.1146  1.8067 -0.7203
 1660SOL    MW4 6408   4.727   5.429   4.215  0.2911  0.3908 -0.5448
 1661SOL     OW 6409   3.003   1.537   5.037 -0.0613  0.8267 -0.3961
 1661SOL    HW2 6410   3.070   1.574   4.980  0.7950 -0.2365 -0.1236
 1661SOL    HW3 6411   2.999   1.597   5.112 -0.4466  1.6567 -1.0685
 1661SOL    MW4 6412   3.011   1.550   5.040  0.0008  0.7959 -0.4489
 1662SOL     OW 6413   6.262   4.033   1.575 -0.0364 -0.0462 -0.0482
 1662SOL    HW2 6414   6.256   3.966   1.507 -0.8146  0.1911 -0.2222
 1662SOL    HW3 6415   6.341   4.083   1.553  0.1974 -0.5138 -0.2721
 1662SOL    MW4 6416   6.272   4.031   1.563 -0.1082 -0.0766 -0.1007
 1663SOL     OW 6417   5.409   0.077   1.502 -0.3358  0.0740 -0.1635
 1663SOL    HW2 6418   5.381   0.043   1.417  0.2967  1.4939 -0.9748
 1663SOL    HW3 6419   5.435   0.000   1.552  2.0621 -0.6017 -2.2779
 1663SOL    MW4 6420   5.408   0.063   1.497  0.0640  0.1722 -0.5495
 1664SOL     OW 6421   5.394   5.681   5.835  0.4437  0.1978 -0.4661
 1664SOL    HW2 6422   5.442   5.600   5.845  2.4300  1.5827  3.0976
 1664SOL    HW3 6423   5.316   5.670   5.890  3.0254  1.9849  4.1946
 1664SOL    MW4 6424   5.390   5.669   5.844  1.0464  0.6163  0.6190
 1665SOL     OW 6425   0.754   5.105   2.134 -0.3001 -0.0995  0.1907
 1665SOL    HW2 6426   0.811   5.042   2.178 -0.0112  0.9868  1.4533
 1665SOL    HW3 6427   0.777   5.189   2.174 -0.6285  0.8254 -1.4839
 1665SOL    MW4 6428   0.765   5.108   2.145 -0.3053  0.1659  0.1364
 1666SOL     OW 6429   3.014   2.666   0.932  0.4811  0.7127 -0.2050
 1666SOL    HW2 6430   3.094   2.655   0.984 -0.4334  2.3370  1.6607
 1666SOL    HW3 6431   2.968   2.739   0.974 -0.1232  2.4775 -3.5557
 1666SOL    MW4 6432   3.019   2.674   0.944  0.2807  1.1599 -0.4009
 1667SOL     OW 6433   3.937   3.797   1.860 -0.4006  0.2276  0.0253
 1667SOL    HW2 6434   3.943   3.755   1.946 -2.6709  0.1906  0.2255
 1667SOL    HW3 6435   3.936   3.891   1.880  0.2827  0.2626 -0.0780
 1667SOL    MW4 6436   3.937   3.804   1.874 -0.6100  0.2273  0.0381
 1668SOL     OW 6437   2.442   0.740   1.854  0.5379 -0.0809  0.0168
 1668SOL    HW2 6438   2.437   0.663   1.910  1.0355 -0.8448 -0.9612
 1668SOL    HW3 6439   2.520   0.726   1.800 -0.1385  0.4251 -1.1464
 1668SOL    MW4 6440   2.451   0.728   1.854  0.5143 -0.1149 -0.2657
 1669SOL     OW 6441   4.275   0.123   2.744 -0.1146 -0.5591 -0.4482
 1669SOL    HW2 6442   4.290   0.100   2.653  0.0825  4.2055 -1.8841
 1669SOL    HW3 6443   4.183   0.152   2.747  0.0068 -0.2198  0.7296
 1669SOL    MW4 6444   4.265   0.124   2.732 -0.0726  0.1143 -0.4823
 1670SOL     OW 6445   3.006   0.580   4.347  0.6598 -0.1277  0.2042
 1670SOL    HW2 6446   2.945   0.651   4.366  1.2641  0.5662 -0.3732
 1670SOL    HW3 6447   3.025   0.541   4.433 -2.6503 -2.1766  0.2041
 1670SOL    MW4 6448   3.001   0.584   4.361  0.3028 -0.3065  0.1280
 1671SOL     OW 6449   5.919   1.510   4.165 -0.2770  0.5611 -0.0942
 1671SOL    HW2 6450   5.894   1.423   4.134  0.3328 -0.0862  1.1335
 1671SOL    HW3 6451   6.015   1.509   4.166 -0.2653  1.2359 -0.0436
 1671SOL    MW4 6452   5.928   1.498   4.161 -0.1950  0.5647  0.0744
 1672SOL     OW 6453   2.810   4.102   2.575  0.1747 -0.0787  0.2086
 1672SOL    HW2 6454   2.780   4.182   2.619 -1.3715 -0.0526 -0.8174
 1672SOL    HW3 6455   2.787   4.114   2.483 -1.9235 -2.4658  0.3071
 1672SOL    MW4 6456   2.803   4.114   2.569 -0.3061 -0.3902  0.0862
 1673SOL     OW 6457   5.766   0.447   0.575 -0.0515 -0.0869 -0.6204
 1673SOL    HW2 6458   5.791   0.528   0.620 -0.3718  0.7653 -1.9117
 1673SOL    HW3 6459   5.673   0.437   0.594 -0.1007  0.0700 -0.7703
 1673SOL    MW4 6460   5.757   0.457   0.583 -0.1003  0.0462 -0.8106
 1674SOL     OW 6461   1.225   4.833   1.652  0.0234 -0.4585  0.1435
 1674SOL    HW2 6462   1.227   4.741   1.678 -0.7906 -1.2714 -2.4027
 1674SOL    HW3 6463   1.158   4.837   1.584  0.2006  1.9988  0.0356
 1674SOL    MW4 6464   1.217   4.821   1.647 -0.0606 -0.2416 -0.2067
 1675SOL     OW 6465   2.885   1.870   0.312  0.0383  0.3758  0.5205
 1675SOL    HW2 6466   2.873   1.783   0.274  1.0208  0.3231  0.3182
 1675SOL    HW3 6467   2.922   1.854   0.399  0.6622  0.6020  0.3015
 1675SOL    MW4 6468   2.888   1.857   0.318  0.2502  0.3987  0.4649
 1676SOL     OW 6469   3.997   5.710   3.399  0.1805  0.5252 -0.5061
 1676SOL    HW2 6470   4.019   5.633   3.452 -0.9768  0.1170 -0.5828
 1676SOL    HW3 6471   4.081   5.744   3.369  0.9651  1.3522  2.3880
 1676SOL    MW4 6472   4.011   5.704   3.402  0.1314  0.5805 -0.1344
 1677SOL     OW 6473   0.560   6.152   2.328 -0.5398 -0.0156 -0.0760
 1677SOL    HW2 6474   0.513   6.119   2.251 -2.1892 -0.9699  1.2562
 1677SOL    HW3 6475   0.626   6.085   2.345 -0.1787  0.1898 -0.6471
 1677SOL    MW4 6476   0.562   6.139   2.320 -0.7098 -0.1144  0.0244
 1678SOL     OW 6477   4.388   4.373   3.162 -0.8700  0.2880  0.2172
 1678SOL    HW2 6478   4.302   4.389   3.202 -0.8588 -0.3569  0.5166
 1678SOL    HW3 6479   4.383   4.416   3.077 -1.8101 -0.4491 -0.1326
 1678SOL    MW4 6480   4.376   4.380   3.156 -0.9926  0.1057  0.2106
 1679SOL     OW 6481   5.340   5.170   4.002 -0.2119 -0.5402 -0.4417
 1679SOL    HW2 6482   5.255   5.169   4.045  0.4846  1.5763  1.1591
 1679SOL    HW3 6483   5.389   5.100   4.044 -0.0470  0.5247  1.2136
 1679SOL    MW4 6484   5.335   5.160   4.013 -0.0982 -0.1204 -0.0121
 1680SOL     OW 6485   2.177   0.821   5.183 -0.0180  0.4026 -0.0008
 1680SOL    HW2 6486   2.181   0.822   5.278  0.9055 -0.8044 -0.0105
 1680SOL    HW3 6487   2.088   0.793   5.162 -0.4042  1.2317  0.4842
 1680SOL    MW4 6488   2.166   0.818   5.193  0.0529  0.3528  0.0619
 1681SOL     OW 6489   1.679   5.795   2.181 -0.0052  0.5096  0.3329
 1681SOL    HW2 6490   1.767   5.824   2.155 -0.6424 -0.4934 -3.6849
 1681SOL    HW3 6491   1.623   5.871   2.165 -0.1467  0.5939  1.1736
 1681SOL    MW4 6492   1.684   5.809   2.175 -0.1080  0.3883 -0.0863
 1682SOL     OW 6493   3.493   2.089   2.646  0.3059 -0.0023 -0.3135
 1682SOL    HW2 6494   3.421   2.034   2.676 -0.6732  0.7872 -1.1358
 1682SOL    HW3 6495   3.470   2.111   2.556  1.4916  0.4256 -0.5328
 1682SOL    MW4 6496   3.481   2.085   2.638  0.3332  0.1584 -0.4509
 1683SOL     OW 6497   2.025   3.964   1.442 -0.2001 -0.3659  0.0609
 1683SOL    HW2 6498   2.028   3.870   1.459 -0.1160 -0.5482 -0.9030
 1683SOL    HW3 6499   2.085   3.977   1.368  0.0241  0.4911  0.3829
 1683SOL    MW4 6500   2.033   3.954   1.435 -0.1594 -0.2769 -0.0238
 1684SOL     OW 6501   3.564   2.665   2.930 -0.6368 -0.2300  0.3024
 1684SOL    HW2 6502   3.567   2.569   2.927 -2.4015 -0.2923 -0.5588
 1684SOL    HW3 6503   3.579   2.686   3.022 -0.0675 -1.3039  0.4821
 1684SOL    MW4 6504   3.567   2.655   2.941 -0.7946 -0.3799  0.2125
 1685SOL     OW 6505   2.047   2.468   0.443  0.2787 -0.0991 -0.0593
 1685SOL    HW2 6506   2.089   2.507   0.519 -0.0566  0.2894 -0.0670
 1685SOL    HW3 6507   2.096   2.501   0.368 -0.0148  0.3248 -0.0666
 1685SOL    MW4 6508   2.059   2.477   0.443  0.1957  0.0081 -0.0613
 1686SOL     OW 6509   3.662   5.910   4.157  0.2788  0.2570 -0.1281
 1686SOL    HW2 6510   3.576   5.923   4.118  0.0778 -0.8825 -0.1007
 1686SOL    HW3 6511   3.720   5.969   4.109 -1.0087  3.4636  1.8834
 1686SOL    MW4 6512   3.658   5.919   4.146  0.0824  0.5297  0.1409
 1687SOL     OW 6513   4.350   0.278   4.938  0.2585 -0.3948 -0.1649
 1687SOL    HW2 6514   4.353   0.214   4.867  2.3589  0.2172 -0.6990
 1687SOL    HW3 6515   4.388   0.358   4.900 -0.7968  0.6797  0.9533
 1687SOL    MW4 6516   4.356   0.280   4.924  0.3964 -0.1723 -0.0879
 1688SOL     OW 6517   0.733   5.543   4.889  0.3709 -0.3833 -0.1303
 1688SOL    HW2 6518   0.656   5.580   4.932  1.0313 -0.8598  1.5354
 1688SOL    HW3 6519   0.766   5.477   4.950  3.0203  0.9077 -0.0264
 1688SOL    MW4 6520   0.728   5.539   4.903  0.8076 -0.2758  0.1031
 1689SOL     OW 6521   3.137   6.258   1.811  0.3093 -0.0343  0.1658
 1689SOL    HW2 6522   3.070   6.257   1.743  0.5918 -1.1571 -0.1181
 1689SOL    HW3 6523   3.121   6.179   1.862  0.9028  0.1203  0.6092
 1689SOL    MW4 6524   3.126   6.248   1.809  0.4249 -0.1621  0.1868
 1690SOL     OW 6525   4.207   0.696   4.507  0.3022 -0.1306 -0.1200
 1690SOL    HW2 6526   4.235   0.606   4.523 -2.6212 -1.1252 -0.0042
 1690SOL    HW3 6527   4.220   0.709   4.413  0.3818 -0.8190 -0.2083
 1690SOL    MW4 6528   4.213   0.686   4.497 -0.0730 -0.3527 -0.1164
 1691SOL     OW 6529   1.471   0.183   5.488  0.0625 -0.0487  0.2236
 1691SOL    HW2 6530   1.379   0.160   5.480 -0.2292  1.2007 -0.1541
 1691SOL    HW3 6531   1.511   0.148   5.408 -0.2482  0.1834 -0.0349
 1691SOL    MW4 6532   1.464   0.175   5.477 -0.0170  0.1467  0.1397
 1692SOL     OW 6533   5.071   2.854   5.012  0.0260  0.6614  0.7019
 1692SOL    HW2 6534   5.163   2.870   4.990  0.4011 -0.6638  1.2490
 1692SOL    HW3 6535   5.048   2.775   4.963 -1.1837  1.6068 -0.3425
 1692SOL    MW4 6536   5.080   2.846   5.002 -0.0841  0.6113  0.6363
 1693SOL     OW 6537   4.931   5.457   3.970  0.5286  0.0826  0.3770
 1693SOL    HW2 6538   5.019   5.454   3.933  0.5287 -0.8140  0.4268
 1693SOL    HW3 6539   4.882   5.391   3.922 -0.0617  0.4237  0.4983
 1693SOL    MW4 6540   4.936   5.448   3.959  0.4507  0.0093  0.3996
 1694SOL     OW 6541   0.473   2.338   1.849 -0.2405 -0.2072 -0.3774
 1694SOL    HW2 6542   0.475   2.415   1.906  0.1302  0.1284 -0.8341
 1694SOL    HW3 6543   0.473   2.373   1.761  0.7492 -0.7279 -0.6056
 1694SOL    MW4 6544   0.473   2.352   1.845 -0.0611 -0.2316 -0.4678
 1695SOL     OW 6545   1.681   4.345   5.580  0.3124  0.0167 -0.2907
 1695SOL    HW2 6546   1.676   4.282   5.652 -2.1318  0.6047  0.1513
 1695SOL    HW3 6547   1.611   4.407   5.598  1.5681  1.9296 -1.6178
 1695SOL    MW4 6548   1.671   4.345   5.592  0.1556  0.3467 -0.4074
 1696SOL     OW 6549   5.567   1.243   0.795  0.1801 -0.1237 -0.0182
 1696SOL    HW2 6550   5.496   1.298   0.829  1.6828  0.0335  3.2447
 1696SOL    HW3 6551   5.608   1.296   0.727 -1.0456  0.9859  0.0706
 1696SOL    MW4 6552   5.563   1.257   0.791  0.2167  0.0434  0.4240
 1697SOL     OW 6553   0.742   3.272   2.414  0.7951 -0.2284 -0.3208
 1697SOL    HW2 6554   0.689   3.226   2.349 -1.0931 -1.3663  1.8798
 1697SOL    HW3 6555   0.696   3.355   2.429  0.2982 -0.6679  0.6838
 1697SOL    MW4 6556   0.729   3.277   2.407  0.4804 -0.4365  0.1021
 1698SOL     OW 6557   0.451   1.422   0.887 -0.0040  0.1960 -0.3125
 1698SOL    HW2 6558   0.377   1.380   0.843 -1.4595 -0.3392  2.4280
 1698SOL    HW3 6559   0.412   1.463   0.964  2.7480 -1.6146  2.2258
 1698SOL    MW4 6560   0.436   1.422   0.891  0.1671 -0.1135  0.3840
 1699SOL     OW 6561   1.529   1.147   2.214 -0.0288  0.2235  0.1965
 1699SOL    HW2 6562   1.468   1.115   2.280  0.1102  0.0017  0.2202
 1699SOL    HW3 6563   1.483   1.218   2.170 -0.7336 -0.6281 -0.5020
 1699SOL    MW4 6564   1.515   1.152   2.217 -0.1034  0.0819  0.1075
 1700SOL     OW 6565   4.994   3.516   0.503 -0.3147  0.4507  0.0184
 1700SOL    HW2 6566   5.062   3.464   0.459 -2.1757 -1.0421 -1.2586
 1700SOL    HW3 6567   5.030   3.604   0.506  1.6627 -0.2645 -0.6194
 1700SOL    MW4 6568   5.008   3.520   0.498 -0.2993  0.1594 -0.2342
 1701SOL     OW 6569   3.276   4.304   5.255  0.5728  0.1336  0.0726
 1701SOL    HW2 6570   3.183   4.291   5.237  0.1543 -0.0911  2.2158
 1701SOL    HW3 6571   3.313   4.215   5.258  0.7446  0.1944 -0.1902
 1701SOL    MW4 6572   3.269   4.290   5.253  0.5403  0.1120  0.3207
 1702SOL     OW 6573   4.359   1.037   3.225 -0.4303 -0.2781  0.0026
 1702SOL    HW2 6574   4.442   1.024   3.178 -0.3698  0.5846 -0.1375
 1702SOL    HW3 6575   4.366   0.980   3.302  0.0679 -0.6111 -0.2789
 1702SOL    MW4 6576   4.371   1.028   3.229 -0.3566 -0.2082 -0.0530
 1703SOL     OW 6577   0.192   4.890   4.906  0.2919 -0.6959 -0.0132
 1703SOL    HW2 6578   0.187   4.954   4.834 -0.1686  0.8832  1.3563
 1703SOL    HW3 6579   0.280   4.901   4.941  0.2983 -1.0081  0.0673
 1703SOL    MW4 6580   0.203   4.900   4.901  0.2320 -0.5287  0.1781
 1704SOL     OW 6581   1.748   3.538   0.479  0.7024  0.7163  0.1783
 1704SOL    HW2 6582   1.675   3.597   0.493 -1.1735 -1.5751  0.7039
 1704SOL    HW3 6583   1.763   3.497   0.564  0.6370 -0.9005 -0.5371
 1704SOL    MW4 6584   1.740   3.540   0.492  0.4463  0.2007  0.1533
 1705SOL     OW 6585   5.687   1.320   0.521 -0.0162  0.3541 -0.0750
 1705SOL    HW2 6586   5.748   1.246   0.526  0.9841  1.1863  0.2078
 1705SOL    HW3 6587   5.672   1.331   0.427 -0.3064 -0.3042 -0.1147
 1705SOL    MW4 6588   5.693   1.312   0.509  0.0775  0.3770 -0.0429
 1706SOL     OW 6589   1.732   3.739   2.534  0.0424  0.0080 -0.1242
 1706SOL    HW2 6590   1.688   3.818   2.564  0.5080 -0.8612  3.2048
 1706SOL    HW3 6591   1.826   3.760   2.537  0.1394 -0.4315  0.0736
 1706SOL    MW4 6592   1.739   3.752   2.538  0.1166 -0.1647  0.3411
 1707SOL     OW 6593   4.415   5.185   1.327 -0.2752  0.2952 -0.0019
 1707SOL    HW2 6594   4.445   5.095   1.316  0.4042  0.7461 -2.5751
 1707SOL    HW3 6595   4.345   5.180   1.393 -0.5858 -2.1805 -0.4477
 1707SOL    MW4 6596   4.410   5.173   1.334 -0.2266  0.0281 -0.4002
 1708SOL     OW 6597   5.628   2.524   1.718  0.2499 -0.1972  0.1965
 1708SOL    HW2 6598   5.591   2.590   1.661 -0.7242  0.6245  1.7256
 1708SOL    HW3 6599   5.564   2.513   1.788  1.5723 -0.8794  1.3574
 1708SOL    MW4 6600   5.615   2.531   1.720  0.2959 -0.1788  0.5514
 1709SOL     OW 6601   1.599   2.523   4.901 -0.0908  0.1625 -0.1727
 1709SOL    HW2 6602   1.587   2.576   4.980 -1.7238 -0.3126 -0.0778
 1709SOL    HW3 6603   1.567   2.436   4.926 -2.3467  0.4358 -1.8463
 1709SOL    MW4 6604   1.593   2.519   4.915 -0.6039  0.1358 -0.3810
 1710SOL     OW 6605   3.675   2.741   2.697  0.3138 -0.0080  0.1880
 1710SOL    HW2 6606   3.714   2.814   2.746  1.1499 -0.6790  0.5686
 1710SOL    HW3 6607   3.645   2.680   2.765 -1.1631  0.3632 -0.1123
 1710SOL    MW4 6608   3.676   2.742   2.712  0.2292 -0.0476  0.1986
 1711SOL     OW 6609   0.170   2.087  -0.036 -0.3080  0.3153  0.2921
 1711SOL    HW2 6610   0.122   2.011  -0.003 -0.3743  0.2924  0.1442
 1711SOL    HW3 6611   0.114   2.162  -0.014 -0.9308  0.1976 -0.8293
 1711SOL    MW4 6612   0.156   2.087  -0.028 -0.3990  0.2968  0.1247
 1712SOL     OW 6613   5.764   5.359   6.180 -0.8661  0.4052 -0.1880
 1712SOL    HW2 6614   5.836   5.391   6.125 -1.3197  0.7645 -0.5811
 1712SOL    HW3 6615   5.690   5.414   6.157 -1.3856 -0.2504 -0.1073
 1712SOL    MW4 6616   5.764   5.370   6.170 -0.9945  0.3661 -0.2292
 1713SOL     OW 6617   4.864   3.824   4.575 -0.1178  0.1762 -0.0960
 1713SOL    HW2 6618   4.894   3.754   4.634 -0.3530  1.6689  1.9048
 1713SOL    HW3 6619   4.869   3.785   4.488  2.9496 -1.2633  0.5618
 1713SOL    MW4 6620   4.869   3.810   4.571  0.2559  0.1832  0.2548
 1714SOL     OW 6621   0.952   1.650   3.827 -0.7548 -0.0122  0.8301
 1714SOL    HW2 6622   0.942   1.687   3.915 -1.3355  1.8224  0.0479
 1714SOL    HW3 6623   1.047   1.646   3.814 -0.6622  1.4994  0.8606
 1714SOL    MW4 6624   0.963   1.655   3.837 -0.8192  0.4293  0.7309
 1715SOL     OW 6625   3.789   1.329   3.751  0.3430  0.4420 -0.3938
 1715SOL    HW2 6626   3.839   1.361   3.676  0.2177 -0.7379 -0.9971
 1715SOL    HW3 6627   3.715   1.390   3.758  1.1410  1.4321 -0.2923
 1715SOL    MW4 6628   3.786   1.342   3.742  0.4318  0.4170 -0.4600
 1716SOL     OW 6629   0.818   5.414   1.225  0.0607 -0.0916 -0.1374
 1716SOL    HW2 6630   0.867   5.381   1.150  1.0247 -0.2669  0.5553
 1716SOL    HW3 6631   0.845   5.505   1.233  0.5456 -0.2774  0.4430
 1716SOL    MW4 6632   0.828   5.421   1.216  0.2519 -0.1392  0.0306
 1717SOL     OW 6633   3.511   1.600   0.693  0.1625 -0.4800 -0.2535
 1717SOL    HW2 6634   3.450   1.540   0.650 -1.0944 -0.2018  1.0538
 1717SOL    HW3 6635   3.478   1.687   0.672  1.5177 -0.2373 -1.4893
 1717SOL    MW4 6636   3.499   1.604   0.685  0.1755 -0.4113 -0.2440
 1718SOL     OW 6637   5.497   6.087   6.337  0.3798  0.0984 -0.0028
 1718SOL    HW2 6638   5.573   6.061   6.286  1.3533  0.4006  1.2470
 1718SOL    HW3 6639   5.433   6.116   6.272  0.7842 -1.4982 -1.1509
 1718SOL    MW4 6640   5.498   6.088   6.322  0.5616 -0.0724  0.0106
 1719SOL     OW 6641   3.176   4.276   4.564  0.6327  0.2794 -0.5678
 1719SOL    HW2 6642   3.173   4.263   4.659  0.4919  3.2772 -0.0491
 1719SOL    HW3 6643   3.089   4.308   4.541  1.4064  2.1560 -1.1621
 1719SOL    MW4 6644   3.164   4.279   4.574  0.7162  0.9225 -0.5778
 1720SOL     OW 6645   0.515   4.230   0.936  0.5471 -0.0653 -0.5625
 1720SOL    HW2 6646   0.544   4.316   0.968 -0.3240  1.4648 -3.4432
 1720SOL    HW3 6647   0.448   4.202   0.999  0.3590  1.7248  0.1024
 1720SOL    MW4 6648   0.510   4.238   0.949  0.4074  0.3728 -0.8548
 1721SOL     OW 6649   2.641   0.082   5.531  0.3853  0.2241 -0.2618
 1721SOL    HW2 6650   2.585   0.004   5.537  0.9692 -0.2558 -0.8424
 1721SOL    HW3 6651   2.724   0.054   5.569  0.3360  0.8377  0.3125
 1721SOL    MW4 6652   2.644   0.068   5.536  0.4558  0.2418 -0.2626
 1722SOL     OW 6653   4.653   2.896   5.034 -0.0401  0.1064 -0.2010
 1722SOL    HW2 6654   4.573   2.937   5.067 -0.1182  0.7800 -1.1982
 1722SOL    HW3 6655   4.626   2.806   5.013  0.4326 -0.9635  3.1887
 1722SOL    MW4 6656   4.639   2.889   5.035  0.0119  0.0541  0.1146
 1723SOL     OW 6657   2.033   5.496   3.409  0.2703 -0.2437  0.4301
 1723SOL    HW2 6658   1.985   5.558   3.464 -0.6698 -1.2536  0.7820
 1723SOL    HW3 6659   2.047   5.420   3.466 -0.1886 -1.0647 -0.5172
 1723SOL    MW4 6660   2.028   5.494   3.424  0.0857 -0.4853  0.3516
 1724SOL     OW 6661   3.165   5.772   3.029  0.1617  0.0351  0.5899
 1724SOL    HW2 6662   3.167   5.868   3.024  0.9808 -0.0262 -1.6317
 1724SOL    HW3 6663   3.258   5.747   3.028 -0.0518 -0.7937 -0.4876
 1724SOL    MW4 6664   3.178   5.781   3.028  0.2416 -0.0823  0.1546
 1725SOL     OW 6665   1.685   6.298   6.162 -0.3270 -0.2879 -0.1124
 1725SOL    HW2 6666   1.737   6.218   6.156 -1.3109 -1.1739  1.9133
 1725SOL    HW3 6667   1.698   6.342   6.078  1.5018 -1.7763 -0.6811
 1725SOL    MW4 6668   1.693   6.293   6.150 -0.2155 -0.6012  0.0798
 1726SOL     OW 6669   5.800   0.543   1.335  0.1641  0.2030 -0.0589
 1726SOL    HW2 6670   5.824   0.635   1.324  2.8874 -0.2341  1.2898
 1726SOL    HW3 6671   5.755   0.540   1.420  0.3074  0.2676  0.0205
 1726SOL    MW4 6672   5.797   0.555   1.345  0.5423  0.1539  0.1295
 1727SOL     OW 6673   6.111   5.582   3.363 -0.2992  0.2274  0.3082
 1727SOL    HW2 6674   6.156   5.594   3.280  1.2209  0.5993  1.1409
 1727SOL    HW3 6675   6.182   5.572   3.427 -1.4226  0.2488  1.5963
 1727SOL    MW4 6676   6.126   5.582   3.361 -0.2468  0.2793  0.5880
 1728SOL     OW 6677   3.401   1.299   5.085 -0.0833 -0.2759 -0.0540
 1728SOL    HW2 6678   3.480   1.341   5.051  2.5226 -3.8467  0.9276
 1728SOL    HW3 6679   3.348   1.281   5.007  2.2156 -1.6746 -1.4113
 1728SOL    MW4 6680   3.404   1.302   5.070  0.5638 -0.9315 -0.1036
 1729SOL     OW 6681   0.146   2.243   1.667 -0.4323  0.1040 -0.4075
 1729SOL    HW2 6682   0.074   2.220   1.608 -0.1682  2.6951 -1.8779
 1729SOL    HW3 6683   0.225   2.210   1.624 -0.3851  0.6208 -0.7169
 1729SOL    MW4 6684   0.147   2.236   1.653 -0.3912  0.5141 -0.6423
 1730SOL     OW 6685   4.761   1.171   0.182  0.7131 -0.4358 -0.0441
 1730SOL    HW2 6686   4.769   1.170   0.087 -0.8813 -1.0941 -0.1933
 1730SOL    HW3 6687   4.699   1.241   0.201 -0.1927 -1.3296  0.3810
 1730SOL    MW4 6688   4.754   1.180   0.172  0.3832 -0.6406 -0.0077
 1731SOL     OW 6689   5.899   5.069   5.657 -0.0761  0.1978  0.3810
 1731SOL    HW2 6690   5.993   5.056   5.666 -0.0967 -2.5780 -2.0449
 1731SOL    HW3 6691   5.860   4.996   5.706 -0.9844  1.0296  0.9387
 1731SOL    MW4 6692   5.906   5.057   5.665 -0.1986 -0.0587  0.1345
 1732SOL     OW 6693   3.561   1.094   3.240 -0.1074 -0.2861  0.0103
 1732SOL    HW2 6694   3.648   1.080   3.202  0.5658 -1.1376  1.7760
 1732SOL    HW3 6695   3.564   1.051   3.325 -2.0933  0.1551  0.3623
 1732SOL    MW4 6696   3.573   1.086   3.246 -0.2806 -0.3402  0.2897
 1733SOL     OW 6697   0.015   4.877   2.825  0.2699  0.1859  0.5417
 1733SOL    HW2 6698   0.019   4.972   2.823  0.2285  0.1850 -0.9217
 1733SOL    HW3 6699  -0.005   4.852   2.734 -1.6037 -1.1315  1.2481
 1733SOL    MW4 6700   0.013   4.886   2.813  0.0172  0.0120  0.4418
 1734SOL     OW 6701   0.870   4.621   1.928 -0.6355 -0.0802 -0.2350
 1734SOL    HW2 6702   0.815   4.674   1.871  0.5410  1.4343 -0.0241
 1734SOL    HW3 6703   0.942   4.679   1.953  1.7221 -2.2581 -1.4220
 1734SOL    MW4 6704   0.872   4.636   1.924 -0.1692 -0.1677 -0.3638
 1735SOL     OW 6705   1.424   3.540   0.202  0.6453 -0.8280 -0.1007
 1735SOL    HW2 6706   1.357   3.608   0.199  0.5887 -0.8592  0.5008
 1735SOL    HW3 6707   1.499   3.578   0.154  0.3200 -0.6716 -0.4941
 1735SOL    MW4 6708   1.425   3.554   0.195  0.5949 -0.8115 -0.0732
 1736SOL     OW 6709   0.960   3.448   5.806  0.0634  0.8036  0.1505
 1736SOL    HW2 6710   0.931   3.357   5.820 -3.1599  1.3820 -1.7936
 1736SOL    HW3 6711   1.028   3.441   5.739 -0.3022 -0.1903 -0.1377
 1736SOL    MW4 6712   0.965   3.435   5.799 -0.4101  0.7488 -0.1440
 1737SOL     OW 6713   5.693   2.595   5.181  0.1786 -0.0911  0.0543
 1737SOL    HW2 6714   5.670   2.688   5.180 -1.4504 -0.4563 -0.0221
 1737SOL    HW3 6715   5.777   2.592   5.225  0.7436  1.5106 -0.8183
 1737SOL    MW4 6716   5.701   2.607   5.187  0.0382  0.0720 -0.0709
 1738SOL     OW 6717   3.961   3.214   5.764  0.0396  0.3302  0.7831
 1738SOL    HW2 6718   4.041   3.214   5.712  0.8557 -1.3533  1.9323
 1738SOL    HW3 6719   3.915   3.134   5.738  1.1127 -1.2964  3.4322
 1738SOL    MW4 6720   3.965   3.203   5.754  0.2888 -0.1065  1.2842
 1739SOL     OW 6721   5.862   0.185   5.249  0.6677 -0.2964 -0.3911
 1739SOL    HW2 6722   5.787   0.171   5.191  0.5035 -0.8520 -0.0562
 1739SOL    HW3 6723   5.853   0.276   5.279 -0.4867 -0.6719  0.4917
 1739SOL    MW4 6724   5.851   0.195   5.246  0.4938 -0.4193 -0.2304
 1740SOL     OW 6725   5.105   5.173   3.806  0.4704 -0.1671  0.3608
 1740SOL    HW2 6726   5.176   5.108   3.804  1.1470  0.5514  0.6166
 1740SOL    HW3 6727   5.150   5.257   3.796 -0.1162  0.4722  2.5757
 1740SOL    MW4 6728   5.121   5.175   3.805  0.4823  0.0121  0.6868
 1741SOL     OW 6729   2.914   2.599   5.392 -0.0147 -0.2218 -0.6495
 1741SOL    HW2 6730   2.855   2.673   5.405 -0.5504 -0.7503 -0.0620
 1741SOL    HW3 6731   2.872   2.546   5.325 -0.4007 -0.7949  0.0388
 1741SOL    MW4 6732   2.901   2.602   5.385 -0.1363 -0.3672 -0.4811
 1742SOL     OW 6733   2.829   5.077   3.962 -0.3999 -0.2398 -0.5554
 1742SOL    HW2 6734   2.922   5.056   3.969 -0.5869 -0.6447  1.4015
 1742SOL    HW3 6735   2.788   5.027   4.033 -1.8479  1.4453 -0.1432
 1742SOL    MW4 6736   2.835   5.067   3.972 -0.6156 -0.0709 -0.2428
 1743SOL     OW 6737   1.232   2.216   2.474 -0.3691 -0.3230 -0.0327
 1743SOL    HW2 6738   1.185   2.194   2.554  0.4252  0.1697  0.5993
 1743SOL    HW3 6739   1.306   2.155   2.472 -1.2866 -1.4301 -1.2800
 1743SOL    MW4 6740   1.236   2.205   2.484 -0.3854 -0.4041 -0.1139
 1744SOL     OW 6741   3.860   3.611   2.306  0.7627 -0.1684 -0.1693
 1744SOL    HW2 6742   3.914   3.541   2.342  1.1996  1.2394  2.1268
 1744SOL    HW3 6743   3.776   3.570   2.286  0.5174 -1.1140  2.4911
 1744SOL    MW4 6744   3.856   3.597   2.308  0.7879 -0.1075  0.4846
 1745SOL     OW 6745   6.164   4.202   4.437  0.0235  0.1336 -0.6955
 1745SOL    HW2 6746   6.133   4.180   4.525  1.2586  1.0207 -0.0070
 1745SOL    HW3 6747   6.121   4.285   4.416 -0.4841 -0.2156 -1.0509
 1745SOL    MW4 6748   6.154   4.210   4.446  0.1195  0.2046 -0.6515
 1746SOL     OW 6749   1.367   5.542   1.902  0.1041 -0.9469 -0.1665
 1746SOL    HW2 6750   1.382   5.449   1.922  0.5694 -0.7388  0.4655
 1746SOL    HW3 6751   1.312   5.573   1.974  1.4805 -0.2843  0.6366
 1746SOL    MW4 6752   1.362   5.534   1.914  0.3471 -0.8320  0.0228
 1747SOL     OW 6753   0.046   2.410   3.547  0.5733 -0.1441 -0.6450
 1747SOL    HW2 6754   0.055   2.452   3.633 -1.7782  3.3583 -1.8616
 1747SOL    HW3 6755   0.019   2.321   3.566 -0.5535  0.6972  2.2811
 1747SOL    MW4 6756   0.044   2.404   3.561  0.1144  0.4290 -0.4194
 1748SOL     OW 6757   4.444   3.072   4.005 -0.2920 -0.4420 -0.1269
 1748SOL    HW2 6758   4.370   3.013   4.000 -0.9396  0.3033  0.4218
 1748SOL    HW3 6759   4.414   3.145   4.059 -0.2695  1.4562 -2.4783
 1748SOL    MW4 6760   4.431   3.074   4.012 -0.3745 -0.0932 -0.3647
 1749SOL     OW 6761   3.465   2.319   2.362 -0.7765  0.2783 -0.4258
 1749SOL    HW2 6762   3.442   2.381   2.431 -0.3373 -0.4168  0.3525
 1749SOL    HW3 6763   3.454   2.369   2.281 -0.7839  1.2633  0.1661
 1749SOL    MW4 6764   3.460   2.334   2.360 -0.7195  0.3165 -0.2450
 1750SOL     OW 6765   2.407   0.439   0.862  0.0449 -0.2867  0.3052
 1750SOL    HW2 6766   2.376   0.457   0.773 -1.5193  0.7431  1.0060
 1750SOL    HW3 6767   2.327   0.414   0.909  0.1726  2.5099  2.2295
 1750SOL    MW4 6768   2.392   0.438   0.856 -0.1446  0.2182  0.6516
 1751SOL     OW 6769   0.680   5.939   3.802  0.0892  0.0964  0.5696
 1751SOL    HW2 6770   0.641   5.940   3.715  3.4715 -2.2590 -1.2199
 1751SOL    HW3 6771   0.704   6.030   3.819 -1.3124  0.7096 -0.6045
 1751SOL    MW4 6772   0.678   5.951   3.793  0.3505 -0.1335  0.1786
 1752SOL     OW 6773   2.426   3.043   0.708 -0.0367  0.7573  0.7237
 1752SOL    HW2 6774   2.365   2.969   0.716  0.8630  0.1511  2.5719
 1752SOL    HW3 6775   2.443   3.050   0.614 -1.9543  0.1349  0.2837
 1752SOL    MW4 6776   2.420   3.034   0.697 -0.1710  0.5952  0.9095
 1753SOL     OW 6777   6.091   6.242   6.273 -0.2322 -0.0304  0.3463
 1753SOL    HW2 6778   6.066   6.208   6.187  1.8150  1.1977 -0.8185
 1753SOL    HW3 6779   6.141   6.171   6.313  1.5443  0.4716 -0.8639
 1753SOL    MW4 6780   6.094   6.228   6.267  0.2723  0.1978  0.0329
 1754SOL     OW 6781   4.520   6.166   3.644 -0.8088  0.1425 -0.2233
 1754SOL    HW2 6782   4.428   6.158   3.619 -1.1991 -0.8821  1.4074
 1754SOL    HW3 6783   4.539   6.085   3.692  1.0364  0.2088 -0.7764
 1754SOL    MW4 6784   4.510   6.154   3.647 -0.6168  0.0160 -0.0811
 1755SOL     OW 6785   5.665   0.464   4.737  0.3813  0.6080  0.1665
 1755SOL    HW2 6786   5.674   0.516   4.657  1.3634 -1.7589 -1.3816
 1755SOL    HW3 6787   5.589   0.409   4.721  0.6494  0.0345  0.8239
 1755SOL    MW4 6788   5.656   0.464   4.724  0.5462  0.2201  0.0490
 1756SOL     OW 6789   3.457   4.911   1.207  0.6819 -0.2774  0.4057
 1756SOL    HW2 6790   3.460   4.878   1.118 -0.6090 -0.9077  0.5755
 1756SOL    HW3 6791   3.382   4.970   1.209  1.6092  0.9401  0.6979
 1756SOL    MW4 6792   3.448   4.915   1.196  0.6339 -0.1999  0.4667
 1757SOL     OW 6793   4.558   1.353   0.235 -0.2320  0.4582  0.6258
 1757SOL    HW2 6794   4.582   1.411   0.162  0.2447 -0.9040 -0.3283
 1757SOL    HW3 6795   4.576   1.405   0.313  0.2539  1.5729 -0.1938
 1757SOL    MW4 6796   4.564   1.368   0.236 -0.1050  0.4255  0.3918
 1758SOL     OW 6797   0.705   1.168   3.550  0.2652 -0.0926  0.5525
 1758SOL    HW2 6798   0.625   1.159   3.498  0.7922  0.1308 -0.3169
 1758SOL    HW3 6799   0.698   1.098   3.616  1.3323 -2.9862 -2.1728
 1758SOL    MW4 6800   0.693   1.158   3.552  0.4755 -0.4449  0.0782
 1759SOL     OW 6801   3.390   4.051   2.165 -0.2592 -0.2486 -0.0651
 1759SOL    HW2 6802   3.376   4.145   2.179  0.4035 -0.0504 -0.6034
 1759SOL    HW3 6803   3.323   4.026   2.102 -1.5147 -0.5345  1.3369
 1759SOL    MW4 6804   3.380   4.060   2.158 -0.3374 -0.2601  0.0488
 1760SOL     OW 6805   0.922   5.878   2.698  0.1981 -0.6280  0.0631
 1760SOL    HW2 6806   0.973   5.831   2.764 -0.2575  0.0040  0.8891
 1760SOL    HW3 6807   0.911   5.966   2.734 -0.4418 -0.3958 -0.6577
 1760SOL    MW4 6808   0.927   5.884   2.711  0.0536 -0.5140  0.0770
 1761SOL     OW 6809   0.394   2.970   5.080 -0.0311  0.6674 -0.0190
 1761SOL    HW2 6810   0.472   3.025   5.083  0.7272 -0.3412 -0.6527
 1761SOL    HW3 6811   0.341   3.008   5.009  0.9540  0.0043 -1.1396
 1761SOL    MW4 6812   0.397   2.982   5.071  0.1989  0.4469 -0.2505
 1762SOL     OW 6813   0.232   3.180   4.280 -0.0404 -0.1307 -0.4399
 1762SOL    HW2 6814   0.192   3.142   4.202 -1.2503 -0.4767  0.3191
 1762SOL    HW3 6815   0.320   3.143   4.283 -0.9933 -2.5146 -0.0160
 1762SOL    MW4 6816   0.239   3.170   4.270 -0.3257 -0.4909 -0.2838
 1763SOL     OW 6817   3.074   4.943   0.455 -0.1648 -0.4729  0.0398
 1763SOL    HW2 6818   3.132   4.908   0.387 -0.5365 -1.2462  0.1061
 1763SOL    HW3 6819   2.992   4.960   0.410 -0.3531 -0.8114  0.2473
 1763SOL    MW4 6820   3.071   4.940   0.440 -0.2387 -0.6196  0.0760
 1764SOL     OW 6821   5.096   3.830   4.904  0.2355 -0.1682  0.3851
 1764SOL    HW2 6822   5.066   3.914   4.868  1.6429  0.8992  1.5819
 1764SOL    HW3 6823   5.030   3.767   4.874 -1.0883  1.4072 -0.2288
 1764SOL    MW4 6824   5.083   3.833   4.895  0.2465  0.1805  0.4620
 1765SOL     OW 6825   1.858   2.595   1.903 -0.0125  0.1999 -0.0085
 1765SOL    HW2 6826   1.948   2.571   1.880  0.1593  0.8369 -0.0185
 1765SOL    HW3 6827   1.845   2.557   1.990  0.2069 -0.0441 -0.0801
 1765SOL    MW4 6828   1.868   2.587   1.911  0.0391  0.2517 -0.0193
 1766SOL     OW 6829   1.266   4.609   1.333 -0.3236  0.2180 -0.2914
 1766SOL    HW2 6830   1.193   4.654   1.374  0.7549  0.8293  1.0573
 1766SOL    HW3 6831   1.247   4.516   1.345 -0.2686  0.3726  1.2603
 1766SOL    MW4 6832   1.254   4.602   1.340 -0.1740  0.3191  0.0913
 1767SOL     OW 6833   5.688   1.198   6.380  0.0724 -0.1504 -0.5370
 1767SOL    HW2 6834   5.783   1.198   6.372  0.1043  1.3123 -0.4491
 1767SOL    HW3 6835   5.659   1.266   6.320 -0.6565  1.6626  1.7230
 1767SOL    MW4 6836   5.696   1.207   6.371 -0.0196  0.2818 -0.2272
 1768SOL     OW 6837   4.682   1.962   0.209  0.1262 -0.1880 -0.0049
 1768SOL    HW2 6838   4.626   2.040   0.202  0.5222 -0.0416 -2.3181
 1768SOL    HW3 6839   4.746   1.985   0.276 -0.3206  1.1225  0.0088
 1768SOL    MW4 6840   4.683   1.975   0.217  0.1195  0.0043 -0.3083
 1769SOL     OW 6841   1.643   4.648   3.479  0.2196  0.2015  0.1668
 1769SOL    HW2 6842   1.658   4.569   3.428  1.6167  0.3776  0.2723
 1769SOL    HW3 6843   1.626   4.617   3.568 -2.5010 -0.1232 -0.3852
 1769SOL    MW4 6844   1.643   4.634   3.484  0.0450  0.1819  0.1079
 1770SOL     OW 6845   6.217   2.021   4.702  0.1378 -1.0139  0.1124
 1770SOL    HW2 6846   6.214   1.948   4.640 -0.6353 -1.1035  0.2378
 1770SOL    HW3 6847   6.153   2.083   4.668  1.2565 -0.0807 -0.3570
 1770SOL    MW4 6848   6.208   2.020   4.690  0.1834 -0.9026  0.0671
 1771SOL     OW 6849   2.828   5.028   2.501 -0.0754  0.0415  0.0844
 1771SOL    HW2 6850   2.878   4.959   2.458 -0.2650 -0.6672  0.9722
 1771SOL    HW3 6851   2.853   5.023   2.593 -2.1427 -0.7234  0.6816
 1771SOL    MW4 6852   2.838   5.018   2.508 -0.3732 -0.1529  0.2803
 1772SOL     OW 6853   6.353   4.258   2.835 -0.6277  0.4452  0.3717
 1772SOL    HW2 6854   6.357   4.282   2.927  2.3956 -0.3278  0.5564
 1772SOL    HW3 6855   6.272   4.207   2.826 -0.1627 -0.9140  3.0039
 1772SOL    MW4 6856   6.343   4.254   2.846 -0.1675  0.1639  0.7434
 1773SOL     OW 6857   0.161   2.003   5.914  0.0422  0.4965 -0.6879
 1773SOL    HW2 6858   0.097   1.955   5.860 -0.6469  0.8059 -0.1684
 1773SOL    HW3 6859   0.159   2.092   5.879 -1.5826  1.1072  0.7993
 1773SOL    MW4 6860   0.152   2.008   5.902 -0.2631  0.6179 -0.4231
 1774SOL     OW 6861   2.489   4.148   6.175 -0.8032 -0.3950 -0.2828
 1774SOL    HW2 6862   2.516   4.200   6.100  2.9200 -1.2763  0.2810
 1774SOL    HW3 6863   2.463   4.213   6.241  0.3081  0.5981 -0.7922
 1774SOL    MW4 6864   2.489   4.163   6.174 -0.1654 -0.3802 -0.2756
 1775SOL     OW 6865   6.345   4.011   5.933 -0.4650 -0.0495  0.3134
 1775SOL    HW2 6866   6.331   4.105   5.924 -1.3229 -0.2018 -0.0091
 1775SOL    HW3 6867   6.406   4.004   6.007 -0.2543  0.7620  0.2317
 1775SOL    MW4 6868   6.351   4.023   5.942 -0.5504  0.0374  0.2600
 1776SOL     OW 6869   1.243   0.169   3.562 -0.1859  0.3049 -0.3659
 1776SOL    HW2 6870   1.334   0.145   3.575 -0.3114 -0.3353 -0.6345
 1776SOL    HW3 6871   1.196   0.086   3.556 -0.6293  0.6006 -1.3244
 1776SOL    MW4 6872   1.249   0.155   3.563 -0.2609  0.2595 -0.5278
 1777SOL     OW 6873   3.595   4.456   1.235  0.5724 -0.2108 -0.5370
 1777SOL    HW2 6874   3.594   4.535   1.288 -0.6297  0.4474 -1.4961
 1777SOL    HW3 6875   3.604   4.385   1.298  1.7032  0.6752  0.3334
 1777SOL    MW4 6876   3.596   4.457   1.250  0.5630 -0.0070 -0.5487
 1778SOL     OW 6877   1.712   6.165   5.708  0.0565 -0.2882  0.2067
 1778SOL    HW2 6878   1.805   6.187   5.710 -0.0909  0.3585  0.3629
 1778SOL    HW3 6879   1.673   6.229   5.649 -0.2472 -0.7463 -0.0973
 1778SOL    MW4 6880   1.719   6.176   5.701 -0.0030 -0.2633  0.1872
 1779SOL     OW 6881   0.303   1.731   1.915 -0.4910 -0.3079 -0.0991
 1779SOL    HW2 6882   0.296   1.735   1.820 -0.2659  0.1537 -0.1002
 1779SOL    HW3 6883   0.262   1.812   1.946 -1.7810 -1.0744  0.2728
 1779SOL    MW4 6884   0.297   1.742   1.907 -0.6315 -0.3481 -0.0502
 1780SOL     OW 6885   5.290   5.266   2.597  0.0845  0.1638  0.1746
 1780SOL    HW2 6886   5.353   5.325   2.555  1.2476 -1.4768 -0.4737
 1780SOL    HW3 6887   5.208   5.314   2.595  1.5227  3.0305  2.4077
 1780SOL    MW4 6888   5.288   5.280   2.591  0.4277  0.3256  0.3837
 1781SOL     OW 6889   5.011   6.158   1.773 -0.2329  0.3787  0.1616
 1781SOL    HW2 6890   4.944   6.180   1.837 -0.3126 -0.0709  0.2373
 1781SOL    HW3 6891   5.008   6.230   1.710 -1.6957 -0.2730 -0.5655
 1781SOL    MW4 6892   5.002   6.171   1.773 -0.4364  0.2334  0.0756
 1782SOL     OW 6893   0.555   3.356   3.907 -0.6224  0.2749 -0.1689
 1782SOL    HW2 6894   0.566   3.314   3.822 -0.2387  1.7942 -0.9098
 1782SOL    HW3 6895   0.462   3.345   3.928 -0.1436 -3.0294  0.8824
 1782SOL    MW4 6896   0.544   3.349   3.899 -0.5086  0.0394 -0.1279
 1783SOL     OW 6897   0.989   0.493   5.759  0.2644 -0.0158  0.5002
 1783SOL    HW2 6898   0.969   0.458   5.846  1.7467 -0.2647  0.7678
 1783SOL    HW3 6899   0.928   0.447   5.701  0.4866 -1.2300  1.1753
 1783SOL    MW4 6900   0.978   0.482   5.763  0.4893 -0.2088  0.6246
 1784SOL     OW 6901   1.722   2.926   5.844  0.5482  0.2388 -0.4031
 1784SOL    HW2 6902   1.789   2.860   5.863  0.0962  0.4799  2.5064
 1784SOL    HW3 6903   1.640   2.886   5.873 -0.3486  0.6911 -2.1330
 1784SOL    MW4 6904   1.720   2.912   5.850  0.3703  0.3303 -0.2474
 1785SOL     OW 6905   4.623   2.592   4.676 -0.1249 -0.6788 -0.6269
 1785SOL    HW2 6906   4.688   2.569   4.609 -0.5877  0.0016 -1.3288
 1785SOL    HW3 6907   4.542   2.550   4.646 -0.4541  0.0478 -0.7709
 1785SOL    MW4 6908   4.621   2.583   4.663 -0.2294 -0.4931 -0.7385
 1786SOL     OW 6909   1.569   3.956   0.915 -0.0501 -0.2849  0.0377
 1786SOL    HW2 6910   1.649   3.947   0.966 -1.4011 -2.1895  2.0130
 1786SOL    HW3 6911   1.512   4.010   0.971 -0.4363  0.3985 -0.9939
 1786SOL    MW4 6912   1.572   3.962   0.929 -0.2793 -0.4460  0.1622
 1787SOL     OW 6913   6.191   2.962   5.723 -0.6751 -0.0858 -0.5032
 1787SOL    HW2 6914   6.273   2.976   5.676 -0.3342 -0.9283 -0.1730
 1787SOL    HW3 6915   6.183   2.866   5.729 -1.3471  0.0008  0.0449
 1787SOL    MW4 6916   6.201   2.951   5.718 -0.7188 -0.1855 -0.3873
 1788SOL     OW 6917   3.430   4.086   1.739  0.2811  0.4400 -0.5630
 1788SOL    HW2 6918   3.417   4.155   1.804 -0.4107 -0.7033  0.5710
 1788SOL    HW3 6919   3.353   4.090   1.683 -0.5171 -0.3422  0.4330
 1788SOL    MW4 6920   3.418   4.095   1.740  0.0845  0.1860 -0.2820
 1789SOL     OW 6921   1.957   3.845   2.814 -0.0497 -0.0054  0.3174
 1789SOL    HW2 6922   1.986   3.936   2.816 -0.2902  0.1551 -1.5041
 1789SOL    HW3 6923   1.950   3.825   2.721  1.5448 -2.3968  0.6327
 1789SOL    MW4 6924   1.960   3.854   2.802  0.1289 -0.2997  0.1187
 1790SOL     OW 6925   5.510   5.429   5.538 -0.1032 -0.4135 -0.1272
 1790SOL    HW2 6926   5.538   5.452   5.626  0.8767  0.6070 -0.6843
 1790SOL    HW3 6927   5.590   5.397   5.495 -0.4079 -0.1968 -0.8664
 1790SOL    MW4 6928   5.524   5.428   5.544 -0.0141 -0.2503 -0.2982
 1791SOL     OW 6929   1.079   5.605   0.964  0.1737 -0.3952  0.4933
 1791SOL    HW2 6930   1.113   5.642   1.046 -0.4636 -0.4883  0.8006
 1791SOL    HW3 6931   1.055   5.515   0.987 -0.1290 -0.3789  0.2395
 1791SOL    MW4 6932   1.081   5.598   0.978  0.0497 -0.4053  0.5004
 1792SOL     OW 6933   1.424   4.998   2.010  0.2611 -0.5353 -0.6501
 1792SOL    HW2 6934   1.365   4.984   1.936  1.8174  1.1422 -2.3230
 1792SOL    HW3 6935   1.509   4.965   1.981  0.7867 -0.3593  0.6048
 1792SOL    MW4 6936   1.427   4.992   1.996  0.5358 -0.2907 -0.7052
 1793SOL     OW 6937   3.926   1.227   0.243  0.2161  0.1427  0.5562
 1793SOL    HW2 6938   3.935   1.315   0.207 -0.0532 -0.2577 -0.5357
 1793SOL    HW3 6939   3.972   1.230   0.326 -2.7102  2.2794  2.2666
 1793SOL    MW4 6940   3.934   1.239   0.249 -0.2055  0.3718  0.6378
 1794SOL     OW 6941   4.971   5.498   1.249  0.2473 -0.5685  0.7864
 1794SOL    HW2 6942   4.951   5.586   1.216  0.4740 -0.7978  0.0138
 1794SOL    HW3 6943   4.998   5.513   1.340  0.1213  0.1413  0.7182
 1794SOL    MW4 6944   4.972   5.512   1.257  0.2606 -0.5051  0.6754
 1795SOL     OW 6945   3.136   1.122   0.399  0.1980  0.5428 -0.0465
 1795SOL    HW2 6946   3.228   1.141   0.418  0.1098  0.3896  0.5690
 1795SOL    HW3 6947   3.087   1.179   0.460 -0.0936 -0.3561  0.5766
 1795SOL    MW4 6948   3.141   1.132   0.410  0.1479  0.4040  0.1169
 1796SOL     OW 6949   4.235   4.375   6.278 -0.3666 -0.2421  0.7194
 1796SOL    HW2 6950   4.292   4.298   6.273  0.1341  0.1013  1.0529
 1796SOL    HW3 6951   4.164   4.356   6.217 -0.1236 -0.8674  0.6222
 1796SOL    MW4 6952   4.233   4.362   6.269 -0.2685 -0.2793  0.7506
 1797SOL     OW 6953   3.869   2.481   1.990  0.3297  0.2344  0.2450
 1797SOL    HW2 6954   3.815   2.506   2.065 -0.8383  0.2739 -0.5838
 1797SOL    HW3 6955   3.865   2.385   1.989  0.1856  0.2425  0.1118
 1797SOL    MW4 6956   3.861   2.471   1.999  0.1566  0.2407  0.1181
 1798SOL     OW 6957   3.080   5.704   5.810 -0.0973 -0.4051  0.0063
 1798SOL    HW2 6958   3.034   5.664   5.884 -0.0088  1.9890  1.4571
 1798SOL    HW3 6959   3.020   5.692   5.736 -1.7003 -0.0125  1.1765
 1798SOL    MW4 6960   3.066   5.697   5.810 -0.2971 -0.0374  0.3521
 1799SOL     OW 6961   4.304   4.448   5.381 -0.3851 -0.1588  0.0021
 1799SOL    HW2 6962   4.369   4.518   5.370 -2.0060  1.2823 -0.8151
 1799SOL    HW3 6963   4.351   4.379   5.429  1.0585  1.7721  1.5270
 1799SOL    MW4 6964   4.319   4.448   5.386 -0.4084  0.2861  0.0955
 1800SOL     OW 6965   1.545   1.361   1.019  0.4095  0.3574  0.5540
 1800SOL    HW2 6966   1.515   1.417   1.091 -0.1358  1.0173 -0.1714
 1800SOL    HW3 6967   1.553   1.420   0.944 -0.2603 -0.5451 -0.2531
 1800SOL    MW4 6968   1.542   1.376   1.019  0.2492  0.3254  0.3518
 1801SOL     OW 6969   2.635   5.840   0.651  0.2222  0.0493 -0.0866
 1801SOL    HW2 6970   2.596   5.908   0.597 -0.3642 -0.9038 -0.9089
 1801SOL    HW3 6971   2.628   5.873   0.741 -2.1103  0.1160 -0.2405
 1801SOL    MW4 6972   2.629   5.853   0.656 -0.1629 -0.0677 -0.2154
 1802SOL     OW 6973   3.324   4.254   3.651 -0.7433  0.5659  0.0921
 1802SOL    HW2 6974   3.330   4.350   3.647 -1.8507  0.6979  0.8249
 1802SOL    HW3 6975   3.291   4.237   3.739 -0.5440 -0.4974 -0.0347
 1802SOL    MW4 6976   3.320   4.265   3.662 -0.8631  0.4430  0.1720
 1803SOL     OW 6977   1.699   1.260   0.520  0.2788 -0.2354 -0.0115
 1803SOL    HW2 6978   1.625   1.248   0.580 -0.4371 -1.5052 -1.0931
 1803SOL    HW3 6979   1.762   1.193   0.546 -0.9723 -2.3125 -1.9859
 1803SOL    MW4 6980   1.697   1.249   0.531  0.0193 -0.6770 -0.4147
 1804SOL     OW 6981   2.524   2.685   1.337  0.3456  0.8795  0.2128
 1804SOL    HW2 6982   2.548   2.731   1.417  0.3282  1.2296  0.0200
 1804SOL    HW3 6983   2.435   2.714   1.318  0.0604  0.1949  0.4913
 1804SOL    MW4 6984   2.515   2.695   1.345  0.3057  0.8354  0.2241
 1805SOL     OW 6985   3.656   1.940   0.475 -0.0827 -0.6009  0.1799
 1805SOL    HW2 6986   3.619   1.927   0.388 -2.4752 -0.6078  1.1266
 1805SOL    HW3 6987   3.749   1.922   0.465 -0.2032 -0.0690 -2.4701
 1805SOL    MW4 6988   3.663   1.936   0.462 -0.4142 -0.5316 -0.0448
 1806SOL     OW 6989   4.090   2.047   6.083 -0.5413  0.0278  0.5567
 1806SOL    HW2 6990   3.997   2.054   6.060 -0.5560  0.5288  0.7522
 1806SOL    HW3 6991   4.126   1.985   6.019 -0.8075  0.5754 -0.1385
 1806SOL    MW4 6992   4.082   2.040   6.072 -0.5783  0.1661  0.4907
 1807SOL     OW 6993   4.454   0.877   6.207  0.1604  0.6836  0.3039
 1807SOL    HW2 6994   4.440   0.959   6.160 -0.1735  0.9489  0.8644
 1807SOL    HW3 6995   4.439   0.898   6.299  1.8988  0.4298  0.6844
 1807SOL    MW4 6996   4.451   0.890   6.213  0.3457  0.6852  0.4281
 1808SOL     OW 6997   6.080   1.999   1.722 -0.1965  0.5090  0.1779
 1808SOL    HW2 6998   6.057   2.003   1.629  0.2449 -0.4981  0.0170
 1808SOL    HW3 6999   6.051   1.913   1.750 -1.1694  1.1545  1.2201
 1808SOL    MW4 7000   6.073   1.988   1.713 -0.2666  0.4613  0.2942
 1809SOL     OW 7001   4.331   1.884   4.547 -0.1654 -0.0245 -0.0733
 1809SOL    HW2 7002   4.394   1.949   4.518 -0.6657  0.5669  0.1469
 1809SOL    HW3 7003   4.364   1.854   4.632  0.6480 -0.8712 -0.6700
 1809SOL    MW4 7004   4.344   1.888   4.555 -0.1241 -0.0582 -0.1230
 1810SOL     OW 7005   3.862   5.931   5.941 -0.0523 -0.0213 -0.9139
 1810SOL    HW2 7006   3.874   5.990   6.015  1.5243 -0.4403 -0.7896
 1810SOL    HW3 7007   3.897   5.847   5.971 -3.6055 -1.5327 -0.5531
 1810SOL    MW4 7008   3.869   5.927   5.955 -0.3131 -0.2760 -0.8499
 1811SOL     OW 7009   3.851   0.980   1.172  0.3311 -0.2117  0.5245
 1811SOL    HW2 7010   3.767   1.012   1.141  0.7798 -0.4583 -1.0804
 1811SOL    HW3 7011   3.883   1.048   1.231  0.0722  1.0547 -0.7285
 1811SOL    MW4 7012   3.844   0.993   1.176  0.3561 -0.0771  0.1475
 1812SOL     OW 7013   0.901   3.749   6.347  0.2559 -0.1120 -0.1370
 1812SOL    HW2 7014   0.975   3.804   6.323 -1.8095  2.0632 -2.0186
 1812SOL    HW3 7015   0.877   3.778   6.435  0.9865 -0.1427  0.0814
 1812SOL    MW4 7016   0.908   3.760   6.355  0.0798  0.1710 -0.3564
 1813SOL     OW 7017   5.733   4.697   4.254  0.2208  0.3395 -0.6692
 1813SOL    HW2 7018   5.659   4.647   4.218 -1.8552  2.2374  0.7120
 1813SOL    HW3 7019   5.722   4.785   4.219  2.5781  0.4353 -1.3481
 1813SOL    MW4 7020   5.721   4.702   4.244  0.2579  0.6025 -0.5765
 1814SOL     OW 7021   0.328   4.540   4.111  0.1322  0.0749 -0.0142
 1814SOL    HW2 7022   0.279   4.617   4.083 -0.2593 -0.0214  0.3930
 1814SOL    HW3 7023   0.325   4.544   4.207 -0.8158 -1.0282  0.0141
 1814SOL    MW4 7024   0.321   4.551   4.120 -0.0446 -0.0834  0.0433
 1815SOL     OW 7025   3.045   0.929   3.005 -0.2351  0.1901 -0.0562
 1815SOL    HW2 7026   3.015   0.911   2.916  0.6038 -1.8795  0.0299
 1815SOL    HW3 7027   3.113   0.996   2.994 -0.5581  0.3869 -0.9019
 1815SOL    MW4 7028   3.050   0.936   2.992 -0.1670 -0.0570 -0.1564
 1816SOL     OW 7029   4.805   1.224   0.827 -0.6144 -0.3220 -0.6466
 1816SOL    HW2 7030   4.871   1.164   0.863 -1.3719 -1.3177 -0.8448
 1816SOL    HW3 7031   4.799   1.200   0.735  0.4718  1.4190 -1.1993
 1816SOL    MW4 7032   4.813   1.213   0.820 -0.5710 -0.2237 -0.7457
 1817SOL     OW 7033   1.780   2.341   5.635 -0.5034  0.1276 -0.0325
 1817SOL    HW2 7034   1.813   2.396   5.563  0.4300 -1.4601 -0.8747
 1817SOL    HW3 7035   1.832   2.366   5.711 -0.6672  0.9839 -0.1979
 1817SOL    MW4 7036   1.791   2.351   5.635 -0.4019  0.0311 -0.1655
 1818SOL     OW 7037   0.237   3.069   1.816  0.6078  0.0633 -0.4832
 1818SOL    HW2 7038   0.244   3.149   1.765  1.4075  0.0994 -0.3305
 1818SOL    HW3 7039   0.151   3.034   1.794 -1.2852  2.6894  1.9573
 1818SOL    MW4 7040   0.227   3.075   1.807  0.4635  0.4146 -0.1411
 1819SOL     OW 7041   1.690   4.359   6.054  0.6364 -0.1235 -0.1575
 1819SOL    HW2 7042   1.615   4.346   5.996 -0.7870 -3.8759  2.1323
 1819SOL    HW3 7043   1.767   4.350   5.998 -0.6008  0.2055 -1.9772
 1819SOL    MW4 7044   1.690   4.356   6.039  0.2853 -0.5752 -0.0955
 1820SOL     OW 7045   5.280   3.948   2.227  0.1630 -0.0209 -0.2693
 1820SOL    HW2 7046   5.292   3.894   2.305  1.7370  1.6456  0.7332
 1820SOL    HW3 7047   5.205   3.910   2.182 -0.3569 -1.4559  1.6988
 1820SOL    MW4 7048   5.272   3.936   2.231  0.3021  0.0097  0.1227
 1821SOL     OW 7049   5.515   4.779   1.148 -0.6210  0.1058  0.0719
 1821SOL    HW2 7050   5.499   4.839   1.220  1.2510 -1.0899  1.6129
 1821SOL    HW3 7051   5.587   4.819   1.099  1.5744 -1.3225  1.8853
 1821SOL    MW4 7052   5.523   4.792   1.151 -0.0844 -0.2404  0.5144
 1822SOL     OW 7053   5.746   4.965   1.444 -0.2531 -0.0337 -0.1727
 1822SOL    HW2 7054   5.762   4.877   1.408 -0.0796  0.5828 -1.6743
 1822SOL    HW3 7055   5.659   4.958   1.485 -0.2966 -0.8743 -0.3844
 1822SOL    MW4 7056   5.736   4.952   1.445 -0.2359 -0.0632 -0.3988
 1823SOL     OW 7057   3.904   4.057   5.868  0.8623 -0.2396 -0.1575
 1823SOL    HW2 7058   3.956   4.070   5.789  1.4618  1.0712  0.4177
 1823SOL    HW3 7059   3.963   4.014   5.929  0.3637 -1.3598 -0.4508
 1823SOL    MW4 7060   3.919   4.053   5.866  0.8756 -0.2145 -0.1203
 1824SOL     OW 7061   0.937   5.156   5.397 -0.5800 -0.1959  0.7177
 1824SOL    HW2 7062   1.019   5.171   5.350  0.0350  0.3612  1.9475
 1824SOL    HW3 7063   0.870   5.160   5.328  0.4567 -1.4870 -0.4444
 1824SOL    MW4 7064   0.939   5.158   5.381 -0.3621 -0.2928  0.7267
 1825SOL     OW 7065   0.452   2.072   0.023  0.3169  0.1124 -0.7377
 1825SOL    HW2 7066   0.358   2.061   0.009 -0.0052  1.3287  0.2384
 1825SOL    HW3 7067   0.482   1.988   0.058 -0.8991  0.4323  1.2135
 1825SOL    MW4 7068   0.444   2.060   0.026  0.1139  0.3150 -0.3515
 1826SOL     OW 7069   1.416   6.394   0.994  0.0991  0.5761  0.6476
 1826SOL    HW2 7070   1.469   6.329   1.039  0.4375  0.7589  0.5154
 1826SOL    HW3 7071   1.326   6.373   1.019  0.2012  0.0135  0.5411
 1826SOL    MW4 7072   1.411   6.383   1.003  0.1572  0.5260  0.6161
 1827SOL     OW 7073   0.246   3.781   5.143 -0.2998 -0.2595  0.1232
 1827SOL    HW2 7074   0.331   3.749   5.113 -0.5345  0.3246 -1.2599
 1827SOL    HW3 7075   0.262   3.871   5.173 -0.2428 -0.5137  0.8683
 1827SOL    MW4 7076   0.259   3.789   5.143 -0.3232 -0.2160  0.0390
 1828SOL     OW 7077   3.562   3.395   3.527  0.0902 -0.4838  0.0600
 1828SOL    HW2 7078   3.602   3.325   3.475  0.7604 -0.4121  0.4754
 1828SOL    HW3 7079   3.561   3.471   3.468  1.3576 -0.2468  0.3216
 1828SOL    MW4 7080   3.567   3.396   3.512  0.3458 -0.4431  0.1493
 1829SOL     OW 7081   4.210   5.294   3.225  0.0964 -0.0588 -0.3513
 1829SOL    HW2 7082   4.259   5.375   3.243 -0.1362  0.2827 -1.2142
 1829SOL    HW3 7083   4.257   5.252   3.154  0.5326 -0.9847  0.4572
 1829SOL    MW4 7084   4.223   5.299   3.218  0.1233 -0.1359 -0.3585
 1830SOL     OW 7085   4.016   0.442   2.500  0.3162  0.3036  0.3146
 1830SOL    HW2 7086   3.930   0.483   2.502 -0.8633 -2.0265  0.5141
 1830SOL    HW3 7087   4.078   0.515   2.510 -1.5141  2.2531 -1.5193
 1830SOL    MW4 7088   4.013   0.457   2.501 -0.0809  0.2534  0.0989
 1831SOL     OW 7089   2.273   1.593   6.104  1.2101  0.0020  0.0649
 1831SOL    HW2 7090   2.258   1.498   6.099  0.2662  0.0536  1.2799
 1831SOL    HW3 7091   2.266   1.613   6.198 -1.4806  1.6971 -0.3949
 1831SOL    MW4 7092   2.270   1.583   6.116  0.7306  0.2325  0.1646
 1832SOL     OW 7093   6.129   4.438   4.281  0.1350 -0.3131  0.1902
 1832SOL    HW2 7094   6.081   4.509   4.238 -1.1028 -0.6603  0.9660
 1832SOL    HW3 7095   6.220   4.453   4.256 -0.3374  0.4514 -1.1911
 1832SOL    MW4 7096   6.135   4.450   4.272 -0.0907 -0.2581  0.1103
 1833SOL     OW 7097   4.077   2.280   4.427  0.3534  0.4586 -0.3766
 1833SOL    HW2 7098   4.143   2.298   4.494 -0.1987  2.3904 -0.2767
 1833SOL    HW3 7099   4.030   2.203   4.459  2.4221 -0.8868 -0.3874
 1833SOL    MW4 7100   4.080   2.273   4.440  0.5535  0.5360 -0.3649
 1834SOL     OW 7101   3.775   3.579   3.801  0.1141  0.2986 -0.6412
 1834SOL    HW2 7102   3.835   3.575   3.726 -0.0163  0.4723 -0.7570
 1834SOL    HW3 7103   3.738   3.668   3.797 -0.9483 -0.1426 -1.2127
 1834SOL    MW4 7104   3.778   3.590   3.790 -0.0433  0.2633 -0.7319
 1835SOL     OW 7105   1.303   4.766   3.696  0.3400 -0.0390  0.0395
 1835SOL    HW2 7106   1.268   4.828   3.632  0.6266  2.0469  1.7935
 1835SOL    HW3 7107   1.393   4.795   3.711  0.2448 -0.3787  1.4511
 1835SOL    MW4 7108   1.310   4.778   3.690  0.3653  0.1914  0.4571
 1836SOL     OW 7109   1.219   0.862   5.691  0.0053 -0.3412  0.3094
 1836SOL    HW2 7110   1.177   0.780   5.666  0.5690 -0.5068 -0.1180
 1836SOL    HW3 7111   1.178   0.928   5.633 -0.5862 -0.2781  0.7862
 1836SOL    MW4 7112   1.208   0.860   5.680  0.0017 -0.3547  0.3159
 1837SOL     OW 7113   1.905   4.419   2.164 -0.3039  0.0071 -0.2594
 1837SOL    HW2 7114   1.868   4.360   2.099 -1.0057  1.0507 -0.8301
 1837SOL    HW3 7115   1.920   4.501   2.116 -0.3465  0.6292  0.7673
 1837SOL    MW4 7116   1.902   4.422   2.149 -0.4021  0.2269 -0.1993
 1838SOL     OW 7117   4.590   4.728   0.337  0.1888 -0.2926 -0.3633
 1838SOL    HW2 7118   4.537   4.650   0.350  1.6030 -1.1417  0.6016
 1838SOL    HW3 7119   4.558   4.790   0.402 -0.7544 -0.1509 -0.9478
 1838SOL    MW4 7120   4.579   4.726   0.347  0.2509 -0.3859 -0.3131
 1839SOL     OW 7121   5.582   5.809   1.288  0.0487  0.2213  0.3229
 1839SOL    HW2 7122   5.625   5.737   1.242 -2.0547  0.4627 -2.2541
 1839SOL    HW3 7123   5.489   5.798   1.269 -0.3444  3.7604 -0.5279
 1839SOL    MW4 7124   5.576   5.798   1.280 -0.2807  0.7201 -0.1293
 1840SOL     OW 7125   1.431   5.426   3.594  0.0678  0.0516  0.4606
 1840SOL    HW2 7126   1.447   5.409   3.501 -0.1692  0.8548  0.2648
 1840SOL    HW3 7127   1.518   5.417   3.635  0.6537  2.0127 -0.2214
 1840SOL    MW4 7128   1.445   5.423   3.588  0.1139  0.4163  0.3448
 1841SOL     OW 7129   2.899   3.148   4.780  0.1283 -0.5772  0.0687
 1841SOL    HW2 7130   2.807   3.121   4.787  0.3893 -1.0421  2.3451
 1841SOL    HW3 7131   2.899   3.212   4.709 -2.0211 -0.3433  0.1945
 1841SOL    MW4 7132   2.887   3.153   4.772 -0.1208 -0.6077  0.3856
 1842SOL     OW 7133   1.630   1.759   1.668 -0.0236  0.5963  0.1929
 1842SOL    HW2 7134   1.602   1.732   1.755 -2.9865  0.4281 -0.6889
 1842SOL    HW3 7135   1.568   1.828   1.644 -0.6625 -0.8157 -2.5652
 1842SOL    MW4 7136   1.618   1.765   1.676 -0.4988  0.3878 -0.2873
 1843SOL     OW 7137   4.147   2.540   2.063  0.0645 -0.0961 -0.4591
 1843SOL    HW2 7138   4.051   2.533   2.062  0.0467 -0.2662  0.7455
 1843SOL    HW3 7139   4.177   2.450   2.079  0.4120  0.0281 -0.3966
 1843SOL    MW4 7140   4.138   2.527   2.065  0.1080 -0.1021 -0.2919
 1844SOL     OW 7141   0.018   4.013   5.526  0.1647 -0.0275 -0.3342
 1844SOL    HW2 7142   0.009   3.949   5.596  0.0114  0.4890  0.1213
 1844SOL    HW3 7143   0.112   4.016   5.508  0.0267 -1.5817 -1.4983
 1844SOL    MW4 7144   0.029   4.005   5.533  0.1263 -0.1644 -0.4277
 1845SOL     OW 7145   3.631   0.955   6.213 -0.4131  0.2762 -0.3185
 1845SOL    HW2 7146   3.694   0.889   6.185  2.4136  2.3141  0.7306
 1845SOL    HW3 7147   3.650   1.032   6.160 -1.6036  1.1663  0.4626
 1845SOL    MW4 7148   3.642   0.957   6.203 -0.1973  0.6625 -0.0771
 1846SOL     OW 7149   4.553   0.285   4.677 -0.7251  0.0302 -0.4049
 1846SOL    HW2 7150   4.576   0.192   4.678 -1.1324 -0.0637  0.2255
 1846SOL    HW3 7151   4.577   0.317   4.764  2.1886  1.2106 -1.5175
 1846SOL    MW4 7152   4.560   0.276   4.688 -0.3944  0.1736 -0.4685
 1847SOL     OW 7153   2.030   2.232   2.772  0.7355 -0.5236  0.0972
 1847SOL    HW2 7154   2.061   2.163   2.831  1.5135 -0.7393 -0.5473
 1847SOL    HW3 7155   1.980   2.291   2.829  2.2794 -0.1991  1.1843
 1847SOL    MW4 7156   2.027   2.231   2.788  1.0418 -0.5093  0.1556
 1848SOL     OW 7157   2.038   2.315   2.323 -0.8085  0.5390 -0.2557
 1848SOL    HW2 7158   1.946   2.337   2.334 -0.8587 -0.1856  0.9297
 1848SOL    HW3 7159   2.038   2.241   2.262 -1.2527 -1.1925  1.7529
 1848SOL    MW4 7160   2.026   2.308   2.316 -0.8738  0.2149  0.1657
 1849SOL     OW 7161   0.404   4.413   3.864  0.0931 -0.3758 -0.2096
 1849SOL    HW2 7162   0.389   4.475   3.935  0.8334 -1.8831  1.3256
 1849SOL    HW3 7163   0.322   4.414   3.815 -0.8022  0.0131  1.2202
 1849SOL    MW4 7164   0.391   4.422   3.867  0.0726 -0.5233  0.1816
 1850SOL     OW 7165   3.005   3.240   1.799 -0.0301  0.0579 -0.1446
 1850SOL    HW2 7166   2.980   3.148   1.798  1.4835 -0.3796 -0.1901
 1850SOL    HW3 7167   2.948   3.281   1.734 -2.0249 -0.4529  1.1759
 1850SOL    MW4 7168   2.994   3.233   1.790 -0.0936 -0.0672  0.0236
 1851SOL     OW 7169   3.402   5.773   1.950 -0.4172  0.1975  0.4479
 1851SOL    HW2 7170   3.377   5.693   1.904 -1.2792  1.2192 -0.9692
 1851SOL    HW3 7171   3.492   5.790   1.922 -0.3841 -0.0467  0.4058
 1851SOL    MW4 7172   3.411   5.765   1.940 -0.5266  0.3001  0.2554
 1852SOL     OW 7173   2.948   4.937  -0.031 -0.3666  0.4706 -0.0839
 1852SOL    HW2 7174   2.907   4.880  -0.095  1.9813 -0.4908 -0.8617
 1852SOL    HW3 7175   2.915   4.906   0.054  0.3521 -1.6895 -0.5249
 1852SOL    MW4 7176   2.939   4.925  -0.028  0.0380  0.0587 -0.2447
 1853SOL     OW 7177   5.881   4.375   5.181  0.1635 -0.1580 -0.1605
 1853SOL    HW2 7178   5.843   4.397   5.266 -1.7082 -2.1972 -0.3970
 1853SOL    HW3 7179   5.808   4.382   5.119  0.8622 -1.2760 -1.1495
 1853SOL    MW4 7180   5.866   4.379   5.184  0.0087 -0.5745 -0.3222
 1854SOL     OW 7181   2.967   4.139   3.162  0.0465  0.5444 -0.0808
 1854SOL    HW2 7182   2.946   4.049   3.186  2.5335 -0.0681  0.0192
 1854SOL    HW3 7183   3.023   4.131   3.085 -1.5325  2.1539 -1.5045
 1854SOL    MW4 7184   2.972   4.126   3.155  0.1663  0.6759 -0.2555
 1855SOL     OW 7185   2.597   3.058   1.238  1.0758 -0.1761 -0.0463
 1855SOL    HW2 7186   2.648   3.104   1.172  2.0123 -1.5206 -0.3043
 1855SOL    HW3 7187   2.512   3.043   1.197  0.8983  0.9118 -0.1074
 1855SOL    MW4 7188   2.593   3.062   1.224  1.1759 -0.2100 -0.0884
 1856SOL     OW 7189   1.596   4.118   5.394 -0.3893 -0.2988 -0.4790
 1856SOL    HW2 7190   1.622   4.184   5.330 -1.8842 -0.1091 -0.9281
 1856SOL    HW3 7191   1.534   4.063   5.347  1.5915 -2.7343 -0.4753
 1856SOL    MW4 7192   1.592   4.119   5.379 -0.3252 -0.5951 -0.5377
 1857SOL     OW 7193   5.839   6.140   4.169 -0.0248 -0.1307 -0.4629
 1857SOL    HW2 7194   5.801   6.095   4.094 -1.3588 -1.9847  1.2057
 1857SOL    HW3 7195   5.790   6.221   4.176  0.0153 -0.0070 -1.4761
 1857SOL    MW4 7196   5.828   6.145   4.160 -0.1955 -0.3590 -0.3764
 1858SOL     OW 7197   2.022   4.142   5.362 -0.0966  0.2287  0.0407
 1858SOL    HW2 7198   1.987   4.058   5.391  0.4777  0.5927  1.9095
 1858SOL    HW3 7199   2.006   4.144   5.267 -2.3343 -0.9027  0.3523
 1858SOL    MW4 7200   2.015   4.132   5.353 -0.3161  0.1274  0.3284
 1859SOL     OW 7201   5.691   5.104   4.388  0.1395  0.7552 -0.4831
 1859SOL    HW2 7202   5.662   5.166   4.456  0.5473  0.3915  0.0345
 1859SOL    HW3 7203   5.696   5.020   4.434  0.5141  0.5240 -0.9482
 1859SOL    MW4 7204   5.688   5.101   4.403  0.2427  0.6767 -0.4762
 1860SOL     OW 7205   2.658   2.086   3.900 -0.5676 -0.1470  0.5079
 1860SOL    HW2 7206   2.670   2.076   3.805 -1.1680  1.2060  0.2591
 1860SOL    HW3 7207   2.730   2.037   3.939 -0.8182 -1.4771 -0.6180
 1860SOL    MW4 7208   2.669   2.078   3.892 -0.6799 -0.1440  0.3265
 1861SOL     OW 7209   0.270   6.338   1.961 -0.2022  0.2599  0.0902
 1861SOL    HW2 7210   0.253   6.410   1.900  0.2574 -0.1419 -0.5211
 1861SOL    HW3 7211   0.232   6.368   2.044  0.9479  1.6898  0.1421
 1861SOL    MW4 7212   0.262   6.352   1.964  0.0102  0.3955  0.0164
 1862SOL     OW 7213   3.288   0.076   4.087 -0.4354  0.5978  0.1514
 1862SOL    HW2 7214   3.283   0.122   4.171  0.1200  1.3292 -0.2119
 1862SOL    HW3 7215   3.200   0.038   4.076  0.0487 -1.2527  2.0247
 1862SOL    MW4 7216   3.275   0.077   4.097 -0.2983  0.4501  0.3506
 1863SOL     OW 7217   4.829   1.935   5.230 -0.3681  0.2118 -0.5526
 1863SOL    HW2 7218   4.801   1.896   5.313  3.2616  0.3931  0.9509
 1863SOL    HW3 7219   4.786   2.021   5.229 -0.5615  0.1796  1.1365
 1863SOL    MW4 7220   4.819   1.941   5.241  0.0853  0.2315 -0.1314
 1864SOL     OW 7221   1.750   1.967   1.107  0.6392 -0.6083 -0.5656
 1864SOL    HW2 7222   1.686   1.976   1.177 -1.2883 -0.9512 -2.1869
 1864SOL    HW3 7223   1.769   2.057   1.080  0.5082 -0.5123 -0.3420
 1864SOL    MW4 7224   1.744   1.980   1.113  0.3676 -0.6408 -0.7500
 1865SOL     OW 7225   4.851   6.275   3.220  0.4295 -0.4051 -0.2714
 1865SOL    HW2 7226   4.910   6.218   3.170 -2.1746 -3.6505  0.0632
 1865SOL    HW3 7227   4.790   6.309   3.155 -0.3991 -1.2056  0.0780
 1865SOL    MW4 7228   4.851   6.272   3.204 -0.0234 -0.9389 -0.1812
 1866SOL     OW 7229   3.366   0.212   5.431 -0.1337  0.2252  0.1216
 1866SOL    HW2 7230   3.371   0.254   5.345  0.2206 -0.0103  0.0273
 1866SOL    HW3 7231   3.365   0.284   5.493  0.9649  0.3660 -0.0169
 1866SOL    MW4 7232   3.366   0.227   5.428  0.0580  0.2127  0.0909
 1867SOL     OW 7233   1.852   4.949   0.689  0.8954  0.3342  0.2413
 1867SOL    HW2 7234   1.871   5.042   0.675  0.3922  0.2701 -0.9716
 1867SOL    HW3 7235   1.895   4.904   0.616 -1.1808 -0.1107 -0.7625
 1867SOL    MW4 7236   1.860   4.955   0.678  0.5551  0.2670 -0.0511
 1868SOL     OW 7237   2.047   2.753   1.454 -0.7921  0.2907  0.0086
 1868SOL    HW2 7238   2.068   2.816   1.384  0.2797  0.3328  0.3476
 1868SOL    HW3 7239   2.090   2.790   1.532 -2.8942  0.8387  0.9739
 1868SOL    MW4 7240   2.056   2.766   1.455 -0.9281  0.3686  0.1807
 1869SOL     OW 7241   0.859   3.180   5.797 -0.6785  0.6840 -0.2954
 1869SOL    HW2 7242   0.766   3.185   5.820 -0.9710 -0.7690 -1.0511
 1869SOL    HW3 7243   0.865   3.108   5.735  1.4571 -1.6460  2.3622
 1869SOL    MW4 7244   0.847   3.172   5.792 -0.4353  0.1849 -0.0444
 1870SOL     OW 7245   4.803   6.211   5.376 -0.4651  0.0002 -0.1376
 1870SOL    HW2 7246   4.831   6.123   5.354 -0.6214  0.1437 -0.9508
 1870SOL    HW3 7247   4.835   6.226   5.465  0.9312 -0.2944 -0.5777
 1870SOL    MW4 7248   4.811   6.202   5.385 -0.3015 -0.0197 -0.3029
 1871SOL     OW 7249   1.360   5.584   0.574 -0.1492  0.0541 -0.1161
 1871SOL    HW2 7250   1.302   5.625   0.638  0.5444 -1.6261  1.6873
 1871SOL    HW3 7251   1.353   5.490   0.592 -0.8767 -0.6323 -3.3830
 1871SOL    MW4 7252   1.351   5.577   0.585 -0.1537 -0.2582 -0.3092
 1872SOL     OW 7253   5.545   3.296   4.502  0.4520  0.1213 -0.4502
 1872SOL    HW2 7254   5.582   3.362   4.561 -0.0483  1.0357 -1.1447
 1872SOL    HW3 7255   5.543   3.338   4.416 -0.4970 -0.5555 -0.7783
 1872SOL    MW4 7256   5.550   3.310   4.498  0.2608  0.1527 -0.5851
 1873SOL     OW 7257   2.953   4.103   5.678  0.0635  0.0463  0.6361
 1873SOL    HW2 7258   2.966   4.131   5.588  0.4619 -0.7080  0.4610
 1873SOL    HW3 7259   2.970   4.182   5.730  0.5904  0.2868  0.1041
 1873SOL    MW4 7260   2.957   4.117   5.673  0.1856 -0.0215  0.5428
 1874SOL     OW 7261   0.030   6.063   4.137  0.0859 -0.2634 -0.1518
 1874SOL    HW2 7262  -0.036   5.994   4.139 -1.7344  1.4229  1.0923
 1874SOL    HW3 7263   0.001   6.127   4.201  2.3690  1.1102 -0.3513
 1874SOL    MW4 7264   0.018   6.062   4.145  0.1470  0.1404 -0.0140
 1875SOL     OW 7265   1.602   6.111   3.659 -0.4462  0.0796  0.0427
 1875SOL    HW2 7266   1.630   6.021   3.642  0.1795 -0.0684  1.6867
 1875SOL    HW3 7267   1.647   6.163   3.592  0.4064 -0.6712  0.0134
 1875SOL    MW4 7268   1.612   6.106   3.648 -0.2512 -0.0390  0.2558
 1876SOL     OW 7269   0.049   5.342   1.276  0.1735 -0.3100 -0.4804
 1876SOL    HW2 7270   0.109   5.267   1.276  0.2112 -0.2921  0.5120
 1876SOL    HW3 7271   0.071   5.390   1.196 -1.3899 -2.5671 -2.4086
 1876SOL    MW4 7272   0.060   5.338   1.266 -0.0278 -0.6055 -0.6039
 1877SOL     OW 7273   5.596   4.762   0.579 -0.2893  0.6872 -0.2520
 1877SOL    HW2 7274   5.610   4.856   0.593  1.9190  0.2197  1.3177
 1877SOL    HW3 7275   5.507   4.746   0.609 -1.1093  2.4423 -1.5878
 1877SOL    MW4 7276   5.586   4.772   0.585 -0.1062  0.8571 -0.2211
 1878SOL     OW 7277   1.366   5.854   3.872 -0.4817  0.1890  0.2189
 1878SOL    HW2 7278   1.333   5.917   3.808 -0.0901 -0.3443 -0.5312
 1878SOL    HW3 7279   1.297   5.847   3.937 -0.7887  0.9233 -0.0241
 1878SOL    MW4 7280   1.353   5.861   3.872 -0.4705  0.2155  0.0879
 1879SOL     OW 7281   4.489   2.056   3.126 -0.7493 -0.1941 -0.0037
 1879SOL    HW2 7282   4.564   2.042   3.185  0.3493 -0.1714 -1.3565
 1879SOL    HW3 7283   4.454   1.969   3.110 -1.3254 -0.1632  0.9986
 1879SOL    MW4 7284   4.494   2.043   3.132 -0.6804 -0.1870 -0.0500
 1880SOL     OW 7285   3.869   3.329   4.232 -0.4181  0.2144 -0.5873
 1880SOL    HW2 7286   3.960   3.299   4.232 -0.8730 -1.2761  0.1339
 1880SOL    HW3 7287   3.823   3.261   4.182 -1.2565  0.5374 -0.2535
 1880SOL    MW4 7288   3.875   3.316   4.225 -0.5887  0.0604 -0.4481
 1881SOL     OW 7289   4.147   4.505   1.420  0.3023  0.0235  0.3081
 1881SOL    HW2 7290   4.153   4.571   1.490  3.7939  1.2667 -0.9435
 1881SOL    HW3 7291   4.226   4.452   1.430 -0.6286 -1.6911 -0.9245
 1881SOL    MW4 7292   4.158   4.507   1.431  0.6402 -0.0387 -0.0197
 1882SOL     OW 7293   5.481   5.454   4.751 -0.4818 -0.0265  0.6239
 1882SOL    HW2 7294   5.555   5.398   4.774 -0.1966 -0.3675 -0.9805
 1882SOL    HW3 7295   5.408   5.393   4.738 -1.0964  0.3055  2.2003
 1882SOL    MW4 7296   5.481   5.439   4.752 -0.5253 -0.0277  0.6202
 1883SOL     OW 7297   5.674   0.124   1.364  0.3008  0.4277  0.2383
 1883SOL    HW2 7298   5.654   0.121   1.271 -2.6728  1.4929  0.7256
 1883SOL    HW3 7299   5.589   0.111   1.407  1.8124 -1.7482  2.8653
 1883SOL    MW4 7300   5.660   0.122   1.358  0.1079  0.2812  0.6492
 1884SOL     OW 7301   3.190   4.274   5.797  0.8699  0.0602 -0.6668
 1884SOL    HW2 7302   3.282   4.252   5.802  1.3276  2.1417  2.4627
 1884SOL    HW3 7303   3.187   4.358   5.751  0.5258 -0.0450 -0.8463
 1884SOL    MW4 7304   3.202   4.283   5.791  0.8849  0.3210 -0.2776
 1885SOL     OW 7305   1.320   4.156   3.808 -0.1170  1.0020  0.8005
 1885SOL    HW2 7306   1.238   4.205   3.822 -0.4759  0.4246  0.7320
 1885SOL    HW3 7307   1.337   4.114   3.893 -0.4604  0.2721  0.5150
 1885SOL    MW4 7308   1.311   4.157   3.821 -0.2097  0.8295  0.7538
 1886SOL     OW 7309   5.780   5.601   1.181  0.1999  0.0148  0.1718
 1886SOL    HW2 7310   5.837   5.591   1.257  0.0529  0.6241  0.3680
 1886SOL    HW3 7311   5.726   5.521   1.180  2.2003 -1.4279 -1.0264
 1886SOL    MW4 7312   5.780   5.589   1.191  0.4445 -0.0951  0.0396
 1887SOL     OW 7313   0.512   5.565   4.595  0.1731 -0.4884 -0.4225
 1887SOL    HW2 7314   0.491   5.631   4.530 -0.4980 -0.5526 -0.2790
 1887SOL    HW3 7315   0.607   5.553   4.588  0.2705  0.3464 -0.5783
 1887SOL    MW4 7316   0.522   5.572   4.586  0.0974 -0.3867 -0.4241
 1888SOL     OW 7317   4.243   4.454   4.861 -0.2459 -0.3481  1.1780
 1888SOL    HW2 7318   4.193   4.376   4.886  0.6102 -0.9433  1.0912
 1888SOL    HW3 7319   4.180   4.526   4.868 -1.0523 -1.0394  1.2777
 1888SOL    MW4 7320   4.228   4.453   4.865 -0.2393 -0.5179  1.1797
 1889SOL     OW 7321   5.658   2.478   5.513  0.3727 -0.1282  0.6265
 1889SOL    HW2 7322   5.736   2.524   5.542  0.4932  0.5881 -0.7512
 1889SOL    HW3 7323   5.683   2.437   5.430  0.0347 -2.0681  1.4301
 1889SOL    MW4 7324   5.671   2.478   5.506  0.3440 -0.2896  0.5507
 1890SOL     OW 7325   4.997   0.605   1.483  0.3328 -0.1700 -0.1294
 1890SOL    HW2 7326   5.012   0.615   1.389  0.3469  1.7273  0.0419
 1890SOL    HW3 7327   5.061   0.663   1.524  0.0725 -0.6813  1.0521
 1890SOL    MW4 7328   5.008   0.614   1.476  0.3003  0.0129  0.0491
 1891SOL     OW 7329   3.023   1.715   6.126  0.5611  0.0059 -0.7420
 1891SOL    HW2 7330   3.084   1.784   6.099  1.0326 -0.0225  0.2090
 1891SOL    HW3 7331   2.952   1.719   6.062 -0.4779  2.7686  0.4343
 1891SOL    MW4 7332   3.022   1.725   6.114  0.4863  0.3667 -0.4614
 1892SOL     OW 7333   5.094   0.257   5.671 -0.5130  0.2771  0.0583
 1892SOL    HW2 7334   5.171   0.297   5.631 -0.5074  0.1362 -0.0738
 1892SOL    HW3 7335   5.055   0.204   5.601 -0.4771 -0.0102  0.2508
 1892SOL    MW4 7336   5.099   0.255   5.657 -0.5075  0.2206  0.0663
 1893SOL     OW 7337   0.625   0.585   4.086  0.1794  1.1006  0.7069
 1893SOL    HW2 7338   0.677   0.637   4.025  0.5075  0.4096  0.3931
 1893SOL    HW3 7339   0.544   0.635   4.097 -0.1312  0.9594 -0.7556
 1893SOL    MW4 7340   0.621   0.599   4.079  0.1817  0.9908  0.4726
 1894SOL     OW 7341   1.628   3.835   0.320  0.1406  0.2632  0.0963
 1894SOL    HW2 7342   1.622   3.791   0.235  0.3639 -1.1643  0.7919
 1894SOL    HW3 7343   1.585   3.775   0.381  1.6202  0.3689  1.2994
 1894SOL    MW4 7344   1.621   3.821   0.317  0.3653  0.0888  0.3468
 1895SOL     OW 7345   4.867   2.415   5.926  0.1213 -0.3136 -0.3977
 1895SOL    HW2 7346   4.881   2.320   5.924  0.5838 -0.2359 -1.6817
 1895SOL    HW3 7347   4.779   2.425   5.961 -0.0195 -1.2278 -0.4589
 1895SOL    MW4 7348   4.857   2.404   5.930  0.1638 -0.4239 -0.5752
 1896SOL     OW 7349   1.036   4.472   2.168  0.6650  0.2546  0.1456
 1896SOL    HW2 7350   0.985   4.509   2.096  0.4584 -0.1879  0.0565
 1896SOL    HW3 7351   1.065   4.547   2.219  0.3415  0.5387 -0.0872
 1896SOL    MW4 7352   1.033   4.487   2.165  0.5950  0.2337  0.1031
 1897SOL     OW 7353   0.949   0.710   3.151  0.0556  0.1202 -0.2256
 1897SOL    HW2 7354   0.893   0.711   3.074 -1.4233 -0.7786  0.7731
 1897SOL    HW3 7355   0.957   0.802   3.176 -1.8589  0.2434  0.1465
 1897SOL    MW4 7356   0.942   0.722   3.144 -0.3921  0.0179 -0.0447
 1898SOL     OW 7357   4.344   6.117   0.180 -0.2146 -0.6580 -0.3604
 1898SOL    HW2 7358   4.249   6.109   0.176 -0.1386 -1.1311 -1.5836
 1898SOL    HW3 7359   4.372   6.044   0.236 -0.6812  0.6922  1.7765
 1898SOL    MW4 7360   4.335   6.106   0.187 -0.2662 -0.5423 -0.2398
 1899SOL     OW 7361   1.680   1.132   1.799  0.2940 -0.0802 -0.2685
 1899SOL    HW2 7362   1.636   1.092   1.874 -1.6908  1.4970 -0.5040
 1899SOL    HW3 7363   1.715   1.215   1.834 -2.0276  1.4597 -1.3199
 1899SOL    MW4 7364   1.679   1.138   1.814 -0.2742  0.3311 -0.4383
 1900SOL     OW 7365   6.081   4.205   3.340  0.6077  0.5434  0.4365
 1900SOL    HW2 7366   6.080   4.146   3.265 -1.0376  1.3604 -0.2397
 1900SOL    HW3 7367   6.068   4.292   3.302  0.9660  1.1127  1.5788
 1900SOL    MW4 7368   6.079   4.209   3.325  0.4379  0.7263  0.4980
 1901SOL     OW 7369   4.161   2.119   2.890  0.2266 -0.7586  0.7210
 1901SOL    HW2 7370   4.088   2.181   2.886  0.3864 -0.4557  2.1413
 1901SOL    HW3 7371   4.227   2.164   2.943  1.3844 -1.1067 -0.3815
 1901SOL    MW4 7372   4.160   2.133   2.896  0.4004 -0.7646  0.7629
 1902SOL     OW 7373   6.094   3.965   4.061 -0.0677 -0.0655  0.4650
 1902SOL    HW2 7374   6.180   3.987   4.025 -0.0788  0.0686  0.5213
 1902SOL    HW3 7375   6.113   3.926   4.146 -0.1496  1.9653  1.4871
 1902SOL    MW4 7376   6.108   3.963   4.067 -0.0800  0.2201  0.6073
 1903SOL     OW 7377   5.815   3.505   3.886  0.5605 -0.0258  0.5873
 1903SOL    HW2 7378   5.842   3.486   3.796 -3.2335 -1.9967 -0.3483
 1903SOL    HW3 7379   5.738   3.562   3.877 -1.1338 -1.8393  2.3384
 1903SOL    MW4 7380   5.808   3.510   3.873 -0.1636 -0.5251  0.6949
 1904SOL     OW 7381   5.794   0.885   5.482  0.2845  0.0975 -0.0304
 1904SOL    HW2 7382   5.738   0.957   5.453 -0.5361 -0.6887 -0.4254
 1904SOL    HW3 7383   5.874   0.894   5.429  0.8009  1.5444  0.9133
 1904SOL    MW4 7384   5.797   0.896   5.471  0.2443  0.1847  0.0420
 1905SOL     OW 7385   1.902   1.391   4.054  0.4558  0.1642  0.0450
 1905SOL    HW2 7386   1.833   1.327   4.038 -0.3511  1.0441 -0.0435
 1905SOL    HW3 7387   1.946   1.359   4.133  0.2128 -0.6106 -0.1230
 1905SOL    MW4 7388   1.899   1.379   4.062  0.3173  0.1780  0.0112
 1906SOL     OW 7389   3.940   4.938   5.187  0.3706  0.1009  0.3568
 1906SOL    HW2 7390   3.882   4.886   5.242 -1.9231  0.4784 -1.5265
 1906SOL    HW3 7391   3.909   4.922   5.098  2.9250  0.7146 -0.7405
 1906SOL    MW4 7392   3.929   4.929   5.182  0.4050  0.2317 -0.0364
 1907SOL     OW 7393   0.446   3.380  -0.010  0.4245 -0.3960 -0.1862
 1907SOL    HW2 7394   0.504   3.407   0.061 -0.2064 -0.6068  0.4124
 1907SOL    HW3 7395   0.488   3.303  -0.048  1.2984  0.3226 -0.7284
 1907SOL    MW4 7396   0.459   3.374  -0.006  0.4566 -0.3290 -0.1787
 1908SOL     OW 7397   4.320   6.167   5.869  0.0197  0.0754  0.3702
 1908SOL    HW2 7398   4.277   6.245   5.835  1.2178  0.1629 -1.0493
 1908SOL    HW3 7399   4.295   6.164   5.961  0.0141  2.1872  0.4884
 1908SOL    MW4 7400   4.311   6.177   5.877  0.1770  0.3656  0.1985
 1909SOL     OW 7401   1.234   1.828   3.230  0.1049 -0.1944  0.2805
 1909SOL    HW2 7402   1.319   1.785   3.229 -0.7237 -1.9353  1.1866
 1909SOL    HW3 7403   1.175   1.766   3.189 -1.0265  0.3131  1.0853
 1909SOL    MW4 7404   1.238   1.814   3.224 -0.1537 -0.3571  0.5063
 1910SOL     OW 7405   3.614   3.765   1.091  0.2986  0.3961  0.2307
 1910SOL    HW2 7406   3.625   3.815   1.172  1.0819 -0.3989  0.6235
 1910SOL    HW3 7407   3.627   3.830   1.022  1.3936  0.7285  0.7335
 1910SOL    MW4 7408   3.617   3.780   1.092  0.5464  0.3351  0.3488
 1911SOL     OW 7409   0.010   3.840   5.732 -0.1105 -0.3707  0.0567
 1911SOL    HW2 7410  -0.026   3.894   5.802 -0.4329 -0.9479  0.3421
 1911SOL    HW3 7411   0.028   3.756   5.774  1.9979  0.0178  0.0453
 1911SOL    MW4 7412   0.007   3.836   5.747  0.1252 -0.3956  0.0928
 1912SOL     OW 7413   3.068   3.384   3.589  0.0543  0.4120 -0.4842
 1912SOL    HW2 7414   3.021   3.319   3.536 -0.8182 -0.7595  1.5881
 1912SOL    HW3 7415   3.011   3.460   3.590 -0.5670 -0.0516 -0.1372
 1912SOL    MW4 7416   3.054   3.385   3.582 -0.1428  0.1963 -0.1650
 1913SOL     OW 7417   3.142   5.075   1.358 -0.1461 -0.6720 -0.4305
 1913SOL    HW2 7418   3.198   5.151   1.342  1.9159 -2.0407 -0.1254
 1913SOL    HW3 7419   3.111   5.049   1.271 -1.2764  0.7399 -0.4949
 1913SOL    MW4 7420   3.145   5.081   1.344 -0.0232 -0.6663 -0.3987
 1914SOL     OW 7421   2.629   6.036   3.282 -0.7765 -0.2288 -0.6444
 1914SOL    HW2 7422   2.628   6.072   3.371 -0.0654  0.1223 -0.7739
 1914SOL    HW3 7423   2.539   6.006   3.268 -0.8596 -0.4332  0.2469
 1914SOL    MW4 7424   2.617   6.037   3.292 -0.6937 -0.2095 -0.5439
 1915SOL     OW 7425   2.755   4.866   2.051 -0.0226 -0.1256  0.9421
 1915SOL    HW2 7426   2.717   4.841   2.135  2.0542 -0.5585  1.8234
 1915SOL    HW3 7427   2.682   4.900   2.000 -1.5220 -0.8079  2.5471
 1915SOL    MW4 7428   2.741   4.867   2.055  0.0536 -0.2727  1.2701
 1916SOL     OW 7429   5.627   5.669   4.657 -0.0274  0.1513  0.2717
 1916SOL    HW2 7430   5.578   5.751   4.651  0.4320  0.4063 -0.0730
 1916SOL    HW3 7431   5.560   5.602   4.671 -0.7949  0.1313 -2.7818
 1916SOL    MW4 7432   5.611   5.671   4.658 -0.0680  0.1823 -0.1767
 1917SOL     OW 7433   0.245   0.235   3.715  0.0844 -0.8183  0.1425
 1917SOL    HW2 7434   0.160   0.193   3.729  0.8163 -1.8637  1.6734
 1917SOL    HW3 7435   0.258   0.290   3.791  0.4792 -0.1105 -0.4266
 1917SOL    MW4 7436   0.236   0.236   3.727  0.2330 -0.8629  0.2694
 1918SOL     OW 7437   2.353   4.542   1.562  0.6054  0.0845 -0.1971
 1918SOL    HW2 7438   2.293   4.562   1.489 -0.9660  0.9973  1.2733
 1918SOL    HW3 7439   2.416   4.613   1.560 -1.4183  2.0735  1.2941
 1918SOL    MW4 7440   2.353   4.554   1.552  0.1311  0.4674  0.1937
 1919SOL     OW 7441   3.561   4.245   1.412  0.4843  0.2073  0.4112
 1919SOL    HW2 7442   3.560   4.276   1.502 -0.3397 -0.7285  0.7526
 1919SOL    HW3 7443   3.480   4.194   1.404  2.0086 -2.2989  0.0645
 1919SOL    MW4 7444   3.550   4.242   1.423  0.5767 -0.2468  0.4105
 1920SOL     OW 7445   2.512   1.143   4.999 -0.0802 -0.9224 -0.4964
 1920SOL    HW2 7446   2.522   1.153   4.905 -2.6277  0.3869 -0.7286
 1920SOL    HW3 7447   2.593   1.179   5.036  1.7291 -3.0369 -2.1383
 1920SOL    MW4 7448   2.524   1.149   4.992 -0.1776 -1.0286 -0.7436
 1921SOL     OW 7449   4.508   5.218   0.619 -0.2714 -0.1330  0.3285
 1921SOL    HW2 7450   4.448   5.278   0.574 -0.7789 -0.1766  0.9363
 1921SOL    HW3 7451   4.474   5.131   0.597  0.4067 -0.2091 -0.4736
 1921SOL    MW4 7452   4.496   5.214   0.610 -0.2489 -0.1488  0.3029
 1922SOL     OW 7453   6.034   2.045   3.788  0.1239 -0.6258  0.9192
 1922SOL    HW2 7454   5.962   1.987   3.812 -0.0108 -0.5525  0.7017
 1922SOL    HW3 7455   5.996   2.133   3.790  0.1125 -0.6180  0.4619
 1922SOL    MW4 7456   6.019   2.049   3.791  0.1047 -0.6151  0.8301
 1923SOL     OW 7457   2.551   2.095   5.546  0.0021  0.6238  0.0185
 1923SOL    HW2 7458   2.597   2.179   5.545 -0.8653  1.1235  0.5838
 1923SOL    HW3 7459   2.517   2.085   5.457  3.8016 -1.2907 -1.4318
 1923SOL    MW4 7460   2.553   2.105   5.534  0.3890  0.4372 -0.0982
 1924SOL     OW 7461   5.446   6.404   4.128 -0.2991  0.0278  0.2296
 1924SOL    HW2 7462   5.450   6.328   4.070  2.0676  1.3373 -1.5014
 1924SOL    HW3 7463   5.438   6.366   4.216 -1.8266 -2.0974 -0.7325
 1924SOL    MW4 7464   5.445   6.389   4.132 -0.1884 -0.0798 -0.1257
 1925SOL     OW 7465   3.655   5.861   1.885 -0.5123 -0.0421 -0.0981
 1925SOL    HW2 7466   3.628   5.916   1.959 -2.2992  1.1425 -1.5413
 1925SOL    HW3 7467   3.696   5.922   1.823 -0.8253 -0.6528 -0.9259
 1925SOL    MW4 7468   3.657   5.876   1.887 -0.7893  0.0336 -0.3977
 1926SOL     OW 7469   1.045   3.147   2.312 -0.1052 -0.6909 -0.1543
 1926SOL    HW2 7470   1.075   3.056   2.310  0.0850 -0.6220 -0.9579
 1926SOL    HW3 7471   0.981   3.150   2.383  0.1466 -1.3658  0.1120
 1926SOL    MW4 7472   1.041   3.135   2.321 -0.0469 -0.7708 -0.2252
 1927SOL     OW 7473   0.612   5.598   1.540  0.6784 -0.1063 -0.0554
 1927SOL    HW2 7474   0.553   5.526   1.564  1.3792 -0.2174  1.4064
 1927SOL    HW3 7475   0.699   5.560   1.542  0.9389  0.4202 -0.8053
 1927SOL    MW4 7476   0.615   5.584   1.543  0.8052 -0.0515  0.0385
 1928SOL     OW 7477   3.633   0.483   4.402 -0.0778 -0.1040  0.3686
 1928SOL    HW2 7478   3.558   0.541   4.411  0.8241  1.3419 -0.9358
 1928SOL    HW3 7479   3.608   0.421   4.333 -0.0271  0.4811 -0.1827
 1928SOL    MW4 7480   3.620   0.482   4.394  0.0479  0.1639  0.1237
 1929SOL     OW 7481   2.172   2.153   1.082 -0.4315 -0.5615  0.3466
 1929SOL    HW2 7482   2.237   2.150   1.151  1.5404  0.2844 -1.3730
 1929SOL    HW3 7483   2.126   2.069   1.088  1.3529 -1.5218  1.1156
 1929SOL    MW4 7484   2.174   2.142   1.092  0.0641 -0.5766  0.2212
 1930SOL     OW 7485   1.355   2.261   5.648  0.0294 -0.3112  0.5316
 1930SOL    HW2 7486   1.447   2.247   5.668  0.7016  2.0072 -0.5256
 1930SOL    HW3 7487   1.308   2.235   5.727  1.4103 -2.7368  0.6496
 1930SOL    MW4 7488   1.361   2.256   5.661  0.3003 -0.3254  0.4076
 1931SOL     OW 7489   6.355   0.571   0.952 -0.1001  0.1188 -0.0821
 1931SOL    HW2 7490   6.275   0.557   1.002  0.3811 -2.7939  0.0363
 1931SOL    HW3 7491   6.378   0.663   0.969 -2.3964  0.5174  1.3259
 1931SOL    MW4 7492   6.347   0.582   0.961 -0.3396 -0.2129  0.1193
 1932SOL     OW 7493   6.220   6.221   4.781 -0.0830  0.0490  0.2486
 1932SOL    HW2 7494   6.175   6.140   4.756  2.7322 -1.3107 -0.9543
 1932SOL    HW3 7495   6.174   6.289   4.733 -0.8895 -1.2443 -0.9124
 1932SOL    MW4 7496   6.208   6.219   4.771  0.1820 -0.3010 -0.0633
 1933SOL     OW 7497   1.988   2.320   1.193  0.5578 -0.3467 -0.2927
 1933SOL    HW2 7498   2.041   2.256   1.147  0.8571 -1.3733  1.3959
 1933SOL    HW3 7499   1.961   2.276   1.273  1.7662  1.9936  1.5406
 1933SOL    MW4 7500   1.991   2.306   1.198  0.7567 -0.1734  0.1720
 1934SOL     OW 7501   1.869   5.218   1.856  0.1694 -0.3250  0.4038
 1934SOL    HW2 7502   1.841   5.265   1.934  0.1808 -0.3614  0.4301
 1934SOL    HW3 7503   1.940   5.271   1.820  0.0841 -0.2466  0.3515
 1934SOL    MW4 7504   1.875   5.231   1.861  0.1597 -0.3195  0.4004
 1935SOL     OW 7505   0.078   1.131   1.961  0.5133  0.1046  0.4170
 1935SOL    HW2 7506  -0.003   1.177   1.979  0.1097 -1.2098  2.2076
 1935SOL    HW3 7507   0.050   1.041   1.940  1.4426 -0.0550 -0.2106
 1935SOL    MW4 7508   0.064   1.125   1.960  0.5826 -0.0899  0.5705
 1936SOL     OW 7509   3.297   1.524   2.764  0.5279 -0.2508 -0.3610
 1936SOL    HW2 7510   3.306   1.604   2.712  0.5220 -0.0415 -0.0505
 1936SOL    HW3 7511   3.255   1.554   2.845 -0.1626 -0.6949 -0.5432
 1936SOL    MW4 7512   3.292   1.539   2.768  0.4361 -0.2818 -0.3441
 1937SOL     OW 7513   5.431   3.245   2.168  0.3757  0.1046 -0.3409
 1937SOL    HW2 7514   5.504   3.195   2.205  1.0345  0.6804 -0.8356
 1937SOL    HW3 7515   5.443   3.334   2.202 -0.1038  0.2016 -0.4184
 1937SOL    MW4 7516   5.442   3.250   2.177  0.3994  0.1933 -0.4164
 1938SOL     OW 7517   3.420   4.097   5.628 -0.1728  0.1165  0.3036
 1938SOL    HW2 7518   3.462   4.011   5.635  2.9664  1.0414 -3.3245
 1938SOL    HW3 7519   3.354   4.085   5.560 -0.7563  0.2551  0.8468
 1938SOL    MW4 7520   3.417   4.084   5.620  0.1644  0.2568 -0.1034
 1939SOL     OW 7521   5.516   4.988   2.553  0.6989 -0.2890  0.0236
 1939SOL    HW2 7522   5.485   5.072   2.584  0.3458 -0.8505  1.2493
 1939SOL    HW3 7523   5.608   4.984   2.581  0.7013 -0.3289  0.0105
 1939SOL    MW4 7524   5.524   4.998   2.561  0.6527 -0.3683  0.1836
 1940SOL     OW 7525   4.710   1.608   2.070  0.9655  0.2718 -0.7320
 1940SOL    HW2 7526   4.744   1.556   2.142 -0.5556  0.7762  0.4036
 1940SOL    HW3 7527   4.736   1.698   2.091 -0.5171  0.5860 -0.1401
 1940SOL    MW4 7528   4.718   1.613   2.082  0.5692  0.3798 -0.5040
 1941SOL     OW 7529   5.583   0.570   0.990 -0.1341  0.4736  0.2549
 1941SOL    HW2 7530   5.561   0.476   0.991 -1.6321  0.7712 -1.2369
 1941SOL    HW3 7531   5.569   0.597   0.900  1.7490  1.8508  0.3211
 1941SOL    MW4 7532   5.578   0.561   0.978 -0.0833  0.6946  0.0668
 1942SOL     OW 7533   1.973   5.906   5.607  0.1020 -0.3252 -0.1900
 1942SOL    HW2 7534   2.008   5.866   5.527 -0.2369  0.0164 -0.5123
 1942SOL    HW3 7535   1.898   5.958   5.577  0.0437 -0.1037  0.3340
 1942SOL    MW4 7536   1.968   5.908   5.592  0.0496 -0.2509 -0.1634
 1943SOL     OW 7537   3.446   1.603   2.396  0.6084 -1.2557  0.1786
 1943SOL    HW2 7538   3.465   1.690   2.432 -0.4059 -0.4625 -1.1172
 1943SOL    HW3 7539   3.514   1.546   2.433  2.0211  0.3148  0.1133
 1943SOL    MW4 7540   3.458   1.607   2.406  0.6610 -0.9438 -0.0009
 1944SOL     OW 7541   0.591   0.159   6.008 -1.1436 -0.3409 -0.2149
 1944SOL    HW2 7542   0.540   0.156   6.089  0.1248 -1.7777  0.5781
 1944SOL    HW3 7543   0.614   0.252   5.999 -1.2493 -0.1565  1.1166
 1944SOL    MW4 7544   0.587   0.171   6.018 -0.9902 -0.5062  0.0654
 1945SOL     OW 7545   5.308   1.576   2.890  0.5509 -0.0301 -0.0292
 1945SOL    HW2 7546   5.317   1.622   2.807  0.3920  1.0246  0.5228
 1945SOL    HW3 7547   5.230   1.615   2.931  0.2261 -1.0116  0.3133
 1945SOL    MW4 7548   5.299   1.587   2.885  0.4871 -0.0205  0.0888
 1946SOL     OW 7549   0.931   2.479   3.886 -0.3725  0.2217 -0.1215
 1946SOL    HW2 7550   1.025   2.471   3.903 -0.5547 -1.7046  0.1890
 1946SOL    HW3 7551   0.889   2.446   3.965 -1.3946  2.9474  0.5822
 1946SOL    MW4 7552   0.938   2.473   3.899 -0.5314  0.3272  0.0123
 1947SOL     OW 7553   5.098   6.326   2.543 -0.3701  0.4448  0.4039
 1947SOL    HW2 7554   5.020   6.306   2.595  0.4760  0.8019  1.8769
 1947SOL    HW3 7555   5.090   6.271   2.465 -1.4573 -0.4902  1.1467
 1947SOL    MW4 7556   5.087   6.316   2.540 -0.4019  0.3686  0.6962
 1948SOL     OW 7557   4.270   6.145   5.291 -0.0447  0.3719 -0.1306
 1948SOL    HW2 7558   4.235   6.056   5.300  1.3855 -0.2283 -0.1557
 1948SOL    HW3 7559   4.196   6.202   5.310 -0.8007 -0.8266  0.6776
 1948SOL    MW4 7560   4.256   6.141   5.295  0.0443  0.1346 -0.0273
 1949SOL     OW 7561   3.785   3.346   0.341 -0.1867 -0.4649  0.3918
 1949SOL    HW2 7562   3.790   3.301   0.257  0.3638 -0.4002  0.3819
 1949SOL    HW3 7563   3.748   3.432   0.320  0.6066 -0.1842  0.0929
 1949SOL    MW4 7564   3.781   3.352   0.327 -0.0094 -0.4193  0.3510
 1950SOL     OW 7565   4.583   2.608   4.966 -0.0549  0.3149 -0.3099
 1950SOL    HW2 7566   4.658   2.562   5.003  0.6725  2.2616  0.7563
 1950SOL    HW3 7567   4.598   2.607   4.871  2.3975  2.3240 -0.0371
 1950SOL    MW4 7568   4.595   2.602   4.958  0.3646  0.8368 -0.1333
 1951SOL     OW 7569   6.349   1.239   4.730  0.3661  0.4953  0.1904
 1951SOL    HW2 7570   6.379   1.151   4.707 -1.1351 -0.3254  1.1992
 1951SOL    HW3 7571   6.377   1.251   4.821 -0.9197  0.3454  0.6219
 1951SOL    MW4 7572   6.357   1.229   4.739 -0.0017  0.3673  0.3804
 1952SOL     OW 7573   1.565   0.674   2.443  0.2496 -0.1401  0.8832
 1952SOL    HW2 7574   1.618   0.658   2.365 -1.5315  0.1243 -0.4569
 1952SOL    HW3 7575   1.479   0.697   2.409 -0.2594  1.3052  2.9160
 1952SOL    MW4 7576   1.561   0.675   2.428 -0.0525  0.0855  0.9746
 1953SOL     OW 7577   5.059   1.237   0.127  0.1551  0.4398  0.2053
 1953SOL    HW2 7578   5.110   1.159   0.109  0.3714  0.4099  0.9232
 1953SOL    HW3 7579   4.985   1.206   0.180 -1.2637  0.2934 -1.7685
 1953SOL    MW4 7580   5.056   1.223   0.132 -0.0036  0.4165  0.0396
 1954SOL     OW 7581   1.524   5.295   5.114  0.8184 -0.2484 -0.1564
 1954SOL    HW2 7582   1.510   5.384   5.145  0.5310 -0.3128 -0.1001
 1954SOL    HW3 7583   1.601   5.264   5.162  1.1744  0.1192 -0.4895
 1954SOL    MW4 7584   1.532   5.303   5.124  0.8274 -0.2084 -0.1929
 1955SOL     OW 7585   1.276   3.810   2.949 -0.6903 -0.3559  0.4582
 1955SOL    HW2 7586   1.276   3.816   3.045  0.3167 -0.4746  0.4780
 1955SOL    HW3 7587   1.300   3.897   2.919 -1.2788 -0.2447  0.2992
 1955SOL    MW4 7588   1.279   3.822   2.958 -0.6351 -0.3569  0.4399
 1956SOL     OW 7589   6.189   0.071   1.606 -0.1231 -0.2625  0.5272
 1956SOL    HW2 7590   6.151   0.063   1.694 -0.6222 -0.9495  0.2632
 1956SOL    HW3 7591   6.115   0.091   1.550  0.6824  4.4661  0.7490
 1956SOL    MW4 7592   6.174   0.072   1.611 -0.0826  0.2707  0.5216
 1957SOL     OW 7593   1.393   4.406   4.216 -0.6534  0.0221  0.0655
 1957SOL    HW2 7594   1.441   4.323   4.212  1.7216  1.3134 -0.1260
 1957SOL    HW3 7595   1.393   4.438   4.126  0.8614  1.4551  0.5296
 1957SOL    MW4 7596   1.400   4.399   4.204 -0.1402  0.3816  0.1015
 1958SOL     OW 7597   1.323   5.702   3.608  0.4485  0.0767  0.2443
 1958SOL    HW2 7598   1.359   5.730   3.692 -0.8570  0.6375  0.6482
 1958SOL    HW3 7599   1.327   5.607   3.610  1.0357  0.1033  0.6495
 1958SOL    MW4 7600   1.328   5.693   3.619  0.3537  0.1542  0.3511
 1959SOL     OW 7601   0.904   4.873   2.943  0.0158  0.0134 -0.3267
 1959SOL    HW2 7602   0.895   4.968   2.933 -1.1657  0.0439  0.7280
 1959SOL    HW3 7603   0.908   4.860   3.038  0.9620 -0.9411 -0.4814
 1959SOL    MW4 7604   0.903   4.884   2.954 -0.0153 -0.1085 -0.2080
 1960SOL     OW 7605   1.613   1.190   3.527 -0.5985  0.0675  0.1397
 1960SOL    HW2 7606   1.554   1.116   3.514  0.9024 -1.4148  1.2750
 1960SOL    HW3 7607   1.686   1.173   3.467 -0.5086  0.9652 -0.0234
 1960SOL    MW4 7608   1.615   1.178   3.517 -0.3886 -0.0096  0.2679
 1961SOL     OW 7609   2.240   4.608   4.006 -0.2636  0.1574 -0.3256
 1961SOL    HW2 7610   2.180   4.551   4.054 -0.1603  2.0038  2.1680
 1961SOL    HW3 7611   2.184   4.652   3.942 -0.4500 -2.1574 -1.8878
 1961SOL    MW4 7612   2.224   4.606   4.004 -0.2746  0.0956 -0.2027
 1962SOL     OW 7613   1.109   4.098   1.798  0.4067 -0.3572 -0.1570
 1962SOL    HW2 7614   1.138   4.133   1.881  1.5512  0.3276 -0.8249
 1962SOL    HW3 7615   1.106   4.174   1.739 -1.1701 -0.6793 -0.5566
 1962SOL    MW4 7616   1.112   4.113   1.801  0.3496 -0.3093 -0.2979
 1963SOL     OW 7617   4.561   3.646   4.276 -0.4876  0.3438  0.0540
 1963SOL    HW2 7618   4.563   3.607   4.364 -0.6367 -0.3043 -0.2223
 1963SOL    HW3 7619   4.646   3.689   4.267  0.0059 -0.5931  0.0737
 1963SOL    MW4 7620   4.573   3.646   4.286 -0.4422  0.1347  0.0202
 1964SOL     OW 7621   3.889   4.561   2.270  0.1084 -0.1025  0.2574
 1964SOL    HW2 7622   3.899   4.559   2.365  1.0524 -0.1106  0.1626
 1964SOL    HW3 7623   3.796   4.542   2.255 -0.5371  1.9461  1.2732
 1964SOL    MW4 7624   3.878   4.558   2.280  0.1478  0.1667  0.3789
 1965SOL     OW 7625   4.213   3.494   3.827  0.0728 -0.4894  1.0376
 1965SOL    HW2 7626   4.263   3.527   3.901  0.8888 -2.8114  1.5945
 1965SOL    HW3 7627   4.154   3.428   3.865 -1.0346 -0.1979 -0.0896
 1965SOL    MW4 7628   4.212   3.490   3.841  0.0343 -0.7573  0.9623
 1966SOL     OW 7629   5.751   3.810   4.931  0.2957 -0.4405 -0.4002
 1966SOL    HW2 7630   5.673   3.773   4.890 -0.0585 -0.9652  0.7051
 1966SOL    HW3 7631   5.751   3.774   5.020  0.6504  1.2126  0.3101
 1966SOL    MW4 7632   5.741   3.800   4.938  0.2957 -0.2916 -0.1606
 1967SOL     OW 7633   5.713   0.071   3.578  0.2142  0.1741 -0.3553
 1967SOL    HW2 7634   5.625   0.074   3.541  0.5809  1.1701 -1.2237
 1967SOL    HW3 7635   5.744   0.162   3.572  0.9357  0.0372  0.8618
 1967SOL    MW4 7636   5.706   0.084   3.572  0.3578  0.2874 -0.3093
 1968SOL     OW 7637   2.065   1.484   3.325  0.1077  0.4310  0.6291
 1968SOL    HW2 7638   2.109   1.413   3.278  2.0024  1.9157  0.0511
 1968SOL    HW3 7639   2.017   1.532   3.257  0.2110  0.7024  0.7480
 1968SOL    MW4 7640   2.064   1.481   3.310  0.3713  0.6627  0.5686
 1969SOL     OW 7641   0.818   1.856   5.594 -0.0209  0.3684 -0.2384
 1969SOL    HW2 7642   0.772   1.839   5.676  0.0789  0.5680 -0.1398
 1969SOL    HW3 7643   0.759   1.824   5.526  0.9241 -2.0808  0.0061
 1969SOL    MW4 7644   0.804   1.850   5.596  0.1170  0.0716 -0.1931
 1970SOL     OW 7645   2.307   2.712   3.398  0.2654 -0.3396 -0.0763
 1970SOL    HW2 7646   2.320   2.777   3.328  1.2960 -0.6931 -0.2284
 1970SOL    HW3 7647   2.355   2.748   3.473 -2.0269  0.7663  0.9669
 1970SOL    MW4 7648   2.315   2.725   3.399  0.0989 -0.2403  0.0412
 1971SOL     OW 7649   5.215   2.781   4.552  0.0254 -0.7467  0.7393
 1971SOL    HW2 7650   5.222   2.854   4.614  1.5220 -0.4364  0.2562
 1971SOL    HW3 7651   5.290   2.725   4.572 -0.0871 -1.2063 -0.0825
 1971SOL    MW4 7652   5.226   2.783   4.563  0.2080 -0.7664  0.5671
 1972SOL     OW 7653   2.739   2.524   0.926  0.1983 -0.4952 -0.1743
 1972SOL    HW2 7654   2.824   2.543   0.885 -0.0116 -0.7277 -0.7254
 1972SOL    HW3 7655   2.750   2.552   1.017 -0.5576  3.7400 -1.1912
 1972SOL    MW4 7656   2.752   2.530   0.933  0.0709  0.0329 -0.3812
 1973SOL     OW 7657   1.342   0.797   2.073  0.1577  0.7166 -0.3343
 1973SOL    HW2 7658   1.280   0.770   2.006  0.0295  0.4210 -0.0944
 1973SOL    HW3 7659   1.374   0.716   2.111  0.9619  0.8525 -0.6966
 1973SOL    MW4 7660   1.338   0.783   2.069  0.2469  0.6956 -0.3505
 1974SOL     OW 7661   5.901   4.457   0.050 -0.0686 -0.0343 -0.4457
 1974SOL    HW2 7662   5.914   4.515   0.125 -0.2612 -0.8206  0.1981
 1974SOL    HW3 7663   5.865   4.515  -0.018 -1.1140  0.4229  0.4762
 1974SOL    MW4 7664   5.898   4.472   0.051 -0.2320 -0.0777 -0.2391
 1975SOL     OW 7665   1.802   1.651   3.423 -0.2390  0.4145  0.1015
 1975SOL    HW2 7666   1.823   1.718   3.488 -0.3468 -0.5717  1.1811
 1975SOL    HW3 7667   1.887   1.628   3.384 -0.2600  1.5122 -0.6508
 1975SOL    MW4 7668   1.816   1.657   3.426 -0.2560  0.4292  0.1447
 1976SOL     OW 7669   1.447   5.254   0.871 -1.0311  0.1040 -0.3119
 1976SOL    HW2 7670   1.497   5.183   0.831 -1.3729 -1.2794  1.5594
 1976SOL    HW3 7671   1.374   5.270   0.810 -0.4727 -0.5567 -1.1748
 1976SOL    MW4 7672   1.444   5.247   0.858 -1.0025 -0.1657 -0.1789
 1977SOL     OW 7673   4.855   4.998   5.261 -0.5568 -0.4345 -0.5178
 1977SOL    HW2 7674   4.898   4.933   5.205 -0.9633 -0.4767 -0.7857
 1977SOL    HW3 7675   4.782   4.950   5.301  1.2246 -1.1810  2.1412
 1977SOL    MW4 7676   4.851   4.983   5.259 -0.3754 -0.5385 -0.2023
 1978SOL     OW 7677   4.238   1.552   4.783  0.0930  0.2551  0.3015
 1978SOL    HW2 7678   4.256   1.469   4.738 -0.1924  0.6114 -0.4943
 1978SOL    HW3 7679   4.180   1.599   4.723 -0.8932  0.4514  1.3711
 1978SOL    MW4 7680   4.233   1.547   4.769 -0.0747  0.3280  0.3377
 1979SOL     OW 7681   3.516   1.514   6.333  0.4762  0.2864  0.5081
 1979SOL    HW2 7682   3.463   1.465   6.396  0.7066  1.0797  1.3305
 1979SOL    HW3 7683   3.606   1.505   6.364  0.3060  3.3287  2.1921
 1979SOL    MW4 7684   3.521   1.506   6.345  0.4841  0.7924  0.8388
 1980SOL     OW 7685   3.048   0.030   2.004  0.2151 -0.3533 -0.3342
 1980SOL    HW2 7686   2.960  -0.005   1.995  0.6128 -1.1779 -1.1704
 1980SOL    HW3 7687   3.100  -0.018   1.940  2.2790 -3.0878  3.0765
 1980SOL    MW4 7688   3.044   0.019   1.995  0.5399 -0.8229  0.0055
 1981SOL     OW 7689   1.840   5.482   0.345 -0.1954 -0.4740  0.6416
 1981SOL    HW2 7690   1.775   5.545   0.375  0.4135  0.2418  0.4771
 1981SOL    HW3 7691   1.917   5.500   0.399  0.3374 -0.3504 -0.1524
 1981SOL    MW4 7692   1.842   5.493   0.356 -0.0447 -0.3633  0.5151
 1982SOL     OW 7693   4.736   0.837   5.887 -0.1743  0.1472  0.3102
 1982SOL    HW2 7694   4.642   0.827   5.869 -0.2713 -0.0164  0.8817
 1982SOL    HW3 7695   4.763   0.912   5.834 -0.5068 -0.1433 -0.2835
 1982SOL    MW4 7696   4.727   0.845   5.878 -0.2309  0.0873  0.3073
 1983SOL     OW 7697   1.888   4.742   3.060  0.1674  0.6708 -0.6273
 1983SOL    HW2 7698   1.981   4.748   3.039  0.0291  0.2359 -1.3992
 1983SOL    HW3 7699   1.883   4.764   3.153  1.1675 -0.3591 -0.3088
 1983SOL    MW4 7700   1.899   4.746   3.069  0.2811  0.4776 -0.6871
 1984SOL     OW 7701   1.714   4.711   2.826  0.3771 -0.2295 -0.5463
 1984SOL    HW2 7702   1.625   4.736   2.851 -0.0540 -1.5900 -0.6023
 1984SOL    HW3 7703   1.762   4.708   2.909  0.3989  0.5984 -0.5255
 1984SOL    MW4 7704   1.709   4.714   2.841  0.3231 -0.2997 -0.5509
 1985SOL     OW 7705   3.175   4.017   4.480  0.2302  0.5457  0.0277
 1985SOL    HW2 7706   3.127   3.973   4.551 -0.2358  1.5627  0.3616
 1985SOL    HW3 7707   3.182   4.108   4.509  0.8447  0.7792 -0.8263
 1985SOL    MW4 7708   3.169   4.023   4.493  0.2498  0.7107 -0.0409
 1986SOL     OW 7709   5.595   6.386   1.945  0.4059 -0.1031 -0.4188
 1986SOL    HW2 7710   5.559   6.359   1.861  3.1350  0.0200 -1.7355
 1986SOL    HW3 7711   5.586   6.308   2.001  1.9562 -1.5432 -2.0471
 1986SOL    MW4 7712   5.589   6.372   1.942  0.9705 -0.2769 -0.8074
 1987SOL     OW 7713   5.172   4.334   4.231 -0.4783 -0.3388 -0.0901
 1987SOL    HW2 7714   5.183   4.305   4.321  0.7192 -0.6692 -0.3347
 1987SOL    HW3 7715   5.187   4.255   4.178  0.3284  0.1661 -0.6400
 1987SOL    MW4 7716   5.175   4.319   4.236 -0.2139 -0.3158 -0.1949
 1988SOL     OW 7717   5.769   4.404   0.448  0.0450  0.1701  0.0520
 1988SOL    HW2 7718   5.708   4.394   0.520  0.5616 -1.5398  0.2858
 1988SOL    HW3 7719   5.854   4.378   0.483  0.8076  1.7212 -0.4952
 1988SOL    MW4 7720   5.773   4.400   0.462  0.2138  0.1492  0.0107
 1989SOL     OW 7721   1.250   3.961   3.411  0.5427  0.0521  0.1147
 1989SOL    HW2 7722   1.311   4.034   3.409  0.8587 -0.2224 -1.4688
 1989SOL    HW3 7723   1.168   3.997   3.378  0.9201 -0.4553 -1.4774
 1989SOL    MW4 7724   1.247   3.975   3.406  0.6342 -0.0510 -0.3043
 1990SOL     OW 7725   1.718   3.978   1.825  0.4372  0.1675  0.1974
 1990SOL    HW2 7726   1.760   3.904   1.869  1.5998  0.7122  0.0430
 1990SOL    HW3 7727   1.738   4.054   1.880  1.9823  0.8715 -1.2595
 1990SOL    MW4 7728   1.726   3.978   1.838  0.7945  0.3322 -0.0152
 1991SOL     OW 7729   6.219   5.938   3.017  0.6868  0.1248  0.4002
 1991SOL    HW2 7730   6.176   5.855   2.995  1.9297 -0.3625 -0.2672
 1991SOL    HW3 7731   6.263   5.920   3.100  3.0220 -0.7291 -0.9218
 1991SOL    MW4 7732   6.219   5.924   3.025  1.1589 -0.0522  0.1377
 1992SOL     OW 7733   5.720   5.545   5.362 -0.2455 -0.6369 -0.3702
 1992SOL    HW2 7734   5.653   5.614   5.363  0.5043  0.1518  1.7088
 1992SOL    HW3 7735   5.702   5.495   5.283 -1.8251  0.9714 -1.1013
 1992SOL    MW4 7736   5.709   5.548   5.352 -0.3550 -0.3206 -0.1924
 1993SOL     OW 7737   2.107   1.687   1.496 -0.0561 -0.3163  0.2425
 1993SOL    HW2 7738   2.063   1.667   1.413 -0.7759 -1.0392  0.7808
 1993SOL    HW3 7739   2.114   1.782   1.497  2.4659 -0.3534 -1.9020
 1993SOL    MW4 7740   2.102   1.697   1.485  0.1817 -0.4165  0.0305
 1994SOL     OW 7741   5.082   5.085   4.158  0.1986 -0.2319 -0.1586
 1994SOL    HW2 7742   5.064   5.023   4.228 -1.1464 -1.3449 -1.4178
 1994SOL    HW3 7743   5.017   5.154   4.169 -1.3722 -1.4301 -1.4289
 1994SOL    MW4 7744   5.071   5.086   4.168 -0.1861 -0.5368 -0.4923
 1995SOL     OW 7745   0.260   0.592   1.216 -0.0224  0.3378  0.1874
 1995SOL    HW2 7746   0.323   0.646   1.167  1.1362 -1.0307  0.1054
 1995SOL    HW3 7747   0.212   0.545   1.148  0.8221 -0.7214  0.2945
 1995SOL    MW4 7748   0.262   0.593   1.200  0.2419  0.0175  0.1907
 1996SOL     OW 7749   5.418   2.065   3.474  0.4345 -0.3276  0.3607
 1996SOL    HW2 7750   5.401   1.975   3.502  0.6977 -0.1950  0.9737
 1996SOL    HW3 7751   5.493   2.093   3.527  2.1517 -0.6649 -1.7710
 1996SOL    MW4 7752   5.426   2.057   3.485  0.6958 -0.3546  0.1604
 1997SOL     OW 7753   0.075   5.850   1.807 -0.2051  0.0251 -0.3590
 1997SOL    HW2 7754   0.053   5.831   1.716 -0.7227 -0.7960 -0.0693
 1997SOL    HW3 7755  -0.007   5.881   1.845 -0.0847 -0.0038 -0.0770
 1997SOL    MW4 7756   0.061   5.852   1.800 -0.2575 -0.0871 -0.2835
 1998SOL     OW 7757   5.844   4.449   3.480  0.1643  0.1607  0.2264
 1998SOL    HW2 7758   5.933   4.475   3.501  0.1563 -0.2128  0.7424
 1998SOL    HW3 7759   5.841   4.355   3.497 -0.6560  0.3759  1.4135
 1998SOL    MW4 7760   5.855   4.440   3.485  0.0550  0.1398  0.4511
 1999SOL     OW 7761   6.076   4.315   6.049 -0.6175  0.2013 -0.0726
 1999SOL    HW2 7762   6.085   4.270   5.965  0.9273 -1.4946  0.9140
 1999SOL    HW3 7763   6.151   4.285   6.100 -1.5981  1.0417  1.9751
 1999SOL    MW4 7764   6.087   4.305   6.045 -0.5431  0.0885  0.3277
 2000SOL     OW 7765   2.431   5.354   1.067 -0.5887 -0.1766 -0.2517
 2000SOL    HW2 7766   2.424   5.259   1.068  1.2322 -0.3456 -0.3980
 2000SOL    HW3 7767   2.491   5.373   0.995 -1.3388  1.1325 -0.5657
 2000SOL    MW4 7768   2.438   5.344   1.057 -0.4474 -0.0262 -0.3125
 2001SOL     OW 7769   1.043   0.716   2.283  0.1599 -0.3245 -0.1693
 2001SOL    HW2 7770   1.025   0.751   2.196 -1.4496  1.1015  0.6710
 2001SOL    HW3 7771   0.964   0.736   2.333 -0.0420 -3.4014  0.9591
 2001SOL    MW4 7772   1.030   0.723   2.278 -0.0791 -0.5423  0.0904
 2002SOL     OW 7773   1.819   6.067   6.127  0.4529 -0.0837  0.0482
 2002SOL    HW2 7774   1.906   6.045   6.160  0.3169 -0.2551  0.2990
 2002SOL    HW3 7775   1.806   6.008   6.053  0.2529 -0.5886  0.4703
 2002SOL    MW4 7776   1.829   6.056   6.122  0.4086 -0.1729  0.1370
 2003SOL     OW 7777   2.092   0.468   2.945  0.1510  0.3272  0.0114
 2003SOL    HW2 7778   2.130   0.549   2.979 -1.8977  1.9346 -1.3052
 2003SOL    HW3 7779   2.144   0.448   2.867  0.8920  0.1297  0.5412
 2003SOL    MW4 7780   2.104   0.476   2.939 -0.0216  0.5132 -0.0924
 2004SOL     OW 7781   1.729   1.708   5.546 -0.1568  0.1026 -0.2734
 2004SOL    HW2 7782   1.815   1.665   5.547 -0.2995 -0.2303  1.5499
 2004SOL    HW3 7783   1.740   1.783   5.488  1.2753 -0.1362 -0.3415
 2004SOL    MW4 7784   1.742   1.712   5.539  0.0133  0.0271 -0.0418
 2005SOL     OW 7785   5.005   4.035   1.468  0.1925 -0.2020  0.5610
 2005SOL    HW2 7786   5.092   4.018   1.503 -0.6280 -1.8592  1.9325
 2005SOL    HW3 7787   4.986   3.959   1.413  0.5311  1.2958 -1.7612
 2005SOL    MW4 7788   5.014   4.023   1.465  0.1289 -0.2230  0.4356
 2006SOL     OW 7789   2.889   3.201   1.050 -0.3258 -0.2444  0.0131
 2006SOL    HW2 7790   2.944   3.277   1.031 -1.4577  0.7656  0.6254
 2006SOL    HW3 7791   2.950   3.135   1.082  0.6319  0.5569 -0.0975
 2006SOL    MW4 7792   2.904   3.202   1.051 -0.3488 -0.0054  0.0793
 2007SOL     OW 7793   4.519   4.941   5.006 -0.8443  0.2444 -0.6178
 2007SOL    HW2 7794   4.550   5.016   5.057  0.7210 -0.7107 -0.1119
 2007SOL    HW3 7795   4.424   4.945   5.013 -0.7323 -0.4283  3.3040
 2007SOL    MW4 7796   4.511   4.952   5.013 -0.6230  0.0297 -0.0336
 2008SOL     OW 7797   2.967   5.624   3.605  0.5804  0.1471  0.6293
 2008SOL    HW2 7798   2.886   5.667   3.634  0.5228 -0.2753  1.1025
 2008SOL    HW3 7799   3.015   5.606   3.685  0.4647 -0.9368  0.4688
 2008SOL    MW4 7800   2.962   5.627   3.619  0.5576 -0.0517  0.6705
 2009SOL     OW 7801   2.524   4.750   1.599 -0.2324  0.2575  0.2247
 2009SOL    HW2 7802   2.586   4.785   1.536  0.0269  0.2504  0.4746
 2009SOL    HW3 7803   2.478   4.828   1.633 -0.5206  0.2434 -0.1218
 2009SOL    MW4 7804   2.526   4.765   1.595 -0.2362  0.2547  0.2120
 2010SOL     OW 7805   1.225   4.486   0.373 -0.4417 -0.0930 -0.0954
 2010SOL    HW2 7806   1.224   4.503   0.278  2.9545  0.1370 -0.1858
 2010SOL    HW3 7807   1.248   4.394   0.381  0.8898  0.2666  0.4702
 2010SOL    MW4 7808   1.228   4.476   0.361  0.1821 -0.0152 -0.0327
 2011SOL     OW 7809   1.638   0.711   4.858 -0.6374  0.1970 -0.0556
 2011SOL    HW2 7810   1.730   0.691   4.843 -0.6021 -0.1385  0.5754
 2011SOL    HW3 7811   1.615   0.664   4.938 -1.1253  0.9768  0.2811
 2011SOL    MW4 7812   1.647   0.702   4.866 -0.6971  0.2556  0.0721
 2012SOL     OW 7813   0.143   1.982   2.715  0.7250  0.6546 -0.2057
 2012SOL    HW2 7814   0.059   1.937   2.726 -0.4655  2.0430 -2.6917
 2012SOL    HW3 7815   0.207   1.912   2.707 -0.3849 -0.4765  0.5280
 2012SOL    MW4 7816   0.140   1.967   2.715  0.4215  0.6886 -0.4369
 2013SOL     OW 7817   5.288   0.692   4.272  0.4299 -0.7857 -0.3561
 2013SOL    HW2 7818   5.284   0.736   4.187  2.3640 -0.9910 -0.6109
 2013SOL    HW3 7819   5.233   0.745   4.329  2.2925  1.7681 -0.7566
 2013SOL    MW4 7820   5.280   0.705   4.268  0.9308 -0.4758 -0.4426
 2014SOL     OW 7821   2.285   4.642   5.882 -0.0378 -0.3231  0.3981
 2014SOL    HW2 7822   2.203   4.665   5.839 -0.1445 -0.4357  0.5420
 2014SOL    HW3 7823   2.259   4.599   5.963  0.1408 -1.1491  0.0395
 2014SOL    MW4 7824   2.271   4.639   5.887 -0.0283 -0.4469  0.3698
 2015SOL     OW 7825   2.754   3.023   4.004  0.0376 -0.1510 -0.4796
 2015SOL    HW2 7826   2.690   2.970   4.051  0.2345 -0.4607 -0.5561
 2015SOL    HW3 7827   2.768   2.977   3.921  0.0483  0.1368 -0.6384
 2015SOL    MW4 7828   2.747   3.010   4.000  0.0650 -0.1539 -0.5106
 2016SOL     OW 7829   2.607   5.521   0.902  0.0476  0.1137 -0.1149
 2016SOL    HW2 7830   2.688   5.540   0.950 -0.5350  2.6654  0.0176
 2016SOL    HW3 7831   2.540   5.571   0.948 -1.4043 -1.0067 -0.9379
 2016SOL    MW4 7832   2.609   5.530   0.915 -0.2208  0.3026 -0.2060
 2017SOL     OW 7833   1.271   4.995   5.146 -0.4233 -0.0004  0.0502
 2017SOL    HW2 7834   1.320   5.049   5.084  1.0656 -1.6515 -0.2876
 2017SOL    HW3 7835   1.336   4.965   5.209 -1.3877 -0.6513  0.7617
 2017SOL    MW4 7836   1.286   4.998   5.146 -0.3541 -0.3041  0.0995
 2018SOL     OW 7837   6.369   2.851   6.365 -0.7688  0.6237 -0.3848
 2018SOL    HW2 7838   6.465   2.848   6.366 -0.7314  0.1162  2.2993
 2018SOL    HW3 7839   6.344   2.795   6.292  0.9923 -1.3775  0.4516
 2018SOL    MW4 7840   6.378   2.844   6.355 -0.5315  0.2927  0.0797
 2019SOL     OW 7841   4.193   3.743   4.369 -0.0360  0.4578 -0.3090
 2019SOL    HW2 7842   4.244   3.762   4.447 -1.4790  0.2970  0.7159
 2019SOL    HW3 7843   4.102   3.751   4.397 -0.6001  0.3666 -1.9717
 2019SOL    MW4 7844   4.187   3.747   4.383 -0.3008  0.4245 -0.3932
 2020SOL     OW 7845   0.045   0.130   5.552 -0.2406  0.0994  0.1476
 2020SOL    HW2 7846  -0.035   0.124   5.500  0.1309 -0.1425 -0.4116
 2020SOL    HW3 7847   0.078   0.218   5.535 -0.7719  0.4658  0.9643
 2020SOL    MW4 7848   0.039   0.141   5.543 -0.2617  0.1158  0.1816
 2021SOL     OW 7849   4.414   1.817   2.782 -0.1255  0.6194 -0.5580
 2021SOL    HW2 7850   4.415   1.738   2.727  0.0822  0.1205  0.1504
 2021SOL    HW3 7851   4.346   1.872   2.743  0.0947  0.3245 -1.3814
 2021SOL    MW4 7852   4.405   1.814   2.770 -0.0691  0.5147 -0.5732
 2022SOL     OW 7853   2.707   2.358   4.670 -0.3830 -0.2937  0.7931
 2022SOL    HW2 7854   2.667   2.292   4.727 -0.5293 -1.9452 -1.0907
 2022SOL    HW3 7855   2.794   2.323   4.651 -0.2938  0.2776  0.1154
 2022SOL    MW4 7856   2.713   2.344   4.675 -0.3906 -0.4362  0.4551
 2023SOL     OW 7857   2.857   3.521   5.728 -0.1960 -0.3812  0.1517
 2023SOL    HW2 7858   2.832   3.520   5.820 -1.0515 -0.3608 -0.0769
 2023SOL    HW3 7859   2.928   3.457   5.722  1.6249  1.4153  1.3018
 2023SOL    MW4 7860   2.863   3.513   5.739 -0.0686 -0.1415  0.2733
 2024SOL     OW 7861   1.967   6.258   5.704  0.4537  0.3934 -0.3251
 2024SOL    HW2 7862   2.049   6.241   5.657  0.3363  1.5448 -0.9880
 2024SOL    HW3 7863   1.980   6.342   5.746 -0.8915  1.3435 -1.6877
 2024SOL    MW4 7864   1.979   6.267   5.703  0.2608  0.6707 -0.5923
 2025SOL     OW 7865   1.823   1.225   3.334 -0.0162  0.9751  0.0289
 2025SOL    HW2 7866   1.843   1.195   3.246 -1.5018  0.2392 -0.0973
 2025SOL    HW3 7867   1.902   1.208   3.384 -0.3242 -2.0517 -0.3355
 2025SOL    MW4 7868   1.836   1.219   3.329 -0.2529  0.4786 -0.0359
 2026SOL     OW 7869   3.221   3.974   4.008 -0.3918  0.1387  0.1506
 2026SOL    HW2 7870   3.164   3.939   4.076 -1.5977  1.4662 -0.1198
 2026SOL    HW3 7871   3.310   3.954   4.038 -0.9370 -0.4188  1.4710
 2026SOL    MW4 7872   3.225   3.967   4.021 -0.6228  0.2403  0.2892
 2027SOL     OW 7873   6.422   0.101   3.767  0.2439 -0.4614 -0.2847
 2027SOL    HW2 7874   6.403   0.090   3.860  1.4447  0.5154  0.1120
 2027SOL    HW3 7875   6.345   0.146   3.731 -0.2158 -0.8215  0.2415
 2027SOL    MW4 7876   6.409   0.106   3.775  0.3417 -0.3800 -0.1629
 2028SOL     OW 7877   4.126   6.312   1.366 -0.1161  0.2174  0.6833
 2028SOL    HW2 7878   4.160   6.237   1.317  0.6518  0.3055  1.0632
 2028SOL    HW3 7879   4.094   6.275   1.448 -1.9206 -0.0107 -0.0675
 2028SOL    MW4 7880   4.126   6.297   1.370 -0.2529  0.1989  0.6344
 2029SOL     OW 7881   4.230   5.536   1.538  0.3843 -0.5475  0.2421
 2029SOL    HW2 7882   4.308   5.591   1.532  0.2996 -0.4516 -0.0137
 2029SOL    HW3 7883   4.177   5.562   1.462  0.1449 -0.6724  0.3669
 2029SOL    MW4 7884   4.233   5.547   1.527  0.3415 -0.5514  0.2248
 2030SOL     OW 7885   0.401   0.724   0.950  0.5281  0.2412 -0.4494
 2030SOL    HW2 7886   0.452   0.654   0.910 -0.3022 -0.3197 -0.5635
 2030SOL    HW3 7887   0.325   0.733   0.892 -0.5159 -0.3311  0.7990
 2030SOL    MW4 7888   0.398   0.716   0.937  0.2808  0.0917 -0.2998
 2031SOL     OW 7889   2.877   3.619   3.033  0.1186 -0.0880  0.3900
 2031SOL    HW2 7890   2.786   3.622   3.004  0.2938 -0.1746 -0.1656
 2031SOL    HW3 7891   2.871   3.586   3.123 -0.3112 -1.2542 -0.0419
 2031SOL    MW4 7892   2.864   3.615   3.041  0.0850 -0.2533  0.2597
 2032SOL     OW 7893   4.257   0.218   5.198 -0.2752  0.4681  0.2825
 2032SOL    HW2 7894   4.163   0.203   5.188 -0.8729  3.1721  0.9510
 2032SOL    HW3 7895   4.289   0.236   5.110 -0.9247  1.9870  0.3357
 2032SOL    MW4 7896   4.249   0.218   5.185 -0.4398  1.0253  0.3777
 2033SOL     OW 7897   1.244   2.122   5.451 -0.0817 -0.2330 -0.4908
 2033SOL    HW2 7898   1.282   2.188   5.509 -0.0901 -0.3758 -0.3225
 2033SOL    HW3 7899   1.279   2.142   5.365  0.3091 -0.3128 -0.3520
 2033SOL    MW4 7900   1.254   2.133   5.447 -0.0312 -0.2624 -0.4503
 2034SOL     OW 7901   0.981   1.875   3.378  0.8772  0.5904  0.6298
 2034SOL    HW2 7902   0.997   1.958   3.422  1.5961  0.9121 -0.2037
 2034SOL    HW3 7903   1.064   1.854   3.335 -0.0138  0.7527 -1.2959
 2034SOL    MW4 7904   0.994   1.883   3.378  0.8545  0.6542  0.2658
 2035SOL     OW 7905   2.115   0.343   1.774 -0.7391 -0.3102 -0.3501
 2035SOL    HW2 7906   2.043   0.281   1.782 -1.3369  0.0028 -2.5359
 2035SOL    HW3 7907   2.082   0.424   1.813 -0.7836 -0.7320  0.5041
 2035SOL    MW4 7908   2.101   0.346   1.780 -0.8238 -0.3246 -0.5258
 2036SOL     OW 7909   3.439   4.745   3.146  0.2161  0.2282  0.3221
 2036SOL    HW2 7910   3.472   4.796   3.072  0.7170 -0.1605  0.2770
 2036SOL    HW3 7911   3.348   4.725   3.122  0.8687 -1.3466 -0.9808
 2036SOL    MW4 7912   3.431   4.749   3.133  0.3683 -0.0308  0.1442
 2037SOL     OW 7913   0.096   5.223   1.885 -0.1752  0.0346  0.1245
 2037SOL    HW2 7914   0.049   5.236   1.803  0.4011 -0.9701 -0.3893
 2037SOL    HW3 7915   0.172   5.169   1.861 -0.4810 -1.0521  1.4682
 2037SOL    MW4 7916   0.100   5.218   1.871 -0.1395 -0.2413  0.2340
 2038SOL     OW 7917   3.915   1.652   2.631  0.1029 -0.0516 -0.1225
 2038SOL    HW2 7918   3.822   1.629   2.635 -0.0281  0.2022 -1.3124
 2038SOL    HW3 7919   3.922   1.736   2.676  0.0815 -0.9347  1.5991
 2038SOL    MW4 7920   3.904   1.660   2.638  0.0828 -0.1346 -0.0523
 2039SOL     OW 7921   2.366   1.929   5.073  0.1698 -0.2510  0.2583
 2039SOL    HW2 7922   2.395   1.888   4.992 -0.1574  0.7395 -0.3844
 2039SOL    HW3 7923   2.285   1.975   5.050 -0.0138 -0.0810  1.1799
 2039SOL    MW4 7924   2.360   1.930   5.059  0.1024 -0.0979  0.2951
 2040SOL     OW 7925   1.987   2.471   3.594  0.5589  0.0707 -0.0246
 2040SOL    HW2 7926   2.061   2.434   3.643  0.0369 -0.5194  0.3356
 2040SOL    HW3 7927   1.910   2.449   3.647  0.2167  1.7004  0.2150
 2040SOL    MW4 7928   1.987   2.463   3.607  0.4448  0.2079  0.0545
 2041SOL     OW 7929   3.737   2.954   5.263  0.3694  0.1575 -0.0830
 2041SOL    HW2 7930   3.645   2.939   5.240  1.1508 -0.6076 -3.0863
 2041SOL    HW3 7931   3.733   3.005   5.345 -2.6299 -1.9223  1.2259
 2041SOL    MW4 7932   3.724   2.959   5.271  0.0768 -0.2179 -0.3066
 2042SOL     OW 7933   1.498   0.196   0.780  0.1705 -0.1149 -0.2104
 2042SOL    HW2 7934   1.406   0.208   0.756  0.2843  0.8599 -0.2130
 2042SOL    HW3 7935   1.496   0.138   0.856 -0.5545  1.0458  0.6734
 2042SOL    MW4 7936   1.486   0.190   0.787  0.0899  0.1669 -0.0941
 2043SOL     OW 7937   4.168   3.917   0.738 -0.0462 -0.1951  0.2455
 2043SOL    HW2 7938   4.141   3.830   0.769 -2.8950 -0.2787 -1.9587
 2043SOL    HW3 7939   4.247   3.901   0.687 -0.6453 -1.6127 -0.3010
 2043SOL    MW4 7940   4.175   3.903   0.735 -0.5011 -0.3932 -0.1174
 2044SOL     OW 7941   1.987   5.011   4.489 -0.0937 -0.3655  0.0521
 2044SOL    HW2 7942   1.948   5.051   4.412 -0.8835  0.2707  0.7736
 2044SOL    HW3 7943   1.920   5.016   4.557  0.7415 -0.4919  0.9231
 2044SOL    MW4 7944   1.973   5.017   4.488 -0.0877 -0.2982  0.2622
 2045SOL     OW 7945   2.040   4.016   1.734 -0.1507  0.2458  0.2677
 2045SOL    HW2 7946   2.069   3.924   1.732  1.3266  0.6906 -0.0331
 2045SOL    HW3 7947   2.035   4.041   1.642  0.6341  0.8060  0.3688
 2045SOL    MW4 7948   2.043   4.007   1.722  0.1477  0.3784  0.2414
 2046SOL     OW 7949   0.740   2.474   6.290 -0.2113 -0.5365 -0.5596
 2046SOL    HW2 7950   0.666   2.432   6.247 -1.0367  0.9053 -0.6265
 2046SOL    HW3 7951   0.771   2.539   6.227  0.2308 -0.1882  0.0012
 2046SOL    MW4 7952   0.734   2.477   6.276 -0.2619 -0.3003 -0.4944
 2047SOL     OW 7953   5.343   1.932   5.848 -0.1231 -0.1437 -0.3298
 2047SOL    HW2 7954   5.305   1.876   5.781  0.2464 -0.2856 -0.4248
 2047SOL    HW3 7955   5.413   1.980   5.804 -1.0743  1.1425 -0.4907
 2047SOL    MW4 7956   5.348   1.931   5.834 -0.1999  0.0073 -0.3636
 2048SOL     OW 7957   1.263   0.915   3.136 -0.0714 -0.4085  0.1076
 2048SOL    HW2 7958   1.183   0.940   3.089  0.1747 -0.7804 -0.5309
 2048SOL    HW3 7959   1.255   0.821   3.149 -0.9198 -0.0724  2.3550
 2048SOL    MW4 7960   1.252   0.906   3.131 -0.1508 -0.4132  0.3199
 2049SOL     OW 7961   1.478   6.105   0.037  0.2790  0.1022  0.2124
 2049SOL    HW2 7962   1.469   6.191  -0.004  0.7276 -0.2853 -0.7204
 2049SOL    HW3 7963   1.546   6.061  -0.014  1.1438 -0.2562  1.6124
 2049SOL    MW4 7964   1.486   6.110   0.025  0.4523  0.0038  0.2741
 2050SOL     OW 7965   1.280   6.206   1.377  0.3841  0.0460 -0.6190
 2050SOL    HW2 7966   1.325   6.290   1.386 -0.5920  0.3973  1.4162
 2050SOL    HW3 7967   1.320   6.150   1.443  0.7486 -1.0032 -1.6868
 2050SOL    MW4 7968   1.291   6.209   1.387  0.3034 -0.0461 -0.4914
 2051SOL     OW 7969   4.507   1.304   3.226  0.0992 -0.1191 -0.3922
 2051SOL    HW2 7970   4.551   1.223   3.252  0.6632  0.4108  0.3664
 2051SOL    HW3 7971   4.468   1.337   3.307  0.0334  0.4582 -0.6559
 2051SOL    MW4 7972   4.508   1.298   3.240  0.1649  0.0270 -0.3269
 2052SOL     OW 7973   4.981   3.159   2.060  0.5226 -0.0422  1.0555
 2052SOL    HW2 7974   4.980   3.089   2.125  0.3652 -0.8818  0.1594
 2052SOL    HW3 7975   4.932   3.231   2.102  1.3907 -0.1522  2.2999
 2052SOL    MW4 7976   4.974   3.159   2.074  0.6163 -0.1675  1.1014
 2053SOL     OW 7977   4.949   5.334   2.164  0.2252  0.7113  0.2548
 2053SOL    HW2 7978   4.950   5.256   2.219 -0.3189  1.8018  1.8781
 2053SOL    HW3 7979   5.026   5.324   2.108 -0.4786 -1.5362 -0.4254
 2053SOL    MW4 7980   4.959   5.322   2.164  0.0606  0.5587  0.3792
 2054SOL     OW 7981   5.344   5.625   4.140  0.2192  0.2901  0.2607
 2054SOL    HW2 7982   5.320   5.539   4.174  0.2842  0.5772  1.0413
 2054SOL    HW3 7983   5.266   5.655   4.093  0.2597 -0.2681 -0.1692
 2054SOL    MW4 7984   5.331   5.618   4.138  0.2331  0.2544  0.3070
 2055SOL     OW 7985   2.769   1.742   4.153 -0.3124  0.6711  0.4551
 2055SOL    HW2 7986   2.718   1.678   4.103 -0.1483  0.2426  0.8302
 2055SOL    HW3 7987   2.854   1.699   4.167 -0.8209  0.2117  2.2878
 2055SOL    MW4 7988   2.774   1.728   4.148 -0.3578  0.5540  0.7464
 2056SOL     OW 7989   6.152   3.253   3.401  0.0716  0.2053  0.3242
 2056SOL    HW2 7990   6.106   3.178   3.363 -1.2041  1.1089  0.0196
 2056SOL    HW3 7991   6.227   3.214   3.446 -0.1111 -1.1796 -0.4822
 2056SOL    MW4 7992   6.156   3.238   3.402 -0.1208  0.1418  0.1776
 2057SOL     OW 7993   3.397   3.803   5.888 -0.2687 -0.0185 -0.1355
 2057SOL    HW2 7994   3.443   3.801   5.804  0.5927  0.1927  0.3168
 2057SOL    HW3 7995   3.322   3.861   5.873 -1.5572 -1.9097 -1.4398
 2057SOL    MW4 7996   3.393   3.811   5.875 -0.3251 -0.2402 -0.2479
 2058SOL     OW 7997   5.712   2.601   3.505  0.0012 -0.7625 -0.1031
 2058SOL    HW2 7998   5.652   2.622   3.433  1.5356 -0.6943 -1.4281
 2058SOL    HW3 7999   5.790   2.653   3.486  0.3294 -0.4950  1.8243
 2058SOL    MW4 8000   5.715   2.611   3.493  0.2469 -0.7182 -0.0236
 2059SOL     OW 8001   0.336   5.956   6.137  0.4964 -0.0207  0.2087
 2059SOL    HW2 8002   0.404   5.898   6.173  0.4573 -0.4973 -0.4756
 2059SOL    HW3 8003   0.384   6.013   6.076  0.4282  0.2414  0.4001
 2059SOL    MW4 8004   0.352   5.956   6.134  0.4823 -0.0490  0.1437
 2060SOL     OW 8005   0.224   5.826   3.582 -0.4282  0.1803  0.5346
 2060SOL    HW2 8006   0.317   5.848   3.578 -0.8535  1.9914 -0.7446
 2060SOL    HW3 8007   0.185   5.898   3.631 -1.3946  0.4907 -0.6445
 2060SOL    MW4 8008   0.231   5.838   3.588 -0.6118  0.4602  0.2102
 2061SOL     OW 8009   0.274   3.243   0.970  0.1819 -0.8582  0.8986
 2061SOL    HW2 8010   0.331   3.258   1.045  0.9893 -1.6864  0.4617
 2061SOL    HW3 8011   0.189   3.220   1.008 -0.0327  0.8785  1.5525
 2061SOL    MW4 8012   0.270   3.242   0.985  0.2601 -0.7384  0.9272
 2062SOL     OW 8013   0.047   4.630   6.230 -0.4010  0.5196  0.6887
 2062SOL    HW2 8014   0.004   4.558   6.276  0.0502 -0.8073 -0.8590
 2062SOL    HW3 8015  -0.007   4.645   6.152  1.5786 -0.8997 -1.0706
 2062SOL    MW4 8016   0.034   4.622   6.226 -0.0803  0.1573  0.2524
 2063SOL     OW 8017   0.228   1.838   5.027 -0.7315  0.5011  0.5985
 2063SOL    HW2 8018   0.222   1.786   5.107  1.9986 -0.6048  0.2029
 2063SOL    HW3 8019   0.271   1.919   5.055  0.5135 -0.0160  0.2532
 2063SOL    MW4 8020   0.233   1.842   5.041 -0.2070  0.2870  0.5008
 2064SOL     OW 8021   4.641   2.670   0.738  0.3244  0.9670 -0.8634
 2064SOL    HW2 8022   4.565   2.727   0.744  0.2762  0.8398  4.5857
 2064SOL    HW3 8023   4.716   2.729   0.729 -0.0753  1.4175 -1.2593
 2064SOL    MW4 8024   4.641   2.685   0.737  0.2653  1.0097 -0.1967
 2065SOL     OW 8025   4.101   3.465   5.003  0.1220  0.0533  0.1568
 2065SOL    HW2 8026   4.088   3.415   5.084  0.9377 -0.5048 -0.0524
 2065SOL    HW3 8027   4.048   3.420   4.938 -2.4650  1.8512  0.8493
 2065SOL    MW4 8028   4.092   3.453   5.005 -0.1117  0.2169  0.2205
 2066SOL     OW 8029   4.609   0.949   2.840 -0.6283  0.1390  0.2221
 2066SOL    HW2 8030   4.597   0.945   2.935 -1.1559 -1.4721  0.1130
 2066SOL    HW3 8031   4.522   0.935   2.803  0.0322 -2.8446 -0.4861
 2066SOL    MW4 8032   4.596   0.947   2.848 -0.6107 -0.4672  0.1142
 2067SOL     OW 8033   2.646   0.290   5.336 -0.1129  0.0065 -0.0107
 2067SOL    HW2 8034   2.693   0.240   5.270  0.2866 -0.1096  0.3584
 2067SOL    HW3 8035   2.655   0.239   5.416  2.6535  1.9313  1.0401
 2067SOL    MW4 8036   2.653   0.277   5.338  0.3048  0.2451  0.1766
 2068SOL     OW 8037   1.975   3.842   3.332  0.2017  0.4319  0.1116
 2068SOL    HW2 8038   1.980   3.912   3.397  1.1111 -0.0681  0.6056
 2068SOL    HW3 8039   1.893   3.796   3.352  0.0433  0.8162  0.3461
 2068SOL    MW4 8040   1.965   3.845   3.344  0.3008  0.4166  0.2077
 2069SOL     OW 8041   4.049   1.230   2.502 -0.3223  0.2236  0.5906
 2069SOL    HW2 8042   3.997   1.250   2.424  0.5099  0.5268  0.1000
 2069SOL    HW3 8043   3.993   1.257   2.575 -0.0259  2.6687  0.0156
 2069SOL    MW4 8044   4.035   1.236   2.501 -0.1734  0.5862  0.4500
 2070SOL     OW 8045   1.751   3.838   5.069  0.2687 -0.3405  0.0888
 2070SOL    HW2 8046   1.766   3.747   5.042  0.2375 -0.1800 -0.4616
 2070SOL    HW3 8047   1.710   3.880   4.994  0.0899  0.0810  0.4164
 2070SOL    MW4 8048   1.748   3.831   5.056  0.2410 -0.2637  0.0594
 2071SOL     OW 8049   1.764   3.750   2.005  0.3288 -0.3266  0.2408
 2071SOL    HW2 8050   1.692   3.706   1.960  0.8566  0.2727 -1.2389
 2071SOL    HW3 8051   1.842   3.704   1.976  0.7315  0.4524  0.0620
 2071SOL    MW4 8052   1.765   3.738   1.996  0.4516 -0.1447  0.0220
 2072SOL     OW 8053   5.674   6.353   6.113 -0.5688 -0.5230  0.6855
 2072SOL    HW2 8054   5.601   6.400   6.154  1.0616  2.1210  0.8251
 2072SOL    HW3 8055   5.752   6.389   6.156  0.9964 -0.5962 -1.9145
 2072SOL    MW4 8056   5.675   6.364   6.124 -0.1472 -0.1838  0.3609
 2073SOL     OW 8057   4.469   0.735   3.144 -0.0442  0.2652 -0.2827
 2073SOL    HW2 8058   4.508   0.666   3.091 -2.0092 -2.7292  1.7732
 2073SOL    HW3 8059   4.383   0.750   3.104 -0.5266 -0.2097  0.5259
 2073SOL    MW4 8060   4.463   0.728   3.132 -0.3671 -0.1926  0.0953
 2074SOL     OW 8061   2.724   5.487   0.357  0.1242  0.2850 -0.3748
 2074SOL    HW2 8062   2.817   5.475   0.339  0.1210 -1.4539  0.4996
 2074SOL    HW3 8063   2.710   5.444   0.442 -1.5288  0.2691 -0.6082
 2074SOL    MW4 8064   2.734   5.480   0.366 -0.0943  0.0534 -0.2902
 2075SOL     OW 8065   2.994   6.007   3.408  0.4234 -0.3150 -0.1498
 2075SOL    HW2 8066   2.959   5.963   3.330 -0.0040  0.0363 -0.1620
 2075SOL    HW3 8067   3.041   5.938   3.455  1.8709 -0.2315 -1.4051
 2075SOL    MW4 8068   2.995   5.992   3.404  0.5580 -0.2577 -0.3170
 2076SOL     OW 8069   0.817   4.361   3.989 -0.8945 -0.8199  0.2421
 2076SOL    HW2 8070   0.775   4.284   4.027 -0.3207 -1.1650  0.1922
 2076SOL    HW3 8071   0.896   4.326   3.946 -0.3057 -0.1232  0.7455
 2076SOL    MW4 8072   0.822   4.346   3.988 -0.7411 -0.7735  0.3019
 2077SOL     OW 8073   0.472   5.079   3.418  0.5031 -0.1852  0.3984
 2077SOL    HW2 8074   0.394   5.036   3.383  0.2156  1.2804 -0.8617
 2077SOL    HW3 8075   0.451   5.095   3.510 -0.0879 -1.0991  0.4369
 2077SOL    MW4 8076   0.459   5.075   3.426  0.3872 -0.1124  0.2373
 2078SOL     OW 8077   1.507   5.591   1.103 -0.7534  0.4030 -0.0276
 2078SOL    HW2 8078   1.429   5.609   1.157 -1.3276  1.0406 -1.0290
 2078SOL    HW3 8079   1.477   5.605   1.013  0.5738  0.8285 -0.4232
 2078SOL    MW4 8080   1.492   5.595   1.098 -0.6541  0.5433 -0.2119
 2079SOL     OW 8081   2.760   2.053   0.654 -0.1787  0.0841 -0.2002
 2079SOL    HW2 8082   2.673   2.048   0.694  0.3118 -1.1743  0.7883
 2079SOL    HW3 8083   2.814   2.094   0.721 -0.0007  0.8675 -0.8130
 2079SOL    MW4 8084   2.756   2.058   0.668 -0.0905  0.0214 -0.1506
 2080SOL     OW 8085   4.487   5.404   0.809  0.3195 -0.4177 -0.2963
 2080SOL    HW2 8086   4.494   5.317   0.772  0.4018 -1.0958  1.2276
 2080SOL    HW3 8087   4.413   5.399   0.870  1.5406 -0.0245  1.2981
 2080SOL    MW4 8088   4.478   5.392   0.812  0.4914 -0.4553  0.1151
 2081SOL     OW 8089   1.588   4.783   0.372 -0.2966  0.5851  0.1590
 2081SOL    HW2 8090   1.560   4.782   0.280  0.1200  0.4073  0.0264
 2081SOL    HW3 8091   1.591   4.875   0.396 -0.4854  0.6280  0.0151
 2081SOL    MW4 8092   1.585   4.795   0.363 -0.2665  0.5673  0.1225
 2082SOL     OW 8093   3.689   4.491   3.686  0.5538  0.1324  0.5384
 2082SOL    HW2 8094   3.783   4.477   3.691  0.4483 -0.5688  0.6925
 2082SOL    HW3 8095   3.661   4.495   3.778  0.6988  2.3766  0.5460
 2082SOL    MW4 8096   3.697   4.490   3.699  0.5590  0.3360  0.5598
 2083SOL     OW 8097   1.686   3.457   6.073  0.2035  0.3089  0.4709
 2083SOL    HW2 8098   1.636   3.396   6.127 -0.5178  2.4038  2.3295
 2083SOL    HW3 8099   1.713   3.526   6.134  3.0989  0.6449 -1.0088
 2083SOL    MW4 8100   1.683   3.458   6.088  0.4903  0.6296  0.5209
 2084SOL     OW 8101   4.709   4.964   1.193  0.4133  0.4476  0.0313
 2084SOL    HW2 8102   4.786   4.991   1.242  0.9499 -0.2606 -0.4187
 2084SOL    HW3 8103   4.740   4.898   1.132 -0.6542 -0.2713  0.2340
 2084SOL    MW4 8104   4.723   4.959   1.191  0.3433  0.2593 -0.0013
 2085SOL     OW 8105   6.380   5.856   0.256 -0.0476 -0.2518  0.3823
 2085SOL    HW2 8106   6.295   5.901   0.257  0.3188  0.4575  1.1664
 2085SOL    HW3 8107   6.413   5.869   0.167 -0.3394  0.2812  0.3465
 2085SOL    MW4 8108   6.373   5.864   0.244 -0.0378 -0.0879  0.4810
 2086SOL     OW 8109   0.417   5.103   3.700  0.1928  0.3166  0.0835
 2086SOL    HW2 8110   0.323   5.083   3.703  0.3169 -1.5014 -3.1839
 2086SOL    HW3 8111   0.457   5.034   3.753 -0.2106 -0.2936 -0.3871
 2086SOL    MW4 8112   0.410   5.091   3.708  0.1559 -0.0037 -0.4097
 2087SOL     OW 8113   3.119   0.421   2.684  0.1924 -0.2320 -0.4864
 2087SOL    HW2 8114   3.190   0.358   2.698 -0.4691 -1.4974 -2.3806
 2087SOL    HW3 8115   3.053   0.372   2.635 -0.6806  1.7315 -1.3677
 2087SOL    MW4 8116   3.120   0.406   2.679 -0.0101 -0.1399 -0.8526
 2088SOL     OW 8117   4.816   4.577   0.375 -0.3145 -0.3492  0.3405
 2088SOL    HW2 8118   4.865   4.637   0.431 -0.0868  1.4339 -1.6675
 2088SOL    HW3 8119   4.737   4.625   0.350  0.2296 -0.5205 -1.9266
 2088SOL    MW4 8120   4.812   4.591   0.379 -0.2126 -0.1365 -0.2236
 2089SOL     OW 8121   3.815   1.685   5.006 -0.0235 -0.0057 -0.4026
 2089SOL    HW2 8122   3.772   1.741   5.071  1.3676 -0.9046  1.3978
 2089SOL    HW3 8123   3.878   1.743   4.963  0.2907  0.2111  0.3299
 2089SOL    MW4 8124   3.818   1.700   5.009  0.2015 -0.0957 -0.0684
 2090SOL     OW 8125   2.446   5.784   1.312  0.2474 -0.4994  0.2980
 2090SOL    HW2 8126   2.441   5.741   1.397 -1.0105 -1.9151 -0.4637
 2090SOL    HW3 8127   2.465   5.876   1.333  0.7069 -0.9600  2.0492
 2090SOL    MW4 8128   2.448   5.791   1.326  0.1421 -0.7470  0.4286
 2091SOL     OW 8129   3.087   2.709   2.299  0.0827 -0.3718 -0.4182
 2091SOL    HW2 8130   3.163   2.653   2.280  0.0263 -1.2397  1.5787
 2091SOL    HW3 8131   3.121   2.776   2.358 -0.6503 -0.7725  0.4997
 2091SOL    MW4 8132   3.102   2.710   2.304 -0.0214 -0.5392 -0.0336
 2092SOL     OW 8133   6.280   0.966   2.763  0.0861  0.0126  0.5180
 2092SOL    HW2 8134   6.236   0.884   2.739  0.4338  0.1423 -0.5874
 2092SOL    HW3 8135   6.239   1.032   2.708 -0.0769  0.5772  1.2880
 2092SOL    MW4 8136   6.268   0.964   2.753  0.1105  0.1042  0.4738
 2093SOL     OW 8137   5.257   3.428   5.536  0.2913  0.3509  0.3363
 2093SOL    HW2 8138   5.350   3.426   5.560 -0.2095  0.1582  2.4153
 2093SOL    HW3 8139   5.211   3.444   5.618 -1.6328 -1.1073 -0.3720
 2093SOL    MW4 8140   5.263   3.430   5.550 -0.0286  0.1331  0.5171
 2094SOL     OW 8141   1.174   2.405   2.847  0.0878  0.4604  0.0672
 2094SOL    HW2 8142   1.266   2.424   2.869 -0.0554  0.9773  0.2298
 2094SOL    HW3 8143   1.162   2.442   2.760  0.7469 -1.8731 -1.1265
 2094SOL    MW4 8144   1.185   2.412   2.838  0.1558  0.2207 -0.0689
 2095SOL     OW 8145   3.307   0.229   4.336 -0.0718 -0.4789  0.3175
 2095SOL    HW2 8146   3.236   0.275   4.380 -1.1719 -0.5718 -1.2465
 2095SOL    HW3 8147   3.348   0.175   4.404 -0.6102  0.6270  1.5380
 2095SOL    MW4 8148   3.303   0.228   4.351 -0.2880 -0.3453  0.2722
 2096SOL     OW 8149   2.489   3.868   5.767 -0.4385  0.3672 -0.1230
 2096SOL    HW2 8150   2.555   3.922   5.811 -0.7012  1.5008 -1.0743
 2096SOL    HW3 8151   2.540   3.805   5.717 -0.1067  0.2840  0.3112
 2096SOL    MW4 8152   2.504   3.867   5.766 -0.4294  0.5058 -0.1912
 2097SOL     OW 8153   6.123   2.679   2.936 -0.2125 -0.1530 -0.2286
 2097SOL    HW2 8154   6.101   2.625   2.861  1.0582  0.1647 -0.8653
 2097SOL    HW3 8155   6.219   2.679   2.938 -0.1745 -1.6506  2.5083
 2097SOL    MW4 8156   6.133   2.672   2.926 -0.0398 -0.3087  0.0485
 2098SOL     OW 8157   3.728   3.631   0.064 -0.5268 -0.1839  0.5793
 2098SOL    HW2 8158   3.715   3.614   0.157 -1.0797  0.7637  0.6946
 2098SOL    HW3 8159   3.639   3.637   0.028 -0.3123 -1.0233 -0.1063
 2098SOL    MW4 8160   3.715   3.630   0.072 -0.5714 -0.1696  0.5040
 2099SOL     OW 8161   4.045   2.959   6.134  0.6065 -0.2039  0.6303
 2099SOL    HW2 8162   4.058   2.956   6.229 -1.5078 -0.5826  0.9581
 2099SOL    HW3 8163   4.059   3.051   6.111 -1.8763  0.5607  1.8606
 2099SOL    MW4 8164   4.049   2.971   6.144 -0.0000 -0.1530  0.8359
 2100SOL     OW 8165   0.375   4.821   1.472 -0.3020 -0.1857  0.2607
 2100SOL    HW2 8166   0.440   4.765   1.515  0.5230  0.5880  0.0533
 2100SOL    HW3 8167   0.328   4.762   1.413  1.0022 -0.5556 -0.4531
 2100SOL    MW4 8168   0.378   4.806   1.470 -0.0211 -0.1324  0.1392
 2101SOL     OW 8169   5.158   4.032   0.226  0.4654  0.2396  0.4436
 2101SOL    HW2 8170   5.137   3.941   0.206 -1.7015  1.0090 -1.1695
 2101SOL    HW3 8171   5.247   4.029   0.259  0.3897 -2.4811  0.6454
 2101SOL    MW4 8172   5.167   4.020   0.228  0.1695 -0.0178  0.2574
 2102SOL     OW 8173   0.214   3.474   0.836 -0.5069 -0.5893  0.0865
 2102SOL    HW2 8174   0.228   3.443   0.746 -2.0832 -0.5489 -0.2070
 2102SOL    HW3 8175   0.241   3.400   0.891  2.2340  0.0368 -0.2862
 2102SOL    MW4 8176   0.219   3.460   0.832 -0.3532 -0.5014 -0.0014
 2103SOL     OW 8177   4.266   4.277   3.467 -0.3249 -0.1594 -0.9454
 2103SOL    HW2 8178   4.209   4.329   3.410 -0.5954  1.3579  0.6346
 2103SOL    HW3 8179   4.220   4.272   3.550  0.7423 -1.0237 -0.3735
 2103SOL    MW4 8180   4.253   4.283   3.470 -0.2198 -0.0732 -0.6615
 2104SOL     OW 8181   1.423   1.662   4.635  0.1928  0.6255  0.3991
 2104SOL    HW2 8182   1.342   1.693   4.596  0.0141 -1.0910 -0.7243
 2104SOL    HW3 8183   1.421   1.567   4.622  3.1106  0.6514 -1.2541
 2104SOL    MW4 8184   1.412   1.654   4.628  0.5542  0.4024  0.0328
 2105SOL     OW 8185   4.234   0.661   2.590  0.0651 -0.1724  0.1946
 2105SOL    HW2 8186   4.281   0.717   2.652  1.0999 -1.3037  0.4513
 2105SOL    HW3 8187   4.261   0.693   2.504  0.2145  0.0712  0.3314
 2105SOL    MW4 8188   4.244   0.673   2.587  0.2213 -0.2895  0.2465
 2106SOL     OW 8189   0.658   4.998   0.101  0.0418  0.0522  0.2499
 2106SOL    HW2 8190   0.596   4.926   0.116 -1.4885  1.1529 -0.5019
 2106SOL    HW3 8191   0.625   5.069   0.156  0.1490  0.9340 -0.8002
 2106SOL    MW4 8192   0.645   4.998   0.111 -0.1459  0.3137  0.0121
 2107SOL     OW 8193   3.058   6.011   3.740 -0.2558  0.4888 -0.1458
 2107SOL    HW2 8194   3.149   6.034   3.758  1.2491 -4.1256 -0.5201
 2107SOL    HW3 8195   3.023   5.986   3.825 -0.7798  1.0194 -0.2010
 2107SOL    MW4 8196   3.066   6.010   3.754 -0.1264 -0.0500 -0.2025
 2108SOL     OW 8197   2.731   6.322   5.110 -0.3230 -0.6428 -0.3804
 2108SOL    HW2 8198   2.797   6.266   5.151 -1.2799 -1.5656 -0.0581
 2108SOL    HW3 8199   2.699   6.270   5.036  0.1786  0.3078 -1.2929
 2108SOL    MW4 8200   2.736   6.308   5.105 -0.3831 -0.6392 -0.4583
 2109SOL     OW 8201   6.141   0.834   0.882  0.7376  0.3123 -0.6508
 2109SOL    HW2 8202   6.203   0.808   0.814 -0.3142 -0.7150 -1.2485
 2109SOL    HW3 8203   6.141   0.930   0.879  1.7823  0.3078 -1.0966
 2109SOL    MW4 8204   6.149   0.843   0.873  0.7367  0.1762 -0.7885
 2110SOL     OW 8205   5.847   2.492   2.931  0.6858 -0.2703 -0.2497
 2110SOL    HW2 8206   5.833   2.499   3.026  2.1608 -1.8575  0.1441
 2110SOL    HW3 8207   5.809   2.407   2.908  0.5881 -0.0183 -1.0364
 2110SOL    MW4 8208   5.840   2.482   2.941  0.8675 -0.4465 -0.3016
 2111SOL     OW 8209   5.059   2.516   2.864  0.0336 -0.2778  0.3670
 2111SOL    HW2 8210   5.113   2.445   2.899 -2.7981 -1.8482  1.9487
 2111SOL    HW3 8211   5.094   2.595   2.904  0.0665 -1.4523  2.8212
 2111SOL    MW4 8212   5.071   2.517   2.874 -0.3356 -0.6399  0.8995
 2112SOL     OW 8213   3.196   1.922   6.055  0.1321  0.0193  0.0446
 2112SOL    HW2 8214   3.132   1.948   5.989 -0.7745 -0.5652  0.6838
 2112SOL    HW3 8215   3.177   1.978   6.130 -0.5555 -1.1109  0.7316
 2112SOL    MW4 8216   3.185   1.933   6.056 -0.0782 -0.2070  0.2196
 2113SOL     OW 8217   4.040   5.097   5.880  0.1422 -0.1361  0.1073
 2113SOL    HW2 8218   4.035   5.154   5.957  0.6709  0.6512 -0.4217
 2113SOL    HW3 8219   4.119   5.045   5.895  0.8574  0.7667 -0.3735
 2113SOL    MW4 8220   4.050   5.098   5.892  0.3063  0.0869 -0.0259
 2114SOL     OW 8221   3.931   1.069   3.840 -0.0899 -0.4165 -0.0657
 2114SOL    HW2 8222   3.905   1.158   3.817 -3.2674 -0.8125  1.5102
 2114SOL    HW3 8223   3.874   1.013   3.789 -0.7004 -1.4429  1.6551
 2114SOL    MW4 8224   3.920   1.073   3.831 -0.5897 -0.6042  0.3693
 2115SOL     OW 8225   4.920   4.213   4.280  0.8403  0.5540 -0.4192
 2115SOL    HW2 8226   5.005   4.252   4.257  0.5805  0.1622 -2.2066
 2115SOL    HW3 8227   4.933   4.119   4.273  1.4453  0.1318  3.8352
 2115SOL    MW4 8228   4.933   4.206   4.276  0.8858  0.4466 -0.0937
 2116SOL     OW 8229   1.825   0.117   3.830 -0.6768 -0.5843 -0.0283
 2116SOL    HW2 8230   1.877   0.101   3.752 -1.0160  1.9914 -0.8707
 2116SOL    HW3 8231   1.885   0.098   3.903 -0.9968 -5.1718 -0.6816
 2116SOL    MW4 8232   1.840   0.113   3.830 -0.7638 -0.8498 -0.2256
 2117SOL     OW 8233   0.032   5.170   5.906  0.0583  0.0464  0.0835
 2117SOL    HW2 8234   0.107   5.229   5.893  0.9646 -0.5745  2.0639
 2117SOL    HW3 8235   0.069   5.082   5.899 -0.7702 -0.2828 -0.2633
 2117SOL    MW4 8236   0.047   5.166   5.904  0.0685 -0.0789  0.2990
 2118SOL     OW 8237   0.207   2.780   4.874  0.4289 -0.2555  0.1430
 2118SOL    HW2 8238   0.137   2.793   4.809  2.4724 -0.0529 -2.1472
 2118SOL    HW3 8239   0.163   2.736   4.947 -1.9689 -0.7263 -1.4575
 2118SOL    MW4 8240   0.192   2.776   4.875  0.3822 -0.2909 -0.3704
 2119SOL     OW 8241   4.391   3.736   4.603  0.0234 -0.1845 -0.5584
 2119SOL    HW2 8242   4.369   3.796   4.674  1.1186 -0.9165  0.4392
 2119SOL    HW3 8243   4.364   3.650   4.634 -1.1698 -0.3039 -1.8154
 2119SOL    MW4 8244   4.385   3.732   4.616  0.0105 -0.2969 -0.5926
 2120SOL     OW 8245   5.934   0.878   6.225 -0.2530  0.0144 -0.8085
 2120SOL    HW2 8246   5.843   0.898   6.203 -0.4873 -0.1043  0.0058
 2120SOL    HW3 8247   5.977   0.964   6.229 -0.1929  0.0337 -1.7290
 2120SOL    MW4 8248   5.928   0.892   6.223 -0.2760  0.0013 -0.8225
 2121SOL     OW 8249   2.630   4.029   0.128  0.2706  0.5912  0.1957
 2121SOL    HW2 8250   2.680   4.109   0.140  1.6988  0.1770 -2.3075
 2121SOL    HW3 8251   2.648   3.976   0.206  0.4039  2.1061  1.2227
 2121SOL    MW4 8252   2.639   4.032   0.140  0.4766  0.7364  0.0009
 2122SOL     OW 8253   4.397   0.351   0.639 -0.1586 -0.6899  0.0589
 2122SOL    HW2 8254   4.317   0.308   0.611 -0.0151 -0.9438  0.0296
 2122SOL    HW3 8255   4.380   0.380   0.728 -1.4547  2.2051 -1.0101
 2122SOL    MW4 8256   4.384   0.349   0.647 -0.3106 -0.3414 -0.0860
 2123SOL     OW 8257   1.888   4.320   5.866 -0.3905  0.4300 -0.1358
 2123SOL    HW2 8258   1.867   4.236   5.825 -2.7095  0.9781 -0.1968
 2123SOL    HW3 8259   1.979   4.336   5.843 -0.6055 -0.9261 -2.1701
 2123SOL    MW4 8260   1.897   4.311   5.858 -0.7249  0.3234 -0.4123
 2124SOL     OW 8261   5.043   4.772   2.101  0.0812 -0.3344  0.9405
 2124SOL    HW2 8262   4.964   4.768   2.154 -1.5861 -0.9302 -1.4309
 2124SOL    HW3 8263   5.111   4.805   2.161 -1.9038  0.0979  3.0772
 2124SOL    MW4 8264   5.042   4.776   2.116 -0.4007 -0.3560  0.9095
 2125SOL     OW 8265   4.311   5.886   1.346 -0.0916  0.1626 -0.1712
 2125SOL    HW2 8266   4.288   5.945   1.273 -0.3295 -1.3664 -1.3940
 2125SOL    HW3 8267   4.327   5.944   1.420 -0.4869  1.7466 -1.2774
 2125SOL    MW4 8268   4.310   5.902   1.346 -0.1751  0.1699 -0.4785
 2126SOL     OW 8269   5.528   0.274   0.941  0.1189  0.2693 -0.3533
 2126SOL    HW2 8270   5.572   0.211   0.998  0.6072 -0.4633 -1.5091
 2126SOL    HW3 8271   5.539   0.239   0.853 -1.0011  1.1493 -0.8707
 2126SOL    MW4 8272   5.535   0.261   0.937  0.0356  0.2887 -0.5741
 2127SOL     OW 8273   3.306   3.307   3.438  0.6712 -0.3844 -0.3566
 2127SOL    HW2 8274   3.387   3.345   3.474 -0.9940  1.9660  1.1503
 2127SOL    HW3 8275   3.243   3.313   3.509 -0.7151 -2.8766 -1.2504
 2127SOL    MW4 8276   3.309   3.313   3.452  0.2686 -0.4031 -0.2757
 2128SOL     OW 8277   1.565   3.617   4.768 -0.2614 -0.1268  0.0108
 2128SOL    HW2 8278   1.570   3.565   4.688  0.2303  0.8545 -0.6183
 2128SOL    HW3 8279   1.550   3.706   4.737 -0.9006  0.1462  1.0559
 2128SOL    MW4 8280   1.564   3.622   4.753 -0.2808  0.0387  0.0657
 2129SOL     OW 8281   4.257   0.419   0.878 -0.8972  0.3999  0.2578
 2129SOL    HW2 8282   4.208   0.490   0.921 -0.4704  1.1312 -0.4449
 2129SOL    HW3 8283   4.204   0.340   0.896 -0.1314  0.4118  3.1736
 2129SOL    MW4 8284   4.243   0.418   0.886 -0.7399  0.4980  0.5498
 2130SOL     OW 8285   2.686   4.869   1.423 -0.1542 -0.0742  0.2662
 2130SOL    HW2 8286   2.775   4.836   1.436  0.1645  0.6544 -0.0349
 2130SOL    HW3 8287   2.654   4.823   1.346 -1.2446 -2.7700  2.1935
 2130SOL    MW4 8288   2.694   4.859   1.415 -0.2560 -0.3338  0.4807
 2131SOL     OW 8289   4.736   2.342   3.995  0.0444  0.1137 -0.0415
 2131SOL    HW2 8290   4.745   2.279   3.924  0.4682  0.0313  0.0812
 2131SOL    HW3 8291   4.661   2.396   3.970 -0.5979 -0.7093  0.0637
 2131SOL    MW4 8292   4.727   2.341   3.982  0.0155 -0.0058 -0.0115
 2132SOL     OW 8293   5.492   3.917   2.510  0.3526  0.0868 -0.6937
 2132SOL    HW2 8294   5.470   3.904   2.602 -1.2083 -1.1355 -1.1970
 2132SOL    HW3 8295   5.483   4.011   2.496 -0.9668  0.0814  0.0250
 2132SOL    MW4 8296   5.488   3.928   2.520 -0.0274 -0.0752 -0.6653
 2133SOL     OW 8297   0.650   0.523   2.195  0.2703  0.5448 -0.2918
 2133SOL    HW2 8298   0.679   0.541   2.285  1.3673 -0.4273 -0.4169
 2133SOL    HW3 8299   0.710   0.455   2.164 -0.9189 -0.0860 -1.3141
 2133SOL    MW4 8300   0.662   0.516   2.203  0.2581  0.3333 -0.4432
 2134SOL     OW 8301   1.012   4.103   3.337  0.3350  0.8321  0.0803
 2134SOL    HW2 8302   0.944   4.048   3.299  0.2015  0.0008  1.4294
 2134SOL    HW3 8303   1.032   4.167   3.269 -1.3970  0.7564 -0.5675
 2134SOL    MW4 8304   1.005   4.104   3.323  0.0889  0.7124  0.1728
 2135SOL     OW 8305   2.553   1.939   1.852 -0.4375 -0.5319  0.6478
 2135SOL    HW2 8306   2.558   1.974   1.763  0.0576 -3.3561 -0.5690
 2135SOL    HW3 8307   2.461   1.914   1.863 -0.7290  0.7669  1.3970
 2135SOL    MW4 8308   2.541   1.940   1.841 -0.4106 -0.7331  0.5861
 2136SOL     OW 8309   5.843   5.753   1.529  0.8571 -0.3273 -0.2989
 2136SOL    HW2 8310   5.832   5.820   1.462  0.3610  0.5552  0.6451
 2136SOL    HW3 8311   5.755   5.742   1.567  1.5858  1.0850  1.9692
 2136SOL    MW4 8312   5.830   5.760   1.525  0.8878 -0.0246  0.1249
 2137SOL     OW 8313   5.003   4.348   0.393  0.2805 -0.3253  0.0199
 2137SOL    HW2 8314   4.985   4.272   0.337 -2.6675 -0.3522  0.8327
 2137SOL    HW3 8315   4.964   4.422   0.346  3.1962  0.8158 -0.8072
 2137SOL    MW4 8316   4.996   4.348   0.379  0.2762 -0.1783  0.0180
 2138SOL     OW 8317   1.218   3.751   0.240  0.7276  0.1124 -0.1761
 2138SOL    HW2 8318   1.227   3.762   0.334  5.4054 -0.5381 -0.3169
 2138SOL    HW3 8319   1.213   3.840   0.205  3.5577  0.6544  0.5572
 2138SOL    MW4 8320   1.219   3.764   0.248  1.7182  0.0981 -0.0979
 2139SOL     OW 8321   3.905   5.469   0.364 -0.2048  0.0561 -0.3966
 2139SOL    HW2 8322   3.932   5.417   0.288 -1.9035  0.1898 -1.1259
 2139SOL    HW3 8323   3.898   5.404   0.435 -0.3452 -0.3694 -0.7948
 2139SOL    MW4 8324   3.908   5.453   0.364 -0.4474  0.0176 -0.5454
 2140SOL     OW 8325   2.868   2.867   5.658  0.0321 -0.1505 -0.3138
 2140SOL    HW2 8326   2.875   2.801   5.727  0.8942  0.3236  0.0757
 2140SOL    HW3 8327   2.831   2.821   5.584 -0.0731 -0.8921  0.1923
 2140SOL    MW4 8328   2.864   2.853   5.658  0.1319 -0.1858 -0.1956
 2141SOL     OW 8329   2.516   5.465   1.343 -0.1775 -0.2015  0.5876
 2141SOL    HW2 8330   2.603   5.427   1.332  0.1477  0.7316 -0.2786
 2141SOL    HW3 8331   2.467   5.433   1.267 -0.9521 -1.6005  1.6264
 2141SOL    MW4 8332   2.521   5.455   1.331 -0.2368 -0.2630  0.6104
 2142SOL     OW 8333   5.633   5.300   0.437 -0.2423  0.0976  0.1128
 2142SOL    HW2 8334   5.686   5.223   0.414 -1.1417 -0.6969  0.6167
 2142SOL    HW3 8335   5.563   5.300   0.371  1.4560  2.3727 -1.8950
 2142SOL    MW4 8336   5.630   5.290   0.425 -0.1369  0.2929 -0.0856
 2143SOL     OW 8337   2.989   5.288   5.095 -0.1016  0.5279 -0.0940
 2143SOL    HW2 8338   3.084   5.289   5.103  0.0191  1.7739 -1.3076
 2143SOL    HW3 8339   2.959   5.356   5.155 -0.0552  1.4461 -1.0672
 2143SOL    MW4 8340   2.998   5.297   5.104 -0.0795  0.8135 -0.3825
 2144SOL     OW 8341   5.761   3.576   4.251 -0.2173  0.2265  0.5221
 2144SOL    HW2 8342   5.721   3.663   4.245  0.0174  0.4154  1.4653
 2144SOL    HW3 8343   5.809   3.578   4.334 -1.3836 -1.2697  1.2869
 2144SOL    MW4 8344   5.762   3.587   4.261 -0.3402  0.0540  0.7474
 2145SOL     OW 8345   5.223   1.490   3.839 -0.7796 -0.4415 -0.1741
 2145SOL    HW2 8346   5.143   1.461   3.795 -0.5754  1.3461 -1.8967
 2145SOL    HW3 8347   5.207   1.583   3.858  1.5763  0.5943 -2.5188
 2145SOL    MW4 8348   5.210   1.499   3.836 -0.4418 -0.0690 -0.7107
 2146SOL     OW 8349   2.034   2.636   3.377  0.1752 -0.6000 -0.1947
 2146SOL    HW2 8350   2.121   2.672   3.396 -0.0981 -0.2672  0.4407
 2146SOL    HW3 8351   2.015   2.578   3.451 -0.5530  0.0767  0.1549
 2146SOL    MW4 8352   2.043   2.633   3.389  0.0431 -0.4668 -0.0647
 2147SOL     OW 8353   1.639   4.256   0.179  0.0167  0.1307  0.3769
 2147SOL    HW2 8354   1.602   4.192   0.239  0.4507  0.5697  1.1302
 2147SOL    HW3 8355   1.605   4.232   0.093 -1.0224 -0.1989  0.8713
 2147SOL    MW4 8356   1.630   4.245   0.176 -0.0632  0.1452  0.5415
 2148SOL     OW 8357   4.973   3.939   4.168  0.0731 -0.1417  0.3490
 2148SOL    HW2 8358   5.057   3.979   4.147  0.1748  0.0673  1.1446
 2148SOL    HW3 8359   4.970   3.860   4.113  1.0552 -0.4755  0.7485
 2148SOL    MW4 8360   4.984   3.934   4.158  0.2161 -0.1582  0.5067
 2149SOL     OW 8361   2.364   3.020   1.086 -0.2217  0.0385  0.4840
 2149SOL    HW2 8362   2.301   3.056   1.024  0.6166 -1.6782 -1.4854
 2149SOL    HW3 8363   2.382   2.932   1.053 -0.4332 -1.3486  3.7428
 2149SOL    MW4 8364   2.358   3.013   1.073 -0.1390 -0.3710  0.6541
 2150SOL     OW 8365   2.593   3.368   4.571 -0.1310  0.2969  0.0920
 2150SOL    HW2 8366   2.550   3.351   4.487 -0.5359 -1.5151  0.6338
 2150SOL    HW3 8367   2.526   3.347   4.637 -0.3057  2.9806  0.9304
 2150SOL    MW4 8368   2.578   3.363   4.569 -0.2074  0.4119  0.2741
 2151SOL     OW 8369   4.902   5.996   2.241 -0.3617  0.1026 -0.0001
 2151SOL    HW2 8370   4.975   6.053   2.266  0.1972  0.5551 -2.4168
 2151SOL    HW3 8371   4.893   5.936   2.315  1.0356  1.3853  1.3070
 2151SOL    MW4 8372   4.911   5.996   2.254 -0.1036  0.3316 -0.1465
 2152SOL     OW 8373   5.398   0.792   3.421  0.3420 -0.3605 -0.2600
 2152SOL    HW2 8374   5.441   0.708   3.442 -0.7794 -0.6838  0.9132
 2152SOL    HW3 8375   5.466   0.844   3.379  1.1433 -1.7694 -0.7752
 2152SOL    MW4 8376   5.413   0.788   3.418  0.2998 -0.5890 -0.1732
 2153SOL     OW 8377   5.270   1.913   2.980  0.0278 -0.0059 -0.3032
 2153SOL    HW2 8378   5.204   1.848   2.957 -0.9036  0.3529  1.2308
 2153SOL    HW3 8379   5.220   1.994   2.991  1.0904  0.8667 -1.5841
 2153SOL    MW4 8380   5.254   1.915   2.978  0.0451  0.1566 -0.2698
 2154SOL     OW 8381   2.862   2.382   2.912  0.5965  0.0976  0.4999
 2154SOL    HW2 8382   2.832   2.463   2.955 -1.8253 -0.3162 -0.2850
 2154SOL    HW3 8383   2.816   2.312   2.958  1.6817 -0.7663  0.3152
 2154SOL    MW4 8384   2.852   2.384   2.924  0.4201 -0.0710  0.3719
 2155SOL     OW 8385   6.228   2.179   1.844  0.1514 -0.4158 -0.9108
 2155SOL    HW2 8386   6.183   2.111   1.794 -1.0267  1.4511 -2.5288
 2155SOL    HW3 8387   6.226   2.256   1.787  0.9125  1.1517  1.0688
 2155SOL    MW4 8388   6.221   2.180   1.830  0.0964  0.0374 -0.8631
 2156SOL     OW 8389   4.092   0.010   2.280 -0.1352  0.0617 -0.2427
 2156SOL    HW2 8390   4.099   0.103   2.255 -0.3127 -0.2284 -1.4460
 2156SOL    HW3 8391   4.044   0.011   2.363 -0.0471  1.0566 -0.1934
 2156SOL    MW4 8392   4.086   0.023   2.288 -0.1470  0.1547 -0.3950
 2157SOL     OW 8393   1.668   3.879   2.275 -0.5494  0.2740  0.5766
 2157SOL    HW2 8394   1.675   3.813   2.345 -1.8525 -1.2742 -0.6732
 2157SOL    HW3 8395   1.691   3.831   2.195  1.3173  2.1138 -0.0766
 2157SOL    MW4 8396   1.672   3.864   2.274 -0.4751  0.3125  0.3255
 2158SOL     OW 8397   3.690   2.207   0.523 -0.3504 -0.1499  0.3818
 2158SOL    HW2 8398   3.779   2.241   0.533 -0.8470  2.8611 -2.9957
 2158SOL    HW3 8399   3.702   2.114   0.508  1.9678 -0.2434  2.1100
 2158SOL    MW4 8400   3.704   2.199   0.522 -0.1100  0.2351  0.1642
 2159SOL     OW 8401   3.743   0.837   1.393  0.6708  0.0224  0.3410
 2159SOL    HW2 8402   3.768   0.890   1.317 -1.6080 -0.8444 -1.1108
 2159SOL    HW3 8403   3.675   0.889   1.437  0.9719 -0.1262  1.0007
 2159SOL    MW4 8404   3.737   0.851   1.389  0.4099 -0.1116  0.2365
 2160SOL     OW 8405   3.938   0.799   2.522 -0.5559 -0.2012  0.4405
 2160SOL    HW2 8406   3.892   0.871   2.564 -0.1688 -0.6933  1.7738
 2160SOL    HW3 8407   4.030   0.811   2.546 -0.5654 -1.4516  1.2373
 2160SOL    MW4 8408   3.944   0.810   2.531 -0.5061 -0.4311  0.7215
 2161SOL     OW 8409   5.470   4.779   2.224 -0.6117 -0.0575 -0.1975
 2161SOL    HW2 8410   5.505   4.861   2.189 -0.4686 -0.5840 -1.3355
 2161SOL    HW3 8411   5.547   4.730   2.254 -0.5192 -0.5006 -1.1330
 2161SOL    MW4 8412   5.484   4.784   2.224 -0.5806 -0.1854 -0.4711
 2162SOL     OW 8413   0.623   4.778   6.283 -0.4283 -0.1199  0.2143
 2162SOL    HW2 8414   0.616   4.871   6.264 -2.8181  0.0042  1.2908
 2162SOL    HW3 8415   0.596   4.735   6.201 -0.4503  0.1457  0.0799
 2162SOL    MW4 8416   0.618   4.785   6.269 -0.7465 -0.0684  0.3386
 2163SOL     OW 8417   4.677   2.916   6.001  0.2354  0.0615  0.1805
 2163SOL    HW2 8418   4.733   2.939   5.926 -0.8416  0.1682 -0.6228
 2163SOL    HW3 8419   4.732   2.861   6.056  1.6892  1.5437  0.3050
 2163SOL    MW4 8420   4.692   2.912   5.998  0.2851  0.2712  0.0909
 2164SOL     OW 8421   1.316   5.363   1.305 -0.3331 -0.5559  0.2369
 2164SOL    HW2 8422   1.294   5.294   1.368  1.3282 -0.6363  0.7770
 2164SOL    HW3 8423   1.406   5.344   1.280 -0.9021 -0.4255 -2.0853
 2164SOL    MW4 8424   1.325   5.351   1.310 -0.1890 -0.5493  0.0018
 2165SOL     OW 8425   0.066   1.411   2.281 -0.3416  0.7422 -0.3707
 2165SOL    HW2 8426   0.018   1.463   2.217 -0.4241  0.6343 -0.3977
 2165SOL    HW3 8427   0.116   1.475   2.332 -2.1704  1.0774  1.0821
 2165SOL    MW4 8428   0.067   1.426   2.279 -0.5938  0.7722 -0.1826
 2166SOL     OW 8429   3.023   4.798   2.360 -0.2030 -0.0507 -0.1636
 2166SOL    HW2 8430   3.009   4.725   2.299  0.1160  0.7884 -1.2816
 2166SOL    HW3 8431   3.077   4.860   2.311  0.1385  0.6214  1.0212
 2166SOL    MW4 8432   3.028   4.797   2.345 -0.1158  0.1487 -0.1548
 2167SOL     OW 8433   3.904   2.106   4.757  0.4395 -0.2173  0.0927
 2167SOL    HW2 8434   3.945   2.182   4.797 -0.5608 -0.2674  1.2785
 2167SOL    HW3 8435   3.820   2.138   4.724  0.4869 -0.5717 -0.3914
 2167SOL    MW4 8436   3.898   2.120   4.758  0.3138 -0.2707  0.1853
 2168SOL     OW 8437   1.417   5.203   4.024 -1.0165 -0.6727  0.3545
 2168SOL    HW2 8438   1.363   5.216   3.945  0.6821  0.1170 -0.7251
 2168SOL    HW3 8439   1.456   5.117   4.012 -0.5001 -0.4132  0.1767
 2168SOL    MW4 8440   1.415   5.193   4.012 -0.7243 -0.5343  0.1886
 2169SOL     OW 8441   2.847   2.302   2.230  0.4459  0.4358 -0.6975
 2169SOL    HW2 8442   2.773   2.252   2.195 -1.3722  1.6315  1.1986
 2169SOL    HW3 8443   2.886   2.344   2.154 -0.9198 -0.1085 -1.7472
 2169SOL    MW4 8444   2.842   2.301   2.215  0.0259  0.5217 -0.5858
 2170SOL     OW 8445   3.818   0.361   1.553  0.5246 -0.3598  0.2769
 2170SOL    HW2 8446   3.842   0.419   1.625  0.7674  1.7290 -1.3974
 2170SOL    HW3 8447   3.895   0.363   1.495 -0.7480  0.4003 -1.4643
 2170SOL    MW4 8448   3.832   0.369   1.555  0.3888  0.0161 -0.1737
 2171SOL     OW 8449   3.427   0.497   5.412  0.6342  0.2394 -0.1804
 2171SOL    HW2 8450   3.453   0.442   5.338  0.8217  1.4995 -1.0868
 2171SOL    HW3 8451   3.503   0.499   5.469  1.2973  1.0231 -1.0592
 2171SOL    MW4 8452   3.440   0.490   5.410  0.7464  0.5091 -0.4159
 2172SOL     OW 8453   1.168   4.202   1.157  0.1535  0.5614 -0.3162
 2172SOL    HW2 8454   1.109   4.225   1.085 -0.2719  0.4502 -0.0144
 2172SOL    HW3 8455   1.163   4.106   1.162 -2.0914  0.6630  1.6688
 2172SOL    MW4 8456   1.159   4.192   1.148 -0.1988  0.5601 -0.0145
 2173SOL     OW 8457   6.345   0.609   4.057  0.0393  0.4539  0.1926
 2173SOL    HW2 8458   6.379   0.670   3.992 -0.8553  1.1628  0.3583
 2173SOL    HW3 8459   6.343   0.659   4.139 -1.7683  0.5957  0.0971
 2173SOL    MW4 8460   6.349   0.624   4.059 -0.3172  0.5661  0.2018
 2174SOL     OW 8461   5.731   5.244   2.314 -0.7184  0.3437 -0.0183
 2174SOL    HW2 8462   5.792   5.195   2.370 -1.6655 -0.5891  0.2393
 2174SOL    HW3 8463   5.674   5.291   2.376 -0.4541  0.9722 -0.2480
 2174SOL    MW4 8464   5.731   5.244   2.329 -0.8084  0.3035 -0.0146
 2175SOL     OW 8465   2.515   4.740   5.726  0.3433  0.1600 -0.3698
 2175SOL    HW2 8466   2.451   4.735   5.797  0.5288 -0.6345 -0.2440
 2175SOL    HW3 8467   2.476   4.799   5.662  0.5762  1.6641  0.7908
 2175SOL    MW4 8468   2.502   4.747   5.727  0.3985  0.2536 -0.2001
 2176SOL     OW 8469   4.005   2.569   6.288 -0.4666  0.5530  0.5170
 2176SOL    HW2 8470   4.046   2.630   6.226 -0.5723  2.3229  2.1163
 2176SOL    HW3 8471   4.074   2.551   6.352 -0.7584 -0.2472  0.6164
 2176SOL    MW4 8472   4.020   2.574   6.288 -0.5190  0.6809  0.7411
 2177SOL     OW 8473   2.041   1.886   5.759 -0.1624 -0.1481  0.0890
 2177SOL    HW2 8474   2.059   1.877   5.853 -2.3881 -2.3738  0.3845
 2177SOL    HW3 8475   2.038   1.981   5.745 -0.4529  0.2527  2.4082
 2177SOL    MW4 8476   2.043   1.897   5.770 -0.4944 -0.3889  0.4340
 2178SOL     OW 8477   0.271   2.651   1.818 -0.4839 -0.1644 -0.4534
 2178SOL    HW2 8478   0.192   2.670   1.768  0.1360 -1.6538 -2.0799
 2178SOL    HW3 8479   0.311   2.575   1.774  0.9038 -0.5923  1.3931
 2178SOL    MW4 8480   0.266   2.643   1.806 -0.2191 -0.4173 -0.4244
 2179SOL     OW 8481   4.776   4.965   0.611  0.0864  0.1275 -0.1433
 2179SOL    HW2 8482   4.689   4.929   0.626  0.5701 -0.4782  1.3518
 2179SOL    HW3 8483   4.783   5.037   0.674  0.5679  0.3710 -0.4698
 2179SOL    MW4 8484   4.765   4.970   0.621  0.2138  0.0797  0.0109
 2180SOL     OW 8485   6.327   5.525   0.174  0.5769  0.1788 -0.5618
 2180SOL    HW2 8486   6.355   5.570   0.253 -0.7202 -0.9386  0.6016
 2180SOL    HW3 8487   6.330   5.432   0.197 -0.3661 -0.1423 -1.6231
 2180SOL    MW4 8488   6.331   5.518   0.188  0.2814 -0.0110 -0.5483
 2181SOL     OW 8489   2.234   4.292   3.694 -0.5624 -0.4949 -0.0733
 2181SOL    HW2 8490   2.215   4.308   3.601 -0.5696  0.2050  0.0426
 2181SOL    HW3 8491   2.170   4.346   3.740  0.0884 -0.0670  0.3352
 2181SOL    MW4 8492   2.223   4.302   3.688 -0.4775 -0.3461 -0.0041
 2182SOL     OW 8493   4.818   2.078   3.883 -0.0714 -0.0056  0.2241
 2182SOL    HW2 8494   4.894   2.078   3.825 -0.1402  0.0882  0.1341
 2182SOL    HW3 8495   4.743   2.075   3.824 -0.1881  1.5032  0.2560
 2182SOL    MW4 8496   4.818   2.077   3.868 -0.0959  0.2058  0.2164
 2183SOL     OW 8497   3.096   3.423   5.863  0.5410 -0.2670  0.3021
 2183SOL    HW2 8498   3.155   3.469   5.803 -0.5830  0.5123 -0.2363
 2183SOL    HW3 8499   3.075   3.488   5.930  0.4947 -0.6136  0.6243
 2183SOL    MW4 8500   3.101   3.438   5.864  0.3866 -0.2099  0.2736
 2184SOL     OW 8501   2.742   5.753   5.052  0.0113  0.6443 -0.4087
 2184SOL    HW2 8502   2.788   5.751   4.969 -0.5997 -2.3814 -0.7704
 2184SOL    HW3 8503   2.767   5.672   5.096 -0.7630  1.5042  1.7676
 2184SOL    MW4 8504   2.751   5.742   5.047 -0.1715  0.3585 -0.1693
 2185SOL     OW 8505   4.259   1.184   1.992  0.5268 -0.2202  0.2385
 2185SOL    HW2 8506   4.313   1.106   2.006  1.1728 -0.1332 -1.5862
 2185SOL    HW3 8507   4.243   1.186   1.898  1.2747  2.3095  0.0761
 2185SOL    MW4 8508   4.264   1.174   1.982  0.7107  0.1250 -0.0237
 2186SOL     OW 8509   3.021   4.707   2.770  0.0350 -0.0767  0.6048
 2186SOL    HW2 8510   3.109   4.726   2.804  0.2192  0.0127  0.0899
 2186SOL    HW3 8511   3.036   4.656   2.691 -0.3677  0.1273  0.3906
 2186SOL    MW4 8512   3.035   4.703   2.764  0.0062 -0.0380  0.5086
 2187SOL     OW 8513   5.466   3.917   1.397  0.6531  0.3367 -0.0666
 2187SOL    HW2 8514   5.555   3.937   1.368  0.8433 -2.8673 -2.1020
 2187SOL    HW3 8515   5.410   3.970   1.341  1.2352  0.5307 -0.4737
 2187SOL    MW4 8516   5.470   3.927   1.386  0.7550 -0.0604 -0.3889
 2188SOL     OW 8517   5.595   0.794   1.525 -0.2286 -0.2031  0.2459
 2188SOL    HW2 8518   5.600   0.739   1.447 -0.8978 -0.4995  0.4082
 2188SOL    HW3 8519   5.502   0.794   1.549 -0.1737  0.6274  0.5102
 2188SOL    MW4 8520   5.583   0.787   1.518 -0.3097 -0.1327  0.3022
 2189SOL     OW 8521   4.658   3.174   1.610  0.4170  0.5264 -0.0487
 2189SOL    HW2 8522   4.708   3.248   1.643  2.0332 -0.3223 -0.4840
 2189SOL    HW3 8523   4.672   3.105   1.674 -0.4871  0.3627 -0.0100
 2189SOL    MW4 8524   4.666   3.174   1.623  0.5109  0.3928 -0.1010
 2190SOL     OW 8525   6.373   0.071   5.824  0.1933 -0.4849  0.2404
 2190SOL    HW2 8526   6.387   0.101   5.734 -1.1507 -1.8345 -0.4755
 2190SOL    HW3 8527   6.411  -0.017   5.826 -1.5077 -1.2582  0.3729
 2190SOL    MW4 8528   6.380   0.063   5.812 -0.2085 -0.7650  0.1634
 2191SOL     OW 8529   4.691   5.603   4.523  0.4557  0.3006 -0.1191
 2191SOL    HW2 8530   4.770   5.566   4.484  0.5698  0.1760  0.2304
 2191SOL    HW3 8531   4.629   5.610   4.450  0.3956 -0.6646 -0.1654
 2191SOL    MW4 8532   4.693   5.599   4.508  0.4629  0.1568 -0.0791
 2192SOL     OW 8533   4.044   3.252   0.348  0.3553  0.4784  0.5524
 2192SOL    HW2 8534   4.118   3.309   0.367  0.9454  0.0173 -0.2730
 2192SOL    HW3 8535   3.969   3.310   0.345  1.1024  1.4453 -1.4088
 2192SOL    MW4 8536   4.044   3.267   0.350  0.5317  0.5451  0.1847
 2193SOL     OW 8537   3.767   2.037   4.037  0.1709 -0.1809 -0.0068
 2193SOL    HW2 8538   3.764   1.989   4.120 -1.2752  1.5647  1.0476
 2193SOL    HW3 8539   3.743   1.973   3.971  0.0364 -1.3086  1.0946
 2193SOL    MW4 8540   3.763   2.022   4.039 -0.0377 -0.0994  0.2777
 2194SOL     OW 8541   0.803   1.532   3.238 -0.4577  0.0568  0.6297
 2194SOL    HW2 8542   0.850   1.516   3.156 -2.7161 -1.1812 -0.4913
 2194SOL    HW3 8543   0.873   1.548   3.302  1.4942 -1.5022 -0.9749
 2194SOL    MW4 8544   0.819   1.532   3.235 -0.4981 -0.3122  0.2701
 2195SOL     OW 8545   3.540   2.032   1.070 -0.3319 -0.2242 -0.3898
 2195SOL    HW2 8546   3.573   1.987   1.148  0.1959  2.0502  0.8016
 2195SOL    HW3 8547   3.617   2.041   1.014 -0.1991  0.0290 -0.1747
 2195SOL    MW4 8548   3.555   2.028   1.073 -0.2447  0.1093 -0.2043
 2196SOL     OW 8549   3.452   2.239   3.812 -0.1821 -0.0700 -0.3934
 2196SOL    HW2 8550   3.397   2.179   3.863  0.0900 -0.6193 -0.7382
 2196SOL    HW3 8551   3.410   2.242   3.726  0.5443 -0.8177 -0.7886
 2196SOL    MW4 8552   3.439   2.232   3.807 -0.0503 -0.2411 -0.4910
 2197SOL     OW 8553   0.863   3.013   3.924  0.5802 -0.3797  0.0475
 2197SOL    HW2 8554   0.899   3.063   3.850 -0.0389 -0.2246 -0.1532
 2197SOL    HW3 8555   0.905   3.051   4.001  0.1990  0.3793 -0.1112
 2197SOL    MW4 8556   0.873   3.025   3.924  0.4483 -0.2591  0.0001
 2198SOL     OW 8557   3.940   4.713   2.546  0.2041  0.6817 -0.1190
 2198SOL    HW2 8558   3.968   4.796   2.509  0.5081 -0.1624 -1.8786
 2198SOL    HW3 8559   3.844   4.719   2.548  0.2244  1.0684 -0.2523
 2198SOL    MW4 8560   3.931   4.725   2.542  0.2469  0.6214 -0.3688
 2199SOL     OW 8561   2.493   4.959   2.256  0.0809 -0.3526  0.2176
 2199SOL    HW2 8562   2.533   5.025   2.200 -0.9590  1.8552  1.8811
 2199SOL    HW3 8563   2.567   4.911   2.293  1.0897  1.5424  0.8210
 2199SOL    MW4 8564   2.508   4.961   2.254  0.0768  0.1887  0.5167
 2200SOL     OW 8565   6.114   3.350   6.335  0.2019 -0.2841 -0.0070
 2200SOL    HW2 8566   6.151   3.429   6.296 -0.1909 -0.4245 -0.6828
 2200SOL    HW3 8567   6.190   3.296   6.358  0.4334 -1.0924 -2.4585
 2200SOL    MW4 8568   6.129   3.353   6.333  0.1806 -0.4093 -0.4196
 2201SOL     OW 8569   3.654   5.975  -0.015  0.2522 -0.6655  0.0437
 2201SOL    HW2 8570   3.603   5.907  -0.059 -1.5364  0.3546  0.4557
 2201SOL    HW3 8571   3.651   6.050  -0.075 -0.6888  0.1484  1.0879
 2201SOL    MW4 8572   3.647   5.976  -0.029 -0.1080 -0.4235  0.2358
 2202SOL     OW 8573   2.779   3.278   3.911 -0.5331  0.6839  0.4595
 2202SOL    HW2 8574   2.765   3.196   3.959 -0.1559 -0.6340 -1.5359
 2202SOL    HW3 8575   2.869   3.271   3.879 -0.9352  1.2432 -0.8455
 2202SOL    MW4 8576   2.789   3.266   3.913 -0.5364  0.5838  0.0241
 2203SOL     OW 8577   6.374   2.278   2.363  0.6005 -0.3380  0.1738
 2203SOL    HW2 8578   6.450   2.289   2.305  1.1179  2.4968  1.2215
 2203SOL    HW3 8579   6.411   2.244   2.444  0.6798  0.4973  0.4935
 2203SOL    MW4 8580   6.389   2.275   2.366  0.6793  0.1463  0.3542
 2204SOL     OW 8581   2.961   3.316   3.233 -0.1021  0.5861  0.0322
 2204SOL    HW2 8582   2.918   3.303   3.149 -0.2678 -0.6402  0.2843
 2204SOL    HW3 8583   3.051   3.340   3.210 -0.2450  0.6231 -0.4974
 2204SOL    MW4 8584   2.967   3.317   3.219 -0.1428  0.4292 -0.0044
 2205SOL     OW 8585   4.180   0.652   5.583  0.0210 -0.0966  0.0628
 2205SOL    HW2 8586   4.188   0.600   5.502  0.2472 -0.1214  0.1002
 2205SOL    HW3 8587   4.126   0.727   5.558  0.7748  0.3322 -0.3251
 2205SOL    MW4 8588   4.174   0.655   5.569  0.1503 -0.0433  0.0166
 2206SOL     OW 8589   0.680   2.452   3.724  0.5091  0.6358  0.0791
 2206SOL    HW2 8590   0.745   2.445   3.793  0.8053 -1.3223 -0.3396
 2206SOL    HW3 8591   0.633   2.369   3.726 -0.2725  1.0045 -1.3018
 2206SOL    MW4 8592   0.682   2.440   3.733  0.4450  0.4261 -0.1583
 2207SOL     OW 8593   0.256   0.525   6.174 -0.4643 -0.7969  0.6496
 2207SOL    HW2 8594   0.330   0.504   6.117  0.1152 -0.8800  1.4169
 2207SOL    HW3 8595   0.207   0.444   6.181 -0.0511 -1.0248  0.9628
 2207SOL    MW4 8596   0.259   0.512   6.167 -0.3333 -0.8380  0.7922
 2208SOL     OW 8597   3.389   1.383   4.499 -0.5932  0.3333 -0.1628
 2208SOL    HW2 8598   3.373   1.290   4.517  2.3474 -0.2607 -0.1043
 2208SOL    HW3 8599   3.408   1.386   4.405 -0.0281  0.7627 -0.0372
 2208SOL    MW4 8600   3.389   1.371   4.489 -0.1307  0.3115 -0.1385
 2209SOL     OW 8601   3.235   0.586   0.737 -0.1562  0.1467 -0.1925
 2209SOL    HW2 8602   3.192   0.629   0.663  0.3469  0.5527 -0.2474
 2209SOL    HW3 8603   3.180   0.509   0.754 -1.2427  0.9653  0.1083
 2209SOL    MW4 8604   3.222   0.582   0.729 -0.2332  0.3083 -0.1601
 2210SOL     OW 8605   4.008   0.756   1.480 -0.3661 -0.0325  0.0362
 2210SOL    HW2 8606   3.916   0.780   1.480 -0.2219  0.5831  1.4376
 2210SOL    HW3 8607   4.029   0.742   1.387 -1.9939 -0.7560 -0.2461
 2210SOL    MW4 8608   3.999   0.757   1.467 -0.5618 -0.0467  0.1838
 2211SOL     OW 8609   5.352   0.979   4.610 -0.3984 -0.2359  0.4952
 2211SOL    HW2 8610   5.350   0.994   4.515 -1.8025 -1.2018  0.3429
 2211SOL    HW3 8611   5.263   0.999   4.639 -1.0185 -3.3086  1.0330
 2211SOL    MW4 8612   5.340   0.984   4.601 -0.6654 -0.7688  0.5460
 2212SOL     OW 8613   4.031   4.569   6.148  0.1093  0.6967  0.0837
 2212SOL    HW2 8614   4.036   4.501   6.081 -1.4905 -0.8945  1.4706
 2212SOL    HW3 8615   3.989   4.643   6.105 -0.7688 -0.2513 -0.7371
 2212SOL    MW4 8616   4.026   4.569   6.134 -0.2177  0.3617  0.1584
 2213SOL     OW 8617   2.443   3.785   4.282 -0.2631 -0.4512 -0.0621
 2213SOL    HW2 8618   2.477   3.753   4.199 -3.0058 -2.5450 -0.5428
 2213SOL    HW3 8619   2.482   3.727   4.348 -0.3160 -0.6748 -0.2257
 2213SOL    MW4 8620   2.453   3.773   4.280 -0.6320 -0.7570 -0.1471
 2214SOL     OW 8621   0.538   1.989   5.639 -0.7534 -0.4632  0.1679
 2214SOL    HW2 8622   0.627   2.015   5.662 -0.3613 -0.8933 -0.8186
 2214SOL    HW3 8623   0.504   2.061   5.586 -0.2700 -1.1670 -1.1324
 2214SOL    MW4 8624   0.545   2.002   5.635 -0.6379 -0.6128 -0.1338
 2215SOL     OW 8625   2.179   4.795   4.456  0.1026 -0.0885 -0.2024
 2215SOL    HW2 8626   2.228   4.833   4.529 -1.0416 -0.4850  0.7994
 2215SOL    HW3 8627   2.102   4.851   4.447  1.5787  1.7313 -3.0582
 2215SOL    MW4 8628   2.175   4.808   4.464  0.1464  0.0993 -0.4470
 2216SOL     OW 8629   4.044   4.712   5.763 -0.5844  0.8621  0.2198
 2216SOL    HW2 8630   4.019   4.755   5.845 -0.8362  2.1490 -0.5075
 2216SOL    HW3 8631   4.083   4.782   5.710 -1.4804  0.3273 -1.1998
 2216SOL    MW4 8632   4.045   4.727   5.767 -0.7358  0.9613 -0.0635
 2217SOL     OW 8633   3.134   4.301   3.433 -0.4006  0.2110  0.2916
 2217SOL    HW2 8634   3.099   4.213   3.418  1.0778 -0.4112  0.3158
 2217SOL    HW3 8635   3.205   4.288   3.495  0.8135  1.2027 -0.8305
 2217SOL    MW4 8636   3.139   4.287   3.439 -0.0453  0.2597  0.1467
 2218SOL     OW 8637   1.986   3.290   3.990  0.3575  0.2488  0.1296
 2218SOL    HW2 8638   2.030   3.264   3.909  1.3931 -0.7636  0.9886
 2218SOL    HW3 8639   1.894   3.267   3.976  0.7590 -1.2451 -0.2426
 2218SOL    MW4 8640   1.980   3.283   3.977  0.5471 -0.0818  0.1938
 2219SOL     OW 8641   0.179   2.904   0.168  0.2305  0.1373  0.4539
 2219SOL    HW2 8642   0.248   2.867   0.223 -0.5705 -1.7995  0.2266
 2219SOL    HW3 8643   0.203   2.879   0.079 -0.7402 -0.5474  0.3715
 2219SOL    MW4 8644   0.191   2.896   0.163 -0.0033 -0.2086  0.4130
 2220SOL     OW 8645   0.051   4.414   4.560 -0.2489 -0.5037 -0.3550
 2220SOL    HW2 8646   0.045   4.346   4.494  0.0616  1.3059 -2.3852
 2220SOL    HW3 8647   0.078   4.492   4.511 -0.9882  1.1853  1.7603
 2220SOL    MW4 8648   0.054   4.416   4.545 -0.3054 -0.0421 -0.3438
 2221SOL     OW 8649   3.524   3.489   2.775  0.6197 -0.2196 -0.5065
 2221SOL    HW2 8650   3.572   3.486   2.858  2.4390 -2.2550 -1.5273
 2221SOL    HW3 8651   3.452   3.427   2.787 -0.5584  1.2442  0.2970
 2221SOL    MW4 8652   3.521   3.481   2.788  0.7043 -0.2950 -0.5352
 2222SOL     OW 8653   5.096   2.062   2.322  0.3151 -0.2820 -0.4869
 2222SOL    HW2 8654   5.086   2.015   2.405  0.4918  0.1668 -0.2059
 2222SOL    HW3 8655   5.175   2.115   2.334  0.0457  0.1816 -0.7519
 2222SOL    MW4 8656   5.105   2.062   2.334  0.3028 -0.1617 -0.4848
 2223SOL     OW 8657   4.380   4.459   0.756 -0.2217 -0.1150  0.0391
 2223SOL    HW2 8658   4.389   4.366   0.777  0.9863  0.1178  0.6286
 2223SOL    HW3 8659   4.288   4.469   0.729  0.2454 -1.9339 -2.5459
 2223SOL    MW4 8660   4.369   4.448   0.755 -0.0007 -0.3242 -0.2242
 2224SOL     OW 8661   4.132   1.257   5.591 -0.2747  0.9243 -0.4397
 2224SOL    HW2 8662   4.134   1.189   5.523 -0.0345 -0.0916  0.5677
 2224SOL    HW3 8663   4.059   1.313   5.566  0.0745  0.8218 -1.7750
 2224SOL    MW4 8664   4.123   1.256   5.578 -0.1970  0.7768 -0.4830
 2225SOL     OW 8665   3.588   0.751   2.666  0.0090 -0.4675 -0.0366
 2225SOL    HW2 8666   3.514   0.691   2.679 -2.0507  0.6431 -4.5738
 2225SOL    HW3 8667   3.656   0.697   2.626  1.0183 -1.0665  2.3219
 2225SOL    MW4 8668   3.587   0.736   2.663 -0.1296 -0.4000 -0.3241
 2226SOL     OW 8669   4.445   5.883   5.080  0.3593  0.1253  0.6357
 2226SOL    HW2 8670   4.474   5.951   5.141 -1.0169  0.0975  1.3623
 2226SOL    HW3 8671   4.352   5.900   5.067 -0.0304 -1.6425  0.8729
 2226SOL    MW4 8672   4.437   5.894   5.086  0.1263 -0.1116  0.7629
 2227SOL     OW 8673   1.240   1.325   1.260 -0.8152  0.3584 -0.1347
 2227SOL    HW2 8674   1.269   1.235   1.254 -0.8440  0.3486 -0.1291
 2227SOL    HW3 8675   1.251   1.348   1.352  1.4421  1.1225 -0.5194
 2227SOL    MW4 8676   1.245   1.316   1.271 -0.5212  0.4579 -0.1847
 2228SOL     OW 8677   1.396   1.607   0.576 -0.2379  0.1291 -0.3354
 2228SOL    HW2 8678   1.324   1.654   0.534  0.6143  0.3349 -1.6399
 2228SOL    HW3 8679   1.412   1.532   0.519 -0.4401 -0.7989  0.7966
 2228SOL    MW4 8680   1.389   1.604   0.563 -0.1521  0.0338 -0.3582
 2229SOL     OW 8681   5.841   1.502   3.132 -0.1030  0.1802  0.0684
 2229SOL    HW2 8682   5.897   1.456   3.195  1.1127 -1.7645 -2.2321
 2229SOL    HW3 8683   5.887   1.494   3.049 -2.6454  0.6772 -1.5149
 2229SOL    MW4 8684   5.854   1.495   3.129 -0.2781 -0.0108 -0.4440
 2230SOL     OW 8685   0.563   3.341   0.932 -0.4421 -0.5607 -0.0428
 2230SOL    HW2 8686   0.656   3.331   0.909 -0.1402 -1.2420  1.3465
 2230SOL    HW3 8687   0.517   3.334   0.849  0.8651  2.1963 -1.1294
 2230SOL    MW4 8688   0.569   3.339   0.918 -0.2298 -0.2869 -0.0028
 2231SOL     OW 8689   4.825   2.547   2.100 -0.3641  0.0037 -0.1142
 2231SOL    HW2 8690   4.760   2.602   2.144 -1.3332 -0.8088 -0.5100
 2231SOL    HW3 8691   4.811   2.460   2.136  2.8918  0.3448  2.5066
 2231SOL    MW4 8692   4.815   2.543   2.110 -0.0624 -0.0585  0.1794
 2232SOL     OW 8693   6.240   1.718   5.949 -0.0524 -0.0468  0.1617
 2232SOL    HW2 8694   6.191   1.701   5.869 -2.5109  2.9753  0.8420
 2232SOL    HW3 8695   6.256   1.631   5.986 -0.5682 -1.4069 -2.5544
 2232SOL    MW4 8696   6.236   1.705   5.944 -0.4449  0.1725 -0.1069
 2233SOL     OW 8697   0.988   2.788   2.554 -0.0407 -0.2220  0.1490
 2233SOL    HW2 8698   0.982   2.852   2.625 -2.1812 -1.5032  1.2207
 2233SOL    HW3 8699   1.066   2.814   2.505  0.5612  1.7017  1.9794
 2233SOL    MW4 8700   0.997   2.800   2.557 -0.2437 -0.1373  0.5319
 2234SOL     OW 8701   5.964   3.332   3.719 -0.0593  0.0810  0.6966
 2234SOL    HW2 8702   5.996   3.242   3.727  0.6205  0.4109  1.9897
 2234SOL    HW3 8703   5.892   3.326   3.657  0.2036 -1.2961  0.4834
 2234SOL    MW4 8704   5.959   3.319   3.712  0.0651 -0.0572  0.8391
 2235SOL     OW 8705   4.817   3.142   5.234  0.2906 -0.0655  0.0448
 2235SOL    HW2 8706   4.738   3.196   5.234 -0.1961 -0.7229  1.8169
 2235SOL    HW3 8707   4.838   3.131   5.141 -0.6270  1.6358 -0.4196
 2235SOL    MW4 8708   4.810   3.148   5.221  0.1053  0.0722  0.2173
 2236SOL     OW 8709   6.122   0.625   3.675  0.4567 -0.1931  0.3805
 2236SOL    HW2 8710   6.119   0.535   3.642  0.5713 -0.4224  0.9797
 2236SOL    HW3 8711   6.147   0.615   3.767 -1.0328  0.3661  0.8567
 2236SOL    MW4 8712   6.125   0.612   3.683  0.2753 -0.1496  0.5224
 2237SOL     OW 8713   0.186   4.236   5.096 -0.0852  0.2478  0.2276
 2237SOL    HW2 8714   0.184   4.282   5.012 -0.1271  0.1014  0.1475
 2237SOL    HW3 8715   0.182   4.305   5.162 -2.4906  0.2901  0.1201
 2237SOL    MW4 8716   0.185   4.251   5.094 -0.4081  0.2340  0.2029
 2238SOL     OW 8717   1.379   4.062   1.709  0.1854  0.0111 -0.0676
 2238SOL    HW2 8718   1.304   4.110   1.745 -0.0347  0.7940 -1.5190
 2238SOL    HW3 8719   1.360   3.970   1.731 -0.5675  0.3303  0.6820
 2238SOL    MW4 8720   1.366   4.056   1.717  0.0570  0.1565 -0.1602
 2239SOL     OW 8721   1.755   6.121   3.908 -0.0447 -0.6153 -0.3521
 2239SOL    HW2 8722   1.844   6.149   3.887 -0.3041  0.7687  0.3090
 2239SOL    HW3 8723   1.712   6.116   3.822  0.3634 -0.2183 -0.5863
 2239SOL    MW4 8724   1.761   6.124   3.894 -0.0251 -0.3803 -0.2958
 2240SOL     OW 8725   2.204   6.323   1.687  0.0303 -0.1217  0.3294
 2240SOL    HW2 8726   2.234   6.403   1.643  0.5706  0.0033  0.9144
 2240SOL    HW3 8727   2.176   6.266   1.615  1.2102 -0.0485 -0.2028
 2240SOL    MW4 8728   2.204   6.326   1.671  0.2572 -0.0955  0.3364
 2241SOL     OW 8729   1.256   1.616   3.574 -0.3208  0.2551  0.2956
 2241SOL    HW2 8730   1.250   1.613   3.670  0.9059 -2.3532  0.3953
 2241SOL    HW3 8731   1.347   1.641   3.557 -0.6641  1.1801 -0.2187
 2241SOL    MW4 8732   1.267   1.619   3.585 -0.2043  0.0330  0.2409
 2242SOL     OW 8733   3.338   5.700   4.820 -0.5074  0.3213  0.4422
 2242SOL    HW2 8734   3.410   5.717   4.880 -1.0876  2.0082  0.7102
 2242SOL    HW3 8735   3.262   5.685   4.877 -0.3243 -1.9163  0.1765
 2242SOL    MW4 8736   3.337   5.700   4.835 -0.5598  0.2487  0.4425
 2243SOL     OW 8737   1.322   1.862   2.630  0.2298 -0.3970 -0.5851
 2243SOL    HW2 8738   1.229   1.884   2.626  0.0726 -0.5177  1.4425
 2243SOL    HW3 8739   1.357   1.915   2.702  1.3874 -1.4769 -0.3065
 2243SOL    MW4 8740   1.315   1.872   2.639  0.3618 -0.5554 -0.2808
 2244SOL     OW 8741   0.773   4.365   0.811  0.2845  0.4727 -0.5838
 2244SOL    HW2 8742   0.730   4.384   0.894 -0.7681 -0.8535 -0.8047
 2244SOL    HW3 8743   0.779   4.451   0.768 -0.6892  0.9225  0.1350
 2244SOL    MW4 8744   0.769   4.379   0.816  0.0171  0.3571 -0.5181
 2245SOL     OW 8745   5.477   3.699   5.516 -0.1259  0.2432  0.6274
 2245SOL    HW2 8746   5.528   3.618   5.508 -2.5704 -1.3450 -0.1230
 2245SOL    HW3 8747   5.506   3.753   5.443  1.9854  0.3433  1.4950
 2245SOL    MW4 8748   5.487   3.695   5.506 -0.1699  0.0468  0.6428
 2246SOL     OW 8749   5.140   4.994   5.954 -0.0046  0.4947  0.0391
 2246SOL    HW2 8750   5.061   5.013   5.905  0.2698 -0.0080 -0.6131
 2246SOL    HW3 8751   5.128   5.039   6.038 -1.0997  0.1936  0.0601
 2246SOL    MW4 8752   5.128   5.003   5.959 -0.1129  0.3886 -0.0441
 2247SOL     OW 8753   5.632   6.179   0.171 -0.1013  0.0576  0.3129
 2247SOL    HW2 8754   5.609   6.166   0.080 -0.1876 -0.9014  0.4660
 2247SOL    HW3 8755   5.635   6.274   0.182 -0.1938  0.1753 -0.6542
 2247SOL    MW4 8756   5.630   6.190   0.161 -0.1249 -0.0534  0.2055
 2248SOL     OW 8757   0.722   6.228   2.586 -0.0108 -1.0901  0.1010
 2248SOL    HW2 8758   0.712   6.187   2.500 -0.4454  0.9773 -0.8915
 2248SOL    HW3 8759   0.643   6.204   2.634 -0.6314 -0.7774 -0.7471
 2248SOL    MW4 8760   0.711   6.220   2.581 -0.1500 -0.7761 -0.1418
 2249SOL     OW 8761   3.009   0.693   5.850  0.0553  0.5839  0.3298
 2249SOL    HW2 8762   2.941   0.754   5.821 -1.7746 -0.3171  2.4303
 2249SOL    HW3 8763   3.069   0.747   5.902  0.2475  1.1452 -0.4534
 2249SOL    MW4 8764   3.008   0.708   5.853 -0.1608  0.5391  0.5036
 2250SOL     OW 8765   0.819   2.570   1.302  0.2189  0.1052  0.1967
 2250SOL    HW2 8766   0.854   2.644   1.352 -0.6071 -0.3023  1.4111
 2250SOL    HW3 8767   0.842   2.493   1.354 -1.0739 -0.2894  0.2084
 2250SOL    MW4 8768   0.826   2.569   1.315 -0.0606 -0.0007  0.3585
 2251SOL     OW 8769   6.007   0.397   1.507 -0.2809 -0.5195 -0.1027
 2251SOL    HW2 8770   5.939   0.433   1.450 -1.0733 -0.4752  0.8382
 2251SOL    HW3 8771   5.985   0.303   1.513 -0.1681 -0.5343  0.0743
 2251SOL    MW4 8772   5.995   0.389   1.500 -0.3705 -0.5156  0.0448
 2252SOL     OW 8773   3.329   0.132   0.830 -0.1156 -0.3807  0.0639
 2252SOL    HW2 8774   3.238   0.115   0.806 -0.6790 -1.5654  2.6670
 2252SOL    HW3 8775   3.333   0.226   0.848 -0.6326 -0.2028 -0.7324
 2252SOL    MW4 8776   3.318   0.142   0.830 -0.2581 -0.5136  0.3023
 2253SOL     OW 8777   1.422   3.364   5.454  0.2480  0.3793  0.8450
 2253SOL    HW2 8778   1.416   3.402   5.367 -1.8019 -0.9152  0.3278
 2253SOL    HW3 8779   1.515   3.363   5.474  0.7680  0.7526 -1.3128
 2253SOL    MW4 8780   1.433   3.369   5.445  0.0461  0.2577  0.4920
 2254SOL     OW 8781   2.411   4.614   3.251  0.2139 -0.2798  0.7688
 2254SOL    HW2 8782   2.447   4.570   3.174 -0.6969 -0.9814  0.7271
 2254SOL    HW3 8783   2.478   4.601   3.319  0.2327 -1.2275  0.5844
 2254SOL    MW4 8784   2.425   4.606   3.250  0.0962 -0.4974  0.7390
 2255SOL     OW 8785   2.378   3.043   4.555  0.2217 -0.6238 -0.0776
 2255SOL    HW2 8786   2.358   2.950   4.551  2.4373 -1.1687  0.6427
 2255SOL    HW3 8787   2.310   3.080   4.611  0.1017 -2.0397  0.7433
 2255SOL    MW4 8788   2.366   3.036   4.562  0.4982 -0.8825  0.1257
 2256SOL     OW 8789   1.936   0.409   3.395 -0.3402 -0.0751 -0.3598
 2256SOL    HW2 8790   2.001   0.379   3.458  1.6784  2.8275 -0.8479
 2256SOL    HW3 8791   1.858   0.427   3.448  0.5821  0.2374  0.9442
 2256SOL    MW4 8792   1.934   0.407   3.410  0.0478  0.3491 -0.2521
 2257SOL     OW 8793   0.688   1.413   0.731 -0.2778 -0.8021 -0.2127
 2257SOL    HW2 8794   0.681   1.466   0.652  0.8314  1.9399  1.3672
 2257SOL    HW3 8795   0.599   1.412   0.767 -0.0315  1.7741  0.6912
 2257SOL    MW4 8796   0.675   1.420   0.726 -0.0990 -0.1005  0.1150
 2258SOL     OW 8797   6.107   0.031   4.629  0.1874 -0.3008  0.3365
 2258SOL    HW2 8798   6.140   0.119   4.609 -0.7569  0.3927  1.6947
 2258SOL    HW3 8799   6.134  -0.022   4.553  0.5433  1.2022 -0.6378
 2258SOL    MW4 8800   6.115   0.036   4.616  0.1098 -0.0110  0.3872
 2259SOL     OW 8801   0.301   6.059   4.972  0.1485 -0.2309 -0.2636
 2259SOL    HW2 8802   0.304   6.022   4.884  0.1683 -1.6994  0.3220
 2259SOL    HW3 8803   0.213   6.036   5.004  0.6248 -0.9423  0.5789
 2259SOL    MW4 8804   0.289   6.051   4.965  0.2139 -0.5185 -0.0752
 2260SOL     OW 8805   5.864   1.826   2.413 -0.8715  0.2166 -0.1647
 2260SOL    HW2 8806   5.841   1.764   2.482 -0.3601 -1.7414 -1.6772
 2260SOL    HW3 8807   5.957   1.841   2.425 -0.5751 -0.8840 -0.9802
 2260SOL    MW4 8808   5.873   1.820   2.424 -0.7650 -0.1870 -0.4719
 2261SOL     OW 8809   0.369   6.400   3.770  0.5712  0.0705 -0.3952
 2261SOL    HW2 8810   0.315   6.359   3.838  0.4559  0.6775 -0.1108
 2261SOL    HW3 8811   0.310   6.460   3.725  0.9764  0.6823 -0.1336
 2261SOL    MW4 8812   0.354   6.402   3.773  0.6094  0.2313 -0.3232
 2262SOL     OW 8813   5.859   3.198   0.254  0.0977  0.1667  0.8306
 2262SOL    HW2 8814   5.939   3.247   0.274 -0.7979  1.2575  1.9490
 2262SOL    HW3 8815   5.856   3.128   0.319  1.2177 -1.2523 -0.5734
 2262SOL    MW4 8816   5.869   3.195   0.266  0.1273  0.1234  0.7929
 2263SOL     OW 8817   0.027   0.482   4.653  0.2525 -0.0985 -0.1313
 2263SOL    HW2 8818  -0.053   0.519   4.691 -0.0987 -0.6603 -0.2988
 2263SOL    HW3 8819   0.072   0.441   4.726  0.4600  0.3400 -0.0116
 2263SOL    MW4 8820   0.022   0.481   4.667  0.2335 -0.1148 -0.1376
 2264SOL     OW 8821   6.316   5.899   0.895  0.0394  0.8300 -0.8705
 2264SOL    HW2 8822   6.267   5.980   0.909  0.5299  1.0578 -0.4565
 2264SOL    HW3 8823   6.407   5.923   0.911  0.2140  0.2537 -0.9926
 2264SOL    MW4 8824   6.321   5.913   0.899  0.1272  0.7840 -0.8320
 2265SOL     OW 8825   6.240   3.433   5.114 -0.1681  0.0569  0.8192
 2265SOL    HW2 8826   6.182   3.509   5.108  0.0255  0.1427 -0.0658
 2265SOL    HW3 8827   6.328   3.470   5.123 -0.0973 -0.0626  0.6282
 2265SOL    MW4 8828   6.244   3.448   5.114 -0.1332  0.0525  0.6773
 2266SOL     OW 8829   1.710   2.469   0.904 -0.0094 -0.4235  0.5557
 2266SOL    HW2 8830   1.722   2.386   0.950 -1.8981 -1.0817 -0.0186
 2266SOL    HW3 8831   1.631   2.507   0.943  1.0202  1.3109  1.0503
 2266SOL    MW4 8832   1.701   2.463   0.915 -0.1227 -0.2815  0.5452
 2267SOL     OW 8833   0.904   6.009   0.917  0.6273 -0.4125  0.3189
 2267SOL    HW2 8834   0.821   6.000   0.870  1.3119 -0.2000 -0.9539
 2267SOL    HW3 8835   0.882   6.064   0.992 -0.8537 -2.1815  1.2611
 2267SOL    MW4 8836   0.890   6.015   0.921  0.5222 -0.6179  0.2753
 2268SOL     OW 8837   6.294   1.414   2.567 -0.8903 -0.0349  0.2907
 2268SOL    HW2 8838   6.223   1.358   2.599 -0.6905 -0.1863  0.4750
 2268SOL    HW3 8839   6.372   1.358   2.572 -0.6101  0.4059  0.9058
 2268SOL    MW4 8840   6.295   1.399   2.572 -0.8270  0.0033  0.3962
 2269SOL     OW 8841   3.959   1.576   2.017 -0.2010 -0.2689 -0.0051
 2269SOL    HW2 8842   3.962   1.551   1.925  0.6022 -1.1853  0.2508
 2269SOL    HW3 8843   3.974   1.495   2.065  2.4547  0.6423  0.8756
 2269SOL    MW4 8844   3.961   1.562   2.012  0.2553 -0.2696  0.1449
 2270SOL     OW 8845   0.347   5.653   5.342  0.1340 -0.2204  0.1537
 2270SOL    HW2 8846   0.415   5.609   5.291 -0.0453  0.7423 -0.9650
 2270SOL    HW3 8847   0.272   5.658   5.282 -0.6119 -0.4191  1.0478
 2270SOL    MW4 8848   0.346   5.648   5.327  0.0119 -0.1196  0.1240
 2271SOL     OW 8849   4.295   0.073   3.405 -0.0026 -0.3530 -0.0809
 2271SOL    HW2 8850   4.238   0.142   3.371 -0.0536 -0.3988 -0.0904
 2271SOL    HW3 8851   4.333   0.110   3.485 -0.5677 -0.5651  0.2924
 2271SOL    MW4 8852   4.292   0.087   3.411 -0.0839 -0.3870 -0.0329
 2272SOL     OW 8853   6.193   0.112   0.260  0.5753  0.0686  0.3864
 2272SOL    HW2 8854   6.238   0.103   0.344 -0.3135  0.4268  0.9073
 2272SOL    HW3 8855   6.101   0.101   0.280  0.3235  0.4696 -0.4902
 2272SOL    MW4 8856   6.187   0.110   0.274  0.4248  0.1688  0.3395
 2273SOL     OW 8857   4.033   1.843   1.872  0.7143  0.0176 -0.3413
 2273SOL    HW2 8858   4.003   1.844   1.963  0.4308  0.0816 -0.4363
 2273SOL    HW3 8859   4.056   1.934   1.854 -0.5127  0.2618 -0.7593
 2273SOL    MW4 8860   4.032   1.855   1.882  0.5150  0.0583 -0.4090
 2274SOL     OW 8861   3.212   6.410   2.453 -0.3502 -0.2152  0.1127
 2274SOL    HW2 8862   3.300   6.449   2.454 -0.3624 -0.1854  0.4982
 2274SOL    HW3 8863   3.193   6.396   2.361 -0.5656  1.2089 -0.0777
 2274SOL    MW4 8864   3.221   6.413   2.441 -0.3802 -0.0234  0.1384
 2275SOL     OW 8865   4.152   2.510   4.220  0.4142 -0.0951 -0.0352
 2275SOL    HW2 8866   4.156   2.546   4.132  2.6642 -0.1057  0.0076
 2275SOL    HW3 8867   4.221   2.444   4.222  0.9301  0.4335  1.9538
 2275SOL    MW4 8868   4.161   2.506   4.209  0.7792 -0.0267  0.2328
 2276SOL     OW 8869   4.446   0.031   0.159  0.0477 -0.1113 -0.0656
 2276SOL    HW2 8870   4.368  -0.013   0.192 -0.2781  0.2373 -0.3589
 2276SOL    HW3 8871   4.487  -0.033   0.101 -0.0890 -0.2538 -0.0044
 2276SOL    MW4 8872   4.441   0.017   0.156 -0.0133 -0.0841 -0.0962
 2277SOL     OW 8873   2.995   3.751   2.021 -0.5578 -0.0210 -0.5144
 2277SOL    HW2 8874   2.967   3.762   1.930 -0.9982  2.6557 -0.1536
 2277SOL    HW3 8875   3.063   3.818   2.033  0.9999 -1.6935  0.6091
 2277SOL    MW4 8876   3.000   3.761   2.011 -0.4104  0.1115 -0.3185
 2278SOL     OW 8877   6.191   0.390   0.183  0.1608 -0.1496 -0.4281
 2278SOL    HW2 8878   6.217   0.305   0.147 -0.0932 -0.8961  1.0954
 2278SOL    HW3 8879   6.165   0.371   0.273  0.5356  1.6205  0.0807
 2278SOL    MW4 8880   6.191   0.376   0.190  0.1768 -0.0145 -0.1599
 2279SOL     OW 8881   2.243   3.083   5.732  0.2491 -0.2550  0.0863
 2279SOL    HW2 8882   2.225   3.133   5.653  0.3744  0.1993  0.3427
 2279SOL    HW3 8883   2.296   3.142   5.787  0.8615 -0.8575  0.1610
 2279SOL    MW4 8884   2.248   3.097   5.729  0.3464 -0.2745  0.1300
 2280SOL     OW 8885   0.951   6.345   3.465 -0.0986 -0.1468  0.0664
 2280SOL    HW2 8886   0.888   6.297   3.519 -2.4822  1.0454 -1.4901
 2280SOL    HW3 8887   0.946   6.435   3.497  0.5073  0.0567 -0.3888
 2280SOL    MW4 8888   0.942   6.351   3.476 -0.3332  0.0374 -0.1990
 2281SOL     OW 8889   2.595   3.435   4.050 -0.1131  0.5447  0.2894
 2281SOL    HW2 8890   2.667   3.398   3.999  0.1376  0.4320  0.7179
 2281SOL    HW3 8891   2.519   3.429   3.992 -0.2748 -1.4490  0.6376
 2281SOL    MW4 8892   2.595   3.429   4.036 -0.1014  0.2668  0.3919
 2282SOL     OW 8893   0.924   1.090   3.401 -0.0850  0.1479 -0.0515
 2282SOL    HW2 8894   0.957   1.165   3.350  0.6596 -0.0528  0.1284
 2282SOL    HW3 8895   0.838   1.119   3.433  0.1801  0.9149 -0.0149
 2282SOL    MW4 8896   0.917   1.104   3.399  0.0482  0.2226 -0.0229
 2283SOL     OW 8897   1.279   4.873   0.923  0.5780  0.1332 -0.0918
 2283SOL    HW2 8898   1.307   4.888   0.833 -1.0215  0.3761 -0.5767
 2283SOL    HW3 8899   1.361   4.871   0.973  1.8247 -3.2813 -1.9318
 2283SOL    MW4 8900   1.294   4.875   0.918  0.5315 -0.2853 -0.3985
 2284SOL     OW 8901   4.812   4.233   6.357  0.3747  0.3777  0.2598
 2284SOL    HW2 8902   4.832   4.278   6.274 -0.9972  1.1016  0.2772
 2284SOL    HW3 8903   4.881   4.260   6.416 -0.4395  2.6405  0.2943
 2284SOL    MW4 8904   4.824   4.243   6.354  0.0863  0.7717  0.2667
 2285SOL     OW 8905   6.209   0.422   6.198 -0.1731 -0.6932 -0.3523
 2285SOL    HW2 8906   6.162   0.498   6.233 -0.2282 -0.3956 -1.0529
 2285SOL    HW3 8907   6.249   0.454   6.117 -1.3408 -1.7623 -1.3877
 2285SOL    MW4 8908   6.208   0.436   6.192 -0.3344 -0.7950 -0.5813
 2286SOL     OW 8909   2.044   0.727   2.283 -0.3394 -0.4227  0.5100
 2286SOL    HW2 8910   2.092   0.778   2.348 -0.5817 -1.9226  1.9214
 2286SOL    HW3 8911   2.106   0.662   2.252  0.0247  0.7602 -1.4175
 2286SOL    MW4 8912   2.058   0.725   2.287 -0.3234 -0.4645  0.4419
 2287SOL     OW 8913   3.253   2.483   5.516  0.0871 -0.0735  0.1038
 2287SOL    HW2 8914   3.270   2.526   5.599  0.7802 -0.9135  0.4149
 2287SOL    HW3 8915   3.325   2.420   5.506 -0.5885 -0.7657 -0.5917
 2287SOL    MW4 8916   3.265   2.480   5.525  0.0894 -0.2757  0.0531
 2288SOL     OW 8917   5.685   1.385   0.200  0.0176 -0.0000 -0.5434
 2288SOL    HW2 8918   5.614   1.449   0.189  0.1397  0.6541  1.8145
 2288SOL    HW3 8919   5.664   1.315   0.138 -0.9610  1.6106 -2.1168
 2288SOL    MW4 8920   5.673   1.384   0.190 -0.0954  0.2988 -0.4399
 2289SOL     OW 8921   0.141   4.920   5.552  0.2650 -0.3498  0.1148
 2289SOL    HW2 8922   0.199   4.994   5.573  1.1228 -0.6042 -1.2501
 2289SOL    HW3 8923   0.057   4.961   5.530  0.1117  0.0661  1.3516
 2289SOL    MW4 8924   0.138   4.935   5.552  0.3579 -0.3285  0.0979
 2290SOL     OW 8925   3.617   5.017   3.761 -0.3165  0.6576 -0.0521
 2290SOL    HW2 8926   3.556   4.965   3.709  0.1243  0.6168 -0.5339
 2290SOL    HW3 8927   3.695   5.025   3.706  0.8918 -0.9570  1.3201
 2290SOL    MW4 8928   3.619   5.011   3.747 -0.0989  0.4392  0.0654
 2291SOL     OW 8929   6.358   4.578   3.516 -0.3915  0.3755  0.2018
 2291SOL    HW2 8930   6.448   4.579   3.550 -0.0923 -0.3940 -0.5216
 2291SOL    HW3 8931   6.334   4.485   3.516 -1.2171  0.5828  0.4441
 2291SOL    MW4 8932   6.367   4.565   3.521 -0.4610  0.3013  0.1383
 2292SOL     OW 8933   0.354   3.571   6.088  0.1406  0.1367 -0.3759
 2292SOL    HW2 8934   0.399   3.551   6.006  0.1671  0.1074 -0.3541
 2292SOL    HW3 8935   0.425   3.585   6.151  0.1231  0.3647 -0.4062
 2292SOL    MW4 8936   0.369   3.570   6.085  0.1418  0.1629 -0.3770
 2293SOL     OW 8937   5.673   3.182   1.058 -0.2840  0.0537 -0.1585
 2293SOL    HW2 8938   5.717   3.263   1.084 -1.5434  0.9116 -0.6193
 2293SOL    HW3 8939   5.580   3.204   1.056 -1.0015 -2.1355  2.4498
 2293SOL    MW4 8940   5.667   3.195   1.061 -0.5448 -0.1220  0.1248
 2294SOL     OW 8941   5.319   6.162   2.110 -0.1523 -0.2600 -1.2274
 2294SOL    HW2 8942   5.310   6.195   2.020  1.4970 -0.2055 -1.4013
 2294SOL    HW3 8943   5.367   6.231   2.156  1.6830 -1.5652 -1.1089
 2294SOL    MW4 8944   5.324   6.175   2.104  0.3074 -0.4250 -1.2347
 2295SOL     OW 8945   1.535   1.933   4.681  0.3496 -0.4280 -0.0075
 2295SOL    HW2 8946   1.516   1.950   4.589 -1.0774 -0.2824  0.2991
 2295SOL    HW3 8947   1.507   1.842   4.695 -1.1305  0.1053  0.6918
 2295SOL    MW4 8948   1.529   1.923   4.670 -0.0339 -0.3384  0.1252
 2296SOL     OW 8949   3.342   0.018   1.389 -0.3424  0.5768 -0.4672
 2296SOL    HW2 8950   3.275   0.006   1.322 -0.2908 -2.4355 -0.0931
 2296SOL    HW3 8951   3.423  -0.011   1.347  0.0781  0.7063  0.2319
 2296SOL    MW4 8952   3.344   0.013   1.374 -0.2801  0.1965 -0.3256
 2297SOL     OW 8953   0.507   5.448   1.217  0.3387  0.2035 -0.0816
 2297SOL    HW2 8954   0.594   5.409   1.212  0.4571  0.1944  1.5258
 2297SOL    HW3 8955   0.521   5.532   1.261 -0.3993  0.4173 -0.2447
 2297SOL    MW4 8956   0.520   5.454   1.222  0.2570  0.2305  0.1089
 2298SOL     OW 8957   3.852   1.921   2.760 -0.1525  0.1967 -0.4669
 2298SOL    HW2 8958   3.825   2.007   2.728  0.3924  0.5671  0.0555
 2298SOL    HW3 8959   3.845   1.927   2.856  2.8399  0.7239 -0.1680
 2298SOL    MW4 8960   3.848   1.933   2.769  0.3142  0.3151 -0.3586
 2299SOL     OW 8961   1.426   4.816   0.125  0.0238 -0.2148 -0.2161
 2299SOL    HW2 8962   1.338   4.779   0.135  0.3142 -0.6110  1.0921
 2299SOL    HW3 8963   1.418   4.905   0.161  0.1349 -0.2298 -0.1534
 2299SOL    MW4 8964   1.413   4.823   0.131  0.0767 -0.2691 -0.0352
 2300SOL     OW 8965   3.142   2.335   1.700  0.4926  0.1212  0.3019
 2300SOL    HW2 8966   3.202   2.282   1.647  0.0446  1.6478 -1.8902
 2300SOL    HW3 8967   3.179   2.423   1.696 -1.6544  1.0399 -0.8405
 2300SOL    MW4 8968   3.155   2.340   1.692  0.1502  0.4439 -0.1381
 2301SOL     OW 8969   1.304   2.081   4.759  0.5085 -0.4038  0.0606
 2301SOL    HW2 8970   1.383   2.028   4.767  0.6581 -0.1661  0.1661
 2301SOL    HW3 8971   1.237   2.030   4.804  0.2934 -1.2278 -1.1682
 2301SOL    MW4 8972   1.306   2.068   4.766  0.4999 -0.4812 -0.0876
 2302SOL     OW 8973   2.502   3.830   0.654 -0.3341  0.2153 -0.2028
 2302SOL    HW2 8974   2.424   3.775   0.649 -0.9461  0.8018  1.9437
 2302SOL    HW3 8975   2.483   3.905   0.599 -0.2354 -0.7903 -1.6754
 2302SOL    MW4 8976   2.489   3.832   0.646 -0.4019  0.1600 -0.1139
 2303SOL     OW 8977   2.712   3.872   0.353  0.1921  0.2422 -0.3738
 2303SOL    HW2 8978   2.702   3.789   0.401  1.8740  1.3663  2.1401
 2303SOL    HW3 8979   2.652   3.932   0.396  0.5065  0.8718 -0.7994
 2303SOL    MW4 8980   2.703   3.869   0.365  0.4555  0.4736 -0.0983
 2304SOL     OW 8981   2.506   5.587   0.640 -0.1477  0.1910  0.3506
 2304SOL    HW2 8982   2.558   5.665   0.620  0.9318 -0.8275 -1.0146
 2304SOL    HW3 8983   2.522   5.571   0.733  1.1208  0.5390  0.2134
 2304SOL    MW4 8984   2.515   5.595   0.650  0.1621  0.1025  0.1524
 2305SOL     OW 8985   1.396   6.118   4.097  0.6440 -0.0883 -0.3296
 2305SOL    HW2 8986   1.454   6.041   4.095  0.9637  0.0118  1.9897
 2305SOL    HW3 8987   1.341   6.108   4.020  1.6290 -1.8878 -0.8758
 2305SOL    MW4 8988   1.397   6.107   4.087  0.8162 -0.3125 -0.0957
 2306SOL     OW 8989   4.050   1.982   2.541  0.4449 -0.3207 -0.3525
 2306SOL    HW2 8990   4.020   2.052   2.484  2.0788  0.2485 -0.5870
 2306SOL    HW3 8991   3.979   1.969   2.603 -0.0823  1.2467 -0.5829
 2306SOL    MW4 8992   4.037   1.990   2.542  0.5909 -0.0388 -0.4138
 2307SOL     OW 8993   4.848   2.468   4.498 -0.8220 -0.2189  0.1915
 2307SOL    HW2 8994   4.805   2.423   4.425 -1.0037 -0.1415  0.2490
 2307SOL    HW3 8995   4.884   2.397   4.552  0.1761 -0.2416 -0.4908
 2307SOL    MW4 8996   4.847   2.453   4.496 -0.7143 -0.2117  0.1091
 2308SOL     OW 8997   6.074   2.222   4.555 -0.8259  0.9117 -0.4028
 2308SOL    HW2 8998   6.066   2.186   4.467  1.3953 -1.3099  0.1699
 2308SOL    HW3 8999   6.146   2.285   4.549 -0.7651  0.8633 -0.2136
 2308SOL    MW4 9000   6.083   2.225   4.543 -0.5248  0.6122 -0.3023
 2309SOL     OW 9001   2.763   4.435   2.355  0.3710 -0.2022  0.0688
 2309SOL    HW2 9002   2.684   4.481   2.383 -0.3070 -1.2122 -0.1215
 2309SOL    HW3 9003   2.732   4.348   2.329  1.3947 -0.2769 -0.9898
 2309SOL    MW4 9004   2.748   4.429   2.355  0.4166 -0.3453 -0.0960
 2310SOL     OW 9005   4.737   5.993   1.400  0.5076 -0.4752  0.1078
 2310SOL    HW2 9006   4.704   5.922   1.344 -1.1865 -0.0755  0.5525
 2310SOL    HW3 9007   4.739   5.956   1.488  0.6469 -0.2987  0.1794
 2310SOL    MW4 9008   4.733   5.979   1.404  0.3025 -0.3992  0.1759
 2311SOL     OW 9009   4.727   0.952   6.169 -0.9039  0.0601 -0.5641
 2311SOL    HW2 9010   4.632   0.961   6.178 -1.0018  1.9968 -2.4473
 2311SOL    HW3 9011   4.741   0.950   6.074  0.9567  0.3772 -0.3332
 2311SOL    MW4 9012   4.716   0.953   6.157 -0.6713  0.3575 -0.7821
 2312SOL     OW 9013   3.533   0.984   5.699 -0.6588 -0.5621  0.0123
 2312SOL    HW2 9014   3.476   1.010   5.772 -1.8057 -1.8218 -0.4064
 2312SOL    HW3 9015   3.532   0.889   5.700  1.6726 -0.6438  0.1207
 2312SOL    MW4 9016   3.525   0.975   5.709 -0.5025 -0.7391 -0.0286
 2313SOL     OW 9017   3.703   1.877   3.779  0.0430 -0.3140 -0.0911
 2313SOL    HW2 9018   3.743   1.808   3.726  1.1888  0.5320 -0.3910
 2313SOL    HW3 9019   3.653   1.831   3.845  0.8448 -1.4370 -0.2274
 2313SOL    MW4 9020   3.702   1.862   3.780  0.3000 -0.3506 -0.1486
 2314SOL     OW 9021   6.148   4.879   4.983  0.2067 -0.5728  0.3377
 2314SOL    HW2 9022   6.230   4.893   5.030  0.0601 -0.9094  0.7013
 2314SOL    HW3 9023   6.163   4.799   4.933  0.4975 -0.0047 -0.5009
 2314SOL    MW4 9024   6.161   4.870   4.983  0.2258 -0.5423  0.2750
 2315SOL     OW 9025   0.970   3.680   0.556 -0.1390  0.2438 -0.2434
 2315SOL    HW2 9026   0.887   3.652   0.516 -0.6444  1.7964 -0.3538
 2315SOL    HW3 9027   0.956   3.772   0.578  2.0654  1.0220 -1.6965
 2315SOL    MW4 9028   0.957   3.689   0.554  0.0852  0.5513 -0.4496
 2316SOL     OW 9029   3.438   2.310   5.849 -0.4830 -0.3398  0.2291
 2316SOL    HW2 9030   3.415   2.335   5.760 -1.4066 -1.1297  0.2255
 2316SOL    HW3 9031   3.421   2.215   5.853 -2.6040  0.0147  1.8300
 2316SOL    MW4 9032   3.432   2.300   5.838 -0.8847 -0.3973  0.4398
 2317SOL     OW 9033   6.372   1.296   5.662  0.1159  0.1395 -0.1008
 2317SOL    HW2 9034   6.449   1.309   5.718  1.0159 -1.3076 -0.9288
 2317SOL    HW3 9035   6.318   1.233   5.709 -0.2705  0.6692  0.1804
 2317SOL    MW4 9036   6.375   1.290   5.676  0.1837  0.0185 -0.1729
 2318SOL     OW 9037   1.283   1.098   2.041 -0.5367  0.0534 -0.3990
 2318SOL    HW2 9038   1.325   1.152   1.974 -0.5347 -0.7750 -1.0818
 2318SOL    HW3 9039   1.332   1.016   2.040 -1.6705 -0.6395 -0.6582
 2318SOL    MW4 9040   1.295   1.094   2.032 -0.6861 -0.1474 -0.5233
 2319SOL     OW 9041   4.416   2.790   1.527 -0.5882  0.1171  0.2044
 2319SOL    HW2 9042   4.410   2.810   1.621 -0.6050  1.8546 -0.1273
 2319SOL    HW3 9043   4.503   2.822   1.502 -1.0279  0.7514 -0.5814
 2319SOL    MW4 9044   4.427   2.797   1.536 -0.6485  0.4300  0.0570
 2320SOL     OW 9045   1.806   2.957   1.368 -0.3940 -0.0842 -0.2169
 2320SOL    HW2 9046   1.753   2.928   1.443  0.2453 -0.1901  0.1980
 2320SOL    HW3 9047   1.890   2.913   1.380  0.5018  1.6733  0.2646
 2320SOL    MW4 9048   1.810   2.947   1.380 -0.1915  0.1337 -0.0987
 2321SOL     OW 9049   2.527   2.260   5.046 -0.2563 -0.0337 -0.1842
 2321SOL    HW2 9050   2.581   2.329   5.007 -0.9812 -0.2049 -1.5476
 2321SOL    HW3 9051   2.587   2.214   5.105  0.3057  1.5789  0.5611
 2321SOL    MW4 9052   2.542   2.263   5.048 -0.2778  0.1565 -0.2657
 2322SOL     OW 9053   3.978   2.137   3.792  0.2880 -0.7931 -0.3315
 2322SOL    HW2 9054   4.033   2.196   3.843  0.3246 -0.5423 -0.6595
 2322SOL    HW3 9055   3.925   2.091   3.857  0.4190 -0.5629 -0.0611
 2322SOL    MW4 9056   3.979   2.139   3.808  0.3101 -0.7297 -0.3391
 2323SOL     OW 9057   1.802   5.567   5.580 -0.0260  0.3616  0.0817
 2323SOL    HW2 9058   1.887   5.524   5.580 -1.5612 -3.0630 -0.5012
 2323SOL    HW3 9059   1.797   5.610   5.494  0.9897  0.3325 -0.0009
 2323SOL    MW4 9060   1.812   5.567   5.568 -0.0946 -0.0941 -0.0061
 2324SOL     OW 9061   4.319   5.380   3.549  0.7933  0.4757  0.2166
 2324SOL    HW2 9062   4.226   5.399   3.558  1.0379  2.6166 -1.1707
 2324SOL    HW3 9063   4.342   5.335   3.631 -1.1146  1.2346  1.2430
 2324SOL    MW4 9064   4.310   5.376   3.561  0.5738  0.8583  0.1690
 2325SOL     OW 9065   5.622   5.093   2.920 -0.1635  0.6999 -0.4172
 2325SOL    HW2 9066   5.611   5.183   2.891  0.0830  0.4848 -1.1980
 2325SOL    HW3 9067   5.615   5.097   3.016 -0.9236  1.4275 -0.5009
 2325SOL    MW4 9068   5.620   5.105   2.929 -0.2313  0.7675 -0.5313
 2326SOL     OW 9069   5.131   3.343   3.628 -0.0456 -0.5379 -0.0185
 2326SOL    HW2 9070   5.095   3.257   3.605 -0.2140 -0.5876  0.4227
 2326SOL    HW3 9071   5.220   3.324   3.656 -0.0819 -0.5673  0.0762
 2326SOL    MW4 9072   5.138   3.329   3.629 -0.0726 -0.5483  0.0522
 2327SOL     OW 9073   3.257   2.804   0.725 -0.0635  0.1303  0.1150
 2327SOL    HW2 9074   3.215   2.889   0.712 -0.1827  0.1945  0.8780
 2327SOL    HW3 9075   3.187   2.747   0.757 -0.4111 -0.7518 -2.0067
 2327SOL    MW4 9076   3.242   2.808   0.727 -0.1251  0.0224 -0.0643
 2328SOL     OW 9077   2.863   5.824   5.566  0.4133 -0.3037  0.0570
 2328SOL    HW2 9078   2.957   5.831   5.552  0.5357 -0.7711  0.6168
 2328SOL    HW3 9079   2.838   5.905   5.610  0.9809 -1.1956  2.1182
 2328SOL    MW4 9080   2.872   5.836   5.570  0.5043 -0.4830  0.4028
 2329SOL     OW 9081   5.113   3.140   5.916  0.3431  0.0984 -0.5109
 2329SOL    HW2 9082   5.093   3.096   5.833 -1.4358  1.4153 -0.8427
 2329SOL    HW3 9083   5.045   3.207   5.925  1.5016  1.1320  1.1873
 2329SOL    MW4 9084   5.101   3.143   5.906  0.2612  0.4085 -0.3306
 2330SOL     OW 9085   4.410   2.244   2.956  0.3449 -0.6594  0.2205
 2330SOL    HW2 9086   4.459   2.241   2.874  0.3065 -1.3419  0.2193
 2330SOL    HW3 9087   4.440   2.168   3.005  0.7665  0.0516  1.0815
 2330SOL    MW4 9088   4.420   2.234   2.951  0.3954 -0.6556  0.3339
 2331SOL     OW 9089   6.098   5.028   4.584 -0.1226 -0.6187  0.1386
 2331SOL    HW2 9090   6.039   4.969   4.630  0.2771 -0.4263  0.9114
 2331SOL    HW3 9091   6.044   5.102   4.559 -0.0855 -0.1272  1.4394
 2331SOL    MW4 9092   6.083   5.030   4.586 -0.0650 -0.5284  0.4122
 2332SOL     OW 9093   0.606   3.807   4.082  0.0959 -0.0109 -0.5373
 2332SOL    HW2 9094   0.550   3.830   4.009  0.2754 -1.4615 -1.1783
 2332SOL    HW3 9095   0.646   3.724   4.056  0.8299 -0.1230  0.8387
 2332SOL    MW4 9096   0.604   3.799   4.069  0.2164 -0.2171 -0.4403
 2333SOL     OW 9097   1.882   0.658   5.151 -0.5068  0.2521  0.4631
 2333SOL    HW2 9098   1.941   0.590   5.183 -1.1346 -0.0720  0.9655
 2333SOL    HW3 9099   1.880   0.723   5.222  0.2121  0.8804 -0.0797
 2333SOL    MW4 9100   1.889   0.657   5.165 -0.4948  0.2922  0.4578
 2334SOL     OW 9101   5.511   5.759   5.348  0.0257  0.0664  0.2516
 2334SOL    HW2 9102   5.481   5.760   5.439  1.7045 -2.5343  0.9367
 2334SOL    HW3 9103   5.431   5.746   5.297 -1.0369  2.2027  1.2141
 2334SOL    MW4 9104   5.496   5.757   5.354  0.1070  0.0052  0.4690
 2335SOL     OW 9105   2.454   5.572   5.662  0.0489 -0.2386  0.0240
 2335SOL    HW2 9106   2.460   5.649   5.605 -0.6636  0.2938  0.6578
 2335SOL    HW3 9107   2.368   5.578   5.702  0.0695 -1.2617  0.2463
 2335SOL    MW4 9108   2.443   5.583   5.660 -0.0424 -0.3034  0.1370
 2336SOL     OW 9109   1.019   5.220   4.786  0.0654  0.4866  0.0367
 2336SOL    HW2 9110   1.030   5.268   4.869  0.9739  0.6652 -0.1711
 2336SOL    HW3 9111   1.016   5.288   4.719 -1.6847  0.4043 -0.0167
 2336SOL    MW4 9112   1.020   5.235   4.788 -0.0456  0.4993  0.0022
 2337SOL     OW 9113   1.490   4.114   0.660  0.3824  0.2736  0.0066
 2337SOL    HW2 9114   1.502   4.197   0.706  0.8050  0.5062 -0.5121
 2337SOL    HW3 9115   1.520   4.048   0.722  0.4838  0.5444  0.2493
 2337SOL    MW4 9116   1.496   4.117   0.674  0.4515  0.3400 -0.0298
 2338SOL     OW 9117   1.296   2.803   3.657  0.3083  0.2720  0.0476
 2338SOL    HW2 9118   1.368   2.852   3.618  1.5530 -1.3503  0.2559
 2338SOL    HW3 9119   1.290   2.836   3.747  0.4071  0.7866 -0.1304
 2338SOL    MW4 9120   1.304   2.814   3.664  0.4856  0.1258  0.0516
 2339SOL     OW 9121   4.841   1.861   2.152  0.7738 -0.0895  0.1878
 2339SOL    HW2 9122   4.919   1.844   2.099 -0.5467 -0.2622 -1.8526
 2339SOL    HW3 9123   4.814   1.949   2.126  0.5143  0.1408  1.2046
 2339SOL    MW4 9124   4.848   1.870   2.141  0.5653 -0.0819  0.0527
 2340SOL     OW 9125   4.216   3.494   6.034  0.8111 -0.3145 -0.1136
 2340SOL    HW2 9126   4.278   3.449   5.977  2.1283  2.1949 -0.8193
 2340SOL    HW3 9127   4.137   3.505   5.980  0.1730 -2.2944  0.3221
 2340SOL    MW4 9128   4.213   3.489   6.019  0.9007 -0.2446 -0.1492
 2341SOL     OW 9129   0.075   1.308   6.120  0.0576  0.1952  0.0543
 2341SOL    HW2 9130   0.122   1.317   6.037 -1.9889  2.3934 -1.0080
 2341SOL    HW3 9131   0.123   1.366   6.180 -1.1866  2.5233 -1.0513
 2341SOL    MW4 9132   0.088   1.317   6.117 -0.3766  0.7924 -0.2317
 2342SOL     OW 9133   4.786   2.771   3.285  0.4645 -0.3712  0.3919
 2342SOL    HW2 9134   4.878   2.797   3.283  0.1610  0.8291  0.9150
 2342SOL    HW3 9135   4.738   2.849   3.257 -0.3183 -1.6078 -1.9374
 2342SOL    MW4 9136   4.792   2.785   3.281  0.3212 -0.3760  0.1536
 2343SOL     OW 9137   1.916   3.417   2.867  0.8579 -0.7006 -0.4263
 2343SOL    HW2 9138   1.965   3.344   2.829  1.2216 -0.5042 -0.3446
 2343SOL    HW3 9139   1.967   3.494   2.843  0.6571 -0.5043 -0.2234
 2343SOL    MW4 9140   1.930   3.418   2.859  0.8794 -0.6488 -0.3887
 2344SOL     OW 9141   0.396   3.492   5.423 -0.5901  0.1404  0.0243
 2344SOL    HW2 9142   0.421   3.417   5.370  0.3337  0.0239  0.6049
 2344SOL    HW3 9143   0.314   3.523   5.383  0.3234  0.3796 -1.7885
 2344SOL    MW4 9144   0.389   3.486   5.411 -0.3477  0.1566 -0.1383
 2345SOL     OW 9145   4.517   1.702   4.157  0.2153 -0.8328 -0.4482
 2345SOL    HW2 9146   4.593   1.649   4.181  1.2816 -0.2738 -2.3450
 2345SOL    HW3 9147   4.481   1.731   4.240  2.4052 -0.6757  0.5268
 2345SOL    MW4 9148   4.523   1.699   4.171  0.6449 -0.7383 -0.5698
 2346SOL     OW 9149   0.771   2.112   2.087  0.4772 -0.5779  0.0392
 2346SOL    HW2 9150   0.805   2.178   2.147 -1.1537 -0.3973  0.8340
 2346SOL    HW3 9151   0.696   2.075   2.133  0.2370 -1.6639 -1.1827
 2346SOL    MW4 9152   0.765   2.116   2.101  0.2303 -0.6974 -0.0171
 2347SOL     OW 9153   2.563   5.517   2.646 -0.3118  0.4118 -0.7267
 2347SOL    HW2 9154   2.636   5.574   2.622  1.3986 -1.0891  0.6433
 2347SOL    HW3 9155   2.586   5.432   2.610  0.8540 -1.1652  3.1870
 2347SOL    MW4 9156   2.575   5.513   2.638  0.0677  0.0057 -0.0296
 2348SOL     OW 9157   5.286   6.140   1.002 -0.0368 -0.3531  0.2066
 2348SOL    HW2 9158   5.247   6.227   0.995 -0.3581 -0.3183  2.0340
 2348SOL    HW3 9159   5.349   6.146   1.074 -0.6110 -1.8009  0.8846
 2348SOL    MW4 9160   5.289   6.152   1.010 -0.1549 -0.5395  0.5372
 2349SOL     OW 9161   4.303   2.265   4.236  0.0804  0.1435  0.1179
 2349SOL    HW2 9162   4.381   2.270   4.290  0.2617  0.7453 -0.1934
 2349SOL    HW3 9163   4.232   2.250   4.298  0.4658 -0.6536  0.3779
 2349SOL    MW4 9164   4.304   2.264   4.251  0.1552  0.1177  0.1111
 2350SOL     OW 9165   2.181   0.678   1.160  0.1949  0.9541 -0.4861
 2350SOL    HW2 9166   2.165   0.661   1.067 -0.9957 -2.4199  0.2019
 2350SOL    HW3 9167   2.109   0.734   1.188 -0.3718  0.6252 -1.2601
 2350SOL    MW4 9168   2.170   0.683   1.152 -0.0370  0.4655 -0.4975
 2351SOL     OW 9169   6.117   2.891   2.746  0.2520 -0.1497 -0.2027
 2351SOL    HW2 9170   6.176   2.848   2.685 -0.7973 -0.4405 -1.0385
 2351SOL    HW3 9171   6.076   2.819   2.795 -0.3124 -0.0183 -0.4790
 2351SOL    MW4 9172   6.120   2.876   2.745  0.0391 -0.1707 -0.3494
 2352SOL     OW 9173   5.132   6.183   5.899  0.2804 -0.1066 -0.5810
 2352SOL    HW2 9174   5.043   6.154   5.874  0.8616 -1.3051 -1.3817
 2352SOL    HW3 9175   5.162   6.234   5.823 -0.1946  1.4638  0.2391
 2352SOL    MW4 9176   5.124   6.186   5.885  0.2944 -0.0576 -0.5785
 2353SOL     OW 9177   1.924   1.305   5.041  0.0544  0.0683  0.0061
 2353SOL    HW2 9178   1.916   1.304   5.136  1.3493  2.4079  0.1959
 2353SOL    HW3 9179   1.859   1.369   5.013  0.0537 -0.2158 -0.6557
 2353SOL    MW4 9180   1.914   1.313   5.050  0.2251  0.3395 -0.0562
 2354SOL     OW 9181   3.839   4.053   0.233 -0.5710 -0.4121  0.2587
 2354SOL    HW2 9182   3.800   4.139   0.216  1.8445  0.5836 -0.6411
 2354SOL    HW3 9183   3.818   4.001   0.155  0.9661  0.5426 -0.8256
 2354SOL    MW4 9184   3.831   4.057   0.221 -0.0495 -0.1548 -0.0030
 2355SOL     OW 9185   5.963   4.637   0.275 -0.3311  0.0872  0.5077
 2355SOL    HW2 9186   6.049   4.602   0.299 -0.1479 -0.6039 -1.0164
 2355SOL    HW3 9187   5.910   4.627   0.354  0.7915 -0.0785  1.2729
 2355SOL    MW4 9188   5.967   4.631   0.289 -0.1588 -0.0259  0.4076
 2356SOL     OW 9189   2.768   0.326   1.696 -0.0642 -0.1023  0.0683
 2356SOL    HW2 9190   2.861   0.326   1.718 -0.2701 -1.9372  1.0681
 2356SOL    HW3 9191   2.766   0.322   1.600  0.8365  1.6784 -0.0745
 2356SOL    MW4 9192   2.780   0.326   1.686  0.0275 -0.1094  0.1814
 2357SOL     OW 9193   3.169   5.152   4.339  0.3989  0.0266  0.0150
 2357SOL    HW2 9194   3.220   5.230   4.315 -1.1891  0.9396 -0.5140
 2357SOL    HW3 9195   3.234   5.092   4.376  1.4663  2.1662  1.8678
 2357SOL    MW4 9196   3.185   5.155   4.341  0.3302  0.4294  0.1897
 2358SOL     OW 9197   1.741   5.151   3.733  0.0583 -0.5803 -0.1750
 2358SOL    HW2 9198   1.715   5.227   3.785  2.2348  0.4770 -0.5364
 2358SOL    HW3 9199   1.800   5.102   3.790  0.2100 -0.9554 -0.6497
 2358SOL    MW4 9200   1.745   5.154   3.747  0.3654 -0.4903 -0.2853
 2359SOL     OW 9201   2.286   3.860   1.114  0.2650  0.3509 -0.4508
 2359SOL    HW2 9202   2.327   3.815   1.188 -0.5830  1.4132  0.7286
 2359SOL    HW3 9203   2.357   3.910   1.074  0.7324 -0.2122 -0.3450
 2359SOL    MW4 9204   2.301   3.860   1.119  0.2148  0.4168 -0.2812
 2360SOL     OW 9205   5.617   2.848   2.856  0.2869 -0.1204 -0.1305
 2360SOL    HW2 9206   5.567   2.840   2.776 -0.7221 -0.5867  0.5370
 2360SOL    HW3 9207   5.639   2.759   2.881 -1.1282 -0.1490  1.1620
 2360SOL    MW4 9208   5.614   2.835   2.849 -0.0329 -0.1857  0.1281
 2361SOL     OW 9209   5.888   0.260   3.243  0.7754 -0.5491 -0.1709
 2361SOL    HW2 9210   5.900   0.167   3.259  0.8311 -0.2644  1.5798
 2361SOL    HW3 9211   5.849   0.264   3.156  1.5010 -2.1515 -0.6125
 2361SOL    MW4 9212   5.885   0.249   3.233  0.8785 -0.7229  0.0019
 2362SOL     OW 9213   2.355   6.389   2.514  0.2073  0.2991  0.5320
 2362SOL    HW2 9214   2.415   6.462   2.497 -0.4322  0.5817 -0.5372
 2362SOL    HW3 9215   2.307   6.416   2.592  0.4274  0.7244  0.5244
 2362SOL    MW4 9216   2.357   6.402   2.522  0.1520  0.3925  0.3899
 2363SOL     OW 9217   0.768   2.170   1.037  0.1508  0.3840 -0.1083
 2363SOL    HW2 9218   0.721   2.142   0.959 -1.5145  0.0646  0.9500
 2363SOL    HW3 9219   0.713   2.239   1.074  0.5698  0.0848  1.1069
 2363SOL    MW4 9220   0.754   2.176   1.032 -0.0136  0.3024  0.1917
 2364SOL     OW 9221   5.043   4.691   1.035 -0.0253  0.4895  0.3068
 2364SOL    HW2 9222   5.086   4.771   1.065  0.6376  0.6904 -1.0983
 2364SOL    HW3 9223   5.028   4.640   1.115  1.3912  1.1252  1.0046
 2364SOL    MW4 9224   5.047   4.695   1.049  0.2490  0.5999  0.2135
 2365SOL     OW 9225   0.616   3.860   4.906 -0.0934  0.1824 -0.3023
 2365SOL    HW2 9226   0.578   3.947   4.923 -2.3646 -0.6768 -0.6566
 2365SOL    HW3 9227   0.552   3.799   4.942  1.4796 -1.3747 -0.0492
 2365SOL    MW4 9228   0.603   3.864   4.913 -0.1855 -0.1364 -0.3156
 2366SOL     OW 9229   5.231   1.560   3.221 -0.2138  0.0537 -0.0815
 2366SOL    HW2 9230   5.196   1.510   3.295  2.2989  1.1481  1.9924
 2366SOL    HW3 9231   5.308   1.510   3.193  0.7735  1.3647  0.2437
 2366SOL    MW4 9232   5.237   1.547   3.227  0.2479  0.3711  0.2350
 2367SOL     OW 9233   1.359   0.464   5.852 -0.6894 -0.0626 -0.2172
 2367SOL    HW2 9234   1.307   0.544   5.863  0.2099  0.3401  1.5507
 2367SOL    HW3 9235   1.393   0.470   5.763 -2.1547  0.5612 -0.7804
 2367SOL    MW4 9236   1.356   0.476   5.842 -0.7641  0.0728 -0.0583
 2368SOL     OW 9237   4.552   0.524   2.930 -0.4626  0.1904 -0.3910
 2368SOL    HW2 9238   4.484   0.493   2.872  0.7388 -1.6823 -0.8689
 2368SOL    HW3 9239   4.611   0.574   2.873  0.3161 -1.0146 -0.6690
 2368SOL    MW4 9240   4.551   0.527   2.915 -0.2013 -0.2157 -0.4907
 2369SOL     OW 9241   4.092   1.405   1.261 -0.2623 -0.8422 -0.3920
 2369SOL    HW2 9242   4.022   1.464   1.287 -0.8857 -0.7774 -2.1115
 2369SOL    HW3 9243   4.147   1.397   1.339 -0.6826  1.2341  0.1642
 2369SOL    MW4 9244   4.090   1.411   1.275 -0.4000 -0.5597 -0.5455
 2370SOL     OW 9245   1.774   5.490   1.047 -0.0689 -0.0204 -0.3881
 2370SOL    HW2 9246   1.680   5.506   1.061 -0.0430  1.3739 -1.6007
 2370SOL    HW3 9247   1.776   5.412   0.991 -0.6658  1.2576 -2.3088
 2370SOL    MW4 9248   1.762   5.482   1.041 -0.1442  0.3321 -0.8015
 2371SOL     OW 9249   0.144   2.482   2.560  0.0271  0.3708  0.4765
 2371SOL    HW2 9250   0.108   2.394   2.552 -1.0228  0.8366 -0.0900
 2371SOL    HW3 9251   0.148   2.515   2.471 -0.6747  1.3115  0.7798
 2371SOL    MW4 9252   0.140   2.475   2.548 -0.2040  0.5564  0.4418
 2372SOL     OW 9253   1.094   0.015   0.326 -0.2642  0.9100  0.1472
 2372SOL    HW2 9254   1.060   0.044   0.242  1.1206  1.4857 -0.2415
 2372SOL    HW3 9255   1.166   0.075   0.345  2.0358 -1.5421 -0.1985
 2372SOL    MW4 9256   1.099   0.026   0.317  0.2219  0.6624  0.0503
 2373SOL     OW 9257   3.779   5.629   4.862 -0.1142  0.0084  0.2096
 2373SOL    HW2 9258   3.735   5.624   4.777 -1.9514  2.1007  0.9625
 2373SOL    HW3 9259   3.817   5.717   4.864 -1.1514  0.4488  2.0138
 2373SOL    MW4 9260   3.778   5.640   4.851 -0.4934  0.3426  0.5469
 2374SOL     OW 9261   0.059   3.260   0.090 -0.7667  0.0080 -0.1338
 2374SOL    HW2 9262  -0.020   3.245   0.141  0.1079  1.7538  1.8825
 2374SOL    HW3 9263   0.119   3.190   0.117 -0.2629  0.9995  1.3968
 2374SOL    MW4 9264   0.057   3.249   0.100 -0.5849  0.3692  0.3342
 2375SOL     OW 9265   5.182   1.360   2.201  0.6861  0.0423  0.0087
 2375SOL    HW2 9266   5.122   1.298   2.159  0.0131  1.0059 -0.4690
 2375SOL    HW3 9267   5.263   1.351   2.151 -0.1775  1.3447 -1.6955
 2375SOL    MW4 9268   5.185   1.350   2.189  0.4834  0.3413 -0.2792
 2376SOL     OW 9269   1.136   0.259   2.840  0.2218  0.1617  0.0173
 2376SOL    HW2 9270   1.135   0.351   2.811 -1.8585 -0.4494 -2.2249
 2376SOL    HW3 9271   1.051   0.247   2.882 -0.4888 -1.2300 -1.6834
 2376SOL    MW4 9272   1.124   0.270   2.842 -0.1464 -0.1025 -0.5029
 2377SOL     OW 9273   0.991   4.670   5.681  0.1440  0.2604  0.1375
 2377SOL    HW2 9274   0.930   4.647   5.611  0.5566  1.8192 -0.8025
 2377SOL    HW3 9275   0.935   4.693   5.755 -0.4347  1.3793 -0.6151
 2377SOL    MW4 9276   0.975   4.670   5.682  0.1221  0.6137 -0.0858
 2378SOL     OW 9277   2.023   1.943   2.418 -0.0822 -0.3504 -0.2211
 2378SOL    HW2 9278   2.042   1.850   2.412  0.6394 -0.1188 -2.8042
 2378SOL    HW3 9279   2.102   1.982   2.455 -0.3653 -0.7202  0.8078
 2378SOL    MW4 9280   2.036   1.936   2.422 -0.0243 -0.3687 -0.4262
 2379SOL     OW 9281   0.879   1.224   0.723 -0.2251  0.5772 -0.1834
 2379SOL    HW2 9282   0.815   1.296   0.726 -0.1179  0.6591  0.3253
 2379SOL    HW3 9283   0.964   1.268   0.720 -0.2021  0.4753 -1.8554
 2379SOL    MW4 9284   0.882   1.239   0.723 -0.2079  0.5746 -0.3369
 2380SOL     OW 9285   1.505   2.909   0.562  0.2350 -0.0187 -0.1079
 2380SOL    HW2 9286   1.560   2.853   0.508  1.4721  0.8579  0.1847
 2380SOL    HW3 9287   1.538   2.897   0.651 -0.4538  0.0754  0.1716
 2380SOL    MW4 9288   1.516   2.900   0.567  0.3073  0.1094 -0.0324
 2381SOL     OW 9289   5.620   2.474   0.812  0.0168  0.5280 -0.0807
 2381SOL    HW2 9290   5.710   2.489   0.783 -0.1050  1.0158 -0.2137
 2381SOL    HW3 9291   5.575   2.443   0.734 -0.2052  1.4115 -0.3124
 2381SOL    MW4 9292   5.626   2.472   0.798 -0.0286  0.7089 -0.1288
 2382SOL     OW 9293   2.255   1.759   3.082  0.3820  0.3517 -0.2895
 2382SOL    HW2 9294   2.283   1.740   3.171 -1.0960 -0.3227  0.0693
 2382SOL    HW3 9295   2.160   1.747   3.084  0.0002  2.6126 -1.3862
 2382SOL    MW4 9296   2.246   1.755   3.094  0.1366  0.5610 -0.3868
 2383SOL     OW 9297   0.892   0.173   3.618  0.5013  0.2328 -0.1366
 2383SOL    HW2 9298   0.805   0.201   3.588  1.5410  2.5415 -1.1830
 2383SOL    HW3 9299   0.878   0.147   3.709 -0.8933  2.8667  0.5045
 2383SOL    MW4 9300   0.879   0.173   3.626  0.4545  0.8850 -0.1901
 2384SOL     OW 9301   3.673   6.053   2.105 -0.0199 -0.0445  0.3692
 2384SOL    HW2 9302   3.618   6.126   2.133 -0.1724 -0.5927  1.5380
 2384SOL    HW3 9303   3.757   6.067   2.150 -0.8966 -2.0087  2.8557
 2384SOL    MW4 9304   3.677   6.064   2.114 -0.1557 -0.3760  0.8515
 2385SOL     OW 9305   3.765   6.407   5.311 -0.1561  0.0188 -0.1491
 2385SOL    HW2 9306   3.752   6.499   5.333  0.8391  0.7755 -2.4442
 2385SOL    HW3 9307   3.714   6.394   5.231  0.2300 -1.2743 -0.2072
 2385SOL    MW4 9308   3.756   6.417   5.303  0.0261 -0.0520 -0.4596
 2386SOL     OW 9309   1.078   3.605   2.353  0.4055 -0.1448  0.1836
 2386SOL    HW2 9310   1.037   3.527   2.316  1.3702 -0.0632 -1.0970
 2386SOL    HW3 9311   1.134   3.572   2.424  0.9329 -0.6395 -0.4537
 2386SOL    MW4 9312   1.080   3.590   2.358  0.6024 -0.1993 -0.0694
 2387SOL     OW 9313   5.376   1.940   0.903 -0.2893 -0.3599  0.2198
 2387SOL    HW2 9314   5.295   1.890   0.891 -0.0901 -0.6371  0.0104
 2387SOL    HW3 9315   5.365   2.016   0.847 -0.8734  0.1812  1.0395
 2387SOL    MW4 9316   5.364   1.943   0.894 -0.3401 -0.3251  0.3004
 2388SOL     OW 9317   0.246   4.923   6.277  0.5127  0.2184 -0.6738
 2388SOL    HW2 9318   0.160   4.923   6.236  0.0042 -0.5843  0.3370
 2388SOL    HW3 9319   0.251   4.839   6.322  0.5960  1.4006  1.7330
 2388SOL    MW4 9320   0.235   4.912   6.278  0.4566  0.2685 -0.2229
 2389SOL     OW 9321   2.605   3.203   1.753 -0.4912 -0.1209 -0.0109
 2389SOL    HW2 9322   2.562   3.242   1.828  0.4578  2.0616 -0.5220
 2389SOL    HW3 9323   2.667   3.270   1.723  1.6642 -2.2407 -0.6254
 2389SOL    MW4 9324   2.608   3.217   1.759 -0.0816 -0.1126 -0.1594
 2390SOL     OW 9325   1.784   1.469   6.368 -0.2218  0.3740  0.8321
 2390SOL    HW2 9326   1.778   1.375   6.349  0.9941  0.4406  0.0131
 2390SOL    HW3 9327   1.698   1.491   6.403 -0.8430 -0.8552  0.1779
 2390SOL    MW4 9328   1.772   1.459   6.370 -0.1433  0.2206  0.6377
 2391SOL     OW 9329   4.142   3.691   0.893 -0.5065  0.5039  0.0208
 2391SOL    HW2 9330   4.069   3.745   0.924  0.3506  1.5313  0.3250
 2391SOL    HW3 9331   4.170   3.641   0.970  0.7909  2.0982  0.6542
 2391SOL    MW4 9332   4.136   3.692   0.907 -0.2223  0.8498  0.1445
 2392SOL     OW 9333   0.313   5.686   4.765  0.1100  0.0338  0.2192
 2392SOL    HW2 9334   0.335   5.773   4.731 -2.1194  0.1727 -1.0786
 2392SOL    HW3 9335   0.359   5.625   4.707 -0.6949  0.3409 -0.7713
 2392SOL    MW4 9336   0.322   5.689   4.752 -0.2904  0.0927 -0.0827
 2393SOL     OW 9337   6.215   3.058   0.582  0.5805  0.1324 -0.0263
 2393SOL    HW2 9338   6.192   3.007   0.504 -0.9159 -1.5402  1.4252
 2393SOL    HW3 9339   6.172   3.143   0.568  0.8587  0.0882 -1.2835
 2393SOL    MW4 9340   6.206   3.063   0.570  0.4198 -0.0941 -0.0007
 2394SOL     OW 9341   4.764   3.216   0.208  0.6089 -0.0493 -0.6132
 2394SOL    HW2 9342   4.714   3.281   0.257  2.0830  0.0713  0.8071
 2394SOL    HW3 9343   4.833   3.266   0.165  1.5110 -0.6097  0.1577
 2394SOL    MW4 9344   4.766   3.231   0.209  0.9224 -0.1074 -0.3241
 2395SOL     OW 9345   4.700   6.003   0.923 -0.3228 -0.4994  1.0326
 2395SOL    HW2 9346   4.758   5.975   0.852  0.1978  1.8582  0.4538
 2395SOL    HW3 9347   4.621   6.034   0.879 -1.1862 -1.6572  1.6991
 2395SOL    MW4 9348   4.697   6.003   0.908 -0.3680 -0.3411  1.0442
 2396SOL     OW 9349   0.258   4.539   6.056 -0.4463  0.1549 -0.3462
 2396SOL    HW2 9350   0.236   4.449   6.036 -1.0776 -0.2772  2.0195
 2396SOL    HW3 9351   0.192   4.567   6.119  1.4169  1.2669  1.2368
 2396SOL    MW4 9352   0.246   4.531   6.062 -0.2838  0.2446  0.1747
 2397SOL     OW 9353   1.439   4.653   3.246 -0.0070  0.6129 -0.2594
 2397SOL    HW2 9354   1.433   4.601   3.326 -0.3245  1.8342  0.5379
 2397SOL    HW3 9355   1.461   4.589   3.177  0.1948 -0.4661  0.7742
 2397SOL    MW4 9356   1.441   4.637   3.247 -0.0223  0.6317 -0.0178
 2398SOL     OW 9357   3.663   4.240  -0.019 -0.0773  0.1325  0.0236
 2398SOL    HW2 9358   3.599   4.307  -0.044 -0.3257 -0.3430 -0.6640
 2398SOL    HW3 9359   3.712   4.279   0.053  0.1575  1.2719 -0.7237
 2398SOL    MW4 9360   3.661   4.254  -0.013 -0.0791  0.2201 -0.1657
 2399SOL     OW 9361   1.665   3.946   1.537  0.1865  0.4920  0.1418
 2399SOL    HW2 9362   1.738   3.979   1.484  1.4225 -1.7937  0.2919
 2399SOL    HW3 9363   1.687   3.974   1.626  1.0458 -0.3577  0.2188
 2399SOL    MW4 9364   1.678   3.954   1.542  0.4629  0.0784  0.1718
 2400SOL     OW 9365   3.423   4.945   3.587 -0.2458  0.0340 -0.3137
 2400SOL    HW2 9366   3.437   4.941   3.492 -0.8136  0.4927 -0.4200
 2400SOL    HW3 9367   3.401   5.036   3.604 -0.6632 -0.1571  0.1888
 2400SOL    MW4 9368   3.422   4.956   3.577 -0.3758  0.0693 -0.2615
 2401SOL     OW 9369   4.202   1.683   0.974 -0.3516  0.8974 -0.1452
 2401SOL    HW2 9370   4.129   1.621   0.974 -0.0821  0.5662 -1.4238
 2401SOL    HW3 9371   4.225   1.694   0.882  1.4228  0.7577  0.2525
 2401SOL    MW4 9372   4.196   1.677   0.962 -0.0819  0.8352 -0.2614
 2402SOL     OW 9373   1.040   4.897   5.057  0.3439 -0.1799  0.2801
 2402SOL    HW2 9374   0.964   4.954   5.074 -1.0385 -2.0635  0.8181
 2402SOL    HW3 9375   1.114   4.942   5.097 -0.6451  1.3510  0.4546
 2402SOL    MW4 9376   1.039   4.910   5.065  0.0310 -0.2264  0.3741
 2403SOL     OW 9377   4.444   4.750   3.060 -0.2591  0.2880  0.2719
 2403SOL    HW2 9378   4.491   4.771   2.979  1.2696 -1.5518  0.5891
 2403SOL    HW3 9379   4.472   4.818   3.122 -0.7071  1.1694 -0.4653
 2403SOL    MW4 9380   4.454   4.762   3.058 -0.1166  0.1615  0.2165
 2404SOL     OW 9381   3.920   3.087   0.596  0.1160 -0.3569  0.4052
 2404SOL    HW2 9382   3.983   3.152   0.564 -1.0363 -0.5260 -2.5347
 2404SOL    HW3 9383   3.835   3.129   0.585 -0.5185 -1.5740  0.4797
 2404SOL    MW4 9384   3.917   3.101   0.590 -0.1198 -0.5398  0.0271
 2405SOL     OW 9385   0.451   5.715   2.200  0.0453  0.1254  0.2092
 2405SOL    HW2 9386   0.412   5.766   2.130 -3.1584 -1.9916  0.2319
 2405SOL    HW3 9387   0.460   5.627   2.163 -0.4983 -0.7358  2.0124
 2405SOL    MW4 9388   0.447   5.710   2.186 -0.4491 -0.2675  0.4501
 2406SOL     OW 9389   4.473   1.732   4.752  0.3850  0.4665  0.0901
 2406SOL    HW2 9390   4.396   1.679   4.771  0.7948 -0.6308 -1.1278
 2406SOL    HW3 9391   4.507   1.757   4.838 -0.3274 -0.5168  0.6726
 2406SOL    MW4 9392   4.468   1.728   4.766  0.3451  0.1920  0.0062
 2407SOL     OW 9393   3.063   0.104   6.126 -0.4850  0.4011  0.2941
 2407SOL    HW2 9394   3.127   0.175   6.120 -0.0791  0.0520  0.4368
 2407SOL    HW3 9395   3.024   0.114   6.213  1.1485 -0.8570  1.2353
 2407SOL    MW4 9396   3.067   0.114   6.137 -0.2159  0.1891  0.4371
 2408SOL     OW 9397   1.844   2.657   0.763  0.0936 -0.0110 -0.0139
 2408SOL    HW2 9398   1.929   2.656   0.805  0.5874  0.2721 -0.9730
 2408SOL    HW3 9399   1.789   2.600   0.817  0.7508  0.1939  0.8787
 2408SOL    MW4 9400   1.848   2.649   0.775  0.2455  0.0534 -0.0227
 2409SOL     OW 9401   0.181   5.127   2.511  0.0517  0.5478  0.1254
 2409SOL    HW2 9402   0.162   5.037   2.539  0.8971  0.7324  1.3674
 2409SOL    HW3 9403   0.096   5.164   2.489 -0.3200 -0.5202 -0.3153
 2409SOL    MW4 9404   0.167   5.120   2.512  0.1142  0.4313  0.2311
 2410SOL     OW 9405   6.101   0.104   5.854  0.1159 -0.8008 -0.1033
 2410SOL    HW2 9406   6.196   0.101   5.846  0.0243 -1.0762 -1.3163
 2410SOL    HW3 9407   6.072   0.017   5.828 -0.4602 -0.7836  0.4687
 2410SOL    MW4 9408   6.110   0.092   5.849  0.0278 -0.8349 -0.1879
 2411SOL     OW 9409   3.026   1.010   4.917  0.4117  0.0100  0.2641
 2411SOL    HW2 9410   2.957   0.972   4.862 -1.2173  1.0700  1.4588
 2411SOL    HW3 9411   3.004   0.981   5.005  1.2114  0.7904  0.7350
 2411SOL    MW4 9412   3.014   1.001   4.921  0.3023  0.2528  0.4839
 2412SOL     OW 9413   2.193   6.126   0.094  0.0949  0.5577 -0.2422
 2412SOL    HW2 9414   2.197   6.132   0.190  0.7103 -0.0011 -0.2260
 2412SOL    HW3 9415   2.203   6.216   0.064 -1.6209  0.9452  0.2547
 2412SOL    MW4 9416   2.195   6.138   0.103 -0.0503  0.5351 -0.1745
 2413SOL     OW 9417   1.934   4.396   0.539  0.2907  0.0231 -0.5483
 2413SOL    HW2 9418   2.001   4.452   0.576  1.1633 -1.2602 -0.1414
 2413SOL    HW3 9419   1.854   4.419   0.587  0.1875  2.1355 -1.5855
 2413SOL    MW4 9420   1.932   4.407   0.550  0.3922  0.1325 -0.6314
 2414SOL     OW 9421   4.061   1.402   6.073 -0.8107 -0.2943 -0.0577
 2414SOL    HW2 9422   4.029   1.319   6.039 -1.4007  0.2453 -0.8751
 2414SOL    HW3 9423   3.984   1.441   6.116 -0.6936  0.0907 -0.1960
 2414SOL    MW4 9424   4.046   1.396   6.075 -0.8731 -0.1723 -0.1838
 2415SOL     OW 9425   3.889   5.406   4.987  0.8990 -0.3779 -0.2172
 2415SOL    HW2 9426   3.870   5.493   4.950  0.5621 -0.9428 -1.4325
 2415SOL    HW3 9427   3.895   5.421   5.081 -0.2834  0.7595 -0.2969
 2415SOL    MW4 9428   3.888   5.420   4.994  0.6986 -0.3024 -0.3881
 2416SOL     OW 9429   2.802   2.625   3.051 -0.3745 -0.2437  0.0738
 2416SOL    HW2 9430   2.753   2.561   3.102  0.6762 -1.3013 -0.2019
 2416SOL    HW3 9431   2.735   2.673   3.002 -1.1082 -2.7636 -1.6040
 2416SOL    MW4 9432   2.787   2.623   3.051 -0.3327 -0.7157 -0.1839
 2417SOL     OW 9433   1.464   3.460   1.105 -0.0168 -0.7870 -0.3295
 2417SOL    HW2 9434   1.369   3.474   1.102 -0.0089 -0.1548  1.2168
 2417SOL    HW3 9435   1.489   3.491   1.192  1.5799 -1.1736 -0.6322
 2417SOL    MW4 9436   1.454   3.466   1.116  0.1949 -0.7546 -0.1654
 2418SOL     OW 9437   4.953   3.637   3.028 -0.1064 -0.0353  0.1710
 2418SOL    HW2 9438   4.984   3.591   2.950 -1.2107  0.7683 -0.7555
 2418SOL    HW3 9439   4.927   3.566   3.088  1.5939 -0.6793  0.2013
 2418SOL    MW4 9440   4.954   3.621   3.026 -0.0277 -0.0142  0.0527
 2419SOL     OW 9441   2.472   5.827   4.738  0.2804  0.8711 -1.2677
 2419SOL    HW2 9442   2.446   5.737   4.718 -0.1117  0.4093  1.0055
 2419SOL    HW3 9443   2.399   5.881   4.707 -0.4022  0.2084 -0.8377
 2419SOL    MW4 9444   2.459   5.822   4.731  0.1386  0.7227 -0.9111
 2420SOL     OW 9445   4.022   4.150   0.801 -0.0293 -0.3111  0.0108
 2420SOL    HW2 9446   4.063   4.187   0.879  0.1665  0.6897 -0.5447
 2420SOL    HW3 9447   4.080   4.078   0.775  1.4091  1.0527 -0.7373
 2420SOL    MW4 9448   4.035   4.145   0.808  0.1864  0.0009 -0.1612
 2421SOL     OW 9449   3.908   5.988   5.387  0.0603 -0.0497 -0.2623
 2421SOL    HW2 9450   3.908   5.995   5.483 -1.2694 -0.6582 -0.1942
 2421SOL    HW3 9451   3.994   5.953   5.365  0.0853 -0.6821  0.7867
 2421SOL    MW4 9452   3.919   5.985   5.397 -0.1118 -0.2134 -0.1149
 2422SOL     OW 9453   0.084   2.108   3.283  0.1190 -0.7963 -0.4506
 2422SOL    HW2 9454   0.150   2.053   3.327 -1.3174 -1.6641  0.6945
 2422SOL    HW3 9455   0.033   2.047   3.231  0.0030 -0.1681 -1.0867
 2422SOL    MW4 9456   0.086   2.093   3.282 -0.0858 -0.8279 -0.3834
 2423SOL     OW 9457   4.657   0.235   0.395 -0.5730 -0.1173 -0.3269
 2423SOL    HW2 9458   4.720   0.203   0.460 -0.7606 -0.2124 -0.1909
 2423SOL    HW3 9459   4.572   0.214   0.432 -0.7038  0.6468 -0.1810
 2423SOL    MW4 9460   4.654   0.228   0.409 -0.6150 -0.0291 -0.2897
 2424SOL     OW 9461   0.764   6.178   2.964 -0.1234  0.3205 -0.4322
 2424SOL    HW2 9462   0.808   6.164   3.047  2.8162  1.3310 -1.6618
 2424SOL    HW3 9463   0.716   6.260   2.976 -0.9902 -0.3275  0.6836
 2424SOL    MW4 9464   0.764   6.187   2.976  0.1501  0.3683 -0.4472
 2425SOL     OW 9465   5.186   2.417   2.553 -0.0277  0.0466  0.2904
 2425SOL    HW2 9466   5.237   2.365   2.615 -0.4263 -1.4996 -0.6374
 2425SOL    HW3 9467   5.247   2.486   2.524  0.8662 -0.5474  0.7368
 2425SOL    MW4 9468   5.201   2.420   2.557  0.0377 -0.2358  0.2269
 2426SOL     OW 9469   1.694   2.422   0.514 -0.5101  0.3311  0.0534
 2426SOL    HW2 9470   1.751   2.498   0.498 -1.5075  0.9687 -0.5527
 2426SOL    HW3 9471   1.746   2.366   0.572  0.4608  1.2195  0.0833
 2426SOL    MW4 9472   1.708   2.425   0.520 -0.5136  0.5324 -0.0226
 2427SOL     OW 9473   0.448   1.725   4.870  0.1839  0.0354  0.4759
 2427SOL    HW2 9474   0.370   1.755   4.916 -0.9885 -1.2774 -0.5486
 2427SOL    HW3 9475   0.521   1.760   4.921 -1.0529 -0.0701  2.4242
 2427SOL    MW4 9476   0.448   1.733   4.883 -0.1340 -0.1517  0.5978
 2428SOL     OW 9477   2.882   5.284   2.062 -0.6438  0.0334 -0.1522
 2428SOL    HW2 9478   2.900   5.287   1.968 -0.7388  1.6147 -0.1384
 2428SOL    HW3 9479   2.966   5.260   2.102 -0.0868  1.2746 -0.5200
 2428SOL    MW4 9480   2.895   5.281   2.054 -0.5828  0.4058 -0.1989
 2429SOL     OW 9481   4.330   1.384   5.847 -0.6026 -0.2376  0.4669
 2429SOL    HW2 9482   4.384   1.403   5.771 -2.0860 -0.0817 -0.5815
 2429SOL    HW3 9483   4.250   1.434   5.833 -1.3402 -1.0525  1.5989
 2429SOL    MW4 9484   4.327   1.393   5.835 -0.8957 -0.3246  0.4780
 2430SOL     OW 9485   3.890   3.284   1.001 -0.1274 -0.1404  0.0556
 2430SOL    HW2 9486   3.839   3.316   0.927  0.1386  0.6920  0.2167
 2430SOL    HW3 9487   3.832   3.223   1.047 -0.4083 -0.4056 -0.6447
 2430SOL    MW4 9488   3.876   3.280   0.997 -0.1294 -0.0655 -0.0156
 2431SOL     OW 9489   2.639   0.202   0.604  0.2987  0.8676  0.0369
 2431SOL    HW2 9490   2.661   0.140   0.535 -0.2973  0.8341 -0.1287
 2431SOL    HW3 9491   2.722   0.218   0.650  0.2764 -0.8118  0.7286
 2431SOL    MW4 9492   2.653   0.196   0.601  0.2171  0.6416  0.1063
 2432SOL     OW 9493   6.247   2.001   5.955  0.3048 -0.5450 -0.4131
 2432SOL    HW2 9494   6.297   2.000   6.036 -0.7766  0.3016  0.2857
 2432SOL    HW3 9495   6.238   1.909   5.931 -0.2414 -0.8745  0.9871
 2432SOL    MW4 9496   6.252   1.989   5.962  0.0900 -0.4768 -0.1361
 2433SOL     OW 9497   0.568   3.226   1.550  0.2036  0.2931 -0.2236
 2433SOL    HW2 9498   0.625   3.184   1.615 -0.0624  0.2846  0.0056
 2433SOL    HW3 9499   0.520   3.153   1.511  0.7565  0.2401 -0.8173
 2433SOL    MW4 9500   0.569   3.211   1.554  0.2415  0.2850 -0.2717
 2434SOL     OW 9501   3.488   4.507   4.898 -0.0745  1.1396  0.2961
 2434SOL    HW2 9502   3.466   4.556   4.819  1.5675 -0.0232 -0.9665
 2434SOL    HW3 9503   3.404   4.495   4.943 -1.0125  2.0974 -1.1141
 2434SOL    MW4 9504   3.474   4.512   4.893  0.0184  1.1125 -0.0565
 2435SOL     OW 9505   2.061   1.247   3.549 -0.7755 -0.2867  0.5397
 2435SOL    HW2 9506   2.138   1.251   3.605 -0.4588 -1.1923  0.1987
 2435SOL    HW3 9507   1.991   1.289   3.600 -0.4326 -0.8638  1.5110
 2435SOL    MW4 9508   2.062   1.253   3.563 -0.6885 -0.4823  0.6229
 2436SOL     OW 9509   1.538   2.584   3.715 -0.2122  0.1924 -0.0324
 2436SOL    HW2 9510   1.463   2.555   3.664 -0.3752  1.4548 -0.5415
 2436SOL    HW3 9511   1.500   2.639   3.784  0.1707  0.0858  0.2688
 2436SOL    MW4 9512   1.523   2.588   3.718 -0.1832  0.3449 -0.0598
 2437SOL     OW 9513   2.022   1.413   1.077 -0.2100 -0.1633 -0.6788
 2437SOL    HW2 9514   2.009   1.336   1.132  0.5184  0.9735  1.1779
 2437SOL    HW3 9515   1.943   1.416   1.022 -0.9241 -1.4149  0.2138
 2437SOL    MW4 9516   2.010   1.403   1.077 -0.2081 -0.1785 -0.3161
 2438SOL     OW 9517   5.651   1.373   1.338  0.3464 -0.0941 -0.3281
 2438SOL    HW2 9518   5.668   1.466   1.329 -0.0509  0.2699  2.0655
 2438SOL    HW3 9519   5.578   1.367   1.399  0.3899 -1.9697 -0.3803
 2438SOL    MW4 9520   5.644   1.384   1.345  0.2997 -0.2936 -0.0192
 2439SOL     OW 9521   2.925   4.300   5.143 -0.4066  0.2269 -0.4108
 2439SOL    HW2 9522   2.831   4.287   5.160 -0.5505  0.6628 -0.8572
 2439SOL    HW3 9523   2.948   4.230   5.082 -0.3433 -0.1322  0.0198
 2439SOL    MW4 9524   2.916   4.289   5.137 -0.4172  0.2370 -0.4129
 2440SOL     OW 9525   1.499   1.127   0.704  0.6623 -0.0707 -0.4011
 2440SOL    HW2 9526   1.433   1.131   0.772  0.9347 -1.0000 -0.0683
 2440SOL    HW3 9527   1.496   1.037   0.672 -0.8393  0.7788 -3.0227
 2440SOL    MW4 9528   1.490   1.116   0.709  0.5001 -0.0813 -0.7031
 2441SOL     OW 9529   0.956   5.650   2.860  0.2419  0.0831 -0.6582
 2441SOL    HW2 9530   1.040   5.627   2.820 -0.6736 -1.1236 -2.0415
 2441SOL    HW3 9531   0.939   5.579   2.922  1.2269  1.4753  1.2767
 2441SOL    MW4 9532   0.965   5.638   2.863  0.2510  0.1076 -0.5854
 2442SOL     OW 9533   1.897   6.127   1.186  0.4906 -0.2364 -0.2640
 2442SOL    HW2 9534   1.911   6.209   1.234 -0.3567  0.7420 -1.6281
 2442SOL    HW3 9535   1.966   6.126   1.120  0.6529 -0.7688 -0.0922
 2442SOL    MW4 9536   1.908   6.138   1.184  0.4002 -0.1776 -0.4213
 2443SOL     OW 9537   3.907   3.511   0.579  0.2628 -0.1683  0.3054
 2443SOL    HW2 9538   3.998   3.484   0.592 -0.7089 -2.6137  2.8583
 2443SOL    HW3 9539   3.902   3.597   0.623  1.1290 -0.4760  1.0515
 2443SOL    MW4 9540   3.918   3.519   0.587  0.2489 -0.5315  0.7407
 2444SOL     OW 9541   1.542   5.783   1.824 -0.2229 -0.9719 -0.2249
 2444SOL    HW2 9542   1.496   5.765   1.742 -1.4246 -1.5888  0.5705
 2444SOL    HW3 9543   1.556   5.697   1.863  0.4279 -0.6890  0.1867
 2444SOL    MW4 9544   1.538   5.769   1.818 -0.2956 -1.0159 -0.0657
 2445SOL     OW 9545   2.207   2.564   4.819 -0.2111 -0.0435 -0.4947
 2445SOL    HW2 9546   2.240   2.652   4.801 -0.3772  0.1008 -0.0942
 2445SOL    HW3 9547   2.235   2.512   4.743 -0.5676  0.4679 -0.9827
 2445SOL    MW4 9548   2.215   2.569   4.806 -0.2800  0.0430 -0.5063
 2446SOL     OW 9549   0.770   2.819   3.181  0.2260  0.9317  0.1513
 2446SOL    HW2 9550   0.688   2.844   3.139  0.1869  2.0561  0.8607
 2446SOL    HW3 9551   0.829   2.798   3.109 -0.0482  2.1465 -0.4422
 2446SOL    MW4 9552   0.767   2.820   3.166  0.1847  1.2403  0.1666
 2447SOL     OW 9553   5.465   3.496   3.017  0.6834  0.8528 -0.4479
 2447SOL    HW2 9554   5.414   3.538   3.086 -0.3749  0.9787 -1.2718
 2447SOL    HW3 9555   5.477   3.564   2.951  0.7510  0.4468 -0.8626
 2447SOL    MW4 9556   5.460   3.510   3.017  0.5527  0.8158 -0.6113
 2448SOL     OW 9557   0.488   2.754   3.449 -0.0455  0.3081  0.2711
 2448SOL    HW2 9558   0.559   2.690   3.438 -0.4455 -0.6042  2.5120
 2448SOL    HW3 9559   0.409   2.701   3.452 -0.4966  1.0192  1.0915
 2448SOL    MW4 9560   0.487   2.738   3.448 -0.1578  0.2815  0.6750
 2449SOL     OW 9561   2.265   4.522   2.641 -0.6729 -0.0782 -0.2494
 2449SOL    HW2 9562   2.321   4.598   2.652  0.1699 -0.9821  2.4675
 2449SOL    HW3 9563   2.253   4.514   2.546  1.9751  1.4428 -0.7990
 2449SOL    MW4 9564   2.271   4.531   2.630 -0.2123  0.0032  0.0366
 2450SOL     OW 9565   2.753   2.327   5.525 -0.1190  0.7120  0.1045
 2450SOL    HW2 9566   2.705   2.409   5.525  0.3084  0.9910 -1.1522
 2450SOL    HW3 9567   2.845   2.352   5.538  0.0178  0.4470 -0.3134
 2450SOL    MW4 9568   2.759   2.341   5.527 -0.0446  0.7138 -0.1165
 2451SOL     OW 9569   1.538   3.286   3.731  0.1051  0.1639  0.2052
 2451SOL    HW2 9570   1.513   3.270   3.640  1.0606 -0.7417  0.0892
 2451SOL    HW3 9571   1.632   3.301   3.728 -0.0398  1.3718  0.9065
 2451SOL    MW4 9572   1.547   3.286   3.718  0.2121  0.2038  0.2824
 2452SOL     OW 9573   4.097   3.008   5.025  0.2233  0.1179 -0.2840
 2452SOL    HW2 9574   4.104   3.080   4.963 -0.8524 -0.2895 -0.8974
 2452SOL    HW3 9575   4.072   2.933   4.971  2.1759 -0.9503  0.1924
 2452SOL    MW4 9576   4.095   3.008   5.010  0.3390 -0.0768 -0.3021
 2453SOL     OW 9577   3.434   4.628   4.406 -0.5214 -0.2215 -0.0288
 2453SOL    HW2 9578   3.527   4.620   4.385 -0.4580  1.3416 -0.4532
 2453SOL    HW3 9579   3.393   4.553   4.363  0.3675 -0.2023 -0.9469
 2453SOL    MW4 9580   3.441   4.617   4.398 -0.3957 -0.0127 -0.2059
 2454SOL     OW 9581   1.451   4.317   1.824 -0.5554 -0.0427 -0.3932
 2454SOL    HW2 9582   1.516   4.288   1.888 -0.2470 -1.3363 -1.2430
 2454SOL    HW3 9583   1.436   4.240   1.769 -2.1496  0.5061 -0.7738
 2454SOL    MW4 9584   1.458   4.303   1.825 -0.7251 -0.1410 -0.5556
 2455SOL     OW 9585   0.177   1.360   0.213  0.6529 -0.0495  0.0694
 2455SOL    HW2 9586   0.250   1.370   0.275  0.7685 -1.8992  0.3087
 2455SOL    HW3 9587   0.156   1.267   0.217 -0.1266  0.0025 -1.8199
 2455SOL    MW4 9588   0.184   1.349   0.222  0.5653 -0.2867 -0.1483
 2456SOL     OW 9589   3.372   6.279   1.628  0.0062  0.2941  0.5364
 2456SOL    HW2 9590   3.291   6.271   1.679  0.7952 -1.4357  1.6416
 2456SOL    HW3 9591   3.346   6.326   1.549 -2.0316  0.0084  0.9641
 2456SOL    MW4 9592   3.358   6.284   1.624 -0.1585  0.0282  0.7386
 2457SOL     OW 9593   0.698   6.228   3.866  0.2919  0.2421  0.6588
 2457SOL    HW2 9594   0.622   6.232   3.924  1.0224  0.3464  1.6330
 2457SOL    HW3 9595   0.744   6.310   3.882  0.7244  0.0839  0.2408
 2457SOL    MW4 9596   0.694   6.239   3.876  0.4454  0.2350  0.7322
 2458SOL     OW 9597   5.329   4.635   2.027 -0.3608 -0.0848  0.4269
 2458SOL    HW2 9598   5.362   4.693   2.096  0.9570  1.6224 -1.4998
 2458SOL    HW3 9599   5.351   4.547   2.057  1.2088  0.6838  1.7004
 2458SOL    MW4 9600   5.336   4.631   2.040  0.0202  0.2418  0.3407
 2459SOL     OW 9601   5.098   1.013   2.689 -1.0555 -0.3121 -0.3784
 2459SOL    HW2 9602   5.066   1.103   2.691 -1.8775 -0.5990  0.3548
 2459SOL    HW3 9603   5.044   0.968   2.754 -0.9979 -1.4396 -1.0913
 2459SOL    MW4 9604   5.086   1.019   2.698 -1.1563 -0.4987 -0.3757
 2460SOL     OW 9605   3.523   6.357   0.228  0.0135  0.4416 -0.3942
 2460SOL    HW2 9606   3.516   6.354   0.323  0.7020  0.6557 -0.3294
 2460SOL    HW3 9607   3.467   6.429   0.201 -0.5740  0.0601 -0.1933
 2460SOL    MW4 9608   3.515   6.366   0.237  0.0268  0.4195 -0.3591
 2461SOL     OW 9609   1.619   1.297   6.169 -0.0194  0.6006  0.1825
 2461SOL    HW2 9610   1.585   1.215   6.132 -1.0273  0.5939  1.0614
 2461SOL    HW3 9611   1.695   1.318   6.115 -0.3572 -0.3674 -0.7108
 2461SOL    MW4 9612   1.624   1.289   6.157 -0.1970  0.4720  0.1806
 2462SOL     OW 9613   5.519   0.958   5.845  0.0955 -0.2861 -0.0727
 2462SOL    HW2 9614   5.540   0.964   5.751 -0.0763  0.4997 -0.0726
 2462SOL    HW3 9615   5.561   0.877   5.874 -0.4521 -0.9062 -0.9826
 2462SOL    MW4 9616   5.528   0.948   5.836  0.0006 -0.2642 -0.1927
 2463SOL     OW 9617   1.034   3.525   0.798 -0.2017  0.2986  0.4746
 2463SOL    HW2 9618   0.971   3.577   0.848 -0.2556 -0.1735  0.9120
 2463SOL    HW3 9619   1.035   3.565   0.711 -1.7278 -0.1792  0.2026
 2463SOL    MW4 9620   1.026   3.537   0.793 -0.4102  0.1733  0.4964
 2464SOL     OW 9621   3.474   5.006   2.347  0.6386  0.0015 -0.1679
 2464SOL    HW2 9622   3.543   4.944   2.323  1.2663 -0.7324  3.0023
 2464SOL    HW3 9623   3.520   5.086   2.371  0.0916  0.5588 -0.8980
 2464SOL    MW4 9624   3.489   5.008   2.347  0.6492 -0.0218  0.1540
 2465SOL     OW 9625   3.768   1.031   0.025  0.3872  0.1852 -0.2085
 2465SOL    HW2 9626   3.721   0.987  -0.046  0.1876  0.0710 -0.0075
 2465SOL    HW3 9627   3.710   1.024   0.100  1.1805 -0.9165  0.3270
 2465SOL    MW4 9628   3.754   1.024   0.026  0.4655  0.0248 -0.1114
 2466SOL     OW 9629   5.018   5.143   6.201  0.0368 -0.1449 -0.4628
 2466SOL    HW2 9630   5.033   5.061   6.248  1.0456 -0.3514 -1.1041
 2466SOL    HW3 9631   5.052   5.210   6.260  2.5228 -0.5096 -1.3657
 2466SOL    MW4 9632   5.025   5.141   6.215  0.4979 -0.2202 -0.6665
 2467SOL     OW 9633   6.390   4.840   4.348  0.3829  0.0814  0.0037
 2467SOL    HW2 9634   6.408   4.928   4.316  0.9170  1.0096  2.5719
 2467SOL    HW3 9635   6.364   4.853   4.439  0.4860 -2.4286  0.4614
 2467SOL    MW4 9636   6.389   4.854   4.356  0.4670 -0.1273  0.4029
 2468SOL     OW 9637   2.302   0.011   5.701  0.1995 -0.4118 -0.3147
 2468SOL    HW2 9638   2.329   0.098   5.672  2.4091 -0.8108  0.4084
 2468SOL    HW3 9639   2.329  -0.047   5.631 -0.4396 -0.6532 -0.3742
 2468SOL    MW4 9640   2.309   0.015   5.688  0.4067 -0.4963 -0.2271
 2469SOL     OW 9641   0.214   2.879   5.904  0.1924  0.9752  0.0599
 2469SOL    HW2 9642   0.299   2.846   5.932 -0.0850  0.2557  0.0582
 2469SOL    HW3 9643   0.156   2.803   5.906 -0.7924  1.7240  1.3904
 2469SOL    MW4 9644   0.218   2.865   5.908  0.0259  0.9791  0.2352
 2470SOL     OW 9645   5.297   4.085   1.263 -0.6552  0.1126 -0.3871
 2470SOL    HW2 9646   5.302   4.166   1.314 -1.5917 -0.0879  0.0438
 2470SOL    HW3 9647   5.342   4.105   1.181 -2.2198  1.5939 -0.9584
 2470SOL    MW4 9648   5.303   4.098   1.259 -0.9852  0.2816 -0.4056
 2471SOL     OW 9649   1.145   4.976   1.870  0.4275  0.2189 -0.1066
 2471SOL    HW2 9650   1.180   4.947   1.786 -1.1808 -0.7703 -0.4840
 2471SOL    HW3 9651   1.107   4.896   1.908 -1.9527  1.3160 -0.0420
 2471SOL    MW4 9652   1.145   4.961   1.864 -0.0987  0.2331 -0.1479
 2472SOL     OW 9653   1.770   4.998   5.478  0.1690  0.2441  0.6592
 2472SOL    HW2 9654   1.785   4.904   5.483 -1.0166 -0.1807 -1.8554
 2472SOL    HW3 9655   1.675   5.007   5.474  0.2625  1.5454  0.8960
 2472SOL    MW4 9656   1.759   4.987   5.478  0.0249  0.3598  0.3587
 2473SOL     OW 9657   2.837   0.652   5.492 -0.0996  0.9878  0.4143
 2473SOL    HW2 9658   2.857   0.609   5.409 -2.5056  1.0776 -0.2978
 2473SOL    HW3 9659   2.887   0.733   5.489  2.7777 -0.6630  0.7950
 2473SOL    MW4 9660   2.846   0.657   5.481 -0.0374  0.7818  0.3706
 2474SOL     OW 9661   6.286   2.781   2.268 -0.2477 -0.3988  0.5378
 2474SOL    HW2 9662   6.358   2.845   2.275  1.4232 -1.9702 -1.1208
 2474SOL    HW3 9663   6.219   2.828   2.218 -0.1967  0.9182  1.6279
 2474SOL    MW4 9664   6.287   2.796   2.262 -0.0205 -0.4324  0.4628
 2475SOL     OW 9665   4.223   2.076   0.228 -0.1296 -0.3380 -0.2224
 2475SOL    HW2 9666   4.313   2.094   0.201  0.3696 -0.7794  1.0688
 2475SOL    HW3 9667   4.169   2.123   0.164  1.0283  1.5736  0.1088
 2475SOL    MW4 9668   4.228   2.085   0.216  0.0890 -0.1440 -0.0084
 2476SOL     OW 9669   0.309   5.512   1.538 -0.0316  0.3562  0.6054
 2476SOL    HW2 9670   0.270   5.511   1.625  0.7587 -1.9716  1.0087
 2476SOL    HW3 9671   0.325   5.419   1.518 -0.5076  0.7940 -2.1664
 2476SOL    MW4 9672   0.306   5.499   1.547  0.0099  0.1068  0.2929
 2477SOL     OW 9673   2.753   5.339   0.603 -0.0295 -0.4164  0.0700
 2477SOL    HW2 9674   2.681   5.353   0.664 -1.3931 -2.8437 -0.8277
 2477SOL    HW3 9675   2.808   5.272   0.644 -1.0041 -2.1381 -1.2795
 2477SOL    MW4 9676   2.751   5.332   0.616 -0.3380 -0.9638 -0.2265
 2478SOL     OW 9677   2.654   3.155   2.891 -0.3643  0.7001  0.0313
 2478SOL    HW2 9678   2.612   3.111   2.817 -0.0977 -1.3765  1.0513
 2478SOL    HW3 9679   2.589   3.151   2.962 -0.3365  2.0110  0.1614
 2478SOL    MW4 9680   2.640   3.149   2.891 -0.3255  0.5991  0.1830
 2479SOL     OW 9681   0.324   5.342   2.647 -0.0097 -0.6146 -0.2245
 2479SOL    HW2 9682   0.275   5.268   2.611 -3.4289  0.6857  1.3150
 2479SOL    HW3 9683   0.286   5.356   2.733  2.4789  1.2293  0.6861
 2479SOL    MW4 9684   0.313   5.334   2.653 -0.1325 -0.1998  0.0988
 2480SOL     OW 9685   3.010   1.009   2.524 -0.2905  0.2950  0.0915
 2480SOL    HW2 9686   3.037   1.097   2.498 -1.3341  0.3341 -0.9515
 2480SOL    HW3 9687   2.937   0.988   2.465  0.0921 -1.3585  0.1549
 2480SOL    MW4 9688   3.004   1.018   2.512 -0.3777  0.0820 -0.0377
 2481SOL     OW 9689   0.747   6.194   3.591 -0.2451 -0.4648  0.5117
 2481SOL    HW2 9690   0.661   6.203   3.550 -0.5069  2.3167  1.4609
 2481SOL    HW3 9691   0.731   6.211   3.684  1.5154  1.8941  0.4707
 2481SOL    MW4 9692   0.733   6.197   3.598 -0.0473  0.2134  0.6315
 2482SOL     OW 9693   1.419   6.244   6.173  0.7721 -0.0661 -0.6426
 2482SOL    HW2 9694   1.380   6.202   6.096 -0.5038  2.4191 -1.4594
 2482SOL    HW3 9695   1.506   6.270   6.144 -0.4345  2.7670 -2.1240
 2482SOL    MW4 9696   1.425   6.242   6.159  0.4445  0.6356 -0.9458
 2483SOL     OW 9697   3.534   0.595   3.974 -0.5560  0.3185  1.1456
 2483SOL    HW2 9698   3.456   0.544   3.949  1.3115 -1.7136 -1.0959
 2483SOL    HW3 9699   3.576   0.542   4.042  0.4399 -0.2691  0.1077
 2483SOL    MW4 9700   3.529   0.581   3.979 -0.1782 -0.0272  0.7129
 2484SOL     OW 9701   4.261   4.717   5.222  0.5898 -0.6764  0.4380
 2484SOL    HW2 9702   4.205   4.714   5.145 -0.3264  1.2540  0.9717
 2484SOL    HW3 9703   4.289   4.809   5.228  1.2693 -0.9503  1.9614
 2484SOL    MW4 9704   4.258   4.729   5.212  0.5586 -0.4578  0.7094
 2485SOL     OW 9705   0.927   3.629   3.798  0.1476  0.2612  0.4119
 2485SOL    HW2 9706   0.948   3.713   3.839  2.4098  0.3964 -0.8578
 2485SOL    HW3 9707   0.993   3.569   3.832  1.2053  0.0491 -1.8753
 2485SOL    MW4 9708   0.938   3.632   3.808  0.5856  0.2510 -0.0574
 2486SOL     OW 9709   6.231   3.557   0.168  0.5250 -0.8771  0.1864
 2486SOL    HW2 9710   6.264   3.625   0.226  0.0329 -1.3755  1.0660
 2486SOL    HW3 9711   6.289   3.561   0.091  1.1158 -0.1443  0.6550
 2486SOL    MW4 9712   6.243   3.567   0.165  0.5380 -0.8461  0.3642
 2487SOL     OW 9713   3.245   5.857   0.871  0.2073 -0.0599 -0.5526
 2487SOL    HW2 9714   3.154   5.880   0.891  1.0972  1.3353  2.6075
 2487SOL    HW3 9715   3.284   5.939   0.841  1.0034  0.0687  0.7515
 2487SOL    MW4 9716   3.238   5.871   0.870  0.4298  0.1411  0.0364
 2488SOL     OW 9717   1.077   2.894   4.951  0.0728 -0.1683 -0.3463
 2488SOL    HW2 9718   1.128   2.826   4.995 -0.0269  0.6005  1.0064
 2488SOL    HW3 9719   0.993   2.853   4.933  0.9545 -1.3160 -2.2157
 2488SOL    MW4 9720   1.073   2.879   4.954  0.1759 -0.2183 -0.4145
 2489SOL     OW 9721   3.474   6.033   0.210 -0.4359  0.1745 -0.6163
 2489SOL    HW2 9722   3.529   6.047   0.133  0.2199 -0.8111 -0.3500
 2489SOL    HW3 9723   3.529   5.983   0.270 -0.8009  1.2444  0.6701
 2489SOL    MW4 9724   3.488   6.028   0.208 -0.3975  0.1856 -0.4114
 2490SOL     OW 9725   4.148   4.109   4.020 -0.3800  0.1483 -0.7927
 2490SOL    HW2 9726   4.059   4.073   4.011 -0.9430  1.4845 -0.8658
 2490SOL    HW3 9727   4.178   4.120   3.930  0.2570 -1.1904 -0.7616
 2490SOL    MW4 9728   4.140   4.106   4.007 -0.3703  0.1479 -0.7983
 2491SOL     OW 9729   2.355   1.994   4.665  0.1058 -0.1831  0.0945
 2491SOL    HW2 9730   2.349   1.964   4.575 -0.0993  0.4924 -0.1255
 2491SOL    HW3 9731   2.369   1.915   4.717  0.4961 -0.5437 -0.5561
 2491SOL    MW4 9732   2.356   1.980   4.660  0.1303 -0.1416 -0.0204
 2492SOL     OW 9733   5.702   4.943   0.105 -0.2798 -0.6674  0.1868
 2492SOL    HW2 9734   5.636   5.012   0.096 -0.3299 -0.8519 -1.1565
 2492SOL    HW3 9735   5.654   4.868   0.141 -1.3847 -1.4926 -2.7134
 2492SOL    MW4 9736   5.687   4.942   0.108 -0.4322 -0.8006 -0.3731
 2493SOL     OW 9737   1.422   4.568   4.699 -0.2022  0.1653 -0.0488
 2493SOL    HW2 9738   1.444   4.644   4.645 -1.2158 -0.4871 -1.4620
 2493SOL    HW3 9739   1.337   4.590   4.737 -0.8363 -0.5085 -1.0260
 2493SOL    MW4 9740   1.414   4.581   4.697 -0.4196 -0.0096 -0.3642
 2494SOL     OW 9741   1.104   3.948   6.257  0.5525 -0.3013  0.1592
 2494SOL    HW2 9742   1.034   4.003   6.291 -3.5620 -2.1740 -4.1867
 2494SOL    HW3 9743   1.166   4.010   6.217 -0.7711  1.3733  0.5775
 2494SOL    MW4 9744   1.103   3.964   6.256 -0.1650 -0.3274 -0.3590
 2495SOL     OW 9745   4.229   3.729   5.017  0.2374  0.5650 -0.3754
 2495SOL    HW2 9746   4.180   3.648   5.004  1.4591 -0.3238  0.4441
 2495SOL    HW3 9747   4.162   3.798   5.012 -0.6586 -0.3676 -2.2184
 2495SOL    MW4 9748   4.214   3.728   5.015  0.2804  0.3247 -0.5105
 2496SOL     OW 9749   5.127   5.107   2.829 -0.6301 -0.0366 -0.1359
 2496SOL    HW2 9750   5.157   5.097   2.738  0.9009 -1.6956  0.4906
 2496SOL    HW3 9751   5.031   5.111   2.822 -0.5236  0.4407 -1.8498
 2496SOL    MW4 9752   5.118   5.106   2.816 -0.4140 -0.1925 -0.2794
 2497SOL     OW 9753   5.480   5.379   0.048 -0.0530 -0.5808  0.0923
 2497SOL    HW2 9754   5.462   5.341   0.134 -2.0343 -0.0557 -0.0370
 2497SOL    HW3 9755   5.569   5.413   0.055 -0.5688  0.5373  2.3656
 2497SOL    MW4 9756   5.489   5.378   0.061 -0.3824 -0.3640  0.3752
 2498SOL     OW 9757   1.345   4.449   6.143  0.2069  0.3996 -0.3704
 2498SOL    HW2 9758   1.301   4.518   6.192 -0.8036  0.0377 -0.7515
 2498SOL    HW3 9759   1.394   4.400   6.210 -2.2745 -0.9583  0.5725
 2498SOL    MW4 9760   1.346   4.452   6.159 -0.2538  0.1727 -0.2963
 2499SOL     OW 9761   3.183   4.677   0.140 -0.1219 -0.0319  0.5207
 2499SOL    HW2 9762   3.096   4.692   0.176 -1.1093  1.3052 -2.2170
 2499SOL    HW3 9763   3.205   4.758   0.095  1.7826 -0.9816 -0.3560
 2499SOL    MW4 9764   3.174   4.689   0.139 -0.0009  0.0192  0.0439
 2500SOL     OW 9765   0.622   3.927   1.006  0.1138  0.0038  0.0758
 2500SOL    HW2 9766   0.575   3.926   0.922 -0.2440  0.3217  0.2689
 2500SOL    HW3 9767   0.648   4.019   1.018 -0.5555  0.1175  0.7078
 2500SOL    MW4 9768   0.619   3.939   0.996 -0.0217  0.0608  0.1847
 2501SOL     OW 9769   0.022   2.817   4.657 -0.1909 -0.0268 -0.5311
 2501SOL    HW2 9770   0.021   2.736   4.606  0.2829  0.0733 -0.7082
 2501SOL    HW3 9771   0.061   2.882   4.598 -1.4176  0.5612 -0.7256
 2501SOL    MW4 9772   0.027   2.815   4.642 -0.2903  0.0640 -0.5801
 2502SOL     OW 9773   3.217   2.313   1.288  0.5974  0.4083  0.0012
 2502SOL    HW2 9774   3.297   2.302   1.237 -0.7964 -0.4781 -2.1619
 2502SOL    HW3 9775   3.188   2.402   1.269  0.5482  0.3859 -0.0287
 2502SOL    MW4 9776   3.223   2.323   1.279  0.4070  0.2884 -0.2882
 2503SOL     OW 9777   5.123   5.864   2.688  0.4167  0.1681 -0.1083
 2503SOL    HW2 9778   5.206   5.823   2.711  0.6732  1.2998  1.1053
 2503SOL    HW3 9779   5.108   5.928   2.757 -0.5471  1.2718 -1.2801
 2503SOL    MW4 9780   5.132   5.867   2.700  0.3234  0.4630 -0.1028
 2504SOL     OW 9781   1.177   3.566   3.903 -0.4518  0.2496  0.1530
 2504SOL    HW2 9782   1.259   3.614   3.904  0.9835 -2.0128  1.9424
 2504SOL    HW3 9783   1.189   3.500   3.834 -0.1263 -0.9620  1.3126
 2504SOL    MW4 9784   1.189   3.564   3.894 -0.2195 -0.2088  0.5421
 2505SOL     OW 9785   5.166   3.591   1.949  0.3383  0.1732 -0.8656
 2505SOL    HW2 9786   5.240   3.626   1.900  0.6049  0.9144  0.0416
 2505SOL    HW3 9787   5.191   3.601   2.040 -0.7067  0.0514 -0.5544
 2505SOL    MW4 9788   5.179   3.597   1.954  0.2356  0.2549 -0.7049
 2506SOL     OW 9789   4.796   2.988   5.669  0.1352  0.0621  0.3822
 2506SOL    HW2 9790   4.778   3.080   5.687  1.7646  0.2138  1.4365
 2506SOL    HW3 9791   4.782   2.979   5.575 -0.1714  1.3569  0.2868
 2506SOL    MW4 9792   4.792   2.999   5.659  0.3097  0.2529  0.5087
 2507SOL     OW 9793   5.821   3.612   2.001 -0.1786 -0.0140 -0.2071
 2507SOL    HW2 9794   5.780   3.549   1.942 -0.8860  0.9715 -0.7914
 2507SOL    HW3 9795   5.910   3.578   2.014  0.0632 -0.1450 -2.0184
 2507SOL    MW4 9796   5.828   3.599   1.995 -0.2401  0.0987 -0.5232
 2508SOL     OW 9797   0.323   0.467   0.112 -0.1690 -0.8199 -0.0597
 2508SOL    HW2 9798   0.372   0.546   0.136  0.7971 -1.3411 -0.2296
 2508SOL    HW3 9799   0.391   0.403   0.091 -0.8971 -0.6696 -3.4229
 2508SOL    MW4 9800   0.339   0.469   0.113 -0.1376 -0.8688 -0.5258
 2509SOL     OW 9801   2.268   1.676   0.780 -0.0540  0.1684 -0.4649
 2509SOL    HW2 9802   2.177   1.696   0.802 -0.2553 -0.4668 -0.6953
 2509SOL    HW3 9803   2.271   1.580   0.778  0.6039  0.1887 -0.5297
 2509SOL    MW4 9804   2.256   1.666   0.783  0.0063  0.0873 -0.5038
 2510SOL     OW 9805   4.975   4.372   4.582  0.3600 -0.2183 -0.0545
 2510SOL    HW2 9806   5.002   4.398   4.670 -0.3425  0.1019  0.0761
 2510SOL    HW3 9807   5.041   4.308   4.555  3.1794  2.8379 -1.0723
 2510SOL    MW4 9808   4.987   4.367   4.590  0.6393  0.2272 -0.1716
 2511SOL     OW 9809   2.019   6.376   5.413 -0.0207  0.0286 -0.2418
 2511SOL    HW2 9810   1.998   6.453   5.466 -0.4154 -0.0783 -0.2428
 2511SOL    HW3 9811   1.944   6.364   5.356  0.9951  1.0094 -1.8745
 2511SOL    MW4 9812   2.007   6.384   5.413  0.0612  0.1439 -0.4573
 2512SOL     OW 9813   4.950   2.236   0.932 -0.1832  0.2774 -0.0909
 2512SOL    HW2 9814   4.963   2.276   0.847  1.2881 -0.2154 -0.1293
 2512SOL    HW3 9815   4.890   2.163   0.916 -0.2892  0.4824 -0.6233
 2512SOL    MW4 9816   4.944   2.231   0.919 -0.0030  0.2394 -0.1662
 2513SOL     OW 9817   4.850   3.728   4.316  0.3049  0.4196  0.3319
 2513SOL    HW2 9818   4.913   3.658   4.298  0.2872  0.0708  1.5603
 2513SOL    HW3 9819   4.873   3.797   4.255  1.0045 -0.2374 -0.1667
 2513SOL    MW4 9820   4.861   3.728   4.306  0.3948  0.2869  0.4282
 2514SOL     OW 9821   3.218   0.984   3.979  0.0981 -0.9800  0.1816
 2514SOL    HW2 9822   3.300   0.936   3.994 -0.8931 -2.5072  0.9362
 2514SOL    HW3 9823   3.151   0.916   3.976 -1.3183  0.3426  0.8541
 2514SOL    MW4 9824   3.220   0.969   3.981 -0.2196 -1.0070  0.3699
 2515SOL     OW 9825   0.068   1.714   3.655 -0.0872 -0.0933  0.2401
 2515SOL    HW2 9826   0.025   1.664   3.724 -0.6940 -1.1510 -0.8728
 2515SOL    HW3 9827   0.154   1.672   3.645  0.3266  0.5690  0.8778
 2515SOL    MW4 9828   0.074   1.702   3.663 -0.1127 -0.1454  0.1774
 2516SOL     OW 9829   0.195   5.521   4.060  0.1390 -0.2036  0.3220
 2516SOL    HW2 9830   0.189   5.440   4.009  1.0683 -0.7862  1.0896
 2516SOL    HW3 9831   0.108   5.532   4.098  0.1267 -1.1332  0.6041
 2516SOL    MW4 9832   0.183   5.512   4.058  0.2600 -0.4031  0.4605
 2517SOL     OW 9833   3.780   3.143   0.045  0.2354  0.3410 -0.0076
 2517SOL    HW2 9834   3.781   3.050   0.021  0.5517  0.2938  0.1887
 2517SOL    HW3 9835   3.726   3.184  -0.022  0.5353  0.0982 -0.4036
 2517SOL    MW4 9836   3.773   3.136   0.033  0.3167  0.3027 -0.0339
 2518SOL     OW 9837   5.528   2.557   2.924  0.1303 -0.2596 -0.2901
 2518SOL    HW2 9838   5.589   2.584   2.993 -0.4188 -1.1368  0.5576
 2518SOL    HW3 9839   5.563   2.475   2.892  0.6134  0.3495 -1.3732
 2518SOL    MW4 9840   5.540   2.550   2.929  0.1216 -0.2950 -0.3212
 2519SOL     OW 9841   4.951   2.465   1.075  0.7198 -0.4115  0.0267
 2519SOL    HW2 9842   4.952   2.382   1.027  1.0679 -1.0315  1.0674
 2519SOL    HW3 9843   5.001   2.525   1.021  0.8778 -1.0159 -0.5134
 2519SOL    MW4 9844   4.958   2.462   1.062  0.7866 -0.5730  0.0928
 2520SOL     OW 9845   4.164   1.017   2.673 -0.2616  0.6542  0.0650
 2520SOL    HW2 9846   4.110   1.024   2.752  1.3473  1.9771  1.1037
 2520SOL    HW3 9847   4.127   1.081   2.613 -0.3452  0.9810  0.4596
 2520SOL    MW4 9848   4.152   1.026   2.676 -0.0603  0.8718  0.2541
 2521SOL     OW 9849   0.185   4.491   5.237  0.2057 -0.6205 -0.1298
 2521SOL    HW2 9850   0.275   4.490   5.205  0.0549  1.1070 -0.6777
 2521SOL    HW3 9851   0.166   4.582   5.257 -0.7126 -1.2275  2.1315
 2521SOL    MW4 9852   0.194   4.503   5.235  0.0647 -0.4727  0.0963
 2522SOL     OW 9853   2.108   4.843   1.212 -0.1258  0.4855  0.1578
 2522SOL    HW2 9854   2.078   4.874   1.126 -0.4733  1.2942  0.5578
 2522SOL    HW3 9855   2.069   4.904   1.274 -0.4175 -0.4881  0.9496
 2522SOL    MW4 9856   2.099   4.855   1.209 -0.2102  0.4637  0.3151
 2523SOL     OW 9857   0.388   1.084   1.017  0.0524  0.4781 -0.6343
 2523SOL    HW2 9858   0.413   1.029   1.090  0.5351 -0.1861 -1.2835
 2523SOL    HW3 9859   0.399   1.029   0.940 -1.2738  0.8745 -1.1492
 2523SOL    MW4 9860   0.393   1.070   1.016 -0.0589  0.4427 -0.7879
 2524SOL     OW 9861   5.888   2.774   0.784 -0.0079  0.1303  0.2959
 2524SOL    HW2 9862   5.918   2.865   0.783 -2.7343  1.1483  1.5451
 2524SOL    HW3 9863   5.928   2.737   0.862  1.8779 -0.1066 -0.7195
 2524SOL    MW4 9864   5.898   2.781   0.794 -0.1188  0.2334  0.3268
 2525SOL     OW 9865   2.923   5.963   1.855 -0.3242  0.0306 -0.4266
 2525SOL    HW2 9866   2.949   5.948   1.764 -0.1953  0.0473 -0.3926
 2525SOL    HW3 9867   2.860   6.035   1.850 -0.9091 -0.4833 -0.5859
 2525SOL    MW4 9868   2.919   5.971   1.842 -0.3844 -0.0350 -0.4432
 2526SOL     OW 9869   2.911   2.529   1.638  0.1391 -0.1239  0.3345
 2526SOL    HW2 9870   2.978   2.463   1.655  0.6746 -0.1767 -1.7764
 2526SOL    HW3 9871   2.866   2.539   1.722  2.7845 -0.0543  1.8492
 2526SOL    MW4 9872   2.914   2.522   1.651  0.5588 -0.1217  0.2558
 2527SOL     OW 9873   1.178   5.326   3.043 -0.5132  0.4527  0.7150
 2527SOL    HW2 9874   1.230   5.400   3.011  0.2488 -0.1609  0.5051
 2527SOL    HW3 9875   1.088   5.360   3.048 -0.1443  1.4443  0.8089
 2527SOL    MW4 9876   1.173   5.340   3.039 -0.3640  0.5026  0.6997
 2528SOL     OW 9877   2.817   0.336   2.143  0.2565  0.5963 -0.2782
 2528SOL    HW2 9878   2.849   0.407   2.088 -3.0165  2.1911 -0.3615
 2528SOL    HW3 9879   2.747   0.295   2.091  0.2978 -0.9656  0.8273
 2528SOL    MW4 9880   2.812   0.340   2.129 -0.1699  0.6006 -0.1433
 2529SOL     OW 9881   2.027   1.681   4.479  0.5809 -0.0936  0.2671
 2529SOL    HW2 9882   2.098   1.745   4.474  1.0468 -0.5543  0.8588
 2529SOL    HW3 9883   2.063   1.601   4.440 -0.1828  0.1419 -0.9745
 2529SOL    MW4 9884   2.041   1.679   4.473  0.5416 -0.1233  0.1814
 2530SOL     OW 9885   4.136   5.504   4.895 -1.1749 -0.0435  0.0906
 2530SOL    HW2 9886   4.054   5.454   4.900  0.0408 -2.0906  0.4704
 2530SOL    HW3 9887   4.190   5.456   4.833 -0.4441  1.5938 -0.5704
 2530SOL    MW4 9888   4.132   5.491   4.888 -0.9181 -0.0976  0.0535
 2531SOL     OW 9889   0.463   0.633   4.374  0.0603  0.2241  0.4521
 2531SOL    HW2 9890   0.535   0.596   4.424 -0.5142 -1.4180  0.1287
 2531SOL    HW3 9891   0.386   0.622   4.431 -0.0137  1.7360  0.6992
 2531SOL    MW4 9892   0.462   0.627   4.388 -0.0253  0.2069  0.4421
 2532SOL     OW 9893   4.882   4.839   4.699  0.0742 -0.6678 -0.5931
 2532SOL    HW2 9894   4.789   4.835   4.675  0.1102 -0.3033 -0.7978
 2532SOL    HW3 9895   4.892   4.925   4.739  0.3105 -0.7315 -0.5181
 2532SOL    MW4 9896   4.871   4.850   4.701  0.1101 -0.6281 -0.6102
 2533SOL     OW 9897   2.549   3.937   4.867  0.3735 -0.0447 -0.8160
 2533SOL    HW2 9898   2.639   3.968   4.865  1.5439 -3.0268  0.1678
 2533SOL    HW3 9899   2.515   3.955   4.779  1.7585  1.4482 -1.0877
 2533SOL    MW4 9900   2.556   3.943   4.855  0.7107 -0.2412 -0.7220
 2534SOL     OW 9901   5.437   0.973   6.124 -1.0136 -0.6068  0.4710
 2534SOL    HW2 9902   5.375   0.900   6.122 -0.8827 -0.7277  0.7745
 2534SOL    HW3 9903   5.472   0.976   6.035  0.4651 -2.2086  0.9537
 2534SOL    MW4 9904   5.433   0.964   6.112 -0.8012 -0.8341  0.5748
 2535SOL     OW 9905   3.661   3.513   3.006  0.7801  0.0193  0.5490
 2535SOL    HW2 9906   3.746   3.553   2.994  0.3884  0.6877 -0.0489
 2535SOL    HW3 9907   3.607   3.582   3.046  0.1342  0.0695 -0.3854
 2535SOL    MW4 9908   3.665   3.527   3.010  0.6432  0.1141  0.3468
 2536SOL     OW 9909   4.141   1.994   3.622 -0.0900  0.2851 -0.2779
 2536SOL    HW2 9910   4.079   1.974   3.552  1.0382 -0.1726 -1.1789
 2536SOL    HW3 9911   4.086   2.016   3.697 -1.3796  2.4985 -1.7494
 2536SOL    MW4 9912   4.126   1.994   3.622 -0.1113  0.5167 -0.5909
 2537SOL     OW 9913   4.769   4.963   3.315 -0.0200 -0.7180 -0.4274
 2537SOL    HW2 9914   4.816   4.886   3.347  1.7620  1.3469  2.3739
 2537SOL    HW3 9915   4.836   5.019   3.276 -0.8955  0.3631 -0.4497
 2537SOL    MW4 9916   4.784   4.960   3.314  0.0996 -0.3029 -0.0608
 2538SOL     OW 9917   1.473   0.092   3.180  0.0159  0.5925  0.1447
 2538SOL    HW2 9918   1.398   0.149   3.167 -0.5887  0.2852  2.0624
 2538SOL    HW3 9919   1.538   0.147   3.223 -0.5398 -0.0943  1.9332
 2538SOL    MW4 9920   1.472   0.107   3.184 -0.1372  0.4614  0.6337
 2539SOL     OW 9921   5.745   2.745   5.901 -0.2849  0.4876  0.1810
 2539SOL    HW2 9922   5.706   2.658   5.897 -0.6064  0.6500 -0.4174
 2539SOL    HW3 9923   5.727   2.776   5.990  0.7901 -0.4766  0.7650
 2539SOL    MW4 9924   5.738   2.738   5.912 -0.1855  0.3819  0.1791
 2540SOL     OW 9925   4.674   4.083   3.595 -0.1390  0.0534 -0.7019
 2540SOL    HW2 9926   4.613   4.104   3.525 -0.5007 -1.0861 -0.7544
 2540SOL    HW3 9927   4.744   4.148   3.588 -0.2267  0.0220 -2.0434
 2540SOL    MW4 9928   4.675   4.094   3.585 -0.1983 -0.1011 -0.8858
 2541SOL     OW 9929   0.273   4.444   0.265  0.3129 -0.7816 -0.2627
 2541SOL    HW2 9930   0.181   4.426   0.288 -0.0527  1.3457  0.1494
 2541SOL    HW3 9931   0.279   4.425   0.172 -0.3548 -1.6039 -0.1500
 2541SOL    MW4 9932   0.261   4.439   0.256  0.1766 -0.6094 -0.1934
 2542SOL     OW 9933   2.783   3.090   6.340  0.0008 -0.8223 -0.3638
 2542SOL    HW2 9934   2.846   3.057   6.403  0.6422 -0.0420 -0.5806
 2542SOL    HW3 9935   2.730   3.153   6.389 -0.7162 -1.5884 -0.1440
 2542SOL    MW4 9936   2.784   3.094   6.355 -0.0092 -0.8204 -0.3634
 2543SOL     OW 9937   1.973   2.821   2.982  0.1225 -0.1893  0.3242
 2543SOL    HW2 9938   1.951   2.909   2.952  3.8797  0.6127 -0.6748
 2543SOL    HW3 9939   1.948   2.820   3.074  0.3217  2.1263  0.4746
 2543SOL    MW4 9940   1.967   2.832   2.990  0.6445  0.2220  0.2122
 2544SOL     OW 9941   5.324   0.945   5.333 -0.5758  0.2982  0.5488
 2544SOL    HW2 9942   5.268   0.872   5.307 -0.5393  0.5670 -0.2963
 2544SOL    HW3 9943   5.347   0.989   5.251  1.1618 -0.0181  0.8281
 2544SOL    MW4 9944   5.320   0.941   5.319 -0.3417  0.2920  0.4741
 2545SOL     OW 9945   5.431   4.135   5.480  0.2391 -0.6144 -0.1307
 2545SOL    HW2 9946   5.337   4.116   5.475 -0.1858  1.2988 -0.2355
 2545SOL    HW3 9947   5.464   4.075   5.547 -1.6436  0.5730  2.0281
 2545SOL    MW4 9948   5.423   4.125   5.488 -0.0654 -0.2053  0.1403
 2546SOL     OW 9949   2.588   3.521   1.426 -0.1708  0.5223 -0.4054
 2546SOL    HW2 9950   2.570   3.505   1.518  0.3475 -2.0965 -0.6590
 2546SOL    HW3 9951   2.664   3.578   1.425  2.4833 -2.6344  0.9884
 2546SOL    MW4 9952   2.596   3.526   1.438  0.2478 -0.2397 -0.2549
 2547SOL     OW 9953   1.270   5.972   0.870 -0.7242 -0.3099  0.3056
 2547SOL    HW2 9954   1.209   6.009   0.807  0.5175  0.3760 -0.5465
 2547SOL    HW3 9955   1.259   6.026   0.949 -0.0836  0.8778 -0.3877
 2547SOL    MW4 9956   1.261   5.984   0.872 -0.4759 -0.0627  0.1017
 2548SOL     OW 9957   3.346   5.244   3.622 -0.5649  0.4814  0.4073
 2548SOL    HW2 9958   3.357   5.323   3.674  1.3583 -0.0191  0.8373
 2548SOL    HW3 9959   3.252   5.226   3.626 -0.8127  1.8455  1.6131
 2548SOL    MW4 9960   3.335   5.252   3.630 -0.3439  0.5953  0.6231
 2549SOL     OW 9961   1.085   3.510   0.247 -0.4251 -0.1955 -0.0387
 2549SOL    HW2 9962   1.124   3.590   0.211 -1.8324  0.8178  0.5679
 2549SOL    HW3 9963   1.148   3.479   0.312  0.3691  0.1362 -0.6416
 2549SOL    MW4 9964   1.098   3.517   0.251 -0.5060 -0.0180 -0.0382
 2550SOL     OW 9965   5.784   2.964   1.237  0.3442 -0.1251  0.4634
 2550SOL    HW2 9966   5.833   3.009   1.306 -0.6091  0.9094  0.4897
 2550SOL    HW3 9967   5.746   3.035   1.185 -0.8972 -0.8885  0.2940
 2550SOL    MW4 9968   5.786   2.979   1.240  0.0546 -0.0894  0.4445
 2551SOL     OW 9969   3.475   1.996   0.278 -0.5213 -0.2348 -0.6998
 2551SOL    HW2 9970   3.458   2.080   0.322  1.3148  0.2309 -0.7679
 2551SOL    HW3 9971   3.471   2.017   0.184 -2.8810 -0.8871 -0.7977
 2551SOL    MW4 9972   3.472   2.010   0.271 -0.5904 -0.2594 -0.7217
 2552SOL     OW 9973   6.372   5.639   0.416  0.2978  0.3086  0.2396
 2552SOL    HW2 9974   6.281   5.654   0.441 -0.1225 -0.6551 -0.6572
 2552SOL    HW3 9975   6.398   5.720   0.372 -0.8129 -0.1721 -1.3835
 2552SOL    MW4 9976   6.364   5.652   0.414  0.0958  0.1180 -0.0929
 2553SOL     OW 9977   3.739   1.714   2.291  0.1625 -0.4399 -0.5326
 2553SOL    HW2 9978   3.743   1.629   2.336 -0.6614 -0.8616 -1.2225
 2553SOL    HW3 9979   3.831   1.740   2.283  0.3244  0.1574  2.2429
 2553SOL    MW4 9980   3.752   1.706   2.296  0.0752 -0.4167 -0.2575
 2554SOL     OW 9981   4.485   5.523   3.816 -0.4137  0.2747 -0.1880
 2554SOL    HW2 9982   4.557   5.564   3.863 -0.5671 -0.8819  1.1180
 2554SOL    HW3 9983   4.525   5.488   3.737  0.0859  1.1976 -0.3629
 2554SOL    MW4 9984   4.499   5.524   3.812 -0.3680  0.2439 -0.0388
 2555SOL     OW 9985   3.138   0.899   1.505  0.4282  0.1410  0.1766
 2555SOL    HW2 9986   3.122   0.956   1.579 -0.3529  0.4924 -0.2500
 2555SOL    HW3 9987   3.214   0.937   1.461 -0.2199  0.9919 -0.2315
 2555SOL    MW4 9988   3.146   0.911   1.509  0.2396  0.2996  0.0665
 2556SOL     OW 9989   0.390   1.054   3.654  0.4008 -0.0809 -0.2466
 2556SOL    HW2 9990   0.354   0.977   3.610  1.0624 -1.1642  1.0115
 2556SOL    HW3 9991   0.315   1.112   3.666  0.2966  0.5680 -3.2895
 2556SOL    MW4 9992   0.375   1.051   3.650  0.4744 -0.1382 -0.4820
 2557SOL     OW 9993   5.778   5.441   4.806 -0.2303  0.2817  0.1750
 2557SOL    HW2 9994   5.818   5.457   4.720  1.3475 -0.9345  0.6271
 2557SOL    HW3 9995   5.832   5.372   4.844 -1.2672  0.3911  1.9133
 2557SOL    MW4 9996   5.791   5.434   4.799 -0.1590  0.1357  0.4640
 2558SOL     OW 9997   3.349   3.403   0.024 -0.2456  0.1551 -0.1214
 2558SOL    HW2 9998   3.265   3.417  -0.020 -1.2105 -0.4931  1.4331
 2558SOL    HW3 9999   3.331   3.417   0.117  1.7520  1.5596  0.1203
 2558SOL    MW410000   3.336   3.407   0.030 -0.1094  0.2549  0.1156
 2559SOL     OW10001   3.171   3.979   5.864  0.6575 -0.2632  0.0888
 2559SOL    HW210002   3.148   4.023   5.783 -0.0148  2.0743  1.4635
 2559SOL    HW310003   3.094   3.926   5.885 -1.3452  2.9729  1.6342
 2559SOL    MW410004   3.158   3.978   5.856  0.3046  0.4722  0.4740
 2560SOL     OW10005   4.354   2.376   2.509  0.0872  0.4662  0.0875
 2560SOL    HW210006   4.259   2.386   2.502 -0.1519 -1.6829 -0.5861
 2560SOL    HW310007   4.377   2.317   2.437  1.6581 -0.5377  1.3293
 2560SOL    MW410008   4.345   2.369   2.499  0.2629  0.0502  0.1625
 2561SOL     OW10009   2.995   5.479   0.330  0.2590 -0.3862 -0.2258
 2561SOL    HW210010   3.014   5.489   0.423 -2.1022  0.5231  0.2421
 2561SOL    HW310011   3.070   5.432   0.295  2.2216  1.0955  1.7015
 2561SOL    MW410012   3.007   5.474   0.338  0.2064 -0.0708  0.0902
 2562SOL     OW10013   4.886   2.343   3.696  0.1084  0.0948  0.5050
 2562SOL    HW210014   4.950   2.276   3.672  0.7552  0.4030  1.3210
 2562SOL    HW310015   4.939   2.419   3.722 -0.6070  0.7440  0.0949
 2562SOL    MW410016   4.901   2.344   3.696  0.0993  0.2212  0.5586
 2563SOL     OW10017   4.418   4.312   4.679 -0.6335 -0.3168  0.4238
 2563SOL    HW210018   4.371   4.301   4.596 -0.1540 -0.3690  0.1505
 2563SOL    HW310019   4.378   4.389   4.719 -0.5601 -0.0051 -0.0833
 2563SOL    MW410020   4.407   4.321   4.673 -0.5606 -0.2826  0.3209
 2564SOL     OW10021   2.645   5.736   0.347 -0.4572 -0.3556  0.0771
 2564SOL    HW210022   2.671   5.776   0.430  0.9356 -1.1616  0.0658
 2564SOL    HW310023   2.656   5.642   0.361 -3.1343 -0.7636 -0.0755
 2564SOL    MW410024   2.650   5.729   0.360 -0.6266 -0.5158  0.0554
 2565SOL     OW10025   0.485   4.314   6.155 -0.4994  0.5289 -0.3570
 2565SOL    HW210026   0.527   4.388   6.198  0.1983 -0.2444  0.3304
 2565SOL    HW310027   0.497   4.331   6.061 -0.8391  1.5557 -0.2213
 2565SOL    MW410028   0.492   4.326   6.148 -0.4521  0.5623 -0.2484
 2566SOL     OW10029   4.233   1.692   5.535 -0.1380 -0.5047  0.7795
 2566SOL    HW210030   4.186   1.696   5.451  1.1847 -0.0068  0.0349
 2566SOL    HW310031   4.260   1.600   5.542 -1.7537 -0.9653  1.5547
 2566SOL    MW410032   4.230   1.680   5.524 -0.1766 -0.4998  0.7835
 2567SOL     OW10033   4.755   0.666   3.925  0.4532 -0.0316 -0.2406
 2567SOL    HW210034   4.764   0.666   3.830 -1.4829 -0.3714 -0.4502
 2567SOL    HW310035   4.809   0.592   3.954 -0.0023 -0.7630 -1.2047
 2567SOL    MW410036   4.763   0.656   3.916  0.1377 -0.1729 -0.3955
 2568SOL     OW10037   0.272   6.251   5.193 -0.8308  0.2780 -0.3390
 2568SOL    HW210038   0.228   6.251   5.278  1.7119 -0.2330  1.0697
 2568SOL    HW310039   0.289   6.158   5.175  0.2622  0.5068 -0.5085
 2568SOL    MW410040   0.268   6.239   5.202 -0.3511  0.2408 -0.1755
 2569SOL     OW10041   0.190   3.458   1.492  0.2349 -0.6540  0.3143
 2569SOL    HW210042   0.101   3.494   1.487  0.4535 -0.2539 -0.9119
 2569SOL    HW310043   0.247   3.535   1.495  0.5546 -0.9090  1.1348
 2569SOL    MW410044   0.186   3.473   1.492  0.3059 -0.6348  0.2608
 2570SOL     OW10045   3.854   0.590   3.422  0.1457 -0.3766  0.4510
 2570SOL    HW210046   3.804   0.638   3.355 -0.9476 -1.2351  0.6127
 2570SOL    HW310047   3.797   0.589   3.498  1.3234  0.4558  1.3757
 2570SOL    MW410048   3.840   0.596   3.423  0.1568 -0.3800  0.5943
 2571SOL     OW10049   3.969   1.288   4.150  0.1982  0.5307  1.1171
 2571SOL    HW210050   3.953   1.337   4.069 -1.0642  1.9690  2.1833
 2571SOL    HW310051   3.925   1.204   4.136 -0.9934  1.1953  0.7222
 2571SOL    MW410052   3.961   1.284   4.137 -0.1256  0.8082  1.2057
 2572SOL     OW10053   3.556   2.026   6.060  0.7351 -0.1657 -0.3365
 2572SOL    HW210054   3.507   2.023   5.978  0.6559 -1.9419 -0.2580
 2572SOL    HW310055   3.521   1.954   6.112  2.0186 -0.1929  0.5450
 2572SOL    MW410056   3.545   2.016   6.056  0.8940 -0.4036 -0.2098
 2573SOL     OW10057   5.959   1.165  -0.010  0.6901 -0.2273  0.0571
 2573SOL    HW210058   5.972   1.258   0.009  0.3286 -0.1129 -0.2361
 2573SOL    HW310059   5.955   1.124   0.076 -0.4190  0.2138  0.2361
 2573SOL    MW410060   5.960   1.172   0.004  0.4961 -0.1540  0.0421
 2574SOL     OW10061   1.984   0.821   0.518 -0.2064  0.2201 -0.3949
 2574SOL    HW210062   2.016   0.778   0.438  1.4045  0.5528  0.0453
 2574SOL    HW310063   2.045   0.794   0.586 -0.9293  0.8264  0.5180
 2574SOL    MW410064   1.996   0.812   0.516 -0.0892  0.3440 -0.2164
 2575SOL     OW10065   3.987   2.345   3.342  0.0684 -0.1334  0.1107
 2575SOL    HW210066   3.971   2.378   3.254 -0.8205  1.3402  0.7782
 2575SOL    HW310067   4.072   2.302   3.337 -0.1361 -0.4040 -1.5429
 2575SOL    MW410068   3.996   2.344   3.330 -0.0759  0.0253 -0.0194
 2576SOL     OW10069   0.346   0.535   1.943  0.5886 -0.0608 -0.3747
 2576SOL    HW210070   0.341   0.630   1.952  0.4263 -0.0182 -0.8853
 2576SOL    HW310071   0.285   0.514   1.873  1.0631 -0.4793 -0.6707
 2576SOL    MW410072   0.338   0.544   1.935  0.6298 -0.1104 -0.4811
 2577SOL     OW10073   2.831   5.598   1.051 -0.0778 -0.4706  0.1456
 2577SOL    HW210074   2.807   5.678   1.097 -1.9584 -1.1116  0.3574
 2577SOL    HW310075   2.924   5.608   1.032 -0.2783  1.7941  0.0952
 2577SOL    MW410076   2.840   5.610   1.054 -0.3524 -0.2564  0.1669
 2578SOL     OW10077   4.717   3.139   0.683 -0.1260  0.2110 -0.0072
 2578SOL    HW210078   4.648   3.205   0.682 -0.0235  0.4268  1.9818
 2578SOL    HW310079   4.795   3.186   0.654 -0.3995  0.4906 -0.3063
 2578SOL    MW410080   4.718   3.154   0.679 -0.1486  0.2764  0.2158
 2579SOL     OW10081   5.736   3.120   2.644 -0.2558  0.0017  0.2809
 2579SOL    HW210082   5.671   3.052   2.625 -0.3451  0.5683 -1.5981
 2579SOL    HW310083   5.815   3.092   2.597 -0.0416  0.7753  0.1663
 2579SOL    MW410084   5.738   3.107   2.635 -0.2393  0.1785  0.0179
 2580SOL     OW10085   0.063   3.666   1.173  0.0878  0.6054 -0.1213
 2580SOL    HW210086   0.032   3.594   1.118 -0.2167  1.1136 -0.6293
 2580SOL    HW310087   0.153   3.682   1.143 -1.0508  2.9397 -2.7266
 2580SOL    MW410088   0.071   3.659   1.162 -0.1026  0.9804 -0.5321
 2581SOL     OW10089   2.846   0.134   5.961  0.1121 -0.5673 -0.0129
 2581SOL    HW210090   2.922   0.126   6.019  0.8326  0.6915 -0.7298
 2581SOL    HW310091   2.864   0.073   5.889  0.4544 -0.2876 -0.1702
 2581SOL    MW410092   2.858   0.125   5.959  0.2523 -0.3643 -0.1282
 2582SOL     OW10093   2.973   0.048   4.509 -0.4407  0.0637  0.2466
 2582SOL    HW210094   2.924   0.068   4.429  0.1802  0.3218 -0.0802
 2582SOL    HW310095   2.915   0.074   4.580 -0.6685  0.6299 -0.1378
 2582SOL    MW410096   2.959   0.054   4.508 -0.3889  0.1725  0.1528
 2583SOL     OW10097   1.360   0.100   3.972  0.3934  0.2815  0.3427
 2583SOL    HW210098   1.371   0.194   3.962  1.0888  0.0587 -1.3141
 2583SOL    HW310099   1.444   0.063   3.943  1.0172 -0.7756  3.1530
 2583SOL    MW410100   1.373   0.107   3.967  0.5674  0.1127  0.4949
 2584SOL     OW10101   4.228   2.293   6.182  0.7645 -0.2723  0.2169
 2584SOL    HW210102   4.267   2.221   6.132  1.3165 -1.0234  1.6726
 2584SOL    HW310103   4.134   2.275   6.180  0.7722 -0.2854 -0.5285
 2584SOL    MW410104   4.221   2.281   6.175  0.8384 -0.3731  0.3106
 2585SOL     OW10105   1.272   2.263   5.915  0.2043  0.1966  0.3724
 2585SOL    HW210106   1.342   2.316   5.952 -1.3324  2.1772  0.6315
 2585SOL    HW310107   1.254   2.196   5.982  3.1120 -1.6686 -0.5551
 2585SOL    MW410108   1.279   2.261   5.929  0.3852  0.2118  0.2842
 2586SOL     OW10109   2.820   1.643   2.006 -0.0586 -0.2081 -0.2130
 2586SOL    HW210110   2.805   1.549   1.998 -2.9226  0.0189  1.2635
 2586SOL    HW310111   2.763   1.682   1.939 -1.6386  0.5244  1.4719
 2586SOL    MW410112   2.810   1.636   1.996 -0.6450 -0.0815  0.2041
 2587SOL     OW10113   5.443   3.057   4.313  0.7662 -0.1225  0.2545
 2587SOL    HW210114   5.350   3.047   4.294  0.7926 -0.0430  0.0793
 2587SOL    HW310115   5.450   3.140   4.360  0.9828  0.8784 -1.4682
 2587SOL    MW410116   5.432   3.066   4.317  0.7982  0.0201  0.0041
 2588SOL     OW10117   2.861   5.035   5.125 -0.5809 -0.2163  0.7877
 2588SOL    HW210118   2.899   5.122   5.134  0.8014 -0.8121  0.9680
 2588SOL    HW310119   2.932   4.980   5.092 -1.9605 -0.8783 -1.2865
 2588SOL    MW410120   2.875   5.039   5.122 -0.5805 -0.3823  0.5378
 2589SOL     OW10121   0.947   2.804   0.195 -0.4002 -0.3068  0.9545
 2589SOL    HW210122   0.851   2.808   0.203 -0.3418 -0.2496  1.7086
 2589SOL    HW310123   0.977   2.889   0.225 -0.1385 -0.0887  0.0995
 2589SOL    MW410124   0.938   2.816   0.200 -0.3580 -0.2705  0.9412
 2590SOL     OW10125   5.717   2.564   2.142  0.3075 -0.2760  0.0528
 2590SOL    HW210126   5.777   2.611   2.200  0.1648  0.4593 -0.3911
 2590SOL    HW310127   5.738   2.596   2.054 -0.4737 -0.2900 -0.1433
 2590SOL    MW410128   5.728   2.574   2.138  0.1856 -0.1808 -0.0316
 2591SOL     OW10129   1.437   3.663   5.017 -0.5630  0.3433 -0.0947
 2591SOL    HW210130   1.530   3.644   5.009 -0.7288 -0.6038  0.0536
 2591SOL    HW310131   1.398   3.624   4.939 -1.1532 -1.7411  1.1393
 2591SOL    MW410132   1.444   3.655   5.006 -0.6627 -0.0567  0.0877
 2592SOL     OW10133   0.767   2.150   5.763  0.1353  0.0509 -0.4332
 2592SOL    HW210134   0.802   2.151   5.852 -0.3895 -1.1689 -0.1994
 2592SOL    HW310135   0.844   2.147   5.707  0.4419 -1.1102  0.0371
 2592SOL    MW410136   0.782   2.150   5.767  0.1065 -0.2632 -0.3403
 2593SOL     OW10137   3.657   2.614   1.281  0.5170  0.2579  0.0105
 2593SOL    HW210138   3.662   2.523   1.310  4.1580  1.0032  2.5217
 2593SOL    HW310139   3.704   2.615   1.198 -1.0860 -0.3514 -0.9404
 2593SOL    MW410140   3.664   2.602   1.274  0.7859  0.2759  0.2163
 2594SOL     OW10141   0.619   2.355   5.636 -0.0926  0.5944 -0.0296
 2594SOL    HW210142   0.674   2.278   5.652 -0.5579  0.0594 -0.9616
 2594SOL    HW310143   0.566   2.362   5.716  0.6889  0.5873  0.5065
 2594SOL    MW410144   0.620   2.345   5.649 -0.0509  0.5228 -0.0818
 2595SOL     OW10145   0.810   4.119   1.123  0.8343  0.7338 -0.2052
 2595SOL    HW210146   0.858   4.053   1.172 -1.2683 -1.8555 -1.3368
 2595SOL    HW310147   0.870   4.148   1.054  1.7322 -0.1671  0.1920
 2595SOL    MW410148   0.824   4.114   1.120  0.6753  0.2733 -0.3021
 2596SOL     OW10149   3.625   5.231   0.372 -0.1091  0.5315  0.0520
 2596SOL    HW210150   3.620   5.263   0.282  0.3588  1.2351  0.2718
 2596SOL    HW310151   3.609   5.308   0.426 -0.4152  0.1061  0.5802
 2596SOL    MW410152   3.622   5.245   0.367 -0.0878  0.5682  0.1507
 2597SOL     OW10153   0.576   5.615   0.909 -0.3306 -0.1679  0.0309
 2597SOL    HW210154   0.564   5.527   0.946  0.8756 -1.0091 -1.4994
 2597SOL    HW310155   0.506   5.623   0.844  0.9552 -0.9508 -1.4896
 2597SOL    MW410156   0.565   5.604   0.905 -0.0018 -0.3822 -0.3716
 2598SOL     OW10157   1.208   5.182   1.485  0.3573 -0.0017  0.3323
 2598SOL    HW210158   1.138   5.245   1.472 -1.0823 -1.7058 -0.6743
 2598SOL    HW310159   1.177   5.102   1.441  1.7698 -1.6238  2.1040
 2598SOL    MW410160   1.195   5.180   1.477  0.3537 -0.4405  0.4332
 2599SOL     OW10161   3.605   1.457   1.178 -0.8988  0.1196  0.5117
 2599SOL    HW210162   3.587   1.536   1.126 -0.4158 -0.4556 -0.5722
 2599SOL    HW310163   3.679   1.416   1.133 -2.4472 -2.0709 -0.2132
 2599SOL    MW410164   3.613   1.462   1.165 -1.0394 -0.2453  0.2731
 2600SOL     OW10165   4.624   6.078   2.247 -0.0114  0.0693 -0.1937
 2600SOL    HW210166   4.711   6.099   2.281  0.1411 -1.3291  0.3384
 2600SOL    HW310167   4.640   6.018   2.174 -0.4677  1.1085 -1.1833
 2600SOL    MW410168   4.637   6.073   2.242 -0.0515  0.0219 -0.2540
 2601SOL     OW10169   3.061   6.120   2.784 -0.1768  0.1538  0.4789
 2601SOL    HW210170   3.013   6.042   2.755  0.0133  0.5015 -0.8367
 2601SOL    HW310171   2.993   6.180   2.815 -0.6233  0.6089 -1.2850
 2601SOL    MW410172   3.046   6.117   2.784 -0.2106  0.2597  0.0726
 2602SOL     OW10173   2.858   1.932   3.024  0.2952  0.1968 -0.0770
 2602SOL    HW210174   2.798   1.859   3.008 -0.4967  0.9007 -0.4212
 2602SOL    HW310175   2.875   1.929   3.118 -0.0787 -0.1621 -0.0156
 2602SOL    MW410176   2.853   1.922   3.034  0.1414  0.2423 -0.1143
 2603SOL     OW10177   6.310   3.431   2.218 -0.2851 -0.6928 -0.2517
 2603SOL    HW210178   6.302   3.355   2.275  0.0250 -0.6838 -0.1972
 2603SOL    HW310179   6.332   3.503   2.277 -2.3228 -0.1727 -0.0349
 2603SOL    MW410180   6.312   3.431   2.234 -0.5130 -0.6230 -0.2159
 2604SOL     OW10181   0.816   0.864   4.839  0.0486  0.2107  0.7836
 2604SOL    HW210182   0.722   0.858   4.858 -0.1695  0.1449 -0.2969
 2604SOL    HW310183   0.829   0.955   4.813  0.2337  0.1523  0.6736
 2604SOL    MW410184   0.805   0.875   4.838  0.0442  0.1943  0.6265
 2605SOL     OW10185   6.078   4.733   1.441 -0.6202  0.3867  0.5286
 2605SOL    HW210186   6.118   4.817   1.419  2.2830 -0.7640  0.8697
 2605SOL    HW310187   6.039   4.747   1.528 -0.0486  1.3539  0.6459
 2605SOL    MW410188   6.078   4.746   1.450 -0.1617  0.3625  0.5891
 2606SOL     OW10189   2.948   5.796   0.479 -0.3162  0.3589  0.1754
 2606SOL    HW210190   2.985   5.762   0.398 -0.6327 -0.8336  0.5153
 2606SOL    HW310191   2.923   5.886   0.457 -0.3027  0.0949 -1.0128
 2606SOL    MW410192   2.950   5.803   0.465 -0.3562  0.1667  0.0635
 2607SOL     OW10193   1.760   2.237   1.044  0.1425 -0.0867  0.2755
 2607SOL    HW210194   1.689   2.285   1.087 -0.1618  0.8562 -1.2260
 2607SOL    HW310195   1.840   2.276   1.080 -0.1036  0.7919 -0.1125
 2607SOL    MW410196   1.761   2.248   1.055  0.0699  0.1536  0.0262
 2608SOL     OW10197   1.130   4.967   3.173  0.0422 -0.3300  0.1903
 2608SOL    HW210198   1.161   4.980   3.083 -0.9277 -1.2550 -0.2906
 2608SOL    HW310199   1.072   5.042   3.189 -0.2299 -0.4574 -0.1699
 2608SOL    MW410200   1.126   4.979   3.163 -0.1216 -0.4688  0.0793
 2609SOL     OW10201   3.123   5.461   4.642  0.2059  0.0404  0.2200
 2609SOL    HW210202   3.085   5.428   4.724 -0.7572 -1.8964 -0.9210
 2609SOL    HW310203   3.072   5.539   4.623 -1.0033 -0.6614  0.4365
 2609SOL    MW410204   3.111   5.467   4.651 -0.0807 -0.3077  0.0981
 2610SOL     OW10205   1.319   3.801   0.778 -0.8404  0.0504  0.3242
 2610SOL    HW210206   1.378   3.840   0.842  0.6445 -1.4021 -0.0958
 2610SOL    HW310207   1.361   3.719   0.753 -2.7505 -0.7478 -0.4712
 2610SOL    MW410208   1.333   3.795   0.783 -0.8965 -0.2465  0.1638
 2611SOL     OW10209   4.949   3.363   5.333  0.0359 -0.0427 -0.0276
 2611SOL    HW210210   5.043   3.352   5.345  0.0425 -1.0842 -0.8708
 2611SOL    HW310211   4.921   3.283   5.289 -1.4553 -0.2796  1.2767
 2611SOL    MW410212   4.957   3.351   5.329 -0.1600 -0.2114  0.0332
 2612SOL     OW10213   3.724   0.350   5.887  0.1215  0.4354 -1.0698
 2612SOL    HW210214   3.703   0.437   5.852 -1.0449 -0.4752 -2.7607
 2612SOL    HW310215   3.820   0.345   5.881  0.2687  1.7998 -0.3795
 2612SOL    MW410216   3.734   0.361   5.881 -0.0130  0.4953 -1.2018
 2613SOL     OW10217   5.402   1.137   0.367 -0.4033  0.1425  0.5643
 2613SOL    HW210218   5.371   1.116   0.455  0.1829  0.7701  0.9202
 2613SOL    HW310219   5.484   1.089   0.358 -1.0791 -0.9658 -0.1345
 2613SOL    MW410220   5.408   1.128   0.378 -0.4151  0.0791  0.5191
 2614SOL     OW10221   2.573   5.456   0.105  0.5112 -0.3187  0.4444
 2614SOL    HW210222   2.634   5.433   0.175  2.1124 -0.9625 -1.0739
 2614SOL    HW310223   2.618   5.430   0.025 -1.6318 -0.4594 -0.7925
 2614SOL    MW410224   2.587   5.449   0.104  0.4397 -0.4222  0.0809
 2615SOL     OW10225   5.928   1.598   4.484 -1.0411  0.1416  0.4038
 2615SOL    HW210226   5.836   1.583   4.505 -0.9096  0.8531  1.5792
 2615SOL    HW310227   5.962   1.512   4.459 -2.0109 -0.1269 -0.0143
 2615SOL    MW410228   5.921   1.585   4.483 -1.1517  0.2001  0.5037
 2616SOL     OW10229   5.281   5.825   0.283 -0.0091 -0.5610  0.3423
 2616SOL    HW210230   5.289   5.872   0.200 -0.5777  0.7521  1.0116
 2616SOL    HW310231   5.278   5.732   0.258 -0.5760 -0.1652 -1.1279
 2616SOL    MW410232   5.282   5.819   0.269 -0.1589 -0.3355  0.2366
 2617SOL     OW10233   5.828   4.003   5.248 -0.6343  0.2488 -0.0939
 2617SOL    HW210234   5.858   3.916   5.219 -0.1549  0.5624 -0.5625
 2617SOL    HW310235   5.908   4.048   5.276 -1.1701 -0.3979  2.8312
 2617SOL    MW410236   5.843   3.997   5.248 -0.6418  0.2049  0.2302
 2618SOL     OW10237   1.203   6.217   4.552 -0.0213  0.4755 -0.3624
 2618SOL    HW210238   1.180   6.203   4.460  1.2232 -0.5416 -0.5560
 2618SOL    HW310239   1.225   6.310   4.557 -0.3269  0.5923 -1.0465
 2618SOL    MW410240   1.203   6.227   4.541  0.1026  0.3567 -0.4782
 2619SOL     OW10241   1.017   2.525   4.829  0.1785  0.2118 -0.0772
 2619SOL    HW210242   1.086   2.506   4.892 -0.3628 -0.2883  0.3892
 2619SOL    HW310243   0.996   2.440   4.790 -1.0840  0.0938  0.7686
 2619SOL    MW410244   1.023   2.511   4.832 -0.0595  0.1302  0.0959
 2620SOL     OW10245   5.446   2.217   5.916 -0.2566  0.0623  0.0076
 2620SOL    HW210246   5.432   2.242   5.824  0.0656 -2.6707 -0.8701
 2620SOL    HW310247   5.514   2.150   5.912 -0.7249 -0.6069  2.1948
 2620SOL    MW410248   5.453   2.212   5.903 -0.2759 -0.3866  0.1804
 2621SOL     OW10249   1.681   3.248   0.097  0.4989 -0.0479  0.1683
 2621SOL    HW210250   1.706   3.237   0.189  1.5749 -3.3928 -0.3672
 2621SOL    HW310251   1.714   3.169   0.054 -1.8444  0.3722 -2.7283
 2621SOL    MW410252   1.689   3.236   0.103  0.3317 -0.4338 -0.2845
 2622SOL     OW10253   1.186   3.528   2.610  0.3661  0.0520  0.2397
 2622SOL    HW210254   1.211   3.436   2.606 -0.4248 -0.1627 -0.0753
 2622SOL    HW310255   1.090   3.526   2.605  0.2716  0.8288  1.3229
 2622SOL    MW410256   1.176   3.515   2.609  0.2493  0.1261  0.3411
 2623SOL     OW10257   3.714   5.607   2.008 -0.1904 -0.1471  0.3306
 2623SOL    HW210258   3.673   5.679   1.961  0.2318  1.2858  2.0706
 2623SOL    HW310259   3.808   5.618   1.993 -0.1093 -0.2112  0.7855
 2623SOL    MW410260   3.721   5.618   2.000 -0.1240  0.0335  0.6202
 2624SOL     OW10261   5.682   2.972   1.897 -0.1622 -0.4906  0.3243
 2624SOL    HW210262   5.626   3.043   1.864  0.1163  0.0897  1.0884
 2624SOL    HW310263   5.691   2.989   1.991  0.0664 -1.4330  0.4883
 2624SOL    MW410264   5.675   2.984   1.905 -0.0953 -0.5384  0.4467
 2625SOL     OW10265   4.379   0.903   5.549  0.0879 -0.2293  0.0255
 2625SOL    HW210266   4.379   0.814   5.513  2.5079  0.0384 -0.8117
 2625SOL    HW310267   4.398   0.891   5.642 -0.6077 -0.6384  0.1207
 2625SOL    MW410268   4.382   0.889   5.556  0.3154 -0.2480 -0.0724
 2626SOL     OW10269   0.806   1.245   2.378 -0.1147 -0.2340  0.0992
 2626SOL    HW210270   0.732   1.289   2.419 -0.0652 -1.5933  1.7995
 2626SOL    HW310271   0.777   1.226   2.289 -1.4151  0.1776  0.4224
 2626SOL    MW410272   0.793   1.248   2.372 -0.2797 -0.3591  0.3662
 2627SOL     OW10273   5.893   6.338   0.091 -0.0705 -0.2608 -0.1467
 2627SOL    HW210274   5.833   6.264   0.084  0.0207 -0.5522  1.5589
 2627SOL    HW310275   5.878   6.390   0.013 -2.9084 -0.0608  0.4382
 2627SOL    MW410276   5.883   6.335   0.080 -0.4329 -0.2729  0.1555
 2628SOL     OW10277   0.603   1.748   3.581 -0.0351  0.1053  0.3620
 2628SOL    HW210278   0.692   1.723   3.555  0.4373  0.4279  1.6252
 2628SOL    HW310279   0.588   1.832   3.537  0.2913  0.0625  0.1654
 2628SOL    MW410280   0.612   1.755   3.572  0.0703  0.1422  0.5027
 2629SOL     OW10281   2.650   3.117   5.402  0.4173 -0.2491  0.0141
 2629SOL    HW210282   2.644   3.025   5.378 -0.6312 -0.4526  0.9760
 2629SOL    HW310283   2.613   3.164   5.328 -0.4783 -0.7024  0.1690
 2629SOL    MW410284   2.645   3.111   5.389  0.1608 -0.3357  0.1614
 2630SOL     OW10285   5.386   0.281   1.671 -0.4310 -0.4323 -0.1193
 2630SOL    HW210286   5.473   0.293   1.710 -0.5074 -0.1117 -0.0475
 2630SOL    HW310287   5.396   0.204   1.615  0.1569  0.1322 -0.8217
 2630SOL    MW410288   5.399   0.273   1.668 -0.3635 -0.3155 -0.2025
 2631SOL     OW10289   3.255   4.232   3.932 -0.0894 -0.5093 -0.5612
 2631SOL    HW210290   3.215   4.153   3.969 -0.4236 -0.8617 -1.6370
 2631SOL    HW310291   3.343   4.235   3.969 -0.8124 -0.1279  1.2740
 2631SOL    MW410292   3.261   4.222   3.942 -0.2289 -0.5055 -0.4610
 2632SOL     OW10293   4.244   2.835   1.108 -0.8500  0.3187 -0.4751
 2632SOL    HW210294   4.311   2.767   1.102 -1.6563 -0.3515 -3.2774
 2632SOL    HW310295   4.240   2.857   1.201  2.8706  0.0464 -0.1184
 2632SOL    MW410296   4.252   2.829   1.120 -0.4655  0.1943 -0.7977
 2633SOL     OW10297   2.852   4.680   5.482  0.2439 -0.1227  0.5040
 2633SOL    HW210298   2.862   4.679   5.387  1.1536 -1.3482  0.5839
 2633SOL    HW310299   2.816   4.767   5.502 -2.4921 -0.7639 -1.1622
 2633SOL    MW410300   2.849   4.692   5.472  0.0030 -0.3690  0.2947
 2634SOL     OW10301   3.010   1.384   4.028  0.3518 -0.2664 -0.0212
 2634SOL    HW210302   2.936   1.325   4.018  0.4466 -0.1314 -1.8547
 2634SOL    HW310303   2.981   1.447   4.095 -0.9666 -0.5490 -0.2881
 2634SOL    MW410304   2.996   1.385   4.036  0.1904 -0.2858 -0.2983
 2635SOL     OW10305   1.024   4.741   1.450 -0.2582 -0.7009 -0.3665
 2635SOL    HW210306   0.932   4.714   1.460 -0.5098 -0.6635 -2.1706
 2635SOL    HW310307   1.025   4.792   1.369  1.3093 -0.4163 -0.1971
 2635SOL    MW410308   1.012   4.744   1.440 -0.0846 -0.6584 -0.5822
 2636SOL     OW10309   4.223   3.811   6.226 -0.2190 -0.0029 -0.0349
 2636SOL    HW210310   4.164   3.876   6.265 -2.0865 -1.2949 -0.5599
 2636SOL    HW310311   4.192   3.728   6.260  1.1709 -0.7645 -0.5588
 2636SOL    MW410312   4.211   3.809   6.236 -0.2820 -0.2738 -0.1733
 2637SOL     OW10313   0.243   1.234   3.124 -0.0980  0.8761 -0.3296
 2637SOL    HW210314   0.321   1.280   3.092 -0.5608  1.0794 -1.2000
 2637SOL    HW310315   0.173   1.261   3.064 -0.9827  1.1848  0.8142
 2637SOL    MW410316   0.244   1.243   3.112 -0.2758  0.9436 -0.2935
 2638SOL     OW10317   6.018   6.140   3.736  0.4844 -0.1105  0.2696
 2638SOL    HW210318   6.057   6.052   3.742  0.2320 -0.2646 -0.3058
 2638SOL    HW310319   6.082   6.197   3.780  2.0500 -0.1412 -1.8094
 2638SOL    MW410320   6.032   6.136   3.743  0.6577 -0.1349 -0.0807
 2639SOL     OW10321   4.207   0.223   4.484 -0.0629  0.4163 -0.0619
 2639SOL    HW210322   4.122   0.190   4.456 -0.1629  1.4544 -1.0263
 2639SOL    HW310323   4.246   0.261   4.405  1.7288 -0.9066  0.1251
 2639SOL    MW410324   4.201   0.224   4.470  0.1603  0.3787 -0.1645
 2640SOL     OW10325   0.571   1.291  -0.004 -0.6795  0.3421  0.3070
 2640SOL    HW210326   0.510   1.245  -0.061 -0.1468 -0.3792  0.3050
 2640SOL    HW310327   0.620   1.350  -0.062 -0.6502  0.1532  0.1416
 2640SOL    MW410328   0.570   1.293  -0.019 -0.6054  0.2220  0.2849
 2641SOL     OW10329   4.664   0.044   5.186 -0.5122  0.7897  0.3134
 2641SOL    HW210330   4.758   0.029   5.176 -0.2087  1.9846  1.1321
 2641SOL    HW310331   4.646   0.028   5.278 -1.5324 -1.3614 -0.1962
 2641SOL    MW410332   4.674   0.040   5.197 -0.6068  0.6636  0.3542
 2642SOL     OW10333   0.575   0.215   2.154  0.0555  0.4182  0.1440
 2642SOL    HW210334   0.566   0.206   2.249  0.1646  0.8687  0.1981
 2642SOL    HW310335   0.489   0.248   2.125 -0.7991 -1.9295 -0.2173
 2642SOL    MW410336   0.562   0.218   2.163 -0.0428  0.1679  0.1035
 2643SOL     OW10337   1.625   2.556   1.782  0.6552 -0.7884 -0.4538
 2643SOL    HW210338   1.708   2.560   1.830  0.5565 -0.7708 -0.2832
 2643SOL    HW310339   1.650   2.563   1.690  0.8156 -0.3968 -0.3838
 2643SOL    MW410340   1.640   2.558   1.776  0.6634 -0.7344 -0.4220
 2644SOL     OW10341   0.904   4.136   6.313 -0.0663 -0.2079  0.5096
 2644SOL    HW210342   0.868   4.157   6.227 -1.5181  0.2829  1.2078
 2644SOL    HW310343   0.916   4.221   6.356 -0.8911 -0.5052  1.3734
 2644SOL    MW410344   0.901   4.150   6.307 -0.3667 -0.1824  0.7157
 2645SOL     OW10345   3.975   4.504   1.005  0.4389  0.1744  0.2994
 2645SOL    HW210346   3.964   4.545   1.091  2.2329 -0.0613  0.6670
 2645SOL    HW310347   4.012   4.418   1.023  2.2486  0.6808 -0.7429
 2645SOL    MW410348   3.978   4.498   1.019  0.9144  0.2101  0.2104
 2646SOL     OW10349   5.844   4.852   5.822 -0.2623  0.2962 -0.5796
 2646SOL    HW210350   5.761   4.808   5.809  0.8204 -2.8571  1.8449
 2646SOL    HW310351   5.907   4.801   5.771  0.7680  0.1890  0.7555
 2646SOL    MW410352   5.842   4.840   5.813  0.0165 -0.1340 -0.0835
 2647SOL     OW10353   1.514   4.646   2.094  0.0240  0.1906  0.0235
 2647SOL    HW210354   1.517   4.619   2.003  1.1641 -1.1708  0.4199
 2647SOL    HW310355   1.459   4.580   2.137 -0.8576  1.0569  0.2648
 2647SOL    MW410356   1.507   4.634   2.088  0.0581  0.1253  0.1076
 2648SOL     OW10357   5.646   0.815   6.245  0.4012 -0.4883 -0.3849
 2648SOL    HW210358   5.660   0.859   6.329  0.0298 -0.0130 -0.5735
 2648SOL    HW310359   5.580   0.867   6.200 -2.8536 -3.1246  0.8692
 2648SOL    MW410360   5.639   0.827   6.250 -0.0772 -0.7734 -0.2444
 2649SOL     OW10361   5.613   3.560   4.577 -0.4730  0.1952 -0.6931
 2649SOL    HW210362   5.611   3.542   4.671  0.0990 -0.5016 -0.8073
 2649SOL    HW310363   5.706   3.560   4.554 -0.6542 -2.0498 -1.6811
 2649SOL    MW410364   5.625   3.557   4.586 -0.4215 -0.1929 -0.8385
 2650SOL     OW10365   0.257   0.928   0.005 -0.6110 -0.0531 -0.5062
 2650SOL    HW210366   0.214   0.858  -0.044  2.7581 -1.3712 -1.9224
 2650SOL    HW310367   0.264   0.893   0.094 -2.0546  0.0669 -0.3205
 2650SOL    MW410368   0.252   0.914   0.010 -0.3569 -0.2112 -0.6685
 2651SOL     OW10369   3.749   1.952   3.034  0.1659 -0.0944 -0.3092
 2651SOL    HW210370   3.663   1.910   3.032 -0.2851  0.4697  2.9223
 2651SOL    HW310371   3.731   2.043   3.057  1.5793  0.2118 -0.3300
 2651SOL    MW410372   3.736   1.958   3.037  0.2929  0.0205  0.1144
 2652SOL     OW10373   3.128   2.864   2.541  0.2184 -0.1888  0.5057
 2652SOL    HW210374   3.094   2.830   2.624 -0.2684  0.4994  0.6009
 2652SOL    HW310375   3.151   2.955   2.560 -0.4832  0.1652 -0.2564
 2652SOL    MW410376   3.126   2.871   2.555  0.0616 -0.0513  0.4177
 2653SOL     OW10377   2.852   2.410   6.278 -0.4506  0.4952 -0.1175
 2653SOL    HW210378   2.849   2.325   6.233  1.6275  1.1453 -1.6553
 2653SOL    HW310379   2.879   2.389   6.367 -0.9124 -0.5352 -0.2054
 2653SOL    MW410380   2.855   2.396   6.284 -0.2373  0.4450 -0.3320
 2654SOL     OW10381   5.722   3.778   6.122 -0.5315 -0.0659 -0.1412
 2654SOL    HW210382   5.642   3.735   6.152 -1.1514  0.7028 -0.6522
 2654SOL    HW310383   5.740   3.845   6.188 -1.1120  0.6971 -0.7401
 2654SOL    MW410384   5.714   3.781   6.135 -0.6899  0.1362 -0.2876
 2655SOL     OW10385   5.089   2.008   1.725 -0.1789  0.4438  0.3258
 2655SOL    HW210386   5.177   1.971   1.727 -0.1963 -0.0172 -2.7587
 2655SOL    HW310387   5.037   1.947   1.778  0.8781 -0.7983 -0.0038
 2655SOL    MW410388   5.093   1.995   1.732 -0.0417  0.2191 -0.1246
 2656SOL     OW10389   5.352   3.844   0.575  0.0219 -0.2732  0.6412
 2656SOL    HW210390   5.309   3.787   0.512 -0.4440  1.1271 -0.3678
 2656SOL    HW310391   5.319   3.932   0.555  1.2344  0.4618  1.6626
 2656SOL    MW410392   5.342   3.848   0.564  0.1204  0.0085  0.6428
 2657SOL     OW10393   2.644   4.272   5.173  0.0813  0.1670  0.4840
 2657SOL    HW210394   2.658   4.256   5.266  2.8520 -0.2741  0.0822
 2657SOL    HW310395   2.588   4.199   5.145  1.4618 -1.3102  1.3389
 2657SOL    MW410396   2.639   4.260   5.182  0.6290 -0.0861  0.5438
 2658SOL     OW10397   1.731   1.403   1.830  0.2218 -0.6066  0.4841
 2658SOL    HW210398   1.756   1.454   1.753 -1.5744 -1.1354 -0.5150
 2658SOL    HW310399   1.724   1.467   1.901 -0.6235  0.3407 -0.4161
 2658SOL    MW410400   1.733   1.418   1.829 -0.1267 -0.5514  0.2335
 2659SOL     OW10401   1.690   4.276   3.898 -0.1471 -0.1827 -0.6316
 2659SOL    HW210402   1.737   4.348   3.939 -0.0644  0.1699 -1.3306
 2659SOL    HW310403   1.623   4.251   3.962  1.3842 -1.1451  0.6786
 2659SOL    MW410404   1.687   4.282   3.912  0.0658 -0.2631 -0.5510
 2660SOL     OW10405   5.738   3.540   2.622  0.3066  0.1405 -0.3653
 2660SOL    HW210406   5.799   3.612   2.604  1.1294 -0.4038  0.1253
 2660SOL    HW310407   5.667   3.580   2.672  1.2534  0.4575  0.7840
 2660SOL    MW410408   5.737   3.555   2.626  0.5401  0.1105 -0.1489
 2661SOL     OW10409   1.198   5.197   5.292 -0.3285 -0.2047 -0.1440
 2661SOL    HW210410   1.220   5.176   5.383  0.4199  1.4708  0.0973
 2661SOL    HW310411   1.224   5.119   5.243  1.2995 -0.3082  0.8123
 2661SOL    MW410412   1.204   5.184   5.298 -0.0149  0.0027  0.0140
 2662SOL     OW10413   5.997   1.503   2.810 -0.1189  0.0671  0.0163
 2662SOL    HW210414   5.904   1.499   2.832 -0.1393  1.5604  0.2913
 2662SOL    HW310415   6.032   1.573   2.864  1.2761 -0.7663  0.2358
 2662SOL    MW410416   5.989   1.512   2.820  0.0624  0.1542  0.0816
 2663SOL     OW10417   1.022   0.738   4.729 -0.7666  0.2550 -0.0527
 2663SOL    HW210418   0.965   0.802   4.772 -1.3760 -0.1308 -0.2754
 2663SOL    HW310419   0.966   0.662   4.714  0.1993 -0.7175  1.0770
 2663SOL    MW410420   1.008   0.737   4.732 -0.7196  0.0758  0.0670
 2664SOL     OW10421   4.557   2.151   3.744 -1.0727 -0.3021  0.0232
 2664SOL    HW210422   4.516   2.222   3.694 -0.1365  0.3481  0.1544
 2664SOL    HW310423   4.600   2.097   3.678  0.7204  0.9172  0.1087
 2664SOL    MW410424   4.557   2.154   3.728 -0.7126 -0.0554  0.0518
 2665SOL     OW10425   2.400   1.634   2.881  1.0366 -0.0140 -0.0881
 2665SOL    HW210426   2.434   1.706   2.829 -0.9739 -0.2029 -1.7703
 2665SOL    HW310427   2.379   1.674   2.966 -1.7514  1.9612 -1.5310
 2665SOL    MW410428   2.402   1.649   2.886  0.4035  0.2216 -0.5004
 2666SOL     OW10429   5.389   3.165   3.558  0.0197  0.2281 -0.0971
 2666SOL    HW210430   5.438   3.187   3.638 -0.1973  0.7991 -0.1190
 2666SOL    HW310431   5.399   3.070   3.550 -0.5346  0.0526  1.0044
 2666SOL    MW410432   5.397   3.156   3.568 -0.0821  0.2803  0.0453
 2667SOL     OW10433   4.430   2.509   1.489 -0.3579  0.4092 -0.0602
 2667SOL    HW210434   4.450   2.601   1.507  0.5090  0.3588 -0.7010
 2667SOL    HW310435   4.380   2.511   1.408 -0.2687  0.3147 -0.1182
 2667SOL    MW410436   4.426   2.521   1.481 -0.2318  0.3901 -0.1524
 2668SOL     OW10437   4.632   3.447   4.798 -0.5026 -0.1189 -0.0663
 2668SOL    HW210438   4.569   3.511   4.831 -1.0321 -0.8365  0.3368
 2668SOL    HW310439   4.605   3.364   4.838  0.3707 -0.5337 -0.3213
 2668SOL    MW410440   4.620   3.445   4.808 -0.4572 -0.2683 -0.0467
 2669SOL     OW10441   6.070   3.669   1.180  0.0662 -0.4806 -0.2242
 2669SOL    HW210442   6.109   3.587   1.212  0.0588 -0.2519  0.3876
 2669SOL    HW310443   6.113   3.738   1.232 -0.6107 -0.1723 -0.0607
 2669SOL    MW410444   6.081   3.667   1.191 -0.0241 -0.4098 -0.1219
 2670SOL     OW10445   4.843   2.866   0.716  0.3750  0.1322 -0.0814
 2670SOL    HW210446   4.792   2.947   0.727 -1.0782 -0.8272  0.6451
 2670SOL    HW310447   4.925   2.883   0.761 -0.2738  0.8892  0.8640
 2670SOL    MW410448   4.847   2.879   0.723  0.0977  0.1055  0.1392
 2671SOL     OW10449   2.431   4.696   0.416  0.2034 -0.8914 -0.5029
 2671SOL    HW210450   2.474   4.697   0.331  0.3450  0.6498 -0.4379
 2671SOL    HW310451   2.467   4.772   0.463 -1.3036 -0.5561  0.1803
 2671SOL    MW410452   2.441   4.706   0.411  0.0233 -0.6438 -0.4042
 2672SOL     OW10453   1.762   4.870   1.538  0.2018  0.4373  0.5603
 2672SOL    HW210454   1.668   4.852   1.534  0.1131  1.0977 -1.4085
 2672SOL    HW310455   1.798   4.797   1.588 -0.9860 -1.5451 -1.2877
 2672SOL    MW410456   1.754   4.858   1.544  0.0334  0.2629  0.0567
 2673SOL     OW10457   4.862   3.677   5.991  0.2618 -0.2867  0.9029
 2673SOL    HW210458   4.912   3.748   5.950  0.0120 -0.0833  0.9487
 2673SOL    HW310459   4.828   3.716   6.072  0.3378 -0.5368  1.0568
 2673SOL    MW410460   4.864   3.691   5.997  0.2389 -0.2929  0.9293
 2674SOL     OW10461   0.281   5.036   0.557 -0.1053  0.0917  0.5897
 2674SOL    HW210462   0.376   5.025   0.560 -0.2428 -1.1061  0.8937
 2674SOL    HW310463   0.258   5.026   0.465  0.1238  1.0292  0.4205
 2674SOL    MW410464   0.291   5.033   0.545 -0.0932  0.0573  0.6075
 2675SOL     OW10465   4.397   2.112   4.801  0.1106  0.0732 -0.1017
 2675SOL    HW210466   4.349   2.039   4.839  0.5971 -0.5749 -0.6965
 2675SOL    HW310467   4.474   2.122   4.857  0.6365 -0.6386 -0.6771
 2675SOL    MW410468   4.401   2.104   4.813  0.2442 -0.1062 -0.2561
 2676SOL     OW10469   1.518   6.364   2.825  0.0187  0.0573 -0.0467
 2676SOL    HW210470   1.580   6.354   2.898 -0.2936  1.1435  0.3875
 2676SOL    HW310471   1.536   6.451   2.791  1.2466 -1.0047 -2.3273
 2676SOL    MW410472   1.529   6.374   2.830  0.1395  0.0605 -0.2903
 2677SOL     OW10473   1.796   5.219   0.959  0.2241 -0.1025 -0.3326
 2677SOL    HW210474   1.880   5.253   0.987  0.1736  2.2650 -2.6876
 2677SOL    HW310475   1.807   5.201   0.866 -1.2933 -1.8504 -0.2490
 2677SOL    MW410476   1.808   5.221   0.950  0.0172 -0.0207 -0.6323
 2678SOL     OW10477   3.005   3.524   2.783  0.1725 -0.7447  0.4443
 2678SOL    HW210478   2.943   3.453   2.762 -0.0658 -1.0069  1.9546
 2678SOL    HW310479   2.991   3.542   2.876  1.3434  0.2148  0.4602
 2678SOL    MW410480   2.995   3.517   2.792  0.2955 -0.6527  0.6457
 2679SOL     OW10481   4.057   3.015   5.326  0.4522 -0.0011  0.3635
 2679SOL    HW210482   3.991   3.004   5.394 -0.8408 -0.4739 -0.9222
 2679SOL    HW310483   4.008   3.045   5.250  1.3632 -2.3346 -1.2430
 2679SOL    MW410484   4.042   3.017   5.325  0.4018 -0.3714 -0.0181
 2680SOL     OW10485   0.825   2.031   1.741  0.2924 -0.4859 -0.2951
 2680SOL    HW210486   0.908   2.070   1.769 -0.3316 -0.0841  1.0625
 2680SOL    HW310487   0.842   1.937   1.741  0.7870 -0.3997 -0.1167
 2680SOL    MW410488   0.838   2.024   1.745  0.2753 -0.4215 -0.0924
 2681SOL     OW10489   5.995   6.249   5.797 -0.3649 -0.6490 -0.4693
 2681SOL    HW210490   6.005   6.190   5.871  1.1727  0.9657  0.6846
 2681SOL    HW310491   5.901   6.266   5.793 -0.7748 -2.6279 -0.4617
 2681SOL    MW410492   5.984   6.243   5.806 -0.2161 -0.6970 -0.3161
 2682SOL     OW10493   6.334   4.078   2.125  0.2823  0.1045  0.2918
 2682SOL    HW210494   6.274   4.026   2.073 -0.5677  0.8626  0.4789
 2682SOL    HW310495   6.421   4.045   2.102 -0.1944 -0.9942 -0.0032
 2682SOL    MW410496   6.338   4.067   2.115  0.1073  0.0596  0.2776
 2683SOL     OW10497   2.414   1.778   4.840  0.0337 -0.4889  0.5018
 2683SOL    HW210498   2.500   1.738   4.831  0.1103 -0.2669  0.2319
 2683SOL    HW310499   2.354   1.718   4.796  0.2768  0.1421 -0.7253
 2683SOL    MW410500   2.418   1.765   4.833  0.0759 -0.3764  0.3043
 2684SOL     OW10501   5.175   2.945   3.743 -0.1654 -0.4092  0.6474
 2684SOL    HW210502   5.214   3.013   3.798  2.2890 -2.5638  1.7869
 2684SOL    HW310503   5.150   2.876   3.804 -2.1491 -0.8029 -0.5158
 2684SOL    MW410504   5.176   2.945   3.758 -0.1033 -0.7454  0.6443
 2685SOL     OW10505   2.354   4.468   4.326  0.3508  0.6003  0.0494
 2685SOL    HW210506   2.401   4.385   4.335  0.9143  0.8635 -0.3653
 2685SOL    HW310507   2.285   4.464   4.392  0.4416 -0.1508  0.1058
 2685SOL    MW410508   2.351   4.457   4.336  0.4372  0.5359  0.0021
 2686SOL     OW10509   5.841   1.093   3.406 -0.7462 -0.0596 -0.1794
 2686SOL    HW210510   5.852   1.072   3.498 -1.9712 -0.0471 -0.0073
 2686SOL    HW310511   5.798   1.179   3.406 -0.2457  0.1989 -0.7719
 2686SOL    MW410512   5.837   1.102   3.418 -0.8418 -0.0238 -0.2349
 2687SOL     OW10513   4.058   4.344   5.539  0.1090 -0.4034  0.0664
 2687SOL    HW210514   3.970   4.309   5.538 -0.6876  1.4574 -2.3056
 2687SOL    HW310515   4.103   4.302   5.466  0.4552  0.3286 -0.1607
 2687SOL    MW410516   4.053   4.334   5.530  0.0496 -0.0613 -0.2765
 2688SOL     OW10517   4.871   1.666   0.756  0.5975  0.0938  0.4323
 2688SOL    HW210518   4.862   1.619   0.840  0.2120  3.3334  2.3797
 2688SOL    HW310519   4.781   1.689   0.733  0.8921  1.4663  0.5805
 2688SOL    MW410520   4.858   1.663   0.764  0.5855  0.7024  0.7088
 2689SOL     OW10521   0.203   2.275   5.831 -0.4008  0.0023 -0.0683
 2689SOL    HW210522   0.174   2.246   5.744 -1.0715 -0.0997  0.1874
 2689SOL    HW310523   0.295   2.248   5.835 -0.7971 -1.4394 -0.1358
 2689SOL    MW410524   0.211   2.267   5.820 -0.5416 -0.2014 -0.0435
 2690SOL     OW10525   5.515   3.293   5.206  0.3967  0.3055  0.0892
 2690SOL    HW210526   5.589   3.333   5.252  0.9552  1.0419 -1.4085
 2690SOL    HW310527   5.447   3.360   5.206 -0.4124 -0.4634  1.6969
 2690SOL    MW410528   5.516   3.307   5.212  0.3637  0.3012  0.1037
 2691SOL     OW10529   4.590   4.856   4.711 -0.4397  0.2307  0.0631
 2691SOL    HW210530   4.597   4.895   4.798 -2.3057  1.2150 -0.1741
 2691SOL    HW310531   4.571   4.763   4.727  2.0527 -0.2437  0.6422
 2691SOL    MW410532   4.588   4.849   4.724 -0.3571  0.2980  0.1082
 2692SOL     OW10533   5.326   5.953   1.598  0.5630  0.4902  0.1719
 2692SOL    HW210534   5.312   5.902   1.677  2.1753 -1.9509 -0.9584
 2692SOL    HW310535   5.409   5.999   1.613 -0.0163  1.4346  0.5357
 2692SOL    MW410536   5.335   5.952   1.610  0.6993  0.2927  0.0707
 2693SOL     OW10537   0.666   3.262   4.154 -0.1438 -0.2558  0.5663
 2693SOL    HW210538   0.681   3.349   4.193 -1.0351 -0.3375  1.1310
 2693SOL    HW310539   0.644   3.280   4.063  1.0939  0.0021  0.3004
 2693SOL    MW410540   0.665   3.276   4.147 -0.0981 -0.2325  0.6057
 2694SOL     OW10541   5.749   2.361   4.332  0.0398 -0.2609 -0.1424
 2694SOL    HW210542   5.756   2.355   4.427 -0.3945 -0.1972 -0.1024
 2694SOL    HW310543   5.785   2.279   4.300  1.3779  0.2381  0.0069
 2694SOL    MW410544   5.754   2.350   4.340  0.1591 -0.1867 -0.1174
 2695SOL     OW10545   5.939   1.555   2.258 -0.4251 -0.1150 -0.0166
 2695SOL    HW210546   6.000   1.624   2.231  0.4771 -0.8753 -0.0013
 2695SOL    HW310547   5.937   1.562   2.353 -1.0660  0.4781 -0.0661
 2695SOL    MW410548   5.947   1.565   2.267 -0.3906 -0.1370 -0.0211
 2696SOL     OW10549   5.327   2.535   3.129  0.0751  0.4803 -0.2760
 2696SOL    HW210550   5.389   2.523   3.058  1.2048 -0.2775  0.7975
 2696SOL    HW310551   5.381   2.547   3.207 -1.0733 -1.1205  0.8371
 2696SOL    MW410552   5.342   2.535   3.130  0.0726  0.1691  0.0125
 2697SOL     OW10553   4.827   0.923   1.514 -0.3226  0.6646 -0.4221
 2697SOL    HW210554   4.904   0.866   1.507 -0.5257  0.6025 -3.0090
 2697SOL    HW310555   4.861   1.005   1.551  0.4177 -0.2696  1.0730
 2697SOL    MW410556   4.841   0.926   1.518 -0.2517  0.5331 -0.5661
 2698SOL     OW10557   0.287   5.288   5.885 -0.2094  1.1056  0.0922
 2698SOL    HW210558   0.350   5.249   5.945 -0.0465 -0.4423 -1.0572
 2698SOL    HW310559   0.333   5.364   5.848  0.6092  0.5802  0.0107
 2698SOL    MW410560   0.301   5.293   5.888 -0.0799  0.8320 -0.0702
 2699SOL     OW10561   4.974   1.446   3.717  0.0214 -0.2710  0.3041
 2699SOL    HW210562   4.905   1.458   3.651  1.4284  0.8402 -1.0411
 2699SOL    HW310563   4.932   1.469   3.800 -0.8879  1.7286 -0.6516
 2699SOL    MW410564   4.959   1.450   3.719  0.0871  0.1394  0.0005
 2700SOL     OW10565   5.160   4.833   0.472 -0.1873  0.6030  0.1188
 2700SOL    HW210566   5.178   4.787   0.390 -0.9179 -0.3854  0.4925
 2700SOL    HW310567   5.232   4.807   0.530  0.1802  1.0857 -0.1124
 2700SOL    MW410568   5.172   4.824   0.469 -0.2352  0.5363  0.1376
 2701SOL     OW10569   0.005   3.056   4.452  0.8212 -0.2776 -0.1750
 2701SOL    HW210570   0.076   3.081   4.393  0.7743 -2.2641 -1.1336
 2701SOL    HW310571  -0.065   3.026   4.395 -0.3441  0.4363  0.8123
 2701SOL    MW410572   0.005   3.055   4.437  0.6613 -0.4455 -0.1712
 2702SOL     OW10573   2.907   0.407   0.401  0.1533  0.3982  0.4499
 2702SOL    HW210574   2.857   0.367   0.329  0.6490  0.0224  0.3023
 2702SOL    HW310575   2.911   0.338   0.467  1.1909  0.1127  0.1118
 2702SOL    MW410576   2.901   0.392   0.400  0.3556  0.3109  0.3858
 2703SOL     OW10577   6.019   4.695   5.679  0.1914 -0.1070  0.8101
 2703SOL    HW210578   6.022   4.611   5.723 -2.9490  0.3471  2.2297
 2703SOL    HW310579   6.104   4.705   5.637  1.7588 -2.5661  3.1598
 2703SOL    MW410580   6.030   4.685   5.679 -0.0162 -0.3715  1.3074
 2704SOL     OW10581   4.300   6.311   4.242  0.5805  0.2662 -0.1888
 2704SOL    HW210582   4.310   6.387   4.184 -1.3578 -0.5978 -1.7878
 2704SOL    HW310583   4.344   6.239   4.196  1.2893  0.1235  0.6925
 2704SOL    MW410584   4.307   6.312   4.228  0.4183  0.1334 -0.2835
 2705SOL     OW10585   0.506   5.587   6.014  0.1335  0.0278 -0.3138
 2705SOL    HW210586   0.515   5.670   5.967 -0.1029 -0.4518 -1.2217
 2705SOL    HW310587   0.540   5.521   5.954 -0.9071 -0.6945 -0.1252
 2705SOL    MW410588   0.512   5.589   6.000 -0.0350 -0.1308 -0.4087
 2706SOL     OW10589   5.152   0.909   3.416  0.2845  0.1668  0.1268
 2706SOL    HW210590   5.244   0.885   3.427 -0.0216 -1.4237 -0.4811
 2706SOL    HW310591   5.152   0.973   3.345  0.9484  0.5335  0.4419
 2706SOL    MW410592   5.164   0.914   3.408  0.3317  0.0053  0.0882
 2707SOL     OW10593   0.696   2.441   5.347  0.6315  0.1802 -0.1724
 2707SOL    HW210594   0.675   2.487   5.428  1.6112 -0.0640  0.2342
 2707SOL    HW310595   0.734   2.508   5.290  2.8268 -0.2346  0.7190
 2707SOL    MW410596   0.698   2.456   5.350  1.0504  0.0933 -0.0012
 2708SOL     OW10597   3.639   0.462   5.017  0.0223 -0.5743  0.0242
 2708SOL    HW210598   3.616   0.555   5.013  1.5635 -0.2165 -1.3281
 2708SOL    HW310599   3.729   0.461   5.050  0.3493 -1.5091 -0.8558
 2708SOL    MW410600   3.648   0.474   5.021  0.2688 -0.6505 -0.2703
 2709SOL     OW10601   3.854   2.207   1.943 -0.5285  0.1148  0.3317
 2709SOL    HW210602   3.938   2.173   1.913 -0.0218  1.9361 -0.4243
 2709SOL    HW310603   3.829   2.149   2.015  1.7721  0.0086  1.1194
 2709SOL    MW410604   3.862   2.195   1.949 -0.1581  0.3411  0.3359
 2710SOL     OW10605   4.143   3.624   2.537 -0.0266 -0.3749 -0.1475
 2710SOL    HW210606   4.147   3.697   2.475  1.5173 -1.6594 -1.7129
 2710SOL    HW310607   4.235   3.607   2.559 -0.3119 -2.0128 -0.0907
 2710SOL    MW410608   4.156   3.631   2.531  0.1394 -0.7605 -0.3465
 2711SOL     OW10609   4.493   0.547   5.212 -0.0154  0.8266 -0.4756
 2711SOL    HW210610   4.406   0.530   5.177 -0.3131 -0.8202  0.9160
 2711SOL    HW310611   4.540   0.464   5.202 -0.5072 -0.2491  3.8706
 2711SOL    MW410612   4.488   0.534   5.206 -0.1196  0.4674  0.2814
 2712SOL     OW10613   4.233   0.755   0.473  0.2747 -0.4748 -0.0034
 2712SOL    HW210614   4.263   0.741   0.563  1.6551 -0.2594 -0.3987
 2712SOL    HW310615   4.292   0.823   0.439 -1.5424  0.9617 -0.4274
 2712SOL    MW410616   4.245   0.762   0.480  0.2171 -0.2569 -0.1115
 2713SOL     OW10617   4.953   3.691   5.648  0.1795  0.0866  0.2548
 2713SOL    HW210618   5.034   3.683   5.598  0.6713  0.2620  1.0241
 2713SOL    HW310619   4.894   3.626   5.609 -0.9874  2.9732 -3.4717
 2713SOL    MW410620   4.956   3.682   5.636  0.0904  0.4906 -0.1353
 2714SOL     OW10621   3.692   1.266   5.809  0.1780  0.3519 -0.3111
 2714SOL    HW210622   3.631   1.339   5.797  0.9882  1.0506 -0.2760
 2714SOL    HW310623   3.689   1.248   5.903  1.2616  1.5140 -0.0247
 2714SOL    MW410624   3.684   1.273   5.820  0.4279  0.5974 -0.2686
 2715SOL     OW10625   1.976   0.250   0.338 -0.3019  0.1218  0.4087
 2715SOL    HW210626   1.903   0.214   0.287 -0.3938  0.6680  0.1479
 2715SOL    HW310627   2.037   0.177   0.348  0.3401  0.3346 -1.6195
 2715SOL    MW410628   1.974   0.235   0.333 -0.2294  0.2220  0.1067
 2716SOL     OW10629   6.415   6.077   0.060  0.3874  0.5668  0.0392
 2716SOL    HW210630   6.390   6.159   0.103 -0.5528  1.8260 -2.6529
 2716SOL    HW310631   6.333   6.044   0.024  1.1217 -0.3660 -0.8284
 2716SOL    MW410632   6.401   6.084   0.061  0.3603  0.6099 -0.4304
 2717SOL     OW10633   4.995   6.283   3.483 -0.2385  0.0931  0.3496
 2717SOL    HW210634   4.924   6.295   3.546 -1.7851  0.5457 -1.3978
 2717SOL    HW310635   4.951   6.257   3.402  1.8587 -3.2508  0.0906
 2717SOL    MW410636   4.980   6.281   3.481 -0.1659 -0.2883  0.0849
 2718SOL     OW10637   5.488   1.562   0.159 -0.2591  0.2982 -0.1339
 2718SOL    HW210638   5.418   1.497   0.164  0.6416 -0.7200 -0.4034
 2718SOL    HW310639   5.466   1.626   0.227  0.4319 -1.9462  2.4059
 2718SOL    MW410640   5.476   1.562   0.169 -0.0491 -0.1323  0.1656
 2719SOL     OW10641   4.720   1.208   2.859  0.3180  0.0047  0.2843
 2719SOL    HW210642   4.801   1.207   2.909  0.3728  0.4908  0.2055
 2719SOL    HW310643   4.692   1.116   2.857  1.1711 -0.2482 -0.1930
 2719SOL    MW410644   4.727   1.196   2.866  0.4378  0.0355  0.2109
 2720SOL     OW10645   0.059   4.208   4.124  0.0787  0.1345 -0.0105
 2720SOL    HW210646   0.140   4.175   4.086  0.0899 -0.4276  0.4883
 2720SOL    HW310647  -0.009   4.183   4.062  0.3750  1.4327 -0.9093
 2720SOL    MW410648   0.061   4.200   4.111  0.1193  0.2316 -0.0633
 2721SOL     OW10649   4.660   1.822   1.785  0.4433  0.1623  0.2204
 2721SOL    HW210650   4.619   1.738   1.764  0.9746 -0.1162  0.2701
 2721SOL    HW310651   4.619   1.885   1.726 -0.5282  0.0117  0.7241
 2721SOL    MW410652   4.649   1.819   1.775  0.3852  0.1057  0.2934
 2722SOL     OW10653   5.470   4.433   2.533  0.0616 -0.2028  0.1912
 2722SOL    HW210654   5.499   4.347   2.505  0.8110  0.4651 -1.1718
 2722SOL    HW310655   5.539   4.464   2.591  0.6322  0.1338 -0.6385
 2722SOL    MW410656   5.483   4.426   2.537  0.2358 -0.0702 -0.0981
 2723SOL     OW10657   0.023   2.390   5.485 -0.9618 -0.2792  0.2041
 2723SOL    HW210658  -0.011   2.429   5.565  0.6839  0.1548  0.7343
 2723SOL    HW310659   0.053   2.303   5.510 -1.3229 -0.5189 -0.1722
 2723SOL    MW410660   0.022   2.384   5.499 -0.7923 -0.2536  0.2244
 2724SOL     OW10661   1.973   4.950   0.012  0.2279 -0.3615 -0.0391
 2724SOL    HW210662   1.897   4.944  -0.046  1.2865 -0.7977 -1.4214
 2724SOL    HW310663   1.954   4.887   0.082 -1.3445  0.6120  0.4625
 2724SOL    MW410664   1.960   4.941   0.014  0.1601 -0.2906 -0.1553
 2725SOL     OW10665   2.322   1.806   1.879 -0.5403  0.3004 -0.2673
 2725SOL    HW210666   2.303   1.798   1.972  0.8519  1.3120  0.1409
 2725SOL    HW310667   2.338   1.717   1.849  0.7074  0.1294  0.8606
 2725SOL    MW410668   2.321   1.793   1.887 -0.1920  0.4113 -0.0647
 2726SOL     OW10669   0.612   3.698   2.239 -0.4581  0.4142 -0.2864
 2726SOL    HW210670   0.658   3.648   2.172  0.7631 -0.2482  0.9861
 2726SOL    HW310671   0.636   3.789   2.222  1.2990  0.1021  0.2563
 2726SOL    MW410672   0.622   3.704   2.228 -0.0651  0.2856 -0.0469
 2727SOL     OW10673   4.490   5.647   4.338 -0.1480 -0.6792 -0.0002
 2727SOL    HW210674   4.477   5.563   4.294  0.8056 -0.9083  0.1457
 2727SOL    HW310675   4.475   5.712   4.269 -0.1559 -0.9925 -0.2978
 2727SOL    MW410676   4.486   5.644   4.323 -0.0232 -0.7508 -0.0202
 2728SOL     OW10677   3.375   5.806   4.284  0.1822  0.0435 -0.6465
 2728SOL    HW210678   3.433   5.812   4.360 -1.5560  3.2315  0.6141
 2728SOL    HW310679   3.307   5.744   4.311 -0.3082  0.9918  0.3818
 2728SOL    MW410680   3.374   5.798   4.297 -0.1118  0.5892 -0.3445
 2729SOL     OW10681   2.200   4.842   2.263 -0.1504  0.5012 -0.1485
 2729SOL    HW210682   2.142   4.880   2.329 -0.8930 -1.9430  0.7150
 2729SOL    HW310683   2.279   4.897   2.265 -0.7605  1.3795  1.6668
 2729SOL    MW410684   2.203   4.855   2.272 -0.3289  0.2946  0.2049
 2730SOL     OW10685   0.649   0.442   4.581  0.7157  0.3114 -0.1435
 2730SOL    HW210686   0.584   0.400   4.637  1.4995  0.6499  1.0600
 2730SOL    HW310687   0.660   0.382   4.508  0.7068 -0.8508  0.7817
 2730SOL    MW410688   0.642   0.429   4.579  0.8180  0.2027  0.1374
 2731SOL     OW10689   1.593   2.738   0.338  0.0648  0.0023 -0.1707
 2731SOL    HW210690   1.520   2.677   0.347 -0.1434  0.3211  0.3337
 2731SOL    HW310691   1.670   2.682   0.323 -0.3335 -0.3163 -1.0848
 2731SOL    MW410692   1.594   2.722   0.337 -0.0152  0.0023 -0.2248
 2732SOL     OW10693   3.508   4.889   2.930  0.2573  0.6060  0.4004
 2732SOL    HW210694   3.548   4.891   2.843  0.0338 -0.2633  0.2698
 2732SOL    HW310695   3.490   4.980   2.951  2.1803  1.0258  0.3960
 2732SOL    MW410696   3.511   4.901   2.921  0.4815  0.5467  0.3826
 2733SOL     OW10697   1.850   4.754   0.497  0.2781  0.2147 -0.5221
 2733SOL    HW210698   1.762   4.752   0.461 -0.2859 -0.3138  0.8063
 2733SOL    HW310699   1.908   4.746   0.421 -0.8644 -1.6909 -1.2625
 2733SOL    MW410700   1.846   4.753   0.483  0.0530 -0.1064 -0.4445
 2734SOL     OW10701   4.764   3.199   3.402 -0.0441  0.0860 -0.3010
 2734SOL    HW210702   4.805   3.285   3.393 -1.0601  0.4680 -1.4324
 2734SOL    HW310703   4.767   3.180   3.496  2.4309  0.2210 -0.3009
 2734SOL    MW410704   4.770   3.208   3.413  0.1484  0.1542 -0.4503
 2735SOL     OW10705   0.150   4.273   0.855 -0.2810  0.2755  0.0477
 2735SOL    HW210706   0.212   4.246   0.787  0.9442 -1.7886  1.8628
 2735SOL    HW310707   0.133   4.194   0.905 -1.5260  1.6123  1.8534
 2735SOL    MW410708   0.156   4.259   0.852 -0.2836  0.1795  0.5254
 2736SOL     OW10709   4.404   1.672   0.223 -0.3560  0.1878  0.1224
 2736SOL    HW210710   4.483   1.649   0.174 -0.7174 -1.5840  0.3172
 2736SOL    HW310711   4.332   1.631   0.174 -0.9405  0.1336  0.9932
 2736SOL    MW410712   4.405   1.664   0.210 -0.4808 -0.0531  0.2630
 2737SOL     OW10713   3.303   1.698   3.860  0.4366 -0.3624  0.4758
 2737SOL    HW210714   3.290   1.604   3.850  0.7092 -0.3720  0.1836
 2737SOL    HW310715   3.227   1.727   3.911 -0.1113 -0.5987 -0.1791
 2737SOL    MW410716   3.291   1.689   3.865  0.4002 -0.3948  0.3508
 2738SOL     OW10717   2.314   1.700  -0.038 -0.5486 -0.0531 -0.3177
 2738SOL    HW210718   2.236   1.700   0.018  1.7810 -1.5289  3.3481
 2738SOL    HW310719   2.336   1.793  -0.048 -1.2937  0.2784  0.9053
 2738SOL    MW410720   2.307   1.712  -0.032 -0.3395 -0.2040  0.3273
 2739SOL     OW10721   4.883   1.825   2.439  0.3815  0.3643 -0.2337
 2739SOL    HW210722   4.882   1.854   2.348  0.2057 -1.5177 -0.8737
 2739SOL    HW310723   4.791   1.812   2.461  0.4919 -3.5713 -1.3702
 2739SOL    MW410724   4.871   1.827   2.430  0.3729 -0.4033 -0.4681
 2740SOL     OW10725   1.701   3.567   0.973 -0.0846 -0.7212  0.2575
 2740SOL    HW210726   1.752   3.570   1.054  0.1111  0.5682  0.1127
 2740SOL    HW310727   1.619   3.525   0.999 -0.4120  0.5062  1.3821
 2740SOL    MW410728   1.697   3.562   0.987 -0.1020 -0.3891  0.3868
 2741SOL     OW10729   4.067   1.741   2.421  0.3429  0.5984 -0.9069
 2741SOL    HW210730   4.014   1.677   2.468  2.7343 -2.0243 -1.4902
 2741SOL    HW310731   4.071   1.817   2.479 -0.8005 -0.6162  0.8435
 2741SOL    MW410732   4.060   1.743   2.435  0.5076  0.0921 -0.7529
 2742SOL     OW10733   1.797   3.070   6.305 -0.3720 -0.2943 -0.6380
 2742SOL    HW210734   1.811   2.988   6.352 -1.3679 -0.7947 -1.1617
 2742SOL    HW310735   1.884   3.099   6.279  0.0008 -1.1311 -0.3360
 2742SOL    MW410736   1.810   3.063   6.308 -0.4542 -0.4708 -0.6673
 2743SOL     OW10737   6.376   3.950   2.362  0.1748  0.0792 -0.1625
 2743SOL    HW210738   6.357   3.991   2.278  0.9496 -0.6913 -0.7306
 2743SOL    HW310739   6.369   4.022   2.426  0.5497  0.8820 -1.0043
 2743SOL    MW410740   6.373   3.965   2.359  0.3265  0.0834 -0.3485
 2744SOL     OW10741   0.645   5.470   1.909 -0.1255 -0.2237  0.0578
 2744SOL    HW210742   0.590   5.541   1.877 -0.2433  0.6330  2.0163
 2744SOL    HW310743   0.714   5.513   1.959  0.0812 -1.4534  0.8854
 2744SOL    MW410744   0.647   5.485   1.911 -0.1138 -0.2729  0.4254
 2745SOL     OW10745   5.467   2.038   0.526 -0.3665 -0.4311  0.3980
 2745SOL    HW210746   5.525   2.040   0.450 -2.0267  0.7277 -0.9186
 2745SOL    HW310747   5.525   2.051   0.601  1.0416  0.9941 -0.8657
 2745SOL    MW410748   5.482   2.040   0.526 -0.3997 -0.0902  0.0576
 2746SOL     OW10749   0.313   1.879   3.980  0.2356 -0.5062 -0.1901
 2746SOL    HW210750   0.342   1.971   3.985  2.7770 -1.3022  1.8831
 2746SOL    HW310751   0.219   1.883   3.998  0.2921  1.6861 -0.0510
 2746SOL    MW410752   0.305   1.892   3.983  0.5784 -0.3219  0.1018
 2747SOL     OW10753   5.644   5.686   3.362  0.0681 -0.2541  0.4080
 2747SOL    HW210754   5.610   5.716   3.447 -2.4785 -1.5006 -0.0741
 2747SOL    HW310755   5.730   5.726   3.356 -0.9197  2.4500  2.1905
 2747SOL    MW410756   5.651   5.695   3.373 -0.3982 -0.0618  0.5795
 2748SOL     OW10757   4.074   3.973   4.991  0.4933  0.2404  0.0780
 2748SOL    HW210758   4.081   4.012   5.078  0.7194  1.1072 -0.3137
 2748SOL    HW310759   3.982   3.949   4.983 -0.1223  2.4745 -0.3647
 2748SOL    MW410760   4.063   3.975   5.002  0.4419  0.6495 -0.0320
 2749SOL     OW10761   1.546   0.619   6.029 -0.1705  0.4786 -0.1526
 2749SOL    HW210762   1.493   0.556   5.980  1.8032  0.2832 -2.1765
 2749SOL    HW310763   1.537   0.591   6.120 -0.9897 -1.4813 -0.7745
 2749SOL    MW410764   1.538   0.607   6.034 -0.0182  0.1943 -0.5017
 2750SOL     OW10765   1.458   5.433   2.841 -0.2096  0.0788  0.2614
 2750SOL    HW210766   1.542   5.409   2.881 -0.8068 -1.1083  0.8303
 2750SOL    HW310767   1.478   5.514   2.793  0.9599  0.5105  1.4009
 2750SOL    MW410768   1.472   5.440   2.840 -0.1341 -0.0209  0.4868
 2751SOL     OW10769   2.245   6.175   3.524 -0.3216 -0.4398 -0.1187
 2751SOL    HW210770   2.246   6.224   3.606 -0.0631 -1.3175  0.4028
 2751SOL    HW310771   2.181   6.222   3.470  0.2498  0.7462  0.1981
 2751SOL    MW410772   2.237   6.188   3.528 -0.2121 -0.3991 -0.0081
 2752SOL     OW10773   2.790   2.831   6.163 -0.0965  0.4923 -0.3139
 2752SOL    HW210774   2.829   2.810   6.078 -1.4946  0.1171 -0.8915
 2752SOL    HW310775   2.827   2.916   6.186  1.4156 -0.0679 -0.5851
 2752SOL    MW410776   2.800   2.840   6.155 -0.0814  0.3689 -0.4259
 2753SOL     OW10777   3.183   6.276   6.065 -0.0147  0.2729  0.4126
 2753SOL    HW210778   3.092   6.254   6.083 -0.2363 -0.9554 -1.8510
 2753SOL    HW310779   3.184   6.372   6.059 -1.3165  0.2634 -0.2413
 2753SOL    MW410780   3.171   6.286   6.067 -0.2157  0.1096  0.0276
 2754SOL     OW10781   0.071   4.536   0.549  0.3448 -0.7416 -0.5517
 2754SOL    HW210782   0.165   4.549   0.566  0.2702 -3.1058  2.5185
 2754SOL    HW310783   0.068   4.476   0.474  1.2956 -0.9510 -0.4327
 2754SOL    MW410784   0.083   4.530   0.541  0.4604 -1.0811 -0.1309
 2755SOL     OW10785   2.089   3.751   5.314 -0.0230 -0.8420 -0.5795
 2755SOL    HW210786   2.143   3.754   5.393 -0.2607  0.5212 -0.4454
 2755SOL    HW310787   2.148   3.722   5.245  1.1647  1.5167 -0.6337
 2755SOL    MW410788   2.104   3.748   5.315  0.1023 -0.3509 -0.5690
 2756SOL     OW10789   3.825   4.345   5.205  0.3855 -0.6349  0.1265
 2756SOL    HW210790   3.774   4.402   5.263 -0.4276 -0.3980 -0.8106
 2756SOL    HW310791   3.916   4.367   5.225  0.1224 -0.4172  1.1697
 2756SOL    MW410792   3.831   4.355   5.215  0.2435 -0.5749  0.1405
 2757SOL     OW10793   2.034   2.023   3.576 -0.0607  0.1728 -0.4809
 2757SOL    HW210794   2.025   2.052   3.667 -2.5736 -1.2639 -0.1904
 2757SOL    HW310795   2.019   2.103   3.525 -0.5811  0.6267  0.3477
 2757SOL    MW410796   2.031   2.038   3.582 -0.4609  0.0431 -0.3333
 2758SOL     OW10797   5.648   4.971   0.996 -0.6222 -0.7346  0.3724
 2758SOL    HW210798   5.669   5.034   1.065  1.1423 -0.4014 -0.3955
 2758SOL    HW310799   5.564   5.000   0.961  0.4959  1.7122 -0.4834
 2758SOL    MW410800   5.640   4.983   1.001 -0.2419 -0.3678  0.1582
 2759SOL     OW10801   2.213   4.241   1.914  0.5110  0.3213  0.1766
 2759SOL    HW210802   2.184   4.330   1.891  0.0209 -0.1085 -0.9684
 2759SOL    HW310803   2.133   4.196   1.940  0.6469  0.0344  0.0995
 2759SOL    MW410804   2.198   4.247   1.914  0.4642  0.2267  0.0154
 2760SOL     OW10805   1.970   3.336   4.543  0.1672  0.0739 -0.4295
 2760SOL    HW210806   1.887   3.306   4.507  0.5719  1.4657 -2.7538
 2760SOL    HW310807   1.948   3.416   4.591  0.1760  0.5499 -1.2105
 2760SOL    MW410808   1.957   3.343   4.545  0.2217  0.3203 -0.8392
 2761SOL     OW10809   0.714   4.782   1.751  0.4568  0.2119 -0.5825
 2761SOL    HW210810   0.722   4.834   1.671  0.0060  1.5055  0.1683
 2761SOL    HW310811   0.629   4.807   1.787  0.1872 -1.1357 -0.2161
 2761SOL    MW410812   0.704   4.792   1.745  0.3617  0.2048 -0.4351
 2762SOL     OW10813   3.400   5.128   6.330  0.0957  0.2450 -0.8697
 2762SOL    HW210814   3.412   5.166   6.417 -0.7078  0.2116 -0.7325
 2762SOL    HW310815   3.488   5.105   6.301  0.4111  0.6167 -0.2282
 2762SOL    MW410816   3.413   5.130   6.338  0.0313  0.2896 -0.7670
 2763SOL     OW10817   1.055   5.925   4.274  0.3595  0.2870 -0.3831
 2763SOL    HW210818   1.118   5.995   4.259  1.1796 -0.3387  0.0340
 2763SOL    HW310819   0.985   5.965   4.325  1.4985  0.4726  1.0805
 2763SOL    MW410820   1.054   5.939   4.278  0.6180  0.2289 -0.1349
 2764SOL     OW10821   4.748   4.629   1.945  0.3949 -0.4850  0.3790
 2764SOL    HW210822   4.748   4.711   1.895 -1.0815 -0.7860 -0.1482
 2764SOL    HW310823   4.739   4.560   1.879  0.0727 -0.9789  0.9296
 2764SOL    MW410824   4.747   4.631   1.930  0.1576 -0.5899  0.3821
 2765SOL     OW10825   3.361   3.412   0.905 -0.3566  0.0544 -0.0446
 2765SOL    HW210826   3.353   3.384   0.996 -0.2346  0.6037  0.1452
 2765SOL    HW310827   3.402   3.339   0.860 -0.4901 -0.2515  0.3288
 2765SOL    MW410828   3.366   3.399   0.911 -0.3581  0.0865  0.0297
 2766SOL     OW10829   1.187   4.142   0.658  0.1082  0.6248 -0.0818
 2766SOL    HW210830   1.277   4.112   0.671 -0.2472 -0.0344  0.9657
 2766SOL    HW310831   1.191   4.237   0.671  0.9151  0.8280 -1.6029
 2766SOL    MW410832   1.199   4.150   0.662  0.1678  0.5646 -0.1443
 2767SOL     OW10833   2.741   5.013   4.883  0.1757 -0.4455 -0.2867
 2767SOL    HW210834   2.779   5.077   4.824 -1.5562  1.0958  0.1836
 2767SOL    HW310835   2.796   5.017   4.962  0.9968 -0.6955 -0.8374
 2767SOL    MW410836   2.753   5.022   4.886  0.0555 -0.2751 -0.2973
 2768SOL     OW10837   5.903   1.804   1.989 -0.3855 -0.1432 -0.0275
 2768SOL    HW210838   5.868   1.865   2.054 -0.7518 -0.6161  0.2248
 2768SOL    HW310839   5.996   1.825   1.984 -0.8501  1.8248 -1.4587
 2768SOL    MW410840   5.911   1.815   1.997 -0.4952  0.0541 -0.1830
 2769SOL     OW10841   2.506   2.155   2.020  0.0709 -0.7863  0.0754
 2769SOL    HW210842   2.543   2.094   1.956  2.0555  0.9236 -0.5566
 2769SOL    HW310843   2.487   2.101   2.097  2.5368 -2.1094 -0.1326
 2769SOL    MW410844   2.509   2.140   2.022  0.6581 -0.7353 -0.0354
 2770SOL     OW10845   2.370   5.208   3.029 -0.4589 -0.6309 -0.5000
 2770SOL    HW210846   2.360   5.177   2.939 -0.7452 -1.9052 -0.0435
 2770SOL    HW310847   2.464   5.206   3.045 -0.1875  1.5851 -1.4189
 2770SOL    MW410848   2.381   5.204   3.019 -0.4609 -0.5067 -0.5610
 2771SOL     OW10849   0.956   2.694   5.222 -0.2456 -0.1061 -0.3350
 2771SOL    HW210850   1.017   2.625   5.252 -1.2264 -1.0674 -0.4920
 2771SOL    HW310851   0.894   2.648   5.166 -0.7554  0.9774 -0.6820
 2771SOL    MW410852   0.956   2.679   5.219 -0.4423 -0.0900 -0.4015
 2772SOL     OW10853   4.081   4.722  -0.020  0.3718  0.9138 -0.4543
 2772SOL    HW210854   3.996   4.718   0.024  1.5699  1.5918  2.0811
 2772SOL    HW310855   4.090   4.636  -0.062 -0.7364  0.1135  0.8776
 2772SOL    MW410856   4.071   4.710  -0.020  0.3837  0.8977  0.0560
 2773SOL     OW10857   5.311   4.284   1.445 -0.3429  0.0970 -0.1465
 2773SOL    HW210858   5.304   4.286   1.540  0.3826  1.3596 -0.0903
 2773SOL    HW310859   5.405   4.287   1.428 -0.0589 -4.8599 -0.9142
 2773SOL    MW410860   5.323   4.285   1.455 -0.2097 -0.3904 -0.2404
 2774SOL     OW10861   3.987   6.021   1.905  0.0081  0.1762  0.4868
 2774SOL    HW210862   3.899   6.006   1.870 -0.0958  0.4864  0.6162
 2774SOL    HW310863   3.985   6.111   1.938  0.6907  0.5572 -0.4776
 2774SOL    MW410864   3.975   6.031   1.905  0.0845  0.2674  0.3766
 2775SOL     OW10865   5.792   5.050   0.353  0.0417  0.3514  0.3310
 2775SOL    HW210866   5.869   5.002   0.383  0.6049  1.1767  0.2181
 2775SOL    HW310867   5.766   5.006   0.272  0.7614  0.4445  0.0433
 2775SOL    MW410868   5.799   5.038   0.346  0.2110  0.4726  0.2781
 2776SOL     OW10869   4.161   3.460   0.668  0.2976  1.0908  0.4359
 2776SOL    HW210870   4.142   3.545   0.707  1.2516  1.0670  0.9809
 2776SOL    HW310871   4.156   3.398   0.740  0.2909  0.7856  0.1775
 2776SOL    MW410872   4.158   3.463   0.683  0.4225  1.0474  0.4737
 2777SOL     OW10873   0.836   2.012   0.607 -0.1381 -0.1522  0.3011
 2777SOL    HW210874   0.872   1.924   0.621  0.1612  0.1254  1.3657
 2777SOL    HW310875   0.912   2.070   0.613 -0.2259  0.1389 -1.0866
 2777SOL    MW410876   0.851   2.008   0.609 -0.1102 -0.0771  0.2585
 2778SOL     OW10877   2.202   1.012   3.932 -0.0185  0.6916  0.3774
 2778SOL    HW210878   2.215   0.920   3.951 -1.7254  0.3176 -0.0807
 2778SOL    HW310879   2.150   1.045   4.006  0.1194  1.1603  0.2719
 2778SOL    MW410880   2.197   1.004   3.944 -0.2255  0.7041  0.3031
 2779SOL     OW10881   4.677   1.968   3.563 -0.4641 -0.3705 -0.3936
 2779SOL    HW210882   4.759   1.937   3.602  0.8363 -0.3290 -2.9107
 2779SOL    HW310883   4.631   1.888   3.536 -1.1849 -0.3843  0.8204
 2779SOL    MW410884   4.682   1.954   3.565 -0.3876 -0.3669 -0.5656
 2780SOL     OW10885   2.520   4.798   2.923  0.2236  0.2438 -0.3765
 2780SOL    HW210886   2.457   4.841   2.981  0.0318  0.3886 -0.6911
 2780SOL    HW310887   2.473   4.785   2.841  0.0494 -1.1984 -0.0707
 2780SOL    MW410888   2.506   4.802   2.920  0.1753  0.0726 -0.3777
 2781SOL     OW10889   6.273   3.108   3.108 -0.8417  0.4965  0.2285
 2781SOL    HW210890   6.276   3.042   3.038 -0.4285  0.1804  0.5360
 2781SOL    HW310891   6.338   3.174   3.082  0.6141 -0.5065  1.1633
 2781SOL    MW410892   6.282   3.108   3.095 -0.5951  0.3224  0.3924
 2782SOL     OW10893   4.272   5.351   2.281  0.7462  0.5866 -0.2339
 2782SOL    HW210894   4.217   5.282   2.244 -0.6208  1.1620  0.6377
 2782SOL    HW310895   4.227   5.432   2.259  1.7612  1.1446 -0.3104
 2782SOL    MW410896   4.259   5.352   2.274  0.6997  0.7361 -0.1290
 2783SOL     OW10897   6.140   4.280   0.312  0.0424 -0.9668  0.2313
 2783SOL    HW210898   6.130   4.261   0.405  0.3265 -0.7387  0.3100
 2783SOL    HW310899   6.052   4.272   0.276 -0.3489  0.4110  0.7981
 2783SOL    MW410900   6.127   4.277   0.320  0.0283 -0.7549  0.3165
 2784SOL     OW10901   0.631   5.143   1.245  0.1100 -0.0301  0.5250
 2784SOL    HW210902   0.688   5.186   1.309 -0.6470 -0.1661  1.3092
 2784SOL    HW310903   0.686   5.076   1.205  0.3447 -0.6026  1.7315
 2784SOL    MW410904   0.646   5.140   1.248  0.0411 -0.1235  0.7876
 2785SOL     OW10905   5.106   2.390   1.998  0.5839 -0.1065 -0.1888
 2785SOL    HW210906   5.029   2.429   2.041 -0.5268 -1.4624 -0.8767
 2785SOL    HW310907   5.174   2.458   2.006 -0.9504  1.5506 -0.4546
 2785SOL    MW410908   5.105   2.404   2.005  0.2349 -0.0667 -0.3146
 2786SOL     OW10909   2.721   2.470   5.835  0.2989 -0.1160 -0.0509
 2786SOL    HW210910   2.651   2.483   5.899 -0.1941 -0.1999 -0.5618
 2786SOL    HW310911   2.675   2.453   5.752  0.9230 -0.5211 -0.3225
 2786SOL    MW410912   2.706   2.470   5.832  0.3162 -0.1805 -0.1542
 2787SOL     OW10913   6.384   4.990   1.979 -0.3698  0.1162 -0.3407
 2787SOL    HW210914   6.455   4.927   1.995 -0.0529  0.4801 -0.3216
 2787SOL    HW310915   6.427   5.069   1.950 -0.7418  0.4720  0.0545
 2787SOL    MW410916   6.399   4.992   1.978 -0.3771  0.2111 -0.2860
 2788SOL     OW10917   5.210   3.141   2.332  0.5095 -0.0376  0.2321
 2788SOL    HW210918   5.301   3.147   2.304  0.3652  0.0593 -0.2208
 2788SOL    HW310919   5.174   3.069   2.280 -0.2302  1.2708 -1.1381
 2788SOL    MW410920   5.217   3.132   2.322  0.3929  0.1478 -0.0084
 2789SOL     OW10921   1.516   4.946   4.039  0.0640  0.7140  0.4306
 2789SOL    HW210922   1.551   4.965   4.126  0.4549 -0.1852  0.4814
 2789SOL    HW310923   1.462   4.869   4.051  0.4881  0.3041 -0.2007
 2789SOL    MW410924   1.514   4.939   4.052  0.1715  0.5413  0.3540
 2790SOL     OW10925   6.204   5.138   5.282 -1.0246 -0.3825 -0.2177
 2790SOL    HW210926   6.124   5.190   5.291 -1.5948 -0.7466 -2.5226
 2790SOL    HW310927   6.176   5.057   5.241  0.5291 -0.4465 -1.2729
 2790SOL    MW410928   6.190   5.134   5.278 -0.8949 -0.4390 -0.6610
 2791SOL     OW10929   2.725   5.893   5.305  0.4499  0.5693 -0.1138
 2791SOL    HW210930   2.714   5.846   5.222  0.2081 -0.9095  0.7146
 2791SOL    HW310931   2.772   5.831   5.361  2.6121  2.3436  0.1874
 2791SOL    MW410932   2.730   5.878   5.301  0.7033  0.6083  0.0352
 2792SOL     OW10933   4.177   1.041   5.437  0.3900  0.2144 -0.0909
 2792SOL    HW210934   4.110   0.989   5.482  0.2617 -0.8410 -1.4218
 2792SOL    HW310935   4.259   1.015   5.479  0.1635  0.0960  0.2893
 2792SOL    MW410936   4.179   1.030   5.449  0.3432  0.0595 -0.2164
 2793SOL     OW10937   0.185   5.290   3.940 -0.3542 -0.2479 -0.0695
 2793SOL    HW210938   0.105   5.237   3.937 -0.4827 -0.1306  1.0547
 2793SOL    HW310939   0.255   5.227   3.957 -0.1222 -0.4094 -1.4582
 2793SOL    MW410940   0.183   5.275   3.942 -0.3405 -0.2538 -0.1044
 2794SOL     OW10941   4.097   2.121   1.834  0.0438 -0.7605 -0.1463
 2794SOL    HW210942   4.188   2.142   1.857 -0.1486  0.1547 -0.1713
 2794SOL    HW310943   4.089   2.149   1.743 -0.6309  0.4351  0.2584
 2794SOL    MW410944   4.108   2.128   1.825 -0.0706 -0.4820 -0.0962
 2795SOL     OW10945   0.270   5.854   3.947  0.5025  0.3805 -0.3822
 2795SOL    HW210946   0.190   5.874   3.995 -1.3029 -0.1061 -2.9722
 2795SOL    HW310947   0.275   5.923   3.880  2.4899  0.5962 -0.0720
 2795SOL    MW410948   0.260   5.866   3.944  0.5265  0.3448 -0.6830
 2796SOL     OW10949   4.871   4.286   3.594  0.0529  0.4152 -0.3783
 2796SOL    HW210950   4.861   4.380   3.606 -0.7389  0.4447 -1.1340
 2796SOL    HW310951   4.904   4.254   3.678 -1.8272  1.0496  0.6453
 2796SOL    MW410952   4.874   4.294   3.607 -0.2996  0.5028 -0.3429
 2797SOL     OW10953   6.006   5.370   5.006  0.0236 -0.3387 -0.4066
 2797SOL    HW210954   6.099   5.375   4.987  0.0715  1.4358  0.1766
 2797SOL    HW310955   6.002   5.350   5.100 -0.1757 -0.1273 -0.3683
 2797SOL    MW410956   6.017   5.368   5.016  0.0036 -0.0767 -0.3246
 2798SOL     OW10957   4.029   5.446   4.026 -0.7163  0.0182 -0.1155
 2798SOL    HW210958   4.104   5.436   3.967 -0.9576  0.2619 -0.4680
 2798SOL    HW310959   3.966   5.497   3.976 -1.6338 -1.2426 -0.3001
 2798SOL    MW410960   4.031   5.451   4.012 -0.8692 -0.1160 -0.1864
 2799SOL     OW10961   1.562   6.328   4.886  0.6452  0.2354 -0.3447
 2799SOL    HW210962   1.655   6.315   4.871  0.4955  0.9028 -2.0263
 2799SOL    HW310963   1.519   6.264   4.829  0.0651  0.9279 -0.7093
 2799SOL    MW410964   1.568   6.318   4.877  0.5489  0.4148 -0.6146
 2800SOL     OW10965   4.678   3.745   5.237  0.1243 -0.3906  0.2125
 2800SOL    HW210966   4.696   3.683   5.166 -0.4852  1.4553 -1.6432
 2800SOL    HW310967   4.589   3.776   5.219  0.0316  0.2884  1.6994
 2800SOL    MW410968   4.668   3.741   5.225  0.0317 -0.0575  0.1638
 2801SOL     OW10969   0.866   5.188   2.483  0.0992  0.0892 -0.1285
 2801SOL    HW210970   0.807   5.117   2.509 -0.0971  0.2384 -0.1613
 2801SOL    HW310971   0.813   5.242   2.425  0.7461 -0.6085 -1.3948
 2801SOL    MW410972   0.851   5.186   2.479  0.1586  0.0168 -0.2999
 2802SOL     OW10973   3.922   5.627   5.538 -0.1131 -0.2768 -0.2135
 2802SOL    HW210974   3.909   5.672   5.454 -0.9610 -0.8492 -0.4003
 2802SOL    HW310975   4.000   5.573   5.524 -1.5300 -2.1496 -1.4489
 2802SOL    MW410976   3.930   5.626   5.525 -0.4119 -0.5994 -0.4011
 2803SOL     OW10977   2.337   6.026   3.301  0.0258 -0.1469  0.1009
 2803SOL    HW210978   2.307   6.063   3.384 -1.4033 -0.7797 -0.1009
 2803SOL    HW310979   2.350   6.102   3.244 -0.3271  0.2013  0.4813
 2803SOL    MW410980   2.335   6.041   3.304 -0.2093 -0.1844  0.1244
 2804SOL     OW10981   2.140   1.695   4.736  0.0065 -0.3939  0.2999
 2804SOL    HW210982   2.083   1.664   4.666 -0.8295 -1.3461  1.3823
 2804SOL    HW310983   2.084   1.750   4.791  0.8636  1.0619 -0.2010
 2804SOL    MW410984   2.125   1.698   4.734  0.0093 -0.3274  0.3766
 2805SOL     OW10985   1.694   3.859   3.985 -0.0877  1.1727 -0.1824
 2805SOL    HW210986   1.746   3.913   4.044 -0.2876 -0.4101  1.5451
 2805SOL    HW310987   1.749   3.783   3.968 -1.0446  0.4042  0.0631
 2805SOL    MW410988   1.708   3.856   3.990 -0.2403  0.8625  0.0779
 2806SOL     OW10989   1.647   1.923   2.910  0.0448  0.2328 -0.2643
 2806SOL    HW210990   1.563   1.952   2.875  1.1215  2.5164 -1.1587
 2806SOL    HW310991   1.696   1.894   2.834  1.2182  2.0817 -0.2620
 2806SOL    MW410992   1.642   1.923   2.896  0.3416  0.7780 -0.3820
 2807SOL     OW10993   5.601   5.386   1.224 -0.2541  0.0656 -0.0114
 2807SOL    HW210994   5.634   5.296   1.225  0.3078  0.2627  1.1304
 2807SOL    HW310995   5.563   5.399   1.311 -0.1840  0.9732 -0.1057
 2807SOL    MW410996   5.601   5.375   1.236 -0.1707  0.2113  0.1268
 2808SOL     OW10997   3.578   0.122   4.043  0.1310  0.0036 -0.5511
 2808SOL    HW210998   3.641   0.058   4.074  0.7351  0.3250 -1.0922
 2808SOL    HW310999   3.499   0.071   4.024 -0.3895 -0.1673  1.7677
 2808SOL    MW411000   3.576   0.107   4.045  0.1421  0.0235 -0.3166
 2809SOL     OW11001   4.666   2.901   4.556 -0.4773 -1.0165  0.1024
 2809SOL    HW211002   4.708   2.986   4.545  1.0794 -1.9497 -1.6512
 2809SOL    HW311003   4.709   2.862   4.632 -0.7030 -0.5209  0.4848
 2809SOL    MW411004   4.677   2.907   4.564 -0.3017 -1.0742 -0.0785
 2810SOL     OW11005   2.971   3.883   1.516 -0.0717 -0.0016 -0.6757
 2810SOL    HW211006   2.959   3.943   1.442 -0.4729 -0.0338 -0.6387
 2810SOL    HW311007   2.903   3.908   1.579  1.2258  1.0609  0.3781
 2810SOL    MW411008   2.960   3.894   1.515  0.0465  0.1343 -0.5317
 2811SOL     OW11009   5.814   1.568   4.924  0.6796 -0.2140  0.4995
 2811SOL    HW211010   5.756   1.641   4.901  0.2507 -0.8988 -0.7477
 2811SOL    HW311011   5.899   1.592   4.888  0.3745 -0.6112 -0.5135
 2811SOL    MW411012   5.817   1.581   4.916  0.5828 -0.3568  0.2013
 2812SOL     OW11013   3.925   5.871   4.819  0.0812  0.1454  0.1582
 2812SOL    HW211014   3.998   5.830   4.773 -1.7332 -2.3330 -0.7055
 2812SOL    HW311015   3.869   5.905   4.750 -1.2196 -0.9973  0.6173
 2812SOL    MW411016   3.927   5.870   4.804 -0.3298 -0.3323  0.1048
 2813SOL     OW11017   2.291   2.000   3.474 -0.1631  0.2315  0.3488
 2813SOL    HW211018   2.213   2.005   3.530 -0.2001  0.8216  0.2490
 2813SOL    HW311019   2.339   2.080   3.493 -0.2678  0.5363 -0.6050
 2813SOL    MW411020   2.287   2.011   3.484 -0.1818  0.3495  0.2098
 2814SOL     OW11021   5.484   1.877   4.520 -0.0638 -0.0759 -0.2382
 2814SOL    HW211022   5.488   1.947   4.585 -0.6432  2.3842 -2.6775
 2814SOL    HW311023   5.539   1.908   4.449  0.0442 -2.3782 -1.2254
 2814SOL    MW411024   5.492   1.890   4.520 -0.1260 -0.0551 -0.6903
 2815SOL     OW11025   3.639   0.205   3.282  0.1715  0.1993 -0.4348
 2815SOL    HW211026   3.653   0.174   3.371  0.2890 -3.4862 -1.5733
 2815SOL    HW311027   3.547   0.230   3.279  0.6059  2.2287  1.1267
 2815SOL    MW411028   3.629   0.204   3.293  0.2443 -0.0192 -0.3790
 2816SOL     OW11029   3.200   4.561   0.646 -0.4168  0.7003 -0.1940
 2816SOL    HW211030   3.170   4.527   0.562 -0.0119 -0.3793  0.0781
 2816SOL    HW311031   3.132   4.622   0.673 -1.3423 -0.1463 -0.5538
 2816SOL    MW411032   3.187   4.565   0.638 -0.4855  0.4462 -0.2056
 2817SOL     OW11033   5.222   1.323   2.673  0.1710  0.0787 -0.1929
 2817SOL    HW211034   5.238   1.279   2.590 -0.0064  0.5754 -0.4941
 2817SOL    HW311035   5.134   1.360   2.664 -0.4811 -1.1496  0.7915
 2817SOL    MW411036   5.212   1.322   2.661  0.0616 -0.0178 -0.1027
 2818SOL     OW11037   2.458   5.781   5.025  0.2814 -0.3639  0.0618
 2818SOL    HW211038   2.552   5.773   5.042  0.2197 -0.8188  0.1830
 2818SOL    HW311039   2.452   5.788   4.929  0.3623 -1.4288 -0.0316
 2818SOL    MW411040   2.469   5.781   5.014  0.2839 -0.5644  0.0655
 2819SOL     OW11041   5.028   1.465   0.354 -0.1995  0.5214 -0.5232
 2819SOL    HW211042   5.008   1.455   0.447 -1.5702  3.4557 -0.3736
 2819SOL    HW311043   5.122   1.447   0.347 -0.5093 -2.2313  0.9010
 2819SOL    MW411044   5.038   1.461   0.366 -0.4212  0.5454 -0.3155
 2820SOL     OW11045   6.009   4.966   0.513  0.1448  0.2426  0.2380
 2820SOL    HW211046   6.089   4.999   0.472  0.1356  1.6407  1.2582
 2820SOL    HW311047   5.999   5.019   0.592 -1.6052 -0.1235  0.3051
 2820SOL    MW411048   6.018   4.978   0.518 -0.0873  0.3787  0.3815
 2821SOL     OW11049   6.320   1.936   4.968  0.3943 -0.3050 -0.1814
 2821SOL    HW211050   6.409   1.906   4.947  0.3309 -0.5334 -0.1242
 2821SOL    HW311051   6.282   1.958   4.884  0.0125 -1.5698 -0.3652
 2821SOL    MW411052   6.327   1.935   4.954  0.3356 -0.5020 -0.1981
 2822SOL     OW11053   5.876   2.299   2.169 -0.9636  0.8647  0.1695
 2822SOL    HW211054   5.834   2.378   2.135 -3.1285 -0.5060 -0.5603
 2822SOL    HW311055   5.967   2.307   2.142 -1.3052  2.7076 -0.6079
 2822SOL    MW411056   5.882   2.310   2.161 -1.2943  0.9270 -0.0293
 2823SOL     OW11057   6.078   2.651   0.576  0.1555  0.2952 -0.2680
 2823SOL    HW211058   6.145   2.653   0.644  0.1552  1.0552 -0.2718
 2823SOL    HW311059   5.996   2.643   0.623  0.0427  2.2155 -0.0525
 2823SOL    MW411060   6.076   2.651   0.591  0.1406  0.6488 -0.2401
 2824SOL     OW11061   2.012   1.010   3.707  0.2352  0.6611  0.4023
 2824SOL    HW211062   2.069   1.031   3.780  1.3576  0.4503 -0.3804
 2824SOL    HW311063   2.039   1.069   3.637  0.2753 -0.2140 -0.3422
 2824SOL    MW411064   2.023   1.020   3.707  0.3886  0.5179  0.2008
 2825SOL     OW11065   0.011   5.429   3.728  0.2855  0.3222 -0.0828
 2825SOL    HW211066  -0.007   5.468   3.643 -1.8917 -0.5115 -0.0588
 2825SOL    HW311067   0.083   5.481   3.764  0.2139  1.6457 -1.7676
 2825SOL    MW411068   0.018   5.441   3.722 -0.0112  0.3868 -0.3019
 2826SOL     OW11069   1.925   4.077   3.488  0.0743 -0.1180  0.1933
 2826SOL    HW211070   1.978   4.156   3.478 -0.5034  0.2444 -0.0992
 2826SOL    HW311071   1.908   4.072   3.583 -1.5707  1.2710  0.0231
 2826SOL    MW411072   1.930   4.087   3.499 -0.2189  0.1131  0.1322
 2827SOL     OW11073   3.352   4.174   0.716  0.1222 -0.6489 -0.0246
 2827SOL    HW211074   3.421   4.233   0.686 -0.3806 -0.5009 -0.9266
 2827SOL    HW311075   3.398   4.095   0.743  0.6884 -0.3329 -0.0417
 2827SOL    MW411076   3.367   4.172   0.716  0.1305 -0.5877 -0.1458
 2828SOL     OW11077   3.506   2.016   4.630  0.3138 -0.0567  0.0406
 2828SOL    HW211078   3.540   2.052   4.549 -0.1284 -1.2570 -0.7051
 2828SOL    HW311079   3.546   1.929   4.637 -1.7375 -1.0964 -0.3564
 2828SOL    MW411080   3.515   2.009   4.620 -0.0152 -0.3523 -0.1101
 2829SOL     OW11081   4.885   5.135   2.348 -0.1243 -0.5369 -0.6732
 2829SOL    HW211082   4.946   5.108   2.417  0.3885 -1.0601 -1.3166
 2829SOL    HW311083   4.828   5.199   2.390  1.2082  0.3694 -0.2017
 2829SOL    MW411084   4.885   5.140   2.362  0.1192 -0.4864 -0.6959
 2830SOL     OW11085   4.439   3.810   1.422 -0.0083 -0.2330 -0.3126
 2830SOL    HW211086   4.390   3.740   1.378 -1.9963  1.2198 -0.5782
 2830SOL    HW311087   4.399   3.816   1.509  1.0418 -0.2875  0.1868
 2830SOL    MW411088   4.427   3.802   1.428 -0.1320 -0.0485 -0.2817
 2831SOL     OW11089   2.540   2.204   2.410  0.1186  0.5433 -0.2701
 2831SOL    HW211090   2.452   2.166   2.421  0.3954  0.0282  0.2257
 2831SOL    HW311091   2.594   2.130   2.383  0.4210  0.8411 -0.4796
 2831SOL    MW411092   2.535   2.189   2.408  0.1950  0.5146 -0.2323
 2832SOL     OW11093   5.360   1.720   4.200 -0.3799  0.2678  0.6104
 2832SOL    HW211094   5.316   1.647   4.242  1.9120  0.4692  3.6731
 2832SOL    HW311095   5.399   1.682   4.121  0.1802 -1.7125  1.7606
 2832SOL    MW411096   5.359   1.706   4.195 -0.0036  0.0331  1.1663
 2833SOL     OW11097   0.216   5.756   3.102  0.0596  0.3901  0.5265
 2833SOL    HW211098   0.298   5.723   3.065  0.0516  1.6727 -0.7253
 2833SOL    HW311099   0.202   5.702   3.180 -0.0646 -2.6686 -1.4411
 2833SOL    MW411100   0.225   5.745   3.108  0.0421  0.1557  0.1017
 2834SOL     OW11101   0.508   4.427   0.669  0.5225  0.3159  0.2510
 2834SOL    HW211102   0.577   4.392   0.725  1.0614 -1.1028 -1.2239
 2834SOL    HW311103   0.544   4.421   0.580 -0.1716  2.7644 -0.2732
 2834SOL    MW411104   0.522   4.422   0.665  0.5020  0.4518 -0.0128
 2835SOL     OW11105   5.787   2.352   2.631 -0.6737 -0.0683  0.5128
 2835SOL    HW211106   5.750   2.429   2.587  1.6905  1.1854  0.5359
 2835SOL    HW311107   5.825   2.300   2.560 -0.9121 -0.4313  0.6504
 2835SOL    MW411108   5.787   2.356   2.616 -0.3932  0.0492  0.5340
 2836SOL     OW11109   4.029   1.710   0.740  0.4446 -0.1363  0.0456
 2836SOL    HW211110   3.988   1.797   0.743 -0.9666 -0.7779 -0.0154
 2836SOL    HW311111   3.966   1.652   0.783  0.6624 -1.3952 -1.2624
 2836SOL    MW411112   4.015   1.714   0.746  0.2871 -0.3870 -0.1350
 2837SOL     OW11113   1.143   5.647   0.281  0.2063 -0.4120 -0.3837
 2837SOL    HW211114   1.060   5.625   0.321  0.1647  0.2848 -0.0768
 2837SOL    HW311115   1.162   5.736   0.311  0.4598 -0.0992 -1.4240
 2837SOL    MW411116   1.135   5.656   0.290  0.2343 -0.2788 -0.4805
 2838SOL     OW11117   2.139   0.921   3.020  0.5524 -0.0904  0.0038
 2838SOL    HW211118   2.192   0.841   3.014  0.7654  0.0054  0.5074
 2838SOL    HW311119   2.050   0.891   3.037  0.6339 -0.2210  0.1986
 2838SOL    MW411120   2.135   0.907   3.022  0.5912 -0.0950  0.0960
 2839SOL     OW11121   1.082   0.011   0.645  0.1632  0.0216 -1.0833
 2839SOL    HW211122   1.159  -0.042   0.663  1.1784  1.7897  0.0682
 2839SOL    HW311123   1.023  -0.048   0.597  1.5348 -1.8607 -0.5838
 2839SOL    MW411124   1.084  -0.004   0.641  0.4781  0.0065 -0.8654
 2840SOL     OW11125   4.304   3.512   2.212  0.1618  0.4136  0.7193
 2840SOL    HW211126   4.268   3.425   2.193 -1.5532  0.7738  2.0509
 2840SOL    HW311127   4.273   3.566   2.140  0.9456  0.0194  0.0666
 2840SOL    MW411128   4.295   3.507   2.200  0.0389  0.4092  0.8088
 2841SOL     OW11129   1.381   4.191   3.132 -0.2314 -0.5165  0.3297
 2841SOL    HW211130   1.297   4.237   3.134  0.1839  0.5210 -2.1194
 2841SOL    HW311131   1.400   4.172   3.223 -2.1267  1.0879  1.1383
 2841SOL    MW411132   1.372   4.194   3.144 -0.4267 -0.1679  0.1132
 2842SOL     OW11133   5.319   0.483   0.745 -0.0109  0.0101 -0.0123
 2842SOL    HW211134   5.284   0.439   0.823  0.7984 -2.0794 -0.7329
 2842SOL    HW311135   5.245   0.487   0.684 -0.2854  0.3522  0.3418
 2842SOL    MW411136   5.304   0.477   0.747  0.0597 -0.2204 -0.0607
 2843SOL     OW11137   0.293   3.782   1.019  0.5129 -0.2357 -0.1439
 2843SOL    HW211138   0.326   3.814   1.104 -0.7284 -1.2584  0.7615
 2843SOL    HW311139   0.359   3.719   0.990  1.7463  1.2564 -0.7596
 2843SOL    MW411140   0.306   3.778   1.027  0.5119 -0.1738 -0.1057
 2844SOL     OW11141   0.226   2.674   2.358  0.7837 -0.1034  0.6696
 2844SOL    HW211142   0.172   2.694   2.282 -0.1937 -2.3248  0.7266
 2844SOL    HW311143   0.297   2.619   2.325  0.5199 -0.8405  1.2874
 2844SOL    MW411144   0.229   2.670   2.344  0.6200 -0.4937  0.7586
 2845SOL     OW11145   5.942   5.238   4.501 -0.1336  0.0848  0.1465
 2845SOL    HW211146   5.931   5.333   4.501  0.6200  0.2007 -1.3337
 2845SOL    HW311147   5.878   5.207   4.436 -0.5312 -0.4591  0.7829
 2845SOL    MW411148   5.932   5.246   4.492 -0.0866  0.0283  0.0352
 2846SOL     OW11149   4.774   3.193   2.392  0.0132 -0.2235  0.3437
 2846SOL    HW211150   4.778   3.238   2.476  0.7836  1.2104 -0.4297
 2846SOL    HW311151   4.817   3.109   2.408 -0.9589 -0.5043  1.6715
 2846SOL    MW411152   4.780   3.188   2.405 -0.0134 -0.0714  0.4168
 2847SOL     OW11153   5.458   3.239   6.213  0.1896  0.9254  1.0115
 2847SOL    HW211154   5.386   3.197   6.165  1.0689  0.3201  0.2062
 2847SOL    HW311155   5.413   3.297   6.275 -0.9935  0.9748  0.1616
 2847SOL    MW411156   5.442   3.241   6.215  0.1495  0.8520  0.7932
 2848SOL     OW11157   1.957   6.407   1.040 -0.3078 -0.2460 -0.0320
 2848SOL    HW211158   2.042   6.401   0.997 -0.7538  0.9946 -1.1481
 2848SOL    HW311159   1.898   6.358   0.983 -0.3069 -1.3503  0.8892
 2848SOL    MW411160   1.960   6.400   1.027 -0.3665 -0.2280 -0.0577
 2849SOL     OW11161   1.883   0.256   1.046  0.5830  0.5182 -0.0874
 2849SOL    HW211162   1.911   0.165   1.038  0.1253  0.2754  0.9985
 2849SOL    HW311163   1.964   0.307   1.043  0.9586 -0.0242  0.7862
 2849SOL    MW411164   1.898   0.251   1.044  0.5722  0.4146  0.1711
 2850SOL     OW11165   4.400   0.190   3.040 -0.0174 -0.0523 -0.5970
 2850SOL    HW211166   4.323   0.135   3.052 -0.1053  0.0830 -0.5356
 2850SOL    HW311167   4.368   0.266   2.990  0.0663  0.0231 -0.5361
 2850SOL    MW411168   4.385   0.193   3.035 -0.0180 -0.0245 -0.5809
 2851SOL     OW11169   2.032   1.627   1.229 -0.2490  0.7076 -0.1578
 2851SOL    HW211170   1.975   1.685   1.179  1.0754  0.2057 -2.3701
 2851SOL    HW311171   2.024   1.542   1.185  0.9445  0.2381  0.4866
 2851SOL    MW411172   2.023   1.623   1.216  0.0832  0.5795 -0.3647
 2852SOL     OW11173   4.277   3.060   2.414  0.1894 -0.1311  0.0120
 2852SOL    HW211174   4.271   3.004   2.336 -0.1678 -0.6859  0.4383
 2852SOL    HW311175   4.343   3.125   2.390  0.0505 -0.2657 -0.7765
 2852SOL    MW411176   4.285   3.061   2.400  0.1240 -0.2221 -0.0358
 2853SOL     OW11177   4.964   1.450   5.949 -0.1243 -0.1955  0.4435
 2853SOL    HW211178   5.042   1.412   5.990 -0.6646 -1.0907  0.6712
 2853SOL    HW311179   4.953   1.399   5.868  0.6534  1.2309 -0.6035
 2853SOL    MW411180   4.973   1.438   5.944 -0.0930 -0.1254  0.3354
 2854SOL     OW11181   2.289   4.057   4.215 -0.3286  0.1074 -0.7137
 2854SOL    HW211182   2.345   4.122   4.172 -2.1579  0.1155 -3.3622
 2854SOL    HW311183   2.350   3.993   4.252  1.4849  2.5396  0.7826
 2854SOL    MW411184   2.304   4.057   4.214 -0.3307  0.4294 -0.8658
 2855SOL     OW11185   2.660   6.132   4.922 -0.0492  0.1654  0.7872
 2855SOL    HW211186   2.683   6.047   4.884 -1.2491  0.2644 -0.1938
 2855SOL    HW311187   2.601   6.111   4.994 -0.8155  0.1765  0.1786
 2855SOL    MW411188   2.656   6.118   4.927 -0.3086  0.1799  0.5775
 2856SOL     OW11189   0.839   3.550   1.524  0.1056 -0.1220 -0.6963
 2856SOL    HW211190   0.833   3.571   1.617 -0.7322 -3.0232  0.0142
 2856SOL    HW311191   0.752   3.571   1.490 -0.4917 -1.6380 -0.1634
 2856SOL    MW411192   0.826   3.556   1.532 -0.0837 -0.7048 -0.5323
 2857SOL     OW11193   0.398   0.398   3.895 -0.2009 -0.1839 -0.1336
 2857SOL    HW211194   0.382   0.391   3.989 -0.9478  1.3439 -0.1113
 2857SOL    HW311195   0.443   0.482   3.885  0.6993 -0.7641 -1.0581
 2857SOL    MW411196   0.402   0.409   3.906 -0.1807 -0.0589 -0.2526
 2858SOL     OW11197   6.094   5.115   3.965 -0.4149 -0.1133  0.5059
 2858SOL    HW211198   6.076   5.204   3.933  0.1614 -0.0661  0.2959
 2858SOL    HW311199   6.016   5.092   4.016 -0.4678  0.6038  0.7689
 2858SOL    MW411200   6.081   5.124   3.967 -0.3459 -0.0124  0.5129
 2859SOL     OW11201   3.613   2.784   3.217 -0.1748  0.0157  0.2434
 2859SOL    HW211202   3.697   2.803   3.174  1.4241 -1.3007  2.5070
 2859SOL    HW311203   3.629   2.806   3.309 -2.6952  0.6624  0.5773
 2859SOL    MW411204   3.626   2.789   3.223 -0.2964 -0.0727  0.5861
 2860SOL     OW11205   3.974   0.151   4.347 -0.1372 -0.0696 -1.0269
 2860SOL    HW211206   4.005   0.062   4.328  0.3443 -0.8939  2.7956
 2860SOL    HW311207   3.894   0.138   4.397  0.3744  1.5754  0.2978
 2860SOL    MW411208   3.968   0.137   4.351 -0.0062  0.0387 -0.3478
 2861SOL     OW11209   2.264   3.089   3.921  0.3291 -0.0694  0.1288
 2861SOL    HW211210   2.336   3.085   3.858  0.9958 -0.6538  0.9070
 2861SOL    HW311211   2.261   3.001   3.960 -1.2756 -0.2769 -0.3979
 2861SOL    MW411212   2.273   3.077   3.918  0.2053 -0.1739  0.1620
 2862SOL     OW11213   4.772   1.562   1.541  0.1680 -0.2006 -0.2909
 2862SOL    HW211214   4.846   1.501   1.542  0.3502  0.0113 -0.6474
 2862SOL    HW311215   4.808   1.644   1.574  0.6881  0.5540 -2.5334
 2862SOL    MW411216   4.786   1.565   1.545  0.2607 -0.0731 -0.6338
 2863SOL     OW11217   1.607   0.231   1.811  0.2472  0.5573  0.0414
 2863SOL    HW211218   1.598   0.290   1.736  0.9080  1.3925  0.6116
 2863SOL    HW311219   1.579   0.146   1.777 -3.1216  1.5832 -0.1830
 2863SOL    MW411220   1.602   0.228   1.796 -0.1101  0.8028  0.0870
 2864SOL     OW11221   0.620   4.634   4.738 -0.0013  0.1890  0.6546
 2864SOL    HW211222   0.682   4.634   4.665  0.0209 -0.8588  0.6623
 2864SOL    HW311223   0.651   4.564   4.796 -1.1064 -0.2579  0.7241
 2864SOL    MW411224   0.632   4.625   4.736 -0.1441 -0.0082  0.6648
 2865SOL     OW11225   5.088   2.801   6.185  0.1550 -0.0139  0.3169
 2865SOL    HW211226   5.105   2.892   6.210 -0.2176 -0.1857  1.2468
 2865SOL    HW311227   4.994   2.789   6.202 -0.1696 -0.1179 -1.3167
 2865SOL    MW411228   5.078   2.811   6.190  0.0630 -0.0503  0.2241
 2866SOL     OW11229   4.588   3.920   6.377 -0.2944  0.3630 -0.3399
 2866SOL    HW211230   4.542   4.004   6.379  3.1423  2.5813  3.9621
 2866SOL    HW311231   4.547   3.869   6.448  0.5005  0.2926  0.0814
 2866SOL    MW411232   4.576   3.924   6.387  0.2639  0.6464  0.2833
 2867SOL     OW11233   5.060   5.777   3.451  0.4256 -0.0067 -0.4419
 2867SOL    HW211234   5.068   5.871   3.468 -0.7684 -0.1660  1.3704
 2867SOL    HW311235   5.143   5.740   3.481  1.2346  0.5329 -1.9426
 2867SOL    MW411236   5.072   5.785   3.458  0.3748  0.0435 -0.4008
 2868SOL     OW11237   1.189   1.882   3.625  0.2792 -0.6501 -0.0278
 2868SOL    HW211238   1.200   1.795   3.588  1.1461 -0.4885 -0.1790
 2868SOL    HW311239   1.097   1.886   3.653 -0.1837 -1.0469 -1.4412
 2868SOL    MW411240   1.178   1.871   3.624  0.3325 -0.6811 -0.2342
 2869SOL     OW11241   3.376   1.745   3.598 -0.0014  0.3541 -0.3162
 2869SOL    HW211242   3.343   1.733   3.687  1.7877  0.4095  0.3936
 2869SOL    HW311243   3.434   1.821   3.603  0.5939  0.0023 -1.3848
 2869SOL    MW411244   3.380   1.753   3.610  0.3132  0.3150 -0.3635
 2870SOL     OW11245   5.552   1.002   4.786  0.3873 -0.2934  0.4866
 2870SOL    HW211246   5.476   1.005   4.729  1.6273 -0.3580 -1.2735
 2870SOL    HW311247   5.573   0.909   4.793  1.1361 -0.1956 -0.2600
 2870SOL    MW411248   5.545   0.990   4.780  0.6497 -0.2891  0.1559
 2871SOL     OW11249   0.045   3.293   2.718  0.0277 -0.6210 -0.4656
 2871SOL    HW211250  -0.041   3.289   2.676 -0.5411 -1.5360  0.6956
 2871SOL    HW311251   0.025   3.290   2.812  1.2831  0.4625 -0.1319
 2871SOL    MW411252   0.031   3.292   2.725  0.1183 -0.5988 -0.2684
 2872SOL     OW11253   1.439   2.162   0.220 -0.1375 -0.7179  0.8652
 2872SOL    HW211254   1.524   2.203   0.236 -0.4752  1.4856 -2.1719
 2872SOL    HW311255   1.377   2.214   0.271 -0.1313  0.3314 -0.1753
 2872SOL    MW411256   1.442   2.174   0.229 -0.1813 -0.2887  0.3272
 2873SOL     OW11257   2.375   1.465   3.619  0.0697  0.4864  0.8163
 2873SOL    HW211258   2.315   1.398   3.650 -2.7883  1.9726 -1.0465
 2873SOL    HW311259   2.434   1.418   3.560 -0.7457 -0.6835  0.8972
 2873SOL    MW411260   2.375   1.450   3.615 -0.4150  0.5281  0.5812
 2874SOL     OW11261   0.576   5.084   5.875 -0.0624 -0.0878 -0.6937
 2874SOL    HW211262   0.512   5.015   5.895  0.2106 -0.7428 -2.0155
 2874SOL    HW311263   0.636   5.083   5.950 -0.7109 -0.5013 -0.1630
 2874SOL    MW411264   0.575   5.075   5.888 -0.1120 -0.2288 -0.7981
 2875SOL     OW11265   5.619   1.631   5.921  0.0076  0.3097 -0.1565
 2875SOL    HW211266   5.668   1.671   5.850 -0.1083  1.2493  0.2762
 2875SOL    HW311267   5.634   1.688   5.997  0.1707 -0.6915  0.5974
 2875SOL    MW411268   5.627   1.644   5.922  0.0138  0.3015  0.0000
 2876SOL     OW11269   2.361   2.769   3.883  0.0364  0.5482  0.4134
 2876SOL    HW211270   2.413   2.691   3.860 -0.9989 -0.6234  1.8425
 2876SOL    HW311271   2.344   2.759   3.977 -2.7044  0.9101  0.0141
 2876SOL    MW411272   2.366   2.757   3.893 -0.4618  0.4414  0.5493
 2877SOL     OW11273   1.176   5.172   2.129 -0.0327 -0.0676 -0.3071
 2877SOL    HW211274   1.241   5.236   2.103 -0.2640  1.1187  1.8642
 2877SOL    HW311275   1.156   5.124   2.048  2.5479  0.3759 -1.2792
 2877SOL    MW411276   1.182   5.174   2.115  0.2772  0.1474 -0.1489
 2878SOL     OW11277   3.347   3.868   0.755  0.4494 -0.4448 -0.0541
 2878SOL    HW211278   3.432   3.896   0.789  0.1866  0.0586  0.1959
 2878SOL    HW311279   3.287   3.875   0.830 -0.4582  2.0770 -0.8950
 2878SOL    MW411280   3.350   3.873   0.769  0.2950 -0.0457 -0.1320
 2879SOL     OW11281   5.480   6.296   1.672  0.3057 -0.3740 -0.3890
 2879SOL    HW211282   5.394   6.271   1.705  0.0436  0.2862 -0.5530
 2879SOL    HW311283   5.513   6.218   1.627 -0.4784 -0.4304 -0.8717
 2879SOL    MW411284   5.473   6.283   1.670  0.1677 -0.2943 -0.4743
 2880SOL     OW11285   3.969   4.012   5.456  0.7256 -0.5849 -0.1313
 2880SOL    HW211286   3.909   4.087   5.466  2.7626  1.3383 -1.3785
 2880SOL    HW311287   4.019   4.011   5.538  1.6880  0.3978 -0.6850
 2880SOL    MW411288   3.968   4.022   5.468  1.1213 -0.2015 -0.3689
 2881SOL     OW11289   4.418   6.095   4.113  0.2242  0.5334 -0.6125
 2881SOL    HW211290   4.393   6.111   4.022 -1.0088 -0.8719 -0.5655
 2881SOL    HW311291   4.423   5.999   4.120  0.4573  0.6253  0.7573
 2881SOL    MW411292   4.415   6.084   4.102  0.0923  0.3601 -0.4256
 2882SOL     OW11293   1.473   5.448   3.315 -0.2615  0.0633  0.3249
 2882SOL    HW211294   1.563   5.459   3.283 -0.7591  0.7404 -0.8898
 2882SOL    HW311295   1.441   5.370   3.269 -0.4738  0.1222  0.3738
 2882SOL    MW411296   1.481   5.439   3.305 -0.3551  0.1604  0.1711
 2883SOL     OW11297   0.971   2.225   5.212 -0.4195 -0.0817  0.2416
 2883SOL    HW211298   1.059   2.217   5.250 -0.3765  0.3097  0.2286
 2883SOL    HW311299   0.915   2.174   5.270 -0.0754 -0.8792 -0.1161
 2883SOL    MW411300   0.975   2.218   5.224 -0.3684 -0.1353  0.1927
 2884SOL     OW11301   4.798   4.963   0.121 -0.2278 -0.7417  0.0575
 2884SOL    HW211302   4.824   5.054   0.102  0.3217 -1.1551 -1.2794
 2884SOL    HW311303   4.820   4.950   0.213  0.7432  0.1273 -0.0403
 2884SOL    MW411304   4.804   4.974   0.131 -0.0272 -0.6816 -0.1318
 2885SOL     OW11305   4.190   5.307   1.709  0.3968  0.3154  0.3519
 2885SOL    HW211306   4.099   5.311   1.682  0.6786 -2.7776 -1.4716
 2885SOL    HW311307   4.231   5.382   1.665 -0.5736 -0.4789 -2.0540
 2885SOL    MW411308   4.184   5.317   1.700  0.3059 -0.1975 -0.2061
 2886SOL     OW11309   4.906   5.503   0.385 -0.3203  0.2249  0.6563
 2886SOL    HW211310   4.868   5.421   0.419 -2.2623  1.0368  0.5517
 2886SOL    HW311311   4.918   5.558   0.463 -2.5143  1.1881  0.3678
 2886SOL    MW411312   4.903   5.499   0.400 -0.8660  0.4591  0.6044
 2887SOL     OW11313   5.620   1.321   3.142  0.3128 -0.3448 -0.1139
 2887SOL    HW211314   5.570   1.326   3.061  0.5177  0.9057 -0.1755
 2887SOL    HW311315   5.696   1.377   3.128  2.2319 -2.7997 -0.3098
 2887SOL    MW411316   5.623   1.329   3.130  0.5930 -0.5037 -0.1479
 2888SOL     OW11317   6.120   4.156   5.813 -0.0316 -0.8422  0.2747
 2888SOL    HW211318   6.032   4.188   5.796 -0.4047  0.0221  3.2342
 2888SOL    HW311319   6.109   4.064   5.838  0.0084 -0.9797 -0.2192
 2888SOL    MW411320   6.107   4.148   5.814 -0.0756 -0.7463  0.6000
 2889SOL     OW11321   3.443   4.674   4.699  0.0117 -0.0610  0.2344
 2889SOL    HW211322   3.349   4.694   4.701 -0.0026 -0.1708  0.8062
 2889SOL    HW311323   3.460   4.648   4.608 -0.7106 -0.9753  0.3483
 2889SOL    MW411324   3.433   4.673   4.687 -0.0855 -0.1961  0.3249
 2890SOL     OW11325   2.948   1.282   0.898  0.1752  0.0720  0.1180
 2890SOL    HW211326   3.019   1.318   0.846 -1.1417 -0.1290 -1.9300
 2890SOL    HW311327   2.948   1.188   0.878 -0.4308  0.0124  0.3614
 2890SOL    MW411328   2.957   1.274   0.889 -0.0785  0.0376 -0.1201
 2891SOL     OW11329   0.013   0.919   1.434  0.7220 -0.1023 -0.0150
 2891SOL    HW211330   0.002   0.841   1.380  0.5397 -1.9881  2.5538
 2891SOL    HW311331   0.091   0.962   1.400  0.0102 -0.5414 -2.4054
 2891SOL    MW411332   0.022   0.915   1.422  0.6041 -0.4090  0.0085
 2892SOL     OW11333   1.477   0.821   5.554 -0.4046  0.0828  0.1010
 2892SOL    HW211334   1.467   0.835   5.460  0.4378 -0.2557 -0.0457
 2892SOL    HW311335   1.392   0.846   5.591 -1.6031 -2.0505 -1.0089
 2892SOL    MW411336   1.464   0.826   5.546 -0.4516 -0.2433 -0.0648
 2893SOL     OW11337   6.172   2.098   2.462  0.4223 -0.5340 -0.3835
 2893SOL    HW211338   6.246   2.138   2.417  0.5695 -0.6160 -0.2161
 2893SOL    HW311339   6.099   2.158   2.447  0.6509 -0.1794 -0.0909
 2893SOL    MW411340   6.172   2.111   2.454  0.4719 -0.4980 -0.3228
 2894SOL     OW11341   2.606   4.581   4.667  0.1999  0.0393  0.4623
 2894SOL    HW211342   2.595   4.659   4.721 -1.2526 -0.4269  0.8931
 2894SOL    HW311343   2.592   4.612   4.577  1.5523  0.6105  0.4238
 2894SOL    MW411344   2.603   4.595   4.662  0.1867  0.0531  0.5140
 2895SOL     OW11345   0.722   0.248   0.222  0.0071  0.9553 -0.0965
 2895SOL    HW211346   0.729   0.342   0.243 -0.9762  0.9630  0.2647
 2895SOL    HW311347   0.694   0.208   0.304  1.4773  0.1700  0.0449
 2895SOL    MW411348   0.719   0.255   0.235  0.0714  0.8527 -0.0302
 2896SOL     OW11349   2.480   0.507   5.441  0.4284  0.2089 -0.3389
 2896SOL    HW211350   2.518   0.433   5.393 -1.7776 -1.6544  0.5896
 2896SOL    HW311351   2.529   0.511   5.523 -0.3737 -1.2310  0.2364
 2896SOL    MW411352   2.491   0.498   5.445  0.0315 -0.2269 -0.1405
 2897SOL     OW11353   2.721   5.542   2.161 -0.3045  0.8495  0.2860
 2897SOL    HW211354   2.781   5.595   2.108 -1.4176  0.7330 -1.1751
 2897SOL    HW311355   2.769   5.461   2.177  0.7067  1.5619  0.9434
 2897SOL    MW411356   2.735   5.538   2.156 -0.3180  0.9281  0.1800
 2898SOL     OW11357   0.870   3.226   3.200 -0.0466 -0.3432  1.1098
 2898SOL    HW211358   0.864   3.169   3.277  3.3630  0.1688  1.9516
 2898SOL    HW311359   0.891   3.312   3.236  0.6622  0.1162 -0.3407
 2898SOL    MW411360   0.872   3.230   3.215  0.4968 -0.2151  1.0295
 2899SOL     OW11361   0.309   2.206   2.347  0.5156 -0.2662 -0.2680
 2899SOL    HW211362   0.363   2.149   2.291 -1.0248 -0.1775 -1.9350
 2899SOL    HW311363   0.335   2.295   2.322  0.8684 -0.2288  0.2317
 2899SOL    MW411364   0.320   2.210   2.336  0.3589 -0.2495 -0.4220
 2900SOL     OW11365   4.622   5.430   3.567  0.3304  0.0892 -0.2517
 2900SOL    HW211366   4.618   5.424   3.472 -1.6151 -1.1811 -0.1503
 2900SOL    HW311367   4.713   5.453   3.586  0.4385  1.6969 -2.4416
 2900SOL    MW411368   4.634   5.432   3.557  0.0880  0.1337 -0.5272
 2901SOL     OW11369   1.599   0.990   4.897  0.0652 -0.2397  0.8408
 2901SOL    HW211370   1.505   1.006   4.890 -0.2341 -0.7156  2.9248
 2901SOL    HW311371   1.609   0.898   4.875  0.4865  0.4217 -2.0750
 2901SOL    MW411372   1.588   0.980   4.894  0.0813 -0.2152  0.7310
 2902SOL     OW11373   1.228   1.590   5.638 -0.8294  0.0837 -0.4021
 2902SOL    HW211374   1.155   1.626   5.689 -0.6125  1.6049 -1.1075
 2902SOL    HW311375   1.303   1.592   5.698 -1.2486 -1.1361  0.2037
 2902SOL    MW411376   1.228   1.595   5.653 -0.8561  0.1235 -0.4153
 2903SOL     OW11377   3.913   6.281   5.583  0.3188  0.1558 -0.2296
 2903SOL    HW211378   3.941   6.279   5.492  0.4908 -1.7085 -0.1605
 2903SOL    HW311379   3.824   6.245   5.582  0.6584 -0.7390  0.4268
 2903SOL    MW411380   3.905   6.276   5.571  0.3863 -0.2082 -0.1339
 2904SOL     OW11381   5.976   0.498   0.057 -0.1400  0.5102 -0.5492
 2904SOL    HW211382   6.045   0.446   0.100 -0.1227  0.8839 -0.1165
 2904SOL    HW311383   5.907   0.435   0.038 -0.6477  0.5404  1.0922
 2904SOL    MW411384   5.976   0.483   0.060 -0.2047  0.5635 -0.2755
 2905SOL     OW11385   4.176   4.986   3.722 -0.1480  0.5110 -0.4132
 2905SOL    HW211386   4.134   4.936   3.652 -0.3292 -0.0956  0.1088
 2905SOL    HW311387   4.113   4.983   3.794  1.9721 -3.2612  1.6023
 2905SOL    MW411388   4.162   4.979   3.722  0.1078 -0.0667 -0.0784
 2906SOL     OW11389   4.676   1.157   2.591 -0.3078  0.1195 -0.2580
 2906SOL    HW211390   4.596   1.117   2.557  0.9092 -3.3826  0.4879
 2906SOL    HW311391   4.662   1.161   2.685  0.3911 -0.6178 -0.1125
 2906SOL    MW411392   4.664   1.152   2.599 -0.0550 -0.4398 -0.1404
 2907SOL     OW11393   5.906   2.074   0.651  0.1693  0.2396  0.1686
 2907SOL    HW211394   5.936   2.126   0.576 -0.8390  0.0132 -0.4009
 2907SOL    HW311395   5.945   2.118   0.727  0.3400  1.0952 -0.3995
 2907SOL    MW411396   5.915   2.087   0.651  0.0588  0.3227  0.0185
 2908SOL     OW11397   6.043   3.299   2.890  0.5731 -0.1374  0.2625
 2908SOL    HW211398   6.043   3.204   2.903  2.5473 -0.0495  1.2716
 2908SOL    HW311399   5.951   3.324   2.896 -0.1910 -2.1652 -1.6642
 2908SOL    MW411400   6.031   3.290   2.892  0.7328 -0.3934  0.1414
 2909SOL     OW11401   3.035   2.340   5.599  0.2856  0.5469  0.7046
 2909SOL    HW211402   3.066   2.250   5.598 -1.7443 -0.2493 -1.4387
 2909SOL    HW311403   3.103   2.390   5.554  0.4557 -0.3603 -0.0834
 2909SOL    MW411404   3.048   2.334   5.593  0.0402  0.3222  0.3179
 2910SOL     OW11405   2.918   5.916   2.666  0.7958  0.1998  0.0601
 2910SOL    HW211406   2.935   5.826   2.696  0.0602 -0.3896 -1.2240
 2910SOL    HW311407   2.852   5.949   2.727  0.2373 -0.5375 -0.1220
 2910SOL    MW411408   2.912   5.908   2.678  0.6250  0.0248 -0.1334
 2911SOL     OW11409   0.266   0.670   1.514 -0.3130  1.1434 -0.3983
 2911SOL    HW211410   0.246   0.640   1.425  0.7283 -1.1528  0.0535
 2911SOL    HW311411   0.196   0.634   1.568  0.1230  0.8348 -0.0325
 2911SOL    MW411412   0.254   0.661   1.509 -0.1181  0.7998 -0.2904
 2912SOL     OW11413   3.172   1.916   0.755 -0.4451  0.1591 -0.0353
 2912SOL    HW211414   3.207   1.937   0.841  1.0182 -0.0928 -0.5486
 2912SOL    HW311415   3.248   1.890   0.703 -1.5104 -1.4252 -0.8988
 2912SOL    MW411416   3.186   1.915   0.760 -0.3926 -0.0831 -0.2169
 2913SOL     OW11417   3.499   2.592   4.412 -0.3641 -0.4560 -0.5109
 2913SOL    HW211418   3.516   2.555   4.325  0.5209 -0.1608 -0.4740
 2913SOL    HW311419   3.577   2.569   4.463  0.1820  1.3800 -0.4559
 2913SOL    MW411420   3.512   2.584   4.407 -0.1753 -0.1748 -0.4987
 2914SOL     OW11421   5.830   1.802   0.045  0.3915  0.2266 -0.4803
 2914SOL    HW211422   5.867   1.826   0.130  0.1663 -0.4392 -0.1973
 2914SOL    HW311423   5.852   1.710   0.033  1.4803  0.6034 -1.6912
 2914SOL    MW411424   5.838   1.793   0.054  0.5055  0.1885 -0.6027
 2915SOL     OW11425   3.725   2.331   5.428 -0.2758  0.0999  0.0732
 2915SOL    HW211426   3.752   2.246   5.393  0.7240  1.0940 -1.6992
 2915SOL    HW311427   3.773   2.340   5.510 -1.1725 -1.4563  0.8117
 2915SOL    MW411428   3.735   2.321   5.434 -0.2622  0.0257 -0.0632
 2916SOL     OW11429   0.404   0.150   1.823 -0.0742  0.1545 -0.5449
 2916SOL    HW211430   0.324   0.157   1.771 -0.6004 -0.0199  0.2320
 2916SOL    HW311431   0.475   0.164   1.760 -0.4799 -3.6722 -2.1316
 2916SOL    MW411432   0.403   0.152   1.808 -0.1971 -0.3734 -0.6517
 2917SOL     OW11433   5.956   0.555   5.557 -0.1802  0.5463 -0.0900
 2917SOL    HW211434   5.947   0.643   5.594 -0.4224  0.7136 -0.5366
 2917SOL    HW311435   5.975   0.499   5.632 -1.9933  0.6610  0.5121
 2917SOL    MW411436   5.957   0.559   5.571 -0.4514  0.5835 -0.0695
 2918SOL     OW11437   5.795   3.322   6.090 -0.9177  0.0927 -0.3849
 2918SOL    HW211438   5.840   3.268   6.025 -0.5126  1.3447 -1.1777
 2918SOL    HW311439   5.831   3.409   6.077 -2.9428  0.9663 -0.4243
 2918SOL    MW411440   5.806   3.326   6.080 -1.1314  0.3732 -0.4947
 2919SOL     OW11441   1.880   2.358   1.636  0.1694  0.0280  0.0264
 2919SOL    HW211442   1.972   2.383   1.625 -0.0927  0.4960 -1.3832
 2919SOL    HW311443   1.831   2.430   1.594 -0.9482  0.7790  2.4667
 2919SOL    MW411444   1.886   2.371   1.629 -0.0127  0.1889  0.1624
 2920SOL     OW11445   1.257   6.326   3.362 -0.0772  0.0228 -0.1245
 2920SOL    HW211446   1.172   6.336   3.406  0.7174  0.2311  1.4433
 2920SOL    HW311447   1.253   6.240   3.321 -0.9357 -0.1005  0.1963
 2920SOL    MW411448   1.245   6.316   3.363 -0.0856  0.0340  0.1247
 2921SOL     OW11449   3.288   0.103   5.777 -0.1316 -0.2963 -0.4308
 2921SOL    HW211450   3.301   0.174   5.714 -2.5069 -0.4530 -1.1673
 2921SOL    HW311451   3.218   0.050   5.740 -2.0391 -0.0920  2.5640
 2921SOL    MW411452   3.281   0.105   5.764 -0.6967 -0.2900 -0.1328
 2922SOL     OW11453   2.219   0.321   4.949  0.7181 -0.3143 -0.0356
 2922SOL    HW211454   2.312   0.323   4.972  1.3788 -1.1255 -2.4351
 2922SOL    HW311455   2.214   0.372   4.868 -0.6557 -1.6252 -0.8009
 2922SOL    MW411456   2.231   0.328   4.942  0.6240 -0.5943 -0.4531
 2923SOL     OW11457   4.966   1.436   1.820  0.3535  0.2103  0.4280
 2923SOL    HW211458   5.016   1.354   1.819  0.1460  0.0785  0.6305
 2923SOL    HW311459   4.993   1.479   1.902  0.9349  0.6429  0.0131
 2923SOL    MW411460   4.976   1.431   1.831  0.4028  0.2500  0.4000
 2924SOL     OW11461   1.473   2.620   2.364  0.5446  0.1657  0.3738
 2924SOL    HW211462   1.455   2.644   2.274  1.1244  0.9373  0.4543
 2924SOL    HW311463   1.425   2.684   2.416  2.1233  1.2414  0.5911
 2924SOL    MW411464   1.464   2.631   2.359  0.8294  0.4094  0.4131
 2925SOL     OW11465   5.391   0.870   2.068 -0.0200 -0.5208 -0.4288
 2925SOL    HW211466   5.446   0.797   2.094 -0.7644 -0.8644  0.2003
 2925SOL    HW311467   5.303   0.832   2.058  0.2561 -0.6295 -4.1644
 2925SOL    MW411468   5.386   0.855   2.070 -0.0818 -0.5805 -0.8386
 2926SOL     OW11469   2.851   3.557   3.313  0.1609  0.5282 -0.0267
 2926SOL    HW211470   2.775   3.519   3.357 -0.3220  0.8445 -0.5832
 2926SOL    HW311471   2.915   3.485   3.309  0.3502  0.5836  1.4817
 2926SOL    MW411472   2.850   3.543   3.318  0.1222  0.5772  0.0989
 2927SOL     OW11473   2.612   5.096   1.204 -0.4554  0.2021 -0.6173
 2927SOL    HW211474   2.528   5.063   1.238  0.2051 -0.2735  0.5951
 2927SOL    HW311475   2.624   5.180   1.247 -0.1854  0.1549 -0.6021
 2927SOL    MW411476   2.602   5.102   1.214 -0.3326  0.1331 -0.4554
 2928SOL     OW11477   5.765   3.411   1.783  0.0743 -0.9004  0.0343
 2928SOL    HW211478   5.820   3.382   1.710  0.1249  1.2019 -0.8387
 2928SOL    HW311479   5.675   3.395   1.753  0.1078 -0.4776 -0.2987
 2928SOL    MW411480   5.760   3.405   1.769  0.0854 -0.5673 -0.1248
 2929SOL     OW11481   4.404   2.907   2.592  0.6273 -0.2705  0.4841
 2929SOL    HW211482   4.483   2.959   2.608  0.3453  0.3296  0.0082
 2929SOL    HW311483   4.357   2.956   2.524  0.3580 -1.1687  0.0054
 2929SOL    MW411484   4.408   2.921   2.585  0.5545 -0.3098  0.3581
 2930SOL     OW11485   1.597   3.724   0.068 -0.2367  0.1199  0.2367
 2930SOL    HW211486   1.512   3.732   0.025 -0.7034  1.6778  1.3305
 2930SOL    HW311487   1.657   3.698  -0.002 -1.5629 -0.8757 -0.5872
 2930SOL    MW411488   1.594   3.722   0.053 -0.4732  0.1941  0.2723
 2931SOL     OW11489   1.115   3.097   5.133 -0.4676 -0.2877 -0.2542
 2931SOL    HW211490   1.098   3.026   5.071  0.0324  0.5390 -1.3715
 2931SOL    HW311491   1.208   3.088   5.154 -0.3922  0.0626 -0.4375
 2931SOL    MW411492   1.125   3.086   5.128 -0.3917 -0.1324 -0.4258
 2932SOL     OW11493   2.286   0.464   0.590 -0.3414  0.1360  0.2582
 2932SOL    HW211494   2.351   0.500   0.530  0.1182  1.9932  1.7560
 2932SOL    HW311495   2.290   0.370   0.576  2.1479  0.2344 -0.2468
 2932SOL    MW411496   2.295   0.456   0.580  0.0477  0.3940  0.3892
 2933SOL     OW11497   2.755   1.591   1.236  0.0994 -0.6258 -0.3538
 2933SOL    HW211498   2.835   1.620   1.192  0.0715  0.4811  0.3116
 2933SOL    HW311499   2.783   1.518   1.291  1.6468  2.4150  3.2890
 2933SOL    MW411500   2.769   1.585   1.237  0.2999 -0.0786  0.2146
 2934SOL     OW11501   5.217   4.596   0.856  0.4844  0.5242  0.1012
 2934SOL    HW211502   5.165   4.548   0.792 -1.3123  1.0666  1.0934
 2934SOL    HW311503   5.153   4.634   0.916  2.1230 -0.5504  2.6852
 2934SOL    MW411504   5.202   4.595   0.855  0.4636  0.4540  0.5730
 2935SOL     OW11505   0.785   1.342   6.234 -0.2874 -0.2794  0.2505
 2935SOL    HW211506   0.736   1.416   6.199  0.4163  0.2901  0.4460
 2935SOL    HW311507   0.872   1.351   6.196  0.0464 -0.5234  0.9348
 2935SOL    MW411508   0.790   1.353   6.224 -0.1505 -0.2364  0.3665
 2936SOL     OW11509   1.036   0.741   1.521 -0.7067 -0.0573  0.1380
 2936SOL    HW211510   1.118   0.740   1.570 -0.9506  0.0408  0.5527
 2936SOL    HW311511   1.061   0.771   1.433  0.0931 -2.4361 -0.4982
 2936SOL    MW411512   1.050   0.745   1.516 -0.6334 -0.3582  0.1088
 2937SOL     OW11513   2.021   2.788   6.196 -0.0628  0.4675 -0.2568
 2937SOL    HW211514   2.100   2.825   6.157 -0.2077  1.4816  0.3800
 2937SOL    HW311515   2.048   2.703   6.231  0.6076  0.5625 -0.5499
 2937SOL    MW411516   2.035   2.781   6.196  0.0065  0.6138 -0.2115
 2938SOL     OW11517   3.885   0.148   5.620 -0.1477 -0.5061  0.0996
 2938SOL    HW211518   3.919   0.189   5.700  0.9430  0.4602 -0.8188
 2938SOL    HW311519   3.916   0.057   5.625  0.1340 -0.3831  0.6574
 2938SOL    MW411520   3.894   0.141   5.631  0.0334 -0.3624  0.0520
 2939SOL     OW11521   4.212   4.505   5.689  0.6955  0.2604  0.4488
 2939SOL    HW211522   4.149   4.575   5.708  0.8565  0.6387 -0.3926
 2939SOL    HW311523   4.162   4.441   5.639  0.5462 -0.2513  1.2251
 2939SOL    MW411524   4.197   4.506   5.685  0.6970  0.2428  0.4402
 2940SOL     OW11525   5.100   2.724   2.551 -0.6291 -0.1706  0.4536
 2940SOL    HW211526   5.099   2.677   2.635 -1.5065  3.0415  2.4093
 2940SOL    HW311527   5.162   2.796   2.565 -1.2466  0.7721 -1.4528
 2940SOL    MW411528   5.108   2.727   2.564 -0.8264  0.3776  0.4601
 2941SOL     OW11529   0.424   2.362   0.517  0.0547 -0.0910  0.2594
 2941SOL    HW211530   0.359   2.428   0.491  2.1634  1.7298 -0.7775
 2941SOL    HW311531   0.431   2.305   0.441 -0.1577 -0.1546  0.2857
 2941SOL    MW411532   0.416   2.363   0.504  0.3049  0.1409  0.1260
 2942SOL     OW11533   4.817   0.412   5.375  0.3883  0.3377 -0.2957
 2942SOL    HW211534   4.834   0.504   5.356  1.2669  0.4755  1.0398
 2942SOL    HW311535   4.752   0.385   5.310  0.7178  1.6768 -1.2041
 2942SOL    MW411536   4.810   0.420   5.364  0.5477  0.5325 -0.2394
 2943SOL     OW11537   5.285   1.745   2.654 -0.2694  0.3624 -0.3511
 2943SOL    HW211538   5.263   1.696   2.574 -0.8812 -0.9820  0.5929
 2943SOL    HW311539   5.207   1.798   2.671 -0.7138 -0.4132  0.0997
 2943SOL    MW411540   5.272   1.746   2.645 -0.4088  0.0827 -0.1670
 2944SOL     OW11541   5.613   4.194  -0.019 -0.0755 -0.3911  0.6704
 2944SOL    HW211542   5.696   4.159  -0.051 -0.1944  0.7136 -1.0020
 2944SOL    HW311543   5.625   4.202   0.076  1.7030 -0.3123  0.4730
 2944SOL    MW411544   5.626   4.191  -0.011  0.1435 -0.2350  0.4237
 2945SOL     OW11545   3.850   5.821   0.167  0.5038 -0.1645 -0.4131
 2945SOL    HW211546   3.789   5.869   0.110  0.3951 -0.4074 -0.5049
 2945SOL    HW311547   3.919   5.791   0.108  0.7941  0.2392 -0.2836
 2945SOL    MW411548   3.851   5.824   0.151  0.5277 -0.1433 -0.4081
 2946SOL     OW11549   0.868   6.133   4.083  0.4936 -0.0194 -0.3928
 2946SOL    HW211550   0.833   6.044   4.086  1.2485 -0.3082  0.2571
 2946SOL    HW311551   0.825   6.173   4.008 -0.2636 -0.7575 -0.3671
 2946SOL    MW411552   0.858   6.126   4.073  0.4933 -0.1549 -0.3037
 2947SOL     OW11553   2.849   2.162   6.110 -0.3620  0.1931 -0.4193
 2947SOL    HW211554   2.783   2.099   6.082  0.3786 -0.9240  0.2553
 2947SOL    HW311555   2.894   2.187   6.029 -0.5899 -0.2427 -0.6841
 2947SOL    MW411556   2.846   2.157   6.095 -0.2944 -0.0118 -0.3653
 2948SOL     OW11557   6.395   6.410   4.034  0.5880 -0.1017 -0.0625
 2948SOL    HW211558   6.420   6.440   4.122  0.8561 -0.0154 -0.1669
 2948SOL    HW311559   6.299   6.404   4.037  0.6375 -0.8534  0.4784
 2948SOL    MW411560   6.385   6.413   4.046  0.6299 -0.1895 -0.0049
 2949SOL     OW11561   5.065   6.254   1.199  0.8718 -1.0803 -0.5491
 2949SOL    HW211562   5.136   6.283   1.257 -1.2965 -0.1359  1.8665
 2949SOL    HW311563   5.048   6.164   1.226 -0.4779 -0.4770  0.7552
 2949SOL    MW411564   5.072   6.246   1.210  0.4077 -0.8761 -0.0583
 2950SOL     OW11565   2.775   1.243   2.630 -0.1889 -0.4322 -0.3849
 2950SOL    HW211566   2.770   1.152   2.601  2.4161 -0.4894 -0.8779
 2950SOL    HW311567   2.856   1.248   2.680 -1.0053  1.3281  0.8560
 2950SOL    MW411568   2.785   1.232   2.633  0.0470 -0.2075 -0.2862
 2951SOL     OW11569   5.180   5.428   3.878  0.2933  0.0012  0.1784
 2951SOL    HW211570   5.255   5.376   3.906 -0.1043 -0.9927 -0.5366
 2951SOL    HW311571   5.214   5.482   3.807  0.0607 -1.4556 -1.1091
 2951SOL    MW411572   5.194   5.428   3.872  0.2102 -0.3222 -0.0858
 2952SOL     OW11573   2.856   0.485   5.245 -0.3230  0.6093 -0.4727
 2952SOL    HW211574   2.785   0.436   5.287 -0.8572 -0.1303 -2.1574
 2952SOL    HW311575   2.936   0.440   5.272 -0.5949  0.5670  0.2814
 2952SOL    MW411576   2.857   0.473   5.254 -0.4293  0.5061 -0.5955
 2953SOL     OW11577   0.020   5.003   1.514  0.0339 -0.6996  0.3391
 2953SOL    HW211578   0.003   5.082   1.565 -0.8458  0.2252 -1.2784
 2953SOL    HW311579   0.016   4.932   1.577 -0.7871  0.3888  1.5816
 2953SOL    MW411580   0.017   5.004   1.529 -0.1905 -0.4340  0.2896
 2954SOL     OW11581   2.912   4.178   5.990 -0.9352 -0.8475 -0.2834
 2954SOL    HW211582   2.867   4.259   5.963  0.0563 -0.4915 -0.9470
 2954SOL    HW311583   2.878   4.159   6.077 -0.4980  0.8272  0.2986
 2954SOL    MW411584   2.902   4.186   5.998 -0.7467 -0.5796 -0.2941
 2955SOL     OW11585   4.408   0.434   2.510 -0.1875  0.3255 -0.1969
 2955SOL    HW211586   4.360   0.509   2.547 -0.2938  0.2143 -0.1083
 2955SOL    HW311587   4.433   0.382   2.586 -0.5217  0.0250 -0.2915
 2955SOL    MW411588   4.405   0.437   2.525 -0.2456  0.2712 -0.1977
 2956SOL     OW11589   2.858   0.625   0.719  0.3813  0.0861  0.8064
 2956SOL    HW211590   2.931   0.677   0.686  0.3936 -1.1125 -1.2552
 2956SOL    HW311591   2.795   0.689   0.751  1.3620  1.2433  0.5111
 2956SOL    MW411592   2.859   0.640   0.719  0.5123  0.0806  0.4954
 2957SOL     OW11593   5.228   2.170   4.536  0.2588 -0.6305  0.8358
 2957SOL    HW211594   5.139   2.180   4.569 -0.7478 -0.2277 -1.7075
 2957SOL    HW311595   5.222   2.096   4.475  0.7501  1.4368 -1.9273
 2957SOL    MW411596   5.215   2.161   4.532  0.1908 -0.3046  0.1357
 2958SOL     OW11597   2.548   4.495   1.328 -0.0410  0.1174 -0.4409
 2958SOL    HW211598   2.498   4.451   1.396  0.3287  0.2502 -0.0840
 2958SOL    HW311599   2.532   4.443   1.249  1.7827 -1.7284  0.3150
 2958SOL    MW411600   2.540   4.482   1.326  0.2484 -0.1086 -0.2941
 2959SOL     OW11601   3.700   3.119   5.521 -0.1512 -0.0332  0.0972
 2959SOL    HW211602   3.730   3.067   5.596  0.2448 -0.8885 -0.6384
 2959SOL    HW311603   3.604   3.115   5.527 -0.1268 -0.0074  0.6077
 2959SOL    MW411604   3.691   3.111   5.532 -0.0958 -0.1426  0.0675
 2960SOL     OW11605   1.893   2.266   1.926 -0.4756 -0.4456  0.4082
 2960SOL    HW211606   1.988   2.269   1.939 -0.3819 -0.2403 -0.2791
 2960SOL    HW311607   1.877   2.325   1.852 -0.8645 -2.2458 -1.0057
 2960SOL    MW411608   1.903   2.274   1.918 -0.5145 -0.6560  0.1310
 2961SOL     OW11609   4.366   5.874   0.322  0.3568  0.2514 -0.0429
 2961SOL    HW211610   4.412   5.796   0.352 -0.6573 -0.0669  0.7419
 2961SOL    HW311611   4.298   5.889   0.388 -0.3821  0.9563 -0.9279
 2961SOL    MW411612   4.363   5.866   0.335  0.1255  0.3024 -0.0561
 2962SOL     OW11613   4.694   1.114   4.936 -0.2429 -0.5639 -0.2832
 2962SOL    HW211614   4.749   1.045   4.898  0.4005  0.3509 -1.0678
 2962SOL    HW311615   4.628   1.131   4.869 -1.5763 -1.7033  0.6811
 2962SOL    MW411616   4.692   1.107   4.922 -0.3339 -0.5935 -0.2595
 2963SOL     OW11617   6.415   1.884   3.107  0.2262 -0.0840  0.4449
 2963SOL    HW211618   6.339   1.904   3.051 -0.1960 -2.7957 -0.0829
 2963SOL    HW311619   6.387   1.809   3.159  2.3665 -0.8070  0.6487
 2963SOL    MW411620   6.401   1.876   3.106  0.4529 -0.5371  0.4022
 2964SOL     OW11621   5.867   3.390   4.862  0.1708  0.0112 -0.0275
 2964SOL    HW211622   5.783   3.433   4.873  0.2319  0.9559 -2.5201
 2964SOL    HW311623   5.847   3.310   4.814  0.7492  0.7426 -1.5418
 2964SOL    MW411624   5.854   3.385   4.857  0.2552  0.2323 -0.5562
 2965SOL     OW11625   4.428   4.954   1.019  0.0675 -0.4010  0.4015
 2965SOL    HW211626   4.475   5.037   1.019 -0.3644 -0.1172  2.1359
 2965SOL    HW311627   4.347   4.972   0.972  0.1832  0.0406  0.3745
 2965SOL    MW411628   4.423   4.967   1.013  0.0258 -0.3053  0.6268
 2966SOL     OW11629   6.062   3.718   5.421  0.6301 -0.1816 -0.2836
 2966SOL    HW211630   6.057   3.805   5.461  1.0628 -0.6120  0.7297
 2966SOL    HW311631   6.150   3.687   5.441  0.2112 -1.1811  0.0558
 2966SOL    MW411632   6.073   3.725   5.429  0.6319 -0.3703 -0.1051
 2967SOL     OW11633   1.729   5.644   1.320  0.4188  0.0933  0.2016
 2967SOL    HW211634   1.739   5.732   1.285 -3.4106  0.9613  0.8848
 2967SOL    HW311635   1.703   5.590   1.245  2.6417 -0.5267 -0.1925
 2967SOL    MW411636   1.727   5.648   1.306  0.2069  0.1260  0.2397
 2968SOL     OW11637   4.353   1.417   3.722  0.1295 -0.1597  0.1688
 2968SOL    HW211638   4.381   1.395   3.811  0.6103 -0.9269 -0.1686
 2968SOL    HW311639   4.333   1.333   3.681 -0.2819  0.2008 -0.3926
 2968SOL    MW411640   4.354   1.403   3.729  0.1386 -0.2133  0.0502
 2969SOL     OW11641   0.370   2.276   0.204 -0.9778 -0.1428 -0.0333
 2969SOL    HW211642   0.318   2.331   0.146 -0.3695  0.6256  0.1202
 2969SOL    HW311643   0.411   2.212   0.146  0.6185  1.3815 -0.7024
 2969SOL    MW411644   0.369   2.275   0.188 -0.6869  0.1597 -0.1013
 2970SOL     OW11645   2.152   5.987   2.848 -0.2476  0.0388  0.1312
 2970SOL    HW211646   2.098   6.021   2.920 -0.8361  0.7443 -0.6288
 2970SOL    HW311647   2.218   6.054   2.835 -1.3547  0.9088 -1.3117
 2970SOL    MW411648   2.153   6.000   2.856 -0.4713  0.2467 -0.1595
 2971SOL     OW11649   5.634   1.678   5.198  0.1065  0.1586  0.0915
 2971SOL    HW211650   5.655   1.746   5.134  0.7477 -0.1187 -0.0020
 2971SOL    HW311651   5.584   1.724   5.266  0.0975  0.6165 -0.2169
 2971SOL    MW411652   5.630   1.693   5.198  0.1900  0.1824  0.0385
 2972SOL     OW11653   3.023   1.352   3.556  0.1799 -0.0854 -0.2755
 2972SOL    HW211654   3.044   1.306   3.638  0.1671 -0.4914 -0.5007
 2972SOL    HW311655   3.078   1.430   3.559  3.0325 -1.8756 -1.5846
 2972SOL    MW411656   3.033   1.356   3.567  0.5546 -0.3752 -0.4779
 2973SOL     OW11657   3.762   4.669   1.738  0.7960 -0.3076  0.3201
 2973SOL    HW211658   3.772   4.594   1.796  0.8483  0.3185  1.1278
 2973SOL    HW311659   3.806   4.741   1.783 -0.4886  0.5713  0.2450
 2973SOL    MW411660   3.769   4.669   1.751  0.6334 -0.1090  0.4167
 2974SOL     OW11661   3.262   2.046   3.929  0.2630  0.1159  0.1662
 2974SOL    HW211662   3.199   2.016   3.863  1.7411 -0.7654 -0.9067
 2974SOL    HW311663   3.235   2.003   4.010  1.4017 -3.0437 -0.9965
 2974SOL    MW411664   3.250   2.036   3.931  0.6082 -0.4173 -0.1288
 2975SOL     OW11665   2.120   4.037   4.483 -0.0038  0.3402  0.1805
 2975SOL    HW211666   2.077   3.968   4.434 -1.3467 -0.3416  2.1975
 2975SOL    HW311667   2.213   4.028   4.461 -0.3828 -0.8760 -1.0183
 2975SOL    MW411668   2.127   4.027   4.474 -0.2310  0.0898  0.2885
 2976SOL     OW11669   0.803   2.926   2.167 -0.4078  0.1393 -0.1144
 2976SOL    HW211670   0.781   2.846   2.119 -3.0411  0.0393  1.0696
 2976SOL    HW311671   0.748   2.993   2.129 -0.2980  0.7447  0.7649
 2976SOL    MW411672   0.793   2.924   2.156 -0.7407  0.2060  0.1578
 2977SOL     OW11673   6.416   4.342  -0.008 -0.1799  0.4954  0.2087
 2977SOL    HW211674   6.389   4.268   0.047 -1.1837 -0.9357 -2.0828
 2977SOL    HW311675   6.511   4.332  -0.018 -0.2765 -0.3437  0.1148
 2977SOL    MW411676   6.425   4.331  -0.002 -0.3250  0.1959 -0.1061
 2978SOL     OW11677   1.713   3.983   4.803  0.5746 -0.1718 -0.2322
 2978SOL    HW211678   1.726   4.078   4.796 -1.1201 -0.0075 -2.0613
 2978SOL    HW311679   1.733   3.950   4.716 -2.0739 -1.0089 -0.6050
 2978SOL    MW411680   1.718   3.991   4.791  0.0015 -0.2606 -0.5227
 2979SOL     OW11681   2.539   3.802   2.462  0.5439  0.1402  0.3614
 2979SOL    HW211682   2.517   3.857   2.388  0.6399 -1.0290 -0.5679
 2979SOL    HW311683   2.625   3.832   2.491 -0.0676  1.4842  0.8858
 2979SOL    MW411684   2.547   3.813   2.456  0.4759  0.1633  0.3080
 2980SOL     OW11685   5.823   1.871   4.566  0.2950  0.1220 -0.8055
 2980SOL    HW211686   5.883   1.861   4.493  1.6642 -0.0718  0.3066
 2980SOL    HW311687   5.753   1.808   4.549  0.2275  0.5686 -2.2691
 2980SOL    MW411688   5.822   1.861   4.554  0.4668  0.1553 -0.8519
 2981SOL     OW11689   0.986   3.205   2.596 -0.2788 -0.3250 -0.0954
 2981SOL    HW211690   0.930   3.160   2.660  0.2155  0.0439  0.6032
 2981SOL    HW311691   0.926   3.261   2.548 -0.6504 -0.5605  0.0872
 2981SOL    MW411692   0.970   3.206   2.598 -0.2626 -0.3074  0.0209
 2982SOL     OW11693   2.024   4.758   5.845  0.8918  0.0274  0.1522
 2982SOL    HW211694   1.977   4.769   5.763  3.1870  0.3254 -1.2124
 2982SOL    HW311695   1.957   4.730   5.907 -0.9658 -0.0346 -1.7546
 2982SOL    MW411696   2.009   4.756   5.842  0.9495  0.0586 -0.2794
 2983SOL     OW11697   2.522   1.241   2.509  0.4001  0.5330  0.0521
 2983SOL    HW211698   2.515   1.320   2.457  1.9135  0.5999 -0.0792
 2983SOL    HW311699   2.594   1.258   2.570  0.1487 -0.3976  0.6286
 2983SOL    MW411700   2.530   1.253   2.510  0.5666  0.4190  0.1108
 2984SOL     OW11701   1.540   1.233   0.095 -0.5013  0.6496 -0.0083
 2984SOL    HW211702   1.617   1.218   0.041 -1.9226 -2.3742 -1.3937
 2984SOL    HW311703   1.540   1.328   0.110  3.2038  0.8416 -0.2466
 2984SOL    MW411704   1.550   1.244   0.090 -0.2000  0.2760 -0.2225
 2985SOL     OW11705   4.481   6.163   3.108 -0.3684 -0.2868 -0.3495
 2985SOL    HW211706   4.507   6.177   3.199 -1.4342  0.2515 -0.1096
 2985SOL    HW311707   4.487   6.250   3.068 -1.3516 -0.2264 -0.3912
 2985SOL    MW411708   4.485   6.177   3.115 -0.6387 -0.2078 -0.3233
 2986SOL     OW11709   5.891   5.902   3.067 -0.3086 -0.1866 -0.2481
 2986SOL    HW211710   5.920   5.882   3.157  0.4849 -1.9050 -0.8466
 2986SOL    HW311711   5.935   5.985   3.046 -3.6419  2.5407  2.2989
 2986SOL    MW411712   5.901   5.911   3.076 -0.6437 -0.0535  0.0089
 2987SOL     OW11713   0.468   1.170   3.422 -0.2958 -0.3206  0.3765
 2987SOL    HW211714   0.428   1.125   3.496 -0.3663 -0.7563  0.0792
 2987SOL    HW311715   0.465   1.106   3.350 -1.4523  0.5515 -0.3852
 2987SOL    MW411716   0.462   1.156   3.422 -0.4577 -0.2630  0.2368
 2988SOL     OW11717   1.080   3.829   2.534  0.4923 -0.0743  0.4767
 2988SOL    HW211718   1.058   3.806   2.624  0.7802 -1.6186  0.1701
 2988SOL    HW311719   1.062   3.750   2.483 -0.7042  1.0812 -1.0237
 2988SOL    MW411720   1.074   3.816   2.539  0.3724 -0.1256  0.2383
 2989SOL     OW11721   6.302   0.210   3.360 -0.1724  0.2309  0.1549
 2989SOL    HW211722   6.217   0.203   3.403  0.1552 -0.3626  0.7153
 2989SOL    HW311723   6.282   0.253   3.276 -0.7935  1.6168  0.9601
 2989SOL    MW411724   6.288   0.215   3.355 -0.2111  0.3355  0.3350
 2990SOL     OW11725   4.429   4.020   5.843 -0.0632  0.3737 -0.4782
 2990SOL    HW211726   4.513   4.019   5.797 -0.1612 -0.8018 -0.6624
 2990SOL    HW311727   4.448   3.988   5.931 -0.5295 -1.3478 -0.9644
 2990SOL    MW411728   4.442   4.016   5.848 -0.1377 -0.0085 -0.5667
 2991SOL     OW11729   1.464   1.955   0.995  0.0685 -0.7618  0.0254
 2991SOL    HW211730   1.554   1.967   1.025 -0.5479  0.1264  1.6124
 2991SOL    HW311731   1.434   1.877   1.041  0.3348 -1.6753 -1.3073
 2991SOL    MW411732   1.472   1.946   1.005  0.0223 -0.7651  0.0590
 2992SOL     OW11733   5.135   1.789   0.860  0.7602 -0.2744 -0.0030
 2992SOL    HW211734   5.169   1.711   0.905 -1.3513 -1.2495  0.0142
 2992SOL    HW311735   5.040   1.784   0.872  0.5978  2.6951  0.5736
 2992SOL    MW411736   5.127   1.778   0.868  0.4602 -0.0113  0.0753
 2993SOL     OW11737   4.379   4.801   0.075  0.1563 -0.0277  0.5687
 2993SOL    HW211738   4.453   4.749   0.045 -1.0130 -1.1886 -0.4125
 2993SOL    HW311739   4.302   4.749   0.053 -1.0507  1.8983 -0.0253
 2993SOL    MW411740   4.378   4.787   0.068 -0.1572  0.0733  0.3609
 2994SOL     OW11741   0.121   5.123   5.286  0.4960 -0.0939 -0.1687
 2994SOL    HW211742   0.131   5.166   5.202  0.2887 -0.3663 -0.3340
 2994SOL    HW311743   0.091   5.193   5.345 -0.8838 -0.2277 -0.6790
 2994SOL    MW411744   0.118   5.138   5.283  0.2866 -0.1475 -0.2578
 2995SOL     OW11745   1.139   2.645   3.440 -0.1018  0.4969 -0.3711
 2995SOL    HW211746   1.059   2.607   3.477 -0.0017 -1.6988 -2.1821
 2995SOL    HW311747   1.147   2.730   3.483 -2.0283 -0.2673  1.7045
 2995SOL    MW411748   1.129   2.651   3.450 -0.3428  0.1064 -0.3362
 2996SOL     OW11749   2.605   0.239   4.023 -0.2515 -0.4039  0.4714
 2996SOL    HW211750   2.666   0.286   4.080  1.0343 -1.6694  0.1977
 2996SOL    HW311751   2.529   0.221   4.078 -0.7289  1.8255  0.6158
 2996SOL    MW411752   2.603   0.243   4.038 -0.1449 -0.2767  0.4543
 2997SOL     OW11753   1.470   3.712   5.403 -0.1195  0.1738 -0.3912
 2997SOL    HW211754   1.550   3.662   5.422 -0.7701 -0.9243 -0.4951
 2997SOL    HW311755   1.417   3.654   5.350 -1.8526  0.1176  1.3214
 2997SOL    MW411756   1.474   3.698   5.399 -0.4340  0.0215 -0.1789
 2998SOL     OW11757   1.726   4.439   0.685  0.5951 -0.3072 -0.2559
 2998SOL    HW211758   1.734   4.511   0.748  1.4349 -1.4462  0.9966
 2998SOL    HW311759   1.659   4.468   0.624  1.4261  1.8430 -0.2242
 2998SOL    MW411760   1.718   4.452   0.686  0.8156 -0.1738 -0.0865
 2999SOL     OW11761   1.303   2.431   5.303  0.8149  0.2118 -0.4310
 2999SOL    HW211762   1.216   2.433   5.343  2.3612 -0.4228  3.4026
 2999SOL    HW311763   1.351   2.503   5.345  2.1090  0.8433 -2.7780
 2999SOL    MW411764   1.298   2.441   5.314  1.1897  0.2114 -0.2349
 3000SOL     OW11765   2.868   3.298   4.567  0.0045  0.0194 -0.5912
 3000SOL    HW211766   2.866   3.254   4.482 -0.0889 -1.6675  0.2411
 3000SOL    HW311767   2.778   3.330   4.579 -0.1102 -0.1791 -0.8994
 3000SOL    MW411768   2.856   3.296   4.557 -0.0230 -0.2293 -0.5221
 3001SOL     OW11769   0.387   0.852   5.600 -0.3497  0.1393 -0.1638
 3001SOL    HW211770   0.474   0.830   5.566 -0.2785 -0.2916  0.2771
 3001SOL    HW311771   0.357   0.923   5.544  1.2060  1.8461  1.0279
 3001SOL    MW411772   0.395   0.858   5.588 -0.1350  0.3077  0.0516
 3002SOL     OW11773   5.280   4.965   3.765 -0.1966  0.2813 -0.2706
 3002SOL    HW211774   5.338   5.003   3.699  0.2347 -0.5477 -0.3866
 3002SOL    HW311775   5.334   4.957   3.843  0.4015 -2.0214 -0.8380
 3002SOL    MW411776   5.295   4.969   3.766 -0.0608 -0.1319 -0.3608
 3003SOL     OW11777   2.960   5.895   3.993  0.4454 -0.4957 -0.1478
 3003SOL    HW211778   2.979   5.831   4.062 -0.7553  1.3541  2.0595
 3003SOL    HW311779   2.864   5.893   3.984  0.5617 -0.5137 -1.6256
 3003SOL    MW411780   2.950   5.886   4.001  0.3023 -0.2540 -0.0515
 3004SOL     OW11781   0.063   6.242   5.898 -0.1717  0.3269  0.4352
 3004SOL    HW211782   0.069   6.207   5.809  0.1148 -0.6756  0.8322
 3004SOL    HW311783   0.009   6.178   5.945  1.5943 -0.4118  1.5698
 3004SOL    MW411784   0.056   6.229   5.893  0.0991  0.0972  0.6373
 3005SOL     OW11785   5.065   1.938   2.649  0.2092  0.4947  0.9093
 3005SOL    HW211786   5.001   1.897   2.591  1.2040 -0.9976  0.8210
 3005SOL    HW311787   5.021   2.017   2.680 -1.7852 -0.5986  1.0467
 3005SOL    MW411788   5.051   1.943   2.646  0.0773  0.1536  0.9157
 3006SOL     OW11789   1.524   4.255   2.680  0.0724  1.2041 -0.3576
 3006SOL    HW211790   1.564   4.234   2.765 -0.3837  0.9599 -0.2004
 3006SOL    HW311791   1.583   4.319   2.641  1.5349 -0.3797 -0.8741
 3006SOL    MW411792   1.537   4.261   2.686  0.2052  0.9629 -0.4050
 3007SOL     OW11793   5.597   0.632   3.098  0.6221  0.1726 -0.5500
 3007SOL    HW211794   5.588   0.608   3.006  0.7756 -0.9082 -0.2917
 3007SOL    HW311795   5.507   0.633   3.131  0.5470  0.8067 -0.7700
 3007SOL    MW411796   5.584   0.629   3.090  0.6324  0.1136 -0.5450
 3008SOL     OW11797   3.230   1.128   3.003 -0.3934 -0.2292  0.0970
 3008SOL    HW211798   3.255   1.162   2.917  0.5698  1.4750  1.0040
 3008SOL    HW311799   3.252   1.198   3.064 -0.2278 -1.7379  1.8543
 3008SOL    MW411800   3.236   1.142   2.999 -0.2445 -0.2034  0.4485
 3009SOL     OW11801   3.452   5.258   2.612  0.2064  0.2007  0.4560
 3009SOL    HW211802   3.469   5.331   2.671  2.0581 -0.0812  0.3494
 3009SOL    HW311803   3.512   5.273   2.538  0.9124 -1.6045  0.6133
 3009SOL    MW411804   3.462   5.270   2.610  0.5438 -0.0746  0.4627
 3010SOL     OW11805   1.091   1.005   0.180  0.2923 -0.2017  0.6675
 3010SOL    HW211806   1.155   1.069   0.148  0.7451  0.0806  2.1012
 3010SOL    HW311807   1.088   1.018   0.274 -1.7260 -0.3655  0.6745
 3010SOL    MW411808   1.099   1.015   0.188  0.0857 -0.1861  0.8576
 3011SOL     OW11809   4.364   4.277   4.365  0.0439 -0.1760  0.0365
 3011SOL    HW211810   4.366   4.186   4.394 -1.2384 -0.8972 -1.8684
 3011SOL    HW311811   4.453   4.296   4.338  0.1100 -1.2616 -0.5645
 3011SOL    MW411812   4.376   4.268   4.365 -0.1166 -0.4144 -0.2941
 3012SOL     OW11813   3.191   2.244   3.379 -0.9497 -0.0103 -0.1174
 3012SOL    HW211814   3.167   2.151   3.382 -1.3804  0.1024  0.0692
 3012SOL    HW311815   3.135   2.281   3.310 -2.2166  0.4916  1.1186
 3012SOL    MW411816   3.180   2.237   3.370 -1.1737  0.0708  0.0703
 3013SOL     OW11817   1.444   0.547   4.707 -0.0534 -0.6904  0.3025
 3013SOL    HW211818   1.505   0.614   4.738  1.8412 -1.5656 -1.3556
 3013SOL    HW311819   1.428   0.570   4.615 -2.1937 -0.5573  0.6447
 3013SOL    MW411820   1.450   0.559   4.699 -0.0858 -0.7883  0.1289
 3014SOL     OW11821   3.997   4.027   2.967  0.5848 -0.0671  0.2073
 3014SOL    HW211822   3.927   3.991   3.020  1.4664 -2.0836  0.0900
 3014SOL    HW311823   3.965   4.023   2.877  0.7632 -0.7823  0.1748
 3014SOL    MW411824   3.984   4.022   2.962  0.7246 -0.4275  0.1875
 3015SOL     OW11825   2.689   1.704   0.124 -0.3228  0.4033  0.1499
 3015SOL    HW211826   2.679   1.662   0.209 -1.6729  2.2197  0.9765
 3015SOL    HW311827   2.679   1.633   0.060 -0.4269 -0.8236  1.4861
 3015SOL    MW411828   2.686   1.689   0.126 -0.5147  0.4811  0.4352
 3016SOL     OW11829   1.012   6.062   2.221  0.3009 -0.7953 -0.1587
 3016SOL    HW211830   0.994   6.140   2.169 -1.2042 -0.0722  1.3422
 3016SOL    HW311831   1.006   6.092   2.312  2.0004 -2.1835  0.4599
 3016SOL    MW411832   1.009   6.076   2.226  0.3265 -0.8831  0.1209
 3017SOL     OW11833   2.571   2.534   5.566  0.1120 -0.1995  0.7796
 3017SOL    HW211834   2.538   2.480   5.495  0.0368  0.2048  0.5060
 3017SOL    HW311835   2.539   2.622   5.547 -1.2349 -0.3465  2.1279
 3017SOL    MW411836   2.563   2.539   5.554 -0.0756 -0.1656  0.9214
 3018SOL     OW11837   3.848   0.217   3.883 -0.0480 -0.4003  0.3479
 3018SOL    HW211838   3.935   0.246   3.855 -0.4471  0.7390  0.2489
 3018SOL    HW311839   3.838   0.254   3.971 -0.1333 -1.1614  0.6608
 3018SOL    MW411840   3.858   0.226   3.891 -0.1119 -0.3504  0.3761
 3019SOL     OW11841   2.491   0.473   3.899  0.1017 -0.2499 -0.1963
 3019SOL    HW211842   2.536   0.399   3.941 -0.5022  0.0840  1.0756
 3019SOL    HW311843   2.399   0.459   3.918 -0.0572  0.6230 -0.2850
 3019SOL    MW411844   2.485   0.461   3.907  0.0010 -0.0907 -0.0402
 3020SOL     OW11845   4.974   5.133   4.547  0.6199 -0.1291 -0.1578
 3020SOL    HW211846   5.066   5.107   4.550  0.2303 -1.4653  2.0624
 3020SOL    HW311847   4.967   5.203   4.612  0.1044  0.0920 -0.4477
 3020SOL    MW411848   4.985   5.139   4.556  0.5005 -0.2762  0.0969
 3021SOL     OW11849   3.731   5.133   4.367  0.3201 -0.3637 -0.1791
 3021SOL    HW211850   3.812   5.095   4.334 -0.5957 -1.9583 -0.7460
 3021SOL    HW311851   3.678   5.146   4.288 -0.3472 -0.3278  0.2680
 3021SOL    MW411852   3.734   5.130   4.352  0.1112 -0.5693 -0.1949
 3022SOL     OW11853   4.950   2.199   4.636  0.6777  0.4967  0.3953
 3022SOL    HW211854   4.881   2.147   4.595  1.0883  1.2284 -1.3063
 3022SOL    HW311855   4.914   2.223   4.721 -1.3602  1.1976 -0.6018
 3022SOL    MW411856   4.936   2.195   4.642  0.4630  0.6857  0.0392
 3023SOL     OW11857   4.035   4.279   1.708 -0.1136  0.5829 -0.1444
 3023SOL    HW211858   4.104   4.345   1.708  1.3941 -0.8921 -1.5132
 3023SOL    HW311859   3.961   4.320   1.664  1.4107  0.8583 -2.6700
 3023SOL    MW411860   4.034   4.293   1.702  0.2865  0.4246 -0.6582
 3024SOL     OW11861   3.128   3.735   2.606 -0.3846  0.2039 -0.1694
 3024SOL    HW211862   3.074   3.677   2.660 -0.4458  1.0422  0.6975
 3024SOL    HW311863   3.087   3.731   2.519  0.4322 -2.0953 -0.5050
 3024SOL    MW411864   3.115   3.727   2.601 -0.2849  0.0111 -0.0993
 3025SOL     OW11865   1.171   1.095   3.888 -0.5639  0.3665  0.1642
 3025SOL    HW211866   1.116   1.054   3.821  0.4154  0.8127 -0.9644
 3025SOL    HW311867   1.142   1.057   3.970 -0.4443 -1.7465 -0.7104
 3025SOL    MW411868   1.160   1.085   3.890 -0.4189  0.1466 -0.1001
 3026SOL     OW11869   4.905   4.555   4.302 -0.6256  0.1263 -0.2828
 3026SOL    HW211870   4.853   4.616   4.251 -1.6618 -1.7718 -1.6331
 3026SOL    HW311871   4.992   4.557   4.262 -1.0296 -0.2645 -1.1970
 3026SOL    MW411872   4.910   4.563   4.290 -0.8156 -0.1757 -0.5816
 3027SOL     OW11873   5.814   2.730   1.492  0.4314 -0.8288  0.2023
 3027SOL    HW211874   5.844   2.821   1.493  1.2137 -1.0789  1.5057
 3027SOL    HW311875   5.730   2.732   1.538  0.1192 -0.6722 -0.3647
 3027SOL    MW411876   5.807   2.742   1.498  0.4934 -0.8412  0.2995
 3028SOL     OW11877   0.949   0.925   0.665 -0.2819  0.3163 -0.3460
 3028SOL    HW211878   1.010   0.978   0.613 -2.5609 -0.0560 -3.7326
 3028SOL    HW311879   0.900   0.989   0.716  0.7488  0.8844 -0.0258
 3028SOL    MW411880   0.951   0.940   0.665 -0.4466  0.3422 -0.7506
 3029SOL     OW11881   1.766   4.263   4.707 -0.8260 -0.0550 -0.5470
 3029SOL    HW211882   1.751   4.311   4.788 -0.6594  1.9131 -1.6190
 3029SOL    HW311883   1.722   4.315   4.640 -0.6387 -1.4283 -1.7837
 3029SOL    MW411884   1.758   4.277   4.709 -0.7793  0.0235 -0.8516
 3030SOL     OW11885   0.977   4.271   3.555  0.1671  0.8007 -0.2138
 3030SOL    HW211886   0.932   4.352   3.535 -0.3040  0.3274 -1.1003
 3030SOL    HW311887   0.976   4.221   3.474  1.1707  0.2414  0.0889
 3030SOL    MW411888   0.971   4.275   3.542  0.2374  0.6644 -0.2908
 3031SOL     OW11889   1.589   5.392   5.546  0.2905  0.1406  0.2665
 3031SOL    HW211890   1.519   5.458   5.551  1.8508  1.9255 -0.5066
 3031SOL    HW311891   1.666   5.436   5.581  1.2304 -1.5287  0.3664
 3031SOL    MW411892   1.590   5.407   5.551  0.6204  0.1559  0.1777
 3032SOL     OW11893   3.399   4.138   5.003  0.8790  0.4860 -0.4448
 3032SOL    HW211894   3.329   4.184   4.955 -0.1624 -2.2975 -1.8363
 3032SOL    HW311895   3.472   4.200   5.005 -0.8098  2.6206 -1.0673
 3032SOL    MW411896   3.399   4.152   4.997  0.5188  0.4004 -0.7106
 3033SOL     OW11897   0.227   3.326   6.139 -0.4901 -0.2461 -0.7797
 3033SOL    HW211898   0.271   3.411   6.140  1.8890 -1.3371  2.2393
 3033SOL    HW311899   0.143   3.342   6.181 -0.0567  0.6261 -0.2152
 3033SOL    MW411900   0.222   3.339   6.145 -0.1190 -0.2750 -0.3069
 3034SOL     OW11901   4.766   4.872   1.832  0.1358 -0.5387 -0.2799
 3034SOL    HW211902   4.685   4.905   1.871 -0.4969 -2.8182  0.5273
 3034SOL    HW311903   4.827   4.946   1.836 -0.9455  0.3240  2.0290
 3034SOL    MW411904   4.763   4.886   1.838 -0.0903 -0.7256  0.1312
 3035SOL     OW11905   5.568   4.912   3.899 -0.0974 -0.0685  0.2862
 3035SOL    HW211906   5.541   4.829   3.860 -0.3964 -0.2240  0.8121
 3035SOL    HW311907   5.635   4.946   3.840 -0.4185 -0.3816 -0.2657
 3035SOL    MW411908   5.573   4.905   3.886 -0.1792 -0.1303  0.2828
 3036SOL     OW11909   0.796   2.814   4.883 -0.5490 -0.7075  0.1231
 3036SOL    HW211910   0.755   2.795   4.967 -1.4081 -1.7588 -0.5156
 3036SOL    HW311911   0.788   2.733   4.833  0.7974 -0.3905 -0.6425
 3036SOL    MW411912   0.789   2.801   4.888 -0.4847 -0.8044 -0.0622
 3037SOL     OW11913   0.474   3.772   5.516  0.0341  0.0902 -0.0838
 3037SOL    HW211914   0.527   3.805   5.444  0.9047  0.6998  0.8133
 3037SOL    HW311915   0.458   3.680   5.494  0.3318  0.2511 -1.0114
 3037SOL    MW411916   0.479   3.764   5.504  0.1883  0.1919 -0.0879
 3038SOL     OW11917   5.413   1.097   1.863  0.3014 -0.5561 -0.1859
 3038SOL    HW211918   5.408   1.009   1.902  1.2102 -0.7774 -0.5232
 3038SOL    HW311919   5.504   1.104   1.834  0.4303  0.8038  0.5226
 3038SOL    MW411920   5.425   1.086   1.864  0.4383 -0.4058 -0.1369
 3039SOL     OW11921   2.334   3.466   3.929  0.1315  0.1850  0.3671
 3039SOL    HW211922   2.274   3.541   3.925 -0.1663 -0.0689 -0.0395
 3039SOL    HW311923   2.316   3.425   4.014  0.1051  0.4183  0.4743
 3039SOL    MW411924   2.324   3.470   3.940  0.0887  0.1823  0.3276
 3040SOL     OW11925   6.107   0.673   6.310  0.3800 -0.1307  0.5673
 3040SOL    HW211926   6.047   0.732   6.265  0.3918 -0.5620 -0.0297
 3040SOL    HW311927   6.050   0.608   6.352  0.4212 -1.1822 -0.8959
 3040SOL    MW411928   6.092   0.672   6.309  0.3870 -0.3264  0.2954
 3041SOL     OW11929   2.850   2.720   5.907 -0.2185  0.3168 -0.1090
 3041SOL    HW211930   2.941   2.694   5.921 -0.3352 -0.0071  0.0571
 3041SOL    HW311931   2.804   2.638   5.887 -0.4644  0.4855 -0.2489
 3041SOL    MW411932   2.856   2.706   5.906 -0.2663  0.2964 -0.1055
 3042SOL     OW11933   5.896   4.055   0.287  0.4077  0.1299 -0.0205
 3042SOL    HW211934   5.973   4.025   0.336 -0.2933 -1.3205  0.2460
 3042SOL    HW311935   5.932   4.097   0.209  1.4822 -0.5577  0.0761
 3042SOL    MW411936   5.911   4.056   0.284  0.4570 -0.1522  0.0274
 3043SOL     OW11937   4.536   1.118   1.832 -0.2337 -0.5229 -0.5098
 3043SOL    HW211938   4.547   1.080   1.744  4.0144 -0.5304 -0.2027
 3043SOL    HW311939   4.598   1.191   1.834 -0.1973 -0.5223  2.4868
 3043SOL    MW411940   4.546   1.123   1.820  0.3316 -0.5238 -0.0739
 3044SOL     OW11941   4.425   5.670   2.259 -0.0027  0.2590 -0.4653
 3044SOL    HW211942   4.424   5.684   2.164  0.3843  2.7593 -0.1508
 3044SOL    HW311943   4.431   5.757   2.296  0.3885 -0.7023  1.8807
 3044SOL    MW411944   4.426   5.683   2.251  0.1000  0.4620 -0.1143
 3045SOL     OW11945   3.246   4.705   1.035 -0.7006 -0.3288  0.1843
 3045SOL    HW211946   3.246   4.712   0.940 -0.2337 -1.2220  0.1071
 3045SOL    HW311947   3.177   4.765   1.063  0.5635  1.5681 -0.5633
 3045SOL    MW411948   3.237   4.714   1.026 -0.4722 -0.1964  0.0755
 3046SOL     OW11949   5.153   1.786   3.746  0.2533 -0.7878  1.0600
 3046SOL    HW211950   5.218   1.764   3.680  0.0066 -1.3065  0.9889
 3046SOL    HW311951   5.069   1.761   3.707  0.1144 -1.1971  1.6117
 3046SOL    MW411952   5.150   1.780   3.732  0.2024 -0.9102  1.1234
 3047SOL     OW11953   6.130   2.689   5.704  0.0671  0.0252  0.2564
 3047SOL    HW211954   6.096   2.695   5.793  0.6845  0.6043  0.4626
 3047SOL    HW311955   6.212   2.641   5.712 -0.0861 -0.3083 -0.0723
 3047SOL    MW411956   6.136   2.683   5.717  0.1284  0.0576  0.2403
 3048SOL     OW11957   0.620   3.209   6.145  0.4461  0.2251  0.4418
 3048SOL    HW211958   0.681   3.167   6.206  0.9051 -1.8514 -1.3215
 3048SOL    HW311959   0.634   3.303   6.158 -0.2589 -0.0238  4.2516
 3048SOL    MW411960   0.630   3.216   6.155  0.4136 -0.0817  0.7118
 3049SOL     OW11961   3.612   2.557   5.925 -0.2184 -0.1180  0.1347
 3049SOL    HW211962   3.578   2.607   5.999 -0.2528  1.8401 -1.1321
 3049SOL    HW311963   3.535   2.515   5.887 -0.3312 -0.3968  0.6586
 3049SOL    MW411964   3.597   2.558   5.930 -0.2378  0.1035  0.0366
 3050SOL     OW11965   5.529   1.980   1.118  0.0720 -0.2903 -0.5397
 3050SOL    HW211966   5.571   1.894   1.123 -3.0929 -1.9723 -0.5392
 3050SOL    HW311967   5.479   1.978   1.037  0.1100  1.6906 -0.6635
 3050SOL    MW411968   5.528   1.969   1.108 -0.3405 -0.2509 -0.5560
 3051SOL     OW11969   0.878   1.171   4.435  0.2405  0.1329 -0.1215
 3051SOL    HW211970   0.865   1.079   4.411 -2.7167 -0.0125  1.6393
 3051SOL    HW311971   0.952   1.199   4.380  0.1108 -2.7709 -2.0203
 3051SOL    MW411972   0.886   1.162   4.424 -0.1668 -0.2694 -0.1397
 3052SOL     OW11973   3.069   5.794   0.223  0.2683 -0.8188 -0.0652
 3052SOL    HW211974   3.121   5.862   0.181  1.1016 -0.0032  2.1417
 3052SOL    HW311975   2.980   5.807   0.188  0.8476 -0.0382 -1.3160
 3052SOL    MW411976   3.064   5.805   0.213  0.4547 -0.6082  0.0610
 3053SOL     OW11977   4.570   0.576   0.055 -0.1599 -0.6113  0.1602
 3053SOL    HW211978   4.611   0.491   0.067 -1.2481 -1.2306 -0.3952
 3053SOL    HW311979   4.593   0.602  -0.035  1.8535  0.6441  0.9704
 3053SOL    MW411980   4.578   0.568   0.044 -0.0379 -0.5274  0.1939
 3054SOL     OW11981   3.254   0.606   4.178 -0.1572 -0.0856  0.0928
 3054SOL    HW211982   3.311   0.682   4.166 -1.6743  0.9918 -0.6928
 3054SOL    HW311983   3.177   0.641   4.223 -0.8216 -1.1830 -0.1561
 3054SOL    MW411984   3.251   0.620   4.182 -0.4450 -0.0882 -0.0437
 3055SOL     OW11985   4.505   4.848   0.588  0.4915  0.0960 -0.3668
 3055SOL    HW211986   4.411   4.845   0.608 -0.0412  0.1197 -2.5767
 3055SOL    HW311987   4.534   4.757   0.594 -0.0580 -0.1457 -1.1890
 3055SOL    MW411988   4.496   4.836   0.592  0.3487  0.0673 -0.7668
 3056SOL     OW11989   3.443   2.405   3.074  0.5855 -0.4295  0.5270
 3056SOL    HW211990   3.433   2.397   3.169  0.6985 -0.9722  0.4958
 3056SOL    HW311991   3.378   2.470   3.049 -0.3589 -1.2324  0.8131
 3056SOL    MW411992   3.433   2.413   3.083  0.4758 -0.6070  0.5606
 3057SOL     OW11993   4.604   2.435   3.051  0.4988 -0.2858  0.6512
 3057SOL    HW211994   4.533   2.378   3.021  1.0176 -1.0915  0.9642
 3057SOL    HW311995   4.589   2.517   3.003  0.0261 -0.8251 -0.1480
 3057SOL    MW411996   4.592   2.439   3.040  0.5049 -0.4632  0.5871
 3058SOL     OW11997   4.474   1.409   4.910 -0.4444  0.0521  0.1363
 3058SOL    HW211998   4.423   1.471   4.858 -0.6947  0.0006  0.3200
 3058SOL    HW311999   4.409   1.347   4.944 -0.3047  0.1681  0.6274
 3058SOL    MW412000   4.459   1.409   4.908 -0.4590  0.0606  0.2253
 3059SOL     OW12001   6.019   1.315   3.572  0.5956 -0.5425  0.0462
 3059SOL    HW212002   5.977   1.387   3.620  0.2299 -1.9544  1.9829
 3059SOL    HW312003   6.097   1.295   3.624  1.6556 -0.4390 -1.4423
 3059SOL    MW412004   6.024   1.322   3.586  0.6872 -0.7151  0.1053
 3060SOL     OW12005   0.819   4.513   3.584 -0.1143  0.0844 -0.1386
 3060SOL    HW212006   0.769   4.502   3.665 -1.0936 -2.6729 -1.0119
 3060SOL    HW312007   0.753   4.525   3.516  0.6663  1.4981 -0.7044
 3060SOL    MW412008   0.804   4.513   3.586 -0.1405 -0.0929 -0.3285
 3061SOL     OW12009   0.760   5.770   1.982 -0.3723  0.2615  0.6960
 3061SOL    HW212010   0.740   5.811   2.066 -2.6797  0.9021 -0.0955
 3061SOL    HW312011   0.811   5.692   2.005 -2.4090 -0.5499  2.8884
 3061SOL    MW412012   0.764   5.765   1.996 -0.9455  0.2390  0.8808
 3062SOL     OW12013   4.659   5.525   4.821 -0.2046 -0.2025  0.1054
 3062SOL    HW212014   4.678   5.432   4.838 -0.3587 -0.2504  0.0178
 3062SOL    HW312015   4.661   5.533   4.726 -2.4463 -0.6060 -0.0228
 3062SOL    MW412016   4.662   5.514   4.811 -0.5207 -0.2621  0.0769
 3063SOL     OW12017   1.715   3.462   5.580  0.3808  0.2916 -0.4673
 3063SOL    HW212018   1.656   3.459   5.655  0.5579 -0.8346 -0.3506
 3063SOL    HW312019   1.749   3.551   5.579  0.4473  0.2962  0.8567
 3063SOL    MW412020   1.712   3.473   5.589  0.4130  0.1436 -0.2772
 3064SOL     OW12021   4.049   3.694   2.094 -0.0075 -0.0821 -0.1662
 3064SOL    HW212022   4.116   3.755   2.124 -0.4114 -0.6552  2.0267
 3064SOL    HW312023   3.996   3.676   2.171 -1.5374 -1.1397 -1.4007
 3064SOL    MW412024   4.051   3.700   2.108 -0.2626 -0.2973 -0.0398
 3065SOL     OW12025   0.707   3.407   2.791 -0.0590  0.2711  0.1862
 3065SOL    HW212026   0.682   3.325   2.748 -1.4578  0.5788  0.3716
 3065SOL    HW312027   0.635   3.467   2.773  0.1569  0.9481  1.4693
 3065SOL    MW412028   0.694   3.404   2.783 -0.2151  0.4011  0.3800
 3066SOL     OW12029   4.426   4.884   4.090 -0.3672 -0.2298 -0.0867
 3066SOL    HW212030   4.483   4.877   4.167 -0.4106  2.0346  0.2331
 3066SOL    HW312031   4.466   4.953   4.037 -0.4422 -1.6208 -2.0519
 3066SOL    MW412032   4.439   4.892   4.093 -0.3828 -0.1145 -0.3038
 3067SOL     OW12033   3.036   3.672   0.652  0.4569  0.8680 -0.3064
 3067SOL    HW212034   2.996   3.636   0.573 -1.4742  0.8465  0.6393
 3067SOL    HW312035   3.128   3.684   0.628  0.4718 -1.4888 -1.7453
 3067SOL    MW412036   3.043   3.669   0.638  0.2041  0.5542 -0.3715
 3068SOL     OW12037   4.312   4.563   2.422  0.0222  0.2523 -0.2379
 3068SOL    HW212038   4.323   4.533   2.332  1.3740 -0.2870  0.0836
 3068SOL    HW312039   4.345   4.653   2.422  0.6585  0.0246 -0.1510
 3068SOL    MW412040   4.318   4.571   2.410  0.2845  0.1511 -0.1840
 3069SOL     OW12041   5.563   4.530   4.126 -0.0827 -0.3779  0.0213
 3069SOL    HW212042   5.620   4.454   4.112  0.6050  0.1733 -0.2306
 3069SOL    HW312043   5.483   4.509   4.079  0.8206 -0.1376 -1.7216
 3069SOL    MW412044   5.560   4.517   4.118  0.1272 -0.2734 -0.2419
 3070SOL     OW12045   2.548   5.071   5.920  0.0961 -0.0919 -0.3268
 3070SOL    HW212046   2.562   5.147   5.976  0.1571 -0.1644 -0.2448
 3070SOL    HW312047   2.474   5.025   5.959 -0.0902  0.0507 -0.5090
 3070SOL    MW412048   2.540   5.075   5.932  0.0796 -0.0826 -0.3400
 3071SOL     OW12049   0.816   2.007   3.188  0.0557  0.3062  0.4776
 3071SOL    HW212050   0.778   2.081   3.235  0.5517  0.2586  0.9611
 3071SOL    HW312051   0.884   1.973   3.247  0.0943 -0.2938  0.0974
 3071SOL    MW412052   0.820   2.012   3.202  0.1262  0.2208  0.4913
 3072SOL     OW12053   5.584   0.427   4.105 -0.2726 -0.3029  0.6499
 3072SOL    HW212054   5.521   0.382   4.161 -1.1525  0.8209  0.5804
 3072SOL    HW312055   5.534   0.455   4.029 -0.1423  2.1678  1.3921
 3072SOL    MW412056   5.569   0.425   4.103 -0.3715  0.1713  0.7387
 3073SOL     OW12057   0.472   2.310   1.419  0.0819  0.0993 -0.5386
 3073SOL    HW212058   0.499   2.228   1.462 -0.4252 -0.8262 -1.9082
 3073SOL    HW312059   0.411   2.282   1.351 -1.5347  1.7944  0.1172
 3073SOL    MW412060   0.467   2.295   1.416 -0.1983  0.2009 -0.6328
 3074SOL     OW12061   5.210   0.536   6.347  0.0634 -0.3844 -0.3059
 3074SOL    HW212062   5.192   0.499   6.260 -0.1198 -1.6313  0.2393
 3074SOL    HW312063   5.147   0.607   6.356 -0.4163 -0.7217 -0.8965
 3074SOL    MW412064   5.200   0.540   6.336 -0.0240 -0.5934 -0.3119
 3075SOL     OW12065   5.172   4.021   5.580 -0.1181 -0.6982 -0.4629
 3075SOL    HW212066   5.222   4.075   5.642 -0.2487 -0.0178 -0.9357
 3075SOL    HW312067   5.082   4.053   5.587 -0.7196 -2.5998  1.1222
 3075SOL    MW412068   5.167   4.033   5.589 -0.2147 -0.8594 -0.3162
 3076SOL     OW12069   6.368   2.313   0.477  0.4549  0.3535  0.2262
 3076SOL    HW212070   6.410   2.236   0.438  1.7042  0.8892  0.4471
 3076SOL    HW312071   6.415   2.326   0.559 -0.6330  0.5846  0.8288
 3076SOL    MW412072   6.380   2.304   0.483  0.4762  0.4547  0.3348
 3077SOL     OW12073   2.353   4.913   3.098  0.2730  0.7144 -0.3595
 3077SOL    HW212074   2.419   4.968   3.140  1.2063  0.7026 -1.7676
 3077SOL    HW312075   2.293   4.974   3.056  0.0806  0.6942 -0.1191
 3077SOL    MW412076   2.354   4.928   3.098  0.3707  0.7102 -0.5136
 3078SOL     OW12077   4.567   5.780   1.325  0.0214  0.7031  0.3152
 3078SOL    HW212078   4.562   5.722   1.248  1.4287  1.1899 -0.1739
 3078SOL    HW312079   4.481   5.823   1.327 -1.2361 -1.6787  0.9610
 3078SOL    MW412080   4.555   5.778   1.315  0.0412  0.4531  0.3359
 3079SOL     OW12081   1.418   5.916   5.925  0.1366  0.5508  0.2602
 3079SOL    HW212082   1.404   6.007   5.901  0.4111  0.5163 -0.0502
 3079SOL    HW312083   1.348   5.896   5.987 -0.2029  0.8347 -0.0287
 3079SOL    MW412084   1.407   5.925   5.930  0.1281  0.5837  0.1811
 3080SOL     OW12085   5.105   5.402   5.920 -0.1012  0.2791  0.4472
 3080SOL    HW212086   5.127   5.379   5.830  0.4542  1.2288  0.3218
 3080SOL    HW312087   5.165   5.349   5.973 -0.2064 -0.0403  0.2523
 3080SOL    MW412088   5.116   5.392   5.915 -0.0418  0.3623  0.4050
 3081SOL     OW12089   5.544   1.985   3.026  0.2540  0.0239  0.2911
 3081SOL    HW212090   5.454   1.955   3.023  1.0438 -2.6225  0.6627
 3081SOL    HW312091   5.567   1.987   3.119  0.1950  2.2013  0.3297
 3081SOL    MW412092   5.535   1.982   3.037  0.3505 -0.0380  0.3452
 3082SOL     OW12093   3.419   2.398   4.656  0.5619  0.3952  0.0494
 3082SOL    HW212094   3.370   2.387   4.737 -0.1247  0.0941 -0.3988
 3082SOL    HW312095   3.474   2.475   4.671  0.0336  0.6711  0.5993
 3082SOL    MW412096   3.420   2.407   4.669  0.4016  0.3919  0.0628
 3083SOL     OW12097   5.566   1.690   2.989 -0.0430 -0.2275  0.0900
 3083SOL    HW212098   5.566   1.785   2.976 -0.3160  0.1445  2.4808
 3083SOL    HW312099   5.478   1.663   2.962 -0.8711  0.6115  1.8315
 3083SOL    MW412100   5.554   1.699   2.983 -0.1883 -0.0678  0.6352
 3084SOL     OW12101   0.752   2.061   0.340  0.0913 -0.2744 -0.0124
 3084SOL    HW212102   0.770   2.149   0.308 -0.4209 -0.1408  0.0549
 3084SOL    HW312103   0.783   2.062   0.431 -0.5995  0.0785  0.2311
 3084SOL    MW412104   0.758   2.073   0.348 -0.0675 -0.2102  0.0286
 3085SOL     OW12105   1.214   2.847   1.243  0.0230  0.1651 -0.5654
 3085SOL    HW212106   1.152   2.911   1.206 -1.2981 -0.4819  0.4654
 3085SOL    HW312107   1.218   2.778   1.177 -1.3090 -0.3553 -0.1461
 3085SOL    MW412108   1.206   2.847   1.229 -0.3270  0.0111 -0.3741
 3086SOL     OW12109   4.746   5.128   4.396 -0.5410  0.8694 -0.1214
 3086SOL    HW212110   4.778   5.108   4.308  0.1551  0.6759  0.1734
 3086SOL    HW312111   4.825   5.144   4.448 -0.7009 -2.0331  1.2172
 3086SOL    MW412112   4.760   5.128   4.391 -0.4703  0.4609  0.0941
 3087SOL     OW12113   1.677   5.261   3.487 -0.4664  0.3577  0.0343
 3087SOL    HW212114   1.659   5.185   3.432  0.0862 -0.5107  1.0010
 3087SOL    HW312115   1.682   5.225   3.576 -0.7268  1.6151  0.5778
 3087SOL    MW412116   1.675   5.246   3.492 -0.4279  0.4091  0.2335
 3088SOL     OW12117   6.380   0.692   1.269 -0.3487 -0.1904 -0.1293
 3088SOL    HW212118   6.401   0.600   1.284 -1.1217  0.0155  2.7792
 3088SOL    HW312119   6.287   0.691   1.247 -0.2913 -0.1282 -0.3725
 3088SOL    MW412120   6.370   0.679   1.268 -0.4431 -0.1550  0.2224
 3089SOL     OW12121   3.259   2.716   4.907  0.2320 -0.7201 -0.0892
 3089SOL    HW212122   3.309   2.690   4.984  0.1896 -0.3760  0.0583
 3089SOL    HW312123   3.190   2.650   4.899  2.4093 -2.9486 -2.0424
 3089SOL    MW412124   3.256   2.704   4.916  0.5137 -0.9688 -0.3274
 3090SOL     OW12125   0.155   3.647   5.375  0.0985  0.0932 -0.4673
 3090SOL    HW212126   0.139   3.564   5.331 -1.2454 -0.4258  0.9285
 3090SOL    HW312127   0.162   3.711   5.303  0.9938 -1.1617 -1.5439
 3090SOL    MW412128   0.154   3.645   5.360  0.0393 -0.1409 -0.4251
 3091SOL     OW12129   5.430   1.301   4.235  0.0950 -0.3690  0.1729
 3091SOL    HW212130   5.463   1.305   4.145  0.8777  0.2535  0.4726
 3091SOL    HW312131   5.497   1.345   4.287 -0.3411 -0.7373  1.0695
 3091SOL    MW412132   5.443   1.307   4.230  0.1407 -0.3354  0.3307
 3092SOL     OW12133   1.541   1.766   4.372 -0.2363 -0.0244 -0.0583
 3092SOL    HW212134   1.496   1.720   4.444  0.3899  0.9604  0.9859
 3092SOL    HW312135   1.471   1.789   4.311 -0.4717 -3.4575 -1.3337
 3092SOL    MW412136   1.526   1.763   4.374 -0.1848 -0.3474 -0.0888
 3093SOL     OW12137   6.383   2.830   3.829  0.0170  0.3042 -0.0257
 3093SOL    HW212138   6.462   2.841   3.775 -0.0042  1.1058  0.0897
 3093SOL    HW312139   6.392   2.742   3.867  0.0042 -0.2950 -1.3621
 3093SOL    MW412140   6.395   2.820   3.827  0.0125  0.3309 -0.1868
 3094SOL     OW12141   4.096   2.889   2.034  0.0279  0.1069  0.0171
 3094SOL    HW212142   4.017   2.889   1.979 -0.3553 -0.3089  0.5495
 3094SOL    HW312143   4.062   2.902   2.123  0.6895  1.4325  0.1019
 3094SOL    MW412144   4.081   2.891   2.038  0.0646  0.2269  0.0985
 3095SOL     OW12145   4.875   1.615   5.632  0.3928  0.1882 -0.2619
 3095SOL    HW212146   4.891   1.522   5.652  0.3038  0.0658 -0.7612
 3095SOL    HW312147   4.878   1.658   5.718 -1.7736 -0.6023  0.2817
 3095SOL    MW412148   4.877   1.608   5.646  0.0952  0.0677 -0.2560
 3096SOL     OW12149   0.325   5.018   4.458  0.3087 -0.1467  0.0769
 3096SOL    HW212150   0.252   5.026   4.520 -1.3921 -2.1739 -1.5102
 3096SOL    HW312151   0.401   4.997   4.513 -0.4112  1.2396  1.7129
 3096SOL    MW412152   0.325   5.017   4.474 -0.0107 -0.2313  0.0833
 3097SOL     OW12153   5.019   4.403   3.158 -0.0158 -0.6203 -0.1818
 3097SOL    HW212154   4.949   4.418   3.095 -1.3614  0.9337  1.5816
 3097SOL    HW312155   5.043   4.490   3.189  1.6916 -1.2344  0.3458
 3097SOL    MW412156   5.013   4.416   3.154  0.0319 -0.4963  0.1205
 3098SOL     OW12157   0.217   3.560   2.800 -0.3549  0.0573 -0.1322
 3098SOL    HW212158   0.239   3.468   2.816  1.4482  0.0966 -1.8925
 3098SOL    HW312159   0.282   3.609   2.851 -1.9219  0.4262  1.5919
 3098SOL    MW412160   0.229   3.554   2.809 -0.3237  0.1112 -0.1370
 3099SOL     OW12161   3.908   5.036   0.814 -0.2755 -0.2963 -0.4980
 3099SOL    HW212162   3.845   5.105   0.792 -0.4243 -0.7100 -1.4244
 3099SOL    HW312163   3.869   4.991   0.889  0.4401  1.4066  0.9737
 3099SOL    MW412164   3.894   5.040   0.821 -0.2007 -0.1262 -0.4261
 3100SOL     OW12165   0.122   3.762   3.738 -0.2915 -0.0163 -0.3384
 3100SOL    HW212166   0.132   3.726   3.650 -0.0474  0.5077 -0.5283
 3100SOL    HW312167   0.144   3.855   3.729  0.4619 -0.1052  0.4146
 3100SOL    MW412168   0.127   3.770   3.725 -0.1599  0.0411 -0.2641
 3101SOL     OW12169   3.973   5.512   1.938 -0.0001  0.0458 -0.1435
 3101SOL    HW212170   3.992   5.419   1.927  0.8808 -0.0892  2.0789
 3101SOL    HW312171   3.997   5.551   1.854  1.4307 -1.4621 -0.4912
 3101SOL    MW412172   3.979   5.505   1.926  0.3049 -0.1710  0.1039
 3102SOL     OW12173   4.268   6.040   3.460  0.9540 -0.3246 -0.6726
 3102SOL    HW212174   4.207   6.114   3.462 -0.6204 -1.5606 -0.8109
 3102SOL    HW312175   4.286   6.026   3.367 -1.3072 -2.0455 -0.9393
 3102SOL    MW412176   4.263   6.048   3.448  0.4480 -0.7147 -0.7260
 3103SOL     OW12177   1.006   5.980   1.448  0.3624  0.1437  0.8641
 3103SOL    HW212178   0.917   5.954   1.423 -0.1053  2.0329  0.4199
 3103SOL    HW312179   1.047   6.007   1.366  1.3610 -0.6635  1.0770
 3103SOL    MW412180   1.000   5.980   1.434  0.4324  0.2865  0.8336
 3104SOL     OW12181   1.784   6.320   4.117 -0.2143 -0.0841  0.0701
 3104SOL    HW212182   1.770   6.253   4.049  0.3087 -0.3829  0.2483
 3104SOL    HW312183   1.698   6.335   4.154 -1.0641  2.0290 -2.4248
 3104SOL    MW412184   1.771   6.313   4.113 -0.2574  0.1552 -0.2356
 3105SOL     OW12185   4.547   3.429   3.230 -0.3829 -0.0595 -0.3654
 3105SOL    HW212186   4.482   3.461   3.168 -0.6209  1.0010  0.4122
 3105SOL    HW312187   4.595   3.361   3.182 -1.0145  0.2606 -1.4656
 3105SOL    MW412188   4.545   3.424   3.216 -0.4976  0.1227 -0.4080
 3106SOL     OW12189   3.806   3.439   5.833 -0.3754 -0.7369 -0.2345
 3106SOL    HW212190   3.808   3.424   5.928 -2.0259 -1.3762 -0.2675
 3106SOL    HW312191   3.857   3.366   5.797 -0.4682 -0.9880  0.1241
 3106SOL    MW412192   3.813   3.427   5.841 -0.6054 -0.8544 -0.1915
 3107SOL     OW12193   0.652   1.306   1.368  0.2784  0.6539  0.3920
 3107SOL    HW212194   0.664   1.249   1.293  0.5462  0.1594  0.8047
 3107SOL    HW312195   0.567   1.281   1.404 -0.2000  1.4075 -0.1777
 3107SOL    MW412196   0.642   1.295   1.363  0.2506  0.6881  0.3713
 3108SOL     OW12197   4.087   6.131   2.672  0.2886 -0.0293  0.4047
 3108SOL    HW212198   4.058   6.043   2.694 -0.6101  0.5343  1.5583
 3108SOL    HW312199   4.031   6.158   2.599 -0.3957  0.0958  0.9631
 3108SOL    MW412200   4.076   6.123   2.665  0.0798  0.0616  0.6306
 3109SOL     OW12201   1.045   5.059   4.191 -0.5932  0.4147  0.4726
 3109SOL    HW212202   1.076   5.010   4.267  0.6831 -0.9208 -0.8468
 3109SOL    HW312203   0.966   5.013   4.162 -0.5723  0.3855  0.4622
 3109SOL    MW412204   1.038   5.047   4.197 -0.4221  0.2347  0.2971
 3110SOL     OW12205   0.762   3.106   1.715 -0.1518  0.2706  1.0569
 3110SOL    HW212206   0.743   3.132   1.805 -2.6815 -2.8036  1.5836
 3110SOL    HW312207   0.778   3.012   1.720 -0.2781  0.0207 -1.6979
 3110SOL    MW412208   0.761   3.097   1.728 -0.5022 -0.1680  0.7629
 3111SOL     OW12209   0.752   2.585   5.059  0.0620 -0.2363  0.6140
 3111SOL    HW212210   0.658   2.590   5.041  0.2048  0.4480  0.0317
 3111SOL    HW312211   0.778   2.499   5.024 -0.3935 -0.5638  1.0564
 3111SOL    MW412212   0.743   2.574   5.052  0.0208 -0.1893  0.5955
 3112SOL     OW12213   3.374   1.448   1.954  0.2245  0.3910  0.6063
 3112SOL    HW212214   3.449   1.499   1.987  0.2536  1.7021 -1.3552
 3112SOL    HW312215   3.413   1.367   1.921  0.6881  0.7343  0.2948
 3112SOL    MW412216   3.389   1.444   1.954  0.2895  0.6093  0.3064
 3113SOL     OW12217   1.756   1.511   5.001  0.7695 -0.7326  0.0373
 3113SOL    HW212218   1.742   1.512   4.907  0.6047  1.4319  0.0403
 3113SOL    HW312219   1.671   1.531   5.039  0.8691 -1.4193  0.6663
 3113SOL    MW412220   1.743   1.513   4.994  0.7609 -0.5376  0.1207
 3114SOL     OW12221   5.533   6.376   0.889  0.3818 -0.0417 -0.2865
 3114SOL    HW212222   5.520   6.431   0.811  4.1182  0.6284 -0.5933
 3114SOL    HW312223   5.557   6.290   0.854  0.1608 -0.2918  0.1711
 3114SOL    MW412224   5.534   6.372   0.874  0.8457  0.0137 -0.2666
 3115SOL     OW12225   5.817   3.338   3.487 -0.2067  0.0600 -0.0681
 3115SOL    HW212226   5.828   3.253   3.443 -0.5385 -0.2469  0.4215
 3115SOL    HW312227   5.851   3.402   3.425  1.7302 -0.5766  0.2722
 3115SOL    MW412228   5.823   3.335   3.473  0.0050 -0.0645  0.0414
 3116SOL     OW12229   6.276   6.304   0.484 -0.7536 -0.0983  0.3125
 3116SOL    HW212230   6.342   6.261   0.538  1.4237  1.6707 -0.7614
 3116SOL    HW312231   6.273   6.394   0.518 -0.9674  0.4361 -1.0670
 3116SOL    MW412232   6.284   6.310   0.496 -0.4946  0.2056 -0.0112
 3117SOL     OW12233   3.715   2.877   0.952 -0.0932 -0.3984 -0.2755
 3117SOL    HW212234   3.669   2.864   0.869  0.3333  0.3495 -0.6355
 3117SOL    HW312235   3.746   2.789   0.976  0.8645 -0.4304 -1.5433
 3117SOL    MW412236   3.713   2.863   0.944  0.0894 -0.3040 -0.4903
 3118SOL     OW12237   2.269   5.124   1.084  0.2224 -0.0348  0.1828
 3118SOL    HW212238   2.259   5.053   1.021 -2.6311 -1.6038  2.1730
 3118SOL    HW312239   2.180   5.156   1.099  1.0192  1.5723  1.9413
 3118SOL    MW412240   2.256   5.119   1.078 -0.0490 -0.0298  0.6774
 3119SOL     OW12241   3.564   2.595   4.821 -0.4056 -0.2631 -0.1817
 3119SOL    HW212242   3.555   2.668   4.883 -1.2574 -0.8246  0.3768
 3119SOL    HW312243   3.658   2.575   4.821  0.0601  1.6433 -1.3210
 3119SOL    MW412244   3.575   2.602   4.829 -0.4565 -0.0857 -0.2583
 3120SOL     OW12245   5.919   2.725   3.680 -0.0136 -0.0504 -0.0705
 3120SOL    HW212246   5.884   2.805   3.718 -0.1383 -0.6424  1.0895
 3120SOL    HW312247   6.011   2.745   3.662 -0.1504  0.4796 -0.1960
 3120SOL    MW412248   5.927   2.738   3.682 -0.0481 -0.0586  0.0660
 3121SOL     OW12249   2.030   3.977   2.146  0.0911 -0.2949  1.0168
 3121SOL    HW212250   2.074   4.044   2.198 -0.6396 -0.0548  1.3416
 3121SOL    HW312251   1.937   3.997   2.155 -0.1219 -1.1778  0.8795
 3121SOL    MW412252   2.023   3.988   2.154 -0.0334 -0.3797  1.0415
 3122SOL     OW12253   6.268   4.848   2.581 -0.1525 -0.7026 -0.1262
 3122SOL    HW212254   6.281   4.940   2.561 -1.8581 -0.8475 -2.3158
 3122SOL    HW312255   6.212   4.847   2.658  0.0381  0.0827  0.0250
 3122SOL    MW412256   6.263   4.860   2.589 -0.3524 -0.6181 -0.3951
 3123SOL     OW12257   3.387   1.170   5.496 -0.2612  0.2712 -0.2824
 3123SOL    HW212258   3.452   1.109   5.530 -1.7565 -1.5463 -0.5759
 3123SOL    HW312259   3.314   1.115   5.468 -2.2717  2.2716  0.7163
 3123SOL    MW412260   3.386   1.155   5.497 -0.7237  0.2953 -0.1893
 3124SOL     OW12261   4.400   3.766   5.243  0.2173  0.3460 -0.8442
 3124SOL    HW212262   4.356   3.782   5.160 -0.4044  1.8819 -0.2660
 3124SOL    HW312263   4.374   3.840   5.298  0.6718 -0.5896  0.6901
 3124SOL    MW412264   4.390   3.778   5.240  0.1953  0.4252 -0.5655
 3125SOL     OW12265   1.743   3.850   6.011 -0.3152  0.3779 -0.5255
 3125SOL    HW212266   1.728   3.820   5.921  1.8893  0.5173 -0.9995
 3125SOL    HW312267   1.706   3.938   6.013  1.4249  1.2004 -1.9747
 3125SOL    MW412268   1.736   3.857   5.999  0.2052  0.5048 -0.7793
 3126SOL     OW12269   3.784   3.775   2.590  0.3902 -0.6650 -0.1356
 3126SOL    HW212270   3.812   3.686   2.570 -2.2416 -1.6814  0.3145
 3126SOL    HW312271   3.737   3.804   2.511 -1.1187 -0.7705  0.6787
 3126SOL    MW412272   3.781   3.767   2.577 -0.1561 -0.8130  0.0312
 3127SOL     OW12273   0.265   0.179   1.563 -0.4363  0.0265 -0.2730
 3127SOL    HW212274   0.243   0.089   1.539  0.4484 -0.3144  0.1541
 3127SOL    HW312275   0.310   0.214   1.486  1.9466 -0.9047  0.6104
 3127SOL    MW412276   0.268   0.172   1.549 -0.0052 -0.1413 -0.1001
 3128SOL     OW12277   4.211   3.148   4.440  0.3977 -0.0807  0.4519
 3128SOL    HW212278   4.168   3.193   4.367  0.8680 -0.3369  0.0026
 3128SOL    HW312279   4.295   3.192   4.448  0.6826 -0.5826  0.2950
 3128SOL    MW412280   4.216   3.160   4.431  0.4973 -0.1807  0.3719
 3129SOL     OW12281   4.156   5.520   0.709 -0.7561  0.5430  0.5564
 3129SOL    HW212282   4.235   5.567   0.734 -0.4598  1.3649 -1.6466
 3129SOL    HW312283   4.129   5.473   0.788 -0.0888  3.0209  2.3813
 3129SOL    MW412284   4.163   5.520   0.722 -0.6290  0.9784  0.5065
 3130SOL     OW12285   4.179   5.411   4.297 -0.3923 -0.0321  0.3075
 3130SOL    HW212286   4.109   5.405   4.231 -0.9106 -1.0118  0.9188
 3130SOL    HW312287   4.177   5.502   4.326 -2.5688 -0.3791  1.4915
 3130SOL    MW412288   4.169   5.422   4.292 -0.7479 -0.2071  0.5443
 3131SOL     OW12289   1.439   4.038   2.888 -0.2317  0.1414 -0.2246
 3131SOL    HW212290   1.432   4.079   2.974 -2.4236 -0.3449 -0.1038
 3131SOL    HW312291   1.508   3.972   2.898  0.8512  1.3522  0.5919
 3131SOL    MW412292   1.447   4.035   2.901 -0.3780  0.2370 -0.1009
 3132SOL     OW12293   4.487   0.183   2.375  0.2865  0.0977  0.2891
 3132SOL    HW212294   4.580   0.163   2.389  0.1319 -0.2983  0.7763
 3132SOL    HW312295   4.476   0.272   2.410  0.5240  0.2292  0.0349
 3132SOL    MW412296   4.498   0.192   2.381  0.2975  0.0628  0.3199
 3133SOL     OW12297   6.086   6.370   3.013 -0.2791 -0.0635 -0.5526
 3133SOL    HW212298   6.150   6.437   2.987  3.1725 -2.7278  0.2334
 3133SOL    HW312299   6.071   6.387   3.106  1.5507 -0.9477 -0.0390
 3133SOL    MW412300   6.093   6.381   3.022  0.4177 -0.5317 -0.3811
 3134SOL     OW12301   2.269   1.877   2.688  0.0044  0.2633  0.8044
 3134SOL    HW212302   2.289   1.805   2.628  0.3061  0.7491  0.3118
 3134SOL    HW312303   2.348   1.887   2.740 -0.6692 -0.9300  2.1061
 3134SOL    MW412304   2.282   1.869   2.687 -0.0447  0.1699  0.9111
 3135SOL     OW12305   5.044   1.740   2.936  0.4034 -0.1626  0.2688
 3135SOL    HW212306   4.966   1.793   2.952  0.5261 -0.1881  0.9760
 3135SOL    HW312307   5.020   1.685   2.862 -0.2674 -0.1934  0.5021
 3135SOL    MW412308   5.031   1.740   2.928  0.3311 -0.1700  0.3929
 3136SOL     OW12309   0.342   2.712   5.264  0.2607  0.3390 -0.4195
 3136SOL    HW212310   0.291   2.793   5.260 -1.9966 -0.9482  0.5193
 3136SOL    HW312311   0.321   2.674   5.349  3.9356  0.3382  0.6918
 3136SOL    MW412312   0.333   2.717   5.275  0.4477  0.1690 -0.1490
 3137SOL     OW12313   2.128   0.253   3.504  0.2822 -0.5222 -0.1279
 3137SOL    HW212314   2.197   0.319   3.500 -1.0177  0.8617 -2.2593
 3137SOL    HW312315   2.119   0.222   3.414 -0.3603 -2.3471  0.5176
 3137SOL    MW412316   2.136   0.258   3.492  0.0259 -0.5804 -0.3239
 3138SOL     OW12317   3.580   1.624   0.973 -0.1994  0.3969  0.3496
 3138SOL    HW212318   3.522   1.665   1.037  2.6522  3.7690  1.0516
 3138SOL    HW312319   3.527   1.621   0.892 -2.4847 -0.1695  1.7648
 3138SOL    MW412320   3.565   1.629   0.971 -0.1247  0.7671  0.6289
 3139SOL     OW12321   4.917   0.928   0.084  0.3316 -0.0523 -0.5617
 3139SOL    HW212322   4.829   0.894   0.100  1.2818 -2.4282 -0.0533
 3139SOL    HW312323   4.949   0.951   0.171  0.2690  0.7669 -0.7424
 3139SOL    MW412324   4.909   0.927   0.098  0.4487 -0.2577 -0.5185
 3140SOL     OW12325   2.636   2.919   1.781 -0.2773 -0.4604 -0.2963
 3140SOL    HW212326   2.619   2.908   1.875 -2.0384  0.1931 -0.5082
 3140SOL    HW312327   2.630   3.014   1.767 -2.0279 -0.7006 -1.4028
 3140SOL    MW412328   2.633   2.930   1.792 -0.7406 -0.4059 -0.4702
 3141SOL     OW12329   1.328   6.253   1.854 -0.1007 -0.4532 -0.5190
 3141SOL    HW212330   1.354   6.167   1.888  1.5830 -0.4177 -1.5940
 3141SOL    HW312331   1.249   6.235   1.802 -1.6647 -0.7741  1.8018
 3141SOL    MW412332   1.321   6.239   1.851 -0.0849 -0.4909 -0.3547
 3142SOL     OW12333   0.347   0.982   2.190 -0.4006  0.3255  0.4551
 3142SOL    HW212334   0.287   1.043   2.234 -3.0684 -1.4062 -0.5702
 3142SOL    HW312335   0.338   0.900   2.239 -1.8756 -1.0508 -1.9174
 3142SOL    MW412336   0.338   0.979   2.202 -0.9472 -0.0845  0.0068
 3143SOL     OW12337   0.072   0.211   2.577 -0.0335  0.0303 -0.5599
 3143SOL    HW212338   0.111   0.176   2.657 -1.9014 -1.9832 -0.4439
 3143SOL    HW312339   0.095   0.304   2.578  0.2091  0.0267  2.1804
 3143SOL    MW412340   0.080   0.219   2.588 -0.2479 -0.2358 -0.1831
 3144SOL     OW12341   6.411   3.686   5.064 -0.3069  0.2900 -0.3363
 3144SOL    HW212342   6.339   3.744   5.090 -0.1361  1.1702 -1.7291
 3144SOL    HW312343   6.489   3.726   5.102 -0.5210 -0.6840  1.2050
 3144SOL    MW412344   6.411   3.699   5.073 -0.3126  0.2777 -0.3167
 3145SOL     OW12345   5.000   2.288   1.749 -0.3705  0.2151 -0.3887
 3145SOL    HW212346   5.038   2.200   1.754 -1.0483 -0.0259  1.4813
 3145SOL    HW312347   5.049   2.338   1.815 -1.4047  0.6514  0.0611
 3145SOL    MW412348   5.012   2.283   1.759 -0.5964  0.2409 -0.0826
 3146SOL     OW12349   0.737   4.396   5.767 -0.3330 -0.8673 -0.3929
 3146SOL    HW212350   0.743   4.334   5.695 -0.1363 -1.2286 -0.0676
 3146SOL    HW312351   0.690   4.471   5.730  1.6787 -0.1125 -1.5561
 3146SOL    MW412352   0.732   4.398   5.752 -0.0416 -0.8154 -0.5035
 3147SOL     OW12353   2.656   4.171   4.350 -0.1555 -0.3396 -0.4394
 3147SOL    HW212354   2.709   4.241   4.311 -0.9821 -0.0288 -1.0225
 3147SOL    HW312355   2.703   4.090   4.328  0.8157  0.0124  0.2563
 3147SOL    MW412356   2.669   4.169   4.342 -0.1364 -0.2521 -0.4246
 3148SOL     OW12357   4.226   3.439   0.388 -0.0670 -0.1666  0.1033
 3148SOL    HW212358   4.318   3.419   0.370  0.4418  2.7431 -1.0229
 3148SOL    HW312359   4.225   3.463   0.481 -0.0727 -1.8454  0.5728
 3148SOL    MW412360   4.238   3.439   0.398 -0.0006 -0.0042  0.0166
 3149SOL     OW12361   5.346   2.414   3.968  0.3076  0.3138 -0.1904
 3149SOL    HW212362   5.419   2.412   4.031  0.7456  0.2932 -0.6915
 3149SOL    HW312363   5.267   2.411   4.023  0.6851 -0.3051  0.3391
 3149SOL    MW412364   5.345   2.414   3.983  0.4152  0.2294 -0.1867
 3150SOL     OW12365   3.556   5.810   5.893 -0.1701  0.6339 -0.2682
 3150SOL    HW212366   3.468   5.774   5.887 -0.2125  0.6148  0.3997
 3150SOL    HW312367   3.543   5.899   5.927 -0.0239  1.0777 -1.3613
 3150SOL    MW412368   3.543   5.817   5.897 -0.1564  0.6899 -0.3243
 3151SOL     OW12369   1.089   2.672   1.457 -0.1407 -0.0186 -0.2455
 3151SOL    HW212370   1.139   2.725   1.395  2.1551 -1.4661  0.2716
 3151SOL    HW312371   1.053   2.735   1.519  1.8927  1.0414 -0.0611
 3151SOL    MW412372   1.091   2.687   1.457  0.4305 -0.0697 -0.1529
 3152SOL     OW12373   1.849   0.756   1.440 -0.6110 -0.2563 -0.6552
 3152SOL    HW212374   1.870   0.800   1.358  1.7906 -3.5779 -2.0728
 3152SOL    HW312375   1.870   0.821   1.508  1.0527  1.3824 -2.5777
 3152SOL    MW412376   1.855   0.770   1.438 -0.0747 -0.4783 -1.0959
 3153SOL     OW12377   1.349   4.517   3.515  0.5596  0.4297  0.2288
 3153SOL    HW212378   1.270   4.503   3.463 -0.1925 -0.6787  1.6003
 3153SOL    HW312379   1.345   4.609   3.539 -1.1869  0.0700  1.5605
 3153SOL    MW412380   1.338   4.527   3.511  0.2299  0.2360  0.5854
 3154SOL     OW12381   2.021   5.021   6.118 -0.8819  0.5033 -0.9767
 3154SOL    HW212382   2.090   5.066   6.166 -1.0329  1.0563 -1.2717
 3154SOL    HW312383   2.022   4.932   6.153 -0.4817  0.6919 -0.4915
 3154SOL    MW412384   2.030   5.015   6.129 -0.8490  0.6012 -0.9516
 3155SOL     OW12385   1.522   3.535   2.153  0.2492  0.6464  0.2085
 3155SOL    HW212386   1.612   3.555   2.128  0.2264  0.9819  0.3780
 3155SOL    HW312387   1.528   3.454   2.204  0.4665  0.7126  0.2904
 3155SOL    MW412388   1.535   3.527   2.156  0.2748  0.6994  0.2417
 3156SOL     OW12389   5.103   0.273   4.310 -0.3377  0.2110  0.1496
 3156SOL    HW212390   5.073   0.207   4.247 -1.3863  0.1843  0.6442
 3156SOL    HW312391   5.129   0.222   4.387 -2.9865  0.3820  1.2830
 3156SOL    MW412392   5.102   0.257   4.312 -0.8255  0.2300  0.3644
 3157SOL     OW12393   0.211   5.109   1.291  0.4186 -0.1596 -0.0828
 3157SOL    HW212394   0.168   5.051   1.354  0.1017 -0.0932 -0.2359
 3157SOL    HW312395   0.284   5.057   1.257 -0.2794 -0.7334 -0.7324
 3157SOL    MW412396   0.215   5.094   1.295  0.2847 -0.2266 -0.1887
 3158SOL     OW12397   0.694   5.188   0.398 -0.1958  0.0038 -0.0064
 3158SOL    HW212398   0.610   5.202   0.355 -0.8049  0.5137  1.3037
 3158SOL    HW312399   0.698   5.255   0.466  0.2061 -1.5072  1.5200
 3158SOL    MW412400   0.684   5.199   0.401 -0.2232 -0.1283  0.3679
 3159SOL     OW12401   4.445   6.126   1.450  0.1760 -0.3369  0.0884
 3159SOL    HW212402   4.529   6.079   1.445 -0.1929 -0.9131 -1.1920
 3159SOL    HW312403   4.447   6.170   1.535  1.9863  0.0677 -0.1200
 3159SOL    MW412404   4.456   6.125   1.461  0.3662 -0.3595 -0.1081
 3160SOL     OW12405   0.574   4.968   4.645 -0.8271  0.0676 -0.4329
 3160SOL    HW212406   0.592   5.054   4.683  2.3304 -1.0651  1.0072
 3160SOL    HW312407   0.597   4.906   4.714 -0.7180 -1.9666 -2.1985
 3160SOL    MW412408   0.580   4.971   4.659 -0.3961 -0.3502 -0.4759
 3161SOL     OW12409   5.050   5.666   5.628  0.2921  0.4863 -0.0448
 3161SOL    HW212410   5.115   5.620   5.575  0.7992  0.8488  0.2589
 3161SOL    HW312411   4.972   5.667   5.573  0.3954 -0.3497 -0.2338
 3161SOL    MW412412   5.048   5.660   5.614  0.3727  0.4238 -0.0297
 3162SOL     OW12413   4.890   0.624   4.360  0.5050 -0.2067  0.4066
 3162SOL    HW212414   4.957   0.592   4.300 -0.3326 -0.1372 -0.5962
 3162SOL    HW312415   4.934   0.693   4.411  1.2693 -0.3629 -0.0319
 3162SOL    MW412416   4.905   0.629   4.359  0.4953 -0.2181  0.2164
 3163SOL     OW12417   1.993   0.710   3.469 -0.2521 -0.1120 -0.0648
 3163SOL    HW212418   1.994   0.720   3.564  0.9993 -0.0627 -0.0628
 3163SOL    HW312419   1.931   0.639   3.453 -2.1058  1.2634  0.6120
 3163SOL    MW412420   1.985   0.702   3.479 -0.3316  0.0760  0.0248
 3164SOL     OW12421   2.188   0.533   2.487  0.0738  0.0909 -0.0822
 3164SOL    HW212422   2.124   0.463   2.474  0.5199 -0.7699  1.9713
 3164SOL    HW312423   2.241   0.532   2.408 -1.6348 -0.0076 -1.2964
 3164SOL    MW412424   2.186   0.524   2.475 -0.0928 -0.0357  0.0285
 3165SOL     OW12425   0.400   1.230   1.460 -0.6279  0.0596  0.2937
 3165SOL    HW212426   0.345   1.165   1.416  0.1611  0.4178 -1.2584
 3165SOL    HW312427   0.420   1.189   1.545 -0.7072 -1.4435 -0.3713
 3165SOL    MW412428   0.395   1.216   1.466 -0.5342 -0.0915  0.0012
 3166SOL     OW12429   4.498   2.504   3.936  0.5999 -0.4667  0.3352
 3166SOL    HW212430   4.430   2.474   3.875  0.5383 -0.7814  0.5605
 3166SOL    HW312431   4.451   2.551   4.004  0.7189  0.4468 -0.1814
 3166SOL    MW412432   4.483   2.507   3.937  0.6075 -0.3877  0.2968
 3167SOL     OW12433   2.947   0.582   2.811  0.0551  0.2410 -0.3171
 3167SOL    HW212434   2.988   0.585   2.898  0.9392  2.4751 -0.7292
 3167SOL    HW312435   3.004   0.526   2.759  0.2352 -0.0693  0.2095
 3167SOL    MW412436   2.960   0.575   2.816  0.1955  0.4949 -0.3020
 3168SOL     OW12437   1.646   0.418   3.009 -0.3968 -0.0741  0.2264
 3168SOL    HW212438   1.568   0.466   2.983  0.0354 -0.1944 -1.4668
 3168SOL    HW312439   1.706   0.485   3.042  0.5206  0.8235 -2.8733
 3168SOL    MW412440   1.644   0.433   3.010 -0.2187  0.0284 -0.4059
 3169SOL     OW12441   2.741   1.690   0.833  0.3141  0.2294  0.5579
 3169SOL    HW212442   2.691   1.623   0.879 -0.7185  0.2136 -0.5535
 3169SOL    HW312443   2.711   1.773   0.871 -0.9577  0.2500 -0.4665
 3169SOL    MW412444   2.731   1.692   0.844  0.0100  0.2300  0.2761
 3170SOL     OW12445   5.249   0.511   5.927  0.4896 -1.1133 -0.2278
 3170SOL    HW212446   5.186   0.514   5.856 -0.6445  0.9776  0.7846
 3170SOL    HW312447   5.207   0.459   5.995 -0.7385  1.1502  0.8681
 3170SOL    MW412448   5.235   0.505   5.927  0.1779 -0.5388  0.0503
 3171SOL     OW12449   1.476   6.306   0.445  0.1533  0.1581 -0.3688
 3171SOL    HW212450   1.562   6.270   0.466 -0.0312  0.0807  0.2873
 3171SOL    HW312451   1.419   6.273   0.514 -0.1568  1.1640 -0.1325
 3171SOL    MW412452   1.480   6.297   0.457  0.0881  0.2806 -0.2511
 3172SOL     OW12453   4.071   1.994   4.537  0.0494 -0.3173 -0.1010
 3172SOL    HW212454   4.160   1.966   4.554  0.4642  1.0018  0.0315
 3172SOL    HW312455   4.044   2.039   4.617 -0.2715  0.3794 -0.5848
 3172SOL    MW412456   4.079   1.996   4.550  0.0618 -0.0513 -0.1474
 3173SOL     OW12457   5.206   2.176   0.113  0.0830  0.8455  0.4132
 3173SOL    HW212458   5.153   2.097   0.121  0.5157  0.5906  0.8154
 3173SOL    HW312459   5.294   2.149   0.141  0.0304  1.6980  1.4532
 3173SOL    MW412460   5.211   2.162   0.118  0.1332  0.9244  0.6035
 3174SOL     OW12461   5.474   0.102   0.676 -0.5052 -0.1505  0.7087
 3174SOL    HW212462   5.494   0.186   0.634  1.4285 -1.1898 -0.5912
 3174SOL    HW312463   5.401   0.067   0.626 -1.3161  0.7149  1.2491
 3174SOL    MW412464   5.467   0.108   0.664 -0.3571 -0.1735  0.6085
 3175SOL     OW12465   4.333   1.139   3.625 -0.2798 -0.4359  0.1623
 3175SOL    HW212466   4.323   1.113   3.716 -2.0990 -1.9433 -0.4017
 3175SOL    HW312467   4.244   1.139   3.590  0.4340 -0.6277 -1.8065
 3175SOL    MW412468   4.320   1.136   3.632 -0.4256 -0.6601 -0.1718
 3176SOL     OW12469   0.408   0.654   2.248 -0.2348 -0.4605  0.9692
 3176SOL    HW212470   0.402   0.607   2.330 -0.8310 -2.1244  0.0159
 3176SOL    HW312471   0.462   0.599   2.192  0.7364  0.9682  0.4338
 3176SOL    MW412472   0.415   0.641   2.251 -0.1853 -0.4916  0.7728
 3177SOL     OW12473   3.133   1.573   0.542  0.0207 -0.1847  0.2985
 3177SOL    HW212474   3.112   1.586   0.449  0.4762  1.2367  0.3681
 3177SOL    HW312475   3.178   1.653   0.568  1.8247 -1.4012  1.2106
 3177SOL    MW412476   3.137   1.585   0.533  0.3188 -0.1577  0.4280
 3178SOL     OW12477   6.304   0.782   6.139  0.2253 -0.3975  0.2517
 3178SOL    HW212478   6.385   0.779   6.190  0.8511 -0.8385 -0.7319
 3178SOL    HW312479   6.240   0.736   6.193 -0.3482  2.8365  2.6069
 3178SOL    MW412480   6.306   0.776   6.153  0.2322 -0.0290  0.4327
 3179SOL     OW12481   3.335   4.237   2.833 -0.0422 -0.1671 -0.1976
 3179SOL    HW212482   3.314   4.322   2.873  0.7386 -0.4533  0.8855
 3179SOL    HW312483   3.425   4.219   2.861  0.5693 -0.3918 -2.1523
 3179SOL    MW412484   3.344   4.246   2.842  0.1415 -0.2345 -0.3126
 3180SOL     OW12485   0.310   4.083   1.854 -0.0092  0.0405  0.3376
 3180SOL    HW212486   0.293   4.053   1.765  2.6324  0.4036 -0.3870
 3180SOL    HW312487   0.335   4.175   1.844 -1.9513  0.7888  1.7826
 3180SOL    MW412488   0.311   4.091   1.841  0.0831  0.1871  0.4327
 3181SOL     OW12489   0.921   0.617   0.653  0.3099 -0.6662 -0.1146
 3181SOL    HW212490   0.957   0.696   0.613 -1.2488  1.3338  2.1670
 3181SOL    HW312491   0.991   0.584   0.709  0.3493  0.1961  0.3534
 3181SOL    MW412492   0.935   0.623   0.655  0.1094 -0.2885  0.2482
 3182SOL     OW12493   3.483   3.865   4.564 -0.1364 -0.2008  0.0218
 3182SOL    HW212494   3.462   3.938   4.506 -0.7618 -0.1802  0.2613
 3182SOL    HW312495   3.499   3.907   4.649 -1.6121 -0.4202  0.4326
 3182SOL    MW412496   3.482   3.881   4.568 -0.4137 -0.2270  0.1076
 3183SOL     OW12497   1.969   5.372   2.562 -0.5067 -0.5500  0.5993
 3183SOL    HW212498   1.934   5.310   2.626 -0.9709  0.6576  1.5604
 3183SOL    HW312499   1.922   5.453   2.580  3.3420  1.5193  2.6548
 3183SOL    MW412500   1.958   5.374   2.573 -0.0602 -0.1177  0.9973
 3184SOL     OW12501   4.902   6.031   5.186 -0.6093  0.0037 -0.4665
 3184SOL    HW212502   4.866   6.096   5.125  0.2547  0.2938 -0.6868
 3184SOL    HW312503   4.985   6.005   5.146 -0.1809 -0.0362  0.4365
 3184SOL    MW412504   4.908   6.036   5.173 -0.4388  0.0367 -0.3764
 3185SOL     OW12505   4.328   1.553   2.148 -0.6880 -0.0772  0.1165
 3185SOL    HW212506   4.405   1.501   2.123 -1.1445 -1.4565  1.4177
 3185SOL    HW312507   4.365   1.631   2.190  0.0588 -1.2033  1.6700
 3185SOL    MW412508   4.343   1.556   2.150 -0.6497 -0.4078  0.4932
 3186SOL     OW12509   4.549   3.528   5.403 -0.4407 -0.6495  0.0005
 3186SOL    HW212510   4.552   3.581   5.482  2.0446 -0.8178  0.0990
 3186SOL    HW312511   4.558   3.590   5.331 -0.2674 -0.6927 -0.0165
 3186SOL    MW412512   4.551   3.543   5.404 -0.0900 -0.6774  0.0113
 3187SOL     OW12513   3.096   2.381   2.617  0.1522  0.4397  0.0010
 3187SOL    HW212514   3.093   2.310   2.553  1.1220 -0.6238  1.0773
 3187SOL    HW312515   3.088   2.337   2.702  2.0453  1.4654  0.7687
 3187SOL    MW412516   3.094   2.366   2.620  0.5299  0.4347  0.2443
 3188SOL     OW12517   0.811   1.865   4.724  0.1456 -0.0870  0.3553
 3188SOL    HW212518   0.889   1.842   4.672  0.5078 -0.1161  0.9015
 3188SOL    HW312519   0.841   1.935   4.781 -0.4050  0.3303  0.1378
 3188SOL    MW412520   0.825   1.871   4.724  0.1207 -0.0358  0.3987
 3189SOL     OW12521   0.756   1.434   4.041  0.0337 -0.2561  0.0592
 3189SOL    HW212522   0.678   1.449   3.989 -0.6328 -0.5126  0.9684
 3189SOL    HW312523   0.724   1.417   4.130  1.1615  0.5244  0.6463
 3189SOL    MW412524   0.742   1.433   4.046  0.0945 -0.1870  0.2566
 3190SOL     OW12525   1.283   3.486   6.242  0.2149  0.6959  0.1372
 3190SOL    HW212526   1.272   3.573   6.282 -0.7887  0.3982  0.5233
 3190SOL    HW312527   1.375   3.464   6.261 -0.4510  0.0956  3.3266
 3190SOL    MW412528   1.294   3.495   6.250 -0.0054  0.5774  0.6089
 3191SOL     OW12529   6.299   1.673   2.513 -0.2093 -0.1212 -0.1913
 3191SOL    HW212530   6.288   1.578   2.515  1.0022 -0.2779 -0.1561
 3191SOL    HW312531   6.379   1.687   2.462 -0.2087  0.8558  0.0580
 3191SOL    MW412532   6.308   1.662   2.507 -0.0494 -0.0130 -0.1538
 3192SOL     OW12533   2.514   6.061   1.310  0.0110 -0.8294 -0.5864
 3192SOL    HW212534   2.560   6.116   1.373  0.0305 -1.1915 -0.2799
 3192SOL    HW312535   2.573   6.055   1.236 -0.9948  1.5562 -1.6706
 3192SOL    MW412536   2.528   6.068   1.309 -0.1191 -0.5624 -0.6890
 3193SOL     OW12537   6.360   3.639   2.409 -0.1694  0.2584  0.5106
 3193SOL    HW212538   6.362   3.731   2.384  0.4136 -0.2885 -1.6873
 3193SOL    HW312539   6.438   3.628   2.464 -1.7497  1.5994  3.2820
 3193SOL    MW412540   6.371   3.650   2.413 -0.3010  0.3632  0.5863
 3194SOL     OW12541   0.863   1.075   1.889  0.3120 -0.5214  1.2814
 3194SOL    HW212542   0.894   1.036   1.807 -0.8563 -0.7918  0.9434
 3194SOL    HW312543   0.900   1.019   1.957 -1.3089 -2.2885  0.8074
 3194SOL    MW412544   0.872   1.062   1.887 -0.0560 -0.7902  1.1743
 3195SOL     OW12545   0.730   4.791   0.914  0.6930 -0.3456  0.2128
 3195SOL    HW212546   0.723   4.756   0.825 -1.6052 -0.2030  0.2723
 3195SOL    HW312547   0.777   4.723   0.962  0.4577 -1.2188 -0.7388
 3195SOL    MW412548   0.735   4.778   0.908  0.3587 -0.4420  0.0951
 3196SOL     OW12549   2.661   1.216   0.891  0.0146  0.0997 -0.4039
 3196SOL    HW212550   2.749   1.251   0.907  0.3919 -0.8221 -0.3880
 3196SOL    HW312551   2.636   1.177   0.974  0.5735 -1.7093 -1.0439
 3196SOL    MW412552   2.669   1.216   0.904  0.1381 -0.2606 -0.4863
 3197SOL     OW12553   0.915   3.550   2.957 -0.2552 -0.0061  0.0425
 3197SOL    HW212554   0.863   3.488   2.906  0.1420 -0.4421  0.1582
 3197SOL    HW312555   0.934   3.504   3.039 -0.2175  0.3873  0.2606
 3197SOL    MW412556   0.911   3.536   2.961 -0.1978 -0.0117  0.0865
 3198SOL     OW12557   3.831   5.077   4.674 -0.4285  0.2330 -0.2091
 3198SOL    HW212558   3.818   5.171   4.663 -0.4427  0.1904 -0.5839
 3198SOL    HW312559   3.744   5.044   4.697 -0.4949  0.2716 -0.3940
 3198SOL    MW412560   3.818   5.085   4.675 -0.4391  0.2325 -0.2829
 3199SOL     OW12561   4.090   3.276   3.025 -0.3782 -0.0118  0.2798
 3199SOL    HW212562   4.153   3.204   3.033  0.1267  0.3005 -0.7865
 3199SOL    HW312563   4.035   3.251   2.950  0.6068  1.3067 -0.9183
 3199SOL    MW412564   4.091   3.263   3.016 -0.1816  0.2034 -0.0189
 3200SOL     OW12565   2.241   5.111   4.849 -0.6112 -0.6514  0.1255
 3200SOL    HW212566   2.234   5.154   4.764 -3.6059 -0.7284  0.2375
 3200SOL    HW312567   2.333   5.122   4.874 -0.2164  1.6008 -1.9509
 3200SOL    MW412568   2.252   5.118   4.841 -0.9542 -0.3644 -0.1337
 3201SOL     OW12569   2.543   1.633   3.760 -0.0315  0.3741 -0.3164
 3201SOL    HW212570   2.557   1.625   3.854 -1.7161 -0.2849 -0.0767
 3201SOL    HW312571   2.497   1.552   3.736 -1.6228  1.4858 -1.2698
 3201SOL    MW412572   2.538   1.621   3.769 -0.4637  0.4338 -0.4106
 3202SOL     OW12573   2.202   4.569   2.184 -0.3075 -0.1331 -0.0776
 3202SOL    HW212574   2.111   4.546   2.167 -0.0543 -1.1560 -0.1425
 3202SOL    HW312575   2.199   4.659   2.216 -1.3041 -0.0498 -0.3750
 3202SOL    MW412576   2.190   4.578   2.186 -0.4056 -0.2571 -0.1254
 3203SOL     OW12577   4.121   5.922   4.310 -0.2011 -0.1710  0.0014
 3203SOL    HW212578   4.206   5.933   4.352 -0.6919 -1.2577  1.3331
 3203SOL    HW312579   4.091   5.836   4.337 -1.7306  0.1759 -0.4634
 3203SOL    MW412580   4.128   5.912   4.319 -0.4676 -0.2686  0.1158
 3204SOL     OW12581   5.293   6.086   3.241  0.0351  0.4101 -0.4957
 3204SOL    HW212582   5.291   6.041   3.157  0.3952 -0.7736  0.1147
 3204SOL    HW312583   5.282   6.179   3.219 -1.8111 -0.0412 -1.7049
 3204SOL    MW412584   5.291   6.092   3.227 -0.1610  0.1944 -0.5747
 3205SOL     OW12585   0.260   4.133   4.782  0.4384  0.4587  0.1504
 3205SOL    HW212586   0.291   4.044   4.798 -0.8800 -0.1714 -0.6016
 3205SOL    HW312587   0.271   4.144   4.687  1.3840  1.4324  0.3561
 3205SOL    MW412588   0.266   4.122   4.771  0.3892  0.5040  0.0784
 3206SOL     OW12589   6.184   3.338   6.012  0.4430 -0.2442  0.0772
 3206SOL    HW212590   6.210   3.362   6.101  0.8784  0.4575 -0.2324
 3206SOL    HW312591   6.191   3.242   6.010  2.9432 -0.1398  0.0610
 3206SOL    MW412592   6.188   3.328   6.023  0.8303 -0.1379  0.0342
 3207SOL     OW12593   3.014   3.357   2.398  0.1723  0.1920 -0.1513
 3207SOL    HW212594   2.952   3.418   2.358  0.7739 -0.0331 -1.4964
 3207SOL    HW312595   2.971   3.272   2.391  1.3586 -0.2760 -2.8734
 3207SOL    MW412596   3.000   3.354   2.392  0.4082  0.1005 -0.6879
 3208SOL     OW12597   2.934   1.208   6.030 -0.0281 -0.8703  0.2335
 3208SOL    HW212598   2.907   1.144   6.096  0.5479 -0.9510  0.3975
 3208SOL    HW312599   2.938   1.291   6.077  0.4777 -0.9450  0.3270
 3208SOL    MW412600   2.931   1.210   6.045  0.1147 -0.8908  0.2675
 3209SOL     OW12601   1.903   3.086   4.170  0.2851  0.5229 -0.2823
 3209SOL    HW212602   1.980   3.143   4.174  0.1816  0.6254  0.7835
 3209SOL    HW312603   1.899   3.055   4.080  0.8186  1.5641 -0.6764
 3209SOL    MW412604   1.912   3.090   4.159  0.3419  0.6738 -0.1937
 3210SOL     OW12605   5.447   3.933   2.801  0.1216  0.3177 -0.0959
 3210SOL    HW212606   5.357   3.964   2.792  0.2382  0.5510 -0.4756
 3210SOL    HW312607   5.494   4.006   2.840  0.1211  0.1464  0.2332
 3210SOL    MW412608   5.441   3.947   2.805  0.1369  0.3259 -0.1025
 3211SOL     OW12609   4.221   1.301   4.701 -0.3616 -0.2213 -0.1416
 3211SOL    HW212610   4.130   1.328   4.685 -0.0293  1.7391  0.9219
 3211SOL    HW312611   4.214   1.233   4.768 -1.0158  1.0954  1.1966
 3211SOL    MW412612   4.208   1.295   4.708 -0.4041  0.2110  0.1753
 3212SOL     OW12613   6.240   0.271   4.503  0.4123 -0.1399 -0.3991
 3212SOL    HW212614   6.323   0.298   4.543  1.2707 -0.6535 -1.7740
 3212SOL    HW312615   6.231   0.327   4.426 -0.1538 -0.5852 -0.6642
 3212SOL    MW412616   6.250   0.282   4.498  0.4508 -0.2664 -0.6154
 3213SOL     OW12617   6.283   3.887   0.041  0.2449  0.3766 -0.4565
 3213SOL    HW212618   6.306   3.801   0.076  0.5051  0.7016  0.1949
 3213SOL    HW312619   6.321   3.888  -0.047  0.2791 -0.1562 -0.4511
 3213SOL    MW412620   6.291   3.876   0.034  0.2838  0.3492 -0.3698
 3214SOL     OW12621   1.767   0.462   1.274  0.1846  0.3164  0.0680
 3214SOL    HW212622   1.811   0.485   1.356 -0.9088 -1.3503  1.1840
 3214SOL    HW312623   1.821   0.392   1.237 -0.9296 -1.0427  0.9380
 3214SOL    MW412624   1.780   0.456   1.280 -0.1067 -0.0828  0.3300
 3215SOL     OW12625   1.398   2.034   2.857 -0.2070 -0.1456  0.4143
 3215SOL    HW212626   1.421   2.118   2.817 -2.6694  0.5600  0.3394
 3215SOL    HW312627   1.314   2.049   2.899 -0.2428 -2.3336  1.2892
 3215SOL    MW412628   1.390   2.047   2.857 -0.5366 -0.3412  0.5198
 3216SOL     OW12629   2.974   0.803   4.106 -0.1157 -0.2475  0.2628
 3216SOL    HW212630   3.009   0.719   4.077  1.0224  0.2194  0.1900
 3216SOL    HW312631   2.894   0.815   4.055  0.6512 -0.4814 -1.0506
 3216SOL    MW412632   2.968   0.794   4.095  0.1357 -0.2168  0.0799
 3217SOL     OW12633   1.942   3.380   4.853  0.4264 -0.3100 -0.1416
 3217SOL    HW212634   1.937   3.447   4.785 -0.0894  0.1329  0.3212
 3217SOL    HW312635   1.858   3.334   4.848 -0.6934  1.3637  1.8216
 3217SOL    MW412636   1.930   3.383   4.843  0.2106 -0.0307  0.1785
 3218SOL     OW12637   4.354   5.523   6.252  0.2029  0.2481 -0.4552
 3218SOL    HW212638   4.422   5.477   6.301  0.1355 -0.8954 -1.3975
 3218SOL    HW312639   4.343   5.472   6.172 -0.0017  1.8011 -1.4735
 3218SOL    MW412640   4.362   5.510   6.248  0.1670  0.3022 -0.7139
 3219SOL     OW12641   1.136   6.312   1.011 -0.1745  0.1642  0.3292
 3219SOL    HW212642   1.117   6.310   1.105  0.8696  0.3771  0.5573
 3219SOL    HW312643   1.060   6.270   0.970  0.0399 -1.3331  1.3838
 3219SOL    MW412644   1.124   6.306   1.018 -0.0084 -0.0053  0.4984
 3220SOL     OW12645   0.712   3.502   4.282 -0.3282  0.0234  0.1182
 3220SOL    HW212646   0.646   3.549   4.333 -2.1386 -1.3477 -0.8457
 3220SOL    HW312647   0.709   3.544   4.195 -0.0259 -0.1441  0.0271
 3220SOL    MW412648   0.703   3.514   4.277 -0.5272 -0.1796 -0.0210
 3221SOL     OW12649   1.613   1.186   5.177  0.6929 -0.2684 -0.2281
 3221SOL    HW212650   1.665   1.253   5.221 -0.6106 -0.3504  1.5402
 3221SOL    HW312651   1.625   1.108   5.231 -0.5885 -0.5070 -0.2623
 3221SOL    MW412652   1.621   1.184   5.190  0.3518 -0.3107  0.0007
 3222SOL     OW12653   4.655   5.460   3.109 -0.1554 -0.0056  0.1199
 3222SOL    HW212654   4.640   5.553   3.121  0.3311 -0.0482  1.1543
 3222SOL    HW312655   4.743   5.453   3.073 -0.9867  0.0250 -2.0696
 3222SOL    MW412656   4.664   5.471   3.106 -0.2008 -0.0072 -0.0325
 3223SOL     OW12657   2.600   0.823   6.315 -0.4241 -0.5331 -0.0175
 3223SOL    HW212658   2.561   0.751   6.364 -0.3118 -0.4565  0.1890
 3223SOL    HW312659   2.639   0.879   6.383 -1.7926  0.4952 -0.0510
 3223SOL    MW412660   2.600   0.821   6.330 -0.5898 -0.3874  0.0054
 3224SOL     OW12661   4.105   4.057   3.230  0.2660 -0.7952  0.4611
 3224SOL    HW212662   4.127   4.147   3.253 -0.4502 -0.8253  1.3040
 3224SOL    HW312663   4.071   4.063   3.140  0.4249 -0.2642  0.4334
 3224SOL    MW412664   4.103   4.070   3.221  0.1925 -0.7291  0.5687
 3225SOL     OW12665   1.992   2.343   4.628  0.0729 -0.0589  0.8741
 3225SOL    HW212666   1.980   2.414   4.565  0.5307  1.1810  2.1406
 3225SOL    HW312667   1.958   2.265   4.583 -0.7625  1.0087 -0.4154
 3225SOL    MW412668   1.986   2.342   4.614  0.0231  0.2456  0.8711
 3226SOL     OW12669   5.450   1.507   0.861 -1.2282 -0.9305  0.0451
 3226SOL    HW212670   5.523   1.491   0.920 -1.2290  2.1683  1.0278
 3226SOL    HW312671   5.382   1.547   0.915 -1.9145  0.3834 -1.6718
 3226SOL    MW412672   5.450   1.510   0.876 -1.3188 -0.3483 -0.0518
 3227SOL     OW12673   2.215   4.625   1.325 -0.6412  0.2888  0.0375
 3227SOL    HW212674   2.225   4.562   1.254 -1.5837  0.5651 -0.3602
 3227SOL    HW312675   2.169   4.699   1.286 -1.1040  0.4838  0.9066
 3227SOL    MW412676   2.210   4.626   1.311 -0.8266  0.3510  0.0997
 3228SOL     OW12677   0.071   3.319   1.274  0.3854 -0.5551  0.5049
 3228SOL    HW212678   0.110   3.364   1.349  0.7849  0.3887 -0.2357
 3228SOL    HW312679   0.145   3.276   1.231  0.1396 -1.2001  0.7165
 3228SOL    MW412680   0.086   3.320   1.278  0.4057 -0.5157  0.4351
 3229SOL     OW12681   2.732   3.737   6.310 -0.2640 -0.4288  0.3148
 3229SOL    HW212682   2.705   3.753   6.219  0.9555  0.5862  0.1129
 3229SOL    HW312683   2.774   3.651   6.308 -1.2926 -0.9501  0.1741
 3229SOL    MW412684   2.734   3.728   6.298 -0.2388 -0.3637  0.2696
 3230SOL     OW12685   0.505   2.939   1.493  0.1338  0.2853  0.2583
 3230SOL    HW212686   0.463   2.891   1.422  1.3849  0.3170 -0.5498
 3230SOL    HW312687   0.460   2.910   1.572 -1.1428  0.0734 -0.5144
 3230SOL    MW412688   0.494   2.929   1.494  0.1304  0.2616  0.0497
 3231SOL     OW12689   5.247   0.360   1.005  0.1309 -0.5019  0.4889
 3231SOL    HW212690   5.223   0.349   1.097 -0.1830 -0.5958  0.3969
 3231SOL    HW312691   5.332   0.317   0.997  0.7470  0.5746  1.0100
 3231SOL    MW412692   5.255   0.353   1.017  0.1708 -0.3723  0.5455
 3232SOL     OW12693   1.469   4.281   5.093  0.2132 -0.2437 -0.4142
 3232SOL    HW212694   1.552   4.236   5.111  0.3771  0.0569 -0.4141
 3232SOL    HW312695   1.490   4.374   5.099 -0.4954 -0.1540  1.2849
 3232SOL    MW412696   1.483   4.287   5.096  0.1414 -0.1922 -0.1900
 3233SOL     OW12697   2.395   3.125  -0.026 -0.4671 -0.2561 -0.0545
 3233SOL    HW212698   2.348   3.208  -0.015 -1.0802 -0.5324 -0.5547
 3233SOL    HW312699   2.337   3.060   0.013  0.1339 -0.4226  0.5838
 3233SOL    MW412700   2.381   3.128  -0.019 -0.4687 -0.3145 -0.0363
 3234SOL     OW12701   3.552   4.960   0.643 -0.3734  0.4109  0.3158
 3234SOL    HW212702   3.642   4.967   0.612 -0.7629  0.0771 -0.9582
 3234SOL    HW312703   3.540   4.867   0.660 -0.2420  0.5582  1.2781
 3234SOL    MW412704   3.562   4.949   0.641 -0.4074  0.3863  0.2747
 3235SOL     OW12705   6.394   0.298   2.174 -0.5843 -0.1109 -1.0260
 3235SOL    HW212706   6.323   0.315   2.112 -1.0585 -0.2980 -0.5436
 3235SOL    HW312707   6.357   0.317   2.260  0.4422  1.3397 -0.8642
 3235SOL    MW412708   6.380   0.303   2.177 -0.5114  0.0558 -0.9410
 3236SOL     OW12709   4.891   1.120   1.712 -0.1438  0.0709 -0.5354
 3236SOL    HW212710   4.842   1.057   1.765 -0.4210  0.1358 -0.7102
 3236SOL    HW312711   4.978   1.123   1.751 -0.3021  0.0070 -0.1766
 3236SOL    MW412712   4.896   1.112   1.724 -0.2013  0.0710 -0.5111
 3237SOL     OW12713   2.398   4.361   6.341 -0.0683  0.7262 -0.2152
 3237SOL    HW212714   2.382   4.324   6.428 -0.4815 -0.5644 -0.8179
 3237SOL    HW312715   2.406   4.455   6.357 -2.2624  0.7880  0.9588
 3237SOL    MW412716   2.397   4.368   6.355 -0.4123  0.5641 -0.1398
 3238SOL     OW12717   6.096   6.135   4.100 -0.5511 -0.3953 -0.3737
 3238SOL    HW212718   6.005   6.133   4.131 -0.8033 -0.7529 -1.1198
 3238SOL    HW312719   6.093   6.183   4.018 -0.3564 -1.8019 -1.2500
 3238SOL    MW412720   6.084   6.141   4.093 -0.5587 -0.6280 -0.5877
 3239SOL     OW12721   2.471   2.051   0.727 -1.1187  0.0569 -0.0723
 3239SOL    HW212722   2.448   1.982   0.789  0.5478  0.5363  1.1476
 3239SOL    HW312723   2.390   2.100   0.714 -2.3102 -2.0019 -0.8652
 3239SOL    MW412724   2.458   2.048   0.733 -1.0561 -0.1515 -0.0159
 3240SOL     OW12725   2.760   1.889   5.414  0.0049 -0.0569  0.4504
 3240SOL    HW212726   2.734   1.868   5.503  0.3674  1.8177  1.0329
 3240SOL    HW312727   2.689   1.856   5.359 -1.7711  1.5070  1.6925
 3240SOL    MW412728   2.748   1.882   5.418 -0.1816  0.3968  0.6911
 3241SOL     OW12729   1.447   3.239   3.480  0.3601  0.2752 -0.4939
 3241SOL    HW212730   1.399   3.318   3.454  1.0862  1.0185  0.3467
 3241SOL    HW312731   1.433   3.178   3.408 -0.7455  0.9392 -0.8746
 3241SOL    MW412732   1.439   3.242   3.467  0.3100  0.4609 -0.4332
 3242SOL     OW12733   5.574   0.386   1.280  0.2279 -0.4941  0.1621
 3242SOL    HW212734   5.605   0.304   1.319  0.5566  0.1492  1.2688
 3242SOL    HW312735   5.654   0.434   1.258  0.0306  0.1185  0.7744
 3242SOL    MW412736   5.589   0.381   1.282  0.2453 -0.3284  0.3889
 3243SOL     OW12737   2.550   5.151   4.278  0.0885  0.0444  0.2904
 3243SOL    HW212738   2.529   5.192   4.362  0.4459  0.8444  0.0044
 3243SOL    HW312739   2.645   5.143   4.279  0.2011  1.0622 -0.4670
 3243SOL    MW412740   2.560   5.155   4.289  0.1505  0.2843  0.1527
 3244SOL     OW12741   1.088   3.030   6.269 -0.0258  0.1451 -0.2215
 3244SOL    HW212742   1.181   3.038   6.289  0.3071  0.5730 -1.7742
 3244SOL    HW312743   1.086   3.007   6.176 -1.4851  2.5713 -0.8884
 3244SOL    MW412744   1.100   3.028   6.259 -0.1744  0.5217 -0.5144
 3245SOL     OW12745   3.526   0.251   1.141 -0.0422  0.3068 -0.5382
 3245SOL    HW212746   3.547   0.269   1.233  1.2554  0.9242 -0.9348
 3245SOL    HW312747   3.434   0.277   1.132 -0.1237  0.4429  0.5262
 3245SOL    MW412748   3.516   0.257   1.152  0.1182  0.4062 -0.4501
 3246SOL     OW12749   4.472   0.990   2.446  0.7939  0.2715  0.2902
 3246SOL    HW212750   4.411   1.043   2.394  0.4135  0.2878  0.7484
 3246SOL    HW312751   4.526   0.946   2.380 -0.9248 -1.2073 -0.2505
 3246SOL    MW412752   4.471   0.991   2.430  0.5169  0.0785  0.2793
 3247SOL     OW12753   4.356   4.022   4.478 -0.0425 -0.2336 -0.4126
 3247SOL    HW212754   4.396   3.987   4.557 -0.8633 -1.6216 -0.5779
 3247SOL    HW312755   4.422   4.011   4.410  1.8455  3.6082  0.5011
 3247SOL    MW412756   4.370   4.016   4.479  0.0983  0.0901 -0.3139
 3248SOL     OW12757   4.640   3.639   0.701 -0.3055 -0.4365  0.4476
 3248SOL    HW212758   4.721   3.613   0.745 -0.0586  0.0847  0.3074
 3248SOL    HW312759   4.625   3.570   0.636 -0.2046 -0.7539  0.7562
 3248SOL    MW412760   4.649   3.626   0.698 -0.2596 -0.4096  0.4698
 3249SOL     OW12761   0.271   2.709   4.179  0.6200 -0.1861 -0.5019
 3249SOL    HW212762   0.267   2.755   4.095 -1.8271 -0.4762 -0.6276
 3249SOL    HW312763   0.179   2.700   4.205  1.3024  0.3336  2.4588
 3249SOL    MW412764   0.258   2.714   4.171  0.3872 -0.1558 -0.1278
 3250SOL     OW12765   0.733   4.983   4.910  0.2012  0.0742  0.7025
 3250SOL    HW212766   0.813   4.962   4.862  0.3511 -1.9063  1.7261
 3250SOL    HW312767   0.707   5.069   4.877  0.3767 -1.0623 -2.8211
 3250SOL    MW412768   0.740   4.991   4.899  0.2441 -0.3370  0.3726
 3251SOL     OW12769   4.206   4.711   1.610  0.3044 -0.1852  0.4728
 3251SOL    HW212770   4.298   4.730   1.593  0.6291 -2.1136 -0.1824
 3251SOL    HW312771   4.207   4.647   1.682 -0.4688 -0.8410 -0.0776
 3251SOL    MW412772   4.218   4.705   1.618  0.2452 -0.5261  0.3137
 3252SOL     OW12773   1.738   5.844   2.689  0.5187 -0.1518 -0.1028
 3252SOL    HW212774   1.801   5.785   2.731  0.1278 -1.7273 -1.5892
 3252SOL    HW312775   1.791   5.911   2.647  0.9982  0.4079  1.3383
 3252SOL    MW412776   1.753   5.845   2.689  0.5304 -0.2858 -0.1088
 3253SOL     OW12777   4.095   2.948  -0.009  0.0306 -0.1196 -0.2663
 3253SOL    HW212778   4.090   3.041   0.012 -0.7946 -0.1450 -0.3250
 3253SOL    HW312779   4.009   2.913   0.012  0.5502 -1.0258  0.4244
 3253SOL    MW412780   4.083   2.956  -0.004 -0.0097 -0.2425 -0.1830
 3254SOL     OW12781   1.762   0.742   2.255 -0.5065  0.8125 -0.1358
 3254SOL    HW212782   1.732   0.827   2.287 -0.6530  0.7202 -0.0273
 3254SOL    HW312783   1.854   0.738   2.282  0.0208  1.6875 -1.6797
 3254SOL    MW412784   1.770   0.753   2.263 -0.4563  0.9158 -0.3252
 3255SOL     OW12785   1.417   3.349   4.002  0.9054 -0.9004  0.0548
 3255SOL    HW212786   1.505   3.313   3.987  0.6796 -1.4540  0.0319
 3255SOL    HW312787   1.388   3.307   4.083  1.5537  0.9848  1.3306
 3255SOL    MW412788   1.425   3.339   4.011  0.9611 -0.7247  0.2201
 3256SOL     OW12789   4.504   1.162   5.457  0.1671 -0.4394  0.2523
 3256SOL    HW212790   4.518   1.068   5.467 -0.6126 -0.4586  1.4469
 3256SOL    HW312791   4.478   1.173   5.366 -2.5485 -1.7865  0.7752
 3256SOL    MW412792   4.503   1.151   5.446 -0.2941 -0.6197  0.4789
 3257SOL     OW12793   0.929   1.344   0.434  0.1730  0.0580  0.3080
 3257SOL    HW212794   0.839   1.331   0.462  0.9423 -0.8849  2.6878
 3257SOL    HW312795   0.966   1.405   0.498  1.8772 -1.6254  1.0570
 3257SOL    MW412796   0.922   1.350   0.446  0.4993 -0.2885  0.7208
 3258SOL     OW12797   4.469   6.255   5.596 -0.2391 -0.6304 -0.0501
 3258SOL    HW212798   4.484   6.161   5.591 -1.1505 -0.9786  2.4181
 3258SOL    HW312799   4.374   6.264   5.603 -0.5082  0.7545 -3.5638
 3258SOL    MW412800   4.459   6.244   5.596 -0.3948 -0.4936 -0.1881
 3259SOL     OW12801   2.987   3.019   0.127  0.5705 -0.3571  0.2794
 3259SOL    HW212802   3.044   2.965   0.072  0.7016 -1.0935  1.1228
 3259SOL    HW312803   3.040   3.095   0.149  1.0901 -0.8327  0.7014
 3259SOL    MW412804   3.001   3.022   0.123  0.6563 -0.5170  0.4463
 3260SOL     OW12805   0.012   3.499   4.017  0.4661  0.2278 -0.0943
 3260SOL    HW212806   0.002   3.414   4.059 -0.0753  0.0333 -0.6093
 3260SOL    HW312807  -0.022   3.487   3.929 -0.4964  1.2046  0.1214
 3260SOL    MW412808   0.006   3.487   4.011  0.2677  0.3310 -0.1338
 3261SOL     OW12809   3.877   0.390   3.164 -0.2177 -0.3485  0.0821
 3261SOL    HW212810   3.815   0.336   3.214 -0.2996 -1.1374 -0.8492
 3261SOL    HW312811   3.872   0.356   3.075  1.0354  0.0486 -0.1617
 3261SOL    MW412812   3.868   0.378   3.159 -0.0632 -0.4002 -0.0729
 3262SOL     OW12813   1.978   5.559   4.096 -0.1084  0.0513  0.0836
 3262SOL    HW212814   2.033   5.618   4.044 -0.4545  1.6919  1.4994
 3262SOL    HW312815   2.038   5.494   4.131  0.3989 -0.0367 -0.9000
 3262SOL    MW412816   1.993   5.558   4.094 -0.0871  0.2562  0.1406
 3263SOL     OW12817   5.600   4.226   3.763 -0.0351  0.0141 -0.4993
 3263SOL    HW212818   5.576   4.225   3.671  2.2085 -0.3081 -1.1493
 3263SOL    HW312819   5.689   4.191   3.765 -0.5512 -1.4503  1.9783
 3263SOL    MW412820   5.609   4.221   3.751  0.1928 -0.2216 -0.2582
 3264SOL     OW12821   0.910   3.946   4.570  0.0121 -0.1868  0.2699
 3264SOL    HW212822   0.816   3.953   4.551 -0.1390 -1.4441  0.5083
 3264SOL    HW312823   0.939   3.869   4.522  1.1039  0.6101 -0.3976
 3264SOL    MW412824   0.901   3.937   4.561  0.1362 -0.2476  0.2133
 3265SOL     OW12825   2.174   1.328   6.164  0.3982 -0.4919 -0.3546
 3265SOL    HW212826   2.200   1.239   6.143 -0.6074 -0.4761 -1.8193
 3265SOL    HW312827   2.096   1.343   6.111  0.8782  1.4504 -0.5862
 3265SOL    MW412828   2.167   1.318   6.154  0.3289 -0.2336 -0.5784
 3266SOL     OW12829   0.006   6.426   1.278 -0.1100  0.1415  0.1267
 3266SOL    HW212830  -0.046   6.487   1.226 -0.1699 -1.9767 -2.4974
 3266SOL    HW312831  -0.057   6.362   1.310  0.3446 -0.2250  0.2973
 3266SOL    MW412832  -0.009   6.426   1.275 -0.0579 -0.1863 -0.1970
 3267SOL     OW12833   2.776   0.046   2.353  0.3912 -0.0199  0.1758
 3267SOL    HW212834   2.805  -0.020   2.417 -0.8891 -1.2185 -0.4377
 3267SOL    HW312835   2.858   0.082   2.318  1.1255  0.0957  1.8695
 3267SOL    MW412836   2.791   0.042   2.357  0.3192 -0.1628  0.3183
 3268SOL     OW12837   5.284   0.380   0.415  0.7495  0.0537 -0.1170
 3268SOL    HW212838   5.203   0.375   0.465  0.7002  0.0236 -0.1990
 3268SOL    HW312839   5.263   0.338   0.331  1.1521 -0.9394  0.2587
 3268SOL    MW412840   5.271   0.373   0.410  0.7961 -0.0813 -0.0783
 3269SOL     OW12841   3.145   4.710   4.679  0.6576 -0.0183 -0.7762
 3269SOL    HW212842   3.059   4.711   4.720  0.8776  1.9622 -0.2321
 3269SOL    HW312843   3.141   4.639   4.615 -0.6416 -1.3304  0.7088
 3269SOL    MW412844   3.133   4.701   4.676  0.5152  0.0699 -0.5085
 3270SOL     OW12845   2.208   2.173   4.348  0.7765 -0.2263  0.3802
 3270SOL    HW212846   2.153   2.233   4.297  0.8096 -0.3408  0.2108
 3270SOL    HW312847   2.150   2.139   4.416  0.1833 -1.6044 -0.7755
 3270SOL    MW412848   2.193   2.177   4.350  0.7026 -0.4232  0.2054
 3271SOL     OW12849   0.038   1.827   3.989 -0.3895 -0.1733 -0.3561
 3271SOL    HW212850   0.022   1.782   4.072 -0.7678 -1.3322 -1.0296
 3271SOL    HW312851  -0.041   1.880   3.976  0.8135  2.2314  1.3323
 3271SOL    MW412852   0.025   1.829   3.998 -0.2807 -0.0089 -0.2222
 3272SOL     OW12853   6.368   1.274   4.997 -0.2844  0.2019 -0.2739
 3272SOL    HW212854   6.334   1.228   5.074 -1.6473  1.4499 -0.0773
 3272SOL    HW312855   6.369   1.366   5.023  1.6337  0.4085 -0.9197
 3272SOL    MW412856   6.363   1.280   5.011 -0.2111  0.3938 -0.3332
 3273SOL     OW12857   2.490   4.936   0.541  0.5764 -0.4539  0.4321
 3273SOL    HW212858   2.475   5.009   0.601 -0.4157  0.0184 -0.3557
 3273SOL    HW312859   2.491   4.976   0.454 -0.2971 -1.4017 -0.0396
 3273SOL    MW412860   2.488   4.951   0.538  0.3302 -0.5167  0.2659
 3274SOL     OW12861   4.499   4.747   1.571  0.5654 -0.1242 -0.3793
 3274SOL    HW212862   4.511   4.778   1.482 -2.4247  1.0880 -0.5039
 3274SOL    HW312863   4.536   4.659   1.573 -0.0103 -0.4851 -3.0460
 3274SOL    MW412864   4.505   4.740   1.560  0.0950 -0.0119 -0.7476
 3275SOL     OW12865   3.018   3.709   3.863  0.4615  0.3310 -0.2180
 3275SOL    HW212866   3.071   3.635   3.892 -0.2668 -0.6205 -1.2186
 3275SOL    HW312867   3.081   3.780   3.849  1.2723 -0.3244  0.0538
 3275SOL    MW412868   3.033   3.709   3.865  0.4724  0.1190 -0.3141
 3276SOL     OW12869   0.379   2.463   2.236  0.0648 -0.0171  0.0974
 3276SOL    HW212870   0.437   2.503   2.172 -0.8184 -1.5727 -1.7461
 3276SOL    HW312871   0.305   2.430   2.185 -0.8843 -0.9627  1.9668
 3276SOL    MW412872   0.377   2.464   2.221 -0.1770 -0.3471  0.1008
 3277SOL     OW12873   5.320   3.354   1.926  0.3416  0.1128  0.3344
 3277SOL    HW212874   5.313   3.326   2.017 -1.6279  0.6780  0.4099
 3277SOL    HW312875   5.254   3.423   1.917  1.3305  0.9237 -1.2182
 3277SOL    MW412876   5.310   3.360   1.936  0.2122  0.2944  0.1395
 3278SOL     OW12877   2.784   4.952   5.498  0.1900 -0.0863  0.0078
 3278SOL    HW212878   2.731   4.996   5.564  1.3019  0.3623  0.6314
 3278SOL    HW312879   2.735   4.961   5.416 -0.8295  0.0209  0.6277
 3278SOL    MW412880   2.771   4.959   5.496  0.2022 -0.0130  0.1719
 3279SOL     OW12881   2.919   4.023   1.297  0.0799  0.3528  0.6306
 3279SOL    HW212882   2.947   3.941   1.256  0.3846  1.4438 -1.4814
 3279SOL    HW312883   2.824   4.014   1.306 -0.3294  0.7512 -2.2068
 3279SOL    MW412884   2.910   4.011   1.293  0.0661  0.5493 -0.0224
 3280SOL     OW12885   4.916   3.426   3.285  0.3242  0.0599 -0.1376
 3280SOL    HW212886   5.003   3.392   3.306 -0.5847 -2.4525 -0.2136
 3280SOL    HW312887   4.883   3.370   3.215 -0.9449  1.6663 -0.9007
 3280SOL    MW412888   4.923   3.414   3.279  0.0368 -0.0596 -0.2483
 3281SOL     OW12889   1.114   5.009   2.419 -0.1082 -0.2841 -0.5600
 3281SOL    HW212890   1.074   5.092   2.444  0.1512  0.1776 -1.6243
 3281SOL    HW312891   1.181   4.994   2.485 -1.4161 -0.6329  0.7489
 3281SOL    MW412892   1.117   5.018   2.431 -0.2466 -0.2692 -0.5277
 3282SOL     OW12893   1.782   0.473   4.649  0.1434  0.5356 -0.2663
 3282SOL    HW212894   1.803   0.462   4.742 -2.7039  0.7881  0.5193
 3282SOL    HW312895   1.774   0.568   4.637 -2.8245  0.4318  0.1913
 3282SOL    MW412896   1.784   0.484   4.660 -0.6238  0.5552 -0.1023
 3283SOL     OW12897   5.011   1.606   5.249 -0.2635 -0.1667 -0.0488
 3283SOL    HW212898   4.973   1.646   5.170 -0.1558  1.6986  0.7935
 3283SOL    HW312899   4.936   1.570   5.296 -0.4982 -0.0259 -0.3121
 3283SOL    MW412900   4.996   1.607   5.245 -0.2803  0.0980  0.0276
 3284SOL     OW12901   5.476   2.320   3.379  0.5381 -0.0476 -0.3602
 3284SOL    HW212902   5.449   2.242   3.429  3.1900  0.0905  1.4927
 3284SOL    HW312903   5.461   2.393   3.439 -1.9114  0.9903 -2.0778
 3284SOL    MW412904   5.470   2.319   3.394  0.5648  0.1075 -0.3423
 3285SOL     OW12905   0.182   1.433   3.309 -0.1764  0.0943  0.1153
 3285SOL    HW212906   0.200   1.356   3.256 -0.5348 -1.4418  2.0833
 3285SOL    HW312907   0.268   1.469   3.330 -0.0219  0.5106 -1.1369
 3285SOL    MW412908   0.195   1.428   3.305 -0.2033 -0.0534  0.2098
 3286SOL     OW12909   0.875   5.642   5.338 -0.3601 -0.4112 -0.1085
 3286SOL    HW212910   0.847   5.707   5.403  0.6787 -0.8478  0.8150
 3286SOL    HW312911   0.908   5.569   5.390  1.2718 -0.4368 -1.0898
 3286SOL    MW412912   0.876   5.641   5.354 -0.0077 -0.4722 -0.1161
 3287SOL     OW12913   5.296   4.377   3.146  0.2068  0.2633 -0.7516
 3287SOL    HW212914   5.202   4.372   3.130 -0.0468  2.9857 -0.4642
 3287SOL    HW312915   5.304   4.400   3.238  1.2464 -1.4479 -0.3732
 3287SOL    MW412916   5.285   4.379   3.156  0.3105  0.3967 -0.6638
 3288SOL     OW12917   0.225   0.209   6.184 -0.4320 -0.0609 -0.1707
 3288SOL    HW212918   0.197   0.122   6.154  0.0857 -0.2534 -0.1187
 3288SOL    HW312919   0.187   0.217   6.271 -0.7335 -0.1087 -0.2953
 3288SOL    MW412920   0.216   0.198   6.192 -0.4035 -0.0926 -0.1803
 3289SOL     OW12921   4.588   1.408   6.236  0.3077 -0.0255  0.1820
 3289SOL    HW212922   4.649   1.336   6.254 -0.2614 -0.8698 -1.1574
 3289SOL    HW312923   4.503   1.366   6.225  0.1994  0.6333 -2.0695
 3289SOL    MW412924   4.585   1.393   6.237  0.2184 -0.0500 -0.2918
 3290SOL     OW12925   2.913   3.742   5.104  0.3931 -0.1102  0.3578
 3290SOL    HW212926   2.831   3.710   5.140  1.3549 -2.3140  0.7820
 3290SOL    HW312927   2.923   3.695   5.020  0.2240  1.7480 -0.7577
 3290SOL    MW412928   2.904   3.731   5.097  0.4977 -0.1558  0.2666
 3291SOL     OW12929   3.340   5.605   0.868  0.6660 -0.0777 -0.2489
 3291SOL    HW212930   3.394   5.608   0.789 -0.2510 -1.1090 -0.9416
 3291SOL    HW312931   3.300   5.692   0.872  0.8145  0.0266 -0.8550
 3291SOL    MW412932   3.342   5.617   0.858  0.5646 -0.2000 -0.4203
 3292SOL     OW12933   4.578   0.871   3.701  0.2880 -0.2849  0.1069
 3292SOL    HW212934   4.607   0.788   3.662 -1.3188 -0.2027 -1.4075
 3292SOL    HW312935   4.497   0.848   3.746  0.2002  0.3335  0.2691
 3292SOL    MW412936   4.571   0.857   3.702  0.0644 -0.1925 -0.0715
 3293SOL     OW12937   2.135   3.655   3.955 -0.6599  0.0772  0.4818
 3293SOL    HW212938   2.132   3.749   3.969 -0.5206  0.4728 -1.7406
 3293SOL    HW312939   2.124   3.617   4.042 -2.0589  2.1106  1.2674
 3293SOL    MW412940   2.133   3.662   3.968 -0.8261  0.3977  0.2922
 3294SOL     OW12941   1.896   5.924   0.081  0.0008  0.3330 -0.1169
 3294SOL    HW212942   1.921   5.847   0.134 -0.3571  0.4197  0.1778
 3294SOL    HW312943   1.808   5.904   0.050 -0.1377  0.6812  0.0581
 3294SOL    MW412944   1.888   5.911   0.084 -0.0647  0.3904 -0.0549
 3295SOL     OW12945   1.661   4.490   6.297  0.1149 -0.4543 -0.3797
 3295SOL    HW212946   1.667   4.470   6.204 -0.9291 -0.5510 -0.4331
 3295SOL    HW312947   1.695   4.412   6.341 -0.4371 -0.8521 -0.6596
 3295SOL    MW412948   1.667   4.477   6.291 -0.0957 -0.5195 -0.4237
 3296SOL     OW12949   2.981   5.275   4.510  0.1181 -0.5343  0.1867
 3296SOL    HW212950   3.031   5.353   4.534 -1.7057  1.2246 -1.4416
 3296SOL    HW312951   3.047   5.215   4.475  1.8621 -0.6293  3.2974
 3296SOL    MW412952   2.996   5.277   4.508  0.1076 -0.3148  0.3823
 3297SOL     OW12953   4.110   3.165   4.159  0.1432 -0.1973 -0.3413
 3297SOL    HW212954   4.074   3.197   4.076  0.4701  0.9166 -0.0685
 3297SOL    HW312955   4.195   3.208   4.166  0.4106 -0.8097  0.2523
 3297SOL    MW412956   4.116   3.175   4.149  0.2216 -0.1311 -0.2270
 3298SOL     OW12957   2.926   5.121   1.531  0.5668  0.0625  0.2808
 3298SOL    HW212958   2.990   5.091   1.466  0.7480 -0.6928  0.7924
 3298SOL    HW312959   2.852   5.152   1.479 -0.1982 -2.5214 -0.3289
 3298SOL    MW412960   2.925   5.121   1.516  0.4897 -0.3781  0.2678
 3299SOL     OW12961   5.064   4.388   4.877  0.4154  0.3569 -0.4426
 3299SOL    HW212962   5.142   4.442   4.887 -1.1048  2.3668  1.7027
 3299SOL    HW312963   4.991   4.450   4.880 -1.3475 -1.3273 -3.1443
 3299SOL    MW412964   5.065   4.403   4.878 -0.0178  0.3999 -0.5160
 3300SOL     OW12965   4.308   0.724   0.777  0.3674  0.2933  0.1405
 3300SOL    HW212966   4.222   0.697   0.811  0.3171  1.2611  0.8319
 3300SOL    HW312967   4.367   0.656   0.807  0.0584  0.3330  0.8815
 3300SOL    MW412968   4.304   0.712   0.785  0.3200  0.4262  0.3295
 3301SOL     OW12969   3.576   0.122   5.783 -0.1813  0.7100 -0.3787
 3301SOL    HW212970   3.609   0.207   5.814  0.6562  0.2211  0.0932
 3301SOL    HW312971   3.481   0.131   5.789 -0.0909  1.4276  0.2037
 3301SOL    MW412972   3.568   0.135   5.788 -0.0588  0.7402 -0.2396
 3302SOL     OW12973   3.394   0.583   4.435  0.2777 -0.6703  0.3398
 3302SOL    HW212974   3.363   0.556   4.349  1.0514 -0.7337  0.0800
 3302SOL    HW312975   3.370   0.675   4.442 -0.7763 -0.9359  0.5147
 3302SOL    MW412976   3.386   0.592   4.425  0.2407 -0.7137  0.3286
 3303SOL     OW12977   5.825   3.627   1.585  0.4454  0.4609  0.5577
 3303SOL    HW212978   5.808   3.585   1.669 -1.3320 -0.8444 -0.3612
 3303SOL    HW312979   5.738   3.638   1.546  1.2520 -2.1079 -2.4962
 3303SOL    MW412980   5.811   3.623   1.591  0.3173 -0.0502  0.0336
 3304SOL     OW12981   2.434   5.494   4.151  0.4133  0.5458 -0.3946
 3304SOL    HW212982   2.403   5.425   4.092 -4.1430 -0.6476  2.8426
 3304SOL    HW312983   2.492   5.449   4.212 -0.4377  0.1140  0.1180
 3304SOL    MW412984   2.437   5.478   4.152 -0.3001  0.3314  0.1001
 3305SOL     OW12985   1.867   0.920   3.345  0.2579 -0.2793  0.0020
 3305SOL    HW212986   1.900   0.847   3.398  0.7330  0.2093  0.3791
 3305SOL    HW312987   1.853   0.882   3.258  1.3490 -0.6116 -0.0413
 3305SOL    MW412988   1.869   0.905   3.340  0.4645 -0.2587  0.0460
 3306SOL     OW12989   5.766   3.422   2.879 -0.4864  0.3199  1.2832
 3306SOL    HW212990   5.779   3.450   2.789 -1.7033 -0.2578  0.9181
 3306SOL    HW312991   5.781   3.502   2.931  0.5614  0.5782  0.6261
 3306SOL    MW412992   5.770   3.436   2.874 -0.5087  0.2778  1.1483
 3307SOL     OW12993   2.628   2.601   4.210  0.0531 -0.5760  0.3938
 3307SOL    HW212994   2.668   2.560   4.286 -0.8574  0.7321  1.6115
 3307SOL    HW312995   2.552   2.545   4.190 -1.1222  0.3688  1.9812
 3307SOL    MW412996   2.623   2.588   4.217 -0.2221 -0.2787  0.7639
 3308SOL     OW12997   6.211   3.356   0.832  0.1538  0.4720 -0.0101
 3308SOL    HW212998   6.147   3.345   0.903  0.5160 -1.3561  0.0798
 3308SOL    HW312999   6.277   3.414   0.870  0.4125 -0.5769  1.2372
 3308SOL    MW413000   6.211   3.362   0.847  0.2358  0.0924  0.1663
 3309SOL     OW13001   0.411   4.203   2.318 -0.6219 -0.0643  0.3425
 3309SOL    HW213002   0.348   4.139   2.350 -0.0269 -0.7883  0.1183
 3309SOL    HW313003   0.493   4.179   2.361 -0.4088  0.6019  0.3168
 3309SOL    MW413004   0.414   4.191   2.328 -0.5152 -0.0720  0.3096
 3310SOL     OW13005   2.076   0.934   2.104  0.1139  0.1377  0.7202
 3310SOL    HW213006   2.017   1.007   2.125 -0.9310 -0.2643 -0.6598
 3310SOL    HW313007   2.053   0.867   2.168 -2.0251 -0.5568 -0.6787
 3310SOL    MW413008   2.065   0.935   2.115 -0.3061 -0.0070  0.3536
 3311SOL     OW13009   2.458   2.213   0.467  0.2715 -0.4618 -0.2999
 3311SOL    HW213010   2.482   2.120   0.476  0.0079 -0.4775  0.2411
 3311SOL    HW313011   2.362   2.213   0.467  0.2699 -0.1323  0.2750
 3311SOL    MW413012   2.448   2.200   0.468  0.2365 -0.4204 -0.1527
 3312SOL     OW13013   5.029   0.081   3.221 -0.0384  0.4278  0.2644
 3312SOL    HW213014   4.969   0.027   3.273 -0.0622  0.8690  0.7056
 3312SOL    HW313015   5.055   0.151   3.281  0.3088  0.6741 -0.1739
 3312SOL    MW413016   5.024   0.083   3.236  0.0042  0.5185  0.2648
 3313SOL     OW13017   0.458   4.810   1.878  0.0157 -0.7872 -0.1356
 3313SOL    HW213018   0.445   4.723   1.916  0.9458 -1.3779 -1.1354
 3313SOL    HW313019   0.369   4.847   1.873 -0.1705 -0.7287  2.4216
 3313SOL    MW413020   0.444   4.803   1.883  0.1139 -0.8575  0.0699
 3314SOL     OW13021   0.940   2.175   5.996  0.2789  0.3750  0.2361
 3314SOL    HW213022   0.906   2.182   6.085 -3.0944 -0.5317 -0.8420
 3314SOL    HW313023   0.983   2.259   5.980  0.6271  0.7084  2.5342
 3314SOL    MW413024   0.941   2.187   6.006 -0.1202  0.2994  0.3971
 3315SOL     OW13025   5.978   3.648   4.824  0.4350 -0.3602  0.2414
 3315SOL    HW213026   5.899   3.687   4.863 -0.4152 -1.6497 -0.1248
 3315SOL    HW313027   5.961   3.554   4.826  2.0157 -0.6668  0.2167
 3315SOL    MW413028   5.965   3.641   4.830  0.5314 -0.5708  0.1899
 3316SOL     OW13029   0.761   5.911   5.176 -0.4399 -0.4235 -0.2372
 3316SOL    HW213030   0.807   5.835   5.140 -0.2691 -0.2614 -0.3628
 3316SOL    HW313031   0.670   5.898   5.150 -0.1344  0.2656 -1.7194
 3316SOL    MW413032   0.755   5.899   5.168 -0.3771 -0.3112 -0.4493
 3317SOL     OW13033   2.201   2.665   3.005 -0.1491  0.6033  0.3666
 3317SOL    HW213034   2.165   2.585   3.043  0.0145 -0.0626 -0.8438
 3317SOL    HW313035   2.127   2.725   3.000 -1.7014 -1.3414 -3.7600
 3317SOL    MW413036   2.187   2.662   3.010 -0.3323  0.2588 -0.3376
 3318SOL     OW13037   5.940   5.081   2.384  0.7078 -0.1151  0.0997
 3318SOL    HW213038   6.022   5.078   2.334  1.1618 -2.0405  0.8881
 3318SOL    HW313039   5.917   4.990   2.399 -1.1530  0.3865  0.6539
 3318SOL    MW413040   5.948   5.069   2.379  0.5222 -0.3030  0.2768
 3319SOL     OW13041   0.078   5.395   0.517  0.0813 -0.0026  0.4324
 3319SOL    HW213042   0.048   5.485   0.525 -2.7755 -0.7552 -0.6121
 3319SOL    HW313043   0.060   5.356   0.602  1.5599  0.4190  0.9703
 3319SOL    MW413044   0.072   5.402   0.529 -0.1005 -0.0463  0.3656
 3320SOL     OW13045   1.045   3.772   1.866  0.4988 -0.2307  0.1883
 3320SOL    HW213046   0.979   3.841   1.867 -0.2287 -0.8988 -0.5487
 3320SOL    HW313047   1.073   3.765   1.957  1.2470  1.6339  0.1518
 3320SOL    MW413048   1.040   3.780   1.878  0.5015 -0.0728  0.0863
 3321SOL     OW13049   2.745   1.067   0.645  0.7797 -0.1954 -0.0535
 3321SOL    HW213050   2.698   1.086   0.563  0.2693  0.6680  0.4194
 3321SOL    HW313051   2.699   1.119   0.711  2.3213  0.5819  0.4560
 3321SOL    MW413052   2.733   1.077   0.643  0.9157  0.0211  0.0761
 3322SOL     OW13053   2.074   6.080   1.529  0.6012  0.4406 -0.6819
 3322SOL    HW213054   2.108   6.037   1.451 -1.2002 -1.2734 -0.6152
 3322SOL    HW313055   2.018   6.150   1.497 -0.9813 -0.9222 -1.0398
 3322SOL    MW413056   2.071   6.083   1.515  0.1547  0.0347 -0.7203
 3323SOL     OW13057   4.652   6.267   6.101  0.3621 -0.1231  0.1725
 3323SOL    HW213058   4.743   6.254   6.130  0.3783  0.0049  0.1773
 3323SOL    HW313059   4.642   6.208   6.026  0.4965 -0.0193  0.0732
 3323SOL    MW413060   4.663   6.257   6.095  0.3820 -0.0925  0.1601
 3324SOL     OW13061   1.819   3.951   5.484 -0.0450 -0.2725  0.0510
 3324SOL    HW213062   1.827   3.876   5.425 -0.0550 -0.4061  0.2175
 3324SOL    HW313063   1.744   4.000   5.452 -0.1332 -0.4183  0.0358
 3324SOL    MW413064   1.810   3.947   5.472 -0.0580 -0.3094  0.0710
 3325SOL     OW13065   3.264   5.918   0.573  0.3640  0.1787 -0.2581
 3325SOL    HW213066   3.171   5.924   0.590  0.5500 -0.2426  0.9909
 3325SOL    HW313067   3.289   6.006   0.543 -0.3977  0.3263 -0.4703
 3325SOL    MW413068   3.255   5.931   0.571  0.2881  0.1426 -0.1213
 3326SOL     OW13069   2.595   2.138   4.804  0.6587  0.0676  0.3161
 3326SOL    HW213070   2.513   2.114   4.760  1.3411  1.2481 -1.7201
 3326SOL    HW313071   2.568   2.171   4.889 -1.0468  0.8839 -0.4944
 3326SOL    MW413072   2.581   2.139   4.809  0.5237  0.3310 -0.0595
 3327SOL     OW13073   5.881   0.714   2.752  0.0423  0.0620 -0.2839
 3327SOL    HW213074   5.830   0.770   2.694  0.6981 -0.1605 -1.0838
 3327SOL    HW313075   5.910   0.773   2.822 -1.3515  0.1800  0.2368
 3327SOL    MW413076   5.878   0.729   2.754 -0.0551  0.0482 -0.3208
 3328SOL     OW13077   3.582   3.519   6.172  0.1551 -0.5029 -0.4469
 3328SOL    HW213078   3.538   3.539   6.255 -1.5568 -3.1186 -0.5875
 3328SOL    HW313079   3.515   3.534   6.105  0.6827 -0.8902 -1.0754
 3328SOL    MW413080   3.567   3.523   6.174 -0.0011 -0.8991 -0.5484
 3329SOL     OW13081   0.657   6.343   1.207 -0.1054  0.5120 -0.3825
 3329SOL    HW213082   0.678   6.436   1.193 -1.4121  0.7467 -1.0206
 3329SOL    HW313083   0.562   6.343   1.224 -0.0339 -0.6625  0.0869
 3329SOL    MW413084   0.647   6.356   1.207 -0.2683  0.3880 -0.4048
 3330SOL     OW13085   2.873   2.321   4.928 -0.2342 -0.5760 -0.1908
 3330SOL    HW213086   2.907   2.241   4.888 -0.8578 -1.1919  0.4888
 3330SOL    HW313087   2.895   2.314   5.020 -0.7102 -0.1896 -0.0386
 3330SOL    MW413088   2.880   2.310   4.935 -0.3793 -0.6063 -0.0811
 3331SOL     OW13089   6.005   5.133   2.732 -0.8523  0.5007 -0.0933
 3331SOL    HW213090   5.916   5.112   2.704 -1.3601  0.1454  1.6645
 3331SOL    HW313091   5.996   5.214   2.782 -0.2287  0.2774  0.3839
 3331SOL    MW413092   5.992   5.141   2.735 -0.8370  0.4244  0.2015
 3332SOL     OW13093   4.824   6.219   4.969  0.3029 -0.2851  0.1499
 3332SOL    HW213094   4.898   6.260   4.924  0.6693 -0.5675  0.4799
 3332SOL    HW313095   4.747   6.263   4.934  0.6205 -0.0711 -0.2925
 3332SOL    MW413096   4.824   6.230   4.959  0.3932 -0.2941  0.1351
 3333SOL     OW13097   5.927   6.015   3.472 -0.8214 -0.0416  0.1098
 3333SOL    HW213098   5.994   6.083   3.484  2.5767 -2.5401 -2.5084
 3333SOL    HW313099   5.888   6.004   3.559  1.6782  2.1217  1.6644
 3333SOL    MW413100   5.931   6.022   3.485 -0.0433 -0.0858 -0.0305
 3334SOL     OW13101   2.513   2.120   5.914  0.6827 -0.0685  0.0037
 3334SOL    HW213102   2.491   2.046   5.971 -2.8677  1.2957  0.6891
 3334SOL    HW313103   2.468   2.102   5.832 -1.5968  1.9078  0.7042
 3334SOL    MW413104   2.504   2.108   5.911 -0.0865  0.3723  0.1865
 3335SOL     OW13105   6.157   5.367   3.837 -0.4440 -0.3058  0.3014
 3335SOL    HW213106   6.236   5.418   3.855  0.0488 -1.4009  1.4193
 3335SOL    HW313107   6.181   5.311   3.763 -0.6440  0.3274 -0.2525
 3335SOL    MW413108   6.171   5.367   3.830 -0.4054 -0.3668  0.3758
 3336SOL     OW13109   1.376   1.424   6.082 -1.1261 -0.1471 -0.0774
 3336SOL    HW213110   1.404   1.490   6.020 -3.1411  0.9308  0.0597
 3336SOL    HW313111   1.450   1.363   6.089  0.1511  1.1836 -1.4437
 3336SOL    MW413112   1.389   1.425   6.075 -1.2234  0.1707 -0.2396
 3337SOL     OW13113   3.691   6.059   2.634  0.0492  0.1540 -0.0358
 3337SOL    HW213114   3.724   6.019   2.714 -0.5895 -2.1776 -0.8769
 3337SOL    HW313115   3.614   6.109   2.661 -1.5099 -2.4181  0.5753
 3337SOL    MW413116   3.685   6.060   2.648 -0.2408 -0.4929 -0.0662
 3338SOL     OW13117   4.388   3.527   2.662  0.5465 -0.7584 -0.1326
 3338SOL    HW213118   4.433   3.574   2.731  0.4171 -0.2708 -0.3798
 3338SOL    HW313119   4.389   3.435   2.691 -0.2972 -0.4466  0.9538
 3338SOL    MW413120   4.394   3.521   2.674  0.4181 -0.6529 -0.0219
 3339SOL     OW13121   0.113   0.632   5.099  0.7878  0.5096  0.1595
 3339SOL    HW213122   0.052   0.559   5.091  3.3078 -1.6736 -0.4461
 3339SOL    HW313123   0.080   0.698   5.038 -0.5704 -0.8502 -0.6320
 3339SOL    MW413124   0.100   0.631   5.090  0.9411  0.0422 -0.0248
 3340SOL     OW13125   3.810   1.006   3.106 -0.1283 -0.6401  0.0562
 3340SOL    HW213126   3.764   1.013   3.022  0.1816 -0.7146 -0.1234
 3340SOL    HW313127   3.800   0.914   3.130 -1.2899 -0.3596  0.7287
 3340SOL    MW413128   3.802   0.995   3.098 -0.2407 -0.6129  0.1212
 3341SOL     OW13129   4.916   3.645   4.797  0.1281  0.4382 -0.2973
 3341SOL    HW213130   4.846   3.639   4.863 -0.4227 -0.7176 -0.9469
 3341SOL    HW313131   4.935   3.554   4.774  0.8217  0.7946 -1.2010
 3341SOL    MW413132   4.909   3.632   4.802  0.1469  0.3327 -0.5022
 3342SOL     OW13133   2.301   4.319   2.978  0.1048  0.2339 -0.0314
 3342SOL    HW213134   2.223   4.374   2.967  0.4552  0.3408 -2.2900
 3342SOL    HW313135   2.375   4.379   2.969  0.4679 -0.3238 -0.9036
 3342SOL    MW413136   2.300   4.334   2.976  0.1989  0.1744 -0.4445
 3343SOL     OW13137   3.493   3.716   4.306  0.4436  0.6672 -0.2291
 3343SOL    HW213138   3.453   3.688   4.224 -1.0846  0.2008  0.6274
 3343SOL    HW313139   3.578   3.672   4.308  0.0732 -0.1253 -1.1017
 3343SOL    MW413140   3.499   3.706   4.296  0.1931  0.5011 -0.2312
 3344SOL     OW13141   5.971   0.766   3.270 -0.1241  0.0791 -0.7042
 3344SOL    HW213142   6.039   0.809   3.323  0.3110 -0.0120 -1.1771
 3344SOL    HW313143   5.891   0.778   3.321  0.1698  0.5497 -0.3285
 3344SOL    MW413144   5.970   0.773   3.284 -0.0279  0.1291 -0.7170
 3345SOL     OW13145   5.480   1.733   0.382 -0.5588 -0.1123  0.6357
 3345SOL    HW213146   5.446   1.690   0.460 -0.4511 -0.2847  0.5886
 3345SOL    HW313147   5.451   1.824   0.389 -2.2801 -0.5583 -0.1294
 3345SOL    MW413148   5.472   1.739   0.393 -0.7717 -0.1939  0.5285
 3346SOL     OW13149   0.495   6.056   1.395  0.1903 -0.3379  0.5967
 3346SOL    HW213150   0.401   6.044   1.406  0.1184  1.7229  3.3586
 3346SOL    HW313151   0.524   6.092   1.479  2.9935  1.6575 -1.0823
 3346SOL    MW413152   0.486   6.059   1.408  0.5507  0.1973  0.7396
 3347SOL     OW13153   0.664   5.206   4.753 -0.2706  0.0923 -0.0149
 3347SOL    HW213154   0.599   5.273   4.772  0.1574  0.1652  1.2894
 3347SOL    HW313155   0.737   5.253   4.715 -0.4119  0.2108 -0.1402
 3347SOL    MW413156   0.665   5.221   4.751 -0.2328  0.1176  0.1406
 3348SOL     OW13157   3.036   5.280   6.335 -0.7030  0.5861  0.2392
 3348SOL    HW213158   2.999   5.368   6.336  0.8462  1.2665  0.0865
 3348SOL    HW313159   3.112   5.287   6.276 -0.5798 -0.8553  0.1994
 3348SOL    MW413160   3.041   5.292   6.327 -0.4824  0.4857  0.2138
 3349SOL     OW13161   5.816   1.407   3.775 -0.3404 -0.4401 -0.4795
 3349SOL    HW213162   5.891   1.370   3.821 -0.7222  1.3487  1.8007
 3349SOL    HW313163   5.757   1.333   3.760  0.6797 -1.4088  0.1746
 3349SOL    MW413164   5.818   1.392   3.779 -0.2562 -0.3319 -0.0924
 3350SOL     OW13165   3.996   0.630   3.102 -0.5902  0.0907 -0.0861
 3350SOL    HW213166   3.965   0.542   3.123  0.8772 -0.1980  0.9860
 3350SOL    HW313167   4.034   0.621   3.015  0.8739 -0.7185  0.6015
 3350SOL    MW413168   3.997   0.617   3.093 -0.2034 -0.0541  0.1461
 3351SOL     OW13169   4.724   5.633   3.908  0.3302  0.3068 -0.0706
 3351SOL    HW213170   4.751   5.670   3.824  1.3980 -0.6524 -0.1755
 3351SOL    HW313171   4.796   5.575   3.933 -0.4506 -0.2357  0.9982
 3351SOL    MW413172   4.737   5.631   3.900  0.3681  0.1087  0.0566
 3352SOL     OW13173   5.403   2.617   5.317  0.2402 -0.0566 -0.4036
 3352SOL    HW213174   5.488   2.642   5.353 -0.4634 -1.5357  2.5121
 3352SOL    HW313175   5.344   2.688   5.342 -0.2567 -1.1013  1.5434
 3352SOL    MW413176   5.406   2.630   5.325  0.0818 -0.3896  0.2380
 3353SOL     OW13177   4.061   4.365   4.434 -0.7569  0.4000  0.1115
 3353SOL    HW213178   4.103   4.285   4.466 -1.4544  0.4795  1.2859
 3353SOL    HW313179   4.006   4.336   4.360 -1.1388 -0.2394  0.6369
 3353SOL    MW413180   4.059   4.351   4.428 -0.8993  0.3261  0.3358
 3354SOL     OW13181   6.001   4.490   4.545  0.6285  0.9946 -0.1981
 3354SOL    HW213182   6.082   4.463   4.588  0.0505 -2.1600 -0.7818
 3354SOL    HW313183   6.024   4.498   4.453  0.2818 -0.1560 -0.4029
 3354SOL    MW413184   6.015   4.487   4.539  0.5065  0.4266 -0.3021
 3355SOL     OW13185   0.834   6.127   1.145 -0.3559  0.4435 -0.3608
 3355SOL    HW213186   0.780   6.205   1.131 -1.1431 -0.2525 -1.2695
 3355SOL    HW313187   0.908   6.159   1.197 -0.5535  1.8477 -0.8967
 3355SOL    MW413188   0.837   6.142   1.150 -0.4859  0.5370 -0.5514
 3356SOL     OW13189   4.680   1.598   3.759  0.4792  0.3111 -0.2116
 3356SOL    HW213190   4.669   1.580   3.666  0.6571  0.3206 -0.2355
 3356SOL    HW313191   4.596   1.634   3.787 -0.0433 -0.9920 -0.0546
 3356SOL    MW413192   4.668   1.601   3.751  0.4338  0.1405 -0.1941
 3357SOL     OW13193   5.170   5.782   1.464 -0.0043 -0.0451  0.1684
 3357SOL    HW213194   5.224   5.851   1.501  0.8006 -0.8908  0.6171
 3357SOL    HW313195   5.105   5.764   1.532  1.1546 -1.2389  1.0029
 3357SOL    MW413196   5.168   5.789   1.478  0.2548 -0.3142  0.3377
 3358SOL     OW13197   5.180   0.878   3.747 -0.5498 -0.3527  0.3070
 3358SOL    HW213198   5.152   0.799   3.701 -1.3856  1.1526 -1.9942
 3358SOL    HW313199   5.099   0.928   3.758  0.3806  1.8304 -1.8218
 3358SOL    MW413200   5.165   0.874   3.742 -0.5373  0.1339 -0.2775
 3359SOL     OW13201   6.086   2.894   0.392  0.5052  0.0168  0.4149
 3359SOL    HW213202   6.116   2.866   0.306  1.8140  0.7265  0.6111
 3359SOL    HW313203   6.072   2.813   0.441 -2.0738 -0.4904 -0.9923
 3359SOL    MW413204   6.088   2.879   0.387  0.3376  0.0435  0.2551
 3360SOL     OW13205   5.677   3.094   3.087 -0.0962  0.1820 -0.2820
 3360SOL    HW213206   5.636   3.181   3.086 -0.8597 -0.1662 -0.4271
 3360SOL    HW313207   5.626   3.044   3.150  1.0715  0.1630  0.6786
 3360SOL    MW413208   5.665   3.099   3.095 -0.0428  0.1336 -0.1744
 3361SOL     OW13209   4.018   6.238   5.333  0.3127 -0.2663 -0.4936
 3361SOL    HW213210   3.990   6.157   5.374 -1.2999  1.6443  2.4991
 3361SOL    HW313211   3.986   6.232   5.243  1.6405 -3.5171 -0.8766
 3361SOL    MW413212   4.010   6.227   5.326  0.2751 -0.4431 -0.1493
 3362SOL     OW13213   5.658   4.401   0.861  0.3452 -0.3851 -0.9327
 3362SOL    HW213214   5.589   4.451   0.904 -0.0509 -1.2953 -0.4794
 3362SOL    HW313215   5.709   4.467   0.814 -0.3917  0.3908 -0.6831
 3362SOL    MW413216   5.656   4.417   0.861  0.1957 -0.4028 -0.8400
 3363SOL     OW13217   2.077   5.151   3.769  0.5890  0.0311  0.4016
 3363SOL    HW213218   2.130   5.229   3.785  2.0821 -1.1609  1.5348
 3363SOL    HW313219   2.049   5.160   3.677 -0.2979  2.4355  0.8306
 3363SOL    MW413220   2.080   5.162   3.759  0.6690  0.1911  0.6077
 3364SOL     OW13221   3.594   3.983   6.360 -0.3333 -0.5535 -0.1636
 3364SOL    HW213222   3.588   3.968   6.265  0.6701  0.6612 -0.4432
 3364SOL    HW313223   3.609   4.077   6.368 -2.9377 -0.1635  1.3350
 3364SOL    MW413224   3.595   3.993   6.348 -0.5446 -0.3418 -0.0027
 3365SOL     OW13225   4.648   4.583   2.199  0.5091 -0.1826  0.0814
 3365SOL    HW213226   4.680   4.573   2.109 -1.0351 -0.5659 -0.4495
 3365SOL    HW313227   4.716   4.635   2.242  0.3004  1.8910 -1.8669
 3365SOL    MW413228   4.662   4.588   2.193  0.2778  0.0404 -0.2457
 3366SOL     OW13229   0.642   3.083   0.682 -0.2217 -0.1258 -0.6782
 3366SOL    HW213230   0.569   3.041   0.728  1.4609 -2.0381  0.3754
 3366SOL    HW313231   0.663   3.160   0.736 -0.7413 -0.1856 -0.3882
 3366SOL    MW413232   0.635   3.088   0.695 -0.0682 -0.3860 -0.5009
 3367SOL     OW13233   3.046   6.203   1.498  0.0321  0.2225  0.2735
 3367SOL    HW213234   3.086   6.184   1.413  0.0969 -0.7930  0.5092
 3367SOL    HW313235   3.034   6.298   1.499  1.8173  0.4938 -0.0886
 3367SOL    MW413236   3.050   6.213   1.487  0.2762  0.1243  0.2568
 3368SOL     OW13237   4.564   5.742   3.116  0.3335 -0.4862  0.1903
 3368SOL    HW213238   4.476   5.710   3.096  0.7122 -1.9871  0.8361
 3368SOL    HW313239   4.573   5.731   3.211  1.1192 -0.0560  0.1771
 3368SOL    MW413240   4.553   5.737   3.126  0.4871 -0.6275  0.2737
 3369SOL     OW13241   6.305   5.553   4.512  0.1310 -0.8432 -0.5605
 3369SOL    HW213242   6.289   5.467   4.472  1.4754 -0.7821 -1.2901
 3369SOL    HW313243   6.394   5.576   4.484 -0.4028  1.0453 -0.8471
 3369SOL    MW413244   6.315   5.544   4.503  0.2379 -0.5860 -0.6946
 3370SOL     OW13245   4.758   1.852   4.068 -0.1999  0.1760 -0.4786
 3370SOL    HW213246   4.757   1.936   4.023  0.0768  1.9354  2.5403
 3370SOL    HW313247   4.667   1.823   4.068 -0.1677 -0.0479 -2.3248
 3370SOL    MW413248   4.746   1.859   4.062 -0.1592  0.3786 -0.3239
 3371SOL     OW13249   6.271   1.930   0.890 -0.2135  0.0962  0.8342
 3371SOL    HW213250   6.310   1.973   0.813  0.5829  0.5123  1.4529
 3371SOL    HW313251   6.185   1.901   0.860  0.2206 -0.0652 -0.3220
 3371SOL    MW413252   6.265   1.932   0.876 -0.0512  0.1298  0.7633
 3372SOL     OW13253   2.704   0.600   1.780  0.4566 -0.0218  0.0770
 3372SOL    HW213254   2.707   0.508   1.753 -1.0510 -0.3333  0.8601
 3372SOL    HW313255   2.750   0.601   1.864  1.5495  0.1886 -0.5063
 3372SOL    MW413256   2.711   0.588   1.787  0.4019 -0.0352  0.1034
 3373SOL     OW13257   2.762   1.252   5.130  0.7476  0.1394 -0.0743
 3373SOL    HW213258   2.813   1.287   5.057  0.5560 -2.9544 -1.8508
 3373SOL    HW313259   2.827   1.225   5.195  1.0553  0.6549 -0.1621
 3373SOL    MW413260   2.777   1.253   5.129  0.7629 -0.2008 -0.3202
 3374SOL     OW13261   6.117   1.719   2.929  0.0306 -0.1054 -0.7813
 3374SOL    HW213262   6.065   1.793   2.898  2.6430  2.2057 -0.0111
 3374SOL    HW313263   6.122   1.731   3.024  2.0894 -0.1050 -0.8452
 3374SOL    MW413264   6.111   1.730   2.938  0.6469  0.1996 -0.6881
 3375SOL     OW13265   3.261   3.571   2.056 -0.2546  0.4516 -0.2192
 3375SOL    HW213266   3.303   3.599   2.138  0.3335 -0.8004 -0.0777
 3375SOL    HW313267   3.197   3.640   2.038 -2.0015 -0.3019  2.4681
 3375SOL    MW413268   3.258   3.584   2.065 -0.4075  0.1870  0.1541
 3376SOL     OW13269   5.694   5.413   3.298 -0.1532  0.2506  0.0258
 3376SOL    HW213270   5.640   5.478   3.344 -0.8309  0.3161 -0.8429
 3376SOL    HW313271   5.711   5.451   3.213 -2.2164 -1.4686 -1.2672
 3376SOL    MW413272   5.689   5.426   3.293 -0.5148  0.0324 -0.2594
 3377SOL     OW13273   5.394   2.549   1.405 -0.2748 -0.2019 -0.8725
 3377SOL    HW213274   5.372   2.498   1.483  0.2911 -2.3098 -1.9994
 3377SOL    HW313275   5.472   2.505   1.369  0.5365  1.7791 -1.6831
 3377SOL    MW413276   5.402   2.536   1.410 -0.0931 -0.2187 -1.1281
 3378SOL     OW13277   1.843   1.430   0.873 -0.0556 -0.0279 -0.2349
 3378SOL    HW213278   1.748   1.427   0.883 -0.1259 -1.6093 -0.9480
 3378SOL    HW313279   1.857   1.441   0.779  0.4509 -0.1708 -0.1806
 3378SOL    MW413280   1.832   1.431   0.862  0.0020 -0.2554 -0.3218
 3379SOL     OW13281   2.649   1.811   4.384 -0.2775  0.1067 -0.6679
 3379SOL    HW213282   2.684   1.829   4.297  0.6495  0.4694 -0.2342
 3379SOL    HW313283   2.590   1.885   4.402 -2.0575 -0.9780 -1.7806
 3379SOL    MW413284   2.646   1.823   4.375 -0.3901  0.0114 -0.7575
 3380SOL     OW13285   0.434   2.921   1.186 -0.1230 -0.1821  0.0653
 3380SOL    HW213286   0.351   2.955   1.155 -1.0494  0.8267  3.2883
 3380SOL    HW313287   0.491   2.998   1.192  0.7451 -0.7018 -1.1075
 3380SOL    MW413288   0.431   2.935   1.183 -0.1307 -0.1176  0.3358
 3381SOL     OW13289   3.448   3.167   0.856  0.5399 -0.1833  0.4925
 3381SOL    HW213290   3.462   3.085   0.809  2.6373  1.1883 -1.4681
 3381SOL    HW313291   3.521   3.174   0.917  1.2287  0.8743 -0.4088
 3381SOL    MW413292   3.459   3.157   0.858  0.9075  0.1372  0.1149
 3382SOL     OW13293   2.944   6.143   4.773  0.2589 -0.1963  0.5796
 3382SOL    HW213294   2.875   6.078   4.764  0.2688 -0.1644  0.2481
 3382SOL    HW313295   2.985   6.147   4.686  1.3888 -1.0144  1.0409
 3382SOL    MW413296   2.941   6.135   4.760  0.4093 -0.3000  0.5967
 3383SOL     OW13297   5.117   2.362   4.144 -0.3020  0.2661  0.3005
 3383SOL    HW213298   5.046   2.425   4.134 -1.4440 -0.6920  1.9410
 3383SOL    HW313299   5.073   2.277   4.152  1.1616 -0.7143 -1.2177
 3383SOL    MW413300   5.101   2.359   4.144 -0.2596  0.0103  0.3166
 3384SOL     OW13301   4.182   1.845   5.910 -0.1074 -0.0553  0.3676
 3384SOL    HW213302   4.153   1.765   5.866 -0.6206  1.1111 -1.5373
 3384SOL    HW313303   4.261   1.819   5.957 -0.6114 -1.8128  0.2995
 3384SOL    MW413304   4.189   1.831   5.910 -0.2416 -0.1333  0.1073
 3385SOL     OW13305   0.716   5.262   1.496 -0.1095 -0.0780  0.3282
 3385SOL    HW213306   0.730   5.250   1.590  1.3774 -1.0480  0.0173
 3385SOL    HW313307   0.794   5.309   1.466 -0.0035 -0.8456 -0.6190
 3385SOL    MW413308   0.728   5.267   1.505  0.1007 -0.3072  0.1622
 3386SOL     OW13309   5.114   0.549   3.350  0.1299 -0.3757 -0.5563
 3386SOL    HW213310   5.049   0.599   3.300  0.8315  1.6356  0.4340
 3386SOL    HW313311   5.198   0.569   3.309  0.6344  0.7474  0.9341
 3386SOL    MW413312   5.116   0.558   3.338  0.2891  0.0379 -0.2290
 3387SOL     OW13313   0.560   5.023   0.572  0.1493 -0.0246  0.3830
 3387SOL    HW213314   0.578   4.932   0.547  1.9152  0.0064  1.3428
 3387SOL    HW313315   0.610   5.075   0.509  0.5198  0.2116  0.8661
 3387SOL    MW413316   0.569   5.018   0.560  0.4311  0.0107  0.5734
 3388SOL     OW13317   0.072   2.028   2.263  0.1516  0.4734  0.2693
 3388SOL    HW213318   0.128   2.098   2.299  0.5212  0.2356  0.1655
 3388SOL    HW313319   0.119   1.947   2.284 -0.2438  0.2587  0.3319
 3388SOL    MW413320   0.086   2.027   2.270  0.1482  0.4137  0.2639
 3389SOL     OW13321   0.156   0.632   5.617 -0.0438 -0.4173  0.1779
 3389SOL    HW213322   0.138   0.699   5.551  0.9696  0.3300  0.6419
 3389SOL    HW313323   0.240   0.657   5.654 -1.7272  0.7574  3.6580
 3389SOL    MW413324   0.165   0.644   5.613 -0.1322 -0.1637  0.6983
 3390SOL     OW13325   6.032   3.683   0.781  0.1741 -0.2585  0.2621
 3390SOL    HW213326   6.088   3.733   0.840 -0.8228  0.0579  0.9553
 3390SOL    HW313327   5.987   3.620   0.837 -1.3809  0.5714 -0.0007
 3390SOL    MW413328   6.034   3.681   0.796 -0.1626 -0.1073  0.3189
 3391SOL     OW13329   5.677   1.739   1.149  0.1729  0.3416 -0.1495
 3391SOL    HW213330   5.671   1.655   1.102 -2.0444  1.3798 -1.9308
 3391SOL    HW313331   5.681   1.714   1.241 -0.4937 -1.7263 -0.6131
 3391SOL    MW413332   5.677   1.724   1.155 -0.2076  0.2058 -0.4457
 3392SOL     OW13333   3.236   0.491   3.945  0.0497 -0.2572  0.2314
 3392SOL    HW213334   3.252   0.516   4.036 -0.8601  0.1087  0.3075
 3392SOL    HW313335   3.245   0.573   3.896 -2.6648  0.2780  0.4425
 3392SOL    MW413336   3.239   0.505   3.950 -0.4285 -0.1383  0.2693
 3393SOL     OW13337   3.025   2.260   4.089 -0.0453  0.2200  0.2894
 3393SOL    HW213338   2.971   2.201   4.141 -0.2169  0.1493  0.0358
 3393SOL    HW313339   2.966   2.330   4.061 -0.9066 -1.5290 -2.7417
 3393SOL    MW413340   3.010   2.262   4.092 -0.1816 -0.0201 -0.1440
 3394SOL     OW13341   5.287   6.078   4.402  0.0675  0.2341 -0.7607
 3394SOL    HW213342   5.219   6.094   4.468  0.8135  1.0240 -0.1624
 3394SOL    HW313343   5.303   5.983   4.407 -0.3021  0.1940 -0.2224
 3394SOL    MW413344   5.280   6.067   4.411  0.1172  0.3330 -0.6107
 3395SOL     OW13345   2.802   6.052   5.723  0.0992  0.1684 -0.1561
 3395SOL    HW213346   2.710   6.027   5.724 -0.0106  0.5323 -0.6430
 3395SOL    HW313347   2.839   6.014   5.803 -0.4984  0.1247  0.1005
 3395SOL    MW413348   2.795   6.044   5.734  0.0058  0.2107 -0.1865
 3396SOL     OW13349   3.484   4.682   6.116  0.2393 -0.4182  0.3513
 3396SOL    HW213350   3.545   4.736   6.167  0.7142  0.4395 -1.0367
 3396SOL    HW313351   3.416   4.743   6.089  0.4849 -0.6153 -0.7729
 3396SOL    MW413352   3.483   4.697   6.119  0.3344 -0.3310  0.0199
 3397SOL     OW13353   2.189   4.410   5.123 -0.3781  0.3150  0.1019
 3397SOL    HW213354   2.094   4.410   5.139 -0.4827  0.1978 -0.5169
 3397SOL    HW313355   2.221   4.334   5.171 -0.1121  2.0718  3.0192
 3397SOL    MW413356   2.180   4.400   5.132 -0.3568  0.5313  0.4051
 3398SOL     OW13357   1.651   0.825   2.903  0.1572 -0.1416  0.1591
 3398SOL    HW213358   1.574   0.882   2.898 -0.9905 -1.4714  1.5707
 3398SOL    HW313359   1.671   0.804   2.812 -1.0860  0.3283 -0.2464
 3398SOL    MW413360   1.644   0.830   2.891 -0.1582 -0.2550  0.2918
 3399SOL     OW13361   3.904   1.449   5.693  0.2339 -0.1701 -0.1800
 3399SOL    HW213362   3.892   1.439   5.598  0.7171 -0.8551 -0.1762
 3399SOL    HW313363   3.827   1.405   5.731 -0.7845  1.4505 -0.2588
 3399SOL    MW413364   3.892   1.442   5.685  0.1633 -0.0467 -0.1899
 3400SOL     OW13365   1.687   2.888   0.791 -0.1302 -0.4607  0.0270
 3400SOL    HW213366   1.660   2.902   0.882  1.1751  2.0451  0.1019
 3400SOL    HW313367   1.730   2.802   0.792 -0.4359 -0.6298  1.6886
 3400SOL    MW413368   1.689   2.878   0.804  0.0017 -0.1524  0.2561
 3401SOL     OW13369   1.725   1.403   5.768 -0.1111 -0.4643  0.5909
 3401SOL    HW213370   1.801   1.430   5.715 -1.6276  2.8806 -0.1307
 3401SOL    HW313371   1.682   1.336   5.715  0.4406  0.1203 -0.6407
 3401SOL    MW413372   1.730   1.398   5.754 -0.2384  0.0542  0.3332
 3402SOL     OW13373   4.816   2.463   6.222  0.3159  0.2070 -0.5477
 3402SOL    HW213374   4.883   2.401   6.192 -0.2246 -1.3687  1.2774
 3402SOL    HW313375   4.734   2.427   6.191  0.0155  0.1114  0.3241
 3402SOL    MW413376   4.814   2.450   6.214  0.2049 -0.0135 -0.1919
 3403SOL     OW13377   4.215   0.373   2.955 -0.3126  0.1706 -0.0860
 3403SOL    HW213378   4.143   0.311   2.953 -0.9852  0.8465  1.5208
 3403SOL    HW313379   4.175   0.457   2.931 -0.0726  0.5550  0.8380
 3403SOL    MW413380   4.200   0.376   2.951 -0.3697  0.3105  0.2479
 3404SOL     OW13381   0.831   0.235   2.341  0.1293  0.4232  0.0715
 3404SOL    HW213382   0.752   0.198   2.380 -0.2564  2.1180  1.0081
 3404SOL    HW313383   0.868   0.291   2.409  0.6346  1.7743 -1.2326
 3404SOL    MW413384   0.825   0.238   2.355  0.1451  0.8250  0.0230
 3405SOL     OW13385   2.738   1.137   5.869 -0.1063 -0.2132 -0.2737
 3405SOL    HW213386   2.809   1.179   5.918 -1.3876  1.0060  0.6304
 3405SOL    HW313387   2.775   1.055   5.838  1.7251  0.4483  0.0633
 3405SOL    MW413388   2.752   1.132   5.871 -0.0337  0.0350 -0.1100
 3406SOL     OW13389   3.746   5.679   0.486  0.9320  0.5800 -0.3459
 3406SOL    HW213390   3.793   5.691   0.568  1.1647 -0.6722 -0.2740
 3406SOL    HW313391   3.804   5.624   0.433 -1.6516 -3.9045  0.9604
 3406SOL    MW413392   3.760   5.673   0.490  0.6219 -0.1769 -0.1641
 3407SOL     OW13393   0.208   2.886   6.306 -0.0837 -0.3602  0.2290
 3407SOL    HW213394   0.270   2.813   6.304 -0.9831 -1.1362 -0.5473
 3407SOL    HW313395   0.260   2.962   6.280  1.4110 -0.2244  3.2613
 3407SOL    MW413396   0.223   2.887   6.302 -0.0051 -0.4447  0.5267
 3408SOL     OW13397   5.734   3.372   5.347  0.9940 -0.2739 -0.9443
 3408SOL    HW213398   5.756   3.283   5.373  0.1329 -1.0739 -2.7282
 3408SOL    HW313399   5.810   3.425   5.372  1.4510 -1.4682  0.2863
 3408SOL    MW413400   5.747   3.367   5.354  0.9407 -0.5370 -1.0173
 3409SOL     OW13401   2.465   3.585   5.561  0.4216 -0.2426 -0.1059
 3409SOL    HW213402   2.478   3.511   5.619  1.8237 -1.6081 -2.0448
 3409SOL    HW313403   2.545   3.637   5.570  0.1139  0.2064  0.0799
 3409SOL    MW413404   2.477   3.582   5.570  0.5660 -0.3635 -0.3372
 3410SOL     OW13405   2.871   3.373   2.034  0.1202 -0.0492 -0.6600
 3410SOL    HW213406   2.918   3.341   1.957 -0.2053 -1.4485 -0.2908
 3410SOL    HW313407   2.841   3.294   2.079 -2.9615  0.7461 -1.0947
 3410SOL    MW413408   2.873   3.359   2.030 -0.3294 -0.1289 -0.6686
 3411SOL     OW13409   5.663   1.618   4.551 -0.0907 -0.1441  0.2445
 3411SOL    HW213410   5.585   1.581   4.591  0.0891 -1.1292 -0.2853
 3411SOL    HW313411   5.657   1.594   4.459 -0.3634  1.8492 -0.3077
 3411SOL    MW413412   5.652   1.610   4.544 -0.1029 -0.0111  0.1017
 3412SOL     OW13413   5.226   5.438   0.455 -0.1124 -0.1273 -0.5168
 3412SOL    HW213414   5.178   5.504   0.504  0.4392  0.5722 -0.9054
 3412SOL    HW313415   5.180   5.356   0.473 -1.1724  0.4537 -0.5204
 3412SOL    MW413416   5.214   5.436   0.464 -0.1794  0.0417 -0.5686
 3413SOL     OW13417   4.295   0.718   1.878 -0.5059  0.6929  0.1738
 3413SOL    HW213418   4.230   0.716   1.807 -0.6201  1.5100  0.2483
 3413SOL    HW313419   4.364   0.659   1.848 -1.4471 -0.5105  0.2635
 3413SOL    MW413420   4.296   0.710   1.865 -0.6451  0.6419  0.1955
 3414SOL     OW13421   3.799   2.555   1.738 -0.6488 -0.4022 -0.0194
 3414SOL    HW213422   3.839   2.636   1.706 -0.4232 -0.3440  0.3966
 3414SOL    HW313423   3.820   2.554   1.831 -1.0973 -0.6831  0.0791
 3414SOL    MW413424   3.807   2.566   1.746 -0.6782 -0.4316  0.0485
 3415SOL     OW13425   3.801   2.926   6.012  0.2355 -0.1195  0.6155
 3415SOL    HW213426   3.882   2.954   6.054  0.4432 -1.0519  0.8527
 3415SOL    HW313427   3.782   2.841   6.051 -0.2765 -0.4018 -0.2267
 3415SOL    MW413428   3.809   2.919   6.023  0.1954 -0.2797  0.5357
 3416SOL     OW13429   6.366   0.819   4.250 -0.1482  0.1450 -0.0525
 3416SOL    HW213430   6.327   0.834   4.336 -2.3915 -0.6583 -0.8726
 3416SOL    HW313431   6.363   0.905   4.207  1.2923  0.6289  0.7252
 3416SOL    MW413432   6.360   0.833   4.256 -0.2541  0.1028 -0.0581
 3417SOL     OW13433   5.774   0.098   5.604  0.4942 -0.5220  0.0524
 3417SOL    HW213434   5.737   0.047   5.675  1.1918 -1.1792 -0.0381
 3417SOL    HW313435   5.708   0.097   5.535  1.8270 -4.4777 -1.4412
 3417SOL    MW413436   5.761   0.091   5.604  0.7621 -1.1306 -0.1566
 3418SOL     OW13437   1.427   1.260   2.903 -0.3391 -0.1677  0.0138
 3418SOL    HW213438   1.505   1.243   2.850 -0.9118  0.8952 -1.2516
 3418SOL    HW313439   1.439   1.350   2.933 -0.3989 -0.5003  1.0570
 3418SOL    MW413440   1.439   1.270   2.900 -0.4225 -0.0714 -0.0155
 3419SOL     OW13441   1.584   4.007   2.584  0.2459  0.4245  0.0231
 3419SOL    HW213442   1.511   3.947   2.571 -0.5176  1.5727 -1.2580
 3419SOL    HW313443   1.550   4.072   2.646  0.6042  0.3043  0.3505
 3419SOL    MW413444   1.570   4.008   2.590  0.1924  0.5601 -0.1027
 3420SOL     OW13445   5.790   5.912   6.310 -0.3944  0.4926  0.1860
 3420SOL    HW213446   5.773   5.950   6.224  2.1611 -1.1877 -1.1606
 3420SOL    HW313447   5.741   5.829   6.310 -0.3932  0.4898  0.3866
 3420SOL    MW413448   5.781   5.906   6.299 -0.0570  0.2706  0.0348
 3421SOL     OW13449   0.441   1.266   6.051  0.3426 -0.3202 -0.3193
 3421SOL    HW213450   0.489   1.265   5.968  0.6017  0.6595 -0.1908
 3421SOL    HW313451   0.495   1.213   6.110  1.9753  1.7315  0.1680
 3421SOL    MW413452   0.455   1.259   6.048  0.5922  0.0798 -0.2381
 3422SOL     OW13453   2.293   1.076   5.488 -0.4905 -0.1828 -0.0977
 3422SOL    HW213454   2.253   1.157   5.455  0.2287  0.1260 -0.2313
 3422SOL    HW313455   2.371   1.064   5.434 -0.4464 -0.8296  0.0967
 3422SOL    MW413456   2.298   1.085   5.477 -0.3898 -0.2274 -0.0897
 3423SOL     OW13457   3.931   1.915   3.453 -0.6154 -0.2174 -0.5980
 3423SOL    HW213458   3.886   1.863   3.520  0.8202 -0.6868  0.0515
 3423SOL    HW313459   3.883   1.998   3.450 -1.5415 -0.7125  0.0117
 3423SOL    MW413460   3.918   1.919   3.462 -0.5481 -0.3446 -0.4318
 3424SOL     OW13461   4.322   2.582   4.673 -1.1413  0.4003 -0.5588
 3424SOL    HW213462   4.312   2.640   4.748 -2.1688  0.9405 -1.0796
 3424SOL    HW313463   4.257   2.614   4.610  1.0121  1.2415 -2.4843
 3424SOL    MW413464   4.312   2.594   4.674 -0.9928  0.5826 -0.8816
 3425SOL     OW13465   6.166   6.365   3.475 -0.3686  0.4139 -0.6386
 3425SOL    HW213466   6.233   6.358   3.407  0.1060  1.2148 -0.2724
 3425SOL    HW313467   6.193   6.302   3.542  1.5240  2.4647  0.7073
 3425SOL    MW413468   6.179   6.356   3.475 -0.0563  0.7902 -0.4127
 3426SOL     OW13469   4.841   4.388   6.143  0.1034  0.1087  0.2997
 3426SOL    HW213470   4.926   4.429   6.128  0.4420 -0.4619  0.6181
 3426SOL    HW313471   4.825   4.336   6.064  0.5334 -0.5924  0.6634
 3426SOL    MW413472   4.850   4.387   6.130  0.2048 -0.0591  0.3897
 3427SOL     OW13473   4.947   1.314   2.991  0.1307 -0.1528  0.2668
 3427SOL    HW213474   4.963   1.272   3.075 -2.2391 -0.0770  0.8221
 3427SOL    HW313475   4.943   1.408   3.012 -0.8754 -0.1656  0.1583
 3427SOL    MW413476   4.949   1.321   3.005 -0.3147 -0.1445  0.3257
 3428SOL     OW13477   0.042   5.160   2.832  0.5433  0.0279 -0.2358
 3428SOL    HW213478   0.094   5.239   2.847  0.7654  0.2951 -2.1247
 3428SOL    HW313479  -0.040   5.191   2.795 -0.9974 -0.4059  2.5610
 3428SOL    MW413480   0.038   5.174   2.829  0.3693  0.0059 -0.1160
 3429SOL     OW13481   2.720   2.809   5.408  0.0480 -0.3445  0.3178
 3429SOL    HW213482   2.634   2.816   5.368 -1.1145  3.4435  2.9006
 3429SOL    HW313483   2.779   2.850   5.345 -0.6040 -0.1895 -0.2025
 3429SOL    MW413484   2.716   2.816   5.394 -0.1914  0.1758  0.5899
 3430SOL     OW13485   2.948   1.446   6.174 -0.0327 -0.2258  0.2876
 3430SOL    HW213486   3.017   1.431   6.238 -2.4143  2.2937  3.7917
 3430SOL    HW313487   2.960   1.538   6.147 -0.8143 -0.3833 -0.6514
 3430SOL    MW413488   2.959   1.456   6.179 -0.4501  0.0859  0.6260
 3431SOL     OW13489   4.839   3.287   0.957  0.7252 -0.1433 -0.1635
 3431SOL    HW213490   4.907   3.279   1.024  1.0313  0.4798 -0.3963
 3431SOL    HW313491   4.887   3.294   0.874  0.5223  2.8124 -0.1305
 3431SOL    MW413492   4.854   3.287   0.955  0.7388  0.3289 -0.1899
 3432SOL     OW13493   6.051   3.980   3.122  0.3193  0.0185 -0.2125
 3432SOL    HW213494   5.961   4.008   3.144  0.9181  0.9939  1.2008
 3432SOL    HW313495   6.063   3.899   3.171  0.7337  0.7787  1.0255
 3432SOL    MW413496   6.040   3.973   3.132  0.4530  0.2475  0.1373
 3433SOL     OW13497   0.113   2.477   0.975  0.2662 -0.3512 -0.0982
 3433SOL    HW213498   0.186   2.461   1.035 -0.8400 -1.0436  1.1064
 3433SOL    HW313499   0.124   2.567   0.946  0.3864  0.2656  1.7795
 3433SOL    MW413500   0.124   2.487   0.979  0.1361 -0.3612  0.3085
 3434SOL     OW13501   5.088   3.860   6.257  0.0192 -0.2142  0.2324
 3434SOL    HW213502   5.081   3.849   6.352  0.2959 -0.2162  0.2504
 3434SOL    HW313503   5.031   3.935   6.238 -0.0424 -0.2186  0.3977
 3434SOL    MW413504   5.079   3.868   6.267  0.0476 -0.2150  0.2566
 3435SOL     OW13505   2.871   0.789   3.239  0.1590 -0.2022  0.2066
 3435SOL    HW213506   2.938   0.775   3.172  0.8304 -0.2383  0.8686
 3435SOL    HW313507   2.788   0.781   3.192  0.6178  0.6249 -0.7801
 3435SOL    MW413508   2.869   0.786   3.224  0.3081 -0.0979  0.1638
 3436SOL     OW13509   4.139   5.718   4.699  0.1160 -0.1048  0.1965
 3436SOL    HW213510   4.230   5.741   4.680 -0.0461 -0.3301 -0.9267
 3436SOL    HW313511   4.146   5.643   4.759  0.6711  0.0584  0.3421
 3436SOL    MW413512   4.152   5.711   4.704  0.1678 -0.1130  0.0675
 3437SOL     OW13513   1.194   4.877   6.322 -0.0100 -0.4497  0.4094
 3437SOL    HW213514   1.134   4.884   6.396  0.7865  0.3143  1.0102
 3437SOL    HW313515   1.172   4.952   6.267 -0.3127 -0.7701  0.0955
 3437SOL    MW413516   1.183   4.888   6.325  0.0552 -0.3911  0.4472
 3438SOL     OW13517   2.316   5.122   2.000  0.4983  0.0107  0.2400
 3438SOL    HW213518   2.346   5.032   1.987  0.9800  0.0371  1.0996
 3438SOL    HW313519   2.349   5.170   1.924 -0.8791 -0.7901 -0.8922
 3438SOL    MW413520   2.325   5.117   1.988  0.3801 -0.0915  0.2041
 3439SOL     OW13521   4.728   5.154   1.718  0.1799  0.0781  0.0043
 3439SOL    HW213522   4.649   5.101   1.704  1.0936 -1.6313  0.9213
 3439SOL    HW313523   4.724   5.178   1.811  0.6278  0.1560  0.0035
 3439SOL    MW413524   4.717   5.150   1.729  0.3596 -0.1372  0.1252
 3440SOL     OW13525   2.405   2.412   4.145  0.2836 -0.0562  0.0818
 3440SOL    HW213526   2.337   2.466   4.185  0.6134  1.0031 -0.7378
 3440SOL    HW313527   2.373   2.395   4.057  1.0539  0.4221 -0.2965
 3440SOL    MW413528   2.392   2.417   4.139  0.4287  0.1467 -0.0763
 3441SOL     OW13529   5.633   0.985   0.370  0.1674 -0.2602  0.2148
 3441SOL    HW213530   5.677   1.004   0.453 -1.4122  0.2540  0.9875
 3441SOL    HW313531   5.572   0.914   0.391 -1.0017  0.5779 -0.2101
 3441SOL    MW413532   5.631   0.978   0.384 -0.1953 -0.0818  0.2607
 3442SOL     OW13533   4.549   6.075   5.282 -0.0037  0.4549 -0.1667
 3442SOL    HW213534   4.465   6.121   5.274 -0.1266 -0.0050 -2.0132
 3442SOL    HW313535   4.613   6.144   5.294 -0.4450  0.9610 -0.6636
 3442SOL    MW413536   4.546   6.090   5.282 -0.0782  0.4610 -0.4759
 3443SOL     OW13537   3.274   1.993   2.252  0.4183 -0.2691  0.4013
 3443SOL    HW213538   3.353   2.023   2.209  0.4802 -2.8879 -1.5537
 3443SOL    HW313539   3.249   1.913   2.205 -1.6557 -1.2607  2.9039
 3443SOL    MW413540   3.281   1.986   2.240  0.1528 -0.7454  0.4736
 3444SOL     OW13541   4.852   4.004   2.469 -0.4682 -0.2244  0.4080
 3444SOL    HW213542   4.912   4.079   2.474  2.0488 -1.7133 -3.2353
 3444SOL    HW313543   4.866   3.956   2.550  0.8689  1.1934  1.0561
 3444SOL    MW413544   4.862   4.008   2.480  0.0403 -0.2338  0.0128
 3445SOL     OW13545   2.560   1.535   6.100  0.6843  0.4136  0.8098
 3445SOL    HW213546   2.560   1.463   6.037  0.1637 -0.4728  1.7902
 3445SOL    HW313547   2.475   1.579   6.087  0.9722  0.8193  0.2609
 3445SOL    MW413548   2.549   1.532   6.090  0.6536  0.3502  0.8668
 3446SOL     OW13549   4.852   4.522   3.930  0.0994  0.3850  0.2723
 3446SOL    HW213550   4.846   4.535   3.835  0.7955  0.6213  0.2498
 3446SOL    HW313551   4.786   4.581   3.967  0.9426  1.5401  0.0069
 3446SOL    MW413552   4.843   4.531   3.922  0.3025  0.5685  0.2343
 3447SOL     OW13553   1.874   3.515   1.656 -0.5832  0.1361 -0.0694
 3447SOL    HW213554   1.871   3.428   1.617  0.3415 -0.9802  2.1627
 3447SOL    HW313555   1.789   3.554   1.634 -0.4988 -0.7677 -2.2221
 3447SOL    MW413556   1.862   3.508   1.648 -0.4501 -0.1304 -0.0589
 3448SOL     OW13557   5.795   0.838   1.732 -0.0641  0.0637 -0.1859
 3448SOL    HW213558   5.740   0.800   1.664  1.8710  0.3749 -2.0133
 3448SOL    HW313559   5.880   0.848   1.691  0.4035  3.2146  1.2859
 3448SOL    MW413560   5.799   0.834   1.718  0.2529  0.5205 -0.2328
 3449SOL     OW13561   3.142   1.867   4.426 -0.2196 -0.0734 -0.1011
 3449SOL    HW213562   3.058   1.910   4.445  0.4101  1.1816 -0.0892
 3449SOL    HW313563   3.207   1.922   4.469  0.9085  0.6462 -2.5588
 3449SOL    MW413564   3.139   1.880   4.434  0.0123  0.1871 -0.4238
 3450SOL     OW13565   5.714   2.285   1.562  0.2064 -0.4058 -0.2478
 3450SOL    HW213566   5.767   2.222   1.612  2.2136  1.7204  0.4848
 3450SOL    HW313567   5.712   2.363   1.617 -4.4181 -0.4942  0.0870
 3450SOL    MW413568   5.721   2.287   1.576 -0.1389 -0.1369 -0.1070
 3451SOL     OW13569   1.853   1.210   4.618 -0.0123  0.6005  0.1250
 3451SOL    HW213570   1.847   1.277   4.550 -0.0732  0.6149  0.1444
 3451SOL    HW313571   1.763   1.184   4.634  0.0481  0.1180 -0.2723
 3451SOL    MW413572   1.841   1.215   4.611 -0.0124  0.5387  0.0751
 3452SOL     OW13573   2.106   4.189   4.915  0.2384  0.4194 -0.7639
 3452SOL    HW213574   2.079   4.219   4.828  2.2871 -0.8953 -1.9279
 3452SOL    HW313575   2.148   4.266   4.955 -1.0343  1.1344 -0.7428
 3452SOL    MW413576   2.108   4.203   4.909  0.3408  0.3403 -0.9147
 3453SOL     OW13577   5.618   2.363   1.305 -0.3109  0.0469 -0.0713
 3453SOL    HW213578   5.563   2.299   1.258  0.5371 -1.3795  0.7991
 3453SOL    HW313579   5.621   2.330   1.395  1.1680  0.6316  0.1178
 3453SOL    MW413580   5.611   2.350   1.311 -0.0039 -0.0641  0.0685
 3454SOL     OW13581   3.805   1.731   5.903 -0.0096 -0.6904  0.2370
 3454SOL    HW213582   3.851   1.728   5.819  1.4999  1.5039  0.9087
 3454SOL    HW313583   3.845   1.661   5.955  0.9630 -0.3045  0.0210
 3454SOL    MW413584   3.816   1.721   5.899  0.3179 -0.3500  0.2971
 3455SOL     OW13585   2.107   4.787   2.651  0.2311 -0.3609 -0.0013
 3455SOL    HW213586   2.095   4.839   2.572  0.8373 -1.2240 -0.6703
 3455SOL    HW313587   2.041   4.718   2.644 -0.2874  0.0478  0.6782
 3455SOL    MW413588   2.097   4.785   2.640  0.2427 -0.4209  0.0001
 3456SOL     OW13589   4.685   0.439   1.867  0.4377  0.2882  0.0723
 3456SOL    HW213590   4.753   0.495   1.830  1.9452 -1.0945  0.6158
 3456SOL    HW313591   4.609   0.452   1.810  1.0811  2.0278 -0.4375
 3456SOL    MW413592   4.684   0.448   1.855  0.7215  0.3353  0.0767
 3457SOL     OW13593   3.426   0.033   4.509 -0.0721 -0.2394 -0.3360
 3457SOL    HW213594   3.513  -0.003   4.527  0.7379  1.8118  0.1229
 3457SOL    HW313595   3.395   0.064   4.594 -0.5301  0.5350 -0.7754
 3457SOL    MW413596   3.434   0.032   4.523 -0.0257  0.1334 -0.3334
 3458SOL     OW13597   4.480   2.139   0.110  0.2900 -0.2266  0.3332
 3458SOL    HW213598   4.468   2.088   0.031  1.5564 -1.1432  0.6895
 3458SOL    HW313599   4.529   2.216   0.081  0.7506 -0.5590  0.2031
 3458SOL    MW413600   4.485   2.142   0.096  0.5178 -0.3914  0.3630
 3459SOL     OW13601   4.012   2.763   4.872 -0.3509  0.0128 -0.0815
 3459SOL    HW213602   4.000   2.707   4.949  0.6183  0.8371  0.6828
 3459SOL    HW313603   3.928   2.810   4.864 -0.7453 -0.6651 -0.0289
 3459SOL    MW413604   3.999   2.762   4.882 -0.2751  0.0321  0.0262
 3460SOL     OW13605   0.398   0.057   4.189  0.3143 -0.4901  0.5448
 3460SOL    HW213606   0.461   0.111   4.235  0.1933  0.2626 -0.1575
 3460SOL    HW313607   0.451  -0.001   4.134  0.4093 -0.0799  0.1994
 3460SOL    MW413608   0.413   0.056   4.188  0.3108 -0.3366  0.4066
 3461SOL     OW13609   1.229   6.319   5.316  0.0477  0.2257  0.0433
 3461SOL    HW213610   1.147   6.289   5.278  0.7048 -0.2278 -1.0596
 3461SOL    HW313611   1.281   6.347   5.241  0.8311  0.6989  0.7476
 3461SOL    MW413612   1.225   6.319   5.301  0.2378  0.2283 -0.0093
 3462SOL     OW13613   6.059   2.173   5.558 -0.3117  0.3552  0.1302
 3462SOL    HW213614   6.154   2.179   5.566  0.2129 -1.0247 -3.4216
 3462SOL    HW313615   6.026   2.242   5.616  2.8616  1.5323  0.7429
 3462SOL    MW413616   6.067   2.183   5.567  0.1762  0.3285 -0.2576
 3463SOL     OW13617   6.003   4.820   2.468  0.7885  0.5911  0.0589
 3463SOL    HW213618   5.953   4.776   2.537  0.3301  0.7408 -0.1738
 3463SOL    HW313619   6.094   4.810   2.494  0.6096  0.8084  0.7898
 3463SOL    MW413620   6.008   4.813   2.481  0.7044  0.6395  0.1247
 3464SOL     OW13621   1.272   1.506   1.602 -0.1843 -0.2227 -0.0628
 3464SOL    HW213622   1.363   1.522   1.578  0.4778 -2.8820  0.4115
 3464SOL    HW313623   1.259   1.560   1.680  0.7995  0.5657 -0.4125
 3464SOL    MW413624   1.282   1.515   1.609  0.0328 -0.4695 -0.0464
 3465SOL     OW13625   4.395   3.022   0.888  0.0424 -1.0378 -0.7058
 3465SOL    HW213626   4.337   2.987   0.956  0.6035  0.8934  0.8848
 3465SOL    HW313627   4.475   3.046   0.935  0.2256  0.9159 -1.9002
 3465SOL    MW413628   4.398   3.021   0.903  0.1406 -0.5252 -0.6535
 3466SOL     OW13629   5.849   5.823   5.023 -0.4963  0.0729 -0.3969
 3466SOL    HW213630   5.769   5.772   5.011 -0.8864  0.6287 -0.2097
 3466SOL    HW313631   5.918   5.769   4.984 -0.6457 -1.2554  1.0899
 3466SOL    MW413632   5.848   5.809   5.016 -0.5675 -0.0290 -0.1761
 3467SOL     OW13633   4.653   1.381   4.697 -0.1310 -0.0379  0.7684
 3467SOL    HW213634   4.594   1.372   4.773 -2.3383  1.2022 -0.6870
 3467SOL    HW313635   4.602   1.346   4.624  1.3886  0.1316 -0.4037
 3467SOL    MW413636   4.638   1.375   4.697 -0.2218  0.1481  0.4217
 3468SOL     OW13637   5.415   2.883   3.598 -0.4640 -0.3110  0.4680
 3468SOL    HW213638   5.349   2.892   3.666 -0.1361  1.3841  0.6088
 3468SOL    HW313639   5.491   2.846   3.643  0.6089  3.0267  1.7192
 3468SOL    MW413640   5.416   2.879   3.613 -0.2792  0.3530  0.6517
 3469SOL     OW13641   0.948   6.219   0.183  0.1188  0.1378 -0.0011
 3469SOL    HW213642   0.864   6.263   0.172 -0.7148 -1.2583  0.5028
 3469SOL    HW313643   0.960   6.214   0.278  0.5464 -0.0842 -0.0621
 3469SOL    MW413644   0.939   6.224   0.194  0.0652 -0.0757  0.0574
 3470SOL     OW13645   0.692   0.735   1.977 -0.1164  0.3641 -0.2410
 3470SOL    HW213646   0.673   0.682   2.054 -0.6657 -0.4303 -0.8995
 3470SOL    HW313647   0.674   0.825   2.004 -0.6390  0.0605  0.4479
 3470SOL    MW413648   0.687   0.740   1.991 -0.2578  0.2193 -0.2370
 3471SOL     OW13649   3.703   1.284   1.863  0.0482 -0.3049 -0.3477
 3471SOL    HW213650   3.736   1.293   1.952  1.1886  0.4382 -0.8287
 3471SOL    HW313651   3.778   1.256   1.812  0.0222  1.5321 -1.4899
 3471SOL    MW413652   3.717   1.281   1.868  0.1952  0.0355 -0.5619
 3472SOL     OW13653   5.712   1.188   5.869 -0.1292  0.1855  0.1990
 3472SOL    HW213654   5.722   1.135   5.789 -0.1569  0.0297  0.2980
 3472SOL    HW313655   5.617   1.190   5.884 -0.1494  0.5257  0.0199
 3472SOL    MW413656   5.700   1.181   5.860 -0.1356  0.2098  0.1884
 3473SOL     OW13657   4.227   1.759   6.304 -0.0103 -0.1753 -0.1456
 3473SOL    HW213658   4.145   1.793   6.268 -0.3869 -0.7534  0.1499
 3473SOL    HW313659   4.284   1.836   6.310 -1.0437  0.5518  1.0803
 3473SOL    MW413660   4.223   1.774   6.300 -0.1963 -0.1556  0.0551
 3474SOL     OW13661   0.695   2.607   1.644  0.0444  0.1371  0.5020
 3474SOL    HW213662   0.765   2.545   1.662  0.3635  0.2030 -0.4463
 3474SOL    HW313663   0.723   2.652   1.564 -0.8646  0.4754  0.3638
 3474SOL    MW413664   0.708   2.605   1.635 -0.0334  0.1905  0.3587
 3475SOL     OW13665   4.001   0.087   0.383 -0.2043 -0.0288  0.1186
 3475SOL    HW213666   4.053   0.158   0.421  0.6588 -1.3229  1.4267
 3475SOL    HW313667   4.049   0.063   0.303  1.0000 -0.8978  1.0726
 3475SOL    MW413668   4.014   0.094   0.377  0.0685 -0.3142  0.4170
 3476SOL     OW13669   6.019   2.002   1.451  0.3488 -0.0608  0.7532
 3476SOL    HW213670   6.024   2.093   1.422 -0.8233 -0.1281  0.2768
 3476SOL    HW313671   6.028   1.951   1.371 -1.9524 -0.2711  0.5613
 3476SOL    MW413672   6.021   2.008   1.437 -0.1094 -0.0974  0.6650
 3477SOL     OW13673   1.403   3.044   3.282  0.1129  0.5889 -0.1662
 3477SOL    HW213674   1.354   3.098   3.221 -0.0175  0.5996 -0.0522
 3477SOL    HW313675   1.470   3.001   3.228 -0.9465 -0.5702 -0.6080
 3477SOL    MW413676   1.406   3.045   3.267 -0.0441  0.4374 -0.2094
 3478SOL     OW13677   3.026   1.689   1.129 -0.3554 -0.5279 -0.3244
 3478SOL    HW213678   3.030   1.719   1.038 -1.1103  2.0664  0.4243
 3478SOL    HW313679   3.076   1.607   1.129  0.1181 -0.3358 -2.9472
 3478SOL    MW413680   3.033   1.682   1.117 -0.3925 -0.1602 -0.5716
 3479SOL     OW13681   1.998   5.766   1.275  0.0868  0.2998  0.1393
 3479SOL    HW213682   1.947   5.767   1.356 -0.3340  1.3474 -0.1193
 3479SOL    HW313683   1.939   5.803   1.209  0.4460 -0.4724 -0.6463
 3479SOL    MW413684   1.983   5.771   1.277  0.0787  0.3361  0.0016
 3480SOL     OW13685   5.986   3.471   5.515  0.5120 -0.1207 -0.1845
 3480SOL    HW213686   6.002   3.558   5.480 -0.5745 -1.1038 -3.5788
 3480SOL    HW313687   6.065   3.421   5.492  0.5231 -0.3843  0.4150
 3480SOL    MW413688   5.999   3.476   5.507  0.3701 -0.2852 -0.5533
 3481SOL     OW13689   5.601   2.812   4.422  0.2012  0.1927  0.0494
 3481SOL    HW213690   5.560   2.850   4.344  0.0902  1.4186  0.6785
 3481SOL    HW313691   5.543   2.741   4.448  1.0979 -1.3466 -1.9286
 3481SOL    MW413692   5.588   2.808   4.415  0.3048  0.1514 -0.1286
 3482SOL     OW13693   2.127   3.579   3.351  0.1931  0.2569 -0.0399
 3482SOL    HW213694   2.043   3.557   3.392  0.3760 -0.4154 -0.0092
 3482SOL    HW313695   2.134   3.674   3.359  0.6439  0.1005  2.3898
 3482SOL    MW413696   2.117   3.589   3.358  0.2767  0.1476  0.2847
 3483SOL     OW13697   3.843   3.556   1.103 -0.1371  0.5034 -0.5471
 3483SOL    HW213698   3.768   3.519   1.150  1.2674  0.5676  1.8990
 3483SOL    HW313699   3.896   3.480   1.079  1.0615  0.6254  1.4942
 3483SOL    MW413700   3.840   3.541   1.106  0.2064  0.5280  0.0449
 3484SOL     OW13701   1.948   1.857   4.860 -0.0373  0.5433 -0.3544
 3484SOL    HW213702   1.913   1.828   4.944  0.2196  0.4957 -0.2649
 3484SOL    HW313703   1.879   1.912   4.823 -1.7326 -2.2672 -1.7496
 3484SOL    MW413704   1.934   1.860   4.866 -0.2271  0.1662 -0.5267
 3485SOL     OW13705   1.770   1.459   3.201 -0.1525 -0.1845  0.0290
 3485SOL    HW213706   1.734   1.527   3.257  1.4409  0.1343  0.7028
 3485SOL    HW313707   1.800   1.391   3.261  0.3696 -0.4483 -0.5177
 3485SOL    MW413708   1.769   1.459   3.216  0.1266 -0.1773  0.0458
 3486SOL     OW13709   6.348   4.897   4.622 -0.1262 -0.4735  0.2621
 3486SOL    HW213710   6.264   4.942   4.614  0.4279  0.4471 -0.7407
 3486SOL    HW313711   6.333   4.828   4.686 -1.5986 -0.2204  0.2171
 3486SOL    MW413712   6.335   4.894   4.629 -0.2474 -0.3187  0.1238
 3487SOL     OW13713   4.330   0.853   4.699 -0.3906  0.0222 -0.4794
 3487SOL    HW213714   4.315   0.942   4.666 -0.6454  0.3577  0.4912
 3487SOL    HW313715   4.294   0.796   4.632  0.5672  0.6225 -1.5320
 3487SOL    MW413716   4.323   0.857   4.686 -0.2979  0.1457 -0.4902
 3488SOL     OW13717   5.506   5.718   0.586  0.2119  0.3897  0.1142
 3488SOL    HW213718   5.486   5.625   0.590 -0.8067  0.6367  2.3974
 3488SOL    HW313719   5.586   5.728   0.637  0.3179  0.7748 -0.1182
 3488SOL    MW413720   5.514   5.707   0.593  0.0915  0.4731  0.3847
 3489SOL     OW13721   3.482   5.374   5.006 -0.0440 -0.0221 -0.7581
 3489SOL    HW213722   3.436   5.370   4.923 -3.2015 -1.1420  0.9058
 3489SOL    HW313723   3.542   5.299   5.004 -2.4843 -2.1174 -0.8176
 3489SOL    MW413724   3.484   5.364   4.995 -0.7826 -0.4463 -0.5464
 3490SOL     OW13725   0.030   2.807   3.401  0.4378  0.0460  0.5376
 3490SOL    HW213726  -0.062   2.790   3.385  0.7973 -0.4056 -1.2242
 3490SOL    HW313727   0.052   2.882   3.346  1.4130 -0.6768 -0.1023
 3490SOL    MW413728   0.021   2.814   3.392  0.6139 -0.1089  0.2207
 3491SOL     OW13729   5.855   0.846   0.514  0.1495 -0.2872 -0.0119
 3491SOL    HW213730   5.883   0.815   0.428 -0.2828 -0.5093 -0.0744
 3491SOL    HW313731   5.912   0.801   0.576 -0.0789 -0.7571 -0.1381
 3491SOL    MW413732   5.866   0.836   0.511  0.0623 -0.3785 -0.0368
 3492SOL     OW13733   1.668   0.345   3.755 -0.1296 -0.1441  0.3415
 3492SOL    HW213734   1.737   0.285   3.782 -1.0267 -1.8376 -0.9503
 3492SOL    HW313735   1.713   0.411   3.703  0.8780  0.3768  1.8146
 3492SOL    MW413736   1.683   0.346   3.752 -0.1150 -0.2988  0.3654
 3493SOL     OW13737   1.618   2.137   5.758 -0.2821 -0.3090 -0.1769
 3493SOL    HW213738   1.673   2.060   5.751  0.7664  0.2586  1.4819
 3493SOL    HW313739   1.668   2.206   5.714  0.0284  0.0332  0.6899
 3493SOL    MW413740   1.632   2.136   5.751 -0.1028 -0.1890  0.1563
 3494SOL     OW13741   4.434   6.350   2.884 -0.1565 -0.3223 -0.6623
 3494SOL    HW213742   4.387   6.431   2.865 -0.8953 -0.7813 -0.8506
 3494SOL    HW313743   4.411   6.291   2.812 -1.3538 -1.4083  0.5473
 3494SOL    MW413744   4.425   6.353   2.872 -0.4120 -0.5262 -0.5275
 3495SOL     OW13745   6.113   3.850   4.716 -0.8184 -0.1954  0.3329
 3495SOL    HW213746   6.059   3.779   4.752  0.4554 -0.6829  1.4170
 3495SOL    HW313747   6.197   3.839   4.761 -0.0753  1.0009 -0.7252
 3495SOL    MW413748   6.117   3.839   4.727 -0.5523 -0.1018  0.3363
 3496SOL     OW13749   2.047   1.827   0.083  0.6078 -0.0974  0.3157
 3496SOL    HW213750   2.036   1.732   0.078  0.9900 -0.1553  0.5787
 3496SOL    HW313751   2.050   1.846   0.177  2.1524 -0.0165  0.2747
 3496SOL    MW413752   2.046   1.817   0.095  0.8620 -0.0944  0.3450
 3497SOL     OW13753   0.851   1.138   1.228 -0.1952  0.5469  0.2617
 3497SOL    HW213754   0.888   1.145   1.316 -0.3753 -0.3379  0.4231
 3497SOL    HW313755   0.910   1.189   1.173  1.5763 -1.1797  0.4345
 3497SOL    MW413756   0.864   1.146   1.233  0.0148  0.2024  0.3058
 3498SOL     OW13757   2.100   2.107   2.151 -0.0925  0.1625  0.2399
 3498SOL    HW213758   2.170   2.079   2.210 -0.7796  1.8842  1.9580
 3498SOL    HW313759   2.046   2.029   2.138  0.8043 -0.5665  0.8106
 3498SOL    MW413760   2.102   2.093   2.157 -0.0648  0.2935  0.5419
 3499SOL     OW13761   4.333   4.859   2.481 -0.7901 -0.2118 -0.2775
 3499SOL    HW213762   4.379   4.908   2.413 -0.2755 -0.3709 -0.0534
 3499SOL    HW313763   4.240   4.870   2.461 -0.6609 -2.4813 -2.5851
 3499SOL    MW413764   4.327   4.867   2.469 -0.7051 -0.5322 -0.5524
 3500SOL     OW13765   0.418   5.295   3.098 -0.4417 -0.0193 -0.2971
 3500SOL    HW213766   0.385   5.356   3.164 -1.6798  0.8743 -1.6775
 3500SOL    HW313767   0.512   5.314   3.094 -0.5735  0.8403  0.2714
 3500SOL    MW413768   0.426   5.306   3.106 -0.6224  0.2120 -0.4042
 3501SOL     OW13769   6.288   0.815   3.178  0.1725 -0.2908  0.0233
 3501SOL    HW213770   6.236   0.838   3.255 -1.7684  1.3998 -1.6914
 3501SOL    HW313771   6.315   0.899   3.141 -0.4522 -0.9578 -2.0898
 3501SOL    MW413772   6.285   0.829   3.183 -0.1660 -0.1557 -0.4818
 3502SOL     OW13773   6.082   1.336   4.816  0.6799 -0.1083 -0.4070
 3502SOL    HW213774   6.042   1.254   4.845  2.2549 -0.0049  2.3370
 3502SOL    HW313775   6.172   1.313   4.795  1.0206  0.8370 -0.0357
 3502SOL    MW413776   6.089   1.322   4.817  0.9326  0.0301  0.0041
 3503SOL     OW13777   0.250   6.019   2.564  0.1436  0.1699 -0.0588
 3503SOL    HW213778   0.330   5.973   2.587 -0.1860 -0.2933  0.1919
 3503SOL    HW313779   0.267   6.111   2.585  0.9763  0.2442 -1.0164
 3503SOL    MW413780   0.263   6.025   2.570  0.2100  0.1186 -0.1521
 3504SOL     OW13781   2.034   3.726   2.267 -0.3112  0.6267  0.1501
 3504SOL    HW213782   2.029   3.749   2.360 -1.2016  0.2765  0.1945
 3504SOL    HW313783   2.027   3.809   2.220 -0.7320  0.7205  0.3766
 3504SOL    MW413784   2.033   3.740   2.273 -0.4842  0.5929  0.1858
 3505SOL     OW13785   2.759   1.493   2.451 -0.2538 -0.2480  0.4857
 3505SOL    HW213786   2.760   1.411   2.500  1.0119 -0.1779  0.6054
 3505SOL    HW313787   2.821   1.550   2.497 -1.4662  0.9688  0.6989
 3505SOL    MW413788   2.768   1.490   2.464 -0.2468 -0.0782  0.5296
 3506SOL     OW13789   0.046   1.360   2.981 -0.7338 -0.3452 -0.1131
 3506SOL    HW213790   0.014   1.418   2.912 -1.0181  0.0595  0.3436
 3506SOL    HW313791  -0.033   1.315   3.012 -0.4436 -1.3110 -0.7660
 3506SOL    MW413792   0.031   1.362   2.976 -0.7331 -0.4192 -0.1390
 3507SOL     OW13793   4.993   2.673   0.568 -0.1433  0.0309 -0.3010
 3507SOL    HW213794   4.943   2.738   0.619 -1.1039 -1.0350  0.1518
 3507SOL    HW313795   4.936   2.596   0.566  1.5252 -1.2657  0.3072
 3507SOL    MW413796   4.979   2.672   0.575 -0.0499 -0.2808 -0.1610
 3508SOL     OW13797   1.382   2.346   0.935 -0.6935  0.0631 -0.0367
 3508SOL    HW213798   1.430   2.281   0.883  0.1806 -0.3801  1.2978
 3508SOL    HW313799   1.317   2.295   0.983 -1.1144  0.3965 -0.2472
 3508SOL    MW413800   1.380   2.330   0.934 -0.6337  0.0486  0.1116
 3509SOL     OW13801   3.404   5.482   3.739 -0.1232  0.4057 -0.0791
 3509SOL    HW213802   3.406   5.545   3.667 -1.7031 -0.8438 -1.2994
 3509SOL    HW313803   3.496   5.462   3.756  0.3166  1.5413 -1.0277
 3509SOL    MW413804   3.416   5.487   3.732 -0.2736  0.3907 -0.3653
 3510SOL     OW13805   2.483   5.122   4.986 -0.2178 -0.3227  0.5254
 3510SOL    HW213806   2.499   5.216   4.980  0.8469 -0.5123  0.2621
 3510SOL    HW313807   2.565   5.082   4.957 -0.5353 -1.3289  0.9929
 3510SOL    MW413808   2.496   5.129   4.982 -0.1192 -0.4804  0.5523
 3511SOL     OW13809   4.423   6.296   2.265  0.3986 -0.2349 -0.2603
 3511SOL    HW213810   4.506   6.258   2.292  0.4097  0.5049  0.7886
 3511SOL    HW313811   4.385   6.331   2.345 -1.8396 -2.2162 -0.3202
 3511SOL    MW413812   4.429   6.295   2.279  0.1047 -0.3987 -0.1298
 3512SOL     OW13813   0.510   0.944   4.570 -0.2186  0.0361  0.4486
 3512SOL    HW213814   0.538   0.985   4.652 -0.0811 -0.0262  0.4339
 3512SOL    HW313815   0.576   0.877   4.554  0.3298  0.7255 -0.2406
 3512SOL    MW413816   0.523   0.941   4.579 -0.1281  0.1188  0.3557
 3513SOL     OW13817   6.289   4.571   5.140  0.3763 -0.3464 -0.6510
 3513SOL    HW213818   6.365   4.589   5.085  0.4437  1.2092 -0.1044
 3513SOL    HW313819   6.326   4.556   5.227  0.0787  0.3115 -0.4062
 3513SOL    MW413820   6.304   4.571   5.144  0.3460 -0.0543 -0.5466
 3514SOL     OW13821   2.325   3.986   2.021  0.0621  0.0723 -0.3037
 3514SOL    HW213822   2.322   3.976   2.116 -1.7870  1.9477 -0.1016
 3514SOL    HW313823   2.330   4.081   2.006  0.6931 -0.1896 -2.0882
 3514SOL    MW413824   2.325   3.997   2.031 -0.0986  0.2852 -0.5125
 3515SOL     OW13825   2.895   3.475   5.344 -0.3102  0.5226  0.5432
 3515SOL    HW213826   2.932   3.450   5.259 -0.3967  1.7518  0.1234
 3515SOL    HW313827   2.907   3.397   5.399  0.2249 -0.1129 -0.4359
 3515SOL    MW413828   2.902   3.461   5.340 -0.2510  0.6010  0.3586
 3516SOL     OW13829   2.278   0.986   1.546  0.4680 -0.1181  0.1911
 3516SOL    HW213830   2.372   0.994   1.563  0.3821 -0.9529  1.1557
 3516SOL    HW313831   2.268   1.008   1.453  1.7897 -1.3884 -0.2781
 3516SOL    MW413832   2.289   0.990   1.536  0.6311 -0.3959  0.2565
 3517SOL     OW13833   2.672   4.081   5.835 -0.0360  0.5663 -0.8729
 3517SOL    HW213834   2.619   4.158   5.857 -2.0349 -0.9510  0.0566
 3517SOL    HW313835   2.762   4.106   5.855 -0.7980  2.2119  0.7448
 3517SOL    MW413836   2.677   4.094   5.841 -0.4002  0.5832 -0.5368
 3518SOL     OW13837   2.050   2.774   5.200 -0.1550 -0.4393 -0.0662
 3518SOL    HW213838   2.053   2.834   5.274  0.3535 -0.3026 -0.1985
 3518SOL    HW313839   2.024   2.690   5.238  1.2093 -0.6474  0.4420
 3518SOL    MW413840   2.047   2.770   5.215  0.0921 -0.4487 -0.0166
 3519SOL     OW13841   6.358   1.596   3.871 -0.2031 -0.2446 -0.5653
 3519SOL    HW213842   6.381   1.679   3.913 -0.7703 -0.6696  0.6303
 3519SOL    HW313843   6.263   1.599   3.863 -0.1407 -0.3722 -1.4199
 3519SOL    MW413844   6.348   1.607   3.876 -0.2697 -0.3175 -0.5203
 3520SOL     OW13845   2.034   3.112   4.936 -0.0920 -0.1322  0.0361
 3520SOL    HW213846   2.051   3.187   4.879 -1.1111 -1.3002 -1.9299
 3520SOL    HW313847   2.095   3.044   4.907 -1.1604 -1.0083 -0.2438
 3520SOL    MW413848   2.044   3.113   4.924 -0.3674 -0.4019 -0.2602
 3521SOL     OW13849   2.041   5.281   1.077 -0.0671 -0.8317 -0.1511
 3521SOL    HW213850   2.026   5.334   1.155 -1.6291 -0.2518 -0.8072
 3521SOL    HW313851   2.106   5.331   1.027  1.1810 -1.3611  0.8820
 3521SOL    MW413852   2.048   5.295   1.081 -0.1085 -0.8251 -0.1013
 3522SOL     OW13853   1.805   1.869   3.614  0.4637 -0.0709  0.2029
 3522SOL    HW213854   1.864   1.935   3.577 -1.0362  0.9965 -0.4113
 3522SOL    HW313855   1.735   1.921   3.655 -1.6904 -1.2271 -1.8112
 3522SOL    MW413856   1.803   1.885   3.615 -0.0184 -0.0826 -0.1438
 3523SOL     OW13857   3.530   4.477   1.610 -0.6981  0.5868 -0.5793
 3523SOL    HW213858   3.449   4.450   1.568 -1.4542  0.5993  0.8014
 3523SOL    HW313859   3.510   4.561   1.650  0.4036  1.2311 -1.3254
 3523SOL    MW413860   3.517   4.484   1.610 -0.6525  0.6735 -0.4956
 3524SOL     OW13861   2.004   3.700   1.489 -0.4785  0.2033  0.0304
 3524SOL    HW213862   2.092   3.663   1.479  0.0095  1.2084  0.4301
 3524SOL    HW313863   1.962   3.645   1.555 -0.0057 -0.0355  0.1371
 3524SOL    MW413864   2.010   3.688   1.496 -0.3517  0.3044  0.0972
 3525SOL     OW13865   0.384   3.102   6.264  0.2111 -0.1078  0.1395
 3525SOL    HW213866   0.338   3.183   6.241 -0.5360  0.0156  1.8824
 3525SOL    HW313867   0.467   3.106   6.216 -0.2229  1.2271 -0.5373
 3525SOL    MW413868   0.389   3.113   6.255  0.0553  0.0846  0.2802
 3526SOL     OW13869   3.606   2.273   4.113  0.3725  0.4372 -0.4257
 3526SOL    HW213870   3.531   2.241   4.063 -0.6163  1.4171  0.3873
 3526SOL    HW313871   3.676   2.211   4.093 -0.5551 -0.3220 -1.4472
 3526SOL    MW413872   3.606   2.261   4.103  0.1196  0.4663 -0.4532
 3527SOL     OW13873   0.431   1.726   3.285  0.4005 -0.2198  0.2076
 3527SOL    HW213874   0.455   1.643   3.325  0.2749 -1.6432 -2.4357
 3527SOL    HW313875   0.507   1.750   3.232  0.0181  0.8044  0.0978
 3527SOL    MW413876   0.444   1.718   3.283  0.3334 -0.2724 -0.1557
 3528SOL     OW13877   1.173   4.145   2.803 -0.1547  0.6755 -0.2338
 3528SOL    HW213878   1.263   4.118   2.821  0.9989  4.2633  0.1475
 3528SOL    HW313879   1.126   4.129   2.885  0.4044 -0.1054 -0.0551
 3528SOL    MW413880   1.178   4.139   2.816  0.0712  1.0459 -0.1599
 3529SOL     OW13881   1.828   3.442   0.737 -0.7106  0.3851  0.2272
 3529SOL    HW213882   1.780   3.443   0.820 -0.2363 -1.9468  0.5974
 3529SOL    HW313883   1.837   3.349   0.715  0.5121  0.8867 -1.6641
 3529SOL    MW413884   1.823   3.430   0.745 -0.4867  0.1436  0.0265
 3530SOL     OW13885   3.117   5.718   5.019 -0.6113 -0.0822 -0.6603
 3530SOL    HW213886   3.062   5.680   4.950 -0.9504 -0.2922 -0.2771
 3530SOL    HW313887   3.091   5.811   5.021 -1.5728 -0.3497  0.0885
 3530SOL    MW413888   3.106   5.725   5.010 -0.7829 -0.1452 -0.5109
 3531SOL     OW13889   4.370   1.669   1.429  0.6866  0.3672  0.9271
 3531SOL    HW213890   4.305   1.732   1.463  1.7809 -0.0480  4.1302
 3531SOL    HW313891   4.441   1.672   1.493  2.9330 -0.7272 -1.3668
 3531SOL    MW413892   4.371   1.678   1.442  1.1273  0.1680  1.0471
 3532SOL     OW13893   6.374   6.178   4.386  0.3706  0.4680 -0.2504
 3532SOL    HW213894   6.367   6.131   4.469 -1.5843 -0.4096 -0.8427
 3532SOL    HW313895   6.402   6.266   4.410  0.9851 -0.0919  1.2033
 3532SOL    MW413896   6.377   6.183   4.400  0.1938  0.2783 -0.1367
 3533SOL     OW13897   2.479   3.048   2.335  0.1434 -0.0384 -0.0172
 3533SOL    HW213898   2.561   3.008   2.363 -0.1789  0.1707  1.3134
 3533SOL    HW313899   2.476   3.132   2.381 -0.9602 -0.1924  0.2333
 3533SOL    MW413900   2.489   3.054   2.345 -0.0447 -0.0311  0.1914
 3534SOL     OW13901   1.236   3.238   1.647  0.0645  0.2014 -0.2654
 3534SOL    HW213902   1.171   3.300   1.679 -0.3257 -0.6901  0.7366
 3534SOL    HW313903   1.270   3.278   1.567 -1.5601  0.7854 -0.7019
 3534SOL    MW413904   1.232   3.252   1.641 -0.2014  0.1608 -0.1908
 3535SOL     OW13905   0.541   2.613   4.522  0.2960 -0.3118 -0.2797
 3535SOL    HW213906   0.598   2.538   4.541  1.9363  0.8840 -0.2579
 3535SOL    HW313907   0.560   2.676   4.591 -2.1790 -0.4184  0.5809
 3535SOL    MW413908   0.551   2.611   4.534  0.1859 -0.1681 -0.1633
 3536SOL     OW13909   1.439   2.629   2.049 -0.3862 -0.3831  0.0662
 3536SOL    HW213910   1.355   2.676   2.053  0.9961  2.2692  0.3039
 3536SOL    HW313911   1.466   2.638   1.957  0.6124  0.7266  0.4445
 3536SOL    MW413912   1.432   2.636   2.037 -0.0721  0.1132  0.1475
 3537SOL     OW13913   5.371   3.405  -0.025 -0.0226  0.2188  0.4297
 3537SOL    HW213914   5.336   3.478  -0.076 -1.2573  0.4408  1.5341
 3537SOL    HW313915   5.297   3.345  -0.016  0.8207 -0.9312  0.0182
 3537SOL    MW413916   5.357   3.407  -0.031 -0.0742  0.0963  0.5211
 3538SOL     OW13917   3.146   5.668   5.301 -0.2095  0.2332  0.0841
 3538SOL    HW213918   3.149   5.748   5.354  1.8392 -0.2264  0.7590
 3538SOL    HW313919   3.141   5.699   5.211 -2.8586  1.0409  0.4219
 3538SOL    MW413920   3.145   5.682   5.296 -0.2887  0.2792  0.2177
 3539SOL     OW13921   3.993   6.158   3.149  0.1477  0.0238  0.2345
 3539SOL    HW213922   4.025   6.193   3.233 -0.8553  2.1686 -0.2108
 3539SOL    HW313923   3.900   6.144   3.163 -0.7620  3.4624 -1.3334
 3539SOL    MW413924   3.985   6.161   3.162 -0.1046  0.7604 -0.0311
 3540SOL     OW13925   5.079   3.523   6.055  0.1495  0.2416  0.1804
 3540SOL    HW213926   5.024   3.446   6.073  0.5959  0.0311  0.6839
 3540SOL    HW313927   5.016   3.595   6.043 -0.3603 -0.4968 -1.9447
 3540SOL    MW413928   5.063   3.522   6.056  0.1411  0.1164 -0.0336
 3541SOL     OW13929   1.529   4.343   1.400  0.0300 -0.0927  0.2750
 3541SOL    HW213930   1.520   4.249   1.388 -0.8136 -0.0242  0.3107
 3541SOL    HW313931   1.586   4.371   1.329 -2.4786 -0.1249 -1.9206
 3541SOL    MW413932   1.535   4.334   1.389 -0.4123 -0.0879 -0.0100
 3542SOL     OW13933   2.358   2.565   1.626  0.7002 -0.3715  0.8376
 3542SOL    HW213934   2.353   2.484   1.576  0.5081 -0.5246  1.1015
 3542SOL    HW313935   2.397   2.540   1.710 -1.2556 -0.6020  1.7284
 3542SOL    MW413936   2.362   2.551   1.630  0.4168 -0.4221  0.9899
 3543SOL     OW13937   5.357   4.527   5.488 -0.1060  0.0873  0.4353
 3543SOL    HW213938   5.316   4.559   5.568  0.7223  0.7785  0.5933
 3543SOL    HW313939   5.300   4.559   5.417  0.6955  1.9839  0.5803
 3543SOL    MW413940   5.344   4.535   5.489  0.1090  0.4288  0.4753
 3544SOL     OW13941   2.376   1.707   1.485 -0.4006  0.3172  0.3451
 3544SOL    HW213942   2.281   1.720   1.487 -0.4017  0.4575 -0.4377
 3544SOL    HW313943   2.412   1.790   1.517 -0.5268  0.6104 -0.2467
 3544SOL    MW413944   2.368   1.720   1.489 -0.4174  0.3744  0.1637
 3545SOL     OW13945   3.724   0.496   3.805 -0.2772 -0.1166  0.0297
 3545SOL    HW213946   3.655   0.528   3.863 -1.8980  0.0115 -1.8307
 3545SOL    HW313947   3.688   0.415   3.769  1.5082 -1.2251  0.6353
 3545SOL    MW413948   3.710   0.489   3.808 -0.2554 -0.2460 -0.1359
 3546SOL     OW13949   3.593   1.610   5.511  1.1716 -0.1576  0.6274
 3546SOL    HW213950   3.683   1.629   5.485  0.9819  0.1927  0.2224
 3546SOL    HW313951   3.563   1.546   5.446  1.2011 -0.4507  0.8988
 3546SOL    MW413952   3.601   1.604   5.499  1.1505 -0.1501  0.6098
 3547SOL     OW13953   2.605   3.140   5.120 -0.3753  0.5382  0.1335
 3547SOL    HW213954   2.546   3.171   5.052  0.1479  1.0852 -0.0798
 3547SOL    HW313955   2.693   3.161   5.087 -0.1067  0.5976  0.8657
 3547SOL    MW413956   2.609   3.147   5.107 -0.2709  0.6182  0.2019
 3548SOL     OW13957   6.114   2.319   0.032  0.0566  0.3424  0.2988
 3548SOL    HW213958   6.103   2.408   0.066 -1.6970  1.4062 -2.7195
 3548SOL    HW313959   6.032   2.274   0.052  0.4927 -0.2720  0.7797
 3548SOL    MW413960   6.102   2.325   0.039 -0.1172  0.4017 -0.0360
 3549SOL     OW13961   1.371   5.716   3.316  0.0943 -0.3455 -0.5078
 3549SOL    HW213962   1.396   5.624   3.309  1.1410 -0.3077  1.7533
 3549SOL    HW313963   1.378   5.735   3.410  0.7870  2.2728 -1.0257
 3549SOL    MW413964   1.375   5.706   3.328  0.3238  0.0049 -0.2778
 3550SOL     OW13965   0.321   3.725   0.670  0.2329  0.8743 -0.5593
 3550SOL    HW213966   0.237   3.771   0.667 -0.1970  0.0675 -1.5674
 3550SOL    HW313967   0.324   3.688   0.759 -1.1684 -0.2950 -0.9584
 3550SOL    MW413968   0.310   3.726   0.682 -0.0087  0.6136 -0.7450
 3551SOL     OW13969   2.277   3.818   3.135 -0.1146 -0.0192  0.1503
 3551SOL    HW213970   2.192   3.785   3.104  0.7357 -1.7276 -0.4852
 3551SOL    HW313971   2.297   3.890   3.076 -0.6278 -0.3162 -0.4029
 3551SOL    MW413972   2.268   3.823   3.123 -0.0701 -0.2838 -0.0065
 3552SOL     OW13973   2.779   3.004   3.168 -0.0776  0.0079  0.1276
 3552SOL    HW213974   2.740   3.029   3.251  0.3579  1.3255 -0.0293
 3552SOL    HW313975   2.873   3.003   3.185  0.0440  0.7102 -0.4283
 3552SOL    MW413976   2.786   3.007   3.181 -0.0041  0.2744  0.0335
 3553SOL     OW13977   0.108   4.724   2.051 -0.1172  0.4490  0.0176
 3553SOL    HW213978   0.070   4.709   2.137  2.6038  2.4761  1.7529
 3553SOL    HW313979   0.119   4.637   2.014 -0.4198 -0.5887  2.2040
 3553SOL    MW413980   0.105   4.711   2.057  0.2018  0.5795  0.5351
 3554SOL     OW13981   5.054   0.692   4.691 -0.3073  0.2084  0.7673
 3554SOL    HW213982   5.150   0.692   4.684 -0.3202 -0.9197  0.4364
 3554SOL    HW313983   5.037   0.701   4.784  0.0778  2.2719  0.6800
 3554SOL    MW413984   5.064   0.693   4.702 -0.2582  0.3318  0.7121
 3555SOL     OW13985   0.636   5.795   5.649  0.1964 -0.2627 -0.0451
 3555SOL    HW213986   0.632   5.820   5.741  0.6089  1.0642 -0.3802
 3555SOL    HW313987   0.696   5.857   5.609 -1.1714  0.1690 -1.5272
 3555SOL    MW413988   0.643   5.806   5.656  0.0703 -0.0307 -0.2848
 3556SOL     OW13989   1.099   3.025   0.771  0.1398 -0.2684 -0.7758
 3556SOL    HW213990   1.108   3.093   0.838 -0.7563 -0.9801  0.1003
 3556SOL    HW313991   1.037   3.062   0.707 -0.2204 -0.1920 -0.3855
 3556SOL    MW413992   1.092   3.039   0.771 -0.0259 -0.3522 -0.6087
 3557SOL     OW13993   6.027   0.539   2.273 -0.1293 -0.2072  0.0998
 3557SOL    HW213994   5.937   0.551   2.244 -0.4450  0.3536  1.2378
 3557SOL    HW313995   6.077   0.606   2.226 -0.4939  0.1901  0.2728
 3557SOL    MW413996   6.022   0.550   2.263 -0.2190 -0.0808  0.2728
 3558SOL     OW13997   0.441   0.517   0.459 -0.4469 -0.5284  0.5632
 3558SOL    HW213998   0.526   0.491   0.494 -0.4359 -0.1125  0.8554
 3558SOL    HW313999   0.392   0.435   0.450  0.3578 -0.9039 -0.6335
 3558SOL    MW414000   0.446   0.503   0.462 -0.3393 -0.5231  0.4439
 3559SOL     OW14001   2.846   4.823   4.463 -0.2063  0.0433  0.6783
 3559SOL    HW214002   2.902   4.898   4.482 -0.2580  0.6321 -1.2757
 3559SOL    HW314003   2.757   4.853   4.482 -0.1366  0.1172  0.8878
 3559SOL    MW414004   2.841   4.837   4.468 -0.2039  0.1307  0.4481
 3560SOL     OW14005   1.832   1.840   3.103 -0.8424 -0.2874 -0.3440
 3560SOL    HW214006   1.749   1.861   3.061 -0.4090  2.0110 -0.1990
 3560SOL    HW314007   1.821   1.869   3.194  0.4356  1.1096 -0.5934
 3560SOL    MW414008   1.820   1.847   3.110 -0.6166  0.2002 -0.3578
 3561SOL     OW14009   6.010   5.459   2.655 -0.5323 -0.6345 -1.1808
 3561SOL    HW214010   6.003   5.366   2.674  1.6140 -0.5915  0.1903
 3561SOL    HW314011   6.096   5.468   2.613 -0.3005  0.8084 -0.4569
 3561SOL    MW414012   6.021   5.448   2.652 -0.2185 -0.4385 -0.9044
 3562SOL     OW14013   0.054   1.943   1.108 -0.3772 -0.8065  0.1786
 3562SOL    HW214014   0.037   1.864   1.058  0.7699 -1.9250  1.4801
 3562SOL    HW314015   0.142   1.970   1.082 -1.1463  0.7304 -1.0631
 3562SOL    MW414016   0.063   1.936   1.098 -0.3274 -0.7513  0.1865
 3563SOL     OW14017   0.355   0.209   4.592 -0.1049 -0.2947 -0.2491
 3563SOL    HW214018   0.374   0.243   4.679  0.9966 -1.7610  0.1204
 3563SOL    HW314019   0.300   0.132   4.607  1.0723 -1.2587 -0.7548
 3563SOL    MW414020   0.350   0.203   4.605  0.1958 -0.6153 -0.2671
 3564SOL     OW14021   6.323   1.950   0.481 -0.3554  0.2006 -0.2950
 3564SOL    HW214022   6.281   1.873   0.521 -1.4551  1.9522  2.2285
 3564SOL    HW314023   6.255   1.989   0.426 -0.6681  0.7123  0.4351
 3564SOL    MW414024   6.308   1.945   0.479 -0.5418  0.4992  0.1343
 3565SOL     OW14025   2.852   1.179   4.337 -0.6259 -0.1285 -0.3283
 3565SOL    HW214026   2.811   1.112   4.392  0.4402  0.0061  0.6679
 3565SOL    HW314027   2.835   1.149   4.247 -0.7555 -1.3712  0.0870
 3565SOL    MW414028   2.844   1.166   4.332 -0.5023 -0.2747 -0.1421
 3566SOL     OW14029   0.910   6.414   3.863  0.0908 -0.4606 -0.4587
 3566SOL    HW214030   0.999   6.399   3.832 -0.4694 -1.3899 -1.6985
 3566SOL    HW314031   0.920   6.468   3.941  1.6695  0.4244 -1.2405
 3566SOL    MW414032   0.923   6.419   3.869  0.2251 -0.4665 -0.7254
 3567SOL     OW14033   0.471   0.282   3.107 -0.1008 -0.3292  0.1254
 3567SOL    HW214034   0.518   0.240   3.179  1.5452  0.9571 -0.1131
 3567SOL    HW314035   0.419   0.351   3.148 -0.4674 -0.6772  0.2415
 3567SOL    MW414036   0.471   0.286   3.122  0.0680 -0.2054  0.1092
 3568SOL     OW14037   3.075   4.977   4.131  0.4771 -0.0598  0.2512
 3568SOL    HW214038   3.011   4.910   4.157  2.7143 -2.1753  0.7296
 3568SOL    HW314039   3.075   5.039   4.203 -0.5900 -0.3656  0.5307
 3568SOL    MW414040   3.067   4.976   4.144  0.6315 -0.3792  0.3512
 3569SOL     OW14041   6.161   1.911   2.067  0.0264 -0.1533 -0.0218
 3569SOL    HW214042   6.190   1.877   2.151 -2.0366  0.1822  0.8712
 3569SOL    HW314043   6.153   2.006   2.081  2.3568  0.3407 -1.4649
 3569SOL    MW414044   6.164   1.919   2.080  0.0617 -0.0439 -0.0944
 3570SOL     OW14045   4.431   0.033   0.567 -0.5083 -0.0979 -0.8431
 3570SOL    HW214046   4.474   0.030   0.653 -0.0914  0.9210 -1.0072
 3570SOL    HW314047   4.378   0.113   0.569  1.9088  1.6993 -2.6083
 3570SOL    MW414048   4.430   0.043   0.578 -0.1344  0.2736 -1.0976
 3571SOL     OW14049   2.519   4.218   4.098  0.4808  0.3060 -0.4579
 3571SOL    HW214050   2.591   4.222   4.161 -1.5143 -0.0973  2.0308
 3571SOL    HW314051   2.515   4.306   4.061  2.4759  0.2206 -0.9957
 3571SOL    MW414052   2.528   4.230   4.101  0.4808  0.2416 -0.2005
 3572SOL     OW14053   3.866   2.695   0.613 -0.0254 -0.3274 -0.6291
 3572SOL    HW214054   3.954   2.695   0.650 -0.9438  2.7708  1.9886
 3572SOL    HW314055   3.858   2.779   0.568 -1.4890 -0.7817 -1.3045
 3572SOL    MW414056   3.877   2.706   0.612 -0.3397  0.0214 -0.3728
 3573SOL     OW14057   1.989   1.693   0.818 -0.1111 -0.2691 -0.3505
 3573SOL    HW214058   1.928   1.697   0.745  0.4508 -0.7232 -0.8492
 3573SOL    HW314059   1.951   1.628   0.877 -0.0694 -0.6054 -0.6936
 3573SOL    MW414060   1.976   1.685   0.816 -0.0315 -0.3734 -0.4616
 3574SOL     OW14061   4.931   5.422   3.025  0.0696 -0.7665  0.4177
 3574SOL    HW214062   4.944   5.486   3.094 -1.3223 -1.5737  1.4833
 3574SOL    HW314063   4.937   5.472   2.944  1.6815  0.2144  1.0946
 3574SOL    MW414064   4.933   5.437   3.024  0.0987 -0.7436  0.6476
 3575SOL     OW14065   4.943   3.835   2.709 -0.2934  0.2183  0.3122
 3575SOL    HW214066   4.883   3.849   2.782 -0.2903  3.7530 -0.1679
 3575SOL    HW314067   5.027   3.867   2.740  0.3698 -0.7661 -0.3984
 3575SOL    MW414068   4.946   3.841   2.722 -0.2055  0.5548  0.1551
 3576SOL     OW14069   3.964   1.835   6.239  0.2026 -0.3690  0.3491
 3576SOL    HW214070   4.004   1.912   6.200 -0.2700 -0.8173 -1.0652
 3576SOL    HW314071   3.884   1.867   6.281 -1.4182 -0.4106 -2.5002
 3576SOL    MW414072   3.959   1.849   6.240 -0.0736 -0.4336 -0.2134
 3577SOL     OW14073   1.224   0.355   3.368  0.4856  0.1490 -0.6620
 3577SOL    HW214074   1.244   0.319   3.282 -1.8512  1.7918 -1.9758
 3577SOL    HW314075   1.238   0.281   3.428  0.1109 -1.6710 -2.6974
 3577SOL    MW414076   1.228   0.340   3.365  0.1279  0.1256 -1.1039
 3578SOL     OW14077   2.618   0.305   0.982 -0.6395 -0.5034 -0.3335
 3578SOL    HW214078   2.549   0.364   0.950 -1.4073 -0.3976  1.4498
 3578SOL    HW314079   2.689   0.317   0.919 -1.5402  0.7954 -1.1676
 3578SOL    MW414080   2.618   0.314   0.969 -0.8596 -0.3181 -0.2082
 3579SOL     OW14081   0.479   6.190   2.711  0.7632  0.2956 -0.2250
 3579SOL    HW214082   0.466   6.116   2.770  2.2980 -0.1177 -0.3552
 3579SOL    HW314083   0.482   6.267   2.768 -1.1497  0.3217 -0.1184
 3579SOL    MW414084   0.478   6.191   2.726  0.7133  0.2445 -0.2281
 3580SOL     OW14085   4.066   4.911   6.206  0.1279  0.6677  0.2587
 3580SOL    HW214086   4.152   4.920   6.164  0.9268  1.3968  1.9256
 3580SOL    HW314087   4.072   4.829   6.255  0.5355  1.5345  1.7227
 3580SOL    MW414088   4.078   4.902   6.207  0.2870  0.8782  0.6718
 3581SOL     OW14089   0.489   6.002   3.302 -0.1803  0.5087  0.4524
 3581SOL    HW214090   0.541   5.974   3.226  1.7489  0.7552  1.6118
 3581SOL    HW314091   0.398   5.986   3.276  0.4145  0.5993 -1.8991
 3581SOL    MW414092   0.484   5.996   3.288  0.1527  0.5532  0.2951
 3582SOL     OW14093   3.016   2.007   5.857 -0.0986  0.0564  0.1281
 3582SOL    HW214094   3.085   2.055   5.811  0.5554  2.7574  3.5029
 3582SOL    HW314095   2.934   2.039   5.820  0.3778  0.0511 -0.9665
 3582SOL    MW414096   3.014   2.017   5.846  0.0506  0.4120  0.4289
 3583SOL     OW14097   4.696   1.206   5.949 -0.2652 -0.3076  0.0015
 3583SOL    HW214098   4.679   1.301   5.950 -1.8091 -0.5736  0.3488
 3583SOL    HW314099   4.789   1.199   5.972 -0.5331  1.0506  1.7033
 3583SOL    MW414100   4.706   1.218   5.952 -0.5042 -0.1635  0.2718
 3584SOL     OW14101   4.485   2.735   4.421  0.0026 -0.3641 -0.1599
 3584SOL    HW214102   4.544   2.799   4.460  0.4267 -1.5259  1.1699
 3584SOL    HW314103   4.407   2.738   4.476 -0.2184 -0.5516 -0.4616
 3584SOL    MW414104   4.483   2.744   4.434  0.0294 -0.5421 -0.0242
 3585SOL     OW14105   5.002   2.324   2.343  0.2857 -0.3088 -1.1180
 3585SOL    HW214106   5.029   2.232   2.341 -2.0561 -1.2337  2.0182
 3585SOL    HW314107   5.072   2.368   2.391 -0.0067 -1.1056  0.0763
 3585SOL    MW414108   5.015   2.318   2.349 -0.0618 -0.5360 -0.5466
 3586SOL     OW14109   2.800   2.949   2.667 -0.0865 -0.4051  0.3764
 3586SOL    HW214110   2.828   3.038   2.688 -0.9682 -0.0006 -0.0948
 3586SOL    HW314111   2.706   2.949   2.684  0.1235 -1.6558  1.7110
 3586SOL    MW414112   2.791   2.961   2.672 -0.1752 -0.5167  0.4903
 3587SOL     OW14113   6.357   3.100   1.559  0.4163  0.0428  0.2925
 3587SOL    HW214114   6.435   3.051   1.534 -0.3905 -1.5807  0.8067
 3587SOL    HW314115   6.297   3.089   1.486 -0.4687 -1.3776  1.1890
 3587SOL    MW414116   6.359   3.092   1.546  0.1931 -0.3588  0.4786
 3588SOL     OW14117   2.492   0.776   5.396 -0.4322  0.2546  0.1589
 3588SOL    HW214118   2.531   0.815   5.474 -1.4064 -0.5406  1.0649
 3588SOL    HW314119   2.508   0.682   5.405  2.7358  0.3446 -2.4570
 3588SOL    MW414120   2.499   0.769   5.408 -0.1427  0.1615 -0.0667
 3589SOL     OW14121   5.499   2.800   2.147 -0.7009  0.1450  0.2098
 3589SOL    HW214122   5.576   2.746   2.132 -1.1731 -0.7111  0.8105
 3589SOL    HW314123   5.455   2.760   2.222 -0.7606  1.6945  1.0560
 3589SOL    MW414124   5.504   2.788   2.155 -0.7711  0.2365  0.4007
 3590SOL     OW14125   3.076   3.910   4.240  0.1216 -0.6243  0.3583
 3590SOL    HW214126   2.986   3.930   4.215  1.0850  1.4485 -1.8859
 3590SOL    HW314127   3.092   3.962   4.318 -0.4083 -0.3848  0.3104
 3590SOL    MW414128   3.066   3.920   4.247  0.1788 -0.3192  0.0559
 3591SOL     OW14129   2.085   4.266   1.006  0.2448 -0.8084 -0.0123
 3591SOL    HW214130   2.008   4.252   0.951 -1.0346 -2.0763  2.0025
 3591SOL    HW314131   2.158   4.237   0.950 -0.7142  0.0431 -1.8126
 3591SOL    MW414132   2.085   4.260   0.991 -0.0505 -0.8634  0.0160
 3592SOL     OW14133   1.708   4.695   0.785  0.4894  0.0237 -0.0460
 3592SOL    HW214134   1.730   4.740   0.866  2.0624  0.6012 -0.7534
 3592SOL    HW314135   1.759   4.740   0.718 -1.3063  0.0282 -1.4977
 3592SOL    MW414136   1.718   4.707   0.787  0.4600  0.1005 -0.3309
 3593SOL     OW14137   0.535   1.525   3.892  0.1205 -0.5404  0.2086
 3593SOL    HW214138   0.554   1.505   3.800 -0.3878  0.9217 -0.2393
 3593SOL    HW314139   0.567   1.614   3.904 -1.5452  0.0054  0.9082
 3593SOL    MW414140   0.542   1.534   3.882 -0.1663 -0.2755  0.2418
 3594SOL     OW14141   3.623   4.311   4.736 -0.4826  0.3056  0.1560
 3594SOL    HW214142   3.568   4.361   4.797  0.8043  1.0247  0.7561
 3594SOL    HW314143   3.712   4.341   4.753  0.3682 -2.1690  0.5056
 3594SOL    MW414144   3.627   4.322   4.747 -0.2005  0.0740  0.2813
 3595SOL     OW14145   0.211   1.951   3.701  0.3219  0.8086  0.2160
 3595SOL    HW214146   0.156   1.872   3.697 -1.2319  1.8549  0.0906
 3595SOL    HW314147   0.265   1.938   3.779  0.4941 -0.6257 -0.1217
 3595SOL    MW414148   0.211   1.939   3.711  0.1396  0.7574  0.1549
 3596SOL     OW14149   5.597   0.965   3.314 -0.0674  0.2738 -0.0531
 3596SOL    HW214150   5.596   0.965   3.218  0.4872  2.0475 -0.0955
 3596SOL    HW314151   5.653   1.040   3.337  0.0598 -0.3178  1.6565
 3596SOL    MW414152   5.604   0.975   3.304  0.0225  0.4297  0.1669
 3597SOL     OW14153   5.034   0.516   5.730  0.1707 -0.1270 -0.1967
 3597SOL    HW214154   5.038   0.421   5.723  1.0639 -0.1660  0.6472
 3597SOL    HW314155   4.961   0.533   5.789 -0.2159 -0.2705 -0.6330
 3597SOL    MW414156   5.025   0.506   5.737  0.2375 -0.1511 -0.1429
 3598SOL     OW14157   4.611   3.908   2.364  0.0894  1.0759  0.1912
 3598SOL    HW214158   4.562   3.880   2.441 -0.1244  1.8957  0.3574
 3598SOL    HW314159   4.698   3.932   2.398  1.1571 -1.6678 -0.2696
 3598SOL    MW414160   4.616   3.907   2.379  0.2020  0.8221  0.1524
 3599SOL     OW14161   0.464   0.119   6.254 -0.0475  0.1375  0.1689
 3599SOL    HW214162   0.489   0.176   6.328 -0.1119 -0.0922  0.3692
 3599SOL    HW314163   0.383   0.157   6.221  0.1969  0.4799 -0.0418
 3599SOL    MW414164   0.457   0.132   6.260 -0.0237  0.1524  0.1675
 3600SOL     OW14165   0.599   2.175   4.125  0.2471 -0.4387 -0.6272
 3600SOL    HW214166   0.647   2.100   4.090  1.0505  0.6679 -1.9889
 3600SOL    HW314167   0.603   2.163   4.220  0.7504 -1.8695 -0.8022
 3600SOL    MW414168   0.606   2.163   4.133  0.4195 -0.4815 -0.8299
 3601SOL     OW14169   5.749   6.274   1.455  0.0108  0.3364  0.1920
 3601SOL    HW214170   5.711   6.328   1.386 -0.7722  1.5617  1.4991
 3601SOL    HW314171   5.806   6.213   1.410 -1.9554 -0.2240 -1.7050
 3601SOL    MW414172   5.752   6.273   1.440 -0.3520  0.4241  0.1142
 3602SOL     OW14173   1.184   0.686   1.880 -0.5230 -0.0967 -0.1723
 3602SOL    HW214174   1.222   0.732   1.805 -0.6976 -0.0593 -0.2377
 3602SOL    HW314175   1.227   0.600   1.879  0.5730  0.4223  0.5695
 3602SOL    MW414176   1.195   0.681   1.870 -0.4015 -0.0233 -0.0830
 3603SOL     OW14177   3.751   5.851   3.508 -0.1556 -0.3407  0.8409
 3603SOL    HW214178   3.843   5.852   3.483 -0.5604  1.9065 -0.9197
 3603SOL    HW314179   3.721   5.762   3.488  0.8246 -0.1163 -2.0378
 3603SOL    MW414180   3.759   5.839   3.502 -0.0797 -0.0146  0.2288
 3604SOL     OW14181   3.945   6.087   2.234 -0.1330  0.3607  0.4713
 3604SOL    HW214182   4.016   6.142   2.200  0.7113 -0.4331  0.9133
 3604SOL    HW314183   3.931   6.120   2.323 -0.2137  0.4136  0.4392
 3604SOL    MW414184   3.953   6.099   2.241 -0.0323  0.2629  0.5254
 3605SOL     OW14185   2.157   1.967   1.465 -0.0928  0.5052 -0.2251
 3605SOL    HW214186   2.167   2.003   1.553 -0.4763 -0.6536  0.3096
 3605SOL    HW314187   2.210   2.024   1.409  1.7497  0.1037  1.0347
 3605SOL    MW414188   2.165   1.979   1.469  0.0997  0.2993  0.0117
 3606SOL     OW14189   5.747   0.344   3.543  0.2444  0.0305  0.1966
 3606SOL    HW214190   5.751   0.356   3.448  0.8709 -0.6408  0.1333
 3606SOL    HW314191   5.661   0.378   3.567  0.7323  1.8068 -0.3787
 3606SOL    MW414192   5.737   0.350   3.533  0.3914  0.1763  0.1124
 3607SOL     OW14193   1.533   5.718   6.198 -0.0858  0.3848 -0.2272
 3607SOL    HW214194   1.591   5.658   6.244 -0.5058 -0.6443 -0.9938
 3607SOL    HW314195   1.510   5.671   6.118 -0.5565  1.5138 -0.7647
 3607SOL    MW414196   1.538   5.704   6.194 -0.2034  0.3979 -0.3992
 3608SOL     OW14197   0.373   3.839   2.667  0.3788  0.5035 -0.1789
 3608SOL    HW214198   0.409   3.757   2.701 -0.4485  0.5143  0.7903
 3608SOL    HW314199   0.438   3.906   2.691  1.6302  0.0143 -2.0056
 3608SOL    MW414200   0.386   3.837   2.675  0.4347  0.4404 -0.2920
 3609SOL     OW14201   5.618   1.844   4.251  0.1602 -0.0653 -0.1267
 3609SOL    HW214202   5.542   1.789   4.233  1.1911 -1.1755 -1.2977
 3609SOL    HW314203   5.617   1.909   4.180  0.8825 -0.7510 -0.7843
 3609SOL    MW414204   5.608   1.846   4.239  0.3915 -0.3023 -0.3679
 3610SOL     OW14205   0.399   0.163   5.344 -0.8217  0.3321 -0.0708
 3610SOL    HW214206   0.406   0.215   5.424 -2.7108 -0.3941  0.6234
 3610SOL    HW314207   0.477   0.108   5.344 -1.0524 -0.0463  1.5821
 3610SOL    MW414208   0.411   0.163   5.354 -1.1014  0.1863  0.2389
 3611SOL     OW14209   2.012   6.034   5.056 -0.5274 -0.3261  0.0138
 3611SOL    HW214210   1.996   5.944   5.027 -1.7613  0.4595 -1.9575
 3611SOL    HW314211   2.015   6.085   4.975 -1.5420  1.6504  1.1509
 3611SOL    MW414212   2.010   6.029   5.041 -0.8241  0.0383 -0.0963
 3612SOL     OW14213   3.529   4.005   5.229  0.6054 -0.6282  0.4544
 3612SOL    HW214214   3.620   4.031   5.213  0.4866  0.2394  1.1114
 3612SOL    HW314215   3.481   4.037   5.152  0.5585  0.6195  0.9827
 3612SOL    MW414216   3.535   4.013   5.217  0.5836 -0.3491  0.6108
 3613SOL     OW14217   3.309   4.828   0.781  0.2996 -0.1208 -0.1106
 3613SOL    HW214218   3.281   4.912   0.746 -2.6526 -0.8442  0.2407
 3613SOL    HW314219   3.324   4.773   0.703  2.2197  0.6439 -0.3379
 3613SOL    MW414220   3.307   4.832   0.766  0.1634 -0.1153 -0.0942
 3614SOL     OW14221   5.393   3.662   5.892  0.1760 -0.4024  0.1885
 3614SOL    HW214222   5.476   3.614   5.903  0.7046 -0.1853 -2.3209
 3614SOL    HW314223   5.338   3.603   5.840 -0.0413  0.7345 -0.9057
 3614SOL    MW414224   5.397   3.648   5.887  0.2171 -0.2238 -0.2870
 3615SOL     OW14225   3.257   2.772   0.421 -0.2149  0.4275 -0.0228
 3615SOL    HW214226   3.267   2.794   0.514  0.0177  0.6623 -0.1040
 3615SOL    HW314227   3.330   2.816   0.378 -0.0270 -0.0961 -0.2532
 3615SOL    MW414228   3.268   2.780   0.428 -0.1594  0.3894 -0.0639
 3616SOL     OW14229   0.243   4.689   0.021  0.1800  0.5313 -0.4441
 3616SOL    HW214230   0.196   4.751   0.078  1.3138 -0.3162  1.5066
 3616SOL    HW314231   0.180   4.667  -0.048 -0.9784  2.1961  0.0258
 3616SOL    MW414232   0.228   4.694   0.019  0.1768  0.6391 -0.1247
 3617SOL     OW14233   6.120   2.294   0.698 -0.5788  0.1646  0.4782
 3617SOL    HW214234   6.178   2.369   0.713 -0.9858  0.8577 -1.2013
 3617SOL    HW314235   6.128   2.274   0.605 -0.2522 -2.1186  0.9363
 3617SOL    MW414236   6.128   2.301   0.688 -0.5894 -0.0452  0.3171
 3618SOL     OW14237   4.496   5.434   1.379 -0.0515 -0.1931 -0.3191
 3618SOL    HW214238   4.477   5.502   1.314  1.0402 -0.1557 -0.6090
 3618SOL    HW314239   4.455   5.355   1.342  0.5538 -0.1727 -1.0597
 3618SOL    MW414240   4.488   5.432   1.365  0.1724 -0.1855 -0.4551
 3619SOL     OW14241   1.114   2.061  -0.035  0.3669  0.2908 -0.1158
 3619SOL    HW214242   1.175   2.077  -0.107  0.3195 -0.8507 -0.4337
 3619SOL    HW314243   1.029   2.086  -0.070 -0.2774 -3.6516 -1.8807
 3619SOL    MW414244   1.111   2.066  -0.049  0.2757 -0.3800 -0.3906
 3620SOL     OW14245   1.159   4.612   6.252 -0.9090 -0.5349 -1.0108
 3620SOL    HW214246   1.175   4.706   6.264 -0.7768 -0.7124  0.4296
 3620SOL    HW314247   1.070   4.608   6.216 -0.8188  0.1579 -1.3310
 3620SOL    MW414248   1.149   4.624   6.249 -0.8796 -0.4669 -0.8630
 3621SOL     OW14249   0.438   4.557   1.989  0.2031 -0.1769  0.6726
 3621SOL    HW214250   0.392   4.538   2.071  1.1972  0.3016  1.3563
 3621SOL    HW314251   0.524   4.517   2.000 -0.0707 -1.2251 -0.6652
 3621SOL    MW414252   0.443   4.549   2.001  0.2981 -0.2520  0.5863
 3622SOL     OW14253   5.963   5.081   6.004  0.4886  0.2191  0.4425
 3622SOL    HW214254   5.887   5.131   5.976 -0.0096  0.5066  2.2385
 3622SOL    HW314255   6.038   5.137   5.982 -0.0227  1.4538  1.7289
 3622SOL    MW414256   5.963   5.095   5.997  0.3554  0.4199  0.8492
 3623SOL     OW14257   1.111   0.471   0.356  0.1315 -0.5488  0.1889
 3623SOL    HW214258   1.084   0.561   0.378 -1.4857 -0.7827 -0.7083
 3623SOL    HW314259   1.104   0.467   0.261  0.2243 -1.6212  0.2245
 3623SOL    MW414260   1.106   0.482   0.347 -0.0696 -0.7211  0.0752
 3624SOL     OW14261   0.844   4.954   1.179 -0.0628 -0.0554  0.1862
 3624SOL    HW214262   0.873   5.006   1.104  1.7636 -1.1517  0.0669
 3624SOL    HW314263   0.867   4.864   1.156  4.6970 -0.1377  3.6346
 3624SOL    MW414264   0.851   4.949   1.166  0.8061 -0.2109  0.6255
 3625SOL     OW14265   0.265   2.868   3.961 -0.2867 -0.1094  0.0176
 3625SOL    HW214266   0.351   2.903   3.938 -0.7687  0.2757 -1.2449
 3625SOL    HW314267   0.208   2.945   3.966 -1.1777 -0.5861 -1.9711
 3625SOL    MW414268   0.269   2.883   3.959 -0.4679 -0.1215 -0.4114
 3626SOL     OW14269   4.834   1.479   0.945  0.2046 -0.4655 -0.0222
 3626SOL    HW214270   4.814   1.393   0.908 -0.6894 -0.4575  0.4005
 3626SOL    HW314271   4.749   1.512   0.975  0.4611  0.7754 -0.6161
 3626SOL    MW414272   4.820   1.472   0.944  0.1205 -0.3007 -0.0448
 3627SOL     OW14273   4.082   0.910   6.267 -0.3376  0.1155  0.0584
 3627SOL    HW214274   4.140   0.986   6.272 -0.8349  0.5582 -0.6994
 3627SOL    HW314275   4.059   0.891   6.358  1.7986 -0.7216  0.4851
 3627SOL    MW414276   4.086   0.917   6.280 -0.1214  0.0635  0.0147
 3628SOL     OW14277   3.088   0.859   0.656 -0.2769 -0.3972 -0.0204
 3628SOL    HW214278   3.037   0.902   0.587  0.5003  1.3067  0.4177
 3628SOL    HW314279   3.156   0.811   0.609 -1.3423 -1.4558 -0.5332
 3628SOL    MW414280   3.090   0.858   0.640 -0.3149 -0.3121 -0.0303
 3629SOL     OW14281   0.547   3.503   1.520  0.2132  0.1993  0.4442
 3629SOL    HW214282   0.561   3.535   1.609  2.1492 -1.0322  0.6345
 3629SOL    HW314283   0.558   3.408   1.526 -1.0773 -0.0788 -0.8686
 3629SOL    MW414284   0.550   3.495   1.532  0.2984  0.0001  0.2961
 3630SOL     OW14285   3.663   4.463   3.067 -0.1071 -0.6032  0.7716
 3630SOL    HW214286   3.738   4.481   3.011 -0.0473  0.1922  1.0953
 3630SOL    HW314287   3.589   4.503   3.021  0.1564  1.2842  1.8946
 3630SOL    MW414288   3.663   4.471   3.054 -0.0644 -0.2492  0.9624
 3631SOL     OW14289   4.297   5.811   2.633  0.4966  0.6483 -0.4056
 3631SOL    HW214290   4.345   5.849   2.559 -1.6286  0.4172 -2.0194
 3631SOL    HW314291   4.295   5.717   2.614 -0.1646  0.6032 -0.1246
 3631SOL    MW414292   4.303   5.804   2.621  0.1289  0.6119 -0.5815
 3632SOL     OW14293   2.237   2.218   0.801 -0.3163  0.2726  0.2342
 3632SOL    HW214294   2.301   2.287   0.816  0.6622  0.0293 -2.3046
 3632SOL    HW314295   2.220   2.182   0.888  4.4386 -0.8917  0.9848
 3632SOL    MW414296   2.243   2.222   0.815  0.4402  0.0869 -0.0017
 3633SOL     OW14297   1.898   0.285   2.548 -0.0237 -0.0876  0.3077
 3633SOL    HW214298   1.918   0.326   2.464  1.4265  0.1478  0.7301
 3633SOL    HW314299   1.855   0.354   2.599 -1.2212 -0.3338 -0.3290
 3633SOL    MW414300   1.895   0.300   2.544  0.0097 -0.0891  0.2794
 3634SOL     OW14301   3.261   0.750   5.615  0.0040 -0.3097 -0.4291
 3634SOL    HW214302   3.353   0.729   5.629  0.3874  1.8563  0.7706
 3634SOL    HW314303   3.213   0.675   5.650  1.2788 -0.9666 -0.0374
 3634SOL    MW414304   3.267   0.738   5.621  0.2228 -0.1106 -0.2191
 3635SOL     OW14305   1.844   4.711   2.287  0.2155  0.2521  0.0299
 3635SOL    HW214306   1.828   4.755   2.203 -1.3284 -0.5825 -0.1504
 3635SOL    HW314307   1.757   4.687   2.318  0.8403 -0.2888  1.4243
 3635SOL    MW414308   1.830   4.714   2.280  0.0942  0.0706  0.1901
 3636SOL     OW14309   3.081   0.334   5.303  0.2691 -0.5813 -0.0103
 3636SOL    HW214310   3.070   0.323   5.209 -1.9308  3.5110 -0.4692
 3636SOL    HW314311   3.126   0.418   5.313 -1.1290 -0.0155  2.5289
 3636SOL    MW414312   3.085   0.344   5.292 -0.2056  0.0333  0.2642
 3637SOL     OW14313   4.055   5.328   4.524  0.1716 -0.5000  0.4984
 3637SOL    HW214314   4.094   5.354   4.441 -0.5076 -0.6958  0.1158
 3637SOL    HW314315   4.130   5.319   4.583  0.5625  0.8861  0.2687
 3637SOL    MW414316   4.070   5.330   4.521  0.1336 -0.3430  0.4176
 3638SOL     OW14317   5.220   6.413   5.756 -0.2906 -0.3419  0.0467
 3638SOL    HW214318   5.171   6.494   5.764 -0.4844 -0.4952  0.4645
 3638SOL    HW314319   5.258   6.416   5.669  1.4580  1.1949  0.7829
 3638SOL    MW414320   5.219   6.424   5.746 -0.0854 -0.1594  0.1989
 3639SOL     OW14321   5.221   3.781   3.811  0.4105 -0.0302 -0.0151
 3639SOL    HW214322   5.135   3.823   3.815 -0.2037 -1.1895 -0.6451
 3639SOL    HW314323   5.257   3.809   3.727  0.9531  0.9743  0.5260
 3639SOL    MW414324   5.214   3.790   3.800  0.4010 -0.0506 -0.0269
 3640SOL     OW14325   0.115   2.386   2.150 -0.1001  0.4924 -0.4099
 3640SOL    HW214326   0.097   2.474   2.117 -3.1655  0.2562  0.3479
 3640SOL    HW314327   0.092   2.328   2.078 -0.2545  0.2368 -0.1557
 3640SOL    MW414328   0.110   2.390   2.136 -0.5249  0.4275 -0.2764
 3641SOL     OW14329   1.241   2.269   0.606 -0.0188  0.1852 -0.0694
 3641SOL    HW214330   1.262   2.306   0.520 -1.4196 -0.6623 -0.8035
 3641SOL    HW314331   1.267   2.177   0.600  1.2413  0.4448  0.9393
 3641SOL    MW414332   1.247   2.262   0.594 -0.0374  0.1077 -0.0332
 3642SOL     OW14333   1.504   2.255   3.589  0.1705  0.1728 -0.2672
 3642SOL    HW214334   1.458   2.206   3.521 -0.5206  0.8651 -0.3159
 3642SOL    HW314335   1.436   2.311   3.628  0.5542 -0.2080  0.9881
 3642SOL    MW414336   1.489   2.256   3.586  0.1299  0.2139 -0.1080
 3643SOL     OW14337   4.735   5.473   5.218  0.2957 -0.3325 -0.1383
 3643SOL    HW214338   4.724   5.381   5.197 -0.8172 -0.4041  0.6855
 3643SOL    HW314339   4.664   5.517   5.171  0.2669 -0.0025  0.2137
 3643SOL    MW414340   4.724   5.467   5.209  0.1450 -0.2984  0.0168
 3644SOL     OW14341   5.031   2.315   0.682 -0.1024 -0.6781  0.1382
 3644SOL    HW214342   5.113   2.361   0.661  0.1904 -0.2630  2.0449
 3644SOL    HW314343   4.962   2.375   0.654  0.2526 -0.3695 -0.0872
 3644SOL    MW414344   5.033   2.329   0.675 -0.0169 -0.5826  0.3600
 3645SOL     OW14345   3.805   2.330   5.986  0.1752 -0.0512 -0.1670
 3645SOL    HW214346   3.733   2.393   5.973 -0.0891 -0.7403 -2.4127
 3645SOL    HW314347   3.784   2.257   5.928  2.0143 -0.8994  0.1615
 3645SOL    MW414348   3.792   2.329   5.977  0.3829 -0.2540 -0.4199
 3646SOL     OW14349   6.004   5.794   1.206 -0.3164 -0.6397 -0.6309
 3646SOL    HW214350   6.063   5.738   1.257 -1.9058 -1.8014  0.0248
 3646SOL    HW314351   6.049   5.807   1.123  1.2828 -0.6693  0.2021
 3646SOL    MW414352   6.018   5.788   1.202 -0.3151 -0.7969 -0.4345
 3647SOL     OW14353   6.179   1.697   4.995  0.2019  0.7377  0.3638
 3647SOL    HW214354   6.134   1.669   4.916 -0.6648  1.6678  0.5045
 3647SOL    HW314355   6.213   1.784   4.974  1.3181  0.3432  0.5040
 3647SOL    MW414356   6.177   1.705   4.982  0.2348  0.8083  0.4009
 3648SOL     OW14357   0.447   4.419   5.139  0.1304 -0.2461 -0.0943
 3648SOL    HW214358   0.501   4.496   5.155 -0.0817 -0.1456  0.1552
 3648SOL    HW314359   0.453   4.404   5.045 -0.1451  0.3073 -0.2024
 3648SOL    MW414360   0.455   4.427   5.129  0.0661 -0.1598 -0.0756
 3649SOL     OW14361   3.014   3.375   1.272  0.2446  0.2688 -0.0265
 3649SOL    HW214362   2.948   3.308   1.289  0.4884 -0.0714 -0.3994
 3649SOL    HW314363   3.075   3.367   1.345  0.8572 -0.6522 -0.6083
 3649SOL    MW414364   3.013   3.365   1.284  0.3576  0.1024 -0.1524
 3650SOL     OW14365   5.619   3.347   3.205 -0.0506 -0.2512  0.0811
 3650SOL    HW214366   5.692   3.407   3.219 -0.0853 -0.2385  0.2068
 3650SOL    HW314367   5.568   3.387   3.134 -0.9553  0.6896  1.2260
 3650SOL    MW414368   5.622   3.360   3.198 -0.1746 -0.1254  0.2488
 3651SOL     OW14369   4.483   5.963   5.527  0.8410 -0.1152 -0.6662
 3651SOL    HW214370   4.556   5.923   5.574  0.2694 -0.8328 -0.3738
 3651SOL    HW314371   4.523   5.999   5.447  1.6417  0.2049 -0.1357
 3651SOL    MW414372   4.498   5.962   5.522  0.8712 -0.1676 -0.5576
 3652SOL     OW14373   5.851   5.171   4.874  0.1016  0.2593  0.6565
 3652SOL    HW214374   5.935   5.186   4.918  0.1027  0.4731  0.5817
 3652SOL    HW314375   5.868   5.096   4.817 -0.4310 -1.2761  2.4437
 3652SOL    MW414376   5.865   5.163   4.872  0.0314  0.0849  0.8824
 3653SOL     OW14377   1.701   4.127   3.322  0.0983  0.0868  0.0723
 3653SOL    HW214378   1.717   4.093   3.234 -1.3349 -0.2097 -0.1056
 3653SOL    HW314379   1.769   4.088   3.376 -0.2867 -1.4645 -0.5183
 3653SOL    MW414380   1.712   4.117   3.317 -0.1416 -0.1570 -0.0291
 3654SOL     OW14381   1.467   3.778   6.072 -0.4759 -0.0606  0.0764
 3654SOL    HW214382   1.553   3.811   6.047 -0.5756  0.9971  1.0618
 3654SOL    HW314383   1.421   3.764   5.989  0.3311  0.2286 -0.4249
 3654SOL    MW414384   1.472   3.780   6.058 -0.3826  0.1171  0.1403
 3655SOL     OW14385   1.455   2.269   4.924  0.9242  0.7070  0.1655
 3655SOL    HW214386   1.405   2.218   4.861 -2.3130  1.9285  1.5176
 3655SOL    HW314387   1.487   2.204   4.987 -1.2458  0.0539  0.6729
 3655SOL    MW414388   1.452   2.254   4.924  0.2108  0.7820  0.4108
 3656SOL     OW14389   1.162   2.012   3.006 -0.2623  0.3871  0.4698
 3656SOL    HW214390   1.089   1.965   2.967 -2.1098  2.3211  1.4138
 3656SOL    HW314391   1.204   1.948   3.063  0.0598 -1.3157 -1.5635
 3656SOL    MW414392   1.158   1.997   3.008 -0.4636  0.4176  0.3261
 3657SOL     OW14393   1.838   4.480   4.030  0.5487  0.1381  0.4852
 3657SOL    HW214394   1.789   4.563   4.028 -0.3089 -0.3687  0.0631
 3657SOL    HW314395   1.910   4.497   4.090  0.4527  1.2344  0.3192
 3657SOL    MW414396   1.841   4.493   4.037  0.4229  0.2159  0.4076
 3658SOL     OW14397   4.193   5.201   1.141 -0.5835 -0.0556  0.7406
 3658SOL    HW214398   4.266   5.162   1.190 -1.4824 -3.1158 -0.0913
 3658SOL    HW314399   4.116   5.187   1.196 -1.0297 -0.0409  0.1380
 3658SOL    MW414400   4.193   5.194   1.154 -0.7610 -0.4574  0.5513
 3659SOL     OW14401   4.003   3.123   3.250 -0.3364  0.6902 -0.3578
 3659SOL    HW214402   4.016   3.185   3.178 -0.1885 -2.4316 -3.2456
 3659SOL    HW314403   4.090   3.091   3.272 -0.3487  1.7548  1.4896
 3659SOL    MW414404   4.016   3.127   3.244 -0.3185  0.4188 -0.4951
 3660SOL     OW14405   3.282   6.115   5.088  0.1357  0.2550 -0.2278
 3660SOL    HW214406   3.360   6.059   5.080 -1.9395 -2.8633 -0.3189
 3660SOL    HW314407   3.269   6.124   5.182 -0.1953 -0.4843 -0.1958
 3660SOL    MW414408   3.291   6.109   5.099 -0.1817 -0.2540 -0.2356
 3661SOL     OW14409   4.093   2.467   2.469 -0.1163 -0.4569  0.3708
 3661SOL    HW214410   4.037   2.503   2.538 -1.3814 -0.7895 -0.4399
 3661SOL    HW314411   4.060   2.506   2.388 -0.2567 -1.9112 -0.3043
 3661SOL    MW414412   4.081   2.477   2.468 -0.3017 -0.6926  0.1748
 3662SOL     OW14413   2.280   1.010   3.521 -0.2605  0.0210  0.1724
 3662SOL    HW214414   2.229   0.984   3.444  0.6411 -1.6214  0.0819
 3662SOL    HW314415   2.371   0.995   3.497  0.4063  3.4462  0.1387
 3662SOL    MW414416   2.285   1.004   3.508 -0.0535  0.2562  0.1560
 3663SOL     OW14417   4.293   2.251   3.297  0.2224  0.0720 -0.1007
 3663SOL    HW214418   4.335   2.337   3.307  0.4293 -0.1912  1.3519
 3663SOL    HW314419   4.361   2.195   3.261 -0.0702  0.6272 -1.6028
 3663SOL    MW414420   4.308   2.255   3.293  0.2111  0.1105 -0.1072
 3664SOL     OW14421   3.567   1.037   1.475 -0.6961 -0.1528 -0.5629
 3664SOL    HW214422   3.618   1.116   1.492  1.7608 -1.8110  0.4217
 3664SOL    HW314423   3.501   1.036   1.544 -0.6352  0.9379 -0.4680
 3664SOL    MW414424   3.565   1.047   1.487 -0.3639 -0.2277 -0.4205
 3665SOL     OW14425   2.779   3.932   4.305 -0.1906 -0.6469 -0.3717
 3665SOL    HW214426   2.770   3.908   4.398 -0.6994 -0.5585 -0.3959
 3665SOL    HW314427   2.701   3.895   4.263 -0.1763 -0.3245 -0.6881
 3665SOL    MW414428   2.767   3.924   4.312 -0.2558 -0.5927 -0.4166
 3666SOL     OW14429   4.668   2.426   3.505  0.4742  0.0174 -0.2864
 3666SOL    HW214430   4.710   2.429   3.419  0.9578  0.0316 -0.0534
 3666SOL    HW314431   4.736   2.394   3.564  0.1724  0.0922  0.1073
 3666SOL    MW414432   4.682   2.422   3.502  0.4982  0.0292 -0.2037
 3667SOL     OW14433   5.962   4.197   1.830 -0.2447  0.1050  0.2931
 3667SOL    HW214434   6.019   4.274   1.835  0.4330 -0.3964  0.5420
 3667SOL    HW314435   6.022   4.124   1.811 -0.7615 -0.4836  0.8640
 3667SOL    MW414436   5.978   4.197   1.828 -0.2235 -0.0388  0.4013
 3668SOL     OW14437   2.945   1.782   3.642  0.3723 -0.1294  0.8916
 3668SOL    HW214438   2.918   1.707   3.695  0.6557 -1.8034 -1.2181
 3668SOL    HW314439   2.863   1.822   3.614  0.2154  0.1000  1.6522
 3668SOL    MW414440   2.931   1.777   3.645  0.3890 -0.3200  0.7136
 3669SOL     OW14441   2.248   2.672   1.213 -0.6569 -0.1686 -0.2096
 3669SOL    HW214442   2.211   2.746   1.261  1.1266  0.2052  0.6634
 3669SOL    HW314443   2.201   2.671   1.130 -0.5841  2.0700 -0.3375
 3669SOL    MW414444   2.237   2.681   1.209 -0.4120  0.1760 -0.1113
 3670SOL     OW14445   1.477   4.887   6.269 -0.4300 -0.3409 -0.3857
 3670SOL    HW214446   1.457   4.980   6.257  0.6133 -0.0489  0.0281
 3670SOL    HW314447   1.436   4.863   6.352  0.4140  0.1120  0.1814
 3670SOL    MW414448   1.469   4.896   6.278 -0.1810 -0.2426 -0.2563
 3671SOL     OW14449   1.759   5.994   3.131  0.5755  0.2336  0.0036
 3671SOL    HW214450   1.675   5.979   3.174  0.9097  0.0141  0.5959
 3671SOL    HW314451   1.811   6.041   3.196  1.4601 -1.0671  0.2753
 3671SOL    MW414452   1.755   5.998   3.145  0.7363  0.0330  0.1176
 3672SOL     OW14453   1.820   5.178   2.730 -0.1816  0.1648 -0.0190
 3672SOL    HW214454   1.755   5.204   2.794 -1.8644 -0.6124 -1.3477
 3672SOL    HW314455   1.798   5.088   2.708  1.3887 -0.1405 -0.4840
 3672SOL    MW414456   1.809   5.170   2.735 -0.1964  0.0220 -0.2556
 3673SOL     OW14457   0.217   4.984   1.794 -0.1245  0.0418  0.1930
 3673SOL    HW214458   0.274   5.017   1.725  0.9571  0.4347  1.2401
 3673SOL    HW314459   0.146   4.939   1.748  0.4486  0.4929 -1.1614
 3673SOL    MW414460   0.215   4.982   1.779  0.0938  0.1531  0.1525
 3674SOL     OW14461   2.401   0.860   0.849 -0.3854  0.1831 -0.6384
 3674SOL    HW214462   2.369   0.940   0.807 -1.4055 -0.4582 -1.1311
 3674SOL    HW314463   2.349   0.790   0.810 -1.8101 -0.4179  2.0592
 3674SOL    MW414464   2.390   0.862   0.839 -0.7080  0.0192 -0.3475
 3675SOL     OW14465   4.306   6.147   2.048 -0.1220 -0.5044 -0.3753
 3675SOL    HW214466   4.346   6.197   1.977 -1.3673  0.6391 -0.3158
 3675SOL    HW314467   4.355   6.174   2.126  1.8277 -2.4160 -0.8529
 3675SOL    MW414468   4.318   6.157   2.049 -0.0290 -0.6057 -0.4305
 3676SOL     OW14469   2.695   4.638   4.179 -0.1797  0.6357  0.2040
 3676SOL    HW214470   2.631   4.642   4.251 -1.1000  0.0481 -0.5653
 3676SOL    HW314471   2.645   4.606   4.104  0.8862  0.7624 -0.5773
 3676SOL    MW414472   2.680   4.634   4.179 -0.1605  0.5749 -0.0006
 3677SOL     OW14473   1.464   4.564   1.726 -0.4445 -0.1755 -0.0803
 3677SOL    HW214474   1.498   4.572   1.637  0.0287 -1.1145  0.0042
 3677SOL    HW314475   1.469   4.470   1.745 -0.1221  0.0643  1.0939
 3677SOL    MW414476   1.469   4.552   1.717 -0.3395 -0.2677  0.0858
 3678SOL     OW14477   1.634   4.670   5.829  0.3573 -0.3081  0.2121
 3678SOL    HW214478   1.702   4.652   5.894 -0.3725  0.4729  1.2128
 3678SOL    HW314479   1.565   4.714   5.878 -1.1321 -1.5707 -0.6653
 3678SOL    MW414480   1.634   4.673   5.844  0.0645 -0.3716  0.2284
 3679SOL     OW14481   1.714   5.317   0.544  0.1914  0.4513 -0.1391
 3679SOL    HW214482   1.651   5.373   0.589 -0.3102 -0.8753  0.8710
 3679SOL    HW314483   1.743   5.369   0.469  0.2398  2.3147  1.1045
 3679SOL    MW414484   1.710   5.331   0.540  0.1316  0.5221  0.1582
 3680SOL     OW14485   2.029   5.563   2.307  0.2155  0.3687 -0.0071
 3680SOL    HW214486   1.955   5.576   2.366  0.9044  0.7250  0.8030
 3680SOL    HW314487   2.106   5.569   2.363  0.9579  1.8311 -1.1121
 3680SOL    MW414488   2.029   5.565   2.322  0.4043  0.6086 -0.0460
 3681SOL     OW14489   6.293   1.694   0.087  0.9908  0.0199 -0.0102
 3681SOL    HW214490   6.241   1.678   0.008  2.5280  0.8049 -1.2335
 3681SOL    HW314491   6.231   1.681   0.159 -0.6263 -0.1075 -1.3518
 3681SOL    MW414492   6.278   1.690   0.086  0.9802  0.1067 -0.3486
 3682SOL     OW14493   0.899   5.807   3.078  0.6881  0.0347  0.0253
 3682SOL    HW214494   0.927   5.757   3.001 -0.1612  0.0795 -0.3215
 3682SOL    HW314495   0.981   5.828   3.123  1.0558 -2.7987  0.9232
 3682SOL    MW414496   0.914   5.803   3.074  0.6245 -0.3333  0.0980
 3683SOL     OW14497   2.080   6.293   2.964 -0.2410  0.4455  0.2575
 3683SOL    HW214498   2.163   6.299   3.012 -0.2095 -0.3497  0.3105
 3683SOL    HW314499   2.024   6.357   3.007  0.8741  2.3054 -0.9073
 3683SOL    MW414500   2.084   6.302   2.976 -0.0897  0.5859  0.1108
 3684SOL     OW14501   0.615   2.481   0.351  0.3243 -0.2742 -0.0602
 3684SOL    HW214502   0.673   2.522   0.415 -1.0604  2.5894 -0.5040
 3684SOL    HW314503   0.546   2.441   0.403 -0.2800  1.2071  0.3002
 3684SOL    MW414504   0.614   2.481   0.366  0.0618  0.2990 -0.0712
 3685SOL     OW14505   1.869   0.504   1.536  0.0734 -0.5469  0.3691
 3685SOL    HW214506   1.962   0.485   1.525  0.5814 -0.6033  3.8677
 3685SOL    HW314507   1.859   0.593   1.501  0.8841 -1.2968 -1.9969
 3685SOL    MW414508   1.880   0.513   1.530  0.2474 -0.6533  0.5185
 3686SOL     OW14509   0.145   6.050   2.275  0.0680 -0.8138 -0.4161
 3686SOL    HW214510   0.172   6.043   2.366  0.9558 -2.8300 -0.7985
 3686SOL    HW314511   0.142   6.145   2.258 -0.1431 -0.4072  1.6796
 3686SOL    MW414512   0.148   6.062   2.284  0.1573 -1.0261 -0.1900
 3687SOL     OW14513   0.471   2.142   3.299  0.0608  0.4637 -0.3988
 3687SOL    HW214514   0.410   2.082   3.342  0.4555  0.5324  0.2861
 3687SOL    HW314515   0.441   2.229   3.324  1.4782  0.4741  1.4998
 3687SOL    MW414516   0.459   2.146   3.308  0.2998  0.4741 -0.0579
 3688SOL     OW14517   1.545   1.504   3.746  0.2560  0.3691  0.2394
 3688SOL    HW214518   1.545   1.577   3.684 -0.5667 -0.5821 -0.9183
 3688SOL    HW314519   1.529   1.546   3.831 -2.0896  1.3895 -0.6230
 3688SOL    MW414520   1.543   1.519   3.749 -0.1620  0.3782 -0.0272
 3689SOL     OW14521   6.339   6.231   3.271  0.2740 -0.1027 -0.4301
 3689SOL    HW214522   6.407   6.222   3.338  0.9411 -0.9448 -1.2176
 3689SOL    HW314523   6.376   6.291   3.207 -0.3142  0.5955 -0.1354
 3689SOL    MW414524   6.353   6.238   3.272  0.2844 -0.1217 -0.4951
 3690SOL     OW14525   6.166   3.590   2.596 -0.0863  0.0893 -0.5009
 3690SOL    HW214526   6.212   3.648   2.657 -0.4442  0.3463 -0.4674
 3690SOL    HW314527   6.224   3.585   2.520  0.4210 -0.3364 -0.0886
 3690SOL    MW414528   6.180   3.597   2.594 -0.0666  0.0671 -0.4421
 3691SOL     OW14529   4.465   1.852   5.220  0.3425 -0.0010  0.4343
 3691SOL    HW214530   4.471   1.921   5.286  0.4956  0.5958 -0.1912
 3691SOL    HW314531   4.487   1.771   5.267  0.5466  0.4303  1.0868
 3691SOL    MW414532   4.469   1.850   5.235  0.3896  0.1347  0.4379
 3692SOL     OW14533   0.970   1.147   1.486 -0.1626  0.0219 -0.1174
 3692SOL    HW214534   0.949   1.074   1.544  2.3713 -1.0037 -0.3943
 3692SOL    HW314535   0.922   1.221   1.523  1.4145 -0.5145  3.4494
 3692SOL    MW414536   0.961   1.147   1.498  0.3798 -0.1842  0.3167
 3693SOL     OW14537   4.100   6.072   3.899  0.0080 -0.1878  0.9193
 3693SOL    HW214538   4.080   6.008   3.830  1.4427  0.0627  0.2264
 3693SOL    HW314539   4.158   6.135   3.857  0.4086  0.3375  2.2089
 3693SOL    MW414540   4.105   6.072   3.884  0.2501 -0.0855  0.9980
 3694SOL     OW14541   5.559   1.757   0.743 -0.1877  0.2491  0.0051
 3694SOL    HW214542   5.538   1.673   0.784 -3.3367  1.4632  1.2209
 3694SOL    HW314543   5.502   1.820   0.788  0.3123  2.6419 -2.4616
 3694SOL    MW414544   5.549   1.754   0.754 -0.5372  0.7250 -0.1599
 3695SOL     OW14545   3.467   2.253   0.354  0.1458 -0.5231  0.1741
 3695SOL    HW214546   3.544   2.257   0.410  1.1944 -0.5182 -1.2291
 3695SOL    HW314547   3.394   2.272   0.413  1.5191  4.0608  0.8321
 3695SOL    MW414548   3.467   2.256   0.370  0.4653  0.0823  0.0758
 3696SOL     OW14549   4.950   4.529   1.238  0.3265  0.3910  0.2175
 3696SOL    HW214550   4.981   4.494   1.321 -0.8441 -2.3619 -0.4007
 3696SOL    HW314551   4.870   4.577   1.261  0.8880  1.0454  0.8505
 3696SOL    MW414552   4.944   4.531   1.252  0.2461  0.1141  0.2195
 3697SOL     OW14553   0.366   4.740   5.452  0.1886  0.8837  0.1194
 3697SOL    HW214554   0.366   4.644   5.456  0.3569  0.8487 -0.6636
 3697SOL    HW314555   0.285   4.766   5.497  0.9086  0.4496  1.7536
 3697SOL    MW414556   0.355   4.731   5.459  0.3058  0.8218  0.2317
 3698SOL     OW14557   5.584   4.792   6.282  0.1156  0.4189 -0.4657
 3698SOL    HW214558   5.619   4.874   6.247  0.3657 -0.0182 -1.2566
 3698SOL    HW314559   5.526   4.759   6.214 -2.7291  1.6169  1.1985
 3698SOL    MW414560   5.581   4.799   6.269 -0.2267  0.5193 -0.3505
 3699SOL     OW14561   2.136   0.632   5.622 -0.7484  0.0788  0.5614
 3699SOL    HW214562   2.160   0.697   5.556 -0.4953 -1.0185 -0.4667
 3699SOL    HW314563   2.040   0.634   5.625 -0.9805 -1.8556 -2.0346
 3699SOL    MW414564   2.127   0.641   5.614 -0.7456 -0.3212  0.0832
 3700SOL     OW14565   2.051   1.680   2.391 -0.4053  0.0231  0.3199
 3700SOL    HW214566   2.046   1.693   2.296  2.4534 -0.7878 -0.0193
 3700SOL    HW314567   1.982   1.615   2.409 -1.0280  0.2234 -1.1591
 3700SOL    MW414568   2.041   1.673   2.381 -0.1103 -0.0575  0.0800
 3701SOL     OW14569   0.628   1.257   1.033 -0.5599 -0.6435 -0.6409
 3701SOL    HW214570   0.600   1.338   0.991  2.1719  0.3904 -0.7001
 3701SOL    HW314571   0.561   1.193   1.009 -1.7458  1.0983 -2.2947
 3701SOL    MW414572   0.616   1.259   1.025 -0.3559 -0.2773 -0.8669
 3702SOL     OW14573   6.231   2.772   5.001  0.2596  0.1330  0.0924
 3702SOL    HW214574   6.146   2.783   5.044  0.0577  0.5514 -0.4063
 3702SOL    HW314575   6.214   2.708   4.932  0.1514  0.8353 -0.5402
 3702SOL    MW414576   6.218   2.765   4.998  0.2187  0.2809 -0.0568
 3703SOL     OW14577   5.736   6.385   4.056 -0.0542 -0.3926 -0.5709
 3703SOL    HW214578   5.764   6.369   3.966  0.0027  0.8995 -0.7963
 3703SOL    HW314579   5.642   6.400   4.050  0.0594  0.3585 -0.5110
 3703SOL    MW414580   5.728   6.385   4.044 -0.0317 -0.1230 -0.5927
 3704SOL     OW14581   1.527   3.274   0.768  0.0805  0.2905 -0.2809
 3704SOL    HW214582   1.570   3.258   0.684  0.8111  0.5454  0.0329
 3704SOL    HW314583   1.504   3.367   0.765  1.8645  0.7885  0.5670
 3704SOL    MW414584   1.529   3.284   0.756  0.4123  0.3898 -0.1276
 3705SOL     OW14585   0.972   5.509   4.191  0.4685 -0.2473 -0.3923
 3705SOL    HW214586   0.890   5.536   4.148 -0.1959 -1.4886  0.0454
 3705SOL    HW314587   0.968   5.550   4.278 -0.7284 -1.9637  0.4226
 3705SOL    MW414588   0.961   5.518   4.197  0.2229 -0.6375 -0.2271
 3706SOL     OW14589   1.861   5.774   4.929  0.2971 -0.0912 -0.5931
 3706SOL    HW214590   1.779   5.822   4.917 -0.0693 -0.4736  0.3072
 3706SOL    HW314591   1.871   5.723   4.848 -0.3446 -0.0249 -0.7207
 3706SOL    MW414592   1.852   5.774   4.916  0.1641 -0.1330 -0.4911
 3707SOL     OW14593   1.537   0.893   1.132 -0.0156 -0.5796  0.0616
 3707SOL    HW214594   1.520   0.835   1.206 -0.2498 -1.9627 -1.0469
 3707SOL    HW314595   1.474   0.866   1.065  0.2293  0.6095 -0.6720
 3707SOL    MW414596   1.527   0.882   1.133 -0.0142 -0.6052 -0.1814
 3708SOL     OW14597   3.854   1.643   5.450  0.5148  0.7229  0.2470
 3708SOL    HW214598   3.894   1.719   5.491  0.8351  0.4774  0.3968
 3708SOL    HW314599   3.902   1.631   5.368  0.7453  0.4334  0.4228
 3708SOL    MW414600   3.865   1.651   5.445  0.5875  0.6523  0.2900
 3709SOL     OW14601   1.747   5.455   3.296 -0.3837 -0.0190  0.2106
 3709SOL    HW214602   1.717   5.396   3.365 -2.9329  1.2350  0.2986
 3709SOL    HW314603   1.842   5.459   3.307 -0.5039 -1.4616  2.3150
 3709SOL    MW414604   1.755   5.448   3.307 -0.7359 -0.0439  0.4998
 3710SOL     OW14605   0.105   3.912   3.113 -0.0490  0.6569  0.2736
 3710SOL    HW214606   0.070   3.852   3.047 -0.7010  1.2690  0.0409
 3710SOL    HW314607   0.117   3.994   3.066  0.5273  0.7981  0.6619
 3710SOL    MW414608   0.102   3.915   3.098 -0.0590  0.7563  0.2941
 3711SOL     OW14609   5.709   4.484   3.729 -0.0980  0.2893  0.0042
 3711SOL    HW214610   5.667   4.398   3.730 -0.2078  0.3369 -0.4098
 3711SOL    HW314611   5.755   4.488   3.645  1.1842  0.0270  0.6691
 3711SOL    MW414612   5.710   4.474   3.718  0.0567  0.2609  0.0373
 3712SOL     OW14613   0.086   5.629   5.183 -0.1997  0.4288 -0.0434
 3712SOL    HW214614   0.011   5.575   5.161 -0.5142  0.6837  0.3954
 3712SOL    HW314615   0.050   5.702   5.234  0.5502 -0.3671  1.7192
 3712SOL    MW414616   0.072   5.632   5.187 -0.1422  0.3574  0.2470
 3713SOL     OW14617   3.227   1.247   2.739 -0.2362  0.3144 -0.5181
 3713SOL    HW214618   3.264   1.222   2.654  0.0440  0.3206 -0.4004
 3713SOL    HW314619   3.270   1.330   2.760 -0.3258  0.3266 -0.3843
 3713SOL    MW414620   3.238   1.255   2.730 -0.2110  0.3168 -0.4849
 3714SOL     OW14621   5.213   2.094   3.269 -0.2457  0.1619  0.1171
 3714SOL    HW214622   5.291   2.109   3.323 -0.2523  1.2400 -0.1557
 3714SOL    HW314623   5.139   2.105   3.328 -0.2117 -0.3943  0.2696
 3714SOL    MW414624   5.214   2.098   3.284 -0.2421  0.2308  0.1013
 3715SOL     OW14625   0.141   1.022   3.261 -0.1290  0.0814  0.1275
 3715SOL    HW214626   0.137   0.945   3.204  1.2369  1.4722 -2.0345
 3715SOL    HW314627   0.185   1.088   3.207 -3.7966  3.3542  0.7333
 3715SOL    MW414628   0.146   1.020   3.246 -0.4327  0.6967 -0.0778
 3716SOL     OW14629   5.047   0.284   3.421  0.2473 -0.0852  0.0268
 3716SOL    HW214630   5.078   0.375   3.425 -0.8378  0.6277 -3.4784
 3716SOL    HW314631   4.972   0.281   3.480 -0.4976  1.7607 -0.7404
 3716SOL    MW414632   5.041   0.296   3.429  0.0059  0.2524 -0.5369
 3717SOL     OW14633   3.108   5.983   5.799 -0.3032  0.4594  0.2750
 3717SOL    HW214634   3.087   5.898   5.838  4.7163 -0.8553  0.7943
 3717SOL    HW314635   3.104   5.968   5.705 -0.8446  0.0737  0.3556
 3717SOL    MW414636   3.105   5.970   5.792  0.2876  0.2351  0.3541
 3718SOL     OW14637   3.778   5.574   3.177  0.1181  0.1909  0.3960
 3718SOL    HW214638   3.764   5.588   3.271  1.8092 -1.2503  0.9194
 3718SOL    HW314639   3.705   5.518   3.150  0.0410 -0.0230  1.0259
 3718SOL    MW414640   3.766   5.569   3.186  0.3310 -0.0275  0.5482
 3719SOL     OW14641   2.401   0.326   1.818  0.0085  0.4388  0.2305
 3719SOL    HW214642   2.306   0.327   1.819 -0.0038 -0.2211  0.0154
 3719SOL    HW314643   2.426   0.353   1.730  0.0086  0.0471  0.1096
 3719SOL    MW414644   2.392   0.330   1.807  0.0069  0.3001  0.1862
 3720SOL     OW14645   0.696   0.171   0.489 -0.1154  0.4641 -0.0702
 3720SOL    HW214646   0.773   0.219   0.519 -0.1282  0.3282  0.1891
 3720SOL    HW314647   0.702   0.086   0.534 -1.1055  0.9238  1.0043
 3720SOL    MW414648   0.707   0.166   0.499 -0.2478  0.5068  0.1058
 3721SOL     OW14649   2.020   2.012   2.957  0.1122  0.1071  0.0838
 3721SOL    HW214650   2.059   1.935   2.917  2.4103  0.8124  0.8091
 3721SOL    HW314651   1.940   1.980   2.999  0.7345 -1.7755 -0.0813
 3721SOL    MW414652   2.014   1.998   2.957  0.4975 -0.0482  0.1577
 3722SOL     OW14653   0.376   5.285   4.727  0.3696  0.1595 -0.1381
 3722SOL    HW214654   0.357   5.336   4.648 -0.5425 -0.2341 -0.1924
 3722SOL    HW314655   0.332   5.201   4.712  2.5254 -0.9743 -0.4096
 3722SOL    MW414656   0.368   5.280   4.715  0.5337 -0.0420 -0.1811
 3723SOL     OW14657   4.090   4.145   0.173 -0.2745  0.2391  0.0653
 3723SOL    HW214658   4.099   4.240   0.162  0.0633  0.1392 -0.5884
 3723SOL    HW314659   4.006   4.134   0.219 -0.2553  0.8564  0.2581
 3723SOL    MW414660   4.080   4.156   0.178 -0.2274  0.3074  0.0045
 3724SOL     OW14661   4.663   0.837   0.133 -0.4846  0.3420  0.0924
 3724SOL    HW214662   4.636   0.746   0.123  0.4673 -0.2096  1.9972
 3724SOL    HW314663   4.628   0.864   0.218  1.1305  1.0011  0.5973
 3724SOL    MW414664   4.655   0.829   0.143 -0.1459  0.3562  0.4103
 3725SOL     OW14665   1.447   2.498   0.636  1.0264 -0.1621 -0.1029
 3725SOL    HW214666   1.398   2.415   0.638 -0.4426  0.6859  0.0518
 3725SOL    HW314667   1.536   2.472   0.610  0.7816 -1.8671  0.5975
 3725SOL    MW414668   1.453   2.483   0.633  0.8003 -0.2752  0.0099
 3726SOL     OW14669   3.638   6.152   4.306  0.4369  0.5153  0.1543
 3726SOL    HW214670   3.663   6.064   4.277 -0.9425  0.3170 -0.4846
 3726SOL    HW314671   3.638   6.204   4.226 -0.1447  0.7632  0.3174
 3726SOL    MW414672   3.642   6.147   4.291  0.1781  0.5218  0.0915
 3727SOL     OW14673   0.663   5.504   5.570  0.5457 -0.2912 -0.5178
 3727SOL    HW214674   0.611   5.506   5.490  0.4991  0.6875 -0.4818
 3727SOL    HW314675   0.636   5.583   5.617  2.1553  0.3104 -0.5508
 3727SOL    MW414676   0.652   5.515   5.566  0.7519 -0.0827 -0.5174
 3728SOL     OW14677   2.859   5.428   2.434  0.0437 -0.0569 -0.7516
 3728SOL    HW214678   2.918   5.502   2.444  0.8650 -0.5547 -1.7587
 3728SOL    HW314679   2.915   5.351   2.438 -0.8046 -0.6457  0.3476
 3728SOL    MW414680   2.874   5.428   2.436  0.0402 -0.2002 -0.7394
 3729SOL     OW14681   0.824   4.473   3.204  0.2535 -0.2042  0.0189
 3729SOL    HW214682   0.778   4.549   3.239  1.1588  0.1935  0.3714
 3729SOL    HW314683   0.788   4.399   3.253 -0.0344  0.0896  0.2600
 3729SOL    MW414684   0.813   4.474   3.215  0.3350 -0.1130  0.0972
 3730SOL     OW14685   4.707   4.638   3.178  0.5098 -0.1261  0.3736
 3730SOL    HW214686   4.725   4.561   3.125  0.7738  0.2948 -0.1652
 3730SOL    HW314687   4.631   4.679   3.136  1.3195  0.7481 -0.3102
 3730SOL    MW414688   4.699   4.634   3.165  0.6514  0.0448  0.2123
 3731SOL     OW14689   2.229   2.848   1.640  0.4800  0.0129  0.4449
 3731SOL    HW214690   2.243   2.820   1.730 -0.7618 -1.4426  0.2250
 3731SOL    HW314691   2.311   2.830   1.595  0.7087 -0.3741  1.0222
 3731SOL    MW414692   2.241   2.842   1.646  0.3463 -0.2302  0.4921
 3732SOL     OW14693   2.610   6.397   2.846  0.2276 -0.4770 -0.2072
 3732SOL    HW214694   2.601   6.482   2.803  1.3017 -0.4505 -0.4110
 3732SOL    HW314695   2.528   6.386   2.895  0.6057  1.3080  0.9541
 3732SOL    MW414696   2.598   6.407   2.847  0.4192 -0.2380 -0.0808
 3733SOL     OW14697   6.366   3.031   5.174 -0.3158 -0.4590  0.3190
 3733SOL    HW214698   6.349   2.976   5.251 -1.1142  0.5507  0.8883
 3733SOL    HW314699   6.324   2.984   5.102  0.5944 -1.5093  0.4370
 3733SOL    MW414700   6.358   3.017   5.175 -0.3010 -0.4644  0.4097
 3734SOL     OW14701   2.350   1.556   4.442  0.0249  0.1002  1.0454
 3734SOL    HW214702   2.352   1.550   4.537 -1.5422 -0.3098  1.0802
 3734SOL    HW314703   2.388   1.474   4.411  0.9822  0.4398  1.3024
 3734SOL    MW414704   2.355   1.545   4.450 -0.0556  0.0909  1.0839
 3735SOL     OW14705   2.363   3.332   4.734  0.5389 -0.4270  0.2072
 3735SOL    HW214706   2.391   3.305   4.821  0.1875 -2.2834 -0.2159
 3735SOL    HW314707   2.282   3.284   4.718  0.6700 -0.2360 -1.2036
 3735SOL    MW414708   2.356   3.322   4.743  0.5098 -0.6468 -0.0348
 3736SOL     OW14709   1.569   2.790   2.769  0.2047  0.3750  0.0704
 3736SOL    HW214710   1.628   2.790   2.694 -0.9512 -0.6405 -0.8921
 3736SOL    HW314711   1.613   2.735   2.835  0.4412 -0.1983 -0.5549
 3736SOL    MW414712   1.583   2.783   2.768  0.0834  0.1653 -0.1391
 3737SOL     OW14713   5.880   1.249   2.498 -0.1600 -0.6883 -0.2560
 3737SOL    HW214714   5.865   1.343   2.507  1.5476 -0.4859  0.8223
 3737SOL    HW314715   5.801   1.209   2.534  0.1293  0.3299  1.6504
 3737SOL    MW414716   5.867   1.256   2.504  0.1035 -0.5273  0.1378
 3738SOL     OW14717   2.098   5.734   2.702 -0.2883 -0.1781  0.2420
 3738SOL    HW214718   2.130   5.822   2.718 -0.5547 -0.1046  0.3693
 3738SOL    HW314719   2.174   5.687   2.667 -0.5474  0.5185 -1.3581
 3738SOL    MW414720   2.113   5.739   2.699 -0.3576 -0.0765  0.0477
 3739SOL     OW14721   3.386   1.936   2.975 -0.0566  0.0317  0.3785
 3739SOL    HW214722   3.412   1.872   2.909 -1.2127  0.6925 -0.7611
 3739SOL    HW314723   3.404   2.021   2.935 -0.4460  0.4424  1.0571
 3739SOL    MW414724   3.392   1.939   2.961 -0.2605  0.1731  0.3177
 3740SOL     OW14725   0.945   4.876   6.107 -0.7947 -0.0289 -0.1016
 3740SOL    HW214726   0.931   4.962   6.068 -2.2855 -0.2610 -0.1197
 3740SOL    HW314727   0.906   4.814   6.045 -2.4991 -0.4639  1.3083
 3740SOL    MW414728   0.938   4.879   6.094 -1.2162 -0.1169  0.0820
 3741SOL     OW14729   4.587   1.394   1.629 -0.2362 -0.0330  0.0430
 3741SOL    HW214730   4.658   1.444   1.589  0.9634 -2.0656 -0.4873
 3741SOL    HW314731   4.614   1.384   1.720  0.6669 -1.5812 -0.3634
 3741SOL    MW414732   4.600   1.400   1.636  0.0412 -0.5055 -0.0806
 3742SOL     OW14733   5.523   2.934   1.320  0.7622  0.6053  0.9318
 3742SOL    HW214734   5.529   2.915   1.413 -1.0216 -1.2447  0.7377
 3742SOL    HW314735   5.613   2.926   1.288  1.1207 -0.5821  2.1723
 3742SOL    MW414736   5.536   2.931   1.328  0.5742  0.2045  1.0699
 3743SOL     OW14737   3.314   3.121   5.125  0.8637 -0.3049 -0.3000
 3743SOL    HW214738   3.235   3.088   5.083  0.1059  0.6050  0.3744
 3743SOL    HW314739   3.354   3.044   5.166 -0.9892 -0.4035  1.4401
 3743SOL    MW414740   3.309   3.107   5.125  0.5193 -0.1979  0.0186
 3744SOL     OW14741   0.791   2.606   2.035 -0.3934  0.1786  0.5674
 3744SOL    HW214742   0.814   2.668   1.966 -0.2681  0.2538  0.6756
 3744SOL    HW314743   0.812   2.520   1.998 -0.5940  0.1986  0.4064
 3744SOL    MW414744   0.797   2.603   2.021 -0.4034  0.1912  0.5604
 3745SOL     OW14745   3.882   1.300   3.157 -0.2583 -0.4677  0.1715
 3745SOL    HW214746   3.933   1.223   3.183 -0.5659 -0.4541  0.8387
 3745SOL    HW314747   3.834   1.324   3.236 -2.0257 -1.0368 -0.6736
 3745SOL    MW414748   3.882   1.293   3.171 -0.5320 -0.5410  0.1480
 3746SOL     OW14749   6.374   4.270   1.883  0.3231  0.1294  0.1129
 3746SOL    HW214750   6.450   4.309   1.926  0.4416 -0.5728  0.5649
 3746SOL    HW314751   6.407   4.242   1.797  0.1059  1.4532 -0.4203
 3746SOL    MW414752   6.388   4.271   1.877  0.3101  0.2114  0.1022
 3747SOL     OW14753   0.107   6.383   4.989  0.2284  0.5267  0.2001
 3747SOL    HW214754   0.164   6.336   5.051 -0.5705 -0.0429  0.5138
 3747SOL    HW314755   0.096   6.470   5.028 -0.7713 -0.0220  1.1954
 3747SOL    MW414756   0.113   6.388   5.002 -0.0089  0.3791  0.3728
 3748SOL     OW14757   0.261   4.329  -0.033  0.3853  0.2105  0.6022
 3748SOL    HW214758   0.267   4.235  -0.016 -2.7022 -0.6222 -1.8619
 3748SOL    HW314759   0.321   4.344  -0.107 -0.8150 -0.3810 -0.5276
 3748SOL    MW414760   0.270   4.319  -0.041 -0.1805  0.0226  0.1280
 3749SOL     OW14761   4.873   1.481   3.988  0.1957  0.4420  0.1438
 3749SOL    HW214762   4.906   1.571   3.995  1.7428 -0.0103 -0.9649
 3749SOL    HW314763   4.813   1.473   4.062  1.9132  1.5983  1.7806
 3749SOL    MW414764   4.869   1.492   3.999  0.6264  0.5349  0.2135
 3750SOL     OW14765   0.180   5.043   3.279 -0.4270  0.2551  0.6086
 3750SOL    HW214766   0.241   5.007   3.215  0.7608  2.6835  0.2598
 3750SOL    HW314767   0.097   5.050   3.232  0.5565  2.4808 -0.9181
 3750SOL    MW414768   0.177   5.039   3.265 -0.1405  0.8691  0.3611
 3751SOL     OW14769   5.726   4.004   1.349  0.9620 -0.6554 -0.0676
 3751SOL    HW214770   5.731   4.043   1.261  0.3856  0.8151  0.5269
 3751SOL    HW314771   5.811   3.961   1.360  0.6754 -1.7724 -1.7296
 3751SOL    MW414772   5.738   4.004   1.339  0.8481 -0.6088 -0.2085
 3752SOL     OW14773   2.072   4.824   1.576  0.4774 -0.0526  0.6331
 3752SOL    HW214774   2.081   4.746   1.521 -1.4467 -0.0343  0.2217
 3752SOL    HW314775   2.022   4.885   1.522  1.3068  1.1918  1.2418
 3752SOL    MW414776   2.066   4.821   1.562  0.3329  0.1140  0.6591
 3753SOL     OW14777   5.375   3.238   3.281  1.4059 -0.2166 -0.3159
 3753SOL    HW214778   5.381   3.206   3.371  0.3209  2.7621  0.9740
 3753SOL    HW314779   5.459   3.282   3.266  0.2630  2.6365  0.8390
 3753SOL    MW414780   5.387   3.240   3.291  1.1119  0.5528  0.0067
 3754SOL     OW14781   2.020   1.046   0.820  0.3223  0.2332  0.3332
 3754SOL    HW214782   1.974   0.991   0.883  1.2366 -0.6078  0.2992
 3754SOL    HW314783   1.951   1.083   0.765 -0.5297  1.3324  2.0756
 3754SOL    MW414784   2.005   1.044   0.821  0.3305  0.2673  0.5586
 3755SOL     OW14785   6.100   1.000   1.846 -0.6031  0.2628 -0.0656
 3755SOL    HW214786   6.146   1.080   1.873  1.4257 -0.0400 -2.3210
 3755SOL    HW314787   6.054   1.025   1.766 -0.1739 -0.7346 -0.6409
 3755SOL    MW414788   6.100   1.014   1.839 -0.2788  0.0913 -0.4391
 3756SOL     OW14789   1.258   4.246   2.545  0.2723  0.1532 -0.4761
 3756SOL    HW214790   1.224   4.218   2.630  1.7219  0.7521  0.3573
 3756SOL    HW314791   1.354   4.240   2.555  0.5225  1.8578 -1.4677
 3756SOL    MW414792   1.266   4.242   2.558  0.4966  0.4571 -0.4970
 3757SOL     OW14793   2.590   1.524   1.575  0.0268  0.2355 -0.0666
 3757SOL    HW214794   2.653   1.482   1.518  1.0993  0.4498  0.9087
 3757SOL    HW314795   2.523   1.559   1.517  0.8032 -0.0179 -1.1333
 3757SOL    MW414796   2.589   1.523   1.560  0.2708  0.2303 -0.0787
 3758SOL     OW14797   0.844   4.707   5.916 -0.0336  0.3426  0.1885
 3758SOL    HW214798   0.760   4.696   5.871  0.2560  0.3259 -0.3585
 3758SOL    HW314799   0.847   4.635   5.979 -1.0190  1.1083  1.1554
 3758SOL    MW414800   0.833   4.696   5.918 -0.1254  0.4414  0.2439
 3759SOL     OW14801   1.439   0.882   5.942  0.2686 -0.1711 -0.0021
 3759SOL    HW214802   1.467   0.801   5.986  1.7383  0.1100 -0.3770
 3759SOL    HW314803   1.358   0.857   5.897  1.5633 -1.9768 -1.5491
 3759SOL    MW414804   1.432   0.868   5.942  0.6333 -0.3722 -0.2556
 3760SOL     OW14805   0.536   3.616   2.759  0.7609 -0.2389  0.3603
 3760SOL    HW214806   0.574   3.616   2.671  1.0801 -2.4488  0.4412
 3760SOL    HW314807   0.580   3.688   2.804  2.0184 -0.3023 -0.7154
 3760SOL    MW414808   0.547   3.625   2.753  0.9689 -0.5389  0.2290
 3761SOL     OW14809   3.111   4.626   4.106  0.1888  0.3647 -0.1119
 3761SOL    HW214810   3.050   4.646   4.035 -0.0008  0.4892  0.0825
 3761SOL    HW314811   3.113   4.530   4.109 -0.0742  0.3604 -0.0554
 3761SOL    MW414812   3.103   4.616   4.097  0.1291  0.3806 -0.0788
 3762SOL     OW14813   1.334   5.179   4.925  0.4479 -0.4629 -0.8655
 3762SOL    HW214814   1.281   5.249   4.887 -1.6621 -1.0459  0.8206
 3762SOL    HW314815   1.387   5.223   4.992 -1.2207 -0.4466  0.5241
 3762SOL    MW414816   1.334   5.194   4.929 -0.0507 -0.5376 -0.4597
 3763SOL     OW14817   6.111   4.859   4.186  0.1313 -0.1453  0.1270
 3763SOL    HW214818   6.191   4.869   4.237 -0.3314  0.8353  0.6862
 3763SOL    HW314819   6.098   4.765   4.180  0.3153 -0.2930  1.6575
 3763SOL    MW414820   6.120   4.848   4.192  0.0945 -0.0354  0.4027
 3764SOL     OW14821   1.793   1.103   2.622 -0.2696  0.2917  0.2168
 3764SOL    HW214822   1.886   1.111   2.643 -0.6128  0.5031  1.7315
 3764SOL    HW314823   1.776   1.008   2.625  0.2515  0.0818 -1.8266
 3764SOL    MW414824   1.803   1.091   2.625 -0.2461  0.2919  0.1470
 3765SOL     OW14825   4.660   0.284   4.076 -0.0928 -0.3546 -0.2008
 3765SOL    HW214826   4.667   0.312   4.167  3.1547 -1.5801  0.0657
 3765SOL    HW314827   4.587   0.335   4.041 -1.6302 -0.0004  3.0775
 3765SOL    MW414828   4.651   0.294   4.084  0.1328 -0.4696  0.2669
 3766SOL     OW14829   3.312   1.432   1.512 -0.1810 -0.0355 -0.0914
 3766SOL    HW214830   3.318   1.518   1.471 -0.3603 -0.1898 -0.4396
 3766SOL    HW314831   3.272   1.449   1.598  0.3979  0.3133  0.1180
 3766SOL    MW414832   3.308   1.446   1.518 -0.1283 -0.0099 -0.1097
 3767SOL     OW14833   4.350   3.249   6.129 -0.1017 -0.3481 -0.0876
 3767SOL    HW214834   4.377   3.157   6.134 -0.2618 -0.3470  0.9302
 3767SOL    HW314835   4.259   3.245   6.098  0.3136 -0.4529 -1.3617
 3767SOL    MW414836   4.341   3.236   6.125 -0.0680 -0.3618 -0.1214
 3768SOL     OW14837   1.163   0.608   5.559 -0.1104 -0.6506  0.2495
 3768SOL    HW214838   1.105   0.567   5.624  0.7889 -0.8074  0.9796
 3768SOL    HW314839   1.245   0.559   5.567  0.8429  0.9681  0.7998
 3768SOL    MW414840   1.166   0.596   5.568  0.1340 -0.4577  0.4184
 3769SOL     OW14841   1.534   2.898   3.533 -0.1281 -0.4512 -0.0387
 3769SOL    HW214842   1.554   2.810   3.502 -0.8647 -0.2344 -1.1827
 3769SOL    HW314843   1.529   2.951   3.454  0.8379  0.7538  0.6640
 3769SOL    MW414844   1.536   2.893   3.519 -0.0978 -0.2636 -0.0969
 3770SOL     OW14845   3.835   5.993   2.864 -0.2913  0.4979  0.2248
 3770SOL    HW214846   3.887   6.069   2.892  1.6998 -0.6133 -0.3139
 3770SOL    HW314847   3.848   5.928   2.933 -1.2303  0.2826  0.2211
 3770SOL    MW414848   3.843   5.995   2.877 -0.1525  0.3229  0.1532
 3771SOL     OW14849   3.142   0.141   3.643  0.0991 -0.0999  0.1990
 3771SOL    HW214850   3.203   0.187   3.700  2.4723 -1.6703 -0.9333
 3771SOL    HW314851   3.082   0.096   3.703  0.4662  0.9130  1.3605
 3771SOL    MW414852   3.142   0.141   3.658  0.4606 -0.1734  0.2028
 3772SOL     OW14853   4.525   1.687   5.722  0.1405  0.5200  0.5626
 3772SOL    HW214854   4.489   1.640   5.797 -0.8184  1.5588  0.7951
 3772SOL    HW314855   4.473   1.656   5.648  0.0309  0.6296  0.5917
 3772SOL    MW414856   4.513   1.677   5.722 -0.0005  0.6715  0.5971
 3773SOL     OW14857   1.170   0.518   2.741  0.3964  0.5690 -0.1860
 3773SOL    HW214858   1.137   0.608   2.748 -0.8703  0.0433  1.0900
 3773SOL    HW314859   1.263   0.525   2.761  0.3122  1.6092 -0.1103
 3773SOL    MW414860   1.178   0.531   2.745  0.2181  0.6369 -0.0077
 3774SOL     OW14861   1.797   4.679   1.778 -0.2800 -0.2388  0.2516
 3774SOL    HW214862   1.763   4.593   1.754 -1.3350 -0.0423  0.9423
 3774SOL    HW314863   1.828   4.669   1.868  0.2447 -0.0760  0.0894
 3774SOL    MW414864   1.797   4.666   1.786 -0.3500 -0.1914  0.3213
 3775SOL     OW14865   0.323   4.756   3.284  0.6908  0.2397  0.2965
 3775SOL    HW214866   0.276   4.782   3.205 -0.0867 -1.5193  0.1372
 3775SOL    HW314867   0.299   4.664   3.298  3.2656 -0.4449  0.8048
 3775SOL    MW414868   0.314   4.747   3.276  0.9279 -0.0827  0.3426
 3776SOL     OW14869   1.893   4.323   6.341 -0.6979  0.2600 -0.4248
 3776SOL    HW214870   1.940   4.361   6.415  2.8596 -0.4889 -2.1041
 3776SOL    HW314871   1.876   4.397   6.283 -0.7639  0.3817 -0.2533
 3776SOL    MW414872   1.897   4.338   6.343 -0.2372  0.1773 -0.6237
 3777SOL     OW14873   0.069   1.565   1.627 -0.4705 -0.9493 -0.1537
 3777SOL    HW214874   0.100   1.497   1.567  1.9320 -0.6355  0.6076
 3777SOL    HW314875   0.014   1.621   1.573  0.1709 -1.6609 -1.6194
 3777SOL    MW414876   0.066   1.563   1.612 -0.0689 -1.0017 -0.2466
 3778SOL     OW14877   6.289   6.256   0.204  0.1160 -0.0220 -0.4140
 3778SOL    HW214878   6.268   6.346   0.178  1.0072  0.1761 -0.4958
 3778SOL    HW314879   6.293   6.259   0.300 -2.9189 -0.6968 -0.1605
 3778SOL    MW414880   6.287   6.269   0.213 -0.1669 -0.0849 -0.3914
 3779SOL     OW14881   0.735   3.447   0.614 -0.2944  0.2300 -0.0278
 3779SOL    HW214882   0.708   3.537   0.630  0.4605  0.3148  0.8759
 3779SOL    HW314883   0.679   3.417   0.543  0.2040  1.7681 -1.1013
 3779SOL    MW414884   0.724   3.455   0.607 -0.1290  0.4441 -0.0502
 3780SOL     OW14885   0.403   3.431   3.441 -0.3317  0.6089  0.2124
 3780SOL    HW214886   0.340   3.502   3.456  1.3531  1.7153  2.6121
 3780SOL    HW314887   0.463   3.435   3.515  1.9787 -1.0673 -1.4069
 3780SOL    MW414888   0.403   3.441   3.452  0.1954  0.5338  0.3154
 3781SOL     OW14889   3.220   1.241   4.851 -0.1291  0.6399 -0.2705
 3781SOL    HW214890   3.284   1.217   4.783  0.2054  0.9256 -0.0591
 3781SOL    HW314891   3.189   1.157   4.884  1.3409  0.4600  0.7474
 3781SOL    MW414892   3.225   1.226   4.846  0.1090  0.6539 -0.1083
 3782SOL     OW14893   5.999   4.978   6.285  0.4822  0.0888  0.5948
 3782SOL    HW214894   5.975   5.011   6.198  0.6624  0.8544  0.8262
 3782SOL    HW314895   5.978   4.885   6.282  1.3725 -0.0986 -0.5976
 3782SOL    MW414896   5.993   4.970   6.273  0.6234  0.1651  0.4680
 3783SOL     OW14897   2.918   5.166   0.732 -0.2433  0.2310 -0.3701
 3783SOL    HW214898   2.949   5.104   0.798  0.0738  0.8846  0.1050
 3783SOL    HW314899   2.862   5.114   0.675  0.0951 -0.5152 -0.0357
 3783SOL    MW414900   2.915   5.151   0.733 -0.1568  0.2188 -0.2633
 3784SOL     OW14901   1.366   2.648   2.638 -0.2333 -0.3116  0.3591
 3784SOL    HW214902   1.437   2.697   2.679 -1.5637 -0.4220  3.0315
 3784SOL    HW314903   1.404   2.562   2.619  1.0391  0.4736 -0.7463
 3784SOL    MW414904   1.380   2.643   2.641 -0.2410 -0.2225  0.5658
 3785SOL     OW14905   2.473   2.397   2.832  0.2211 -0.0636  0.1018
 3785SOL    HW214906   2.532   2.389   2.757  0.6600 -0.5053  0.4908
 3785SOL    HW314907   2.385   2.399   2.792  0.4280 -0.6583 -0.4085
 3785SOL    MW414908   2.469   2.396   2.817  0.3063 -0.2003  0.0858
 3786SOL     OW14909   4.372   5.549   2.530 -0.3221  0.2258  0.0076
 3786SOL    HW214910   4.400   5.575   2.442 -0.1914  2.8638  0.7471
 3786SOL    HW314911   4.277   5.538   2.522 -0.2604  0.0462 -0.5429
 3786SOL    MW414912   4.363   5.551   2.517 -0.2968  0.5502  0.0325
 3787SOL     OW14913   2.709   5.194   0.932  0.1666  0.2146 -0.7419
 3787SOL    HW214914   2.735   5.138   1.005 -1.4920  1.1855  0.6869
 3787SOL    HW314915   2.790   5.234   0.901  0.8409  0.2371  0.9781
 3787SOL    MW414916   2.723   5.191   0.937  0.0368  0.3457 -0.3265
 3788SOL     OW14917   3.556   2.807   5.014  0.2348 -0.1064  0.2434
 3788SOL    HW214918   3.557   2.894   4.973  0.5822  0.6003  1.6845
 3788SOL    HW314919   3.648   2.791   5.037  0.1506 -0.8077  0.1159
 3788SOL    MW414920   3.568   2.817   5.012  0.2695 -0.1057  0.4167
 3789SOL     OW14921   5.587   5.029   2.174 -0.3313 -0.1198 -0.1782
 3789SOL    HW214922   5.631   5.070   2.099  0.9575 -2.4268 -0.7925
 3789SOL    HW314923   5.649   5.037   2.246 -0.2553 -0.5415 -0.1897
 3789SOL    MW414924   5.601   5.035   2.173 -0.1513 -0.4799 -0.2608
 3790SOL     OW14925   1.001   1.323   2.722 -0.0344  0.9532  0.2164
 3790SOL    HW214926   1.037   1.321   2.811  0.5066  0.7636  0.0008
 3790SOL    HW314927   1.071   1.287   2.668 -0.3019  1.2183 -0.3090
 3790SOL    MW414928   1.015   1.318   2.727  0.0017  0.9632  0.1187
 3791SOL     OW14929   0.549   6.365   5.661  0.3096  0.4839  0.3276
 3791SOL    HW214930   0.468   6.406   5.692 -0.1617  1.7826 -2.2873
 3791SOL    HW314931   0.613   6.435   5.661  1.0771 -0.1997  1.0540
 3791SOL    MW414932   0.547   6.379   5.665  0.3487  0.5651  0.0784
 3792SOL     OW14933   4.398   0.060   2.038 -0.1020 -0.6547  0.0695
 3792SOL    HW214934   4.350   0.031   2.115 -1.0264 -0.9323 -0.5978
 3792SOL    HW314935   4.402  -0.016   1.981 -2.7091  0.4482 -1.7773
 3792SOL    MW414936   4.392   0.046   2.041 -0.5679 -0.5458 -0.2622
 3793SOL     OW14937   3.840   2.973   5.731  0.1268 -0.0982  0.0460
 3793SOL    HW214938   3.798   2.966   5.817 -0.7224 -0.8643 -0.4186
 3793SOL    HW314939   3.907   2.904   5.731  0.5390  0.2997  0.3166
 3793SOL    MW414940   3.844   2.963   5.742  0.0692 -0.1468  0.0204
 3794SOL     OW14941   6.074   4.001   0.922 -0.9404  0.0671  0.0549
 3794SOL    HW214942   6.001   4.033   0.868 -1.3398  0.0910  0.5992
 3794SOL    HW314943   6.074   4.058   0.999 -0.8312 -0.4169  0.4162
 3794SOL    MW414944   6.064   4.013   0.925 -0.9787  0.0064  0.1744
 3795SOL     OW14945   3.211   3.638   3.506 -0.0199 -0.1489 -0.0593
 3795SOL    HW214946   3.206   3.696   3.582 -0.5024  1.1989 -1.0869
 3795SOL    HW314947   3.194   3.550   3.542  0.0154  0.4164  1.4161
 3795SOL    MW414948   3.208   3.634   3.521 -0.0789  0.1035 -0.0002
 3796SOL     OW14949   3.313   2.606   3.271 -0.5853 -0.0444  0.1666
 3796SOL    HW214950   3.244   2.667   3.245 -2.2023 -1.8221  0.0365
 3796SOL    HW314951   3.392   2.659   3.275 -1.8699  1.9982 -0.1080
 3796SOL    MW414952   3.314   2.621   3.269 -0.9681 -0.0094  0.1132
 3797SOL     OW14953   4.806   4.749   5.516  0.1619 -0.3127 -0.2677
 3797SOL    HW214954   4.763   4.699   5.446 -0.8055  1.1598 -0.7653
 3797SOL    HW314955   4.780   4.704   5.597  1.9853 -2.5599 -0.8129
 3797SOL    MW414956   4.797   4.736   5.517  0.2749 -0.4149 -0.4053
 3798SOL     OW14957   5.941   5.362   3.389 -0.2489 -0.3738 -0.4421
 3798SOL    HW214958   5.847   5.377   3.383 -0.3521 -0.5224  0.6847
 3798SOL    HW314959   5.979   5.434   3.338 -0.9226  0.5410  0.3174
 3798SOL    MW414960   5.934   5.374   3.381 -0.3514 -0.2727 -0.1932
 3799SOL     OW14961   1.017   1.547   1.494 -0.1105  0.7251  0.8008
 3799SOL    HW214962   1.101   1.537   1.539  0.7741  0.2846 -0.8569
 3799SOL    HW314963   1.007   1.642   1.482  0.7713  0.7302 -0.0473
 3799SOL    MW414964   1.027   1.558   1.498  0.1225  0.6677  0.4702
 3800SOL     OW14965   5.534   6.022   3.326 -0.2690 -0.8010 -0.1110
 3800SOL    HW214966   5.443   6.040   3.304 -0.3869 -0.8456  0.3197
 3800SOL    HW314967   5.574   5.992   3.244 -0.2977  0.4864 -0.6093
 3800SOL    MW414968   5.527   6.020   3.313 -0.2883 -0.6370 -0.1199
 3801SOL     OW14969   2.857   3.605   1.489  0.0844  0.1879  0.0247
 3801SOL    HW214970   2.873   3.685   1.539  1.6625  0.3932 -0.7309
 3801SOL    HW314971   2.933   3.598   1.430  1.0914 -2.9823  1.4748
 3801SOL    MW414972   2.869   3.615   1.488  0.4254 -0.2033  0.1164
 3802SOL     OW14973   6.030   1.508   6.084 -0.3727 -0.1046 -0.4799
 3802SOL    HW214974   6.090   1.439   6.056 -1.3966 -0.7484 -1.1842
 3802SOL    HW314975   5.945   1.482   6.047 -0.9044  1.2309 -0.2548
 3802SOL    MW414976   6.027   1.495   6.076 -0.5779 -0.0133 -0.5431
 3803SOL     OW14977   6.153   5.206   1.785 -0.0490 -0.6043  0.1567
 3803SOL    HW214978   6.117   5.164   1.863 -0.0426  1.0618  1.1152
 3803SOL    HW314979   6.089   5.274   1.762  1.3429  0.9100  0.5392
 3803SOL    MW414980   6.140   5.209   1.792  0.1355 -0.1847  0.3337
 3804SOL     OW14981   0.700   1.627   0.543 -0.6374  0.2511  0.4586
 3804SOL    HW214982   0.707   1.582   0.459 -1.6949 -2.6183  1.7569
 3804SOL    HW314983   0.606   1.640   0.556 -0.4169  1.6851  0.7156
 3804SOL    MW414984   0.689   1.623   0.534 -0.7478  0.0617  0.6638
 3805SOL     OW14985   0.027   1.721   0.907 -0.2207  0.2380  0.0784
 3805SOL    HW214986  -0.016   1.651   0.956 -0.8264 -0.0579 -0.8468
 3805SOL    HW314987  -0.042   1.786   0.892  0.1521  0.6877  0.2808
 3805SOL    MW414988   0.012   1.721   0.912 -0.2514  0.2583 -0.0170
 3806SOL     OW14989   1.351   6.307   0.738 -0.4280  0.0825  0.5268
 3806SOL    HW214990   1.360   6.349   0.823 -0.9829  1.2567  0.0300
 3806SOL    HW314991   1.403   6.227   0.745  0.3128  0.6372  1.6510
 3806SOL    MW414992   1.359   6.302   0.750 -0.4035  0.3106  0.6096
 3807SOL     OW14993   5.640   3.115   5.028  0.0642 -0.2479  0.7644
 3807SOL    HW214994   5.599   3.178   5.086  1.6682  1.7021 -0.1065
 3807SOL    HW314995   5.644   3.159   4.943 -0.1082 -2.1259 -0.2784
 3807SOL    MW414996   5.635   3.129   5.025  0.2531 -0.2384  0.5119
 3808SOL     OW14997   5.286   2.602   2.063 -0.2257  0.2728 -0.1061
 3808SOL    HW214998   5.268   2.691   2.092 -1.1782 -0.1476  0.6442
 3808SOL    HW314999   5.337   2.613   1.983  0.5100  1.4754  0.4999
 3808SOL    MW415000   5.290   2.615   2.056 -0.2543  0.3760  0.0728
 3809SOL     OW15001   2.821   4.627   2.936 -0.5185 -0.0665  0.1797
 3809SOL    HW215002   2.841   4.534   2.951 -1.5787 -0.6056 -1.4787
 3809SOL    HW315003   2.892   4.658   2.880 -0.6728 -0.1307 -0.0511
 3809SOL    MW415004   2.833   4.619   2.931 -0.6787 -0.1461 -0.0696
 3810SOL     OW15005   5.617   6.020   5.297 -0.1616  0.4224  0.0319
 3810SOL    HW215006   5.584   5.931   5.310 -2.7070  1.4764  1.5660
 3810SOL    HW315007   5.665   6.040   5.377  1.5015  0.0417 -0.8353
 3810SOL    MW415008   5.619   6.011   5.309 -0.2780  0.5112  0.1199
 3811SOL     OW15009   0.184   6.242   3.951 -0.1072  0.1706  0.3953
 3811SOL    HW215010   0.134   6.177   4.000 -2.1447  0.8753 -0.6564
 3811SOL    HW315011   0.152   6.327   3.982  2.1576  0.7569  1.3879
 3811SOL    MW415012   0.173   6.245   3.962 -0.0772  0.3410  0.3875
 3812SOL     OW15013   1.737   2.542   2.149 -0.3915  0.1837 -0.1379
 3812SOL    HW215014   1.746   2.516   2.240  0.9666 -0.9584 -0.5636
 3812SOL    HW315015   1.648   2.516   2.125 -0.6720  0.2691  0.7796
 3812SOL    MW415016   1.727   2.535   2.158 -0.2493  0.0443 -0.0730
 3813SOL     OW15017   5.976   3.302   4.507 -0.3716 -0.3341  0.4783
 3813SOL    HW215018   6.057   3.321   4.554 -0.5133 -0.6983  0.8775
 3813SOL    HW315019   6.000   3.307   4.414 -0.3161  1.3725  0.5570
 3813SOL    MW415020   5.990   3.305   4.501 -0.3830 -0.1570  0.5414
 3814SOL     OW15021   1.799   0.686   5.742 -0.2253 -0.3565  0.0158
 3814SOL    HW215022   1.738   0.613   5.733 -1.0925  0.4222 -0.7328
 3814SOL    HW315023   1.743   0.764   5.747  0.6066  0.1736  2.4044
 3814SOL    MW415024   1.783   0.687   5.741 -0.2299 -0.1838  0.2321
 3815SOL     OW15025   1.457   1.051   6.148 -0.4699  0.3180  1.0069
 3815SOL    HW215026   1.369   1.038   6.182 -0.3747  0.6653  1.3984
 3815SOL    HW315027   1.463   0.991   6.074 -1.3744  0.9862  0.3652
 3815SOL    MW415028   1.446   1.041   6.143 -0.5767  0.4520  0.9739
 3816SOL     OW15029   1.350   6.207   2.352 -0.6832 -0.2988 -0.0452
 3816SOL    HW215030   1.429   6.153   2.344  0.1061  0.8401 -0.1511
 3816SOL    HW315031   1.337   6.243   2.264 -2.0289 -1.4076 -0.3345
 3816SOL    MW415032   1.359   6.205   2.339 -0.7566 -0.2948 -0.0974
 3817SOL     OW15033   0.724   1.806   1.563 -0.2464 -0.3673 -0.8080
 3817SOL    HW215034   0.664   1.814   1.489 -1.0250  0.8735 -0.0790
 3817SOL    HW315035   0.672   1.763   1.631 -1.1043  2.5429  0.5532
 3817SOL    MW415036   0.709   1.801   1.563 -0.4623  0.1804 -0.5322
 3818SOL     OW15037   5.770   6.232   5.490 -0.2902  0.3008 -0.1793
 3818SOL    HW215038   5.762   6.288   5.568 -0.3260 -0.5173  0.4169
 3818SOL    HW315039   5.827   6.282   5.431  0.3643  0.6071  0.6847
 3818SOL    MW415040   5.777   6.246   5.493 -0.2086  0.2333  0.0133
 3819SOL     OW15041   3.987   0.286   5.850  0.0430  0.3239  0.0449
 3819SOL    HW215042   4.028   0.262   5.934  0.0930 -0.4253 -0.1891
 3819SOL    HW315043   4.015   0.376   5.835 -2.0510  1.4353  2.1156
 3819SOL    MW415044   3.997   0.294   5.859 -0.2267  0.3717  0.2872
 3820SOL     OW15045   4.872   3.401   4.500 -1.1713  0.0911  0.2852
 3820SOL    HW215046   4.863   3.312   4.465  0.1378 -0.7320  1.8956
 3820SOL    HW315047   4.911   3.389   4.587 -1.0886  2.2382  0.6031
 3820SOL    MW415048   4.876   3.387   4.507 -0.9877  0.2658  0.5396
 3821SOL     OW15049   6.149   0.743   2.646  0.5927  0.0301  0.5513
 3821SOL    HW215050   6.192   0.680   2.589  0.1378  0.5242 -0.3506
 3821SOL    HW315051   6.061   0.708   2.658  0.3600  0.4530  0.1028
 3821SOL    MW415052   6.143   0.730   2.640  0.5020  0.1511  0.3732
 3822SOL     OW15053   4.354   2.183   1.293  0.1571  0.1408 -0.0848
 3822SOL    HW215054   4.385   2.113   1.235 -1.7275  0.2566 -1.3185
 3822SOL    HW315055   4.340   2.139   1.377  0.8356 -0.5273 -0.3076
 3822SOL    MW415056   4.356   2.168   1.296 -0.0021  0.0679 -0.2770
 3823SOL     OW15057   5.718   6.343   5.797 -0.2100  0.1247 -0.1968
 3823SOL    HW215058   5.682   6.379   5.878 -1.3598 -0.2443 -0.5326
 3823SOL    HW315059   5.685   6.253   5.794 -0.0480  0.0884 -1.0102
 3823SOL    MW415060   5.709   6.335   5.807 -0.3403  0.0712 -0.3485
 3824SOL     OW15061   2.342   0.783   5.751 -0.6721  0.0610 -0.1555
 3824SOL    HW215062   2.275   0.736   5.701  0.2949  0.1359 -1.6007
 3824SOL    HW315063   2.385   0.715   5.803 -1.9288  0.0339  0.8893
 3824SOL    MW415064   2.339   0.768   5.751 -0.7103  0.0673 -0.2083
 3825SOL     OW15065   5.917   3.584   6.027  0.4272 -0.3492 -0.4046
 3825SOL    HW215066   5.846   3.645   6.044  1.0675  1.0479 -2.3449
 3825SOL    HW315067   5.985   3.607   6.090  0.9213  1.4779 -1.5178
 3825SOL    MW415068   5.917   3.595   6.037  0.5769  0.0762 -0.8075
 3826SOL     OW15069   0.075   1.090   0.202  0.3622  0.5061  0.0755
 3826SOL    HW215070   0.153   1.068   0.151  0.0938 -0.0370 -0.1025
 3826SOL    HW315071   0.078   1.030   0.276  0.8167  1.3717  0.7845
 3826SOL    MW415072   0.086   1.079   0.205  0.3868  0.5486  0.1455
 3827SOL     OW15073   3.051   5.318   2.867  0.5858  0.4973 -0.5007
 3827SOL    HW215074   3.099   5.244   2.830  0.1569  0.2267 -0.5282
 3827SOL    HW315075   3.109   5.393   2.856  3.0218 -0.5189  3.5718
 3827SOL    MW415076   3.065   5.318   2.861  0.8506  0.3275  0.0330
 3828SOL     OW15077   1.634   2.462   3.364 -0.1072 -0.0962  0.0378
 3828SOL    HW215078   1.548   2.465   3.405  0.7059 -0.3819  1.8540
 3828SOL    HW315079   1.621   2.504   3.279 -2.1404 -0.6045  0.0420
 3828SOL    MW415080   1.621   2.468   3.358 -0.2682 -0.2009  0.2780
 3829SOL     OW15081   4.148   3.271   2.150 -0.8048  0.6781  0.8514
 3829SOL    HW215082   4.064   3.257   2.194 -1.0772  0.0610  0.1577
 3829SOL    HW315083   4.125   3.288   2.059 -0.1763  0.4513  0.6444
 3829SOL    MW415084   4.134   3.271   2.144 -0.7578  0.5667  0.7325
 3830SOL     OW15085   2.077   3.257   3.730  0.7073 -0.3339 -0.1413
 3830SOL    HW215086   2.165   3.282   3.702  0.3086  1.3251 -0.0207
 3830SOL    HW315087   2.050   3.189   3.668  0.5298  1.9531 -2.7578
 3830SOL    MW415088   2.085   3.251   3.718  0.6313  0.1867 -0.4706
 3831SOL     OW15089   5.132   5.948   5.391  0.0228 -0.2331 -0.0058
 3831SOL    HW215090   5.195   5.992   5.334  1.1165 -0.7411  0.7702
 3831SOL    HW315091   5.137   5.997   5.474 -0.1016 -0.6770  0.2676
 3831SOL    MW415092   5.141   5.960   5.395  0.1507 -0.3587  0.1327
 3832SOL     OW15093   5.716   2.604   2.524 -0.2452 -0.4363  0.8160
 3832SOL    HW215094   5.756   2.617   2.610 -1.0963 -1.6268  1.4237
 3832SOL    HW315095   5.744   2.679   2.473 -0.5715  0.8583  2.4523
 3832SOL    MW415096   5.725   2.615   2.529 -0.4006 -0.4226  1.1121
 3833SOL     OW15097   4.610   4.150   1.272 -0.2860 -0.1707  0.2488
 3833SOL    HW215098   4.635   4.142   1.364 -0.9179 -0.1064  0.4247
 3833SOL    HW315099   4.515   4.138   1.271 -0.5913  1.8941 -0.1226
 3833SOL    MW415100   4.601   4.148   1.284 -0.4097  0.1102  0.2230
 3834SOL     OW15101   0.782   4.247   5.507  0.2776  0.5002  0.5543
 3834SOL    HW215102   0.702   4.274   5.462  0.9144  0.0027 -0.9578
 3834SOL    HW315103   0.776   4.152   5.511  0.8110  0.4540  0.3642
 3834SOL    MW415104   0.770   4.238   5.502  0.4320  0.4285  0.3297
 3835SOL     OW15105   6.400   1.557   2.786  0.1473 -0.5386 -0.3754
 3835SOL    HW215106   6.352   1.532   2.707 -1.5137  0.4529  0.2823
 3835SOL    HW315107   6.377   1.648   2.800  1.9603 -0.1170  0.2032
 3835SOL    MW415108   6.391   1.566   2.777  0.1673 -0.3521 -0.2123
 3836SOL     OW15109   0.284   0.884   3.896  0.2242 -0.2954 -0.3201
 3836SOL    HW215110   0.318   0.973   3.891  0.3938 -0.2417  1.2479
 3836SOL    HW315111   0.327   0.847   3.973 -1.2272 -1.1189  0.1250
 3836SOL    MW415112   0.295   0.891   3.906  0.0551 -0.3969 -0.0545
 3837SOL     OW15113   1.574   3.001   3.802  0.7168  0.3053 -0.0534
 3837SOL    HW215114   1.578   3.096   3.806 -1.9724  0.4736  0.9212
 3837SOL    HW315115   1.600   2.979   3.712  0.2261  2.0577 -0.6611
 3837SOL    MW415116   1.578   3.011   3.790  0.2972  0.5587 -0.0050
 3838SOL     OW15117   2.706   4.285   0.223 -0.4416 -0.0740 -1.1038
 3838SOL    HW215118   2.663   4.310   0.304  0.7318  0.9249 -0.7394
 3838SOL    HW315119   2.797   4.270   0.248 -0.2436 -0.5890 -2.0876
 3838SOL    MW415120   2.713   4.287   0.237 -0.2607 -0.0102 -1.1855
 3839SOL     OW15121   5.632   2.394   3.160  0.4933  0.0111 -0.7817
 3839SOL    HW215122   5.567   2.359   3.221 -0.9825  3.0272 -0.4385
 3839SOL    HW315123   5.715   2.383   3.205 -0.2611 -0.2661  0.5914
 3839SOL    MW415124   5.634   2.388   3.174  0.1990  0.3725 -0.5553
 3840SOL     OW15125   3.544   4.221   3.927 -0.0436  0.3214 -0.3171
 3840SOL    HW215126   3.559   4.183   3.841  1.0425  1.3921 -0.6391
 3840SOL    HW315127   3.595   4.302   3.927  0.7905 -0.1207  1.6587
 3840SOL    MW415128   3.553   4.227   3.916  0.2097  0.4044 -0.0989
 3841SOL     OW15129   2.043   6.295   2.710  0.0595  0.5316  0.6852
 3841SOL    HW215130   2.018   6.386   2.694 -1.1990  0.1433  0.3345
 3841SOL    HW315131   2.065   6.293   2.804  0.5324  1.2819  0.5976
 3841SOL    MW415132   2.043   6.307   2.720 -0.0442  0.5793  0.6274
 3842SOL     OW15133   2.377   5.219   1.487 -0.1914 -0.1047  0.4569
 3842SOL    HW215134   2.464   5.182   1.499 -0.5747 -1.0667  0.3484
 3842SOL    HW315135   2.391   5.297   1.433  0.2847 -1.9754 -2.2940
 3842SOL    MW415136   2.390   5.225   1.481 -0.1792 -0.4785  0.0797
 3843SOL     OW15137   2.126   2.771   0.261  1.0642 -0.1126  0.4729
 3843SOL    HW215138   2.180   2.835   0.216 -0.0409  1.3280  1.0980
 3843SOL    HW315139   2.088   2.819   0.334 -0.8638 -1.1156  0.1975
 3843SOL    MW415140   2.128   2.786   0.265  0.6640 -0.0549  0.5191
 3844SOL     OW15141   5.850   0.900   1.072 -0.1514  0.9522 -0.4606
 3844SOL    HW215142   5.854   0.805   1.061 -0.8163  1.0028 -1.2139
 3844SOL    HW315143   5.764   0.916   1.110 -1.0485  1.4235 -2.5391
 3844SOL    MW415144   5.839   0.889   1.076 -0.3575  1.0211 -0.8342
 3845SOL     OW15145   5.602   1.604   2.570 -0.3875 -0.2444 -0.1150
 3845SOL    HW215146   5.610   1.667   2.641  0.5969 -0.7411  0.2300
 3845SOL    HW315147   5.560   1.653   2.499  0.8081  0.9462 -0.0353
 3845SOL    MW415148   5.597   1.619   2.570 -0.0999 -0.1529 -0.0589
 3846SOL     OW15149   5.652   0.559   0.327 -0.1171 -0.2505  0.0762
 3846SOL    HW215150   5.725   0.618   0.305 -0.9925  1.5629  1.7697
 3846SOL    HW315151   5.691   0.494   0.385 -0.1033  1.7374  2.4307
 3846SOL    MW415152   5.667   0.558   0.332 -0.2308  0.2510  0.6103
 3847SOL     OW15153   0.827   3.403   3.551  0.5743  0.2911 -0.6341
 3847SOL    HW215154   0.916   3.424   3.581 -0.4285  3.5126  0.5713
 3847SOL    HW315155   0.820   3.448   3.467 -0.3214  1.3618 -0.0185
 3847SOL    MW415156   0.838   3.412   3.544  0.3238  0.8574 -0.3939
 3848SOL     OW15157   0.273   2.471   3.737  0.8808 -0.3245 -0.8542
 3848SOL    HW215158   0.313   2.393   3.699  2.5426 -0.5035  1.0845
 3848SOL    HW315159   0.347   2.529   3.757 -0.0679  0.5675  0.2527
 3848SOL    MW415160   0.288   2.469   3.734  0.9749 -0.2304 -0.4524
 3849SOL     OW15161   5.474   3.672   2.804  0.1703  0.4396 -0.5378
 3849SOL    HW215162   5.396   3.668   2.749  1.3770 -0.1334 -2.2732
 3849SOL    HW315163   5.476   3.762   2.836 -1.9511  0.1058  0.7338
 3849SOL    MW415164   5.464   3.683   2.801  0.0496  0.3199 -0.5990
 3850SOL     OW15165   1.178   2.206   4.536 -0.4599 -0.0505 -0.0768
 3850SOL    HW215166   1.221   2.147   4.598 -0.0496 -0.0048 -0.3161
 3850SOL    HW315167   1.146   2.149   4.466 -0.3708 -0.0331 -0.1330
 3850SOL    MW415168   1.180   2.191   4.535 -0.3940 -0.0421 -0.1158
 3851SOL     OW15169   1.414   3.262   4.663 -0.2123 -0.5363  0.2067
 3851SOL    HW215170   1.442   3.353   4.651 -0.1826 -0.2878  1.8803
 3851SOL    HW315171   1.446   3.216   4.585 -1.4385  1.1355 -1.3622
 3851SOL    MW415172   1.422   3.268   4.651 -0.3702 -0.2829  0.2205
 3852SOL     OW15173   5.635   5.689   6.185  0.3424  0.0233 -0.4135
 3852SOL    HW215174   5.640   5.757   6.119 -0.5167 -0.8857 -1.4645
 3852SOL    HW315175   5.565   5.717   6.244  1.4562  1.0889  0.4485
 3852SOL    MW415176   5.626   5.701   6.184  0.3760  0.0439 -0.4385
 3853SOL     OW15177   3.253   0.914   5.411 -0.3781  0.4037 -0.0125
 3853SOL    HW215178   3.257   0.857   5.488  0.1582  0.2989 -0.1129
 3853SOL    HW315179   3.282   0.858   5.339  0.5035  0.9009 -0.0577
 3853SOL    MW415180   3.258   0.899   5.412 -0.1911  0.4555 -0.0317
 3854SOL     OW15181   3.158   5.089   2.718  1.0191 -0.4740  0.0015
 3854SOL    HW215182   3.100   5.050   2.784  1.3289  0.8356  1.0912
 3854SOL    HW315183   3.223   5.021   2.700  0.7353 -0.9739  0.8228
 3854SOL    MW415184   3.159   5.075   2.725  1.0225 -0.3672  0.2536
 3855SOL     OW15185   1.458   4.828   6.000  0.1286 -0.3552 -0.5211
 3855SOL    HW215186   1.363   4.825   5.986  0.2717  1.5556 -2.5335
 3855SOL    HW315187   1.468   4.834   6.095 -1.7418 -0.6016 -0.2534
 3855SOL    MW415188   1.447   4.828   6.010 -0.0993 -0.1356 -0.7513
 3856SOL     OW15189   3.283   6.188   2.621  0.2009  0.4218 -0.3557
 3856SOL    HW215190   3.201   6.172   2.667  0.3573 -2.0832 -0.8011
 3856SOL    HW315191   3.258   6.244   2.547 -0.7926  1.0504  0.4329
 3856SOL    MW415192   3.269   6.193   2.617  0.0904  0.1742 -0.3104
 3857SOL     OW15193   1.218   3.780   0.506  0.0777 -0.6082 -0.1492
 3857SOL    HW215194   1.131   3.741   0.517 -0.0865  0.1054  1.4306
 3857SOL    HW315195   1.239   3.815   0.593  2.2138 -1.3002 -0.3320
 3857SOL    MW415196   1.209   3.779   0.519  0.3378 -0.6053  0.0351
 3858SOL     OW15197   5.117   0.361   6.116  0.1496  0.1772 -0.1161
 3858SOL    HW215198   5.101   0.285   6.060  0.7437 -0.5406  0.6558
 3858SOL    HW315199   5.030   0.394   6.137 -0.1590 -0.8393  0.2674
 3858SOL    MW415200   5.103   0.355   6.111  0.1872 -0.0516  0.0363
 3859SOL     OW15201   4.072   5.107   4.818 -0.0927 -0.0381 -0.0637
 3859SOL    HW215202   4.062   5.145   4.905  0.3311  1.6610 -0.7108
 3859SOL    HW315203   3.983   5.108   4.781 -0.3580 -1.2126  0.4962
 3859SOL    MW415204   4.059   5.113   4.824 -0.0718  0.0311 -0.0752
 3860SOL     OW15205   1.645   1.750   0.127 -0.0309  0.1192 -0.1097
 3860SOL    HW215206   1.692   1.805   0.065 -2.4658  0.9914 -1.3416
 3860SOL    HW315207   1.713   1.711   0.181  1.9836  2.2289 -0.9309
 3860SOL    MW415208   1.660   1.752   0.126 -0.0864  0.5126 -0.3806
 3861SOL     OW15209   3.884   0.903   2.268  0.1833  0.0727 -0.3757
 3861SOL    HW215210   3.978   0.921   2.266 -0.0222  1.2248 -0.4044
 3861SOL    HW315211   3.868   0.869   2.356  0.5724  0.2301 -0.2406
 3861SOL    MW415212   3.895   0.901   2.280  0.2075  0.2455 -0.3617
 3862SOL     OW15213   5.261   2.845   1.287 -0.4133  0.2841  0.8345
 3862SOL    HW215214   5.342   2.879   1.325  0.1919  0.2962 -0.4101
 3862SOL    HW315215   5.290   2.780   1.223 -1.4375 -0.4103  1.0485
 3862SOL    MW415216   5.275   2.841   1.284 -0.4686  0.1941  0.6985
 3863SOL     OW15217   5.721   4.307   4.058 -0.1573 -0.1261  0.4879
 3863SOL    HW215218   5.812   4.285   4.080 -0.2783  0.2391  1.4045
 3863SOL    HW315219   5.721   4.314   3.963  1.1642  1.4714  0.5508
 3863SOL    MW415220   5.733   4.305   4.049  0.0011  0.1329  0.6171
 3864SOL     OW15221   3.936   5.856   3.790  0.3678  0.0084 -0.4117
 3864SOL    HW215222   3.895   5.912   3.856  1.8640  0.1873  0.4397
 3864SOL    HW315223   3.871   5.846   3.721 -1.3909 -0.4352  1.2377
 3864SOL    MW415224   3.922   5.862   3.790  0.3332 -0.0266 -0.0817
 3865SOL     OW15225   2.336   4.871   4.694  0.4762 -0.6199  0.2123
 3865SOL    HW215226   2.422   4.847   4.729 -0.1100 -1.1385  1.3617
 3865SOL    HW315227   2.301   4.934   4.757 -0.2354 -0.8710  0.0793
 3865SOL    MW415228   2.343   4.877   4.707  0.3050 -0.7214  0.3464
 3866SOL     OW15229   5.819   1.810   1.575 -0.4995 -0.0976  0.2463
 3866SOL    HW215230   5.749   1.862   1.614 -0.3588 -0.7645  1.4631
 3866SOL    HW315231   5.860   1.868   1.511 -2.3384  0.2097 -0.7327
 3866SOL    MW415232   5.815   1.824   1.572 -0.7235 -0.1450  0.2777
 3867SOL     OW15233   4.711   5.922   2.958 -0.5549 -0.4249 -0.6391
 3867SOL    HW215234   4.646   5.964   2.903 -1.6303  0.0345  0.9074
 3867SOL    HW315235   4.660   5.877   3.025  0.7034  1.0271  1.4000
 3867SOL    MW415236   4.696   5.921   2.960 -0.5308 -0.1727 -0.1660
 3868SOL     OW15237   6.401   3.333   6.263 -0.5510  0.1859  0.0110
 3868SOL    HW215238   6.414   3.309   6.355  1.3950 -2.2515 -0.7987
 3868SOL    HW315239   6.397   3.249   6.217 -0.8008  1.3600 -2.2116
 3868SOL    MW415240   6.402   3.319   6.269 -0.3272  0.0192 -0.3891
 3869SOL     OW15241   5.681   6.388   2.397 -0.2678  0.0622  0.0222
 3869SOL    HW215242   5.696   6.293   2.389 -0.7932  0.0371 -0.7839
 3869SOL    HW315243   5.586   6.398   2.389 -0.1591  0.7109 -0.5314
 3869SOL    MW415244   5.670   6.376   2.395 -0.3228  0.1444 -0.1572
 3870SOL     OW15245   1.119   3.811   4.903  0.2330  0.1310  0.0942
 3870SOL    HW215246   1.100   3.877   4.836  3.8834 -0.4541 -1.8093
 3870SOL    HW315247   1.038   3.763   4.913 -0.6885  0.5415 -3.6804
 3870SOL    MW415248   1.106   3.814   4.895  0.5930  0.1080 -0.6550
 3871SOL     OW15249   6.002   1.123   1.621 -0.9265 -0.0675  0.4302
 3871SOL    HW215250   5.954   1.093   1.544  0.1402  0.1108 -0.3369
 3871SOL    HW315251   6.077   1.170   1.585 -0.6574  0.4255  1.5909
 3871SOL    MW415252   6.006   1.125   1.606 -0.7503  0.0211  0.4821
 3872SOL     OW15253   0.578   3.308   0.403  0.3946  0.1208  0.4184
 3872SOL    HW215254   0.494   3.334   0.366 -0.3727 -1.2101  1.1632
 3872SOL    HW315255   0.623   3.262   0.333 -0.8852 -2.0442  0.9527
 3872SOL    MW415256   0.573   3.306   0.389  0.1245 -0.3404  0.5872
 3873SOL     OW15257   0.964   1.783   0.026 -0.0462 -0.3096 -0.5287
 3873SOL    HW215258   1.038   1.829  -0.014 -0.0789 -0.5264 -0.8431
 3873SOL    HW315259   0.984   1.690   0.012  0.0453 -0.3974  0.1371
 3873SOL    MW415260   0.977   1.777   0.019 -0.0385 -0.3498 -0.4824
 3874SOL     OW15261   1.692   2.285   0.263 -0.8619 -0.2713 -0.1086
 3874SOL    HW215262   1.709   2.313   0.353 -0.3839 -2.0854  0.4051
 3874SOL    HW315263   1.775   2.249   0.233 -0.9457  0.5454 -1.4003
 3874SOL    MW415264   1.705   2.284   0.271 -0.8099 -0.4029 -0.2112
 3875SOL     OW15265   4.993   2.022   1.439 -0.2212 -0.2582  0.6291
 3875SOL    HW215266   4.929   1.951   1.432  0.2988 -0.9630  2.4638
 3875SOL    HW315267   5.016   2.025   1.532  2.2105  0.1342  0.0971
 3875SOL    MW415268   4.988   2.013   1.450  0.1683 -0.2994  0.8010
 3876SOL     OW15269   3.432   3.289   4.852  0.4859 -0.2004 -0.2512
 3876SOL    HW215270   3.373   3.214   4.853  0.1674  0.0506 -0.2322
 3876SOL    HW315271   3.399   3.345   4.783  1.2062 -0.4534 -0.8137
 3876SOL    MW415272   3.420   3.286   4.843  0.5389 -0.2006 -0.3229
 3877SOL     OW15273   3.029   1.895   1.321  0.5981  0.1486 -0.1104
 3877SOL    HW215274   3.110   1.893   1.372 -0.0391 -1.6004  0.9398
 3877SOL    HW315275   3.036   1.821   1.261 -0.8163 -1.0118  1.0705
 3877SOL    MW415276   3.041   1.885   1.320  0.3274 -0.2353  0.1840
 3878SOL     OW15277   5.593   6.044   1.592  0.1034 -0.0192  0.0318
 3878SOL    HW215278   5.589   5.949   1.580  0.1410  0.1310 -1.3060
 3878SOL    HW315279   5.640   6.076   1.516  0.6028  1.0394  0.7559
 3878SOL    MW415280   5.598   6.036   1.581  0.1743  0.1403 -0.0492
 3879SOL     OW15281   2.080   3.213   0.217 -0.0950  0.3285 -0.2639
 3879SOL    HW215282   1.994   3.227   0.257 -0.3472  0.3336 -0.8017
 3879SOL    HW315283   2.141   3.219   0.291 -0.5282  0.5863  0.0841
 3879SOL    MW415284   2.077   3.216   0.232 -0.1855  0.3632 -0.2890
 3880SOL     OW15285   1.381   3.101   0.922 -0.0254  0.0080  0.3879
 3880SOL    HW215286   1.391   3.011   0.893  1.8865  0.3704 -0.2026
 3880SOL    HW315287   1.429   3.153   0.858 -2.9921  1.7430 -0.6433
 3880SOL    MW415288   1.389   3.096   0.910 -0.1645  0.2848  0.1739
 3881SOL     OW15289   1.552   2.867   4.441  0.0326  0.1941  0.2235
 3881SOL    HW215290   1.626   2.807   4.430  0.6331  0.8083  0.8021
 3881SOL    HW315291   1.479   2.822   4.400  1.0874  0.3143 -1.9019
 3881SOL    MW415292   1.553   2.853   4.434  0.2510  0.2910  0.0194
 3882SOL     OW15293   1.761   1.902   5.757 -0.0294 -0.0629  1.0277
 3882SOL    HW215294   1.754   1.864   5.670 -2.3796  0.1925  1.0496
 3882SOL    HW315295   1.854   1.895   5.779  0.3474 -1.5683 -0.8254
 3882SOL    MW415296   1.772   1.896   5.748 -0.2898 -0.2278  0.7861
 3883SOL     OW15297   3.847   5.835   3.103  0.1324  0.5918 -0.2909
 3883SOL    HW215298   3.922   5.834   3.162 -1.3222  0.8630  1.6635
 3883SOL    HW315299   3.812   5.746   3.107  1.5135 -0.1645 -2.8833
 3883SOL    MW415300   3.852   5.823   3.111  0.1227  0.5278 -0.3751
 3884SOL     OW15301   5.549   1.776  -0.000  0.2378 -0.3023 -0.7303
 3884SOL    HW215302   5.523   1.693   0.040  0.4868  0.7849  1.8835
 3884SOL    HW315303   5.635   1.795   0.037 -0.2735  1.6134 -0.3974
 3884SOL    MW415304   5.557   1.767   0.010  0.2032  0.0939 -0.3415
 3885SOL     OW15305   5.828   6.003   0.359  1.0542 -0.1221  0.3382
 3885SOL    HW215306   5.734   5.989   0.367  0.9807  0.7334  1.2244
 3885SOL    HW315307   5.846   5.995   0.265 -0.3791  2.2978 -0.2381
 3885SOL    MW415308   5.818   6.000   0.347  0.8554  0.3101  0.3791
 3886SOL     OW15309   5.346   4.132   5.773 -0.1810  0.1915  0.0570
 3886SOL    HW215310   5.288   4.206   5.792 -1.4804 -0.7602 -0.1200
 3886SOL    HW315311   5.322   4.065   5.836  1.1289 -0.0315  0.3463
 3886SOL    MW415312   5.335   4.133   5.784 -0.1796  0.0365  0.0718
 3887SOL     OW15313   0.349   4.343   1.792 -0.2776  0.4948 -0.5030
 3887SOL    HW215314   0.406   4.410   1.830 -2.2778  0.8736  2.1194
 3887SOL    HW315315   0.316   4.383   1.711  0.8347  1.4423 -0.5188
 3887SOL    MW415316   0.352   4.357   1.786 -0.3948  0.6698 -0.1591
 3888SOL     OW15317   3.204   6.365   0.108  0.2110 -0.2706  0.4427
 3888SOL    HW215318   3.253   6.445   0.125  0.2205 -0.2235  0.2077
 3888SOL    HW315319   3.259   6.316   0.045 -0.0147 -0.2420  0.2204
 3888SOL    MW415320   3.218   6.369   0.102  0.1824 -0.2606  0.3823
 3889SOL     OW15321   3.885   4.358   3.408  0.4374 -0.0418 -0.4515
 3889SOL    HW215322   3.823   4.288   3.428  0.7091 -1.4224 -3.8274
 3889SOL    HW315323   3.832   4.428   3.370  0.6113 -0.1050 -0.8190
 3889SOL    MW415324   3.870   4.358   3.406  0.4962 -0.2323 -0.9454
 3890SOL     OW15325   2.265   3.114   3.085  0.1420 -0.3175 -0.1388
 3890SOL    HW215326   2.290   3.057   3.158  1.1657 -0.9021 -0.9321
 3890SOL    HW315327   2.328   3.185   3.087  0.8636 -0.9066 -1.1061
 3890SOL    MW415328   2.276   3.116   3.095  0.3723 -0.4723 -0.3711
 3891SOL     OW15329   4.389   5.666   0.787  0.3382  0.4352  0.4848
 3891SOL    HW215330   4.399   5.714   0.870 -0.0186  2.1756 -0.4228
 3891SOL    HW315331   4.460   5.602   0.788  2.3539  2.5320  0.7734
 3891SOL    MW415332   4.400   5.664   0.798  0.5571  0.9415  0.4031
 3892SOL     OW15333   1.085   6.130   2.483  0.4268 -0.0665  0.0317
 3892SOL    HW215334   1.100   6.045   2.524 -1.4070 -0.8430 -0.7916
 3892SOL    HW315335   1.160   6.143   2.425  0.5973 -1.2674 -0.0397
 3892SOL    MW415336   1.097   6.121   2.481  0.2073 -0.3274 -0.0863
 3893SOL     OW15337   3.097   3.421   6.321  0.1180 -0.6058  0.2012
 3893SOL    HW215338   3.079   3.338   6.278 -1.3462 -0.3895  0.3539
 3893SOL    HW315339   3.139   3.475   6.254 -0.9668 -0.7125 -0.5778
 3893SOL    MW415340   3.100   3.417   6.307 -0.2183 -0.5913  0.1186
 3894SOL     OW15341   6.239   5.594   3.135  0.5397  0.1030  0.3579
 3894SOL    HW215342   6.241   5.628   3.046 -0.5087 -0.4802  0.0986
 3894SOL    HW315343   6.267   5.503   3.128  0.0344 -0.0764  0.5436
 3894SOL    MW415344   6.243   5.587   3.122  0.3347  0.0024  0.3482
 3895SOL     OW15345   5.441   0.331   4.682  0.0308  0.2607  0.4227
 3895SOL    HW215346   5.367   0.357   4.737 -0.2812  1.6179 -0.5848
 3895SOL    HW315347   5.406   0.262   4.626 -0.0853 -0.0406  0.8615
 3895SOL    MW415348   5.426   0.325   4.682 -0.0257  0.4000  0.3477
 3896SOL     OW15349   4.506   6.271   1.225  0.2744 -0.9350  0.4414
 3896SOL    HW215350   4.590   6.233   1.202  1.2998 -0.1801  2.6610
 3896SOL    HW315351   4.482   6.228   1.308 -1.3133 -0.8313  0.0681
 3896SOL    MW415352   4.514   6.260   1.233  0.2002 -0.8217  0.6850
 3897SOL     OW15353   0.936   4.067   2.460  0.8372 -0.2762  0.1724
 3897SOL    HW215354   0.950   4.152   2.502 -1.7218 -0.8049  2.3907
 3897SOL    HW315355   1.006   4.011   2.495  1.0833  0.3001  0.6200
 3897SOL    MW415356   0.947   4.071   2.471  0.5320 -0.2699  0.5241
 3898SOL     OW15357   3.793   0.081   1.589  0.5478  0.1744 -0.1074
 3898SOL    HW215358   3.863   0.039   1.640  0.0078  0.2823  0.7495
 3898SOL    HW315359   3.812   0.175   1.595  0.7698  0.1593 -0.5429
 3898SOL    MW415360   3.805   0.088   1.597  0.5059  0.1866 -0.0518
 3899SOL     OW15361   5.535   2.017   2.433  0.0143 -0.1379  0.0173
 3899SOL    HW215362   5.480   2.022   2.511 -1.0683 -0.6637 -0.6772
 3899SOL    HW315363   5.511   1.933   2.392  0.1429  0.3816 -1.1740
 3899SOL    MW415364   5.525   2.006   2.438 -0.1116 -0.1387 -0.2315
 3900SOL     OW15365   4.425   2.721   5.635  0.4243 -0.1055  0.5549
 3900SOL    HW215366   4.423   2.814   5.658 -1.6515  0.1198 -0.3375
 3900SOL    HW315367   4.457   2.678   5.714 -3.1162  0.9574  2.8329
 3900SOL    MW415368   4.429   2.728   5.649 -0.3167  0.0645  0.7377
 3901SOL     OW15369   0.033   2.656   5.903  0.3871 -0.5734 -0.0293
 3901SOL    HW215370  -0.003   2.682   5.988  0.0557 -0.3253 -0.2394
 3901SOL    HW315371   0.092   2.584   5.923 -0.3062 -1.0617  0.3245
 3901SOL    MW415372   0.036   2.650   5.917  0.2519 -0.6051 -0.0103
 3902SOL     OW15373   1.097   5.283   4.053 -0.0302  0.1035  0.5306
 3902SOL    HW215374   1.039   5.340   4.104 -0.3045  0.2487  0.0688
 3902SOL    HW315375   1.087   5.197   4.094  0.6123  0.4361  1.4140
 3902SOL    MW415376   1.088   5.279   4.065  0.0184  0.1666  0.5862
 3903SOL     OW15377   4.328   3.878   3.023 -0.5472 -0.2508 -0.4348
 3903SOL    HW215378   4.315   3.970   3.000 -1.1045 -0.6241 -1.7257
 3903SOL    HW315379   4.353   3.880   3.115 -1.2951  1.1475 -0.2254
 3903SOL    MW415380   4.329   3.891   3.032 -0.7194 -0.1156 -0.5775
 3904SOL     OW15381   0.207   2.548   0.523 -0.1646 -0.9621 -0.4478
 3904SOL    HW215382   0.255   2.630   0.521 -1.2464 -0.2405  1.0525
 3904SOL    HW315383   0.147   2.553   0.448 -0.9225  0.0976  0.2065
 3904SOL    MW415384   0.205   2.559   0.513 -0.4073 -0.7271 -0.1635
 3905SOL     OW15385   1.073   3.814   5.998 -0.0244  0.1330  0.3003
 3905SOL    HW215386   1.071   3.848   6.088  0.4162  0.1991  0.2876
 3905SOL    HW315387   1.081   3.892   5.943 -1.1344  0.1567  0.1517
 3905SOL    MW415388   1.073   3.829   6.003 -0.1127  0.1449  0.2790
 3906SOL     OW15389   4.588   1.336   3.886  0.0942  0.3122 -0.0599
 3906SOL    HW215390   4.627   1.257   3.848 -0.5717 -0.4563  0.7962
 3906SOL    HW315391   4.628   1.408   3.838 -0.7105 -0.5938 -2.2060
 3906SOL    MW415392   4.598   1.335   3.875 -0.0998  0.0913 -0.2301
 3907SOL     OW15393   4.467   4.013   3.774  0.2050 -0.2099  0.0956
 3907SOL    HW215394   4.536   4.052   3.720 -0.2160 -0.4519 -0.6251
 3907SOL    HW315395   4.390   4.068   3.758  0.0305 -0.3873  0.3186
 3907SOL    MW415396   4.466   4.025   3.765  0.1265 -0.2652  0.0299
 3908SOL     OW15397   4.938   5.406   5.045 -0.1437  0.0948 -0.2736
 3908SOL    HW215398   5.010   5.361   5.089 -0.7340 -0.2607  0.3505
 3908SOL    HW315399   4.883   5.438   5.116 -0.9355 -0.1906 -0.7490
 3908SOL    MW415400   4.941   5.404   5.060 -0.3261  0.0103 -0.2540
 3909SOL     OW15401   6.346   1.517   1.058 -0.1752  0.2990  0.1347
 3909SOL    HW215402   6.293   1.570   1.118 -2.3619 -1.3358 -0.2316
 3909SOL    HW315403   6.367   1.438   1.107 -0.7676 -0.4265 -0.7503
 3909SOL    MW415404   6.342   1.514   1.072 -0.5419 -0.0124 -0.0304
 3910SOL     OW15405   0.173   3.526   2.135  0.8907 -0.3979  0.2220
 3910SOL    HW215406   0.090   3.568   2.110  1.9840  0.8347 -1.5153
 3910SOL    HW315407   0.197   3.569   2.217 -1.1703 -2.2790  1.9705
 3910SOL    MW415408   0.165   3.537   2.142  0.7631 -0.4834  0.2234
 3911SOL     OW15409   6.024   2.475   6.249 -0.1151  0.1642 -0.3470
 3911SOL    HW215410   6.078   2.413   6.297 -0.4916 -0.9462 -1.3025
 3911SOL    HW315411   5.937   2.466   6.288 -0.3253 -0.4338 -0.9288
 3911SOL    MW415412   6.019   2.466   6.260 -0.1925 -0.0612 -0.5498
 3912SOL     OW15413   2.648   0.534   5.679 -0.2464 -0.1303  0.7557
 3912SOL    HW215414   2.688   0.453   5.709  0.3115 -0.8523 -1.6922
 3912SOL    HW315415   2.719   0.583   5.639 -0.8885  0.8494  0.7708
 3912SOL    MW415416   2.662   0.530   5.678 -0.2575 -0.0963  0.4348
 3913SOL     OW15417   2.432   5.489   5.990  0.0286 -0.2556  0.0513
 3913SOL    HW215418   2.376   5.489   5.912  0.1582 -3.0870 -0.1583
 3913SOL    HW315419   2.371   5.504   6.063 -1.1294 -3.1558 -0.1901
 3913SOL    MW415420   2.416   5.491   5.989 -0.1071 -1.0118 -0.0082
 3914SOL     OW15421   4.671   3.277   4.234 -0.3430 -0.4057 -0.1937
 3914SOL    HW215422   4.662   3.369   4.257  1.7801 -0.2432  0.2406
 3914SOL    HW315423   4.737   3.276   4.165 -0.5579 -1.5766 -0.4077
 3914SOL    MW415424   4.679   3.289   4.228 -0.0912 -0.5388 -0.1647
 3915SOL     OW15425   3.867   2.760   4.158 -0.2092  0.0245 -0.1033
 3915SOL    HW215426   3.810   2.756   4.082 -0.5056  1.3797  0.0190
 3915SOL    HW315427   3.849   2.679   4.206 -2.6061  0.7204  0.3148
 3915SOL    MW415428   3.857   2.749   4.155 -0.5645  0.2951 -0.0320
 3916SOL     OW15429   2.073   4.601   5.555  0.4244 -0.2234  0.0435
 3916SOL    HW215430   2.163   4.585   5.525  0.1393 -1.0247 -0.4120
 3916SOL    HW315431   2.023   4.528   5.519 -0.3030 -0.1071  0.7979
 3916SOL    MW415432   2.078   4.589   5.547  0.2908 -0.3138  0.0830
 3917SOL     OW15433   4.442   4.939   6.179 -0.8107  0.4047 -0.7547
 3917SOL    HW215434   4.526   4.894   6.176 -1.6623 -1.6226  1.8435
 3917SOL    HW315435   4.465   5.032   6.185  1.4630 -0.1757  2.3069
 3917SOL    MW415436   4.456   4.946   6.179 -0.6231  0.0606 -0.0079
 3918SOL     OW15437   6.039   0.246   0.854  0.0084  0.8834  0.1966
 3918SOL    HW215438   6.073   0.311   0.915  2.4428 -0.8877  0.8870
 3918SOL    HW315439   6.108   0.180   0.848 -2.0311 -1.3328 -0.9514
 3918SOL    MW415440   6.052   0.246   0.861  0.0605  0.3573  0.1362
 3919SOL     OW15441   1.942   3.371   3.159 -0.2180 -0.1415 -0.2599
 3919SOL    HW215442   1.959   3.401   3.248 -0.2408 -0.7237 -0.0612
 3919SOL    HW315443   1.995   3.429   3.104 -0.7198  0.6621  0.0723
 3919SOL    MW415444   1.951   3.383   3.163 -0.2872 -0.1123 -0.1899
 3920SOL     OW15445   5.407   1.275   5.906  0.1321 -0.6652  0.0413
 3920SOL    HW215446   5.375   1.241   5.823 -0.4150 -1.9643  0.7521
 3920SOL    HW315447   5.421   1.368   5.890 -3.5042 -0.0470 -0.5384
 3920SOL    MW415448   5.405   1.283   5.893 -0.4199 -0.7550  0.0586
 3921SOL     OW15449   6.284   5.147   2.624 -0.1719  0.6944  0.1491
 3921SOL    HW215450   6.283   5.241   2.608 -0.0319  0.2650 -2.9873
 3921SOL    HW315451   6.193   5.126   2.646  0.0459  1.6643  2.2832
 3921SOL    MW415452   6.272   5.156   2.625 -0.1247  0.7657  0.0169
 3922SOL     OW15453   1.267   0.225   0.641 -0.0684 -0.7308 -0.3807
 3922SOL    HW215454   1.187   0.173   0.630 -1.5086  1.0813  0.8121
 3922SOL    HW315455   1.237   0.316   0.637  1.9219  0.0118  0.3058
 3922SOL    MW415456   1.252   0.230   0.639  0.0042 -0.3938 -0.1327
 3923SOL     OW15457   2.105   2.553   6.300 -0.0808 -0.0885 -0.3016
 3923SOL    HW215458   2.047   2.528   6.372  0.9548 -2.5006 -0.2188
 3923SOL    HW315459   2.179   2.597   6.342 -0.5271  0.5470 -0.1553
 3923SOL    MW415460   2.107   2.556   6.315 -0.0030 -0.3229 -0.2713
 3924SOL     OW15461   1.102   0.416   0.067  0.2844  0.1344 -0.2090
 3924SOL    HW215462   1.019   0.460   0.046  0.3204  0.0312 -0.5811
 3924SOL    HW315463   1.081   0.323   0.066  0.0300  0.1608  1.3726
 3924SOL    MW415464   1.088   0.410   0.064  0.2556  0.1243 -0.0494
 3925SOL     OW15465   0.417   5.142   4.055 -0.2204  0.2839 -0.0728
 3925SOL    HW215466   0.455   5.188   4.129 -1.2944 -0.7321  1.1715
 3925SOL    HW315467   0.493   5.107   4.007  0.5260  1.8156 -0.0764
 3925SOL    MW415468   0.432   5.143   4.058 -0.2636  0.3519  0.0909
 3926SOL     OW15469   3.206   1.478   1.133 -0.2860 -0.6773 -0.1112
 3926SOL    HW215470   3.176   1.433   1.053  0.5643 -1.1105 -0.1902
 3926SOL    HW315471   3.225   1.407   1.195  1.6572 -0.4908 -0.4413
 3926SOL    MW415472   3.204   1.462   1.130  0.0826 -0.7098 -0.1652
 3927SOL     OW15473   2.789   1.647   5.976  0.5393  0.1690  0.3565
 3927SOL    HW215474   2.826   1.588   5.911  0.7602  0.4363  0.2412
 3927SOL    HW315475   2.712   1.600   6.009 -0.3505  0.5968 -1.0318
 3927SOL    MW415476   2.784   1.633   5.972  0.4510  0.2607  0.1582
 3928SOL     OW15477   3.690   0.486   5.530 -0.8357 -0.1285  0.1755
 3928SOL    HW215478   3.676   0.391   5.532 -0.9756 -0.0955  0.9069
 3928SOL    HW315479   3.696   0.512   5.622  0.4653  0.3928 -0.0252
 3928SOL    MW415480   3.689   0.477   5.542 -0.6825 -0.0554  0.2455
 3929SOL     OW15481   4.306   2.072   1.547 -0.4804 -0.5033 -0.1515
 3929SOL    HW215482   4.246   2.000   1.528  0.1979 -1.9183  2.5060
 3929SOL    HW315483   4.388   2.028   1.573 -0.2091  1.1462  2.0766
 3929SOL    MW415484   4.309   2.057   1.548 -0.3551 -0.4723  0.4931
 3930SOL     OW15485   3.133   4.446   1.705 -0.0461  0.2237  0.6464
 3930SOL    HW215486   3.164   4.437   1.615  0.2633  1.7342  0.5835
 3930SOL    HW315487   3.110   4.538   1.713  2.7283  0.8462  2.9711
 3930SOL    MW415488   3.134   4.457   1.694  0.3608  0.5051  0.9448
 3931SOL     OW15489   1.841   2.792   2.157  0.0442 -0.6602  0.0426
 3931SOL    HW215490   1.926   2.763   2.125  0.0085 -1.0403  0.2913
 3931SOL    HW315491   1.784   2.716   2.148 -0.4394 -0.2201 -0.7211
 3931SOL    MW415492   1.845   2.778   2.152 -0.0243 -0.6523 -0.0253
 3932SOL     OW15493   3.519   1.680   5.954 -0.1964  0.0535 -0.5235
 3932SOL    HW215494   3.497   1.731   5.877 -0.5755  0.3081 -0.2495
 3932SOL    HW315495   3.613   1.694   5.967 -0.8996  3.9858  1.8817
 3932SOL    MW415496   3.529   1.688   5.946 -0.3392  0.6059 -0.1700
 3933SOL     OW15497   3.105   2.597   1.311 -0.2690 -0.1755 -0.4807
 3933SOL    HW215498   3.161   2.651   1.366 -0.3733  0.0130 -0.5570
 3933SOL    HW315499   3.132   2.618   1.222 -1.1125  0.6547 -0.5621
 3933SOL    MW415500   3.116   2.607   1.307 -0.3940 -0.0411 -0.5015
 3934SOL     OW15501   2.020   3.557   6.137 -0.4847 -0.1159 -0.2563
 3934SOL    HW215502   2.043   3.636   6.186 -0.7413  0.2453 -0.7103
 3934SOL    HW315503   1.978   3.500   6.202  2.2708 -1.1145  0.7821
 3934SOL    MW415504   2.017   3.560   6.152 -0.1550 -0.2000 -0.1792
 3935SOL     OW15505   0.450   0.542   5.612  0.2481  0.4945  0.3969
 3935SOL    HW215506   0.417   0.570   5.527 -0.0771 -0.6931  0.1159
 3935SOL    HW315507   0.464   0.448   5.603 -0.3342  0.2383  1.8111
 3935SOL    MW415508   0.447   0.534   5.600  0.1283  0.3040  0.5464
 3936SOL     OW15509   5.018   6.346   1.575 -0.4648  0.2914 -0.2713
 3936SOL    HW215510   4.945   6.300   1.532 -1.2798  0.2585  1.0921
 3936SOL    HW315511   4.984   6.433   1.594 -0.2155  0.2228  0.5227
 3936SOL    MW415512   5.004   6.351   1.571 -0.5395  0.2780  0.0133
 3937SOL     OW15513   5.577   3.790   4.408  0.0274 -0.3973  0.2439
 3937SOL    HW215514   5.597   3.873   4.451 -0.0956 -1.0665  1.6580
 3937SOL    HW315515   5.585   3.725   4.477 -3.0472 -1.2169 -0.0283
 3937SOL    MW415516   5.581   3.792   4.422 -0.3944 -0.5937  0.3946
 3938SOL     OW15517   1.497   0.873   0.619 -0.5780  0.4258  0.1671
 3938SOL    HW215518   1.408   0.837   0.617 -0.5959  0.5230 -0.9100
 3938SOL    HW315519   1.540   0.825   0.691 -0.9781 -0.8531 -0.4183
 3938SOL    MW415520   1.491   0.862   0.628 -0.6331  0.2699 -0.0522
 3939SOL     OW15521   5.131   4.359   5.808 -0.7154  0.1457  0.0942
 3939SOL    HW215522   5.074   4.414   5.754  1.1014  2.1559  0.1320
 3939SOL    HW315523   5.116   4.390   5.898  0.0579  0.3286  0.1606
 3939SOL    MW415524   5.121   4.370   5.813 -0.3736  0.4351  0.1080
 3940SOL     OW15525   3.421   4.542   5.210  0.1032  0.3320  0.1309
 3940SOL    HW215526   3.515   4.536   5.226  0.5157  0.9077 -1.8330
 3940SOL    HW315527   3.390   4.451   5.216  1.9394 -0.9835 -5.2011
 3940SOL    MW415528   3.430   4.529   5.213  0.3999  0.2344 -0.8317
 3941SOL     OW15529   4.908   1.293   4.586  0.4195 -0.6273 -0.0444
 3941SOL    HW215530   4.967   1.340   4.645 -0.7011  0.2607  0.4125
 3941SOL    HW315531   4.820   1.319   4.615 -0.1945 -1.6237 -0.9376
 3941SOL    MW415532   4.904   1.303   4.598  0.1906 -0.6416 -0.1019
 3942SOL     OW15533   4.453   3.849   3.274 -0.6120  0.0526  0.4712
 3942SOL    HW215534   4.486   3.774   3.323 -1.0844 -0.1758  0.4504
 3942SOL    HW315535   4.428   3.912   3.341 -2.1523 -0.6333  0.6004
 3942SOL    MW415536   4.454   3.847   3.289 -0.8776 -0.0680  0.4855
 3943SOL     OW15537   3.549   4.351   1.850 -0.3911 -0.1180 -0.1895
 3943SOL    HW215538   3.457   4.360   1.874 -0.8782 -0.7477 -1.6912
 3943SOL    HW315539   3.555   4.392   1.763  0.3446 -1.6153 -0.8933
 3943SOL    MW415540   3.538   4.358   1.841 -0.3583 -0.3986 -0.4805
 3944SOL     OW15541   0.477   1.786   0.042 -0.2657  0.6077 -0.2189
 3944SOL    HW215542   0.559   1.776  -0.006 -1.1355  0.0489 -1.6565
 3944SOL    HW315543   0.476   1.712   0.103  1.2299  1.7865  1.3043
 3944SOL    MW415544   0.487   1.775   0.044 -0.1831  0.6895 -0.2076
 3945SOL     OW15545   1.731   6.316   1.553 -0.3532  0.1143 -0.8118
 3945SOL    HW215546   1.733   6.221   1.563 -0.3726  0.1892 -0.0546
 3945SOL    HW315547   1.801   6.348   1.609 -0.9637  0.5991 -0.3029
 3945SOL    MW415548   1.740   6.308   1.561 -0.4363  0.1882 -0.6447
 3946SOL     OW15549   1.372   3.745   6.333  0.5311 -0.0580  0.4169
 3946SOL    HW215550   1.304   3.811   6.320 -0.2822 -1.1742 -1.5145
 3946SOL    HW315551   1.425   3.749   6.253  0.4991 -1.6298  0.2825
 3946SOL    MW415552   1.370   3.754   6.320  0.4196 -0.4127  0.1443
 3947SOL     OW15553   3.375   1.989   0.006  0.2898 -0.2443  0.6759
 3947SOL    HW215554   3.395   1.920  -0.057 -1.0185  1.0613 -1.2979
 3947SOL    HW315555   3.353   2.065  -0.049  1.5432  1.7189  2.7379
 3947SOL    MW415556   3.375   1.990  -0.010  0.2826  0.1870  0.6875
 3948SOL     OW15557   0.373   0.940   6.063  0.4631  0.2705  0.0090
 3948SOL    HW215558   0.332   0.999   6.126  0.4173 -0.2513  0.4748
 3948SOL    HW315559   0.357   0.981   5.978  0.1102  0.7339  0.2934
 3948SOL    MW415560   0.366   0.953   6.060  0.4105  0.2628  0.1080
 3949SOL     OW15561   2.549   3.651   4.495 -0.8001  0.3592  0.4185
 3949SOL    HW215562   2.483   3.676   4.559 -0.7647 -0.5878  0.8521
 3949SOL    HW315563   2.567   3.559   4.514  1.4628  0.8613  1.0473
 3949SOL    MW415564   2.543   3.642   4.506 -0.4969  0.3005  0.5587
 3950SOL     OW15565   2.056   6.018   6.294 -0.3522  0.9528  0.0348
 3950SOL    HW215566   2.117   6.060   6.355  0.6896 -0.5137  0.0563
 3950SOL    HW315567   1.981   5.993   6.349  0.0944  0.6360  0.5124
 3950SOL    MW415568   2.054   6.020   6.310 -0.1558  0.7175  0.1006
 3951SOL     OW15569   5.065   0.526   0.614 -0.2858  0.0208 -0.2806
 3951SOL    HW215570   5.086   0.615   0.587 -2.2853  0.6759  0.1630
 3951SOL    HW315571   5.056   0.531   0.709 -0.5543 -0.6261 -0.2661
 3951SOL    MW415572   5.067   0.538   0.623 -0.5851  0.0219 -0.2202
 3952SOL     OW15573   1.523   1.186   5.730  0.1929  0.5710  0.1024
 3952SOL    HW215574   1.535   1.190   5.635 -0.4406 -0.2597 -0.0288
 3952SOL    HW315575   1.563   1.102   5.756  0.3035  0.7614  0.5570
 3952SOL    MW415576   1.530   1.175   5.721  0.1239  0.4866  0.1451
 3953SOL     OW15577   2.819   2.956   0.842 -0.0264 -0.1041 -1.1447
 3953SOL    HW215578   2.786   3.046   0.843 -0.8681 -0.4072 -1.3548
 3953SOL    HW315579   2.756   2.907   0.790  0.0721 -0.9561 -0.4882
 3953SOL    MW415580   2.807   2.961   0.835 -0.1245 -0.2565 -1.0858
 3954SOL     OW15581   1.651   2.442   3.937  0.4117  0.4174 -0.3515
 3954SOL    HW215582   1.569   2.397   3.954  0.0425  0.8289 -0.9972
 3954SOL    HW315583   1.631   2.502   3.865  1.8409 -1.2200 -2.2471
 3954SOL    MW415584   1.638   2.444   3.930  0.5515  0.2557 -0.6868
 3955SOL     OW15585   4.502   4.660   4.383 -0.2433  0.3874  0.6007
 3955SOL    HW215586   4.513   4.755   4.388 -0.1462  0.3548  1.0160
 3955SOL    HW315587   4.410   4.645   4.402 -0.3616  0.4351  0.0645
 3955SOL    MW415588   4.491   4.670   4.386 -0.2461  0.3894  0.5847
 3956SOL     OW15589   1.510   5.523   5.992 -0.2666  0.0633 -0.0216
 3956SOL    HW215590   1.550   5.577   5.923  0.4935  0.7145  0.9057
 3956SOL    HW315591   1.416   5.531   5.976 -0.1392  1.0314 -0.3933
 3956SOL    MW415592   1.503   5.531   5.980 -0.1495  0.2769  0.0517
 3957SOL     OW15593   4.054   2.673   3.708  0.0957  0.6607  0.0954
 3957SOL    HW215594   4.126   2.681   3.645 -0.2574 -1.5595 -0.6779
 3957SOL    HW315595   4.092   2.628   3.783 -0.5281 -1.0208 -0.5378
 3957SOL    MW415596   4.068   2.668   3.709 -0.0332  0.1459 -0.0901
 3958SOL     OW15597   4.447   4.982   5.803 -0.5179  0.2252 -0.3210
 3958SOL    HW215598   4.381   4.943   5.861  0.4567 -1.8390 -0.5194
 3958SOL    HW315599   4.490   5.047   5.858 -1.0122 -0.2092  0.6196
 3958SOL    MW415600   4.444   4.985   5.818 -0.4545 -0.1045 -0.2231
 3959SOL     OW15601   1.585   1.127   4.670 -0.6455 -0.4895  0.3436
 3959SOL    HW215602   1.610   1.076   4.747  1.8932  0.9059  0.5454
 3959SOL    HW315603   1.590   1.065   4.598  0.6186 -1.0026  0.8345
 3959SOL    MW415604   1.589   1.112   4.671 -0.1438 -0.3731  0.4350
 3960SOL     OW15605   0.637   0.962   2.110  0.1087 -0.1361 -0.1631
 3960SOL    HW215606   0.672   1.049   2.090 -0.6182 -0.3552 -2.9373
 3960SOL    HW315607   0.544   0.978   2.131  0.0597 -0.2010 -0.3278
 3960SOL    MW415608   0.629   0.976   2.110  0.0063 -0.1735 -0.5508
 3961SOL     OW15609   0.571   0.877   2.781 -0.1409  0.1203  0.1725
 3961SOL    HW215610   0.515   0.871   2.859  0.8210 -2.2962  0.7784
 3961SOL    HW315611   0.515   0.851   2.709 -0.7876  1.4552  0.1664
 3961SOL    MW415612   0.556   0.873   2.782 -0.0993 -0.0224  0.2516
 3962SOL     OW15613   0.259   1.240   5.008 -0.7082  0.0093 -0.3844
 3962SOL    HW215614   0.325   1.296   4.968  0.5082 -0.5629  0.7361
 3962SOL    HW315615   0.177   1.287   4.996  0.0487  1.2437 -0.9091
 3962SOL    MW415616   0.257   1.253   5.001 -0.4478  0.0967 -0.3058
 3963SOL     OW15617   5.075   4.912   6.349  0.1644  1.1294  0.1073
 3963SOL    HW215618   5.015   4.867   6.409  0.4491  0.6412  0.0385
 3963SOL    HW315619   5.162   4.885   6.379  0.3203  1.2017 -0.2754
 3963SOL    MW415620   5.079   4.902   6.361  0.2226  1.0745  0.0477
 3964SOL     OW15621   2.878   4.108   3.504  0.1227 -0.0670  0.1375
 3964SOL    HW215622   2.909   4.125   3.593  0.3396 -0.0392  0.0562
 3964SOL    HW315623   2.821   4.182   3.484  2.3228  1.4868 -0.8340
 3964SOL    MW415624   2.875   4.120   3.513  0.4416  0.1417 -0.0014
 3965SOL     OW15625   2.664   3.677   1.068 -0.4467  0.2410  0.6632
 3965SOL    HW215626   2.745   3.627   1.056 -1.4441 -1.7442  1.6236
 3965SOL    HW315627   2.594   3.612   1.057 -1.8448  1.5020  1.6267
 3965SOL    MW415628   2.665   3.662   1.065 -0.7628  0.1454  0.9170
 3966SOL     OW15629   3.808   3.946   5.199 -0.0578 -0.0571  0.4622
 3966SOL    HW215630   3.873   4.014   5.217 -1.7968  1.3019  2.0155
 3966SOL    HW315631   3.856   3.864   5.206  1.9447  0.9372 -0.6601
 3966SOL    MW415632   3.823   3.944   5.202 -0.0231  0.2534  0.5191
 3967SOL     OW15633   0.199   6.362   6.107  0.2223 -0.5384  0.6416
 3967SOL    HW215634   0.184   6.298   6.176  0.9919  1.6706  3.0461
 3967SOL    HW315635   0.148   6.331   6.033 -1.0783 -2.7770  2.3604
 3967SOL    MW415636   0.191   6.349   6.106  0.1522 -0.5423  1.1856
 3968SOL     OW15637   3.225   5.099   0.999 -0.6660  0.7099 -0.4733
 3968SOL    HW215638   3.265   5.134   0.919 -1.4424  0.8883 -0.7934
 3968SOL    HW315639   3.157   5.162   1.021 -1.6494 -0.2632 -0.6849
 3968SOL    MW415640   3.222   5.112   0.991 -0.8982  0.6050 -0.5435
 3969SOL     OW15641   0.541   6.205   0.511  0.3461  0.2591  0.2424
 3969SOL    HW215642   0.449   6.233   0.512 -0.1903 -1.3645 -0.4416
 3969SOL    HW315643   0.550   6.157   0.429  1.2187 -1.4377  1.2774
 3969SOL    MW415644   0.530   6.202   0.501  0.3905 -0.1790  0.2887
 3970SOL     OW15645   5.677   0.687   4.143 -0.0489 -0.0914 -0.3413
 3970SOL    HW215646   5.693   0.713   4.052 -0.0196 -0.1691 -0.3591
 3970SOL    HW315647   5.634   0.602   4.136 -2.4765  1.0628 -0.3543
 3970SOL    MW415648   5.674   0.679   4.130 -0.3653  0.0506 -0.3454
 3971SOL     OW15649   6.281   0.403   3.165 -0.5325  0.3232 -0.6936
 3971SOL    HW215650   6.190   0.421   3.187 -0.4608  0.8103 -0.7797
 3971SOL    HW315651   6.329   0.478   3.198 -0.2088  0.2502 -0.9872
 3971SOL    MW415652   6.275   0.415   3.172 -0.4803  0.3778 -0.7437
 3972SOL     OW15653   5.276   3.625   6.231  0.1091 -0.2454  0.5073
 3972SOL    HW215654   5.209   3.587   6.174  0.4526 -0.8753  0.5180
 3972SOL    HW315655   5.242   3.712   6.253 -0.7487 -0.5966  0.5976
 3972SOL    MW415656   5.263   3.632   6.226  0.0413 -0.3749  0.5207
 3973SOL     OW15657   2.027   4.006   3.092 -0.7060 -0.1552  0.0569
 3973SOL    HW215658   2.122   4.003   3.078 -0.3906  2.3413  1.1382
 3973SOL    HW315659   2.012   3.947   3.166 -0.1591 -1.2564 -0.6805
 3973SOL    MW415660   2.038   3.997   3.100 -0.5922  0.0289  0.1022
 3974SOL     OW15661   5.779   4.958   2.691 -0.6269 -0.1423 -0.3417
 3974SOL    HW215662   5.735   4.944   2.775 -0.8977 -0.6721 -0.5640
 3974SOL    HW315663   5.793   4.869   2.656 -1.6885  0.0895 -1.4514
 3974SOL    MW415664   5.775   4.944   2.697 -0.8027 -0.1816 -0.5174
 3975SOL     OW15665   0.417   6.322   0.975  0.0462 -0.0201  0.0066
 3975SOL    HW215666   0.432   6.246   1.031  1.3076  0.4608  0.3693
 3975SOL    HW315667   0.358   6.290   0.907  0.8928 -1.4644 -0.1067
 3975SOL    MW415668   0.411   6.307   0.973  0.3243 -0.1472  0.0395
 3976SOL     OW15669   5.189   0.199   4.554  0.1282 -0.0247 -0.6522
 3976SOL    HW215670   5.199   0.107   4.581  0.3846 -0.9306 -3.4609
 3976SOL    HW315671   5.150   0.242   4.630  0.8679 -2.2348  1.1024
 3976SOL    MW415672   5.185   0.192   4.568  0.2596 -0.4358 -0.7913
 3977SOL     OW15673   6.378   3.754   4.804 -0.4638  0.7036 -0.0159
 3977SOL    HW215674   6.393   3.727   4.895 -0.3349 -0.9220 -0.4917
 3977SOL    HW315675   6.402   3.847   4.802 -0.8474  0.8680  1.6948
 3977SOL    MW415676   6.383   3.763   4.816 -0.4974  0.5108  0.1471
 3978SOL     OW15677   2.638   4.829   3.854 -0.1200  0.0512 -0.1478
 3978SOL    HW215678   2.651   4.893   3.785 -0.7070 -0.4023 -0.6866
 3978SOL    HW315679   2.598   4.879   3.926  1.1632  0.6731  0.1560
 3978SOL    MW415680   2.634   4.844   3.855 -0.0281  0.0734 -0.1788
 3979SOL     OW15681   1.116   4.328   6.168  0.0805  0.6825  0.1778
 3979SOL    HW215682   1.209   4.349   6.154  0.1697  0.0502 -0.2519
 3979SOL    HW315683   1.092   4.277   6.090  0.0125 -1.1886  1.3681
 3979SOL    MW415684   1.125   4.324   6.156  0.0833  0.3522  0.2781
 3980SOL     OW15685   3.877   5.693   5.283 -0.0612 -0.6604  0.0173
 3980SOL    HW215686   3.857   5.782   5.254  1.1782 -0.3134  0.1830
 3980SOL    HW315687   3.948   5.665   5.226 -0.0520 -1.3303  0.3514
 3980SOL    MW415688   3.884   5.701   5.272  0.1036 -0.7030  0.0832
 3981SOL     OW15689   4.281   0.136   5.464 -0.1955 -0.0983 -0.1765
 3981SOL    HW215690   4.260   0.142   5.371  1.2562 -0.0339 -0.5153
 3981SOL    HW315691   4.245   0.215   5.502  1.9202  1.4933 -1.2548
 3981SOL    MW415692   4.273   0.147   5.457  0.2752  0.1202 -0.3635
 3982SOL     OW15693   5.253   4.083   3.369 -0.4454 -0.2116 -0.0524
 3982SOL    HW215694   5.295   4.079   3.283 -0.0615  2.6403 -0.1018
 3982SOL    HW315695   5.164   4.114   3.350  0.2954  2.5719  0.6393
 3982SOL    MW415696   5.246   4.087   3.355 -0.2970  0.5319  0.0323
 3983SOL     OW15697   5.400   1.987   1.341  0.2963 -0.1992 -0.0408
 3983SOL    HW215698   5.453   1.975   1.262  0.1669 -1.4762  0.0520
 3983SOL    HW315699   5.385   2.082   1.345  0.4420 -0.0931 -1.4501
 3983SOL    MW415700   5.405   1.998   1.331  0.2984 -0.3537 -0.2145
 3984SOL     OW15701   6.075   3.590   3.741  0.0226  0.3213 -0.7601
 3984SOL    HW215702   6.104   3.629   3.824 -0.9990  1.3421 -0.8534
 3984SOL    HW315703   6.062   3.498   3.760  0.1705  0.4774  0.1229
 3984SOL    MW415704   6.077   3.583   3.754 -0.0927  0.4765 -0.6559
 3985SOL     OW15705   1.535   2.101   4.417  0.8486 -0.7075  0.1175
 3985SOL    HW215706   1.624   2.068   4.414  1.6824  1.1341  2.1692
 3985SOL    HW315707   1.536   2.167   4.486 -1.7717  0.3560 -0.7381
 3985SOL    MW415708   1.547   2.106   4.426  0.6129 -0.3242  0.2753
 3986SOL     OW15709   4.975   3.343   4.782 -0.1321  0.2316  0.7917
 3986SOL    HW215710   4.918   3.303   4.848  0.5514 -0.0350  1.2313
 3986SOL    HW315711   5.056   3.363   4.829  0.5403 -0.3838 -0.0604
 3986SOL    MW415712   4.978   3.340   4.797  0.0468  0.1152  0.7373
 3987SOL     OW15713   0.117   2.605   3.923 -0.1241  0.7716  0.4448
 3987SOL    HW215714   0.154   2.692   3.942  0.5673  0.7461 -0.7246
 3987SOL    HW315715   0.182   2.563   3.867 -0.4858 -0.4967  0.9492
 3987SOL    MW415716   0.131   2.611   3.918 -0.0806  0.6009  0.3571
 3988SOL     OW15717   5.792   3.693   5.190  0.6321 -0.0971 -0.4647
 3988SOL    HW215718   5.777   3.718   5.281  0.1996  0.1485 -0.5979
 3988SOL    HW315719   5.882   3.661   5.188  0.9045  0.6359 -0.1141
 3988SOL    MW415720   5.802   3.692   5.202  0.6110  0.0320 -0.4361
 3989SOL     OW15721   4.671   4.106   1.547 -0.3751 -0.3209  0.1324
 3989SOL    HW215722   4.749   4.162   1.549 -0.8322  0.4496 -1.7022
 3989SOL    HW315723   4.705   4.017   1.548  0.5168  0.0033 -0.1236
 3989SOL    MW415724   4.685   4.102   1.547 -0.3178 -0.1765 -0.1434
 3990SOL     OW15725   4.727   6.205   0.217 -0.1481 -0.6864  0.4882
 3990SOL    HW215726   4.694   6.197   0.307  0.4738 -0.7903  0.7166
 3990SOL    HW315727   4.811   6.250   0.227 -0.1870 -0.4817 -0.0689
 3990SOL    MW415728   4.734   6.210   0.231 -0.0712 -0.6731  0.4448
 3991SOL     OW15729   5.524   4.747   5.237 -0.1213 -0.3432 -0.2452
 3991SOL    HW215730   5.562   4.747   5.324 -0.6550  1.1690  0.0040
 3991SOL    HW315731   5.433   4.719   5.250 -0.4488  0.7161 -0.1860
 3991SOL    MW415732   5.517   4.743   5.250 -0.2350 -0.0040 -0.2045
 3992SOL     OW15733   4.170   5.851   4.052  0.2449 -0.0341 -0.3223
 3992SOL    HW215734   4.131   5.867   4.138 -0.8976 -0.2187 -0.7895
 3992SOL    HW315735   4.151   5.930   4.002  0.1997 -0.2544 -0.6539
 3992SOL    MW415736   4.163   5.863   4.057  0.0882 -0.0876 -0.4277
 3993SOL     OW15737   4.379   0.094   4.086  0.1863  0.4260  0.4114
 3993SOL    HW215738   4.347   0.134   4.005  0.3740 -0.5745 -0.1770
 3993SOL    HW315739   4.388   0.167   4.147 -0.4613  1.1241 -0.3056
 3993SOL    MW415740   4.376   0.109   4.083  0.1256  0.3861  0.2392
 3994SOL     OW15741   0.577   5.186   5.081  0.0825 -0.3793 -1.0379
 3994SOL    HW215742   0.500   5.236   5.053  0.5968  1.5107  0.6332
 3994SOL    HW315743   0.563   5.172   5.175  2.6360  1.8803 -0.1824
 3994SOL    MW415744   0.565   5.191   5.090  0.4873  0.1682 -0.7046
 3995SOL     OW15745   1.095   5.571   6.134  0.1822 -0.0881  0.8120
 3995SOL    HW215746   1.087   5.570   6.230 -0.8186  0.6115  0.7585
 3995SOL    HW315747   1.006   5.554   6.103  0.5114 -0.3525  0.0052
 3995SOL    MW415748   1.082   5.569   6.143  0.0936 -0.0307  0.6985
 3996SOL     OW15749   5.615   1.956   3.296 -0.4328 -0.4523  0.4016
 3996SOL    HW215750   5.604   1.862   3.311  2.8166 -0.8406  1.1958
 3996SOL    HW315751   5.559   1.998   3.362 -0.0363 -1.9046  1.7335
 3996SOL    MW415752   5.606   1.949   3.307  0.0483 -0.6951  0.6821
 3997SOL     OW15753   1.896   3.881   0.225  0.1084  0.3205  0.2049
 3997SOL    HW215754   1.813   3.913   0.258 -1.3701 -0.9618 -2.0313
 3997SOL    HW315755   1.937   3.958   0.185 -2.0433  0.2288 -2.4725
 3997SOL    MW415756   1.891   3.895   0.224 -0.3706  0.1392 -0.4434
 3998SOL     OW15757   5.590   4.741   5.762 -0.2190 -0.1791  0.1734
 3998SOL    HW215758   5.600   4.746   5.667  1.5304 -0.5661  0.3106
 3998SOL    HW315759   5.586   4.647   5.781  1.4214 -0.1807  0.6340
 3998SOL    MW415760   5.590   4.729   5.752  0.2282 -0.2304  0.2523
 3999SOL     OW15761   3.648   4.491   5.385 -0.0377  0.6847 -0.1362
 3999SOL    HW215762   3.600   4.416   5.421  1.0190  0.2677  0.4470
 3999SOL    HW315763   3.704   4.521   5.457  1.6795  0.2254 -1.2146
 3999SOL    MW415764   3.649   4.485   5.399  0.3283  0.5691 -0.2015
 4000SOL     OW15765   3.186   5.031   5.207 -0.0558  0.2473  0.2329
 4000SOL    HW215766   3.259   4.970   5.201  0.1373  0.5852 -1.1327
 4000SOL    HW315767   3.228   5.117   5.212 -0.3078  0.3076  2.6096
 4000SOL    MW415768   3.202   5.034   5.207 -0.0636  0.2998  0.3663
 4001SOL     OW15769   5.533   2.265   6.316 -0.6825 -0.4320  0.0438
 4001SOL    HW215770   5.438   2.276   6.313 -0.6018  0.3628  0.1693
 4001SOL    HW315771   5.559   2.299   6.402 -0.3657 -1.3163  0.3050
 4001SOL    MW415772   5.524   2.271   6.327 -0.6300 -0.4438  0.0948
 4002SOL     OW15773   4.101   2.872   0.321 -0.5112 -0.4595  0.1293
 4002SOL    HW215774   4.143   2.860   0.236 -0.8881 -1.3994  0.0687
 4002SOL    HW315775   4.174   2.873   0.383 -0.1849  0.8197 -0.2376
 4002SOL    MW415776   4.116   2.871   0.318 -0.5179 -0.4147  0.0729
 4003SOL     OW15777   1.204   0.651   3.146 -0.0136 -0.3968  0.3868
 4003SOL    HW215778   1.239   0.635   3.234 -0.0217 -1.8099  0.1581
 4003SOL    HW315779   1.111   0.666   3.159 -0.0454 -0.7830  0.6060
 4003SOL    MW415780   1.197   0.651   3.159 -0.0189 -0.6342  0.3855
 4004SOL     OW15781   1.747   2.193   3.345  0.0460  0.9414  0.2068
 4004SOL    HW215782   1.703   2.276   3.364 -0.7890  0.5760 -0.0540
 4004SOL    HW315783   1.734   2.180   3.251 -0.0891  0.3807  0.2995
 4004SOL    MW415784   1.739   2.202   3.335 -0.0820  0.8192  0.1846
 4005SOL     OW15785   0.380   4.840   2.189 -0.2001  0.4025  0.3674
 4005SOL    HW215786   0.432   4.909   2.146 -1.3857  1.2078  0.1871
 4005SOL    HW315787   0.295   4.844   2.147 -0.1099 -1.6279 -0.0702
 4005SOL    MW415788   0.376   4.850   2.178 -0.3446  0.2409  0.2859
 4006SOL     OW15789   3.903   4.223   2.334 -0.2208 -0.5173  0.2694
 4006SOL    HW215790   3.821   4.214   2.382 -0.9994 -0.2386 -0.9700
 4006SOL    HW315791   3.948   4.297   2.376  0.0559 -1.5359  1.8354
 4006SOL    MW415792   3.898   4.232   2.346 -0.2870 -0.6149  0.3125
 4007SOL     OW15793   1.854   5.891   4.535 -0.1684 -0.6712 -0.4385
 4007SOL    HW215794   1.840   5.962   4.471  0.3997  1.0879  1.2881
 4007SOL    HW315795   1.768   5.851   4.544 -0.9503  0.9792 -0.1573
 4007SOL    MW415796   1.841   5.895   4.527 -0.1966 -0.2214 -0.1736
 4008SOL     OW15797   3.798   3.618   1.566 -0.3592  0.1326  0.6342
 4008SOL    HW215798   3.780   3.556   1.636  1.5694  0.1588  1.2249
 4008SOL    HW315799   3.772   3.703   1.602 -1.4027 -0.0992  0.4654
 4008SOL    MW415800   3.792   3.621   1.580 -0.2424  0.1054  0.6899
 4009SOL     OW15801   2.369   0.859   3.726  0.3792  0.2241  0.6296
 4009SOL    HW215802   2.312   0.886   3.654 -1.7733 -1.4236  1.5745
 4009SOL    HW315803   2.434   0.802   3.686  0.4053  0.8707 -0.2660
 4009SOL    MW415804   2.370   0.855   3.712  0.0987  0.0920  0.6361
 4010SOL     OW15805   2.131   4.830   1.851  0.0904 -0.1580 -0.2362
 4010SOL    HW215806   2.066   4.838   1.781 -0.1269 -0.9365 -0.1282
 4010SOL    HW315807   2.095   4.882   1.923  0.1776  0.4100 -0.5977
 4010SOL    MW415808   2.118   4.838   1.851  0.0732 -0.1858 -0.2696
 4011SOL     OW15809   5.028   2.247   0.318 -0.1644  0.6127 -0.3414
 4011SOL    HW215810   5.073   2.248   0.234 -0.3514 -0.4484 -0.4699
 4011SOL    HW315811   5.012   2.339   0.338  2.5688  1.1037  0.0035
 4011SOL    MW415812   5.032   2.259   0.310  0.1716  0.5375 -0.3129
 4012SOL     OW15813   0.623   3.706   1.708 -0.1287 -0.3774  0.3308
 4012SOL    HW215814   0.713   3.709   1.741 -0.2085 -4.3280  1.4068
 4012SOL    HW315815   0.622   3.771   1.637  2.3081  2.7727  2.8456
 4012SOL    MW415816   0.635   3.715   1.703  0.1823 -0.4830  0.8045
 4013SOL     OW15817   2.838   6.273   3.282 -0.8766  0.2376  0.1378
 4013SOL    HW215818   2.814   6.349   3.230 -0.4331  0.4636  0.2519
 4013SOL    HW315819   2.766   6.211   3.270 -0.2658 -0.1804 -1.6667
 4013SOL    MW415820   2.826   6.275   3.274 -0.7375  0.2123 -0.0852
 4014SOL     OW15821   6.130   5.650   1.953 -0.1557 -0.1382 -0.0872
 4014SOL    HW215822   6.192   5.577   1.960  1.8228  1.5488  1.5490
 4014SOL    HW315823   6.178   5.717   1.904 -0.3130  1.4898  1.8336
 4014SOL    MW415824   6.145   5.649   1.947  0.0846  0.2992  0.3821
 4015SOL     OW15825   1.812   2.608   1.517 -0.1113  0.4061 -0.1012
 4015SOL    HW215826   1.771   2.602   1.430  0.0079 -1.5605 -0.0561
 4015SOL    HW315827   1.892   2.658   1.502 -0.1556  0.2024 -1.1039
 4015SOL    MW415828   1.817   2.614   1.503 -0.1014  0.1198 -0.2276
 4016SOL     OW15829   5.154   3.161   2.758 -0.0272 -0.2405  0.5026
 4016SOL    HW215830   5.089   3.168   2.827 -0.8252  0.4388 -0.2997
 4016SOL    HW315831   5.237   3.180   2.802 -0.4322 -0.4906  1.4043
 4016SOL    MW415832   5.157   3.165   2.773 -0.1859 -0.1839  0.5158
 4017SOL     OW15833   6.326   1.252   4.252  0.2188  0.2820  0.3227
 4017SOL    HW215834   6.392   1.274   4.317 -0.0008  0.9217  0.3347
 4017SOL    HW315835   6.372   1.260   4.168  0.0786  1.0633  0.3100
 4017SOL    MW415836   6.341   1.256   4.249  0.1713  0.4695  0.3226
 4018SOL     OW15837   2.538   0.933   3.375 -0.1368 -0.3030 -0.3591
 4018SOL    HW215838   2.608   0.988   3.339 -0.8438  1.1056  0.3488
 4018SOL    HW315839   2.507   0.881   3.301  2.3299 -1.7438 -0.4909
 4018SOL    MW415840   2.543   0.934   3.360  0.0954 -0.3072 -0.2831
 4019SOL     OW15841   3.735   4.376   1.014  0.2498 -0.3774 -0.6798
 4019SOL    HW215842   3.712   4.408   1.101 -1.0687 -1.3842 -0.6285
 4019SOL    HW315843   3.818   4.418   0.994  0.2519  0.3699  0.7941
 4019SOL    MW415844   3.743   4.386   1.023  0.0761 -0.4116 -0.4786
 4020SOL     OW15845   4.880   2.912   1.527 -0.3049 -0.4894  0.2191
 4020SOL    HW215846   4.936   2.835   1.520  1.1762  0.6191 -0.8222
 4020SOL    HW315847   4.939   2.982   1.557 -1.2057  0.6214 -0.4899
 4020SOL    MW415848   4.895   2.911   1.530 -0.2283 -0.1966 -0.0118
 4021SOL     OW15849   1.172   6.178   4.259 -0.6096  0.3474 -0.0112
 4021SOL    HW215850   1.259   6.154   4.227 -1.0076 -0.0795 -0.8109
 4021SOL    HW315851   1.165   6.271   4.241  0.7125  1.0235  2.5473
 4021SOL    MW415852   1.183   6.187   4.252 -0.4877  0.3803  0.2209
 4022SOL     OW15853   0.936   6.129   3.217 -0.0789  0.0934  0.4173
 4022SOL    HW215854   0.921   6.072   3.293 -0.2583  1.2401  1.2652
 4022SOL    HW315855   0.941   6.217   3.254 -0.1743  0.6765 -0.9129
 4022SOL    MW415856   0.935   6.133   3.232 -0.1152  0.3216  0.3537
 4023SOL     OW15857   0.102   5.262   5.033  0.6698 -0.4622 -0.3439
 4023SOL    HW215858   0.036   5.316   5.076  0.2809 -1.9948  1.0822
 4023SOL    HW315859   0.074   5.259   4.941 -0.0552  0.5866 -0.1850
 4023SOL    MW415860   0.090   5.269   5.026  0.5228 -0.5260 -0.1348
 4024SOL     OW15861   1.011   1.472   0.657  0.4322  0.4541  0.5938
 4024SOL    HW215862   1.005   1.565   0.675 -0.2426  0.4943  0.2018
 4024SOL    HW315863   1.105   1.453   0.658  0.5194  0.7704  2.4447
 4024SOL    MW415864   1.022   1.482   0.660  0.3547  0.5011  0.7863
 4025SOL     OW15865   3.358   3.532   3.753 -0.0408 -0.6643 -0.8217
 4025SOL    HW215866   3.385   3.539   3.662  0.9135  0.9311 -0.4424
 4025SOL    HW315867   3.410   3.459   3.788  0.6989 -0.3050 -1.1670
 4025SOL    MW415868   3.368   3.523   3.746  0.1827 -0.4064 -0.8172
 4026SOL     OW15869   5.381   1.563   5.802  0.0792 -0.0520 -0.6937
 4026SOL    HW215870   5.458   1.593   5.850  0.0207  1.5418 -1.5299
 4026SOL    HW315871   5.309   1.573   5.864  0.2965 -0.0193 -0.4423
 4026SOL    MW415872   5.382   1.568   5.817  0.1002  0.1626 -0.7709
 4027SOL     OW15873   3.815   4.955   1.060  0.1954  0.2669  0.2298
 4027SOL    HW215874   3.847   4.871   1.094  0.3858 -0.2282 -1.1145
 4027SOL    HW315875   3.734   4.932   1.014  0.3319  0.8061 -0.2765
 4027SOL    MW415876   3.808   4.941   1.059  0.2385  0.2727 -0.0144
 4028SOL     OW15877   1.903   0.202   1.821  0.1619 -0.5360 -0.1261
 4028SOL    HW215878   1.817   0.243   1.833 -0.4091 -2.0684  1.3545
 4028SOL    HW315879   1.885   0.121   1.774  0.9363 -0.4598 -0.5772
 4028SOL    MW415880   1.889   0.197   1.816  0.1887 -0.7281  0.0097
 4029SOL     OW15881   0.911   0.945   1.644 -0.0269  0.4246  0.0725
 4029SOL    HW215882   0.976   0.882   1.611 -0.1085 -0.9274  2.3091
 4029SOL    HW315883   0.827   0.910   1.615  0.1173  2.3930 -3.1807
 4029SOL    MW415884   0.909   0.932   1.636 -0.0186  0.5059 -0.0616
 4030SOL     OW15885   1.928   2.835   3.650  0.1223 -0.2907 -0.7428
 4030SOL    HW215886   1.977   2.775   3.707 -0.7690 -1.6631 -1.3760
 4030SOL    HW315887   1.866   2.779   3.604 -3.9516  1.6099  1.8855
 4030SOL    MW415888   1.927   2.819   3.651 -0.5328 -0.2210 -0.4795
 4031SOL     OW15889   0.316   4.888   4.186 -0.0717 -0.2280  0.4130
 4031SOL    HW215890   0.298   4.917   4.276 -0.8698 -0.2491  0.2640
 4031SOL    HW315891   0.338   4.969   4.139 -1.2385  0.0032  0.2512
 4031SOL    MW415892   0.317   4.902   4.192 -0.3310 -0.2003  0.3720
 4032SOL     OW15893   5.498   4.975   4.769 -0.3740 -0.0029  0.2330
 4032SOL    HW215894   5.504   4.925   4.687 -1.3211 -1.5522  1.0732
 4032SOL    HW315895   5.554   4.927   4.830 -0.4897  0.5607  0.7843
 4032SOL    MW415896   5.507   4.962   4.766 -0.5143 -0.1330  0.4166
 4033SOL     OW15897   5.486   2.406   2.175 -0.1454  0.8883 -0.3910
 4033SOL    HW215898   5.434   2.486   2.164  0.9355  2.0306  2.0080
 4033SOL    HW315899   5.577   2.436   2.169  0.2731 -0.3174 -0.2627
 4033SOL    MW415900   5.491   2.421   2.173  0.0524  0.8800 -0.0575
 4034SOL     OW15901   2.629   2.922   2.057 -0.4912 -0.4595  0.0360
 4034SOL    HW215902   2.715   2.888   2.084  0.3091  1.5670  0.2192
 4034SOL    HW315903   2.566   2.874   2.110  0.7635  0.4031  2.4482
 4034SOL    MW415904   2.632   2.911   2.067 -0.2201 -0.0783  0.3784
 4035SOL     OW15905   3.396   0.979   1.689  0.1789 -0.2049 -0.3094
 4035SOL    HW215906   3.313   0.947   1.721 -0.5602  0.9576 -0.9770
 4035SOL    HW315907   3.415   1.056   1.743  0.0997  0.3750 -1.0986
 4035SOL    MW415908   3.388   0.985   1.700  0.0709  0.0250 -0.5016
 4036SOL     OW15909   0.360   4.048   5.203 -0.2494 -0.6401 -0.2412
 4036SOL    HW215910   0.313   4.123   5.168  0.8696  0.3995  0.4234
 4036SOL    HW315911   0.450   4.058   5.171  0.0148 -1.4651  0.1954
 4036SOL    MW415912   0.366   4.059   5.194 -0.0669 -0.6118 -0.0959
 4037SOL     OW15913   1.218   6.415   2.844 -0.3075 -0.0192 -0.1163
 4037SOL    HW215914   1.198   6.499   2.803 -0.6169  0.9791  1.9469
 4037SOL    HW315915   1.313   6.418   2.861  0.4593 -1.6944 -3.2937
 4037SOL    MW415916   1.228   6.427   2.841 -0.2472 -0.1085 -0.2633
 4038SOL     OW15917   2.095   1.250   2.940 -0.3725 -0.3116  0.1582
 4038SOL    HW215918   2.110   1.256   3.034 -1.7957  0.5061  0.3693
 4038SOL    HW315919   2.113   1.338   2.907 -1.1280 -0.2485 -0.1119
 4038SOL    MW415920   2.099   1.263   2.948 -0.6600 -0.1954  0.1504
 4039SOL     OW15921   2.398   2.318   5.400  0.2543  0.1497 -0.1362
 4039SOL    HW215922   2.374   2.374   5.327 -2.0084  0.2247  0.5902
 4039SOL    HW315923   2.355   2.234   5.381 -1.3449  0.5093  1.5734
 4039SOL    MW415924   2.389   2.314   5.388 -0.2552  0.2070  0.1852
 4040SOL     OW15925   2.745   1.509   5.355  0.1546  0.4049 -0.2502
 4040SOL    HW215926   2.734   1.592   5.310  1.1388 -0.2926 -1.8571
 4040SOL    HW315927   2.828   1.518   5.402  0.7332  0.0239 -1.1790
 4040SOL    MW415928   2.754   1.521   5.355  0.3608  0.2626 -0.5847
 4041SOL     OW15929   1.553   2.333   5.981  0.6078  0.0123  0.8204
 4041SOL    HW215930   1.572   2.290   5.898 -2.2107 -0.8686  0.5325
 4041SOL    HW315931   1.596   2.418   5.974 -0.3109  0.3582 -2.0067
 4041SOL    MW415932   1.561   2.339   5.969  0.1147 -0.0583  0.4095
 4042SOL     OW15933   1.935   1.518   5.580 -0.4236  0.0472  0.2094
 4042SOL    HW215934   2.012   1.535   5.633 -0.3153 -0.5298  0.2478
 4042SOL    HW315935   1.969   1.476   5.501 -0.6113  0.6355 -0.1887
 4042SOL    MW415936   1.950   1.515   5.576 -0.4341  0.0487  0.1619
 4043SOL     OW15937   6.310   1.214   0.653  0.0775 -0.1942  0.1369
 4043SOL    HW215938   6.394   1.169   0.663 -0.3125 -1.0792 -0.4321
 4043SOL    HW315939   6.277   1.186   0.567 -0.8999 -0.0373  0.4410
 4043SOL    MW415940   6.316   1.205   0.643 -0.1029 -0.2903  0.1019
 4044SOL     OW15941   2.308   5.413   0.051 -0.0038  0.6407  0.4368
 4044SOL    HW215942   2.296   5.438  -0.041  0.5346  0.4310  0.3054
 4044SOL    HW315943   2.398   5.439   0.071  0.1568 -0.0716  0.6606
 4044SOL    MW415944   2.318   5.420   0.041  0.0885  0.5190  0.4490
 4045SOL     OW15945   5.138   4.764   1.826 -0.2249  0.3904  0.0322
 4045SOL    HW215946   5.212   4.735   1.879  1.3134  2.2717 -0.9495
 4045SOL    HW315947   5.069   4.784   1.890  0.9960  0.9810  1.1975
 4045SOL    MW415948   5.138   4.763   1.842  0.1392  0.7165  0.0564
 4046SOL     OW15949   2.638   0.508   4.902  0.1756  0.4206  0.3380
 4046SOL    HW215950   2.630   0.549   4.815 -0.0688  1.9109  1.0307
 4046SOL    HW315951   2.548   0.493   4.929  0.2628 -1.6462 -0.3488
 4046SOL    MW415952   2.625   0.512   4.894  0.1548  0.3445  0.3388
 4047SOL     OW15953   6.028   5.636   4.863  0.0820 -0.0676 -0.0353
 4047SOL    HW215954   5.999   5.551   4.897  0.2272  0.3766  1.2529
 4047SOL    HW315955   6.110   5.617   4.818 -0.3496 -0.7473 -0.5537
 4047SOL    MW415956   6.035   5.622   4.862  0.0442 -0.0987  0.0662
 4048SOL     OW15957   6.046   2.374   5.972 -0.1481 -0.4307 -0.1640
 4048SOL    HW215958   6.055   2.413   6.059  2.6403  0.6578 -0.8513
 4048SOL    HW315959   5.975   2.310   5.982 -0.5902  0.3732  2.6263
 4048SOL    MW415960   6.038   2.371   5.985  0.1615 -0.1810  0.1135
 4049SOL     OW15961   1.739   0.292   4.443 -0.3181  0.2669  0.0338
 4049SOL    HW215962   1.721   0.386   4.452 -1.6014 -0.0860  1.6509
 4049SOL    HW315963   1.672   0.250   4.497  0.6661 -1.5625 -0.1031
 4049SOL    MW415964   1.727   0.299   4.451 -0.3576 -0.0210  0.2291
 4050SOL     OW15965   3.167   4.082   2.973 -0.2354 -0.1028  0.1213
 4050SOL    HW215966   3.222   4.139   2.920  0.2043 -0.5437  0.0866
 4050SOL    HW315967   3.143   4.010   2.914  0.2592 -0.5963  0.5087
 4050SOL    MW415968   3.171   4.080   2.958 -0.1122 -0.2261  0.1678
 4051SOL     OW15969   3.500   3.843   3.574  0.4683  0.0010  0.1178
 4051SOL    HW215970   3.511   3.764   3.522  1.2379  0.2987 -0.1914
 4051SOL    HW315971   3.409   3.840   3.605  0.1329 -0.4090 -0.8691
 4051SOL    MW415972   3.489   3.832   3.571  0.5256 -0.0138 -0.0532
 4052SOL     OW15973   1.603   5.066   0.461 -0.0610  0.0268 -0.2396
 4052SOL    HW215974   1.698   5.077   0.464 -0.0754 -0.0141  1.6679
 4052SOL    HW315975   1.569   5.155   0.462 -0.0755  0.0539 -1.3042
 4052SOL    MW415976   1.611   5.079   0.461 -0.0648  0.0250 -0.1284
 4053SOL     OW15977   2.093   3.631   0.066  0.1733 -0.4347 -0.3365
 4053SOL    HW215978   2.083   3.708   0.009  0.4760  0.5889  0.9628
 4053SOL    HW315979   2.023   3.640   0.131  1.9621  0.3455  1.5845
 4053SOL    MW415980   2.082   3.642   0.067  0.4492 -0.1967  0.0884
 4054SOL     OW15981   4.250   3.112   3.396  0.2940  0.6383 -0.6759
 4054SOL    HW215982   4.281   3.201   3.378  2.7562 -0.0539 -0.1349
 4054SOL    HW315983   4.327   3.056   3.385 -0.7821 -1.2277  0.6560
 4054SOL    MW415984   4.264   3.116   3.393  0.4769  0.3008 -0.4288
 4055SOL     OW15985   5.015   1.736   3.982  0.6237  0.0773  0.4844
 4055SOL    HW215986   5.081   1.787   3.936 -0.4378 -0.1410 -1.4112
 4055SOL    HW315987   4.937   1.791   3.981 -0.2272 -1.0559 -0.6144
 4055SOL    MW415988   5.013   1.750   3.976  0.3714 -0.1010  0.0893
 4056SOL     OW15989   0.006   0.850   4.930  0.0408  0.5225  0.1506
 4056SOL    HW215990   0.069   0.897   4.984 -0.2630  0.0065  0.9779
 4056SOL    HW315991  -0.009   0.907   4.855  1.6667  0.5476 -0.1876
 4056SOL    MW415992   0.012   0.863   4.928  0.2152  0.4577  0.2151
 4057SOL     OW15993   2.027   1.112   4.102  0.4048 -0.2020  0.4363
 4057SOL    HW215994   2.084   1.112   4.179  0.0273  0.9616  0.7437
 4057SOL    HW315995   1.940   1.089   4.135  0.0250  1.2971  0.5725
 4057SOL    MW415996   2.023   1.109   4.116  0.3049  0.1493  0.4948
 4058SOL     OW15997   6.168   5.300   6.016 -0.1430  0.1948  0.3151
 4058SOL    HW215998   6.247   5.248   6.027 -0.9535 -1.1217  0.1109
 4058SOL    HW315999   6.193   5.388   6.046  1.9747  0.3572 -1.6156
 4058SOL    MW416000   6.182   5.305   6.022  0.0294  0.0425  0.0334
 4059SOL     OW16001   3.062   5.944   1.601  0.5491  0.0095  0.2734
 4059SOL    HW216002   3.141   5.951   1.655  1.5892 -0.4005 -1.1146
 4059SOL    HW316003   3.050   6.031   1.564  0.0229  0.2089  0.8980
 4059SOL    MW416004   3.071   5.956   1.603  0.6169 -0.0183  0.1727
 4060SOL     OW16005   5.365   2.219   5.626  0.1231 -0.6584 -0.6845
 4060SOL    HW216006   5.393   2.274   5.553 -0.5328  0.8791  0.1653
 4060SOL    HW316007   5.275   2.247   5.644  1.0749  0.9196  2.3341
 4060SOL    MW416008   5.357   2.230   5.619  0.1621 -0.2474 -0.1741
 4061SOL     OW16009   3.822   5.900   4.562  0.0652  0.0093 -0.0409
 4061SOL    HW216010   3.842   5.807   4.578  0.5502  0.3179  1.2831
 4061SOL    HW316011   3.733   5.900   4.527 -0.1870 -0.9208  0.5597
 4061SOL    MW416012   3.813   5.887   4.560  0.0959 -0.0727  0.2130
 4062SOL     OW16013   0.242   3.696   1.777  0.6006 -0.1841  0.6670
 4062SOL    HW216014   0.308   3.691   1.846  1.3868 -0.0014 -0.0626
 4062SOL    HW316015   0.178   3.628   1.800  0.9901 -0.3020  1.4277
 4062SOL    MW416016   0.242   3.686   1.789  0.7558 -0.1756  0.6711
 4063SOL     OW16017   4.554   3.132   5.480  0.2612  0.3764 -0.7644
 4063SOL    HW216018   4.556   3.182   5.399  0.7634  0.6475 -0.5906
 4063SOL    HW316019   4.625   3.169   5.533 -0.6499  0.8339  0.1755
 4063SOL    MW416020   4.563   3.144   5.476  0.2073  0.4725 -0.6175
 4064SOL     OW16021   3.924   6.099   0.958 -0.2031  0.2865  0.1331
 4064SOL    HW216022   3.919   6.175   1.016 -1.0898  1.6051 -1.5837
 4064SOL    HW316023   3.902   6.025   1.015  0.7187  1.2709  1.8655
 4064SOL    MW416024   3.921   6.099   0.974 -0.1985  0.5903  0.1352
 4065SOL     OW16025   6.332   0.918   0.362 -0.0569  0.0000 -0.4720
 4065SOL    HW216026   6.302   1.009   0.363 -0.3738 -0.0364  2.2065
 4065SOL    HW316027   6.259   0.870   0.325 -0.2796  0.7371 -1.0196
 4065SOL    MW416028   6.318   0.924   0.357 -0.1281  0.0925 -0.1908
 4066SOL     OW16029   2.334   5.903   5.326 -0.2797  0.1266  0.2146
 4066SOL    HW216030   2.261   5.841   5.323 -1.4984  1.4288  1.2910
 4066SOL    HW316031   2.293   5.989   5.320  1.3731  0.8677 -1.2567
 4066SOL    MW416032   2.319   5.906   5.325 -0.2224  0.3962  0.1625
 4067SOL     OW16033   5.429   3.924   0.277  0.4458 -0.0588 -0.3461
 4067SOL    HW216034   5.443   3.982   0.352  1.5511  0.4642 -0.9216
 4067SOL    HW316035   5.425   3.836   0.314  1.9093  0.1033  0.2620
 4067SOL    MW416036   5.430   3.920   0.292  0.7847  0.0316 -0.3418
 4068SOL     OW16037   5.417   5.254   0.273  0.5700  0.0308  0.4263
 4068SOL    HW216038   5.380   5.166   0.268 -1.4682  0.8782 -4.0423
 4068SOL    HW316039   5.346   5.308   0.308  0.4195  0.4250 -0.4612
 4068SOL    MW416040   5.403   5.249   0.277  0.2812  0.1946 -0.2804
 4069SOL     OW16041   5.930   3.195   5.052 -0.1371 -0.2146  0.0254
 4069SOL    HW216042   5.907   3.278   5.012 -1.6829 -0.8186 -0.4102
 4069SOL    HW316043   5.848   3.146   5.056  0.4654 -1.2031  1.5172
 4069SOL    MW416044   5.917   3.199   5.047 -0.2615 -0.4247  0.1648
 4070SOL     OW16045   5.204   5.445   1.061  0.0173 -0.4878  0.2399
 4070SOL    HW216046   5.138   5.457   1.129 -0.6682 -0.2380 -0.4573
 4070SOL    HW316047   5.247   5.362   1.084 -1.5176 -1.4266 -0.0809
 4070SOL    MW416048   5.201   5.435   1.073 -0.2757 -0.5787  0.1056
 4071SOL     OW16049   2.075   5.123   5.081 -0.3460  0.1120  0.0814
 4071SOL    HW216050   2.126   5.151   5.158  0.6974 -0.8875 -0.2171
 4071SOL    HW316051   2.141   5.112   5.012 -1.1086 -0.2682 -0.5991
 4071SOL    MW416052   2.091   5.126   5.082 -0.3090 -0.0701 -0.0477
 4072SOL     OW16053   4.655   0.311   5.182  0.2112 -0.1056 -0.2886
 4072SOL    HW216054   4.642   0.345   5.094 -0.1515 -0.4010 -0.3519
 4072SOL    HW316055   4.660   0.216   5.170  1.0642 -0.0924 -0.0997
 4072SOL    MW416056   4.654   0.303   5.169  0.2759 -0.1428 -0.2721
 4073SOL     OW16057   2.855   3.537   2.264  0.1803 -0.1722  0.0977
 4073SOL    HW216058   2.845   3.481   2.187 -0.8860  0.2524 -0.0999
 4073SOL    HW316059   2.768   3.538   2.303 -0.3065  2.6198 -0.8187
 4073SOL    MW416060   2.842   3.530   2.259 -0.0246  0.2522 -0.0493
 4074SOL     OW16061   4.992   4.516   5.358  0.4828 -0.1594  0.1193
 4074SOL    HW216062   4.981   4.456   5.284  0.7654 -1.3824  1.0475
 4074SOL    HW316063   5.058   4.579   5.328 -1.3610  1.0493 -1.6768
 4074SOL    MW416064   4.999   4.517   5.344  0.2768 -0.1613  0.0048
 4075SOL     OW16065   4.756   0.613   2.742 -0.1266 -0.3387  0.4598
 4075SOL    HW216066   4.749   0.687   2.682  0.0392 -0.1719  0.6443
 4075SOL    HW316067   4.850   0.596   2.749 -0.2248 -1.6929 -0.9373
 4075SOL    MW416068   4.767   0.620   2.735 -0.1177 -0.4954  0.2998
 4076SOL     OW16069   2.932   3.197   2.689  0.0859 -0.2927 -0.4170
 4076SOL    HW216070   2.927   3.209   2.784 -1.8280 -1.4549 -0.3175
 4076SOL    HW316071   2.875   3.266   2.654 -1.5239 -1.6253 -0.5152
 4076SOL    MW416072   2.924   3.208   2.697 -0.3791 -0.6218 -0.4168
 4077SOL     OW16073   4.079   0.592   2.837  0.2021 -0.5229 -0.0791
 4077SOL    HW216074   4.002   0.539   2.816 -0.3070  0.2213 -0.1392
 4077SOL    HW316075   4.117   0.614   2.752 -0.1106 -0.0487 -0.1033
 4077SOL    MW416076   4.074   0.588   2.823  0.0937 -0.3622 -0.0902
 4078SOL     OW16077   2.473   6.159   1.705  0.8562 -0.4503  0.4285
 4078SOL    HW216078   2.417   6.082   1.712 -0.0141  0.0396 -0.8014
 4078SOL    HW316079   2.412   6.232   1.697  1.6591  0.4240  1.8648
 4078SOL    MW416080   2.457   6.158   1.705  0.8473 -0.2703  0.4557
 4079SOL     OW16081   6.405   6.334   1.692  0.5186 -0.3039 -0.0491
 4079SOL    HW216082   6.352   6.407   1.659 -0.0025 -0.8006 -0.3164
 4079SOL    HW316083   6.485   6.338   1.639  0.6125  0.2389  0.1237
 4079SOL    MW416084   6.408   6.344   1.681  0.4622 -0.2978 -0.0616
 4080SOL     OW16085   1.030   0.064   2.323  0.0440  0.9261  0.1911
 4080SOL    HW216086   1.039   0.018   2.239  0.9522 -0.7799  1.1868
 4080SOL    HW316087   0.953   0.120   2.311  0.7571  1.5289 -2.1266
 4080SOL    MW416088   1.021   0.065   2.310  0.2579  0.7805  0.0167
 4081SOL     OW16089   4.308   3.952   5.437 -0.2998  0.3573 -0.2620
 4081SOL    HW216090   4.271   3.877   5.483 -0.4381  0.3105 -0.4475
 4081SOL    HW316091   4.399   3.955   5.465 -0.1721 -0.1616 -0.6201
 4081SOL    MW416092   4.315   3.943   5.447 -0.3012  0.2826 -0.3337
 4082SOL     OW16093   5.723   6.078   6.111  0.0075 -0.3747 -0.1520
 4082SOL    HW216094   5.688   6.167   6.104 -1.6098 -0.7519  2.3198
 4082SOL    HW316095   5.669   6.027   6.051 -0.2163 -0.0292 -0.2513
 4082SOL    MW416096   5.712   6.083   6.102 -0.2354 -0.3789  0.1610
 4083SOL     OW16097   2.627   5.269   3.938 -0.0709 -0.4137  0.3705
 4083SOL    HW216098   2.572   5.234   4.007  1.2077 -1.4795  0.8740
 4083SOL    HW316099   2.703   5.211   3.935  0.7731  0.6928 -0.6780
 4083SOL    MW416100   2.630   5.257   3.946  0.2092 -0.4083  0.2986
 4084SOL     OW16101   4.992   1.355   6.286 -0.5926 -0.5624 -0.7475
 4084SOL    HW216102   4.999   1.328   6.377  1.1099  0.2982 -0.5847
 4084SOL    HW316103   5.057   1.302   6.240  0.5484  0.9468 -0.9470
 4084SOL    MW416104   5.002   1.345   6.292 -0.2174 -0.2497 -0.7523
 4085SOL     OW16105   0.929   2.512   5.583 -0.3921 -0.0127  0.1737
 4085SOL    HW216106   0.960   2.601   5.569 -2.0096  0.6278  0.4797
 4085SOL    HW316107   0.842   2.522   5.621 -0.8887 -1.7131 -0.4069
 4085SOL    MW416108   0.922   2.525   5.586 -0.6710 -0.1526  0.1374
 4086SOL     OW16109   3.465   1.938   1.810 -0.4743 -0.0233 -0.1135
 4086SOL    HW216110   3.528   1.866   1.815 -0.6481 -0.1254  1.0224
 4086SOL    HW316111   3.497   1.994   1.739 -0.1119 -1.0013 -0.7381
 4086SOL    MW416112   3.477   1.936   1.802 -0.4494 -0.1658 -0.0460
 4087SOL     OW16113   2.051   6.098   4.760  0.1538  0.3505  0.2790
 4087SOL    HW216114   2.066   6.190   4.738 -1.2768  0.4478 -0.3843
 4087SOL    HW316115   2.065   6.051   4.677 -2.5902  0.4133 -0.3247
 4087SOL    MW416116   2.055   6.104   4.746 -0.3970  0.3716  0.1119
 4088SOL     OW16117   2.778   4.160   6.229  0.4555  0.8694  0.5796
 4088SOL    HW216118   2.687   4.135   6.217  0.3906  0.7809  1.2403
 4088SOL    HW316119   2.809   4.106   6.302  1.0172  0.9422  0.4028
 4088SOL    MW416120   2.770   4.150   6.237  0.5210  0.8673  0.6435
 4089SOL     OW16121   3.229   4.904  -0.018  0.0007 -0.2352  0.3636
 4089SOL    HW216122   3.142   4.938  -0.039  0.9602  1.6314 -0.9304
 4089SOL    HW316123   3.288   4.978  -0.033  1.8602 -1.5496  0.8016
 4089SOL    MW416124   3.225   4.918  -0.023  0.3726 -0.1624  0.2507
 4090SOL     OW16125   1.561   1.017   0.272  0.0936  0.2129 -0.0432
 4090SOL    HW216126   1.563   1.082   0.202  2.5655 -0.3265 -0.5460
 4090SOL    HW316127   1.653   1.000   0.292 -0.5196 -0.4645  2.5936
 4090SOL    MW416128   1.574   1.023   0.266  0.3388  0.0523  0.2384
 4091SOL     OW16129   5.137   0.732   5.355  0.5104  0.3938  0.2401
 4091SOL    HW216130   5.200   0.666   5.326  0.7862  0.5214  0.5340
 4091SOL    HW316131   5.147   0.735   5.450 -0.2696  0.0960  0.3342
 4091SOL    MW416132   5.147   0.724   5.363  0.4439  0.3713  0.2913
 4092SOL     OW16133   0.171   4.741   4.020  0.0108 -0.5883  0.1478
 4092SOL    HW216134   0.219   4.750   3.938 -2.3755 -0.3959 -1.2961
 4092SOL    HW316135   0.223   4.790   4.084  1.2335  0.3776 -1.5269
 4092SOL    MW416136   0.184   4.748   4.018 -0.1427 -0.4355 -0.2637
 4093SOL     OW16137   0.905   1.114   4.725 -0.0459 -0.6181  0.1923
 4093SOL    HW216138   0.899   1.162   4.642 -0.2704  1.4656  1.3264
 4093SOL    HW316139   0.995   1.128   4.754 -0.8778  1.9558  2.0110
 4093SOL    MW416140   0.916   1.122   4.718 -0.1853 -0.0036  0.5819
 4094SOL     OW16141   2.913   2.112   5.466 -0.1364  0.2641  0.6439
 4094SOL    HW216142   2.861   2.032   5.461  1.2231 -0.8266  2.4599
 4094SOL    HW316143   2.850   2.181   5.489 -1.0920 -0.5853  0.6009
 4094SOL    MW416144   2.898   2.111   5.469 -0.0831  0.0081  0.8778
 4095SOL     OW16145   4.316   4.167   2.961 -0.1167 -0.2049  0.2532
 4095SOL    HW216146   4.291   4.230   3.028  0.0265 -1.9653  2.0531
 4095SOL    HW316147   4.237   4.155   2.908 -0.5923  0.3331  0.8325
 4095SOL    MW416148   4.303   4.174   2.963 -0.1606 -0.3662  0.5671
 4096SOL     OW16149   3.106   3.862   0.094  0.0115 -0.1253  0.6598
 4096SOL    HW216150   3.149   3.897   0.173 -0.5394  2.9845 -0.2622
 4096SOL    HW316151   3.178   3.846   0.033  0.2033  1.3516  0.4563
 4096SOL    MW416152   3.121   3.865   0.096 -0.0359  0.4799  0.5113
 4097SOL     OW16153   3.114   3.086   4.553  0.8034 -0.1196 -0.3834
 4097SOL    HW216154   3.150   3.002   4.524  1.0889 -0.0825 -0.1395
 4097SOL    HW316155   3.019   3.074   4.549  0.8232 -0.0735 -1.4504
 4097SOL    MW416156   3.106   3.073   4.548  0.8437 -0.1086 -0.4920
 4098SOL     OW16157   0.810   5.893   5.460 -0.0670 -0.3322 -0.0021
 4098SOL    HW216158   0.770   5.914   5.376 -2.2174 -0.9216  0.8023
 4098SOL    HW316159   0.802   5.974   5.511 -0.7595 -0.6153  0.3461
 4098SOL    MW416160   0.804   5.907   5.456 -0.4421 -0.4473  0.1499
 4099SOL     OW16161   1.691   5.031   1.185 -0.3470 -0.8021  0.3258
 4099SOL    HW216162   1.765   5.028   1.245  0.3888 -1.5413 -0.5789
 4099SOL    HW316163   1.723   5.083   1.111 -0.9708 -0.5569  0.2215
 4099SOL    MW416164   1.705   5.038   1.183 -0.3322 -0.8673  0.1927
 4100SOL     OW16165   2.875   1.961   4.448 -0.0252 -0.5336 -0.3717
 4100SOL    HW216166   2.806   1.900   4.420 -0.7994  0.2222 -0.1538
 4100SOL    HW316167   2.847   1.992   4.534  0.1964  0.3678 -0.6127
 4100SOL    MW416168   2.862   1.957   4.456 -0.0981 -0.3149 -0.3747
 4101SOL     OW16169   0.326   1.305   4.658  1.0894  0.1850  0.2231
 4101SOL    HW216170   0.370   1.247   4.719 -1.0560 -0.7892  0.9340
 4101SOL    HW316171   0.287   1.373   4.713  0.1390 -0.0323 -0.1649
 4101SOL    MW416172   0.327   1.306   4.673  0.6810  0.0278  0.2657
 4102SOL     OW16173   2.043   2.967   5.404  0.7659  0.2052  0.2531
 4102SOL    HW216174   1.974   3.022   5.365 -1.0919 -0.7207  2.0181
 4102SOL    HW316175   2.125   3.009   5.378 -0.4055  1.1906 -2.2247
 4102SOL    MW416176   2.045   2.980   5.395  0.3662  0.2130  0.1590
 4103SOL     OW16177   1.146   2.625   4.181  0.1041 -0.4934 -0.3148
 4103SOL    HW216178   1.113   2.702   4.134  0.0649 -0.5354 -0.3555
 4103SOL    HW316179   1.068   2.584   4.218  0.1734 -0.2396  0.1227
 4103SOL    MW416180   1.131   2.630   4.179  0.1081 -0.4655 -0.2624
 4104SOL     OW16181   3.398   0.577   3.572  0.0788 -1.0909 -0.1712
 4104SOL    HW216182   3.346   0.508   3.533 -0.6877 -0.4376 -0.3282
 4104SOL    HW316183   3.430   0.628   3.497  1.0614 -1.5432 -0.0887
 4104SOL    MW416184   3.396   0.575   3.557  0.1073 -1.0643 -0.1810
 4105SOL     OW16185   4.878   6.259   4.444  0.1333  0.2051 -0.0875
 4105SOL    HW216186   4.884   6.311   4.365  1.4903 -0.4681 -0.4597
 4105SOL    HW316187   4.853   6.321   4.512 -0.0209  0.9857 -0.8395
 4105SOL    MW416188   4.876   6.274   4.443  0.2920  0.2193 -0.2358
 4106SOL     OW16189   5.582   5.727   4.063 -0.0512  0.0043  0.3792
 4106SOL    HW216190   5.497   5.694   4.092  0.0472  0.3907  1.1291
 4106SOL    HW316191   5.590   5.695   3.973 -0.7725 -0.4433  0.4611
 4106SOL    MW416192   5.572   5.719   4.055 -0.1334 -0.0038  0.4890
 4107SOL     OW16193   1.928   5.007   3.045  0.6366 -0.5254 -0.1545
 4107SOL    HW216194   2.009   5.021   2.996  1.0991 -1.7754  0.2119
 4107SOL    HW316195   1.906   4.916   3.028 -0.5416 -0.2798 -0.0002
 4107SOL    MW416196   1.936   4.997   3.036  0.5422 -0.6579 -0.0858
 4108SOL     OW16197   1.072   5.372   1.806 -0.1797 -0.7088  0.4185
 4108SOL    HW216198   1.021   5.295   1.830  1.3072 -1.6070  0.8937
 4108SOL    HW316199   1.162   5.349   1.831  0.0996  1.7768  2.0233
 4108SOL    MW416200   1.077   5.358   1.813  0.0533 -0.4994  0.6930
 4109SOL     OW16201   3.516   6.035   2.913 -0.0623  0.4362  0.1172
 4109SOL    HW216202   3.592   6.078   2.952 -0.0415  1.5949 -1.0844
 4109SOL    HW316203   3.539   5.943   2.909  2.1721  0.9785 -1.9972
 4109SOL    MW416204   3.529   6.029   2.917  0.2353  0.6607 -0.3203
 4110SOL     OW16205   2.351   4.601   5.492  0.5164  0.4424  0.1494
 4110SOL    HW216206   2.400   4.680   5.515 -0.5375  0.8411  1.1866
 4110SOL    HW316207   2.394   4.567   5.415  2.0072  1.1257  0.6474
 4110SOL    MW416208   2.363   4.607   5.485  0.5740  0.5852  0.3519
 4111SOL     OW16209   2.866   1.935   5.049 -0.5772  0.4280  0.7950
 4111SOL    HW216210   2.813   1.870   5.004 -0.4169  1.6515 -1.3113
 4111SOL    HW316211   2.805   1.980   5.108 -1.2278  0.0008  0.4560
 4111SOL    MW416212   2.851   1.932   5.051 -0.6419  0.5331  0.4723
 4112SOL     OW16213   2.026   2.406   0.804  0.1462  0.0634 -0.4594
 4112SOL    HW216214   2.107   2.356   0.810  0.1617  0.3089  2.5929
 4112SOL    HW316215   1.967   2.349   0.754  1.2807 -1.3893 -0.2083
 4112SOL    MW416216   2.029   2.392   0.798  0.2979 -0.0959 -0.0236
 4113SOL     OW16217   2.296   3.051   5.355  0.1330 -0.0370  0.0682
 4113SOL    HW216218   2.283   3.090   5.269 -1.2933 -1.3275 -0.3487
 4113SOL    HW316219   2.314   3.126   5.413  1.5367  0.8103 -1.3918
 4113SOL    MW416220   2.297   3.066   5.351  0.1300 -0.0955 -0.1795
 4114SOL     OW16221   4.859   0.365   2.320 -0.1761  0.2338 -0.1585
 4114SOL    HW216222   4.950   0.386   2.340  0.0806 -0.3774 -0.6818
 4114SOL    HW316223   4.809   0.419   2.382  0.5470  0.0996  0.5629
 4114SOL    MW416224   4.864   0.375   2.331 -0.0468  0.1354 -0.1323
 4115SOL     OW16225   0.516   5.945   4.017  0.0349  0.0687 -0.0376
 4115SOL    HW216226   0.567   5.937   3.937  1.7131 -0.0405  0.9704
 4115SOL    HW316227   0.436   5.897   4.001  0.6499 -0.5372 -1.3962
 4115SOL    MW416228   0.512   5.938   4.005  0.3375 -0.0257 -0.0838
 4116SOL     OW16229   0.670   4.787   2.806  0.9735 -0.7810 -0.0361
 4116SOL    HW216230   0.745   4.814   2.859  1.4257  1.1426 -1.5241
 4116SOL    HW316231   0.667   4.851   2.735 -0.5805 -2.3003 -1.4257
 4116SOL    MW416232   0.680   4.799   2.804  0.8281 -0.7276 -0.4158
 4117SOL     OW16233   6.064   3.532   2.144  0.4625 -0.0448  0.7450
 4117SOL    HW216234   6.065   3.597   2.214  0.4525 -0.1105  0.8059
 4117SOL    HW316235   6.147   3.484   2.155  0.6948  0.2696  0.4102
 4117SOL    MW416236   6.075   3.534   2.154  0.4919 -0.0120  0.7089
 4118SOL     OW16237   1.190   2.708   2.059  0.3091  0.2401  0.0830
 4118SOL    HW216238   1.203   2.782   2.000  2.0653  0.5548  0.8099
 4118SOL    HW316239   1.155   2.639   2.003 -3.3565  2.1375 -0.2375
 4118SOL    MW416240   1.187   2.708   2.044  0.0572  0.5320  0.1366
 4119SOL     OW16241   1.375   0.582   4.443  0.3442 -0.0194 -0.0652
 4119SOL    HW216242   1.332   0.515   4.391 -0.2718  1.8554 -2.1080
 4119SOL    HW316243   1.424   0.635   4.380  1.4431  1.0145  1.5578
 4119SOL    MW416244   1.376   0.581   4.428  0.4079  0.3644 -0.1206
 4120SOL     OW16245   5.757   3.460   0.311 -0.1260  0.6549  0.7904
 4120SOL    HW216246   5.718   3.506   0.236 -1.5268 -0.8993  0.5059
 4120SOL    HW316247   5.812   3.393   0.272 -0.0847  0.4679  1.1680
 4120SOL    MW416248   5.759   3.457   0.296 -0.3053  0.4252  0.8027
 4121SOL     OW16249   5.798   4.657   1.702  0.3338 -0.2961  0.3144
 4121SOL    HW216250   5.723   4.686   1.755  0.6819 -0.9393  1.1876
 4121SOL    HW316251   5.785   4.563   1.690  1.4578 -0.6072  1.2855
 4121SOL    MW416252   5.787   4.649   1.708  0.5280 -0.4220  0.5577
 4122SOL     OW16253   1.817   0.936   1.662  0.1113  0.1055  0.1322
 4122SOL    HW216254   1.838   0.874   1.732  1.0320  0.4565  0.1877
 4122SOL    HW316255   1.768   1.005   1.706  0.0778 -0.0222  0.2982
 4122SOL    MW416256   1.813   0.937   1.677  0.2283  0.1349  0.1614
 4123SOL     OW16257   5.162   3.224   1.421  0.2359 -0.0135  0.3766
 4123SOL    HW216258   5.243   3.196   1.378  1.0435  1.9790  0.4653
 4123SOL    HW316259   5.102   3.242   1.348  1.7624  3.8377 -0.2036
 4123SOL    MW416260   5.165   3.223   1.406  0.5439  0.7575  0.3118
 4124SOL     OW16261   2.913   2.076   0.092 -0.1323 -0.4737  0.1009
 4124SOL    HW216262   2.935   2.011   0.159 -0.9182 -1.3334 -0.4493
 4124SOL    HW316263   2.845   2.034   0.040 -2.5148  1.7445  1.2389
 4124SOL    MW416264   2.907   2.062   0.094 -0.5503 -0.2945  0.1785
 4125SOL     OW16265   0.278   5.385   5.495 -0.1583  0.1276  0.6949
 4125SOL    HW216266   0.261   5.448   5.564 -1.6870  1.2662 -0.6456
 4125SOL    HW316267   0.316   5.437   5.424  0.8322 -0.9090  0.4392
 4125SOL    MW416268   0.281   5.400   5.495 -0.2293  0.1410  0.4843
 4126SOL     OW16269   5.352   6.427   5.515 -0.2861  1.0548 -0.5947
 4126SOL    HW216270   5.298   6.410   5.438 -0.8499  0.0465 -0.0049
 4126SOL    HW316271   5.414   6.495   5.487 -0.1247  0.3307 -2.0942
 4126SOL    MW416272   5.353   6.434   5.501 -0.3392  0.8263 -0.7147
 4127SOL     OW16273   3.859   4.346   4.142 -0.0400  0.9947 -0.3368
 4127SOL    HW216274   3.858   4.260   4.099 -0.8408  0.4373  0.7268
 4127SOL    HW316275   3.925   4.396   4.095 -0.2190  0.1057 -1.5912
 4127SOL    MW416276   3.867   4.341   4.130 -0.1692  0.8039 -0.3620
 4128SOL     OW16277   0.960   1.867   0.304  0.1419 -0.4128  0.2179
 4128SOL    HW216278   0.878   1.917   0.295  0.0953 -0.5282 -0.0088
 4128SOL    HW316279   0.986   1.848   0.214  1.1536  0.8135  0.2126
 4128SOL    MW416280   0.953   1.871   0.291  0.2692 -0.2662  0.1873
 4129SOL     OW16281   0.821   0.049   5.933 -0.3000  0.2318  0.2831
 4129SOL    HW216282   0.740   0.093   5.959 -0.0009  1.0315 -0.1170
 4129SOL    HW316283   0.884   0.072   6.001  0.1557  1.3423 -0.4970
 4129SOL    MW416284   0.818   0.058   5.945 -0.2004  0.4839  0.1274
 4130SOL     OW16285   4.969   5.467   1.531 -0.2596  0.1618  0.0910
 4130SOL    HW216286   4.882   5.432   1.553 -0.2691  0.6673  0.9095
 4130SOL    HW316287   4.967   5.557   1.563  0.2293  0.4993 -0.7903
 4130SOL    MW416288   4.957   5.474   1.538 -0.1963  0.2730  0.0827
 4131SOL     OW16289   5.009   5.981   1.274  0.5599 -0.1896 -0.0233
 4131SOL    HW216290   5.011   5.907   1.213  0.7883  0.4045 -0.7427
 4131SOL    HW316291   4.927   5.968   1.323  0.3454 -0.6502 -0.4877
 4131SOL    MW416292   4.998   5.970   1.272  0.5618 -0.1720 -0.1795
 4132SOL     OW16293   5.164   3.053   0.420  0.1242  0.3055  0.8892
 4132SOL    HW216294   5.089   3.019   0.371 -0.0884  0.9807  0.7345
 4132SOL    HW316295   5.167   3.146   0.398  0.8667  0.3332  1.0833
 4132SOL    MW416296   5.154   3.061   0.411  0.1941  0.3983  0.8944
 4133SOL     OW16297   6.411   2.345   3.147  0.1142 -0.1926  0.1033
 4133SOL    HW216298   6.458   2.357   3.064  0.5719  1.8906  0.6084
 4133SOL    HW316299   6.465   2.283   3.196  1.5063  0.9008  0.0226
 4133SOL    MW416300   6.425   2.339   3.142  0.3583  0.2265  0.1593
 4134SOL     OW16301   5.746   0.886   2.572 -0.8428 -0.1077 -0.1726
 4134SOL    HW216302   5.794   0.910   2.493  0.7987 -0.4202  0.6972
 4134SOL    HW316303   5.732   0.969   2.617 -1.0544 -0.0317 -0.3713
 4134SOL    MW416304   5.750   0.900   2.567 -0.6542 -0.1389 -0.0841
 4135SOL     OW16305   5.246   3.850   3.535  0.3192  0.0016  0.0334
 4135SOL    HW216306   5.163   3.807   3.514 -0.1291  0.1360  1.4525
 4135SOL    HW316307   5.247   3.928   3.479 -0.7447  0.2555  0.3325
 4135SOL    MW416308   5.235   3.855   3.525  0.1197  0.0528  0.2601
 4136SOL     OW16309   1.095   1.065   5.553  0.0814 -0.3064  0.0703
 4136SOL    HW216310   1.000   1.065   5.541  0.0035  0.0089  0.6578
 4136SOL    HW316311   1.116   1.154   5.581  0.5996 -0.2682 -0.4339
 4136SOL    MW416312   1.086   1.077   5.555  0.1394 -0.2597  0.0813
 4137SOL     OW16313   0.537   5.156   5.357 -0.0897  0.4018 -0.4984
 4137SOL    HW216314   0.556   5.121   5.444 -0.0663 -0.6394 -0.9044
 4137SOL    HW316315   0.462   5.104   5.326 -1.6556  2.3473 -0.1659
 4137SOL    MW416316   0.529   5.145   5.364 -0.2932  0.5211 -0.5081
 4138SOL     OW16317   3.666   4.863   2.245 -0.3996  0.5457  0.0487
 4138SOL    HW216318   3.640   4.788   2.193 -1.3397  0.4322  0.6654
 4138SOL    HW316319   3.677   4.829   2.334  0.6778  0.8398  0.0506
 4138SOL    MW416320   3.664   4.849   2.250 -0.3815  0.5696  0.1303
 4139SOL     OW16321   1.444   5.526   2.377 -0.1899  0.2321 -0.0523
 4139SOL    HW216322   1.357   5.563   2.393  0.0548  0.2994  1.2583
 4139SOL    HW316323   1.503   5.602   2.380  0.0404  0.0467  0.2802
 4139SOL    MW416324   1.441   5.541   2.380 -0.1272  0.2165  0.1645
 4140SOL     OW16325   5.324   2.995   4.941  0.0577  0.2757  0.0624
 4140SOL    HW216326   5.415   2.968   4.925  0.1053  0.9900 -1.0428
 4140SOL    HW316327   5.286   3.003   4.853 -0.5840  1.6081  0.4346
 4140SOL    MW416328   5.331   2.992   4.927 -0.0207  0.5457 -0.0343
 4141SOL     OW16329   4.985   3.219   1.214 -0.0797  0.2457  0.1625
 4141SOL    HW216330   4.902   3.196   1.257  1.7712 -1.2515  3.3242
 4141SOL    HW316331   5.012   3.139   1.170 -0.0541  0.5868 -0.4537
 4141SOL    MW416332   4.977   3.206   1.214  0.1679  0.0932  0.4983
 4142SOL     OW16333   2.787   4.701   3.205  0.5701 -0.1027 -0.7912
 4142SOL    HW216334   2.802   4.619   3.251 -0.9513  0.1402  0.2193
 4142SOL    HW316335   2.801   4.680   3.113 -1.0019 -1.8546 -0.6963
 4142SOL    MW416336   2.790   4.687   3.199  0.1620 -0.3018 -0.6453
 4143SOL     OW16337   4.297   3.864   1.680 -0.4279  0.5658 -0.3413
 4143SOL    HW216338   4.270   3.806   1.751  1.5395 -1.2561 -0.9603
 4143SOL    HW316339   4.217   3.910   1.655 -2.1272 -1.8457  0.2485
 4143SOL    MW416340   4.283   3.862   1.686 -0.3926  0.0072 -0.3452
 4144SOL     OW16341   1.097   2.298   3.662  0.0877 -0.1214 -0.2430
 4144SOL    HW216342   1.068   2.259   3.579  0.3971 -0.6262 -0.1161
 4144SOL    HW316343   1.024   2.352   3.689 -1.4784 -2.6227  0.8984
 4144SOL    MW416344   1.084   2.300   3.654 -0.0781 -0.5180 -0.0757
 4145SOL     OW16345   3.213   5.537   2.744  0.0194  0.5521  0.3206
 4145SOL    HW216346   3.218   5.512   2.652  0.3480  1.1550  0.1707
 4145SOL    HW316347   3.204   5.632   2.743 -0.4863  0.5202  0.9016
 4145SOL    MW416348   3.212   5.546   2.732 -0.0040  0.6274  0.3775
 4146SOL     OW16349   1.078   0.812   3.437 -0.5486  0.3585 -0.1814
 4146SOL    HW216350   1.165   0.849   3.445 -0.6044  0.1237  2.5432
 4146SOL    HW316351   1.025   0.860   3.502 -1.8457 -1.0458 -0.1254
 4146SOL    MW416352   1.082   0.823   3.447 -0.7271  0.1422  0.1854
 4147SOL     OW16353   3.348   0.991   1.321 -0.7801 -0.0760 -0.2877
 4147SOL    HW216354   3.425   1.033   1.359 -0.6421 -1.3165  0.8981
 4147SOL    HW316355   3.288   1.063   1.300  0.1735  0.8122 -0.0304
 4147SOL    MW416356   3.350   1.006   1.323 -0.6361 -0.1225 -0.0973
 4148SOL     OW16357   5.854   4.955   4.142 -0.2068 -0.8975  0.3544
 4148SOL    HW216358   5.937   4.909   4.151 -0.3582 -1.0318  1.0745
 4148SOL    HW316359   5.852   5.018   4.214 -0.3657 -0.3201 -0.1401
 4148SOL    MW416360   5.864   4.957   4.152 -0.2477 -0.8390  0.3842
 4149SOL     OW16361   6.041   3.919   5.010  0.3167 -0.4852  0.1240
 4149SOL    HW216362   6.035   4.013   5.024 -4.2665 -0.5847  0.3891
 4149SOL    HW316363   6.036   3.908   4.915  0.7018 -0.4980  0.1023
 4149SOL    MW416364   6.039   3.930   4.999 -0.2372 -0.5000  0.1561
 4150SOL     OW16365   2.630   2.816   4.875 -0.0831  0.5234  0.3049
 4150SOL    HW216366   2.719   2.793   4.850 -0.1661  0.3418  0.1726
 4150SOL    HW316367   2.631   2.817   4.970 -0.7325 -2.8324  0.4706
 4150SOL    MW416368   2.642   2.813   4.884 -0.1797  0.0567  0.3093
 4151SOL     OW16369   1.907   5.030   1.371  0.0263  0.8642 -0.0394
 4151SOL    HW216370   1.925   5.111   1.418 -1.5433  1.1950  0.0528
 4151SOL    HW316371   1.846   4.982   1.428 -0.5443  0.4877 -0.9407
 4151SOL    MW416372   1.901   5.034   1.385 -0.2561  0.8581 -0.1462
 4152SOL     OW16373   6.415   2.407   6.142 -0.0354 -0.2221  0.1876
 4152SOL    HW216374   6.382   2.380   6.056 -0.9821  0.1944  0.4070
 4152SOL    HW316375   6.510   2.414   6.130 -0.2860  1.2186 -1.2311
 4152SOL    MW416376   6.423   2.404   6.129 -0.1934  0.0229  0.0293
 4153SOL     OW16377   1.494   3.323   1.780 -0.5382 -1.0875 -0.8019
 4153SOL    HW216378   1.420   3.263   1.789 -2.0547  0.3953 -2.4961
 4153SOL    HW316379   1.538   3.294   1.700 -1.3820  0.0869 -1.7260
 4153SOL    MW416380   1.490   3.311   1.771 -0.8496 -0.7369 -1.1474
 4154SOL     OW16381   3.964   5.071   5.517  0.0610 -0.0997 -0.0724
 4154SOL    HW216382   3.963   5.096   5.424  1.4279 -3.2098 -1.0902
 4154SOL    HW316383   3.880   5.026   5.530  0.6092 -1.2807 -0.4085
 4154SOL    MW416384   3.952   5.068   5.506  0.3137 -0.6658 -0.2510
 4155SOL     OW16385   0.484   0.966   0.793 -0.1016 -0.3118 -0.5901
 4155SOL    HW216386   0.499   0.882   0.750 -0.7433 -0.2990 -0.8432
 4155SOL    HW316387   0.572   0.998   0.814  0.1573 -0.9234 -0.7208
 4155SOL    MW416388   0.497   0.959   0.790 -0.1521 -0.3908 -0.6408
 4156SOL     OW16389   3.242   1.562   1.745 -0.7130 -0.2403  0.0340
 4156SOL    HW216390   3.250   1.657   1.756 -1.2994  0.1876 -2.6348
 4156SOL    HW316391   3.287   1.526   1.822  0.7147  2.1579  0.4459
 4156SOL    MW416392   3.249   1.570   1.757 -0.6020  0.1326 -0.2637
 4157SOL     OW16393   1.172   5.615   2.085 -0.6079  0.3484  0.3277
 4157SOL    HW216394   1.176   5.703   2.049 -0.8583  0.4214  0.4743
 4157SOL    HW316395   1.083   5.585   2.067 -0.3206 -0.1378 -0.3312
 4157SOL    MW416396   1.161   5.622   2.078 -0.6030  0.2939  0.2601
 4158SOL     OW16397   2.708   0.062   0.366 -0.4703  0.2993  0.5033
 4158SOL    HW216398   2.752   0.125   0.310 -0.1271 -0.0744  0.3431
 4158SOL    HW316399   2.728  -0.023   0.327  0.5191 -0.0438  1.6671
 4158SOL    MW416400   2.717   0.059   0.354 -0.2944  0.2047  0.6357
 4159SOL     OW16401   5.284   0.649   0.316 -0.1110  0.3303 -0.7192
 4159SOL    HW216402   5.345   0.679   0.383  1.6810 -0.4060 -1.9246
 4159SOL    HW316403   5.256   0.562   0.345  0.8678 -0.1005 -1.0214
 4159SOL    MW416404   5.289   0.642   0.328  0.2545  0.1763 -0.9181
 4160SOL     OW16405   3.165   3.376   1.530  0.4234 -0.5511  0.1986
 4160SOL    HW216406   3.218   3.341   1.601 -0.1685 -0.2693  0.7843
 4160SOL    HW316407   3.173   3.471   1.538 -1.7901 -0.4231  1.5806
 4160SOL    MW416408   3.173   3.384   1.540  0.0533 -0.4970  0.4582
 4161SOL     OW16409   3.688   1.771   1.815 -0.2120  0.2869  0.1307
 4161SOL    HW216410   3.776   1.794   1.786 -0.0277 -0.1164  0.3816
 4161SOL    HW316411   3.663   1.696   1.761  0.5688 -1.2025  1.7542
 4161SOL    MW416412   3.696   1.764   1.804 -0.0847  0.0372  0.3780
 4162SOL     OW16413   0.315   1.449   1.187 -0.5409  0.5211 -0.1322
 4162SOL    HW216414   0.290   1.521   1.130  0.1783  1.1393  0.3142
 4162SOL    HW316415   0.407   1.431   1.165 -1.7954 -3.4047 -3.5839
 4162SOL    MW416416   0.324   1.456   1.177 -0.6115  0.0847 -0.5287
 4163SOL     OW16417   5.087   1.204   5.186  0.1740  0.2817 -0.0327
 4163SOL    HW216418   5.124   1.281   5.229 -0.7531  0.7649 -0.0841
 4163SOL    HW316419   5.162   1.163   5.142  1.1377 -0.2003  1.9647
 4163SOL    MW416420   5.102   1.209   5.186  0.1788  0.2819  0.2241
 4164SOL     OW16421   4.338   3.374   3.399  0.2003 -0.5889  0.3347
 4164SOL    HW216422   4.385   3.375   3.482 -0.6169  2.3611  0.8742
 4164SOL    HW316423   4.407   3.384   3.333  0.6236  2.3837  1.0457
 4164SOL    MW416424   4.354   3.376   3.401  0.1484  0.1925  0.4997
 4165SOL     OW16425   5.444   2.878   0.213 -0.0271  0.2201  0.2091
 4165SOL    HW216426   5.488   2.930   0.281  1.0353 -1.5126  0.8898
 4165SOL    HW316427   5.360   2.856   0.251 -0.4467  1.3068 -0.0422
 4165SOL    MW416428   5.439   2.882   0.227  0.0577  0.1349  0.2657
 4166SOL     OW16429   0.953   0.847   2.049  0.3528  0.2207 -0.0900
 4166SOL    HW216430   1.015   0.816   1.982  0.6105 -0.2932  0.3788
 4166SOL    HW316431   0.871   0.802   2.028  0.3324  0.3470 -0.2826
 4166SOL    MW416432   0.951   0.837   2.037  0.3841  0.1695 -0.0535
 4167SOL     OW16433   4.597   4.345   0.099 -0.2881  0.5756 -0.0506
 4167SOL    HW216434   4.672   4.304   0.058 -0.0811 -0.7482  1.5646
 4167SOL    HW316435   4.570   4.413   0.037  0.8480 -0.3950 -1.6759
 4167SOL    MW416436   4.603   4.349   0.085 -0.1109  0.2729 -0.0519
 4168SOL     OW16437   5.068   6.047   0.013 -0.1973 -0.2194  0.0876
 4168SOL    HW216438   5.012   6.125   0.013  1.2065  0.8327 -0.3846
 4168SOL    HW316439   5.143   6.072   0.067  0.4559 -1.1116 -0.3860
 4168SOL    MW416440   5.070   6.061   0.020  0.0741 -0.1983 -0.0372
 4169SOL     OW16441   2.426   2.055   4.065  0.8914 -0.3333 -1.0646
 4169SOL    HW216442   2.453   2.089   4.150 -1.5323  1.9477 -1.0872
 4169SOL    HW316443   2.499   2.078   4.006  1.2762  0.7987 -0.1716
 4169SOL    MW416444   2.439   2.063   4.068  0.6224  0.1170 -0.9498
 4170SOL     OW16445   4.494   5.124   4.704 -0.5709 -0.5204 -0.6454
 4170SOL    HW216446   4.520   5.185   4.635  0.9968  0.7869  0.9971
 4170SOL    HW316447   4.506   5.037   4.666  1.5700  0.1429 -1.6047
 4170SOL    MW416448   4.499   5.121   4.690 -0.0816 -0.2604 -0.5553
 4171SOL     OW16449   0.273   5.894   2.071  0.0866  0.0629  0.6716
 4171SOL    HW216450   0.216   5.899   1.995  1.2500  0.4980 -0.2111
 4171SOL    HW316451   0.229   5.946   2.138 -1.3432 -0.9772  0.5863
 4171SOL    MW416452   0.260   5.902   2.070  0.0515 -0.0169  0.5439
 4172SOL     OW16453   5.183   3.105   0.690  0.6006  0.1589  0.0138
 4172SOL    HW216454   5.167   3.092   0.597 -1.6858  1.5728  0.1245
 4172SOL    HW316455   5.273   3.138   0.695  0.5407  0.6714 -1.7625
 4172SOL    MW416456   5.193   3.108   0.678  0.2910  0.4131 -0.2060
 4173SOL     OW16457   1.457   1.399   4.618 -0.3213  0.1774 -0.2558
 4173SOL    HW216458   1.530   1.419   4.677  1.5020  1.6608 -2.8000
 4173SOL    HW316459   1.442   1.306   4.629  1.5271 -0.0436  0.8712
 4173SOL    MW416460   1.465   1.390   4.627  0.1631  0.3440 -0.4428
 4174SOL     OW16461   5.839   4.833   3.002 -0.6569  0.1160  0.2414
 4174SOL    HW216462   5.873   4.914   3.040 -1.3164  0.1610  0.7438
 4174SOL    HW316463   5.910   4.770   3.013 -0.7028  0.2238  1.2391
 4174SOL    MW416464   5.853   4.835   3.008 -0.7499  0.1362  0.4393
 4175SOL     OW16465   5.926   4.480   3.885  0.2572 -0.4265 -0.2312
 4175SOL    HW216466   5.841   4.480   3.841 -0.4765 -0.8289  1.1169
 4175SOL    HW316467   5.966   4.396   3.863 -1.1692 -1.6991  1.7747
 4175SOL    MW416468   5.920   4.469   3.876 -0.0278 -0.6475  0.2113
 4176SOL     OW16469   2.101   0.150   3.249  0.2549  0.0567  0.2320
 4176SOL    HW216470   2.161   0.196   3.189  0.1583 -1.3586 -0.9959
 4176SOL    HW316471   2.020   0.140   3.199 -0.0292 -0.6424  0.8233
 4176SOL    MW416472   2.098   0.155   3.234  0.2047 -0.2223  0.1480
 4177SOL     OW16473   4.111   1.766   5.291 -0.0291  0.1199 -0.0835
 4177SOL    HW216474   4.141   1.709   5.220 -0.5221  1.8325 -1.7414
 4177SOL    HW316475   4.143   1.853   5.268 -1.2712  0.9467  1.1340
 4177SOL    MW416476   4.119   1.770   5.278 -0.2581  0.4549 -0.1416
 4178SOL     OW16477   4.834   0.101  -0.018 -0.5360  0.2844  0.2067
 4178SOL    HW216478   4.830   0.140  -0.105  0.7836  0.2539  0.1032
 4178SOL    HW316479   4.767   0.033  -0.019  0.1728 -0.4408 -1.1663
 4178SOL    MW416480   4.825   0.097  -0.030 -0.2684  0.1847  0.0118
 4179SOL     OW16481   2.376   5.085   2.522 -0.4682 -0.7161  0.2344
 4179SOL    HW216482   2.356   5.018   2.457 -1.9205 -0.1440  0.0593
 4179SOL    HW316483   2.404   5.161   2.471 -3.1475  0.2682  0.1163
 4179SOL    MW416484   2.377   5.086   2.507 -1.0133 -0.5107  0.1957
 4180SOL     OW16485   2.428   2.229   1.583  0.2431 -0.2161 -0.6736
 4180SOL    HW216486   2.451   2.272   1.665  0.6289 -1.6430  0.0096
 4180SOL    HW316487   2.499   2.252   1.523  1.2593 -1.0746  0.1326
 4180SOL    MW416488   2.441   2.237   1.586  0.4281 -0.5176 -0.4771
 4181SOL     OW16489   2.152   2.112   6.126 -0.4159  0.2789 -0.3793
 4181SOL    HW216490   2.221   2.147   6.182 -1.0489 -0.5592  0.9837
 4181SOL    HW316491   2.190   2.036   6.084 -0.9232 -1.1634  1.6225
 4181SOL    MW416492   2.166   2.107   6.128 -0.5664 -0.0219  0.0646
 4182SOL     OW16493   6.332   0.149   4.854 -0.0331  0.2462 -0.1283
 4182SOL    HW216494   6.358   0.065   4.893  2.0889  2.0974  2.8788
 4182SOL    HW316495   6.263   0.181   4.912 -1.1808  0.4106 -1.5506
 4182SOL    MW416496   6.326   0.142   4.867  0.0954  0.5121  0.0808
 4183SOL     OW16497   1.591   0.813   4.025 -0.0171  0.5714  0.1372
 4183SOL    HW216498   1.666   0.790   3.970 -1.1679 -0.7918 -0.9392
 4183SOL    HW316499   1.519   0.825   3.963 -1.0085  0.4499  1.2446
 4183SOL    MW416500   1.591   0.811   4.009 -0.2997  0.3755  0.1413
 4184SOL     OW16501   0.827   0.572   3.358 -0.0558 -0.3630 -0.7616
 4184SOL    HW216502   0.877   0.639   3.311  0.6039 -1.1041 -1.1422
 4184SOL    HW316503   0.885   0.496   3.359 -1.0593 -1.1408 -0.9194
 4184SOL    MW416504   0.841   0.571   3.352 -0.1012 -0.5634 -0.8327
 4185SOL     OW16505   0.826   4.793   3.221 -0.3327 -0.9172  0.1136
 4185SOL    HW216506   0.742   4.753   3.245  0.1049 -1.0138  1.5522
 4185SOL    HW316507   0.884   4.773   3.294  0.1809  1.5019  0.4664
 4185SOL    MW416508   0.822   4.785   3.233 -0.2072 -0.6108  0.3500
 4186SOL     OW16509   3.715   2.195   5.758  0.4791  0.0333  0.4778
 4186SOL    HW216510   3.622   2.214   5.751  0.1740 -1.5007  0.1955
 4186SOL    HW316511   3.758   2.276   5.728 -0.7539 -0.2029 -2.2149
 4186SOL    MW416512   3.709   2.208   5.753  0.2762 -0.2002  0.0853
 4187SOL     OW16513   2.439   0.430   4.623 -0.5011  0.4652  0.2833
 4187SOL    HW216514   2.424   0.345   4.664 -1.0597  0.6254  0.4104
 4187SOL    HW316515   2.534   0.443   4.628 -0.2803 -0.6089 -0.6477
 4187SOL    MW416516   2.450   0.421   4.629 -0.5457  0.3446  0.1772
 4188SOL     OW16517   3.810   3.313   5.354  0.0398 -0.4899  0.3287
 4188SOL    HW216518   3.781   3.391   5.401  2.4811  0.0479  1.0998
 4188SOL    HW316519   3.772   3.240   5.403 -1.5804  0.1622  0.1031
 4188SOL    MW416520   3.801   3.314   5.367  0.1481 -0.3329  0.4007
 4189SOL     OW16521   2.091   4.558   0.282  0.2922  0.1801 -0.4514
 4189SOL    HW216522   2.176   4.532   0.318 -0.4578 -1.0731  0.4896
 4189SOL    HW316523   2.029   4.496   0.320 -1.4939  2.7610  1.1572
 4189SOL    MW416524   2.094   4.547   0.292 -0.0424  0.3552 -0.1150
 4190SOL     OW16525   1.060   4.284   3.826  0.4692  0.4159  0.9082
 4190SOL    HW216526   1.086   4.376   3.827 -0.1872  0.6017  1.1744
 4190SOL    HW316527   1.035   4.267   3.736  0.8393  0.4209  0.8000
 4190SOL    MW416528   1.060   4.294   3.814  0.4314  0.4410  0.9290
 4191SOL     OW16529   6.326   4.137   0.164  0.1056 -0.0041 -0.2948
 4191SOL    HW216530   6.315   4.047   0.132  1.1115  0.1007 -0.9793
 4191SOL    HW316531   6.248   4.153   0.216 -0.2591 -1.1580 -0.4459
 4191SOL    MW416532   6.314   4.127   0.167  0.1902 -0.1425 -0.4050
 4192SOL     OW16533   3.536   3.381   5.795  0.1826 -0.4745 -0.2054
 4192SOL    HW216534   3.521   3.289   5.817  0.2039 -0.4530 -0.1013
 4192SOL    HW316535   3.629   3.395   5.810  0.1254 -0.3610  0.0597
 4192SOL    MW416536   3.546   3.371   5.800  0.1779 -0.4567 -0.1567
 4193SOL     OW16537   1.765   0.277   6.162  0.6674  0.1953  0.3662
 4193SOL    HW216538   1.690   0.280   6.103  0.6960  0.6895  0.3545
 4193SOL    HW316539   1.742   0.338   6.232  1.0459  0.3205  0.3808
 4193SOL    MW416540   1.752   0.285   6.164  0.7211  0.2771  0.3666
 4194SOL     OW16541   1.916   0.933   4.443  0.1354 -0.5875 -0.3122
 4194SOL    HW216542   1.901   0.982   4.524  1.2703 -0.1916 -0.3379
 4194SOL    HW316543   2.009   0.943   4.425 -0.2543  0.0499 -2.1446
 4194SOL    MW416544   1.926   0.941   4.451  0.2337 -0.4511 -0.5574
 4195SOL     OW16545   0.038   2.999   0.389  0.3253  1.1424  0.0720
 4195SOL    HW216546  -0.014   3.079   0.381 -0.5896  0.5389 -0.0501
 4195SOL    HW316547   0.097   3.002   0.314  0.0376  1.5075 -0.1442
 4195SOL    MW416548   0.039   3.010   0.378  0.1666  1.1109  0.0274
 4196SOL     OW16549   3.002   5.265   1.035 -0.1123 -0.0814 -0.1715
 4196SOL    HW216550   3.004   5.338   1.097 -0.8569 -0.7652  0.6958
 4196SOL    HW316551   3.009   5.306   0.949  1.3811  0.8593  0.3706
 4196SOL    MW416552   3.003   5.280   1.032 -0.0135 -0.0475  0.0144
 4197SOL     OW16553   5.487   1.470   3.769  0.1264  0.1350 -0.3631
 4197SOL    HW216554   5.509   1.503   3.681 -1.8898  1.5740 -0.4031
 4197SOL    HW316555   5.392   1.477   3.774  0.0684 -1.2657  1.4537
 4197SOL    MW416556   5.478   1.475   3.758 -0.1472  0.1400 -0.1287
 4198SOL     OW16557   6.064   3.602   5.801  0.6565  0.3981 -0.0724
 4198SOL    HW216558   6.053   3.524   5.746 -0.2959  1.4729 -1.4684
 4198SOL    HW316559   5.992   3.598   5.864 -1.3114  1.6756 -2.1099
 4198SOL    MW416560   6.053   3.591   5.802  0.2712  0.7084 -0.5254
 4199SOL     OW16561   3.131   3.957   0.931 -0.1430  0.0291 -0.4116
 4199SOL    HW216562   3.103   3.905   1.006  0.4856  0.4390  0.1148
 4199SOL    HW316563   3.052   3.967   0.878 -1.0693  1.2872  1.1255
 4199SOL    MW416564   3.117   3.951   0.934 -0.1823  0.2491 -0.1393
 4200SOL     OW16565   3.775   0.121   1.305  0.2978 -0.2569  0.6390
 4200SOL    HW216566   3.790   0.116   1.399  0.6232 -1.4328  0.5446
 4200SOL    HW316567   3.848   0.172   1.271 -0.8092  1.8304  1.2099
 4200SOL    MW416568   3.786   0.127   1.313  0.1947 -0.1367  0.7019
 4201SOL     OW16569   4.871   2.996   3.938 -1.0429  0.1747  0.0776
 4201SOL    HW216570   4.863   2.978   3.844 -0.6678 -0.2347  0.1190
 4201SOL    HW316571   4.939   2.936   3.968 -1.5592 -0.1036  0.7198
 4201SOL    MW416572   4.879   2.985   3.929 -1.0615  0.0840  0.1678
 4202SOL     OW16573   3.563   2.415   1.659 -0.1674 -0.1650 -0.3253
 4202SOL    HW216574   3.535   2.379   1.744 -1.6185  2.6377  0.4981
 4202SOL    HW316575   3.648   2.455   1.677  0.1196 -0.6772 -0.5279
 4202SOL    MW416576   3.571   2.415   1.673 -0.3210  0.1372 -0.2434
 4203SOL     OW16577   5.803   5.508   0.550  0.4668 -0.2910 -0.2690
 4203SOL    HW216578   5.762   5.462   0.476  2.1157 -0.6963 -0.9875
 4203SOL    HW316579   5.841   5.587   0.512 -0.8009  0.7884  0.6365
 4203SOL    MW416580   5.803   5.512   0.535  0.5171 -0.2020 -0.2443
 4204SOL     OW16581   0.053   3.197   0.639 -0.7541  0.1716  0.2363
 4204SOL    HW216582  -0.013   3.130   0.619  0.8914 -1.3755 -0.2979
 4204SOL    HW316583   0.134   3.161   0.604  0.0413  2.9901 -1.1066
 4204SOL    MW416584   0.055   3.183   0.632 -0.4321  0.3393 -0.0114
 4205SOL     OW16585   5.790   3.105   4.396  0.0031 -0.7603 -0.4450
 4205SOL    HW216586   5.699   3.129   4.410  0.1047  0.3414 -1.5190
 4205SOL    HW316587   5.840   3.184   4.418  0.7596 -1.5159  0.6629
 4205SOL    MW416588   5.785   3.119   4.400  0.1163 -0.7147 -0.4405
 4206SOL     OW16589   1.211   2.379   5.034  0.3318 -0.3575 -0.1332
 4206SOL    HW216590   1.292   2.372   4.984 -0.6471 -0.1251 -1.8159
 4206SOL    HW316591   1.236   2.425   5.114  2.1780 -1.8005  0.1941
 4206SOL    MW416592   1.225   2.384   5.038  0.4462 -0.5172 -0.3120
 4207SOL     OW16593   2.820   2.505   4.416 -0.6097  0.0211 -0.7379
 4207SOL    HW216594   2.845   2.596   4.432 -1.4378 -0.0800  1.4833
 4207SOL    HW316595   2.878   2.454   4.472 -0.6772 -0.7681 -1.3729
 4207SOL    MW416596   2.831   2.510   4.425 -0.7279 -0.0963 -0.5286
 4208SOL     OW16597   1.414   3.192   1.215  0.2030  0.7641  0.7039
 4208SOL    HW216598   1.429   3.281   1.184  0.3498  0.7936  0.8540
 4208SOL    HW316599   1.388   3.143   1.137  3.0208  0.2454 -0.0432
 4208SOL    MW416600   1.413   3.197   1.200  0.5941  0.6995  0.6251
 4209SOL     OW16601   5.967   5.118   1.995  0.0227 -0.5876  0.4483
 4209SOL    HW216602   5.892   5.081   1.949  0.0323  0.6635 -0.6474
 4209SOL    HW316603   5.936   5.203   2.027  1.5576  1.0501 -2.0651
 4209SOL    MW416604   5.953   5.124   1.993  0.2265 -0.2064 -0.0279
 4210SOL     OW16605   3.841   2.880   3.123  0.5885 -0.3049  0.3023
 4210SOL    HW216606   3.807   2.968   3.136 -0.5159 -0.6870  0.1134
 4210SOL    HW316607   3.921   2.877   3.176  0.1841  0.5339  0.9849
 4210SOL    MW416608   3.847   2.891   3.131  0.3895 -0.2446  0.3674
 4211SOL     OW16609   5.863   3.299   2.076  0.1219 -0.5763  0.3375
 4211SOL    HW216610   5.833   3.348   2.152 -0.9977 -1.1019  0.2542
 4211SOL    HW316611   5.810   3.333   2.003  1.5621  0.3214 -0.3490
 4211SOL    MW416612   5.852   3.310   2.076  0.1642 -0.5272  0.2359
 4212SOL     OW16613   0.359   3.638   4.189  0.3634  0.4618 -0.7809
 4212SOL    HW216614   0.442   3.675   4.161  0.5686 -0.1128 -0.9433
 4212SOL    HW316615   0.299   3.655   4.116  0.8498 -0.8711 -1.5293
 4212SOL    MW416616   0.362   3.645   4.176  0.4547  0.2101 -0.9011
 4213SOL     OW16617   5.138   4.782   4.610  0.2459 -0.2609 -0.1445
 4213SOL    HW216618   5.044   4.789   4.630  0.1260  1.5489 -1.1410
 4213SOL    HW316619   5.150   4.692   4.580 -1.0794 -0.6500  0.4324
 4213SOL    MW416620   5.127   4.771   4.609  0.0552 -0.0734 -0.1999
 4214SOL     OW16621   6.310   4.571   1.384 -0.1422 -0.2002  0.4987
 4214SOL    HW216622   6.233   4.626   1.371 -0.4524 -0.2413  2.0719
 4214SOL    HW316623   6.314   4.555   1.478  1.7075 -0.3231  0.4527
 4214SOL    MW416624   6.301   4.576   1.394  0.0609 -0.2218  0.7002
 4215SOL     OW16625   3.621   4.917   6.232 -0.0617  0.7540  0.1939
 4215SOL    HW216626   3.687   4.971   6.276  2.0315  0.6724 -2.5325
 4215SOL    HW316627   3.616   4.954   6.144  1.0895 -3.0415 -1.6857
 4215SOL    MW416628   3.629   4.929   6.226  0.3664  0.2424 -0.4138
 4216SOL     OW16629   0.633   3.306   4.800 -0.4166 -0.1185  0.5449
 4216SOL    HW216630   0.594   3.301   4.713 -0.9948  2.8943  0.5162
 4216SOL    HW316631   0.699   3.237   4.802 -0.7178 -0.5649 -2.0921
 4216SOL    MW416632   0.636   3.296   4.789 -0.5326  0.2201  0.1932
 4217SOL     OW16633   0.938   0.380   6.033  0.2872 -0.2380  0.0091
 4217SOL    HW216634   1.000   0.422   6.093  0.4145 -0.1080 -0.2104
 4217SOL    HW316635   0.933   0.290   6.064  0.0359 -0.0707  0.4650
 4217SOL    MW416636   0.946   0.374   6.045  0.2708 -0.1987  0.0403
 4218SOL     OW16637   1.973   0.090   4.062 -0.3109 -0.1171  0.3255
 4218SOL    HW216638   1.985   0.163   4.123  1.0227 -0.0321 -0.0068
 4218SOL    HW316639   1.904   0.037   4.102 -0.3196  0.5849  1.2893
 4218SOL    MW416640   1.966   0.092   4.076 -0.1361 -0.0132  0.4088
 4219SOL     OW16641   2.178   4.283   4.023  0.2633 -0.3595  0.1780
 4219SOL    HW216642   2.249   4.292   3.960  0.6636 -1.5882  0.4424
 4219SOL    HW316643   2.107   4.241   3.974  0.0088  0.0950  0.1445
 4219SOL    MW416644   2.178   4.279   4.008  0.2825 -0.4616  0.2085
 4220SOL     OW16645   5.895   3.678   0.472  0.1916 -0.2552  0.2299
 4220SOL    HW216646   5.890   3.604   0.411  0.1946 -1.1941  1.3389
 4220SOL    HW316647   5.947   3.646   0.545 -0.2035  0.7024  0.9536
 4220SOL    MW416648   5.901   3.664   0.473  0.1398 -0.2528  0.4717
 4221SOL     OW16649   4.062   4.214   4.858 -0.3220  0.6497 -0.0677
 4221SOL    HW216650   4.047   4.124   4.886 -1.2768  0.8887  0.2102
 4221SOL    HW316651   4.072   4.208   4.763 -0.5861  0.2715 -0.0742
 4221SOL    MW416652   4.061   4.202   4.849 -0.4828  0.6313 -0.0319
 4222SOL     OW16653   2.510   3.562   5.076  0.3576  0.2970  0.4955
 4222SOL    HW216654   2.583   3.596   5.128  0.7211 -0.5082  0.5321
 4222SOL    HW316655   2.525   3.597   4.988  0.3214  0.8115  0.6893
 4222SOL    MW416656   2.522   3.571   5.071  0.4007  0.2586  0.5259
 4223SOL     OW16657   5.386   0.094   5.959  0.0390  0.3907 -0.2067
 4223SOL    HW216658   5.345   0.035   5.895 -0.5668  1.4820 -0.8472
 4223SOL    HW316659   5.433   0.158   5.907 -0.3173  1.1986  0.4286
 4223SOL    MW416660   5.386   0.094   5.944 -0.0879  0.6413 -0.2074
 4224SOL     OW16661   3.546   4.220   5.414 -0.1496  0.1570 -0.5056
 4224SOL    HW216662   3.491   4.194   5.488 -0.3914  0.0774 -0.7086
 4224SOL    HW316663   3.532   4.151   5.349 -1.4042  1.1528 -1.3618
 4224SOL    MW416664   3.537   4.208   5.415 -0.3470  0.2779 -0.6453
 4225SOL     OW16665   6.247   1.197   0.376 -0.4139  0.3413  0.0229
 4225SOL    HW216666   6.167   1.242   0.350  0.2989  0.8380 -1.4251
 4225SOL    HW316667   6.317   1.245   0.332  0.6248 -0.4856  0.7169
 4225SOL    MW416668   6.246   1.209   0.367 -0.1828  0.2978 -0.0766
 4226SOL     OW16669   3.292   5.702   0.379 -0.0540 -0.0210 -0.0899
 4226SOL    HW216670   3.301   5.789   0.418 -1.4253 -0.6522  1.7692
 4226SOL    HW316671   3.217   5.709   0.321  0.3767  0.2428 -0.6258
 4226SOL    MW416672   3.283   5.714   0.377 -0.1781 -0.0695  0.0847
 4227SOL     OW16673   3.484   2.592   0.522  0.3430  0.6601 -0.2632
 4227SOL    HW216674   3.529   2.588   0.438 -1.3047 -1.3421 -1.1314
 4227SOL    HW316675   3.393   2.611   0.500 -0.0600  0.3988  1.1030
 4227SOL    MW416676   3.478   2.594   0.508  0.0724  0.3615 -0.1975
 4228SOL     OW16677   1.423   5.892   5.192 -0.0150  0.3912  0.0238
 4228SOL    HW216678   1.425   5.937   5.108 -0.0849  0.5472  0.1042
 4228SOL    HW316679   1.514   5.889   5.221 -0.0040  0.4365 -0.0060
 4228SOL    MW416680   1.435   5.898   5.185 -0.0227  0.4177  0.0305
 4229SOL     OW16681   5.967   4.656   4.786  0.4388 -0.1251 -0.5213
 4229SOL    HW216682   5.945   4.603   4.709 -1.1648 -0.3880  0.0709
 4229SOL    HW316683   5.991   4.592   4.853  1.2803  0.0715 -0.6290
 4229SOL    MW416684   5.967   4.640   4.785  0.3383 -0.1338 -0.4574
 4230SOL     OW16685   2.379   1.744   0.511  0.2464 -0.3648 -0.3916
 4230SOL    HW216686   2.347   1.740   0.601 -0.4192  1.3438 -0.5220
 4230SOL    HW316687   2.464   1.788   0.518 -0.0674  0.3015 -0.6331
 4230SOL    MW416688   2.386   1.749   0.524  0.1172 -0.0514 -0.4407
 4231SOL     OW16689   0.913   4.305   4.594 -0.1286 -0.5106  0.2032
 4231SOL    HW216690   0.893   4.245   4.522  0.4800  0.9674 -1.2658
 4231SOL    HW316691   0.940   4.249   4.666  1.3225 -1.9608 -1.4053
 4231SOL    MW416692   0.914   4.290   4.594  0.1432 -0.5069 -0.2028
 4232SOL     OW16693   4.838   1.906   2.990  0.0561  0.6274 -0.3980
 4232SOL    HW216694   4.786   1.903   2.910  0.1664 -0.3977 -0.4427
 4232SOL    HW316695   4.775   1.889   3.060  0.4920 -2.2194 -0.5585
 4232SOL    MW416696   4.823   1.903   2.988  0.1281  0.1165 -0.4251
 4233SOL     OW16697   0.694   0.913   1.235 -0.3023  0.1862  0.3889
 4233SOL    HW216698   0.685   0.915   1.331  0.6208 -0.4323  0.5024
 4233SOL    HW316699   0.736   0.996   1.214  1.9692 -0.7513  0.8465
 4233SOL    MW416700   0.698   0.924   1.245  0.1192 -0.0191  0.4642
 4234SOL     OW16701   2.932   2.968   1.764  0.2905 -0.1524 -0.1140
 4234SOL    HW216702   2.841   2.946   1.780  0.5478 -1.0491  0.1728
 4234SOL    HW316703   2.953   2.927   1.680  0.2495  0.6207 -0.5137
 4234SOL    MW416704   2.923   2.960   1.755  0.3190 -0.1687 -0.1289
 4235SOL     OW16705   0.687   3.481   5.160 -0.3896  0.1862 -0.7659
 4235SOL    HW216706   0.712   3.517   5.245 -0.0368  0.9317 -1.1735
 4235SOL    HW316707   0.639   3.400   5.181  3.1416 -1.8812  0.0452
 4235SOL    MW416708   0.684   3.475   5.174  0.1229  0.0118 -0.7127
 4236SOL     OW16709   4.059   3.337   1.240  0.3615 -0.9750 -0.0273
 4236SOL    HW216710   4.085   3.264   1.184 -1.3296 -0.8873 -0.9880
 4236SOL    HW316711   3.972   3.313   1.272  1.0047 -0.7188  2.0864
 4236SOL    MW416712   4.051   3.324   1.237  0.2232 -0.9296  0.1248
 4237SOL     OW16713   2.904   4.500   4.864  0.3242 -0.2117  0.1574
 4237SOL    HW216714   2.936   4.447   4.937  0.6960 -1.5520 -0.9402
 4237SOL    HW316715   2.860   4.437   4.807 -1.5121  1.0924  0.0718
 4237SOL    MW416716   2.902   4.484   4.866  0.1310 -0.2165  0.0013
 4238SOL     OW16717   2.466   3.266   2.002  0.2000 -0.0205 -0.4039
 4238SOL    HW216718   2.553   3.237   2.031 -0.6826 -1.8177  0.5736
 4238SOL    HW316719   2.420   3.185   1.981 -1.8880  0.7460  0.9783
 4238SOL    MW416720   2.472   3.252   2.003 -0.1919 -0.1565 -0.0925
 4239SOL     OW16721   3.531   0.301   1.434 -0.2576 -0.0992  0.0696
 4239SOL    HW216722   3.573   0.345   1.507  0.4738 -1.5198  0.5448
 4239SOL    HW316723   3.515   0.212   1.466  1.7006 -1.3199 -2.0274
 4239SOL    MW416724   3.534   0.295   1.448  0.0972 -0.4477 -0.1444
 4240SOL     OW16725   4.354   1.719   2.418  0.0026 -0.3936 -0.5215
 4240SOL    HW216726   4.266   1.756   2.426  0.2084 -0.0855  0.5349
 4240SOL    HW316727   4.353   1.642   2.474  0.4996 -0.1925 -0.2255
 4240SOL    MW416728   4.342   1.714   2.426  0.0954 -0.3265 -0.3431
 4241SOL     OW16729   0.231   1.388   6.348  1.1528  0.0400 -0.7085
 4241SOL    HW216730   0.200   1.376   6.438 -0.3581  0.3802 -1.1472
 4241SOL    HW316731   0.275   1.473   6.348 -0.7620  1.0799 -0.7334
 4241SOL    MW416732   0.233   1.398   6.360  0.7008  0.2221 -0.7696
 4242SOL     OW16733   4.463   3.362   1.316 -0.1330  1.0574  0.2586
 4242SOL    HW216734   4.397   3.431   1.317  0.9517  2.1328 -0.5627
 4242SOL    HW316735   4.497   3.360   1.406  0.5123  2.2835  0.0560
 4242SOL    MW416736   4.459   3.371   1.328  0.0953  1.3611  0.1235
 4243SOL     OW16737   3.393   2.194   2.899  0.3871 -0.1483  0.2166
 4243SOL    HW216738   3.409   2.274   2.948  2.3997 -0.6314  0.4430
 4243SOL    HW316739   3.444   2.205   2.818 -2.2332  0.3061 -1.4885
 4243SOL    MW416740   3.402   2.206   2.894  0.3069 -0.1521  0.0215
 4244SOL     OW16741   2.533   1.371   5.238  0.1899  0.2569  0.3618
 4244SOL    HW216742   2.618   1.396   5.276 -0.6525 -0.5577  3.0031
 4244SOL    HW316743   2.527   1.277   5.252 -0.8918  0.2000 -0.3872
 4244SOL    MW416744   2.544   1.362   5.245 -0.0640  0.1420  0.6115
 4245SOL     OW16745   1.641   4.908   1.833 -0.3592 -0.3281  0.1625
 4245SOL    HW216746   1.693   4.835   1.801 -0.1265 -0.2370  0.3244
 4245SOL    HW316747   1.605   4.949   1.755 -2.1479 -1.8116  0.1611
 4245SOL    MW416748   1.643   4.904   1.819 -0.5645 -0.5118  0.1837
 4246SOL     OW16749   1.114   3.164   5.642 -0.0335  0.2247 -0.3819
 4246SOL    HW216750   1.129   3.258   5.649  1.2990 -0.0035  0.1005
 4246SOL    HW316751   1.056   3.155   5.566  0.4689  1.3759 -0.9328
 4246SOL    MW416752   1.108   3.175   5.633  0.2086  0.3465 -0.3910
 4247SOL     OW16753   5.596   2.788   5.449  0.2841  0.2256  0.3777
 4247SOL    HW216754   5.661   2.718   5.437 -0.0714 -0.5128  2.4282
 4247SOL    HW316755   5.631   2.841   5.521 -1.3630 -0.1994  1.5336
 4247SOL    MW416756   5.609   2.786   5.457  0.0199  0.0721  0.8007
 4248SOL     OW16757   4.060   1.355   2.147 -0.1538  0.0445  0.2667
 4248SOL    HW216758   4.144   1.317   2.124  0.4677  1.3903  0.2206
 4248SOL    HW316759   4.004   1.280   2.167  1.2513 -0.8522  0.9981
 4248SOL    MW416760   4.063   1.340   2.147  0.1135  0.1037  0.3571
 4249SOL     OW16761   2.396   0.559   4.376  0.0369  0.6086  0.4258
 4249SOL    HW216762   2.301   0.553   4.379  0.0686 -0.2891 -0.0398
 4249SOL    HW316763   2.426   0.506   4.451  0.1616  1.6024  1.1002
 4249SOL    MW416764   2.388   0.551   4.386  0.0575  0.6213  0.4533
 4250SOL     OW16765   0.064   1.003   5.842 -0.7283  0.0127 -0.4012
 4250SOL    HW216766   0.154   1.017   5.811 -0.9864  0.6930 -0.8853
 4250SOL    HW316767   0.068   1.020   5.936  0.4135 -3.7052  0.3608
 4250SOL    MW416768   0.077   1.007   5.850 -0.6117 -0.3881 -0.3645
 4251SOL     OW16769   3.641   0.933   4.299 -0.2950  0.1484 -0.2068
 4251SOL    HW216770   3.630   0.962   4.390  1.8996 -0.0883  0.2011
 4251SOL    HW316771   3.686   1.005   4.256 -0.6240 -0.0601 -0.9181
 4251SOL    MW416772   3.645   0.946   4.306 -0.0489  0.0897 -0.2468
 4252SOL     OW16773   5.504   4.720   3.493  0.1712  0.4379 -0.2507
 4252SOL    HW216774   5.448   4.784   3.450 -1.4105 -0.8733 -0.2214
 4252SOL    HW316775   5.593   4.753   3.478 -0.2752  0.3789 -4.0990
 4252SOL    MW416776   5.509   4.733   3.485 -0.0964  0.2572 -0.7546
 4253SOL     OW16777   1.853   1.964   1.755  0.2604 -0.5276  0.4165
 4253SOL    HW216778   1.795   1.897   1.721 -1.1507  0.3141  1.0890
 4253SOL    HW316779   1.798   2.042   1.763  1.9388  0.8526 -0.7321
 4253SOL    MW416780   1.838   1.966   1.751  0.2956 -0.2345  0.3537
 4254SOL     OW16781   1.446   1.533   0.829 -0.1976 -0.3908 -0.1618
 4254SOL    HW216782   1.375   1.558   0.887  1.1520 -0.2134  1.5082
 4254SOL    HW316783   1.417   1.559   0.742 -1.8756  0.2892  0.5666
 4254SOL    MW416784   1.433   1.540   0.825 -0.2409 -0.2777  0.1547
 4255SOL     OW16785   4.876   1.815   3.649  0.1601 -0.0636 -0.2344
 4255SOL    HW216786   4.827   1.748   3.697 -0.7111  1.6206  1.3209
 4255SOL    HW316787   4.874   1.785   3.558 -0.9501 -1.6824  0.2717
 4255SOL    MW416788   4.869   1.802   3.644 -0.1013 -0.0549  0.0376
 4256SOL     OW16789   2.864   3.213   4.282 -0.0250  0.1303  0.1711
 4256SOL    HW216790   2.930   3.150   4.253  0.4474  0.1742  1.1028
 4256SOL    HW316791   2.890   3.296   4.241 -0.4514 -0.1911 -0.7773
 4256SOL    MW416792   2.876   3.216   4.273 -0.0189  0.0937  0.1689
 4257SOL     OW16793   1.524   0.784   0.120 -0.0882 -0.5157  0.4053
 4257SOL    HW216794   1.541   0.819   0.033 -1.6163  1.4400  0.8072
 4257SOL    HW316795   1.524   0.862   0.177 -0.4285 -1.5749  1.9273
 4257SOL    MW416796   1.526   0.799   0.116 -0.3347 -0.3974  0.6591
 4258SOL     OW16797   5.199   3.442   4.974 -0.3577 -0.1645 -0.2329
 4258SOL    HW216798   5.287   3.475   4.994 -1.0447  0.3327  2.3371
 4258SOL    HW316799   5.195   3.357   5.018 -0.9859 -0.4309 -0.7931
 4258SOL    MW416800   5.210   3.435   4.983 -0.5313 -0.1341  0.0322
 4259SOL     OW16801   0.154   4.332   3.760  0.2363 -0.0855 -0.2591
 4259SOL    HW216802   0.062   4.357   3.753  0.2448 -0.0668 -0.3013
 4259SOL    HW316803   0.152   4.244   3.798  0.1854 -0.2498 -0.6364
 4259SOL    MW416804   0.141   4.323   3.764  0.2307 -0.1047 -0.3144
 4260SOL     OW16805   4.834   3.015   1.857  0.2664 -0.2406  0.4352
 4260SOL    HW216806   4.863   2.923   1.859  0.5927 -0.1827 -0.8999
 4260SOL    HW316807   4.877   3.055   1.933  2.0073 -0.6636 -0.2680
 4260SOL    MW416808   4.844   3.008   1.868  0.5391 -0.2887  0.1663
 4261SOL     OW16809   4.230   4.188   3.759  0.4203  0.6304  0.1905
 4261SOL    HW216810   4.142   4.160   3.735  0.1086  0.6028  1.3176
 4261SOL    HW316811   4.221   4.282   3.778  0.7443  0.7411 -0.1753
 4261SOL    MW416812   4.218   4.197   3.758  0.4219  0.6413  0.2910
 4262SOL     OW16813   4.896   1.323   1.477  0.2289 -0.0842 -0.2734
 4262SOL    HW216814   4.823   1.318   1.416 -1.3926 -0.0882  1.5467
 4262SOL    HW316815   4.881   1.250   1.538  0.4450  1.2289  1.4466
 4262SOL    MW416816   4.885   1.313   1.477  0.0435  0.0885  0.1936
 4263SOL     OW16817   3.913   0.050   2.485  0.3172  0.5528  0.1357
 4263SOL    HW216818   3.861   0.119   2.444  0.0117  0.5857  0.5707
 4263SOL    HW316819   3.926   0.081   2.575 -0.1689 -0.1415  0.4515
 4263SOL    MW416820   3.908   0.063   2.492  0.2128  0.4656  0.2347
 4264SOL     OW16821   5.368   4.497   0.467 -0.2386 -0.7497 -0.0506
 4264SOL    HW216822   5.430   4.436   0.509 -0.8070 -2.2307 -1.2951
 4264SOL    HW316823   5.289   4.491   0.521  0.1567 -0.0225  0.6387
 4264SOL    MW416824   5.366   4.488   0.480 -0.2615 -0.8492 -0.1238
 4265SOL     OW16825   3.133   2.846   3.994 -0.1832 -0.8302 -0.1086
 4265SOL    HW216826   3.108   2.860   3.903 -0.2836  0.0589  0.0456
 4265SOL    HW316827   3.195   2.773   3.990  0.2519 -0.4370 -0.9624
 4265SOL    MW416828   3.138   2.838   3.981 -0.1390 -0.6610 -0.2009
 4266SOL     OW16829   3.445   4.185   3.339 -0.2263  0.1718 -0.1338
 4266SOL    HW216830   3.526   4.163   3.384  1.1365  0.2450 -2.4213
 4266SOL    HW316831   3.448   4.281   3.331 -0.0330  0.0885 -1.1055
 4266SOL    MW416832   3.456   4.195   3.344 -0.0210  0.1704 -0.5638
 4267SOL     OW16833   3.151   5.860   4.646  0.5797 -0.0124  0.4951
 4267SOL    HW216834   3.201   5.939   4.626  0.1179  0.1739  0.0760
 4267SOL    HW316835   3.203   5.816   4.714  1.8687 -0.3470 -0.6481
 4267SOL    MW416836   3.165   5.865   4.652  0.6889 -0.0320  0.2890
 4268SOL     OW16837   1.163   4.301   5.148 -0.5007 -0.5938  0.8196
 4268SOL    HW216838   1.190   4.386   5.182 -2.1038  1.1563 -1.8838
 4268SOL    HW316839   1.241   4.267   5.104  0.1161 -0.4965  1.8145
 4268SOL    MW416840   1.177   4.308   5.146 -0.6309 -0.3500  0.5942
 4269SOL     OW16841   5.474   2.794   0.618 -0.1499  0.3325 -0.0555
 4269SOL    HW216842   5.456   2.826   0.707  0.2660 -1.5039  0.7407
 4269SOL    HW316843   5.392   2.806   0.571  0.5181  4.4298 -0.4851
 4269SOL    MW416844   5.461   2.800   0.624 -0.0069  0.6308 -0.0072
 4270SOL     OW16845   3.670   5.692   1.053 -0.1059 -0.1962  0.1788
 4270SOL    HW216846   3.747   5.648   1.016 -0.6404  0.6038 -2.0035
 4270SOL    HW316847   3.659   5.770   1.000 -2.7176 -0.5447  0.1002
 4270SOL    MW416848   3.679   5.696   1.041 -0.5210 -0.1366 -0.1195
 4271SOL     OW16849   4.495   0.700   4.008 -0.3911  0.2869 -0.0461
 4271SOL    HW216850   4.440   0.717   3.931 -0.8979 -0.4881  0.1384
 4271SOL    HW316851   4.584   0.692   3.972 -0.6343 -0.1261 -0.5617
 4271SOL    MW416852   4.500   0.701   3.993 -0.4900  0.1301 -0.0898
 4272SOL     OW16853   6.047   4.462   2.585  0.2112 -0.8785  0.2615
 4272SOL    HW216854   6.120   4.461   2.647  0.1233 -1.8847  0.3724
 4272SOL    HW316855   6.045   4.373   2.549 -0.0836 -0.4561 -0.7809
 4272SOL    MW416856   6.056   4.450   2.589  0.1607 -0.9555  0.1386
 4273SOL     OW16857   2.002   4.282   3.154  0.5039  0.6465  0.3391
 4273SOL    HW216858   2.015   4.276   3.248 -1.0967  0.1662  0.5650
 4273SOL    HW316859   2.008   4.191   3.123  1.1553  0.8144 -0.0562
 4273SOL    MW416860   2.004   4.269   3.162  0.3787  0.6053  0.3168
 4274SOL     OW16861   2.933   3.155   3.437  0.3802  0.6575 -0.2570
 4274SOL    HW216862   2.941   3.196   3.351  0.8036  0.0196 -0.5314
 4274SOL    HW316863   3.016   3.108   3.448  0.5613  1.1934  0.7487
 4274SOL    MW416864   2.945   3.154   3.427  0.4600  0.6440 -0.1605
 4275SOL     OW16865   2.189   5.746   0.920  0.0380  0.0864  0.1728
 4275SOL    HW216866   2.194   5.747   0.825 -0.8821  0.5163  0.1166
 4275SOL    HW316867   2.236   5.824   0.949 -0.2206  0.2919  0.0375
 4275SOL    MW416868   2.196   5.756   0.912 -0.1175  0.1702  0.1475
 4276SOL     OW16869   4.378   3.265   4.210 -0.2675  0.0205  0.1736
 4276SOL    HW216870   4.469   3.248   4.235  0.0612  0.4850 -0.6660
 4276SOL    HW316871   4.352   3.340   4.264  0.5242  1.1880 -0.9906
 4276SOL    MW416872   4.387   3.273   4.220 -0.1197  0.2358 -0.0908
 4277SOL     OW16873   1.321   0.261   1.064 -0.4568 -0.1479  0.1162
 4277SOL    HW216874   1.399   0.207   1.078 -0.6468  0.0028  1.9106
 4277SOL    HW316875   1.353   0.351   1.062 -0.6590  0.0001  1.9216
 4277SOL    MW416876   1.335   0.266   1.065 -0.5085 -0.1085  0.5912
 4278SOL     OW16877   4.266   1.883   4.976 -0.3218  0.3638 -0.0831
 4278SOL    HW216878   4.247   1.951   5.041  0.9878  0.7517 -0.0693
 4278SOL    HW316879   4.267   1.801   5.026 -3.4815  0.0370 -0.3543
 4278SOL    MW416880   4.264   1.881   4.992 -0.5659  0.3718 -0.1170
 4279SOL     OW16881   5.431   4.936   3.318 -0.6824  0.4992  0.3590
 4279SOL    HW216882   5.349   4.957   3.273 -1.0063  1.0455  1.1793
 4279SOL    HW316883   5.479   4.880   3.257 -1.2959  0.8768 -0.4795
 4279SOL    MW416884   5.427   4.931   3.304 -0.8061  0.6211  0.3566
 4280SOL     OW16885   5.095   4.481   6.049  0.1205  0.1561 -0.1425
 4280SOL    HW216886   5.083   4.576   6.056  3.4193  0.6543  0.3485
 4280SOL    HW316887   5.176   4.464   6.098  0.7610 -2.6136 -1.9628
 4280SOL    MW416888   5.104   4.492   6.057  0.6403 -0.1436 -0.3179
 4281SOL     OW16889   4.797   4.750   6.371 -0.3400 -0.2322  0.1842
 4281SOL    HW216890   4.822   4.669   6.415 -0.9878 -1.1751 -1.0958
 4281SOL    HW316891   4.781   4.812   6.442 -1.3409 -1.6729  1.2907
 4281SOL    MW416892   4.798   4.748   6.386 -0.5575 -0.5467  0.1613
 4282SOL     OW16893   6.207   3.915   4.315 -0.6811  0.3397 -0.4502
 4282SOL    HW216894   6.295   3.895   4.347 -0.9070 -0.5649 -0.3551
 4282SOL    HW316895   6.179   3.989   4.368 -0.4852 -0.2125  0.4565
 4282SOL    MW416896   6.215   3.922   4.326 -0.6850  0.1475 -0.3181
 4283SOL     OW16897   5.809   4.722   1.335 -0.3726  0.3028 -0.2250
 4283SOL    HW216898   5.803   4.686   1.246  0.8632  0.1919 -0.2789
 4283SOL    HW316899   5.899   4.706   1.361 -1.1428 -1.2223  1.7460
 4283SOL    MW416900   5.820   4.715   1.326 -0.3112  0.0869  0.0280
 4284SOL     OW16901   0.770   5.431   4.566  0.1888  0.4438 -0.1695
 4284SOL    HW216902   0.861   5.452   4.586 -0.1386  1.1987  0.6013
 4284SOL    HW316903   0.774   5.354   4.510  1.2202 -0.8010  1.5412
 4284SOL    MW416904   0.782   5.424   4.561  0.2817  0.3791  0.1579
 4285SOL     OW16905   3.133   5.827   3.557  0.2211 -0.3106 -0.4698
 4285SOL    HW216906   3.062   5.763   3.559 -1.9811  1.9389 -1.2899
 4285SOL    HW316907   3.106   5.895   3.619  1.2569  0.9798 -1.3827
 4285SOL    MW416908   3.120   5.828   3.565  0.0672  0.1565 -0.6984
 4286SOL     OW16909   0.593   0.093   2.410 -0.0222  0.4056  0.2834
 4286SOL    HW216910   0.499   0.111   2.414  0.0347  0.6480  0.5349
 4286SOL    HW316911   0.604   0.011   2.458  0.5011  2.6686  4.5175
 4286SOL    MW416912   0.582   0.085   2.417  0.0543  0.7361  0.8752
 4287SOL     OW16913   0.022   2.034   5.369 -0.0857 -0.8212  0.3757
 4287SOL    HW216914  -0.034   1.958   5.382  0.2315 -1.1856 -0.3380
 4287SOL    HW316915  -0.017   2.081   5.296 -1.8536  1.2148  2.4678
 4287SOL    MW416916   0.009   2.030   5.361 -0.2771 -0.6007  0.5576
 4288SOL     OW16917   3.426   5.963   5.563 -0.3304  0.2111  0.5979
 4288SOL    HW216918   3.494   5.905   5.597 -0.1288 -0.6190 -1.1310
 4288SOL    HW316919   3.432   6.041   5.618  1.6564 -0.0584  0.8516
 4288SOL    MW416920   3.436   5.966   5.575 -0.0417  0.0660  0.4032
 4289SOL     OW16921   5.105   0.789   0.543  0.0303  0.8151  0.6262
 4289SOL    HW216922   5.011   0.788   0.525  0.1229 -2.4125 -0.3026
 4289SOL    HW316923   5.146   0.782   0.456  1.0590  0.6928  1.1065
 4289SOL    MW416924   5.098   0.788   0.529  0.1783  0.3731  0.5670
 4290SOL     OW16925   4.641   0.044   1.551 -0.1246 -0.4357 -0.2856
 4290SOL    HW216926   4.568  -0.010   1.582 -1.0468  0.9016 -0.0601
 4290SOL    HW316927   4.614   0.075   1.465 -0.4137  1.1265  0.3443
 4290SOL    MW416928   4.628   0.041   1.544 -0.2844 -0.0531 -0.1728
 4291SOL     OW16929   2.039   1.901   1.108  0.4597 -0.3121  0.2970
 4291SOL    HW216930   1.947   1.918   1.127  0.8638  1.7607  0.6638
 4291SOL    HW316931   2.078   1.886   1.194  0.5201 -0.9430  0.1634
 4291SOL    MW416932   2.032   1.901   1.122  0.5210 -0.1219  0.3278
 4292SOL     OW16933   2.904   1.007   2.051 -0.6284 -0.6334  0.4383
 4292SOL    HW216934   2.896   1.102   2.048  0.2078 -0.5073  1.4125
 4292SOL    HW316935   2.815   0.974   2.036 -0.7062  0.2459 -1.1402
 4292SOL    MW416936   2.891   1.015   2.049 -0.5283 -0.5007  0.3586
 4293SOL     OW16937   3.946   3.568   2.968  0.1745 -0.0571 -0.0981
 4293SOL    HW216938   3.896   3.646   2.942  0.9053  0.4892  0.1188
 4293SOL    HW316939   3.986   3.537   2.886  1.7398  1.1410  0.1599
 4293SOL    MW416940   3.945   3.574   2.953  0.4774  0.1731 -0.0354
 4294SOL     OW16941   2.242   4.017   2.496  0.2162 -0.2492 -0.2607
 4294SOL    HW216942   2.308   3.987   2.558  0.8137 -1.3331 -1.3700
 4294SOL    HW316943   2.235   4.111   2.512 -0.1489 -0.5880  1.8824
 4294SOL    MW416944   2.250   4.025   2.506  0.2469 -0.4369 -0.1243
 4295SOL     OW16945   4.510   3.573   1.764  0.0043 -0.0568 -0.4706
 4295SOL    HW216946   4.433   3.630   1.763 -0.2116 -0.2913  0.7705
 4295SOL    HW316947   4.479   3.490   1.728  0.2684  0.5246 -2.0916
 4295SOL    MW416948   4.496   3.569   1.759  0.0107 -0.0110 -0.5207
 4296SOL     OW16949   1.187   3.468   1.037  0.3840 -0.8552 -0.2734
 4296SOL    HW216950   1.146   3.471   0.951 -0.6515  1.0160  0.2496
 4296SOL    HW316951   1.139   3.531   1.090  1.0477 -1.8859  1.6841
 4296SOL    MW416952   1.176   3.476   1.033  0.3350 -0.7443  0.0539
 4297SOL     OW16953   4.084   0.296   2.256 -0.2188 -0.5158 -0.3250
 4297SOL    HW216954   4.063   0.313   2.348 -0.7545  0.5875 -0.6279
 4297SOL    HW316955   4.153   0.359   2.235  0.1326 -0.9872 -0.5883
 4297SOL    MW416956   4.090   0.307   2.265 -0.2431 -0.4324 -0.3997
 4298SOL     OW16957   0.102   3.450   1.796  0.1142 -0.7006 -0.4764
 4298SOL    HW216958   0.173   3.408   1.748  1.4059  0.9951 -0.1144
 4298SOL    HW316959   0.092   3.397   1.875  2.1211 -0.0489  0.2673
 4298SOL    MW416960   0.110   3.438   1.800  0.5494 -0.3909 -0.3305
 4299SOL     OW16961   5.803   4.057   3.169 -0.0333  0.2630 -0.2382
 4299SOL    HW216962   5.788   4.140   3.123 -1.0861  0.2409  0.0364
 4299SOL    HW316963   5.795   4.079   3.262  2.0006  0.2908 -0.0218
 4299SOL    MW416964   5.800   4.071   3.175  0.0961  0.2638 -0.1734
 4300SOL     OW16965   4.841   0.449   6.126  0.0115  0.7538 -0.0212
 4300SOL    HW216966   4.816   0.462   6.034 -0.2480 -0.8936 -0.2184
 4300SOL    HW316967   4.805   0.526   6.171 -2.2266  0.3087 -0.8920
 4300SOL    MW416968   4.833   0.461   6.119 -0.3180  0.4777 -0.1621
 4301SOL     OW16969   6.057   3.266   4.257  0.5314  0.0791  0.1198
 4301SOL    HW216970   6.043   3.344   4.204 -1.3162 -0.0207  0.3922
 4301SOL    HW316971   6.010   3.197   4.211  0.0208 -0.3050  1.1807
 4301SOL    MW416972   6.049   3.267   4.244  0.2203  0.0153  0.2957
 4302SOL     OW16973   6.073   4.199   2.497 -0.0744  0.3008 -0.6754
 4302SOL    HW216974   6.165   4.196   2.470  0.4718  0.2066  1.0832
 4302SOL    HW316975   6.027   4.147   2.431  1.2302 -0.2304 -1.1985
 4302SOL    MW416976   6.079   4.192   2.485  0.1698  0.2183 -0.5124
 4303SOL     OW16977   4.167   5.005   1.844  0.2623 -0.6031 -0.6443
 4303SOL    HW216978   4.224   5.071   1.806 -0.6400  0.7749  0.2920
 4303SOL    HW316979   4.201   4.992   1.933 -0.3842 -0.3566 -0.3530
 4303SOL    MW416980   4.179   5.012   1.851  0.0579 -0.3887 -0.4823
 4304SOL     OW16981   2.495   5.142   0.758  0.1316 -0.2971 -0.2116
 4304SOL    HW216982   2.570   5.151   0.817 -0.1515  2.6794 -0.1696
 4304SOL    HW316983   2.429   5.096   0.810  0.2142  1.4471  1.5661
 4304SOL    MW416984   2.496   5.137   0.772  0.1051  0.3257  0.0285
 4305SOL     OW16985   1.118   5.846   4.777 -0.3958 -0.7620  0.3309
 4305SOL    HW216986   1.126   5.868   4.870 -0.2626  0.5968  0.0188
 4305SOL    HW316987   1.039   5.793   4.771  0.4986 -2.3410  1.4487
 4305SOL    MW416988   1.109   5.842   4.788 -0.2602 -0.7910  0.4372
 4306SOL     OW16989   0.550   0.693   6.058  0.2634 -0.0233 -0.6223
 4306SOL    HW216990   0.510   0.638   5.990  1.1589 -0.8139 -0.5274
 4306SOL    HW316991   0.495   0.771   6.061 -1.3957 -1.1532 -0.3580
 4306SOL    MW416992   0.537   0.696   6.049  0.1626 -0.2767 -0.5749
 4307SOL     OW16993   3.345   5.361   4.772  0.4735 -0.2638  0.4845
 4307SOL    HW216994   3.323   5.268   4.781  2.1681 -0.6686  0.7759
 4307SOL    HW316995   3.272   5.398   4.722 -0.5558 -1.6019  0.9216
 4307SOL    MW416996   3.332   5.353   4.767  0.5613 -0.4937  0.5806
 4308SOL     OW16997   1.799   0.600   1.045 -0.2467 -0.0828 -0.0273
 4308SOL    HW216998   1.799   0.556   1.130  0.6988  2.0949  1.1969
 4308SOL    HW316999   1.732   0.555   0.994 -2.1099 -0.3365  2.4788
 4308SOL    MW417000   1.790   0.588   1.049 -0.3677  0.1711  0.4649
 4309SOL     OW17001   0.303   2.064   0.969 -0.0892  0.4650 -0.5314
 4309SOL    HW217002   0.281   2.038   0.879 -0.6043  0.5641 -0.4359
 4309SOL    HW317003   0.379   2.010   0.991 -1.1814 -1.0363 -0.3038
 4309SOL    MW417004   0.310   2.053   0.960 -0.3012  0.2800 -0.4887
 4310SOL     OW17005   0.486   1.246   2.661 -0.0514  0.0013 -0.2423
 4310SOL    HW217006   0.404   1.294   2.672  0.0155  0.0165  0.1992
 4310SOL    HW317007   0.538   1.268   2.738  0.5099  0.2644 -0.6940
 4310SOL    MW417008   0.482   1.255   2.673  0.0315  0.0380 -0.2437
 4311SOL     OW17009   3.132   2.061   5.613  0.4079 -0.2033  0.0065
 4311SOL    HW217010   3.062   2.063   5.548  1.0515 -2.6395 -0.8343
 4311SOL    HW317011   3.213   2.065   5.562  0.9573  1.3113  0.9039
 4311SOL    MW417012   3.133   2.062   5.598  0.5653 -0.3249  0.0139
 4312SOL     OW17013   5.353   3.953   6.203  0.2996 -0.2423 -0.9878
 4312SOL    HW217014   5.264   3.935   6.235  0.3309  1.1323 -0.0705
 4312SOL    HW317015   5.409   3.901   6.260  0.0715 -1.7496 -2.0777
 4312SOL    MW417016   5.348   3.943   6.214  0.2736 -0.2598 -1.0106
 4313SOL     OW17017   5.331   0.448   1.422 -0.1326 -0.4053 -0.6317
 4313SOL    HW217018   5.354   0.406   1.506  1.1710  0.1951 -0.6563
 4313SOL    HW317019   5.403   0.424   1.364 -1.2762 -1.2192 -1.7461
 4313SOL    MW417020   5.344   0.439   1.426 -0.1115 -0.4335 -0.7820
 4314SOL     OW17021   0.365   0.487   3.260 -0.3489  0.2598  0.4774
 4314SOL    HW217022   0.433   0.543   3.297 -0.6201 -0.0891  1.5450
 4314SOL    HW317023   0.314   0.458   3.335  0.9200 -2.9865  0.2477
 4314SOL    MW417024   0.367   0.490   3.274 -0.2173 -0.2146  0.5880
 4315SOL     OW17025   4.991   6.287   0.290  0.1109  0.1549  0.0330
 4315SOL    HW217026   5.085   6.305   0.288  0.2252 -0.2990  1.2178
 4315SOL    HW317027   4.955   6.354   0.348 -0.2690  0.1445 -0.1861
 4315SOL    MW417028   4.998   6.298   0.297  0.0759  0.0936  0.1604
 4316SOL     OW17029   3.573   1.356   4.727  0.2470 -0.1306  0.5673
 4316SOL    HW217030   3.598   1.409   4.803  0.1854 -0.0930  0.5613
 4316SOL    HW317031   3.498   1.402   4.689  0.4004 -0.0432  0.3680
 4316SOL    MW417032   3.566   1.369   4.732  0.2591 -0.1141  0.5402
 4317SOL     OW17033   1.543   1.706   3.953  0.2973 -0.1799 -1.1325
 4317SOL    HW217034   1.500   1.651   4.018 -0.0082 -0.4527 -1.5586
 4317SOL    HW317035   1.632   1.718   3.986 -0.9820  3.3777  1.6697
 4317SOL    MW417036   1.549   1.701   3.966  0.0882  0.2535 -0.8190
 4318SOL     OW17037   5.453   6.176   5.561 -0.0146  0.2704  0.2885
 4318SOL    HW217038   5.409   6.261   5.557 -0.4170  0.1679  1.8396
 4318SOL    HW317039   5.505   6.173   5.481 -3.1109  0.2228 -1.9320
 4318SOL    MW417040   5.454   6.187   5.550 -0.4762  0.2506  0.2002
 4319SOL     OW17041   5.304   2.161   3.856 -0.0841 -0.3796  0.2428
 4319SOL    HW217042   5.319   2.249   3.889 -1.4613 -0.6224  1.6713
 4319SOL    HW317043   5.209   2.155   3.844 -0.0513 -1.7190  0.4227
 4319SOL    MW417044   5.294   2.172   3.859 -0.2615 -0.5883  0.4550
 4320SOL     OW17045   0.301   5.321   1.068 -0.1603  0.1085 -0.2463
 4320SOL    HW217046   0.380   5.334   1.121  0.2662  1.1534 -1.1233
 4320SOL    HW317047   0.321   5.245   1.014 -0.5960 -0.9692  1.0343
 4320SOL    MW417048   0.314   5.312   1.068 -0.1615  0.1042 -0.1931
 4321SOL     OW17049   3.494   3.570   5.584 -0.8468  0.1749  0.3058
 4321SOL    HW217050   3.578   3.568   5.539 -1.6190  0.0257 -1.2059
 4321SOL    HW317051   3.494   3.492   5.639 -0.1318 -0.0189  0.0377
 4321SOL    MW417052   3.505   3.560   5.585 -0.8543  0.1297  0.0710
 4322SOL     OW17053   4.241   1.390   1.486 -0.2020  0.2104 -0.3034
 4322SOL    HW217054   4.296   1.468   1.483  0.1600 -0.0436 -0.3499
 4322SOL    HW317055   4.302   1.318   1.471 -0.6799 -0.0141 -1.2181
 4322SOL    MW417056   4.256   1.391   1.483 -0.2173  0.1473 -0.4302
 4323SOL     OW17057   0.406   1.323   2.271 -0.1226 -0.0747 -0.2037
 4323SOL    HW217058   0.345   1.311   2.198 -0.0390  1.6042 -0.6046
 4323SOL    HW317059   0.374   1.402   2.315 -0.7641 -1.5799  2.2298
 4323SOL    MW417060   0.393   1.332   2.267 -0.1962 -0.0518  0.0645
 4324SOL     OW17061   1.851   5.597   4.677 -0.3397  0.6969  0.5767
 4324SOL    HW217062   1.778   5.617   4.618 -0.8347  2.0781  1.6206
 4324SOL    HW317063   1.813   5.538   4.742 -0.4929  1.2827  1.0235
 4324SOL    MW417064   1.836   5.592   4.678 -0.4252  0.9565  0.7734
 4325SOL     OW17065   6.238   3.130   2.192 -0.5616  0.0094 -0.5195
 4325SOL    HW217066   6.323   3.101   2.224  0.2857  0.0941 -2.5524
 4325SOL    HW317067   6.195   3.168   2.269  2.2227  2.2496  0.1096
 4325SOL    MW417068   6.244   3.131   2.207 -0.0824  0.3162 -0.7047
 4326SOL     OW17069   4.133   2.662   0.706 -0.0367 -0.5473  0.4054
 4326SOL    HW217070   4.105   2.592   0.765 -0.4645 -1.9206 -1.3667
 4326SOL    HW317071   4.176   2.617   0.633  2.0035  1.1945  0.4198
 4326SOL    MW417072   4.135   2.647   0.705  0.1760 -0.4987  0.1735
 4327SOL     OW17073   5.278   3.000   4.685 -0.2078  0.0729  0.0190
 4327SOL    HW217074   5.227   3.063   4.634  1.4484  1.6649  0.1970
 4327SOL    HW317075   5.366   3.004   4.646 -0.6654 -4.6942 -2.2318
 4327SOL    MW417076   5.283   3.009   4.673 -0.0497 -0.3460 -0.2545
 4328SOL     OW17077   0.555   4.617   1.548  0.5098  0.1018 -0.2019
 4328SOL    HW217078   0.602   4.662   1.478 -1.0412  1.8113 -0.2197
 4328SOL    HW317079   0.615   4.619   1.622  1.4234 -0.0309 -0.9119
 4328SOL    MW417080   0.569   4.623   1.548  0.4257  0.3099 -0.2979
 4329SOL     OW17081   2.623   3.040   4.335  0.1286  0.1272  0.2112
 4329SOL    HW217082   2.680   3.115   4.318 -1.4805  0.9904 -1.8063
 4329SOL    HW317083   2.554   3.075   4.392  0.0135 -0.1428  0.2371
 4329SOL    MW417084   2.622   3.055   4.341 -0.0989  0.2055 -0.0515
 4330SOL     OW17085   1.100   0.018   3.106 -0.0752  0.1937  0.0429
 4330SOL    HW217086   1.160  -0.027   3.166  1.6135  0.1464 -1.5535
 4330SOL    HW317087   1.139   0.003   3.019 -0.1085  3.6365 -0.7035
 4330SOL    MW417088   1.113   0.010   3.102  0.1432  0.6417 -0.2662
 4331SOL     OW17089   0.095   1.262   2.641  0.0889  0.3355  0.0163
 4331SOL    HW217090   0.133   1.186   2.597 -0.5187  0.3414 -0.5410
 4331SOL    HW317091   0.169   1.306   2.683  0.4753 -0.4594  0.1864
 4331SOL    MW417092   0.109   1.258   2.641  0.0597  0.2314 -0.0348
 4332SOL     OW17093   3.774   1.362   0.628  0.3483 -0.0094 -0.6398
 4332SOL    HW217094   3.721   1.299   0.676 -1.6031  1.2371 -1.0821
 4332SOL    HW317095   3.717   1.396   0.559  2.0707  0.5918 -1.8696
 4332SOL    MW417096   3.760   1.358   0.625  0.3181  0.2344 -0.8604
 4333SOL     OW17097   5.679   1.427   4.346  0.0510 -0.1166 -0.2368
 4333SOL    HW217098   5.763   1.444   4.302  0.1891  1.3582  0.5209
 4333SOL    HW317099   5.703   1.381   4.426  0.2092  0.7896  0.2478
 4333SOL    MW417100   5.694   1.423   4.351  0.0901  0.1976 -0.0729
 4334SOL     OW17101   4.815   0.125   4.942 -0.6545 -0.7295  0.1249
 4334SOL    HW217102   4.754   0.198   4.950  1.1861  1.0514 -1.1058
 4334SOL    HW317103   4.832   0.119   4.848  0.4553 -1.6986  0.3665
 4334SOL    MW417104   4.809   0.133   4.931 -0.2652 -0.6224 -0.0056
 4335SOL     OW17105   2.639   0.907   2.023  0.0616  0.6288  0.2248
 4335SOL    HW217106   2.596   0.913   2.108  0.8535  0.9116  0.6201
 4335SOL    HW317107   2.573   0.870   1.964 -0.7131  1.0952  0.7982
 4335SOL    MW417108   2.625   0.903   2.026  0.0639  0.7276  0.3526
 4336SOL     OW17109   0.284   3.456   4.425  0.2685 -0.2205  0.4400
 4336SOL    HW217110   0.292   3.517   4.351  1.9922 -0.9446 -0.0205
 4336SOL    HW317111   0.251   3.375   4.386 -0.1411 -0.1777  0.7022
 4336SOL    MW417112   0.281   3.454   4.410  0.4419 -0.3104  0.4138
 4337SOL     OW17113   1.909   6.084   3.368 -0.2132 -0.0786  0.0869
 4337SOL    HW217114   1.957   6.167   3.373  0.9043 -0.7637  1.3359
 4337SOL    HW317115   1.887   6.063   3.459 -1.0915 -0.8180 -0.2808
 4337SOL    MW417116   1.912   6.092   3.381 -0.1816 -0.2666  0.2032
 4338SOL     OW17117   5.340   4.795   4.302 -0.1366 -0.1186 -0.7790
 4338SOL    HW217118   5.417   4.828   4.255  0.2415 -1.2497 -0.9940
 4338SOL    HW317119   5.284   4.759   4.234 -1.0370  1.0118 -0.6541
 4338SOL    MW417120   5.343   4.795   4.287 -0.2055 -0.1187 -0.7909
 4339SOL     OW17121   0.297   3.281   2.687 -0.0043  0.1642  0.1798
 4339SOL    HW217122   0.330   3.193   2.702 -0.4239  0.3917  3.0197
 4339SOL    HW317123   0.202   3.271   2.679 -0.3473  0.4522  2.7996
 4339SOL    MW417124   0.289   3.268   2.688 -0.1049  0.2322  0.9001
 4340SOL     OW17125   2.907   3.847   5.506 -0.2156  0.5640 -0.1031
 4340SOL    HW217126   2.981   3.785   5.512  1.0992  2.1213  0.4519
 4340SOL    HW317127   2.939   3.926   5.549 -2.1997  1.3283  0.0364
 4340SOL    MW417128   2.921   3.849   5.512 -0.3039  0.8703 -0.0114
 4341SOL     OW17129   5.824   0.471   5.333 -0.3029 -0.2359 -0.0482
 4341SOL    HW217130   5.883   0.502   5.402 -0.3122  0.6492 -0.4152
 4341SOL    HW317131   5.878   0.471   5.254 -1.0115  1.5420 -0.5830
 4341SOL    MW417132   5.839   0.475   5.332 -0.3976  0.1154 -0.1672
 4342SOL     OW17133   2.208   6.147   5.286 -0.0311  0.0602  0.1728
 4342SOL    HW217134   2.159   6.203   5.347 -0.1318 -0.2026  0.3354
 4342SOL    HW317135   2.141   6.100   5.237 -0.0010  1.5812 -1.4154
 4342SOL    MW417136   2.193   6.148   5.288 -0.0404  0.2262 -0.0153
 4343SOL     OW17137   2.600   5.229   2.172 -0.0928  0.1760  0.3339
 4343SOL    HW217138   2.599   5.221   2.267  0.5944  0.0779  0.3353
 4343SOL    HW317139   2.692   5.245   2.149  0.3726 -3.0224 -0.5623
 4343SOL    MW417140   2.612   5.230   2.181  0.0593 -0.2589  0.2158
 4344SOL     OW17141   5.840   6.353   0.833 -0.4738 -0.2777  0.5220
 4344SOL    HW217142   5.817   6.438   0.796  0.6282 -0.5968 -0.9898
 4344SOL    HW317143   5.776   6.293   0.793  0.6442 -0.6040 -0.8526
 4344SOL    MW417144   5.828   6.356   0.823 -0.1809 -0.3629  0.1412
 4345SOL     OW17145   0.943   1.395   3.624 -0.0344  0.1257  0.1453
 4345SOL    HW217146   0.849   1.399   3.643 -0.4937  0.3678 -1.9616
 4345SOL    HW317147   0.985   1.398   3.710 -1.8838  2.1328  1.0566
 4345SOL    MW417148   0.936   1.396   3.638 -0.3390  0.4224 -0.0125
 4346SOL     OW17149   4.640   5.481   2.234 -0.3819 -0.4046 -0.6042
 4346SOL    HW217150   4.560   5.529   2.254 -0.7903 -1.3562  0.1187
 4346SOL    HW317151   4.641   5.409   2.297  0.6961 -0.7951 -1.0490
 4346SOL    MW417152   4.630   5.477   2.245 -0.2936 -0.5817 -0.5675
 4347SOL     OW17153   5.940   0.396   4.792  0.0387 -0.1991 -0.2206
 4347SOL    HW217154   5.844   0.397   4.784 -0.0743 -1.6997  0.7186
 4347SOL    HW317155   5.970   0.447   4.717 -1.4939  0.2898 -0.5385
 4347SOL    MW417156   5.931   0.403   4.781 -0.1784 -0.3326 -0.1386
 4348SOL     OW17157   6.166   3.685   3.975  0.3760  0.4918 -0.4101
 4348SOL    HW217158   6.107   3.649   4.040  0.0550 -0.8938 -1.4237
 4348SOL    HW317159   6.253   3.659   4.004  0.1247 -1.6142 -1.3551
 4348SOL    MW417160   6.170   3.677   3.987  0.3005  0.0311 -0.6685
 4349SOL     OW17161   1.730   0.111   0.291  1.2005 -0.3172 -0.1033
 4349SOL    HW217162   1.702   0.111   0.382  0.0286 -1.3237 -0.4408
 4349SOL    HW317163   1.688   0.189   0.253  0.0898 -0.9685 -0.2345
 4349SOL    MW417164   1.721   0.121   0.298  0.8993 -0.5359 -0.1651
 4350SOL     OW17165   3.412   4.838   5.212 -0.5351 -0.1277 -0.1895
 4350SOL    HW217166   3.450   4.841   5.300  0.8454 -0.0696 -0.7572
 4350SOL    HW317167   3.410   4.745   5.190 -1.1769 -0.1665  0.0173
 4350SOL    MW417168   3.417   4.826   5.221 -0.4377 -0.1252 -0.2371
 4351SOL     OW17169   4.891   0.402   3.203 -0.4777 -0.0333 -0.4199
 4351SOL    HW217170   4.940   0.370   3.279  0.3789  0.1371 -0.8841
 4351SOL    HW317171   4.902   0.333   3.137 -0.3499  0.2829 -0.7318
 4351SOL    MW417172   4.899   0.389   3.204 -0.3478  0.0309 -0.5223
 4352SOL     OW17173   3.688   4.919   5.521  0.1265 -0.3700  0.7457
 4352SOL    HW217174   3.687   4.874   5.606  0.7981  0.1206  1.0245
 4352SOL    HW317175   3.730   4.857   5.461  0.9684 -0.1711  1.1094
 4352SOL    MW417176   3.693   4.905   5.524  0.3262 -0.2791  0.8305
 4353SOL     OW17177   0.051   3.025   5.661  0.2468 -0.5539  0.8730
 4353SOL    HW217178   0.127   3.038   5.604  0.3468 -1.1457  0.8666
 4353SOL    HW317179   0.078   3.060   5.746 -0.3483  1.5404  0.2665
 4353SOL    MW417180   0.065   3.032   5.664  0.1815 -0.3557  0.7922
 4354SOL     OW17181   4.357   3.245  -0.028 -0.3451  0.1448 -0.1295
 4354SOL    HW217182   4.327   3.251  -0.118 -2.0062  0.6148  0.4241
 4354SOL    HW317183   4.278   3.227   0.023  0.4915  0.2781  1.2751
 4354SOL    MW417184   4.343   3.244  -0.033 -0.4539  0.2244  0.1288
 4355SOL     OW17185   3.025   1.547   5.846  0.5395  0.4858  0.2138
 4355SOL    HW217186   3.004   1.480   5.780 -1.1105 -0.1534  1.3315
 4355SOL    HW317187   3.005   1.630   5.803  1.2491  0.2089 -0.6976
 4355SOL    MW417188   3.020   1.549   5.832  0.4154  0.3649  0.2410
 4356SOL     OW17189   6.399   0.499   5.995  0.5135 -0.2032  0.1189
 4356SOL    HW217190   6.455   0.576   6.003 -0.9624  0.7635  1.9776
 4356SOL    HW317191   6.384   0.490   5.901  0.5404  1.9515 -0.1497
 4356SOL    MW417192   6.404   0.508   5.984  0.3223  0.2086  0.3287
 4357SOL     OW17193   3.679   5.458   1.761 -0.4438  0.1904  0.0000
 4357SOL    HW217194   3.760   5.431   1.717 -1.1361 -1.7395 -0.1714
 4357SOL    HW317195   3.707   5.485   1.848  0.6888  2.1088 -0.8772
 4357SOL    MW417196   3.693   5.458   1.766 -0.3857  0.1889 -0.1383
 4358SOL     OW17197   3.219   5.976   2.313  0.2554  0.0191  0.5355
 4358SOL    HW217198   3.141   5.974   2.368  0.3723 -0.6017  0.6902
 4358SOL    HW317199   3.208   5.901   2.254 -0.3047  1.1836 -0.8996
 4358SOL    MW417200   3.207   5.966   2.312  0.1969  0.0909  0.3665
 4359SOL     OW17201   2.715   0.699   1.287 -0.2590  0.3033  0.2395
 4359SOL    HW217202   2.624   0.724   1.271  0.1233  1.0829 -0.8539
 4359SOL    HW317203   2.765   0.751   1.224  1.0407  0.6160  1.4832
 4359SOL    MW417204   2.710   0.709   1.277 -0.0371  0.4474  0.2593
 4360SOL     OW17205   1.877   3.972   4.165 -0.0042  0.3368  0.0171
 4360SOL    HW217206   1.891   4.062   4.195  0.8034  0.2104  0.0631
 4360SOL    HW317207   1.919   3.918   4.232 -1.5596 -0.1550  0.6303
 4360SOL    MW417208   1.885   3.977   4.178 -0.1028  0.2552  0.1041
 4361SOL     OW17209   3.575   5.511   4.660  0.0050  0.6788 -0.1135
 4361SOL    HW217210   3.631   5.435   4.645 -0.7226  0.0568  0.2563
 4361SOL    HW317211   3.503   5.478   4.715 -0.6101  1.5048 -0.3985
 4361SOL    MW417212   3.573   5.497   4.666 -0.1721  0.7057 -0.1023
 4362SOL     OW17213   0.806   3.589   0.313  0.1584  0.8684  0.0601
 4362SOL    HW217214   0.796   3.675   0.274 -0.3430 -0.3332 -2.6611
 4362SOL    HW317215   0.899   3.567   0.302 -0.1353  0.2123 -1.2238
 4362SOL    MW417216   0.817   3.597   0.307  0.0535  0.6233 -0.4684
 4363SOL     OW17217   3.339   0.854   4.462 -0.2009 -0.9156 -0.2460
 4363SOL    HW217218   3.349   0.873   4.556  1.0057 -1.8287 -0.1560
 4363SOL    HW317219   3.282   0.923   4.429 -0.6997 -0.6103  1.1756
 4363SOL    MW417220   3.333   0.865   4.470 -0.1075 -0.9958 -0.0466
 4364SOL     OW17221   3.808   2.159   1.442 -0.2503  0.0570 -0.1320
 4364SOL    HW217222   3.837   2.101   1.371  0.0346 -0.9997  0.8200
 4364SOL    HW317223   3.881   2.159   1.504 -0.8978  0.1804  0.6347
 4364SOL    MW417224   3.822   2.151   1.441 -0.2982 -0.0662  0.0948
 4365SOL     OW17225   0.823   1.999   4.485  0.5804  0.3463  0.6484
 4365SOL    HW217226   0.814   1.977   4.577  1.2619  1.1707  0.9178
 4365SOL    HW317227   0.755   1.947   4.441  0.1016  0.1305  1.6329
 4365SOL    MW417228   0.813   1.989   4.491  0.6071  0.4266  0.8138
 4366SOL     OW17229   0.666   3.490   6.137 -0.4900  0.8552  0.0981
 4366SOL    HW217230   0.719   3.485   6.216  1.3749 -0.1746 -1.1172
 4366SOL    HW317231   0.718   3.542   6.076 -1.1523  0.3555 -0.9399
 4366SOL    MW417232   0.680   3.496   6.139 -0.3314  0.6534 -0.1992
 4367SOL     OW17233   0.903   2.437   1.723 -0.1992  0.0097  0.1458
 4367SOL    HW217234   0.844   2.394   1.784  0.2064 -1.4096 -0.4199
 4367SOL    HW317235   0.979   2.461   1.776 -0.8388  0.9533  0.6664
 4367SOL    MW417236   0.906   2.434   1.738 -0.2301 -0.0530  0.1399
 4368SOL     OW17237   2.870   3.275   0.317 -0.6812  0.5725  0.0870
 4368SOL    HW217238   2.855   3.357   0.363 -0.3716  0.6821 -0.0040
 4368SOL    HW317239   2.840   3.207   0.377 -1.3241  0.7735 -0.0042
 4368SOL    MW417240   2.864   3.277   0.331 -0.7252  0.6134  0.0629
 4369SOL     OW17241   3.139   4.869   3.530 -0.1973  0.4307  0.5944
 4369SOL    HW217242   3.233   4.879   3.544 -0.3085  0.5045  1.3652
 4369SOL    HW317243   3.109   4.956   3.507 -0.1360  0.4973  0.7620
 4369SOL    MW417244   3.148   4.882   3.529 -0.2039  0.4492  0.7182
 4370SOL     OW17245   5.227   2.790   0.501  0.3571 -0.1745 -0.5274
 4370SOL    HW217246   5.209   2.881   0.477  2.1499  0.4788  0.4216
 4370SOL    HW317247   5.141   2.751   0.514 -0.4626  1.1924 -1.5995
 4370SOL    MW417248   5.213   2.797   0.500  0.4855  0.0920 -0.5436
 4371SOL     OW17249   1.480   0.277   4.802  0.1278 -0.0286  0.6052
 4371SOL    HW217250   1.491   0.362   4.759  1.7611  0.3063  1.5810
 4371SOL    HW317251   1.385   0.266   4.809 -0.2941 -0.2424 -3.2297
 4371SOL    MW417252   1.469   0.287   4.798  0.2877 -0.0126  0.2280
 4372SOL     OW17253   2.477   0.662   2.901  0.1884  0.0905 -0.4168
 4372SOL    HW217254   2.551   0.706   2.858  0.1850  1.0188  0.4837
 4372SOL    HW317255   2.481   0.572   2.869  2.5340 -0.2556  0.6159
 4372SOL    MW417256   2.488   0.656   2.891  0.4974  0.1673 -0.1617
 4373SOL     OW17257   5.868   5.853   1.829 -0.5558 -0.2083  0.3870
 4373SOL    HW217258   5.934   5.845   1.898  0.1715 -0.4153 -0.3158
 4373SOL    HW317259   5.915   5.891   1.755 -1.1656 -0.5848 -0.2128
 4373SOL    MW417260   5.883   5.857   1.828 -0.5403 -0.2853  0.2151
 4374SOL     OW17261   1.213   2.507   3.946 -0.2045  0.4494 -0.6985
 4374SOL    HW217262   1.194   2.542   4.032  1.2018  0.9289 -0.5446
 4374SOL    HW317263   1.288   2.448   3.960 -0.7089 -0.3801 -1.4071
 4374SOL    MW417264   1.221   2.504   3.959 -0.0855  0.4032 -0.7717
 4375SOL     OW17265   4.562   4.475   3.542  0.0485  0.1062  0.3265
 4375SOL    HW217266   4.507   4.553   3.538 -1.1277 -0.4168  3.4364
 4375SOL    HW317267   4.501   4.402   3.544  1.0218 -0.7503 -0.1437
 4375SOL    MW417268   4.547   4.476   3.542  0.0217 -0.0758  0.6748
 4376SOL     OW17269   2.067   1.399   0.257 -0.5296 -0.0172 -0.1477
 4376SOL    HW217270   1.972   1.399   0.245 -0.7118 -0.0950  1.0878
 4376SOL    HW317271   2.101   1.345   0.186 -1.4690 -0.5470 -0.2070
 4376SOL    MW417272   2.059   1.392   0.246 -0.6776 -0.0973  0.0075
 4377SOL     OW17273   0.536   3.743   0.257 -0.0551  0.7519 -0.8246
 4377SOL    HW217274   0.511   3.655   0.286  0.1841  0.5237 -1.3035
 4377SOL    HW317275   0.579   3.781   0.334  2.1903 -0.5029 -1.3741
 4377SOL    MW417276   0.539   3.736   0.271  0.2727  0.5562 -0.9603
 4378SOL     OW17277   4.600   5.202   1.025  0.0618  0.0565  0.4531
 4378SOL    HW217278   4.661   5.139   1.066 -0.9571 -0.7648  0.7400
 4378SOL    HW317279   4.627   5.287   1.060  0.5106 -0.4000  1.2457
 4378SOL    MW417280   4.612   5.205   1.035 -0.0134 -0.1121  0.5955
 4379SOL     OW17281   5.520   3.251   0.253  0.4726 -0.7461  0.1237
 4379SOL    HW217282   5.602   3.278   0.211  0.0619 -1.2067 -1.0180
 4379SOL    HW317283   5.474   3.201   0.185 -0.7100 -0.5808  0.7783
 4379SOL    MW417284   5.525   3.248   0.238  0.2624 -0.7850  0.0594
 4380SOL     OW17285   1.918   1.168   2.181 -0.5119 -0.5119 -0.5026
 4380SOL    HW217286   1.860   1.131   2.247 -0.9249  1.0754  0.0883
 4380SOL    HW317287   1.884   1.257   2.167  2.2689  0.8436  0.5571
 4380SOL    MW417288   1.906   1.175   2.188 -0.1995 -0.1236 -0.2848
 4381SOL     OW17289   0.460   1.064   1.647  0.4060 -0.2579 -0.4312
 4381SOL    HW217290   0.479   1.104   1.732  1.0534 -0.7193 -0.3427
 4381SOL    HW317291   0.388   1.004   1.665  0.6684 -0.5003 -0.1521
 4381SOL    MW417292   0.453   1.061   1.661  0.5260 -0.3507 -0.3827
 4382SOL     OW17293   2.255   5.780   0.640  0.6035 -0.3465  0.1091
 4382SOL    HW217294   2.340   5.760   0.602  1.2764 -0.0763  1.4255
 4382SOL    HW317295   2.243   5.874   0.625  0.0775 -0.5604 -0.9244
 4382SOL    MW417296   2.265   5.790   0.633  0.6229 -0.3391  0.1464
 4383SOL     OW17297   4.671   1.475   5.899  0.4267  0.2794  0.0580
 4383SOL    HW217298   4.765   1.469   5.918  0.2830 -0.8372  0.5165
 4383SOL    HW317299   4.667   1.496   5.806  1.1381  0.6659  0.1114
 4383SOL    MW417300   4.683   1.477   5.889  0.5016  0.1831  0.1256
 4384SOL     OW17301   3.649   5.537   5.253 -0.0043 -0.8158 -0.0446
 4384SOL    HW217302   3.613   5.590   5.182  0.3801  0.3589  0.6005
 4384SOL    HW317303   3.731   5.581   5.277 -0.8928 -0.1821  2.1774
 4384SOL    MW417304   3.655   5.550   5.247 -0.0708 -0.5772  0.3337
 4385SOL     OW17305   4.093   4.372   5.192 -1.1385 -0.2190 -0.0544
 4385SOL    HW217306   4.154   4.416   5.251 -1.6586  0.6966 -0.1734
 4385SOL    HW317307   4.123   4.281   5.190  0.6643  0.3348 -0.6771
 4385SOL    MW417308   4.105   4.366   5.200 -0.9692 -0.0252 -0.1523
 4386SOL     OW17309   3.339   4.891   4.372  0.0058  0.0511 -0.4449
 4386SOL    HW217310   3.361   4.933   4.455 -2.0218  0.5111 -0.0901
 4386SOL    HW317311   3.359   4.799   4.385 -1.1428 -0.0311  0.8937
 4386SOL    MW417312   3.344   4.885   4.384 -0.4133  0.1009 -0.2215
 4387SOL     OW17313   4.715   1.109   3.758 -0.6503 -0.1079  0.2648
 4387SOL    HW217314   4.687   1.019   3.740 -1.6864  0.0957  0.7634
 4387SOL    HW317315   4.810   1.104   3.760 -0.6946 -1.2671  0.6204
 4387SOL    MW417316   4.724   1.096   3.756 -0.7929 -0.2340  0.3775
 4388SOL     OW17317   3.320   6.232   6.298  0.1291 -0.2803 -0.0271
 4388SOL    HW217318   3.260   6.159   6.313  1.6263 -1.7061 -0.6134
 4388SOL    HW317319   3.285   6.278   6.222 -1.5940  0.5065  1.1805
 4388SOL    MW417320   3.308   6.228   6.290  0.0993 -0.3646  0.0549
 4389SOL     OW17321   4.366   5.841   5.901 -0.0522 -0.5124  0.3151
 4389SOL    HW217322   4.355   5.861   5.993 -0.1524 -2.2311  0.7045
 4389SOL    HW317323   4.333   5.919   5.855 -0.6573  0.0711  1.6976
 4389SOL    MW417324   4.360   5.854   5.907 -0.1453 -0.6622  0.5489
 4390SOL     OW17325   2.014   0.612   6.202  0.0006  0.2031 -0.0784
 4390SOL    HW217326   1.953   0.617   6.128 -1.3521 -1.1514  0.8841
 4390SOL    HW317327   2.043   0.702   6.215 -0.6195  0.6491 -1.5159
 4390SOL    MW417328   2.010   0.624   6.194 -0.2597  0.0832 -0.1410
 4391SOL     OW17329   0.323   2.577   4.709  0.0821  0.0234  0.2312
 4391SOL    HW217330   0.291   2.649   4.763  1.4327  0.0500  1.0285
 4391SOL    HW317331   0.369   2.619   4.636  1.5348  0.0052  1.1012
 4391SOL    MW417332   0.325   2.592   4.706  0.4520  0.0245  0.4512
 4392SOL     OW17333   5.382   3.225   2.944  0.1871 -0.2853  0.1786
 4392SOL    HW217334   5.365   3.302   2.998 -1.9768 -0.4716 -0.1579
 4392SOL    HW317335   5.436   3.258   2.872 -1.0049  1.0324 -0.1637
 4392SOL    MW417336   5.387   3.240   2.941 -0.2557 -0.1360  0.0890
 4393SOL     OW17337   1.142   1.251   2.959 -0.3098  0.1089  0.3355
 4393SOL    HW217338   1.113   1.277   3.046  1.0494  0.2965  0.7583
 4393SOL    HW317339   1.236   1.268   2.958 -0.2358 -0.1794 -1.0678
 4393SOL    MW417340   1.151   1.256   2.970 -0.1207  0.0956  0.2062
 4394SOL     OW17341   3.438   0.556   1.098  0.2790  0.0759 -0.0071
 4394SOL    HW217342   3.525   0.561   1.138 -0.2285 -0.6450  1.2328
 4394SOL    HW317343   3.455   0.527   1.008  1.3521  0.5035  0.0385
 4394SOL    MW417344   3.452   0.553   1.091  0.3537  0.0372  0.1625
 4395SOL     OW17345   2.511   3.661   0.003  0.0993  0.2038 -0.6408
 4395SOL    HW217346   2.603   3.677  -0.019  0.4478  2.0489  1.7267
 4395SOL    HW317347   2.475   3.748   0.019 -1.4246 -0.6213  0.6881
 4395SOL    MW417348   2.519   3.675   0.002 -0.0558  0.3384 -0.1531
 4396SOL     OW17349   4.180   4.684   3.080  0.1266  0.0267 -0.1304
 4396SOL    HW217350   4.268   4.715   3.102  0.1874 -1.0143  1.2416
 4396SOL    HW317351   4.159   4.726   2.996  2.0362  0.0606 -0.6196
 4396SOL    MW417352   4.189   4.694   3.072  0.3866 -0.1062 -0.0139
 4397SOL     OW17353   3.626   0.725   3.601 -0.1521 -0.0624  0.0356
 4397SOL    HW217354   3.559   0.678   3.651 -1.1096  0.9244 -0.2516
 4397SOL    HW317355   3.581   0.805   3.572  0.1273 -0.8213 -2.8841
 4397SOL    MW417356   3.611   0.730   3.604 -0.2416 -0.0323 -0.3875
 4398SOL     OW17357   5.685   2.887   5.190  0.5914  0.3623 -0.0307
 4398SOL    HW217358   5.614   2.889   5.255  1.2602  0.5062  0.7132
 4398SOL    HW317359   5.652   2.939   5.117 -0.3467 -0.1586  0.0051
 4398SOL    MW417360   5.671   2.894   5.189  0.5558  0.3126  0.0722
 4399SOL     OW17361   2.029   3.627   3.069  0.4041  0.1309 -0.0181
 4399SOL    HW217362   1.946   3.673   3.058  0.0691 -0.6629 -1.0159
 4399SOL    HW317363   2.045   3.628   3.163 -1.1433 -0.4076  0.2761
 4399SOL    MW417364   2.020   3.633   3.080  0.1557 -0.0449 -0.1110
 4400SOL     OW17365   6.231   0.264   4.202  0.0663  0.6700  0.0426
 4400SOL    HW217366   6.203   0.353   4.222 -0.1063  0.7822 -0.6736
 4400SOL    HW317367   6.327   0.267   4.208  0.0494  0.8528  0.2154
 4400SOL    MW417368   6.240   0.276   4.206  0.0413  0.7089 -0.0291
 4401SOL     OW17369   5.267   5.840   1.866  0.6851 -0.0751 -0.5728
 4401SOL    HW217370   5.188   5.855   1.917  0.3683  0.0303 -1.0891
 4401SOL    HW317371   5.331   5.900   1.903  0.0977  0.8979 -1.1028
 4401SOL    MW417372   5.265   5.850   1.878  0.5658  0.0672 -0.7108
 4402SOL     OW17373   5.947   2.283   5.348  0.3054  0.4219  0.0380
 4402SOL    HW217374   6.019   2.304   5.289  0.4645 -0.2313 -0.0096
 4402SOL    HW317375   5.988   2.239   5.422  0.0065  0.4619  0.2298
 4402SOL    MW417376   5.962   2.280   5.350  0.2869  0.3410  0.0570
 4403SOL     OW17377   1.738   3.725   3.405 -0.2524 -0.6582 -0.6928
 4403SOL    HW217378   1.716   3.744   3.496 -0.0824  0.8400 -0.9400
 4403SOL    HW317379   1.655   3.697   3.366 -0.5387 -0.3635 -0.3073
 4403SOL    MW417380   1.724   3.724   3.412 -0.2678 -0.4216 -0.6745
 4404SOL     OW17381   4.574   2.436   0.158  0.1296  0.5552 -0.4348
 4404SOL    HW217382   4.586   2.441   0.253 -1.4482  1.0084 -0.2377
 4404SOL    HW317383   4.661   2.413   0.124  0.9235  1.2899  1.0288
 4404SOL    MW417384   4.587   2.433   0.166  0.0262  0.7120 -0.2157
 4405SOL     OW17385   0.045   2.678   5.098 -0.1619  0.1849 -0.2375
 4405SOL    HW217386  -0.035   2.726   5.075  0.8376  4.0061  3.1534
 4405SOL    HW317387   0.020   2.625   5.174  0.1096 -0.1039 -0.3488
 4405SOL    MW417388   0.031   2.677   5.105  0.0058  0.6510  0.1952
 4406SOL     OW17389   2.151   0.209   6.316 -0.6224 -0.3980 -0.2180
 4406SOL    HW217390   2.152   0.260   6.235 -0.2024  0.5174  0.3616
 4406SOL    HW317391   2.062   0.220   6.350 -1.0930 -1.5213 -0.9904
 4406SOL    MW417392   2.139   0.217   6.310 -0.6291 -0.4254 -0.2435
 4407SOL     OW17393   3.428   4.192   5.907  0.2158  0.5695  0.0473
 4407SOL    HW217394   3.472   4.170   5.825 -0.0209 -0.4817  0.1846
 4407SOL    HW317395   3.498   4.221   5.965  0.4209  1.0410 -0.4262
 4407SOL    MW417396   3.443   4.193   5.904  0.2117  0.4930  0.0029
 4408SOL     OW17397   4.862   3.381   2.179 -0.0921 -0.7129  0.4981
 4408SOL    HW217398   4.783   3.415   2.137  0.8707  2.0484  0.7281
 4408SOL    HW317399   4.829   3.337   2.258 -1.3897  1.6816  1.4056
 4408SOL    MW417400   4.847   3.380   2.184 -0.1362 -0.0326  0.6482
 4409SOL     OW17401   0.856   0.753   0.904  0.2036 -0.2944  0.2693
 4409SOL    HW217402   0.878   0.739   0.812  0.9833 -0.8081  0.5268
 4409SOL    HW317403   0.802   0.832   0.903  1.0326  0.2925 -0.5314
 4409SOL    MW417404   0.852   0.762   0.892  0.4159 -0.2847  0.1976
 4410SOL     OW17405   2.825   4.116   2.269  0.0305 -0.5086  0.3137
 4410SOL    HW217406   2.864   4.029   2.280 -0.2215 -0.5652  0.7867
 4410SOL    HW317407   2.797   4.118   2.177 -2.4235 -1.9847  0.9266
 4410SOL    MW417408   2.826   4.104   2.258 -0.3265 -0.7108  0.4570
 4411SOL     OW17409   4.030   6.308   4.293 -0.1473 -0.6667  0.5314
 4411SOL    HW217410   4.120   6.310   4.260 -1.1567 -2.7594 -2.8288
 4411SOL    HW317411   4.033   6.249   4.368  1.1838 -1.3837 -0.0506
 4411SOL    MW417412   4.042   6.300   4.299 -0.1048 -1.0374  0.0113
 4412SOL     OW17413   0.684   5.341   3.107 -0.1632  0.1483  0.9806
 4412SOL    HW217414   0.656   5.403   3.174  1.6692  0.8130  1.1956
 4412SOL    HW317415   0.704   5.261   3.156  1.0878  0.6052  1.2588
 4412SOL    MW417416   0.683   5.339   3.123  0.2436  0.2962  1.0457
 4413SOL     OW17417   5.978   6.026   1.005  0.0904 -0.8385  0.2959
 4413SOL    HW217418   5.971   6.066   0.919 -0.0798 -0.5762  0.4301
 4413SOL    HW317419   5.914   5.956   1.005  0.4729 -1.1907  0.0170
 4413SOL    MW417420   5.969   6.022   0.994  0.1184 -0.8503  0.2768
 4414SOL     OW17421   1.245   3.169   3.088  0.1279  0.4680 -0.9785
 4414SOL    HW217422   1.309   3.181   3.018  0.5747  0.7219 -0.5274
 4414SOL    HW317423   1.171   3.127   3.045  1.4007 -1.7855 -1.1256
 4414SOL    MW417424   1.244   3.165   3.073  0.3548  0.2042 -0.9384
 4415SOL     OW17425   3.936   2.526   3.124  0.4695 -0.2451 -0.0430
 4415SOL    HW217426   3.861   2.526   3.184 -0.3650  0.9428 -1.0505
 4415SOL    HW317427   3.998   2.588   3.163  1.4627 -1.9948  1.3506
 4415SOL    MW417428   3.934   2.534   3.137  0.4905 -0.3192  0.0079
 4416SOL     OW17429   2.486   2.817   1.567  0.0112 -0.3923  0.0623
 4416SOL    HW217430   2.449   2.731   1.586  2.6281 -1.2141  2.1383
 4416SOL    HW317431   2.529   2.843   1.649 -1.0830  3.1742 -0.3293
 4416SOL    MW417432   2.487   2.809   1.581  0.2121 -0.0302  0.2846
 4417SOL     OW17433   3.076   5.522   0.892 -0.2625 -0.3874  0.9251
 4417SOL    HW217434   3.167   5.551   0.898 -0.0592 -0.7476 -0.2257
 4417SOL    HW317435   3.039   5.572   0.819 -1.3050  0.5399  2.0423
 4417SOL    MW417436   3.083   5.532   0.883 -0.3732 -0.3126  0.9207
 4418SOL     OW17437   5.075   5.738   4.009  0.3095  0.0531 -0.3359
 4418SOL    HW217438   5.011   5.694   3.952  0.6715 -0.3896 -0.4086
 4418SOL    HW317439   5.031   5.747   4.093  0.4727 -1.0896 -0.1166
 4418SOL    MW417440   5.061   5.733   4.012  0.3788 -0.1561 -0.3165
 4419SOL     OW17441   2.683   1.554   0.378 -0.6949 -0.3458 -0.0020
 4419SOL    HW217442   2.744   1.551   0.452 -1.7161  0.7017  0.9320
 4419SOL    HW317443   2.598   1.533   0.417 -1.0804 -0.9322 -1.1116
 4419SOL    MW417444   2.680   1.551   0.393 -0.8805 -0.2850 -0.0252
 4420SOL     OW17445   6.085   2.906   3.973  0.2413  0.1294  0.5914
 4420SOL    HW217446   6.144   2.850   4.023 -0.5369  0.1381  1.5480
 4420SOL    HW317447   6.022   2.938   4.038 -2.1866 -1.6737 -0.7454
 4420SOL    MW417448   6.084   2.903   3.988 -0.1817 -0.1074  0.5412
 4421SOL     OW17449   3.985   0.830   0.395 -0.5391  0.4128 -0.2155
 4421SOL    HW217450   4.076   0.812   0.417 -0.5447  0.0600 -0.4604
 4421SOL    HW317451   3.957   0.897   0.457 -0.2032  0.2964  0.0599
 4421SOL    MW417452   3.993   0.836   0.406 -0.4956  0.3509 -0.2115
 4422SOL     OW17453   0.169   6.327   2.257  0.1863  0.0220  0.1872
 4422SOL    HW217454   0.238   6.315   2.322 -1.2616 -1.8547  1.4853
 4422SOL    HW317455   0.094   6.359   2.307 -0.8075 -0.9491 -0.6247
 4422SOL    MW417456   0.168   6.330   2.272 -0.1359 -0.3537  0.2514
 4423SOL     OW17457   0.927   5.285   0.279  0.0646 -0.3548  0.6490
 4423SOL    HW217458   0.851   5.242   0.317  0.4315 -0.0787  1.7325
 4423SOL    HW317459   0.931   5.370   0.323  1.2147 -0.5204  0.8951
 4423SOL    MW417460   0.918   5.291   0.290  0.2647 -0.3402  0.8244
 4424SOL     OW17461   1.900   3.321   5.903 -0.0957 -0.0221 -0.0072
 4424SOL    HW217462   1.818   3.348   5.943 -0.1802 -0.0255 -0.1807
 4424SOL    HW317463   1.956   3.398   5.907 -0.6583  0.4805 -1.3789
 4424SOL    MW417464   1.897   3.335   5.909 -0.1811  0.0437 -0.2111
 4425SOL     OW17465   5.760   5.854   5.662  0.1518 -0.2904  0.3806
 4425SOL    HW217466   5.722   5.933   5.697 -2.0852 -1.4369  0.7024
 4425SOL    HW317467   5.814   5.884   5.588 -1.0714  1.4604  0.1477
 4425SOL    MW417468   5.762   5.868   5.657 -0.3047 -0.2107  0.3924
 4426SOL     OW17469   1.177   5.889   2.010 -0.3466 -0.5905 -0.2732
 4426SOL    HW217470   1.155   5.962   2.068  0.0912  0.4774 -1.3990
 4426SOL    HW317471   1.134   5.910   1.927 -0.6862 -1.9129 -0.4462
 4426SOL    MW417472   1.169   5.902   2.006 -0.3336 -0.6241 -0.4445
 4427SOL     OW17473   3.276   3.071   4.795  0.3685 -0.1678  0.2781
 4427SOL    HW217474   3.213   3.088   4.725  0.3973 -1.0470  0.0281
 4427SOL    HW317475   3.227   3.022   4.861  0.4863  0.1756  0.6241
 4427SOL    MW417476   3.261   3.067   4.794  0.3878 -0.2385  0.2908
 4428SOL     OW17477   1.780   6.029   5.440 -0.2383  0.3501 -0.2858
 4428SOL    HW217478   1.795   6.083   5.364  0.1849  1.5189  0.6018
 4428SOL    HW317479   1.727   6.084   5.499 -1.1424 -0.7658 -0.0107
 4428SOL    MW417480   1.775   6.043   5.438 -0.3018  0.3570 -0.1324
 4429SOL     OW17481   4.086   3.176   3.617 -0.5398  0.5316 -0.1083
 4429SOL    HW217482   4.097   3.111   3.686  1.5923  3.2419  2.3408
 4429SOL    HW317483   4.134   3.140   3.543  0.0117 -0.9718  0.9285
 4429SOL    MW417484   4.094   3.163   3.616 -0.1857  0.6908  0.3516
 4430SOL     OW17485   2.776   0.276   0.188 -0.1381  0.0544 -0.1164
 4430SOL    HW217486   2.784   0.236   0.101 -1.7528 -3.3437  1.1373
 4430SOL    HW317487   2.683   0.296   0.197 -0.3961 -1.6593  1.5579
 4430SOL    MW417488   2.765   0.274   0.178 -0.3852 -0.6200  0.2699
 4431SOL     OW17489   4.909   5.692   4.250 -0.4392 -0.0842 -0.1926
 4431SOL    HW217490   4.852   5.768   4.258 -0.3178 -0.0259  0.1104
 4431SOL    HW317491   4.932   5.669   4.340  1.3000  0.8595 -0.3625
 4431SOL    MW417492   4.904   5.699   4.263 -0.1937  0.0480 -0.1750
 4432SOL     OW17493   4.147   4.929   3.311  0.2248 -0.2394  0.4055
 4432SOL    HW217494   4.102   4.845   3.313  0.7560 -0.5572  2.8788
 4432SOL    HW317495   4.104   4.981   3.380  2.2336  0.1544  1.4493
 4432SOL    MW417496   4.135   4.925   3.320  0.5599 -0.2294  0.8695
 4433SOL     OW17497   4.175   2.845   1.395 -0.0009  0.3046  0.2465
 4433SOL    HW217498   4.253   2.832   1.448 -0.0815  1.0092  0.5469
 4433SOL    HW317499   4.141   2.756   1.379  0.8553 -0.0017  0.1077
 4433SOL    MW417500   4.181   2.831   1.400  0.1015  0.3571  0.2678
 4434SOL     OW17501   4.217   3.863   2.430  0.4242  0.1025 -0.0815
 4434SOL    HW217502   4.147   3.916   2.468 -1.0650 -2.5543  1.1514
 4434SOL    HW317503   4.284   3.858   2.499 -0.2501 -1.0191  0.5222
 4434SOL    MW417504   4.217   3.870   2.445  0.1388 -0.3960  0.1608
 4435SOL     OW17505   3.213   5.135   3.198 -0.0022  0.2999 -0.3353
 4435SOL    HW217506   3.161   5.128   3.279  0.4214  0.8462 -0.0141
 4435SOL    HW317507   3.168   5.076   3.137  0.2547 -0.9335  0.6009
 4435SOL    MW417508   3.200   5.126   3.201  0.0876  0.2092 -0.1694
 4436SOL     OW17509   3.922   2.238   1.041  0.5764 -0.1508 -0.0521
 4436SOL    HW217510   3.908   2.178   1.114 -2.0454  1.0971  0.6082
 4436SOL    HW317511   3.922   2.325   1.082 -2.8272  0.7361 -1.5454
 4436SOL    MW417512   3.920   2.242   1.056 -0.2186  0.1309 -0.1620
 4437SOL     OW17513   1.448   1.251   3.963 -0.7617 -0.1685 -0.2350
 4437SOL    HW217514   1.543   1.244   3.968 -0.5674  2.2173  1.1145
 4437SOL    HW317515   1.429   1.257   3.869  0.8401  2.7506 -0.4892
 4437SOL    MW417516   1.458   1.251   3.951 -0.5248  0.5314 -0.0905
 4438SOL     OW17517   3.691   3.272   6.236 -0.2277  0.6059  0.2630
 4438SOL    HW217518   3.661   3.188   6.200  2.4314 -0.7319  0.8765
 4438SOL    HW317519   3.650   3.338   6.180 -1.1336 -1.1460 -1.2815
 4438SOL    MW417520   3.681   3.269   6.224  0.0036  0.1982  0.1402
 4439SOL     OW17521   5.799   3.742   1.110 -0.2387 -0.3037 -0.0015
 4439SOL    HW217522   5.710   3.726   1.142 -0.0694 -1.2254  0.0214
 4439SOL    HW317523   5.855   3.697   1.173  0.2749  0.5647  0.1827
 4439SOL    MW417524   5.795   3.734   1.123 -0.1486 -0.3107  0.0258
 4440SOL     OW17525   1.395   5.870   4.614  0.1204  0.2728 -0.5394
 4440SOL    HW217526   1.402   5.852   4.520 -1.0231  0.5310 -0.6854
 4440SOL    HW317527   1.302   5.861   4.633  0.3269  0.3798  0.5439
 4440SOL    MW417528   1.384   5.867   4.604 -0.0032  0.3210 -0.4157
 4441SOL     OW17529   6.058   4.490   5.012 -0.2216 -0.1218  0.8286
 4441SOL    HW217530   6.125   4.543   5.056 -0.2252  0.8821 -0.3231
 4441SOL    HW317531   5.993   4.473   5.079 -0.6654  2.1042  1.0568
 4441SOL    MW417532   6.059   4.495   5.027 -0.2806  0.3043  0.7067
 4442SOL     OW17533   5.426   2.873   6.102 -0.4525 -0.1267  0.1660
 4442SOL    HW217534   5.420   2.890   6.008  0.3353  0.4834  0.2076
 4442SOL    HW317535   5.350   2.917   6.139 -0.3024  0.3691 -0.1040
 4442SOL    MW417536   5.415   2.881   6.094 -0.3288  0.0192  0.1358
 4443SOL     OW17537   6.160   1.119   0.871  0.4569 -0.5608  0.2861
 4443SOL    HW217538   6.147   1.198   0.923  0.1011 -2.1250  2.7483
 4443SOL    HW317539   6.229   1.142   0.809  0.5395  1.5928  1.1032
 4443SOL    MW417540   6.168   1.132   0.870  0.4209 -0.4831  0.7188
 4444SOL     OW17541   3.929   5.347   1.661 -0.4585  0.5815 -0.2654
 4444SOL    HW217542   3.918   5.355   1.566  0.0856 -0.1430 -0.3897
 4444SOL    HW317543   3.871   5.275   1.685  0.6253 -0.3247 -0.2929
 4444SOL    MW417544   3.920   5.339   1.651 -0.2437  0.3664 -0.2855
 4445SOL     OW17545   0.148   5.664   3.359 -0.1913 -0.3941  0.1580
 4445SOL    HW217546   0.216   5.602   3.333 -0.7501 -1.2904  0.7609
 4445SOL    HW317547   0.178   5.697   3.444  0.1000  0.1693 -0.1569
 4445SOL    MW417548   0.161   5.660   3.367 -0.2266 -0.4380  0.1960
 4446SOL     OW17549   0.345   4.656   2.403 -0.6582  0.0004 -0.4394
 4446SOL    HW217550   0.380   4.707   2.331  1.1807 -2.2245 -1.2710
 4446SOL    HW317551   0.423   4.618   2.445 -1.6534  1.0943  2.6953
 4446SOL    MW417552   0.360   4.657   2.399 -0.5469 -0.1488 -0.1355
 4447SOL     OW17553   0.317   3.408   2.447 -0.4139 -0.6537  0.2042
 4447SOL    HW217554   0.321   3.358   2.529 -3.2306  0.2275  0.9680
 4447SOL    HW317555   0.268   3.487   2.469  0.6372  0.6911 -1.8705
 4447SOL    MW417556   0.311   3.412   2.461 -0.6468 -0.3600  0.0313
 4448SOL     OW17557   5.165   5.597   4.777  0.3571 -0.0437 -0.0415
 4448SOL    HW217558   5.115   5.675   4.751  0.4286  0.0895  0.2095
 4448SOL    HW317559   5.195   5.559   4.695 -0.8460 -0.5948 -0.2451
 4448SOL    MW417560   5.162   5.603   4.763  0.2078 -0.0989 -0.0352
 4449SOL     OW17561   1.855   5.366   5.069 -0.2708  0.4679  0.7139
 4449SOL    HW217562   1.872   5.275   5.042 -0.1538  0.4899  0.7119
 4449SOL    HW317563   1.815   5.406   4.992 -2.4345 -0.1792  1.4469
 4449SOL    MW417564   1.852   5.359   5.055 -0.5408  0.3854  0.8104
 4450SOL     OW17565   1.858   3.511   2.231 -0.5432  0.2127 -0.1275
 4450SOL    HW217566   1.892   3.466   2.154 -0.1377 -1.2347  0.8415
 4450SOL    HW317567   1.925   3.578   2.251 -0.2988  0.1148 -0.6109
 4450SOL    MW417568   1.871   3.514   2.224 -0.4575  0.0088 -0.0635
 4451SOL     OW17569   0.266   3.369   5.639  0.3389  0.0936  0.2019
 4451SOL    HW217570   0.187   3.420   5.655 -0.0537 -0.2518 -0.6324
 4451SOL    HW317571   0.309   3.414   5.566  0.2489 -0.4692 -0.2028
 4451SOL    MW417572   0.262   3.382   5.632  0.2752 -0.0262  0.0384
 4452SOL     OW17573   5.087   0.845   1.641 -0.0102  0.0582  0.1034
 4452SOL    HW217574   5.048   0.811   1.721 -1.3889 -1.1272 -1.0079
 4452SOL    HW317575   5.171   0.800   1.634 -0.5704 -1.0331  0.1106
 4452SOL    MW417576   5.093   0.835   1.650 -0.2660 -0.2422 -0.0423
 4453SOL     OW17577   1.834   5.040   4.969  0.0451 -0.3497  0.5222
 4453SOL    HW217578   1.770   5.004   5.030  0.1594  1.5757  1.8492
 4453SOL    HW317579   1.915   5.047   5.019  0.7702 -0.8508 -0.5405
 4453SOL    MW417580   1.836   5.036   4.983  0.1559 -0.1618  0.5571
 4454SOL     OW17581   6.123   4.065   1.180  0.5854 -0.2122  0.3761
 4454SOL    HW217582   6.112   4.157   1.203 -1.1769 -0.1245 -0.6459
 4454SOL    HW317583   6.088   4.017   1.256  1.3859 -0.0605  0.8539
 4454SOL    MW417584   6.117   4.071   1.193  0.4585 -0.1806  0.3043
 4455SOL     OW17585   2.036   4.261   4.647 -1.0692  0.3947  0.4162
 4455SOL    HW217586   1.941   4.251   4.642 -1.2137  2.2032 -1.9106
 4455SOL    HW317587   2.070   4.196   4.586 -0.8434  0.2489  0.6952
 4455SOL    MW417588   2.028   4.251   4.638 -1.0585  0.6141  0.1460
 4456SOL     OW17589   2.312   1.581   1.220  0.4541 -0.3481  0.4042
 4456SOL    HW217590   2.339   1.642   1.288 -0.1991 -0.0200  0.3836
 4456SOL    HW317591   2.237   1.624   1.178 -0.0411 -1.1740  0.4144
 4456SOL    MW417592   2.305   1.595   1.223  0.3026 -0.4137  0.4028
 4457SOL     OW17593   3.338   1.731   2.150  0.4862 -0.1953 -0.3169
 4457SOL    HW217594   3.397   1.734   2.075  0.6122 -0.5724 -0.2379
 4457SOL    HW317595   3.385   1.678   2.215 -0.6360 -1.9740 -0.8705
 4457SOL    MW417596   3.352   1.724   2.149  0.3548 -0.4797 -0.3795
 4458SOL     OW17597   0.937   1.478   0.980  0.0148 -0.1026  0.4083
 4458SOL    HW217598   0.906   1.460   0.891 -0.9822  0.0128  0.7182
 4458SOL    HW317599   0.879   1.546   1.012 -0.5388 -1.1143  1.6404
 4458SOL    MW417600   0.925   1.484   0.972 -0.1898 -0.2208  0.6118
 4459SOL     OW17601   3.530   0.573   3.146 -0.1527 -0.4806 -0.4361
 4459SOL    HW217602   3.607   0.536   3.103 -1.5714 -0.6133 -3.0319
 4459SOL    HW317603   3.462   0.572   3.080 -2.1482  0.5998  1.4538
 4459SOL    MW417604   3.531   0.568   3.132 -0.6031 -0.3555 -0.5292
 4460SOL     OW17605   2.588   2.864   5.162  0.2907 -0.1453 -0.0011
 4460SOL    HW217606   2.591   2.959   5.155  0.7914 -0.1133  0.5826
 4460SOL    HW317607   2.495   2.844   5.170  0.1036  0.2117 -1.0928
 4460SOL    MW417608   2.576   2.874   5.162  0.3321 -0.0940 -0.0681
 4461SOL     OW17609   3.006   4.717   1.735  0.2863  0.0353  0.0852
 4461SOL    HW217610   3.075   4.773   1.700 -0.3207  0.7559  0.0209
 4461SOL    HW317611   2.997   4.745   1.827 -0.3676  0.4012 -0.0873
 4461SOL    MW417612   3.014   4.728   1.743  0.1199  0.1786  0.0540
 4462SOL     OW17613   3.160   6.098   5.339  0.5004  0.0915 -0.4636
 4462SOL    HW217614   3.082   6.125   5.291 -0.4702 -0.6691  0.6448
 4462SOL    HW317615   3.190   6.177   5.384  0.2914  0.3423 -0.7619
 4462SOL    MW417616   3.154   6.112   5.339  0.3448  0.0242 -0.3567
 4463SOL     OW17617   3.669   1.258   2.450 -0.3579 -0.4665  0.1830
 4463SOL    HW217618   3.577   1.229   2.452 -0.2637 -0.9616 -1.3310
 4463SOL    HW317619   3.671   1.336   2.505 -1.8224 -0.1162 -0.2173
 4463SOL    MW417620   3.657   1.265   2.457 -0.5387 -0.4856 -0.0696
 4464SOL     OW17621   1.429   3.712   3.790  0.2480  0.3162 -0.1851
 4464SOL    HW217622   1.354   3.765   3.763  0.7730  0.5329 -1.2737
 4464SOL    HW317623   1.425   3.711   3.885 -2.3766 -1.4323 -0.1895
 4464SOL    MW417624   1.418   3.719   3.799 -0.0290  0.1141 -0.3293
 4465SOL     OW17625   1.052   0.557   4.180  0.3683  0.3194  0.2832
 4465SOL    HW217626   1.113   0.628   4.158  2.3916 -1.8504 -1.5840
 4465SOL    HW317627   1.109   0.485   4.209 -1.5698 -0.8442  1.3914
 4465SOL    MW417628   1.068   0.557   4.181  0.3795 -0.1204  0.1830
 4466SOL     OW17629   5.558   3.761   1.810  0.0079  0.0512 -0.1356
 4466SOL    HW217630   5.478   3.755   1.758 -0.1327  0.5297  0.0213
 4466SOL    HW317631   5.528   3.791   1.896 -0.0402 -2.6885  0.9084
 4466SOL    MW417632   5.543   3.764   1.815 -0.0170 -0.2472  0.0228
 4467SOL     OW17633   6.097   3.198   1.954 -0.5435 -0.0733  0.2972
 4467SOL    HW217634   6.155   3.191   2.031 -0.8557 -1.0056  0.4592
 4467SOL    HW317635   6.016   3.234   1.988 -0.4672  0.1142  0.2837
 4467SOL    MW417636   6.094   3.202   1.969 -0.5746 -0.1716  0.3168
 4468SOL     OW17637   2.260   5.960   1.694  0.9622  0.8145 -0.1000
 4468SOL    HW217638   2.230   5.928   1.779  0.4663  2.2608  0.2908
 4468SOL    HW317639   2.184   6.005   1.657  0.6891 -1.0332 -1.9992
 4468SOL    MW417640   2.246   5.962   1.700  0.8607  0.7616 -0.2990
 4469SOL     OW17641   2.230   2.269   5.638 -0.3666  0.1387 -0.4931
 4469SOL    HW217642   2.157   2.223   5.598 -0.2386 -0.8932  0.4033
 4469SOL    HW317643   2.281   2.304   5.565 -1.2181  0.0394 -1.1439
 4469SOL    MW417644   2.228   2.268   5.623 -0.4620 -0.0105 -0.4607
 4470SOL     OW17645   0.976   0.080   5.159  0.0690 -0.0931 -0.2828
 4470SOL    HW217646   0.890   0.058   5.194 -0.7121  1.5481 -1.0565
 4470SOL    HW317647   1.017   0.133   5.227  0.5163 -0.9052  0.1010
 4470SOL    MW417648   0.970   0.084   5.173  0.0250  0.0163 -0.3342
 4471SOL     OW17649   0.810   3.919   1.848  0.2449 -0.1433  0.3360
 4471SOL    HW217650   0.827   4.010   1.824  0.8089 -0.0382  1.0791
 4471SOL    HW317651   0.780   3.923   1.939  0.3700 -0.7056  0.4081
 4471SOL    MW417652   0.809   3.931   1.857  0.3358 -0.2036  0.4435
 4472SOL     OW17653   1.310   6.183   2.704 -0.1876 -0.3950  0.3137
 4472SOL    HW217654   1.387   6.236   2.726 -0.9677  1.7020 -1.5550
 4472SOL    HW317655   1.344   6.112   2.649  0.3860  1.1023 -1.3682
 4472SOL    MW417656   1.325   6.181   2.699 -0.2149  0.0792 -0.1547
 4473SOL     OW17657   3.831   2.532   4.793 -1.2591  0.1228 -0.0641
 4473SOL    HW217658   3.897   2.599   4.774 -0.2407  0.9322  4.8262
 4473SOL    HW317659   3.882   2.454   4.817 -2.1371 -0.1912  0.8759
 4473SOL    MW417660   3.847   2.530   4.794 -1.2406  0.1882  0.7051
 4474SOL     OW17661   2.910   5.698   0.737  0.3336  0.0757  0.0372
 4474SOL    HW217662   2.883   5.737   0.654  0.5871  0.6698  0.2318
 4474SOL    HW317663   2.841   5.635   0.757  0.1455  0.1069 -0.4999
 4474SOL    MW417664   2.897   5.695   0.729  0.3422  0.1582 -0.0080
 4475SOL     OW17665   4.401   0.950   2.010 -0.3228  0.2468 -0.1749
 4475SOL    HW217666   4.384   0.872   1.958 -0.1408  1.1492 -1.6641
 4475SOL    HW317667   4.466   0.999   1.958 -0.9738  1.7163  0.3534
 4475SOL    MW417668   4.407   0.946   1.996 -0.3847  0.5597 -0.3017
 4476SOL     OW17669   6.247   0.048   5.368  1.2180  0.1800  0.5762
 4476SOL    HW217670   6.235  -0.045   5.350  0.9559  0.4334 -0.6557
 4476SOL    HW317671   6.159   0.081   5.386  1.0741  0.5067 -0.6624
 4476SOL    MW417672   6.234   0.040   5.368  1.1644  0.2566  0.2502
 4477SOL     OW17673   3.231   4.681   2.503  0.3297  0.2360  0.0301
 4477SOL    HW217674   3.175   4.756   2.484  0.8008  0.2308 -1.4909
 4477SOL    HW317675   3.171   4.608   2.513  0.0518  0.1163 -2.1385
 4477SOL    MW417676   3.216   4.681   2.502  0.3552  0.2195 -0.4567
 4478SOL     OW17677   6.242   1.227   3.726 -0.0347 -0.1495  0.0146
 4478SOL    HW217678   6.213   1.140   3.699 -1.3806  0.4056 -0.4394
 4478SOL    HW317679   6.306   1.252   3.659  0.3321 -0.7702  0.1240
 4478SOL    MW417680   6.246   1.219   3.713 -0.1639 -0.1581 -0.0309
 4479SOL     OW17681   2.208   6.095   0.385 -0.6616  0.9865 -0.4184
 4479SOL    HW217682   2.289   6.048   0.402 -1.3738 -0.5180 -0.9898
 4479SOL    HW317683   2.141   6.026   0.381 -1.7589  2.0664 -1.1872
 4479SOL    MW417684   2.210   6.080   0.387 -0.9003  0.9305 -0.5952
 4480SOL     OW17685   4.786   2.906   5.386  0.1148  0.5355 -0.5000
 4480SOL    HW217686   4.695   2.877   5.391  0.1590  0.6579  2.0671
 4480SOL    HW317687   4.781   2.990   5.339 -0.7876 -0.4648 -2.2827
 4480SOL    MW417688   4.773   2.913   5.380  0.0016  0.4197 -0.3965
 4481SOL     OW17689   0.104   0.695   2.208  0.3361 -0.1180  0.0155
 4481SOL    HW217690   0.184   0.647   2.189  0.3890  0.8639 -2.6270
 4481SOL    HW317691   0.052   0.689   2.128 -0.7141  2.1580  0.4248
 4481SOL    MW417692   0.107   0.688   2.195  0.2045  0.3118 -0.2792
 4482SOL     OW17693   3.998   5.733   6.077 -0.5171 -0.4045 -0.2399
 4482SOL    HW217694   3.968   5.644   6.056 -0.8668 -0.5552  0.8661
 4482SOL    HW317695   4.001   5.736   6.172  0.7041  0.3822 -0.2783
 4482SOL    MW417696   3.994   5.721   6.087 -0.4021 -0.3206 -0.0990
 4483SOL     OW17697   4.542   3.972   4.289  0.1978 -0.2075 -0.7433
 4483SOL    HW217698   4.532   3.877   4.282 -3.0083  0.0385 -1.1583
 4483SOL    HW317699   4.525   4.004   4.200  0.4062  0.7988 -0.4371
 4483SOL    MW417700   4.539   3.964   4.276 -0.1977 -0.0423 -0.7577
 4484SOL     OW17701   3.551   3.268   3.773 -0.0235 -0.4975  0.0081
 4484SOL    HW217702   3.643   3.239   3.774  0.2599  0.3955  0.1268
 4484SOL    HW317703   3.542   3.317   3.692 -0.0921  0.3806  0.5432
 4484SOL    MW417704   3.562   3.270   3.762  0.0048 -0.2638  0.0944
 4485SOL     OW17705   6.097   3.727   1.646 -0.1095  0.3271 -0.0173
 4485SOL    HW217706   6.065   3.802   1.696  0.4338 -1.2379  2.9398
 4485SOL    HW317707   6.018   3.678   1.623 -0.3074 -0.0235  1.2927
 4485SOL    MW417708   6.082   3.730   1.650 -0.0639  0.0743  0.5457
 4486SOL     OW17709   5.747   5.272   0.727  0.1734 -0.1530  0.0912
 4486SOL    HW217710   5.748   5.350   0.672 -0.3346 -0.9293 -1.0680
 4486SOL    HW317711   5.697   5.297   0.805  0.7517  0.9133  0.1335
 4486SOL    MW417712   5.740   5.285   0.730  0.1827 -0.1147 -0.0562
 4487SOL     OW17713   2.934   1.897   2.262 -0.4690  0.3595 -0.5511
 4487SOL    HW217714   2.872   1.951   2.310 -2.0301 -0.8946 -1.0494
 4487SOL    HW317715   2.998   1.868   2.328 -2.2782 -0.9269  0.7228
 4487SOL    MW417716   2.935   1.900   2.277 -0.9137  0.0243 -0.4488
 4488SOL     OW17717   4.132   2.562   3.947 -0.2357  0.1289  0.3616
 4488SOL    HW217718   4.205   2.505   3.921  0.0992  1.0803 -0.8977
 4488SOL    HW317719   4.054   2.514   3.920  0.0772  0.7276 -1.8233
 4488SOL    MW417720   4.131   2.548   3.940 -0.1502  0.3334 -0.0928
 4489SOL     OW17721   5.992   1.075   4.880 -0.5179  0.2562 -0.0251
 4489SOL    HW217722   5.935   1.007   4.843  0.5668 -0.9768  0.4955
 4489SOL    HW317723   6.073   1.029   4.901  0.5026  1.8659 -0.2746
 4489SOL    MW417724   5.995   1.060   4.878 -0.2401  0.3059  0.0106
 4490SOL     OW17725   2.823   3.339   1.615  0.1567 -0.2123 -0.1387
 4490SOL    HW217726   2.830   3.274   1.545  0.1935  0.7126 -1.0167
 4490SOL    HW317727   2.837   3.423   1.572 -1.4102  0.5294  0.7025
 4490SOL    MW417728   2.826   3.341   1.600 -0.0452  0.0076 -0.1435
 4491SOL     OW17729   6.171   0.454   0.706  0.6106  0.0932 -0.1861
 4491SOL    HW217730   6.242   0.462   0.769  0.7351  1.1973 -0.4502
 4491SOL    HW317731   6.117   0.383   0.740  1.3245 -0.1301  0.5144
 4491SOL    MW417732   6.173   0.446   0.719  0.7212  0.2094 -0.1285
 4492SOL     OW17733   5.831   3.075   5.897 -0.3032  0.0919  0.3700
 4492SOL    HW217734   5.787   3.026   5.828 -0.5987  0.2136  0.4712
 4492SOL    HW317735   5.778   3.059   5.975 -0.6502  0.9212  0.3125
 4492SOL    MW417736   5.818   3.066   5.898 -0.3880  0.2174  0.3757
 4493SOL     OW17737   1.426   0.538   2.201  0.3192  0.0893  0.6495
 4493SOL    HW217738   1.496   0.474   2.213  2.4792  1.5858 -2.5027
 4493SOL    HW317739   1.368   0.498   2.136 -0.1710  0.0527  1.0994
 4493SOL    MW417740   1.427   0.524   2.194  0.5395  0.2819  0.2929
 4494SOL     OW17741   3.663   2.197   5.016 -1.2139 -0.1473  0.4700
 4494SOL    HW217742   3.583   2.242   5.046  0.5318  2.5166  1.5344
 4494SOL    HW317743   3.669   2.217   4.923 -2.3001 -1.2990  0.1259
 4494SOL    MW417744   3.653   2.206   5.008 -1.1269  0.0523  0.5650
 4495SOL     OW17745   1.547   5.485   4.636 -0.1434  0.1395 -0.5952
 4495SOL    HW217746   1.565   5.569   4.594  0.5550  0.1816 -0.2422
 4495SOL    HW317747   1.582   5.419   4.575  0.7349  0.1932 -0.1713
 4495SOL    MW417748   1.554   5.487   4.623  0.0646  0.1521 -0.4927
 4496SOL     OW17749   2.712   4.564   1.738 -0.0696 -0.3449 -0.0669
 4496SOL    HW217750   2.639   4.618   1.708 -1.1091 -1.9164 -0.4764
 4496SOL    HW317751   2.751   4.530   1.658 -0.4105 -1.4397  0.2225
 4496SOL    MW417752   2.707   4.567   1.724 -0.2517 -0.6967 -0.0827
 4497SOL     OW17753   4.873   0.074   4.242 -0.7933  0.0584 -0.4487
 4497SOL    HW217754   4.933   0.048   4.171 -1.0974  0.3914 -0.8309
 4497SOL    HW317755   4.790   0.031   4.219 -1.0682  0.6836 -0.6387
 4497SOL    MW417756   4.870   0.065   4.230 -0.8697  0.1848 -0.5242
 4498SOL     OW17757   4.752   2.210   0.673 -0.8079 -0.5303 -0.3848
 4498SOL    HW217758   4.802   2.178   0.598 -0.1149 -1.2976  0.4018
 4498SOL    HW317759   4.740   2.134   0.729  1.1508  0.5793  1.6831
 4498SOL    MW417760   4.757   2.196   0.670 -0.4580 -0.4851 -0.0082
 4499SOL     OW17761   2.212   5.193   0.203 -0.0741 -0.2447 -0.0845
 4499SOL    HW217762   2.252   5.253   0.140  2.0991 -1.1376  0.3784
 4499SOL    HW317763   2.118   5.211   0.196  0.3395  1.7194 -1.4538
 4499SOL    MW417764   2.205   5.203   0.194  0.2672 -0.1034 -0.2041
 4500SOL     OW17765   2.549   6.207   2.593  0.0260 -0.4140  0.4996
 4500SOL    HW217766   2.630   6.256   2.604  0.3525 -1.0512  1.0368
 4500SOL    HW317767   2.483   6.274   2.575  0.3815  0.2822  1.6329
 4500SOL    MW417768   2.551   6.222   2.592  0.1160 -0.4062  0.7200
 4501SOL     OW17769   4.431   4.453   0.316 -0.2873 -0.2479 -0.7006
 4501SOL    HW217770   4.379   4.386   0.361  1.4625 -0.8113  0.5666
 4501SOL    HW317771   4.474   4.405   0.245  0.6248 -0.4191 -0.0568
 4501SOL    MW417772   4.430   4.438   0.312  0.0639 -0.3448 -0.4485
 4502SOL     OW17773   4.168   4.632   2.022 -0.2979 -0.1641  0.1918
 4502SOL    HW217774   4.228   4.576   2.072 -0.1601  0.3522  0.6101
 4502SOL    HW317775   4.095   4.649   2.082 -0.7412 -0.5806 -0.2271
 4502SOL    MW417776   4.167   4.627   2.037 -0.3382 -0.1510  0.1917
 4503SOL     OW17777   6.359   4.876   3.985  0.4871  0.1716 -0.3768
 4503SOL    HW217778   6.274   4.844   4.015  0.5225  1.7955  1.7367
 4503SOL    HW317779   6.421   4.808   4.010  0.0116 -0.2196 -0.2569
 4503SOL    MW417780   6.356   4.863   3.993  0.4290  0.3342 -0.0821
 4504SOL     OW17781   4.271   1.115   0.608 -0.3185  0.1060 -0.1040
 4504SOL    HW217782   4.334   1.165   0.660 -1.1290  1.4560 -0.3607
 4504SOL    HW317783   4.212   1.076   0.673  2.0071 -3.1370  0.3273
 4504SOL    MW417784   4.272   1.116   0.623 -0.1186 -0.1438 -0.0809
 4505SOL     OW17785   4.491   2.897   3.391 -0.6971 -0.3744 -0.0300
 4505SOL    HW217786   4.460   2.857   3.472 -1.7792 -0.1931 -0.3412
 4505SOL    HW317787   4.462   2.837   3.322 -0.4231 -0.1503 -0.3449
 4505SOL    MW417788   4.483   2.884   3.392 -0.8037 -0.3209 -0.1126
 4506SOL     OW17789   5.805   1.209   5.376 -0.2614  0.1279 -0.1343
 4506SOL    HW217790   5.845   1.295   5.371  0.6228 -0.2608 -0.0346
 4506SOL    HW317791   5.718   1.224   5.413  0.7939  0.7021  2.3020
 4506SOL    MW417792   5.799   1.222   5.380 -0.0055  0.1524  0.2003
 4507SOL     OW17793   1.823   0.646   6.009  0.4573 -0.3524 -0.3830
 4507SOL    HW217794   1.836   0.636   5.914  0.5813 -2.7947 -0.1854
 4507SOL    HW317795   1.731   0.626   6.023  0.3829  0.2435 -0.0078
 4507SOL    MW417796   1.813   0.642   5.998  0.4638 -0.5960 -0.3074
 4508SOL     OW17797   5.844   4.241   1.020 -0.6099 -0.0312 -0.2113
 4508SOL    HW217798   5.792   4.163   1.040 -1.5865  0.4763 -0.6749
 4508SOL    HW317799   5.785   4.296   0.968  0.0776  0.9838  0.0512
 4508SOL    MW417800   5.829   4.238   1.016 -0.6480  0.1696 -0.2379
 4509SOL     OW17801   5.645   2.418   4.985 -0.5674 -0.1626  0.1111
 4509SOL    HW217802   5.632   2.497   5.037 -3.5093 -0.0720 -0.5960
 4509SOL    HW317803   5.628   2.445   4.895  0.8409 -1.1036 -0.4715
 4509SOL    MW417804   5.641   2.432   4.980 -0.7697 -0.2748 -0.0591
 4510SOL     OW17805   5.240   2.222   1.430 -0.2101 -0.5563  0.5289
 4510SOL    HW217806   5.162   2.167   1.430 -0.1799 -0.7393 -2.1864
 4510SOL    HW317807   5.211   2.304   1.391  0.3551  0.4320  2.1136
 4510SOL    MW417808   5.226   2.225   1.425 -0.1315 -0.4500  0.3797
 4511SOL     OW17809   1.604   2.896   3.142  0.0466  0.5698 -0.1601
 4511SOL    HW217810   1.691   2.869   3.171 -0.0115  1.2512  0.6992
 4511SOL    HW317811   1.620   2.959   3.072  0.3116  1.9008  1.0529
 4511SOL    MW417812   1.618   2.901   3.137  0.0739  0.8353  0.1133
 4512SOL     OW17813   5.856   0.716   3.755 -0.5681 -0.1422 -0.2448
 4512SOL    HW217814   5.900   0.732   3.838 -0.4442 -1.6058  0.0023
 4512SOL    HW317815   5.925   0.681   3.698 -0.7763  0.3298 -0.8065
 4512SOL    MW417816   5.871   0.714   3.758 -0.5792 -0.2730 -0.2863
 4513SOL     OW17817   1.693   4.787   1.053  0.7420  0.1319 -0.0026
 4513SOL    HW217818   1.616   4.750   1.097 -0.8890  2.9334 -0.2361
 4513SOL    HW317819   1.694   4.879   1.080  1.3767  1.2816 -3.3996
 4513SOL    MW417820   1.683   4.794   1.062  0.6106  0.6532 -0.4816
 4514SOL     OW17821   3.784   6.241   3.829 -0.3377 -0.0881  0.0974
 4514SOL    HW217822   3.848   6.280   3.769  0.4469 -1.4198  0.0141
 4514SOL    HW317823   3.704   6.233   3.777  0.1696 -0.6988 -0.6092
 4514SOL    MW417824   3.782   6.245   3.814 -0.1673 -0.3444 -0.0068
 4515SOL     OW17825   6.394   5.245   1.622  0.1880  0.0619 -0.5851
 4515SOL    HW217826   6.302   5.225   1.639  0.2924  0.2511  0.2511
 4515SOL    HW317827   6.391   5.324   1.567 -0.1436  0.3731 -0.1276
 4515SOL    MW417828   6.381   5.253   1.617  0.1580  0.1279 -0.4144
 4516SOL     OW17829   3.807   6.028   1.673  0.5079 -0.8350  0.1131
 4516SOL    HW217830   3.719   6.044   1.639  0.0006 -1.3270  1.1387
 4516SOL    HW317831   3.834   5.946   1.632 -0.0650 -1.3805  0.7837
 4516SOL    MW417832   3.799   6.019   1.663  0.3654 -0.9719  0.3369
 4517SOL     OW17833   5.092   3.875   1.240  0.1862  0.2200 -0.4301
 4517SOL    HW217834   5.021   3.905   1.181  0.5648  0.1880 -0.9093
 4517SOL    HW317835   5.147   3.952   1.251  1.9757 -0.6035 -2.8390
 4517SOL    MW417836   5.090   3.889   1.233  0.4723  0.1071 -0.8111
 4518SOL     OW17837   1.279   0.557   1.034 -0.0305 -0.2875 -0.2377
 4518SOL    HW217838   1.215   0.627   1.016  0.9055  0.6335 -0.1057
 4518SOL    HW317839   1.274   0.545   1.129  0.1240 -0.0883 -0.2046
 4518SOL    MW417840   1.270   0.565   1.044  0.1134 -0.1397 -0.2159
 4519SOL     OW17841   0.112   2.299   4.050 -0.1162 -0.4310  0.5166
 4519SOL    HW217842   0.084   2.262   3.966  0.8025 -0.0852  0.0455
 4519SOL    HW317843   0.099   2.393   4.039  0.2323 -0.3661  0.6749
 4519SOL    MW417844   0.107   2.306   4.037  0.0510 -0.3768  0.4753
 4520SOL     OW17845   5.049   5.550   2.354 -0.0631  0.5657 -0.2783
 4520SOL    HW217846   5.125   5.602   2.327  1.0556 -0.8287  0.0265
 4520SOL    HW317847   5.019   5.508   2.273  0.0355  0.4539 -0.2580
 4520SOL    MW417848   5.055   5.551   2.340  0.0975  0.3669 -0.2354
 4521SOL     OW17849   0.247   5.561   0.757 -0.1110  0.6326 -0.8220
 4521SOL    HW217850   0.178   5.615   0.719 -0.2522  1.7327  0.8561
 4521SOL    HW317851   0.226   5.559   0.851  0.7133 -1.1658 -0.6387
 4521SOL    MW417852   0.235   5.568   0.764 -0.0209  0.5404 -0.5764
 4522SOL     OW17853   4.034   2.734   5.776 -0.1009 -0.3480  0.1934
 4522SOL    HW217854   3.952   2.688   5.789 -0.8952  1.2705  1.3376
 4522SOL    HW317855   4.069   2.746   5.864 -1.4558  3.7167  0.4140
 4522SOL    MW417856   4.028   2.730   5.789 -0.3845  0.4018  0.3735
 4523SOL     OW17857   0.800   0.590   4.321  0.1019 -0.1748 -0.1996
 4523SOL    HW217858   0.878   0.575   4.266 -0.7588  0.7411 -1.7350
 4523SOL    HW317859   0.729   0.601   4.259 -1.1212 -0.1108  1.1626
 4523SOL    MW417860   0.801   0.589   4.306 -0.1730 -0.0455 -0.2224
 4524SOL     OW17861   5.186   1.287   6.066 -0.7405  0.0776  0.6139
 4524SOL    HW217862   5.246   1.272   6.139  0.2247 -0.4100 -0.2440
 4524SOL    HW317863   5.242   1.283   5.988 -1.7663  0.4165 -0.1657
 4524SOL    MW417864   5.201   1.284   6.065 -0.7485  0.0580  0.3979
 4525SOL     OW17865   4.169   5.646   1.070  0.1090 -0.0543 -0.1201
 4525SOL    HW217866   4.086   5.632   1.025  0.7568  0.6590 -1.6045
 4525SOL    HW317867   4.144   5.659   1.162 -1.7346  2.8547 -0.8814
 4525SOL    MW417868   4.155   5.646   1.076 -0.0488  0.4236 -0.4164
 4526SOL     OW17869   0.758   4.136   6.062 -0.2511  0.7959  0.8126
 4526SOL    HW217870   0.733   4.055   6.107 -0.9969  0.7325  0.3060
 4526SOL    HW317871   0.817   4.107   5.992 -0.9006  0.6233  0.3265
 4526SOL    MW417872   0.763   4.122   6.058 -0.4352  0.7647  0.6816
 4527SOL     OW17873   3.620   4.079   0.479  0.0603  0.1745 -0.2183
 4527SOL    HW217874   3.680   4.063   0.406 -2.0718 -1.3741 -1.7575
 4527SOL    HW317875   3.616   3.994   0.524  1.6701  1.2148  2.0583
 4527SOL    MW417876   3.627   4.065   0.475 -0.0086  0.1074 -0.1210
 4528SOL     OW17877   3.612   5.069   6.012 -0.2194  0.1005 -0.5995
 4528SOL    HW217878   3.586   5.160   6.030 -1.5569 -0.5312  0.9115
 4528SOL    HW317879   3.663   5.074   5.931 -1.0486  2.0680 -1.0560
 4528SOL    MW417880   3.615   5.082   6.004 -0.5053  0.2767 -0.4604
 4529SOL     OW17881   2.811   2.121   4.253 -0.6907  0.1825 -0.0051
 4529SOL    HW217882   2.847   2.084   4.334  0.4367  0.6885 -0.2563
 4529SOL    HW317883   2.746   2.184   4.283 -0.6273  0.0228  0.4922
 4529SOL    MW417884   2.808   2.124   4.268 -0.5336  0.2282  0.0274
 4530SOL     OW17885   2.849   5.234   4.231 -0.0605  0.0511 -0.3208
 4530SOL    HW217886   2.934   5.232   4.275  0.9080 -0.2126 -2.1374
 4530SOL    HW317887   2.869   5.248   4.139 -1.7340 -3.3241 -1.3850
 4530SOL    MW417888   2.863   5.235   4.225 -0.1535 -0.4290 -0.7009
 4531SOL     OW17889   3.976   1.816   2.159 -0.4290 -0.1344 -0.1938
 4531SOL    HW217890   4.033   1.811   2.236 -2.2094  0.2528  1.2086
 4531SOL    HW317891   3.970   1.726   2.128 -0.6362 -0.5093  0.8732
 4531SOL    MW417892   3.983   1.803   2.165 -0.6912 -0.1327  0.1320
 4532SOL     OW17893   4.565   4.478   1.570 -0.2490  0.6570  0.0146
 4532SOL    HW217894   4.493   4.429   1.531  0.6117  1.2631 -2.5398
 4532SOL    HW317895   4.597   4.422   1.641 -2.5825 -0.0266  0.6247
 4532SOL    MW417896   4.559   4.464   1.575 -0.4433  0.6468 -0.2419
 4533SOL     OW17897   6.129   1.525   2.027  0.5382 -0.6399  0.5294
 4533SOL    HW217898   6.107   1.459   2.093  1.4875 -1.2885  0.2349
 4533SOL    HW317899   6.055   1.524   1.966  0.3240 -1.0918  0.7893
 4533SOL    MW417900   6.117   1.516   2.028  0.6352 -0.7851  0.5248
 4534SOL     OW17901   3.607   2.394   2.809  0.0643 -0.0084 -0.7566
 4534SOL    HW217902   3.544   2.416   2.740  1.6853  2.6810 -1.5390
 4534SOL    HW317903   3.681   2.356   2.762 -0.2040 -1.4676 -0.0435
 4534SOL    MW417904   3.608   2.392   2.794  0.2428  0.1539 -0.7658
 4535SOL     OW17905   1.954   5.203   3.242 -0.0510  0.6041 -0.1561
 4535SOL    HW217906   1.940   5.147   3.166  3.8683 -0.5799 -0.1954
 4535SOL    HW317907   1.961   5.291   3.206 -1.7391  0.5893 -0.6311
 4535SOL    MW417908   1.953   5.207   3.227  0.2434  0.4460 -0.2240
 4536SOL     OW17909   1.446   2.405   2.545  0.1681  0.4929 -0.0343
 4536SOL    HW217910   1.493   2.427   2.465 -2.3429  2.5293 -1.0970
 4536SOL    HW317911   1.367   2.359   2.515 -1.2005  1.9694  1.1463
 4536SOL    MW417912   1.441   2.402   2.531 -0.3438  0.9564 -0.0187
 4537SOL     OW17913   2.116   4.439   0.038  0.1641  0.9664 -0.0579
 4537SOL    HW217914   2.177   4.368   0.059 -0.6514  0.0408 -0.7393
 4537SOL    HW317915   2.107   4.488   0.119  0.9479  0.4542  0.3528
 4537SOL    MW417916   2.123   4.436   0.051  0.1599  0.7767 -0.0936
 4538SOL     OW17917   4.766   6.304   0.878 -0.2567 -0.3438 -0.5382
 4538SOL    HW217918   4.749   6.264   0.964 -0.1350 -0.6209 -0.6429
 4538SOL    HW317919   4.685   6.350   0.857 -0.4484 -0.6571 -0.4848
 4538SOL    MW417920   4.753   6.305   0.887 -0.2660 -0.4217 -0.5450
 4539SOL     OW17921   0.225   5.629   3.780  0.3292  0.3980  0.6046
 4539SOL    HW217922   0.238   5.679   3.860 -1.4318  0.2931  1.0018
 4539SOL    HW317923   0.226   5.694   3.710  3.1914  0.3496  0.4993
 4539SOL    MW417924   0.227   5.644   3.781  0.4745  0.3778  0.6431
 4540SOL     OW17925   0.858   0.243   1.833 -0.3550 -0.3122 -0.1256
 4540SOL    HW217926   0.819   0.300   1.767  1.2016  0.2601 -0.6064
 4540SOL    HW317927   0.850   0.293   1.915  0.4682  0.3779 -0.4438
 4540SOL    MW417928   0.852   0.257   1.835 -0.0410 -0.1456 -0.2310
 4541SOL     OW17929   5.597   1.965   1.579  0.2729 -0.2219 -0.3793
 4541SOL    HW217930   5.543   1.983   1.502  0.3696  0.4213 -0.3019
 4541SOL    HW317931   5.556   2.015   1.649  0.1504 -0.8535  0.0050
 4541SOL    MW417932   5.585   1.974   1.578  0.2695 -0.2204 -0.3184
 4542SOL     OW17933   1.641   6.404   0.071 -0.0958 -0.1648  0.2799
 4542SOL    HW217934   1.678   6.426   0.156 -0.1368  0.9612  0.0141
 4542SOL    HW317935   1.687   6.460   0.009 -1.0125 -0.0059 -0.2769
 4542SOL    MW417936   1.652   6.414   0.074 -0.2221  0.0047  0.1714
 4543SOL     OW17937   0.394   5.367   4.436 -0.2329 -0.0028 -0.7028
 4543SOL    HW217938   0.445   5.435   4.480  0.0717  0.3721 -1.5917
 4543SOL    HW317939   0.460   5.310   4.396 -0.4882  0.1952 -1.4373
 4543SOL    MW417940   0.410   5.368   4.436 -0.2264  0.0728 -0.9170
 4544SOL     OW17941   0.954   1.853   2.890  1.0026 -0.5425  0.2429
 4544SOL    HW217942   0.859   1.851   2.897  0.7981 -1.2552 -1.9088
 4544SOL    HW317943   0.971   1.866   2.796  3.0135 -2.0369  0.3182
 4544SOL    MW417944   0.944   1.855   2.878  1.2409 -0.8337 -0.0310
 4545SOL     OW17945   5.066   5.338   5.315  0.1506 -0.2202  0.0549
 4545SOL    HW217946   5.064   5.404   5.385 -1.4029  0.2784 -0.4268
 4545SOL    HW317947   5.062   5.255   5.361  2.3126 -0.0320  0.6848
 4545SOL    MW417948   5.065   5.336   5.331  0.2309 -0.1296  0.0745
 4546SOL     OW17949   4.638   4.058   2.703  0.2492 -0.1377 -0.3214
 4546SOL    HW217950   4.631   4.084   2.795  0.0918 -1.0738 -0.0546
 4546SOL    HW317951   4.648   4.140   2.655  1.6408  0.2963  0.6472
 4546SOL    MW417952   4.639   4.072   2.709  0.4121 -0.2040 -0.1584
 4547SOL     OW17953   2.412   3.285   4.996 -0.3153  0.6825 -0.1860
 4547SOL    HW217954   2.338   3.252   5.047  1.2498 -0.6596  1.3426
 4547SOL    HW317955   2.442   3.362   5.046  0.4034  0.1428  0.2474
 4547SOL    MW417956   2.406   3.291   5.010 -0.0140  0.4342  0.0729
 4548SOL     OW17957   0.808   3.011   3.399  0.0291 -0.2051 -0.3036
 4548SOL    HW217958   0.741   2.978   3.459  0.5692 -1.4745 -0.3836
 4548SOL    HW317959   0.794   2.963   3.318  2.1567 -1.8597  0.2382
 4548SOL    MW417960   0.797   3.000   3.396  0.3811 -0.5909 -0.2427
 4549SOL     OW17961   6.344   4.462   5.442 -0.2122 -0.4408  0.2244
 4549SOL    HW217962   6.256   4.426   5.450 -0.7205  0.7990  0.5003
 4549SOL    HW317963   6.402   4.392   5.473 -0.9656 -1.7925 -1.2959
 4549SOL    MW417964   6.340   4.448   5.448 -0.3786 -0.4556  0.0602
 4550SOL     OW17965   3.079   4.422   1.169  0.0674 -1.6108  0.2398
 4550SOL    HW217966   3.163   4.448   1.131 -0.0197  0.4719  1.3284
 4550SOL    HW317967   3.016   4.432   1.097  0.2142  0.3949  0.3277
 4550SOL    MW417968   3.082   4.427   1.155  0.0753 -1.0714  0.3950
 4551SOL     OW17969   5.820   0.030   2.925 -0.8929 -0.9267 -0.0153
 4551SOL    HW217970   5.758  -0.026   2.971 -0.8936 -0.9380 -0.0302
 4551SOL    HW317971   5.901   0.024   2.976 -0.0813 -2.9623 -1.4117
 4551SOL    MW417972   5.823   0.022   2.937 -0.7859 -1.1968 -0.2015
 4552SOL     OW17973   0.185   5.979   1.001  0.0144  0.3126  0.1852
 4552SOL    HW217974   0.108   5.999   1.054  1.0250 -0.5044  2.0580
 4552SOL    HW317975   0.215   5.894   1.033  0.9486 -0.0026 -1.4061
 4552SOL    MW417976   0.179   5.971   1.012  0.2710  0.1632  0.2223
 4553SOL     OW17977   1.754   1.681   1.104 -0.2576  0.0539 -0.5954
 4553SOL    HW217978   1.757   1.666   1.010  0.7192  0.6836 -0.6752
 4553SOL    HW317979   1.725   1.772   1.113  0.0840  0.1343 -0.3000
 4553SOL    MW417980   1.750   1.691   1.093 -0.0836  0.1476 -0.5670
 4554SOL     OW17981   4.288   3.592   1.399 -0.2000  0.3569  0.1708
 4554SOL    HW217982   4.232   3.634   1.333  1.5866  1.5094 -0.6683
 4554SOL    HW317983   4.229   3.575   1.472 -1.7669  1.0347 -0.8748
 4554SOL    MW417984   4.273   3.595   1.400 -0.1710  0.5984 -0.0779
 4555SOL     OW17985   5.287   3.404   0.835  0.0149 -0.2324  0.0586
 4555SOL    HW217986   5.363   3.431   0.886  1.1914 -0.0648 -1.6889
 4555SOL    HW317987   5.213   3.414   0.894  1.0984  1.5638  1.1788
 4555SOL    MW417988   5.288   3.409   0.850  0.3131  0.0267 -0.0241
 4556SOL     OW17989   5.142   2.719   2.998 -0.0079 -0.0130 -0.1330
 4556SOL    HW217990   5.216   2.775   2.976 -0.7089  0.8835 -0.2991
 4556SOL    HW317991   5.177   2.657   3.062  0.7301  0.7957  0.2708
 4556SOL    MW417992   5.156   2.719   3.004 -0.0030  0.2120 -0.1016
 4557SOL     OW17993   3.156   2.178   1.941  0.4246  0.4259 -0.1738
 4557SOL    HW217994   3.161   2.230   1.861  1.6379 -1.1056 -1.1602
 4557SOL    HW317995   3.247   2.159   1.964  0.0519 -2.1102 -0.4868
 4557SOL    MW417996   3.169   2.182   1.934  0.5355 -0.1108 -0.3453
 4558SOL     OW17997   4.351   2.921   4.609 -0.2510  0.5979  0.4138
 4558SOL    HW217998   4.435   2.942   4.567 -0.0565 -0.3932  0.2956
 4558SOL    HW317999   4.285   2.963   4.553 -0.0490 -1.2061 -1.2809
 4558SOL    MW418000   4.353   2.930   4.596 -0.1987  0.2292  0.1746
 4559SOL     OW18001   3.994   1.323   4.930  0.8536 -0.0300 -0.4113
 4559SOL    HW218002   3.979   1.391   4.865  1.1199  0.6034  0.1750
 4559SOL    HW318003   3.913   1.273   4.932 -0.0378  1.3840  0.4336
 4559SOL    MW418004   3.982   1.325   4.922  0.7711  0.2401 -0.2225
 4560SOL     OW18005   4.203   4.893   0.354 -0.0205 -0.0560  0.0286
 4560SOL    HW218006   4.127   4.871   0.299  0.0341 -3.9573  1.2337
 4560SOL    HW318007   4.180   4.861   0.441  2.5250 -0.2429  0.7132
 4560SOL    MW418008   4.190   4.886   0.358  0.3225 -0.5954  0.2779
 4561SOL     OW18009   0.867   5.845   0.328  0.2300  0.1408  0.8525
 4561SOL    HW218010   0.802   5.915   0.322 -0.4915 -0.5453  0.4580
 4561SOL    HW318011   0.951   5.888   0.314 -0.4236  0.3981 -3.7230
 4561SOL    MW418012   0.870   5.860   0.326  0.0486  0.0843  0.1967
 4562SOL     OW18013   0.573   1.552   1.267 -0.3541 -0.2670  0.2504
 4562SOL    HW218014   0.621   1.474   1.296  0.0495 -0.2265 -0.2858
 4562SOL    HW318015   0.513   1.571   1.338 -2.1403 -2.4687 -0.5243
 4562SOL    MW418016   0.571   1.544   1.280 -0.5365 -0.5521  0.0775
 4563SOL     OW18017   3.185   4.004   1.612  0.1969 -0.1703  0.4563
 4563SOL    HW218018   3.101   3.971   1.580 -0.4581  1.6666  0.1215
 4563SOL    HW318019   3.229   4.037   1.533  0.4484  0.4983  0.8686
 4563SOL    MW418020   3.180   4.004   1.597  0.1437  0.1602  0.4665
 4564SOL     OW18021   2.438   0.390   1.529  0.0330 -0.2291 -0.2315
 4564SOL    HW218022   2.526   0.385   1.492  0.2749  0.3258  0.2333
 4564SOL    HW318023   2.413   0.482   1.518 -1.5263 -0.8746 -2.6230
 4564SOL    MW418024   2.446   0.402   1.523 -0.1409 -0.2411 -0.4857
 4565SOL     OW18025   3.840   2.519   4.337 -0.1800 -0.4072 -0.0136
 4565SOL    HW218026   3.935   2.510   4.339  0.2603  2.4087 -2.2414
 4565SOL    HW318027   3.812   2.462   4.266  0.0567 -0.0390 -0.4071
 4565SOL    MW418028   3.849   2.511   4.328 -0.0907  0.0129 -0.3595
 4566SOL     OW18029   2.010   6.297   0.558 -0.0655 -0.4385  0.1117
 4566SOL    HW218030   2.080   6.244   0.597  1.0688  1.2299  0.4926
 4566SOL    HW318031   2.053   6.340   0.483  0.4842  3.3466  2.3607
 4566SOL    MW418032   2.025   6.296   0.553  0.1567  0.2810  0.4587
 4567SOL     OW18033   0.019   6.317   0.743 -0.4429 -0.4920  0.3423
 4567SOL    HW218034  -0.060   6.291   0.790 -1.4133 -1.0331 -1.4748
 4567SOL    HW318035   0.011   6.412   0.734 -0.2248 -0.3819  1.2913
 4567SOL    MW418036   0.007   6.326   0.748 -0.5422 -0.5489  0.2278
 4568SOL     OW18037   2.988   1.224   1.827 -0.0500 -0.1040  0.3128
 4568SOL    HW218038   3.015   1.257   1.913  1.3874 -2.9651  1.0872
 4568SOL    HW318039   2.911   1.170   1.846 -0.5410  0.3269 -0.4277
 4568SOL    MW418040   2.981   1.221   1.841  0.0748 -0.4246  0.3172
 4569SOL     OW18041   1.220   6.113   3.182 -0.0897 -0.2597 -0.7060
 4569SOL    HW218042   1.276   6.096   3.107  0.3259 -0.7444 -0.2906
 4569SOL    HW318043   1.132   6.122   3.145 -0.2078 -2.4155 -1.0621
 4569SOL    MW418044   1.216   6.112   3.167 -0.0505 -0.6081 -0.6982
 4570SOL     OW18045   4.311   0.630   5.951  0.1193 -0.0473 -0.0613
 4570SOL    HW218046   4.233   0.607   5.900  1.9574 -2.8122 -1.9057
 4570SOL    HW318047   4.282   0.622   6.042 -1.6199 -1.7882 -0.6813
 4570SOL    MW418048   4.297   0.626   5.957  0.1324 -0.6418 -0.3864
 4571SOL     OW18049   0.449   0.836   5.193 -0.0261 -0.4037 -0.1249
 4571SOL    HW218050   0.505   0.807   5.121 -0.3317 -0.9028 -0.1638
 4571SOL    HW318051   0.489   0.918   5.222  1.5103 -1.4056  0.7260
 4571SOL    MW418052   0.461   0.843   5.187  0.1363 -0.6017 -0.0178
 4572SOL     OW18053   4.056   4.632   5.049 -0.0880  0.6862  0.6341
 4572SOL    HW218054   4.042   4.571   5.122  0.8045 -0.1875  0.1069
 4572SOL    HW318055   3.968   4.661   5.025 -0.7462 -1.7106 -0.1934
 4572SOL    MW418056   4.043   4.628   5.056 -0.0571  0.2547  0.4553
 4573SOL     OW18057   0.501   2.686   5.002  0.2748 -0.0437 -0.1147
 4573SOL    HW218058   0.506   2.711   4.910  0.8674 -0.2921 -0.1527
 4573SOL    HW318059   0.428   2.738   5.037 -0.7206 -0.8079 -0.9880
 4573SOL    MW418060   0.492   2.696   4.994  0.2216 -0.1773 -0.2349
 4574SOL     OW18061   2.672   3.186   3.606 -0.4919  0.2402  0.2718
 4574SOL    HW218062   2.758   3.173   3.566 -1.6624  2.3838 -3.4311
 4574SOL    HW318063   2.685   3.259   3.667  0.2633  0.9706 -0.7178
 4574SOL    MW418064   2.685   3.194   3.609 -0.5467  0.6194 -0.3473
 4575SOL     OW18065   0.735   0.143   5.625  0.5391  0.0321 -0.2066
 4575SOL    HW218066   0.727   0.125   5.532  0.4429 -0.1747 -0.1598
 4575SOL    HW318067   0.828   0.132   5.645  0.5140 -0.2036 -0.2210
 4575SOL    MW418068   0.746   0.139   5.616  0.5231 -0.0263 -0.2023
 4576SOL     OW18069   4.112   4.713   2.769 -0.1185 -0.2039  0.9108
 4576SOL    HW218070   4.053   4.783   2.800 -1.8937  0.0494 -2.5516
 4576SOL    HW318071   4.067   4.676   2.693  2.8056 -2.2083 -0.0061
 4576SOL    MW418072   4.098   4.717   2.763  0.0331 -0.4349  0.3330
 4577SOL     OW18073   4.972   5.649   3.198  0.1080 -0.4480 -0.5403
 4577SOL    HW218074   4.971   5.720   3.134 -1.4177 -0.1345 -0.2060
 4577SOL    HW318075   5.003   5.690   3.279 -1.9016  0.1546 -0.0398
 4577SOL    MW418076   4.976   5.663   3.201 -0.3584 -0.3271 -0.4301
 4578SOL     OW18077   3.628   2.837   3.474  0.0281 -0.3819 -0.7625
 4578SOL    HW218078   3.620   2.781   3.551 -0.8522 -0.5341 -0.9500
 4578SOL    HW318079   3.710   2.885   3.488 -0.0213 -0.5396  0.1711
 4578SOL    MW418080   3.638   2.836   3.486 -0.0945 -0.4228 -0.6640
 4579SOL     OW18081   1.503   4.196   6.353  0.1304  0.6479 -0.4530
 4579SOL    HW218082   1.549   4.151   6.282  1.8512  0.4632  0.6966
 4579SOL    HW318083   1.418   4.153   6.358 -0.0356  0.6791 -2.3807
 4579SOL    MW418084   1.498   4.184   6.344  0.3356  0.6276 -0.5557
 4580SOL     OW18085   3.677   3.018   1.644  0.1960  0.4109  0.8980
 4580SOL    HW218086   3.731   2.948   1.606  0.1422  0.1728  1.2569
 4580SOL    HW318087   3.694   3.094   1.588 -0.5002 -0.1417 -0.1030
 4580SOL    MW418088   3.687   3.019   1.632  0.0971  0.3065  0.8133
 4581SOL     OW18089   0.625   4.760   4.202 -0.0991 -0.0150  0.0143
 4581SOL    HW218090   0.682   4.837   4.194 -0.2813  0.1336  0.1075
 4581SOL    HW318091   0.546   4.795   4.244 -0.8266  0.0656 -1.3907
 4581SOL    MW418092   0.622   4.775   4.207 -0.2191  0.0152 -0.1588
 4582SOL     OW18093   0.915   5.266   3.809  0.0436 -0.5751  0.0541
 4582SOL    HW218094   0.972   5.258   3.886 -0.9643 -2.3320  0.6690
 4582SOL    HW318095   0.833   5.300   3.844  0.0606  0.0818 -0.5202
 4582SOL    MW418096   0.912   5.270   3.824 -0.0871 -0.7202  0.0595
 4583SOL     OW18097   4.486   0.424   3.884  0.6883  0.2122  0.4314
 4583SOL    HW218098   4.434   0.493   3.925  0.5684  0.0676  0.5264
 4583SOL    HW318099   4.442   0.408   3.800  1.1739  0.7926  0.0612
 4583SOL    MW418100   4.473   0.431   3.878  0.7365  0.2697  0.3951
 4584SOL     OW18101   3.462   4.458   3.292 -0.0515  0.2129  0.2732
 4584SOL    HW218102   3.379   4.494   3.263  0.0902  0.4425  0.1513
 4584SOL    HW318103   3.528   4.499   3.235  0.0530 -0.7432 -0.3296
 4584SOL    MW418104   3.460   4.468   3.281 -0.0190  0.1170  0.1776
 4585SOL     OW18105   3.578   1.810   2.805  0.2858  0.1679 -0.3982
 4585SOL    HW218106   3.534   1.783   2.725 -0.4279  0.5010 -0.1311
 4585SOL    HW318107   3.667   1.831   2.778 -0.4094  1.9587 -1.4273
 4585SOL    MW418108   3.584   1.809   2.791  0.0999  0.4481 -0.4987
 4586SOL     OW18109   4.981   5.132   1.034 -0.1027  0.1585  0.3515
 4586SOL    HW218110   4.958   5.148   1.126  2.0816 -0.2883  1.0434
 4586SOL    HW318111   5.044   5.060   1.038  2.9484  2.5350 -1.0657
 4586SOL    MW418112   4.986   5.125   1.047  0.5880  0.4131  0.2558
 4587SOL     OW18113   2.648   5.255   3.155  0.3291  0.2931  0.1991
 4587SOL    HW218114   2.610   5.278   3.240  0.2554  0.7626  0.0401
 4587SOL    HW318115   2.742   5.265   3.168  0.5265 -1.7276  0.8621
 4587SOL    MW418116   2.655   5.259   3.168  0.3454  0.0884  0.2656
 4588SOL     OW18117   2.968   1.218   1.180 -0.5631  0.3173  0.0758
 4588SOL    HW218118   2.930   1.132   1.196  0.0110  0.0466  0.0000
 4588SOL    HW318119   2.955   1.233   1.086  3.2334 -1.6549 -0.9543
 4588SOL    MW418120   2.961   1.209   1.170  0.0135  0.0214 -0.0701
 4589SOL     OW18121   2.069   3.808   6.277  0.5118  0.4509 -0.2769
 4589SOL    HW218122   2.156   3.840   6.255  0.7704 -0.3697 -0.4585
 4589SOL    HW318123   2.024   3.885   6.312  1.7221  0.6023  1.0434
 4589SOL    MW418124   2.074   3.823   6.279  0.7056  0.3626 -0.1266
 4590SOL     OW18125   5.780   1.942   5.104  0.3895 -0.3629 -0.2780
 4590SOL    HW218126   5.706   2.001   5.088  0.0785 -0.7699 -0.3533
 4590SOL    HW318127   5.800   1.951   5.197  1.1086  0.7468 -0.5239
 4590SOL    MW418128   5.773   1.951   5.114  0.4434 -0.2702 -0.3204
 4591SOL     OW18129   1.911   3.205   1.299  0.0146  0.1177  0.1521
 4591SOL    HW218130   1.866   3.128   1.333  1.8246 -1.1960 -0.2690
 4591SOL    HW318131   1.912   3.191   1.204 -0.0246  0.8777  0.0384
 4591SOL    MW418132   1.905   3.193   1.291  0.2482  0.0447  0.0815
 4592SOL     OW18133   1.715   5.739   5.339 -0.3443  0.4773 -0.0398
 4592SOL    HW218134   1.787   5.710   5.284 -1.8099 -0.3928 -1.5854
 4592SOL    HW318135   1.746   5.821   5.378  1.8095 -0.3383  0.1052
 4592SOL    MW418136   1.728   5.746   5.337 -0.2535  0.2549 -0.2246
 4593SOL     OW18137   1.358   2.194   4.238  0.3585  0.4821 -0.0558
 4593SOL    HW218138   1.420   2.183   4.310  0.4459  1.3666  0.0119
 4593SOL    HW318139   1.272   2.184   4.279  0.4280 -0.7987 -0.1597
 4593SOL    MW418140   1.355   2.191   4.253  0.3792  0.4298 -0.0606
 4594SOL     OW18141   3.407   5.068   1.459  0.5815  0.0990 -0.0749
 4594SOL    HW218142   3.437   5.021   1.537  0.4788  1.6747  0.9509
 4594SOL    HW318143   3.312   5.054   1.458  0.5880  0.0460  0.0403
 4594SOL    MW418144   3.398   5.060   1.469  0.5688  0.2999  0.0757
 4595SOL     OW18145   5.097   1.817   6.171  0.0513 -0.4111  0.9103
 4595SOL    HW218146   5.162   1.881   6.199  1.1565 -0.4492 -1.2830
 4595SOL    HW318147   5.119   1.737   6.219  2.2668 -0.6717 -0.4046
 4595SOL    MW418148   5.108   1.815   6.181  0.4894 -0.4505  0.4475
 4596SOL     OW18149   5.878   4.768   5.410 -0.0661 -0.1755 -0.1215
 4596SOL    HW218150   5.911   4.830   5.344 -0.4606 -0.5196 -0.6526
 4596SOL    HW318151   5.944   4.769   5.479  2.4590 -2.7238 -2.2546
 4596SOL    MW418152   5.891   4.777   5.410  0.2150 -0.5571 -0.4730
 4597SOL     OW18153   5.329   1.792   3.548  0.0483  0.4106  0.0496
 4597SOL    HW218154   5.380   1.717   3.517  0.7474  0.0593  1.8940
 4597SOL    HW318155   5.256   1.799   3.486  1.0023 -0.6036 -1.2358
 4597SOL    MW418156   5.326   1.783   3.536  0.2664  0.2305  0.1234
 4598SOL     OW18157   1.491   1.455   3.406 -0.5889 -0.4937 -0.3150
 4598SOL    HW218158   1.432   1.436   3.479 -1.4160  0.4191 -0.7173
 4598SOL    HW318159   1.543   1.376   3.396  0.5429 -0.1648  2.1833
 4598SOL    MW418160   1.490   1.442   3.414 -0.5487 -0.3298 -0.0384
 4599SOL     OW18161   5.375   1.553   6.143 -0.4905  0.2055 -0.2877
 4599SOL    HW218162   5.418   1.639   6.141 -0.8222  0.3856  0.1541
 4599SOL    HW318163   5.304   1.560   6.080 -0.5928  0.2930 -0.1612
 4599SOL    MW418164   5.372   1.565   6.135 -0.5478  0.2408 -0.2127
 4600SOL     OW18165   5.192   2.492   3.554 -0.3348 -0.3918 -0.2151
 4600SOL    HW218166   5.257   2.515   3.620 -0.8214 -0.3753  0.2654
 4600SOL    HW318167   5.173   2.574   3.509 -2.2044  0.2524  1.6153
 4600SOL    MW418168   5.198   2.506   3.557 -0.6457 -0.3046  0.0898
 4601SOL     OW18169   3.801   1.321   1.030  1.1968 -0.0143  0.0604
 4601SOL    HW218170   3.754   1.247   0.992 -0.2045 -0.2666  2.1538
 4601SOL    HW318171   3.821   1.378   0.955 -1.2711 -0.5504 -1.0856
 4601SOL    MW418172   3.798   1.319   1.015  0.6863 -0.1183  0.1854
 4602SOL     OW18173   0.594   0.397   2.643 -0.2634  0.1637 -0.0734
 4602SOL    HW218174   0.576   0.418   2.735 -1.4574  1.6233 -0.6085
 4602SOL    HW318175   0.667   0.455   2.619 -0.6162  0.5065 -0.3216
 4602SOL    MW418176   0.602   0.408   2.652 -0.4675  0.4015 -0.1767
 4603SOL     OW18177   0.690   1.394   5.355 -0.0116 -0.2333 -0.0476
 4603SOL    HW218178   0.710   1.487   5.366 -1.9940  0.0041  2.4048
 4603SOL    HW318179   0.626   1.391   5.284 -1.1304  0.4785  0.9122
 4603SOL    MW418180   0.684   1.405   5.347 -0.4208 -0.1081  0.4026
 4604SOL     OW18181   5.120   2.819   4.291 -0.1040  0.0927 -0.1897
 4604SOL    HW218182   5.163   2.790   4.371 -1.3714  0.1155  0.5210
 4604SOL    HW318183   5.026   2.809   4.308 -0.4110  0.1798 -1.6391
 4604SOL    MW418184   5.113   2.814   4.304 -0.3117  0.1072 -0.2872
 4605SOL     OW18185   0.115   0.445   3.902 -0.0811 -0.0411  0.2324
 4605SOL    HW218186   0.076   0.513   3.958 -0.6620 -0.7577  0.7155
 4605SOL    HW318187   0.209   0.460   3.908 -0.0922 -0.5272  1.9632
 4605SOL    MW418188   0.122   0.456   3.910 -0.1592 -0.1998  0.5245
 4606SOL     OW18189   1.126   0.338   1.475  0.0633 -0.8448 -0.2401
 4606SOL    HW218190   1.051   0.394   1.496  0.5364  0.6593 -2.2476
 4606SOL    HW318191   1.169   0.324   1.559 -2.9439 -2.6212  1.1923
 4606SOL    MW418192   1.122   0.344   1.489 -0.2710 -0.8807 -0.3160
 4607SOL     OW18193   4.965   4.024   1.035 -0.6590 -0.0637  0.3156
 4607SOL    HW218194   4.923   4.108   1.054  0.6662  1.0982 -1.4624
 4607SOL    HW318195   4.897   3.971   0.995 -0.8858  1.1868 -1.0357
 4607SOL    MW418196   4.951   4.028   1.032 -0.5141  0.2546 -0.0972
 4608SOL     OW18197   1.701   2.943   0.214  0.7837 -0.0297 -0.3089
 4608SOL    HW218198   1.660   2.871   0.261  0.8136 -0.6426 -1.1964
 4608SOL    HW318199   1.750   2.901   0.143  1.6045  0.7986 -0.2533
 4608SOL    MW418200   1.702   2.928   0.211  0.8959 -0.0013 -0.4187
 4609SOL     OW18201   1.502   0.124   3.642  0.1773  0.1761 -0.0472
 4609SOL    HW218202   1.508   0.064   3.716  0.2271 -1.4451 -1.3216
 4609SOL    HW318203   1.558   0.198   3.667 -2.6772  1.5502  3.1325
 4609SOL    MW418204   1.511   0.126   3.655 -0.1928  0.1435  0.2042
 4610SOL     OW18205   4.411   3.058   5.007 -0.2005 -0.1268 -0.1095
 4610SOL    HW218206   4.348   2.993   4.976  0.2388 -1.0623  0.8809
 4610SOL    HW318207   4.366   3.142   4.999 -1.8647 -0.8319  1.2562
 4610SOL    MW418208   4.397   3.060   5.002 -0.3621 -0.3432  0.2013
 4611SOL     OW18209   4.389   0.974   0.401 -0.8329  0.3974 -0.1167
 4611SOL    HW218210   4.371   1.018   0.484 -0.7960 -0.0958  0.1573
 4611SOL    HW318211   4.341   1.025   0.336 -2.0835 -0.0772  0.4039
 4611SOL    MW418212   4.380   0.987   0.403 -0.9930  0.2697 -0.0119
 4612SOL     OW18213   3.522   0.951   2.406  0.1880 -0.1804 -0.2874
 4612SOL    HW218214   3.543   0.905   2.487 -1.4245  3.2616  2.3065
 4612SOL    HW318215   3.435   0.918   2.382  0.1057 -0.2685  0.1252
 4612SOL    MW418216   3.513   0.940   2.413 -0.0356  0.2621  0.1093
 4613SOL     OW18217   4.928   4.701   0.618  1.0330  0.3308 -0.0235
 4613SOL    HW218218   4.904   4.792   0.600 -0.2253 -0.1117 -0.6725
 4613SOL    HW318219   4.876   4.676   0.693 -1.3736 -0.9037 -1.9633
 4613SOL    MW418220   4.918   4.710   0.625  0.5495  0.1095 -0.3650
 4614SOL     OW18221   2.752   2.305   1.748  0.2805  0.1922 -0.4818
 4614SOL    HW218222   2.796   2.225   1.777 -0.3278 -0.2539 -0.7396
 4614SOL    HW318223   2.726   2.286   1.658 -2.0984 -0.3177  0.2355
 4614SOL    MW418224   2.754   2.292   1.740 -0.1136  0.0661 -0.4212
 4615SOL     OW18225   3.428   2.414   0.144 -0.3346 -0.7104  0.0943
 4615SOL    HW218226   3.343   2.395   0.103 -1.2695  1.2376  0.9712
 4615SOL    HW318227   3.427   2.363   0.225 -1.7861  1.0582  1.2835
 4615SOL    MW418228   3.417   2.405   0.149 -0.6495 -0.2200  0.3669
 4616SOL     OW18229   6.035   6.056   2.314  0.3330  0.0134  0.2699
 4616SOL    HW218230   6.095   6.043   2.387  0.7788  0.2936 -0.0433
 4616SOL    HW318231   6.050   6.146   2.287 -0.0550  0.0074  0.0295
 4616SOL    MW418232   6.045   6.066   2.320  0.3407  0.0496  0.1969
 4617SOL     OW18233   4.801   0.184   6.156  0.4271  0.3219  0.4765
 4617SOL    HW218234   4.874   0.166   6.096  1.3114  0.8340  1.3747
 4617SOL    HW318235   4.796   0.279   6.160 -0.3472  0.2879  0.3687
 4617SOL    MW418236   4.810   0.194   6.148  0.4416  0.3850  0.5808
 4618SOL     OW18237   5.576   5.781   1.634  0.3131  0.2230 -0.3216
 4618SOL    HW218238   5.501   5.721   1.631  1.1858 -0.9724  0.4726
 4618SOL    HW318239   5.595   5.790   1.727  2.2122 -0.9287 -0.5422
 4618SOL    MW418240   5.569   5.774   1.646  0.6788 -0.0867 -0.2459
 4619SOL     OW18241   6.415   1.932   1.385 -0.5927  0.4912  0.5400
 4619SOL    HW218242   6.390   2.020   1.413  0.8698  1.1877 -0.2090
 4619SOL    HW318243   6.408   1.935   1.290 -0.6540 -0.2562  0.5175
 4619SOL    MW418244   6.411   1.944   1.376 -0.4078  0.4845  0.4382
 4620SOL     OW18245   2.038   4.563   6.239 -0.6539 -0.0632  0.2067
 4620SOL    HW218246   2.066   4.527   6.324  1.0915 -0.0544 -0.3203
 4620SOL    HW318247   2.067   4.654   6.242  0.8773 -0.4683 -0.9782
 4620SOL    MW418248   2.046   4.570   6.251 -0.2216 -0.1155 -0.0192
 4621SOL     OW18249   5.280   0.042   1.236 -0.3885  0.1281 -0.1566
 4621SOL    HW218250   5.258   0.135   1.234  0.9718  0.4762  0.1101
 4621SOL    HW318251   5.256   0.009   1.149 -0.8494  0.7245 -0.2581
 4621SOL    MW418252   5.274   0.050   1.224 -0.2699  0.2527 -0.1348
 4622SOL     OW18253   0.105   4.759   5.289  0.7602  0.1504  0.5502
 4622SOL    HW218254   0.040   4.798   5.231  1.3638 -0.4462 -0.5409
 4622SOL    HW318255   0.101   4.813   5.368  1.1778  2.0993 -0.6912
 4622SOL    MW418256   0.096   4.771   5.292  0.8949  0.3288  0.2424
 4623SOL     OW18257   5.946   2.357   4.962  0.7209 -0.3122  0.9569
 4623SOL    HW218258   5.922   2.265   4.950  1.3930 -0.8267  3.1858
 4623SOL    HW318259   5.866   2.400   4.992  0.4161 -0.1538 -0.0510
 4623SOL    MW418260   5.932   2.351   4.964  0.7694 -0.3592  1.1180
 4624SOL     OW18261   0.975   2.291   0.608  0.2852  0.1096 -0.1615
 4624SOL    HW218262   1.071   2.292   0.612  0.2966  0.6034 -0.4836
 4624SOL    HW318263   0.948   2.271   0.698  0.7072 -3.4154 -0.6957
 4624SOL    MW418264   0.984   2.289   0.621  0.3424 -0.2903 -0.2745
 4625SOL     OW18265   0.227   2.496   6.011  0.0444 -0.1012  0.2220
 4625SOL    HW218266   0.317   2.529   6.005 -0.5840  1.6006 -0.5800
 4625SOL    HW318267   0.229   2.411   5.968  1.2739 -0.0824  0.2098
 4625SOL    MW418268   0.239   2.489   6.005  0.1237  0.1258  0.1145
 4626SOL     OW18269   3.953   0.124   5.144 -0.1741  0.7786  0.1230
 4626SOL    HW218270   3.900   0.074   5.206  0.3030  0.1737  0.0497
 4626SOL    HW318271   3.981   0.061   5.078  0.6716  1.0703  0.1825
 4626SOL    MW418272   3.950   0.109   5.144  0.0004  0.7373  0.1212
 4627SOL     OW18273   3.042   4.094   4.999 -0.0176 -0.1637  0.3681
 4627SOL    HW218274   3.066   4.041   5.075 -2.4225 -0.7344  0.8363
 4627SOL    HW318275   2.987   4.036   4.946  0.8396  0.5342 -1.3367
 4627SOL    MW418276   3.038   4.079   5.002 -0.2218 -0.1469  0.2050
 4628SOL     OW18277   5.523   5.308   2.789  0.3656  0.2477  0.3055
 4628SOL    HW218278   5.429   5.290   2.790  0.0032  1.9498  2.0418
 4628SOL    HW318279   5.530   5.389   2.739  0.8722  0.3295  0.5121
 4628SOL    MW418280   5.511   5.316   2.782  0.3846  0.4831  0.5618
 4629SOL     OW18281   6.371   2.203   1.488  0.3550  0.5323 -0.2899
 4629SOL    HW218282   6.319   2.273   1.529 -0.0783  0.9381 -1.4792
 4629SOL    HW318283   6.371   2.226   1.395  0.6199 -0.7999 -0.6267
 4629SOL    MW418284   6.364   2.216   1.481  0.3328  0.4101 -0.4913
 4630SOL     OW18285   5.385   3.448   4.051 -0.4406 -0.5499  0.4853
 4630SOL    HW218286   5.291   3.439   4.070 -1.2347  0.2032 -2.5202
 4630SOL    HW318287   5.394   3.538   4.021  1.1044 -0.8477 -0.0074
 4630SOL    MW418288   5.374   3.459   4.049 -0.3415 -0.4899  0.0237
 4631SOL     OW18289   0.940   1.797   4.106 -0.3589 -0.0384 -0.4387
 4631SOL    HW218290   1.026   1.821   4.071 -0.5195  1.0075 -0.1616
 4631SOL    HW318291   0.955   1.715   4.152 -0.0760 -1.3069 -2.6426
 4631SOL    MW418292   0.954   1.790   4.108 -0.3427 -0.0678 -0.6929
 4632SOL     OW18293   3.913   6.330   3.580  0.4170 -0.1369 -0.5105
 4632SOL    HW218294   3.849   6.268   3.545  0.4656  0.8752 -2.5493
 4632SOL    HW318295   3.868   6.414   3.580  1.9215  0.7752 -2.8435
 4632SOL    MW418296   3.899   6.332   3.576  0.6219  0.1170 -1.0873
 4633SOL     OW18297   0.884   1.227   5.027 -0.1962 -0.8209 -0.2016
 4633SOL    HW218298   0.894   1.219   5.122 -1.0551 -2.0342 -0.2062
 4633SOL    HW318299   0.964   1.188   4.992  0.3529  0.0753  0.0165
 4633SOL    MW418300   0.896   1.221   5.035 -0.2371 -0.8627 -0.1734
 4634SOL     OW18301   2.325   6.046   3.825  0.2382 -0.5989 -0.1102
 4634SOL    HW218302   2.414   6.029   3.795  0.9017  1.2511  0.6576
 4634SOL    HW318303   2.324   6.139   3.847 -1.7100 -0.7117  0.5165
 4634SOL    MW418304   2.336   6.056   3.824  0.0687 -0.3697  0.0738
 4635SOL     OW18305   5.209   3.446   3.339  0.3570  0.0738 -0.5796
 4635SOL    HW218306   5.266   3.372   3.321  1.0002  0.9892 -2.6902
 4635SOL    HW318307   5.209   3.455   3.434  0.7467 -2.2150 -0.3219
 4635SOL    MW418308   5.216   3.437   3.349  0.4933 -0.1074 -0.8241
 4636SOL     OW18309   0.903   4.250   1.517 -0.2954 -0.4875 -0.5206
 4636SOL    HW218310   0.993   4.256   1.549 -0.3684 -0.0708 -0.3817
 4636SOL    HW318311   0.910   4.265   1.423 -0.5764  3.4784 -0.0829
 4636SOL    MW418312   0.916   4.253   1.509 -0.3421  0.0907 -0.4445
 4637SOL     OW18313   4.396   2.678   6.080 -0.1394 -0.0195  0.1079
 4637SOL    HW218314   4.419   2.598   6.126  1.2295 -0.4550 -1.2433
 4637SOL    HW318315   4.404   2.747   6.146 -1.3996 -0.9618  1.3043
 4637SOL    MW418316   4.400   2.677   6.095 -0.1250 -0.2013  0.0874
 4638SOL     OW18317   0.639   0.471   6.261 -0.1537 -0.1635 -0.0706
 4638SOL    HW218318   0.718   0.467   6.314 -1.1227 -0.2295  1.4322
 4638SOL    HW318319   0.627   0.563   6.240  0.1128 -0.1081  0.0276
 4638SOL    MW418320   0.648   0.482   6.265 -0.2464 -0.1649  0.1406
 4639SOL     OW18321   6.265   5.321   3.208  0.3871  0.2683  0.0205
 4639SOL    HW218322   6.319   5.267   3.150 -0.4184 -1.2291  0.6079
 4639SOL    HW318323   6.221   5.259   3.265  0.0411  1.6174  1.2994
 4639SOL    MW418324   6.266   5.306   3.208  0.2352  0.2487  0.2667
 4640SOL     OW18325   5.010   3.890   5.853  0.3471  0.4428  0.6061
 4640SOL    HW218326   5.100   3.916   5.871  0.0265  2.5723 -0.5500
 4640SOL    HW318327   5.013   3.847   5.767  0.2315  0.7667  0.4379
 4640SOL    MW418328   5.022   3.888   5.844  0.2896  0.7665  0.4314
 4641SOL     OW18329   3.868   5.587   3.851  0.2795  0.2815  0.0783
 4641SOL    HW218330   3.794   5.603   3.910  0.8370  0.8329  0.6387
 4641SOL    HW318331   3.902   5.675   3.832  1.4664 -0.0272  0.7073
 4641SOL    MW418332   3.863   5.601   3.856  0.5097  0.3135  0.2352
 4642SOL     OW18333   4.036   2.457   2.870  0.2370  0.2508 -0.4617
 4642SOL    HW218334   3.996   2.516   2.807 -1.2647 -1.5202 -1.2461
 4642SOL    HW318335   4.003   2.486   2.955 -0.4495  0.5566 -0.8330
 4642SOL    MW418336   4.027   2.469   2.873 -0.0517  0.0575 -0.6142
 4643SOL     OW18337   4.719   0.532   2.145 -0.1594  0.0715 -0.0682
 4643SOL    HW218338   4.714   0.492   2.058 -0.4929 -0.4218  0.1746
 4643SOL    HW318339   4.773   0.472   2.196  1.0009  0.9266 -0.2317
 4643SOL    MW418340   4.726   0.519   2.140 -0.0503  0.1192 -0.0577
 4644SOL     OW18341   4.336   4.197   5.558  0.0769  0.0819 -0.0682
 4644SOL    HW218342   4.431   4.193   5.567 -0.0935 -0.9248  1.6670
 4644SOL    HW318343   4.316   4.135   5.488  0.6205 -0.4227  0.2164
 4644SOL    MW418344   4.346   4.188   5.550  0.1261 -0.1175  0.1983
 4645SOL     OW18345   1.765   1.669   4.565  0.0192  0.2123 -0.0522
 4645SOL    HW218346   1.694   1.724   4.530 -0.0970  1.2391  1.7004
 4645SOL    HW318347   1.845   1.719   4.545 -0.0016  0.5172  0.6175
 4645SOL    MW418348   1.766   1.683   4.558  0.0011  0.3880  0.2674
 4646SOL     OW18349   6.014   2.857   1.103  0.2382  0.6376 -0.1644
 4646SOL    HW218350   5.930   2.900   1.121  1.1426  2.0782  0.9042
 4646SOL    HW318351   6.043   2.825   1.189  0.1955 -1.0312 -0.7425
 4646SOL    MW418352   6.007   2.859   1.117  0.3519  0.6075 -0.0997
 4647SOL     OW18353   5.102   0.810   4.425  0.3344  0.5672 -0.2918
 4647SOL    HW218354   5.099   0.792   4.519 -1.9637  0.5946 -0.3134
 4647SOL    HW318355   5.093   0.905   4.417  0.2484  0.5400 -0.5467
 4647SOL    MW418356   5.100   0.820   4.436  0.0199  0.5672 -0.3282
 4648SOL     OW18357   6.064   2.552   0.152  0.6805  0.2437 -0.2282
 4648SOL    HW218358   6.110   2.524   0.231 -0.4152  1.3324  0.8476
 4648SOL    HW318359   5.972   2.557   0.178  0.3312  0.9183 -1.4875
 4648SOL    MW418360   6.058   2.549   0.166  0.4898  0.4764 -0.2524
 4649SOL     OW18361   5.643   0.720   1.930  0.4753 -0.4471  0.7139
 4649SOL    HW218362   5.711   0.757   1.875  0.5887  0.8751  1.6997
 4649SOL    HW318363   5.622   0.789   1.993 -1.8581 -0.7544  0.3807
 4649SOL    MW418364   5.649   0.734   1.931  0.1824 -0.3132  0.8000
 4650SOL     OW18365   2.501   0.419   3.619 -0.1050  0.1723  0.2341
 4650SOL    HW218366   2.497   0.420   3.714  1.7060 -1.3830  0.3745
 4650SOL    HW318367   2.528   0.508   3.595 -1.2240  0.7664  1.0849
 4650SOL    MW418368   2.504   0.431   3.628 -0.0137  0.0454  0.3649
 4651SOL     OW18369   4.001   5.317   0.590  0.2817 -0.4836  0.2799
 4651SOL    HW218370   3.913   5.313   0.627 -0.1571  0.3384 -0.6303
 4651SOL    HW318371   4.045   5.386   0.639 -0.4336  0.8960 -0.9463
 4651SOL    MW418372   3.995   5.325   0.601  0.1294 -0.1932 -0.0020
 4652SOL     OW18373   3.909   0.327   3.503  0.5978  0.3200  0.0351
 4652SOL    HW218374   3.895   0.415   3.469  0.5313  0.0341 -0.7022
 4652SOL    HW318375   3.974   0.289   3.444  1.2781  0.1748  0.8746
 4652SOL    MW418376   3.916   0.334   3.490  0.6788  0.2632  0.0486
 4653SOL     OW18377   5.775   6.139   1.770 -0.0652 -0.0641  0.4860
 4653SOL    HW218378   5.773   6.051   1.807  0.9396 -0.4965 -0.4192
 4653SOL    HW318379   5.722   6.133   1.690  2.0014 -0.5557 -0.9347
 4653SOL    MW418380   5.768   6.127   1.764  0.3400 -0.1860  0.1791
 4654SOL     OW18381   1.978   5.446   3.078 -0.0933 -0.1857 -0.2024
 4654SOL    HW218382   2.068   5.467   3.052  0.1933  1.7721  1.9656
 4654SOL    HW318383   1.944   5.528   3.114 -2.2229 -1.2854  0.4669
 4654SOL    MW418384   1.985   5.460   3.080 -0.3364 -0.0725  0.1720
 4655SOL     OW18385   5.712   5.262   1.572 -0.3950 -0.3495  0.0454
 4655SOL    HW218386   5.715   5.351   1.606 -2.0148 -0.8851  1.7707
 4655SOL    HW318387   5.798   5.226   1.594  0.7516  1.1006 -1.7868
 4655SOL    MW418388   5.724   5.269   1.579 -0.4575 -0.2288  0.0313
 4656SOL     OW18389   4.953   5.134   1.339 -0.1756  0.2821 -0.1537
 4656SOL    HW218390   4.939   5.093   1.425 -1.6284  1.1629  0.0612
 4656SOL    HW318391   4.902   5.215   1.343 -0.4072  0.2491 -1.9253
 4656SOL    MW418392   4.944   5.139   1.351 -0.3978  0.3939 -0.3591
 4657SOL     OW18393   2.497   0.681   3.521 -0.0791 -0.1890 -0.4947
 4657SOL    HW218394   2.533   0.764   3.489  0.5843 -0.3134 -0.0830
 4657SOL    HW318395   2.406   0.681   3.490  0.3507 -0.0210 -1.8450
 4657SOL    MW418396   2.490   0.692   3.513  0.0651 -0.1832 -0.6185
 4658SOL     OW18397   0.984   0.383   3.961 -0.2059  0.2181  0.6349
 4658SOL    HW218398   1.007   0.470   3.995  0.7758  0.2608 -0.1027
 4658SOL    HW318399   1.026   0.379   3.875  0.3268 -1.2345  0.9366
 4658SOL    MW418400   0.993   0.394   3.954 -0.0061  0.0320  0.5774
 4659SOL     OW18401   1.571   0.530   6.280  0.3719 -0.3998 -0.4868
 4659SOL    HW218402   1.501   0.588   6.308  1.8013  1.7709 -1.1628
 4659SOL    HW318403   1.646   0.555   6.335  0.9355 -1.9093 -0.5111
 4659SOL    MW418404   1.572   0.541   6.291  0.6349 -0.3125 -0.5792
 4660SOL     OW18405   5.864   2.172   1.757 -0.3798  0.3553  0.6539
 4660SOL    HW218406   5.811   2.154   1.835  0.6150  1.0872  1.5217
 4660SOL    HW318407   5.927   2.100   1.755 -0.1109  0.5876  0.7905
 4660SOL    MW418408   5.865   2.160   1.767 -0.2131  0.4825  0.7864
 4661SOL     OW18409   1.810   0.302   5.372 -0.9341  0.0943  0.0020
 4661SOL    HW218410   1.860   0.311   5.291  0.1254  0.8865  0.7202
 4661SOL    HW318411   1.857   0.355   5.436 -1.0096 -1.5413  1.4880
 4661SOL    MW418412   1.823   0.310   5.370 -0.8043 -0.0170  0.2928
 4662SOL     OW18413   1.252   1.611   2.823 -0.3983 -0.7481  0.0499
 4662SOL    HW218414   1.282   1.540   2.766  1.1020 -2.3561  2.6577
 4662SOL    HW318415   1.261   1.690   2.769  0.8895 -2.1508 -1.9474
 4662SOL    MW418416   1.257   1.612   2.809 -0.0305 -1.1453  0.1305
 4663SOL     OW18417   1.954   0.810   0.039  0.7084  0.3637 -0.1569
 4663SOL    HW218418   1.904   0.884   0.073 -1.1780 -0.2033 -1.5605
 4663SOL    HW318419   2.001   0.845  -0.036 -0.4756  0.0979 -1.0489
 4663SOL    MW418420   1.954   0.824   0.034  0.3033  0.2538 -0.4597
 4664SOL     OW18421   1.265   2.353   0.339  0.4678  0.3346 -1.1077
 4664SOL    HW218422   1.307   2.430   0.301  0.0722  0.6762 -0.8639
 4664SOL    HW318423   1.196   2.330   0.276  0.3871  0.3687 -1.0325
 4664SOL    MW418424   1.261   2.360   0.326  0.4050  0.3842 -1.0656
 4665SOL     OW18425   4.591   5.039   2.871 -0.5666 -0.0341  0.3227
 4665SOL    HW218426   4.542   4.963   2.841 -1.3524  0.8941 -0.7988
 4665SOL    HW318427   4.524   5.101   2.902 -0.0296  0.6945  0.0599
 4665SOL    MW418428   4.576   5.037   2.871 -0.5994  0.1845  0.1401
 4666SOL     OW18429   2.872   2.370   3.663  0.1015 -0.1603  0.0798
 4666SOL    HW218430   2.802   2.370   3.728 -0.5453 -0.1940 -0.5974
 4666SOL    HW318431   2.875   2.280   3.631  0.6915 -0.2382  0.3423
 4666SOL    MW418432   2.863   2.358   3.667  0.0940 -0.1750  0.0251
 4667SOL     OW18433   4.695   5.031   2.210  0.2748 -0.2042 -0.2200
 4667SOL    HW218434   4.774   5.061   2.255 -0.9432  0.2049  1.7540
 4667SOL    HW318435   4.699   5.073   2.124  1.0126  1.7271  0.7108
 4667SOL    MW418436   4.706   5.040   2.205  0.2115  0.1046  0.1633
 4668SOL     OW18437   3.979   4.248   0.512  0.5495 -0.4540 -0.1037
 4668SOL    HW218438   3.964   4.339   0.485  1.4117 -0.9911 -2.5812
 4668SOL    HW318439   4.019   4.257   0.599  2.2064  1.6647 -0.9764
 4668SOL    MW418440   3.983   4.261   0.520  0.8818 -0.2453 -0.5457
 4669SOL     OW18441   0.097   4.501   3.233 -0.3033 -0.4672 -0.4972
 4669SOL    HW218442   0.034   4.436   3.202 -0.4644 -0.9738  0.8303
 4669SOL    HW318443   0.050   4.549   3.301  0.2103  0.2624 -0.6430
 4669SOL    MW418444   0.083   4.499   3.238 -0.2568 -0.4378 -0.3413
 4670SOL     OW18445   4.097   4.417   0.109 -0.0551  0.1512  0.1502
 4670SOL    HW218446   4.129   4.483   0.171 -0.3690  0.1435  0.3239
 4670SOL    HW318447   4.167   4.408   0.044 -0.3114  1.1882 -0.2876
 4670SOL    MW418448   4.111   4.425   0.109 -0.1303  0.2870  0.1153
 4671SOL     OW18449   6.203   1.507   4.155 -0.1498 -0.6915 -0.5916
 4671SOL    HW218450   6.244   1.443   4.214  0.1127 -0.2926 -0.3343
 4671SOL    HW318451   6.256   1.586   4.165 -2.0557  0.4572  1.1809
 4671SOL    MW418452   6.215   1.509   4.164 -0.3667 -0.4873 -0.3238
 4672SOL     OW18453   2.886   1.010   6.226 -0.1479  0.0563 -0.0780
 4672SOL    HW218454   2.814   1.069   6.252  0.2572 -0.6883  3.1068
 4672SOL    HW318455   2.850   0.922   6.240  0.7123 -0.3582 -0.4613
 4672SOL    MW418456   2.872   1.006   6.231  0.0190 -0.0966  0.2917
 4673SOL     OW18457   0.651   0.558   1.005 -0.0487  0.6625 -0.0244
 4673SOL    HW218458   0.670   0.648   0.977  0.8807  0.5076  0.0987
 4673SOL    HW318459   0.663   0.505   0.926 -1.6181  0.7506 -0.3668
 4673SOL    MW418460   0.655   0.563   0.991 -0.1331  0.6537 -0.0533
 4674SOL     OW18461   4.698   3.403   2.834  0.3721 -0.0238 -0.0969
 4674SOL    HW218462   4.606   3.392   2.855  0.0522 -0.1499 -1.4392
 4674SOL    HW318463   4.698   3.467   2.763  1.3010 -0.2059 -0.2758
 4674SOL    MW418464   4.686   3.410   2.827  0.4525 -0.0645 -0.2976
 4675SOL     OW18465   2.456   1.240   4.700  0.6780 -0.1640 -0.0843
 4675SOL    HW218466   2.544   1.207   4.682  0.6219  0.3342 -1.3958
 4675SOL    HW318467   2.402   1.162   4.703  1.1665 -0.4846  0.8408
 4675SOL    MW418468   2.461   1.225   4.698  0.7351 -0.1406 -0.1353
 4676SOL     OW18469   0.755   0.776   4.534 -0.3505 -0.5283  0.1431
 4676SOL    HW218470   0.776   0.688   4.502 -0.7831 -0.2727 -0.8861
 4676SOL    HW318471   0.791   0.779   4.623  4.1577 -0.0595 -1.4869
 4676SOL    MW418472   0.762   0.765   4.542  0.1872 -0.4327 -0.2078
 4677SOL     OW18473   2.843   5.437   5.498  0.7826  0.4690  0.2369
 4677SOL    HW218474   2.913   5.376   5.521 -0.0463 -0.4589  0.3468
 4677SOL    HW318475   2.763   5.395   5.529 -0.0103  0.7628 -1.3122
 4677SOL    MW418476   2.841   5.423   5.506  0.5686  0.3853  0.0470
 4678SOL     OW18477   2.467   2.795   3.610 -0.3884  0.1743 -0.1005
 4678SOL    HW218478   2.559   2.791   3.585 -0.5780 -0.8872 -0.6765
 4678SOL    HW318479   2.464   2.862   3.679  1.2697 -1.5950  1.8222
 4678SOL    MW418480   2.479   2.804   3.616 -0.1946 -0.1992  0.0772
 4679SOL     OW18481   1.714   0.245   3.243  0.0008 -0.1990 -0.1361
 4679SOL    HW218482   1.796   0.286   3.272  0.4553 -0.9102 -0.3943
 4679SOL    HW318483   1.738   0.196   3.164 -0.5095 -1.0195  0.2060
 4679SOL    MW418484   1.728   0.244   3.237 -0.0066 -0.4011 -0.1250
 4680SOL     OW18485   5.066   2.057   3.756 -0.0067  0.1764 -0.0800
 4680SOL    HW218486   5.100   1.969   3.743 -1.9657 -0.6270 -0.1029
 4680SOL    HW318487   5.095   2.106   3.679  1.0930 -0.4160 -0.0662
 4680SOL    MW418488   5.074   2.052   3.744 -0.1200 -0.0078 -0.0812
 4681SOL     OW18489   1.992   5.893   0.492  0.0372 -0.7124  0.5529
 4681SOL    HW218490   1.943   5.954   0.547  0.7064  0.0379  0.3184
 4681SOL    HW318491   1.978   5.807   0.533 -2.6898 -0.7869 -0.3032
 4681SOL    MW418492   1.983   5.889   0.504 -0.2343 -0.6232  0.4090
 4682SOL     OW18493   5.926   0.240   2.711 -0.6306  0.2026 -0.2107
 4682SOL    HW218494   5.988   0.168   2.698  0.2570  1.0775 -0.9757
 4682SOL    HW318495   5.942   0.299   2.638 -2.0908  0.6675 -0.1873
 4682SOL    MW418496   5.937   0.238   2.700 -0.7062  0.3794 -0.3085
 4683SOL     OW18497   6.371   1.716   4.220 -0.0472 -0.1532 -0.4019
 4683SOL    HW218498   6.431   1.691   4.290 -1.4584 -0.4993  0.7343
 4683SOL    HW318499   6.308   1.775   4.262 -1.0351 -0.5129 -1.3143
 4683SOL    MW418500   6.370   1.721   4.234 -0.3638 -0.2463 -0.3723
 4684SOL     OW18501   4.713   3.459   0.457 -0.9028 -0.1309  0.2347
 4684SOL    HW218502   4.809   3.463   0.461 -0.8172  0.1169 -1.3919
 4684SOL    HW318503   4.689   3.529   0.397 -2.1746  0.2618  1.1676
 4684SOL    MW418504   4.723   3.469   0.450 -1.0593 -0.0464  0.1432
 4685SOL     OW18505   2.975   0.922   1.284  0.1895  0.1020 -0.0017
 4685SOL    HW218506   2.963   0.857   1.215 -0.8358  0.7669 -0.4890
 4685SOL    HW318507   3.031   0.879   1.349 -0.5574 -1.3007 -0.2461
 4685SOL    MW418508   2.981   0.908   1.283 -0.0443  0.0046 -0.0983
 4686SOL     OW18509   1.173   5.273   5.800  0.3228 -0.0207  0.2633
 4686SOL    HW218510   1.195   5.352   5.850 -0.2713 -1.4774  2.9881
 4686SOL    HW318511   1.077   5.274   5.797  0.3426  0.5660 -1.8778
 4686SOL    MW418512   1.163   5.284   5.806  0.2471 -0.1355  0.3403
 4687SOL     OW18513   0.128   0.981   2.901 -0.5031 -0.6227 -0.1213
 4687SOL    HW218514   0.085   1.051   2.950  2.3139  0.5992  0.8315
 4687SOL    HW318515   0.104   0.998   2.810  0.1436  1.7005  0.0656
 4687SOL    MW418516   0.119   0.993   2.895 -0.0461 -0.1550  0.0290
 4688SOL     OW18517   4.529   5.585   1.123  0.0863 -0.9121 -0.2193
 4688SOL    HW218518   4.465   5.531   1.077  0.9764 -2.0433 -0.1776
 4688SOL    HW318519   4.573   5.634   1.053  0.3348 -1.4152 -0.4178
 4688SOL    MW418520   4.526   5.585   1.108  0.2366 -1.1277 -0.2400
 4689SOL     OW18521   5.173   2.129   1.031  0.8276  0.3520 -0.2812
 4689SOL    HW218522   5.227   2.126   0.952  0.9908 -0.2081 -0.1492
 4689SOL    HW318523   5.093   2.175   1.003  0.4714 -0.6803 -1.0246
 4689SOL    MW418524   5.170   2.135   1.017  0.8022  0.1419 -0.3618
 4690SOL     OW18525   1.165   2.919   5.358 -0.0997 -0.4498 -0.5616
 4690SOL    HW218526   1.104   2.983   5.321  2.2613  0.3069 -3.5463
 4690SOL    HW318527   1.239   2.971   5.390  1.0608 -1.5398 -1.3567
 4690SOL    MW418528   1.167   2.934   5.357  0.3649 -0.4938 -1.0603
 4691SOL     OW18529   5.876   1.946   0.313 -0.1119  0.0992 -0.4459
 4691SOL    HW218530   5.875   1.872   0.374 -0.3221  0.4509 -0.0155
 4691SOL    HW318531   5.968   1.966   0.301 -0.0824  0.2051 -0.0287
 4691SOL    MW418532   5.888   1.939   0.319 -0.1357  0.1596 -0.3341
 4692SOL     OW18533   5.228   1.342   4.578  0.1277 -0.3353  0.5768
 4692SOL    HW218534   5.163   1.395   4.625 -0.2918  1.2267 -1.6233
 4692SOL    HW318535   5.305   1.345   4.634 -0.0233  2.3247  0.7923
 4692SOL    MW418536   5.230   1.350   4.592  0.0524  0.2218  0.3149
 4693SOL     OW18537   4.485   2.736   1.782  0.7098 -0.1808  0.2666
 4693SOL    HW218538   4.576   2.731   1.752  0.7665  2.0216 -0.1172
 4693SOL    HW318539   4.485   2.808   1.845 -0.6351 -0.6520  0.8234
 4693SOL    MW418540   4.497   2.745   1.786  0.5398  0.0476  0.2895
 4694SOL     OW18541   3.591   5.893   0.437 -0.3291 -0.2783  0.4630
 4694SOL    HW218542   3.662   5.830   0.440  0.5943  0.7696  2.1618
 4694SOL    HW318543   3.629   5.974   0.470 -1.3694  1.3258 -1.9853
 4694SOL    MW418544   3.605   5.895   0.442 -0.3445  0.0716  0.3641
 4695SOL     OW18545   5.951   2.940   4.823 -0.0244 -0.3889 -0.1730
 4695SOL    HW218546   5.966   2.929   4.917  0.1943 -3.2672 -0.4552
 4695SOL    HW318547   6.038   2.957   4.787 -0.1306  0.8839  0.1330
 4695SOL    MW418548   5.965   2.941   4.831 -0.0096 -0.6007 -0.1698
 4696SOL     OW18549   5.197   0.960   0.765 -0.1643  0.3564 -0.0597
 4696SOL    HW218550   5.152   0.929   0.687 -2.1638  0.5692  0.9544
 4696SOL    HW318551   5.130   0.960   0.833  1.8516 -1.3086  2.0857
 4696SOL    MW418552   5.182   0.956   0.763 -0.1622  0.1648  0.3571
 4697SOL     OW18553   4.837   3.677   1.183 -0.1230 -0.2835  0.8692
 4697SOL    HW218554   4.773   3.747   1.174  0.8014  0.3314 -3.6616
 4697SOL    HW318555   4.793   3.599   1.150  0.6711 -0.4124  0.0780
 4697SOL    MW418556   4.823   3.676   1.178  0.1038 -0.2193  0.1670
 4698SOL     OW18557   1.595   3.200   0.504  0.0979  0.2462 -0.1098
 4698SOL    HW218558   1.545   3.225   0.426  0.4112 -0.4128 -0.5300
 4698SOL    HW318559   1.570   3.110   0.521  0.1590  0.3356  0.4589
 4698SOL    MW418560   1.585   3.192   0.496  0.1473  0.1710 -0.0902
 4699SOL     OW18561   6.190   0.146   0.549 -0.7023 -0.6055  0.1460
 4699SOL    HW218562   6.116   0.092   0.524 -1.1822 -0.2132  0.6978
 4699SOL    HW318563   6.162   0.236   0.530 -0.7064 -0.3834  1.1599
 4699SOL    MW418564   6.177   0.151   0.543 -0.7662 -0.5244  0.3526
 4700SOL     OW18565   2.786   3.203   2.401 -0.4029  0.2108 -0.5796
 4700SOL    HW218566   2.742   3.237   2.479  1.1108  1.0986 -0.0736
 4700SOL    HW318567   2.766   3.109   2.401 -1.7534  0.4665 -0.0448
 4700SOL    MW418568   2.778   3.195   2.411 -0.3814  0.3616 -0.4423
 4701SOL     OW18569   4.831   4.742   1.572 -0.1190  0.1232 -0.3895
 4701SOL    HW218570   4.767   4.699   1.515  0.3072 -1.2518  0.1056
 4701SOL    HW318571   4.785   4.757   1.654  0.7199 -3.0118  0.8028
 4701SOL    MW418572   4.816   4.738   1.576  0.0479 -0.4718 -0.1669
 4702SOL     OW18573   6.082   1.626   3.830 -0.3867  0.3867 -0.2965
 4702SOL    HW218574   6.048   1.695   3.888  1.1856  1.0048 -0.0589
 4702SOL    HW318575   6.059   1.544   3.874 -0.1998  0.8228  0.6477
 4702SOL    MW418576   6.074   1.625   3.843 -0.1546  0.5258 -0.1406
 4703SOL     OW18577   4.752   2.028   4.538  0.2181  0.1575 -0.3551
 4703SOL    HW218578   4.800   2.016   4.456 -1.3890 -0.3786 -1.2544
 4703SOL    HW318579   4.717   1.941   4.559 -2.2195  0.9076 -0.9649
 4703SOL    MW418580   4.754   2.015   4.530 -0.3155  0.1857 -0.5542
 4704SOL     OW18581   2.019   4.457   3.790  0.3663  0.3416  0.2472
 4704SOL    HW218582   1.978   4.424   3.870 -0.8428  0.4184 -0.3157
 4704SOL    HW318583   1.972   4.412   3.719  1.7533 -0.1126 -0.4212
 4704SOL    MW418584   2.007   4.447   3.791  0.3898  0.2918  0.0848
 4705SOL     OW18585   3.421   4.555   2.906  0.1822  0.2679  0.0583
 4705SOL    HW218586   3.452   4.568   2.816  1.0160 -1.1907  0.1040
 4705SOL    HW318587   3.415   4.644   2.942 -0.8901  0.9327 -1.6525
 4705SOL    MW418588   3.425   4.569   2.898  0.1507  0.1632 -0.1614
 4706SOL     OW18589   0.471   5.648   5.001  0.1844  0.5368 -0.3169
 4706SOL    HW218590   0.454   5.559   5.033 -0.7946  0.8009 -0.0409
 4706SOL    HW318591   0.417   5.656   4.922 -0.7143  1.2802  0.3486
 4706SOL    MW418592   0.461   5.637   4.995 -0.0633  0.6697 -0.1927
 4707SOL     OW18593   5.689   1.775   3.619 -0.3201  0.0107 -0.2647
 4707SOL    HW218594   5.743   1.849   3.594 -0.4757  0.3074  0.2692
 4707SOL    HW318595   5.614   1.814   3.665 -1.5151 -0.3037 -1.8438
 4707SOL    MW418596   5.686   1.790   3.621 -0.4983  0.0084 -0.4026
 4708SOL     OW18597   3.484   4.449   6.305 -0.2284 -0.2579 -0.9886
 4708SOL    HW218598   3.536   4.512   6.255  0.0775 -0.4297 -0.8950
 4708SOL    HW318599   3.408   4.431   6.251 -1.2002  1.4840 -0.2748
 4708SOL    MW418600   3.481   4.455   6.291 -0.3162 -0.0507 -0.8821
 4709SOL     OW18601   3.506   5.591   2.394 -0.5653 -0.1878 -0.2931
 4709SOL    HW218602   3.444   5.641   2.341 -1.2248  0.0072  0.6366
 4709SOL    HW318603   3.557   5.657   2.441  0.0642 -0.3558 -0.7341
 4709SOL    MW418604   3.504   5.606   2.394 -0.5693 -0.1843 -0.2286
 4710SOL     OW18605   6.261   2.877   5.396 -0.0736 -0.1142  0.4710
 4710SOL    HW218606   6.183   2.931   5.383 -0.1041  0.0989  1.4370
 4710SOL    HW318607   6.229   2.800   5.443  0.3778  0.2408  1.3770
 4710SOL    MW418608   6.246   2.874   5.400 -0.0181 -0.0393  0.7180
 4711SOL     OW18609   2.648   0.921   2.902 -0.3781  0.5013  0.1549
 4711SOL    HW218610   2.737   0.950   2.882  0.1290 -0.8451  0.3848
 4711SOL    HW318611   2.603   0.919   2.817 -0.4293  1.8553  0.1193
 4711SOL    MW418612   2.654   0.925   2.888 -0.3179  0.5023  0.1806
 4712SOL     OW18613   2.370   1.172   1.848  0.2932  0.1967 -0.5119
 4712SOL    HW218614   2.316   1.226   1.790  0.9053  1.5942  0.1752
 4712SOL    HW318615   2.404   1.103   1.791 -1.6299 -0.3227 -1.1071
 4712SOL    MW418616   2.368   1.170   1.833  0.1203  0.3125 -0.4998
 4713SOL     OW18617   2.256   4.900   3.390  0.3002 -0.3816 -0.1943
 4713SOL    HW218618   2.313   4.861   3.324 -1.9875 -1.7085 -1.4805
 4713SOL    HW318619   2.228   4.983   3.352 -1.0744 -1.1786 -0.9814
 4713SOL    MW418620   2.260   4.906   3.377 -0.1830 -0.6618 -0.4678
 4714SOL     OW18621   6.357   0.283   1.067  0.1665 -0.4488 -0.3777
 4714SOL    HW218622   6.327   0.361   1.113 -1.1612 -2.1530  1.8814
 4714SOL    HW318623   6.444   0.306   1.035  0.1011  1.7170  0.8037
 4714SOL    MW418624   6.364   0.296   1.069 -0.0173 -0.3879  0.0762
 4715SOL     OW18625   0.807   4.834   0.293 -0.8042  0.3465  0.8905
 4715SOL    HW218626   0.777   4.885   0.217  0.6516  1.4497  1.0145
 4715SOL    HW318627   0.855   4.761   0.255 -2.0533 -0.4173  0.7299
 4715SOL    MW418628   0.809   4.831   0.278 -0.7769  0.3913  0.8857
 4716SOL     OW18629   1.559   4.633   2.428 -0.2235 -0.1875  0.5040
 4716SOL    HW218630   1.559   4.556   2.372 -2.1490  2.1657 -3.2167
 4716SOL    HW318631   1.472   4.634   2.468  0.1246 -0.3956  1.2773
 4716SOL    MW418632   1.548   4.623   2.426 -0.4316  0.0955  0.1152
 4717SOL     OW18633   4.435   2.514   3.359  0.0557  0.3638 -0.5527
 4717SOL    HW218634   4.509   2.494   3.417 -0.0220  0.2257 -0.5016
 4717SOL    HW318635   4.470   2.578   3.297  0.6793 -0.9011 -1.5473
 4717SOL    MW418636   4.450   2.520   3.359  0.1277  0.1787 -0.6772
 4718SOL     OW18637   0.510   5.870   3.591  0.1068  0.0058  0.4037
 4718SOL    HW218638   0.542   5.899   3.506  2.3236  0.2336  1.2392
 4718SOL    HW318639   0.535   5.778   3.597 -0.9842 -0.3087  0.4209
 4718SOL    MW418640   0.518   5.862   3.581  0.2553 -0.0056  0.5162
 4719SOL     OW18641   4.905   2.548   5.638 -0.2699 -0.8232 -0.3235
 4719SOL    HW218642   4.945   2.471   5.678  0.4313 -0.8590 -1.0638
 4719SOL    HW318643   4.953   2.560   5.556  0.3569  1.0300  0.2607
 4719SOL    MW418644   4.917   2.540   5.633 -0.0947 -0.5834 -0.3441
 4720SOL     OW18645   5.908   1.476   6.344  0.4493  0.3329  0.0196
 4720SOL    HW218646   5.817   1.495   6.320  0.9247  1.4931 -0.9798
 4720SOL    HW318647   5.954   1.470   6.260  1.2529 -0.5483  0.5005
 4720SOL    MW418648   5.902   1.478   6.329  0.6180  0.3697 -0.0488
 4721SOL     OW18649   3.871   2.213   2.877 -0.4357 -0.3063 -0.0927
 4721SOL    HW218650   3.808   2.217   2.949  0.2223 -1.4741  0.5740
 4721SOL    HW318651   3.906   2.302   2.871  0.8568 -0.5665  2.3235
 4721SOL    MW418652   3.867   2.225   2.886 -0.1783 -0.4947  0.3140
 4722SOL     OW18653   5.136   3.344   4.102  0.4770  0.1031 -0.0277
 4722SOL    HW218654   5.046   3.336   4.070  0.1100  0.6803  0.8118
 4722SOL    HW318655   5.144   3.274   4.167  0.7022 -0.0841 -0.2594
 4722SOL    MW418656   5.125   3.334   4.106  0.4583  0.1545  0.0524
 4723SOL     OW18657   0.827   4.050   3.672  0.4045  0.0624 -0.4076
 4723SOL    HW218658   0.809   3.995   3.595 -0.1855  0.8909 -0.8703
 4723SOL    HW318659   0.861   4.132   3.635 -0.2584  0.6110  0.1971
 4723SOL    MW418660   0.829   4.053   3.657  0.2392  0.2441 -0.3889
 4724SOL     OW18661   2.976   5.279   1.800  0.0998  0.1619 -0.2865
 4724SOL    HW218662   2.974   5.185   1.783  1.3681  0.2655 -1.1427
 4724SOL    HW318663   2.898   5.313   1.756 -1.8062 -0.7532  2.1574
 4724SOL    MW418664   2.965   5.271   1.792  0.0157  0.0549 -0.0770
 4725SOL     OW18665   2.117   5.187   5.757  0.4390  0.8845 -0.1327
 4725SOL    HW218666   2.041   5.191   5.815  0.0134 -0.4374 -0.5750
 4725SOL    HW318667   2.081   5.192   5.668  0.8700  0.2729 -0.3474
 4725SOL    MW418668   2.102   5.188   5.753  0.4397  0.6294 -0.2194
 4726SOL     OW18669   0.297   6.403   3.476 -0.2484 -0.4778 -0.3498
 4726SOL    HW218670   0.361   6.468   3.504  1.8150 -1.5622 -2.1992
 4726SOL    HW318671   0.233   6.453   3.426  0.5599  0.3355 -0.6150
 4726SOL    MW418672   0.297   6.418   3.473  0.1305 -0.5136 -0.6288
 4727SOL     OW18673   1.138   4.911   3.532  0.6638  0.1260  0.8963
 4727SOL    HW218674   1.140   5.002   3.502  0.0015 -0.9454 -2.7858
 4727SOL    HW318675   1.096   4.916   3.618 -4.3764  2.9188 -1.2886
 4727SOL    MW418676   1.133   4.924   3.540 -0.0886  0.3531  0.1222
 4728SOL     OW18677   1.190   5.631   5.065  0.1963  0.4804  0.0048
 4728SOL    HW218678   1.118   5.693   5.052 -0.4006 -0.4125 -1.2008
 4728SOL    HW318679   1.209   5.636   5.159 -2.5539 -0.4283  0.7051
 4728SOL    MW418680   1.183   5.640   5.076 -0.2453  0.2427 -0.0619
 4729SOL     OW18681   1.569   0.123   5.236 -1.0051 -0.1865  0.0197
 4729SOL    HW218682   1.614   0.185   5.178 -0.1926 -1.7264 -1.0869
 4729SOL    HW318683   1.491   0.096   5.187 -1.9003  0.6761  0.9211
 4729SOL    MW418684   1.564   0.127   5.222 -1.0160 -0.2758 -0.0074
 4730SOL     OW18685   3.812   1.740   0.287  0.1023  0.6358  1.2803
 4730SOL    HW218686   3.805   1.815   0.227  0.7492  0.0870  0.5051
 4730SOL    HW318687   3.900   1.706   0.274  0.5247  0.9361  3.0931
 4730SOL    MW418688   3.822   1.746   0.277  0.2434  0.6030  1.4172
 4731SOL     OW18689   2.989   2.811   2.809  0.1080  0.5951  0.5288
 4731SOL    HW218690   2.920   2.864   2.771  1.4098  2.5884  0.7806
 4731SOL    HW318691   2.977   2.724   2.770 -2.0317  1.0613  0.0088
 4731SOL    MW418692   2.979   2.806   2.799 -0.0025  0.9196  0.4934
 4732SOL     OW18693   6.004   2.937   4.443  0.1531  0.7127 -0.3396
 4732SOL    HW218694   6.058   2.970   4.515 -0.5900  0.4850  0.3341
 4732SOL    HW318695   5.939   3.006   4.429 -1.0837 -0.1943  0.7277
 4732SOL    MW418696   6.003   2.951   4.451 -0.1081  0.5630 -0.1099
 4733SOL     OW18697   4.220   3.631   1.840 -0.3827 -0.4343  0.8597
 4733SOL    HW218698   4.166   3.624   1.762  1.5571  2.7897 -1.0155
 4733SOL    HW318699   4.164   3.675   1.904 -0.8294  0.5053 -0.1444
 4733SOL    MW418700   4.206   3.636   1.838 -0.1857  0.1150  0.4798
 4734SOL     OW18701   5.035   6.037   0.935  0.2143 -0.8499 -0.1296
 4734SOL    HW218702   5.124   6.053   0.966 -0.1542 -2.0544  1.6739
 4734SOL    HW318703   4.979   6.077   1.001 -0.6335  0.4617 -1.5678
 4734SOL    MW418704   5.039   6.045   0.948  0.0538 -0.8358 -0.0814
 4735SOL     OW18705   2.698   4.787   2.343 -0.4866 -0.2610  0.2458
 4735SOL    HW218706   2.643   4.720   2.385 -0.0304 -0.8847 -0.1485
 4735SOL    HW318707   2.788   4.759   2.360 -0.2929 -0.4238 -0.9825
 4735SOL    MW418708   2.702   4.774   2.351 -0.4009 -0.3647  0.0318
 4736SOL     OW18709   6.249   2.572   3.464  0.4181  0.2002 -0.0733
 4736SOL    HW218710   6.177   2.521   3.502 -0.1375  0.7758 -0.3359
 4736SOL    HW318711   6.328   2.521   3.484  0.3042  0.9618  2.8330
 4736SOL    MW418712   6.250   2.559   3.472  0.3297  0.3766  0.2755
 4737SOL     OW18713   2.447   3.688   3.756  0.2589 -0.1604 -0.1694
 4737SOL    HW218714   2.427   3.720   3.667  1.3161 -1.3876 -0.8814
 4737SOL    HW318715   2.489   3.603   3.742  0.2569 -0.4764  1.5354
 4737SOL    MW418716   2.450   3.681   3.742  0.3982 -0.3640 -0.0384
 4738SOL     OW18717   0.039   3.684   2.961 -1.0601 -0.5112  0.3885
 4738SOL    HW218718   0.090   3.631   2.900 -0.4755  0.7897 -0.2982
 4738SOL    HW318719   0.002   3.621   3.023  0.7444 -1.5825  0.4541
 4738SOL    MW418720   0.041   3.669   2.961 -0.7449 -0.4809  0.3066
 4739SOL     OW18721   4.008   3.060   2.477  0.0690  0.4709  0.5123
 4739SOL    HW218722   4.094   3.075   2.436 -0.2558 -0.2658 -0.4730
 4739SOL    HW318723   3.951   3.126   2.439 -0.2048 -0.1371 -0.1514
 4739SOL    MW418724   4.012   3.071   2.467 -0.0100  0.2935  0.2947
 4740SOL     OW18725   0.581   2.583   0.070  0.5072 -0.7851  0.2228
 4740SOL    HW218726   0.646   2.544   0.012  1.8183 -0.8992  1.7097
 4740SOL    HW318727   0.571   2.520   0.141 -1.1392 -0.6877  0.1260
 4740SOL    MW418728   0.588   2.570   0.071  0.4630 -0.7873  0.4062
 4741SOL     OW18729   6.287   4.459   0.975 -0.0442  0.0724  0.4600
 4741SOL    HW218730   6.320   4.545   0.947  0.3912  0.0683  0.9557
 4741SOL    HW318731   6.304   4.402   0.900 -1.1154  0.5982 -0.2055
 4741SOL    MW418732   6.294   4.463   0.961 -0.1281  0.1412  0.4376
 4742SOL     OW18733   2.197   2.341   2.558 -0.1201 -0.3462  0.1671
 4742SOL    HW218734   2.136   2.332   2.484 -0.5284 -0.0446  0.4663
 4742SOL    HW318735   2.141   2.342   2.635  0.3638 -1.6661  0.5654
 4742SOL    MW418736   2.181   2.340   2.558 -0.1101 -0.4805  0.2591
 4743SOL     OW18737   5.619   5.374   5.176 -0.3407 -0.0773  0.9576
 4743SOL    HW218738   5.625   5.452   5.122  1.3190 -0.5855  0.3646
 4743SOL    HW318739   5.525   5.365   5.194 -0.8836  0.4722 -1.2863
 4743SOL    MW418740   5.607   5.383   5.171 -0.1934 -0.0719  0.5833
 4744SOL     OW18741   1.406   5.694   2.684  0.8409  0.0612  0.4871
 4744SOL    HW218742   1.475   5.722   2.624 -1.1916 -1.2226 -2.6975
 4744SOL    HW318743   1.330   5.747   2.659 -0.6524 -2.0158  0.3703
 4744SOL    MW418744   1.405   5.705   2.673  0.3757 -0.3822  0.0515
 4745SOL     OW18745   4.921   1.312   5.697  0.1734  0.0740  0.4892
 4745SOL    HW218746   4.838   1.309   5.649  0.5221  0.2384 -0.1335
 4745SOL    HW318747   4.954   1.222   5.694 -0.4017 -0.1907  1.5089
 4745SOL    MW418748   4.914   1.299   5.690  0.1435  0.0608  0.5416
 4746SOL     OW18749   5.294   3.644   3.187 -0.1002  0.0709  0.2172
 4746SOL    HW218750   5.253   3.585   3.251 -0.9373 -0.1976 -0.5425
 4746SOL    HW318751   5.245   3.726   3.195  1.9626  1.2149  2.2712
 4746SOL    MW418752   5.282   3.647   3.196  0.0615  0.1864  0.3880
 4747SOL     OW18753   5.528   5.624   3.813 -0.1701  0.2350  0.2222
 4747SOL    HW218754   5.557   5.538   3.843 -0.3910  0.4738  1.1462
 4747SOL    HW318755   5.433   5.623   3.824 -0.2816  0.2577 -0.6730
 4747SOL    MW418756   5.519   5.613   3.819 -0.2140  0.2695  0.2260
 4748SOL     OW18757   3.355   3.076   3.843  0.5996  0.5076 -0.1059
 4748SOL    HW218758   3.308   3.023   3.779  1.1596 -2.7086  1.9248
 4748SOL    HW318759   3.432   3.108   3.796  0.2836 -0.5648 -1.4132
 4748SOL    MW418760   3.359   3.074   3.829  0.6318 -0.0582 -0.0105
 4749SOL     OW18761   4.718   4.615   0.832 -0.3008 -0.0931 -0.3216
 4749SOL    HW218762   4.712   4.530   0.877 -0.5554  0.7687  1.3338
 4749SOL    HW318763   4.674   4.600   0.747 -0.6027 -1.5294  0.0554
 4749SOL    MW418764   4.711   4.602   0.826 -0.3742 -0.1689 -0.0534
 4750SOL     OW18765   4.196   1.844   4.110  0.1262  0.2052  0.8329
 4750SOL    HW218766   4.273   1.878   4.064  0.5594  1.5153  2.4202
 4750SOL    HW318767   4.231   1.802   4.188 -0.7512  1.8396  2.1906
 4750SOL    MW418768   4.210   1.843   4.114  0.0676  0.5937  1.2215
 4751SOL     OW18769   0.927   5.458   3.083  0.2305  1.1169  0.3581
 4751SOL    HW218770   0.953   5.519   3.152 -0.4783  0.4689  1.2192
 4751SOL    HW318771   0.840   5.428   3.109  0.2138  0.3765 -0.4975
 4751SOL    MW418772   0.919   5.462   3.095  0.1348  0.9337  0.3588
 4752SOL     OW18773   0.931   4.971   5.668  0.6353  0.0528  0.2625
 4752SOL    HW218774   0.899   4.894   5.714 -0.5631  0.6375  0.4572
 4752SOL    HW318775   0.962   4.938   5.583  1.2710 -0.7894  0.8080
 4752SOL    MW418776   0.931   4.956   5.663  0.5611  0.0188  0.3601
 4753SOL     OW18777   4.156   1.611   3.698 -0.0171 -0.0619 -0.0451
 4753SOL    HW218778   4.174   1.656   3.616 -0.1055  1.3755  0.6968
 4753SOL    HW318779   4.220   1.540   3.701  0.3125  0.1736 -1.1112
 4753SOL    MW418780   4.167   1.607   3.688  0.0147  0.1588 -0.0879
 4754SOL     OW18781   4.052   0.852   3.269 -0.1571  0.1006 -0.1638
 4754SOL    HW218782   4.041   0.783   3.204  0.4097  0.3792 -0.5649
 4754SOL    HW318783   4.069   0.931   3.218  0.4948  0.2842  0.3187
 4754SOL    MW418784   4.053   0.853   3.254  0.0037  0.1616 -0.1530
 4755SOL     OW18785   0.399   3.976   2.921  0.4214 -0.0560 -0.6004
 4755SOL    HW218786   0.429   4.025   2.997 -1.8638 -0.1753  0.4680
 4755SOL    HW318787   0.397   3.885   2.950 -0.6737 -0.0785 -0.6721
 4755SOL    MW418788   0.402   3.970   2.935 -0.0246 -0.0747 -0.4689
 4756SOL     OW18789   3.363   2.057   5.437 -0.4479  0.2548 -0.4872
 4756SOL    HW218790   3.288   2.057   5.378 -0.4293 -0.2117 -0.5103
 4756SOL    HW318791   3.392   1.966   5.440 -0.1472  0.3585 -0.1431
 4756SOL    MW418792   3.357   2.045   5.430 -0.4058  0.2069 -0.4449
 4757SOL     OW18793   6.209   4.317   3.788 -0.4333 -0.4694 -0.4960
 4757SOL    HW218794   6.269   4.385   3.819 -1.8471  1.0304 -0.9595
 4757SOL    HW318795   6.209   4.326   3.693  1.2916 -2.8455 -0.8249
 4757SOL    MW418796   6.217   4.327   3.780 -0.3923 -0.5850 -0.6005
 4758SOL     OW18797   3.827   2.071   2.174 -0.1047 -0.4909 -0.0572
 4758SOL    HW218798   3.876   2.137   2.222  0.2208  0.6697 -1.8678
 4758SOL    HW318799   3.875   1.990   2.189  0.9432  0.1634  0.2195
 4758SOL    MW418800   3.840   2.069   2.182  0.0765 -0.2514 -0.2596
 4759SOL     OW18801   4.279   2.625   2.280 -0.2172  0.2014 -0.6458
 4759SOL    HW218802   4.219   2.613   2.207 -0.1857  1.7612 -0.9696
 4759SOL    HW318803   4.231   2.593   2.356 -0.9375  0.1861 -1.0969
 4759SOL    MW418804   4.265   2.619   2.280 -0.3081  0.4052 -0.7480
 4760SOL     OW18805   1.122   0.889   4.521  0.0914 -0.3127 -0.1955
 4760SOL    HW218806   1.097   0.821   4.584 -1.7498  0.4611 -0.0392
 4760SOL    HW318807   1.095   0.971   4.562 -0.1715  0.2863 -1.5303
 4760SOL    MW418808   1.115   0.891   4.535 -0.1862 -0.1316 -0.3510
 4761SOL     OW18809   2.908   2.350   0.116  0.3545 -0.1670 -0.1797
 4761SOL    HW218810   2.909   2.255   0.121 -0.4811 -0.1996 -0.6004
 4761SOL    HW318811   2.831   2.376   0.167 -0.4865  0.1747 -1.5630
 4761SOL    MW418812   2.898   2.341   0.124  0.1333 -0.1262 -0.4177
 4762SOL     OW18813   2.115   2.486   1.804  0.1195 -0.2514  0.1076
 4762SOL    HW218814   2.170   2.426   1.854 -0.0343 -0.1357  0.4167
 4762SOL    HW318815   2.174   2.526   1.741  0.0953 -1.2246 -0.5588
 4762SOL    MW418816   2.130   2.483   1.802  0.0960 -0.3645  0.0604
 4763SOL     OW18817   0.013   4.347   2.346  0.3146  0.0787  0.5638
 4763SOL    HW218818  -0.051   4.314   2.283 -1.2083  2.4778  0.7372
 4763SOL    HW318819   0.081   4.388   2.293  0.5127 -0.4159  0.4319
 4763SOL    MW418820   0.013   4.348   2.331  0.1398  0.3300  0.5693
 4764SOL     OW18821   0.161   2.921   1.082  0.1963 -0.0415 -0.2094
 4764SOL    HW218822   0.108   2.976   1.025  0.6478  0.5550 -0.0571
 4764SOL    HW318823   0.102   2.898   1.154 -0.3065 -0.6098 -0.7765
 4764SOL    MW418824   0.146   2.925   1.084  0.1895 -0.0378 -0.2641
 4765SOL     OW18825   5.193   0.273   2.910  0.4526 -0.3136 -0.1728
 4765SOL    HW218826   5.210   0.193   2.862  1.7666  1.1395 -2.3061
 4765SOL    HW318827   5.107   0.261   2.949  0.1060 -2.2517 -1.4417
 4765SOL    MW418828   5.184   0.261   2.909  0.5802 -0.3776 -0.6217
 4766SOL     OW18829   5.682   2.688   3.115  0.0871 -0.6030 -0.4739
 4766SOL    HW218830   5.769   2.718   3.087  0.0331 -2.3934 -2.8326
 4766SOL    HW318831   5.700   2.616   3.175  0.2261 -0.6735 -0.5994
 4766SOL    MW418832   5.696   2.683   3.119  0.0983 -0.8485 -0.8017
 4767SOL     OW18833   1.934   1.925   4.167 -0.6254 -0.4083 -0.0389
 4767SOL    HW218834   1.939   1.842   4.119 -0.3262  0.4377 -1.5486
 4767SOL    HW318835   2.025   1.943   4.193 -0.9408 -1.4408  1.9535
 4767SOL    MW418836   1.947   1.916   4.164 -0.6276 -0.4329  0.0248
 4768SOL     OW18837   1.251   6.189   0.261 -0.2583  0.7031 -0.0797
 4768SOL    HW218838   1.209   6.273   0.280  1.9273  1.4741  1.7134
 4768SOL    HW318839   1.344   6.203   0.279  0.1989 -2.0980  0.2259
 4768SOL    MW418840   1.258   6.202   0.266  0.0904  0.4352  0.1972
 4769SOL     OW18841   2.496   4.521   3.000 -0.2816  0.5580 -0.2017
 4769SOL    HW218842   2.585   4.504   3.030 -0.3950 -2.1796 -1.1682
 4769SOL    HW318843   2.498   4.612   2.970  2.2346  0.5070 -0.3814
 4769SOL    MW418844   2.508   4.531   3.000  0.0354  0.1901 -0.3529
 4770SOL     OW18845   2.595   3.100   3.354 -0.3881  0.5964 -0.4859
 4770SOL    HW218846   2.626   3.150   3.428 -0.9350 -0.5674  0.5726
 4770SOL    HW318847   2.524   3.046   3.389  1.3216 -2.2786 -1.0683
 4770SOL    MW418848   2.590   3.099   3.368 -0.2347  0.0635 -0.4231
 4771SOL     OW18849   2.552   5.877   0.922  0.1187  0.0425 -0.2767
 4771SOL    HW218850   2.525   5.802   0.974  0.2615 -0.3066 -0.7025
 4771SOL    HW318851   2.607   5.929   0.981  1.4395 -1.0664 -0.4982
 4771SOL    MW418852   2.555   5.874   0.937  0.3118 -0.1498 -0.3621
 4772SOL     OW18853   3.005   0.156   2.246 -0.3313  0.3010  0.2396
 4772SOL    HW218854   3.036   0.098   2.176  0.1161 -1.7553  2.0279
 4772SOL    HW318855   2.948   0.218   2.201 -1.1148 -1.7065 -1.7892
 4772SOL    MW418856   3.001   0.156   2.231 -0.3756 -0.2351  0.2079
 4773SOL     OW18857   6.261   4.906   1.062 -0.1504 -0.1449  0.5140
 4773SOL    HW218858   6.279   4.841   0.995 -0.0864  0.7350 -0.3537
 4773SOL    HW318859   6.200   4.967   1.020  0.8445  1.1091  0.8053
 4773SOL    MW418860   6.255   4.906   1.047 -0.0107  0.1367  0.4380
 4774SOL     OW18861   5.792   3.845   0.801  0.4523  0.6038 -0.1189
 4774SOL    HW218862   5.872   3.795   0.788  0.4705  0.1084  1.6301
 4774SOL    HW318863   5.818   3.936   0.790  1.3049  0.4613  0.6489
 4774SOL    MW418864   5.806   3.850   0.798  0.5672  0.5196  0.2132
 4775SOL     OW18865   0.479   3.645   5.040 -1.0948 -0.5274  0.3618
 4775SOL    HW218866   0.554   3.592   5.065 -2.2734 -2.7031 -0.4669
 4775SOL    HW318867   0.420   3.584   4.996 -2.8977  1.3224  0.0675
 4775SOL    MW418868   0.481   3.630   5.038 -1.4881 -0.5704  0.2136
 4776SOL     OW18869   1.546   2.372   1.159 -0.2833 -0.0523 -0.0340
 4776SOL    HW218870   1.483   2.355   1.089 -0.7047  0.6463  0.1519
 4776SOL    HW318871   1.526   2.307   1.226 -0.6029 -0.0373 -0.1124
 4776SOL    MW418872   1.535   2.361   1.159 -0.3811  0.0418 -0.0198
 4777SOL     OW18873   3.853   3.563   3.503  0.6557  0.4520 -0.1639
 4777SOL    HW218874   3.839   3.472   3.476  3.3680  0.1395 -0.8977
 4777SOL    HW318875   3.939   3.585   3.466  0.6499  2.9027  1.0915
 4777SOL    MW418876   3.863   3.554   3.494  1.0128  0.7341 -0.0950
 4778SOL     OW18877   5.522   5.380   4.446  0.1626  0.7922 -0.7350
 4778SOL    HW218878   5.467   5.448   4.485 -0.5378  0.0713 -0.4498
 4778SOL    HW318879   5.563   5.337   4.520 -2.8199 -2.0074 -0.4949
 4778SOL    MW418880   5.520   5.383   4.461 -0.3233  0.3277 -0.6657
 4779SOL     OW18881   4.108   3.256   0.846 -0.0932 -0.1599  0.6951
 4779SOL    HW218882   4.019   3.259   0.882 -0.2312 -0.2866  0.3707
 4779SOL    HW318883   4.160   3.214   0.915 -0.0363  1.0123  1.3823
 4779SOL    MW418884   4.103   3.251   0.860 -0.1039 -0.0220  0.7430
 4780SOL     OW18885   5.249   3.821   0.868 -0.5317 -0.1159 -0.3355
 4780SOL    HW218886   5.282   3.810   0.779  0.3696  0.9871 -0.1579
 4780SOL    HW318887   5.158   3.848   0.857 -0.4742 -0.1473 -0.9199
 4780SOL    MW418888   5.242   3.823   0.855 -0.4052  0.0255 -0.3892
 4781SOL     OW18889   4.665   0.456   3.371  0.0545  0.0156 -0.0102
 4781SOL    HW218890   4.671   0.379   3.428 -1.4257  0.5868  0.9690
 4781SOL    HW318891   4.733   0.442   3.304  0.2306 -1.8204  0.5092
 4781SOL    MW418892   4.675   0.444   3.370 -0.1176 -0.1513  0.1875
 4782SOL     OW18893   0.066   5.781   0.677  0.1922  0.4293 -0.2839
 4782SOL    HW218894   0.016   5.771   0.595  0.6913 -1.6168 -0.3806
 4782SOL    HW318895   0.002   5.817   0.739 -0.9792 -0.6067 -0.8460
 4782SOL    MW418896   0.051   5.784   0.674  0.1035  0.0227 -0.3708
 4783SOL     OW18897   4.914   2.534   4.097 -0.0186  0.0796  0.9578
 4783SOL    HW218898   4.870   2.610   4.134  1.3062  0.9586  0.8042
 4783SOL    HW318899   4.846   2.488   4.048 -0.7416  1.4154  0.6605
 4783SOL    MW418900   4.900   2.538   4.096  0.0608  0.3718  0.8983
 4784SOL     OW18901   3.242   0.808   2.794 -0.5931  0.2703  0.0596
 4784SOL    HW218902   3.277   0.719   2.781 -1.1330 -0.3004  2.2074
 4784SOL    HW318903   3.250   0.849   2.707  1.8280 -1.0772 -0.4636
 4784SOL    MW418904   3.248   0.801   2.781 -0.3449  0.0172  0.2739
 4785SOL     OW18905   0.991   3.309   0.485 -0.1282 -0.2532  0.1613
 4785SOL    HW218906   0.914   3.360   0.512  0.1904 -0.1309  0.8312
 4785SOL    HW318907   0.970   3.220   0.511 -0.8184 -0.5495 -1.2823
 4785SOL    MW418908   0.978   3.304   0.492 -0.1772 -0.2761  0.0592
 4786SOL     OW18909   3.384   0.555   2.716  0.0851 -0.0907  0.0439
 4786SOL    HW218910   3.375   0.507   2.798  1.2641 -0.8941 -0.2816
 4786SOL    HW318911   3.303   0.536   2.668 -0.0516 -0.6466  0.4856
 4786SOL    MW418912   3.372   0.546   2.720  0.2226 -0.2701  0.0592
 4787SOL     OW18913   5.577   1.293   3.969  0.5182 -0.2534 -0.6192
 4787SOL    HW218914   5.528   1.352   3.912 -2.0616 -1.2087  0.4722
 4787SOL    HW318915   5.655   1.343   3.993 -1.1501  2.4325 -0.3621
 4787SOL    MW418916   5.581   1.307   3.965 -0.0423 -0.0251 -0.4413
 4788SOL     OW18917   5.372   4.233   0.349  0.5214 -0.1841  0.1477
 4788SOL    HW218918   5.359   4.327   0.334 -0.9034 -0.6217 -1.6748
 4788SOL    HW318919   5.334   4.217   0.435 -0.2012  0.7392  0.0193
 4788SOL    MW418920   5.365   4.243   0.358  0.2380 -0.1200 -0.1097
 4789SOL     OW18921   1.602   5.915   2.919  0.5015  0.6535  0.0979
 4789SOL    HW218922   1.646   5.889   2.839  0.6224  1.5573 -0.1381
 4789SOL    HW318923   1.669   5.959   2.971  0.2410  0.7310  0.3749
 4789SOL    MW418924   1.616   5.917   2.915  0.4831  0.7829  0.1033
 4790SOL     OW18925   1.037   2.017   0.967 -0.1839  0.1089  0.5040
 4790SOL    HW218926   1.072   1.965   0.895 -1.4949 -0.6776  0.4051
 4790SOL    HW318927   1.008   2.099   0.926  1.7625  0.9173  0.6412
 4790SOL    MW418928   1.038   2.021   0.952 -0.1001  0.1117  0.5091
 4791SOL     OW18929   2.237   5.469   2.963 -0.2378 -0.3950 -0.0850
 4791SOL    HW218930   2.228   5.455   2.868  2.0601 -0.8092 -0.3038
 4791SOL    HW318931   2.279   5.389   2.995 -0.6295 -0.0957  1.2389
 4791SOL    MW418932   2.241   5.457   2.955  0.0137 -0.4102  0.0608
 4792SOL     OW18933   1.865   2.831   3.234 -0.2233  0.0546 -0.6887
 4792SOL    HW218934   1.868   2.922   3.263 -0.6390 -0.5603  1.4961
 4792SOL    HW318935   1.929   2.786   3.290 -1.8194 -1.3913  0.0896
 4792SOL    MW418936   1.873   2.837   3.246 -0.4887 -0.2173 -0.2977
 4793SOL     OW18937   6.107   2.548   4.520 -0.3242 -0.3306  0.3111
 4793SOL    HW218938   6.016   2.580   4.520  0.1430  1.0613  0.3346
 4793SOL    HW318939   6.125   2.527   4.612 -0.6979 -0.8510  0.2682
 4793SOL    MW418940   6.097   2.549   4.532 -0.3119 -0.2156  0.3085
 4794SOL     OW18941   1.961   4.909   2.470 -0.6439  0.0227 -0.3474
 4794SOL    HW218942   1.917   4.844   2.416  0.5496 -1.2627  0.1764
 4794SOL    HW318943   1.950   4.991   2.422 -1.0614 -0.7769 -1.6722
 4794SOL    MW418944   1.953   4.911   2.456 -0.5415 -0.2524 -0.4530
 4795SOL     OW18945   5.366   0.747   2.820 -0.1952  0.0990 -0.3117
 4795SOL    HW218946   5.395   0.838   2.825  1.3588 -0.3925  0.1578
 4795SOL    HW318947   5.343   0.734   2.728  1.1553  0.5255 -0.7288
 4795SOL    MW418948   5.366   0.757   2.808  0.1880  0.0905 -0.3047
 4796SOL     OW18949   3.956   3.497   4.688 -0.2997 -0.3121  0.2975
 4796SOL    HW218950   3.927   3.583   4.659 -0.1570 -0.3264  0.1089
 4796SOL    HW318951   3.886   3.466   4.745 -1.2630 -0.8562 -1.1155
 4796SOL    MW418952   3.943   3.504   4.692 -0.4080 -0.3858  0.0862
 4797SOL     OW18953   0.708   0.676   5.621  0.2120  0.6906 -0.6493
 4797SOL    HW218954   0.767   0.607   5.588  1.4434  0.9713  0.8193
 4797SOL    HW318955   0.621   0.636   5.620  0.8860 -0.9281  0.1329
 4797SOL    MW418956   0.705   0.661   5.617  0.4634  0.5141 -0.3524
 4798SOL     OW18957   0.938   4.614   0.134  0.1154 -0.3925  0.2931
 4798SOL    HW218958   0.927   4.669   0.056 -1.6295  2.6264  2.4884
 4798SOL    HW318959   1.027   4.632   0.163 -0.3173  1.0564  0.7797
 4798SOL    MW418960   0.948   4.623   0.127 -0.1719  0.1970  0.6470
 4799SOL     OW18961   1.324   2.373   2.056  0.2223  0.3177  0.1367
 4799SOL    HW218962   1.253   2.372   2.120 -0.2239  2.0020 -0.2951
 4799SOL    HW318963   1.354   2.464   2.054  0.9963  0.0606 -1.2100
 4799SOL    MW418964   1.319   2.385   2.064  0.2655  0.5060 -0.0979
 4800SOL     OW18965   0.118   2.478   2.888 -0.4639 -0.3736 -0.2813
 4800SOL    HW218966   0.068   2.554   2.917  1.9217  1.4160 -0.6135
 4800SOL    HW318967   0.073   2.449   2.809 -0.8143  1.3882 -0.7748
 4800SOL    MW418968   0.105   2.484   2.882 -0.1954  0.0949 -0.3902
 4801SOL     OW18969   2.430   4.859   5.501 -0.2017  0.1032  0.7832
 4801SOL    HW218970   2.337   4.880   5.489 -0.2804 -1.2041 -1.4372
 4801SOL    HW318971   2.467   4.863   5.413  1.3704 -1.5285  1.3152
 4801SOL    MW418972   2.423   4.863   5.488 -0.0047 -0.2845  0.5604
 4802SOL     OW18973   6.145   2.484   1.361  0.7104 -0.2630  0.1954
 4802SOL    HW218974   6.195   2.454   1.286  1.7773 -1.1122  1.2136
 4802SOL    HW318975   6.073   2.422   1.368  0.5735 -0.1460 -0.1461
 4802SOL    MW418976   6.142   2.472   1.352  0.8331 -0.3596  0.2847
 4803SOL     OW18977   4.015   1.485   1.750 -0.2237  0.7146  0.5435
 4803SOL    HW218978   4.104   1.488   1.787  1.1982 -0.0104 -2.5358
 4803SOL    HW318979   3.998   1.392   1.736  0.7828  0.9761 -3.5717
 4803SOL    MW418980   4.024   1.473   1.753  0.0967  0.6534 -0.4057
 4804SOL     OW18981   1.723   5.938   5.888 -0.9816  0.1049 -0.0092
 4804SOL    HW218982   1.739   6.010   5.827  0.2072 -0.5075 -0.4470
 4804SOL    HW318983   1.628   5.936   5.897 -1.2757 -0.2448 -2.4349
 4804SOL    MW418984   1.713   5.947   5.881 -0.8636 -0.0221 -0.3870
 4805SOL     OW18985   2.208   5.465   2.669 -0.2146  0.0910  0.3505
 4805SOL    HW218986   2.249   5.503   2.591 -0.2759  1.3582  0.9113
 4805SOL    HW318987   2.125   5.430   2.637 -0.4819  1.0764 -0.0892
 4805SOL    MW418988   2.202   5.466   2.654 -0.2580  0.3882  0.3665
 4806SOL     OW18989   4.210   3.524   1.117 -0.3417 -0.1770  0.3734
 4806SOL    HW218990   4.282   3.465   1.096 -0.5880 -0.1310 -0.6403
 4806SOL    HW318991   4.143   3.467   1.155 -0.9414 -0.7318 -1.4383
 4806SOL    MW418992   4.211   3.508   1.119 -0.4534 -0.2441  0.0006
 4807SOL     OW18993   4.764   3.795   2.910  0.5321  0.0926 -0.1619
 4807SOL    HW218994   4.739   3.847   2.987 -1.0635 -1.1964  0.2336
 4807SOL    HW318995   4.830   3.734   2.943 -0.0469 -0.3636  0.1662
 4807SOL    MW418996   4.770   3.794   2.925  0.2452 -0.1377 -0.0664
 4808SOL     OW18997   1.546   6.340   4.237 -0.2318  0.0756 -0.5669
 4808SOL    HW218998   1.508   6.273   4.181 -2.5939  1.2925 -0.5357
 4808SOL    HW318999   1.553   6.298   4.323 -1.8543 -0.1073 -0.5042
 4808SOL    MW419000   1.542   6.326   4.241 -0.7575  0.2120 -0.5545
 4809SOL     OW19001   2.053   5.859   2.402  0.1211 -0.0628 -0.6816
 4809SOL    HW219002   2.023   5.901   2.483  0.1139 -0.6943 -0.3460
 4809SOL    HW319003   2.048   5.765   2.421 -0.8839 -0.2568 -1.7710
 4809SOL    MW419004   2.048   5.852   2.415 -0.0124 -0.1718 -0.7811
 4810SOL     OW19005   3.769   6.418   3.125  0.5472 -0.1173  0.4351
 4810SOL    HW219006   3.726   6.500   3.149  2.2010  1.4084 -1.3963
 4810SOL    HW319007   3.730   6.394   3.041  0.9916 -0.4488  0.3174
 4810SOL    MW419008   3.758   6.426   3.117  0.8241  0.0403  0.1779
 4811SOL     OW19009   4.489   0.298   2.727  0.0030  0.2751 -0.7560
 4811SOL    HW219010   4.558   0.234   2.740  0.1225  0.6700  0.7118
 4811SOL    HW319011   4.408   0.250   2.746  0.2120  1.0405  2.7825
 4811SOL    MW419012   4.487   0.284   2.731  0.0464  0.4282 -0.0955
 4812SOL     OW19013   0.632   1.425   2.495 -0.1269  0.1568  0.1737
 4812SOL    HW219014   0.696   1.431   2.566 -1.6229 -0.1217  1.6139
 4812SOL    HW319015   0.559   1.377   2.533 -0.6715 -0.6882 -1.8297
 4812SOL    MW419016   0.631   1.419   2.509 -0.3962  0.0086  0.0994
 4813SOL     OW19017   4.062   1.702   4.639 -0.0754  0.5254 -0.3865
 4813SOL    HW219018   4.017   1.749   4.709 -0.9419 -0.2992 -0.3703
 4813SOL    HW319019   4.034   1.745   4.559 -0.7373  0.1424 -0.3615
 4813SOL    MW419020   4.053   1.714   4.638 -0.2771  0.3660 -0.3811
 4814SOL     OW19021   4.851   4.781   2.290 -0.0043  0.1523  0.2731
 4814SOL    HW219022   4.798   4.852   2.254 -1.4759 -1.1898 -0.3276
 4814SOL    HW319023   4.872   4.809   2.379 -0.6770  1.2625  0.0977
 4814SOL    MW419024   4.847   4.794   2.297 -0.2872  0.1217  0.1707
 4815SOL     OW19025   0.474   3.873   1.243 -0.3945 -0.0226  0.3478
 4815SOL    HW219026   0.524   3.886   1.162 -1.3562 -2.4403 -0.7151
 4815SOL    HW319027   0.482   3.779   1.261 -0.5788  0.3805  2.8449
 4815SOL    MW419028   0.482   3.862   1.235 -0.5457 -0.2884  0.5370
 4816SOL     OW19029   0.844   3.511   3.274 -0.0212  0.1159  0.3251
 4816SOL    HW219030   0.896   3.588   3.296 -2.5852  1.5029  2.1477
 4816SOL    HW319031   0.754   3.544   3.268 -0.9996 -2.4539 -0.6005
 4816SOL    MW419032   0.839   3.526   3.276 -0.4886 -0.0401  0.4435
 4817SOL     OW19033   4.386   5.844   1.010  0.0222  0.3539 -0.5071
 4817SOL    HW219034   4.339   5.914   0.964 -0.6385  0.6578  0.6044
 4817SOL    HW319035   4.318   5.793   1.052  0.6493  0.6823  0.9652
 4817SOL    MW419036   4.371   5.847   1.009  0.0178  0.4373 -0.1662
 4818SOL     OW19037   3.220   1.704   4.909  0.2531 -0.5036  0.3182
 4818SOL    HW219038   3.171   1.693   4.827 -0.3345 -0.1296  0.6179
 4818SOL    HW319039   3.312   1.697   4.882  0.0568 -0.6651 -0.3328
 4818SOL    MW419040   3.226   1.702   4.894  0.1497 -0.4755  0.2719
 4819SOL     OW19041   4.494   4.992   0.299 -0.2061  0.1030 -0.5592
 4819SOL    HW219042   4.551   4.930   0.254 -0.8916 -0.8495 -0.1594
 4819SOL    HW319043   4.405   4.960   0.282 -0.4805 -0.8141  2.0911
 4819SOL    MW419044   4.490   4.980   0.291 -0.3328 -0.1437 -0.1568
 4820SOL     OW19045   3.249   3.342   2.827 -0.3209 -0.2389  0.4428
 4820SOL    HW219046   3.244   3.311   2.918 -0.1115 -0.1078  0.4986
 4820SOL    HW319047   3.179   3.406   2.820  1.2513  1.6950  1.2627
 4820SOL    MW419048   3.239   3.346   2.838 -0.0858  0.0335  0.5583
 4821SOL     OW19049   6.244   2.514   1.121 -0.6607  0.2519 -0.5744
 4821SOL    HW219050   6.283   2.594   1.085 -0.3396 -0.2683 -1.4057
 4821SOL    HW319051   6.309   2.446   1.104  0.0105  0.1704  2.0029
 4821SOL    MW419052   6.258   2.516   1.114 -0.5298  0.1725 -0.3440
 4822SOL     OW19053   0.038   4.183   4.414  0.2345  0.0996  0.8149
 4822SOL    HW219054  -0.055   4.183   4.436 -0.1595 -0.8171 -0.7230
 4822SOL    HW319055   0.041   4.200   4.320  1.6759  0.9339  0.9820
 4822SOL    MW419056   0.026   4.185   4.405  0.3727  0.0887  0.6340
 4823SOL     OW19057   1.148   4.640   2.369  0.1247  0.4313  0.0934
 4823SOL    HW219058   1.206   4.712   2.344 -0.5693  1.2183  0.7062
 4823SOL    HW319059   1.093   4.676   2.438  0.6276 -1.0820  1.3440
 4823SOL    MW419060   1.149   4.654   2.374  0.0995  0.3355  0.3392
 4824SOL     OW19061   4.337   5.121   4.331  0.6235  0.1040  0.4887
 4824SOL    HW219062   4.261   5.116   4.389  0.8830 -0.6590  0.7644
 4824SOL    HW319063   4.304   5.166   4.253  0.2921  1.2072  1.2431
 4824SOL    MW419064   4.322   5.126   4.328  0.6140  0.1489  0.6246
 4825SOL     OW19065   6.233   0.310   3.934 -0.0849  0.0200 -0.2273
 4825SOL    HW219066   6.308   0.367   3.923  0.1338 -0.2469 -0.1237
 4825SOL    HW319067   6.239   0.278   4.024  1.1581 -2.0674 -0.9708
 4825SOL    MW419068   6.243   0.313   3.944  0.1080 -0.2907 -0.3118
 4826SOL     OW19069   6.313   0.218   6.375 -0.0372  0.8770  0.6772
 4826SOL    HW219070   6.266   0.269   6.308  0.7352  0.1037 -0.4868
 4826SOL    HW319071   6.326   0.132   6.335  0.6524  0.4667  1.7444
 4826SOL    MW419072   6.308   0.214   6.361  0.1557  0.7209  0.6644
 4827SOL     OW19073   3.140   1.641   2.993 -0.5777  0.1501  0.1297
 4827SOL    HW219074   3.108   1.731   2.991 -1.2989 -0.0613  1.1324
 4827SOL    HW319075   3.148   1.621   3.087  0.9563 -0.3570 -0.0837
 4827SOL    MW419076   3.137   1.650   3.005 -0.4705  0.0553  0.2339
 4828SOL     OW19077   2.624   2.826   2.992  0.1475  0.2027  0.3171
 4828SOL    HW219078   2.678   2.892   3.036  0.1621 -0.0397  0.6673
 4828SOL    HW319079   2.596   2.868   2.910  0.7261  0.3904  0.2128
 4828SOL    MW419080   2.627   2.840   2.987  0.2258  0.1955  0.3495
 4829SOL     OW19081   3.701   1.313   1.412 -0.1779  0.2776 -0.9267
 4829SOL    HW219082   3.786   1.273   1.395 -0.2713 -0.0203 -0.6886
 4829SOL    HW319083   3.673   1.346   1.326 -1.0303 -1.9463 -1.5806
 4829SOL    MW419084   3.708   1.312   1.398 -0.3027 -0.0551 -0.9815
 4830SOL     OW19085   3.099   5.450   4.099 -0.5593 -0.2839 -0.2304
 4830SOL    HW219086   3.061   5.527   4.140  1.2207  0.7320 -0.3873
 4830SOL    HW319087   3.072   5.456   4.007 -1.8648 -0.8318  0.0854
 4830SOL    MW419088   3.090   5.461   4.092 -0.4967 -0.2221 -0.2094
 4831SOL     OW19089   4.996   6.149   3.826  0.1788  0.4239  0.0177
 4831SOL    HW219090   5.049   6.081   3.868 -0.7035  0.2762  0.9577
 4831SOL    HW319091   5.030   6.231   3.861 -0.6687  0.2945  1.2383
 4831SOL    MW419092   5.007   6.151   3.836 -0.0494  0.3873  0.3027
 4832SOL     OW19093   1.861   0.041   0.752 -0.1110 -0.6684  0.5169
 4832SOL    HW219094   1.795   0.059   0.685 -1.1056  0.6489  1.7677
 4832SOL    HW319095   1.918  -0.024   0.713  0.0564  0.8925 -2.0830
 4832SOL    MW419096   1.860   0.035   0.738 -0.2201 -0.2886  0.3389
 4833SOL     OW19097   1.709   5.478   1.863  0.5383 -0.2773  0.5842
 4833SOL    HW219098   1.667   5.480   1.949  0.0630  0.4052  0.3489
 4833SOL    HW319099   1.802   5.488   1.881  0.4547 -0.2669  1.0286
 4833SOL    MW419100   1.715   5.479   1.877  0.4646 -0.1859  0.6118
 4834SOL     OW19101   0.371   1.839   6.024  0.2283  0.1100 -0.4550
 4834SOL    HW219102   0.415   1.808   5.945 -1.0638  0.4495 -1.3364
 4834SOL    HW319103   0.303   1.898   5.992  0.9688  1.8573  1.0379
 4834SOL    MW419104   0.368   1.842   6.009  0.1555  0.3853 -0.3743
 4835SOL     OW19105   2.279   4.110   5.525 -0.5222 -0.2654 -0.2393
 4835SOL    HW219106   2.205   4.131   5.468 -1.0282  1.0317  0.8484
 4835SOL    HW319107   2.253   4.142   5.611  0.7966 -0.9311  0.4370
 4835SOL    MW419108   2.265   4.117   5.529 -0.4149 -0.1821 -0.0065
 4836SOL     OW19109   4.804   5.753   4.951 -0.1158 -0.1900 -0.2486
 4836SOL    HW219110   4.771   5.667   4.925 -0.5067 -0.0487 -0.2249
 4836SOL    HW319111   4.784   5.759   5.045 -0.2899  0.0179 -0.2983
 4836SOL    MW419112   4.797   5.743   4.960 -0.1903 -0.1439 -0.2520
 4837SOL     OW19113   3.419   4.052   0.149  0.2831  0.5976 -0.5511
 4837SOL    HW219114   3.373   4.133   0.128  1.2413  1.3219  0.0934
 4837SOL    HW319115   3.484   4.042   0.079  2.4415  2.2085  1.0762
 4837SOL    MW419116   3.422   4.061   0.137  0.6943  0.9057 -0.2513
 4838SOL     OW19117   1.085   0.711   3.875  0.2641  0.5329  0.2596
 4838SOL    HW219118   1.161   0.740   3.926  1.1467  0.5114 -0.9959
 4838SOL    HW319119   1.109   0.729   3.784 -0.4531 -1.2385 -0.3185
 4838SOL    MW419120   1.098   0.717   3.870  0.2859  0.2963  0.0177
 4839SOL     OW19121   3.602   3.574   0.877 -0.2956  0.9116  0.6139
 4839SOL    HW219122   3.517   3.531   0.885  0.5735 -0.7357  1.4205
 4839SOL    HW319123   3.615   3.618   0.961 -0.9489  2.3735 -0.0209
 4839SOL    MW419124   3.592   3.574   0.889 -0.2671  0.8872  0.6366
 4840SOL     OW19125   4.156   1.536   2.725 -0.4405  0.0055 -0.1400
 4840SOL    HW219126   4.061   1.540   2.716 -0.8906 -2.0081  2.4558
 4840SOL    HW319127   4.174   1.443   2.744  1.7785  0.7044  1.5744
 4840SOL    MW419128   4.146   1.524   2.726 -0.2071 -0.1679  0.4287
 4841SOL     OW19129   2.888   4.955   2.777  0.1544  0.2147 -0.2697
 4841SOL    HW219130   2.825   4.971   2.848 -1.4375  1.0761 -1.8047
 4841SOL    HW319131   2.924   4.868   2.796 -2.9781 -1.2220 -0.3283
 4841SOL    MW419132   2.884   4.945   2.789 -0.4689  0.1388 -0.4800
 4842SOL     OW19133   4.243   6.121   1.176  0.2139 -0.6054 -0.3958
 4842SOL    HW219134   4.317   6.182   1.180 -2.7214  3.3737  0.1459
 4842SOL    HW319135   4.229   6.106   1.082  1.4959 -1.2303 -0.5055
 4842SOL    MW419136   4.251   6.127   1.164 -0.0043 -0.1628 -0.3388
 4843SOL     OW19137   5.830   1.002   3.668 -0.5801 -0.3983  0.3864
 4843SOL    HW219138   5.755   1.061   3.665 -0.6681 -0.5170 -1.8539
 4843SOL    HW319139   5.817   0.949   3.746 -1.6362  1.0759  1.2522
 4843SOL    MW419140   5.818   1.003   3.678 -0.7311 -0.2194  0.2050
 4844SOL     OW19141   1.012   1.450   4.146  0.1558 -0.6355  0.4062
 4844SOL    HW219142   0.925   1.475   4.114 -0.7681  1.5241  3.9640
 4844SOL    HW319143   1.008   1.355   4.155 -1.1702 -0.7663 -1.1440
 4844SOL    MW419144   1.000   1.441   4.143 -0.1410 -0.3679  0.6711
 4845SOL     OW19145   3.049   4.189   0.071 -0.2438  0.0383  0.5126
 4845SOL    HW219146   3.126   4.239   0.045 -0.3400  0.2538  0.6410
 4845SOL    HW319147   3.046   4.116   0.009 -0.5714  0.6444 -0.2070
 4845SOL    MW419148   3.058   4.186   0.059 -0.2997  0.1467  0.4346
 4846SOL     OW19149   5.154   6.190   4.201  0.3458 -0.2062  0.1482
 4846SOL    HW219150   5.205   6.146   4.269  0.9057 -1.0014 -0.7477
 4846SOL    HW319151   5.108   6.119   4.156  1.7216 -0.0043 -1.7069
 4846SOL    MW419152   5.154   6.174   4.204  0.6012 -0.2845 -0.2148
 4847SOL     OW19153   4.813   5.995   3.656 -0.1026 -0.0032  0.9610
 4847SOL    HW219154   4.876   6.044   3.709  2.7817 -2.4404  0.0248
 4847SOL    HW319155   4.826   6.029   3.567 -0.6449 -0.0661  0.8537
 4847SOL    MW419156   4.823   6.006   3.651  0.2064 -0.3331  0.8233
 4848SOL     OW19157   4.144   1.279   6.347 -0.5740  0.1192 -0.1089
 4848SOL    HW219158   4.181   1.205   6.396 -2.0234 -0.9408 -0.5374
 4848SOL    HW319159   4.218   1.315   6.298  0.2668 -0.7417  0.4915
 4848SOL    MW419160   4.159   1.274   6.347 -0.6543 -0.1343 -0.0862
 4849SOL     OW19161   0.929   4.444   4.240 -0.2692 -0.4148 -0.5810
 4849SOL    HW219162   0.874   4.419   4.167 -2.4431 -0.5851  1.0175
 4849SOL    HW319163   0.943   4.363   4.289  1.8764 -0.4807 -1.1892
 4849SOL    MW419164   0.924   4.430   4.237 -0.2729 -0.4460 -0.4503
 4850SOL     OW19165   0.530   1.583   5.895 -0.3476 -0.2704  0.0857
 4850SOL    HW219166   0.551   1.565   5.987  0.6491 -1.2745 -0.3128
 4850SOL    HW319167   0.594   1.648   5.868 -0.3259 -0.3408 -0.0323
 4850SOL    MW419168   0.541   1.589   5.904 -0.2132 -0.4122  0.0175
 4851SOL     OW19169   4.200   2.607   1.782 -0.0647 -0.1795  0.7586
 4851SOL    HW219170   4.220   2.612   1.876 -0.4626  3.2209  0.7854
 4851SOL    HW319171   4.282   2.631   1.739  0.2888 -2.3181  0.1275
 4851SOL    MW419172   4.213   2.611   1.789 -0.0706 -0.0130  0.6789
 4852SOL     OW19173   1.670   3.706   5.780 -0.0541 -0.1410 -0.0037
 4852SOL    HW219174   1.760   3.676   5.791  0.5599  1.7350  0.2712
 4852SOL    HW319175   1.617   3.629   5.804  1.4383 -1.5026 -0.8678
 4852SOL    MW419176   1.675   3.692   5.785  0.2238 -0.0731 -0.0814
 4853SOL     OW19177   1.615   0.599   5.115 -0.4966  0.1525 -0.6152
 4853SOL    HW219178   1.587   0.538   5.183  0.0795  0.8691  0.2888
 4853SOL    HW319179   1.708   0.614   5.134 -1.0755  2.9585  0.5420
 4853SOL    MW419180   1.624   0.593   5.127 -0.4970  0.6173 -0.3432
 4854SOL     OW19181   4.118   4.217   2.710 -0.2088  0.4349 -0.0915
 4854SOL    HW219182   4.205   4.240   2.677  0.1826  0.2563  0.7950
 4854SOL    HW319183   4.082   4.158   2.644  0.0531  1.0704 -0.8130
 4854SOL    MW419184   4.124   4.212   2.697 -0.1226  0.4952 -0.0697
 4855SOL     OW19185   1.535   1.771   1.952  0.5912  0.2173  0.2344
 4855SOL    HW219186   1.560   1.862   1.940 -1.3980  0.9732  1.3866
 4855SOL    HW319187   1.446   1.766   1.916  0.7263 -1.3167  0.0484
 4855SOL    MW419188   1.527   1.782   1.946  0.3466  0.1146  0.3619
 4856SOL     OW19189   1.649   0.101   0.568  0.6675  0.1130  0.3929
 4856SOL    HW219190   1.618   0.011   0.563 -0.0359  0.3867 -0.4069
 4856SOL    HW319191   1.593   0.142   0.633 -0.4687  0.5166 -0.8002
 4856SOL    MW419192   1.637   0.094   0.576  0.4248  0.2024  0.1300
 4857SOL     OW19193   4.173   1.660   3.000 -0.3312  0.4925  0.2492
 4857SOL    HW219194   4.193   1.648   2.907 -3.1220 -0.5835 -0.3385
 4857SOL    HW319195   4.125   1.743   3.003  1.9183  1.8207  1.1936
 4857SOL    MW419196   4.169   1.669   2.988 -0.4026  0.5258  0.2962
 4858SOL     OW19197   0.015   5.312   5.456 -0.5425  0.1913  0.3456
 4858SOL    HW219198   0.100   5.349   5.479  0.2625 -0.6934 -1.0517
 4858SOL    HW319199  -0.024   5.286   5.540  0.0343  1.6789  1.0907
 4858SOL    MW419200   0.021   5.313   5.470 -0.3602  0.2708  0.2595
 4859SOL     OW19201   6.033   1.050   4.430 -0.6611 -0.1877 -0.0213
 4859SOL    HW219202   5.950   1.048   4.478 -2.4301  0.9702 -2.7941
 4859SOL    HW319203   6.060   1.142   4.431  0.3313 -0.4677  0.3900
 4859SOL    MW419204   6.026   1.062   4.437 -0.7636 -0.0719 -0.3329
 4860SOL     OW19205   5.348   3.705   1.627 -0.2539  0.2797  0.5377
 4860SOL    HW219206   5.283   3.635   1.624 -0.1525  0.2025 -0.0305
 4860SOL    HW319207   5.410   3.683   1.557  0.9918 -0.2381  1.7425
 4860SOL    MW419208   5.348   3.693   1.617 -0.0761  0.2012  0.6217
 4861SOL     OW19209   4.750   5.296   5.616 -0.2045  0.1517 -0.0137
 4861SOL    HW219210   4.761   5.203   5.597  2.2991  0.2870  0.4970
 4861SOL    HW319211   4.734   5.300   5.710 -0.3000  0.2444 -0.0338
 4861SOL    MW419212   4.749   5.284   5.626  0.1132  0.1818  0.0511
 4862SOL     OW19213   1.819   1.175   0.015 -0.2168  0.0936  0.4028
 4862SOL    HW219214   1.789   1.123  -0.060 -0.5831  1.2775 -0.3024
 4862SOL    HW319215   1.849   1.110   0.079  0.0467 -0.9529 -0.7388
 4862SOL    MW419216   1.819   1.160   0.013 -0.2304  0.1118  0.1591
 4863SOL     OW19217   1.043   0.161   5.620  0.0798  0.2390  0.3748
 4863SOL    HW219218   1.069   0.070   5.636 -0.6357  0.0150  0.2935
 4863SOL    HW319219   1.103   0.213   5.673  1.4004 -0.2038 -0.6354
 4863SOL    MW419220   1.054   0.155   5.629  0.1597  0.1510  0.2308
 4864SOL     OW19221   2.600   5.468   2.954  0.2982 -0.1454  0.1818
 4864SOL    HW219222   2.615   5.375   2.971  0.6576 -0.0600  0.3497
 4864SOL    HW319223   2.597   5.474   2.858  0.0069 -0.3685  0.1758
 4864SOL    MW419224   2.602   5.457   2.943  0.3072 -0.1636  0.2032
 4865SOL     OW19225   0.335   4.196   0.662  0.4142  0.1141  0.1079
 4865SOL    HW219226   0.377   4.281   0.672  1.3399 -0.3472  0.1831
 4865SOL    HW319227   0.316   4.189   0.569  0.3342  0.4013  0.1020
 4865SOL    MW419228   0.338   4.206   0.651  0.5257  0.0911  0.1171
 4866SOL     OW19229   4.290   6.211   0.645 -0.3039  0.2757 -0.3702
 4866SOL    HW219230   4.329   6.297   0.626 -0.5858  0.6952  0.8964
 4866SOL    HW319231   4.201   6.217   0.610 -0.3459  0.5194 -0.2233
 4866SOL    MW419232   4.284   6.223   0.638 -0.3467  0.3632 -0.1837
 4867SOL     OW19233   6.348   5.838   2.272  0.0494  0.6541  0.0094
 4867SOL    HW219234   6.401   5.917   2.280  0.9726  0.1162 -0.5936
 4867SOL    HW319235   6.406   5.774   2.231 -1.0375  0.0199 -0.6046
 4867SOL    MW419236   6.363   5.840   2.268  0.0278  0.4995 -0.1512
 4868SOL     OW19237   2.129   4.092   1.196 -0.3891  0.0991 -0.2633
 4868SOL    HW219238   2.105   4.159   1.132  0.9029  1.4971  0.6363
 4868SOL    HW319239   2.190   4.035   1.150 -2.3580 -1.1956 -1.3839
 4868SOL    MW419240   2.134   4.094   1.182 -0.4784  0.1128 -0.2925
 4869SOL     OW19241   0.136   5.482   2.427 -0.2672 -0.0308  0.1227
 4869SOL    HW219242   0.164   5.444   2.344 -1.7729  0.1203 -0.4936
 4869SOL    HW319243   0.195   5.445   2.492 -1.0236 -2.6873 -0.5713
 4869SOL    MW419244   0.147   5.472   2.424 -0.5656 -0.3614 -0.0502
 4870SOL     OW19245   5.825   1.330   4.575  0.3027 -0.0247  0.1796
 4870SOL    HW219246   5.788   1.354   4.660 -0.5195 -1.1158  0.1562
 4870SOL    HW319247   5.823   1.235   4.574 -0.8235 -0.0341 -1.5229
 4870SOL    MW419248   5.819   1.321   4.586  0.0456 -0.1699 -0.0481
 4871SOL     OW19249   3.678   4.199   2.486  0.1564  0.3178 -0.1438
 4871SOL    HW219250   3.696   4.258   2.559  3.0880 -1.2176  0.4880
 4871SOL    HW319251   3.595   4.157   2.509  0.0172  1.3295  1.3007
 4871SOL    MW419252   3.669   4.201   2.499  0.5248  0.2487  0.1302
 4872SOL     OW19253   3.975   4.616   3.772 -0.2052 -0.8738  0.2168
 4872SOL    HW219254   3.902   4.671   3.800  0.3713 -0.0780  0.1911
 4872SOL    HW319255   4.016   4.586   3.853  0.1559 -0.3447  0.2312
 4872SOL    MW419256   3.971   4.619   3.786 -0.0815 -0.6990  0.2153
 4873SOL     OW19257   5.202   5.263   2.035 -0.0992  0.7133 -0.6596
 4873SOL    HW219258   5.254   5.230   2.109  0.1611  1.2006 -0.6204
 4873SOL    HW319259   5.267   5.299   1.975  0.0415 -2.4887 -2.6600
 4873SOL    MW419260   5.218   5.263   2.037 -0.0463  0.3552 -0.9184
 4874SOL     OW19261   0.711   3.569   4.003  0.1495 -0.8313  0.1197
 4874SOL    HW219262   0.650   3.505   3.966  1.5469 -2.0362 -0.1768
 4874SOL    HW319263   0.776   3.584   3.934 -0.1544  0.9525  0.1735
 4874SOL    MW419264   0.712   3.563   3.989  0.2938 -0.7549  0.0877
 4875SOL     OW19265   6.144   4.690   3.869 -0.3624  0.0399  0.3726
 4875SOL    HW219266   6.081   4.634   3.915 -0.5013  0.7567  1.0848
 4875SOL    HW319267   6.227   4.643   3.875 -0.8745 -1.0447 -0.8146
 4875SOL    MW419268   6.146   4.677   3.876 -0.4483 -0.0086  0.3099
 4876SOL     OW19269   1.879   0.105   3.033 -0.0853  0.0976  0.3293
 4876SOL    HW219270   1.807   0.048   3.007  0.0803  0.1281 -0.2106
 4876SOL    HW319271   1.920   0.130   2.951 -0.5435  1.5142  0.5135
 4876SOL    MW419272   1.875   0.100   3.019 -0.1239  0.2885  0.2824
 4877SOL     OW19273   1.590   0.665   4.270  0.2083  0.3655 -0.1981
 4877SOL    HW219274   1.567   0.721   4.196 -0.7346  0.0777 -0.1275
 4877SOL    HW319275   1.583   0.576   4.236 -0.3848  0.2285  0.2865
 4877SOL    MW419276   1.586   0.661   4.255  0.0057  0.3095 -0.1248
 4878SOL     OW19277   0.321   4.018   5.940 -1.0999 -0.0643 -0.4865
 4878SOL    HW219278   0.354   3.952   5.879  0.4794  0.8137 -0.6475
 4878SOL    HW319279   0.378   4.009   6.017 -1.5268  0.4440 -0.1073
 4878SOL    MW419280   0.333   4.008   5.942 -0.9479  0.1186 -0.4578
 4879SOL     OW19281   4.585   5.103   6.362 -0.4953 -0.0439 -0.8594
 4879SOL    HW219282   4.494   5.107   6.394 -0.4593  0.7918 -0.8616
 4879SOL    HW319283   4.630   5.049   6.427 -0.5429  1.2219  0.2518
 4879SOL    MW419284   4.579   5.096   6.375 -0.4968  0.2333 -0.7131
 4880SOL     OW19285   0.270   4.147   2.656  0.2179 -0.2171 -0.1553
 4880SOL    HW219286   0.361   4.142   2.684  0.3937 -0.5202 -0.7777
 4880SOL    HW319287   0.246   4.239   2.667 -0.3864 -0.6321  3.0854
 4880SOL    MW419288   0.279   4.158   2.661  0.1614 -0.3118  0.1902
 4881SOL     OW19289   5.455   4.658   1.635  0.5810 -0.4172 -0.0581
 4881SOL    HW219290   5.477   4.622   1.549  0.4825 -0.3143 -0.1271
 4881SOL    HW319291   5.463   4.583   1.695  3.6310  0.1356  0.3800
 4881SOL    MW419292   5.459   4.643   1.632  0.9704 -0.3307 -0.0094
 4882SOL     OW19293   0.759   2.768   2.411 -0.2923  0.1327  0.4387
 4882SOL    HW219294   0.770   2.825   2.335 -1.4420 -0.3930 -0.1515
 4882SOL    HW319295   0.841   2.775   2.459  0.7637 -0.1461 -1.2598
 4882SOL    MW419296   0.771   2.777   2.407 -0.3047  0.0266  0.1368
 4883SOL     OW19297   2.178   3.004   0.086 -0.5085 -0.5837  0.4638
 4883SOL    HW219298   2.130   2.999   0.003  0.6605 -0.6542 -0.2319
 4883SOL    HW319299   2.135   3.074   0.134 -0.6643  0.0578 -0.5716
 4883SOL    MW419300   2.166   3.012   0.081 -0.3748 -0.5084  0.2354
 4884SOL     OW19301   2.513   1.104   6.111 -0.0369  0.1801  0.0423
 4884SOL    HW219302   2.522   1.015   6.078 -1.2129  0.3832 -0.8999
 4884SOL    HW319303   2.521   1.159   6.032  0.1821  0.8765  0.5406
 4884SOL    MW419304   2.515   1.100   6.096 -0.1632  0.2988 -0.0163
 4885SOL     OW19305   2.301   0.103   2.791  0.3135 -0.1621 -0.1456
 4885SOL    HW219306   2.328   0.045   2.862 -1.2064 -0.4873  0.1979
 4885SOL    HW319307   2.372   0.167   2.784  0.8751 -0.6195  1.1142
 4885SOL    MW419308   2.314   0.104   2.799  0.1871 -0.2653  0.0660
 4886SOL     OW19309   3.042   4.623   4.426 -0.3071  0.0241  0.3065
 4886SOL    HW219310   3.050   4.621   4.330 -1.0696 -0.4325  0.2464
 4886SOL    HW319311   2.973   4.687   4.443 -0.9174 -0.6659  0.4907
 4886SOL    MW419312   3.034   4.631   4.415 -0.4882 -0.1272  0.3229
 4887SOL     OW19313   2.981   4.745   0.712  0.0134 -0.3994  0.2603
 4887SOL    HW219314   2.983   4.808   0.640  2.5757 -1.1852 -0.4255
 4887SOL    HW319315   3.010   4.795   0.789  0.4089 -0.3557  0.0790
 4887SOL    MW419316   2.985   4.760   0.713  0.4037 -0.4973  0.1459
 4888SOL     OW19317   4.333   2.889   2.199  0.0174  0.3398  0.3085
 4888SOL    HW219318   4.313   2.808   2.246  2.0521 -0.3482  0.1189
 4888SOL    HW319319   4.280   2.884   2.119 -0.5849 -0.3533  0.7389
 4888SOL    MW419320   4.324   2.877   2.195  0.2064  0.1576  0.3403
 4889SOL     OW19321   5.514   0.859   3.712  0.4460 -0.4207  0.7248
 4889SOL    HW219322   5.490   0.777   3.757 -0.3193  0.0497  1.1965
 4889SOL    HW319323   5.477   0.849   3.625 -0.1382 -0.3503  0.9604
 4889SOL    MW419324   5.506   0.847   3.707  0.2679 -0.3493  0.8181
 4890SOL     OW19325   0.271   1.666   5.296  0.2679 -0.6177 -0.4017
 4890SOL    HW219326   0.182   1.631   5.291 -0.7388  1.8481 -1.2623
 4890SOL    HW319327   0.261   1.747   5.347  2.2018 -0.8006  0.3113
 4890SOL    MW419328   0.258   1.672   5.302  0.3902 -0.3165 -0.4212
 4891SOL     OW19329   4.483   2.433   4.410 -0.0456  0.0212 -0.6511
 4891SOL    HW219330   4.431   2.389   4.477  3.7157 -0.2586  2.4334
 4891SOL    HW319331   4.459   2.525   4.416  0.4866  0.0764  1.5411
 4891SOL    MW419332   4.473   2.439   4.419  0.5209 -0.0084  0.0451
 4892SOL     OW19333   0.690   0.190   1.154  0.1505  0.0871  0.1082
 4892SOL    HW219334   0.785   0.196   1.146 -0.0598  2.9975 -2.0083
 4892SOL    HW319335   0.669   0.242   1.232  0.2664 -0.5206  0.5509
 4892SOL    MW419336   0.700   0.197   1.163  0.1380  0.3909 -0.1126
 4893SOL     OW19337   2.245   4.154   0.787  0.6549 -0.3840  0.1120
 4893SOL    HW219338   2.297   4.106   0.852  0.3098 -2.9880 -1.3892
 4893SOL    HW319339   2.212   4.086   0.728 -2.4849  1.3951 -0.4011
 4893SOL    MW419340   2.247   4.139   0.788  0.1951 -0.4928 -0.1538
 4894SOL     OW19341   0.075   2.218   2.599 -0.4084  0.6474  0.2562
 4894SOL    HW219342   0.087   2.124   2.612 -0.2845  0.3464 -1.7841
 4894SOL    HW319343   0.006   2.242   2.662  0.0024 -0.6650  1.2400
 4894SOL    MW419344   0.067   2.209   2.609 -0.3379  0.4345  0.1168
 4895SOL     OW19345   2.271   2.064   2.491 -1.1757  0.5165 -0.0051
 4895SOL    HW219346   2.231   2.150   2.502 -0.2675  0.9852 -0.2781
 4895SOL    HW319347   2.285   2.032   2.581  1.0731  1.8973  0.2050
 4895SOL    MW419348   2.267   2.071   2.505 -0.7592  0.7605 -0.0134
 4896SOL     OW19349   1.182   2.878   3.219  0.1536 -0.3330 -0.0567
 4896SOL    HW219350   1.267   2.916   3.240 -0.1377 -0.0832  0.7138
 4896SOL    HW319351   1.202   2.789   3.189  0.6085 -0.8266  1.5598
 4896SOL    MW419352   1.196   2.871   3.218  0.1752 -0.3652  0.2582
 4897SOL     OW19353   0.235   0.930   4.524  0.5184  0.5493  0.6634
 4897SOL    HW219354   0.227   0.982   4.444 -0.1043 -0.8620 -0.2290
 4897SOL    HW319355   0.330   0.926   4.541  0.6262  1.2122  0.2391
 4897SOL    MW419356   0.247   0.936   4.515  0.4504  0.4506  0.4897
 4898SOL     OW19357   2.271   2.270   0.175 -0.4292 -0.2484  0.0080
 4898SOL    HW219358   2.269   2.274   0.080 -0.3289 -0.8656 -0.0288
 4898SOL    HW319359   2.328   2.342   0.202  0.2513 -0.6019 -0.4526
 4898SOL    MW419360   2.278   2.280   0.166 -0.3262 -0.3765 -0.0576
 4899SOL     OW19361   4.355   0.590   4.221  0.2686 -0.2322 -0.4342
 4899SOL    HW219362   4.395   0.615   4.138  1.2041 -0.4554 -0.0616
 4899SOL    HW319363   4.421   0.610   4.287  0.1994 -1.6111  0.0946
 4899SOL    MW419364   4.369   0.596   4.219  0.3829 -0.4436 -0.3153
 4900SOL     OW19365   6.214   3.107   1.319 -0.4587 -0.2056  0.0906
 4900SOL    HW219366   6.259   3.186   1.289 -0.4036 -0.9200 -1.8555
 4900SOL    HW319367   6.192   3.060   1.238 -0.8511 -1.9852  1.1829
 4900SOL    MW419368   6.217   3.111   1.304 -0.5032 -0.5346 -0.0221
 4901SOL     OW19369   2.234   3.813   1.819  0.2652  0.0343 -0.3007
 4901SOL    HW219370   2.320   3.799   1.779  0.6611  2.7861 -0.6458
 4901SOL    HW319371   2.243   3.897   1.864 -2.0244 -0.0103  0.3392
 4901SOL    MW419372   2.246   3.822   1.819  0.0154  0.3915 -0.2618
 4902SOL     OW19373   0.588   5.895   0.939  0.9659 -0.1302 -0.2530
 4902SOL    HW219374   0.531   5.943   1.000  3.0519  0.2118  1.5646
 4902SOL    HW319375   0.559   5.804   0.947  0.5480  0.0546  0.5021
 4902SOL    MW419376   0.576   5.889   0.948  1.1860 -0.0607  0.0864
 4903SOL     OW19377   3.118   3.245   0.214  0.0745  0.2662 -0.7350
 4903SOL    HW219378   3.032   3.260   0.253 -0.5764 -2.7217 -0.7588
 4903SOL    HW319379   3.176   3.233   0.290 -0.8526 -3.7636 -0.3932
 4903SOL    MW419380   3.114   3.245   0.229 -0.1337 -0.6597 -0.6931
 4904SOL     OW19381   0.392   1.590   1.463  0.4459  0.1050 -0.4908
 4904SOL    HW219382   0.316   1.548   1.423 -1.5592  1.2061  1.8609
 4904SOL    HW319383   0.415   1.533   1.537  0.0694  1.1586  0.4764
 4904SOL    MW419384   0.385   1.577   1.468  0.1317  0.3893 -0.0529
 4905SOL     OW19385   4.197   0.210   0.544  0.4713  0.1240 -0.1924
 4905SOL    HW219386   4.233   0.253   0.467  3.1760  0.8628  1.3385
 4905SOL    HW319387   4.136   0.274   0.581 -1.0633 -0.3431 -1.7622
 4905SOL    MW419388   4.193   0.224   0.539  0.6257  0.1598 -0.1975
 4906SOL     OW19389   0.220   0.943   5.081 -0.5810  0.0919  0.3267
 4906SOL    HW219390   0.267   1.026   5.067 -0.7988  0.0010 -1.1553
 4906SOL    HW319391   0.288   0.883   5.112  0.5173 -0.1905 -2.3151
 4906SOL    MW419392   0.235   0.946   5.083 -0.4648  0.0426 -0.2174
 4907SOL     OW19393   2.703   1.953   1.043  0.0447 -0.0233 -0.1224
 4907SOL    HW219394   2.758   2.020   1.002 -1.0916  0.1797 -1.3738
 4907SOL    HW319395   2.620   1.998   1.059 -0.9408 -1.2735 -1.5425
 4907SOL    MW419396   2.699   1.968   1.040 -0.2353 -0.1615 -0.4749
 4908SOL     OW19397   0.443   6.131   5.533 -0.3242  0.1549 -0.1740
 4908SOL    HW219398   0.506   6.190   5.575  0.3912 -0.7178  0.0349
 4908SOL    HW319399   0.383   6.188   5.487  0.6158  1.0271 -0.3585
 4908SOL    MW419400   0.444   6.146   5.533 -0.1058  0.1548 -0.1708
 4909SOL     OW19401   3.541   6.318   2.628  0.3709  0.2406 -0.0070
 4909SOL    HW219402   3.515   6.404   2.595 -0.9278 -0.3453 -0.6128
 4909SOL    HW319403   3.458   6.273   2.643  1.0304 -0.8000  0.5787
 4909SOL    MW419404   3.527   6.323   2.625  0.2865  0.0260 -0.0097
 4910SOL     OW19405   4.090   5.574   2.488  0.1436  0.5134  0.3945
 4910SOL    HW219406   4.060   5.655   2.528  1.3876  1.2762 -0.1692
 4910SOL    HW319407   4.103   5.595   2.396  0.1562 -0.4229  0.1683
 4910SOL    MW419408   4.087   5.587   2.481  0.3094  0.4905  0.2903
 4911SOL     OW19409   1.224   5.249   1.052 -0.3270  0.6645 -0.4046
 4911SOL    HW219410   1.309   5.252   1.008  0.8533  0.8535  1.7661
 4911SOL    HW319411   1.240   5.285   1.139 -2.4158 -0.2064  0.4187
 4911SOL    MW419412   1.237   5.254   1.058 -0.4469  0.5745 -0.0096
 4912SOL     OW19413   3.425   1.580   3.173 -0.2259 -0.7012 -0.4861
 4912SOL    HW219414   3.512   1.583   3.134 -0.4208 -1.4975 -1.0112
 4912SOL    HW319415   3.400   1.487   3.169 -0.4652 -0.7288  1.0760
 4912SOL    MW419416   3.433   1.568   3.167 -0.2832 -0.8099 -0.3493
 4913SOL     OW19417   5.883   2.756   2.311 -0.3540 -0.0296 -0.4246
 4913SOL    HW219418   5.949   2.757   2.242 -0.2924  0.3875 -0.3574
 4913SOL    HW319419   5.887   2.843   2.350 -0.9749  0.0165 -0.4535
 4913SOL    MW419420   5.892   2.767   2.307 -0.4278  0.0315 -0.4196
 4914SOL     OW19421   1.146   2.480   1.864  0.6087 -0.4051  0.0250
 4914SOL    HW219422   1.205   2.430   1.922  0.0900 -1.6414 -0.4680
 4914SOL    HW319423   1.195   2.487   1.782  0.3911 -0.7529 -0.1372
 4914SOL    MW419424   1.161   2.474   1.861  0.5116 -0.6141 -0.0614
 4915SOL     OW19425   0.325   2.699   1.437 -0.1646 -0.3589 -0.0395
 4915SOL    HW219426   0.353   2.676   1.348 -1.3260  0.6592 -0.7024
 4915SOL    HW319427   0.356   2.627   1.491  1.5830 -0.4508 -1.0726
 4915SOL    MW419428   0.333   2.687   1.432 -0.0872 -0.2367 -0.2633
 4916SOL     OW19429   1.577   5.304   4.294 -0.8741  0.3521  0.2964
 4916SOL    HW219430   1.542   5.392   4.301  2.1077  1.8509 -1.3260
 4916SOL    HW319431   1.623   5.303   4.210 -0.2073 -2.5480  0.5643
 4916SOL    MW419432   1.579   5.315   4.284 -0.3927  0.1673  0.1177
 4917SOL     OW19433   6.205   1.721   0.582  0.3061 -0.5138  0.7363
 4917SOL    HW219434   6.139   1.753   0.643 -1.4209 -0.4143 -1.0710
 4917SOL    HW319435   6.203   1.626   0.590 -1.9477 -0.6975 -1.0340
 4917SOL    MW419436   6.196   1.713   0.591 -0.2191 -0.5249  0.2643
 4918SOL     OW19437   3.762   0.578   2.538 -0.3645 -0.1832 -0.8714
 4918SOL    HW219438   3.768   0.553   2.630 -2.1372  1.6117 -0.1751
 4918SOL    HW319439   3.828   0.646   2.528  2.3184 -2.7504 -1.9588
 4918SOL    MW419440   3.771   0.584   2.549 -0.2444 -0.2851 -0.9230
 4919SOL     OW19441   3.991   5.347   5.248  0.6320 -0.5104 -0.3024
 4919SOL    HW219442   4.046   5.378   5.320  0.8803  0.1206 -0.7576
 4919SOL    HW319443   3.913   5.311   5.291  0.0975  1.2163  0.2317
 4919SOL    MW419444   3.988   5.346   5.263  0.5943 -0.1993 -0.2920
 4920SOL     OW19445   2.817   5.860   0.150  0.3350 -0.2303  0.8326
 4920SOL    HW219446   2.785   5.853   0.239  0.0675 -0.4250  0.7205
 4920SOL    HW319447   2.747   5.825   0.095  1.2569 -1.9331  0.6671
 4920SOL    MW419448   2.804   5.855   0.154  0.4213 -0.4806  0.7960
 4921SOL     OW19449   3.424   5.145   0.816 -0.4398  0.3803 -0.4700
 4921SOL    HW219450   3.446   5.070   0.760 -0.1059  0.7114 -0.7841
 4921SOL    HW319451   3.408   5.216   0.754 -1.6163  0.3488 -0.2105
 4921SOL    MW419452   3.425   5.144   0.800 -0.5509  0.4198 -0.4772
 4922SOL     OW19453   0.607   2.810   5.373 -0.2176 -0.0443  0.1612
 4922SOL    HW219454   0.659   2.870   5.320  0.3755  1.5992  2.4165
 4922SOL    HW319455   0.528   2.794   5.321  0.2858  1.5224 -1.1630
 4922SOL    MW419456   0.603   2.816   5.359 -0.0730  0.3792  0.2840
 4923SOL     OW19457   4.659   3.620   3.886  0.1763  0.4049 -0.2686
 4923SOL    HW219458   4.660   3.564   3.808  1.0705  2.1563 -1.5738
 4923SOL    HW319459   4.575   3.601   3.927  0.1466 -1.3685 -1.0400
 4923SOL    MW419460   4.649   3.610   3.881  0.2904  0.4020 -0.5426
 4924SOL     OW19461   3.990   5.410   3.082  0.0409  0.0032 -0.2595
 4924SOL    HW219462   3.944   5.473   3.137 -0.3457 -0.2871 -0.2473
 4924SOL    HW319463   4.063   5.379   3.135 -0.3210 -0.2635  0.0862
 4924SOL    MW419464   3.994   5.414   3.096 -0.0579 -0.0703 -0.2123
 4925SOL     OW19465   2.006   2.206   0.166 -0.6478  0.1286 -0.3803
 4925SOL    HW219466   2.096   2.233   0.184 -0.9625  0.3507  0.9688
 4925SOL    HW319467   2.011   2.160   0.083  0.3820  1.8729 -1.3425
 4925SOL    MW419468   2.018   2.204   0.158 -0.5534  0.3880 -0.3292
 4926SOL     OW19469   3.013   4.304   2.762  0.8298  0.8386 -0.2177
 4926SOL    HW219470   3.066   4.343   2.831  1.5776  2.9759 -1.8677
 4926SOL    HW319471   3.070   4.238   2.722  0.9553  0.6817  0.2180
 4926SOL    MW419472   3.027   4.300   2.766  0.9450  1.0999 -0.3779
 4927SOL     OW19473   0.658   1.818   4.377 -0.0014  0.3363 -0.1474
 4927SOL    HW219474   0.596   1.812   4.304  0.7808 -0.4047 -0.7767
 4927SOL    HW319475   0.618   1.765   4.446  1.0373 -2.3126 -1.4222
 4927SOL    MW419476   0.645   1.810   4.376  0.2388 -0.1109 -0.3986
 4928SOL     OW19477   3.079   0.590   1.433 -0.1212  0.2912  0.1904
 4928SOL    HW219478   3.154   0.531   1.436 -0.1599  0.2903  2.0165
 4928SOL    HW319479   3.103   0.661   1.494 -1.3306  0.6093  0.3086
 4928SOL    MW419480   3.092   0.592   1.442 -0.2859  0.3331  0.4469
 4929SOL     OW19481   3.780   4.064   0.728  0.3948 -0.1808 -0.5685
 4929SOL    HW219482   3.866   4.076   0.768 -0.2663 -1.8585  1.5097
 4929SOL    HW319483   3.778   4.130   0.658  2.5517  1.2847  0.5961
 4929SOL    MW419484   3.791   4.074   0.724  0.5922 -0.2088 -0.1407
 4930SOL     OW19485   5.965   3.977   1.511  0.1890  0.1355 -0.1423
 4930SOL    HW219486   6.050   4.004   1.547  0.4738 -0.7733 -0.0922
 4930SOL    HW319487   5.909   3.965   1.587  0.1111  0.4371 -0.1536
 4930SOL    MW419488   5.969   3.979   1.525  0.2163  0.0554 -0.1372
 4931SOL     OW19489   3.008   3.292   0.662  0.5094 -0.0316 -0.2358
 4931SOL    HW219490   2.933   3.332   0.618  0.3456  0.8505  0.8143
 4931SOL    HW319491   3.027   3.351   0.735  0.8124 -1.4268  0.8390
 4931SOL    MW419492   3.000   3.305   0.666  0.5278 -0.0993  0.0446
 4932SOL     OW19493   3.529   2.322   0.748  0.0729  0.0723 -0.3442
 4932SOL    HW219494   3.557   2.413   0.762 -0.2165  0.3292 -1.3454
 4932SOL    HW319495   3.566   2.299   0.663 -2.2426  0.2537 -1.4981
 4932SOL    MW419496   3.537   2.331   0.738 -0.2708  0.1301 -0.6285
 4933SOL     OW19497   3.371   0.074   5.154 -0.0225 -0.3792 -0.3703
 4933SOL    HW219498   3.314   0.030   5.090  0.7748 -0.8884 -0.7465
 4933SOL    HW319499   3.426   0.004   5.189  0.1214  0.0439  0.2743
 4933SOL    MW419500   3.371   0.059   5.150  0.1017 -0.3905 -0.3349
 4934SOL     OW19501   0.980   4.940   4.776  0.0322  0.6794  0.0156
 4934SOL    HW219502   0.972   5.035   4.786 -1.4617  0.5204  0.6285
 4934SOL    HW319503   1.022   4.911   4.857  2.0681  0.9584 -0.8859
 4934SOL    MW419504   0.984   4.949   4.788  0.1037  0.6952 -0.0224
 4935SOL     OW19505   5.891   1.558   2.548 -0.3007  0.1825  0.7930
 4935SOL    HW219506   5.936   1.524   2.625 -0.2240 -1.5243  0.0444
 4935SOL    HW319507   5.798   1.552   2.569 -0.3261 -1.5531  0.2773
 4935SOL    MW419508   5.885   1.553   2.561 -0.2940 -0.2717  0.6262
 4936SOL     OW19509   1.043   1.251   1.074  0.2417 -0.0409 -0.0289
 4936SOL    HW219510   1.113   1.282   1.131  1.3910  1.0152 -1.9111
 4936SOL    HW319511   1.013   1.329   1.028 -0.0805 -0.9422 -1.4280
 4936SOL    MW419512   1.049   1.265   1.075  0.3508 -0.0204 -0.4619
 4937SOL     OW19513   0.984   0.259   0.494 -0.1795 -0.3138  0.3355
 4937SOL    HW219514   1.011   0.193   0.430 -0.2815  0.3502 -0.4107
 4937SOL    HW319515   1.014   0.342   0.456 -0.1838  0.0803  1.1871
 4937SOL    MW419516   0.992   0.261   0.480 -0.1936 -0.1742  0.3494
 4938SOL     OW19517   1.429   1.526   3.039 -0.2087 -0.1560 -0.2179
 4938SOL    HW219518   1.371   1.582   2.987 -0.8695  0.1035  0.7599
 4938SOL    HW319519   1.473   1.587   3.099 -0.1683 -0.5576  0.1621
 4938SOL    MW419520   1.427   1.542   3.040 -0.2906 -0.1748 -0.0387
 4939SOL     OW19521   1.072   1.313   2.302  0.4002  0.3428 -0.1576
 4939SOL    HW219522   1.086   1.234   2.250  1.6323 -0.6591  1.5892
 4939SOL    HW319523   0.993   1.294   2.353  0.7073  0.2260  0.2763
 4939SOL    MW419524   1.063   1.300   2.302  0.6033  0.1952  0.1302
 4940SOL     OW19525   5.009   5.353   4.211 -0.0740  0.0138  0.0829
 4940SOL    HW219526   4.951   5.393   4.276  0.2980 -0.5250  0.7640
 4940SOL    HW319527   4.985   5.395   4.128  0.6766  2.0416  0.8309
 4940SOL    MW419528   4.998   5.364   4.208  0.0741  0.2103  0.2714
 4941SOL     OW19529   2.485   4.745   1.210  0.8360 -0.0642  0.1662
 4941SOL    HW219530   2.424   4.801   1.258 -0.1598  0.2513 -1.3998
 4941SOL    HW319531   2.485   4.662   1.258  0.0770  0.3248  0.8523
 4941SOL    MW419532   2.477   4.741   1.222  0.6045  0.0287  0.0501
 4942SOL     OW19533   1.530   2.310   2.252 -0.2485 -0.0809  0.1258
 4942SOL    HW219534   1.482   2.354   2.181  0.6189  0.2393 -0.2743
 4942SOL    HW319535   1.605   2.270   2.208  0.9714  1.1334  1.0287
 4942SOL    MW419536   1.534   2.310   2.237  0.0269  0.1216  0.1921
 4943SOL     OW19537   4.674   1.762   4.554  0.3056 -0.5774 -0.0269
 4943SOL    HW219538   4.636   1.756   4.642  1.3030  1.7088  0.6373
 4943SOL    HW319539   4.755   1.712   4.559  0.8112  0.2828  0.6535
 4943SOL    MW419540   4.679   1.755   4.566  0.5039 -0.1623  0.1505
 4944SOL     OW19541   2.051   5.432   6.004 -0.1391  0.1108 -0.2503
 4944SOL    HW219542   2.001   5.362   6.045 -0.1353  1.4751  2.2983
 4944SOL    HW319543   1.996   5.510   6.013  0.3678  0.7005 -1.8967
 4944SOL    MW419544   2.037   5.433   6.011 -0.0717  0.3686 -0.1313
 4945SOL     OW19545   2.642   5.733  -0.034 -0.4755  0.1512 -0.1269
 4945SOL    HW219546   2.555   5.736  -0.073 -0.0865 -1.9534 -1.3351
 4945SOL    HW319547   2.645   5.647   0.010  1.7035 -0.8776 -2.0640
 4945SOL    MW419548   2.631   5.722  -0.033 -0.1367 -0.2622 -0.5418
 4946SOL     OW19549   0.544   5.140   4.310 -0.3982  0.5931 -0.3447
 4946SOL    HW219550   0.484   5.077   4.351 -1.1631  0.6871 -1.2919
 4946SOL    HW319551   0.616   5.148   4.373  0.2235 -1.9777 -0.6232
 4946SOL    MW419552   0.545   5.132   4.324 -0.4171  0.2663 -0.5065
 4947SOL     OW19553   1.605   1.940   3.333 -0.2917  0.2306  0.0190
 4947SOL    HW219554   1.528   1.938   3.390 -0.7706  2.2111 -0.4880
 4947SOL    HW319555   1.656   2.014   3.365  0.8961 -0.4256 -0.3091
 4947SOL    MW419556   1.601   1.950   3.345 -0.1982  0.4053 -0.0912
 4948SOL     OW19557   1.361   2.060   3.437 -0.4273 -0.0415 -0.5016
 4948SOL    HW219558   1.325   2.078   3.351 -1.3516  1.3316  0.1419
 4948SOL    HW319559   1.293   2.009   3.482 -1.1831  1.6236  0.3384
 4948SOL    MW419560   1.347   2.056   3.432 -0.6490  0.3593 -0.3059
 4949SOL     OW19561   1.499   0.042   1.404 -0.1941  0.6709  0.2419
 4949SOL    HW219562   1.580   0.008   1.366  1.4841  2.8660  1.5671
 4949SOL    HW319563   1.506   0.022   1.497 -1.6063  0.1469  0.2516
 4949SOL    MW419564   1.511   0.035   1.411 -0.1590  0.8914  0.4180
 4950SOL     OW19565   2.600   4.956   5.299  0.1403  0.2681 -0.3266
 4950SOL    HW219566   2.593   5.051   5.288 -1.9519  0.3167  0.9832
 4950SOL    HW319567   2.571   4.920   5.215  0.1261  0.7645 -0.5419
 4950SOL    MW419568   2.595   4.964   5.286 -0.1376  0.3400 -0.1822
 4951SOL     OW19569   3.015   2.620   0.274  0.1081  0.0675  0.0296
 4951SOL    HW219570   3.029   2.553   0.207 -1.0868  0.1242 -0.2845
 4951SOL    HW319571   3.103   2.651   0.295  0.4311  1.4167 -2.8786
 4951SOL    MW419572   3.029   2.615   0.268 -0.0070  0.2530 -0.3955
 4952SOL     OW19573   6.392   4.982   2.307 -0.4194  0.4895  0.0537
 4952SOL    HW219574   6.303   5.010   2.287 -0.0594  1.2881 -0.5237
 4952SOL    HW319575   6.443   5.007   2.230 -0.0482 -1.8595 -0.5504
 4952SOL    MW419576   6.387   4.989   2.294 -0.3229  0.2850 -0.1022
 4953SOL     OW19577   3.023   6.397   4.078 -0.5761 -0.0677  0.5062
 4953SOL    HW219578   3.036   6.307   4.108  1.9114  0.1503  0.2612
 4953SOL    HW319579   3.009   6.389   3.984  0.8042 -0.1632  0.2879
 4953SOL    MW419580   3.023   6.384   4.069 -0.0658 -0.0515  0.4451
 4954SOL     OW19581   1.883   2.698   1.181  0.2572  0.4528  0.5231
 4954SOL    HW219582   1.810   2.760   1.190  0.2218  0.8295 -1.6712
 4954SOL    HW319583   1.841   2.612   1.177 -0.2254  0.7138 -1.4175
 4954SOL    MW419584   1.868   2.695   1.181  0.1888  0.5369 -0.0224
 4955SOL     OW19585   5.430   5.805   2.762  0.5566 -0.3391  0.6287
 4955SOL    HW219586   5.491   5.859   2.712 -0.1169 -1.0853 -1.0606
 4955SOL    HW319587   5.404   5.860   2.836  1.9355  0.6272  0.4363
 4955SOL    MW419588   5.435   5.819   2.765  0.6497 -0.3100  0.3804
 4956SOL     OW19589   1.447   2.862   1.721 -0.2438 -0.2494  0.0698
 4956SOL    HW219590   1.397   2.923   1.776 -1.7604 -0.1942 -1.2806
 4956SOL    HW319591   1.401   2.778   1.731 -0.2406 -0.3480 -0.7186
 4956SOL    MW419592   1.434   2.859   1.730 -0.4435 -0.2551 -0.2124
 4957SOL     OW19593   0.701   6.310   0.162  0.3232  0.3300 -0.1518
 4957SOL    HW219594   0.657   6.240   0.115  0.9040  0.7978 -1.4291
 4957SOL    HW319595   0.633   6.376   0.177  0.4386  0.8287 -1.6682
 4957SOL    MW419596   0.687   6.309   0.158  0.4150  0.4575 -0.5204
 4958SOL     OW19597   6.252   0.760   5.553 -0.5568  0.1578 -0.8016
 4958SOL    HW219598   6.203   0.678   5.543  0.9991 -0.9870  0.4786
 4958SOL    HW319599   6.250   0.778   5.647  1.9284 -0.2944 -0.5920
 4958SOL    MW419600   6.245   0.752   5.564 -0.0236 -0.0529 -0.6050
 4959SOL     OW19601   2.093   1.821   6.039  0.0057 -0.4604 -0.2577
 4959SOL    HW219602   2.017   1.775   6.075  0.6472  0.4594  2.5799
 4959SOL    HW319603   2.162   1.756   6.037 -0.4573 -0.9403 -1.4975
 4959SOL    MW419604   2.092   1.806   6.044  0.0292 -0.4023 -0.0469
 4960SOL     OW19605   0.900   2.800   4.166 -0.3724 -0.6186 -0.3624
 4960SOL    HW219606   0.815   2.809   4.123 -0.4301  0.9730  0.0453
 4960SOL    HW319607   0.889   2.840   4.252  0.7300 -0.5985 -0.2119
 4960SOL    MW419608   0.887   2.806   4.172 -0.2346 -0.4060 -0.2887
 4961SOL     OW19609   0.552   0.225   5.055  0.7243 -0.2443 -0.0744
 4961SOL    HW219610   0.530   0.134   5.074  2.4460 -0.4951  0.8590
 4961SOL    HW319611   0.643   0.223   5.025  0.7556  1.1518 -0.1535
 4961SOL    MW419612   0.561   0.213   5.053  0.9556 -0.0932  0.0383
 4962SOL     OW19613   5.884   2.483   0.736 -0.0167 -0.0881  0.8410
 4962SOL    HW219614   5.945   2.419   0.701 -0.0900  1.3796 -2.2498
 4962SOL    HW319615   5.919   2.504   0.823  1.2471 -2.5571  1.0241
 4962SOL    MW419616   5.897   2.477   0.743  0.1404 -0.2202  0.4573
 4963SOL     OW19617   3.114   4.635   3.714  0.6629 -0.3673 -0.2213
 4963SOL    HW219618   3.045   4.640   3.781  1.4396 -2.9086  0.8885
 4963SOL    HW319619   3.128   4.726   3.687 -0.0413  0.7415  2.7556
 4963SOL    MW419620   3.107   4.648   3.720  0.6725 -0.5563  0.3179
 4964SOL     OW19621   5.851   3.102   3.338  0.2423  0.4828 -0.5834
 4964SOL    HW219622   5.811   3.038   3.397 -1.5021  1.5787 -0.5242
 4964SOL    HW319623   5.802   3.094   3.256  1.4066  0.2989 -1.2970
 4964SOL    MW419624   5.839   3.093   3.335  0.1657  0.6032 -0.6698
 4965SOL     OW19625   1.851   4.668   6.034  0.3355 -0.0179  0.1408
 4965SOL    HW219626   1.906   4.610   6.087 -2.2996 -1.6863  1.2449
 4965SOL    HW319627   1.819   4.734   6.095 -0.7232 -0.4612  0.0811
 4965SOL    MW419628   1.854   4.669   6.049 -0.1519 -0.2965  0.2786
 4966SOL     OW19629   1.386   1.929   2.174 -0.0492 -0.1321 -0.8173
 4966SOL    HW219630   1.387   1.976   2.258 -0.9183 -0.4674 -0.6082
 4966SOL    HW319631   1.332   1.852   2.190  0.5888 -0.7232 -1.4248
 4966SOL    MW419632   1.379   1.925   2.187 -0.0797 -0.2543 -0.8699
 4967SOL     OW19633   1.654   2.933   1.062  1.1983  0.0190  0.0620
 4967SOL    HW219634   1.607   2.887   1.131  0.5574  0.5818  0.0074
 4967SOL    HW319635   1.632   3.025   1.075 -0.3226 -0.0042 -1.9138
 4967SOL    MW419636   1.645   2.939   1.073  0.9131  0.0902 -0.2059
 4968SOL     OW19637   5.634   2.201   0.978 -0.0149  0.4276  0.4962
 4968SOL    HW219638   5.578   2.279   0.978  0.0103  0.4601 -0.6220
 4968SOL    HW319639   5.587   2.137   1.032 -0.8892  0.6145 -0.0346
 4968SOL    MW419640   5.621   2.203   0.985 -0.1269  0.4566  0.2786
 4969SOL     OW19641   5.161   1.897   1.189  0.1771 -0.6110  0.1750
 4969SOL    HW219642   5.168   1.976   1.136 -1.6018  0.5449  1.5873
 4969SOL    HW319643   5.228   1.907   1.256 -0.1865 -0.1993  0.4781
 4969SOL    MW419644   5.171   1.908   1.191 -0.1056 -0.4042  0.4013
 4970SOL     OW19645   1.195   4.559   4.864 -0.4570  0.3236  0.0790
 4970SOL    HW219646   1.116   4.567   4.918 -0.0964 -0.7522  0.7850
 4970SOL    HW319647   1.163   4.531   4.778 -0.8464 -0.1355  0.3716
 4970SOL    MW419648   1.180   4.556   4.860 -0.4608  0.1211  0.2108
 4971SOL     OW19649   2.325   1.280   4.412 -0.1596 -0.2232 -0.1973
 4971SOL    HW219650   2.281   1.223   4.475 -0.5969 -2.1055 -2.1190
 4971SOL    HW319651   2.412   1.241   4.402  0.2085  0.5688 -0.1405
 4971SOL    MW419652   2.331   1.267   4.419 -0.1687 -0.3671 -0.4433
 4972SOL     OW19653   1.216   0.703   5.959  0.1959  0.5917 -0.5043
 4972SOL    HW219654   1.131   0.665   5.981 -0.4746  1.5969 -1.2362
 4972SOL    HW319655   1.259   0.718   6.044 -0.8445  1.1226 -0.0525
 4972SOL    MW419656   1.210   0.700   5.973 -0.0298  0.7943 -0.5412
 4973SOL     OW19657   4.273   2.961   1.787 -0.2935 -0.2633  0.3035
 4973SOL    HW219658   4.319   3.036   1.822  0.0243  0.4453 -1.5247
 4973SOL    HW319659   4.213   2.934   1.857 -1.6299  2.7281  0.4419
 4973SOL    MW419660   4.271   2.967   1.801 -0.4279  0.2249  0.0805
 4974SOL     OW19661   3.320   5.294   1.651 -0.1274 -0.7359  0.1618
 4974SOL    HW219662   3.370   5.236   1.594  2.5456  1.5605 -0.0609
 4974SOL    HW319663   3.243   5.318   1.600 -0.1606 -2.3359 -0.5742
 4974SOL    MW419664   3.316   5.290   1.637  0.2209 -0.6440  0.0353
 4975SOL     OW19665   5.495   4.485   0.126 -0.1434  0.4592 -0.0102
 4975SOL    HW219666   5.525   4.402   0.163  0.9210  0.0535 -1.6925
 4975SOL    HW319667   5.406   4.466   0.095  0.6664 -0.5814 -1.8548
 4975SOL    MW419668   5.487   4.471   0.127  0.1039  0.2684 -0.4755
 4976SOL     OW19669   0.208   1.940   4.385 -0.7056  0.2818  0.0441
 4976SOL    HW219670   0.258   1.889   4.321 -0.3335  0.0988  0.4767
 4976SOL    HW319671   0.247   2.028   4.380  0.2790 -0.0714  1.0110
 4976SOL    MW419672   0.220   1.945   4.376 -0.5266  0.2111  0.2288
 4977SOL     OW19673   5.768   2.725   1.911  0.4368 -0.4375 -0.1268
 4977SOL    HW219674   5.759   2.676   1.829  0.7749 -0.6060 -0.0676
 4977SOL    HW319675   5.736   2.813   1.891 -1.3703 -1.0023  0.0922
 4977SOL    MW419676   5.763   2.730   1.898  0.2430 -0.5342 -0.0901
 4978SOL     OW19677   3.577   3.066   6.093 -0.7407  0.0469 -0.4006
 4978SOL    HW219678   3.638   2.994   6.077 -1.3326 -0.0560 -2.4585
 4978SOL    HW319679   3.513   3.029   6.155  1.0257  0.0751  1.5629
 4978SOL    MW419680   3.576   3.051   6.099 -0.5857  0.0371 -0.4131
 4979SOL     OW19681   5.380   4.110   3.119  0.8586 -0.1911 -0.0811
 4979SOL    HW219682   5.355   4.201   3.130  0.7869 -0.3383  1.0703
 4979SOL    HW319683   5.311   4.072   3.064 -0.0085  0.0510  0.8220
 4979SOL    MW419684   5.368   4.117   3.113  0.7348 -0.1786  0.1899
 4980SOL     OW19685   1.768   1.510   2.923 -0.0084  0.0452  0.1475
 4980SOL    HW219686   1.762   1.606   2.927 -1.2338 -0.0188  0.1536
 4980SOL    HW319687   1.774   1.483   3.015 -0.0192  0.0916  0.1619
 4980SOL    MW419688   1.768   1.519   2.936 -0.1715  0.0429  0.1502
 4981SOL     OW19689   5.605   0.353   6.158 -0.2550 -0.1729 -0.6607
 4981SOL    HW219690   5.660   0.397   6.092 -1.0674  0.8808 -0.6633
 4981SOL    HW319691   5.581   0.423   6.219 -0.9858 -0.7769 -0.2492
 4981SOL    MW419692   5.609   0.368   6.157 -0.4586 -0.1136 -0.6068
 4982SOL     OW19693   1.373   3.264   2.847  0.2656 -0.0765  0.0706
 4982SOL    HW219694   1.324   3.241   2.768 -1.7971 -1.2947  1.6052
 4982SOL    HW319695   1.353   3.357   2.861  0.5652  0.1237 -0.7590
 4982SOL    MW419696   1.364   3.274   2.839  0.0330 -0.2108  0.1636
 4983SOL     OW19697   2.925   4.387   4.501  0.0862  0.2445 -0.4344
 4983SOL    HW219698   2.939   4.481   4.488 -3.2553  1.0031  0.6017
 4983SOL    HW319699   2.872   4.360   4.425 -0.6781 -0.3076  0.2747
 4983SOL    MW419700   2.920   4.396   4.489 -0.4555  0.2717 -0.2041
 4984SOL     OW19701   2.008   0.161   2.765 -0.5006 -0.4316 -0.1671
 4984SOL    HW219702   1.973   0.213   2.693 -0.7867 -0.1185  0.2011
 4984SOL    HW319703   2.100   0.147   2.741 -0.5264 -0.1036 -0.4624
 4984SOL    MW419704   2.016   0.166   2.752 -0.5418 -0.3470 -0.1575
 4985SOL     OW19705   5.393   2.336   5.385  0.0935  0.0861 -0.1627
 4985SOL    HW219706   5.468   2.318   5.327 -1.2584  0.6938 -2.2212
 4985SOL    HW319707   5.381   2.431   5.379 -0.8891 -0.0151  0.0777
 4985SOL    MW419708   5.401   2.346   5.376 -0.2145  0.1529 -0.4026
 4986SOL     OW19709   6.094   1.316   5.319  0.3183  0.2924  0.2335
 4986SOL    HW219710   6.039   1.377   5.269 -1.2917  0.0877  1.6578
 4986SOL    HW319711   6.122   1.367   5.395  1.4161  0.1222 -0.0516
 4986SOL    MW419712   6.090   1.331   5.322  0.2508  0.2429  0.3838
 4987SOL     OW19713   5.258   2.486   0.734  0.6887 -0.1815 -0.0871
 4987SOL    HW219714   5.207   2.529   0.803  0.6740 -1.0715  0.4740
 4987SOL    HW319715   5.332   2.546   0.719 -0.8398  1.5001 -1.4434
 4987SOL    MW419716   5.261   2.500   0.741  0.4851 -0.0770 -0.1920
 4988SOL     OW19717   1.211   1.261   2.546 -0.5532  0.5321 -0.0392
 4988SOL    HW219718   1.172   1.306   2.471 -0.1144  0.9951  0.0036
 4988SOL    HW319719   1.282   1.319   2.574  0.3665 -0.4305 -0.3063
 4988SOL    MW419720   1.215   1.274   2.539 -0.3740  0.4662 -0.0688
 4989SOL     OW19721   2.056   2.907   4.611  0.0988 -0.1801 -0.4142
 4989SOL    HW219722   1.993   2.861   4.667 -0.9930  1.1465 -0.5062
 4989SOL    HW319723   2.026   2.892   4.522 -0.4370  0.9064 -0.4340
 4989SOL    MW419724   2.044   2.899   4.607 -0.1159  0.1383 -0.4290
 4990SOL     OW19725   4.924   5.498   1.874 -0.4992  0.2560 -0.1093
 4990SOL    HW219726   5.019   5.497   1.863 -0.4595  0.2707  0.2093
 4990SOL    HW319727   4.901   5.405   1.882 -0.7147  0.1390 -1.7766
 4990SOL    MW419728   4.934   5.485   1.874 -0.5224  0.2425 -0.2872
 4991SOL     OW19729   3.765   5.295   6.227  0.0281 -0.1876  0.2241
 4991SOL    HW219730   3.695   5.303   6.163  0.7523  0.9076 -0.4636
 4991SOL    HW319731   3.790   5.203   6.224 -0.9723 -0.4630  0.0500
 4991SOL    MW419732   3.759   5.284   6.218 -0.0083 -0.0795  0.1104
 4992SOL     OW19733   0.597   3.124   5.508 -0.2829 -0.2771  0.4156
 4992SOL    HW219734   0.608   3.202   5.562  0.2853 -0.3912  0.4730
 4992SOL    HW319735   0.563   3.058   5.568 -1.5248  0.1290  0.1981
 4992SOL    MW419736   0.594   3.125   5.523 -0.3718 -0.2385  0.3945
 4993SOL     OW19737   2.167   0.979   4.333 -0.1041  0.1475  0.7798
 4993SOL    HW219738   2.183   0.939   4.418 -2.1906  1.0970  1.6790
 4993SOL    HW319739   2.159   0.905   4.273  2.5718 -0.5075  1.1016
 4993SOL    MW419740   2.168   0.964   4.336 -0.0264  0.1863  0.9409
 4994SOL     OW19741   0.721   0.452   3.837 -0.7112 -0.0330  0.2260
 4994SOL    HW219742   0.650   0.469   3.899 -1.1763 -1.2835  0.0744
 4994SOL    HW319743   0.796   0.431   3.891  0.0246  2.7742  0.4366
 4994SOL    MW419744   0.721   0.452   3.852 -0.6755  0.1724  0.2338
 4995SOL     OW19745   4.678   4.703   2.888  0.0312  0.0819 -0.5955
 4995SOL    HW219746   4.723   4.701   2.804 -0.5195  1.0379 -0.9221
 4995SOL    HW319747   4.747   4.682   2.952  0.3224 -1.2521 -1.3122
 4995SOL    MW419748   4.693   4.700   2.885 -0.0030  0.0321 -0.7331
 4996SOL     OW19749   4.932   0.211   3.014  0.5547  0.1829  0.2432
 4996SOL    HW219750   4.968   0.151   3.080 -0.1300  0.1853  0.6261
 4996SOL    HW319751   4.840   0.186   3.006  0.8003 -0.3428 -1.3121
 4996SOL    MW419752   4.925   0.200   3.022  0.4967  0.1138  0.0885
 4997SOL     OW19753   2.215   4.817   3.808 -0.1244 -0.3091 -0.3402
 4997SOL    HW219754   2.153   4.797   3.738 -0.2854 -0.6193 -0.1083
 4997SOL    HW319755   2.252   4.902   3.783  0.4194 -0.7850 -1.2262
 4997SOL    MW419756   2.212   4.825   3.795 -0.0739 -0.4128 -0.4265
 4998SOL     OW19757   4.844   5.229   3.846  0.8057 -0.1504  0.1999
 4998SOL    HW219758   4.938   5.213   3.836  0.5036 -2.1167 -0.0728
 4998SOL    HW319759   4.808   5.219   3.758  0.5319  2.6506 -0.0951
 4998SOL    MW419760   4.852   5.225   3.833  0.7297 -0.0402  0.1250
 4999SOL     OW19761   0.887   6.282   5.438  0.0437  0.2224 -0.9552
 4999SOL    HW219762   0.941   6.226   5.382  1.0503  0.0086  0.1666
 4999SOL    HW319763   0.945   6.306   5.511 -1.1877  0.5128 -0.0252
 4999SOL    MW419764   0.902   6.277   5.440  0.0140  0.2325 -0.6845
 5000SOL     OW19765   5.937   5.626   2.190 -0.3593 -0.2710  0.4832
 5000SOL    HW219766   5.977   5.671   2.116 -1.3083  2.2342  1.3863
 5000SOL    HW319767   5.933   5.534   2.163 -0.2997  0.4745 -2.3712
 5000SOL    MW419768   5.942   5.620   2.177 -0.4766  0.1579  0.2257
 5001SOL     OW19769   5.300   1.535   0.581  0.5085 -0.4169 -0.0762
 5001SOL    HW219770   5.355   1.499   0.651  1.4073 -0.0995 -0.6011
 5001SOL    HW319771   5.211   1.527   0.614  0.9150 -0.2863  1.0984
 5001SOL    MW419772   5.296   1.529   0.595  0.6807 -0.3578  0.0095
 5002SOL     OW19773   0.971   0.447   4.956  0.0029 -0.6872 -0.2695
 5002SOL    HW219774   1.065   0.430   4.966  0.1448 -0.3377 -0.9307
 5002SOL    HW319775   0.930   0.361   4.963  0.1293 -0.6085  2.3387
 5002SOL    MW419776   0.978   0.433   4.958  0.0383 -0.6307 -0.0126
 5003SOL     OW19777   5.314   3.596   4.522 -0.3828  0.1994  0.0413
 5003SOL    HW219778   5.296   3.674   4.575 -2.0697  0.2547 -0.5519
 5003SOL    HW319779   5.401   3.566   4.551  0.2668  2.2343  0.3349
 5003SOL    MW419780   5.323   3.602   4.533 -0.5197  0.4752  0.0017
 5004SOL     OW19781   4.254   2.814   5.285 -0.0679  0.1936 -0.1889
 5004SOL    HW219782   4.228   2.766   5.364  1.1718 -0.5346 -0.1926
 5004SOL    HW319783   4.186   2.880   5.273 -0.9822 -0.5558  0.7216
 5004SOL    MW419784   4.242   2.817   5.294 -0.0250 -0.0013 -0.0693
 5005SOL     OW19785   2.577   4.671   0.186 -0.8956  0.2321  0.4716
 5005SOL    HW219786   2.644   4.606   0.168 -1.6869 -0.6056  0.5156
 5005SOL    HW319787   2.604   4.748   0.135 -1.1426 -0.8611 -1.3698
 5005SOL    MW419788   2.590   4.673   0.177 -1.0326 -0.0226  0.2345
 5006SOL     OW19789   3.571   3.753   5.305 -0.2186 -0.1283 -0.7475
 5006SOL    HW219790   3.549   3.842   5.276 -1.5397 -0.1630  0.0251
 5006SOL    HW319791   3.596   3.707   5.225  2.1013  1.3396 -0.9673
 5006SOL    MW419792   3.571   3.759   5.291 -0.0868  0.0608 -0.6745
 5007SOL     OW19793   3.278   4.371   0.360  0.0476  0.3762  0.5732
 5007SOL    HW219794   3.316   4.286   0.379  0.8886  1.0625  2.1765
 5007SOL    HW319795   3.183   4.356   0.358  0.2465 -1.0964 -2.1231
 5007SOL    MW419796   3.270   4.358   0.362  0.1848  0.2724  0.4290
 5008SOL     OW19797   5.233   4.626   5.752 -0.0702 -0.2144 -0.0222
 5008SOL    HW219798   5.231   4.535   5.783  0.8181  0.0203  0.7426
 5008SOL    HW319799   5.265   4.676   5.827  0.2063  0.6280 -0.6961
 5008SOL    MW419800   5.237   4.620   5.766  0.0835 -0.0723 -0.0102
 5009SOL     OW19801   5.821   4.304   6.168 -0.0609 -0.2996 -0.5217
 5009SOL    HW219802   5.883   4.368   6.134 -1.0442  0.8388 -0.2232
 5009SOL    HW319803   5.754   4.355   6.213 -1.2246 -1.4817 -0.8227
 5009SOL    MW419804   5.821   4.319   6.169 -0.3442 -0.3054 -0.5220
 5010SOL     OW19805   2.284   3.417   1.845 -0.2339  0.1814 -0.0346
 5010SOL    HW219806   2.334   3.353   1.894  1.9315  0.6413 -1.5042
 5010SOL    HW319807   2.254   3.480   1.911 -0.0505 -0.8326  1.0459
 5010SOL    MW419808   2.286   3.417   1.860  0.0760  0.1083 -0.0859
 5011SOL     OW19809   1.712   3.255   1.951  1.1439  0.4580  0.5396
 5011SOL    HW219810   1.676   3.191   2.014  1.8871  1.2292  1.7932
 5011SOL    HW319811   1.638   3.276   1.894  0.7759 -1.1968  0.3549
 5011SOL    MW419812   1.697   3.249   1.952  1.1934  0.3414  0.6806
 5012SOL     OW19813   5.859   5.813   2.370 -1.1542 -0.1364 -0.0906
 5012SOL    HW219814   5.936   5.870   2.370 -2.0288  1.0871  0.2075
 5012SOL    HW319815   5.883   5.741   2.313  0.4982 -0.1904  0.6090
 5012SOL    MW419816   5.873   5.811   2.363 -1.0516  0.0179  0.0410
 5013SOL     OW19817   4.023   4.808   3.575  0.0014 -0.1542  0.1131
 5013SOL    HW219818   4.025   4.745   3.647 -1.7712  0.0292  0.3750
 5013SOL    HW319819   4.063   4.762   3.501 -0.5751 -1.3100  0.5088
 5013SOL    MW419820   4.029   4.794   3.575 -0.3086 -0.2825  0.1999
 5014SOL     OW19821   2.957   0.332   1.344  0.1665  0.0039  0.3567
 5014SOL    HW219822   3.011   0.400   1.384 -0.6819  0.2367  1.1296
 5014SOL    HW319823   2.955   0.355   1.251  1.3931 -0.0180  0.3113
 5014SOL    MW419824   2.964   0.344   1.337  0.2164  0.0317  0.4527
 5015SOL     OW19825   1.765   1.049   4.204  0.0107  0.0965  0.8170
 5015SOL    HW219826   1.811   0.996   4.268  1.2979 -0.6643 -0.6531
 5015SOL    HW319827   1.710   0.987   4.156  1.7426 -0.0657 -1.1030
 5015SOL    MW419828   1.764   1.034   4.206  0.4090 -0.0253  0.3697
 5016SOL     OW19829   4.848   1.690   4.794  0.8882 -0.1073  0.1946
 5016SOL    HW219830   4.875   1.751   4.862  0.6692 -0.6751  0.8028
 5016SOL    HW319831   4.773   1.644   4.831 -0.0453  0.4678 -0.9281
 5016SOL    MW419832   4.842   1.692   4.808  0.7362 -0.1063  0.1267
 5017SOL     OW19833   2.004   3.950   5.903  0.0690 -0.2318  0.4840
 5017SOL    HW219834   1.968   3.998   5.829  0.4391  1.7784  1.5224
 5017SOL    HW319835   1.930   3.936   5.962  0.3839  1.2882  1.2835
 5017SOL    MW419836   1.990   3.954   5.901  0.1594  0.2340  0.7265
 5018SOL     OW19837   2.418   5.502   1.776  0.1699  0.6400 -0.0173
 5018SOL    HW219838   2.400   5.410   1.755  3.1611  0.1674 -0.9677
 5018SOL    HW319839   2.394   5.511   1.868  1.1781 -1.5278  0.5148
 5018SOL    MW419840   2.412   5.491   1.785  0.6975  0.2916 -0.0725
 5019SOL     OW19841   4.012   0.635   2.136 -0.3914 -0.2280 -0.2757
 5019SOL    HW219842   4.034   0.717   2.091 -2.6015  0.3470 -0.4228
 5019SOL    HW319843   3.986   0.662   2.224  0.9624 -1.0297  0.3962
 5019SOL    MW419844   4.011   0.649   2.142 -0.5044 -0.2579 -0.2064
 5020SOL     OW19845   5.448   3.098   5.692 -0.2437 -0.5158  0.2920
 5020SOL    HW219846   5.463   3.107   5.598  1.5133  0.6962  0.6256
 5020SOL    HW319847   5.407   3.013   5.703  0.5237 -1.1533 -1.4875
 5020SOL    MW419848   5.445   3.088   5.681  0.0894 -0.4400  0.1012
 5021SOL     OW19849   0.204   6.020   3.268 -0.0253  0.0291  0.4491
 5021SOL    HW219850   0.164   5.966   3.199  0.3201  0.4429 -0.0815
 5021SOL    HW319851   0.246   6.092   3.221  0.0044  0.4531  1.1159
 5021SOL    MW419852   0.204   6.022   3.253  0.0242  0.1396  0.4671
 5022SOL     OW19853   6.078   1.277   2.943 -0.2044 -0.0583 -0.2199
 5022SOL    HW219854   6.068   1.363   2.902 -2.9803 -0.2949 -0.2297
 5022SOL    HW319855   6.128   1.294   3.023 -1.6508  1.7897  0.3629
 5022SOL    MW419856   6.084   1.290   2.948 -0.7615  0.1543 -0.1443
 5023SOL     OW19857   3.143   4.750   5.392  0.4203 -0.3356  0.0337
 5023SOL    HW219858   3.214   4.700   5.432  0.5827  0.0608  0.2419
 5023SOL    HW319859   3.146   4.835   5.435  1.1929  0.4242 -1.4581
 5023SOL    MW419860   3.153   4.755   5.403  0.5436 -0.1831 -0.1357
 5024SOL     OW19861   0.382   2.054   1.585  0.1792 -0.1395 -0.2954
 5024SOL    HW219862   0.322   1.993   1.629  0.1325 -0.4020 -0.7178
 5024SOL    HW319863   0.468   2.034   1.623 -0.0759  0.5965  0.6928
 5024SOL    MW419864   0.386   2.043   1.596  0.1393 -0.0770 -0.2207
 5025SOL     OW19865   5.578   0.693   2.483 -0.5796 -0.0672  0.6201
 5025SOL    HW219866   5.495   0.718   2.523 -0.0967  0.0369  1.6164
 5025SOL    HW319867   5.638   0.763   2.508  0.1239 -0.8042  1.0835
 5025SOL    MW419868   5.575   0.705   2.492 -0.4230 -0.1507  0.8127
 5026SOL     OW19869   3.489   1.989   3.628 -0.0146 -0.4258  0.4234
 5026SOL    HW219870   3.543   1.978   3.707  1.5065  2.0409 -0.1518
 5026SOL    HW319871   3.422   2.053   3.654 -0.0808 -0.3079 -0.0373
 5026SOL    MW419872   3.487   1.996   3.642  0.1773 -0.0848  0.2867
 5027SOL     OW19873   1.060   1.541   1.845 -0.3158  0.1677 -0.5538
 5027SOL    HW219874   1.000   1.467   1.850  0.1278 -0.1198  0.9478
 5027SOL    HW319875   1.004   1.618   1.847 -0.6625 -0.0740  1.7624
 5027SOL    MW419876   1.045   1.542   1.846 -0.3030  0.0979 -0.0501
 5028SOL     OW19877   1.780   0.098   2.168  0.2879 -0.0898 -0.3892
 5028SOL    HW219878   1.706   0.103   2.108 -0.3132  0.7392  0.3872
 5028SOL    HW319879   1.826   0.181   2.157 -0.5422  0.6279  1.1480
 5028SOL    MW419880   1.776   0.110   2.159  0.0991  0.1142 -0.0840
 5029SOL     OW19881   4.706   1.054   5.703  0.0538  0.2949 -0.3349
 5029SOL    HW219882   4.691   1.106   5.783  0.6190 -1.3042  0.8605
 5029SOL    HW319883   4.800   1.058   5.689  0.4955 -2.2845  1.2017
 5029SOL    MW419884   4.716   1.062   5.712  0.1866 -0.2564  0.0255
 5030SOL     OW19885   5.691   6.254   4.553  0.1089  0.4457 -0.3374
 5030SOL    HW219886   5.727   6.339   4.527  2.7160 -0.6178 -0.5520
 5030SOL    HW319887   5.768   6.200   4.568 -1.4237 -1.2520  2.0637
 5030SOL    MW419888   5.706   6.258   4.552  0.2507  0.0814 -0.0489
 5031SOL     OW19889   0.259   4.645   1.250 -0.0065 -0.2633 -0.6708
 5031SOL    HW219890   0.285   4.638   1.158  1.0291 -1.7374 -0.3059
 5031SOL    HW319891   0.168   4.616   1.251  0.3052 -1.2957 -1.1053
 5031SOL    MW419892   0.250   4.640   1.238  0.1713 -0.5940 -0.6800
 5032SOL     OW19893   5.777   3.979   6.309 -0.8350  0.2935  0.4052
 5032SOL    HW219894   5.802   3.909   6.369  0.6155  0.1634 -0.3036
 5032SOL    HW319895   5.860   4.016   6.279 -1.5540  2.0461  0.4246
 5032SOL    MW419896   5.791   3.975   6.313 -0.7385  0.5076  0.3142
 5033SOL     OW19897   5.288   4.907   1.362 -0.0622 -1.0997  0.6483
 5033SOL    HW219898   5.214   4.867   1.407  0.3383 -0.6990  1.6848
 5033SOL    HW319899   5.264   4.999   1.352 -0.5473 -1.3552 -0.8290
 5033SOL    MW419900   5.275   4.914   1.366 -0.0733 -1.0805  0.5901
 5034SOL     OW19901   1.106   4.542   5.304 -0.2550 -0.4981 -0.0840
 5034SOL    HW219902   1.187   4.587   5.329  0.1917 -0.7263 -1.0833
 5034SOL    HW319903   1.102   4.466   5.362  0.7330 -0.9906 -0.6331
 5034SOL    MW419904   1.116   4.538   5.315 -0.0657 -0.5932 -0.2883
 5035SOL     OW19905   3.279   4.403   1.472  0.2214 -0.1868  0.1314
 5035SOL    HW219906   3.264   4.480   1.417 -0.0257  0.3362  0.9164
 5035SOL    HW319907   3.224   4.334   1.433 -2.4064  0.9998  1.4735
 5035SOL    MW419908   3.270   4.404   1.460 -0.1579  0.0388  0.4121
 5036SOL     OW19909   2.213   5.454   0.941  0.0892  0.4961  0.1702
 5036SOL    HW219910   2.296   5.425   0.980  0.7025 -0.1298 -1.5073
 5036SOL    HW319911   2.203   5.544   0.970  0.0863 -0.1715  2.4116
 5036SOL    MW419912   2.223   5.462   0.950  0.1698  0.3254  0.2446
 5037SOL     OW19913   2.698   5.965   2.276  0.0620 -0.3350  0.2004
 5037SOL    HW219914   2.623   6.016   2.307  0.1829 -0.1764  0.2360
 5037SOL    HW319915   2.683   5.955   2.182  0.3126  0.2397  0.0952
 5037SOL    MW419916   2.686   5.970   2.268  0.1110 -0.2382  0.1912
 5038SOL     OW19917   0.603   4.837   3.552  0.3145  0.3717  0.1340
 5038SOL    HW219918   0.587   4.921   3.508  0.5512  0.0428 -0.5918
 5038SOL    HW319919   0.675   4.855   3.613  0.2293  0.7415  0.1270
 5038SOL    MW419920   0.611   4.851   3.554  0.3345  0.3771  0.0373
 5039SOL     OW19921   0.659   1.041   5.057 -0.0134 -0.2124 -0.1178
 5039SOL    HW219922   0.717   1.106   5.017 -0.9178 -0.1045 -1.3023
 5039SOL    HW319923   0.719   0.976   5.094  0.8846  0.5072 -0.2624
 5039SOL    MW419924   0.675   1.041   5.056 -0.0143 -0.1032 -0.2932
 5040SOL     OW19925   5.521   0.132   3.830  0.2993 -0.0868 -0.2825
 5040SOL    HW219926   5.547   0.116   3.739 -0.0000  0.8404 -0.5452
 5040SOL    HW319927   5.458   0.062   3.849  0.5121 -0.4044 -0.7155
 5040SOL    MW419928   5.516   0.120   3.820  0.2879 -0.0064 -0.3743
 5041SOL     OW19929   6.161   6.068   2.575  0.1049 -0.7285 -0.5895
 5041SOL    HW219930   6.077   6.071   2.620 -0.4307 -0.5229 -1.5593
 5041SOL    HW319931   6.189   5.977   2.582 -0.2213 -0.8080 -0.2954
 5041SOL    MW419932   6.154   6.056   2.582 -0.0088 -0.7119 -0.6786
 5042SOL     OW19933   5.541   5.200   3.178 -0.3654  0.8853 -0.0585
 5042SOL    HW219934   5.532   5.119   3.229  0.2157 -0.0207 -1.3482
 5042SOL    HW319935   5.596   5.256   3.232 -1.0924  0.5964  1.0319
 5042SOL    MW419936   5.547   5.196   3.192 -0.3847  0.7277 -0.0848
 5043SOL     OW19937   2.321   1.779   5.861 -0.3938 -0.1834 -0.5639
 5043SOL    HW219938   2.335   1.843   5.791  0.6487 -0.7104 -0.8638
 5043SOL    HW319939   2.393   1.716   5.850 -0.2052 -0.2761  0.9820
 5043SOL    MW419940   2.333   1.779   5.850 -0.2313 -0.2652 -0.3995
 5044SOL     OW19941   3.445   3.621   1.752 -0.7293  0.3538 -0.8681
 5044SOL    HW219942   3.517   3.679   1.779  0.3975 -0.5951 -1.7344
 5044SOL    HW319943   3.452   3.545   1.810 -0.2281 -0.3050 -1.7703
 5044SOL    MW419944   3.456   3.619   1.763 -0.5145  0.1417 -1.1014
 5045SOL     OW19945   5.731   5.445   3.014 -0.0718 -0.3184  0.2021
 5045SOL    HW219946   5.656   5.415   2.963  0.1574  1.7378 -1.4214
 5045SOL    HW319947   5.763   5.522   2.969  1.4174  0.4289  2.3459
 5045SOL    MW419948   5.725   5.451   3.002  0.1549  0.0515  0.2708
 5046SOL     OW19949   4.100   1.360   0.982  0.0358 -0.3922  0.0513
 5046SOL    HW219950   4.099   1.392   1.072 -1.2488  1.0393 -0.4067
 5046SOL    HW319951   4.016   1.314   0.972  0.8513 -1.9311  0.0078
 5046SOL    MW419952   4.088   1.358   0.992 -0.0261 -0.4064 -0.0148
 5047SOL     OW19953   0.669   1.763   3.154 -0.1026  0.6644 -0.9140
 5047SOL    HW219954   0.724   1.841   3.165 -1.8989  1.9126 -0.4370
 5047SOL    HW319955   0.724   1.691   3.184  0.8107  2.0267  0.8339
 5047SOL    MW419956   0.684   1.764   3.159 -0.2191  1.0088 -0.6204
 5048SOL     OW19957   2.508   4.077   3.569  0.3791  0.5145 -0.3112
 5048SOL    HW219958   2.515   4.059   3.663  0.8363  0.2117 -0.4017
 5048SOL    HW319959   2.556   4.005   3.527 -0.4612  0.2282 -0.8088
 5048SOL    MW419960   2.515   4.065   3.576  0.3285  0.4368 -0.3888
 5049SOL     OW19961   2.247   1.359   2.044  0.0834  0.2084 -0.6786
 5049SOL    HW219962   2.192   1.309   1.983  0.9981 -0.1232 -1.2542
 5049SOL    HW319963   2.293   1.422   1.989 -0.8691  1.5444  0.0156
 5049SOL    MW419964   2.246   1.361   2.029  0.0784  0.3409 -0.6630
 5050SOL     OW19965   4.535   2.318   2.723  0.3443  0.0379 -0.0283
 5050SOL    HW219966   4.626   2.319   2.692 -0.0976  2.3790 -1.4842
 5050SOL    HW319967   4.483   2.316   2.643 -0.9091 -0.1901  0.7745
 5050SOL    MW419968   4.540   2.318   2.708  0.1206  0.3167 -0.1145
 5051SOL     OW19969   1.727   3.886   4.514 -0.3329 -0.6166 -0.9587
 5051SOL    HW219970   1.704   3.962   4.461 -0.4075 -0.6417 -0.9623
 5051SOL    HW319971   1.750   3.819   4.451  0.7124 -0.2932 -0.9402
 5051SOL    MW419972   1.727   3.887   4.499 -0.2048 -0.5773 -0.9567
 5052SOL     OW19973   3.091   2.539   6.212 -0.2258  0.2593 -0.6315
 5052SOL    HW219974   3.156   2.471   6.199 -0.2643 -1.0469  4.0720
 5052SOL    HW319975   3.008   2.493   6.223 -0.7841  1.2931 -0.2662
 5052SOL    MW419976   3.088   2.524   6.212 -0.3045  0.2233  0.0373
 5053SOL     OW19977   0.310   5.800   1.511  0.2246  0.2302 -0.1455
 5053SOL    HW219978   0.363   5.819   1.588 -1.2927 -1.7153  1.4860
 5053SOL    HW319979   0.322   5.706   1.496 -2.0955 -0.0997 -0.2163
 5053SOL    MW419980   0.319   5.790   1.519 -0.2817 -0.0700  0.0604
 5054SOL     OW19981   4.614   3.113   0.003 -0.1536  0.3004  0.3618
 5054SOL    HW219982   4.651   3.154   0.082  0.2188 -0.8857  0.8307
 5054SOL    HW319983   4.524   3.146  -0.001  0.0128  0.8498  0.9324
 5054SOL    MW419984   4.607   3.123   0.013 -0.0825  0.2164  0.4989
 5055SOL     OW19985   2.691   3.179   2.133  0.3671 -0.3998 -0.1242
 5055SOL    HW219986   2.709   3.178   2.227  1.0317 -0.1520 -0.2361
 5055SOL    HW319987   2.671   3.089   2.110  3.1659 -1.0732 -0.2608
 5055SOL    MW419988   2.691   3.167   2.142  0.8240 -0.4559 -0.1570
 5056SOL     OW19989   6.010   0.406   2.935  0.4957  0.4168 -0.1245
 5056SOL    HW219990   6.035   0.498   2.941  1.4373  0.1811 -0.3174
 5056SOL    HW319991   5.995   0.391   2.842  1.7575  0.0296 -0.2863
 5056SOL    MW419992   6.011   0.416   2.923  0.7864  0.3346 -0.1713
 5057SOL     OW19993   2.195   0.152   4.613  0.1947  0.3949  0.4852
 5057SOL    HW219994   2.269   0.181   4.666 -0.7045  2.0940  0.8807
 5057SOL    HW319995   2.189   0.058   4.630  1.8269  0.3475  0.9602
 5057SOL    MW419996   2.204   0.144   4.622  0.2914  0.6128  0.6000
 5058SOL     OW19997   3.323   1.714   5.185 -0.0065 -0.8908  0.2330
 5058SOL    HW219998   3.231   1.740   5.190 -0.1111 -1.0256 -0.7470
 5058SOL    HW319999   3.338   1.699   5.092  1.4806  0.9049  0.1107
 5058SOL    MW420000   3.313   1.716   5.173  0.1759 -0.6717  0.0875
 5059SOL     OW20001   1.426   6.104   1.577 -0.2866 -0.2239 -0.2589
 5059SOL    HW220002   1.517   6.079   1.561  0.2106  0.7144  0.9565
 5059SOL    HW320003   1.379   6.021   1.582  0.5993 -0.7379 -0.3317
 5059SOL    MW420004   1.432   6.090   1.576 -0.1041 -0.1679 -0.1081
 5060SOL     OW20005   3.312   2.525   3.750  0.2573  0.1080  0.3767
 5060SOL    HW220006   3.371   2.477   3.693 -1.6774  1.2288 -2.8537
 5060SOL    HW320007   3.257   2.457   3.790  0.8455 -0.6369 -0.0490
 5060SOL    MW420008   3.312   2.509   3.748  0.0797  0.1576 -0.1057
 5061SOL     OW20009   2.835   2.829   0.312  0.2023 -0.3712 -0.3937
 5061SOL    HW220010   2.899   2.759   0.298  0.7997  0.2791 -0.9588
 5061SOL    HW320011   2.867   2.902   0.260  0.1044  0.6634  0.9395
 5061SOL    MW420012   2.847   2.829   0.304  0.2682 -0.1489 -0.2924
 5062SOL     OW20013   2.662   2.067   5.217  0.1121  0.4547 -0.1704
 5062SOL    HW220014   2.590   2.005   5.210  0.6798 -0.2446  0.0719
 5062SOL    HW320015   2.706   2.045   5.299  0.9835  0.4467 -0.6170
 5062SOL    MW420016   2.659   2.056   5.227  0.3020  0.3614 -0.1973
 5063SOL     OW20017   0.433   3.005   0.836  0.0579  0.5446  0.0370
 5063SOL    HW220018   0.401   3.092   0.860  0.1547  0.5054  0.3052
 5063SOL    HW320019   0.424   2.953   0.916  1.1052  0.6129  0.2145
 5063SOL    MW420020   0.427   3.009   0.849  0.2088  0.5484  0.0958
 5064SOL     OW20021   0.721   1.778   6.324  0.0319 -0.0632 -0.6660
 5064SOL    HW220022   0.763   1.769   6.238  1.1145 -0.1829 -0.1345
 5064SOL    HW320023   0.793   1.776   6.387 -0.7373  0.1607  0.2470
 5064SOL    MW420024   0.736   1.777   6.321  0.0732 -0.0494 -0.4754
 5065SOL     OW20025   6.414   2.778   1.329 -0.2259  0.1825 -0.2370
 5065SOL    HW220026   6.319   2.767   1.327 -0.3262  1.0184 -0.5943
 5065SOL    HW320027   6.449   2.696   1.292 -0.8624  0.4018 -1.3722
 5065SOL    MW420028   6.406   2.765   1.324 -0.3231  0.3217 -0.4339
 5066SOL     OW20029   5.258   4.270   1.717 -0.4308  0.2349  0.0468
 5066SOL    HW220030   5.205   4.349   1.706 -1.6443 -0.6393 -0.7393
 5066SOL    HW320031   5.204   4.212   1.771  0.1474 -0.3083  0.0559
 5066SOL    MW420032   5.244   4.273   1.722 -0.5146  0.0479 -0.0557
 5067SOL     OW20033   1.298   0.800   4.207 -0.1772  0.0449 -0.0062
 5067SOL    HW220034   1.333   0.843   4.129 -0.8791 -0.2676 -0.4998
 5067SOL    HW320035   1.258   0.871   4.258 -0.0390  0.1947 -0.1073
 5067SOL    MW420036   1.297   0.815   4.204 -0.2516  0.0234 -0.0847
 5068SOL     OW20037   4.861   5.805   0.361  0.5262 -0.0563  0.2538
 5068SOL    HW220038   4.952   5.796   0.332  0.3876  1.7708 -0.8915
 5068SOL    HW320039   4.812   5.745   0.305  0.6795  1.1150 -1.1854
 5068SOL    MW420040   4.867   5.796   0.350  0.5281  0.3393 -0.0872
 5069SOL     OW20041   3.178   4.524   3.227 -0.0257 -0.1839  0.7315
 5069SOL    HW220042   3.147   4.452   3.282 -1.3635 -0.0591  0.1785
 5069SOL    HW320043   3.110   4.591   3.235  0.8966  0.7835  0.7514
 5069SOL    MW420044   3.165   4.523   3.235 -0.0805 -0.0398  0.6611
 5070SOL     OW20045   1.401   4.917   3.301  0.3509  0.6155 -0.0042
 5070SOL    HW220046   1.314   4.942   3.268  0.3831  1.3189  0.4150
 5070SOL    HW320047   1.407   4.823   3.286 -1.2746  0.1665  1.7769
 5070SOL    MW420048   1.391   4.908   3.294  0.1407  0.6491  0.2861
 5071SOL     OW20049   1.984   5.263   1.472 -0.3655 -0.4123 -0.6237
 5071SOL    HW220050   1.890   5.274   1.485 -0.2393  0.0601 -0.0656
 5071SOL    HW320051   2.004   5.319   1.397 -0.0133  2.1139  1.1985
 5071SOL    MW420052   1.974   5.272   1.464 -0.3024 -0.0167 -0.3097
 5072SOL     OW20053   0.527   4.126   2.062  0.0820  0.2617 -0.6034
 5072SOL    HW220054   0.479   4.145   2.143 -0.5167 -4.4602  0.4506
 5072SOL    HW320055   0.465   4.149   1.992 -0.4669  1.8584  0.3492
 5072SOL    MW420056   0.512   4.131   2.064 -0.0694 -0.1506 -0.3386
 5073SOL     OW20057   1.220   5.849   6.110 -0.3033  0.4097 -0.6051
 5073SOL    HW220058   1.148   5.911   6.104 -1.6365 -0.9960  0.1165
 5073SOL    HW320059   1.177   5.764   6.121  1.4620 -0.3429  1.0190
 5073SOL    MW420060   1.205   5.846   6.111 -0.2463  0.1249 -0.2956
 5074SOL     OW20061   0.517   2.021   2.235  0.0439  0.3638 -0.6909
 5074SOL    HW220062   0.467   2.021   2.154  0.6188  0.2040 -1.0447
 5074SOL    HW320063   0.508   1.932   2.269  0.9204  0.0384 -1.2764
 5074SOL    MW420064   0.509   2.009   2.229  0.2354  0.2998 -0.8148
 5075SOL     OW20065   6.268   1.726   4.621  0.0888  0.0452  0.2068
 5075SOL    HW220066   6.233   1.777   4.548  1.3039  3.4644  1.8135
 5075SOL    HW320067   6.190   1.695   4.668 -0.7631  1.9545  0.1236
 5075SOL    MW420068   6.253   1.729   4.617  0.1367  0.7483  0.4078
 5076SOL     OW20069   2.240   0.234   1.253  0.1732  0.1044  0.1683
 5076SOL    HW220070   2.202   0.195   1.332  0.6107 -1.8856 -0.5311
 5076SOL    HW320071   2.331   0.204   1.254  0.2665  0.3418 -0.9155
 5076SOL    MW420072   2.247   0.225   1.264  0.2432 -0.1268 -0.0670
 5077SOL     OW20073   0.774   3.584   1.177  0.0905  0.3476  0.1407
 5077SOL    HW220074   0.858   3.620   1.206 -0.2156  0.6607  0.6443
 5077SOL    HW320075   0.773   3.600   1.083 -0.8814  3.4676  0.5738
 5077SOL    MW420076   0.785   3.591   1.169 -0.0781  0.8006  0.2643
 5078SOL     OW20077   5.749   0.295   2.340 -0.3644  0.6081 -0.1365
 5078SOL    HW220078   5.687   0.223   2.345 -1.3120  1.1942 -2.2488
 5078SOL    HW320079   5.748   0.334   2.427 -0.1942 -1.5817  0.9063
 5078SOL    MW420080   5.740   0.291   2.352 -0.4669  0.3965 -0.2776
 5079SOL     OW20081   0.524   3.583   1.262 -0.3530 -0.0155 -0.0306
 5079SOL    HW220082   0.517   3.571   1.356 -1.6038  0.4371 -0.0572
 5079SOL    HW320083   0.618   3.579   1.245  0.1950  2.9139  1.6505
 5079SOL    MW420084   0.536   3.581   1.272 -0.4457  0.4307  0.1877
 5080SOL     OW20085   1.812   4.859   2.068 -0.1871 -0.1613 -0.0155
 5080SOL    HW220086   1.734   4.869   2.015  0.1626  0.6545 -0.4004
 5080SOL    HW320087   1.860   4.941   2.057 -0.1820  0.1113  1.6982
 5080SOL    MW420088   1.808   4.871   2.060 -0.1403 -0.0177  0.1598
 5081SOL     OW20089   1.089   3.016   4.473 -0.2595  0.1327  0.4006
 5081SOL    HW220090   1.162   2.977   4.522 -0.5574 -1.1732 -0.1325
 5081SOL    HW320091   1.088   3.108   4.500  1.8339  0.2920  0.1049
 5081SOL    MW420092   1.099   3.023   4.483 -0.0226 -0.0186  0.2913
 5082SOL     OW20093   5.710   1.741   5.686 -0.3072 -1.2300  0.0339
 5082SOL    HW220094   5.733   1.661   5.639  2.8194  0.3862 -1.5024
 5082SOL    HW320095   5.779   1.804   5.663 -2.0187  1.6303  1.9602
 5082SOL    MW420096   5.722   1.739   5.677 -0.1205 -0.6394  0.0854
 5083SOL     OW20097   3.571   4.608   2.634 -0.3899 -0.1175 -0.1895
 5083SOL    HW220098   3.638   4.543   2.655 -1.2493 -0.4758  1.6364
 5083SOL    HW320099   3.517   4.565   2.567  0.9916  0.0613 -1.4531
 5083SOL    MW420100   3.573   4.594   2.628 -0.3210 -0.1412 -0.1153
 5084SOL     OW20101   2.245   2.425   3.737  0.1014  0.4694  0.2303
 5084SOL    HW220102   2.323   2.469   3.771  2.0143 -2.1367 -0.4076
 5084SOL    HW320103   2.222   2.361   3.805 -0.9382  0.5902  0.0081
 5084SOL    MW420104   2.252   2.422   3.750  0.2166  0.1415  0.1168
 5085SOL     OW20105   3.960   2.637   2.678  0.4886  0.0023  0.3562
 5085SOL    HW220106   3.874   2.672   2.657  0.7851  1.0262  0.7987
 5085SOL    HW320107   4.016   2.714   2.689  1.7258 -0.6614 -0.9537
 5085SOL    MW420108   3.956   2.652   2.677  0.6909  0.0498  0.2418
 5086SOL     OW20109   5.292   0.490   1.982  0.0168 -0.4895 -0.1317
 5086SOL    HW220110   5.273   0.472   2.074  0.8116 -0.7600 -0.0176
 5086SOL    HW320111   5.259   0.413   1.935 -2.4368  0.6055 -0.3392
 5086SOL    MW420112   5.285   0.478   1.988 -0.2021 -0.3807 -0.1440
 5087SOL     OW20113   3.916   4.838   1.897  0.2482  0.1285 -0.0520
 5087SOL    HW220114   3.988   4.793   1.853 -0.7078 -1.2192 -0.3307
 5087SOL    HW320115   3.933   4.931   1.884  0.6392 -0.1985 -2.2866
 5087SOL    MW420116   3.928   4.844   1.889  0.1737 -0.0925 -0.3836
 5088SOL     OW20117   4.026   6.039   6.350  0.3216 -0.1568  0.8886
 5088SOL    HW220118   4.007   6.079   6.265  0.4624  0.0618  0.9561
 5088SOL    HW320119   4.001   5.948   6.341 -2.9153  0.5188  1.6608
 5088SOL    MW420120   4.020   6.033   6.338 -0.0869 -0.0388  0.9994
 5089SOL     OW20121   0.087   2.682   2.104 -0.5370  0.4225  0.8867
 5089SOL    HW220122   0.144   2.695   2.029 -0.3145  2.7588  1.3777
 5089SOL    HW320123   0.014   2.744   2.090 -0.3332  1.1455  2.6897
 5089SOL    MW420124   0.085   2.692   2.092 -0.4808  0.8261  1.1894
 5090SOL     OW20125   0.585   2.537   2.981  0.0114 -0.1892 -0.2233
 5090SOL    HW220126   0.646   2.477   3.023  1.2278  0.2027 -1.3924
 5090SOL    HW320127   0.501   2.491   2.984 -0.0880 -0.0006  3.0058
 5090SOL    MW420128   0.582   2.523   2.987  0.1588 -0.1126  0.0485
 5091SOL     OW20129   5.728   2.121   4.704 -0.3434  0.0223 -0.4450
 5091SOL    HW220130   5.654   2.084   4.752  1.0705  0.6098  2.4393
 5091SOL    HW320131   5.766   2.046   4.658 -0.6286 -1.0632  1.0038
 5091SOL    MW420132   5.723   2.106   4.704 -0.1945 -0.0434  0.1267
 5092SOL     OW20133   2.843   6.293   2.888  0.3756  0.8573 -0.4864
 5092SOL    HW220134   2.853   6.352   2.962  1.3083  0.8347 -0.5914
 5092SOL    HW320135   2.759   6.319   2.848 -1.5132 -0.8128  2.0607
 5092SOL    MW420136   2.833   6.304   2.893  0.2495  0.6340 -0.1642
 5093SOL     OW20137   2.366   1.392   1.411  0.3699  0.3660  0.0057
 5093SOL    HW220138   2.457   1.369   1.394  1.4087  2.1633  2.4506
 5093SOL    HW320139   2.344   1.455   1.342  0.7164 -0.5967 -1.0063
 5093SOL    MW420140   2.375   1.398   1.399  0.5527  0.4761  0.1947
 5094SOL     OW20141   6.197   3.340   5.714  0.1743  0.5290 -0.1931
 5094SOL    HW220142   6.130   3.279   5.684  1.9062 -1.6085  0.0053
 5094SOL    HW320143   6.190   3.341   5.809 -0.1737  1.0457 -0.2218
 5094SOL    MW420144   6.188   3.332   5.722  0.3569  0.3152 -0.1707
 5095SOL     OW20145   4.335   5.887   0.621 -0.2892  0.2324  1.0109
 5095SOL    HW220146   4.356   5.809   0.673 -1.5462 -0.4685  0.5115
 5095SOL    HW320147   4.378   5.958   0.668 -0.0365 -0.6049  2.1154
 5095SOL    MW420148   4.343   5.886   0.634 -0.4217  0.0295  1.0907
 5096SOL     OW20149   1.310   1.517   6.352  0.4550 -0.1897 -0.1889
 5096SOL    HW220150   1.283   1.426   6.346  0.8066 -0.4058  1.2796
 5096SOL    HW320151   1.379   1.526   6.285  2.4415 -1.7827  1.5083
 5096SOL    MW420152   1.316   1.506   6.342  0.7635 -0.4284  0.2288
 5097SOL     OW20153   1.865   1.014   5.043  0.3123  0.2096  0.3760
 5097SOL    HW220154   1.885   1.108   5.037 -0.6194  0.6216  2.7136
 5097SOL    HW320155   1.778   1.006   5.003  0.7264  0.1815 -0.5420
 5097SOL    MW420156   1.856   1.025   5.037  0.2440  0.2603  0.5633
 5098SOL     OW20157   4.505   3.214   2.363  0.3072  0.1113 -0.0626
 5098SOL    HW220158   4.593   3.181   2.379  0.4326  0.3831 -0.1817
 5098SOL    HW320159   4.514   3.309   2.366  0.1985  0.1583 -1.0068
 5098SOL    MW420160   4.518   3.222   2.365  0.3094  0.1533 -0.2029
 5099SOL     OW20161   3.050   5.118   3.445  0.5346  0.5678  0.2719
 5099SOL    HW220162   3.064   5.212   3.459  0.6609  0.9011 -1.7995
 5099SOL    HW320163   2.966   5.100   3.487  1.2478  1.2176  2.0966
 5099SOL    MW420164   3.041   5.128   3.453  0.6454  0.6975  0.2393
 5100SOL     OW20165   5.831   4.683   2.618  0.3579 -0.0885  0.2627
 5100SOL    HW220166   5.744   4.675   2.656  0.1263 -1.8905 -0.5288
 5100SOL    HW320167   5.870   4.595   2.628  1.9587  0.5856  0.3077
 5100SOL    MW420168   5.825   4.670   2.624  0.5386 -0.2373  0.1642
 5101SOL     OW20169   0.145   0.258   5.875 -0.2213  0.1296 -0.0712
 5101SOL    HW220170   0.080   0.189   5.884  0.3966 -0.4301  0.1450
 5101SOL    HW320171   0.171   0.279   5.965  1.0309 -0.7509 -0.2046
 5101SOL    MW420172   0.140   0.252   5.888  0.0254 -0.0604 -0.0603
 5102SOL     OW20173   2.218   6.150   2.124 -0.1954 -0.2830 -0.1471
 5102SOL    HW220174   2.298   6.140   2.175 -0.9481  1.3581  1.4553
 5102SOL    HW320175   2.214   6.072   2.069  1.5498 -1.2764  1.0688
 5102SOL    MW420176   2.228   6.139   2.124 -0.0645 -0.1975  0.2248
 5103SOL     OW20177   0.294   5.599  -0.002 -0.7776 -0.1669 -0.0660
 5103SOL    HW220178   0.207   5.632   0.020  0.0875  2.9211 -0.7164
 5103SOL    HW320179   0.321   5.650  -0.078  1.1082 -1.9630 -0.7145
 5103SOL    MW420180   0.286   5.610  -0.009 -0.4147  0.0035 -0.2374
 5104SOL     OW20181   1.961   3.106   5.746  0.7094  0.1529 -0.2785
 5104SOL    HW220182   2.055   3.115   5.762  0.5634  0.9724  0.1847
 5104SOL    HW320183   1.922   3.181   5.792 -0.1125  0.1685 -0.9890
 5104SOL    MW420184   1.968   3.117   5.754  0.5817  0.2631 -0.3111
 5105SOL     OW20185   3.307   3.496   0.307 -0.7534  0.3029  0.7044
 5105SOL    HW220186   3.228   3.530   0.264 -0.2280 -1.2421 -1.6764
 5105SOL    HW320187   3.364   3.573   0.317  0.0719  0.5274 -3.7272
 5105SOL    MW420188   3.304   3.511   0.303 -0.5752  0.1287 -0.1944
 5106SOL     OW20189   3.279   5.461   5.396  0.3609  0.0762 -0.8849
 5106SOL    HW220190   3.342   5.483   5.466 -1.6584  1.5294  0.6082
 5106SOL    HW320191   3.235   5.544   5.377 -1.3538 -0.9496 -1.5938
 5106SOL    MW420192   3.282   5.475   5.403 -0.1317  0.1326 -0.7814
 5107SOL     OW20193   0.502   3.005   3.880 -0.3805 -0.1691 -0.3876
 5107SOL    HW220194   0.436   3.068   3.850 -0.5109 -0.2122 -0.1954
 5107SOL    HW320195   0.558   2.990   3.804 -0.3730  0.1482 -0.4451
 5107SOL    MW420196   0.501   3.012   3.866 -0.3967 -0.1329 -0.3698
 5108SOL     OW20197   0.594   0.095   0.900  0.1941  0.5253  0.0294
 5108SOL    HW220198   0.535   0.023   0.923  0.5404  0.2691  0.1214
 5108SOL    HW320199   0.602   0.146   0.980  0.8168  0.0471  0.2762
 5108SOL    MW420200   0.587   0.092   0.914  0.3219  0.4284  0.0741
 5109SOL     OW20201   0.787   6.408   1.469  0.0762  0.2169  0.3512
 5109SOL    HW220202   0.758   6.325   1.432 -1.3876  0.3375  1.1611
 5109SOL    HW320203   0.777   6.397   1.564  0.7799  0.9929  0.5293
 5109SOL    MW420204   0.782   6.396   1.477 -0.0241  0.3352  0.4816
 5110SOL     OW20205   1.904   4.422   5.174 -0.1281 -0.2138 -0.0878
 5110SOL    HW220206   1.913   4.411   5.268 -2.0371 -0.5473  0.1007
 5110SOL    HW320207   1.882   4.514   5.162  1.3913  0.1469 -0.3613
 5110SOL    MW420208   1.902   4.433   5.185 -0.1795 -0.2102 -0.0990
 5111SOL     OW20209   3.521   1.070   0.160  0.3833 -0.2037  1.1141
 5111SOL    HW220210   3.480   1.152   0.132  2.1089  0.6290  0.9086
 5111SOL    HW320211   3.471   1.002   0.116 -1.1549  0.7185  1.3704
 5111SOL    MW420212   3.509   1.072   0.151  0.4080  0.0278  1.1208
 5112SOL     OW20213   0.220   1.005   5.389 -0.0444 -0.5553  0.2063
 5112SOL    HW220214   0.171   0.923   5.398 -2.0544  0.6254  0.6619
 5112SOL    HW320215   0.255   1.003   5.300 -1.4034 -1.2299 -0.3389
 5112SOL    MW420216   0.218   0.994   5.378 -0.4889 -0.4885  0.1945
 5113SOL     OW20217   3.467   2.258   3.306  0.2921 -0.4245  0.0339
 5113SOL    HW220218   3.376   2.248   3.334 -0.2857  0.1641 -1.5144
 5113SOL    HW320219   3.507   2.173   3.322 -0.5168 -0.6749  0.7765
 5113SOL    MW420220   3.460   2.246   3.312  0.1091 -0.3799 -0.0724
 5114SOL     OW20221   2.981   5.995   1.156 -0.0675 -0.3584 -0.3738
 5114SOL    HW220222   3.034   6.074   1.165 -0.5064 -0.1198  0.1076
 5114SOL    HW320223   2.986   5.974   1.063 -0.3901  0.5435 -0.6075
 5114SOL    MW420224   2.989   6.003   1.145 -0.1680 -0.2079 -0.3411
 5115SOL     OW20225   5.960   5.261   1.103 -0.4666  0.0277 -0.0871
 5115SOL    HW220226   5.923   5.332   1.051  0.3271 -0.2143 -1.0154
 5115SOL    HW320227   6.015   5.306   1.168  0.1408  0.2734 -0.7552
 5115SOL    MW420228   5.963   5.276   1.105 -0.2818  0.0282 -0.2977
 5116SOL     OW20229   1.802   5.910   1.780 -0.0895 -0.4090  0.5106
 5116SOL    HW220230   1.736   5.847   1.809  1.8089 -1.4033  3.0523
 5116SOL    HW320231   1.851   5.863   1.712  0.2889 -1.0837  1.2359
 5116SOL    MW420232   1.800   5.895   1.775  0.2109 -0.6292  0.9417
 5117SOL     OW20233   3.713   5.233   5.294  0.7226  0.0620  0.1577
 5117SOL    HW220234   3.634   5.196   5.334  0.9878 -1.5241 -0.7157
 5117SOL    HW320235   3.695   5.327   5.289 -1.1945 -0.2781 -0.1832
 5117SOL    MW420236   3.700   5.241   5.299  0.5047 -0.1922 -0.0025
 5118SOL     OW20237   1.050   2.919   3.465  0.2361 -0.5849  0.0377
 5118SOL    HW220238   0.960   2.932   3.434  0.1188 -2.2206 -0.4123
 5118SOL    HW320239   1.102   2.912   3.386  0.2986 -2.4376  0.2032
 5118SOL    MW420240   1.045   2.920   3.451  0.2289 -1.0452  0.0001
 5119SOL     OW20241   1.304   2.466   3.592 -0.1936  0.3358 -0.2266
 5119SOL    HW220242   1.249   2.542   3.575 -0.9588  0.4191  2.2010
 5119SOL    HW320243   1.242   2.395   3.608  0.3800  0.1742  1.4838
 5119SOL    MW420244   1.288   2.466   3.592 -0.2189  0.3255  0.3193
 5120SOL     OW20245   2.956   0.151   0.985  0.0496 -0.1542  0.2038
 5120SOL    HW220246   2.980   0.231   1.032 -1.5714 -0.7508  2.1880
 5120SOL    HW320247   3.024   0.142   0.918  1.6855  1.5316  1.5072
 5120SOL    MW420248   2.968   0.161   0.983  0.0516 -0.0105  0.6376
 5121SOL     OW20249   1.857   4.589   4.402  0.4887 -0.0182  0.2633
 5121SOL    HW220250   1.839   4.637   4.482  1.0476 -0.1477  0.4669
 5121SOL    HW320251   1.941   4.545   4.417 -0.0052 -1.0662  0.0937
 5121SOL    MW420252   1.866   4.589   4.414  0.4973 -0.1735  0.2678
 5122SOL     OW20253   1.556   0.417   5.335  0.3525 -0.0705  0.6423
 5122SOL    HW220254   1.493   0.347   5.354  2.0102 -1.8838 -0.1254
 5122SOL    HW320255   1.641   0.372   5.332  1.2427  1.5542 -2.1492
 5122SOL    MW420256   1.559   0.401   5.337  0.6887 -0.0954  0.1727
 5123SOL     OW20257   5.738   1.829   4.834  0.0282  0.1645  0.4515
 5123SOL    HW220258   5.797   1.843   4.760  0.6459 -1.9997  0.4561
 5123SOL    HW320259   5.788   1.858   4.910  0.5304 -0.2692  0.2963
 5123SOL    MW420260   5.753   1.835   4.834  0.1760 -0.1783  0.4316
 5124SOL     OW20261   3.883   5.726   0.721 -0.0161 -0.1683  0.3906
 5124SOL    HW220262   3.942   5.790   0.681 -0.0554 -1.6178 -2.2035
 5124SOL    HW320263   3.811   5.778   0.756 -0.7125  1.2526 -2.7729
 5124SOL    MW420264   3.882   5.741   0.720 -0.1131 -0.1721 -0.3690
 5125SOL     OW20265   2.581   1.287   3.901  0.3661  0.0763 -0.0590
 5125SOL    HW220266   2.518   1.249   3.962 -0.3582  1.2768 -0.0228
 5125SOL    HW320267   2.582   1.227   3.827 -1.5632  0.4967 -0.4808
 5125SOL    MW420268   2.573   1.274   3.899  0.0160  0.2902 -0.1099
 5126SOL     OW20269   6.296   3.572   4.340 -0.0756  0.3416 -0.0913
 5126SOL    HW220270   6.230   3.616   4.393 -0.9249 -0.1294 -0.7248
 5126SOL    HW320271   6.330   3.502   4.396 -0.8229 -0.0252 -0.0867
 5126SOL    MW420272   6.292   3.569   4.354 -0.2863  0.2311 -0.1742
 5127SOL     OW20273   3.846   3.302   4.522  0.2793  0.1721  0.0504
 5127SOL    HW220274   3.886   3.378   4.565  0.1760  0.9060 -1.0928
 5127SOL    HW320275   3.861   3.317   4.429  0.9405 -1.6182 -0.1769
 5127SOL    MW420276   3.853   3.314   4.515  0.3529  0.0327 -0.1304
 5128SOL     OW20277   4.213   4.718   1.219  0.7265  0.0937  0.1868
 5128SOL    HW220278   4.253   4.671   1.145 -2.0209 -0.9848 -0.7704
 5128SOL    HW320279   4.204   4.651   1.287  1.1200  0.4906  0.6346
 5128SOL    MW420280   4.217   4.703   1.218  0.4159  0.0038  0.1196
 5129SOL     OW20281   2.972   2.327   4.598 -0.0282  0.4377  0.3298
 5129SOL    HW220282   3.015   2.283   4.525  0.2753  2.3431 -0.6846
 5129SOL    HW320283   3.039   2.384   4.635 -0.9505  1.5633  0.3240
 5129SOL    MW420284   2.987   2.329   4.594 -0.1099  0.8376  0.1952
 5130SOL     OW20285   1.780   4.703   5.277  0.4545 -0.2729  0.1767
 5130SOL    HW220286   1.760   4.794   5.254  1.4529  0.3265  1.5653
 5130SOL    HW320287   1.733   4.688   5.359  0.7089 -0.8439  0.2230
 5130SOL    MW420288   1.771   4.713   5.285  0.6198 -0.2692  0.3660
 5131SOL     OW20289   4.005   5.732  -0.032  0.1771 -0.2480 -0.2015
 5131SOL    HW220290   3.971   5.643  -0.043  0.2907 -0.2420 -0.6422
 5131SOL    HW320291   4.081   5.721   0.026  0.7715 -0.5861 -1.0178
 5131SOL    MW420292   4.011   5.719  -0.026  0.2705 -0.2918 -0.3674
 5132SOL     OW20293   3.158   1.824   2.442 -0.1305 -0.2767  0.6182
 5132SOL    HW220294   3.152   1.736   2.406  1.7588  0.0837 -0.7256
 5132SOL    HW320295   3.198   1.876   2.372  1.2301  1.0792  2.3074
 5132SOL    MW420296   3.162   1.819   2.428  0.2983 -0.0502  0.6638
 5133SOL     OW20297   3.888   3.278   3.446 -0.2862  0.0017  0.2527
 5133SOL    HW220298   3.972   3.265   3.402 -0.8218  0.1913 -0.8641
 5133SOL    HW320299   3.908   3.270   3.540  1.1518  0.9886  0.0692
 5133SOL    MW420300   3.902   3.275   3.453 -0.1672  0.1569  0.0811
 5134SOL     OW20301   1.989   2.132   5.617 -0.1730 -0.1554  0.2592
 5134SOL    HW220302   1.976   2.098   5.529  0.4325  0.0689  0.0771
 5134SOL    HW320303   1.924   2.201   5.626 -0.2993 -0.2431  0.0211
 5134SOL    MW420304   1.979   2.137   5.607 -0.1097 -0.1374  0.2038
 5135SOL     OW20305   2.193   4.812   0.522 -0.3185 -0.1860 -0.2553
 5135SOL    HW220306   2.239   4.874   0.579 -0.3800  0.0255 -0.4340
 5135SOL    HW320307   2.262   4.767   0.474 -0.3212  0.8287 -1.2563
 5135SOL    MW420308   2.208   4.815   0.523 -0.3270 -0.0242 -0.4109
 5136SOL     OW20309   6.266   5.439   2.542  0.2226  0.5003  0.3723
 5136SOL    HW220310   6.359   5.454   2.522  0.1535 -0.2330 -0.5806
 5136SOL    HW320311   6.219   5.495   2.480  0.0077 -1.4793 -1.3731
 5136SOL    MW420312   6.272   5.449   2.531  0.1851  0.1424  0.0163
 5137SOL     OW20313   3.785   4.332   0.261 -0.1558  0.1020  0.0900
 5137SOL    HW220314   3.843   4.398   0.298  0.0578 -0.8708  1.5869
 5137SOL    HW320315   3.697   4.369   0.270  0.0703  0.8040 -0.4972
 5137SOL    MW420316   3.781   4.345   0.267 -0.0978  0.0663  0.2101
 5138SOL     OW20317   5.407   0.104   5.091  0.3545  0.7276  0.2850
 5138SOL    HW220318   5.439   0.194   5.093  0.9388  0.5386 -0.2318
 5138SOL    HW320319   5.469   0.058   5.034 -1.5407  0.6217 -1.8179
 5138SOL    MW420320   5.420   0.110   5.083  0.1815  0.6887 -0.0606
 5139SOL     OW20321   2.890   3.946   0.720  0.6561  0.2476 -0.8829
 5139SOL    HW220322   2.807   3.932   0.767  1.8328  1.5869  1.8512
 5139SOL    HW320323   2.921   3.858   0.699  0.7027 -0.6046  2.2427
 5139SOL    MW420324   2.883   3.932   0.724  0.8175  0.3119 -0.1098
 5140SOL     OW20325   2.361   1.508   1.831 -0.6005 -0.1362 -0.6688
 5140SOL    HW220326   2.452   1.493   1.806 -1.0758 -0.6031 -2.2126
 5140SOL    HW320327   2.310   1.481   1.754 -2.0121  0.6766 -0.0504
 5140SOL    MW420328   2.367   1.502   1.818 -0.8494 -0.0905 -0.7909
 5141SOL     OW20329   5.779   3.768   3.358  0.8717 -0.0095  0.1743
 5141SOL    HW220330   5.771   3.770   3.453  1.3746 -1.1738  0.2597
 5141SOL    HW320331   5.688   3.760   3.326  0.8016 -1.2837  0.6378
 5141SOL    MW420332   5.766   3.767   3.366  0.9288 -0.3312  0.2467
 5142SOL     OW20333   1.294   5.331   4.265 -0.1657 -0.8489 -0.3770
 5142SOL    HW220334   1.229   5.323   4.196  0.8236 -1.7478 -1.2409
 5142SOL    HW320335   1.369   5.280   4.234  0.8316 -0.1275  0.7286
 5142SOL    MW420336   1.296   5.323   4.252  0.0964 -0.8723 -0.3451
 5143SOL     OW20337   3.331   5.670   5.899 -0.4880  0.5428 -0.2838
 5143SOL    HW220338   3.245   5.694   5.865 -0.4106  0.9656 -0.1784
 5143SOL    HW320339   3.318   5.660   5.993 -0.1969  1.6068 -0.1270
 5143SOL    MW420340   3.318   5.672   5.907 -0.4394  0.7390 -0.2492
 5144SOL     OW20341   3.049   4.281   2.276  0.1235 -0.1472 -0.2694
 5144SOL    HW220342   2.961   4.261   2.308  0.1425  0.2232  0.0144
 5144SOL    HW320343   3.040   4.279   2.180  0.2773 -2.1887 -0.2804
 5144SOL    MW420344   3.036   4.278   2.267  0.1463 -0.3677 -0.2334
 5145SOL     OW20345   0.371   1.400   5.722 -0.3074  0.2647 -0.3298
 5145SOL    HW220346   0.443   1.443   5.768  1.5822 -0.0629 -2.7469
 5145SOL    HW320347   0.414   1.335   5.666 -2.8434 -3.2500  1.4017
 5145SOL    MW420348   0.386   1.397   5.720 -0.3927 -0.2422 -0.4202
 5146SOL     OW20349   1.184   6.378   3.792 -0.0048 -0.3583 -0.0624
 5146SOL    HW220350   1.164   6.308   3.855 -1.5967 -1.2264 -1.4268
 5146SOL    HW320351   1.226   6.446   3.844 -0.0852 -1.5661  1.6845
 5146SOL    MW420352   1.187   6.378   3.807 -0.2254 -0.6322 -0.0119
 5147SOL     OW20353   1.669   5.503   4.891 -0.5918 -0.2342  0.6733
 5147SOL    HW220354   1.623   5.509   4.807 -0.6985  0.2244  0.7627
 5147SOL    HW320355   1.601   5.479   4.954 -0.1101 -2.9694  0.2612
 5147SOL    MW420356   1.654   5.501   4.888 -0.5423 -0.5345  0.6307
 5148SOL     OW20357   4.785   1.576   0.325  0.1140 -0.5784  0.1991
 5148SOL    HW220358   4.864   1.524   0.339 -0.3837 -1.2703  0.4774
 5148SOL    HW320359   4.798   1.654   0.379  0.0870 -1.2498  1.1936
 5148SOL    MW420360   4.797   1.579   0.334  0.0448 -0.7582  0.3670
 5149SOL     OW20361   6.114   0.474   1.041  0.3366  0.6507 -0.1448
 5149SOL    HW220362   6.031   0.519   1.025  0.2741  1.4180  1.9363
 5149SOL    HW320363   6.116   0.462   1.136  2.9127  1.2365 -0.0615
 5149SOL    MW420364   6.103   0.478   1.052  0.6682  0.8292  0.1407
 5150SOL     OW20365   1.525   2.779   3.953 -0.4270 -0.2718 -0.1344
 5150SOL    HW220366   1.433   2.785   3.976 -0.5272 -0.9665 -0.3475
 5150SOL    HW320367   1.545   2.864   3.912 -0.8162  0.1000  0.4255
 5150SOL    MW420368   1.516   2.791   3.950 -0.4916 -0.3144 -0.0886
 5151SOL     OW20369   5.451   0.598   1.776 -0.3657  0.3765  0.0253
 5151SOL    HW220370   5.512   0.650   1.827 -0.3746  0.8261 -0.4112
 5151SOL    HW320371   5.384   0.569   1.838  0.5751 -0.5795  0.6205
 5151SOL    MW420372   5.450   0.601   1.791 -0.2428  0.3097  0.0462
 5152SOL     OW20373   2.851   1.121   3.019  0.1851  0.0844  0.0176
 5152SOL    HW220374   2.916   1.050   3.024 -0.7185 -0.8581 -1.1866
 5152SOL    HW320375   2.881   1.176   2.947 -0.3279 -0.3226 -0.5058
 5152SOL    MW420376   2.864   1.119   3.010 -0.0018 -0.0937 -0.2104
 5153SOL     OW20377   3.162   1.078   4.432  0.7291  0.5384  0.0305
 5153SOL    HW220378   3.169   1.103   4.340  0.3438  2.7687  0.5462
 5153SOL    HW320379   3.068   1.085   4.451  0.8529  0.5198  0.6804
 5153SOL    MW420380   3.150   1.082   4.423  0.6946  0.8302  0.1843
 5154SOL     OW20381   2.411   1.861   0.919 -0.0755  0.5269 -0.6299
 5154SOL    HW220382   2.368   1.782   0.885 -1.0796  0.5100  0.6168
 5154SOL    HW320383   2.469   1.828   0.987 -1.8973  0.9841  1.2246
 5154SOL    MW420384   2.413   1.846   0.923 -0.4483  0.5850 -0.2207
 5155SOL     OW20385   4.712   2.255   2.505  0.1395  0.0619  0.0988
 5155SOL    HW220386   4.645   2.189   2.490 -0.3323  0.1995  1.4022
 5155SOL    HW320387   4.790   2.205   2.530  1.1266 -0.2081 -3.0694
 5155SOL    MW420388   4.714   2.240   2.507  0.2075  0.0444 -0.1472
 5156SOL     OW20389   2.076   5.737   5.401 -0.5829 -0.0510  0.1868
 5156SOL    HW220390   2.027   5.712   5.323 -1.1716  1.0428  0.1922
 5156SOL    HW320391   2.079   5.656   5.453  1.5674 -1.3883 -1.8108
 5156SOL    MW420392   2.070   5.723   5.398 -0.3769 -0.0831 -0.0760
 5157SOL     OW20393   3.074   2.965   3.203 -0.2192  0.3166  0.0687
 5157SOL    HW220394   3.067   2.876   3.169 -2.1134  0.2039  0.6413
 5157SOL    HW320395   3.110   3.016   3.131  0.7666 -0.8725 -0.3116
 5157SOL    MW420396   3.078   2.960   3.189 -0.3390  0.1448  0.0940
 5158SOL     OW20397   1.830   1.069   5.519 -0.3670 -0.1353 -0.3078
 5158SOL    HW220398   1.856   1.064   5.611  1.0717  0.2204 -0.6664
 5158SOL    HW320399   1.764   1.138   5.516  0.3010  0.5410  0.3146
 5158SOL    MW420400   1.825   1.077   5.530 -0.0890  0.0009 -0.2730
 5159SOL     OW20401   2.784   2.652   1.867  0.7233 -0.4711  0.0653
 5159SOL    HW220402   2.689   2.655   1.863  0.6178 -1.7455  1.0842
 5159SOL    HW320403   2.806   2.694   1.951  1.1129  0.4252 -0.4719
 5159SOL    MW420404   2.774   2.658   1.878  0.7608 -0.5210  0.1288
 5160SOL     OW20405   3.463   5.497   0.244 -0.2001  0.3923  0.0011
 5160SOL    HW220406   3.546   5.525   0.207  0.1790  0.1651  0.6642
 5160SOL    HW320407   3.444   5.562   0.313 -0.4195  0.2712  0.0574
 5160SOL    MW420408   3.471   5.509   0.249 -0.1790  0.3463  0.0960
 5161SOL     OW20409   1.259   3.892   4.245 -0.7557 -0.4501 -0.7193
 5161SOL    HW220410   1.197   3.944   4.193 -0.1127  0.1120 -0.9404
 5161SOL    HW320411   1.275   3.944   4.323 -1.2891 -1.0388 -0.2056
 5161SOL    MW420412   1.253   3.906   4.248 -0.7412 -0.4536 -0.6807
 5162SOL     OW20413   1.752   2.030   4.817 -0.5874  0.9257  0.4945
 5162SOL    HW220414   1.697   2.008   4.742  0.5759  1.8156 -0.6694
 5162SOL    HW320415   1.762   2.125   4.812  2.8160  0.6076 -0.6472
 5162SOL    MW420416   1.746   2.040   4.807  0.0152  1.0011  0.1903
 5163SOL     OW20417   4.564   1.718   3.491  0.0164  0.0734  0.0758
 5163SOL    HW220418   4.597   1.674   3.414  0.9778 -0.6751  0.8866
 5163SOL    HW320419   4.470   1.729   3.475 -0.1223 -1.6706 -0.4378
 5163SOL    MW420420   4.556   1.714   3.479  0.1249 -0.2555  0.1150
 5164SOL     OW20421   5.214   4.800   2.337 -0.1103  0.3292  1.1591
 5164SOL    HW220422   5.220   4.741   2.413  0.3957  1.3507  1.9435
 5164SOL    HW320423   5.301   4.798   2.298 -0.6608 -1.0375 -0.0869
 5164SOL    MW420424   5.226   4.792   2.342 -0.1162  0.2837  1.0982
 5165SOL     OW20425   0.699   2.603   2.709  0.0638 -0.5271 -0.6820
 5165SOL    HW220426   0.757   2.530   2.686  0.0724 -0.9055  0.5022
 5165SOL    HW320427   0.673   2.586   2.799 -0.2292  0.7482 -0.5078
 5165SOL    MW420428   0.703   2.591   2.718  0.0263 -0.4088 -0.5028
 5166SOL     OW20429   3.924   2.273   4.174 -0.1487 -0.0045 -0.0072
 5166SOL    HW220430   3.948   2.182   4.191 -0.2150  0.0643  0.4668
 5166SOL    HW320431   3.988   2.324   4.223 -0.1040  0.2032 -0.2827
 5166SOL    MW420432   3.935   2.268   4.183 -0.1516  0.0320  0.0190
 5167SOL     OW20433   0.856   2.321   0.267  0.4436  0.1234 -0.2115
 5167SOL    HW220434   0.904   2.330   0.349  1.3114  1.1484 -0.8031
 5167SOL    HW320435   0.785   2.385   0.273 -1.0691 -1.5407  0.7540
 5167SOL    MW420436   0.853   2.331   0.279  0.3585  0.0391 -0.1622
 5168SOL     OW20437   5.073   2.680   1.438  0.3840  0.4962 -0.2911
 5168SOL    HW220438   5.140   2.657   1.503 -0.6566 -0.5106  0.4643
 5168SOL    HW320439   5.117   2.741   1.379  1.4251  1.3078  1.2545
 5168SOL    MW420440   5.088   2.685   1.439  0.3841  0.4705  0.0125
 5169SOL     OW20441   1.038   1.532   6.379 -0.0273  0.9166  0.5923
 5169SOL    HW220442   1.130   1.540   6.402  0.0383  0.2803  0.5649
 5169SOL    HW320443   1.004   1.463   6.437  0.0662 -0.5103 -0.9457
 5169SOL    MW420444   1.045   1.524   6.390 -0.0063  0.6444  0.3858
 5170SOL     OW20445   1.231   3.555   4.840  0.2089  0.0648  0.2452
 5170SOL    HW220446   1.182   3.483   4.881  1.0037  0.4981  2.0945
 5170SOL    HW320447   1.193   3.634   4.878  1.8070  0.4372  1.1961
 5170SOL    MW420448   1.220   3.556   4.851  0.5246  0.1711  0.6146
 5171SOL     OW20449   5.095   0.005   3.849  0.2539  0.1068  0.0249
 5171SOL    HW220450   5.021   0.061   3.824  0.4642  0.2527 -0.2809
 5171SOL    HW320451   5.117   0.033   3.938  0.0174  0.1447  0.0726
 5171SOL    MW420452   5.088   0.016   3.858  0.2504  0.1310 -0.0091
 5172SOL     OW20453   4.819   4.573   3.636  0.2380  0.2528 -0.2297
 5172SOL    HW220454   4.858   4.629   3.570 -0.6388  1.1418 -0.0186
 5172SOL    HW320455   4.733   4.550   3.601  0.0596  0.1284  0.2775
 5172SOL    MW420456   4.813   4.577   3.623  0.0988  0.3537 -0.1349
 5173SOL     OW20457   6.389   0.442   5.735 -0.2272 -0.0280  0.2772
 5173SOL    HW220458   6.433   0.521   5.705 -0.4047  0.3366  0.9790
 5173SOL    HW320459   6.460   0.383   5.760 -0.1033 -0.0101 -0.0198
 5173SOL    MW420460   6.404   0.444   5.734 -0.2343  0.0225  0.3306
 5174SOL     OW20461   1.046   5.440   4.614 -0.1442  0.0738  0.2380
 5174SOL    HW220462   1.128   5.479   4.648  0.3264  0.1000 -0.8962
 5174SOL    HW320463   1.072   5.395   4.534 -0.9633 -1.3310  0.7309
 5174SOL    MW420464   1.060   5.440   4.608 -0.1902 -0.1081  0.1534
 5175SOL     OW20465   3.098   4.072   6.212 -0.5736 -0.2279 -0.2596
 5175SOL    HW220466   3.168   4.007   6.209  0.1846  0.5449  0.5040
 5175SOL    HW320467   3.024   4.025   6.252 -0.0934 -0.6770  0.1159
 5175SOL    MW420468   3.097   4.057   6.217 -0.4102 -0.1852 -0.1093
 5176SOL     OW20469   2.767   1.427   3.558  0.1893  0.1476 -0.2298
 5176SOL    HW220470   2.766   1.510   3.509 -1.1373  1.4484  1.8341
 5176SOL    HW320471   2.859   1.401   3.561  0.4296  0.4929 -2.5186
 5176SOL    MW420472   2.779   1.435   3.552  0.0460  0.3648 -0.2595
 5177SOL     OW20473   0.447   4.909   4.998  0.3204 -0.0511  0.3104
 5177SOL    HW220474   0.429   4.955   5.080 -0.6527  2.6866 -1.2870
 5177SOL    HW320475   0.525   4.952   4.963  0.7359 -1.1915 -0.2177
 5177SOL    MW420476   0.455   4.921   5.004  0.2469  0.1597  0.0299
 5178SOL     OW20477   2.750   3.164   5.996 -0.3451  0.4890 -0.0796
 5178SOL    HW220478   2.677   3.168   6.057 -0.5743 -1.4737 -0.1657
 5178SOL    HW320479   2.712   3.131   5.915  0.5896 -0.3106 -0.2065
 5178SOL    MW420480   2.735   3.160   5.993 -0.2520  0.1245 -0.1077
 5179SOL     OW20481   2.800   4.142   3.984  0.1728 -0.1290 -0.0606
 5179SOL    HW220482   2.784   4.050   3.964  1.2644 -0.1727 -0.8151
 5179SOL    HW320483   2.714   4.184   3.978  0.0754 -0.5530 -2.7051
 5179SOL    MW420484   2.787   4.135   3.981  0.3040 -0.1907 -0.5091
 5180SOL     OW20485   2.867   3.731   1.765  0.7359 -0.0765 -0.3330
 5180SOL    HW220486   2.800   3.672   1.800  0.6440  0.7344  0.9150
 5180SOL    HW320487   2.826   3.818   1.770  2.5385  0.7187  2.2927
 5180SOL    MW420488   2.853   3.735   1.770  0.9616  0.1354  0.1781
 5181SOL     OW20489   3.426   2.989   3.278 -0.1843 -0.0591 -0.0068
 5181SOL    HW220490   3.484   2.919   3.248 -1.7833 -1.4886  0.1483
 5181SOL    HW320491   3.410   3.042   3.200  0.4184 -0.2818 -0.2926
 5181SOL    MW420492   3.432   2.987   3.264 -0.3157 -0.2771 -0.0240
 5182SOL     OW20493   1.369   5.689   4.867  0.7329 -0.3776 -0.8942
 5182SOL    HW220494   1.302   5.690   4.936  0.5374  0.9558 -1.0805
 5182SOL    HW320495   1.335   5.746   4.799  0.1868 -2.9238 -2.8813
 5182SOL    MW420496   1.356   5.697   4.867  0.6351 -0.5376 -1.1809
 5183SOL     OW20497   0.868   5.717   4.694 -0.2544 -0.2178  0.4628
 5183SOL    HW220498   0.845   5.631   4.729 -2.8054 -0.3350 -1.2387
 5183SOL    HW320499   0.786   5.767   4.699  0.5350  1.2832 -0.9020
 5183SOL    MW420500   0.854   5.712   4.699 -0.4868 -0.0353  0.0582
 5184SOL     OW20501   5.649   4.191   5.969  0.3490  0.1100 -0.0925
 5184SOL    HW220502   5.571   4.186   6.024 -1.3561 -0.7365 -2.3898
 5184SOL    HW320503   5.722   4.201   6.030 -1.4652  0.1162  2.2042
 5184SOL    MW420504   5.648   4.192   5.984 -0.1153 -0.0009 -0.0926
 5185SOL     OW20505   6.323   1.189   3.352 -0.1869 -0.2690  0.3020
 5185SOL    HW220506   6.371   1.254   3.403 -1.1922 -0.6886  1.8648
 5185SOL    HW320507   6.390   1.126   3.325  0.1647 -1.1257  2.8705
 5185SOL    MW420508   6.338   1.189   3.355 -0.2732 -0.4374  0.8471
 5186SOL     OW20509   1.129   1.739   6.139  0.6927  0.4324  0.5955
 5186SOL    HW220510   1.207   1.770   6.184  0.3951 -0.2467  1.6200
 5186SOL    HW320511   1.119   1.798   6.064  2.9883 -0.2837 -0.4059
 5186SOL    MW420512   1.138   1.751   6.135  0.9563  0.2483  0.5986
 5187SOL     OW20513   3.908   1.401   3.506  0.4520 -0.1168  0.3992
 5187SOL    HW220514   3.960   1.322   3.492  0.2275 -0.0699 -0.7586
 5187SOL    HW320515   3.824   1.382   3.466  0.1578  0.4502  0.7387
 5187SOL    MW420516   3.904   1.388   3.499  0.3836 -0.0358  0.2912
 5188SOL     OW20517   3.558   1.335   4.070  0.3100 -0.2938 -0.7549
 5188SOL    HW220518   3.480   1.363   4.118  1.0719  0.2083  0.2339
 5188SOL    HW320519   3.631   1.362   4.126  1.1794 -1.2601 -1.3889
 5188SOL    MW420520   3.557   1.342   4.084  0.5253 -0.3550 -0.7081
 5189SOL     OW20521   5.109   4.665   3.210  0.3241  0.0268  0.2308
 5189SOL    HW220522   5.077   4.738   3.158  1.7195  0.8130  0.4166
 5189SOL    HW320523   5.203   4.683   3.221 -0.1037  0.7775  4.2930
 5189SOL    MW420524   5.117   4.677   3.205  0.4518  0.2296  0.7913
 5190SOL     OW20525   5.797   5.817   0.987 -0.0155 -0.3542 -0.0210
 5190SOL    HW220526   5.728   5.883   0.993  1.5035  1.2248  0.7407
 5190SOL    HW320527   5.791   5.769   1.070 -1.2744 -1.4036 -0.6726
 5190SOL    MW420528   5.787   5.819   0.999  0.0188 -0.2843 -0.0065
 5191SOL     OW20529   0.152   0.237   0.057 -0.1296  0.2034 -0.1470
 5191SOL    HW220530   0.068   0.246   0.012 -0.6755 -0.9899  0.5978
 5191SOL    HW320531   0.191   0.325   0.053 -0.7366  0.4458 -1.7821
 5191SOL    MW420532   0.146   0.250   0.050 -0.2817  0.0779 -0.2645
 5192SOL     OW20533   2.540   6.337   0.952  0.4487 -0.3394 -0.3641
 5192SOL    HW220534   2.536   6.407   0.887  0.2526 -0.5820 -0.6124
 5192SOL    HW320535   2.617   6.359   1.005 -0.9583  1.4116  1.0847
 5192SOL    MW420536   2.550   6.349   0.951  0.2372 -0.1404 -0.2057
 5193SOL     OW20537   5.613   5.976   2.667 -0.2772  0.1866 -0.4211
 5193SOL    HW220538   5.705   5.960   2.689 -1.0366 -1.4149  2.0430
 5193SOL    HW320539   5.596   6.064   2.700  0.3224  0.4082 -0.6947
 5193SOL    MW420540   5.623   5.985   2.674 -0.2983  0.0045 -0.1321
 5194SOL     OW20541   6.421   3.136   4.747 -0.3437 -0.6259  0.0935
 5194SOL    HW220542   6.486   3.199   4.718 -0.8645  0.0632  0.4128
 5194SOL    HW320543   6.380   3.176   4.824 -1.3534 -0.9175 -0.2742
 5194SOL    MW420544   6.424   3.149   4.754 -0.5456 -0.5735  0.0871
 5195SOL     OW20545   3.305   2.911   5.509  0.0700 -0.4921  0.2107
 5195SOL    HW220546   3.221   2.880   5.476 -0.3598  2.0534 -1.3966
 5195SOL    HW320547   3.286   2.998   5.545  1.9133 -0.0107  0.1505
 5195SOL    MW420548   3.291   2.919   5.509  0.2565 -0.0927 -0.0093
 5196SOL     OW20549   2.597   5.455   4.747 -0.4480 -0.1410 -0.4493
 5196SOL    HW220550   2.678   5.470   4.699  0.6040 -1.2017  0.9200
 5196SOL    HW320551   2.531   5.505   4.699  1.1103  1.2391 -1.2490
 5196SOL    MW420552   2.599   5.464   4.734 -0.1036 -0.0988 -0.3741
 5197SOL     OW20553   0.392   6.072   5.809 -0.2474 -0.0822  0.9663
 5197SOL    HW220554   0.426   6.066   5.720 -0.9274  1.3629  0.5860
 5197SOL    HW320555   0.302   6.040   5.803 -0.6512  1.0239  0.8945
 5197SOL    MW420556   0.384   6.067   5.797 -0.3904  0.2544  0.9066
 5198SOL     OW20557   5.790   1.948   5.391 -0.0813 -0.1043 -0.7002
 5198SOL    HW220558   5.776   2.033   5.434 -1.2465  0.0334 -1.3089
 5198SOL    HW320559   5.863   1.909   5.438  0.5303  1.2799 -0.4599
 5198SOL    MW420560   5.798   1.954   5.403 -0.1544  0.0965 -0.7488
 5199SOL     OW20561   5.507   5.119   6.380  0.3417 -0.3583 -0.2739
 5199SOL    HW220562   5.562   5.112   6.302  0.1022 -0.5940 -0.4201
 5199SOL    HW320563   5.495   5.213   6.393  2.1847 -0.2085  0.7320
 5199SOL    MW420564   5.513   5.131   6.372  0.5532 -0.3696 -0.1605
 5200SOL     OW20565   2.779   4.895   4.204 -0.2453 -0.3033 -0.4420
 5200SOL    HW220566   2.816   4.881   4.291 -1.1615  0.5157  0.1004
 5200SOL    HW320567   2.743   4.809   4.179 -0.7010 -0.3537  0.3474
 5200SOL    MW420568   2.779   4.882   4.212 -0.4263 -0.2019 -0.2663
 5201SOL     OW20569   2.173   1.241   2.305 -0.5076 -0.2715  0.1856
 5201SOL    HW220570   2.099   1.210   2.254  0.8355 -1.8950 -0.9097
 5201SOL    HW320571   2.210   1.313   2.254 -1.4721  0.7460  0.8871
 5201SOL    MW420572   2.168   1.246   2.292 -0.4576 -0.3514  0.1336
 5202SOL     OW20573   0.784   5.311   6.188  0.0921  0.2785 -0.0697
 5202SOL    HW220574   0.865   5.328   6.237 -0.1409 -0.0313  0.4231
 5202SOL    HW320575   0.773   5.389   6.133  0.0703  0.8642  0.7462
 5202SOL    MW420576   0.793   5.323   6.187  0.0585  0.3149  0.1030
 5203SOL     OW20577   4.664   1.813   0.687  0.2406  0.7245 -0.0578
 5203SOL    HW220578   4.581   1.790   0.729  1.2671 -0.1055  1.6353
 5203SOL    HW320579   4.704   1.875   0.748  2.2376 -1.2929  0.8114
 5203SOL    MW420580   4.658   1.818   0.700  0.6396  0.3488  0.2803
 5204SOL     OW20581   1.136   3.270   4.608  0.0651  0.3908 -0.2089
 5204SOL    HW220582   1.229   3.285   4.626  0.2629  1.4343 -1.8623
 5204SOL    HW320583   1.094   3.268   4.694  1.7046 -0.8295  0.6032
 5204SOL    MW420584   1.143   3.272   4.622  0.3075  0.3675 -0.3199
 5205SOL     OW20585   1.706   5.403   2.977  0.2958  0.6596 -0.0858
 5205SOL    HW220586   1.801   5.415   2.981  0.4462 -0.5060  0.1632
 5205SOL    HW320587   1.670   5.477   3.026  1.0394  1.4212 -0.6554
 5205SOL    MW420588   1.714   5.415   2.984  0.4137  0.6063 -0.1281
 5206SOL     OW20589   0.179   5.786   5.964  0.2358 -0.3416 -0.3373
 5206SOL    HW220590   0.245   5.843   6.003  0.0807 -0.3852 -0.0134
 5206SOL    HW320591   0.202   5.698   5.995  1.3988 -0.7042 -2.0469
 5206SOL    MW420592   0.191   5.782   5.973  0.3688 -0.3952 -0.5201
 5207SOL     OW20593   2.663   1.673   2.238  0.1455 -0.6549 -0.1993
 5207SOL    HW220594   2.713   1.617   2.297  1.2811  1.0498  0.5344
 5207SOL    HW320595   2.711   1.671   2.156  0.8595  0.1703  0.1919
 5207SOL    MW420596   2.676   1.665   2.235  0.3895 -0.3211 -0.0509
 5208SOL     OW20597   3.055   2.177   2.416 -0.4331 -0.2093 -0.2266
 5208SOL    HW220598   2.990   2.216   2.358 -0.2626  1.6679  0.7827
 5208SOL    HW320599   3.117   2.134   2.356 -1.4446 -0.2298 -1.2978
 5208SOL    MW420600   3.055   2.176   2.400 -0.5441  0.0357 -0.2347
 5209SOL     OW20601   1.914   5.624   5.176 -0.2551  0.1913  0.1715
 5209SOL    HW220602   1.905   5.665   5.090 -0.7951 -0.5419 -0.1304
 5209SOL    HW320603   1.902   5.531   5.160 -0.4632  0.0500  1.0590
 5209SOL    MW420604   1.911   5.617   5.163 -0.3538  0.0759  0.2488
 5210SOL     OW20605   5.396   4.740   3.106  0.5716 -0.3074  0.0311
 5210SOL    HW220606   5.389   4.832   3.081 -1.8053  0.1629  1.9863
 5210SOL    HW320607   5.483   4.714   3.077  1.3993  2.5808 -0.4569
 5210SOL    MW420608   5.406   4.749   3.098  0.3672  0.1357  0.2247
 5211SOL     OW20609   4.066   3.835   6.001  0.1594  0.0705 -0.5353
 5211SOL    HW220610   3.988   3.782   6.017 -1.2436  2.1508 -0.0758
 5211SOL    HW320611   4.125   3.813   6.074  0.3425 -1.9980 -1.2363
 5211SOL    MW420612   4.064   3.825   6.013 -0.0016  0.0720 -0.5671
 5212SOL     OW20613   4.304   2.360   3.814  0.0878 -0.0003 -0.7734
 5212SOL    HW220614   4.307   2.312   3.731 -0.2192 -0.6411 -0.4270
 5212SOL    HW320615   4.306   2.291   3.881  0.2198  0.5043 -0.2552
 5212SOL    MW420616   4.304   2.345   3.812  0.0647 -0.0182 -0.6593
 5213SOL     OW20617   1.037   3.764   2.801  0.8918 -0.2808  0.1116
 5213SOL    HW220618   1.015   3.682   2.847  1.9246 -0.8280 -0.3286
 5213SOL    HW320619   1.086   3.815   2.866 -0.5205  0.3985  0.6810
 5213SOL    MW420620   1.040   3.760   2.816  0.8418 -0.2634  0.1286
 5214SOL     OW20621   5.767   0.789   3.444  0.7981  0.6427 -0.3917
 5214SOL    HW220622   5.702   0.845   3.400  1.1586  0.2535 -1.4415
 5214SOL    HW320623   5.801   0.844   3.515 -0.3555  1.0063 -0.1026
 5214SOL    MW420624   5.763   0.804   3.447  0.6935  0.6393 -0.4920
 5215SOL     OW20625   1.429   1.375   2.060 -0.1029 -0.0795  0.2279
 5215SOL    HW220626   1.343   1.414   2.077 -0.5240 -1.1827  0.6946
 5215SOL    HW320627   1.430   1.362   1.965 -0.3810  0.1084  0.1978
 5215SOL    MW420628   1.418   1.378   2.049 -0.1951 -0.2003  0.2855
 5216SOL     OW20629   3.894   4.066   4.370  0.0771 -0.1745  0.6662
 5216SOL    HW220630   3.843   4.136   4.411 -0.4881 -2.1434  3.6745
 5216SOL    HW320631   3.837   4.032   4.302  0.0743  1.7279 -0.3571
 5216SOL    MW420632   3.880   4.071   4.366  0.0022 -0.1832  0.9281
 5217SOL     OW20633   2.270   0.823   4.517 -0.2879  0.1329 -0.5500
 5217SOL    HW220634   2.303   0.871   4.592  1.0957  0.6983 -1.4775
 5217SOL    HW320635   2.253   0.735   4.551  1.2838  0.0850  0.2341
 5217SOL    MW420636   2.272   0.817   4.531  0.1020  0.2012 -0.5689
 5218SOL     OW20637   2.349   1.470   5.433  0.5687 -0.2356 -0.4842
 5218SOL    HW220638   2.406   1.451   5.359  0.4681  0.9616 -0.8802
 5218SOL    HW320639   2.372   1.559   5.460 -0.6193  0.0079 -0.2099
 5218SOL    MW420640   2.360   1.479   5.427  0.3987 -0.0455 -0.5003
 5219SOL     OW20641   0.561   4.183   3.807 -0.6123  0.3416  0.6660
 5219SOL    HW220642   0.647   4.211   3.839  0.6281 -1.8582 -0.5243
 5219SOL    HW320643   0.507   4.262   3.812  0.9794  1.4015  3.0122
 5219SOL    MW420644   0.565   4.197   3.812 -0.2387  0.1912  0.8185
 5220SOL     OW20645   6.342   5.830   3.252 -0.3132  0.2461  0.2763
 5220SOL    HW220646   6.315   5.746   3.214  0.7298  0.6033 -1.3603
 5220SOL    HW320647   6.432   5.815   3.282 -0.0840  0.7878 -0.1213
 5220SOL    MW420648   6.350   5.817   3.251 -0.1454  0.3647  0.0079
 5221SOL     OW20649   6.364   6.205   1.951  0.6511  0.0944 -0.1096
 5221SOL    HW220650   6.345   6.276   2.012 -2.1213  0.5265 -1.3270
 5221SOL    HW320651   6.372   6.249   1.866 -1.1897 -0.9894 -0.8965
 5221SOL    MW420652   6.363   6.221   1.947  0.0424  0.0084 -0.3740
 5222SOL     OW20653   3.906   4.820   5.974 -0.2268 -0.0936 -0.2186
 5222SOL    HW220654   3.836   4.867   5.928 -0.6229  0.2069  0.6652
 5222SOL    HW320655   3.968   4.888   5.999  0.7418 -0.4353 -1.5699
 5222SOL    MW420656   3.905   4.835   5.972 -0.1513 -0.0990 -0.2803
 5223SOL     OW20657   3.689   3.212   0.569  0.0271 -0.1019  0.6437
 5223SOL    HW220658   3.689   3.273   0.643 -0.5893 -1.1936  1.5619
 5223SOL    HW320659   3.704   3.268   0.493 -0.1405  1.1561  1.4992
 5223SOL    MW420660   3.691   3.228   0.569 -0.0764 -0.0800  0.8777
 5224SOL     OW20661   5.633   2.761   3.741  0.0306 -0.3773  0.0706
 5224SOL    HW220662   5.628   2.704   3.818  2.0792  2.7961  2.8254
 5224SOL    HW320663   5.666   2.704   3.672 -1.5827 -3.3204  1.5399
 5224SOL    MW420664   5.637   2.746   3.742  0.0880 -0.3469  0.6279
 5225SOL     OW20665   5.819   5.984   1.347  0.1755 -0.2853 -0.5387
 5225SOL    HW220666   5.890   5.942   1.297  0.3349 -2.2403  1.1967
 5225SOL    HW320667   5.741   5.935   1.323  0.0451 -0.4509  0.2001
 5225SOL    MW420668   5.818   5.972   1.337  0.1793 -0.5651 -0.2123
 5226SOL     OW20669   1.435   5.546   1.520 -0.4169  0.2382  0.3035
 5226SOL    HW220670   1.356   5.563   1.571 -0.1085  1.6437  0.3547
 5226SOL    HW320671   1.404   5.498   1.443 -0.8506 -2.1697  1.8870
 5226SOL    MW420672   1.420   5.542   1.517 -0.4335  0.1059  0.5192
 5227SOL     OW20673   3.766   2.097   2.578  0.0430  0.4820 -0.7313
 5227SOL    HW220674   3.681   2.078   2.618  0.1554  0.5553 -0.4545
 5227SOL    HW320675   3.765   2.192   2.563 -0.5457  0.2779 -2.1734
 5227SOL    MW420676   3.755   2.107   2.581 -0.0198  0.4647 -0.8850
 5228SOL     OW20677   1.532   1.563   1.509 -0.3391  0.0913  0.1824
 5228SOL    HW220678   1.566   1.475   1.525  0.0250  0.2019  0.0420
 5228SOL    HW320679   1.597   1.621   1.548 -0.1461  0.3195 -0.4566
 5228SOL    MW420680   1.545   1.559   1.516 -0.2656  0.1360  0.0796
 5229SOL     OW20681   1.212   1.707   2.301  0.1513 -0.0958  0.4352
 5229SOL    HW220682   1.276   1.685   2.368  1.2920  0.1177 -0.5599
 5229SOL    HW320683   1.194   1.624   2.257 -0.4139 -0.1889  0.8228
 5229SOL    MW420684   1.218   1.693   2.304  0.2272 -0.0799  0.3550
 5230SOL     OW20685   0.487   5.224   0.228  0.4159  0.1641  0.4953
 5230SOL    HW220686   0.419   5.240   0.293  0.7359 -0.0958  0.9023
 5230SOL    HW320687   0.460   5.273   0.151 -1.0862 -1.2408  0.0732
 5230SOL    MW420688   0.475   5.232   0.226  0.2599 -0.0556  0.4933
 5231SOL     OW20689   0.801   0.430   5.583 -0.5822  0.5874  0.1537
 5231SOL    HW220690   0.842   0.392   5.506  0.1093  1.8174 -0.1121
 5231SOL    HW320691   0.746   0.360   5.618  0.7772 -0.7111 -0.1893
 5231SOL    MW420692   0.799   0.416   5.578 -0.3116  0.5784  0.0734
 5232SOL     OW20693   3.562   4.152   1.087 -0.2303 -0.9766  0.3239
 5232SOL    HW220694   3.480   4.185   1.123  0.9448 -0.3367  2.6275
 5232SOL    HW320695   3.597   4.224   1.036 -0.5069 -0.8000  0.3816
 5232SOL    MW420696   3.556   4.166   1.085 -0.1118 -0.8688  0.6354
 5233SOL     OW20697   5.110   3.944   4.459  0.5259  0.3093 -0.0571
 5233SOL    HW220698   5.030   3.921   4.506  1.5918  0.4337  1.9574
 5233SOL    HW320699   5.121   3.874   4.394 -0.4921 -0.4491  0.5635
 5233SOL    MW420700   5.101   3.931   4.457  0.5322  0.2257  0.2905
 5234SOL     OW20701   4.881   3.631   0.889  0.0910 -0.0467 -0.5221
 5234SOL    HW220702   4.867   3.673   0.974  0.1785  1.4088 -1.1917
 5234SOL    HW320703   4.930   3.552   0.909  0.1950  0.3195  0.7690
 5234SOL    MW420704   4.885   3.627   0.903  0.1163  0.1937 -0.4401
 5235SOL     OW20705   3.900   2.012   1.208 -0.3354  0.6864  0.0660
 5235SOL    HW220706   3.981   1.960   1.203  0.0948  1.2453  0.9038
 5235SOL    HW320707   3.831   1.951   1.180  0.1504 -0.3696  1.0439
 5235SOL    MW420708   3.902   1.997   1.204 -0.2146  0.6208  0.3055
 5236SOL     OW20709   3.549   5.550   5.533  0.3467 -0.2637 -0.1984
 5236SOL    HW220710   3.588   5.635   5.550  0.6028 -0.6217  1.1092
 5236SOL    HW320711   3.573   5.530   5.442 -1.1213  1.7594 -1.1132
 5236SOL    MW420712   3.557   5.559   5.523  0.1868 -0.0440 -0.1465
 5237SOL     OW20713   3.104   3.033   2.929  0.3553 -0.4197  0.5312
 5237SOL    HW220714   3.077   2.944   2.906 -1.0563  0.5497 -1.9660
 5237SOL    HW320715   3.198   3.035   2.910  0.0441 -0.8942 -1.1939
 5237SOL    MW420716   3.113   3.022   2.924  0.1280 -0.3544 -0.0259
 5238SOL     OW20717   5.991   5.731   4.091  0.5700  0.1046 -0.7805
 5238SOL    HW220718   6.052   5.804   4.100 -0.6169  1.3897 -2.4302
 5238SOL    HW320719   5.994   5.710   3.997  0.6434 -1.7800 -0.3864
 5238SOL    MW420720   5.999   5.738   4.079  0.4231  0.0255 -0.9462
 5239SOL     OW20721   4.055   5.456   3.545 -1.0459 -0.0556 -0.0082
 5239SOL    HW220722   4.060   5.517   3.618 -0.5864 -2.0112  1.6729
 5239SOL    HW320723   3.975   5.406   3.560 -2.0070  0.7761 -1.9590
 5239SOL    MW420724   4.045   5.457   3.556 -1.1121 -0.2039 -0.0438
 5240SOL     OW20725   4.815   1.098   5.351  0.1212  0.2013  0.3901
 5240SOL    HW220726   4.751   1.088   5.281 -1.3030 -0.7939  1.7861
 5240SOL    HW320727   4.890   1.045   5.323 -0.5228 -0.3878 -0.2559
 5240SOL    MW420728   4.817   1.090   5.338 -0.1517 -0.0077  0.4890
 5241SOL     OW20729   0.967   0.923   4.074  0.2839  0.0433  0.1337
 5241SOL    HW220730   0.918   0.869   4.012  1.0454  0.7912 -1.1621
 5241SOL    HW320731   0.957   0.877   4.158 -1.3873 -0.5991 -0.3608
 5241SOL    MW420732   0.959   0.910   4.077  0.1639  0.0572 -0.1025
 5242SOL     OW20733   6.386   3.342   4.492  0.6161 -0.1052 -0.2161
 5242SOL    HW220734   6.330   3.360   4.568  1.6659  0.1697  0.5131
 5242SOL    HW320735   6.390   3.247   4.487 -0.6791 -0.1562 -0.8739
 5242SOL    MW420736   6.379   3.332   4.502  0.5837 -0.0757 -0.2067
 5243SOL     OW20737   3.860   5.078   0.367 -0.0225  0.1138  0.4112
 5243SOL    HW220738   3.788   5.142   0.361 -0.4714 -0.5048 -1.5984
 5243SOL    HW320739   3.938   5.127   0.341 -0.1707  0.1480  0.0192
 5243SOL    MW420740   3.860   5.093   0.363 -0.1013  0.0367  0.0943
 5244SOL     OW20741   6.320   5.812   4.418  0.9108 -0.0937 -0.0472
 5244SOL    HW220742   6.276   5.729   4.436 -0.6694  0.1269 -2.5094
 5244SOL    HW320743   6.295   5.869   4.490 -0.0835 -0.9854  0.3370
 5244SOL    MW420744   6.311   5.809   4.429  0.5711 -0.1823 -0.3214
 5245SOL     OW20745   1.682   6.213   0.861  0.3398 -0.2758 -0.4734
 5245SOL    HW220746   1.620   6.182   0.795 -0.1716  1.0980 -0.6661
 5245SOL    HW320747   1.698   6.305   0.839 -0.2694  0.4000  1.6094
 5245SOL    MW420748   1.676   6.221   0.850  0.1920 -0.0054 -0.2241
 5246SOL     OW20749   3.331   6.156   0.437  0.5989 -0.6323 -0.3180
 5246SOL    HW220750   3.397   6.197   0.494 -0.4678  2.8201 -1.2954
 5246SOL    HW320751   3.380   6.127   0.361  1.4004 -1.0146  0.3224
 5246SOL    MW420752   3.346   6.158   0.435  0.5639 -0.2272 -0.3624
 5247SOL     OW20753   1.087   6.064   0.672  0.0595  0.7051 -0.4564
 5247SOL    HW220754   1.005   6.056   0.720  0.2839 -1.6885 -0.3151
 5247SOL    HW320755   1.064   6.111   0.592 -1.3136  0.6738 -0.1046
 5247SOL    MW420756   1.073   6.069   0.668 -0.0920  0.3852 -0.3914
 5248SOL     OW20757   0.140   2.169   5.573  0.3830  0.3087 -0.1505
 5248SOL    HW220758   0.097   2.121   5.502  2.4032 -1.0632 -0.5527
 5248SOL    HW320759   0.230   2.179   5.544  0.3142  3.6073  0.3773
 5248SOL    MW420760   0.146   2.164   5.560  0.6405  0.5629 -0.1339
 5249SOL     OW20761   3.663   1.361   2.144  0.2103  0.5173 -0.4916
 5249SOL    HW220762   3.583   1.334   2.188 -0.1104  0.2319 -1.2289
 5249SOL    HW320763   3.648   1.453   2.122  0.7622  0.9523  0.8223
 5249SOL    MW420764   3.651   1.370   2.147  0.2408  0.5370 -0.4156
 5250SOL     OW20765   3.300   5.628   0.016 -0.0085  0.1946 -0.0567
 5250SOL    HW220766   3.361   5.677  -0.040 -1.0237  1.8095  0.1817
 5250SOL    HW320767   3.356   5.590   0.084  1.0366 -0.4654 -1.2354
 5250SOL    MW420768   3.316   5.630   0.018 -0.0046  0.3206 -0.1808
 5251SOL     OW20769   4.750   1.787   5.439  0.0112 -0.4483 -0.2740
 5251SOL    HW220770   4.680   1.730   5.407 -0.6964  0.5304 -0.5316
 5251SOL    HW320771   4.783   1.743   5.517  1.0483 -2.3542 -1.6974
 5251SOL    MW420772   4.745   1.774   5.445  0.0547 -0.5706 -0.4958
 5252SOL     OW20773   3.647   5.250   0.077  0.1070 -0.4816 -0.1137
 5252SOL    HW220774   3.698   5.260  -0.004  0.0927 -2.1625 -0.3676
 5252SOL    HW320775   3.574   5.310   0.067  1.8944  1.8758  0.1796
 5252SOL    MW420776   3.644   5.259   0.065  0.3410 -0.3923 -0.1085
 5253SOL     OW20777   0.576   2.940   1.960 -0.4340 -0.2734 -0.3832
 5253SOL    HW220778   0.507   2.934   1.894 -1.1225  1.4512  0.1214
 5253SOL    HW320779   0.530   2.921   2.043 -0.1205  0.0425 -0.1377
 5253SOL    MW420780   0.561   2.937   1.962 -0.4835 -0.0042 -0.2843
 5254SOL     OW20781   1.987   3.641   1.872  0.3675 -0.2666  0.5247
 5254SOL    HW220782   2.069   3.686   1.850  0.2941 -0.7451 -0.8539
 5254SOL    HW320783   1.953   3.612   1.787 -2.1345  1.4438  0.8378
 5254SOL    MW420784   1.993   3.643   1.858  0.0277 -0.1040  0.3841
 5255SOL     OW20785   2.204   4.633   4.766 -0.7485 -0.0340 -0.3652
 5255SOL    HW220786   2.236   4.712   4.723 -1.8742 -0.0965 -1.3718
 5255SOL    HW320787   2.281   4.596   4.810 -0.2441  1.6892  0.2773
 5255SOL    MW420788   2.219   4.638   4.766 -0.8305  0.1851 -0.4132
 5256SOL     OW20789   2.473   2.079   1.063 -0.3383 -0.2443 -0.9070
 5256SOL    HW220790   2.430   2.026   0.996  2.9310  0.4999 -3.9644
 5256SOL    HW320791   2.464   2.169   1.032  1.4543  0.1043 -0.5689
 5256SOL    MW420792   2.466   2.084   1.050  0.3296 -0.1001 -1.2658
 5257SOL     OW20793   0.022   4.973   6.134  0.1193 -0.2526  0.2112
 5257SOL    HW220794  -0.039   4.936   6.198 -1.4630  2.3802  0.3787
 5257SOL    HW320795   0.006   5.067   6.137  0.1041  0.0877 -3.8878
 5257SOL    MW420796   0.012   4.980   6.143 -0.0914  0.1397 -0.3075
 5258SOL     OW20797   5.351   2.359   1.637  0.7157 -0.0850  0.0836
 5258SOL    HW220798   5.307   2.299   1.576  2.7846 -2.0127  0.3554
 5258SOL    HW320799   5.425   2.309   1.671  0.5647  1.4555  3.0321
 5258SOL    MW420800   5.355   2.344   1.633  0.9688 -0.1361  0.5085
 5259SOL     OW20801   1.082   4.045   5.343 -0.0678  0.0428 -0.2455
 5259SOL    HW220802   1.171   4.031   5.309  0.2995  2.1349 -0.2812
 5259SOL    HW320803   1.025   4.005   5.278  0.8087 -0.9734 -0.4265
 5259SOL    MW420804   1.086   4.038   5.330  0.0963  0.1847 -0.2741
 5260SOL     OW20805   0.052   3.908   2.650 -0.0850  0.4614 -0.5892
 5260SOL    HW220806   0.086   3.993   2.678 -0.5321  0.7553 -0.9263
 5260SOL    HW320807   0.130   3.859   2.622  0.1091  0.9851 -0.9758
 5260SOL    MW420808   0.067   3.913   2.650 -0.1184  0.5693 -0.6847
 5261SOL     OW20809   5.403   2.530   3.725 -0.3758  0.3930 -0.2929
 5261SOL    HW220810   5.387   2.483   3.807  4.2152 -1.4946 -0.1395
 5261SOL    HW320811   5.413   2.621   3.752  0.1035 -0.0446  1.1289
 5261SOL    MW420812   5.402   2.536   3.740  0.2932  0.0862 -0.0851
 5262SOL     OW20813   4.906   4.865   2.547 -0.0617 -0.1457 -0.0164
 5262SOL    HW220814   4.841   4.934   2.561 -2.5467 -1.7392 -2.4661
 5262SOL    HW320815   4.988   4.911   2.533 -1.7084  2.4440 -2.1501
 5262SOL    MW420816   4.908   4.880   2.547 -0.6068 -0.0143 -0.6211
 5263SOL     OW20817   3.828   4.993   3.596  0.0127 -0.1367 -0.2012
 5263SOL    HW220818   3.878   4.912   3.599  1.3767  0.6806  0.1719
 5263SOL    HW320819   3.874   5.047   3.531 -0.6843  0.4625 -0.2140
 5263SOL    MW420820   3.841   4.990   3.588  0.1007  0.0502 -0.1537
 5264SOL     OW20821   0.563   5.725   1.302  0.2215  0.0895 -0.2445
 5264SOL    HW220822   0.573   5.723   1.397 -1.4519  0.8445 -0.0277
 5264SOL    HW320823   0.613   5.802   1.274 -0.6522  0.8437  0.2262
 5264SOL    MW420824   0.571   5.735   1.311 -0.1145  0.2886 -0.1538
 5265SOL     OW20825   1.115   0.156   0.927  0.0335  0.4620 -0.5916
 5265SOL    HW220826   1.197   0.186   0.966 -0.1538  0.1318  0.0812
 5265SOL    HW320827   1.116   0.061   0.939 -0.3964  0.4443 -0.6771
 5265SOL    MW420828   1.126   0.148   0.934 -0.0479  0.4161 -0.5141
 5266SOL     OW20829   5.447   4.514   4.645 -0.2352 -0.2868 -0.6605
 5266SOL    HW220830   5.495   4.450   4.697  2.3891  1.6983 -0.4416
 5266SOL    HW320831   5.452   4.481   4.556  1.2580 -0.3217 -0.5799
 5266SOL    MW420832   5.454   4.501   4.640  0.3080 -0.0295 -0.6210
 5267SOL     OW20833   6.260   4.685   3.243 -0.1949 -0.1885 -0.0050
 5267SOL    HW220834   6.240   4.730   3.161  0.0961 -0.7526 -0.3921
 5267SOL    HW320835   6.273   4.755   3.306 -1.5749  0.2411 -0.1645
 5267SOL    MW420836   6.259   4.700   3.240 -0.3386 -0.2063 -0.0771
 5268SOL     OW20837   6.081   1.365   3.912  0.7283  0.5992  0.2499
 5268SOL    HW220838   6.144   1.297   3.888  1.2281  1.0939  0.1593
 5268SOL    HW320839   6.117   1.404   3.991 -0.6099 -0.6210  1.5322
 5268SOL    MW420840   6.094   1.361   3.919  0.6177  0.5035  0.4072
 5269SOL     OW20841   3.425   4.123   2.553  0.3307 -0.3441  0.0195
 5269SOL    HW220842   3.425   4.172   2.635 -1.1806  2.1236 -1.3425
 5269SOL    HW320843   3.348   4.067   2.557  0.8063 -0.9680  0.6518
 5269SOL    MW420844   3.415   4.122   2.564  0.1940 -0.1008 -0.0768
 5270SOL     OW20845   4.592   1.073   5.181  0.5697  0.0245 -0.0634
 5270SOL    HW220846   4.624   1.089   5.092 -1.8683  0.4599 -0.9309
 5270SOL    HW320847   4.605   0.979   5.195 -1.7360 -0.7312 -2.1458
 5270SOL    MW420848   4.598   1.063   5.171 -0.0562 -0.0177 -0.4526
 5271SOL     OW20849   1.696   1.084   1.381 -0.5308 -0.2917 -0.1221
 5271SOL    HW220850   1.710   1.094   1.287  1.0313  1.0915  0.2099
 5271SOL    HW320851   1.747   1.006   1.404 -0.6665 -0.4547 -0.3690
 5271SOL    MW420852   1.705   1.075   1.372 -0.3426 -0.1307 -0.1109
 5272SOL     OW20853   4.567   2.389   6.131  0.0693 -0.2304  0.2712
 5272SOL    HW220854   4.514   2.311   6.112  0.3291 -0.3300 -0.0475
 5272SOL    HW320855   4.523   2.430   6.205 -1.4506  0.6122 -1.0195
 5272SOL    MW420856   4.554   2.384   6.138 -0.0969 -0.1323  0.0588
 5273SOL     OW20857   4.688   4.337   5.376 -0.0056  0.0405  0.4335
 5273SOL    HW220858   4.782   4.341   5.357 -0.4363 -0.2945 -1.9893
 5273SOL    HW320859   4.657   4.426   5.360 -0.4010 -0.2789 -0.6596
 5273SOL    MW420860   4.697   4.349   5.372 -0.1146 -0.0458 -0.0304
 5274SOL     OW20861   4.546   3.498   2.367  0.1244  0.1896 -0.8535
 5274SOL    HW220862   4.473   3.532   2.316  0.7568  0.7979 -1.3809
 5274SOL    HW320863   4.521   3.512   2.458 -1.1523 -1.1986 -0.9557
 5274SOL    MW420864   4.533   3.504   2.372  0.0394  0.0867 -0.9365
 5275SOL     OW20865   4.917   3.608   0.009 -0.3933 -0.0917  0.3908
 5275SOL    HW220866   4.848   3.595   0.075 -1.0206 -1.3464 -0.4719
 5275SOL    HW320867   4.873   3.654  -0.063 -0.3744 -0.9544 -0.1913
 5275SOL    MW420868   4.902   3.612   0.008 -0.4736 -0.3711  0.2002
 5276SOL     OW20869   3.336   2.875   1.025 -0.3067  0.0767 -0.5286
 5276SOL    HW220870   3.362   2.879   1.117  2.9800  0.9483 -1.3408
 5276SOL    HW320871   3.273   2.946   1.014  0.7963  1.2986  0.6902
 5276SOL    MW420872   3.331   2.885   1.035  0.2725  0.3529 -0.4749
 5277SOL     OW20873   3.646   6.306   5.064 -0.1418 -0.0758  0.3157
 5277SOL    HW220874   3.598   6.339   4.988  0.5203  2.1058  0.7985
 5277SOL    HW320875   3.578   6.269   5.121 -1.1759  2.0247  0.5165
 5277SOL    MW420876   3.631   6.305   5.062 -0.1909  0.4892  0.4059
 5278SOL     OW20877   6.405   5.100   3.094 -0.3435  0.6149 -0.0027
 5278SOL    HW220878   6.441   5.115   3.006 -1.8695  2.1196 -0.4344
 5278SOL    HW320879   6.347   5.025   3.084 -1.1597  1.2907 -0.5231
 5278SOL    MW420880   6.402   5.092   3.081 -0.6525  0.9026 -0.1283
 5279SOL     OW20881   0.152   5.071   4.685  0.0228 -0.3369  0.3100
 5279SOL    HW220882   0.094   5.141   4.716 -0.6887  0.7117 -2.9674
 5279SOL    HW320883   0.094   4.999   4.664  0.4913 -1.0348  1.3051
 5279SOL    MW420884   0.137   5.071   4.686 -0.0093 -0.2906  0.0089
 5280SOL     OW20885   5.606   1.189   2.391 -0.1851  0.4539 -0.4073
 5280SOL    HW220886   5.609   1.240   2.310 -3.1353  0.2767 -0.7283
 5280SOL    HW320887   5.574   1.250   2.457  1.4075  0.3716  0.5060
 5280SOL    MW420888   5.603   1.204   2.389 -0.3642  0.4196 -0.3291
 5281SOL     OW20889   5.802   1.077   1.371  0.0747 -0.2360 -0.2114
 5281SOL    HW220890   5.846   1.121   1.298 -0.8623  0.4417 -0.4030
 5281SOL    HW320891   5.809   0.984   1.351 -1.0845 -0.0440 -1.7800
 5281SOL    MW420892   5.809   1.070   1.358 -0.2019 -0.1213 -0.4436
 5282SOL     OW20893   0.264   1.331   2.009 -0.0203 -0.4774 -0.0202
 5282SOL    HW220894   0.214   1.251   1.993  0.3863 -0.7576  0.0913
 5282SOL    HW320895   0.211   1.400   1.970 -0.4720 -0.7742  0.0574
 5282SOL    MW420896   0.250   1.329   2.001 -0.0262 -0.5535  0.0048
 5283SOL     OW20897   5.469   4.389   2.088  0.0603 -0.1360 -0.4117
 5283SOL    HW220898   5.548   4.357   2.132  0.8107  0.5755 -1.1916
 5283SOL    HW320899   5.397   4.342   2.129  0.9313 -1.0898  0.0497
 5283SOL    MW420900   5.470   4.379   2.099  0.2742 -0.1680 -0.4537
 5284SOL     OW20901   3.738   3.572   5.432  0.0207  0.2191  0.0481
 5284SOL    HW220902   3.729   3.653   5.381 -0.2585 -0.1518 -0.5046
 5284SOL    HW320903   3.797   3.595   5.504  1.7694  0.3154 -1.3747
 5284SOL    MW420904   3.744   3.586   5.435  0.2146  0.1829 -0.2125
 5285SOL     OW20905   2.450   4.071   0.991 -0.2976  0.4726  0.0461
 5285SOL    HW220906   2.481   4.125   1.063 -0.2303  0.2811  0.1622
 5285SOL    HW320907   2.529   4.047   0.943 -0.4764  1.8170 -0.9600
 5285SOL    MW420908   2.464   4.075   0.994 -0.3123  0.6247 -0.0713
 5286SOL     OW20909   4.083   4.108   2.099 -0.4580 -0.1068 -0.2303
 5286SOL    HW220910   4.035   4.105   2.016 -0.9362  0.7877 -0.0010
 5286SOL    HW320911   4.033   4.170   2.153 -0.4554 -1.0783  0.9184
 5286SOL    MW420912   4.070   4.116   2.096 -0.5208 -0.1170 -0.0485
 5287SOL     OW20913   0.202   2.871   2.999  0.1126 -0.0535  0.7607
 5287SOL    HW220914   0.180   2.921   3.078 -2.1651  1.8660 -0.9396
 5287SOL    HW320915   0.124   2.817   2.984 -1.0922  2.1965 -1.9718
 5287SOL    MW420916   0.189   2.870   3.008 -0.3469  0.4966  0.1758
 5288SOL     OW20917   1.295   0.295   3.075  0.2194  0.0572 -0.1130
 5288SOL    HW220918   1.333   0.365   3.021 -0.5703 -0.5605 -1.5136
 5288SOL    HW320919   1.231   0.253   3.018  0.7838 -1.9281  0.6467
 5288SOL    MW420920   1.291   0.299   3.061  0.1897 -0.2862 -0.1975
 5289SOL     OW20921   2.678   5.448   4.309  0.0522 -0.1975  0.0421
 5289SOL    HW220922   2.740   5.381   4.282 -0.9722 -0.8094 -0.8675
 5289SOL    HW320923   2.702   5.526   4.259  0.7549 -0.1040  0.5153
 5289SOL    MW420924   2.689   5.450   4.299  0.0098 -0.2659 -0.0155
 5290SOL     OW20925   1.124   6.158   3.946 -0.5052  0.0693  0.0763
 5290SOL    HW220926   1.058   6.157   4.015 -1.7565  0.8780 -1.0486
 5290SOL    HW320927   1.107   6.078   3.896  0.7659 -0.8105  0.9892
 5290SOL    MW420928   1.113   6.147   3.948 -0.5026  0.0599  0.0483
 5291SOL     OW20929   1.579   0.290   2.331  0.8128  0.0751 -0.4263
 5291SOL    HW220930   1.633   0.212   2.342 -0.4627 -0.9774 -1.2743
 5291SOL    HW320931   1.513   0.285   2.401  1.7924  1.3859  0.6494
 5291SOL    MW420932   1.577   0.279   2.341  0.7738  0.1092 -0.3963
 5292SOL     OW20933   4.486   1.048   3.948  0.3453  0.2300  0.2716
 5292SOL    HW220934   4.574   1.071   3.921  0.1138 -0.9802 -1.6424
 5292SOL    HW320935   4.498   0.998   4.029  1.3076  0.9813  0.6158
 5292SOL    MW420936   4.499   1.045   3.955  0.4417  0.1695  0.0645
 5293SOL     OW20937   4.799   5.140   0.830  0.3857 -0.4813 -0.0170
 5293SOL    HW220938   4.874   5.137   0.888  0.8072 -0.4418 -0.5513
 5293SOL    HW320939   4.724   5.154   0.888  0.8158 -0.2796  0.4972
 5293SOL    MW420940   4.799   5.142   0.845  0.4981 -0.4495 -0.0196
 5294SOL     OW20941   5.362   3.249   5.907 -0.2996  0.1127  0.4396
 5294SOL    HW220942   5.406   3.214   5.829  0.0716 -1.4736  1.3130
 5294SOL    HW320943   5.280   3.199   5.913 -0.6908  0.7600  0.6619
 5294SOL    MW420944   5.357   3.238   5.897 -0.3023 -0.0112  0.5842
 5295SOL     OW20945   3.848   1.593   6.146  0.1408  0.1041  0.5139
 5295SOL    HW220946   3.875   1.680   6.175 -2.1872  0.8525  0.6469
 5295SOL    HW320947   3.803   1.555   6.221 -1.4086 -0.0129 -0.4269
 5295SOL    MW420948   3.846   1.599   6.159 -0.3708  0.1874  0.4073
 5296SOL     OW20949   1.825   0.592   0.681  0.5073 -0.0991 -0.5511
 5296SOL    HW220950   1.798   0.507   0.717  0.3236  0.3853  0.4975
 5296SOL    HW320951   1.855   0.572   0.592 -0.1225 -1.1638 -0.5423
 5296SOL    MW420952   1.825   0.578   0.674  0.4000 -0.1757 -0.4116
 5297SOL     OW20953   3.613   3.144   3.409 -0.2865 -0.1474  0.5031
 5297SOL    HW220954   3.541   3.082   3.395 -0.2339 -0.8710  3.0057
 5297SOL    HW320955   3.682   3.093   3.450  0.9948  0.9251 -0.2507
 5297SOL    MW420956   3.612   3.129   3.413 -0.1105 -0.1014  0.7339
 5298SOL     OW20957   3.593   3.411   4.434  0.6870  0.0255  0.5477
 5298SOL    HW220958   3.560   3.372   4.352  2.0195  1.7409 -0.9022
 5298SOL    HW320959   3.663   3.353   4.462  0.5825 -0.2887  0.1696
 5298SOL    MW420960   3.598   3.398   4.427  0.8490  0.2104  0.3066
 5299SOL     OW20961   3.897   0.772   3.695  0.4834 -0.2290  0.0824
 5299SOL    HW220962   3.921   0.754   3.786 -0.0914  2.6911  0.8916
 5299SOL    HW320963   3.823   0.714   3.679  0.4473 -0.6398  1.5466
 5299SOL    MW420964   3.891   0.762   3.705  0.4028  0.1021  0.3823
 5300SOL     OW20965   2.886   5.044   1.142  0.3100 -0.2229  0.0507
 5300SOL    HW220966   2.913   5.134   1.121 -0.0434 -0.2036 -0.3511
 5300SOL    HW320967   2.803   5.055   1.188 -0.4519 -0.3914 -1.2311
 5300SOL    MW420968   2.878   5.058   1.145  0.1628 -0.2426 -0.1714
 5301SOL     OW20969   5.111   1.413   3.433  0.0621 -0.1347  0.1167
 5301SOL    HW220970   5.071   1.438   3.516 -0.0276 -0.3389  0.1356
 5301SOL    HW320971   5.183   1.356   3.458  0.3672  0.2295  0.0834
 5301SOL    MW420972   5.115   1.409   3.447  0.0905 -0.1136  0.1148
 5302SOL     OW20973   6.105   0.355   5.718 -0.6180 -0.5018  0.0022
 5302SOL    HW220974   6.192   0.388   5.742 -0.5380 -0.1516 -0.7323
 5302SOL    HW320975   6.080   0.297   5.790  0.7714 -1.6114 -0.3820
 5302SOL    MW420976   6.113   0.352   5.731 -0.4241 -0.6020 -0.1454
 5303SOL     OW20977   1.776   6.219   2.162 -0.0840  0.4952 -0.2217
 5303SOL    HW220978   1.843   6.186   2.222  1.7708  0.0783 -2.3722
 5303SOL    HW320979   1.770   6.312   2.181  0.0602  0.2890  0.9247
 5303SOL    MW420980   1.784   6.227   2.173  0.1797  0.4130 -0.3542
 5304SOL     OW20981   0.342   3.307   1.677 -0.3681 -0.2759 -0.5951
 5304SOL    HW220982   0.427   3.278   1.644  0.5755 -0.0134  1.4170
 5304SOL    HW320983   0.303   3.355   1.605  0.6927 -1.3422 -1.9380
 5304SOL    MW420984   0.348   3.309   1.663 -0.1037 -0.3819 -0.5068
 5305SOL     OW20985   3.889   1.331   5.435  0.1368 -0.0385 -0.1304
 5305SOL    HW220986   3.864   1.384   5.360 -0.2470 -1.4845 -1.0746
 5305SOL    HW320987   3.821   1.263   5.440 -0.3704  0.5614  2.1170
 5305SOL    MW420988   3.877   1.329   5.426  0.0192 -0.1501  0.0415
 5306SOL     OW20989   0.023   1.393   3.545 -0.3685 -0.2515  0.3046
 5306SOL    HW220990   0.084   1.409   3.473  0.6122 -1.3198  0.8595
 5306SOL    HW320991  -0.046   1.457   3.532 -0.3581 -0.5621 -1.7332
 5306SOL    MW420992   0.022   1.403   3.533 -0.2378 -0.4334  0.1089
 5307SOL     OW20993   6.260   2.948   4.232 -0.1383 -0.0630 -0.5567
 5307SOL    HW220994   6.175   2.948   4.276  1.3285  0.4218  2.6115
 5307SOL    HW320995   6.269   3.036   4.196 -0.4035  0.3500  0.3664
 5307SOL    MW420996   6.250   2.960   4.233  0.0202  0.0555 -0.0169
 5308SOL     OW20997   3.257   4.289   1.899 -0.1346 -0.3804 -0.0457
 5308SOL    HW220998   3.197   4.324   1.965  0.5118  3.6165 -1.2956
 5308SOL    HW320999   3.242   4.343   1.822  1.6881 -2.4897 -2.0454
 5308SOL    MW421000   3.247   4.301   1.898  0.1912 -0.1313 -0.4744
 5309SOL     OW21001   3.387   4.766   0.325  0.3187  0.4680 -0.5337
 5309SOL    HW221002   3.313   4.736   0.271  0.5643  1.1213 -1.2567
 5309SOL    HW321003   3.407   4.853   0.291  0.4006  0.9587  0.7151
 5309SOL    MW421004   3.380   4.774   0.313  0.3620  0.6190 -0.4643
 5310SOL     OW21005   1.404   5.871   0.515  0.3785 -0.2115  0.2156
 5310SOL    HW221006   1.422   5.777   0.509  0.6933 -0.0772 -1.4733
 5310SOL    HW321007   1.431   5.906   0.430  2.2376  1.7754  1.5217
 5310SOL    MW421008   1.410   5.863   0.503  0.6653  0.0684  0.1651
 5311SOL     OW21009   5.833   3.931   3.981  0.9766 -0.2231 -0.4083
 5311SOL    HW221010   5.781   3.963   4.054 -0.3931 -2.9968 -0.0339
 5311SOL    HW321011   5.924   3.940   4.009  0.4881 -0.6629  1.3931
 5311SOL    MW421012   5.838   3.936   3.994  0.7314 -0.6471 -0.1212
 5312SOL     OW21013   1.308   0.075   6.249 -0.0351  0.0195 -0.1699
 5312SOL    HW221014   1.340  -0.011   6.223  2.4315  1.2061 -1.4405
 5312SOL    HW321015   1.308   0.073   6.345 -3.3953 -2.4413 -0.0549
 5312SOL    MW421016   1.312   0.064   6.258 -0.1530 -0.1486 -0.3224
 5313SOL     OW21017   5.553   0.072   1.141 -0.1054  0.2541 -0.1458
 5313SOL    HW221018   5.463   0.071   1.172 -0.7327 -1.0051 -1.8400
 5313SOL    HW321019   5.548   0.039   1.052  1.9501  0.9245 -0.5611
 5313SOL    MW421020   5.540   0.067   1.134  0.0830  0.1764 -0.4241
 5314SOL     OW21021   0.014   4.548   1.695  0.1944 -0.0442 -0.0241
 5314SOL    HW221022   0.104   4.541   1.662  1.0164  0.3540  1.9909
 5314SOL    HW321023   0.002   4.470   1.749 -1.1636 -0.7445 -1.2499
 5314SOL    MW421024   0.024   4.536   1.697  0.1237 -0.0841  0.0800
 5315SOL     OW21025   6.383   2.704   3.007 -0.3174  0.2280  0.4197
 5315SOL    HW221026   6.368   2.791   2.969  0.4491  0.1246 -0.1371
 5315SOL    HW321027   6.337   2.707   3.091 -2.5925  0.2514 -0.7488
 5315SOL    MW421028   6.375   2.716   3.013 -0.5165  0.2174  0.1921
 5316SOL     OW21029   0.560   0.177   3.817  0.4825 -0.3749  0.1990
 5316SOL    HW221030   0.479   0.128   3.801  0.6332 -0.8555  0.8642
 5316SOL    HW321031   0.532   0.268   3.824  0.0087 -0.5252  0.3039
 5316SOL    MW421032   0.546   0.183   3.816  0.4399 -0.4581  0.3006
 5317SOL     OW21033   1.127   3.432   4.298 -0.3883  0.4241 -0.3659
 5317SOL    HW221034   1.087   3.487   4.231  0.6215  1.1326 -0.4056
 5317SOL    HW321035   1.070   3.442   4.374 -1.5952 -0.4568 -1.1217
 5317SOL    MW421036   1.114   3.441   4.299 -0.4143  0.4014 -0.4709
 5318SOL     OW21037   0.941   6.160   2.759  0.0019  0.2895  0.2490
 5318SOL    HW221038   0.893   6.189   2.836  0.1649  0.5381  0.2584
 5318SOL    HW321039   0.883   6.181   2.685  0.3554  1.1743  0.2082
 5318SOL    MW421040   0.927   6.166   2.759  0.0701  0.4390  0.2448
 5319SOL     OW21041   2.214   0.174   0.572  0.0921 -0.1673  0.2084
 5319SOL    HW221042   2.143   0.195   0.633 -0.0559  1.4695 -0.4731
 5319SOL    HW321043   2.171   0.131   0.499 -0.3615  1.5067 -0.5548
 5319SOL    MW421044   2.199   0.171   0.570  0.0127  0.2695  0.0178
 5320SOL     OW21045   0.034   6.162   5.634 -0.4796 -0.1844 -0.5220
 5320SOL    HW221046  -0.059   6.140   5.633 -0.5730  0.1300  0.3503
 5320SOL    HW321047   0.078   6.078   5.651 -0.6997 -0.1229  0.4478
 5320SOL    MW421048   0.028   6.148   5.636 -0.5209 -0.1348 -0.2790
 5321SOL     OW21049   3.306   1.791   2.684 -0.7004 -0.2540 -0.4631
 5321SOL    HW221050   3.249   1.821   2.755  0.4940  0.9494  0.0304
 5321SOL    HW321051   3.262   1.820   2.604 -1.4395 -0.5200 -0.1561
 5321SOL    MW421052   3.293   1.799   2.683 -0.6403 -0.1303 -0.3575
 5322SOL     OW21053   1.690   4.977   5.191  0.0338  0.0158 -0.1818
 5322SOL    HW221054   1.609   4.933   5.217 -0.5549  0.2121 -1.5491
 5322SOL    HW321055   1.689   5.059   5.240 -0.9273  0.2909 -0.6360
 5322SOL    MW421056   1.679   4.982   5.201 -0.1707  0.0780 -0.4221
 5323SOL     OW21057   2.902   3.205   5.430  0.1697 -0.1005  0.2244
 5323SOL    HW221058   2.954   3.170   5.503  0.2712 -0.7745 -0.1595
 5323SOL    HW321059   2.814   3.169   5.445  0.2975 -0.6078 -0.2276
 5323SOL    MW421060   2.897   3.195   5.442  0.2000 -0.2564  0.1141
 5324SOL     OW21061   5.563   5.565   2.660  0.2423  0.2375 -0.2492
 5324SOL    HW221062   5.515   5.644   2.685  0.1255 -0.5396  2.2527
 5324SOL    HW321063   5.650   5.596   2.638 -0.2716  1.2348 -0.9795
 5324SOL    MW421064   5.568   5.580   2.661  0.1591  0.2666 -0.0155
 5325SOL     OW21065   5.839   6.331   2.672 -0.3920 -0.8008 -0.3337
 5325SOL    HW221066   5.835   6.380   2.754 -1.1772  1.9109 -1.8668
 5325SOL    HW321067   5.802   6.390   2.606 -0.4637 -3.1110 -2.5616
 5325SOL    MW421068   5.833   6.345   2.674 -0.5051 -0.7478 -0.8299
 5326SOL     OW21069   5.656   5.488   2.007  0.4137 -0.2904 -0.6165
 5326SOL    HW221070   5.656   5.453   1.918  1.1933  1.9476 -1.5733
 5326SOL    HW321071   5.619   5.576   1.998 -0.4896 -0.4028  1.4739
 5326SOL    MW421072   5.651   5.495   1.994  0.3973 -0.0100 -0.4669
 5327SOL     OW21073   0.424   3.918   4.536  0.3287  0.4346 -0.0931
 5327SOL    HW221074   0.400   3.843   4.591  0.9255  0.4257  0.1656
 5327SOL    HW321075   0.397   3.894   4.448  0.5370 -0.0941 -0.0143
 5327SOL    MW421076   0.417   3.905   4.532  0.4349  0.3637 -0.0486
 5328SOL     OW21077   2.424   2.463   3.346  0.2087  0.1880 -0.0345
 5328SOL    HW221078   2.356   2.401   3.321  0.3519 -0.1280  0.3430
 5328SOL    HW321079   2.378   2.546   3.357  0.5096  1.0248 -3.9083
 5328SOL    MW421080   2.409   2.465   3.344  0.2673  0.2567 -0.4958
 5329SOL     OW21081   0.107   6.197   3.468 -0.0791 -0.2382 -0.3895
 5329SOL    HW221082   0.143   6.120   3.423 -1.2876 -0.4157 -1.1080
 5329SOL    HW321083   0.183   6.251   3.487  0.5485 -0.3766 -2.2723
 5329SOL    MW421084   0.121   6.194   3.464 -0.1558 -0.2799 -0.7327
 5330SOL     OW21085   3.634   3.109   4.932  0.1314 -0.2492 -0.1992
 5330SOL    HW221086   3.641   3.128   5.026  0.8343  0.3503 -0.3644
 5330SOL    HW321087   3.562   3.165   4.902 -1.1754 -1.6240  0.2717
 5330SOL    MW421088   3.625   3.119   4.941  0.0517 -0.3515 -0.1589
 5331SOL     OW21089   0.505   2.827   2.993 -0.4977 -0.5137 -0.1993
 5331SOL    HW221090   0.416   2.828   2.958 -0.3283 -1.2121 -0.6542
 5331SOL    HW321091   0.537   2.738   2.978  0.6223 -0.0151 -0.9166
 5331SOL    MW421092   0.498   2.816   2.987 -0.3276 -0.5401 -0.3540
 5332SOL     OW21093   5.171   1.138   3.558  0.0049 -0.6494  0.1501
 5332SOL    HW221094   5.187   1.062   3.503  1.7761  0.5219 -1.0210
 5332SOL    HW321095   5.243   1.139   3.620  0.8664  0.8854 -0.8175
 5332SOL    MW421096   5.182   1.128   3.559  0.3523 -0.2924 -0.1321
 5333SOL     OW21097   3.865   0.928   1.824 -0.5537 -0.2611  0.1064
 5333SOL    HW221098   3.791   0.929   1.885 -0.9408  3.2108 -0.2251
 5333SOL    HW321099   3.940   0.903   1.878 -1.1335  1.2782  1.7328
 5333SOL    MW421100   3.865   0.924   1.839 -0.6813  0.4001  0.2772
 5334SOL     OW21101   1.553   4.950   2.413 -0.4386 -0.4665  0.1313
 5334SOL    HW221102   1.579   4.926   2.502 -0.1403 -1.0245 -0.1065
 5334SOL    HW321103   1.522   4.868   2.374 -0.9484 -0.1458 -0.1473
 5334SOL    MW421104   1.552   4.936   2.420 -0.4665 -0.4978  0.0632
 5335SOL     OW21105   6.360   1.610   2.138  0.2574  0.0563  0.5807
 5335SOL    HW221106   6.405   1.604   2.053 -0.1923  1.3117  0.2375
 5335SOL    HW321107   6.267   1.605   2.116  0.1287  0.6986  0.9654
 5335SOL    MW421108   6.354   1.608   2.124  0.1811  0.3067  0.5861
 5336SOL     OW21109   5.081   2.007   5.820  0.1829  0.7257 -0.1395
 5336SOL    HW221110   5.176   2.003   5.833  0.1671  0.9517  0.0454
 5336SOL    HW321111   5.070   1.993   5.726  0.3194 -0.5804  0.0135
 5336SOL    MW421112   5.092   2.005   5.810  0.1988  0.5832 -0.0949
 5337SOL     OW21113   1.921   2.132   5.955  0.3833  0.2462  0.4109
 5337SOL    HW221114   2.005   2.135   6.001  0.3949  2.9606  0.3840
 5337SOL    HW321115   1.892   2.224   5.951 -1.8962 -0.4330 -0.8584
 5337SOL    MW421116   1.928   2.145   5.961  0.0841  0.5147  0.2399
 5338SOL     OW21117   0.645   0.914   1.509  0.2527  0.8078  0.2928
 5338SOL    HW221118   0.604   0.828   1.502  0.3293  0.7848  0.1194
 5338SOL    HW321119   0.585   0.966   1.562 -0.8744  1.3096 -1.4081
 5338SOL    MW421120   0.632   0.910   1.515  0.1141  0.8710  0.0455
 5339SOL     OW21121   4.915   2.560   0.246 -0.4265 -0.2327  0.2523
 5339SOL    HW221122   4.901   2.486   0.187  1.1062 -1.4845  1.3861
 5339SOL    HW321123   4.989   2.607   0.208 -1.6633  1.0492 -0.7056
 5339SOL    MW421124   4.923   2.557   0.233 -0.3875 -0.2287  0.2755
 5340SOL     OW21125   0.108   3.020   3.244 -0.2699 -0.1804 -0.1912
 5340SOL    HW221126   0.190   3.060   3.274 -0.9940 -0.7231  2.8883
 5340SOL    HW321127   0.055   3.093   3.213  0.4652  0.5011  0.1348
 5340SOL    MW421128   0.112   3.035   3.244 -0.2684 -0.1621  0.2581
 5341SOL     OW21129   3.766   6.344   0.354 -0.3465 -0.3189 -0.3523
 5341SOL    HW221130   3.841   6.399   0.328  0.0721 -1.1478 -0.9659
 5341SOL    HW321131   3.694   6.375   0.299 -0.5584  0.6973  0.4652
 5341SOL    MW421132   3.767   6.356   0.343 -0.3193 -0.2942 -0.3254
 5342SOL     OW21133   2.208   2.468   2.168  0.1788  0.2091  0.2869
 5342SOL    HW221134   2.297   2.436   2.157  0.5838  1.1381  0.7434
 5342SOL    HW321135   2.169   2.411   2.234  0.7952  0.4652  0.8826
 5342SOL    MW421136   2.214   2.457   2.175  0.3135  0.3654  0.4257
 5343SOL     OW21137   1.905   3.444  -0.039 -0.0406  0.0718 -0.4322
 5343SOL    HW221138   1.827   3.409   0.004  1.4242 -1.9495  0.7741
 5343SOL    HW321139   1.962   3.470   0.033  2.2480 -2.8810 -0.9930
 5343SOL    MW421140   1.902   3.442  -0.024  0.4546 -0.5845 -0.3471
 5344SOL     OW21141   3.639   3.133   1.067  0.2503 -0.2837 -0.2935
 5344SOL    HW221142   3.638   3.042   1.036 -2.1063 -0.2555 -0.5374
 5344SOL    HW321143   3.588   3.131   1.148 -0.9461  0.9672 -0.9684
 5344SOL    MW421144   3.632   3.120   1.073 -0.2185 -0.1150 -0.4147
 5345SOL     OW21145   0.812   5.301   2.730  0.2651  0.3255  0.0910
 5345SOL    HW221146   0.848   5.243   2.664 -1.6285 -0.0833 -0.6579
 5345SOL    HW321147   0.835   5.389   2.701  0.8623  0.0766 -0.2058
 5345SOL    MW421148   0.820   5.305   2.718  0.0941  0.2387 -0.0470
 5346SOL     OW21149   4.605   3.304   5.240  0.3108 -0.3044 -0.1587
 5346SOL    HW221150   4.535   3.307   5.175  1.7453 -0.2717 -1.7723
 5346SOL    HW321151   4.584   3.375   5.300 -0.9239 -0.1573 -0.7148
 5346SOL    MW421152   4.593   3.314   5.239  0.3372 -0.2807 -0.4449
 5347SOL     OW21153   5.854   4.784   0.906  0.1847  0.0539  0.2216
 5347SOL    HW221154   5.796   4.859   0.915  0.2261 -0.0870  2.1318
 5347SOL    HW321155   5.826   4.724   0.975 -0.5676 -2.2303 -1.9345
 5347SOL    MW421156   5.843   4.786   0.916  0.0909 -0.2661  0.1892
 5348SOL     OW21157   2.645   1.796   3.560 -0.3693 -0.1219 -0.2737
 5348SOL    HW221158   2.615   1.881   3.593  1.4703  0.8568 -1.0138
 5348SOL    HW321159   2.597   1.732   3.613 -2.0738  1.3379  0.0621
 5348SOL    MW421160   2.634   1.799   3.571 -0.3515  0.1998 -0.3270
 5349SOL     OW21161   3.676   4.806   3.414  0.5635  0.3661  0.1164
 5349SOL    HW221162   3.714   4.873   3.470 -0.6871  0.0731  1.3964
 5349SOL    HW321163   3.612   4.761   3.470  0.9633 -1.5348 -0.8562
 5349SOL    MW421164   3.672   4.809   3.428  0.4513  0.0767  0.1570
 5350SOL     OW21165   3.247   4.826   1.650 -0.1229  0.5787  0.3762
 5350SOL    HW221166   3.323   4.794   1.697 -0.8543  0.4387  1.5181
 5350SOL    HW321167   3.259   4.796   1.560  1.1694  0.5876  0.5368
 5350SOL    MW421168   3.258   4.818   1.644 -0.0489  0.5614  0.5481
 5351SOL     OW21169   1.678   2.526   0.101 -0.5710  0.2376 -0.1177
 5351SOL    HW221170   1.659   2.444   0.146 -2.4695  0.6802 -0.0253
 5351SOL    HW321171   1.645   2.514   0.012 -0.5591  0.7719 -0.2012
 5351SOL    MW421172   1.671   2.514   0.095 -0.8199  0.3665 -0.1165
 5352SOL     OW21173   1.709   1.452   4.734  0.1550  0.6509  0.2966
 5352SOL    HW221174   1.739   1.518   4.672  0.0334 -0.1879 -0.7069
 5352SOL    HW321175   1.778   1.385   4.733 -0.9027 -0.5002 -0.7848
 5352SOL    MW421176   1.722   1.452   4.726 -0.0006  0.3884  0.0215
 5353SOL     OW21177   5.132   5.045   2.487  0.4924 -0.3000  0.1058
 5353SOL    HW221178   5.186   4.983   2.439  0.1068  0.2250 -1.0403
 5353SOL    HW321179   5.181   5.127   2.483  1.1279 -0.5568  1.8332
 5353SOL    MW421180   5.146   5.048   2.480  0.5254 -0.2646  0.1825
 5354SOL     OW21181   6.048   3.875   5.783 -0.5360  1.0615 -0.5820
 5354SOL    HW221182   5.983   3.898   5.849  0.8093  1.0683  0.7773
 5354SOL    HW321183   6.050   3.780   5.782 -0.1549  1.0659 -0.2098
 5354SOL    MW421184   6.040   3.866   5.791 -0.3082  1.0630 -0.3536
 5355SOL     OW21185   6.372   4.703   0.860  0.1040 -0.3207 -0.3960
 5355SOL    HW221186   6.293   4.736   0.815 -0.4561 -1.1512 -0.0475
 5355SOL    HW321187   6.440   4.767   0.839 -0.5275  0.1167 -1.1648
 5355SOL    MW421188   6.370   4.716   0.851 -0.0532 -0.3726 -0.4514
 5356SOL     OW21189   4.691   0.765   0.731  0.2793  0.2416  0.1224
 5356SOL    HW221190   4.753   0.792   0.798  0.9057  0.9824 -0.7364
 5356SOL    HW321191   4.623   0.832   0.731  0.6318  0.6081 -0.4310
 5356SOL    MW421192   4.690   0.777   0.740  0.4085  0.3877 -0.0639
 5357SOL     OW21193   5.323   0.701   4.639  0.5472  0.0143 -0.2618
 5357SOL    HW221194   5.349   0.793   4.647  1.7184 -0.2626 -0.7038
 5357SOL    HW321195   5.373   0.668   4.565  0.6353 -1.1437  0.2873
 5357SOL    MW421196   5.333   0.709   4.631  0.7134 -0.1750 -0.2477
 5358SOL     OW21197   2.866   1.145   1.495 -0.0296  0.5639 -0.2093
 5358SOL    HW221198   2.890   1.060   1.456 -0.4269 -0.7132  2.1581
 5358SOL    HW321199   2.919   1.151   1.574 -2.8546  0.5895  1.8295
 5358SOL    MW421200   2.876   1.134   1.500 -0.4548  0.3988  0.3721
 5359SOL     OW21201   4.115   5.861   2.091  0.1877  0.0137  0.3972
 5359SOL    HW221202   4.073   5.888   2.010 -0.3816 -0.3902  0.5545
 5359SOL    HW321203   4.095   5.931   2.153  0.1131  0.0297  0.3547
 5359SOL    MW421204   4.107   5.874   2.089  0.1028 -0.0375  0.4123
 5360SOL     OW21205   1.782   5.879   1.171 -0.7262 -0.1288  0.2537
 5360SOL    HW221206   1.797   5.973   1.171 -0.4901 -0.1304 -1.1668
 5360SOL    HW321207   1.727   5.864   1.094  0.0496 -1.2450 -0.1210
 5360SOL    MW421208   1.777   5.889   1.161 -0.5927 -0.2763  0.0168
 5361SOL     OW21209   2.722   1.117   1.837 -0.1412  0.6708  0.2630
 5361SOL    HW221210   2.681   1.094   1.754  1.5363  0.7602 -0.6281
 5361SOL    HW321211   2.681   1.059   1.901 -2.2000  1.3055 -0.4119
 5361SOL    MW421212   2.711   1.106   1.834 -0.1915  0.7664  0.0564
 5362SOL     OW21213   5.087   3.056   1.615 -0.1714  0.2910 -0.1273
 5362SOL    HW221214   5.057   3.124   1.676  0.3841 -0.0864  0.5790
 5362SOL    HW321215   5.113   3.103   1.537  0.3105  0.9161  0.3985
 5362SOL    MW421216   5.086   3.071   1.613 -0.0345  0.3237  0.0353
 5363SOL     OW21217   5.474   4.250   1.092  0.5993  0.0466  0.3396
 5363SOL    HW221218   5.414   4.317   1.059  0.6266 -0.2740 -0.3790
 5363SOL    HW321219   5.521   4.293   1.163 -0.6005  0.2570  1.0464
 5363SOL    MW421220   5.472   4.265   1.097  0.4446  0.0320  0.3381
 5364SOL     OW21221   5.305   1.377   0.220  0.3181 -0.3589 -0.5827
 5364SOL    HW221222   5.230   1.320   0.199 -0.1354  0.2079 -0.5170
 5364SOL    HW321223   5.372   1.316   0.252 -0.2066 -0.8475 -0.3812
 5364SOL    MW421224   5.304   1.361   0.222  0.1890 -0.3486 -0.5474
 5365SOL     OW21225   2.642   2.349   0.681  0.0396  0.4095  0.3262
 5365SOL    HW221226   2.605   2.314   0.600  0.6424  1.8037 -0.5818
 5365SOL    HW321227   2.631   2.278   0.744  0.6919 -1.1953 -1.2801
 5365SOL    MW421228   2.635   2.335   0.678  0.2052  0.3818 -0.0055
 5366SOL     OW21229   1.089   3.680   5.202 -0.0509  0.6289  0.3620
 5366SOL    HW221230   1.170   3.632   5.222 -0.1051  0.4020  0.0301
 5366SOL    HW321231   1.049   3.631   5.130 -0.4804  0.7481  0.5212
 5366SOL    MW421232   1.095   3.667   5.195 -0.1147  0.6147  0.3392
 5367SOL     OW21233   2.795   5.537   4.558  0.2409 -0.2954 -0.3086
 5367SOL    HW221234   2.818   5.627   4.533 -1.6460 -0.1455 -1.7954
 5367SOL    HW321235   2.769   5.495   4.475 -1.7470 -1.2699  0.7295
 5367SOL    MW421236   2.794   5.543   4.543 -0.2703 -0.4042 -0.3678
 5368SOL     OW21237   2.193   1.238   0.969  0.5187 -0.1142  0.8494
 5368SOL    HW221238   2.133   1.172   0.933  1.5618 -0.6989  0.1207
 5368SOL    HW321239   2.136   1.302   1.011 -0.5350 -1.5541  1.7195
 5368SOL    MW421240   2.178   1.238   0.970  0.5173 -0.3813  0.8680
 5369SOL     OW21241   1.018   3.531   5.422 -0.1370  0.1852 -0.1183
 5369SOL    HW221242   1.019   3.590   5.347 -0.9200  0.5158  0.1237
 5369SOL    HW321243   1.013   3.443   5.383 -0.1155  0.3311 -0.4560
 5369SOL    MW421244   1.017   3.527   5.407 -0.2375  0.2480 -0.1309
 5370SOL     OW21245   0.767   0.876   0.166  0.2092 -0.1644  0.5200
 5370SOL    HW221246   0.850   0.909   0.132  0.1568 -0.7294 -0.1892
 5370SOL    HW321247   0.708   0.878   0.091 -0.2429 -0.3515  0.8675
 5370SOL    MW421248   0.770   0.880   0.152  0.1426 -0.2636  0.4723
 5371SOL     OW21249   2.606   0.772   3.140  0.2649  0.3638  0.4147
 5371SOL    HW221250   2.566   0.692   3.105 -0.9877  1.6490 -1.3223
 5371SOL    HW321251   2.609   0.831   3.065  3.6481  1.0939  0.9602
 5371SOL    MW421252   2.601   0.769   3.125  0.5460  0.6297  0.2575
 5372SOL     OW21253   0.502   2.628   3.865  0.2522 -0.6326  0.0273
 5372SOL    HW221254   0.571   2.574   3.827  0.5678 -0.2475  0.0503
 5372SOL    HW321255   0.548   2.695   3.915 -0.1395 -1.8379  2.1619
 5372SOL    MW421256   0.517   2.630   3.867  0.2422 -0.7408  0.3119
 5373SOL     OW21257   5.999   1.562   5.186  0.4801 -0.2376 -0.5210
 5373SOL    HW221258   6.078   1.616   5.192 -0.2272  0.6721  1.2801
 5373SOL    HW321259   5.950   1.598   5.113  0.5377  0.8863 -0.0237
 5373SOL    MW421260   6.003   1.574   5.177  0.3944  0.0307 -0.2177
 5374SOL     OW21261   1.130   2.535   2.594 -0.1771 -0.5068 -0.2950
 5374SOL    HW221262   1.209   2.590   2.587 -0.8786  0.3672 -1.9587
 5374SOL    HW321263   1.057   2.596   2.585 -1.0170 -1.5178 -0.5369
 5374SOL    MW421264   1.131   2.550   2.592 -0.3804 -0.5249 -0.5464
 5375SOL     OW21265   1.857   2.670   0.476 -0.1033  0.2013 -0.1468
 5375SOL    HW221266   1.924   2.608   0.448  0.4556  1.0141 -0.6679
 5375SOL    HW321267   1.853   2.660   0.572 -1.9552 -2.5239 -0.4002
 5375SOL    MW421268   1.865   2.661   0.485 -0.2739 -0.0510 -0.2490
 5376SOL     OW21269   6.033   5.919   2.044 -0.2203 -0.6147 -0.3752
 5376SOL    HW221270   6.120   5.950   2.016 -0.2705 -0.2086 -0.0905
 5376SOL    HW321271   6.027   5.944   2.136 -0.4379 -1.1029 -0.2540
 5376SOL    MW421272   6.044   5.927   2.052 -0.2556 -0.6255 -0.3216
 5377SOL     OW21273   5.818   5.662   2.622 -0.3338  0.1766 -0.0210
 5377SOL    HW221274   5.887   5.596   2.620  0.9111  1.3459  1.8535
 5377SOL    HW321275   5.829   5.710   2.540 -0.2255 -0.8722 -0.6510
 5377SOL    MW421276   5.829   5.659   2.611 -0.1553  0.1925  0.1432
 5378SOL     OW21277   2.450   4.495   5.264 -0.0223 -0.4217 -0.7160
 5378SOL    HW221278   2.378   4.459   5.214 -0.1567 -0.4778 -0.4861
 5378SOL    HW321279   2.500   4.419   5.294  0.4656 -0.3597 -1.3611
 5378SOL    MW421280   2.447   4.480   5.262  0.0243 -0.4209 -0.7708
 5379SOL     OW21281   5.106   4.789   5.532  0.5045 -0.3500  0.6574
 5379SOL    HW221282   5.148   4.759   5.613  0.6154 -2.3244 -0.0673
 5379SOL    HW321283   5.013   4.796   5.555  0.4275 -1.5983  0.8131
 5379SOL    MW421284   5.099   4.786   5.546  0.5090 -0.7752  0.5823
 5380SOL     OW21285   2.880   2.911   1.115 -0.0890  0.3360  0.5469
 5380SOL    HW221286   2.822   2.850   1.159  1.3735 -1.4418  0.1133
 5380SOL    HW321287   2.848   2.915   1.025 -0.4018  0.5022  0.6645
 5380SOL    MW421288   2.868   2.904   1.109  0.0627  0.1233  0.5052
 5381SOL     OW21289   2.055   0.306   0.742 -0.1194  0.1494 -0.2084
 5381SOL    HW221290   2.039   0.397   0.717 -0.2380  0.6403  1.5212
 5381SOL    HW321291   1.967   0.272   0.761 -0.1404 -0.5370 -1.4588
 5381SOL    MW421292   2.041   0.314   0.741 -0.1378  0.1236 -0.1452
 5382SOL     OW21293   6.109   3.943   0.422  0.5891  0.1124 -0.1569
 5382SOL    HW221294   6.141   3.984   0.502  2.5417 -1.6542  0.0650
 5382SOL    HW321295   6.057   3.869   0.453 -0.8403  0.9167 -0.5575
 5382SOL    MW421296   6.106   3.939   0.437  0.6582 -0.0146 -0.1805
 5383SOL     OW21297   5.290   4.232   2.253 -0.0286  0.7022  0.1779
 5383SOL    HW221298   5.283   4.137   2.244  1.6930  0.3862  1.6883
 5383SOL    HW321299   5.205   4.258   2.290 -0.5711 -0.2059 -0.3771
 5383SOL    MW421300   5.278   4.223   2.257  0.1270  0.5407  0.3040
 5384SOL     OW21301   2.484   6.055   0.551 -0.2463  0.1617 -0.3332
 5384SOL    HW221302   2.533   6.133   0.524  0.1070  0.2510  0.5164
 5384SOL    HW321303   2.466   6.071   0.644 -0.6034 -0.5499 -0.2801
 5384SOL    MW421304   2.488   6.068   0.560 -0.2468  0.0796 -0.2141
 5385SOL     OW21305   1.960   4.619   1.997 -0.5507 -0.3884  0.0721
 5385SOL    HW221306   2.022   4.621   1.924  0.0771 -1.2360  0.5686
 5385SOL    HW321307   1.950   4.711   2.021  0.1489 -0.1941 -0.3291
 5385SOL    MW421308   1.967   4.632   1.991 -0.3756 -0.4746  0.0847
 5386SOL     OW21309   4.188   5.972   4.999 -0.4263 -0.0637  0.0753
 5386SOL    HW221310   4.111   5.963   5.054 -0.1510  1.5161  0.7614
 5386SOL    HW321311   4.161   6.032   4.929 -0.1429 -0.3936 -0.3249
 5386SOL    MW421312   4.174   5.979   4.997 -0.3526  0.1012  0.1130
 5387SOL     OW21313   2.475   2.062   4.385 -0.1434  0.8111  0.1323
 5387SOL    HW221314   2.525   2.144   4.386 -1.9862  2.0333 -0.6250
 5387SOL    HW321315   2.383   2.091   4.384 -0.8366 -1.2581 -0.8009
 5387SOL    MW421316   2.470   2.077   4.385 -0.4780  0.6993 -0.0907
 5388SOL     OW21317   6.414   3.292   5.499  0.3221 -0.0902 -0.5896
 5388SOL    HW221318   6.494   3.241   5.509  0.0638 -0.7120 -1.5545
 5388SOL    HW321319   6.380   3.300   5.588  0.8775 -0.7690 -0.3048
 5388SOL    MW421320   6.420   3.286   5.512  0.3613 -0.2618 -0.6794
 5389SOL     OW21321   0.057   4.471   1.164  0.0043  0.3386 -0.1576
 5389SOL    HW221322  -0.010   4.490   1.229 -0.6856 -4.5869  0.9156
 5389SOL    HW321323   0.008   4.456   1.083  0.0377 -0.7053  0.0040
 5389SOL    MW421324   0.042   4.472   1.162 -0.0823 -0.4490  0.0053
 5390SOL     OW21325   1.742   0.823   2.627 -0.8355  0.5151 -0.3232
 5390SOL    HW221326   1.827   0.779   2.632 -0.4632  1.1856 -0.5890
 5390SOL    HW321327   1.682   0.756   2.594 -0.2798  0.2087 -0.7269
 5390SOL    MW421328   1.745   0.808   2.623 -0.7131  0.5632 -0.4116
 5391SOL     OW21329   3.074   1.585   2.124  0.0951 -0.0212 -0.5676
 5391SOL    HW221330   3.149   1.643   2.118  0.5659 -0.3325  1.3705
 5391SOL    HW321331   3.004   1.631   2.078  1.1602  0.8152 -1.3962
 5391SOL    MW421332   3.075   1.599   2.117  0.2977  0.0481 -0.4212
 5392SOL     OW21333   3.976   0.871   5.583  0.0392  0.2761 -0.5957
 5392SOL    HW221334   3.922   0.826   5.518 -1.3488  0.0561  0.6421
 5392SOL    HW321335   3.953   0.828   5.666 -0.0227  2.1082  0.3762
 5392SOL    MW421336   3.966   0.859   5.586 -0.1521  0.4888 -0.3041
 5393SOL     OW21337   1.572   5.291   1.262 -0.0067  0.0117 -0.1959
 5393SOL    HW221338   1.637   5.306   1.330  0.3610 -0.0083 -0.5397
 5393SOL    HW321339   1.596   5.207   1.224  0.2886  0.4041 -0.9004
 5393SOL    MW421340   1.584   5.282   1.266  0.0808  0.0609 -0.3342
 5394SOL     OW21341   4.092   2.449   5.913  0.1006  0.2926 -0.4305
 5394SOL    HW221342   4.079   2.531   5.960 -1.6090 -0.1757 -0.0081
 5394SOL    HW321343   4.027   2.390   5.950  1.0898 -1.1765 -0.9377
 5394SOL    MW421344   4.082   2.452   5.924  0.0056  0.0370 -0.4417
 5395SOL     OW21345   4.255   1.602   5.084  0.0344 -0.2384  0.2080
 5395SOL    HW221346   4.290   1.523   5.126 -0.6303 -0.5683  0.1496
 5395SOL    HW321347   4.238   1.575   4.994 -1.0202 -0.2837  0.4118
 5395SOL    MW421348   4.258   1.588   5.078 -0.1924 -0.2879  0.2272
 5396SOL     OW21349   5.304   2.248   0.421 -0.2560  0.0108 -0.2026
 5396SOL    HW221350   5.211   2.226   0.426  0.0124 -0.9634  1.3105
 5396SOL    HW321351   5.348   2.169   0.452  1.0493  0.7042 -0.2475
 5396SOL    MW421352   5.297   2.235   0.426 -0.0483 -0.0263 -0.0089
 5397SOL     OW21353   3.228   0.351   3.461  0.0075 -0.5381 -0.4683
 5397SOL    HW221354   3.274   0.332   3.379  2.8215  0.6284  0.6776
 5397SOL    HW321355   3.210   0.265   3.499  2.8151 -1.1343 -0.2686
 5397SOL    MW421356   3.232   0.337   3.455  0.7492 -0.4629 -0.2907
 5398SOL     OW21357   3.175   3.654   1.567 -0.3422 -0.2752  0.1790
 5398SOL    HW221358   3.109   3.721   1.551 -1.0146 -0.8296  0.5770
 5398SOL    HW321359   3.180   3.648   1.662 -1.3382 -1.7777  0.1722
 5398SOL    MW421360   3.167   3.662   1.578 -0.5623 -0.5465  0.2306
 5399SOL     OW21361   0.798   5.979   6.289  0.2897  0.5507 -0.5377
 5399SOL    HW221362   0.751   6.035   6.351 -2.3315  0.1026 -1.9821
 5399SOL    HW321363   0.815   5.898   6.337 -0.0834  0.8699  0.1407
 5399SOL    MW421364   0.794   5.976   6.303 -0.1054  0.5337 -0.6388
 5400SOL     OW21365   3.405   1.679   1.448 -0.2064 -0.0790 -0.0642
 5400SOL    HW221366   3.487   1.687   1.496 -0.2086 -0.2991 -0.0258
 5400SOL    HW321367   3.431   1.682   1.356 -0.1619 -0.0881 -0.0516
 5400SOL    MW421368   3.419   1.681   1.442 -0.2008 -0.1093 -0.0575
 5401SOL     OW21369   2.737   5.814   1.231  0.2104  0.4566 -0.1445
 5401SOL    HW221370   2.644   5.813   1.254  0.0546 -1.0808 -0.7557
 5401SOL    HW321371   2.779   5.862   1.303 -0.9961  0.8496  0.3144
 5401SOL    MW421372   2.731   5.820   1.244  0.0307  0.3056 -0.1646
 5402SOL     OW21373   0.772   2.081   5.377  0.3151  0.0418 -0.2996
 5402SOL    HW221374   0.821   2.001   5.357 -2.3821 -1.3601 -1.8788
 5402SOL    HW321375   0.794   2.101   5.468  2.3988 -1.4705 -0.4022
 5402SOL    MW421376   0.782   2.073   5.386  0.2341 -0.3427 -0.5215
 5403SOL     OW21377   2.355   1.747   3.354  0.7935 -0.4950  0.3513
 5403SOL    HW221378   2.358   1.838   3.383 -0.4850 -0.2363 -0.2563
 5403SOL    HW321379   2.316   1.700   3.428 -2.0050  0.0874 -0.6156
 5403SOL    MW421380   2.350   1.753   3.367  0.2556 -0.3840  0.1436
 5404SOL     OW21381   0.398   0.575   5.317  0.2531 -0.1055  0.0638
 5404SOL    HW221382   0.315   0.561   5.271 -0.0404 -0.9433  0.8134
 5404SOL    HW321383   0.432   0.657   5.281  0.4997 -1.1619 -2.2950
 5404SOL    MW421384   0.391   0.584   5.306  0.2469 -0.3554 -0.1485
 5405SOL     OW21385   2.094   0.545   4.351  0.0897 -0.0462  0.2244
 5405SOL    HW221386   2.011   0.570   4.391  1.1047  1.3608  1.5579
 5405SOL    HW321387   2.098   0.596   4.270 -0.4931 -0.4181 -0.0481
 5405SOL    MW421388   2.084   0.555   4.346  0.1468  0.0903  0.3643
 5406SOL     OW21389   1.654   3.832   2.839 -0.2874 -0.3807  0.2649
 5406SOL    HW221390   1.617   3.831   2.751 -1.4040  0.4246  0.7051
 5406SOL    HW321391   1.745   3.859   2.827 -0.5516  0.1386 -0.5952
 5406SOL    MW421392   1.661   3.835   2.826 -0.4696 -0.2059  0.2095
 5407SOL     OW21393   4.265   1.253   4.992 -0.1099 -0.7533  0.1958
 5407SOL    HW221394   4.266   1.213   5.079 -2.5615 -2.6468 -0.5236
 5407SOL    HW321395   4.174   1.280   4.978  0.1356 -0.7807 -1.8768
 5407SOL    MW421396   4.253   1.251   5.001 -0.4010 -1.0067 -0.1726
 5408SOL     OW21397   1.352   4.157   2.154 -0.1442 -0.0492 -0.2842
 5408SOL    HW221398   1.269   4.193   2.122  1.0532  2.2298 -1.0800
 5408SOL    HW321399   1.330   4.114   2.236 -2.0971  0.6781 -0.3767
 5408SOL    MW421400   1.339   4.156   2.160 -0.2439  0.3474 -0.4014
 5409SOL     OW21401   1.902   4.302   1.500  0.0299  0.2656  0.3306
 5409SOL    HW221402   1.868   4.232   1.445 -1.7798  0.8245  0.6752
 5409SOL    HW321403   1.900   4.380   1.444  1.2323  0.2453  0.2176
 5409SOL    MW421404   1.898   4.303   1.485 -0.0502  0.3367  0.3611
 5410SOL     OW21405   2.451   3.208   0.240  0.2812 -0.0652  0.0948
 5410SOL    HW221406   2.487   3.124   0.267 -0.1047 -0.4776 -0.6497
 5410SOL    HW321407   2.404   3.190   0.159  0.3953  0.9098 -0.2097
 5410SOL    MW421408   2.450   3.195   0.233  0.2454  0.0091 -0.0436
 5411SOL     OW21409   5.808   1.893   3.883 -0.1338  0.1138  0.5771
 5411SOL    HW221410   5.771   1.805   3.873  0.6747 -0.1262 -0.4268
 5411SOL    HW321411   5.870   1.885   3.956 -0.2146 -0.0921  0.6242
 5411SOL    MW421412   5.811   1.880   3.891 -0.0378  0.0550  0.4509
 5412SOL     OW21413   4.570   5.965   3.837  0.2472  0.0705  0.2355
 5412SOL    HW221414   4.530   5.902   3.777  1.1309  2.8625 -3.6594
 5412SOL    HW321415   4.660   5.974   3.806  1.5899 -0.0753  3.6563
 5412SOL    MW421416   4.576   5.958   3.825  0.5410  0.4197  0.1729
 5413SOL     OW21417   0.672   3.839   5.357 -0.6841 -0.2092  0.1468
 5413SOL    HW221418   0.729   3.854   5.281 -1.9695 -0.8632 -0.9979
 5413SOL    HW321419   0.703   3.901   5.423 -1.6107  2.8613 -2.0639
 5413SOL    MW421420   0.684   3.849   5.355 -0.9760  0.1096 -0.2959
 5414SOL     OW21421   3.291   0.846   4.760  0.1012  0.2566 -0.6871
 5414SOL    HW221422   3.203   0.860   4.726 -0.9378 -0.6474  1.4642
 5414SOL    HW321423   3.309   0.924   4.813 -0.1183 -0.2872  0.2152
 5414SOL    MW421424   3.282   0.858   4.763 -0.0649  0.0656 -0.2842
 5415SOL     OW21425   6.355   6.244   3.689  0.4230 -0.0624 -0.6589
 5415SOL    HW221426   6.417   6.203   3.629  1.6166  0.7099 -0.0126
 5415SOL    HW321427   6.391   6.332   3.703 -0.8041  0.3875 -0.2190
 5415SOL    MW421428   6.368   6.250   3.683  0.4186  0.0989 -0.5156
 5416SOL     OW21429   2.045   0.028   2.328 -0.1786  0.1480 -0.4784
 5416SOL    HW221430   2.063   0.039   2.235  0.4675 -2.0080 -0.6596
 5416SOL    HW321431   2.021  -0.064   2.338  1.5520 -0.1586  1.7230
 5416SOL    MW421432   2.044   0.018   2.317  0.1350 -0.1769 -0.2118
 5417SOL     OW21433   2.387   4.618   1.988  0.1477 -0.4016 -0.4174
 5417SOL    HW221434   2.314   4.594   2.044 -1.0235 -1.4397 -2.2796
 5417SOL    HW321435   2.462   4.571   2.025 -0.2183  0.2092  1.1701
 5417SOL    MW421436   2.387   4.609   2.000 -0.0551 -0.4580 -0.4537
 5418SOL     OW21437   6.333   2.946   2.902 -0.2546 -0.1356  0.4779
 5418SOL    HW221438   6.258   2.940   2.844 -1.2291  0.2622  1.6421
 5418SOL    HW321439   6.407   2.967   2.845 -1.2962  0.9337 -0.5109
 5418SOL    MW421440   6.333   2.948   2.887 -0.5206  0.0580  0.5010
 5419SOL     OW21441   3.424   3.992   4.318  0.7190 -0.5724  0.3662
 5419SOL    HW221442   3.454   3.902   4.305 -0.7705 -1.1008  0.3804
 5419SOL    HW321443   3.329   3.984   4.330  0.6363  0.9467  0.9323
 5419SOL    MW421444   3.415   3.979   4.318  0.5116 -0.4417  0.4428
 5420SOL     OW21445   0.958   5.639   0.658  0.3391 -0.3825  0.0147
 5420SOL    HW221446   0.876   5.686   0.672  0.0557 -0.3960 -1.4540
 5420SOL    HW321447   1.023   5.689   0.709 -0.3059  0.4745  0.0220
 5420SOL    MW421448   0.956   5.652   0.667  0.2166 -0.2712 -0.1781
 5421SOL     OW21449   3.435   3.711   2.617 -0.0844 -0.0559 -0.1186
 5421SOL    HW221450   3.448   3.644   2.684  0.0800  0.4197  0.3300
 5421SOL    HW321451   3.342   3.707   2.597  0.1234 -1.2361 -0.9727
 5421SOL    MW421452   3.425   3.702   2.623 -0.0353 -0.1489 -0.1721
 5422SOL     OW21453   5.042   1.949   5.547 -0.0745  0.2093 -0.1643
 5422SOL    HW221454   5.091   1.869   5.568 -0.0732  0.2772  0.0996
 5422SOL    HW321455   4.966   1.917   5.498  0.2213  0.1037 -0.5628
 5422SOL    MW421456   5.038   1.934   5.543 -0.0353  0.2043 -0.1821
 5423SOL     OW21457   2.500   4.087   3.839 -0.3044  0.6577 -0.3458
 5423SOL    HW221458   2.492   4.122   3.927  2.2597  0.7096 -0.0437
 5423SOL    HW321459   2.417   4.043   3.822 -0.9408  0.8467  1.9899
 5423SOL    MW421460   2.488   4.086   3.848 -0.0501  0.6895  0.0022
 5424SOL     OW21461   0.842   3.218   4.362  0.1909 -0.4593 -0.0568
 5424SOL    HW221462   0.775   3.231   4.295  0.0559  2.3726  0.5011
 5424SOL    HW321463   0.801   3.161   4.426 -1.4635  0.6321 -0.0757
 5424SOL    MW421464   0.828   3.212   4.361 -0.0452  0.0583  0.0143
 5425SOL     OW21465   0.223   5.367   2.905 -0.6933 -0.2412  0.3408
 5425SOL    HW221466   0.295   5.348   2.965 -1.0131  1.1759  1.2248
 5425SOL    HW321467   0.185   5.449   2.937 -1.2368  0.2855 -1.4777
 5425SOL    MW421468   0.227   5.376   2.917 -0.8072  0.0152  0.2175
 5426SOL     OW21469   0.621   3.246   3.648  0.2158 -0.1253 -0.2733
 5426SOL    HW221470   0.625   3.153   3.627  0.1950  0.1431 -1.5717
 5426SOL    HW321471   0.702   3.282   3.611  0.5072  0.2867  0.7344
 5426SOL    MW421472   0.632   3.239   3.640  0.2515 -0.0355 -0.3116
 5427SOL     OW21473   5.125   0.750   2.363  0.3994 -0.4587 -0.6587
 5427SOL    HW221474   5.205   0.772   2.412 -0.5828 -0.3040  0.9218
 5427SOL    HW321475   5.062   0.817   2.389 -0.4160 -0.9018 -1.4739
 5427SOL    MW421476   5.128   0.762   2.373  0.1622 -0.4967 -0.5577
 5428SOL     OW21477   5.822   2.353   4.587  0.1558 -0.2632 -0.2026
 5428SOL    HW221478   5.795   2.273   4.633 -0.8459  0.0352 -0.2698
 5428SOL    HW321479   5.917   2.341   4.574 -0.0029 -1.5093 -0.3520
 5428SOL    MW421480   5.831   2.341   4.591  0.0027 -0.3883 -0.2312
 5429SOL     OW21481   3.182   4.589   5.944  0.3440  0.1383  0.3196
 5429SOL    HW221482   3.256   4.575   5.885  0.5572  0.3093  0.5404
 5429SOL    HW321483   3.207   4.666   5.995  0.4210 -0.3351  1.0204
 5429SOL    MW421484   3.195   4.597   5.943  0.3823  0.0984  0.4412
 5430SOL     OW21485   3.848   5.822   2.437  0.3939  0.1120  0.0680
 5430SOL    HW221486   3.918   5.874   2.477 -0.6290  1.7652 -0.2351
 5430SOL    HW321487   3.850   5.847   2.345 -0.0654 -0.4655 -0.1016
 5430SOL    MW421488   3.858   5.832   2.430  0.1983  0.2540  0.0056
 5431SOL     OW21489   6.045   2.766   5.972 -0.1738  0.1105  0.0444
 5431SOL    HW221490   6.036   2.857   6.001 -0.0710  0.2519 -0.3549
 5431SOL    HW321491   5.956   2.732   5.972 -0.3848  0.6135 -1.0657
 5431SOL    MW421492   6.032   2.774   5.975 -0.1881  0.1955 -0.1547
 5432SOL     OW21493   4.096   2.066   0.651  0.3771  0.3028 -0.3639
 5432SOL    HW221494   4.116   2.082   0.743  1.3782  1.2824 -0.7421
 5432SOL    HW321495   4.163   2.004   0.623 -0.5131 -0.7784 -0.2111
 5432SOL    MW421496   4.108   2.060   0.660  0.3918  0.2894 -0.3936
 5433SOL     OW21497   5.822   2.207   5.966 -0.5343 -0.0287 -0.7801
 5433SOL    HW221498   5.890   2.141   5.953  1.5470  2.0410 -1.1734
 5433SOL    HW321499   5.776   2.180   6.045  2.3703 -0.3010  0.9587
 5433SOL    MW421500   5.825   2.195   5.974  0.1235  0.2084 -0.6026
 5434SOL     OW21501   2.589   4.951   2.677 -0.1707 -0.6340 -0.8245
 5434SOL    HW221502   2.672   4.910   2.657  1.5629  2.5146 -0.7674
 5434SOL    HW321503   2.573   5.011   2.604 -2.0620 -0.6763 -0.5009
 5434SOL    MW421504   2.598   4.954   2.665 -0.1915 -0.2242 -0.7742
 5435SOL     OW21505   2.841   1.562   4.691 -0.3324 -0.5245  0.2586
 5435SOL    HW221506   2.858   1.495   4.757 -1.3060  0.2240  1.2914
 5435SOL    HW321507   2.808   1.514   4.615  0.8440 -1.3961  0.2755
 5435SOL    MW421508   2.839   1.547   4.690 -0.3056 -0.5408  0.3971
 5436SOL     OW21509   0.549   0.729   4.942 -0.8839  0.4521  0.3701
 5436SOL    HW221510   0.477   0.667   4.929  0.8406 -1.1122 -2.5225
 5436SOL    HW321511   0.614   0.681   4.991 -0.5429  0.8284  0.2919
 5436SOL    MW421512   0.548   0.715   4.947 -0.6114  0.2954 -0.0219
 5437SOL     OW21513   6.189   2.968   4.662  0.9307 -0.3206 -0.4143
 5437SOL    HW221514   6.233   2.883   4.660  1.3835 -0.0793 -2.3820
 5437SOL    HW321515   6.261   3.031   4.667  0.5933 -0.0127  1.1292
 5437SOL    MW421516   6.205   2.965   4.662  0.9459 -0.2481 -0.4702
 5438SOL     OW21517   0.344   4.725   4.683  0.1687  0.1314  0.0117
 5438SOL    HW221518   0.289   4.661   4.730  0.1698  0.8878  1.0836
 5438SOL    HW321519   0.434   4.700   4.705  0.2619 -0.7794 -1.3085
 5438SOL    MW421520   0.348   4.713   4.692  0.1811  0.1110 -0.0210
 5439SOL     OW21521   5.805   4.569   2.074  0.3407 -0.0691  0.1789
 5439SOL    HW221522   5.825   4.476   2.072  2.9865  0.4179  0.4285
 5439SOL    HW321523   5.890   4.612   2.066 -0.6831  2.3262  1.1707
 5439SOL    MW421524   5.819   4.562   2.073  0.5547  0.3112  0.3427
 5440SOL     OW21525   5.793   4.008   2.599 -0.1727 -0.1055  0.5798
 5440SOL    HW221526   5.710   3.968   2.573 -0.4344 -0.1320  1.4200
 5440SOL    HW321527   5.838   4.026   2.516 -2.5462  3.2607 -0.1895
 5440SOL    MW421528   5.788   4.005   2.584 -0.5204  0.3351  0.5891
 5441SOL     OW21529   2.804   6.344   1.065  0.3749 -0.0321  0.3618
 5441SOL    HW221530   2.785   6.357   1.157  0.3620  0.7651  0.2556
 5441SOL    HW321531   2.838   6.429   1.035  0.6898 -0.3723 -0.2866
 5441SOL    MW421532   2.806   6.357   1.073  0.4148  0.0282  0.2622
 5442SOL     OW21533   5.512   0.586   6.297 -0.1771  0.6347 -0.5069
 5442SOL    HW221534   5.558   0.669   6.285 -1.5365  1.9188  2.3057
 5442SOL    HW321535   5.419   0.609   6.298 -0.5313 -0.3237  3.2053
 5442SOL    MW421536   5.506   0.600   6.295 -0.4032  0.6777  0.3539
 5443SOL     OW21537   4.839   5.732   6.045  0.4535  0.0907  0.0657
 5443SOL    HW221538   4.847   5.825   6.067  1.5836 -0.0276  0.2019
 5443SOL    HW321539   4.746   5.720   6.026  0.4240  1.4505 -0.8166
 5443SOL    MW421540   4.828   5.743   6.045  0.5987  0.2545 -0.0327
 5444SOL     OW21541   5.607   4.811   5.504 -0.0345 -0.3075 -0.3898
 5444SOL    HW221542   5.701   4.816   5.490 -0.2330 -0.2910 -1.8851
 5444SOL    HW321543   5.573   4.893   5.467 -0.5224  0.3506  1.4122
 5444SOL    MW421544   5.615   4.823   5.497 -0.1251 -0.2185 -0.3494
 5445SOL     OW21545   5.882   3.304   1.569 -0.5394 -0.6901  0.4170
 5445SOL    HW221546   5.972   3.333   1.580 -0.8105  0.6569 -0.6610
 5445SOL    HW321547   5.887   3.208   1.572  1.0472 -0.6620 -0.4232
 5445SOL    MW421548   5.895   3.295   1.571 -0.3659 -0.5087  0.1639
 5446SOL     OW21549   5.513   2.718   6.329  0.0588  0.3984 -0.3661
 5446SOL    HW221550   5.511   2.775   6.252 -0.4622  2.2450  0.9617
 5446SOL    HW321551   5.548   2.635   6.296 -1.3176  0.7011 -2.8653
 5446SOL    MW421552   5.517   2.714   6.314 -0.1915  0.6820 -0.5206
 5447SOL     OW21553   2.540   5.584   3.204  0.3617  0.0317  0.1128
 5447SOL    HW221554   2.458   5.556   3.245  0.8793 -0.1635  1.0231
 5447SOL    HW321555   2.546   5.529   3.125 -0.8268  0.6867 -0.4762
 5447SOL    MW421556   2.530   5.573   3.199  0.2732  0.0923  0.1552
 5448SOL     OW21557   4.742   2.408   5.353 -0.1427 -0.3784 -0.1105
 5448SOL    HW221558   4.714   2.396   5.444 -0.0036  1.7269  0.2472
 5448SOL    HW321559   4.672   2.461   5.314  1.2571  1.3539 -0.3556
 5448SOL    MW421560   4.729   2.413   5.360  0.0604  0.1280 -0.0956
 5449SOL     OW21561   4.310   0.407   5.720 -0.1418  0.1304 -0.1979
 5449SOL    HW221562   4.395   0.449   5.729  0.4166 -1.1217  0.7576
 5449SOL    HW321563   4.275   0.438   5.637  0.1488  2.5737  0.5264
 5449SOL    MW421564   4.316   0.417   5.710 -0.0298  0.2876  0.0238
 5450SOL     OW21565   4.289   4.271   5.861 -0.3262 -0.0608  0.2357
 5450SOL    HW221566   4.272   4.353   5.814  1.6265  0.1828 -0.1384
 5450SOL    HW321567   4.322   4.212   5.794  0.2372 -0.4822  0.8720
 5450SOL    MW421568   4.291   4.274   5.846  0.0058 -0.0843  0.2703
 5451SOL     OW21569   0.924   1.306   0.117 -0.5561  1.0227 -0.4458
 5451SOL    HW221570   0.834   1.274   0.122 -1.0071  2.3090  0.2097
 5451SOL    HW321571   0.945   1.331   0.207  1.9237 -2.8905  0.3057
 5451SOL    MW421572   0.915   1.305   0.130 -0.2884  0.6761 -0.2601
 5452SOL     OW21573   0.519   2.029   2.854  0.0087 -0.0106 -0.0621
 5452SOL    HW221574   0.478   2.044   2.769 -0.7115 -0.1798  0.2531
 5452SOL    HW321575   0.455   2.060   2.918  0.4681 -0.0626  0.4298
 5452SOL    MW421576   0.505   2.035   2.852 -0.0257 -0.0398  0.0444
 5453SOL     OW21577   3.901   2.595   2.265 -0.4101  0.1945 -0.7724
 5453SOL    HW221578   3.921   2.688   2.254  1.1552  0.0124  0.2028
 5453SOL    HW321579   3.821   2.594   2.317 -0.4012  0.9975 -0.7361
 5453SOL    MW421580   3.893   2.607   2.271 -0.2024  0.2764 -0.6390
 5454SOL     OW21581   4.464   1.492   0.641  0.2686 -0.3379  0.1399
 5454SOL    HW221582   4.458   1.409   0.687 -0.8642  0.0696  0.7632
 5454SOL    HW321583   4.397   1.487   0.573 -0.0684  0.2055  0.4253
 5454SOL    MW421584   4.455   1.481   0.638  0.0747 -0.2124  0.2598
 5455SOL     OW21585   3.235   1.977   4.972  0.7865  0.8304  0.0036
 5455SOL    HW221586   3.229   1.882   4.965 -0.8386  0.3698  4.5200
 5455SOL    HW321587   3.329   1.994   4.981  1.1948 -0.1186 -1.9261
 5455SOL    MW421588   3.247   1.967   4.972  0.6260  0.6444  0.3449
 5456SOL     OW21589   2.699   2.236   1.479  0.3801  0.1477 -0.1021
 5456SOL    HW221590   2.742   2.151   1.490  0.5999 -0.1681 -2.7258
 5456SOL    HW321591   2.770   2.296   1.459 -0.0505  0.2551 -1.4058
 5456SOL    MW421592   2.714   2.232   1.477  0.3523  0.1202 -0.6203
 5457SOL     OW21593   5.773   3.133   5.471  0.5429 -0.7884  0.2912
 5457SOL    HW221594   5.856   3.144   5.518  0.2800 -0.7318  0.7488
 5457SOL    HW321595   5.728   3.063   5.518  0.4481 -1.0099 -0.1255
 5457SOL    MW421596   5.778   3.125   5.483  0.4957 -0.8101  0.2966
 5458SOL     OW21597   0.974   1.941   2.068 -0.0767  0.0682 -0.2662
 5458SOL    HW221598   0.902   2.000   2.046 -0.5227 -0.2568  0.3003
 5458SOL    HW321599   0.970   1.932   2.163  0.3168 -0.4533 -0.2931
 5458SOL    MW421600   0.964   1.947   2.078 -0.0836 -0.0435 -0.1950
 5459SOL     OW21601   2.252   2.937   4.907 -0.3321 -0.2523 -0.1184
 5459SOL    HW221602   2.289   2.892   4.830 -2.0274 -0.3761 -0.9080
 5459SOL    HW321603   2.287   2.888   4.982  0.9594 -0.4439 -0.8212
 5459SOL    MW421604   2.261   2.924   4.907 -0.3854 -0.2939 -0.3153
 5460SOL     OW21605   3.717   4.567   4.411 -0.3184 -0.2272 -0.1230
 5460SOL    HW221606   3.736   4.474   4.402  1.8696  0.2176 -0.6447
 5460SOL    HW321607   3.792   4.611   4.371 -0.8454  1.7690  0.9546
 5460SOL    MW421608   3.729   4.560   4.404 -0.0993  0.0949 -0.0497
 5461SOL     OW21609   1.895   1.588   5.973  0.3754  0.0887  0.1736
 5461SOL    HW221610   1.845   1.634   6.040 -1.4458 -1.6382  0.0814
 5461SOL    HW321611   1.843   1.598   5.893  1.8974  1.0667 -0.7674
 5461SOL    MW421612   1.882   1.596   5.971  0.3359 -0.0101  0.0373
 5462SOL     OW21613   1.227   2.658   0.658  0.5682 -0.1844 -0.2866
 5462SOL    HW221614   1.313   2.625   0.631  1.5937  1.6686  0.4818
 5462SOL    HW321615   1.185   2.684   0.576  1.5614  0.6703 -0.5581
 5462SOL    MW421616   1.233   2.657   0.644  0.8345  0.1729 -0.2211
 5463SOL     OW21617   2.856   3.003   4.500 -0.8055  0.6067 -0.1418
 5463SOL    HW221618   2.810   3.012   4.416 -0.9800  1.7018  0.0586
 5463SOL    HW321619   2.792   3.031   4.565 -0.6782 -0.2624  0.3706
 5463SOL    MW421620   2.841   3.008   4.498 -0.8118  0.6365 -0.0477
 5464SOL     OW21621   5.433   1.302   1.506  0.6210  0.4277  0.1209
 5464SOL    HW221622   5.464   1.314   1.596 -1.6660  1.7419  0.8150
 5464SOL    HW321623   5.344   1.338   1.506 -0.3389 -1.6435 -2.1125
 5464SOL    MW421624   5.425   1.309   1.518  0.1926  0.3278 -0.0822
 5465SOL     OW21625   4.049   0.547   5.832 -0.1680 -0.0173  0.3174
 5465SOL    HW221626   3.999   0.626   5.849 -0.4100 -0.5174  2.0435
 5465SOL    HW321627   4.101   0.568   5.754 -2.3818  0.7963 -1.0277
 5465SOL    MW421628   4.049   0.560   5.824 -0.4920  0.0241  0.3677
 5466SOL     OW21629   3.983   2.399   5.298 -0.1461  0.3507  0.0921
 5466SOL    HW221630   3.890   2.381   5.313 -0.0107 -0.4916 -0.0269
 5466SOL    HW321631   4.028   2.351   5.368  0.2121  0.6227  0.0520
 5466SOL    MW421632   3.977   2.390   5.309 -0.0810  0.2755  0.0711
 5467SOL     OW21633   5.106   1.576   2.006  0.1649  0.4814 -0.2514
 5467SOL    HW221634   5.172   1.571   1.936  0.2321  0.2012 -0.1703
 5467SOL    HW321635   5.144   1.525   2.078  0.6345  1.7279  0.4304
 5467SOL    MW421636   5.120   1.569   2.006  0.2357  0.6089 -0.1508
 5468SOL     OW21637   4.540   4.484   5.060 -0.1967 -0.1899 -0.3412
 5468SOL    HW221638   4.586   4.402   5.075 -0.3557 -0.5415 -1.7285
 5468SOL    HW321639   4.449   4.459   5.048 -0.5963  0.3954  1.1594
 5468SOL    MW421640   4.534   4.470   5.060 -0.2704 -0.1591 -0.3263
 5469SOL     OW21641   2.472   2.864   5.777 -0.6412 -0.6411 -0.0190
 5469SOL    HW221642   2.382   2.897   5.769  0.0740  1.8020  1.0453
 5469SOL    HW321643   2.486   2.855   5.871 -0.0094 -1.7609 -0.2126
 5469SOL    MW421644   2.462   2.867   5.788 -0.4635 -0.4665  0.0959
 5470SOL     OW21645   4.577   5.918   4.840 -0.2127  0.1856  0.6669
 5470SOL    HW221646   4.666   5.889   4.860  0.1880  1.5621  1.0319
 5470SOL    HW321647   4.532   5.921   4.925 -1.1530 -2.0747  0.3098
 5470SOL    MW421648   4.583   5.915   4.854 -0.2839  0.0690  0.6680
 5471SOL     OW21649   2.556   1.605   3.191 -0.0157 -0.0144 -0.1486
 5471SOL    HW221650   2.492   1.663   3.234  0.4268  0.5303 -0.2158
 5471SOL    HW321651   2.516   1.518   3.197  0.3672 -0.1146  2.1131
 5471SOL    MW421652   2.542   1.601   3.198  0.0932  0.0443  0.1409
 5472SOL     OW21653   0.469   1.398   3.030  0.0338  0.1350 -0.9562
 5472SOL    HW221654   0.537   1.361   2.973  0.0488  0.0611 -0.8912
 5472SOL    HW321655   0.517   1.428   3.107  0.1879  1.4043 -1.5238
 5472SOL    MW421656   0.485   1.397   3.033  0.0561  0.2927 -1.0225
 5473SOL     OW21657   1.622   1.775   5.970  0.1700  0.1157  0.0685
 5473SOL    HW221658   1.643   1.853   6.021  0.0206  0.2846 -0.1284
 5473SOL    HW321659   1.673   1.784   5.889  0.6146 -0.2835  0.2981
 5473SOL    MW421660   1.631   1.786   5.966  0.2089  0.0853  0.0728
 5474SOL     OW21661   0.131   1.338   1.469  0.8179 -0.1338  0.2125
 5474SOL    HW221662   0.221   1.309   1.454  0.6469 -0.7160  0.2976
 5474SOL    HW321663   0.093   1.273   1.528  0.1029 -0.3301 -0.4358
 5474SOL    MW421664   0.138   1.326   1.475  0.7010 -0.2365  0.1382
 5475SOL     OW21665   0.685   4.835   2.356  0.0833 -0.6613  0.0032
 5475SOL    HW221666   0.602   4.874   2.331  0.2027 -0.3130  0.1428
 5475SOL    HW321667   0.665   4.743   2.372 -0.1963 -0.6617 -0.3410
 5475SOL    MW421668   0.672   4.828   2.355  0.0622 -0.6154 -0.0238
 5476SOL     OW21669   2.195   2.615   4.218 -0.0465  0.6570 -0.2278
 5476SOL    HW221670   2.130   2.593   4.152  0.4806  0.5688 -0.7279
 5476SOL    HW321671   2.186   2.710   4.229 -0.7157  0.5475  0.2047
 5476SOL    MW421672   2.185   2.625   4.211 -0.0652  0.6309 -0.2367
 5477SOL     OW21673   1.980   2.080   4.519  0.1090 -0.1465 -0.2518
 5477SOL    HW221674   2.027   2.026   4.583 -0.4388 -0.4917 -0.1389
 5477SOL    HW321675   1.904   2.029   4.495  0.3506 -0.0574 -1.2628
 5477SOL    MW421676   1.976   2.066   4.524  0.0686 -0.1803 -0.3703
 5478SOL     OW21677   2.333   2.112   1.313 -0.3884 -0.9277  0.4586
 5478SOL    HW221678   2.411   2.096   1.260  0.1133 -2.1028  1.5109
 5478SOL    HW321679   2.351   2.195   1.357 -0.8581  0.1228 -1.2435
 5478SOL    MW421680   2.346   2.121   1.312 -0.3842 -0.9442  0.3728
 5479SOL     OW21681   4.808   5.171   3.564  0.1470 -0.0122 -0.2234
 5479SOL    HW221682   4.893   5.135   3.537 -0.0987 -1.1206  0.3920
 5479SOL    HW321683   4.781   5.226   3.491  0.7987 -0.6805 -0.9892
 5479SOL    MW421684   4.816   5.173   3.551  0.2006 -0.2466 -0.2433
 5480SOL     OW21685   5.575   6.342   4.952 -0.3699  0.0537 -0.4670
 5480SOL    HW221686   5.640   6.287   4.995  0.5943  1.8045  0.4246
 5480SOL    HW321687   5.625   6.394   4.889 -1.1213  0.4611 -0.7443
 5480SOL    MW421688   5.590   6.341   4.950 -0.3418  0.3384 -0.3859
 5481SOL     OW21689   4.975   6.348   0.705  0.4371 -0.0961  0.0717
 5481SOL    HW221690   4.898   6.315   0.752  0.7789 -0.4966  0.3621
 5481SOL    HW321691   4.998   6.429   0.751  0.1879  0.0256 -0.0175
 5481SOL    MW421692   4.968   6.354   0.718  0.4493 -0.1329  0.0983
 5482SOL     OW21693   6.004   4.816   1.743 -0.7370  0.4196  0.4216
 5482SOL    HW221694   6.067   4.790   1.811 -0.4626  1.2458  0.4976
 5482SOL    HW321695   5.943   4.743   1.737 -0.3023  0.0025  1.0077
 5482SOL    MW421696   6.004   4.803   1.751 -0.6435  0.4735  0.5089
 5483SOL     OW21697   5.346   0.756   3.956  0.3209 -0.2331 -0.3480
 5483SOL    HW221698   5.278   0.791   3.899  0.8109  1.5915  0.1207
 5483SOL    HW321699   5.413   0.824   3.959 -0.1583  0.2742  3.2242
 5483SOL    MW421700   5.346   0.769   3.949  0.3223  0.0745  0.1851
 5484SOL     OW21701   2.157   4.482   4.520  0.1668 -0.5355  0.0101
 5484SOL    HW221702   2.104   4.410   4.556 -1.1694  0.7432  0.7183
 5484SOL    HW321703   2.174   4.539   4.595  1.1424 -0.0561 -0.5538
 5484SOL    MW421704   2.152   4.480   4.535  0.1192 -0.3035  0.0291
 5485SOL     OW21705   5.538   5.953   2.393  0.6696 -0.3071  0.4175
 5485SOL    HW221706   5.446   5.971   2.414  0.7709 -1.3183  1.8646
 5485SOL    HW321707   5.585   5.973   2.475  1.8780  1.0035 -0.5394
 5485SOL    MW421708   5.532   5.958   2.407  0.8424 -0.2676  0.4821
 5486SOL     OW21709   5.873   0.721   0.206  0.0341 -0.8228 -0.0084
 5486SOL    HW221710   5.822   0.765   0.138  0.5982 -0.2898 -0.0985
 5486SOL    HW321711   5.909   0.643   0.162  0.4305 -0.4574 -0.3400
 5486SOL    MW421712   5.871   0.716   0.191  0.1608 -0.7042 -0.0640
 5487SOL     OW21713   4.812   6.010   3.368 -0.0732  0.1726 -0.7116
 5487SOL    HW221714   4.755   6.082   3.341 -1.7590 -0.9669 -0.2824
 5487SOL    HW321715   4.755   5.934   3.372  1.4953 -1.0245 -0.2846
 5487SOL    MW421716   4.797   6.010   3.365 -0.0887 -0.1357 -0.5987
 5488SOL     OW21717   2.712   0.894   5.209  0.3043  0.3018 -0.2312
 5488SOL    HW221718   2.646   0.849   5.261 -0.6431  1.3131 -0.5221
 5488SOL    HW321719   2.723   0.839   5.131 -1.1738  0.7847 -0.7994
 5488SOL    MW421720   2.705   0.881   5.205 -0.0157  0.4989 -0.3446
 5489SOL     OW21721   5.125   3.102   3.227  0.1687 -0.6147 -0.1736
 5489SOL    HW221722   5.207   3.151   3.221 -0.9258  1.3523  0.0291
 5489SOL    HW321723   5.092   3.120   3.316 -1.2298 -0.0717 -0.7662
 5489SOL    MW421724   5.131   3.111   3.238 -0.1602 -0.2836 -0.2251
 5490SOL     OW21725   4.797   0.572   5.859 -0.1370  0.7524  0.1926
 5490SOL    HW221726   4.728   0.545   5.798  1.2332  0.3683 -1.2417
 5490SOL    HW321727   4.773   0.661   5.884 -0.6453  0.9717 -1.0384
 5490SOL    MW421728   4.785   0.580   5.854 -0.0233  0.7306 -0.1590
 5491SOL     OW21729   5.119   2.031   0.672  0.0995 -0.1246 -0.3894
 5491SOL    HW221730   5.057   1.986   0.729  1.9432 -0.6069  1.3377
 5491SOL    HW321731   5.075   2.112   0.648 -0.3623  0.6459  2.6534
 5491SOL    MW421732   5.105   2.035   0.676  0.2818 -0.0866  0.2400
 5492SOL     OW21733   5.554   4.326   0.609  0.2848 -0.4336 -0.2187
 5492SOL    HW221734   5.586   4.239   0.587  0.5485 -0.3259 -0.2608
 5492SOL    HW321735   5.571   4.335   0.703 -0.0664 -0.5625 -0.1388
 5492SOL    MW421736   5.560   4.316   0.619  0.2733 -0.4364 -0.2137
 5493SOL     OW21737   3.216   2.862   4.441 -0.3022 -0.5203  0.2593
 5493SOL    HW221738   3.274   2.840   4.514  2.0054  0.5023 -1.1355
 5493SOL    HW321739   3.266   2.927   4.390 -2.3570 -0.2243 -1.5061
 5493SOL    MW421740   3.231   2.868   4.444 -0.2689 -0.3463 -0.1576
 5494SOL     OW21741   4.087   0.991   0.769  0.2130 -0.1881 -0.2890
 5494SOL    HW221742   4.112   0.944   0.848  0.9459 -1.5171 -1.2742
 5494SOL    HW321743   4.000   0.956   0.747 -0.1580  0.4541  0.1099
 5494SOL    MW421744   4.079   0.980   0.777  0.2608 -0.2787 -0.3664
 5495SOL     OW21745   0.425   3.526   2.034  0.1677  0.1952 -0.2705
 5495SOL    HW221746   0.448   3.617   2.013  1.3772  0.0022  0.1381
 5495SOL    HW321747   0.332   3.529   2.053  0.1725  1.3415 -0.3495
 5495SOL    MW421748   0.416   3.539   2.034  0.3279  0.3210 -0.2271
 5496SOL     OW21749   6.269   1.143   1.505  0.3381 -0.4475  0.5617
 5496SOL    HW221750   6.353   1.128   1.547  0.9745 -0.3943 -0.6405
 5496SOL    HW321751   6.253   1.064   1.454 -0.2124 -0.3523  0.5795
 5496SOL    MW421752   6.278   1.131   1.504  0.3494 -0.4279  0.4054
 5497SOL     OW21753   1.994   3.811   4.339  0.1622 -0.0713 -0.0933
 5497SOL    HW221754   1.924   3.745   4.344  0.5100 -0.7934 -2.8680
 5497SOL    HW321755   2.072   3.766   4.371 -0.3315  0.3173  1.7593
 5497SOL    MW421756   1.995   3.796   4.344  0.1429 -0.1153 -0.2150
 5498SOL     OW21757   5.339   5.698   3.462  0.9077 -0.5471  0.3158
 5498SOL    HW221758   5.392   5.778   3.468 -1.5154  1.4812 -2.2671
 5498SOL    HW321759   5.343   5.673   3.369 -2.2536 -0.4048  0.0116
 5498SOL    MW421760   5.346   5.706   3.450  0.1709 -0.2607 -0.0651
 5499SOL     OW21761   1.501   2.714   5.695  0.8269 -0.2444 -0.2841
 5499SOL    HW221762   1.444   2.791   5.704  1.7274  0.4870 -0.6236
 5499SOL    HW321763   1.514   2.684   5.785 -0.0988 -0.4346 -0.2039
 5499SOL    MW421764   1.496   2.720   5.708  0.8236 -0.1730 -0.3183
 5500SOL     OW21765   3.639   2.571   0.766  0.2306 -0.2132  0.4200
 5500SOL    HW221766   3.730   2.589   0.742  0.5226 -2.3228 -0.2660
 5500SOL    HW321767   3.589   2.595   0.687  0.0352  1.7022  1.0656
 5500SOL    MW421768   3.644   2.577   0.752  0.2434 -0.2388  0.4147
 5501SOL     OW21769   4.315   0.501   3.252 -0.6056 -0.5643  0.6364
 5501SOL    HW221770   4.322   0.439   3.180 -0.0272  0.0332  0.1565
 5501SOL    HW321771   4.405   0.530   3.267 -0.4142 -2.0833  2.8838
 5501SOL    MW421772   4.328   0.497   3.244 -0.5040 -0.6859  0.8696
 5502SOL     OW21773   4.480   2.578   6.352 -0.4791 -0.6060 -0.3560
 5502SOL    HW221774   4.525   2.547   6.431  1.0626 -1.9299 -1.6817
 5502SOL    HW321775   4.387   2.565   6.371 -0.5130  2.4527  2.5846
 5502SOL    MW421776   4.474   2.572   6.365 -0.2801 -0.3771 -0.1429
 5503SOL     OW21777   2.669   3.904   0.878  0.7453  0.2441 -0.4679
 5503SOL    HW221778   2.679   3.825   0.931 -0.3113 -0.0790 -0.7397
 5503SOL    HW321779   2.603   3.881   0.813 -0.0259  1.5483 -0.1684
 5503SOL    MW421780   2.662   3.890   0.877  0.5041  0.3735 -0.4642
 5504SOL     OW21781   2.738   5.921   4.748  0.2455  0.3077  0.1213
 5504SOL    HW221782   2.650   5.885   4.761  0.5720 -0.0888  1.4587
 5504SOL    HW321783   2.769   5.879   4.668 -0.0171 -1.1542  0.7462
 5504SOL    MW421784   2.730   5.911   4.739  0.2539  0.0625  0.3802
 5505SOL     OW21785   4.655   5.783   3.396 -0.0956 -0.3290  0.4212
 5505SOL    HW221786   4.698   5.705   3.432 -0.0274 -0.1787  0.6631
 5505SOL    HW321787   4.586   5.803   3.458 -1.3114 -1.2777 -0.5626
 5505SOL    MW421788   4.652   5.775   3.409 -0.2470 -0.4344  0.3233
 5506SOL     OW21789   6.198   4.294   2.196 -0.4932 -0.2667 -0.1117
 5506SOL    HW221790   6.238   4.214   2.163  0.8274  0.2968  0.0759
 5506SOL    HW321791   6.169   4.340   2.117  1.6130  0.5298 -0.4924
 5506SOL    MW421792   6.199   4.290   2.181 -0.0411 -0.0873 -0.1372
 5507SOL     OW21793   1.772   0.335   0.805  0.2606 -0.2536  0.1063
 5507SOL    HW221794   1.808   0.290   0.881  1.9311 -0.0834 -0.5340
 5507SOL    HW321795   1.684   0.298   0.794 -0.6278  0.7323  2.9306
 5507SOL    MW421796   1.765   0.325   0.814  0.3638 -0.1011  0.3945
 5508SOL     OW21797   1.712   0.398   5.757 -0.1404 -0.2072  0.2384
 5508SOL    HW221798   1.781   0.369   5.817 -0.4391  0.6904  1.0546
 5508SOL    HW321799   1.630   0.380   5.804 -0.3820  0.5126  0.1164
 5508SOL    MW421800   1.710   0.392   5.771 -0.2117  0.0062  0.3300
 5509SOL     OW21801   1.046   0.659   5.315  0.1801 -0.1845  0.1181
 5509SOL    HW221802   1.071   0.652   5.408  1.5779 -0.0495 -0.2181
 5509SOL    HW321803   1.062   0.751   5.293 -0.0294 -0.2456 -0.2875
 5509SOL    MW421804   1.052   0.670   5.324  0.3369 -0.1747  0.0202
 5510SOL     OW21805   1.864   0.904   5.305  0.2132  0.2355 -0.3509
 5510SOL    HW221806   1.841   0.982   5.355  1.6575  1.1115 -0.9856
 5510SOL    HW321807   1.864   0.933   5.213  0.9919 -0.4356 -0.5792
 5510SOL    MW421808   1.861   0.918   5.299  0.5065  0.2626 -0.4648
 5511SOL     OW21809   5.586   5.388   0.947 -0.2597  0.1266 -0.5454
 5511SOL    HW221810   5.605   5.372   1.039 -1.9746 -0.4188 -0.2560
 5511SOL    HW321811   5.543   5.473   0.946  0.8915  0.7265 -1.0233
 5511SOL    MW421812   5.583   5.397   0.959 -0.3341  0.1338 -0.5703
 5512SOL     OW21813   3.721   0.897   0.731  0.1522  0.2637  0.1364
 5512SOL    HW221814   3.757   0.923   0.646  2.3909 -0.8181  0.6943
 5512SOL    HW321815   3.660   0.826   0.709  1.7459 -0.9763 -0.5216
 5512SOL    MW421816   3.717   0.891   0.717  0.6578 -0.0426  0.1232
 5513SOL     OW21817   5.457   0.116   3.487  0.5645 -0.6618  0.4297
 5513SOL    HW221818   5.378   0.169   3.474  0.1834 -1.2235  0.4424
 5513SOL    HW321819   5.424   0.028   3.505  1.1992 -0.9306  0.2912
 5513SOL    MW421820   5.442   0.112   3.488  0.5980 -0.7714  0.4131
 5514SOL     OW21821   5.583   0.960   1.128 -0.2383 -0.5753  0.2644
 5514SOL    HW221822   5.542   0.968   1.214  0.6429  0.3867  0.5999
 5514SOL    HW321823   5.512   0.929   1.071 -0.5176 -2.5030  1.5713
 5514SOL    MW421824   5.568   0.957   1.131 -0.1589 -0.7027  0.4811
 5515SOL     OW21825   5.303   5.805   1.204 -0.6521  0.1784 -0.1905
 5515SOL    HW221826   5.241   5.818   1.276 -0.5742 -0.0791 -0.0774
 5515SOL    HW321827   5.248   5.788   1.128 -0.7201 -2.9332  0.4294
 5515SOL    MW421828   5.288   5.805   1.203 -0.6508 -0.2661 -0.0938
 5516SOL     OW21829   6.417   3.093   0.937  0.1888  0.1169 -0.0462
 5516SOL    HW221830   6.421   3.122   0.846  0.9349 -0.0346 -0.0639
 5516SOL    HW321831   6.337   3.133   0.971  0.3598  0.8749 -0.5232
 5516SOL    MW421832   6.407   3.102   0.929  0.3098  0.1969 -0.1115
 5517SOL     OW21833   6.204   3.207   4.918  0.5299  0.5519 -0.2903
 5517SOL    HW221834   6.234   3.267   4.986 -0.3213 -1.2316  1.8047
 5517SOL    HW321835   6.113   3.187   4.942  0.6851 -1.3148 -1.0779
 5517SOL    MW421836   6.196   3.212   4.930  0.4381  0.0703 -0.1178
 5518SOL     OW21837   1.757   3.174   4.951 -0.1771 -0.2887  0.4359
 5518SOL    HW221838   1.700   3.100   4.931 -0.0565 -0.4364  0.6452
 5518SOL    HW321839   1.845   3.139   4.947  0.0339  0.3305 -1.7254
 5518SOL    MW421840   1.761   3.160   4.947 -0.1333 -0.2265  0.1784
 5519SOL     OW21841   0.637   5.354   3.894 -0.4317  0.0025 -0.1362
 5519SOL    HW221842   0.563   5.365   3.835 -1.7365 -0.0245  1.4453
 5519SOL    HW321843   0.631   5.427   3.955  0.2629 -0.5402  0.6090
 5519SOL    MW421844   0.627   5.365   3.894 -0.5122 -0.0727  0.1708
 5520SOL     OW21845   3.528   3.845   5.653 -0.0294 -0.0009  0.0743
 5520SOL    HW221846   3.621   3.836   5.674  0.3797  0.4450 -1.4179
 5520SOL    HW321847   3.509   3.769   5.599 -0.2024  0.5404 -0.6431
 5520SOL    MW421848   3.538   3.834   5.648  0.0018  0.1294 -0.2172
 5521SOL     OW21849   5.432   1.975   2.687  0.1173  0.3609 -0.0372
 5521SOL    HW221850   5.361   1.917   2.713 -0.4221  0.9810 -0.1203
 5521SOL    HW321851   5.402   2.063   2.709  1.1299  0.5896  0.5469
 5521SOL    MW421852   5.419   1.979   2.693  0.1798  0.4729  0.0289
 5522SOL     OW21853   1.130   5.919   3.585 -0.0117 -0.6410  0.1020
 5522SOL    HW221854   1.188   5.842   3.582  0.6252 -0.1570 -0.3695
 5522SOL    HW321855   1.185   5.988   3.622  0.2548  0.2663 -1.8853
 5522SOL    MW421856   1.145   5.918   3.590  0.1075 -0.4574 -0.2224
 5523SOL     OW21857   6.309   2.547   5.291  0.1060  0.2002  0.3998
 5523SOL    HW221858   6.356   2.488   5.351  2.4817  1.1068 -0.4587
 5523SOL    HW321859   6.252   2.489   5.241  1.5293 -1.2434  0.3593
 5523SOL    MW421860   6.308   2.531   5.293  0.6073  0.1293  0.2812
 5524SOL     OW21861   1.039   6.278   5.905  0.2135  0.6725 -0.4841
 5524SOL    HW221862   0.980   6.350   5.925  0.3014  0.4489  0.6241
 5524SOL    HW321863   1.006   6.205   5.957  0.5493  0.1050 -1.0495
 5524SOL    MW421864   1.026   6.278   5.914  0.2694  0.5681 -0.4125
 5525SOL     OW21865   1.712   6.068   4.724 -0.2176 -0.2753  0.1972
 5525SOL    HW221866   1.754   6.147   4.759 -1.0105  0.4799 -0.4869
 5525SOL    HW321867   1.779   6.026   4.671  0.1909 -0.0176  0.5065
 5525SOL    MW421868   1.726   6.073   4.722 -0.2683 -0.1417  0.1477
 5526SOL     OW21869   3.233   3.171   1.345 -0.1579 -0.3933 -0.5753
 5526SOL    HW221870   3.202   3.219   1.422  0.7487 -2.4996  1.2250
 5526SOL    HW321871   3.162   3.109   1.326  0.9601 -2.1458  0.7232
 5526SOL    MW421872   3.219   3.169   1.352  0.1092 -0.9024 -0.1665
 5527SOL     OW21873   2.666   1.951   2.372  0.2889 -0.0276 -0.2459
 5527SOL    HW221874   2.686   1.879   2.313  1.8621  0.8427 -0.8636
 5527SOL    HW321875   2.685   1.917   2.459  1.5480 -0.2322 -0.5714
 5527SOL    MW421876   2.671   1.937   2.375  0.6626  0.0602 -0.3703
 5528SOL     OW21877   1.469   2.047  -0.038 -0.0593 -0.7166 -0.0715
 5528SOL    HW221878   1.446   2.087   0.045  2.3296  1.1442 -0.1909
 5528SOL    HW321879   1.554   2.005  -0.022  0.5527 -0.1216 -1.6050
 5528SOL    MW421880   1.477   2.046  -0.025  0.3366 -0.3926 -0.2896
 5529SOL     OW21881   1.844   0.915   1.006  0.2020  0.6425  0.6797
 5529SOL    HW221882   1.790   0.982   1.047  0.2730 -0.7026  3.1633
 5529SOL    HW321883   1.783   0.843   0.988  0.5179  0.5134  0.0923
 5529SOL    MW421884   1.829   0.914   1.009  0.2531  0.4480  0.9299
 5530SOL     OW21885   5.431   5.762  -0.025 -0.1911 -0.2113 -0.5567
 5530SOL    HW221886   5.384   5.705   0.035 -1.0597 -1.8402 -2.6420
 5530SOL    HW321887   5.363   5.806  -0.076  0.4986  1.7447  0.0912
 5530SOL    MW421888   5.416   5.760  -0.024 -0.2147 -0.1682 -0.7464
 5531SOL     OW21889   2.847   0.832   4.773  0.1896 -0.4131  0.0562
 5531SOL    HW221890   2.758   0.869   4.770 -0.3616 -1.6602  0.1880
 5531SOL    HW321891   2.850   0.784   4.856  0.6855 -1.1023 -0.3498
 5531SOL    MW421892   2.835   0.831   4.784  0.1823 -0.6685  0.0201
 5532SOL     OW21893   6.162   4.542   2.341 -0.2141 -0.1880 -0.2254
 5532SOL    HW221894   6.109   4.530   2.420 -1.1541 -2.5039 -1.1329
 5532SOL    HW321895   6.171   4.454   2.304  0.2029  0.8077 -2.6923
 5532SOL    MW421896   6.156   4.529   2.346 -0.2831 -0.3622 -0.6706
 5533SOL     OW21897   1.935   4.076   6.237  0.2261 -0.0715  0.7623
 5533SOL    HW221898   2.012   4.113   6.195 -1.8801  1.9860 -1.6053
 5533SOL    HW321899   1.906   4.144   6.297  0.3071 -0.9236  1.8054
 5533SOL    MW421900   1.941   4.090   6.240 -0.0411  0.0875  0.5876
 5534SOL     OW21901   2.018   0.592   1.893 -0.1110  0.0790 -0.5272
 5534SOL    HW221902   2.051   0.652   1.826 -0.0877  2.9930  1.8528
 5534SOL    HW321903   1.951   0.643   1.939  0.3643 -1.4610  2.0752
 5534SOL    MW421904   2.014   0.607   1.891 -0.0452  0.2603  0.1302
 5535SOL     OW21905   0.895   1.752   0.691 -0.0879 -0.1127  0.9866
 5535SOL    HW221906   0.833   1.712   0.630 -1.1139  2.1560  0.4540
 5535SOL    HW321907   0.845   1.770   0.770  0.9459 -1.9192  2.1363
 5535SOL    MW421908   0.880   1.749   0.693 -0.0868 -0.0517  1.0680
 5536SOL     OW21909   5.354   2.243   2.726  0.5884  0.1951 -0.5234
 5536SOL    HW221910   5.297   2.248   2.803 -0.5352  1.0803 -1.3652
 5536SOL    HW321911   5.440   2.269   2.759 -0.1786  2.0758  0.1741
 5536SOL    MW421912   5.358   2.247   2.741  0.3390  0.5600 -0.5424
 5537SOL     OW21913   0.280   5.703   2.479 -0.1916  0.3701 -0.2772
 5537SOL    HW221914   0.205   5.649   2.454 -0.8839  1.8775 -1.6224
 5537SOL    HW321915   0.316   5.734   2.396  1.2150  0.6244  0.3997
 5537SOL    MW421916   0.275   5.700   2.465 -0.0973  0.6025 -0.3653
 5538SOL     OW21917   4.437   2.746   4.136 -0.3307  0.2755  0.4492
 5538SOL    HW221918   4.432   2.738   4.231 -0.8898  0.1535  0.4150
 5538SOL    HW321919   4.520   2.791   4.119 -0.1299  0.1063  0.9814
 5538SOL    MW421920   4.447   2.751   4.146 -0.3780  0.2371  0.5149
 5539SOL     OW21921   4.600   0.588   4.380 -0.0843 -0.2296  0.4984
 5539SOL    HW221922   4.686   0.581   4.337 -0.6287  2.2177 -1.1730
 5539SOL    HW321923   4.617   0.637   4.460 -0.1976  2.7068 -1.1516
 5539SOL    MW421924   4.614   0.593   4.385 -0.1711  0.4807  0.0602
 5540SOL     OW21925   3.220   0.167   1.634 -0.3351  0.0673 -0.3405
 5540SOL    HW221926   3.251   0.237   1.577 -0.1378  1.2577  1.1714
 5540SOL    HW321927   3.300   0.121   1.661 -0.0585  1.4791  1.4330
 5540SOL    MW421928   3.235   0.170   1.630 -0.2726  0.4106  0.0930
 5541SOL     OW21929   0.740   3.875   4.331 -0.0446  0.0946  0.0813
 5541SOL    HW221930   0.824   3.864   4.288 -0.8957  1.2811 -2.0540
 5541SOL    HW321931   0.675   3.855   4.263 -1.4697  1.3921  0.9840
 5541SOL    MW421932   0.742   3.871   4.316 -0.3449  0.4224 -0.0813
 5542SOL     OW21933   5.278   4.296   5.281  0.3364 -0.3998  0.3144
 5542SOL    HW221934   5.359   4.251   5.256 -0.3326 -2.8873  2.2979
 5542SOL    HW321935   5.301   4.344   5.361  0.8155  2.3242 -1.3206
 5542SOL    MW421936   5.292   4.297   5.288  0.3113 -0.3686  0.3604
 5543SOL     OW21937   0.770   4.600   0.674 -0.0238  0.0959  0.0553
 5543SOL    HW221938   0.849   4.639   0.637 -0.5501  0.0590 -1.1213
 5543SOL    HW321939   0.706   4.602   0.604 -0.9698 -0.2167  0.8806
 5543SOL    MW421940   0.772   4.605   0.660 -0.2181  0.0498  0.0089
 5544SOL     OW21941   2.826   0.692   5.028  0.0688 -0.2188  0.4203
 5544SOL    HW221942   2.849   0.633   5.101 -0.8167 -1.0633  0.0403
 5544SOL    HW321943   2.748   0.653   4.990  0.6059  0.1296 -1.0942
 5544SOL    MW421944   2.819   0.679   5.033  0.0229 -0.2843  0.1704
 5545SOL     OW21945   4.317   4.623   3.470 -0.4377 -0.0485 -0.0825
 5545SOL    HW221946   4.374   4.700   3.459 -1.7667  0.9915 -0.0269
 5545SOL    HW321947   4.311   4.586   3.382 -0.2216  0.2507 -0.2274
 5545SOL    MW421948   4.323   4.628   3.457 -0.5845  0.1282 -0.0943
 5546SOL     OW21949   4.297   2.026   2.666 -0.3222  0.0892 -0.0460
 5546SOL    HW221950   4.279   2.079   2.743 -0.1894  2.0634 -1.3113
 5546SOL    HW321951   4.215   2.026   2.617  0.1332  0.4715 -0.8268
 5546SOL    MW421952   4.284   2.033   2.669 -0.2446  0.4001 -0.3160
 5547SOL     OW21953   3.849   2.896   0.400 -0.1868  0.1751  0.2378
 5547SOL    HW221954   3.848   2.970   0.461  0.1565 -0.1826  0.6863
 5547SOL    HW321955   3.942   2.878   0.387 -0.2547 -1.2236  1.4249
 5547SOL    MW421956   3.861   2.903   0.406 -0.1505 -0.0566  0.4536
 5548SOL     OW21957   0.519   4.723   3.940  0.1872  0.3683 -0.0544
 5548SOL    HW221958   0.531   4.730   4.034 -0.9506  1.0357  0.0574
 5548SOL    HW321959   0.590   4.665   3.911  1.1603  0.9670  1.0529
 5548SOL    MW421960   0.530   4.716   3.949  0.1655  0.5354  0.1065
 5549SOL     OW21961   4.520   3.338   0.729  0.1027 -0.1593  0.8499
 5549SOL    HW221962   4.491   3.391   0.803 -0.3962  4.1731 -2.0909
 5549SOL    HW321963   4.441   3.296   0.696 -0.3354  0.7077  0.7751
 5549SOL    MW421964   4.506   3.340   0.734 -0.0209  0.5267  0.4520
 5550SOL     OW21965   5.766   4.336   1.683 -0.1513 -0.1746 -0.4081
 5550SOL    HW221966   5.685   4.349   1.733 -0.4012 -1.1785 -0.5312
 5550SOL    HW321967   5.825   4.291   1.744  0.5384  1.0686 -0.1261
 5550SOL    MW421968   5.763   4.332   1.698 -0.0933 -0.1430 -0.3871
 5551SOL     OW21969   4.485   5.894   2.428 -0.2864 -0.1139 -0.0242
 5551SOL    HW221970   4.516   5.954   2.360 -0.8435  0.8405  0.5367
 5551SOL    HW321971   4.551   5.825   2.431 -0.9291 -0.9222 -2.4620
 5551SOL    MW421972   4.498   5.893   2.420 -0.4447 -0.0946 -0.2719
 5552SOL     OW21973   2.245   2.810   0.777  0.0039  0.2091  0.1771
 5552SOL    HW221974   2.190   2.773   0.847  0.7845 -0.8483  0.2601
 5552SOL    HW321975   2.242   2.744   0.707  3.9658 -1.6921  1.5339
 5552SOL    MW421976   2.237   2.796   0.777  0.6296 -0.1813  0.3671
 5553SOL     OW21977   0.482   5.901   5.116  0.0572  0.2177  0.8541
 5553SOL    HW221978   0.427   5.957   5.060 -1.1415  0.4683  2.2266
 5553SOL    HW321979   0.457   5.812   5.092 -0.1631  0.3157  0.7101
 5553SOL    MW421980   0.471   5.897   5.105 -0.1300  0.2637  1.0162
 5554SOL     OW21981   0.502   6.315   4.429  0.4464 -0.1109 -0.5502
 5554SOL    HW221982   0.428   6.255   4.438  1.3189 -1.6208 -2.5053
 5554SOL    HW321983   0.482   6.367   4.351  0.7621  0.5465 -0.2053
 5554SOL    MW421984   0.490   6.314   4.420  0.6032 -0.2234 -0.7627
 5555SOL     OW21985   5.548   3.420   5.537  0.3250 -0.0573  0.3120
 5555SOL    HW221986   5.622   3.395   5.482 -0.6348 -0.7021 -0.7206
 5555SOL    HW321987   5.574   3.395   5.625  1.5104  0.1299  0.0265
 5555SOL    MW421988   5.561   3.414   5.541  0.3548 -0.1177  0.1381
 5556SOL     OW21989   3.916   2.403   3.897  0.2632  0.3360 -0.5084
 5556SOL    HW221990   3.909   2.366   3.984  0.2904  1.5331  0.0275
 5556SOL    HW321991   3.852   2.354   3.844  1.1030 -1.2109 -0.1396
 5556SOL    MW421992   3.907   2.392   3.901  0.3776  0.2898 -0.3891
 5557SOL     OW21993   4.521   6.012   6.200 -0.1928  0.6181 -0.7558
 5557SOL    HW221994   4.431   6.036   6.181 -0.6421 -0.7143 -0.4632
 5557SOL    HW321995   4.514   5.933   6.253  1.1462  0.5482 -0.6397
 5557SOL    MW421996   4.508   6.004   6.204 -0.0754  0.4331 -0.7019
 5558SOL     OW21997   6.152   3.850   2.065 -0.1305 -0.0701  0.3833
 5558SOL    HW221998   6.214   3.783   2.095 -1.2550 -1.0721  0.5825
 5558SOL    HW321999   6.091   3.860   2.138 -0.9784 -0.1004 -0.3035
 5558SOL    MW422000   6.152   3.842   2.079 -0.3907 -0.2063  0.3189
 5559SOL     OW22001   3.252   4.016   3.240 -0.1972  0.1289  0.2144
 5559SOL    HW222002   3.222   4.035   3.151 -1.4300  0.6155  0.7210
 5559SOL    HW322003   3.311   4.088   3.261  0.5618 -0.2921 -0.4102
 5559SOL    MW422004   3.256   4.028   3.231 -0.2597  0.1375  0.1989
 5560SOL     OW22005   2.652   5.080   1.811  0.3670 -0.3351 -0.3613
 5560SOL    HW222006   2.631   5.168   1.842 -0.0937 -0.9762  1.2449
 5560SOL    HW322007   2.583   5.024   1.848  0.9667 -1.4494 -0.8773
 5560SOL    MW422008   2.640   5.084   1.820  0.3853 -0.5667 -0.2174
 5561SOL     OW22009   1.955   2.984   3.912  0.3598 -0.1504 -0.1069
 5561SOL    HW222010   2.032   3.036   3.890  0.1405  0.1602 -0.1448
 5561SOL    HW322011   1.930   2.943   3.829  0.0204  0.3704 -0.2657
 5561SOL    MW422012   1.962   2.985   3.898  0.2861 -0.0407 -0.1329
 5562SOL     OW22013   4.157   5.879   5.307 -0.0787 -0.0817  0.1847
 5562SOL    HW222014   4.218   5.847   5.373 -1.2704  0.1344  1.4378
 5562SOL    HW322015   4.147   5.806   5.246  1.4074 -0.1135 -0.0603
 5562SOL    MW422016   4.163   5.865   5.307 -0.0398 -0.0574  0.3177
 5563SOL     OW22017   1.488   4.926   1.596  0.6610 -0.1899 -0.3365
 5563SOL    HW222018   1.488   5.008   1.547  0.9419 -1.3930 -2.4656
 5563SOL    HW322019   1.397   4.913   1.622  0.8417  1.4794  1.3170
 5563SOL    MW422020   1.476   4.935   1.593  0.7219 -0.1284 -0.3992
 5564SOL     OW22021   1.893   5.067   0.392  0.3350 -0.6205  0.1748
 5564SOL    HW222022   1.985   5.084   0.414  0.3633  0.0027 -0.3588
 5564SOL    HW322023   1.893   4.979   0.355  0.8619 -0.3469 -0.5218
 5564SOL    MW422024   1.905   5.058   0.390  0.4083 -0.5022  0.0125
 5565SOL     OW22025   0.202   0.325   5.222 -0.0755  0.5081  0.5866
 5565SOL    HW222026   0.252   0.244   5.229  2.6659  2.0440  0.2990
 5565SOL    HW322027   0.116   0.297   5.192  1.2546 -2.1746 -1.1764
 5565SOL    MW422028   0.198   0.311   5.219  0.4617  0.3568  0.3160
 5566SOL     OW22029   3.919   5.180   2.423  0.2701 -0.1083  0.0654
 5566SOL    HW222030   3.995   5.194   2.365 -1.4409  2.1490 -1.8057
 5566SOL    HW322031   3.924   5.251   2.487  0.4227 -0.7609  0.7969
 5566SOL    MW422032   3.930   5.191   2.424  0.0644  0.1034 -0.0850
 5567SOL     OW22033   4.290   2.287   0.412 -0.6699  1.1187 -0.1169
 5567SOL    HW222034   4.262   2.208   0.365 -0.0343  0.5032  0.5170
 5567SOL    HW322035   4.362   2.257   0.468 -0.9651  1.9725  0.7463
 5567SOL    MW422036   4.296   2.272   0.413 -0.6250  1.1501  0.0806
 5568SOL     OW22037   5.961   4.598   4.136 -0.6995  0.5627  0.1048
 5568SOL    HW222038   5.938   4.543   4.061 -0.1619  0.6569 -0.1360
 5568SOL    HW322039   5.877   4.629   4.170 -1.0089 -0.3005  0.1657
 5568SOL    MW422040   5.947   4.595   4.130 -0.6694  0.4613  0.0811
 5569SOL     OW22041   2.438   5.652   1.049 -0.5256 -0.5603  0.4755
 5569SOL    HW222042   2.353   5.684   1.017  1.2530  3.3946 -1.0173
 5569SOL    HW322043   2.438   5.674   1.142 -0.8873  0.1102  0.3260
 5569SOL    MW422044   2.427   5.659   1.057 -0.3386  0.0500  0.2588
 5570SOL     OW22045   4.443   5.827   4.101 -0.7212  0.1397  0.0191
 5570SOL    HW222046   4.355   5.813   4.065 -0.9853  1.4094  0.1392
 5570SOL    HW322047   4.500   5.828   4.025 -0.8660 -0.2278 -0.0982
 5570SOL    MW422048   4.439   5.825   4.086 -0.7751  0.2587  0.0195
 5571SOL     OW22049   6.035   1.815   4.047 -0.3077 -0.2182  0.1096
 5571SOL    HW222050   6.086   1.894   4.031 -2.0964  0.6571 -1.5015
 5571SOL    HW322051   6.001   1.825   4.136  1.7007 -0.5268  0.9744
 5571SOL    MW422052   6.037   1.827   4.057 -0.2787 -0.1434  0.0111
 5572SOL     OW22053   4.253   3.855   4.104 -0.3304 -0.0585 -0.3246
 5572SOL    HW222054   4.250   3.947   4.077  0.4802 -0.1058 -0.6044
 5572SOL    HW322055   4.232   3.857   4.198  0.8968  0.5627 -0.0433
 5572SOL    MW422056   4.250   3.867   4.113 -0.0615  0.0173 -0.3244
 5573SOL     OW22057   5.755   6.194   5.096  0.8539  0.4665 -0.4787
 5573SOL    HW222058   5.818   6.162   5.031 -0.2482  0.0787 -1.3747
 5573SOL    HW322059   5.716   6.114   5.133  1.2043  0.6938  0.4037
 5573SOL    MW422060   5.758   6.179   5.092  0.7547  0.4453 -0.4805
 5574SOL     OW22061   6.246   0.203   1.923  0.0419 -0.1590 -0.0425
 5574SOL    HW222062   6.181   0.135   1.908 -0.2760 -0.2283  1.4757
 5574SOL    HW322063   6.196   0.278   1.955  0.5752  0.2108 -0.0543
 5574SOL    MW422064   6.231   0.204   1.925  0.0703 -0.1193  0.1562
 5575SOL     OW22065   3.453   2.665   6.149 -0.1930  0.2742  0.0130
 5575SOL    HW222066   3.385   2.598   6.141  1.3996 -1.4144  0.0720
 5575SOL    HW322067   3.502   2.641   6.228 -0.0630  1.9959  0.4970
 5575SOL    MW422068   3.451   2.653   6.158  0.0343  0.2786  0.0846
 5576SOL     OW22069   0.746   5.788   3.312  0.4527 -1.0307  0.6051
 5576SOL    HW222070   0.780   5.854   3.373 -0.7355  1.6474 -1.3933
 5576SOL    HW322071   0.821   5.765   3.257  0.2398  1.3885 -0.8590
 5576SOL    MW422072   0.760   5.794   3.313  0.2679 -0.3582  0.1483
 5577SOL     OW22073   0.460   5.057   2.413 -0.0598 -0.2519  0.2032
 5577SOL    HW222074   0.367   5.078   2.416  0.4414  2.1749  1.3387
 5577SOL    HW322075   0.503   5.142   2.400  1.9369 -1.5398 -2.5613
 5577SOL    MW422076   0.454   5.071   2.412  0.2698 -0.1016 -0.0117
 5578SOL     OW22077   0.318   4.642   0.637  0.1412 -0.7045 -0.3608
 5578SOL    HW222078   0.322   4.668   0.545 -0.7064 -2.2086 -0.8695
 5578SOL    HW322079   0.386   4.575   0.646  0.4810 -0.2961  0.2300
 5578SOL    MW422080   0.328   4.636   0.626  0.0742 -0.8491 -0.3500
 5579SOL     OW22081   4.325   5.548   3.241 -0.2484 -0.3346 -0.0219
 5579SOL    HW222082   4.257   5.609   3.211 -1.1605 -0.8958  0.8233
 5579SOL    HW322083   4.357   5.588   3.322  0.8353  0.1978 -0.6914
 5579SOL    MW422084   4.320   5.562   3.248 -0.2258 -0.3384  0.0012
 5580SOL     OW22085   2.971   1.766   5.690  0.1454  0.8244  0.1300
 5580SOL    HW222086   2.976   1.838   5.754  0.1992  1.1435 -0.2310
 5580SOL    HW322087   3.009   1.802   5.610 -0.8204  0.7412 -0.3752
 5580SOL    MW422088   2.977   1.780   5.688  0.0251  0.8556  0.0157
 5581SOL     OW22089   3.061   1.159   3.750 -0.1608  0.6766 -0.2082
 5581SOL    HW222090   3.086   1.120   3.835 -0.3775  0.8072 -0.0852
 5581SOL    HW322091   2.978   1.116   3.728  0.2777  0.0760 -0.7276
 5581SOL    MW422092   3.054   1.148   3.758 -0.1315  0.6146 -0.2605
 5582SOL     OW22093   2.729   0.886   4.018 -0.0670  0.4107 -0.0091
 5582SOL    HW222094   2.707   0.864   3.928 -1.3058  2.2511 -0.2290
 5582SOL    HW322095   2.667   0.837   4.071  0.1240 -0.0419 -0.2014
 5582SOL    MW422096   2.718   0.877   4.013 -0.2052  0.5938 -0.0635
 5583SOL     OW22097   3.596   2.597   5.312 -0.7496 -0.4924  0.0962
 5583SOL    HW222098   3.635   2.518   5.348 -1.4536 -1.3072 -0.8488
 5583SOL    HW322099   3.659   2.627   5.246 -1.3491 -1.4137 -0.9390
 5583SOL    MW422100   3.609   2.590   5.308 -0.9216 -0.7214 -0.1651
 5584SOL     OW22101   2.475   0.994   4.292  0.5201 -0.1742 -0.4963
 5584SOL    HW222102   2.475   1.061   4.224  0.5544 -1.1868 -1.5378
 5584SOL    HW322103   2.383   0.975   4.308  0.5051  0.2757 -0.0346
 5584SOL    MW422104   2.463   1.000   4.285  0.5227 -0.2485 -0.5728
 5585SOL     OW22105   6.001   4.933   3.478 -0.3071 -0.0200 -0.3136
 5585SOL    HW222106   6.071   4.872   3.454  1.4550  1.5905  0.4984
 5585SOL    HW322107   5.990   4.920   3.573 -3.1721 -2.2450 -0.8144
 5585SOL    MW422108   6.009   4.923   3.488 -0.4526 -0.1011 -0.2726
 5586SOL     OW22109   5.454   4.256   3.522  0.4453  0.0670  0.0175
 5586SOL    HW222110   5.384   4.201   3.486  1.9527 -2.3879  0.6042
 5586SOL    HW322111   5.443   4.340   3.478 -1.7178 -0.8165 -1.2913
 5586SOL    MW422112   5.443   4.260   3.511  0.3588 -0.3735 -0.0778
 5587SOL     OW22113   0.213   6.101   1.762  0.3054 -0.5400 -0.2309
 5587SOL    HW222114   0.191   6.163   1.832 -0.8081 -0.0959 -0.9469
 5587SOL    HW322115   0.168   6.020   1.787 -0.8021 -0.1314 -0.8367
 5587SOL    MW422116   0.204   6.098   1.775  0.0124 -0.4275 -0.4053
 5588SOL     OW22117   5.059   3.252   1.805  0.3886  0.2494  0.1913
 5588SOL    HW222118   4.973   3.282   1.775  0.5842 -0.0359 -0.6646
 5588SOL    HW322119   5.044   3.226   1.896 -1.2139 -2.8211 -0.7930
 5588SOL    MW422120   5.046   3.253   1.813  0.2030 -0.1933 -0.0515
 5589SOL     OW22121   4.854   0.799   0.962  0.3137  0.0827 -0.1154
 5589SOL    HW222122   4.797   0.798   1.039  0.5497 -0.3141  0.0597
 5589SOL    HW322123   4.915   0.727   0.977  0.5396  0.1827 -0.5424
 5589SOL    MW422124   4.854   0.789   0.974  0.3747  0.0435 -0.1486
 5590SOL     OW22125   4.931   4.424   5.612  0.0585  0.2456  0.2519
 5590SOL    HW222126   4.869   4.482   5.657 -0.1360  0.9026 -0.8230
 5590SOL    HW322127   4.951   4.469   5.530 -2.3203 -2.4361 -2.0287
 5590SOL    MW422128   4.925   4.437   5.607 -0.2810 -0.0215 -0.1908
 5591SOL     OW22129   2.878   0.751   2.413 -0.3612  0.8415 -0.0018
 5591SOL    HW222130   2.953   0.756   2.354 -1.6427 -0.7986 -1.9028
 5591SOL    HW322131   2.855   0.658   2.415 -1.4476  1.0976  1.7239
 5591SOL    MW422132   2.885   0.740   2.405 -0.6736  0.6589 -0.0249
 5592SOL     OW22133   0.672   6.026   0.702  0.3334  0.1998 -0.7959
 5592SOL    HW222134   0.626   6.101   0.664  0.3910  1.1010  0.8161
 5592SOL    HW322135   0.619   6.003   0.778  1.0508 -0.5373 -0.5119
 5592SOL    MW422136   0.659   6.033   0.707  0.4356  0.2215 -0.5457
 5593SOL     OW22137   1.661   3.826   3.654  0.4924  0.0430  0.2391
 5593SOL    HW222138   1.650   3.920   3.639  0.3684 -0.4402 -3.5634
 5593SOL    HW322139   1.592   3.804   3.717  0.9136  2.5206  1.7072
 5593SOL    MW422140   1.651   3.836   3.661  0.5316  0.3061 -0.0689
 5594SOL     OW22141   5.178   1.245   0.805 -0.3618  0.3301  0.4149
 5594SOL    HW222142   5.189   1.152   0.784  0.5724  0.1430  1.6205
 5594SOL    HW322143   5.207   1.252   0.896  0.7270  2.0067 -0.0149
 5594SOL    MW422144   5.184   1.233   0.814 -0.0949  0.5266  0.5173
 5595SOL     OW22145   5.582   3.336   4.216 -0.4016 -0.3487 -0.1632
 5595SOL    HW222146   5.506   3.375   4.174  0.3303 -0.3262 -1.5181
 5595SOL    HW322147   5.643   3.408   4.227 -0.7720 -0.2392  1.4836
 5595SOL    MW422148   5.580   3.350   4.212 -0.3539 -0.3313 -0.1247
 5596SOL     OW22149   1.402   2.642   4.306 -0.1764  0.0050  0.0859
 5596SOL    HW222150   1.329   2.635   4.243 -0.1343 -2.1255  0.2093
 5596SOL    HW322151   1.390   2.568   4.365  1.5107  0.2243  0.7566
 5596SOL    MW422152   1.391   2.632   4.305  0.0518 -0.2472  0.1906
 5597SOL     OW22153   1.476   3.602   3.312  0.6053  0.0926 -0.2213
 5597SOL    HW222154   1.478   3.553   3.395 -0.5902 -0.7146 -0.6399
 5597SOL    HW322155   1.498   3.537   3.245 -2.6266 -0.4074 -0.9664
 5597SOL    MW422156   1.479   3.587   3.314  0.0211 -0.0799 -0.3748
 5598SOL     OW22157   5.623   1.658   1.436 -0.4113  0.3123 -0.1871
 5598SOL    HW222158   5.678   1.714   1.490 -2.0827 -0.3012  2.3307
 5598SOL    HW322159   5.535   1.669   1.471 -1.1656 -2.1490 -1.0806
 5598SOL    MW422160   5.619   1.667   1.448 -0.7314 -0.0934  0.0272
 5599SOL     OW22161   5.078   6.305   4.899 -0.3325 -0.4734  0.0541
 5599SOL    HW222162   5.119   6.233   4.946 -1.9808 -2.3623 -1.2224
 5599SOL    HW322163   5.141   6.328   4.831  0.8445  0.3710  1.3781
 5599SOL    MW422164   5.092   6.299   4.896 -0.3946 -0.6112  0.0603
 5600SOL     OW22165   0.075   4.888   5.832 -0.6952 -0.3790 -0.2106
 5600SOL    HW222166   0.089   4.797   5.861  2.4191 -0.1359 -0.5362
 5600SOL    HW322167   0.091   4.885   5.737  0.2956  0.5913 -0.0975
 5600SOL    MW422168   0.079   4.875   5.823 -0.1536 -0.2189 -0.2386
 5601SOL     OW22169   3.712   1.839   5.220  0.1524  0.0108  0.0965
 5601SOL    HW222170   3.643   1.810   5.280  0.4819 -3.0729 -0.8224
 5601SOL    HW322171   3.772   1.889   5.275 -0.9326 -0.3711  1.7107
 5601SOL    MW422172   3.711   1.842   5.235  0.0528 -0.4465  0.1882
 5602SOL     OW22173   3.182   4.503   4.942  0.0854  0.6086  0.2682
 5602SOL    HW222174   3.142   4.547   4.867  0.4119  1.9331  0.8513
 5602SOL    HW322175   3.180   4.567   5.012  0.9752 -0.1598  1.0305
 5602SOL    MW422176   3.177   4.517   4.941  0.2459  0.6820  0.4457
 5603SOL     OW22177   0.080   5.758   2.693 -0.4531 -0.4531  0.2104
 5603SOL    HW222178   0.076   5.838   2.745  0.1081 -1.4583  1.8622
 5603SOL    HW322179   0.160   5.767   2.640 -1.1400  0.6623 -0.6834
 5603SOL    MW422180   0.090   5.770   2.693 -0.4697 -0.4386  0.3104
 5604SOL     OW22181   5.310   3.518   5.260  0.2032 -0.2379  0.3888
 5604SOL    HW222182   5.221   3.551   5.248 -0.6262 -2.4583 -0.0875
 5604SOL    HW322183   5.317   3.500   5.353 -0.3453 -1.2437  0.2566
 5604SOL    MW422184   5.299   3.520   5.271  0.0214 -0.6636  0.3085
 5605SOL     OW22185   3.347   5.384   0.682  0.6372  0.9222 -0.0180
 5605SOL    HW222186   3.303   5.442   0.743  0.7091  1.4528 -0.4633
 5605SOL    HW322187   3.277   5.337   0.637  0.5977 -0.8671  1.7621
 5605SOL    MW422188   3.332   5.385   0.684  0.6415  0.7561  0.1581
 5606SOL     OW22189   5.750   5.239   5.494 -0.0227 -0.1850 -0.4709
 5606SOL    HW222190   5.677   5.180   5.476 -0.1925 -0.3138  0.5819
 5606SOL    HW322191   5.804   5.192   5.557 -0.1719  0.7681  0.4007
 5606SOL    MW422192   5.747   5.225   5.500 -0.0648 -0.0763 -0.2170
 5607SOL     OW22193   5.457   1.964   5.547 -0.6584 -0.2577 -0.1071
 5607SOL    HW222194   5.406   2.045   5.552  0.4532  0.3898  1.1753
 5607SOL    HW322195   5.534   1.981   5.600  0.0076 -1.8782 -0.5120
 5607SOL    MW422196   5.460   1.977   5.554 -0.4239 -0.3861  0.0087
 5608SOL     OW22197   5.551   2.989   4.630  0.2563  0.3219  0.5338
 5608SOL    HW222198   5.535   2.923   4.698 -0.0610  1.0497  1.1785
 5608SOL    HW322199   5.586   2.939   4.556  0.9987 -0.4426  1.3707
 5608SOL    MW422200   5.554   2.973   4.629  0.3124  0.3171  0.7293
 5609SOL     OW22201   3.905   6.222   5.042 -0.1668  0.1926  0.6267
 5609SOL    HW222202   3.955   6.285   4.990  0.0864  0.1556  0.8291
 5609SOL    HW322203   3.815   6.255   5.038 -0.6978 -1.2420 -2.1146
 5609SOL    MW422204   3.900   6.235   5.034 -0.2034 -0.0015  0.2917
 5610SOL     OW22205   3.936   0.489   4.438  0.6804  0.1339 -0.2334
 5610SOL    HW222206   3.840   0.488   4.437  0.6745  0.3573 -0.0514
 5610SOL    HW322207   3.959   0.582   4.443  0.9029  0.0670  0.0091
 5610SOL    MW422208   3.926   0.501   4.438  0.7090  0.1545 -0.1774
 5611SOL     OW22209   0.715   1.318   4.792 -0.1343 -0.1677  0.5972
 5611SOL    HW222210   0.739   1.377   4.720 -0.7425 -1.9459 -1.1400
 5611SOL    HW322211   0.799   1.282   4.821  0.2373  1.3962  1.6132
 5611SOL    MW422212   0.729   1.321   4.786 -0.1655 -0.1960  0.5020
 5612SOL     OW22213   6.245   6.208   1.323 -0.3304 -0.4688  0.1695
 5612SOL    HW222214   6.251   6.169   1.410 -1.6831  0.5111  0.7460
 5612SOL    HW322215   6.299   6.153   1.267 -1.0993 -2.3681  1.2189
 5612SOL    MW422216   6.253   6.196   1.327 -0.6103 -0.5901  0.3840
 5613SOL     OW22217   4.967   1.537   2.739 -0.3713  0.4787 -0.1523
 5613SOL    HW222218   4.965   1.531   2.644 -0.0805  0.9816 -0.1944
 5613SOL    HW322219   4.966   1.447   2.769  1.4990  0.2477 -0.6804
 5613SOL    MW422220   4.966   1.525   2.730 -0.0862  0.5146 -0.2275
 5614SOL     OW22221   3.263   2.162   3.639  0.1860  0.0959 -0.4946
 5614SOL    HW222222   3.242   2.219   3.565 -0.3149  0.7637  0.1419
 5614SOL    HW322223   3.195   2.181   3.703  0.9556 -0.0248  0.3786
 5614SOL    MW422224   3.251   2.172   3.637  0.2214  0.1681 -0.2954
 5615SOL     OW22225   3.713   2.316   3.718 -0.4415  0.0688 -0.2508
 5615SOL    HW222226   3.639   2.285   3.771 -2.1365  1.8705 -1.4251
 5615SOL    HW322227   3.733   2.243   3.660 -0.8150 -0.7017  0.5542
 5615SOL    MW422228   3.706   2.302   3.718 -0.7144  0.2049 -0.2995
 5616SOL     OW22229   3.747   4.840   3.162 -0.4142 -0.0804 -0.1748
 5616SOL    HW222230   3.711   4.929   3.156  0.3258  0.2121 -0.4269
 5616SOL    HW322231   3.750   4.822   3.256 -0.6857  0.1047 -0.1271
 5616SOL    MW422232   3.742   4.849   3.173 -0.3524 -0.0174 -0.2017
 5617SOL     OW22233   5.578   4.002   5.688 -0.0610 -0.8492  0.2913
 5617SOL    HW222234   5.589   3.908   5.702  1.7978 -0.7010  0.1326
 5617SOL    HW322235   5.511   4.028   5.751 -1.5152 -2.4625 -0.4911
 5617SOL    MW422236   5.571   3.993   5.698 -0.0076 -1.0425  0.1671
 5618SOL     OW22237   4.366   0.833   2.753  0.3102 -0.0086  0.0459
 5618SOL    HW222238   4.312   0.900   2.710  0.4354  0.7282  1.0243
 5618SOL    HW322239   4.347   0.842   2.846  1.6254 -0.1747  0.3559
 5618SOL    MW422240   4.356   0.843   2.759  0.5002  0.0667  0.2159
 5619SOL     OW22241   5.846   4.248   1.431  0.2186 -0.3593 -0.4232
 5619SOL    HW222242   5.815   4.158   1.441  0.5879 -0.3206  1.2109
 5619SOL    HW322243   5.839   4.286   1.518  1.7013  0.6784 -0.7249
 5619SOL    MW422244   5.841   4.241   1.443  0.4630 -0.2173 -0.2474
 5620SOL     OW22245   2.153   3.964   4.764  0.1208  0.1743  0.2616
 5620SOL    HW222246   2.109   4.001   4.688 -1.8705  1.6877  2.0399
 5620SOL    HW322247   2.169   4.038   4.822  1.1392 -0.9999  1.5698
 5620SOL    MW422248   2.150   3.978   4.762 -0.0075  0.2191  0.6688
 5621SOL     OW22249   0.408   4.693   4.428  0.1749  0.2547  0.2695
 5621SOL    HW222250   0.414   4.598   4.436 -0.3093  0.0595 -1.3292
 5621SOL    HW322251   0.380   4.722   4.515 -1.8247 -1.2864  0.2390
 5621SOL    MW422252   0.405   4.684   4.441 -0.1528  0.0256  0.0545
 5622SOL     OW22253   2.250   2.573   5.451 -0.1056 -0.0780  0.0541
 5622SOL    HW222254   2.244   2.568   5.547  0.8387 -0.8877  0.0810
 5622SOL    HW322255   2.282   2.661   5.433 -2.2928  0.8476  0.3559
 5622SOL    MW422256   2.253   2.584   5.461 -0.2696 -0.0627  0.0975
 5623SOL     OW22257   0.916   3.404   2.201 -0.3881  0.0624 -0.0689
 5623SOL    HW222258   0.885   3.337   2.261 -0.1300 -0.4352 -0.4799
 5623SOL    HW322259   0.837   3.448   2.171 -0.5411  0.0848  0.3710
 5623SOL    MW422260   0.902   3.401   2.205 -0.3742 -0.0003 -0.0651
 5624SOL     OW22261   2.785   4.499   1.471 -0.2565  0.4260  0.5376
 5624SOL    HW222262   2.707   4.512   1.416  0.4187  1.0554 -0.2853
 5624SOL    HW322263   2.827   4.422   1.433  0.7275  1.4253 -0.4732
 5624SOL    MW422264   2.780   4.490   1.458 -0.0376  0.6408  0.2957
 5625SOL     OW22265   2.980   1.241   0.591  0.5321  0.0559 -0.2111
 5625SOL    HW222266   2.964   1.329   0.624  0.8468  0.1173 -0.2150
 5625SOL    HW322267   2.896   1.196   0.599  0.8020 -0.2269  1.5967
 5625SOL    MW422268   2.967   1.246   0.597  0.6093  0.0267  0.0269
 5626SOL     OW22269   5.341   5.790   4.951 -0.4432 -0.1763 -0.5718
 5626SOL    HW222270   5.259   5.780   4.904 -0.5973 -0.6891 -0.2060
 5626SOL    HW322271   5.403   5.821   4.885 -0.6813 -0.7717 -1.0826
 5626SOL    MW422272   5.339   5.793   4.936 -0.4950 -0.3225 -0.5909
 5627SOL     OW22273   5.197   1.050   1.481  0.4765 -0.1133  0.6862
 5627SOL    HW222274   5.172   0.983   1.543  1.3822 -0.4107  0.7398
 5627SOL    HW322275   5.273   1.014   1.435 -0.8603 -0.4238 -1.4473
 5627SOL    MW422276   5.204   1.037   1.483  0.4196 -0.1935  0.4118
 5628SOL     OW22277   2.167   1.647   3.554  0.5226 -0.0834  0.2835
 5628SOL    HW222278   2.221   1.586   3.605  0.8929  0.0454  0.0481
 5628SOL    HW322279   2.128   1.593   3.486  2.0014  0.1874 -0.8284
 5628SOL    MW422280   2.169   1.632   3.552  0.7666 -0.0307  0.1057
 5629SOL     OW22281   2.556   0.117   4.436 -0.3109 -0.0596  0.0007
 5629SOL    HW222282   2.510   0.175   4.376 -2.2093 -0.1246  1.2898
 5629SOL    HW322283   2.580   0.041   4.383 -1.3157  0.1905 -0.8380
 5629SOL    MW422284   2.553   0.115   4.421 -0.6939 -0.0352  0.0601
 5630SOL     OW22285   0.685   5.232   1.769  0.2612  0.8739  0.2008
 5630SOL    HW222286   0.775   5.205   1.784  0.3830 -0.0139 -1.8159
 5630SOL    HW322287   0.681   5.323   1.800  2.2591  1.4294 -1.0117
 5630SOL    MW422288   0.696   5.241   1.775  0.5409  0.8301 -0.2252
 5631SOL     OW22289   4.338   0.326   4.263 -0.5208 -0.1148 -0.3176
 5631SOL    HW222290   4.347   0.421   4.256  0.9394 -0.3202 -1.6117
 5631SOL    HW322291   4.266   0.305   4.203  0.3075 -0.0008 -1.3616
 5631SOL    MW422292   4.329   0.336   4.254 -0.2189 -0.1268 -0.6261
 5632SOL     OW22293   6.083   3.352   0.297 -0.2184 -1.0889 -0.3017
 5632SOL    HW222294   6.118   3.429   0.251  1.6145 -1.9883 -0.5101
 5632SOL    HW322295   6.088   3.375   0.389  0.0423 -0.8478 -0.3729
 5632SOL    MW422296   6.088   3.365   0.303  0.0578 -1.1758 -0.3386
 5633SOL     OW22297   5.726   5.507   1.718 -0.3933 -0.4417  0.4564
 5633SOL    HW222298   5.681   5.591   1.717 -1.1534 -0.8446  0.1766
 5633SOL    HW322299   5.819   5.529   1.730 -0.6005  0.4213  0.5063
 5633SOL    MW422300   5.732   5.521   1.720 -0.5210 -0.3810  0.4261
 5634SOL     OW22301   1.721   0.826   0.399  0.1110 -0.0397  0.5994
 5634SOL    HW222302   1.791   0.811   0.462  2.1425  0.9727 -1.2902
 5634SOL    HW322303   1.651   0.867   0.450  2.3959  2.5497  1.9376
 5634SOL    MW422304   1.721   0.830   0.414  0.6805  0.4355  0.5266
 5635SOL     OW22305   6.187   1.871   4.400 -0.3716 -0.1796  0.4873
 5635SOL    HW222306   6.101   1.894   4.364 -0.8937 -2.0024  0.4496
 5635SOL    HW322307   6.243   1.945   4.379 -1.8197  0.8337  0.0751
 5635SOL    MW422308   6.183   1.884   4.393 -0.6316 -0.2864  0.4279
 5636SOL     OW22309   5.551   3.433   5.975 -0.1958 -0.1101  0.1549
 5636SOL    HW222310   5.491   3.362   5.953  0.4843 -0.3201 -1.0992
 5636SOL    HW322311   5.634   3.389   5.992  0.9152  0.4541 -3.0633
 5636SOL    MW422312   5.554   3.418   5.974  0.0405 -0.0634 -0.4352
 5637SOL     OW22313   4.876   4.150   5.920 -0.1245 -0.2141  0.4314
 5637SOL    HW222314   4.803   4.110   5.872 -0.4925 -1.5697  2.0254
 5637SOL    HW322315   4.954   4.116   5.877 -0.4255  0.3111 -0.5561
 5637SOL    MW422316   4.877   4.140   5.908 -0.2128 -0.3237  0.5114
 5638SOL     OW22317   3.778   1.016   2.574  0.3353 -0.1234  0.2280
 5638SOL    HW222318   3.745   1.095   2.532  0.8628 -0.8455 -1.6494
 5638SOL    HW322319   3.718   1.001   2.647 -0.7769  1.0723 -0.3999
 5638SOL    MW422320   3.765   1.024   2.578  0.2582 -0.0609 -0.1025
 5639SOL     OW22321   4.117   5.642   0.423  0.0037 -0.3428 -0.0111
 5639SOL    HW222322   4.138   5.646   0.516  0.3507 -1.4639 -0.0332
 5639SOL    HW322323   4.062   5.564   0.413 -0.4804  0.0670 -0.6662
 5639SOL    MW422324   4.112   5.633   0.434 -0.0144 -0.4366 -0.1004
 5640SOL     OW22325   3.031   0.327   5.025  0.2321  0.2251 -0.1954
 5640SOL    HW222326   2.939   0.327   4.998  0.4640 -0.2699 -1.0226
 5640SOL    HW322327   3.062   0.415   5.005  0.0550  0.2569 -0.3354
 5640SOL    MW422328   3.023   0.339   5.019  0.2393  0.1640 -0.3230
 5641SOL     OW22329   1.047   4.680   4.135  0.3449 -0.5938 -0.8447
 5641SOL    HW222330   1.142   4.680   4.145  0.4162  0.5181 -1.3292
 5641SOL    HW322331   1.018   4.596   4.171  1.3048 -0.1227  1.1879
 5641SOL    MW422332   1.055   4.669   4.141  0.4809 -0.3850 -0.6404
 5642SOL     OW22333   6.243   0.867   4.497 -0.6623 -0.6937 -0.1987
 5642SOL    HW222334   6.165   0.923   4.497 -0.8849 -0.9682 -1.5770
 5642SOL    HW322335   6.208   0.778   4.488 -0.2679 -1.0181  1.1765
 5642SOL    MW422336   6.228   0.863   4.496 -0.6396 -0.7727 -0.1991
 5643SOL     OW22337   5.911   4.335   2.867  0.0875 -0.1407 -0.3328
 5643SOL    HW222338   5.975   4.265   2.856  0.8112  0.4874 -0.2115
 5643SOL    HW322339   5.860   4.334   2.786 -0.0692 -0.9620 -0.2283
 5643SOL    MW422340   5.913   4.326   2.855  0.1623 -0.1662 -0.3030
 5644SOL     OW22341   6.046   0.358   0.441  0.0250  0.4747 -0.1947
 5644SOL    HW222342   6.039   0.448   0.474 -0.8476 -0.1086  1.3159
 5644SOL    HW322343   5.956   0.329   0.430  0.2648 -0.6549  0.6273
 5644SOL    MW422344   6.033   0.366   0.444 -0.0585  0.2487  0.1131
 5645SOL     OW22345   1.127   2.828   5.840  0.4083  0.3685 -0.5298
 5645SOL    HW222346   1.070   2.798   5.769  0.4769 -2.4767  0.4550
 5645SOL    HW322347   1.211   2.845   5.798 -0.0379  0.4747 -1.3959
 5645SOL    MW422348   1.130   2.826   5.825  0.3585  0.0071 -0.5141
 5646SOL     OW22349   1.244   5.542   5.909  0.1618  0.1556  0.1730
 5646SOL    HW222350   1.231   5.608   5.840 -0.0747 -1.5915 -1.5278
 5646SOL    HW322351   1.179   5.565   5.975 -2.0029 -0.0634 -1.7519
 5646SOL    MW422352   1.234   5.554   5.908 -0.1550 -0.1038 -0.3054
 5647SOL     OW22353   0.279   3.248   3.813  0.1810 -0.2257  0.4822
 5647SOL    HW222354   0.284   3.341   3.792  0.2236 -0.4544 -0.5531
 5647SOL    HW322355   0.234   3.208   3.738  1.6044 -1.2811  0.1412
 5647SOL    MW422356   0.274   3.255   3.800  0.3744 -0.3951  0.3007
 5648SOL     OW22357   6.236   0.526   1.741  0.4969 -0.0277  0.4243
 5648SOL    HW222358   6.263   0.594   1.679 -1.4681  0.1260 -0.3443
 5648SOL    HW322359   6.271   0.445   1.704 -1.8566 -0.1566 -1.8261
 5648SOL    MW422360   6.244   0.525   1.728 -0.0729 -0.0244  0.0260
 5649SOL     OW22361   2.178   0.698   0.677  0.2298 -0.2198 -0.2440
 5649SOL    HW222362   2.127   0.660   0.749 -3.5109  0.6835 -2.1396
 5649SOL    HW322363   2.228   0.625   0.641 -1.0201 -1.6163  0.7606
 5649SOL    MW422364   2.178   0.684   0.682 -0.4287 -0.2849 -0.3616
 5650SOL     OW22365   1.049   2.158   1.841  0.1465 -0.1988  0.5662
 5650SOL    HW222366   1.010   2.242   1.864  0.9778  0.5686 -0.6891
 5650SOL    HW322367   1.114   2.142   1.910 -0.5959 -0.2397  1.2701
 5650SOL    MW422368   1.053   2.167   1.853  0.1583 -0.1029  0.4935
 5651SOL     OW22369   4.836   2.336   2.906  0.0931 -0.3591  0.2691
 5651SOL    HW222370   4.891   2.411   2.887  0.8384 -1.0910 -0.5359
 5651SOL    HW322371   4.764   2.372   2.958  0.4088  0.9128 -0.1289
 5651SOL    MW422372   4.834   2.350   2.910  0.2331 -0.2879  0.1104
 5652SOL     OW22373   3.718   1.689   1.453  0.0180  0.1586 -0.0844
 5652SOL    HW222374   3.707   1.600   1.486 -0.4964  0.5590  0.8568
 5652SOL    HW322375   3.784   1.728   1.510  0.0881  0.4505 -0.3604
 5652SOL    MW422376   3.726   1.683   1.465 -0.0406  0.2499  0.0034
 5653SOL     OW22377   3.952   5.365   2.620 -0.1254 -0.3103 -0.1111
 5653SOL    HW222378   3.869   5.412   2.621  1.0902  1.9519 -0.0008
 5653SOL    HW322379   4.012   5.422   2.572  2.1942 -0.3512  2.4865
 5653SOL    MW422380   3.949   5.378   2.614  0.3410 -0.0172  0.2462
 5654SOL     OW22381   3.518   5.335   6.067 -0.2286 -0.2930  0.0923
 5654SOL    HW222382   3.548   5.426   6.076  0.3899 -0.4276 -0.4893
 5654SOL    HW322383   3.454   5.338   5.997 -0.5029 -0.2454  0.3423
 5654SOL    MW422384   3.514   5.347   6.059 -0.1832 -0.3045  0.0486
 5655SOL     OW22385   6.065   4.567   0.563 -0.1182  0.0323 -0.4240
 5655SOL    HW222386   6.006   4.596   0.632 -1.7515 -3.6812 -0.0021
 5655SOL    HW322387   6.134   4.633   0.561 -2.6611  2.9881  1.1659
 5655SOL    MW422388   6.066   4.580   0.572 -0.6692 -0.0677 -0.1586
 5656SOL     OW22389   6.284   5.396   5.133  0.2823  0.7356  0.3939
 5656SOL    HW222390   6.206   5.445   5.158 -0.0812  1.1092 -1.3065
 5656SOL    HW322391   6.280   5.315   5.183 -1.6185  0.4052 -0.2141
 5656SOL    MW422392   6.273   5.392   5.143 -0.0164  0.7413  0.0893
 5657SOL     OW22393   3.874   6.289   1.207 -0.1789  0.3920  0.3621
 5657SOL    HW222394   3.959   6.309   1.246  0.5125 -2.0800  0.2351
 5657SOL    HW322395   3.823   6.370   1.219  2.2812  2.1144  0.0355
 5657SOL    MW422396   3.878   6.303   1.214  0.2369  0.2931  0.3023
 5658SOL     OW22397   3.204   6.009   0.108 -0.2032 -0.3328  0.1567
 5658SOL    HW222398   3.147   6.053   0.170  1.1658 -0.0509  1.2622
 5658SOL    HW322399   3.289   6.006   0.151  0.4497 -1.4238 -1.1205
 5658SOL    MW422400   3.208   6.014   0.122  0.0635 -0.4395  0.1341
 5659SOL     OW22401   1.741   1.940   4.394  0.4230  0.3333 -0.3544
 5659SOL    HW222402   1.795   1.930   4.316 -0.4296 -1.1163 -0.7903
 5659SOL    HW322403   1.673   1.873   4.385  1.4447 -1.2788  2.5681
 5659SOL    MW422404   1.740   1.930   4.383  0.4453 -0.0706 -0.0263
 5660SOL     OW22405   6.263   2.578   3.982  0.1054  0.2376 -0.4804
 5660SOL    HW222406   6.195   2.564   4.047 -0.6963  1.1957 -1.0721
 5660SOL    HW322407   6.279   2.492   3.943 -1.2337  0.1046 -0.7704
 5660SOL    MW422408   6.256   2.565   3.985 -0.1771  0.3464 -0.5968
 5661SOL     OW22409   3.243   1.895   1.483 -0.0926 -0.1920  0.4636
 5661SOL    HW222410   3.284   1.809   1.490 -2.2885 -1.3074  0.4424
 5661SOL    HW322411   3.196   1.906   1.566 -0.5888  0.5803  0.0951
 5661SOL    MW422412   3.242   1.886   1.495 -0.4478 -0.2373  0.4122
 5662SOL     OW22413   2.173   6.355   0.862 -0.3221  0.2790  0.0120
 5662SOL    HW222414   2.247   6.405   0.828 -0.5225 -0.5995 -1.8267
 5662SOL    HW322415   2.213   6.279   0.905 -0.1090  0.8749  0.9062
 5662SOL    MW422416   2.188   6.352   0.863 -0.3204  0.2417 -0.1126
 5663SOL     OW22417   6.138   5.956   4.911  0.2150  0.3018 -0.4915
 5663SOL    HW222418   6.073   6.026   4.906  0.3237  0.4942  0.5745
 5663SOL    HW322419   6.140   5.931   5.003  1.6990  0.3498 -0.4787
 5663SOL    MW422420   6.130   5.962   4.923  0.4251  0.3335 -0.3492
 5664SOL     OW22421   0.741   2.219   3.352  0.1520  0.1182  0.0124
 5664SOL    HW222422   0.648   2.200   3.339  0.2479 -0.0102 -0.5205
 5664SOL    HW322423   0.761   2.286   3.287  0.1590  1.0148  0.9177
 5664SOL    MW422424   0.731   2.225   3.342  0.1656  0.2196  0.0616
 5665SOL     OW22425   0.726   0.984   3.750 -0.3140  0.0857 -0.4703
 5665SOL    HW222426   0.746   1.030   3.832 -1.0666  0.0914 -0.2848
 5665SOL    HW322427   0.752   0.894   3.766 -0.6785  0.0384 -0.1392
 5665SOL    MW422428   0.732   0.978   3.763 -0.4614  0.0802 -0.4022
 5666SOL     OW22429   2.774   3.863   3.595  0.6057  0.2490 -0.7243
 5666SOL    HW222430   2.785   3.948   3.552  1.0453  0.2197 -0.6772
 5666SOL    HW322431   2.790   3.880   3.688 -0.2120  0.2867 -0.5849
 5666SOL    MW422432   2.778   3.876   3.602  0.5559  0.2501 -0.6997
 5667SOL     OW22433   4.538   1.421   2.467 -0.5114  0.0347  0.3095
 5667SOL    HW222434   4.442   1.419   2.461 -0.4552  0.7598 -1.2065
 5667SOL    HW322435   4.561   1.337   2.507 -1.8486  0.5045  2.2057
 5667SOL    MW422436   4.528   1.410   2.472 -0.6804  0.1924  0.3597
 5668SOL     OW22437   1.760   1.795   2.691  0.0457  0.3811  0.0832
 5668SOL    HW222438   1.749   1.854   2.617 -0.6871  1.9313  1.3734
 5668SOL    HW322439   1.854   1.793   2.707  0.2616 -0.3032 -1.1008
 5668SOL    MW422440   1.771   1.802   2.683 -0.0225  0.4954  0.0972
 5669SOL     OW22441   2.410   2.576   2.534  0.1001 -0.5079 -0.4417
 5669SOL    HW222442   2.373   2.489   2.546  0.9069 -0.8475 -0.3328
 5669SOL    HW322443   2.498   2.570   2.571  0.1400  0.3758 -0.3622
 5669SOL    MW422444   2.417   2.564   2.541  0.2118 -0.4362 -0.4168
 5670SOL     OW22445   0.763   5.430   3.525  0.9960  0.0458 -0.6431
 5670SOL    HW222446   0.856   5.410   3.536  1.3755  2.2049  0.6020
 5670SOL    HW322447   0.720   5.344   3.524  2.8872 -0.9639 -0.2130
 5670SOL    MW422448   0.770   5.416   3.526  1.2956  0.1974 -0.4221
 5671SOL     OW22449   0.005   2.295   1.233  0.1098  0.2675 -0.4083
 5671SOL    HW222450   0.093   2.261   1.246  0.2298  0.8252  0.3709
 5671SOL    HW322451  -0.043   2.224   1.192  0.6222 -0.4656  0.2343
 5671SOL    MW422452   0.010   2.281   1.230  0.1932  0.2443 -0.2207
 5672SOL     OW22453   4.843   0.031   4.640 -0.0528 -0.6576 -0.1960
 5672SOL    HW222454   4.750   0.018   4.658 -0.2104  0.6485 -0.0371
 5672SOL    HW322455   4.845   0.085   4.561  0.5866 -0.9104 -0.3623
 5672SOL    MW422456   4.831   0.036   4.632  0.0107 -0.5186 -0.1970
 5673SOL     OW22457   2.931   1.578   2.811 -0.6603 -0.0180  0.1972
 5673SOL    HW222458   2.860   1.615   2.864 -0.5156  0.6294 -0.0543
 5673SOL    HW322459   3.008   1.582   2.868 -0.4036  1.1001 -0.1977
 5673SOL    MW422460   2.932   1.583   2.825 -0.6073  0.2149  0.1119
 5674SOL     OW22461   1.628   0.213   1.118 -0.3825  0.0685  0.3229
 5674SOL    HW222462   1.637   0.130   1.165  1.4935  0.6308  1.0242
 5674SOL    HW322463   1.714   0.227   1.077 -0.9914  1.1676 -0.6369
 5674SOL    MW422464   1.641   0.204   1.119 -0.2153  0.2877  0.2888
 5675SOL     OW22465   1.243   5.596   2.992 -0.1845  0.2399 -0.2154
 5675SOL    HW222466   1.227   5.662   3.060  1.4435 -0.5996  1.0697
 5675SOL    HW322467   1.334   5.609   2.967 -0.0311 -1.0823 -0.4069
 5675SOL    MW422468   1.253   5.607   2.998  0.0505 -0.0453 -0.0711
 5676SOL     OW22469   3.702   5.589   3.477 -0.1455  0.3250  0.2130
 5676SOL    HW222470   3.634   5.535   3.436  1.9829 -1.3374 -1.2964
 5676SOL    HW322471   3.738   5.535   3.547  1.9031 -0.2377 -1.2125
 5676SOL    MW422472   3.698   5.575   3.481  0.4056  0.0314 -0.1742
 5677SOL     OW22473   3.702   2.533   3.313 -0.2997 -0.6381 -0.3234
 5677SOL    HW222474   3.665   2.529   3.402  2.1945  1.1098  0.9001
 5677SOL    HW322475   3.675   2.618   3.279  1.4866  0.1471  0.1292
 5677SOL    MW422476   3.693   2.543   3.320  0.2651 -0.3039 -0.1023
 5678SOL     OW22477   0.609   4.295   4.678  0.2700  0.0062  0.4062
 5678SOL    HW222478   0.611   4.200   4.679 -0.3255 -0.0447 -0.6522
 5678SOL    HW322479   0.700   4.322   4.671  0.4758 -0.4602  1.1947
 5678SOL    MW422480   0.621   4.286   4.677  0.2186 -0.0621  0.3706
 5679SOL     OW22481   5.025   4.182   2.801 -0.0101  0.2786  0.7277
 5679SOL    HW222482   5.092   4.249   2.791 -0.5068  0.6123 -0.4197
 5679SOL    HW322483   4.951   4.213   2.749 -0.7624 -0.4875  1.3073
 5679SOL    MW422484   5.024   4.195   2.793 -0.1749  0.2215  0.6528
 5680SOL     OW22485   1.098   4.736   4.426 -0.1823 -0.0383 -0.5362
 5680SOL    HW222486   1.026   4.780   4.469  1.1992  2.6005 -0.6978
 5680SOL    HW322487   1.065   4.716   4.338 -0.0347  3.4846 -1.5207
 5680SOL    MW422488   1.084   4.739   4.420  0.0195  0.7747 -0.6874
 5681SOL     OW22489   4.388   3.364   4.999  0.5551  0.7381 -0.3197
 5681SOL    HW222490   4.391   3.459   5.006 -0.1147  0.8944 -1.7981
 5681SOL    HW322491   4.300   3.345   4.966  0.5315 -0.4340  0.3677
 5681SOL    MW422492   4.377   3.374   4.995  0.4636  0.6041 -0.4240
 5682SOL     OW22493   3.672   4.455   3.982  0.2079 -0.3763  0.1860
 5682SOL    HW222494   3.734   4.436   4.052  1.8886 -1.9147 -1.6029
 5682SOL    HW322495   3.622   4.531   4.014  0.9834 -0.9044  2.9240
 5682SOL    MW422496   3.673   4.463   3.996  0.5319 -0.6490  0.3112
 5683SOL     OW22497   3.614   1.052   1.051  0.2341 -0.0132  0.5864
 5683SOL    HW222498   3.574   0.968   1.076 -1.4564  0.1244 -1.3720
 5683SOL    HW322499   3.552   1.117   1.083  0.5127  0.3823  0.3212
 5683SOL    MW422500   3.600   1.049   1.059  0.0478  0.0572  0.2931
 5684SOL     OW22501   4.540   5.645   0.416  0.2926  0.5913  0.2575
 5684SOL    HW222502   4.586   5.599   0.346 -0.1695  0.0189  0.3188
 5684SOL    HW322503   4.600   5.643   0.491  0.9417  1.5335 -0.2203
 5684SOL    MW422504   4.554   5.639   0.417  0.3173  0.6401  0.2025
 5685SOL     OW22505   5.738   0.373   5.709 -0.2961  0.3405  0.8801
 5685SOL    HW222506   5.741   0.435   5.637  1.6665 -0.0952  0.5364
 5685SOL    HW322507   5.765   0.290   5.670  2.4925  0.4393  2.3810
 5685SOL    MW422508   5.742   0.370   5.695  0.3307  0.2961  1.0328
 5686SOL     OW22509   3.398   3.338   5.300  0.1343 -0.0560  0.1578
 5686SOL    HW222510   3.335   3.288   5.248 -1.9853  2.3113  0.2887
 5686SOL    HW322511   3.481   3.327   5.254 -0.5629 -2.2740 -0.7251
 5686SOL    MW422512   3.400   3.330   5.287 -0.2373 -0.0363  0.0586
 5687SOL     OW22513   3.322   4.080   1.394  0.0148 -0.1075  0.1427
 5687SOL    HW222514   3.337   3.986   1.386 -1.2587 -0.5478  2.2092
 5687SOL    HW322515   3.282   4.106   1.311  0.3727 -1.3875 -0.4431
 5687SOL    MW422516   3.319   4.071   1.382 -0.1060 -0.3345  0.3381
 5688SOL     OW22517   5.479   1.032   2.865 -0.1451 -0.3458 -0.0778
 5688SOL    HW222518   5.546   0.996   2.923 -0.2834 -1.1897 -0.4177
 5688SOL    HW322519   5.413   1.069   2.924 -0.1277 -0.8989  0.3016
 5688SOL    MW422520   5.479   1.032   2.880 -0.1611 -0.5301 -0.0726
 5689SOL     OW22521   3.320   3.603   5.293 -0.1517  0.2752 -0.2598
 5689SOL    HW222522   3.392   3.652   5.333  0.0208 -0.3461  0.2060
 5689SOL    HW322523   3.337   3.512   5.316 -0.0163 -0.1140 -1.8135
 5689SOL    MW422524   3.332   3.598   5.301 -0.1111  0.1419 -0.4033
 5690SOL     OW22525   4.083   4.051   1.570 -0.6135  0.4180 -0.1091
 5690SOL    HW222526   4.101   4.085   1.482  1.2912 -1.9696 -0.7746
 5690SOL    HW322527   4.066   4.129   1.623 -1.4259  1.9608 -2.4787
 5690SOL    MW422528   4.083   4.066   1.566 -0.4694  0.3065 -0.5096
 5691SOL     OW22529   2.365   5.696   3.512  0.1192  0.3295 -0.2990
 5691SOL    HW222530   2.342   5.674   3.421 -0.6604  2.1407 -0.5826
 5691SOL    HW322531   2.458   5.715   3.509  0.1788 -0.0012 -0.6477
 5691SOL    MW422532   2.374   5.696   3.500  0.0242  0.5248 -0.3824
 5692SOL     OW22533   5.024   5.115   5.468  0.2346  0.1471 -0.2117
 5692SOL    HW222534   4.960   5.088   5.402  0.2947 -1.3962  0.3089
 5692SOL    HW322535   5.093   5.049   5.462  0.6402  0.4539  0.8315
 5692SOL    MW422536   5.025   5.103   5.458  0.2960 -0.0161 -0.0053
 5693SOL     OW22537   1.797   2.805   4.064  0.1998  0.8006  0.3150
 5693SOL    HW222538   1.723   2.773   4.012  1.2376  0.4795 -1.0138
 5693SOL    HW322539   1.840   2.869   4.008 -0.3257  2.6686  1.9351
 5693SOL    MW422540   1.793   2.809   4.050  0.2674  1.0047  0.3535
 5694SOL     OW22541   3.956   6.004   5.674  0.3079 -0.1263 -0.3746
 5694SOL    HW222542   3.953   6.100   5.675 -0.9537 -0.1559 -0.5220
 5694SOL    HW322543   3.933   5.979   5.763  2.4729 -0.2799  0.1941
 5694SOL    MW422544   3.953   6.014   5.686  0.4271 -0.1504 -0.3190
 5695SOL     OW22545   2.206   4.133  -0.026  0.1080  0.4723  0.7740
 5695SOL    HW222546   2.125   4.142   0.024 -1.3819 -1.7173 -1.0365
 5695SOL    HW322547   2.187   4.176  -0.110  0.7731 -0.1651  0.2917
 5695SOL    MW422548   2.193   4.140  -0.030 -0.0008  0.0993  0.4715
 5696SOL     OW22549   5.019   1.145   2.094  0.5017  0.0085 -0.3547
 5696SOL    HW222550   4.938   1.120   2.048  0.6129  0.6505 -0.9245
 5696SOL    HW322551   5.059   1.062   2.120 -1.1225 -0.3245  1.3500
 5696SOL    MW422552   5.013   1.131   2.092  0.3020  0.0492 -0.2050
 5697SOL     OW22553   2.353   2.846   3.152  0.2911 -0.4766 -0.1997
 5697SOL    HW222554   2.332   2.777   3.089  0.0019  0.5426 -1.2595
 5697SOL    HW322555   2.448   2.855   3.145 -0.0184  2.1190 -3.3141
 5697SOL    MW422556   2.363   2.838   3.143  0.2121  0.0004 -0.7504
 5698SOL     OW22557   4.959   0.478   0.153  0.0456  0.1585  0.0244
 5698SOL    HW222558   4.925   0.532   0.224  0.4209  1.9240 -1.0490
 5698SOL    HW322559   4.894   0.409   0.140  0.4823 -0.8622  2.7233
 5698SOL    MW422560   4.946   0.476   0.160  0.1527  0.2568  0.2389
 5699SOL     OW22561   4.367   3.524  -0.031  0.2139  0.4871  0.5564
 5699SOL    HW222562   4.276   3.545  -0.050  0.1242  0.4204  0.9205
 5699SOL    HW322563   4.370   3.428  -0.032  0.6218  0.4849 -1.1082
 5699SOL    MW422564   4.356   3.514  -0.034  0.2559  0.4780  0.3848
 5700SOL     OW22565   4.075   2.393   0.242  0.0113  0.1090  0.3997
 5700SOL    HW222566   4.003   2.446   0.278  1.4445  2.9817 -0.6167
 5700SOL    HW322567   4.133   2.378   0.317  0.2891  1.2821  0.4398
 5700SOL    MW422568   4.073   2.398   0.257  0.2370  0.6428  0.2709
 5701SOL     OW22569   4.402   4.316   1.778 -0.1602 -0.5007  0.1302
 5701SOL    HW222570   4.410   4.259   1.702  1.5178 -0.5346  0.3077
 5701SOL    HW322571   4.422   4.260   1.853 -0.4781 -0.1415  0.4918
 5701SOL    MW422572   4.405   4.301   1.778  0.0192 -0.4578  0.2013
 5702SOL     OW22573   4.109   2.729   3.200 -0.0694 -0.0487 -0.1113
 5702SOL    HW222574   4.196   2.761   3.178 -0.0416 -0.0172  0.0410
 5702SOL    HW322575   4.111   2.716   3.295 -0.0958 -0.4550 -0.1635
 5702SOL    MW422576   4.120   2.732   3.210 -0.0692 -0.0982 -0.0981
 5703SOL     OW22577   0.029   2.756   1.721  0.8938 -0.2839  0.2838
 5703SOL    HW222578   0.051   2.835   1.672  1.4362 -1.2844 -1.1770
 5703SOL    HW322579   0.019   2.689   1.654  0.2251 -1.4140  1.4691
 5703SOL    MW422580   0.031   2.758   1.706  0.8771 -0.5650  0.2474
 5704SOL     OW22581   5.378   1.182   5.130 -0.2978  0.1929 -0.1875
 5704SOL    HW222582   5.461   1.159   5.090  0.2471  0.4200  0.7990
 5704SOL    HW322583   5.364   1.274   5.106 -0.3371  0.1201 -0.4528
 5704SOL    MW422584   5.387   1.191   5.121 -0.2311  0.2133 -0.0924
 5705SOL     OW22585   2.533   1.301   3.481  0.2096  0.0705  0.0917
 5705SOL    HW222586   2.621   1.337   3.493  0.4573  0.3186 -2.1639
 5705SOL    HW322587   2.520   1.246   3.559  1.0845  2.4293  2.0429
 5705SOL    MW422588   2.543   1.298   3.493  0.3577  0.4145  0.0515
 5706SOL     OW22589   0.673   2.044   3.591 -0.7496 -0.4214 -0.0578
 5706SOL    HW222590   0.634   2.090   3.665  0.9097 -0.6561  1.0217
 5706SOL    HW322591   0.678   2.110   3.522  3.4250  1.8735  2.0766
 5706SOL    MW422592   0.669   2.059   3.591  0.0201 -0.1496  0.3662
 5707SOL     OW22593   5.243   0.321   5.311  0.4489 -0.0739  0.4434
 5707SOL    HW222594   5.289   0.337   5.394  1.9076  0.8094 -0.4841
 5707SOL    HW322595   5.173   0.261   5.334  1.3672 -0.5680  2.1612
 5707SOL    MW422596   5.240   0.316   5.325  0.7625 -0.0226  0.5477
 5708SOL     OW22597   3.457   2.301   5.547  0.5558  0.0014 -0.4096
 5708SOL    HW222598   3.435   2.214   5.515 -0.4679 -0.1445  0.6320
 5708SOL    HW322599   3.529   2.330   5.491 -0.1984 -0.8167 -1.8490
 5708SOL    MW422600   3.464   2.294   5.536  0.3213 -0.1258 -0.4621
 5709SOL     OW22601   1.240   2.311   1.602  0.2711  0.0052 -0.3645
 5709SOL    HW222602   1.169   2.257   1.639  2.1022 -1.5953  1.0021
 5709SOL    HW322603   1.211   2.329   1.513 -1.9170 -0.4724  0.1830
 5709SOL    MW422604   1.227   2.306   1.595  0.2240 -0.2689 -0.1119
 5710SOL     OW22605   5.539   5.463   6.073  0.3428 -0.2851  0.1316
 5710SOL    HW222606   5.588   5.475   5.991  0.0876 -0.5655 -0.0645
 5710SOL    HW322607   5.557   5.542   6.123  1.7476 -0.7824  0.4596
 5710SOL    MW422608   5.548   5.475   6.069  0.4945 -0.3877  0.1490
 5711SOL     OW22609   5.472   4.810   4.554  0.1065  0.4894  0.7095
 5711SOL    HW222610   5.460   4.722   4.590  0.2332  0.3710  0.4720
 5711SOL    HW322611   5.411   4.814   4.480  1.4757 -0.1263 -0.5218
 5711SOL    MW422612   5.462   4.799   4.549  0.3038  0.3925  0.5157
 5712SOL     OW22613   5.178   1.831   2.226 -0.3044  0.2869 -0.1530
 5712SOL    HW222614   5.265   1.850   2.191  0.6794  0.1147  2.0124
 5712SOL    HW322615   5.147   1.914   2.262 -0.7670  0.2141 -0.3728
 5712SOL    MW422616   5.185   1.844   2.226 -0.2357  0.2545  0.1037
 5713SOL     OW22617   4.339   0.465   4.610  0.0756  0.6463 -0.5017
 5713SOL    HW222618   4.275   0.395   4.592  0.7456  0.1493 -0.9900
 5713SOL    HW322619   4.422   0.419   4.625  0.2990  1.2753  0.3059
 5713SOL    MW422620   4.341   0.449   4.610  0.1934  0.6637 -0.4595
 5714SOL     OW22621   5.626   3.139   1.619 -0.3631  0.3123 -0.0783
 5714SOL    HW222622   5.553   3.100   1.570  0.2778 -0.1167 -0.7027
 5714SOL    HW322623   5.590   3.220   1.655 -1.0169  0.3434 -0.7777
 5714SOL    MW422624   5.611   3.145   1.617 -0.3648  0.2598 -0.2529
 5715SOL     OW22625   0.699   0.140   2.726 -0.0728 -0.3228 -0.1585
 5715SOL    HW222626   0.670   0.224   2.690 -1.8528 -0.4830  0.7273
 5715SOL    HW322627   0.779   0.160   2.774 -0.6808  0.9946  0.3663
 5715SOL    MW422628   0.706   0.154   2.728 -0.3878 -0.1701  0.0276
 5716SOL     OW22629   6.091   3.409   3.139 -0.0792  0.1683 -0.0120
 5716SOL    HW222630   6.087   3.341   3.206  2.3574 -0.0103  0.0369
 5716SOL    HW322631   6.063   3.365   3.059 -2.4529  0.2296  0.7233
 5716SOL    MW422632   6.087   3.394   3.138 -0.0709  0.1528  0.0914
 5717SOL     OW22633   4.724   5.025   5.562  0.2256 -0.0728 -0.8704
 5717SOL    HW222634   4.756   4.935   5.561 -0.5804 -0.3809 -0.0852
 5717SOL    HW322635   4.656   5.027   5.495  1.1808  0.3348 -1.8658
 5717SOL    MW422636   4.719   5.013   5.553  0.2453 -0.0597 -0.8981
 5718SOL     OW22637   4.809   3.048   3.650 -0.1153  0.1603  0.1577
 5718SOL    HW222638   4.813   2.964   3.604  1.5226  0.5207 -0.4078
 5718SOL    HW322639   4.719   3.054   3.681 -0.7956 -0.9182 -1.4764
 5718SOL    MW422640   4.798   3.038   3.648  0.0111  0.0655 -0.1325
 5719SOL     OW22641   1.394   1.458   2.615  0.3680  0.1894  0.0582
 5719SOL    HW222642   1.380   1.533   2.558  0.2804  0.6735  0.7035
 5719SOL    HW322643   1.487   1.461   2.637  0.9095 -1.2323 -1.7355
 5719SOL    MW422644   1.404   1.468   2.610  0.4279  0.0657 -0.0933
 5720SOL     OW22645   3.766   1.929   4.427  0.1115  0.1205  0.2116
 5720SOL    HW222646   3.758   2.024   4.423 -1.1632  0.0059 -0.2106
 5720SOL    HW322647   3.850   1.911   4.384 -0.9636  0.8731 -2.3883
 5720SOL    MW422648   3.776   1.939   4.421 -0.1986  0.2047 -0.1871
 5721SOL     OW22649   0.752   6.095   5.625  0.2761  0.0053 -0.0032
 5721SOL    HW222650   0.752   6.124   5.716  3.0269  1.0270 -0.2359
 5721SOL    HW322651   0.725   6.172   5.575 -0.1947 -0.2386 -0.1281
 5721SOL    MW422652   0.749   6.109   5.630  0.5769  0.1079 -0.0504
 5722SOL     OW22653   2.178   1.260   3.215 -0.3295  0.6469 -0.1533
 5722SOL    HW222654   2.154   1.177   3.255 -1.7862  0.4030 -1.4287
 5722SOL    HW322655   2.274   1.258   3.210 -0.3752 -1.4653 -1.1614
 5722SOL    MW422656   2.188   1.249   3.219 -0.5277  0.3360 -0.4546
 5723SOL     OW22657   4.907   4.123   5.555 -0.0579  0.2844 -0.0488
 5723SOL    HW222658   4.896   4.127   5.460 -0.3614  0.1046 -0.0233
 5723SOL    HW322659   4.909   4.215   5.582 -0.1675  0.3358 -0.2109
 5723SOL    MW422660   4.906   4.136   5.546 -0.1124  0.2674 -0.0668
 5724SOL     OW22661   5.230   4.648   0.252 -0.0150  0.7507  0.2226
 5724SOL    HW222662   5.274   4.704   0.188  1.0585  0.8297  0.9794
 5724SOL    HW322663   5.302   4.611   0.304 -0.7450 -0.7815  0.1908
 5724SOL    MW422664   5.246   4.650   0.251  0.0303  0.5590  0.3182
 5725SOL     OW22665   4.132   1.529   3.341 -0.2175  0.4573 -0.7913
 5725SOL    HW222666   4.052   1.506   3.387  0.4150  2.1950  1.3461
 5725SOL    HW322667   4.118   1.619   3.313 -0.1779 -0.2257 -3.2417
 5725SOL    MW422668   4.120   1.538   3.343 -0.1288  0.5965 -0.8326
 5726SOL     OW22669   1.359   4.432   2.231  0.1939  0.2702 -0.0802
 5726SOL    HW222670   1.358   4.336   2.224  1.4208  0.2858 -0.7218
 5726SOL    HW322671   1.270   4.455   2.259  0.1530 -1.1163  1.0255
 5726SOL    MW422672   1.347   4.422   2.234  0.3504  0.0893 -0.0190
 5727SOL     OW22673   0.993   6.239   0.467  0.5792  0.6306 -0.4606
 5727SOL    HW222674   1.030   6.316   0.424  1.7124  1.4900  1.8881
 5727SOL    HW322675   0.903   6.264   0.489  0.9505  1.3382  0.3158
 5727SOL    MW422676   0.986   6.253   0.464  0.7777  0.8373 -0.0483
 5728SOL     OW22677   1.456   3.625   4.048 -0.1777 -0.1668 -0.6941
 5728SOL    HW222678   1.435   3.536   4.020 -0.9591 -1.0819  2.3682
 5728SOL    HW322679   1.422   3.630   4.138  3.3957  1.8290  0.7690
 5728SOL    MW422680   1.449   3.614   4.056  0.1907 -0.0242 -0.0970
 5729SOL     OW22681   3.134   5.533   2.137  0.0995 -0.1927  0.3473
 5729SOL    HW222682   3.147   5.527   2.042  1.1336 -0.4483  0.4955
 5729SOL    HW322683   3.147   5.444   2.169  1.2672  0.1433  0.8916
 5729SOL    MW422684   3.138   5.521   2.129  0.3900 -0.1821  0.4387
 5730SOL     OW22685   5.958   6.398   3.283 -0.5284  0.4863  0.6770
 5730SOL    HW222686   5.877   6.377   3.330 -0.6974  0.0045  0.1729
 5730SOL    HW322687   6.028   6.379   3.345 -0.5539 -3.0648 -0.1928
 5730SOL    MW422688   5.956   6.393   3.297 -0.5540 -0.0458  0.4957
 5731SOL     OW22689   0.334   3.741   2.263 -0.0746 -0.5080 -0.0476
 5731SOL    HW222690   0.326   3.829   2.300 -0.8879 -0.5031 -0.2165
 5731SOL    HW322691   0.428   3.725   2.260  0.1415  0.7026 -0.8019
 5731SOL    MW422692   0.345   3.751   2.267 -0.1534 -0.3476 -0.1694
 5732SOL     OW22693   0.921   1.547   4.969 -0.2954  0.1721 -0.3203
 5732SOL    HW222694   0.978   1.482   5.009  2.1025  0.5220 -2.8405
 5732SOL    HW322695   0.849   1.496   4.931 -0.3610 -0.5702  0.7664
 5732SOL    MW422696   0.919   1.532   4.969  0.0123  0.1203 -0.5094
 5733SOL     OW22697   5.112   1.690   1.441  0.0628  0.1260  0.3251
 5733SOL    HW222698   5.064   1.761   1.400 -2.4665 -0.9190  1.2405
 5733SOL    HW322699   5.081   1.689   1.532  0.2770 -1.8894  0.4307
 5733SOL    MW422700   5.102   1.699   1.448 -0.2427 -0.2778  0.4598
 5734SOL     OW22701   5.821   3.676   2.985  0.3679 -0.4700  0.3549
 5734SOL    HW222702   5.750   3.736   3.010  1.3020  0.8938 -0.1488
 5734SOL    HW322703   5.891   3.734   2.952  0.9690 -1.8999 -0.9992
 5734SOL    MW422704   5.821   3.692   2.984  0.5704 -0.4787  0.1098
 5735SOL     OW22705   0.815   5.047   5.157  0.0901 -0.4746 -0.2059
 5735SOL    HW222706   0.785   4.963   5.192  0.8762 -0.8902 -0.5058
 5735SOL    HW322707   0.776   5.052   5.069  0.1230 -0.5743 -0.2261
 5735SOL    MW422708   0.806   5.037   5.150  0.1982 -0.5426 -0.2481
 5736SOL     OW22709   6.047   4.598   3.592  0.3337 -0.0699 -0.2072
 5736SOL    HW222710   6.076   4.630   3.677  0.1419 -2.4030  0.7871
 5736SOL    HW322711   6.128   4.583   3.543  0.4527  1.0103 -0.3603
 5736SOL    MW422712   6.062   4.600   3.597  0.3241 -0.2352 -0.0962
 5737SOL     OW22713   4.277   1.388   5.279  0.6043  0.8765  0.0592
 5737SOL    HW222714   4.316   1.391   5.366  0.8490  0.3203 -0.0275
 5737SOL    HW322715   4.256   1.296   5.265  0.6366  0.9476 -0.4998
 5737SOL    MW422716   4.279   1.376   5.289  0.6408  0.8125 -0.0260
 5738SOL     OW22717   5.524   3.329   2.737 -0.2216 -0.2658 -0.0148
 5738SOL    HW222718   5.580   3.259   2.702  0.6675  0.8595 -0.9599
 5738SOL    HW322719   5.583   3.381   2.791 -0.8911 -0.2749  0.7283
 5738SOL    MW422720   5.539   3.327   2.739 -0.1926 -0.1185 -0.0415
 5739SOL     OW22721   1.463   5.096   4.674  0.1706  0.0801 -0.3458
 5739SOL    HW222722   1.383   5.056   4.640  0.4936 -0.7694 -0.1324
 5739SOL    HW322723   1.433   5.150   4.747 -0.2195 -0.1613 -0.3210
 5739SOL    MW422724   1.448   5.097   4.679  0.1618 -0.0639 -0.3144
 5740SOL     OW22725   1.527   3.325   2.332  0.2434 -0.1526  0.1158
 5740SOL    HW222726   1.554   3.367   2.413 -0.7771  2.3152 -0.7373
 5740SOL    HW322727   1.432   3.313   2.341  0.0720  0.4244 -0.7938
 5740SOL    MW422728   1.518   3.329   2.344  0.0861  0.2491 -0.1167
 5741SOL     OW22729   1.085   5.340   5.074 -0.1035  0.3643 -0.3311
 5741SOL    HW222730   1.131   5.306   5.151 -2.7736  1.1935  1.7547
 5741SOL    HW322731   1.111   5.432   5.069  0.8713  0.0699 -1.1210
 5741SOL    MW422732   1.095   5.348   5.084 -0.3272  0.4348 -0.1601
 5742SOL     OW22733   2.314   0.760   3.968 -1.0331  0.5953  0.1489
 5742SOL    HW222734   2.357   0.775   3.884 -3.0103 -0.8080 -1.2025
 5742SOL    HW322735   2.384   0.729   4.025  0.2110  0.7730 -1.2217
 5742SOL    MW422736   2.329   0.758   3.965 -1.1298  0.4336 -0.2102
 5743SOL     OW22737   3.541   3.375   3.233  0.4830  1.2092 -0.2240
 5743SOL    HW222738   3.601   3.392   3.160 -1.2599 -0.1674 -2.0966
 5743SOL    HW322739   3.564   3.286   3.263 -2.2623 -0.5984 -2.8848
 5743SOL    MW422740   3.552   3.365   3.228 -0.1092  0.7891 -0.8221
 5744SOL     OW22741   4.810   2.766   3.591 -0.1443  0.7324  0.1045
 5744SOL    HW222742   4.728   2.725   3.617  1.1397 -1.5295  0.7916
 5744SOL    HW322743   4.810   2.762   3.496 -0.4301 -0.0823  0.1351
 5744SOL    MW422744   4.799   2.760   3.582 -0.0126  0.3265  0.1992
 5745SOL     OW22745   2.163   4.179   6.117  0.1032 -0.6457  0.3778
 5745SOL    HW222746   2.184   4.267   6.083  1.0068 -0.9154  0.1953
 5745SOL    HW322747   2.224   4.121   6.071 -1.3546 -1.5675 -0.4985
 5745SOL    MW422748   2.174   4.183   6.106  0.0301 -0.8029  0.2381
 5746SOL     OW22749   2.074   6.309   3.316 -0.3369 -0.6103  0.1620
 5746SOL    HW222750   2.122   6.283   3.238 -0.6609 -1.4951  0.2435
 5746SOL    HW322751   2.088   6.403   3.323  0.8163 -0.7436 -0.1993
 5746SOL    MW422752   2.082   6.318   3.307 -0.2275 -0.7446  0.1251
 5747SOL     OW22753   2.244   3.774   0.249 -0.3673 -0.0785  0.5652
 5747SOL    HW222754   2.195   3.718   0.189 -0.6926  1.0668 -0.2736
 5747SOL    HW322755   2.305   3.821   0.193  0.7838 -0.5057  1.4256
 5747SOL    MW422756   2.246   3.773   0.234 -0.2583  0.0162  0.5681
 5748SOL     OW22757   1.794   1.620   0.319 -0.1736 -0.3211 -0.2416
 5748SOL    HW222758   1.803   1.620   0.414  0.5982  0.1986 -0.2998
 5748SOL    HW322759   1.800   1.527   0.295 -1.9698 -0.6096  0.3259
 5748SOL    MW422760   1.796   1.607   0.328 -0.3088 -0.2906 -0.1744
 5749SOL     OW22761   5.936   5.482   3.657 -0.0224 -0.0128 -0.4799
 5749SOL    HW222762   5.937   5.463   3.563  0.1980 -0.3480 -0.4120
 5749SOL    HW322763   6.020   5.447   3.689  0.2314  0.7613 -0.2886
 5749SOL    MW422764   5.948   5.475   3.648  0.0402  0.0451 -0.4457
 5750SOL     OW22765   4.690   5.216   0.342 -0.2447  0.0152 -0.0235
 5750SOL    HW222766   4.687   5.175   0.429  0.1787 -0.5828 -0.2818
 5750SOL    HW322767   4.615   5.181   0.296  1.0416 -1.8540 -0.8234
 5750SOL    MW422768   4.680   5.206   0.348 -0.0192 -0.3103 -0.1631
 5751SOL     OW22769   3.572   2.543   4.094  0.1506 -0.3125  0.2169
 5751SOL    HW222770   3.601   2.452   4.094  0.6334 -0.1694  0.6817
 5751SOL    HW322771   3.636   2.589   4.039 -1.2035 -0.5625 -1.6589
 5751SOL    MW422772   3.585   2.537   4.087  0.0356 -0.3266  0.0307
 5752SOL     OW22773   3.798   3.188   3.821  0.1101 -0.2565 -0.2333
 5752SOL    HW222774   3.826   3.101   3.792 -5.0706 -2.1922 -0.3486
 5752SOL    HW322775   3.770   3.176   3.911  1.2612  1.9536  0.5172
 5752SOL    MW422776   3.798   3.175   3.829 -0.4215 -0.2203 -0.1495
 5753SOL     OW22777   1.494   1.541   5.860  0.0669 -0.1030 -0.6391
 5753SOL    HW222778   1.528   1.628   5.882 -0.3348 -0.3231  0.9387
 5753SOL    HW322779   1.571   1.493   5.829  0.5961  0.3461 -0.0498
 5753SOL    MW422780   1.509   1.546   5.859  0.0837 -0.0728 -0.3531
 5754SOL     OW22781   2.260   5.396   3.768 -0.0966  0.1492  0.0961
 5754SOL    HW222782   2.335   5.456   3.762  0.0398 -0.0950 -0.7549
 5754SOL    HW322783   2.252   5.359   3.680 -1.5479  0.5686  0.0168
 5754SOL    MW422784   2.269   5.399   3.756 -0.2701  0.1724 -0.0266
 5755SOL     OW22785   1.994   1.633   3.076  0.5192 -0.1039 -0.1558
 5755SOL    HW222786   1.925   1.698   3.059  0.1876 -0.4184 -0.0076
 5755SOL    HW322787   2.003   1.586   2.993 -0.9099 -1.4565  0.4120
 5755SOL    MW422788   1.986   1.636   3.063  0.2869 -0.3239 -0.0613
 5756SOL     OW22789   1.281   0.795   1.647 -0.4781  0.7292  0.3012
 5756SOL    HW222790   1.346   0.734   1.612 -2.0319  0.4498 -2.4166
 5756SOL    HW322791   1.322   0.881   1.639  0.0660  0.4339 -0.1389
 5756SOL    MW422792   1.295   0.798   1.641 -0.6113  0.6534 -0.1154
 5757SOL     OW22793   3.229   3.806   1.815  0.4105 -0.2141  0.1256
 5757SOL    HW222794   3.306   3.748   1.817 -0.9798 -2.1504  1.1284
 5757SOL    HW322795   3.230   3.844   1.727  2.7586  0.2102  0.2704
 5757SOL    MW422796   3.239   3.803   1.804  0.5369 -0.4136  0.2770
 5758SOL     OW22797   1.789   4.222   2.460 -0.7469 -0.0816 -0.2997
 5758SOL    HW222798   1.740   4.169   2.523  0.2995 -0.7075  0.0182
 5758SOL    HW322799   1.729   4.293   2.437 -2.1721 -1.3456 -0.6839
 5758SOL    MW422800   1.775   4.224   2.465 -0.7969 -0.3310 -0.3084
 5759SOL     OW22801   4.492   4.125   3.416  0.3082  0.4357  0.8466
 5759SOL    HW222802   4.400   4.152   3.423  0.0051  0.0470 -1.1233
 5759SOL    HW322803   4.531   4.188   3.355  0.4048 -1.4967 -1.2149
 5759SOL    MW422804   4.485   4.137   3.409  0.2809  0.1294  0.3147
 5760SOL     OW22805   1.308   3.403   1.398  0.4937  0.4329  0.5136
 5760SOL    HW222806   1.325   3.317   1.361 -0.0275  0.6406 -0.2394
 5760SOL    HW322807   1.215   3.419   1.380  0.5613  1.1091  0.7220
 5760SOL    MW422808   1.298   3.394   1.391  0.4339  0.5495  0.4417
 5761SOL     OW22809   0.425   0.277   5.599  0.1521  0.3201  0.6037
 5761SOL    HW222810   0.431   0.224   5.678 -0.2254  2.6980  2.3181
 5761SOL    HW322811   0.332   0.302   5.594  0.6189  2.3235  0.9599
 5761SOL    MW422812   0.413   0.273   5.609  0.1639  0.8981  0.8769
 5762SOL     OW22813   2.546   0.336   0.376  0.2040 -0.2979  0.4564
 5762SOL    HW222814   2.522   0.255   0.331  1.4706 -1.4002  1.6571
 5762SOL    HW322815   2.582   0.307   0.460  1.0425  1.4911  0.7647
 5762SOL    MW422816   2.548   0.321   0.381  0.4818 -0.2073  0.6555
 5763SOL     OW22817   4.771   3.253   1.378 -0.0906  0.5181  0.2109
 5763SOL    HW222818   4.738   3.210   1.457  1.6570  0.5183  0.9924
 5763SOL    HW322819   4.795   3.341   1.406  1.8577  0.0803  0.0739
 5763SOL    MW422820   4.770   3.259   1.392  0.3970  0.4603  0.2959
 5764SOL     OW22821   0.405   0.766   2.605 -0.1519 -0.3624 -0.5205
 5764SOL    HW222822   0.441   0.730   2.523  0.2179  1.6304 -1.2996
 5764SOL    HW322823   0.332   0.822   2.576 -1.0397 -0.8763  0.6704
 5764SOL    MW422824   0.400   0.769   2.590 -0.2203 -0.1673 -0.4662
 5765SOL     OW22825   5.199   3.822   2.474 -0.2786  0.3076  0.1480
 5765SOL    HW222826   5.123   3.827   2.415  0.2243  0.6289 -0.4828
 5765SOL    HW322827   5.199   3.906   2.519 -0.1174  0.4323 -0.0820
 5765SOL    MW422828   5.189   3.834   2.472 -0.1910  0.3664  0.0344
 5766SOL     OW22829   0.162   4.018   1.350 -0.0414 -0.6744 -0.4080
 5766SOL    HW222830   0.099   3.949   1.329 -2.9793  0.9944  2.1857
 5766SOL    HW322831   0.115   4.100   1.335  2.4182  0.7865 -0.7791
 5766SOL    MW422832   0.147   4.020   1.345 -0.1045 -0.2615 -0.1148
 5767SOL     OW22833   0.072   0.765   5.389  0.2810  0.1895 -0.3033
 5767SOL    HW222834  -0.009   0.773   5.439  0.4934  0.4972 -0.0046
 5767SOL    HW322835   0.043   0.741   5.301 -0.0506 -1.1890  0.1496
 5767SOL    MW422836   0.058   0.763   5.384  0.2653  0.0482 -0.2041
 5768SOL     OW22837   3.568   6.085   4.817  0.0050  0.1713 -0.2792
 5768SOL    HW222838   3.526   6.169   4.832 -1.1788 -0.6415  1.3055
 5768SOL    HW322839   3.555   6.037   4.899  1.2406 -1.3043 -0.8997
 5768SOL    MW422840   3.561   6.089   4.830  0.0118 -0.1307 -0.1520
 5769SOL     OW22841   0.015   1.913   2.013  0.4431 -0.0229 -0.7696
 5769SOL    HW222842   0.045   1.961   2.091 -2.4112  0.4115  0.2097
 5769SOL    HW322843  -0.080   1.908   2.024  0.3398 -3.9037 -2.0169
 5769SOL    MW422844   0.006   1.919   2.025  0.0529 -0.4776 -0.8050
 5770SOL     OW22845   1.564   0.388   4.165  0.3204  0.0115 -0.0652
 5770SOL    HW222846   1.523   0.398   4.079  1.5215 -0.1461 -0.6680
 5770SOL    HW322847   1.530   0.304   4.197 -1.1315  0.6681  0.1969
 5770SOL    MW422848   1.554   0.378   4.158  0.2873  0.0773 -0.1102
 5771SOL     OW22849   4.109   1.817   0.293 -0.0820 -0.5240  0.2191
 5771SOL    HW222850   4.174   1.766   0.245  1.0519 -0.6212  1.7874
 5771SOL    HW322851   4.122   1.908   0.264  0.3471 -0.6280  0.0928
 5771SOL    MW422852   4.119   1.823   0.283  0.1242 -0.5505  0.4094
 5772SOL     OW22853   5.919   6.209   1.993  0.3125 -0.3313 -0.0450
 5772SOL    HW222854   5.867   6.188   1.916 -2.7588 -0.3240  1.8568
 5772SOL    HW322855   5.958   6.126   2.020 -0.1261 -0.7101 -0.5686
 5772SOL    MW422856   5.918   6.195   1.987 -0.1506 -0.3803  0.1369
 5773SOL     OW22857   1.813   4.119   1.312 -0.0644 -0.4387 -0.1566
 5773SOL    HW222858   1.888   4.067   1.343  0.9102  1.4149  0.8126
 5773SOL    HW322859   1.756   4.056   1.268  1.5423 -2.1115  0.0316
 5773SOL    MW422860   1.815   4.103   1.311  0.2762 -0.4148 -0.0039
 5774SOL     OW22861   2.320   1.384   5.722 -0.2502 -0.6518  0.3760
 5774SOL    HW222862   2.322   1.403   5.628 -1.3870 -1.1610  0.2352
 5774SOL    HW322863   2.260   1.448   5.758  1.7358  0.9013  1.1276
 5774SOL    MW422864   2.313   1.395   5.714 -0.1381 -0.5141  0.4566
 5775SOL     OW22865   4.907   4.530   0.106 -0.0458  0.3445 -0.1210
 5775SOL    HW222866   4.889   4.553   0.197 -0.5908  1.4200 -0.4818
 5775SOL    HW322867   4.999   4.504   0.106 -0.2069 -0.2787  0.8426
 5775SOL    MW422868   4.917   4.530   0.118 -0.1389  0.4041 -0.0415
 5776SOL     OW22869   5.198   3.458   5.813  0.3775 -0.0202 -0.4461
 5776SOL    HW222870   5.264   3.396   5.844 -1.1832 -1.7073 -0.2785
 5776SOL    HW322871   5.154   3.487   5.893  0.3893  0.4710 -0.6161
 5776SOL    MW422872   5.201   3.454   5.828  0.1731 -0.1780 -0.4464
 5777SOL     OW22873   4.324   6.239   3.825 -0.1369  0.1135 -0.3742
 5777SOL    HW222874   4.414   6.229   3.794 -0.0492  1.3662 -0.6034
 5777SOL    HW322875   4.315   6.333   3.842 -0.7622 -0.2660  1.6673
 5777SOL    MW422876   4.335   6.250   3.823 -0.2078  0.2287 -0.1351
 5778SOL     OW22877   3.034   2.757  -0.035 -0.3825  0.3007 -0.1343
 5778SOL    HW222878   3.057   2.692  -0.101 -2.0930  1.4016 -1.9258
 5778SOL    HW322879   2.942   2.738  -0.014  0.2312 -0.2773  2.3015
 5778SOL    MW422880   3.025   2.746  -0.041 -0.5272  0.3697 -0.0493
 5779SOL     OW22881   5.223   1.844   4.891 -0.0206 -0.2151  0.1680
 5779SOL    HW222882   5.176   1.867   4.811  1.1540 -2.1157 -1.1718
 5779SOL    HW322883   5.254   1.928   4.925 -1.8822  0.7905 -0.4729
 5779SOL    MW422884   5.221   1.858   4.885 -0.1112 -0.3331 -0.0933
 5780SOL     OW22885   3.546   3.896   6.097 -0.3373  0.4691  0.5569
 5780SOL    HW222886   3.586   3.980   6.075 -1.4447  1.1653  1.1120
 5780SOL    HW322887   3.509   3.864   6.015  0.6476  0.1828  0.2028
 5780SOL    MW422888   3.546   3.903   6.083 -0.3535  0.5232  0.5834
 5781SOL     OW22889   2.127   0.993   3.291  0.3583 -0.4082  0.1335
 5781SOL    HW222890   2.033   0.978   3.304  0.3059 -0.4411 -0.2490
 5781SOL    HW322891   2.142   0.970   3.199  0.2546  1.8874 -0.5248
 5781SOL    MW422892   2.117   0.988   3.280  0.3377 -0.1096 -0.0038
 5782SOL     OW22893   0.437   4.939   1.236  0.4130  0.1635  0.2170
 5782SOL    HW222894   0.417   4.903   1.322  0.1731 -0.5230 -0.1146
 5782SOL    HW322895   0.507   5.002   1.252  0.4593 -0.0510  0.8972
 5782SOL    MW422896   0.444   4.943   1.249  0.3874  0.0446  0.2630
 5783SOL     OW22897   2.433   0.411   3.124 -0.1536 -0.2537  0.5651
 5783SOL    HW222898   2.381   0.346   3.077  1.6042 -0.5507 -1.1166
 5783SOL    HW322899   2.505   0.360   3.162  0.0276  0.4105  1.1321
 5783SOL    MW422900   2.436   0.395   3.123  0.1023 -0.2053  0.4180
 5784SOL     OW22901   0.402   1.744   2.804 -0.0479 -0.0135 -0.4533
 5784SOL    HW222902   0.492   1.774   2.815 -0.1266  0.4532 -1.0414
 5784SOL    HW322903   0.355   1.780   2.879 -0.1389  1.3454 -1.1318
 5784SOL    MW422904   0.408   1.752   2.815 -0.0703  0.2274 -0.6204
 5785SOL     OW22905   1.292   1.798   0.131 -0.3799  0.2870  0.1532
 5785SOL    HW222906   1.315   1.766   0.043 -0.8560  0.4489 -0.0358
 5785SOL    HW322907   1.286   1.893   0.121  1.0967  0.4601  0.7309
 5785SOL    MW422908   1.294   1.806   0.118 -0.2479  0.3312  0.2045
 5786SOL     OW22909   2.440   1.465   0.111  0.2504  0.3901 -0.1872
 5786SOL    HW222910   2.364   1.409   0.095  0.3410  0.6022 -1.5185
 5786SOL    HW322911   2.419   1.547   0.067  1.0253  0.6438 -0.1092
 5786SOL    MW422912   2.427   1.469   0.103  0.3646  0.4516 -0.3526
 5787SOL     OW22913   4.759   4.600   5.745  0.2284  0.6685 -0.0457
 5787SOL    HW222914   4.664   4.599   5.746  0.1982 -1.5255  0.6201
 5787SOL    HW322915   4.784   4.644   5.826 -0.2467  0.3219  0.2918
 5787SOL    MW422916   4.750   4.606   5.756  0.1617  0.3333  0.0866
 5788SOL     OW22917   3.723   6.122   0.505  0.4714  0.0348  0.4780
 5788SOL    HW222918   3.648   6.161   0.550  0.0850 -0.6759  0.4502
 5788SOL    HW322919   3.750   6.188   0.442 -1.5958 -0.6088 -1.1694
 5788SOL    MW422920   3.717   6.136   0.503  0.1477 -0.1439  0.2570
 5789SOL     OW22921   4.002   1.738   3.924 -0.1454  0.4543 -0.2407
 5789SOL    HW222922   4.071   1.760   3.987 -0.3369  3.4809 -0.9330
 5789SOL    HW322923   4.049   1.727   3.841 -0.1913 -0.7883 -0.1202
 5789SOL    MW422924   4.017   1.739   3.921 -0.1767  0.6897 -0.3161
 5790SOL     OW22925   3.652   3.881   2.376  0.4906 -0.0310 -0.1192
 5790SOL    HW222926   3.677   3.971   2.399  0.2541 -0.4372  1.9435
 5790SOL    HW322927   3.557   3.878   2.390 -0.0986  0.2138 -3.3269
 5790SOL    MW422928   3.643   3.893   2.381  0.3817 -0.0523 -0.2703
 5791SOL     OW22929   2.787   4.520   0.121  0.3252 -0.4322  0.6156
 5791SOL    HW222930   2.804   4.500   0.029 -0.8927  0.7749  0.0936
 5791SOL    HW322931   2.745   4.442   0.155  0.4471 -0.7527  0.0478
 5791SOL    MW422932   2.784   4.507   0.113  0.1806 -0.3152  0.4718
 5792SOL     OW22933   3.953   5.228   1.982 -0.3716  0.0876  0.1683
 5792SOL    HW222934   3.996   5.160   1.930  0.1540  0.2321  0.4122
 5792SOL    HW322935   3.879   5.183   2.023 -1.0332  0.0656 -1.0105
 5792SOL    MW422936   3.949   5.213   1.981 -0.3896  0.1037  0.0449
 5793SOL     OW22937   0.986   5.361   0.721 -0.1994  0.6069 -0.7746
 5793SOL    HW222938   0.919   5.332   0.658  0.8888 -0.2111 -1.6144
 5793SOL    HW322939   1.003   5.452   0.697  0.5716  0.1619 -2.0669
 5793SOL    MW422940   0.979   5.369   0.709  0.0459  0.4402 -1.0559
 5794SOL     OW22941   0.500   3.274   5.275 -0.0224  0.0114  0.4679
 5794SOL    HW222942   0.545   3.228   5.204 -0.9973 -0.3724  0.0753
 5794SOL    HW322943   0.506   3.214   5.350 -0.4458 -0.3287  0.2320
 5794SOL    MW422944   0.507   3.260   5.275 -0.2069 -0.0841  0.3850
 5795SOL     OW22945   3.506   0.854   2.927  0.0865 -0.1344  0.3117
 5795SOL    HW222946   3.444   0.860   2.854  1.1115 -1.8652 -0.7662
 5795SOL    HW322947   3.452   0.871   3.005 -0.7719  3.1824 -0.8408
 5795SOL    MW422948   3.490   0.857   2.928  0.1085  0.0749  0.0174
 5796SOL     OW22949   2.979   6.394   3.799  0.1435 -0.1336  0.0567
 5796SOL    HW222950   2.890   6.410   3.828  0.1416 -0.1205  0.0436
 5796SOL    HW322951   2.971   6.324   3.734 -0.4193  2.5994 -3.1321
 5796SOL    MW422952   2.966   6.387   3.794  0.0690  0.2287 -0.3657
 5797SOL     OW22953   2.327   0.012   2.052 -0.5383 -0.5950 -0.5666
 5797SOL    HW222954   2.295  -0.078   2.062  2.0033 -1.5261  0.0306
 5797SOL    HW322955   2.387   0.008   1.978  1.6951 -0.1093  1.1088
 5797SOL    MW422956   2.331   0.000   2.044  0.0917 -0.6538 -0.2667
 5798SOL     OW22957   0.592   3.853   1.488  0.2322  0.3418  0.3560
 5798SOL    HW222958   0.554   3.863   1.401  2.2771  0.2431 -0.6160
 5798SOL    HW322959   0.593   3.942   1.524  2.7221  1.0992 -1.2934
 5798SOL    MW422960   0.587   3.866   1.481  0.8305  0.4287  0.0102
 5799SOL     OW22961   0.568   0.990   3.226  0.1062 -0.0234 -0.0400
 5799SOL    HW222962   0.651   1.011   3.182 -0.8953  1.9450 -1.1024
 5799SOL    HW322963   0.506   0.977   3.155 -0.7633 -0.3408  0.7553
 5799SOL    MW422964   0.571   0.991   3.211 -0.1406  0.1944 -0.0752
 5800SOL     OW22965   3.322   1.765   0.331  0.0130  0.7537  0.7567
 5800SOL    HW222966   3.383   1.819   0.279 -0.0263  1.1399  1.1094
 5800SOL    HW322967   3.237   1.777   0.289  0.1276  0.4189  0.4206
 5800SOL    MW422968   3.319   1.774   0.318  0.0229  0.7605  0.7589
 5801SOL     OW22969   2.990   4.509   0.450  0.1378  0.1917  0.2561
 5801SOL    HW222970   2.918   4.517   0.513 -0.5388  0.6022 -0.5546
 5801SOL    HW322971   2.980   4.421   0.413  1.5142 -0.6924  1.8669
 5801SOL    MW422972   2.979   4.498   0.453  0.2301  0.1292  0.3617
 5802SOL     OW22973   0.714   5.770   2.272  0.2693 -0.3241  0.1005
 5802SOL    HW222974   0.759   5.693   2.309  0.7954 -0.1528 -0.1693
 5802SOL    HW322975   0.623   5.742   2.262  0.6991 -1.3924 -1.2433
 5802SOL    MW422976   0.708   5.756   2.276  0.3955 -0.4424 -0.1124
 5803SOL     OW22977   3.384   2.927   6.244  0.2800  0.1321  0.3727
 5803SOL    HW222978   3.350   2.925   6.333 -0.9401  1.1814 -0.0440
 5803SOL    HW322979   3.409   2.837   6.225  0.1060 -0.1825  1.6081
 5803SOL    MW422980   3.383   2.915   6.253  0.0961  0.2290  0.4807
 5804SOL     OW22981   1.422   3.025   1.432 -0.1769  0.1940  0.2548
 5804SOL    HW222982   1.483   3.068   1.492  0.3420  2.0889 -1.5145
 5804SOL    HW322983   1.422   3.081   1.354 -2.1599 -1.2137 -0.8329
 5804SOL    MW422984   1.430   3.038   1.429 -0.3701  0.2583 -0.1221
 5805SOL     OW22985   0.928   4.325   2.609 -0.2799 -0.0765 -0.3774
 5805SOL    HW222986   0.865   4.395   2.629  0.2997  0.9816 -1.9982
 5805SOL    HW322987   0.959   4.296   2.694 -1.1963  1.0485  0.3763
 5805SOL    MW422988   0.923   4.331   2.623 -0.3244  0.2115 -0.4918
 5806SOL     OW22989   5.388   5.791   4.371  0.3585 -0.4872  0.5532
 5806SOL    HW222990   5.477   5.822   4.390  0.2760 -0.4969  0.9642
 5806SOL    HW322991   5.392   5.759   4.281  0.6406  0.0012  0.3907
 5806SOL    MW422992   5.400   5.791   4.362  0.3848 -0.4241  0.5860
 5807SOL     OW22993   3.309   2.396   6.107  0.4769 -0.3992  0.7277
 5807SOL    HW222994   3.327   2.366   6.018 -1.2119 -0.7526  0.4791
 5807SOL    HW322995   3.375   2.352   6.161  1.1943 -0.5817 -0.2841
 5807SOL    MW422996   3.320   2.386   6.103  0.3487 -0.4699  0.5614
 5808SOL     OW22997   1.138   0.468   6.221 -0.2774  0.5603  0.5901
 5808SOL    HW222998   1.124   0.450   6.314 -0.0418  0.5095  0.6154
 5808SOL    HW322999   1.210   0.411   6.196  2.4072  3.3394  1.3354
 5808SOL    MW423000   1.146   0.458   6.230  0.1079  0.9203  0.6918
 5809SOL     OW23001   2.594   2.487   4.889 -0.2705  0.2411  0.3502
 5809SOL    HW223002   2.649   2.450   4.820  1.7254  0.8200  1.5538
 5809SOL    HW323003   2.509   2.500   4.847  1.0070  1.1577 -2.2142
 5809SOL    MW423004   2.590   2.484   4.874  0.1614  0.4384  0.1706
 5810SOL     OW23005   2.260   0.180   1.565  0.2586 -0.4448 -0.5300
 5810SOL    HW223006   2.317   0.248   1.529 -0.4274  0.1883 -0.4537
 5810SOL    HW323007   2.191   0.229   1.611 -1.1972 -1.1059 -1.9110
 5810SOL    MW423008   2.258   0.196   1.566 -0.0240 -0.4485 -0.7022
 5811SOL     OW23009   0.980   5.357   1.457  0.1087 -0.0390 -0.0987
 5811SOL    HW223010   0.959   5.388   1.369  1.9328  0.1285 -0.5078
 5811SOL    HW323011   0.959   5.431   1.514  0.6172  0.5016 -0.6069
 5811SOL    MW423012   0.974   5.371   1.453  0.4165  0.0544 -0.2197
 5812SOL     OW23013   2.190   3.112   2.804 -0.1054  0.2794 -0.1409
 5812SOL    HW223014   2.228   3.025   2.806 -2.4932 -0.8449  1.7430
 5812SOL    HW323015   2.202   3.147   2.892  1.7877  2.4320 -1.1259
 5812SOL    MW423016   2.196   3.105   2.816 -0.1706  0.4151 -0.0223
 5813SOL     OW23017   2.351   4.410   5.737  0.0421 -0.1560 -0.4702
 5813SOL    HW223018   2.314   4.465   5.807  0.7707 -1.5256  1.0492
 5813SOL    HW323019   2.355   4.468   5.661 -1.2986  1.2292  0.4538
 5813SOL    MW423020   2.347   4.425   5.736 -0.0387 -0.1540 -0.1478
 5814SOL     OW23021   4.999   3.341   0.080 -0.9650  0.4578 -0.0462
 5814SOL    HW223022   5.007   3.266   0.022 -2.0084 -0.2631  0.6983
 5814SOL    HW323023   4.986   3.416   0.021  0.6429  0.1767 -0.8177
 5814SOL    MW423024   4.998   3.341   0.065 -0.8905  0.3256 -0.0498
 5815SOL     OW23025   0.627   6.314   6.245 -0.1174  0.4908  0.5023
 5815SOL    HW223026   0.636   6.290   6.153 -1.5517  1.0268  0.1863
 5815SOL    HW323027   0.580   6.397   6.243  0.2295  0.7336  1.7110
 5815SOL    MW423028   0.622   6.322   6.232 -0.2608  0.5935  0.6201
 5816SOL     OW23029   3.538   1.469   5.764  0.3372 -0.3154 -0.4267
 5816SOL    HW223030   3.557   1.512   5.681  4.3871 -0.2331  0.3049
 5816SOL    HW323031   3.551   1.538   5.830  0.1606 -1.0693  0.4150
 5816SOL    MW423032   3.542   1.484   5.762  0.8482 -0.4040 -0.2191
 5817SOL     OW23033   0.635   2.088   0.809 -0.0259 -0.1442  0.0439
 5817SOL    HW223034   0.684   2.085   0.727 -0.0999  0.6775 -0.0305
 5817SOL    HW323035   0.544   2.099   0.783 -0.1317 -0.5940  0.2174
 5817SOL    MW423036   0.629   2.089   0.795 -0.0497 -0.0951  0.0570
 5818SOL     OW23037   1.801   3.730   5.341 -0.5530 -0.5743 -0.5435
 5818SOL    HW223038   1.774   3.761   5.254 -1.3601 -0.5279 -0.2808
 5818SOL    HW323039   1.895   3.713   5.332  0.0108  2.2049 -0.6142
 5818SOL    MW423040   1.810   3.732   5.328 -0.5851 -0.2015 -0.5182
 5819SOL     OW23041   2.715   3.315   0.086  0.4492  0.0229  0.1159
 5819SOL    HW223042   2.627   3.300   0.123  0.3872  0.3259  0.0951
 5819SOL    HW323043   2.774   3.300   0.159  0.2461  2.0927  0.7873
 5819SOL    MW423044   2.711   3.311   0.100  0.4142  0.3360  0.2017
 5820SOL     OW23045   2.186   6.099   0.673  0.4817 -0.0166  0.5970
 5820SOL    HW223046   2.214   6.103   0.581  0.8977 -1.2698  0.6508
 5820SOL    HW323047   2.268   6.093   0.722  0.2232 -1.5264  0.8961
 5820SOL    MW423048   2.201   6.099   0.667  0.5025 -0.3811  0.6436
 5821SOL     OW23049   4.224   6.093   0.901 -0.3840 -0.6737  0.1106
 5821SOL    HW223050   4.244   6.122   0.813  1.0990 -0.3259  0.5330
 5821SOL    HW323051   4.128   6.086   0.903 -0.5156  0.3873 -1.1733
 5821SOL    MW423052   4.214   6.096   0.890 -0.2057 -0.4878 -0.0031
 5822SOL     OW23053   3.435   1.293   3.675  0.3022 -0.3341 -0.3979
 5822SOL    HW223054   3.379   1.265   3.602  1.9239  1.6967 -2.5780
 5822SOL    HW323055   3.486   1.215   3.698  0.4037 -0.8087 -2.1003
 5822SOL    MW423056   3.434   1.279   3.668  0.5296 -0.1288 -0.9101
 5823SOL     OW23057   5.705   5.060   6.158  0.5557  0.5163  0.2190
 5823SOL    HW223058   5.680   5.030   6.071  1.0366 -0.9989  0.5751
 5823SOL    HW323059   5.739   5.148   6.144 -1.0827  1.0456 -0.8451
 5823SOL    MW423060   5.706   5.068   6.145  0.4030  0.3862  0.1256
 5824SOL     OW23061   1.306   5.754   5.740 -0.5669  0.4635  0.1942
 5824SOL    HW223062   1.348   5.805   5.809  0.0238  1.0279 -0.5606
 5824SOL    HW323063   1.248   5.816   5.696 -0.8615  0.1347  0.1132
 5824SOL    MW423064   1.304   5.769   5.743 -0.5278  0.4946  0.0839
 5825SOL     OW23065   5.017   5.348   2.565  0.5344  0.1303 -0.3474
 5825SOL    HW223066   5.014   5.404   2.487  2.2910  0.0742 -0.5074
 5825SOL    HW323067   4.931   5.359   2.606  0.0404  1.1817 -1.5889
 5825SOL    MW423068   5.005   5.357   2.560  0.7010  0.2616 -0.5323
 5826SOL     OW23069   3.071   4.707   5.099 -0.6701  0.0564  0.2518
 5826SOL    HW223070   3.112   4.722   5.185  0.2300  0.2655 -0.2056
 5826SOL    HW323071   2.978   4.696   5.119 -1.2057  4.1745  0.9054
 5826SOL    MW423072   3.064   4.708   5.113 -0.6220  0.6273  0.2777
 5827SOL     OW23073   5.261   0.315   0.126 -0.9001  0.4921  0.4210
 5827SOL    HW223074   5.354   0.333   0.113 -1.1878  1.3211 -0.6783
 5827SOL    HW323075   5.217   0.371   0.062 -2.1237 -0.4333  0.4199
 5827SOL    MW423076   5.268   0.325   0.116 -1.0995  0.4793  0.2758
 5828SOL     OW23077   1.162   0.035   4.238 -0.2782 -0.0075 -0.3083
 5828SOL    HW223078   1.241   0.078   4.206 -0.3612 -0.6015 -1.3449
 5828SOL    HW323079   1.168   0.041   4.334  0.7711  0.3745 -0.3914
 5828SOL    MW423080   1.173   0.042   4.247 -0.1507 -0.0355 -0.4560
 5829SOL     OW23081   1.630   5.500   0.012  0.0119  0.2059  0.4097
 5829SOL    HW223082   1.699   5.518  -0.052 -0.6472 -0.2739 -0.4494
 5829SOL    HW323083   1.550   5.493  -0.040 -0.8194  1.4101  1.4560
 5829SOL    MW423084   1.629   5.502  -0.003 -0.1847  0.3014  0.4344
 5830SOL     OW23085   4.618   1.839   2.457  0.3535 -0.3631 -0.5567
 5830SOL    HW223086   4.589   1.927   2.481 -1.7450 -0.2303 -3.1249
 5830SOL    HW323087   4.537   1.787   2.455  1.2762 -1.8392 -1.1063
 5830SOL    MW423088   4.603   1.844   2.460  0.1984 -0.5403 -0.9681
 5831SOL     OW23089   6.085   1.730   1.754  0.1003 -0.0203 -0.1953
 5831SOL    HW223090   6.114   1.664   1.817  0.5315  0.0884 -0.2771
 5831SOL    HW323091   6.145   1.720   1.680 -0.1495  0.1261 -0.4172
 5831SOL    MW423092   6.097   1.720   1.753  0.1242  0.0133 -0.2353
 5832SOL     OW23093   3.962   1.496   0.206  0.1373  0.0228  0.1855
 5832SOL    HW223094   4.050   1.511   0.173  0.5390 -0.9881  0.7637
 5832SOL    HW323095   3.968   1.515   0.300 -0.3339  0.2295  0.1762
 5832SOL    MW423096   3.974   1.500   0.214  0.1281 -0.0833  0.2605
 5833SOL     OW23097   4.250   0.076   4.721 -0.6501  0.0749  0.0865
 5833SOL    HW223098   4.322   0.013   4.718  1.9073  2.7549  0.4405
 5833SOL    HW323099   4.253   0.121   4.637 -2.3328 -0.1346 -0.1178
 5833SOL    MW423100   4.260   0.074   4.710 -0.5347  0.4008  0.1062
 5834SOL     OW23101   5.704   1.865   2.648 -0.1687 -0.1290 -0.2642
 5834SOL    HW223102   5.704   1.905   2.561 -1.7480  0.1982 -0.1487
 5834SOL    HW323103   5.623   1.898   2.690  0.6697 -0.0837  1.4170
 5834SOL    MW423104   5.693   1.875   2.642 -0.2664 -0.0798 -0.0272
 5835SOL     OW23105   1.255   5.292   0.689  0.6634 -0.2396  0.3668
 5835SOL    HW223106   1.289   5.268   0.603 -0.1183 -1.0538  0.2714
 5835SOL    HW323107   1.163   5.313   0.674  0.6421  0.0879  0.9229
 5835SOL    MW423108   1.248   5.292   0.676  0.5575 -0.3038  0.4276
 5836SOL     OW23109   6.047   1.720   3.575 -0.3140  0.6353 -0.1857
 5836SOL    HW223110   5.969   1.776   3.571 -0.9812 -0.3567 -3.1650
 5836SOL    HW323111   6.034   1.668   3.655 -1.6387  1.9245  0.4981
 5836SOL    MW423112   6.035   1.721   3.585 -0.5768  0.6745 -0.4885
 5837SOL     OW23113   2.315   0.422   3.411  0.1260  0.1328 -0.0103
 5837SOL    HW223114   2.350   0.414   3.323  0.9017  0.1005  0.2943
 5837SOL    HW323115   2.391   0.419   3.468 -0.1593  2.2677  0.5665
 5837SOL    MW423116   2.329   0.421   3.407  0.1907  0.4102  0.1060
 5838SOL     OW23117   2.324   0.971   4.751  0.2729 -0.0168  0.3786
 5838SOL    HW223118   2.383   0.935   4.817 -0.5257 -0.9185  0.6225
 5838SOL    HW323119   2.242   0.986   4.798  0.3655  1.4800  0.1105
 5838SOL    MW423120   2.321   0.968   4.765  0.1797  0.0617  0.3754
 5839SOL     OW23121   2.271   3.336   1.545  0.1939 -0.8037 -0.2681
 5839SOL    HW223122   2.260   3.337   1.640  0.0477 -0.3826 -0.2884
 5839SOL    HW323123   2.356   3.295   1.531  0.0485 -1.2111  0.0271
 5839SOL    MW423124   2.281   3.331   1.556  0.1554 -0.8019 -0.2318
 5840SOL     OW23125   1.961   1.997   0.818 -0.4330 -0.3750  0.1592
 5840SOL    HW223126   2.022   1.940   0.865  1.5880  0.7396 -0.9801
 5840SOL    HW323127   1.929   1.944   0.746  2.3454  0.1534 -1.6004
 5840SOL    MW423128   1.965   1.983   0.815  0.2002 -0.1583 -0.2233
 5841SOL     OW23129   3.233   0.941   3.628 -0.1750 -0.0396 -0.3090
 5841SOL    HW223130   3.176   1.001   3.676 -0.9037 -1.7476  1.0551
 5841SOL    HW323131   3.176   0.902   3.561  0.2938  0.7343 -1.1882
 5841SOL    MW423132   3.218   0.944   3.625 -0.2093 -0.1628 -0.2450
 5842SOL     OW23133   3.828   6.028   3.977 -0.5774 -0.2266 -0.0131
 5842SOL    HW223134   3.917   6.050   4.005 -0.1605 -0.1302 -1.3374
 5842SOL    HW323135   3.806   6.094   3.911 -1.2054 -0.8817 -0.4804
 5842SOL    MW423136   3.837   6.039   3.972 -0.6053 -0.3003 -0.2495
 5843SOL     OW23137   2.444   3.314   2.424 -0.1892 -0.4981 -0.6015
 5843SOL    HW223138   2.353   3.297   2.400 -0.6812  1.7002 -0.4672
 5843SOL    HW323139   2.448   3.296   2.518 -1.2035  1.8250 -0.0391
 5843SOL    MW423140   2.432   3.309   2.433 -0.3879  0.0984 -0.5096
 5844SOL     OW23141   3.877   4.625   0.601 -0.0853 -0.2288  0.1459
 5844SOL    HW223142   3.859   4.718   0.591 -1.7055 -0.2709  2.1671
 5844SOL    HW323143   3.814   4.595   0.666 -0.0189 -2.8823 -0.9018
 5844SOL    MW423144   3.866   4.633   0.608 -0.2903 -0.5844  0.2744
 5845SOL     OW23145   2.962   0.255   2.506 -0.2726 -0.5681 -0.0871
 5845SOL    HW223146   2.894   0.314   2.476 -1.0710 -1.8652 -0.9590
 5845SOL    HW323147   3.008   0.230   2.426  0.2075 -0.9335  0.2955
 5845SOL    MW423148   2.959   0.259   2.491 -0.3146 -0.7874 -0.1516
 5846SOL     OW23149   2.222   2.247   3.971  0.1191  0.1992 -0.4428
 5846SOL    HW223150   2.289   2.187   4.003  0.8806  0.7025 -1.0563
 5846SOL    HW323151   2.148   2.191   3.949  0.8307 -0.5307 -1.0473
 5846SOL    MW423152   2.221   2.232   3.972  0.3135  0.1693 -0.6035
 5847SOL     OW23153   3.273   3.872   6.247  0.6063 -0.0006  0.1330
 5847SOL    HW223154   3.279   3.777   6.232 -0.8212 -0.3066  1.2854
 5847SOL    HW323155   3.362   3.904   6.231  0.9171 -1.3835 -1.1568
 5847SOL    MW423156   3.286   3.864   6.243  0.4590 -0.2234  0.1148
 5848SOL     OW23157   1.492   5.058   5.803 -0.0329 -0.1827  0.6177
 5848SOL    HW223158   1.479   4.975   5.849  1.4241  0.1425  1.6508
 5848SOL    HW323159   1.468   5.038   5.712  2.2309 -2.3253  0.3923
 5848SOL    MW423160   1.487   5.044   5.797  0.4580 -0.4225  0.7243
 5849SOL     OW23161   0.555   4.118   0.358 -0.1766 -0.6027  0.1669
 5849SOL    HW223162   0.587   4.112   0.268  0.1172  1.3249  0.0988
 5849SOL    HW323163   0.577   4.208   0.386 -2.5557 -0.2780  1.2786
 5849SOL    MW423164   0.562   4.129   0.350 -0.4517 -0.3055  0.3046
 5850SOL     OW23165   3.691   4.814   5.784  0.6070  0.1841 -0.4578
 5850SOL    HW223166   3.701   4.718   5.779 -0.5656  0.1020 -2.4184
 5850SOL    HW323167   3.601   4.827   5.812  1.4668  0.7865  2.2603
 5850SOL    MW423168   3.681   4.803   5.787  0.5658  0.2528 -0.3578
 5851SOL     OW23169   2.319   5.909   2.516 -0.5973 -0.1673 -0.2954
 5851SOL    HW223170   2.271   5.986   2.545  0.5442  1.2974 -2.0460
 5851SOL    HW323171   2.280   5.887   2.431  0.2388 -0.3861 -0.6324
 5851SOL    MW423172   2.308   5.916   2.508 -0.3364 -0.0029 -0.5708
 5852SOL     OW23173   2.196   0.439   4.051 -0.3889  0.2188 -0.5516
 5852SOL    HW223174   2.150   0.403   4.127  0.4751 -1.1974 -0.6675
 5852SOL    HW323175   2.129   0.443   3.982 -0.6415 -0.6040 -0.3558
 5852SOL    MW423176   2.181   0.435   4.052 -0.3082 -0.0766 -0.5411
 5853SOL     OW23177   2.189   5.772   3.028 -0.0550  0.4017  0.1475
 5853SOL    HW223178   2.168   5.833   2.957 -2.2062  0.1272  0.4745
 5853SOL    HW323179   2.148   5.811   3.106 -0.0822 -0.6595  0.6851
 5853SOL    MW423180   2.181   5.785   3.029 -0.3424  0.2255  0.2616
 5854SOL     OW23181   1.344   2.545   5.551 -0.0756  1.0731  0.1298
 5854SOL    HW223182   1.368   2.455   5.574 -1.9547 -0.1464 -2.2371
 5854SOL    HW323183   1.390   2.599   5.615  0.5363 -1.5864  2.1204
 5854SOL    MW423184   1.353   2.540   5.563 -0.2428  0.5613  0.0802
 5855SOL     OW23185   1.590   3.467   4.507  0.2274  0.2107 -0.5521
 5855SOL    HW223186   1.517   3.492   4.452 -1.4019  0.6641  1.6709
 5855SOL    HW323187   1.611   3.378   4.480 -1.7246 -0.2428 -0.7175
 5855SOL    MW423188   1.583   3.458   4.496 -0.2451  0.2107 -0.2806
 5856SOL     OW23189   4.756   1.063   3.326  0.1410 -0.9452  0.0082
 5856SOL    HW223190   4.780   0.984   3.375 -1.6320 -0.5663  1.6209
 5856SOL    HW323191   4.712   1.119   3.391 -3.4908 -0.9149 -2.2125
 5856SOL    MW423192   4.753   1.060   3.341 -0.5721 -0.8912 -0.0720
 5857SOL     OW23193   1.170   5.973   5.605 -0.3002 -0.3387 -0.2376
 5857SOL    HW223194   1.132   5.971   5.517 -2.7772  0.3885  0.7565
 5857SOL    HW323195   1.232   6.046   5.602 -0.7620  0.0335 -1.2195
 5857SOL    MW423196   1.173   5.982   5.593 -0.6879 -0.1936 -0.2360
 5858SOL     OW23197   2.352   3.479   5.314  0.0380 -0.2449  0.0925
 5858SOL    HW223198   2.418   3.477   5.244  0.9580 -1.3825  0.9625
 5858SOL    HW323199   2.391   3.534   5.382 -1.1235  1.3848 -0.4996
 5858SOL    MW423200   2.366   3.486   5.313  0.0062 -0.1799  0.1292
 5859SOL     OW23201   6.393   4.472   4.185 -0.1664  0.0094 -0.1025
 5859SOL    HW223202   6.421   4.381   4.173  0.8408  0.5432 -2.5878
 5859SOL    HW323203   6.463   4.512   4.236  0.8723 -0.0110 -1.4334
 5859SOL    MW423204   6.406   4.465   4.190  0.1036  0.0772 -0.6060
 5860SOL     OW23205   0.060   5.660   4.898 -0.5514 -0.2973 -0.2425
 5860SOL    HW223206   0.152   5.651   4.873 -0.6125  0.8821 -0.9922
 5860SOL    HW323207   0.062   5.669   4.993  0.1152 -0.2708 -0.2490
 5860SOL    MW423208   0.073   5.660   4.907 -0.4715 -0.1382 -0.3423
 5861SOL     OW23209   2.828   5.503   3.391  0.0910 -0.4084  0.4503
 5861SOL    HW223210   2.873   5.540   3.467 -0.5069 -1.1427  1.1860
 5861SOL    HW323211   2.888   5.517   3.318  1.5544 -1.4294  1.4010
 5861SOL    MW423212   2.842   5.510   3.392  0.2052 -0.6400  0.6728
 5862SOL     OW23213   3.577   3.479   3.984 -0.4394 -0.0726 -0.0295
 5862SOL    HW223214   3.577   3.388   3.955 -1.0424 -0.1554  0.2157
 5862SOL    HW323215   3.640   3.523   3.927  1.0839 -0.9672  0.8891
 5862SOL    MW423216   3.585   3.473   3.973 -0.3180 -0.2016  0.1240
 5863SOL     OW23217   4.172   0.498   3.881 -0.6193 -0.0705  0.7852
 5863SOL    HW223218   4.223   0.545   3.815 -0.1233 -0.1807  1.0891
 5863SOL    HW323219   4.100   0.557   3.902 -0.6279  0.0819  0.3478
 5863SOL    MW423220   4.169   0.512   3.875 -0.5550 -0.0649  0.7676
 5864SOL     OW23221   3.810   3.684   6.040  0.0033 -0.2856  0.2492
 5864SOL    HW223222   3.745   3.719   6.101 -0.7138 -1.9834  0.5053
 5864SOL    HW323223   3.795   3.732   5.959 -0.6225  0.3176  0.7068
 5864SOL    MW423224   3.800   3.695   6.038 -0.1739 -0.4300  0.3434
 5865SOL     OW23225   2.092   3.099   6.223 -0.1500  0.2520  0.1758
 5865SOL    HW223226   2.133   3.182   6.195  0.4264 -0.0901 -0.0075
 5865SOL    HW323227   2.139   3.032   6.175  0.0970 -0.2692  1.1252
 5865SOL    MW423228   2.104   3.101   6.213 -0.0414  0.1381  0.2769
 5866SOL     OW23229   5.421   5.136   5.043 -0.1019  0.4840 -0.0872
 5866SOL    HW223230   5.368   5.197   5.094  0.4304 -0.6871  2.0047
 5866SOL    HW323231   5.504   5.132   5.090  0.4343 -0.6574 -1.0732
 5866SOL    MW423232   5.425   5.144   5.056  0.0391  0.1789  0.0587
 5867SOL     OW23233   4.265   5.402   3.893  0.1441  0.0111  0.5565
 5867SOL    HW223234   4.346   5.451   3.875  1.0233 -0.9471  1.7084
 5867SOL    HW323235   4.292   5.310   3.893 -1.0767 -0.3643  0.3995
 5867SOL    MW423236   4.279   5.396   3.891  0.0990 -0.1648  0.6878
 5868SOL     OW23237   6.350   0.905   1.880  0.1115 -0.3314 -0.2692
 5868SOL    HW223238   6.258   0.928   1.875  0.4402  1.4416  0.9815
 5868SOL    HW323239   6.352   0.825   1.933 -0.5786  0.9181  1.7228
 5868SOL    MW423240   6.338   0.897   1.886  0.0638  0.0674  0.1586
 5869SOL     OW23241   3.142   6.265   5.800  0.6502  0.1519  0.0681
 5869SOL    HW223242   3.120   6.172   5.800  0.0529  0.2867  0.0127
 5869SOL    HW323243   3.141   6.290   5.892  0.3529  0.2027  0.0532
 5869SOL    MW423244   3.139   6.256   5.812  0.5322  0.1764  0.0589
 5870SOL     OW23245   1.985   1.534   1.881 -0.2024  0.0571 -0.6493
 5870SOL    HW223246   2.025   1.448   1.871  2.0077  0.9781 -0.3505
 5870SOL    HW323247   1.944   1.552   1.797  0.0474 -0.9534 -0.9951
 5870SOL    MW423248   1.985   1.525   1.869  0.1222  0.0453 -0.6555
 5871SOL     OW23249   2.300   4.034   2.957 -0.3711  0.1922  0.1733
 5871SOL    HW223250   2.332   4.018   2.867  0.8614 -0.1188  0.6390
 5871SOL    HW323251   2.308   4.128   2.968  2.4400 -0.0471  0.9495
 5871SOL    MW423252   2.306   4.044   2.946  0.1624  0.1196  0.3371
 5872SOL     OW23253   1.247   4.345   1.387 -0.0339  0.1490  0.3177
 5872SOL    HW223254   1.215   4.288   1.317  0.1046  1.0692 -0.5216
 5872SOL    HW323255   1.338   4.318   1.402 -0.0430 -0.0039  0.0893
 5872SOL    MW423256   1.255   4.334   1.380 -0.0168  0.2502  0.1768
 5873SOL     OW23257   3.958   3.390   2.437 -0.1306 -0.7110  0.8383
 5873SOL    HW223258   4.049   3.417   2.445 -0.4961  0.5001  1.1269
 5873SOL    HW323259   3.914   3.434   2.510 -1.0293 -0.8992  0.4222
 5873SOL    MW423260   3.964   3.399   2.448 -0.2974 -0.5761  0.8215
 5874SOL     OW23261   4.251   4.241   0.419 -0.1761 -0.7419  0.3288
 5874SOL    HW223262   4.288   4.165   0.373  0.1607  0.2191 -1.0435
 5874SOL    HW323263   4.159   4.217   0.433 -0.3335 -1.0087 -1.0211
 5874SOL    MW423264   4.243   4.228   0.414 -0.1524 -0.6503 -0.0304
 5875SOL     OW23265   0.247   6.175   0.796 -0.3320  0.2350 -0.2068
 5875SOL    HW223266   0.219   6.119   0.868  1.0145 -0.0968  0.0931
 5875SOL    HW323267   0.167   6.216   0.764 -0.9924  0.1474  1.2782
 5875SOL    MW423268   0.233   6.173   0.801 -0.2415  0.1797  0.0287
 5876SOL     OW23269   0.008   0.977   4.676  0.0380  0.0095  0.1757
 5876SOL    HW223270   0.092   0.967   4.631 -0.1145 -1.2204  0.1361
 5876SOL    HW323271  -0.056   0.941   4.616 -0.7126  1.9460 -0.2746
 5876SOL    MW423272   0.011   0.971   4.662 -0.0812  0.1027  0.1111
 5877SOL     OW23273   4.828   2.077   0.454  0.2389  0.7544 -0.4331
 5877SOL    HW223274   4.895   2.125   0.406  1.0965  1.9403  1.7681
 5877SOL    HW323275   4.868   1.992   0.472 -0.2435  0.1558 -2.0778
 5877SOL    MW423276   4.842   2.072   0.450  0.2884  0.8319 -0.3596
 5878SOL     OW23277   4.773   4.741   1.063 -0.2579 -0.1564  0.0186
 5878SOL    HW223278   4.865   4.740   1.039 -0.0948  1.3279  0.5208
 5878SOL    HW323279   4.727   4.736   0.979  0.2747 -0.7165 -0.2460
 5878SOL    MW423280   4.779   4.740   1.049 -0.1661 -0.0345  0.0500
 5879SOL     OW23281   5.641   5.215   4.670 -0.0704  0.2194  0.0280
 5879SOL    HW223282   5.594   5.143   4.710  0.2012  0.6337  1.1289
 5879SOL    HW323283   5.714   5.233   4.730 -0.8465  2.2157  0.4717
 5879SOL    MW423284   5.645   5.208   4.683 -0.1370  0.5375  0.2318
 5880SOL     OW23285   0.301   4.364   1.307 -0.1424 -0.0693  0.0877
 5880SOL    HW223286   0.281   4.443   1.257 -0.2841 -0.8821 -1.1806
 5880SOL    HW323287   0.288   4.292   1.245  0.3882 -1.0632  1.0909
 5880SOL    MW423288   0.297   4.365   1.292 -0.0911 -0.3077  0.0527
 5881SOL     OW23289   6.406   2.145   3.544 -0.2028  0.1309 -0.6937
 5881SOL    HW223290   6.443   2.149   3.456  0.2379  0.8356 -0.4849
 5881SOL    HW323291   6.334   2.082   3.537 -0.3496  0.3908 -1.6131
 5881SOL    MW423292   6.401   2.137   3.531 -0.1640  0.2582 -0.7874
 5882SOL     OW23293   0.278   4.150   0.387 -0.5200 -0.3712 -0.0866
 5882SOL    HW223294   0.238   4.064   0.378 -1.4176  0.1332 -1.1756
 5882SOL    HW323295   0.370   4.136   0.362 -0.7817 -0.9211 -0.7810
 5882SOL    MW423296   0.285   4.137   0.382 -0.6730 -0.3772 -0.3219
 5883SOL     OW23297   5.709   5.125   1.227  0.2363  0.2202  0.3263
 5883SOL    HW223298   5.746   5.072   1.298 -0.3391 -0.9449 -0.2249
 5883SOL    HW323299   5.786   5.161   1.182  0.6910 -1.1982 -0.0784
 5883SOL    MW423300   5.724   5.123   1.231  0.2204 -0.1207  0.2002
 5884SOL     OW23301   2.873   2.564   3.461  0.4489 -0.4650  0.1845
 5884SOL    HW223302   2.959   2.607   3.471 -0.4272  1.4639 -0.0774
 5884SOL    HW323303   2.870   2.500   3.532  2.7298 -1.7411 -0.7664
 5884SOL    MW423304   2.884   2.561   3.472  0.6342 -0.3789  0.0245
 5885SOL     OW23305   0.764   1.161   3.983 -0.0549  0.9196  0.1855
 5885SOL    HW223306   0.741   1.119   4.067 -0.7621  2.1588  0.6353
 5885SOL    HW323307   0.780   1.252   4.006  0.8273  1.0410 -0.8798
 5885SOL    MW423308   0.763   1.167   3.997 -0.0318  1.0991  0.1043
 5886SOL     OW23309   4.728   0.331   0.133  0.1648 -0.1842  0.7916
 5886SOL    HW223310   4.711   0.250   0.086 -1.5588 -0.2410  1.4467
 5886SOL    HW323311   4.704   0.312   0.224 -0.2912  1.0432  0.9497
 5886SOL    MW423312   4.722   0.318   0.139 -0.1228 -0.0298  0.8989
 5887SOL     OW23313   4.583   4.082   0.670  0.2759  0.2816 -0.3837
 5887SOL    HW223314   4.571   4.148   0.739  1.6227 -0.6186  0.7783
 5887SOL    HW323315   4.618   4.132   0.596  1.3638  0.9083  0.4992
 5887SOL    MW423316   4.586   4.098   0.669  0.5971  0.2455 -0.1139
 5888SOL     OW23317   1.466   5.816   1.371 -0.2099  0.3830 -0.0463
 5888SOL    HW223318   1.526   5.758   1.419  0.5521  0.9650 -0.2711
 5888SOL    HW323319   1.395   5.833   1.432 -2.4021 -3.6773 -1.1486
 5888SOL    MW423320   1.465   5.811   1.386 -0.3986 -0.0759 -0.2214
 5889SOL     OW23321   2.931   3.554   0.412  0.6436 -0.0931 -0.0021
 5889SOL    HW223322   2.841   3.586   0.404  1.2525  1.9236  0.5407
 5889SOL    HW323323   2.971   3.572   0.327  0.3917 -1.5346 -0.4399
 5889SOL    MW423324   2.924   3.561   0.400  0.6907 -0.0172  0.0118
 5890SOL     OW23325   4.240   3.823   5.762 -0.3062  0.4955 -0.0872
 5890SOL    HW223326   4.181   3.820   5.837 -0.1715 -1.1027 -0.0002
 5890SOL    HW323327   4.314   3.876   5.792 -0.9981  1.2620  0.3137
 5890SOL    MW423328   4.242   3.829   5.776 -0.3797  0.3858 -0.0228
 5891SOL     OW23329   0.495   4.913   0.955 -0.2028 -0.4129  0.0194
 5891SOL    HW223330   0.458   4.891   1.041 -2.0292 -0.8913 -0.8605
 5891SOL    HW323331   0.573   4.857   0.949 -0.5839 -1.0837  0.9655
 5891SOL    MW423332   0.501   4.903   0.966 -0.4941 -0.5645  0.0282
 5892SOL     OW23333   3.012   0.780   2.155 -0.2968  0.0996  0.2626
 5892SOL    HW223334   3.098   0.760   2.119 -0.1702  1.0146  0.0375
 5892SOL    HW323335   2.994   0.870   2.127 -0.3047  0.7617  2.2435
 5892SOL    MW423336   3.021   0.789   2.147 -0.2811  0.3077  0.4942
 5893SOL     OW23337   2.183   2.211   0.492 -0.2707  0.3773 -0.0294
 5893SOL    HW223338   2.141   2.285   0.448 -0.9108  0.1031  0.1049
 5893SOL    HW323339   2.155   2.218   0.583 -0.7017 -0.2717 -0.1040
 5893SOL    MW423340   2.174   2.222   0.498 -0.4120  0.2555 -0.0215
 5894SOL     OW23341   1.256   4.561   5.809 -0.2899  0.5065  0.1338
 5894SOL    HW223342   1.238   4.472   5.780 -0.0193  0.8826 -1.2727
 5894SOL    HW323343   1.194   4.615   5.760  0.6070  1.2375 -0.2102
 5894SOL    MW423344   1.245   4.557   5.799 -0.1359  0.6526 -0.0972
 5895SOL     OW23345   3.183   2.596   2.057  0.2298 -0.6295  0.0955
 5895SOL    HW223346   3.123   2.523   2.044  0.0931 -0.4824 -0.0906
 5895SOL    HW323347   3.129   2.674   2.047  0.2326 -0.5025  0.9467
 5895SOL    MW423348   3.168   2.597   2.054  0.2122 -0.5933  0.1832
 5896SOL     OW23349   4.886   4.709   3.397  0.0769  0.4973 -0.8301
 5896SOL    HW223350   4.826   4.667   3.335 -0.1545 -1.2354  0.4776
 5896SOL    HW323351   4.973   4.695   3.360  0.1085 -2.2223  0.0663
 5896SOL    MW423352   4.889   4.701   3.384  0.0505 -0.0901 -0.5393
 5897SOL     OW23353   4.302   0.121   3.835  0.0095  0.0760  0.5943
 5897SOL    HW223354   4.218   0.163   3.817 -0.7213 -1.8314 -0.8157
 5897SOL    HW323355   4.356   0.140   3.758 -0.0659 -0.8538  0.2967
 5897SOL    MW423356   4.298   0.129   3.822 -0.0969 -0.2983  0.3690
 5898SOL     OW23357   2.652   1.088   1.158  0.4795 -0.5216  0.2022
 5898SOL    HW223358   2.692   1.008   1.123 -1.5438 -1.5341  0.0419
 5898SOL    HW323359   2.558   1.070   1.156 -0.0205  1.7926  0.4034
 5898SOL    MW423360   2.645   1.075   1.153  0.1466 -0.3498  0.2076
 5899SOL     OW23361   3.008   5.723   4.204 -0.1050  0.1701  0.0547
 5899SOL    HW223362   3.063   5.710   4.281  0.4763  0.6439 -0.2698
 5899SOL    HW323363   2.918   5.720   4.237  0.1435  0.5079  0.7651
 5899SOL    MW423364   3.003   5.721   4.218  0.0045  0.2772  0.1056
 5900SOL     OW23365   2.149   1.758   3.923 -0.2200 -0.3026 -0.0473
 5900SOL    HW223366   2.081   1.736   3.860  0.1202  0.7743 -0.8238
 5900SOL    HW323367   2.222   1.790   3.869 -0.0967  1.1147  0.9045
 5900SOL    MW423368   2.150   1.759   3.908 -0.1589  0.0265 -0.0242
 5901SOL     OW23369   2.377   4.766   2.683  0.1562 -0.0426  0.2690
 5901SOL    HW223370   2.434   4.841   2.668  0.3735 -0.2494  0.0666
 5901SOL    HW323371   2.289   4.805   2.690  0.1372  0.1337 -0.8213
 5901SOL    MW423372   2.373   4.781   2.682  0.1824 -0.0466  0.0984
 5902SOL     OW23373   0.528   4.525   2.944  0.0870  0.0204 -0.5355
 5902SOL    HW223374   0.543   4.616   2.968 -1.9321  0.1153  0.5691
 5902SOL    HW323375   0.498   4.529   2.853  1.0278  0.3285 -0.8461
 5902SOL    MW423376   0.526   4.537   2.935 -0.0553  0.0735 -0.4307
 5903SOL     OW23377   5.253   4.621   2.547 -0.4039 -0.5159  0.2300
 5903SOL    HW223378   5.332   4.568   2.538 -0.0974  0.1650 -1.4316
 5903SOL    HW323379   5.268   4.673   2.626  1.0033 -0.1167 -0.2651
 5903SOL    MW423380   5.265   4.621   2.556 -0.1778 -0.3734 -0.0546
 5904SOL     OW23381   1.046   3.653   4.138 -0.5240 -0.2162 -0.4115
 5904SOL    HW223382   1.111   3.685   4.200 -1.1068 -0.4061  0.3073
 5904SOL    HW323383   1.096   3.633   4.059  0.6995 -2.6711  0.8991
 5904SOL    MW423384   1.061   3.655   4.136 -0.4395 -0.5651 -0.1438
 5905SOL     OW23385   2.652   4.031   1.350 -0.4819  0.3777 -0.0306
 5905SOL    HW223386   2.607   4.043   1.434 -0.8102 -0.5169 -0.0680
 5905SOL    HW323387   2.612   3.953   1.312  1.3475 -0.6893  0.1198
 5905SOL    MW423388   2.641   4.022   1.356 -0.2838  0.1188 -0.0157
 5906SOL     OW23389   2.515   0.038   5.190 -0.0245  0.5975 -0.8087
 5906SOL    HW223390   2.594  -0.016   5.190  0.3208  1.0954 -0.0512
 5906SOL    HW323391   2.461   0.000   5.260  0.8794  2.1465  0.8151
 5906SOL    MW423392   2.518   0.026   5.199  0.1403  0.8675 -0.4945
 5907SOL     OW23393   0.203   6.297   5.453 -0.1002 -0.3380 -0.1794
 5907SOL    HW223394   0.129   6.271   5.507 -1.4532  0.0679 -1.7656
 5907SOL    HW323395   0.216   6.390   5.473  0.8304 -0.6939  1.0134
 5907SOL    MW423396   0.195   6.306   5.463 -0.1560 -0.3314 -0.2313
 5908SOL     OW23397   4.731   1.523   4.238  0.6732  0.0727  0.0350
 5908SOL    HW223398   4.791   1.542   4.311  0.8596  1.9538 -0.5430
 5908SOL    HW323399   4.661   1.471   4.277  1.1866  0.3532  1.3858
 5908SOL    MW423400   4.730   1.519   4.253  0.7655  0.3579  0.1370
 5909SOL     OW23401   5.224   5.661   2.160 -0.1996  0.1130  0.2208
 5909SOL    HW223402   5.288   5.589   2.157 -0.5404 -0.5087  3.6678
 5909SOL    HW323403   5.276   5.737   2.186 -0.6119 -0.1783  2.0408
 5909SOL    MW423404   5.239   5.661   2.163 -0.2990 -0.0075  0.9157
 5910SOL     OW23405   0.473   5.695   0.222  0.6293 -0.3008 -0.1021
 5910SOL    HW223406   0.447   5.782   0.250  1.3141  0.0174 -0.4476
 5910SOL    HW323407   0.395   5.660   0.177  0.3065  0.0648  0.1694
 5910SOL    MW423408   0.459   5.702   0.220  0.6771 -0.2105 -0.1119
 5911SOL     OW23409   0.231   4.522   2.942  0.2973  0.1244  0.2148
 5911SOL    HW223410   0.199   4.485   3.024  0.0541 -0.3773 -0.1020
 5911SOL    HW323411   0.326   4.526   2.952  0.3854 -1.1664  0.0243
 5911SOL    MW423412   0.239   4.518   2.954  0.2768 -0.1121  0.1479
 5912SOL     OW23413   5.862   4.185   3.809 -0.2687  0.1938 -0.1789
 5912SOL    HW223414   5.884   4.108   3.862  0.3287 -0.4075 -1.2751
 5912SOL    HW323415   5.883   4.160   3.719 -2.9018  0.5684 -0.9783
 5912SOL    MW423416   5.868   4.172   3.804 -0.5373  0.1639 -0.4290
 5913SOL     OW23417   6.335   6.186   5.024  0.1801  0.0233 -0.1176
 5913SOL    HW223418   6.280   6.189   4.945 -3.2985  0.8004  2.1052
 5913SOL    HW323419   6.392   6.262   5.017 -1.4119  1.1989 -1.0578
 5913SOL    MW423420   6.335   6.196   5.012 -0.4889  0.2809  0.0516
 5914SOL     OW23421   0.299   0.873   0.259 -0.8731  0.0802  0.0565
 5914SOL    HW223422   0.235   0.803   0.266 -0.1195 -0.8496 -1.7286
 5914SOL    HW323423   0.292   0.920   0.342 -0.6597 -2.7327  1.8032
 5914SOL    MW423424   0.290   0.870   0.271 -0.7455 -0.4136  0.0515
 5915SOL     OW23425   2.819   3.684   2.575  0.6613 -0.4658 -0.3543
 5915SOL    HW223426   2.880   3.721   2.512  0.3584 -1.5576 -1.3094
 5915SOL    HW323427   2.814   3.750   2.645 -1.3683  2.3266 -2.8438
 5915SOL    MW423428   2.826   3.698   2.576  0.3536 -0.2414 -0.8088
 5916SOL     OW23429   0.971   2.302   4.684 -0.1796  0.9549 -0.5344
 5916SOL    HW223430   0.956   2.217   4.726  0.2690  1.1084 -0.0596
 5916SOL    HW323431   1.040   2.284   4.620  1.4210  1.3792  0.9972
 5916SOL    MW423432   0.978   2.288   4.681  0.0908  1.0311 -0.2697
 5917SOL     OW23433   0.366   5.730   4.414  0.1217  0.2337 -0.6280
 5917SOL    HW223434   0.319   5.813   4.408 -2.1195 -1.0470 -1.7627
 5917SOL    HW323435   0.397   5.713   4.325  2.0121  0.5780 -0.0921
 5917SOL    MW423436   0.364   5.739   4.402  0.0754  0.1102 -0.7070
 5918SOL     OW23437   6.212   5.207   3.603 -0.1143 -0.3961 -0.2267
 5918SOL    HW223438   6.302   5.185   3.581  0.2625  2.0033 -1.3837
 5918SOL    HW323439   6.162   5.184   3.525 -0.2880 -0.4872 -0.0894
 5918SOL    MW423440   6.217   5.201   3.590 -0.0875 -0.0915 -0.3612
 5919SOL     OW23441   4.037   2.617   1.366  0.0218  0.0638  0.1785
 5919SOL    HW223442   4.023   2.557   1.439 -0.8072  0.7123  0.5638
 5919SOL    HW323443   4.054   2.560   1.291  0.2836 -0.6186  0.7533
 5919SOL    MW423444   4.037   2.602   1.365 -0.0530  0.0593  0.3052
 5920SOL     OW23445   5.370   5.534   5.004  0.4010 -0.3450 -0.1271
 5920SOL    HW223446   5.347   5.626   5.001  0.0237 -0.4481 -0.4704
 5920SOL    HW323447   5.377   5.507   4.913  2.7843 -0.1165 -0.0860
 5920SOL    MW423448   5.368   5.542   4.992  0.6657 -0.3285 -0.1670
 5921SOL     OW23449   0.370   0.484   0.726 -0.3732  0.0061 -0.5998
 5921SOL    HW223450   0.379   0.527   0.641 -2.2568  0.6518 -0.5293
 5921SOL    HW323451   0.397   0.393   0.710  1.6008  0.6582 -1.2633
 5921SOL    MW423452   0.375   0.478   0.713 -0.3613  0.1773 -0.6781
 5922SOL     OW23453   5.900   3.049   2.926 -0.1862 -0.1952 -0.5540
 5922SOL    HW223454   5.867   3.026   2.839  1.0127  2.7202 -1.8978
 5922SOL    HW323455   5.822   3.069   2.977 -0.8846 -1.6958 -0.9766
 5922SOL    MW423456   5.886   3.048   2.921 -0.1202 -0.0085 -0.7870
 5923SOL     OW23457   4.228   4.888   4.948  0.4151 -0.0105 -0.6499
 5923SOL    HW223458   4.163   4.945   4.908 -0.3028  0.1841  0.7298
 5923SOL    HW323459   4.183   4.804   4.959  0.4503  0.0650  0.1248
 5923SOL    MW423460   4.214   4.884   4.944  0.3250  0.0252 -0.3656
 5924SOL     OW23461   4.860   5.081   2.875 -0.1678  0.1372  0.6864
 5924SOL    HW223462   4.853   5.121   2.962 -0.3521 -0.5610  1.0034
 5924SOL    HW323463   4.770   5.055   2.853 -0.4314  1.9555 -0.5312
 5924SOL    MW423464   4.847   5.083   2.884 -0.2269  0.2850  0.5676
 5925SOL     OW23465   4.615   2.117   4.974  0.5545  0.7920  0.1693
 5925SOL    HW223466   4.592   2.139   5.064 -0.4489  0.9881 -0.1135
 5925SOL    HW323467   4.636   2.024   4.976  2.7983  1.2755  1.0069
 5925SOL    MW423468   4.615   2.107   4.986  0.7182  0.8817  0.2425
 5926SOL     OW23469   1.879   1.733   6.186 -0.0462 -0.1269 -0.4513
 5926SOL    HW223470   1.835   1.803   6.234  0.1810 -0.2704 -0.0322
 5926SOL    HW323471   1.947   1.702   6.246 -0.9765 -1.5877 -0.1087
 5926SOL    MW423472   1.882   1.739   6.200 -0.1389 -0.3385 -0.3508
 5927SOL     OW23473   2.754   5.400   6.300 -0.1806  0.3235 -0.3853
 5927SOL    HW223474   2.800   5.318   6.280 -0.2371 -0.1727  1.3043
 5927SOL    HW323475   2.820   5.468   6.290 -0.0064  0.0254 -1.3440
 5927SOL    MW423476   2.769   5.398   6.296 -0.1650  0.2187 -0.2889
 5928SOL     OW23477   2.249   2.066   3.098 -0.0083  0.1267 -0.0954
 5928SOL    HW223478   2.158   2.069   3.067  0.5366  0.5798 -1.7948
 5928SOL    HW323479   2.274   1.974   3.090  0.3481  0.3371 -1.8420
 5928SOL    MW423480   2.240   2.054   3.093  0.1106  0.2142 -0.5500
 5929SOL     OW23481   5.137   1.217   1.842  0.3544  0.2932  0.2695
 5929SOL    HW223482   5.112   1.195   1.932 -0.1635  0.1797  0.1011
 5929SOL    HW323483   5.229   1.193   1.837  0.6000  1.0506  1.0069
 5929SOL    MW423484   5.146   1.211   1.854  0.3185  0.3781  0.3446
 5930SOL     OW23485   5.145   0.403   3.794 -0.0669  0.1503  0.0647
 5930SOL    HW223486   5.232   0.388   3.829  1.0226  1.6624 -1.8084
 5930SOL    HW323487   5.092   0.429   3.870  0.7988 -1.7547  1.3896
 5930SOL    MW423488   5.149   0.405   3.808  0.1911  0.0985 -0.0076
 5931SOL     OW23489   5.952   2.565   5.311  0.2523 -0.0684 -0.6802
 5931SOL    HW223490   5.966   2.480   5.353 -0.5926 -0.2070 -0.6662
 5931SOL    HW323491   6.031   2.579   5.258  0.2483 -1.0234 -0.9552
 5931SOL    MW423492   5.964   2.556   5.309  0.1403 -0.2127 -0.7147
 5932SOL     OW23493   1.441   1.517   1.242  0.5449 -0.0743 -0.1138
 5932SOL    HW223494   1.470   1.557   1.324  0.2162  0.4938 -0.2676
 5932SOL    HW323495   1.376   1.452   1.269  0.6176 -0.0645  0.0897
 5932SOL    MW423496   1.436   1.513   1.256  0.5111  0.0019 -0.1072
 5933SOL     OW23497   4.901   1.786   5.841 -0.2045 -0.2315  0.4654
 5933SOL    HW223498   4.975   1.844   5.826 -0.4218  0.3051  1.3830
 5933SOL    HW323499   4.875   1.803   5.932  0.6104 -2.7425  1.2715
 5933SOL    MW423500   4.907   1.796   5.851 -0.1257 -0.4920  0.6928
 5934SOL     OW23501   2.359   1.997   0.262 -0.0282  0.0208 -0.7191
 5934SOL    HW223502   2.285   1.950   0.300 -0.8309  0.6261 -1.4862
 5934SOL    HW323503   2.342   2.089   0.284  0.3753  0.1890 -1.1059
 5934SOL    MW423504   2.347   2.003   0.270 -0.0809  0.1229 -0.8713
 5935SOL     OW23505   5.528   3.897   0.019  0.2351 -0.1687 -0.2949
 5935SOL    HW223506   5.561   3.981  -0.012  2.1380 -0.1586  1.5155
 5935SOL    HW323507   5.474   3.919   0.095  1.0059 -0.5598  0.3854
 5935SOL    MW423508   5.525   3.911   0.025  0.5879 -0.2190  0.0337
 5936SOL     OW23509   4.981   0.904   5.200 -0.9657 -0.5370 -0.1856
 5936SOL    HW223510   5.035   0.969   5.156 -0.2066 -0.8329  0.2931
 5936SOL    HW323511   5.043   0.842   5.238 -1.6368 -0.8609  0.4169
 5936SOL    MW423512   4.996   0.905   5.199 -0.9541 -0.6188 -0.0429
 5937SOL     OW23513   1.999   0.880   1.227 -0.4428  0.5039 -0.1190
 5937SOL    HW223514   2.029   0.971   1.234  1.1431 -0.0055  0.2219
 5937SOL    HW323515   1.949   0.877   1.146  2.1608  1.0164 -1.8557
 5937SOL    MW423516   1.996   0.891   1.217  0.1100  0.5043 -0.3032
 5938SOL     OW23517   6.236   0.334   2.417 -0.0332 -0.1080  0.3986
 5938SOL    HW223518   6.159   0.313   2.365 -0.4504  1.8206  0.1809
 5938SOL    HW323519   6.239   0.265   2.484 -1.7689 -0.3721  0.2348
 5938SOL    MW423520   6.226   0.322   2.419 -0.3172  0.1116  0.3483
 5939SOL     OW23521   0.764   6.424   1.758 -0.1912  0.3999 -0.1730
 5939SOL    HW223522   0.789   6.504   1.805 -0.8069  1.5176 -1.6559
 5939SOL    HW323523   0.696   6.384   1.812  0.2711  0.7653  0.6899
 5939SOL    MW423524   0.758   6.429   1.771 -0.2115  0.5956 -0.2548
 5940SOL     OW23525   4.623   6.245   0.467 -0.6886 -0.1713 -0.2998
 5940SOL    HW223526   4.604   6.152   0.461  0.1709 -0.5233  1.5953
 5940SOL    HW323527   4.539   6.286   0.485 -0.8211 -0.8184  0.6133
 5940SOL    MW423528   4.610   6.238   0.469 -0.5927 -0.3031  0.0707
 5941SOL     OW23529   4.118   5.454   2.835  0.3103 -0.1180  0.6002
 5941SOL    HW223530   4.065   5.410   2.768 -1.7392  2.0639  0.6425
 5941SOL    HW323531   4.079   5.428   2.918  0.4912  0.0635  0.7418
 5941SOL    MW423532   4.106   5.445   2.837  0.0638  0.1939  0.6244
 5942SOL     OW23533   3.322   3.107   0.051 -0.4198  0.3832 -0.0590
 5942SOL    HW223534   3.367   3.172  -0.003 -1.0535 -0.1301 -1.2579
 5942SOL    HW323535   3.244   3.152   0.083 -0.9823  0.1663 -1.0849
 5942SOL    MW423536   3.317   3.122   0.048 -0.5776  0.2869 -0.3525
 5943SOL     OW23537   5.242   1.760   5.172  0.5918 -0.4596  0.0469
 5943SOL    HW223538   5.224   1.768   5.079  0.1139  0.0823  0.1782
 5943SOL    HW323539   5.156   1.755   5.213  0.7995 -0.8302  0.4510
 5943SOL    MW423540   5.229   1.760   5.165  0.5562 -0.4370  0.1175
 5944SOL     OW23541   0.698   2.619   3.365  0.2679  0.5922  0.2700
 5944SOL    HW223542   0.776   2.593   3.414  1.3007  0.8544 -1.1492
 5944SOL    HW323543   0.732   2.680   3.299 -1.8109  4.7571  2.6660
 5944SOL    MW423544   0.713   2.624   3.363  0.1299  1.1763  0.3988
 5945SOL     OW23545   0.908   2.345   1.464 -0.2348  0.1613  0.3460
 5945SOL    HW223546   0.911   2.381   1.553 -0.9863 -0.8217  0.7904
 5945SOL    HW323547   0.965   2.269   1.467 -0.1534  0.2043 -0.0563
 5945SOL    MW423548   0.916   2.340   1.476 -0.3232  0.0373  0.3515
 5946SOL     OW23549   1.414   3.789   2.231  0.4065  0.0963 -0.0715
 5946SOL    HW223550   1.500   3.825   2.253  0.9212 -0.2068 -1.4707
 5946SOL    HW323551   1.434   3.706   2.188 -0.5100  0.5848 -1.5140
 5946SOL    MW423552   1.428   3.783   2.228  0.3535  0.1207 -0.4465
 5947SOL     OW23553   0.515   4.119   3.160  0.4691 -0.3037  0.3219
 5947SOL    HW223554   0.554   4.045   3.206 -0.5040 -1.4780 -0.6886
 5947SOL    HW323555   0.589   4.174   3.136  1.2630 -1.2328  0.6025
 5947SOL    MW423556   0.530   4.117   3.163  0.4454 -0.5812  0.2256
 5948SOL     OW23557   5.951   0.126   1.462  0.0364 -0.5731  0.6486
 5948SOL    HW223558   5.989   0.070   1.394 -0.1986 -1.7258  1.4422
 5948SOL    HW323559   5.861   0.140   1.433  0.0658 -0.6794  0.5041
 5948SOL    MW423560   5.944   0.120   1.449  0.0093 -0.7392  0.7343
 5949SOL     OW23561   1.181   2.980   1.560  0.0476  0.1075 -0.0512
 5949SOL    HW223562   1.266   2.970   1.518 -0.7333  0.1259 -1.6983
 5949SOL    HW323563   1.182   3.070   1.595  0.4043  0.3814 -0.7619
 5949SOL    MW423564   1.192   2.991   1.559 -0.0084  0.1460 -0.3623
 5950SOL     OW23565   1.631   3.006   2.115 -0.1636  0.2555  0.9906
 5950SOL    HW223566   1.673   2.950   2.049 -1.6674  0.1198  0.1108
 5950SOL    HW323567   1.698   3.016   2.183  1.2094 -0.1174 -0.2424
 5950SOL    MW423568   1.646   3.000   2.115 -0.1808  0.1884  0.7118
 5951SOL     OW23569   1.693   2.779   2.507 -0.8368  0.6813  0.2348
 5951SOL    HW223570   1.624   2.737   2.454  0.7742 -0.6906 -0.8697
 5951SOL    HW323571   1.728   2.848   2.451 -1.3634  1.4537  0.8404
 5951SOL    MW423572   1.688   2.782   2.493 -0.6937  0.6022  0.1690
 5952SOL     OW23573   6.094   4.154   2.781  0.7974 -0.0473 -0.1245
 5952SOL    HW223574   6.077   4.061   2.797  0.9440 -0.1885 -0.7293
 5952SOL    HW323575   6.087   4.162   2.685  1.0608  0.5086 -0.0968
 5952SOL    MW423576   6.091   4.143   2.770  0.8515  0.0074 -0.2006
 5953SOL     OW23577   2.968   0.882   5.477 -0.4767 -0.5219  0.0533
 5953SOL    HW223578   2.937   0.972   5.485 -0.5315 -0.6791  2.1617
 5953SOL    HW323579   3.054   0.891   5.436 -0.4010  0.5217  0.3947
 5953SOL    MW423580   2.975   0.895   5.473 -0.4739 -0.4050  0.3765
 5954SOL     OW23581   6.030   4.465   1.084  0.4160  0.4951  0.1399
 5954SOL    HW223582   5.998   4.375   1.079 -2.5097  1.4736 -1.2157
 5954SOL    HW323583   6.112   4.465   1.035  1.1730 -1.6513  1.3019
 5954SOL    MW423584   6.037   4.453   1.077  0.1298  0.3410  0.1143
 5955SOL     OW23585   1.745   0.597   0.103 -0.6891  0.2626  0.2929
 5955SOL    HW223586   1.830   0.639   0.088 -0.1183 -0.9597 -0.0916
 5955SOL    HW323587   1.683   0.669   0.108  0.2340  1.1369 -0.3803
 5955SOL    MW423588   1.748   0.612   0.102 -0.4920  0.2167  0.1534
 5956SOL     OW23589   6.301   2.138   5.180 -0.1357 -0.0749  0.3249
 5956SOL    HW223590   6.274   2.065   5.124 -0.4922 -0.3230  0.8218
 5956SOL    HW323591   6.373   2.179   5.132 -0.8831  0.1326 -0.6562
 5956SOL    MW423592   6.307   2.134   5.166 -0.2813 -0.0802  0.2610
 5957SOL     OW23593   2.234   2.908   6.069  0.4637  0.1027  0.2607
 5957SOL    HW223594   2.213   2.872   5.983 -0.5582  2.3585 -0.4914
 5957SOL    HW323595   2.325   2.882   6.084  1.4005  1.4251 -2.4894
 5957SOL    MW423596   2.243   2.900   6.060  0.4525  0.5748 -0.2014
 5958SOL     OW23597   5.662   3.008   6.113  0.5550  0.2603  0.1674
 5958SOL    HW223598   5.569   2.989   6.122  0.3928 -0.2764 -2.1161
 5958SOL    HW323599   5.705   2.938   6.163 -0.2370 -0.9465 -0.7912
 5958SOL    MW423600   5.656   2.996   6.121  0.4291  0.0303 -0.2604
 5959SOL     OW23601   5.483   2.590   5.736 -0.2650 -0.1382  0.4123
 5959SOL    HW223602   5.395   2.577   5.700  0.3827 -2.2623 -0.5631
 5959SOL    HW323603   5.542   2.550   5.672  1.3266  0.1694  1.6136
 5959SOL    MW423604   5.479   2.583   5.723  0.0305 -0.3778  0.4421
 5960SOL     OW23605   5.744   2.730   0.547  0.1587  0.2884 -0.1601
 5960SOL    HW223606   5.778   2.731   0.636 -1.1972  1.5297  0.3977
 5960SOL    HW323607   5.649   2.735   0.558 -0.2108 -1.9276 -1.6548
 5960SOL    MW423608   5.736   2.731   0.560 -0.0690  0.1598 -0.2837
 5961SOL     OW23609   4.332   1.208   1.022 -0.2808 -0.7119 -0.4627
 5961SOL    HW223610   4.257   1.267   1.009  0.0225 -0.4733 -1.1718
 5961SOL    HW323611   4.292   1.124   1.042 -0.7740 -0.7857 -1.6751
 5961SOL    MW423612   4.317   1.205   1.023 -0.3058 -0.6902 -0.7162
 5962SOL     OW23613   0.800   2.910   6.005 -0.2635 -0.2316  0.2951
 5962SOL    HW223614   0.829   2.836   6.057 -0.1832  0.2167  0.8955
 5962SOL    HW323615   0.863   2.979   6.023 -0.4756  0.0630 -0.0693
 5962SOL    MW423616   0.812   2.909   6.014 -0.2809 -0.1336  0.3262
 5963SOL     OW23617   0.035   1.337   4.490 -0.5555  0.0298  0.1860
 5963SOL    HW223618   0.103   1.273   4.470 -0.7117  0.0630 -0.4713
 5963SOL    HW323619   0.018   1.326   4.583 -0.5587 -0.8665  0.0814
 5963SOL    MW423620   0.041   1.327   4.500 -0.5765 -0.0841  0.0855
 5964SOL     OW23621   3.064   2.137   4.832  0.5336  0.6947  0.3351
 5964SOL    HW223622   3.107   2.068   4.882 -0.0747 -0.0212 -0.1190
 5964SOL    HW323623   3.109   2.138   4.748 -0.7967 -0.5996 -0.4431
 5964SOL    MW423624   3.075   2.128   4.827  0.2778  0.4295  0.1725
 5965SOL     OW23625   3.400   0.991   5.042  0.3840 -0.5765  0.2049
 5965SOL    HW223626   3.413   1.067   5.099  1.2072 -0.1375 -0.5509
 5965SOL    HW323627   3.413   0.916   5.100  0.7675 -0.1440  0.6934
 5965SOL    MW423628   3.403   0.991   5.057  0.5432 -0.4615  0.1696
 5966SOL     OW23629   2.086   4.455   4.185  0.0765  0.1676 -0.3836
 5966SOL    HW223630   2.147   4.472   4.256 -0.0215 -0.3434 -0.1718
 5966SOL    HW323631   2.124   4.381   4.137  0.1914  0.5658 -0.9193
 5966SOL    MW423632   2.099   4.448   4.188  0.0788  0.1527 -0.4263
 5967SOL     OW23633   1.227   5.220   0.029 -0.4632 -0.0847 -0.3513
 5967SOL    HW223634   1.294   5.182   0.086 -1.4868 -0.0589  0.9171
 5967SOL    HW323635   1.254   5.196  -0.060 -0.0559 -2.1225  0.2828
 5967SOL    MW423636   1.239   5.212   0.025 -0.5445 -0.3502 -0.1003
 5968SOL     OW23637   6.192   2.779   3.625 -0.0152  0.1466  0.5515
 5968SOL    HW223638   6.269   2.788   3.681 -0.1725  0.3931  0.7317
 5968SOL    HW323639   6.207   2.699   3.575  0.4354  0.2858  0.4648
 5968SOL    MW423640   6.204   2.770   3.626  0.0235  0.1975  0.5639
 5969SOL     OW23641   1.513   6.038   2.554 -0.2387  0.2316  0.2887
 5969SOL    HW223642   1.561   5.957   2.573 -0.5892 -0.1807 -0.5355
 5969SOL    HW323643   1.573   6.108   2.582 -0.7073 -0.3020  2.8016
 5969SOL    MW423644   1.527   6.037   2.560 -0.3468  0.1068  0.5115
 5970SOL     OW23645   5.975   1.385   5.727  0.2433  1.1082  0.3508
 5970SOL    HW223646   5.994   1.357   5.817 -0.3560  1.6167  0.6431
 5970SOL    HW323647   6.006   1.313   5.673  0.4433  0.7104  0.9813
 5970SOL    MW423648   5.981   1.372   5.732  0.1906  1.1228  0.4725
 5971SOL     OW23649   0.498   6.191   3.497  0.7176  0.2074  0.3949
 5971SOL    HW223650   0.430   6.254   3.472  0.8824  0.0028 -0.5990
 5971SOL    HW323651   0.495   6.124   3.430  2.4658  0.6250 -0.1643
 5971SOL    MW423652   0.489   6.191   3.485  0.9700  0.2355  0.1900
 5972SOL     OW23653   2.050   4.761   5.326 -0.2140  0.3839 -0.1395
 5972SOL    HW223654   1.955   4.755   5.310 -0.2662 -3.0470  0.7685
 5972SOL    HW323655   2.064   4.710   5.406  2.6347 -1.2253 -1.5250
 5972SOL    MW423656   2.039   4.754   5.334  0.1549 -0.2811 -0.2025
 5973SOL     OW23657   5.104   4.761   1.522 -0.4770  0.1057  0.2788
 5973SOL    HW223658   5.012   4.734   1.521 -1.2381  2.4825  0.1543
 5973SOL    HW323659   5.125   4.771   1.615 -0.1228 -1.0380  0.3356
 5973SOL    MW423660   5.095   4.758   1.534 -0.5307  0.2684  0.2698
 5974SOL     OW23661   4.087   6.413   0.142 -0.6758 -0.1533 -0.2483
 5974SOL    HW223662   4.079   6.429   0.048  3.4359 -1.9668 -1.1197
 5974SOL    HW323663   4.048   6.327   0.155  0.5046 -0.7883 -0.7558
 5974SOL    MW423664   4.080   6.404   0.132  0.0225 -0.4763 -0.4302
 5975SOL     OW23665   3.897   3.782   0.974 -0.3336  0.1859 -0.3037
 5975SOL    HW223666   3.870   3.703   1.020  3.4324 -1.1414  0.0000
 5975SOL    HW323667   3.905   3.848   1.043  3.2448 -1.2317  0.8797
 5975SOL    MW423668   3.895   3.781   0.989  0.6354 -0.1763 -0.1075
 5976SOL     OW23669   0.975   4.778   2.548 -0.1588  0.0320 -0.4260
 5976SOL    HW223670   1.013   4.778   2.636  0.4679 -2.1963 -0.6336
 5976SOL    HW323671   1.009   4.858   2.507 -1.1173  1.5605  1.5763
 5976SOL    MW423672   0.984   4.789   2.554 -0.2026 -0.0603 -0.1892
 5977SOL     OW23673   0.544   2.452   4.803  0.0432  0.1301 -0.4908
 5977SOL    HW223674   0.471   2.506   4.772 -0.2189 -0.3967 -0.7918
 5977SOL    HW323675   0.600   2.440   4.726  1.4770  2.1059  0.1319
 5977SOL    MW423676   0.542   2.458   4.789  0.1978  0.3213 -0.4484
 5978SOL     OW23677   3.869   1.030   0.530  0.0170 -0.3088  0.0838
 5978SOL    HW223678   3.804   1.068   0.472 -0.3281  1.0134  1.2766
 5978SOL    HW323679   3.935   1.099   0.541  1.9400 -1.7831 -1.4966
 5978SOL    MW423680   3.870   1.044   0.524  0.2252 -0.3289  0.0327
 5979SOL     OW23681   1.690   5.589   4.266 -0.4852  0.3707 -0.2080
 5979SOL    HW223682   1.783   5.598   4.243 -0.3005  0.9710  0.7367
 5979SOL    HW323683   1.644   5.598   4.182  0.2762  0.6825 -0.6005
 5979SOL    MW423684   1.696   5.592   4.252 -0.3604  0.4911 -0.1352
 5980SOL     OW23685   0.936   0.137   4.100  0.0408  0.2226 -0.6097
 5980SOL    HW223686   1.008   0.100   4.151 -0.0092 -2.7236 -2.4535
 5980SOL    HW323687   0.978   0.206   4.048  1.2586 -0.5324 -0.6752
 5980SOL    MW423688   0.951   0.141   4.100  0.1949 -0.2658 -0.8616
 5981SOL     OW23689   5.692   4.076   0.522  0.2751  0.4143  0.8831
 5981SOL    HW223690   5.744   4.077   0.442 -0.7623  1.0558  0.1980
 5981SOL    HW323691   5.650   3.989   0.522  0.8410  0.1365  1.1160
 5981SOL    MW423692   5.693   4.065   0.511  0.2129  0.4623  0.8235
 5982SOL     OW23693   4.818   1.910   6.086  0.5364  0.3116 -0.0952
 5982SOL    HW223694   4.874   1.872   6.154  2.0841  0.9936 -0.9284
 5982SOL    HW323695   4.729   1.884   6.110  1.2196 -0.9898  1.1744
 5982SOL    MW423696   4.814   1.901   6.098  0.8307  0.2299 -0.0376
 5983SOL     OW23697   0.192   3.932   2.060  0.5954 -0.2030 -0.2061
 5983SOL    HW223698   0.207   3.972   1.975  0.5925  1.2093  0.4100
 5983SOL    HW323699   0.259   3.865   2.068  0.1803 -0.8107 -1.5767
 5983SOL    MW423700   0.203   3.929   2.050  0.5402 -0.0968 -0.3057
 5984SOL     OW23701   4.979   4.846   3.964  0.2917  0.3250 -0.1041
 5984SOL    HW223702   5.003   4.933   3.997 -3.1563  1.7257 -0.7583
 5984SOL    HW323703   4.916   4.813   4.029  0.9537 -1.3462 -0.2886
 5984SOL    MW423704   4.974   4.853   3.977 -0.0759  0.2893 -0.2147
 5985SOL     OW23705   3.785   3.814   5.779 -0.3020  0.2137 -0.2477
 5985SOL    HW223706   3.826   3.899   5.792  0.2405  0.0249 -0.6604
 5985SOL    HW323707   3.855   3.760   5.741 -1.1051  0.0368 -1.4921
 5985SOL    MW423708   3.800   3.818   5.776 -0.3364  0.1655 -0.4663
 5986SOL     OW23709   4.780   2.229   5.665 -0.5856  0.1310  0.6484
 5986SOL    HW223710   4.746   2.149   5.626  2.7259 -0.4906 -1.3352
 5986SOL    HW323711   4.789   2.209   5.758  0.7778 -2.1433  0.1095
 5986SOL    MW423712   4.777   2.216   5.672  0.0312 -0.2511  0.3156
 5987SOL     OW23713   4.067   4.649   5.409 -0.2985  0.4295  0.0988
 5987SOL    HW223714   4.106   4.567   5.440 -0.3936 -0.2868 -1.5427
 5987SOL    HW323715   4.128   4.680   5.342 -0.4379  1.5425  0.4778
 5987SOL    MW423716   4.080   4.642   5.404 -0.3294  0.4818 -0.0677
 5988SOL     OW23717   5.423   2.394   1.906 -0.5155 -0.1392 -0.1005
 5988SOL    HW223718   5.459   2.411   1.993  0.5666  3.0995 -1.0342
 5988SOL    HW323719   5.469   2.315   1.876 -0.1371 -0.7011  1.8046
 5988SOL    MW423720   5.433   2.385   1.914 -0.3228  0.2140  0.0277
 5989SOL     OW23721   0.426   5.637   1.899  0.2308 -0.4937  0.5527
 5989SOL    HW223722   0.350   5.598   1.856 -0.6313  0.2499  1.3554
 5989SOL    HW323723   0.439   5.721   1.855 -0.2064 -0.0564  1.2433
 5989SOL    MW423724   0.418   5.643   1.888  0.0594 -0.3379  0.7498
 5990SOL     OW23725   3.770   2.665   3.674  0.0437  0.3939 -0.3631
 5990SOL    HW223726   3.864   2.672   3.690 -0.1990  1.1494  0.9127
 5990SOL    HW323727   3.752   2.571   3.679  0.7783  0.2197 -0.9423
 5990SOL    MW423728   3.780   2.653   3.677  0.1086  0.4706 -0.2712
 5991SOL     OW23729   1.633   5.846   3.588 -0.3684 -0.3999 -0.3709
 5991SOL    HW223730   1.714   5.829   3.539 -0.1878  1.8362 -0.9769
 5991SOL    HW323731   1.563   5.815   3.530 -0.0143 -1.5939 -0.1958
 5991SOL    MW423732   1.635   5.840   3.574 -0.2979 -0.2624 -0.4277
 5992SOL     OW23733   4.690   0.201   3.479  0.3723  0.2225  0.2661
 5992SOL    HW223734   4.725   0.125   3.525 -0.0237  0.8889  1.7319
 5992SOL    HW323735   4.634   0.165   3.411  1.6633 -0.8089 -0.2998
 5992SOL    MW423736   4.687   0.186   3.476  0.4904  0.1743  0.3848
 5993SOL     OW23737   1.853   0.502   4.128  0.4500 -0.3662 -0.4222
 5993SOL    HW223738   1.917   0.440   4.164  0.9518  1.6587  2.4833
 5993SOL    HW323739   1.768   0.461   4.145  0.8093 -0.9585  0.0002
 5993SOL    MW423740   1.850   0.488   4.135  0.5636 -0.1772  0.0169
 5994SOL     OW23741   3.540   6.067   1.586 -0.5009 -0.4272 -0.3504
 5994SOL    HW223742   3.564   6.072   1.493  0.5574 -1.3760 -0.1464
 5994SOL    HW323743   3.504   6.153   1.606  2.8022  1.1974 -0.7028
 5994SOL    MW423744   3.538   6.079   1.576  0.0746 -0.3380 -0.3699
 5995SOL     OW23745   5.933   3.543   0.018  0.4182  0.2351  0.2393
 5995SOL    HW223746   5.990   3.467   0.004 -0.8062 -1.1672  2.2843
 5995SOL    HW323747   5.993   3.612   0.048  1.4595 -0.0998 -0.9749
 5995SOL    MW423748   5.949   3.542   0.020  0.3941  0.0059  0.3489
 5996SOL     OW23749   3.180   3.322   4.415  0.1581  0.0598  0.0022
 5996SOL    HW223750   3.260   3.351   4.459 -0.4550 -0.3375  1.4439
 5996SOL    HW323751   3.157   3.240   4.459 -1.0091  0.1397 -0.4381
 5996SOL    MW423752   3.188   3.315   4.427 -0.0768  0.0179  0.1343
 5997SOL     OW23753   0.204   4.885   3.552 -0.3193  0.2181 -0.0675
 5997SOL    HW223754   0.143   4.954   3.526 -0.1561  0.1831 -0.5536
 5997SOL    HW323755   0.218   4.834   3.472  0.3993  0.2669  0.0211
 5997SOL    MW423756   0.198   4.887   3.538 -0.2030  0.2199 -0.1200
 5998SOL     OW23757   5.985   2.563   3.898 -0.1692  0.5562 -0.3007
 5998SOL    HW223758   5.971   2.618   3.822  1.4427  1.9069  0.3339
 5998SOL    HW323759   6.076   2.578   3.923 -0.5526 -0.1018  1.6814
 5998SOL    MW423760   5.995   2.572   3.891 -0.0071  0.6476  0.0445
 5999SOL     OW23761   3.627   2.557   0.291  0.0685  0.2397 -0.4816
 5999SOL    HW223762   3.554   2.520   0.241  1.5847  0.1888 -2.8011
 5999SOL    HW323763   3.642   2.643   0.251  0.5140  0.7774  0.7870
 5999SOL    MW423764   3.619   2.564   0.279  0.3273  0.3039 -0.6202
 6000SOL     OW23765   4.825   3.846   3.606  0.0557 -0.3075 -0.5979
 6000SOL    HW223766   4.769   3.922   3.626  0.1659 -0.3090 -0.2729
 6000SOL    HW323767   4.764   3.779   3.576  0.0287  0.1279 -1.5557
 6000SOL    MW423768   4.809   3.847   3.605  0.0667 -0.2503 -0.6814
 6001SOL     OW23769   2.562   4.226   3.215 -0.1290 -0.1422 -0.2209
 6001SOL    HW223770   2.474   4.194   3.234 -0.2624 -0.1681 -0.8574
 6001SOL    HW323771   2.602   4.238   3.301 -0.5653 -0.6622  0.0636
 6001SOL    MW423772   2.556   4.223   3.229 -0.2041 -0.2142 -0.2673
 6002SOL     OW23773   4.013   0.735   5.310 -0.3913 -0.0070 -0.2161
 6002SOL    HW223774   4.083   0.734   5.244 -0.8431 -0.8433 -0.7065
 6002SOL    HW323775   3.984   0.644   5.315 -1.9644  0.4468 -0.5876
 6002SOL    MW423776   4.018   0.723   5.302 -0.6585 -0.0575 -0.3298
 6003SOL     OW23777   1.137   5.793   4.022  0.9608  0.3693  0.8340
 6003SOL    HW223778   1.101   5.822   4.106 -0.0249 -2.2353  1.3851
 6003SOL    HW323779   1.162   5.702   4.036 -0.7612 -0.7054 -2.1026
 6003SOL    MW423780   1.136   5.785   4.035  0.6035 -0.1162  0.5192
 6004SOL     OW23781   1.290   3.749   1.708 -0.2639 -0.6030 -0.2354
 6004SOL    HW223782   1.247   3.735   1.624 -0.5924  1.3391 -0.4543
 6004SOL    HW323783   1.221   3.740   1.773 -0.2066 -1.1730 -0.2506
 6004SOL    MW423784   1.275   3.746   1.706 -0.2997 -0.4219 -0.2663
 6005SOL     OW23785   5.944   2.357   5.721  0.0600  0.1043 -0.3617
 6005SOL    HW223786   5.888   2.433   5.704 -1.7545 -0.8592  1.0071
 6005SOL    HW323787   5.978   2.370   5.809 -1.2857 -1.2226  0.3968
 6005SOL    MW423788   5.941   2.368   5.730 -0.3569 -0.1979 -0.0810
 6006SOL     OW23789   6.109   5.152   3.347 -0.1243  0.0255  0.1553
 6006SOL    HW223790   6.044   5.222   3.359  2.1058  1.9793  1.7885
 6006SOL    HW323791   6.067   5.075   3.387 -0.8893  1.6216  2.7278
 6006SOL    MW423792   6.095   5.151   3.354  0.0690  0.4938  0.7102
 6007SOL     OW23793   1.863   4.238   0.858 -0.2555 -0.4318  0.3122
 6007SOL    HW223794   1.841   4.276   0.773 -1.4117 -0.6536  0.5026
 6007SOL    HW323795   1.893   4.149   0.838 -1.6182 -0.8845  0.2212
 6007SOL    MW423796   1.864   4.231   0.844 -0.5878 -0.5208  0.3253
 6008SOL     OW23797   6.277   5.514   4.791  0.6882  0.3235  0.2498
 6008SOL    HW223798   6.279   5.537   4.698 -0.5959  1.3465  0.4453
 6008SOL    HW323799   6.346   5.568   4.830 -0.1282  1.4403  0.1890
 6008SOL    MW423800   6.287   5.524   4.784  0.4111  0.6058  0.2675
 6009SOL     OW23801   5.271   0.583   5.144 -0.5134 -0.5296 -0.3027
 6009SOL    HW223802   5.223   0.502   5.160  0.6376 -1.0906  0.5264
 6009SOL    HW323803   5.260   0.600   5.050 -0.0318 -2.1636 -0.6922
 6009SOL    MW423804   5.263   0.575   5.134 -0.2980 -0.8192 -0.2447
 6010SOL     OW23805   1.905   5.214   0.706 -0.7293 -0.0346  0.1577
 6010SOL    HW223806   1.990   5.254   0.690 -0.2417 -0.2849  1.9530
 6010SOL    HW323807   1.844   5.265   0.651  0.3994  0.8278 -0.3303
 6010SOL    MW423808   1.908   5.226   0.696 -0.5161  0.0461  0.3302
 6011SOL     OW23809   3.680   4.210   5.012 -0.0698 -0.1329 -0.1041
 6011SOL    HW223810   3.728   4.251   5.084  0.8488  0.5945 -1.0898
 6011SOL    HW323811   3.722   4.245   4.933 -0.3022 -1.7864 -0.9951
 6011SOL    MW423812   3.692   4.220   5.011  0.0207 -0.2551 -0.3517
 6012SOL     OW23813   3.852   0.765   4.208  0.2229 -0.3875  0.2454
 6012SOL    HW223814   3.896   0.745   4.291 -0.5052 -0.0300  0.7232
 6012SOL    HW323815   3.775   0.816   4.233 -0.5386 -1.1193 -0.5717
 6012SOL    MW423816   3.848   0.769   4.222  0.0264 -0.4369  0.2007
 6013SOL     OW23817   1.498   5.109   5.495 -0.1469  0.1047 -0.3500
 6013SOL    HW223818   1.405   5.116   5.517 -0.0539 -0.7770  0.3949
 6013SOL    HW323819   1.534   5.194   5.518 -0.8809  0.6740 -1.2410
 6013SOL    MW423820   1.490   5.121   5.501 -0.2315  0.0635 -0.3693
 6014SOL     OW23821   2.308   2.573   0.270 -0.1186 -0.1664  0.8388
 6014SOL    HW223822   2.358   2.601   0.194  0.0614  1.0094  1.3613
 6014SOL    HW323823   2.240   2.640   0.280  0.7289  0.5064  2.5373
 6014SOL    MW423824   2.306   2.585   0.261  0.0170  0.0775  1.1318
 6015SOL     OW23825   2.725   0.859   1.548  0.5333  0.0580 -0.1399
 6015SOL    HW223826   2.818   0.865   1.572  0.6362 -1.9638  0.1244
 6015SOL    HW323827   2.720   0.780   1.493 -1.3657 -1.1949  1.6937
 6015SOL    MW423828   2.737   0.849   1.544  0.2963 -0.3740  0.1369
 6016SOL     OW23829   5.055   5.858   4.839 -0.0911  0.5649  0.9173
 6016SOL    HW223830   5.004   5.803   4.898 -0.0264 -0.4009  0.0999
 6016SOL    HW323831   4.991   5.912   4.795 -0.3027  0.1491  0.7081
 6016SOL    MW423832   5.040   5.857   4.841 -0.1105  0.3826  0.7818
 6017SOL     OW23833   0.922   2.718   2.981  0.4949  0.0561  0.0321
 6017SOL    HW223834   0.934   2.761   2.897 -0.7070  0.5605  0.0893
 6017SOL    HW323835   0.967   2.634   2.972  0.5791  0.1988 -1.0358
 6017SOL    MW423836   0.929   2.713   2.969  0.3474  0.1414 -0.1012
 6018SOL     OW23837   4.322   2.221   3.577  0.0576 -0.1730 -0.3043
 6018SOL    HW223838   4.323   2.221   3.481 -1.6236  0.0793 -0.3402
 6018SOL    HW323839   4.270   2.144   3.601  1.4639 -0.9372  0.4555
 6018SOL    MW423840   4.316   2.210   3.568  0.0214 -0.2405 -0.2088
 6019SOL     OW23841   1.216   0.159   5.382  0.1464  0.1736  0.6499
 6019SOL    HW223842   1.211   0.063   5.381  0.2401  0.1696 -0.3208
 6019SOL    HW323843   1.143   0.185   5.439 -0.4933 -0.4554  0.1529
 6019SOL    MW423844   1.205   0.150   5.389  0.0744  0.0901  0.4563
 6020SOL     OW23845   3.751   3.591   4.253 -0.2580  0.4624 -0.7576
 6020SOL    HW223846   3.812   3.627   4.317 -1.1939  0.6293  0.0590
 6020SOL    HW323847   3.764   3.497   4.258  0.7839  0.5405 -1.4784
 6020SOL    MW423848   3.761   3.584   4.262 -0.2440  0.4947 -0.7449
 6021SOL     OW23849   2.125   3.680   4.841  0.2113  0.0665 -0.2434
 6021SOL    HW223850   2.147   3.771   4.817 -0.9389  0.8211  1.3849
 6021SOL    HW323851   2.136   3.678   4.936  1.3176 -1.8536 -0.3695
 6021SOL    MW423852   2.129   3.692   4.850  0.2055 -0.0873 -0.0452
 6022SOL     OW23853   3.886   2.799   1.616  0.0371  0.3346  0.2496
 6022SOL    HW223854   3.865   2.798   1.523  0.1720 -0.8121  0.2219
 6022SOL    HW323855   3.981   2.807   1.620 -0.0043  0.8753  0.3093
 6022SOL    MW423856   3.895   2.800   1.605  0.0495  0.2547  0.2539
 6023SOL     OW23857   2.046   0.331   2.311  0.2710  0.2035 -0.0743
 6023SOL    HW223858   2.069   0.238   2.320  0.5518  0.3285  0.5432
 6023SOL    HW323859   1.985   0.333   2.238  0.3720 -0.4538 -0.1848
 6023SOL    MW423860   2.041   0.319   2.303  0.3214  0.1332 -0.0074
 6024SOL     OW23861   1.033   1.180   4.157 -0.0541  1.3257  0.6963
 6024SOL    HW223862   0.990   1.098   4.133 -2.0576  2.0722  1.4267
 6024SOL    HW323863   1.124   1.157   4.172 -0.5774 -0.7672  0.9283
 6024SOL    MW423864   1.039   1.166   4.156 -0.3875  1.1481  0.8233
 6025SOL     OW23865   1.696   5.584   1.616 -0.2106  0.1965  0.3997
 6025SOL    HW223866   1.676   5.564   1.707 -0.5802 -0.3241  0.2048
 6025SOL    HW323867   1.611   5.583   1.572 -0.0623  0.6839  0.0905
 6025SOL    MW423868   1.682   5.581   1.622 -0.2398  0.1922  0.3332
 6026SOL     OW23869   2.932   4.725   0.263 -0.3633  0.2246 -0.2418
 6026SOL    HW223870   2.933   4.704   0.356  1.6154 -1.0586 -0.4742
 6026SOL    HW323871   2.875   4.659   0.224  0.3018 -0.4237 -0.1380
 6026SOL    MW423872   2.925   4.713   0.270 -0.0144 -0.0302 -0.2588
 6027SOL     OW23873   5.274   6.334   6.325 -0.5121  0.4502 -0.1921
 6027SOL    HW223874   5.226   6.407   6.366 -0.9134 -0.3409  0.7886
 6027SOL    HW323875   5.354   6.374   6.291 -1.7396  1.7730 -1.6837
 6027SOL    MW423876   5.278   6.349   6.326 -0.7270  0.5203 -0.2595
 6028SOL     OW23877   3.420   5.678   3.045 -0.2666  0.4709  0.2781
 6028SOL    HW223878   3.499   5.695   2.994 -1.3058  2.0033 -0.9377
 6028SOL    HW323879   3.440   5.712   3.132  0.8614 -0.3975  0.3785
 6028SOL    MW423880   3.433   5.685   3.049 -0.2549  0.5585  0.1309
 6029SOL     OW23881   2.233   4.003   3.761 -0.1244 -0.0252  0.5900
 6029SOL    HW223882   2.207   4.094   3.744 -0.1683 -0.1673 -0.1361
 6029SOL    HW323883   2.186   3.980   3.841  0.4644  0.8242  1.2034
 6029SOL    MW423884   2.223   4.012   3.769 -0.0525  0.0681  0.5751
 6030SOL     OW23885   4.066   3.008   2.849  0.0868  0.0463  0.4330
 6030SOL    HW223886   4.089   3.068   2.778  0.7478  0.3644  0.9112
 6030SOL    HW323887   4.102   2.923   2.822  0.2372  0.1406  0.3354
 6030SOL    MW423888   4.074   3.005   2.836  0.1938  0.1007  0.4832
 6031SOL     OW23889   0.030   3.005   2.321 -0.1293 -0.0933 -0.0213
 6031SOL    HW223890   0.057   2.999   2.413 -0.7372 -0.3567  0.1447
 6031SOL    HW323891   0.108   3.037   2.275 -0.5658  2.5084  0.9339
 6031SOL    MW423892   0.044   3.008   2.327 -0.2671  0.2152  0.1266
 6032SOL     OW23893   4.024   4.055   2.528  0.0592  0.7762  0.3361
 6032SOL    HW223894   3.981   4.101   2.457 -1.0765 -2.1705 -1.0315
 6032SOL    HW323895   3.953   4.029   2.587  0.5910  0.1699  0.7223
 6032SOL    MW423896   4.009   4.058   2.527 -0.0205  0.3074  0.2066
 6033SOL     OW23897   1.019   3.369   1.395  0.3207  0.2722  0.4168
 6033SOL    HW223898   0.955   3.416   1.448  2.0881  1.4211  1.6190
 6033SOL    HW323899   0.969   3.339   1.319 -1.7571  0.6072  1.5786
 6033SOL    MW423900   1.004   3.371   1.392  0.2797  0.4680  0.7287
 6034SOL     OW23901   1.105   1.018   5.932 -0.1706  0.1216  0.4744
 6034SOL    HW223902   1.159   1.093   5.905 -0.0194  0.4237  1.5857
 6034SOL    HW323903   1.118   0.953   5.863  1.0085  0.4920  0.3294
 6034SOL    MW423904   1.114   1.019   5.919  0.0049  0.2103  0.6019
 6035SOL     OW23905   0.934   0.267   0.775 -0.6590  0.0474  0.4164
 6035SOL    HW223906   1.003   0.215   0.817 -0.3333 -0.3338 -0.5608
 6035SOL    HW323907   0.965   0.279   0.685 -1.4246  0.6888  0.2306
 6035SOL    MW423908   0.947   0.262   0.769 -0.7171  0.0817  0.2629
 6036SOL     OW23909   4.216   4.362   4.131 -0.8457 -0.1458 -0.7643
 6036SOL    HW223910   4.175   4.285   4.091 -0.8006 -0.4556 -0.2141
 6036SOL    HW323911   4.256   4.330   4.211  1.9212 -0.1990 -2.0461
 6036SOL    MW423912   4.216   4.348   4.136 -0.4747 -0.1937 -0.8608
 6037SOL     OW23913   4.977   1.043   5.664  0.1406 -0.1775 -0.2487
 6037SOL    HW223914   5.045   1.027   5.731  0.3742  0.5645 -0.3003
 6037SOL    HW323915   5.026   1.074   5.588 -0.2555  0.3602 -0.2861
 6037SOL    MW423916   4.993   1.045   5.663  0.1192 -0.0087 -0.2604
 6038SOL     OW23917   3.259   3.814   3.758  0.1989 -0.2587 -0.3870
 6038SOL    HW223918   3.298   3.733   3.789 -0.8234 -0.9686 -0.9063
 6038SOL    HW323919   3.266   3.874   3.832 -0.8668 -1.4571  0.7366
 6038SOL    MW423920   3.265   3.811   3.772 -0.0766 -0.5105 -0.3072
 6039SOL     OW23921   3.473   3.032   2.558  0.1241 -0.5027 -0.1905
 6039SOL    HW223922   3.396   3.083   2.582  0.4431 -0.2655  0.3524
 6039SOL    HW323923   3.524   3.091   2.502 -0.5174 -0.9809 -1.3042
 6039SOL    MW423924   3.470   3.047   2.554  0.0815 -0.5345 -0.2658
 6040SOL     OW23925   6.005   2.271   0.449 -0.3042 -0.2577  0.8751
 6040SOL    HW223926   5.918   2.310   0.442 -0.7051 -1.3257 -0.2938
 6040SOL    HW323927   6.049   2.295   0.368  0.6565  0.5766  1.6050
 6040SOL    MW423928   5.999   2.279   0.438 -0.2303 -0.2885  0.8172
 6041SOL     OW23929   0.336   1.364   4.019 -0.4826  0.2227 -0.6080
 6041SOL    HW223930   0.396   1.429   3.983  1.1358 -0.6519  0.3538
 6041SOL    HW323931   0.369   1.280   3.984 -2.6434 -0.1143 -2.0018
 6041SOL    MW423932   0.349   1.361   4.010 -0.5542  0.0628 -0.6650
 6042SOL     OW23933   2.828   2.567   0.632  0.4775 -0.1218  0.1247
 6042SOL    HW223934   2.771   2.492   0.647 -0.4025  0.8987  2.2705
 6042SOL    HW323935   2.906   2.530   0.591 -0.3222 -2.0529  0.2606
 6042SOL    MW423936   2.831   2.552   0.628  0.2559 -0.2420  0.4258
 6043SOL     OW23937   0.074   0.633   3.661 -0.5166 -0.0109 -0.2352
 6043SOL    HW223938   0.112   0.575   3.727  3.2708  1.3489 -0.9266
 6043SOL    HW323939   0.009   0.580   3.616  0.8616 -2.8518  0.8998
 6043SOL    MW423940   0.071   0.619   3.664  0.1649 -0.2063 -0.1767
 6044SOL     OW23941   5.830   6.351   3.805  0.2639  0.0699 -0.2738
 6044SOL    HW223942   5.785   6.401   3.737 -0.9046  0.2255  0.5747
 6044SOL    HW323943   5.877   6.283   3.758  0.9737  1.2769 -1.3713
 6044SOL    MW423944   5.830   6.349   3.790  0.2034  0.2497 -0.3067
 6045SOL     OW23945   3.467   5.003   4.976  0.0785 -0.0668 -0.1597
 6045SOL    HW223946   3.548   5.049   4.995  0.2422 -0.0932 -0.7644
 6045SOL    HW323947   3.449   4.950   5.054  0.5268  0.1010  0.0559
 6045SOL    MW423948   3.475   5.002   4.988  0.1592 -0.0481 -0.2110
 6046SOL     OW23949   0.401   5.971   4.714 -0.3096 -0.2563  0.0216
 6046SOL    HW223950   0.495   5.963   4.698 -0.3235 -2.3347  0.6830
 6046SOL    HW323951   0.371   6.035   4.648  1.5990  0.7991  0.1086
 6046SOL    MW423952   0.409   5.978   4.703 -0.0596 -0.3912  0.1203
 6047SOL     OW23953   4.077   6.134   0.185 -0.3147  0.5186 -0.4639
 6047SOL    HW223954   4.059   6.088   0.102  2.0891 -0.0643 -0.7385
 6047SOL    HW323955   4.033   6.082   0.251  1.9368 -2.0850 -0.8292
 6047SOL    MW423956   4.069   6.121   0.183  0.2995  0.0982 -0.5483
 6048SOL     OW23957   3.025   4.935   0.920 -0.5421 -0.0732 -0.3378
 6048SOL    HW223958   3.113   4.966   0.943 -0.6582  0.1756 -0.2202
 6048SOL    HW323959   2.974   4.945   1.000 -0.5947 -0.5391 -0.3099
 6048SOL    MW423960   3.030   4.941   0.934 -0.5644 -0.1018 -0.3186
 6049SOL     OW23961   4.739   5.239   1.983  0.5618  0.1809  0.5211
 6049SOL    HW223962   4.790   5.271   2.057  1.4949  0.8976 -0.4066
 6049SOL    HW323963   4.650   5.270   2.000  0.6480 -0.0834  1.5693
 6049SOL    MW423964   4.734   5.247   1.995  0.6963  0.2406  0.5370
 6050SOL     OW23965   2.212   2.951   2.313 -0.0830  0.8284 -0.3747
 6050SOL    HW223966   2.140   2.979   2.256  0.9078 -0.2477 -2.2120
 6050SOL    HW323967   2.282   3.014   2.297 -0.3753  1.5841  1.0574
 6050SOL    MW423968   2.211   2.963   2.303  0.0091  0.7861 -0.4282
 6051SOL     OW23969   1.329   1.772   1.168 -0.1674 -0.0556 -0.0693
 6051SOL    HW223970   1.256   1.734   1.119 -0.4608  1.3828 -0.8038
 6051SOL    HW323971   1.386   1.697   1.187 -1.4809 -1.0981 -0.0763
 6051SOL    MW423972   1.327   1.757   1.164 -0.3794 -0.0034 -0.1672
 6052SOL     OW23973   5.807   5.933   4.358  0.6235  0.0737 -0.0427
 6052SOL    HW223974   5.792   6.017   4.315  1.2455  0.7124  0.9445
 6052SOL    HW323975   5.789   5.868   4.291 -0.1504  0.9858 -0.7476
 6052SOL    MW423976   5.802   5.935   4.343  0.6035  0.2783 -0.0054
 6053SOL     OW23977   4.825   2.507   5.034  0.4342  0.1199  0.1481
 6053SOL    HW223978   4.851   2.469   5.118  2.2633 -1.1582 -0.9213
 6053SOL    HW323979   4.903   2.555   5.006  0.7805 -1.5182 -1.9209
 6053SOL    MW423980   4.839   2.509   5.041  0.7212 -0.2649 -0.2660
 6054SOL     OW23981   0.622   4.565   2.401  0.0225  0.1036  0.5937
 6054SOL    HW223982   0.666   4.495   2.352 -3.7775 -2.8899  0.9894
 6054SOL    HW323983   0.656   4.557   2.490  2.8935  1.9617 -0.1725
 6054SOL    MW423984   0.632   4.555   2.406 -0.1001 -0.0462  0.5449
 6055SOL     OW23985   0.139   5.580   4.386 -0.3731  0.4066 -0.4306
 6055SOL    HW223986   0.141   5.485   4.381 -0.4026  0.4604 -2.1222
 6055SOL    HW323987   0.230   5.605   4.402 -0.1505  0.1326 -1.2465
 6055SOL    MW423988   0.152   5.571   4.387 -0.3476  0.3775 -0.7615
 6056SOL     OW23989   2.663   1.559   4.455 -0.0806 -0.0549 -0.1186
 6056SOL    HW223990   2.579   1.541   4.499  0.0748 -0.7132 -0.0851
 6056SOL    HW323991   2.655   1.649   4.425 -0.9809 -0.2470 -0.4967
 6056SOL    MW423992   2.651   1.568   4.457 -0.1788 -0.1671 -0.1641
 6057SOL     OW23993   6.010   4.737   2.123 -0.4027  0.3619 -0.1939
 6057SOL    HW223994   6.033   4.709   2.212 -0.3369  0.2028 -0.2597
 6057SOL    HW323995   6.001   4.832   2.129  2.6552  0.8055 -0.6665
 6057SOL    MW423996   6.012   4.746   2.136  0.0095  0.3994 -0.2649
 6058SOL     OW23997   3.098   2.105   6.267 -0.1607  0.1701 -0.2806
 6058SOL    HW223998   3.015   2.121   6.221 -0.4270  2.0380  0.7320
 6058SOL    HW323999   3.071   2.066   6.350  0.0383  0.0794 -0.2589
 6058SOL    MW424000   3.083   2.102   6.272 -0.1696  0.4045 -0.1441
 6059SOL     OW24001   5.824   2.784   6.188 -0.4630 -0.0331 -0.4588
 6059SOL    HW224002   5.796   2.723   6.256 -1.0033  1.2503  0.5125
 6059SOL    HW324003   5.899   2.829   6.226 -0.6514  0.5675 -0.7873
 6059SOL    MW424004   5.830   2.782   6.202 -0.5591  0.2155 -0.3740
 6060SOL     OW24005   4.080   0.881   1.983 -0.6503  0.6930 -0.3524
 6060SOL    HW224006   4.154   0.829   1.952 -0.3067  0.1575  1.2404
 6060SOL    HW324007   4.116   0.930   2.058 -2.1955 -0.5844  1.3188
 6060SOL    MW424008   4.095   0.881   1.989 -0.8088  0.4538  0.0783
 6061SOL     OW24009   4.958   1.246   3.263  0.0970 -0.3386  0.0966
 6061SOL    HW224010   4.982   1.303   3.336  1.7383 -2.2970  1.1969
 6061SOL    HW324011   4.896   1.184   3.300 -1.8414  0.7411 -1.1386
 6061SOL    MW424012   4.953   1.245   3.277  0.0578 -0.4545  0.0788
 6062SOL     OW24013   4.165   2.032   5.193  0.0741  0.2355 -0.2673
 6062SOL    HW224014   4.224   2.107   5.196  0.1920  0.1201  2.0377
 6062SOL    HW324015   4.078   2.070   5.177 -0.1203  1.1076  2.4619
 6062SOL    MW424016   4.161   2.047   5.191  0.0640  0.3354  0.3969
 6063SOL     OW24017   1.497   2.199   1.363 -0.0408 -0.0555  0.4707
 6063SOL    HW224018   1.554   2.127   1.390  0.3868  0.0739 -0.0827
 6063SOL    HW324019   1.409   2.166   1.378  0.1173 -1.0769 -0.6841
 6063SOL    MW424020   1.493   2.185   1.369  0.0365 -0.1732  0.2453
 6064SOL     OW24021   6.420   5.495   1.471 -0.3765  0.0402 -0.5388
 6064SOL    HW224022   6.458   5.454   1.394  0.5784 -0.0752 -0.0239
 6064SOL    HW324023   6.488   5.554   1.503 -0.6542 -0.1113  0.3629
 6064SOL    MW424024   6.434   5.498   1.465 -0.2871  0.0050 -0.3519
 6065SOL     OW24025   2.221   3.294   5.485 -0.2459  0.5583  0.0041
 6065SOL    HW224026   2.126   3.298   5.474 -0.3000 -0.9642 -0.3918
 6065SOL    HW324027   2.254   3.369   5.436 -1.1796  0.2448 -1.1648
 6065SOL    MW424028   2.213   3.304   5.477 -0.3762  0.3161 -0.2024
 6066SOL     OW24029   6.213   6.023   3.428 -0.3933  0.4293 -0.3532
 6066SOL    HW224030   6.263   5.949   3.394 -0.2014 -0.7280  2.1704
 6066SOL    HW324031   6.236   6.096   3.371  0.6286 -1.0948 -1.9975
 6066SOL    MW424032   6.222   6.023   3.416 -0.2331  0.0755 -0.2372
 6067SOL     OW24033   4.070   4.032   6.346 -0.0321  0.3868 -0.3872
 6067SOL    HW224034   4.107   4.078   6.421 -0.0837 -1.0768  0.5696
 6067SOL    HW324035   3.989   3.993   6.378 -0.2800  0.0942 -1.3252
 6067SOL    MW424036   4.064   4.033   6.360 -0.0716  0.1551 -0.3847
 6068SOL     OW24037   1.740   2.667   3.530  0.2799  0.3525  0.2477
 6068SOL    HW224038   1.672   2.656   3.597  1.7553  1.1413  1.9779
 6068SOL    HW324039   1.737   2.586   3.479 -0.1538 -0.8421  2.0407
 6068SOL    MW424040   1.731   2.655   3.532  0.4173  0.2990  0.7125
 6069SOL     OW24041   5.225   6.195   1.475  0.0622  0.2036  0.6153
 6069SOL    HW224042   5.165   6.250   1.526  0.3266 -1.2792  2.6717
 6069SOL    HW324043   5.224   6.111   1.520  1.5359 -0.7362 -0.9779
 6069SOL    MW424044   5.217   6.191   1.488  0.2915 -0.1160  0.6764
 6070SOL     OW24045   1.603   1.783   2.254 -0.3315  0.1518 -0.1848
 6070SOL    HW224046   1.624   1.707   2.200 -2.0715 -0.2006 -0.4128
 6070SOL    HW324047   1.538   1.832   2.203 -0.4830  0.8954  0.6969
 6070SOL    MW424048   1.597   1.779   2.240 -0.5811  0.2034 -0.0985
 6071SOL     OW24049   3.282   2.335   4.911 -0.3146 -0.6895  0.4578
 6071SOL    HW224050   3.330   2.309   4.989  1.2651 -2.6019 -1.0474
 6071SOL    HW324051   3.228   2.259   4.889  0.8720 -1.0729 -1.4235
 6071SOL    MW424052   3.281   2.322   4.918  0.0503 -0.9924  0.0110
 6072SOL     OW24053   2.019   1.666   2.120 -0.1562  0.2567  0.0852
 6072SOL    HW224054   1.986   1.756   2.121  0.5411  0.5217 -0.2470
 6072SOL    HW324055   2.006   1.636   2.030 -0.9100 -0.1794  0.3310
 6072SOL    MW424056   2.013   1.674   2.109 -0.1637  0.2341  0.0738
 6073SOL     OW24057   3.607   5.780   2.607 -0.0644 -0.1764  0.2486
 6073SOL    HW224058   3.685   5.822   2.572  0.0659  1.0270  1.8922
 6073SOL    HW324059   3.536   5.843   2.593 -0.9750 -1.5660 -1.9336
 6073SOL    MW424060   3.608   5.794   2.601 -0.1673 -0.2010  0.1775
 6074SOL     OW24061   3.712   2.374   2.499 -0.0415  0.2572 -0.4015
 6074SOL    HW224062   3.714   2.470   2.494  1.8546  0.1824 -3.1303
 6074SOL    HW324063   3.634   2.349   2.449 -0.1420  0.3422 -0.2887
 6074SOL    MW424064   3.702   2.384   2.492  0.1954  0.2585 -0.7466
 6075SOL     OW24065   1.099   0.267   4.642 -0.0438 -0.0957  0.0871
 6075SOL    HW224066   1.123   0.253   4.734 -1.2038 -0.5716  0.3384
 6075SOL    HW324067   1.018   0.318   4.647 -1.3882 -2.0602 -0.5911
 6075SOL    MW424068   1.091   0.272   4.655 -0.3742 -0.4177  0.0308
 6076SOL     OW24069   2.491   2.548   3.788 -0.0149 -0.0307  0.0432
 6076SOL    HW224070   2.518   2.588   3.705  1.4554  2.1753  1.4697
 6076SOL    HW324071   2.558   2.482   3.805  0.7884  0.8342  0.3481
 6076SOL    MW424072   2.503   2.545   3.779  0.2851  0.3745  0.2716
 6077SOL     OW24073   1.170   1.509   2.117 -0.0900 -0.2830 -0.1716
 6077SOL    HW224074   1.126   1.525   2.033 -1.4263 -0.0716  0.5340
 6077SOL    HW324075   1.119   1.439   2.157  0.3829 -0.2111  0.5646
 6077SOL    MW424076   1.157   1.502   2.111 -0.2040 -0.2456  0.0186
 6078SOL     OW24077   2.354   2.007   5.698  0.1010 -0.0619 -0.0038
 6078SOL    HW224078   2.433   2.024   5.645  0.7387 -0.2626  0.8630
 6078SOL    HW324079   2.305   2.088   5.693  1.1234  0.6253  0.7134
 6078SOL    MW424080   2.358   2.020   5.690  0.3201  0.0023  0.2052
 6079SOL     OW24081   1.010   1.776   4.548  0.0670  0.0576 -0.1986
 6079SOL    HW224082   0.967   1.720   4.483  0.3167 -1.5633  0.9854
 6079SOL    HW324083   1.101   1.778   4.521  0.3293 -1.2774  0.5043
 6079SOL    MW424084   1.016   1.769   4.536  0.1345 -0.3324  0.0504
 6080SOL     OW24085   2.305   4.883   0.035  0.4134 -0.4223 -0.2509
 6080SOL    HW224086   2.278   4.975   0.034 -0.0261 -0.5005  1.2142
 6080SOL    HW324087   2.388   4.883   0.083  1.0805 -0.6482 -1.3873
 6080SOL    MW424088   2.312   4.895   0.041  0.4435 -0.4624 -0.2076
 6081SOL     OW24089   2.300   1.652   2.519 -0.1351 -0.0973  0.0427
 6081SOL    HW224090   2.215   1.662   2.476  1.1260  1.5918 -2.2627
 6081SOL    HW324091   2.352   1.600   2.458  1.2903  1.1348  0.1546
 6081SOL    MW424092   2.295   1.646   2.506  0.2193  0.2881 -0.2467
 6082SOL     OW24093   2.202   3.332   6.155 -0.1470  0.7394 -0.0493
 6082SOL    HW224094   2.234   3.380   6.232 -0.1331 -1.5563  1.4733
 6082SOL    HW324095   2.138   3.391   6.115  1.1497  2.7323  0.6366
 6082SOL    MW424096   2.198   3.346   6.160  0.0260  0.6995  0.2421
 6083SOL     OW24097   5.514   5.349   3.845  0.1688 -0.0576  0.1490
 6083SOL    HW224098   5.606   5.325   3.844  0.5626  1.3395 -0.0669
 6083SOL    HW324099   5.475   5.296   3.915  1.1576 -0.5785  0.3113
 6083SOL    MW424100   5.521   5.339   3.855  0.3512  0.0580  0.1419
 6084SOL     OW24101   2.324   2.768   5.137  0.0640  0.2296  0.0839
 6084SOL    HW224102   2.232   2.768   5.165 -0.2750 -1.2655 -0.9215
 6084SOL    HW324103   2.351   2.677   5.142  1.7870  0.7410  1.1515
 6084SOL    MW424104   2.315   2.756   5.141  0.2466  0.0998  0.0921
 6085SOL     OW24105   0.861   2.695   6.145  0.5634 -0.1224 -0.1730
 6085SOL    HW224106   0.927   2.654   6.090  0.7210 -0.6568  0.4112
 6085SOL    HW324107   0.909   2.728   6.221  0.2044 -0.2577  0.1180
 6085SOL    MW424108   0.876   2.694   6.148  0.5369 -0.2108 -0.0576
 6086SOL     OW24109   1.246   4.198   0.374  0.2486  0.2584 -0.1666
 6086SOL    HW224110   1.209   4.196   0.462  0.0154 -0.2358 -0.2710
 6086SOL    HW324111   1.333   4.161   0.384  1.3435  2.7863  0.3459
 6086SOL    MW424112   1.252   4.193   0.387  0.3623  0.5267 -0.1127
 6087SOL     OW24113   4.518   6.004   2.753 -0.1619  0.2298  0.3149
 6087SOL    HW224114   4.490   5.934   2.695 -0.0501  0.9172 -0.5885
 6087SOL    HW324115   4.475   6.083   2.719  1.5976  1.0361 -0.1648
 6087SOL    MW424116   4.509   6.005   2.741  0.0850  0.4269  0.1324
 6088SOL     OW24117   5.410   6.227   2.546 -0.4632  0.7526  0.0531
 6088SOL    HW224118   5.336   6.171   2.524 -0.3017  1.2492 -1.9391
 6088SOL    HW324119   5.394   6.309   2.498 -0.0388  1.9486  1.8526
 6088SOL    MW424120   5.398   6.231   2.537 -0.3859  0.9759  0.0277
 6089SOL     OW24121   2.051   1.248   1.889  0.5128 -0.0659  0.1958
 6089SOL    HW224122   2.004   1.186   1.945  0.2336  0.0130  0.0490
 6089SOL    HW324123   2.056   1.205   1.804  2.6275 -1.0399  0.7326
 6089SOL    MW424124   2.046   1.234   1.885  0.7550 -0.1840  0.2473
 6090SOL     OW24125   6.284   2.214   4.186  0.5022  0.0404  0.3836
 6090SOL    HW224126   6.364   2.250   4.148  0.0126 -0.3928 -1.1436
 6090SOL    HW324127   6.314   2.161   4.260  1.5823  0.1973  0.0741
 6090SOL    MW424128   6.299   2.212   4.191  0.5801  0.0040  0.1413
 6091SOL     OW24129   2.862   3.147   1.392  0.0330 -0.0858  0.1560
 6091SOL    HW224130   2.789   3.113   1.340 -0.1689  0.5421  0.0197
 6091SOL    HW324131   2.938   3.097   1.361 -0.2238 -0.2800 -0.1739
 6091SOL    MW424132   2.863   3.136   1.381 -0.0275 -0.0286  0.0945
 6092SOL     OW24133   0.572   3.489   2.499  0.5951  0.2515  0.4387
 6092SOL    HW224134   0.603   3.540   2.424  0.8516 -1.7889 -0.9277
 6092SOL    HW324135   0.481   3.468   2.478  0.4974  0.1211  0.9758
 6092SOL    MW424136   0.564   3.493   2.486  0.6161 -0.0349  0.3293
 6093SOL     OW24137   2.648   4.301   2.709  0.3307 -0.5649  0.0518
 6093SOL    HW224138   2.560   4.264   2.713  0.7541 -1.7238 -0.8137
 6093SOL    HW324139   2.680   4.298   2.799 -1.0803  1.3999  0.7002
 6093SOL    MW424140   2.641   4.296   2.721  0.2004 -0.4586  0.0232
 6094SOL     OW24141   1.118   1.953   4.957 -0.2610  0.4652  0.0726
 6094SOL    HW224142   1.176   1.880   4.935 -0.7387 -0.1590  0.7871
 6094SOL    HW324143   1.037   1.910   4.985 -0.2067  1.2317  1.5034
 6094SOL    MW424144   1.115   1.937   4.958 -0.3168  0.4840  0.3557
 6095SOL     OW24145   0.256   0.734   3.138 -0.1332  0.2339  0.2211
 6095SOL    HW224146   0.213   0.712   3.055 -1.0576  0.1737  0.6995
 6095SOL    HW324147   0.317   0.662   3.153  0.0035  0.2177 -0.3801
 6095SOL    MW424148   0.258   0.721   3.129 -0.2371  0.2238  0.2049
 6096SOL     OW24149   5.497   0.105   3.205  0.3638 -0.5056  0.1253
 6096SOL    HW224150   5.498   0.197   3.177  0.7584 -0.8436 -0.9893
 6096SOL    HW324151   5.503   0.110   3.301  0.9100  0.6138  0.0484
 6096SOL    MW424152   5.498   0.118   3.214  0.4880 -0.4025 -0.0319
 6097SOL     OW24153   0.341   2.369   3.040  0.3358 -0.0211  0.1609
 6097SOL    HW224154   0.257   2.396   3.001 -1.0091  0.2711  2.9600
 6097SOL    HW324155   0.349   2.276   3.019 -0.5190  0.0340 -0.4509
 6097SOL    MW424156   0.331   2.360   3.032  0.0456  0.0247  0.4494
 6098SOL     OW24157   4.973   4.175   3.838 -0.2247 -0.2922  0.7042
 6098SOL    HW224158   5.001   4.087   3.863  3.7284  0.8386  0.9382
 6098SOL    HW324159   4.919   4.204   3.911  0.9515 -1.4623  2.1223
 6098SOL    MW424160   4.970   4.167   3.851  0.4520 -0.2973  0.9221
 6099SOL     OW24161   1.641   0.928   5.761 -0.6497 -0.0049  0.0192
 6099SOL    HW224162   1.600   0.905   5.677  0.3583 -1.3131 -0.1450
 6099SOL    HW324163   1.575   0.905   5.827 -1.6760  1.5730 -0.4021
 6099SOL    MW424164   1.627   0.922   5.759 -0.6521  0.0307 -0.0581
 6100SOL     OW24165   0.279   1.073   0.442 -0.1254 -0.3833 -0.6408
 6100SOL    HW224166   0.370   1.068   0.472 -0.1763 -1.9928 -0.6763
 6100SOL    HW324167   0.227   1.048   0.518 -0.2816 -3.8580 -1.7067
 6100SOL    MW424168   0.284   1.069   0.456 -0.1527 -1.0541 -0.7861
 6101SOL     OW24169   0.141   0.517   2.960 -0.3827  0.3128 -0.6414
 6101SOL    HW224170   0.161   0.434   3.004  0.6419  0.4545 -0.8100
 6101SOL    HW324171   0.047   0.512   2.941 -0.7676  0.0823  1.1918
 6101SOL    MW424172   0.131   0.505   2.963 -0.2983  0.3011 -0.4218
 6102SOL     OW24173   2.408   2.404   1.308  0.7023 -0.0281 -0.3109
 6102SOL    HW224174   2.319   2.428   1.333  0.0996  0.0956 -2.4647
 6102SOL    HW324175   2.459   2.485   1.321  0.3110  0.1800 -0.0544
 6102SOL    MW424176   2.403   2.418   1.313  0.5712  0.0156 -0.5612
 6103SOL     OW24177   3.413   3.385   1.918 -0.0876 -0.0688  0.0708
 6103SOL    HW224178   3.349   3.436   1.968  2.5076  2.3109  1.2804
 6103SOL    HW324179   3.438   3.314   1.976 -1.0926 -0.6208 -0.1478
 6103SOL    MW424180   3.408   3.383   1.932  0.1222  0.1724  0.2015
 6104SOL     OW24181   0.174   0.353   5.498  0.2097 -0.9802  0.4507
 6104SOL    HW224182   0.180   0.357   5.402  2.6873 -1.7422  0.5082
 6104SOL    HW324183   0.161   0.445   5.524 -0.4138 -0.7523 -0.6017
 6104SOL    MW424184   0.173   0.366   5.489  0.4543 -1.0507  0.3194
 6105SOL     OW24185   5.827   3.754   3.621  0.4496  0.6545 -0.5932
 6105SOL    HW224186   5.758   3.723   3.679  0.4124  0.3724 -0.7873
 6105SOL    HW324187   5.908   3.729   3.666  0.4214 -0.1891 -0.9847
 6105SOL    MW424188   5.829   3.746   3.635  0.4410  0.5060 -0.6705
 6106SOL     OW24189   0.702   1.813   5.857 -0.2954 -0.3409  0.1511
 6106SOL    HW224190   0.666   1.897   5.888 -1.2584 -0.5329 -0.4037
 6106SOL    HW324191   0.784   1.804   5.905  1.0525  2.0511 -1.5034
 6106SOL    MW424192   0.708   1.823   5.868 -0.2446 -0.0506 -0.1404
 6107SOL     OW24193   4.890   2.326   1.493  0.0497 -0.0990  0.1325
 6107SOL    HW224194   4.960   2.371   1.446  0.1117 -1.3464 -1.0153
 6107SOL    HW324195   4.926   2.310   1.580  0.3254  1.3028  0.2974
 6107SOL    MW424196   4.904   2.330   1.498  0.0943 -0.0786  0.0028
 6108SOL     OW24197   6.110   3.962   1.796 -0.4067  0.0241  0.3030
 6108SOL    HW224198   6.135   3.893   1.857 -2.2306 -0.9447  0.0516
 6108SOL    HW324199   6.192   4.000   1.767  0.6467  2.5417  5.4706
 6108SOL    MW424200   6.124   3.958   1.800 -0.5083  0.2284  0.9516
 6109SOL     OW24201   2.458   5.720   3.968  0.4946 -0.7290 -0.1478
 6109SOL    HW224202   2.450   5.808   4.005 -0.5276 -0.4672 -0.9366
 6109SOL    HW324203   2.459   5.661   4.044  0.8399 -0.0692  0.3688
 6109SOL    MW424204   2.457   5.724   3.983  0.4053 -0.6074 -0.1837
 6110SOL     OW24205   1.946   2.492   0.089  0.0441  0.0002  0.6460
 6110SOL    HW224206   1.851   2.504   0.092 -0.1654 -0.1151 -2.3310
 6110SOL    HW324207   1.960   2.403   0.122 -0.7804  0.2743  1.7888
 6110SOL    MW424208   1.935   2.482   0.094 -0.0923  0.0211  0.4040
 6111SOL     OW24209   1.843   0.069   6.311 -0.2624 -0.1386 -0.1639
 6111SOL    HW224210   1.823   0.146   6.258  2.6516  0.7184 -0.2022
 6111SOL    HW324211   1.784   0.001   6.278 -0.2333  1.0093 -2.8788
 6111SOL    MW424212   1.833   0.070   6.300  0.1259  0.1259 -0.5271
 6112SOL     OW24213   1.365   1.162   0.432  0.1188 -0.2303  0.0342
 6112SOL    HW224214   1.397   1.132   0.517 -0.0588 -1.5397 -0.3530
 6112SOL    HW324215   1.417   1.115   0.368 -0.2662  0.1770 -0.5919
 6112SOL    MW424216   1.376   1.152   0.435  0.0446 -0.3493 -0.0995
 6113SOL     OW24217   3.074   6.197   4.537  0.0967  0.3630  0.3431
 6113SOL    HW224218   3.164   6.192   4.569  0.2461 -0.5536 -0.1874
 6113SOL    HW324219   3.060   6.290   4.520  1.6549  0.3199 -1.5095
 6113SOL    MW424220   3.084   6.209   4.539  0.3219  0.2364  0.0287
 6114SOL     OW24221   0.514   2.376   6.167 -0.2862  0.3672 -0.6596
 6114SOL    HW224222   0.444   2.311   6.172 -0.6157  0.6844 -1.0864
 6114SOL    HW324223   0.469   2.460   6.169  0.2056  0.6339  1.1388
 6114SOL    MW424224   0.499   2.378   6.168 -0.2648  0.4443 -0.4787
 6115SOL     OW24225   6.163   1.040   1.250  0.1614 -0.1426 -0.0306
 6115SOL    HW224226   6.242   1.062   1.201  0.3909 -1.0151 -0.0731
 6115SOL    HW324227   6.094   1.093   1.210  0.6680  0.3920 -0.1982
 6115SOL    MW424228   6.164   1.050   1.238  0.2585 -0.1872 -0.0584
 6116SOL     OW24229   0.845   6.371   0.838 -0.2067  0.3592  0.1954
 6116SOL    HW224230   0.782   6.440   0.861 -0.3942  0.0908  0.4884
 6116SOL    HW324231   0.899   6.411   0.770 -1.4855  0.1739 -0.9638
 6116SOL    MW424232   0.844   6.386   0.832 -0.4002  0.2993  0.0811
 6117SOL     OW24233   4.701   2.641   2.713 -0.7132  0.0716 -0.2662
 6117SOL    HW224234   4.752   2.570   2.674 -1.1568 -0.0488 -0.6399
 6117SOL    HW324235   4.683   2.701   2.640  1.2266  1.5409  0.3888
 6117SOL    MW424236   4.705   2.640   2.698 -0.5158  0.2496 -0.2291
 6118SOL     OW24237   5.130   5.345   6.341  0.2884  0.6694 -0.2308
 6118SOL    HW224238   5.120   5.361   6.434 -3.0148  0.3156 -0.4312
 6118SOL    HW324239   5.116   5.429   6.299  1.0496  0.6830 -0.4900
 6118SOL    MW424240   5.127   5.358   6.347 -0.0470  0.6245 -0.2914
 6119SOL     OW24241   4.045   2.938   4.032  0.3007  0.0008  0.4070
 6119SOL    HW224242   3.985   2.876   4.075  0.4610  0.4965  1.3660
 6119SOL    HW324243   4.055   3.009   4.095 -0.7030  1.5357 -1.1089
 6119SOL    MW424244   4.038   2.939   4.046  0.1895  0.2687  0.3335
 6120SOL     OW24245   5.185   3.747   5.495 -0.1028  0.3771  0.3000
 6120SOL    HW224246   5.189   3.834   5.533  0.6434  0.0434  1.0343
 6120SOL    HW324247   5.277   3.721   5.485 -0.3154 -0.6799  0.9436
 6120SOL    MW424248   5.198   3.755   5.498 -0.0324  0.1937  0.4818
 6121SOL     OW24249   3.082   3.591   0.168 -0.1243  0.7323 -0.2239
 6121SOL    HW224250   3.091   3.682   0.140 -1.0564  1.2855  1.1624
 6121SOL    HW324251   3.057   3.544   0.088 -1.4957  2.0185 -0.5868
 6121SOL    MW424252   3.080   3.596   0.154 -0.4282  0.9750 -0.0889
 6122SOL     OW24253   5.415   0.963   2.337 -0.3249  0.0891 -0.2609
 6122SOL    HW224254   5.414   0.927   2.249  0.7623  1.7888 -1.0255
 6122SOL    HW324255   5.491   1.021   2.339  0.1990 -0.5621  2.0886
 6122SOL    MW424256   5.425   0.966   2.326 -0.1123  0.2275 -0.0518
 6123SOL     OW24257   1.244   4.509   0.083 -0.5869  0.4416  0.4091
 6123SOL    HW224258   1.219   4.554   0.002 -0.8290 -0.0388  0.2116
 6123SOL    HW324259   1.340   4.514   0.085 -0.6649  1.8916  0.9314
 6123SOL    MW424260   1.253   4.515   0.073 -0.6292  0.5695  0.4519
 6124SOL     OW24261   6.209   3.603   6.213 -0.3109 -0.3922  0.4327
 6124SOL    HW224262   6.187   3.691   6.184 -0.4472 -0.8263 -0.8587
 6124SOL    HW324263   6.280   3.615   6.276  0.3169  0.5825 -0.4353
 6124SOL    MW424264   6.215   3.616   6.217 -0.2461 -0.3209  0.1478
 6125SOL     OW24265   1.207   4.244   0.012  0.5660  0.4811  0.2356
 6125SOL    HW224266   1.243   4.320   0.056 -1.9077  0.2978  2.9235
 6125SOL    HW324267   1.157   4.279  -0.062  2.2766  1.0907 -0.6684
 6125SOL    MW424268   1.205   4.258   0.008  0.4653  0.5374  0.4709
 6126SOL     OW24269   4.609   0.301   4.365  0.1537  0.1584 -0.0405
 6126SOL    HW224270   4.530   0.310   4.312  1.1373  1.2665 -1.4227
 6126SOL    HW324271   4.612   0.380   4.418 -0.7851 -0.9151  1.6743
 6126SOL    MW424272   4.599   0.313   4.365  0.1596  0.1629  0.0033
 6127SOL     OW24273   2.360   0.315   5.913  0.2095  0.3918  0.3905
 6127SOL    HW224274   2.297   0.338   5.982 -2.5259  1.3905 -2.2098
 6127SOL    HW324275   2.415   0.392   5.904 -0.1866  0.7125  0.6660
 6127SOL    MW424276   2.359   0.328   5.921 -0.2037  0.5659  0.0838
 6128SOL     OW24277   3.863   4.468   1.909  0.0102 -0.2775 -0.2783
 6128SOL    HW224278   3.930   4.406   1.878  0.7492  0.3818 -0.0425
 6128SOL    HW324279   3.806   4.415   1.965  1.0887 -0.6041  0.5561
 6128SOL    MW424280   3.865   4.453   1.913  0.2500 -0.2336 -0.1371
 6129SOL     OW24281   1.935   4.157   1.945 -0.0979 -0.1052  0.0765
 6129SOL    HW224282   1.955   4.100   1.871  0.3231  0.6292 -0.3908
 6129SOL    HW324283   1.943   4.101   2.022  3.7955  0.0806 -0.0246
 6129SOL    MW424284   1.939   4.142   1.945  0.4713  0.0162  0.0015
 6130SOL     OW24285   5.261   5.383   4.276 -0.6193 -0.1071 -0.6238
 6130SOL    HW224286   5.283   5.293   4.301 -0.6408 -0.3204 -1.3769
 6130SOL    HW324287   5.169   5.380   4.252 -0.7814  0.2469 -0.0769
 6130SOL    MW424288   5.252   5.371   4.276 -0.6435 -0.0885 -0.6510
 6131SOL     OW24289   1.408   0.975   2.916 -0.6373  0.2454 -0.5005
 6131SOL    HW224290   1.357   0.936   2.987 -0.0481 -0.8173 -0.6374
 6131SOL    HW324291   1.392   1.069   2.924 -1.7338  0.0237  0.1288
 6131SOL    MW424292   1.399   0.982   2.927 -0.7042  0.0760 -0.4355
 6132SOL     OW24293   4.391   2.373   5.408 -0.6137 -0.1473  0.0235
 6132SOL    HW224294   4.413   2.448   5.354  0.5089 -0.5519 -0.1005
 6132SOL    HW324295   4.467   2.361   5.465 -1.2590 -0.4879  0.8373
 6132SOL    MW424296   4.404   2.381   5.409 -0.5507 -0.2456  0.1145
 6133SOL     OW24297   4.060   0.537   4.898 -0.8500  0.0135 -0.0952
 6133SOL    HW224298   4.028   0.619   4.858  1.1878  1.4036  0.9525
 6133SOL    HW324299   4.045   0.471   4.831 -0.8014  1.6103 -1.7746
 6133SOL    MW424300   4.054   0.539   4.883 -0.5747  0.4076 -0.1785
 6134SOL     OW24301   1.908   1.930   2.063 -0.2786  0.1250  0.0572
 6134SOL    HW224302   1.859   2.007   2.092  0.1545  0.6070 -0.4813
 6134SOL    HW324303   1.894   1.927   1.968  0.3747  0.0208 -0.0378
 6134SOL    MW424304   1.899   1.940   2.054 -0.1352  0.1748 -0.0264
 6135SOL     OW24305   5.335   6.341   3.766 -0.5349  0.2431  0.4406
 6135SOL    HW224306   5.332   6.338   3.671  1.3488  1.2749  0.2867
 6135SOL    HW324307   5.248   6.368   3.793 -0.5595  1.9092 -1.1337
 6135SOL    MW424308   5.323   6.344   3.757 -0.2896  0.5990  0.2126
 6136SOL     OW24309   6.192   2.487   0.375 -0.1567  0.3426 -0.4195
 6136SOL    HW224310   6.249   2.418   0.409 -2.4147 -1.7937 -0.7270
 6136SOL    HW324311   6.153   2.526   0.454 -0.6974 -0.3879 -0.3194
 6136SOL    MW424312   6.195   2.483   0.390 -0.5260 -0.0357 -0.4469
 6137SOL     OW24313   1.475   0.474   0.587  0.0293 -0.6476  0.4889
 6137SOL    HW224314   1.510   0.385   0.581 -1.3516 -1.1815 -0.1948
 6137SOL    HW324315   1.498   0.515   0.503 -0.5165 -0.8421  0.2342
 6137SOL    MW424316   1.483   0.468   0.575 -0.2249 -0.7437  0.3651
 6138SOL     OW24317   3.179   3.122   1.002  0.6147  0.3095 -0.3641
 6138SOL    HW224318   3.125   3.096   0.927 -0.6247  2.9562 -0.5099
 6138SOL    HW324319   3.268   3.128   0.967  0.3470 -0.2034 -1.1628
 6138SOL    MW424320   3.183   3.120   0.988  0.4159  0.5910 -0.4887
 6139SOL     OW24321   2.959   6.006   4.362  0.1707  0.0542 -0.1236
 6139SOL    HW224322   2.990   6.013   4.272 -1.1453  1.7497 -0.4895
 6139SOL    HW324323   3.013   6.068   4.411 -0.4617  0.6465 -0.1581
 6139SOL    MW424324   2.970   6.015   4.357 -0.0864  0.3560 -0.1765
 6140SOL     OW24325   6.029   4.874   0.134  0.1935  0.2387  0.0161
 6140SOL    HW224326   6.008   4.799   0.188  1.7325 -0.3171 -0.1099
 6140SOL    HW324327   5.958   4.878   0.069 -0.5859 -0.2953  0.8140
 6140SOL    MW424328   6.017   4.865   0.132  0.2938  0.0949  0.1048
 6141SOL     OW24329   3.511   0.352   4.182  0.1827  0.2019 -0.3217
 6141SOL    HW224330   3.431   0.320   4.225  0.3792 -0.1040 -0.1769
 6141SOL    HW324331   3.548   0.274   4.140  0.9200  0.1282  0.4313
 6141SOL    MW424332   3.505   0.338   4.182  0.3059  0.1518 -0.2032
 6142SOL     OW24333   2.203   4.938   5.780  0.0855 -0.4261  1.3038
 6142SOL    HW224334   2.124   4.889   5.801  0.0961 -2.0815 -1.9099
 6142SOL    HW324335   2.174   5.029   5.774 -1.7768 -1.0577 -0.3059
 6142SOL    MW424336   2.189   4.944   5.782 -0.1588 -0.7278  0.6674
 6143SOL     OW24337   5.050   5.664   5.113  0.6485 -0.1827  0.1048
 6143SOL    HW224338   5.031   5.584   5.065 -0.3121  0.6431 -0.9648
 6143SOL    HW324339   4.966   5.711   5.116  1.8672  2.5248 -2.6699
 6143SOL    MW424340   5.036   5.660   5.107  0.6825  0.2835 -0.4024
 6144SOL     OW24341   2.844   2.004   4.718 -0.0093  0.2437  0.2310
 6144SOL    HW224342   2.909   2.021   4.785  0.0836 -2.5897  0.9770
 6144SOL    HW324343   2.766   2.051   4.747  1.0442  1.9200  0.4265
 6144SOL    MW424344   2.842   2.012   4.730  0.1420  0.0911  0.3552
 6145SOL     OW24345   5.514   0.413   0.108  0.0248 -0.2272 -0.3411
 6145SOL    HW224346   5.551   0.464   0.179  1.4153 -0.3317 -0.9650
 6145SOL    HW324347   5.519   0.470   0.031 -0.0451 -0.6675 -0.6772
 6145SOL    MW424348   5.519   0.427   0.107  0.1990 -0.2991 -0.4678
 6146SOL     OW24349   1.103   0.775   1.002 -0.0587  0.2930  0.2565
 6146SOL    HW224350   1.073   0.825   1.079 -1.9868 -0.1564 -0.1372
 6146SOL    HW324351   1.026   0.771   0.946  1.0684 -0.1758 -1.3017
 6146SOL    MW424352   1.089   0.781   1.005 -0.1644  0.1719 -0.0010
 6147SOL     OW24353   0.209   0.092   2.802 -0.4163 -0.2054  0.3303
 6147SOL    HW224354   0.297   0.054   2.805  1.0520  2.7481 -1.0264
 6147SOL    HW324355   0.201   0.140   2.884 -0.6853 -0.3132  0.3680
 6147SOL    MW424356   0.220   0.094   2.813 -0.2581  0.1701  0.1563
 6148SOL     OW24357   0.501   3.083   4.318  0.1140  0.3940 -0.2914
 6148SOL    HW224358   0.498   2.988   4.318 -0.4366  0.4049  0.2668
 6148SOL    HW324359   0.538   3.106   4.233 -0.6498 -0.2898 -0.8207
 6148SOL    MW424360   0.505   3.074   4.307 -0.0594  0.3052 -0.2876
 6149SOL     OW24361   4.709   5.923   2.011 -0.7373 -0.0568 -0.4614
 6149SOL    HW224362   4.701   5.828   2.011  0.4055 -0.1813 -1.9436
 6149SOL    HW324363   4.653   5.952   1.940 -2.6180  0.5882  1.1940
 6149SOL    MW424364   4.701   5.914   2.002 -0.8347  0.0119 -0.4385
 6150SOL     OW24365   0.909   0.535   1.179  0.0320  1.0231  0.0678
 6150SOL    HW224366   0.919   0.445   1.149  1.4323  1.3251 -0.4486
 6150SOL    HW324367   0.831   0.567   1.134  0.9480  0.8267 -1.7242
 6150SOL    MW424368   0.900   0.527   1.169  0.3376  1.0370 -0.2368
 6151SOL     OW24369   6.307   5.307   5.715 -0.1115  0.1991  0.1670
 6151SOL    HW224370   6.352   5.264   5.788 -0.0357  0.7972  0.4764
 6151SOL    HW324371   6.239   5.360   5.756 -2.5528 -2.2523 -0.3632
 6151SOL    MW424372   6.304   5.308   5.730 -0.4236 -0.0455  0.1379
 6152SOL     OW24373   3.967   1.731   1.610  0.2142  0.1214 -0.5132
 6152SOL    HW224374   3.989   1.788   1.683 -1.1953  0.7387 -0.5545
 6152SOL    HW324375   3.971   1.642   1.646 -2.1605  0.4863  0.8118
 6152SOL    MW424376   3.971   1.727   1.624 -0.2851  0.2510 -0.3438
 6153SOL     OW24377   1.149   5.831   2.551  0.0322  0.1774 -0.2598
 6153SOL    HW224378   1.058   5.826   2.581 -0.4253 -0.0204 -1.6393
 6153SOL    HW324379   1.160   5.756   2.493  1.7650 -1.1173  1.5837
 6153SOL    MW424380   1.138   5.821   2.547  0.2005 -0.0195 -0.1986
 6154SOL     OW24381   6.074   1.077   3.248 -0.2878 -0.7914 -0.0180
 6154SOL    HW224382   5.992   1.090   3.296 -0.3846 -1.9220  0.1458
 6154SOL    HW324383   6.142   1.110   3.307 -0.5948  0.0526 -0.1107
 6154SOL    MW424384   6.072   1.083   3.262 -0.3410 -0.8292 -0.0086
 6155SOL     OW24385   0.656   1.430   3.637 -0.1591 -0.7843 -0.4229
 6155SOL    HW224386   0.655   1.346   3.591  0.5868 -0.2785 -1.3921
 6155SOL    HW324387   0.639   1.495   3.569 -0.4592 -0.1241  0.2714
 6155SOL    MW424388   0.653   1.427   3.622 -0.1003 -0.6304 -0.4592
 6156SOL     OW24389   1.673   4.101   6.135  0.5766 -0.3597 -0.0459
 6156SOL    HW224390   1.753   4.084   6.186 -0.6791 -0.3602  2.0481
 6156SOL    HW324391   1.686   4.189   6.101  1.4634 -0.3321  0.3147
 6156SOL    MW424392   1.685   4.111   6.138  0.5279 -0.3561  0.2780
 6157SOL     OW24393   5.959   0.570   1.772  0.3039  0.5384  0.0701
 6157SOL    HW224394   6.043   0.533   1.744  0.2635 -0.6205  1.3761
 6157SOL    HW324395   5.899   0.549   1.700  0.5040 -1.1599  0.3632
 6157SOL    MW424396   5.962   0.562   1.759  0.3250  0.1614  0.2811
 6158SOL     OW24397   3.611   1.057   3.989 -0.0242 -0.1607  0.3564
 6158SOL    HW224398   3.579   1.142   4.017  0.2374  0.5439 -1.3376
 6158SOL    HW324399   3.541   0.996   4.013 -0.6006  0.6581  0.7943
 6158SOL    MW424400   3.597   1.060   3.996 -0.0657  0.0403  0.1907
 6159SOL     OW24401   2.849   1.548   0.600  0.4426  0.1403 -0.3817
 6159SOL    HW224402   2.809   1.593   0.675 -0.2666  1.6648 -1.6275
 6159SOL    HW324403   2.936   1.585   0.593  1.0720 -1.0868  0.5594
 6159SOL    MW424404   2.855   1.559   0.609  0.4321  0.1795 -0.4219
 6160SOL     OW24405   1.997   5.173   5.524 -0.1120  0.1004 -0.1599
 6160SOL    HW224406   1.923   5.123   5.487 -1.3262  1.3055  0.5563
 6160SOL    HW324407   1.986   5.261   5.490  1.0130  0.3118 -0.0162
 6160SOL    MW424408   1.986   5.178   5.515 -0.1237  0.2873 -0.0464
 6161SOL     OW24409   4.553   0.016   5.811 -0.5261 -0.1076  0.3288
 6161SOL    HW224410   4.534  -0.050   5.744 -0.1679  1.6176 -1.5651
 6161SOL    HW324411   4.473   0.068   5.815  1.0631  2.9209 -2.6127
 6161SOL    MW424412   4.540   0.014   5.803 -0.2692  0.5196 -0.3092
 6162SOL     OW24413   1.747   4.994   4.691 -0.5211  0.1009 -0.2760
 6162SOL    HW224414   1.770   5.004   4.783  0.3582 -2.2537 -0.1483
 6162SOL    HW324415   1.652   5.001   4.688 -0.7068 -1.3456  1.1089
 6162SOL    MW424416   1.737   4.996   4.703 -0.4296 -0.4006 -0.0764
 6163SOL     OW24417   5.939   3.206   1.277  0.1036 -0.0637  0.5214
 6163SOL    HW224418   5.911   3.255   1.354 -0.8928 -0.3142  0.3215
 6163SOL    HW324419   6.030   3.181   1.296  0.0079  0.2539  1.4139
 6163SOL    MW424420   5.948   3.210   1.289 -0.0404 -0.0549  0.6128
 6164SOL     OW24421   0.152   3.104   4.024  0.5058  0.0795 -0.1851
 6164SOL    HW224422   0.066   3.146   4.027 -0.1421 -1.1225 -0.7291
 6164SOL    HW324423   0.194   3.141   3.947  0.3675  0.4947 -0.0604
 6164SOL    MW424424   0.146   3.114   4.014  0.4020 -0.0243 -0.2404
 6165SOL     OW24425   4.613   5.971   0.133 -0.4215 -0.6232  0.8830
 6165SOL    HW224426   4.577   5.942   0.218  2.5010 -0.0594  2.4334
 6165SOL    HW324427   4.646   6.059   0.150 -0.6851 -0.0758 -1.1899
 6165SOL    MW424428   4.612   5.978   0.147 -0.0707 -0.4766  0.8141
 6166SOL     OW24429   6.123   0.998   6.024 -0.0212 -0.6319 -0.1136
 6166SOL    HW224430   6.098   0.912   6.055  0.1653 -1.2785 -1.6633
 6166SOL    HW324431   6.164   1.041   6.099  0.1800 -2.0092  0.5747
 6166SOL    MW424432   6.125   0.993   6.038  0.0300 -0.8989 -0.2273
 6167SOL     OW24433   0.886   3.894   5.182 -0.9291  0.6128  0.1741
 6167SOL    HW224434   0.914   3.961   5.120 -2.3035  0.7979 -0.2931
 6167SOL    HW324435   0.963   3.839   5.195 -0.6512  0.4435 -1.8820
 6167SOL    MW424436   0.899   3.896   5.175 -1.0738  0.6149 -0.1588
 6168SOL     OW24437   0.981   4.211   0.927  0.7961  0.1966 -0.2133
 6168SOL    HW224438   1.024   4.171   0.852  0.9451 -1.0293  0.5080
 6168SOL    HW324439   0.915   4.269   0.888  0.7632 -0.5350 -1.2854
 6168SOL    MW424440   0.978   4.214   0.912  0.8114 -0.0617 -0.2596
 6169SOL     OW24441   3.463   2.875   4.027 -0.0933 -0.3528  0.3538
 6169SOL    HW224442   3.411   2.795   4.015 -0.6235 -0.0066  0.3418
 6169SOL    HW324443   3.424   2.938   3.967  2.1925 -0.9299 -1.9168
 6169SOL    MW424444   3.451   2.873   4.018  0.1383 -0.3833  0.0527
 6170SOL     OW24445   1.434   2.935   2.311 -0.0067 -0.4400  0.5469
 6170SOL    HW224446   1.468   3.002   2.370 -1.0166  1.9461 -1.4193
 6170SOL    HW324447   1.494   2.936   2.236  0.1555 -2.0072  0.6312
 6170SOL    MW424448   1.446   2.944   2.309 -0.1185 -0.3320  0.2986
 6171SOL     OW24449   2.107   5.579   0.476 -0.1487 -0.1315  0.4738
 6171SOL    HW224450   2.159   5.648   0.517 -2.2020 -0.1807  3.4633
 6171SOL    HW324451   2.121   5.502   0.531  0.5972 -1.6747 -1.6995
 6171SOL    MW424452   2.116   5.578   0.488 -0.3212 -0.3416  0.5815
 6172SOL     OW24453   0.332   1.658   6.261  0.0372  0.4636 -0.0867
 6172SOL    HW224454   0.302   1.714   6.189  1.0931 -0.1931 -1.0551
 6172SOL    HW324455   0.377   1.718   6.321 -0.4646  0.9355 -0.1687
 6172SOL    MW424456   0.334   1.673   6.260  0.1103  0.4392 -0.2253
 6173SOL     OW24457   0.888   1.030   6.350 -1.2076 -0.1810 -0.0600
 6173SOL    HW224458   0.894   1.102   6.413  0.8459  0.1922 -0.5903
 6173SOL    HW324459   0.812   1.051   6.296 -1.5735  0.7518  0.7925
 6173SOL    MW424460   0.879   1.042   6.351 -0.9850 -0.0087 -0.0175
 6174SOL     OW24461   2.345   2.467   5.130  0.1201 -0.7633  0.4082
 6174SOL    HW224462   2.259   2.433   5.105  0.3009 -1.9412  1.2844
 6174SOL    HW324463   2.407   2.402   5.097  0.7203  0.2440 -0.5051
 6174SOL    MW424464   2.342   2.454   5.122  0.2231 -0.7858  0.4033
 6175SOL     OW24465   3.398   1.167   0.491 -0.6946  0.2240 -0.0743
 6175SOL    HW224466   3.420   1.121   0.573 -1.6058 -1.6974 -0.8253
 6175SOL    HW324467   3.482   1.186   0.451 -0.2299 -1.9211 -0.2594
 6175SOL    MW424468   3.412   1.163   0.497 -0.7535 -0.3125 -0.1978
 6176SOL     OW24469   4.199   4.608   4.380 -0.1234  0.0918 -0.2071
 6176SOL    HW224470   4.199   4.651   4.465 -0.4497  1.0550 -0.6864
 6176SOL    HW324471   4.166   4.519   4.398 -0.9329  0.5336  0.5502
 6176SOL    MW424472   4.195   4.602   4.393 -0.2732  0.2772 -0.1705
 6177SOL     OW24473   5.667   6.315   3.087  0.0892  0.3501 -0.0841
 6177SOL    HW224474   5.717   6.282   3.162 -1.4758  0.4335  1.0611
 6177SOL    HW324475   5.600   6.370   3.127 -1.4958 -0.5005 -1.4633
 6177SOL    MW424476   5.665   6.318   3.102 -0.3264  0.2489 -0.1150
 6178SOL     OW24477   4.684   0.712   4.885 -0.1131 -0.3762  0.5016
 6178SOL    HW224478   4.669   0.746   4.973  1.4141 -0.6925  0.9164
 6178SOL    HW324479   4.770   0.670   4.890  0.8007  1.0900 -1.5818
 6178SOL    MW424480   4.694   0.711   4.898  0.2090 -0.2245  0.2814
 6179SOL     OW24481   3.289   2.168   1.525  0.2105 -0.5890  0.1828
 6179SOL    HW224482   3.279   2.076   1.500  2.8824 -0.9352  0.0818
 6179SOL    HW324483   3.257   2.217   1.449  1.3616 -1.5158 -0.9472
 6179SOL    MW424484   3.284   2.162   1.512  0.7149 -0.7570  0.0204
 6180SOL     OW24485   5.298   5.243   4.818  0.3636  0.0587  0.4235
 6180SOL    HW224486   5.359   5.206   4.882  0.2138  0.6660  0.9379
 6180SOL    HW324487   5.280   5.172   4.757  1.3986 -0.1986  0.4019
 6180SOL    MW424488   5.303   5.229   4.819  0.4804  0.1049  0.4885
 6181SOL     OW24489   0.703   5.080   0.815 -0.0386 -0.8559  0.2561
 6181SOL    HW224490   0.697   5.000   0.868 -0.8913 -0.8619  0.1728
 6181SOL    HW324491   0.636   5.068   0.747 -1.4630  0.7029  1.3109
 6181SOL    MW424492   0.693   5.068   0.813 -0.3390 -0.6511  0.3842
 6182SOL     OW24493   2.009   3.816   2.534  0.4467  0.3546 -0.9214
 6182SOL    HW224494   2.069   3.890   2.527 -0.4934  1.4515  1.3700
 6182SOL    HW324495   2.065   3.742   2.556  1.3123  0.5239 -2.4449
 6182SOL    MW424496   2.024   3.816   2.536  0.4369  0.5217 -0.8201
 6183SOL     OW24497   2.814   3.476   6.285 -0.4312 -0.0845 -0.1406
 6183SOL    HW224498   2.903   3.442   6.296 -0.4670  0.2463  1.4066
 6183SOL    HW324499   2.765   3.435   6.356 -1.5034 -0.1699 -0.9119
 6183SOL    MW424500   2.819   3.466   6.296 -0.5774 -0.0521 -0.0382
 6184SOL     OW24501   0.177   0.063   1.045 -0.2135 -0.4968 -0.0388
 6184SOL    HW224502   0.123  -0.001   1.092  0.9146 -0.4822  1.3350
 6184SOL    HW324503   0.259   0.016   1.028  0.4415  0.3957  0.5479
 6184SOL    MW424504   0.181   0.048   1.049  0.0218 -0.3771  0.2199
 6185SOL     OW24505   1.250   0.742   0.639 -0.2605  0.3999  0.0686
 6185SOL    HW224506   1.276   0.652   0.660  1.0179  0.5557 -0.6972
 6185SOL    HW324507   1.211   0.776   0.720 -0.6235 -0.7878  0.4070
 6185SOL    MW424508   1.249   0.735   0.652 -0.1397  0.2638  0.0122
 6186SOL     OW24509   4.647   2.001   2.005  0.5235  0.3666  0.5933
 6186SOL    HW224510   4.675   1.933   1.944  1.2540  0.3715  0.9188
 6186SOL    HW324511   4.685   2.082   1.971  0.6589  0.4215  0.8699
 6186SOL    MW424512   4.655   2.003   1.993  0.6377  0.3745  0.6728
 6187SOL     OW24513   1.970   2.889   4.356 -0.5062 -0.3067  0.2972
 6187SOL    HW224514   1.943   2.942   4.281  0.5404  0.0683  0.1582
 6187SOL    HW324515   1.905   2.819   4.361  1.1100 -2.2866 -2.9789
 6187SOL    MW424516   1.958   2.887   4.347 -0.1549 -0.5184 -0.1534
 6188SOL     OW24517   2.139   3.958   0.614 -0.3120  0.1038 -0.1037
 6188SOL    HW224518   2.175   3.869   0.610 -0.5969  0.0113 -0.8573
 6188SOL    HW324519   2.075   3.954   0.684  1.6969  0.4994  1.8735
 6188SOL    MW424520   2.136   3.945   0.623 -0.0846  0.1438  0.0577
 6189SOL     OW24521   2.073   0.996   2.676 -0.3059  0.4351  0.1017
 6189SOL    HW224522   2.121   1.019   2.597  0.5014 -1.2557  0.0591
 6189SOL    HW324523   2.100   0.906   2.695 -1.3581  0.4141  1.6534
 6189SOL    MW424524   2.083   0.987   2.668 -0.3382  0.2093  0.3008
 6190SOL     OW24525   0.040   1.361   4.034 -0.0401  0.3567  0.6739
 6190SOL    HW224526  -0.007   1.430   3.987 -0.0598  1.5353  2.3724
 6190SOL    HW324527   0.132   1.376   4.013  0.2377  2.5693  3.0266
 6190SOL    MW424528   0.046   1.372   4.025 -0.0060  0.8041  1.2084
 6191SOL     OW24529   4.625   6.335   4.126  0.6139  0.4690  0.2788
 6191SOL    HW224530   4.556   6.275   4.153  1.2262 -0.4450 -0.0955
 6191SOL    HW324531   4.582   6.399   4.069  0.2272 -0.6921 -0.7863
 6191SOL    MW424532   4.611   6.335   4.122  0.6436  0.1952  0.0889
 6192SOL     OW24533   4.661   2.027   5.525 -0.1411  0.2198 -0.0886
 6192SOL    HW224534   4.567   2.016   5.541  0.0999  0.3275  1.5151
 6192SOL    HW324535   4.694   1.938   5.514 -0.3033  0.1319  0.1236
 6192SOL    MW424536   4.653   2.014   5.526 -0.1307  0.2224  0.1510
 6193SOL     OW24537   2.424   5.795   6.236  0.1445  0.0347 -0.0358
 6193SOL    HW224538   2.331   5.771   6.245  0.4857 -0.7879  1.7866
 6193SOL    HW324539   2.427   5.887   6.262 -0.0918 -0.0803  0.4149
 6193SOL    MW424540   2.412   5.804   6.240  0.1583 -0.0890  0.2641
 6194SOL     OW24541   2.472   0.172   0.121 -0.2164 -0.2985 -0.4582
 6194SOL    HW224542   2.448   0.105   0.185  0.3174 -0.2787 -0.2313
 6194SOL    HW324543   2.395   0.228   0.115  0.0290  0.2251  0.8428
 6194SOL    MW424544   2.458   0.170   0.129 -0.1136 -0.2268 -0.2566
 6195SOL     OW24545   1.742   0.546   3.561 -0.6130  0.0406  0.0083
 6195SOL    HW224546   1.706   0.603   3.628 -0.1053 -1.0802  1.2646
 6195SOL    HW324547   1.690   0.565   3.483 -2.4447  0.0650  1.1791
 6195SOL    MW424548   1.731   0.556   3.559 -0.7877 -0.1041  0.3285
 6196SOL     OW24549   0.622   3.291   3.045 -0.4378 -0.3428  0.1034
 6196SOL    HW224550   0.646   3.308   2.954  0.8387  0.0607  0.4898
 6196SOL    HW324551   0.705   3.289   3.092 -0.9723 -1.8001  1.0738
 6196SOL    MW424552   0.636   3.293   3.039 -0.3399 -0.4818  0.2824
 6197SOL     OW24553   3.277   4.955   5.558  0.0395 -0.5819  0.4130
 6197SOL    HW224554   3.356   5.006   5.539  0.4927 -0.4243  2.4492
 6197SOL    HW324555   3.205   5.016   5.542  0.4681  0.0431  0.8220
 6197SOL    MW424556   3.278   4.970   5.554  0.1559 -0.4787  0.7356
 6198SOL     OW24557   6.046   4.576   2.969 -0.2780  0.6463  0.0470
 6198SOL    HW224558   6.137   4.586   2.941 -0.4826  0.8514 -0.5680
 6198SOL    HW324559   6.020   4.489   2.937 -0.9458  1.4431 -1.6978
 6198SOL    MW424560   6.054   4.566   2.961 -0.3931  0.7785 -0.2644
 6199SOL     OW24561   1.467   4.556   5.616 -0.2290  0.6030 -0.5020
 6199SOL    HW224562   1.524   4.567   5.691 -0.1519  0.4535 -0.5377
 6199SOL    HW324563   1.378   4.557   5.652 -0.2294  1.3675 -0.5096
 6199SOL    MW424564   1.463   4.558   5.630 -0.2189  0.6842 -0.5077
 6200SOL     OW24565   1.065   5.936   5.347 -0.4670 -0.3561 -0.2223
 6200SOL    HW224566   1.003   5.895   5.408  0.4155 -0.8003  0.4081
 6200SOL    HW324567   1.132   5.869   5.333 -0.1104  0.1238 -0.8684
 6200SOL    MW424568   1.065   5.921   5.353 -0.3035 -0.3514 -0.2244
 6201SOL     OW24569   4.216   1.564   0.067  0.0741 -0.3264 -0.1623
 6201SOL    HW224570   4.237   1.605  -0.017  1.0336 -0.7187 -0.1401
 6201SOL    HW324571   4.236   1.471   0.053  0.6775 -0.3279  0.6187
 6201SOL    MW424572   4.222   1.557   0.054  0.2803 -0.3784 -0.0564
 6202SOL     OW24573   1.788   2.321   4.381  0.2138  0.1595  0.5593
 6202SOL    HW224574   1.735   2.378   4.326  1.0997  1.2807  0.8521
 6202SOL    HW324575   1.736   2.310   4.461  0.7790  1.9828  1.2133
 6202SOL    MW424576   1.774   2.327   4.385  0.4052  0.5480  0.6842
 6203SOL     OW24577   3.732   3.637   0.348  0.1194  0.4279  0.1443
 6203SOL    HW224578   3.701   3.710   0.403 -1.1079 -0.8047  1.1654
 6203SOL    HW324579   3.816   3.613   0.385 -1.0117 -0.8551  2.0297
 6203SOL    MW424580   3.739   3.644   0.360 -0.1918  0.0960  0.5278
 6204SOL     OW24581   5.548   3.018   2.307 -0.7713 -0.0608  0.1902
 6204SOL    HW224582   5.527   2.946   2.248 -0.6838  0.9738 -1.1298
 6204SOL    HW324583   5.634   3.049   2.278 -0.2975 -0.1061  1.4478
 6204SOL    MW424584   5.557   3.013   2.296 -0.6972  0.0697  0.1819
 6205SOL     OW24585   4.280   1.532   0.443 -0.1179  0.2064  0.3664
 6205SOL    HW224586   4.334   1.599   0.401  0.6185 -0.7526 -0.2687
 6205SOL    HW324587   4.276   1.461   0.378  0.6866 -1.1417  1.7210
 6205SOL    MW424588   4.287   1.531   0.429  0.0854 -0.0980  0.4613
 6206SOL     OW24589   2.125   5.769   6.181 -0.3423 -0.8088  0.3618
 6206SOL    HW224590   2.060   5.767   6.111 -0.4866 -0.0841  0.4632
 6206SOL    HW324591   2.109   5.852   6.226  0.7504 -0.5427  0.2985
 6206SOL    MW424592   2.114   5.780   6.178 -0.2172 -0.6781  0.3669
 6207SOL     OW24593   3.674   6.155   0.839  0.3277 -0.2612 -0.3155
 6207SOL    HW224594   3.765   6.154   0.866  0.2198  0.6240  0.1081
 6207SOL    HW324595   3.626   6.190   0.914 -0.3311 -0.4994 -0.6115
 6207SOL    MW424596   3.679   6.160   0.852  0.2266 -0.1758 -0.2986
 6208SOL     OW24597   0.576   1.797   3.854  0.2033  0.2056 -0.0798
 6208SOL    HW224598   0.481   1.801   3.868  0.6018  1.5414  2.9811
 6208SOL    HW324599   0.585   1.804   3.759 -2.7465  0.4793 -0.4619
 6208SOL    MW424600   0.564   1.799   3.843 -0.1333  0.4180  0.2737
 6209SOL     OW24601   4.590   2.619   3.704  0.6710  0.5312  0.2537
 6209SOL    HW224602   4.605   2.538   3.655 -2.5941  1.0697 -1.9057
 6209SOL    HW324603   4.564   2.589   3.791  2.2542 -0.5769  0.4016
 6209SOL    MW424604   4.589   2.604   3.709  0.4491  0.4560 -0.0117
 6210SOL     OW24605   4.883   4.108   5.286  0.1433 -0.0833  0.1046
 6210SOL    HW224606   4.935   4.027   5.285 -0.8900 -0.8369 -2.9348
 6210SOL    HW324607   4.935   4.171   5.237 -0.1924  0.3135  0.2539
 6210SOL    MW424608   4.896   4.105   5.279 -0.0373 -0.1304 -0.2767
 6211SOL     OW24609   5.309   1.829   1.767  0.1535  0.2196 -0.3053
 6211SOL    HW224610   5.284   1.738   1.783  1.8485 -0.0788  0.8927
 6211SOL    HW324611   5.341   1.830   1.677  1.1746 -0.6508  0.0254
 6211SOL    MW424612   5.310   1.817   1.757  0.5119  0.0654 -0.1036
 6212SOL     OW24613   2.242   1.518   4.947  0.5090 -0.2810 -0.4572
 6212SOL    HW224614   2.210   1.579   4.881  0.6909 -0.2020 -0.4736
 6212SOL    HW324615   2.209   1.433   4.919 -1.3157  0.0501  0.5764
 6212SOL    MW424616   2.234   1.515   4.935  0.2923 -0.2269 -0.3230
 6213SOL     OW24617   3.750   0.465   4.751 -0.2313 -0.3886 -0.2510
 6213SOL    HW224618   3.836   0.437   4.719 -0.4849 -0.4240 -0.9284
 6213SOL    HW324619   3.747   0.438   4.843 -0.0079 -1.5020 -0.5633
 6213SOL    MW424620   3.761   0.458   4.759 -0.2353 -0.5401 -0.3816
 6214SOL     OW24621   0.343   1.042   5.811 -0.6083  0.1108  0.3956
 6214SOL    HW224622   0.411   1.109   5.817 -0.0864 -0.3233 -0.3716
 6214SOL    HW324623   0.383   0.973   5.756 -1.1064 -0.8414  1.2005
 6214SOL    MW424624   0.357   1.042   5.804 -0.6051 -0.0721  0.4006
 6215SOL     OW24625   5.806   3.036   2.142  0.2126  0.2061  0.0047
 6215SOL    HW224626   5.845   3.121   2.124  0.8562 -0.2108 -0.6581
 6215SOL    HW324627   5.880   2.977   2.150 -0.2364 -0.3543  0.1063
 6215SOL    MW424628   5.821   3.039   2.140  0.2382  0.0771 -0.0694
 6216SOL     OW24629   1.424   5.811   4.349  0.2207 -0.0912  0.0474
 6216SOL    HW224630   1.473   5.835   4.270 -0.4560  1.7762  0.1459
 6216SOL    HW324631   1.363   5.743   4.320 -0.3557  0.9063 -1.1869
 6216SOL    MW424632   1.423   5.805   4.335  0.0554  0.2868 -0.1025
 6217SOL     OW24633   6.066   2.923   2.110 -0.2783  0.1207  0.1477
 6217SOL    HW224634   6.112   3.004   2.132  0.5681 -0.5416  0.9155
 6217SOL    HW324635   6.118   2.883   2.040 -0.1215 -0.2499  0.4723
 6217SOL    MW424636   6.079   2.928   2.104 -0.1459 -0.0156  0.2919
 6218SOL     OW24637   4.474   1.254   0.769 -0.6955 -0.1717 -0.5016
 6218SOL    HW224638   4.439   1.233   0.855  0.4597 -1.3935 -0.2877
 6218SOL    HW324639   4.518   1.173   0.741 -0.5143  0.4004 -1.9619
 6218SOL    MW424640   4.475   1.240   0.776 -0.5192 -0.2574 -0.6660
 6219SOL     OW24641   3.930   4.081   1.882  0.3034  0.6262  0.1102
 6219SOL    HW224642   3.852   4.129   1.907  0.7928  1.3881  0.2282
 6219SOL    HW324643   3.977   4.141   1.823  1.3203  0.6266  0.9017
 6219SOL    MW424644   3.926   4.095   1.877  0.5021  0.7268  0.2302
 6220SOL     OW24645   1.614   1.828   0.568 -0.1823 -0.1566  0.3338
 6220SOL    HW224646   1.588   1.736   0.573  1.3745 -0.6207  0.2634
 6220SOL    HW324647   1.588   1.855   0.480 -1.5924 -0.2087  0.7126
 6220SOL    MW424648   1.607   1.820   0.557 -0.1629 -0.2247  0.3745
 6221SOL     OW24649   6.147   3.079   1.044  0.3083  0.3103  0.5418
 6221SOL    HW224650   6.088   3.008   1.068  0.1691  0.8858  2.0668
 6221SOL    HW324651   6.090   3.144   1.003  0.7400 -1.2011 -2.7619
 6221SOL    MW424652   6.132   3.078   1.042  0.3469  0.1868  0.3072
 6222SOL     OW24653   2.862   2.057   1.747 -0.0806  0.4328 -0.2342
 6222SOL    HW224654   2.898   2.014   1.824  0.6091  1.2004 -0.1159
 6222SOL    HW324655   2.870   1.992   1.677 -0.3085 -0.1092  0.2352
 6222SOL    MW424656   2.867   2.043   1.748 -0.0197  0.4625 -0.1567
 6223SOL     OW24657   4.299   5.562   5.844  0.0689 -0.4373 -0.3821
 6223SOL    HW224658   4.248   5.526   5.770 -0.6007  0.6369 -0.4644
 6223SOL    HW324659   4.305   5.655   5.825  0.7065 -0.3051  0.4577
 6223SOL    MW424660   4.293   5.569   5.832  0.0647 -0.2781 -0.2821
 6224SOL     OW24661   5.853   4.103   0.731  0.5411  0.2991 -0.1094
 6224SOL    HW224662   5.805   4.077   0.653  0.4109 -0.9008  0.3450
 6224SOL    HW324663   5.786   4.138   0.790  0.2117 -1.1906  0.4480
 6224SOL    MW424664   5.838   4.104   0.728  0.4805 -0.0558  0.0241
 6225SOL     OW24665   1.358   2.438   4.501 -0.3144 -0.0350 -0.2136
 6225SOL    HW224666   1.295   2.365   4.501  0.8099 -1.0454  0.1972
 6225SOL    HW324667   1.321   2.501   4.562 -1.3226 -0.2480 -0.5800
 6225SOL    MW424668   1.344   2.436   4.509 -0.2991 -0.1964 -0.2077
 6226SOL     OW24669   5.963   5.288   5.305 -0.0253 -0.1325 -0.1068
 6226SOL    HW224670   5.887   5.283   5.362 -0.7023 -0.3028 -0.9941
 6226SOL    HW324671   6.000   5.374   5.321 -1.5157  0.7164 -1.0185
 6226SOL    MW424672   5.958   5.298   5.314 -0.3113 -0.0430 -0.3442
 6227SOL     OW24673   3.545   5.847   3.227 -1.2158  0.4474 -0.4472
 6227SOL    HW224674   3.618   5.889   3.182  0.2342  0.9128  2.1030
 6227SOL    HW324675   3.476   5.914   3.230 -0.0631  1.6468  0.8883
 6227SOL    MW424676   3.545   5.861   3.222 -0.8724  0.6671  0.0654
 6228SOL     OW24677   4.497   3.846   2.608  0.1168  0.6568  0.7783
 6228SOL    HW224678   4.475   3.796   2.687 -1.1544  2.5119  1.6768
 6228SOL    HW324679   4.538   3.927   2.641 -2.6833  2.6281 -0.1967
 6228SOL    MW424680   4.500   3.850   2.623 -0.4204  1.1616  0.7682
 6229SOL     OW24681   6.302   4.798   0.175  0.2562  0.4835  0.0358
 6229SOL    HW224682   6.294   4.707   0.206 -0.1889  0.2259 -0.8057
 6229SOL    HW324683   6.212   4.828   0.168  0.3999  0.9317  0.1133
 6229SOL    MW424684   6.289   4.790   0.178  0.2164  0.5087 -0.0650
 6230SOL     OW24685   4.975   4.508   2.083  0.2771  0.3580 -0.1624
 6230SOL    HW224686   4.900   4.541   2.033  0.9484  0.6255 -1.0218
 6230SOL    HW324687   5.020   4.586   2.114  0.7816  0.2212 -0.5391
 6230SOL    MW424688   4.971   4.522   2.080  0.4322  0.3752 -0.3255
 6231SOL     OW24689   2.484   2.745   2.223 -0.1004  0.0162 -0.0464
 6231SOL    HW224690   2.409   2.779   2.271 -0.7204 -1.8636  0.3789
 6231SOL    HW324691   2.548   2.722   2.291  0.9500  1.7026 -0.4061
 6231SOL    MW424692   2.483   2.746   2.238 -0.0436 -0.0093 -0.0378
 6232SOL     OW24693   3.048   1.292   2.119 -1.0724 -0.0153 -0.1933
 6232SOL    HW224694   3.081   1.381   2.109  0.3554 -0.5225 -0.1875
 6232SOL    HW324695   2.963   1.302   2.162 -0.5753  1.2965  0.5163
 6232SOL    MW424696   3.041   1.305   2.124 -0.8185  0.0909 -0.0989
 6233SOL     OW24697   5.364   2.937   2.958  0.2594  0.2938  0.3713
 6233SOL    HW224698   5.453   2.933   2.922  0.0576 -0.5306 -0.0494
 6233SOL    HW324699   5.354   3.028   2.987 -0.3471  1.7457 -3.6616
 6233SOL    MW424700   5.374   2.949   2.957  0.1527  0.3766 -0.2163
 6234SOL     OW24701   2.443   6.115   0.819  0.0892  0.3219  0.4311
 6234SOL    HW224702   2.477   6.194   0.861 -1.3285  0.9899  0.3817
 6234SOL    HW324703   2.456   6.045   0.883 -0.4382  0.9870  1.2824
 6234SOL    MW424704   2.449   6.116   0.833 -0.1674  0.4978  0.5369
 6235SOL     OW24705   3.281   4.674   1.404  0.2356 -0.3467 -0.6213
 6235SOL    HW224706   3.377   4.668   1.403  0.1630 -2.1367 -0.8618
 6235SOL    HW324707   3.257   4.694   1.314  0.3939  0.5886 -0.4623
 6235SOL    MW424708   3.291   4.676   1.392  0.2469 -0.4594 -0.6321
 6236SOL     OW24709   2.263   1.220   3.712  0.7059 -0.8186 -0.7582
 6236SOL    HW224710   2.288   1.184   3.798  2.3806  1.4264 -0.2098
 6236SOL    HW324711   2.291   1.153   3.650  0.7335 -1.8863  0.3574
 6236SOL    MW424712   2.270   1.206   3.715  0.9305 -0.6633 -0.5387
 6237SOL     OW24713   0.166   1.759   2.222  0.5478  0.4565 -0.1210
 6237SOL    HW224714   0.238   1.783   2.164  1.1243  0.6023  0.6456
 6237SOL    HW324715   0.093   1.740   2.163  0.8026  1.6626 -0.8626
 6237SOL    MW424716   0.166   1.760   2.207  0.6575  0.6349 -0.1177
 6238SOL     OW24717   6.379   3.943   1.132 -0.4442 -0.2095 -0.6529
 6238SOL    HW224718   6.303   3.990   1.166  0.4871  0.3108  0.8197
 6238SOL    HW324719   6.348   3.853   1.120 -1.2631 -0.0383  0.0515
 6238SOL    MW424720   6.365   3.937   1.135 -0.4294 -0.1183 -0.3657
 6239SOL     OW24721   6.209   4.959   1.350 -0.1421 -0.3306 -0.3201
 6239SOL    HW224722   6.228   4.958   1.256  0.2376  0.6575 -0.2645
 6239SOL    HW324723   6.292   4.983   1.392 -0.2007 -1.1774  0.3055
 6239SOL    MW424724   6.222   4.962   1.343 -0.0997 -0.3120 -0.2302
 6240SOL     OW24725   2.204   5.204   4.593 -0.3467  0.1534  0.4193
 6240SOL    HW224726   2.169   5.291   4.609 -0.0327  0.5475 -0.9421
 6240SOL    HW324727   2.140   5.163   4.534  0.0376 -0.1565  0.2127
 6240SOL    MW424728   2.191   5.210   4.588 -0.2546  0.1645  0.2124
 6241SOL     OW24729   5.282   3.343   4.625 -0.1390 -0.1129 -0.2494
 6241SOL    HW224730   5.260   3.432   4.600  1.6764  0.6013  0.5514
 6241SOL    HW324731   5.367   3.326   4.585  0.0983 -1.0453  0.6007
 6241SOL    MW424732   5.290   3.352   4.617  0.1319 -0.1417 -0.0316
 6242SOL     OW24733   6.109   2.574   4.211 -0.5032  0.2495 -0.1683
 6242SOL    HW224734   6.018   2.603   4.205 -0.7692 -0.1573  1.4163
 6242SOL    HW324735   6.131   2.584   4.304  0.8382 -0.3408 -0.3977
 6242SOL    MW424736   6.100   2.579   4.223 -0.3613  0.1180  0.0105
 6243SOL     OW24737   3.408   2.918   2.269  0.4065  0.3633 -0.1330
 6243SOL    HW224738   3.467   2.849   2.238  0.3391  0.7163 -1.0782
 6243SOL    HW324739   3.436   2.934   2.359  0.4424 -0.8675  0.0890
 6243SOL    MW424740   3.419   2.911   2.277  0.4023  0.2475 -0.2284
 6244SOL     OW24741   2.293   5.545   2.418  0.3131  0.0777 -0.0766
 6244SOL    HW224742   2.316   5.458   2.385  2.2339  0.9721 -1.3201
 6244SOL    HW324743   2.378   5.586   2.437 -0.6016  0.9997  2.4203
 6244SOL    MW424744   2.307   5.539   2.416  0.4458  0.3173  0.0888
 6245SOL     OW24745   5.904   0.042   6.262  0.0087 -0.0819  0.4142
 6245SOL    HW224746   5.981  -0.013   6.277 -0.0820  0.1339  1.7462
 6245SOL    HW324747   5.934   0.107   6.198  0.8200 -0.2237  0.6399
 6245SOL    MW424748   5.918   0.043   6.255  0.1038 -0.0721  0.6197
 6246SOL     OW24749   6.051   0.815   1.589 -0.5243 -0.4479 -0.3317
 6246SOL    HW224750   6.135   0.859   1.597 -1.3362  0.8768  1.7215
 6246SOL    HW324751   6.064   0.729   1.629 -0.0996 -0.2948 -0.1396
 6246SOL    MW424752   6.064   0.809   1.595 -0.5754 -0.2530 -0.0355
 6247SOL     OW24753   5.753   0.635   4.516 -0.0667  0.2251  0.0490
 6247SOL    HW224754   5.662   0.626   4.485 -0.4586  0.3480  1.1018
 6247SOL    HW324755   5.791   0.703   4.461 -1.8804  3.2146  2.1795
 6247SOL    MW424756   5.746   0.642   4.505 -0.3577  0.6358  0.4690
 6248SOL     OW24757   6.145   2.357   5.189 -0.0866 -0.2995  0.7555
 6248SOL    HW224758   6.100   2.368   5.106 -0.6482 -1.7464  0.8356
 6248SOL    HW324759   6.209   2.288   5.172  0.2229 -0.1660  1.3600
 6248SOL    MW424760   6.148   2.349   5.176 -0.1199 -0.4728  0.8458
 6249SOL     OW24761   2.700   0.179   1.910  0.0581 -0.3023 -0.8672
 6249SOL    HW224762   2.741   0.226   1.837  1.2661 -2.3419 -1.5940
 6249SOL    HW324763   2.610   0.164   1.881 -0.4291  1.6438 -0.5282
 6249SOL    MW424764   2.693   0.183   1.896  0.1532 -0.3146 -0.9183
 6250SOL     OW24765   6.208   5.870   5.796  0.1755  0.1297  0.0293
 6250SOL    HW224766   6.190   5.928   5.723  0.4711 -1.1223 -1.0834
 6250SOL    HW324767   6.262   5.923   5.856  0.4926  0.9709 -0.9706
 6250SOL    MW424768   6.213   5.885   5.794  0.2564  0.0755 -0.2495
 6251SOL     OW24769   6.042   0.034   4.196  0.1349  0.2085 -0.4051
 6251SOL    HW224770   5.950   0.060   4.206 -0.3427 -1.3584 -0.5067
 6251SOL    HW324771   6.091   0.109   4.230 -1.2044  0.5335  0.9327
 6251SOL    MW424772   6.036   0.047   4.202 -0.1048  0.0446 -0.2420
 6252SOL     OW24773   2.999   1.524   5.481 -0.4890 -0.5149 -0.1016
 6252SOL    HW224774   3.007   1.455   5.547  1.5256  0.1299  0.3992
 6252SOL    HW324775   3.049   1.493   5.406  1.1742  0.6841  0.4430
 6252SOL    MW424776   3.007   1.511   5.480 -0.0038 -0.2716  0.0364
 6253SOL     OW24777   1.289   5.213   3.782 -0.1057  0.2435  0.3550
 6253SOL    HW224778   1.335   5.160   3.717 -0.6626  0.6667 -0.3973
 6253SOL    HW324779   1.303   5.303   3.753  1.7353  0.6226  2.2067
 6253SOL    MW424780   1.297   5.218   3.769  0.0637  0.3494  0.5000
 6254SOL     OW24781   4.992   4.203   3.361  0.2912  0.2945 -0.5644
 6254SOL    HW224782   4.957   4.242   3.441  2.3301  1.0522  0.0166
 6254SOL    HW324783   4.982   4.272   3.295  0.4269  0.4244 -0.4534
 6254SOL    MW424784   4.986   4.218   3.363  0.5781  0.4116 -0.4731
 6255SOL     OW24785   1.335   0.332   5.150  0.2047 -0.5406  0.7595
 6255SOL    HW224786   1.315   0.425   5.158 -2.0996 -0.8218 -0.7370
 6255SOL    HW324787   1.304   0.293   5.232 -0.3110 -0.2010  0.7271
 6255SOL    MW424788   1.329   0.339   5.162 -0.1673 -0.5329  0.5578
 6256SOL     OW24789   0.855   1.620   4.370 -0.0367 -0.2430 -0.6155
 6256SOL    HW224790   0.843   1.544   4.313  0.3638 -2.1894  1.7116
 6256SOL    HW324791   0.793   1.685   4.337 -1.2567 -1.9945 -2.0027
 6256SOL    MW424792   0.845   1.618   4.358 -0.1448 -0.7309 -0.4915
 6257SOL     OW24793   4.671   0.431   1.416  0.3453  0.4852 -0.2388
 6257SOL    HW224794   4.611   0.427   1.490  0.4853 -1.3525 -0.1778
 6257SOL    HW324795   4.665   0.521   1.385 -1.8756  0.5585  0.2356
 6257SOL    MW424796   4.662   0.442   1.422  0.0708  0.2524 -0.1681
 6258SOL     OW24797   1.632   1.309   4.278  0.0707 -0.0829  0.5049
 6258SOL    HW224798   1.692   1.345   4.344  1.5111 -0.5504 -0.4971
 6258SOL    HW324799   1.679   1.235   4.240 -0.6685  0.2322 -1.1156
 6258SOL    MW424800   1.646   1.304   4.281  0.1632 -0.1030  0.1589
 6259SOL     OW24801   5.513   0.724   1.242  0.4055  0.2259 -0.1274
 6259SOL    HW224802   5.558   0.801   1.208  2.4019 -0.3044  1.1534
 6259SOL    HW324803   5.530   0.655   1.178 -0.5521  0.5760 -0.7801
 6259SOL    MW424804   5.521   0.725   1.229  0.5426  0.2022 -0.0445
 6260SOL     OW24805   6.197   1.130   6.285  0.0682  0.0252  0.6890
 6260SOL    HW224806   6.113   1.159   6.321  1.0818  2.3981  1.2847
 6260SOL    HW324807   6.225   1.060   6.344 -1.4923 -0.8664  0.4259
 6260SOL    MW424808   6.190   1.124   6.298 -0.0040  0.2207  0.7329
 6261SOL     OW24809   0.256   6.272   0.458 -1.0332  0.1338 -0.0496
 6261SOL    HW224810   0.192   6.210   0.494  0.1644 -0.1561  1.7325
 6261SOL    HW324811   0.240   6.353   0.505  0.1991 -0.0856  0.7987
 6261SOL    MW424812   0.246   6.274   0.469 -0.7126  0.0666  0.2974
 6262SOL     OW24813   6.068   0.037   2.564 -0.2842  0.0825  0.2908
 6262SOL    HW224814   6.069   0.032   2.469 -1.9945 -0.2374  0.2585
 6262SOL    HW324815   6.005  -0.030   2.591 -0.5067  0.7808  1.5952
 6262SOL    MW424816   6.060   0.027   2.555 -0.5392  0.1324  0.4586
 6263SOL     OW24817   3.213   1.255   1.294 -0.7432  0.4177 -0.1823
 6263SOL    HW224818   3.216   1.285   1.385  1.6540 -1.1501  0.3633
 6263SOL    HW324819   3.123   1.227   1.281 -0.7853 -0.9784  2.3445
 6263SOL    MW424820   3.202   1.255   1.304 -0.4325  0.0266  0.2231
 6264SOL     OW24821   3.820   1.904   0.765 -0.0507 -0.5333  0.7091
 6264SOL    HW224822   3.790   1.992   0.785 -0.3066 -0.5125  0.2426
 6264SOL    HW324823   3.824   1.901   0.669 -0.0136 -1.0169  0.7227
 6264SOL    MW424824   3.817   1.915   0.755 -0.0796 -0.5944  0.6493
 6265SOL     OW24825   3.161   5.679   4.434  0.1736 -0.4177 -0.3216
 6265SOL    HW224826   3.173   5.747   4.501 -1.0079  0.0417 -0.5502
 6265SOL    HW324827   3.224   5.611   4.457 -0.0275 -0.1493  1.1004
 6265SOL    MW424828   3.171   5.679   4.446 -0.0088 -0.3217 -0.1641
 6266SOL     OW24829   4.683   1.560   5.013 -0.4887 -0.0942  0.3336
 6266SOL    HW224830   4.612   1.505   4.978  1.3255 -1.1810 -1.9397
 6266SOL    HW324831   4.755   1.499   5.029  0.6976  1.2638  0.3565
 6266SOL    MW424832   4.683   1.544   5.010 -0.0928 -0.0584  0.0367
 6267SOL     OW24833   2.564   4.582   3.485 -0.0995 -0.7072 -0.1845
 6267SOL    HW224834   2.611   4.499   3.479  0.3346 -0.4249 -0.8748
 6267SOL    HW324835   2.527   4.582   3.573  0.3533 -1.3886  0.0175
 6267SOL    MW424836   2.566   4.571   3.496  0.0175 -0.7599 -0.2489
 6268SOL     OW24837   3.637   3.546   2.141 -0.0621 -0.5378  0.0482
 6268SOL    HW224838   3.698   3.487   2.098 -2.2075 -1.7473 -1.5818
 6268SOL    HW324839   3.621   3.615   2.076 -0.6453 -0.4220  0.3048
 6268SOL    MW424840   3.643   3.548   2.127 -0.4221 -0.6821 -0.1330
 6269SOL     OW24841   2.711   6.427   3.876  0.0220  0.7574 -0.4827
 6269SOL    HW224842   2.650   6.413   3.803 -0.2839 -0.7612  0.0354
 6269SOL    HW324843   2.668   6.491   3.931 -1.2598 -0.4473 -0.0105
 6269SOL    MW424844   2.697   6.433   3.873 -0.1875  0.3981 -0.3521
 6270SOL     OW24845   5.011   3.562   2.756 -0.3481 -0.4226 -0.2745
 6270SOL    HW224846   4.985   3.502   2.686 -1.4697 -1.3060  0.8466
 6270SOL    HW324847   4.965   3.644   2.737 -1.9819 -1.1694  0.2841
 6270SOL    MW424848   5.002   3.565   2.744 -0.7117 -0.6377 -0.0529
 6271SOL     OW24849   2.204   4.534   3.425  0.0993 -0.2091 -0.3137
 6271SOL    HW224850   2.275   4.552   3.364  1.1201  0.1163  0.9264
 6271SOL    HW324851   2.178   4.620   3.458 -0.9191 -0.3202 -0.7896
 6271SOL    MW424852   2.210   4.547   3.421  0.0996 -0.1808 -0.2129
 6272SOL     OW24853   4.883   5.904   0.727  1.0305 -0.4310  0.1813
 6272SOL    HW224854   4.953   5.917   0.790 -0.0247  1.4354  1.0526
 6272SOL    HW324855   4.888   5.980   0.669  1.4637 -1.6970 -1.5598
 6272SOL    MW424856   4.893   5.916   0.727  0.9485 -0.3518  0.0665
 6273SOL     OW24857   2.721   2.600   5.156  0.3804  0.0628 -0.2016
 6273SOL    HW224858   2.705   2.693   5.170 -1.1994 -0.2660  0.3400
 6273SOL    HW324859   2.682   2.581   5.070  3.0952  0.4144 -1.6281
 6273SOL    MW424860   2.714   2.609   5.146  0.5302  0.0658 -0.3183
 6274SOL     OW24861   1.776   5.771   0.630  0.4146 -0.4766 -0.4524
 6274SOL    HW224862   1.818   5.706   0.686  2.0848 -0.6283 -1.7785
 6274SOL    HW324863   1.699   5.728   0.595  0.4741 -1.0783  0.1508
 6274SOL    MW424864   1.772   5.757   0.633  0.6428 -0.5760 -0.5478
 6275SOL     OW24865   5.522   3.702   1.118 -0.2644  0.1732 -0.1573
 6275SOL    HW224866   5.438   3.661   1.139 -0.5320  0.6997 -0.1666
 6275SOL    HW324867   5.498   3.790   1.089  0.3756  0.8323  1.2016
 6275SOL    MW424868   5.508   3.708   1.117 -0.2153  0.3297  0.0208
 6276SOL     OW24869   2.059   1.895   3.318  0.0541  0.1372 -0.3424
 6276SOL    HW224870   2.119   1.831   3.355  0.8110  1.4978  0.8776
 6276SOL    HW324871   2.088   1.979   3.354 -2.4961  0.8672  0.2233
 6276SOL    MW424872   2.071   1.898   3.328 -0.1825  0.4130 -0.1068
 6277SOL     OW24873   6.010   5.185   0.688 -0.0005 -0.7106 -0.6845
 6277SOL    HW224874   6.043   5.241   0.618  0.2336 -0.4451 -0.3641
 6277SOL    HW324875   5.918   5.209   0.696 -0.0741 -0.8719 -1.0232
 6277SOL    MW424876   6.002   5.195   0.680  0.0207 -0.6968 -0.6869
 6278SOL     OW24877   2.467   1.316   3.206  0.7052  0.5741  0.0974
 6278SOL    HW224878   2.549   1.329   3.159  0.7169 -1.1222 -0.4207
 6278SOL    HW324879   2.493   1.275   3.289  0.2977 -1.7220 -0.8463
 6278SOL    MW424880   2.481   1.312   3.211  0.6530  0.0474 -0.0955
 6279SOL     OW24881   3.672   6.323   4.525 -0.1408  0.2146 -0.1309
 6279SOL    HW224882   3.690   6.252   4.463  0.6786  0.2741  0.0300
 6279SOL    HW324883   3.756   6.340   4.567 -0.3220  1.2925 -0.1780
 6279SOL    MW424884   3.685   6.315   4.522 -0.0566  0.3647 -0.1159
 6280SOL     OW24885   3.274   1.395   3.898 -0.2647  0.2084  0.0901
 6280SOL    HW224886   3.195   1.350   3.930 -0.3588 -0.2719 -0.7773
 6280SOL    HW324887   3.319   1.329   3.845 -0.6904  1.2708 -1.6735
 6280SOL    MW424888   3.269   1.380   3.896 -0.3333  0.2852 -0.2570
 6281SOL     OW24889   1.449   4.155   3.394 -0.1886  0.4027 -0.1016
 6281SOL    HW224890   1.459   4.234   3.447  1.5703 -1.2004  2.1761
 6281SOL    HW324891   1.538   4.130   3.370 -0.7585 -0.5432 -1.3776
 6281SOL    MW424892   1.462   4.162   3.398 -0.0317  0.0664  0.0305
 6282SOL     OW24893   4.279   5.346   4.703 -0.5424 -0.6169  0.2560
 6282SOL    HW224894   4.331   5.356   4.623 -2.1798  2.8560 -0.5392
 6282SOL    HW324895   4.318   5.270   4.747  4.8571  1.3233 -0.4529
 6282SOL    MW424896   4.291   5.337   4.698 -0.0461  0.0973  0.0576
 6283SOL     OW24897   5.496   5.920   4.700  0.6061  0.0319  0.9210
 6283SOL    HW224898   5.575   5.957   4.740  0.0428  1.1694  1.0297
 6283SOL    HW324899   5.439   5.996   4.686 -0.1472 -0.6660  0.1098
 6283SOL    MW424900   5.499   5.935   4.703  0.4324  0.0899  0.8283
 6284SOL     OW24901   5.110   2.428   1.310 -0.5556 -0.2811 -0.9282
 6284SOL    HW224902   5.061   2.444   1.230 -1.0362  2.1380 -0.2386
 6284SOL    HW324903   5.102   2.509   1.360 -1.6972 -2.1984  2.3560
 6284SOL    MW424904   5.102   2.441   1.306 -0.7696 -0.2149 -0.4039
 6285SOL     OW24905   3.539   5.315   5.672  0.1613 -0.2170  0.1818
 6285SOL    HW224906   3.487   5.321   5.753 -2.1741 -1.5889 -1.1050
 6285SOL    HW324907   3.536   5.404   5.636 -1.0912 -0.2051  0.2749
 6285SOL    MW424908   3.532   5.328   5.678 -0.3121 -0.3964  0.0243
 6286SOL     OW24909   0.026   2.056   0.703 -0.0925  0.1354 -0.1139
 6286SOL    HW224910  -0.021   2.038   0.622  0.2865  0.7051 -0.4664
 6286SOL    HW324911   0.039   2.151   0.703 -0.0859  0.1398  0.6142
 6286SOL    MW424912   0.022   2.066   0.692 -0.0416  0.2111 -0.0644
 6287SOL     OW24913   4.489   2.093   4.520 -0.1649  0.6846 -0.0707
 6287SOL    HW224914   4.455   2.118   4.607 -0.0592  1.0145 -0.1237
 6287SOL    HW324915   4.583   2.081   4.534 -0.6905 -4.2962  1.0677
 6287SOL    MW424916   4.497   2.095   4.534 -0.2203  0.0710  0.0725
 6288SOL     OW24917   3.330   0.804   0.537 -0.1386  0.1422  0.4101
 6288SOL    HW224918   3.349   0.870   0.603  0.3673  0.7417 -0.3114
 6288SOL    HW324919   3.410   0.751   0.533 -0.5117 -0.4728  0.9274
 6288SOL    MW424920   3.343   0.806   0.545 -0.1210  0.1401  0.3832
 6289SOL     OW24921   2.703   1.201   6.291  0.1578 -0.4955  0.5504
 6289SOL    HW224922   2.689   1.294   6.274 -0.7397 -0.3466  1.9763
 6289SOL    HW324923   2.633   1.157   6.242 -0.7860 -0.2482  1.6329
 6289SOL    MW424924   2.692   1.208   6.282 -0.0852 -0.4432  0.8813
 6290SOL     OW24925   4.794   5.438   0.802  0.3665  0.2797  0.0556
 6290SOL    HW224926   4.712   5.420   0.847 -0.8326  1.4376 -1.5202
 6290SOL    HW324927   4.804   5.366   0.740  1.0216 -0.3150  0.8319
 6290SOL    MW424928   4.784   5.426   0.800  0.2947  0.3540 -0.0499
 6291SOL     OW24929   3.811   4.728   1.460  0.6251 -0.0141  0.0519
 6291SOL    HW224930   3.808   4.689   1.547 -2.8024 -0.0701  0.0576
 6291SOL    HW324931   3.799   4.822   1.475  0.4005  0.0184 -0.3048
 6291SOL    MW424932   3.809   4.735   1.473  0.1432 -0.0172  0.0056
 6292SOL     OW24933   2.189   4.817   5.089  0.5059  0.8603  0.5146
 6292SOL    HW224934   2.161   4.770   5.167  0.5855  0.8573  0.5416
 6292SOL    HW324935   2.140   4.899   5.091 -2.8839 -0.9086 -1.7432
 6292SOL    MW424936   2.179   4.822   5.099  0.0692  0.6265  0.2203
 6293SOL     OW24937   0.450   2.687   5.744 -0.2522  0.1209  0.0145
 6293SOL    HW224938   0.430   2.778   5.719 -1.1484  0.2097  0.9789
 6293SOL    HW324939   0.380   2.636   5.703 -0.8554  0.1004  1.0259
 6293SOL    MW424940   0.438   2.693   5.735 -0.4501  0.1299  0.2752
 6294SOL     OW24941   0.502   2.867   2.430 -0.0524 -0.4688 -0.4166
 6294SOL    HW224942   0.450   2.824   2.498  1.9234  1.8008  2.8639
 6294SOL    HW324943   0.591   2.833   2.442  0.7654  1.5182 -0.2842
 6294SOL    MW424944   0.507   2.857   2.440  0.3162  0.0928  0.0337
 6295SOL     OW24945   4.794   1.448   3.505  0.0550  0.3987 -0.1617
 6295SOL    HW224946   4.727   1.380   3.515 -0.6890  1.1977  0.3220
 6295SOL    HW324947   4.776   1.486   3.419  1.0648 -0.6333 -0.8578
 6295SOL    MW424948   4.783   1.444   3.495  0.0901  0.3680 -0.1897
 6296SOL     OW24949   3.396   0.648   4.932 -0.4086  0.3468  0.6573
 6296SOL    HW224950   3.411   0.564   4.888  0.4484  0.7874  0.0959
 6296SOL    HW324951   3.339   0.696   4.873 -0.2934  0.4485  0.6291
 6296SOL    MW424952   3.390   0.643   4.919 -0.2803  0.4184  0.5795
 6297SOL     OW24953   5.399   6.264   3.498  0.6414  0.8747  0.4084
 6297SOL    HW224954   5.463   6.210   3.545  0.4251  0.6588  0.4539
 6297SOL    HW324955   5.325   6.206   3.481  0.8923  0.8266 -0.5932
 6297SOL    MW424956   5.398   6.249   3.502  0.6460  0.8399  0.2822
 6298SOL     OW24957   1.371   4.446   2.830 -0.0247  0.4500  0.1259
 6298SOL    HW224958   1.435   4.487   2.888  1.0518 -0.2476 -0.5377
 6298SOL    HW324959   1.420   4.377   2.785 -1.2282 -0.0593 -0.4502
 6298SOL    MW424960   1.386   4.442   2.832 -0.0414  0.2908 -0.0377
 6299SOL     OW24961   1.870   0.237   4.907  0.0025 -0.0475  0.1894
 6299SOL    HW224962   1.786   0.269   4.939  0.4476 -0.8348  2.3053
 6299SOL    HW324963   1.928   0.243   4.983  0.4645 -4.5528  0.4542
 6299SOL    MW424964   1.867   0.242   4.921  0.1222 -0.7458  0.5035
 6300SOL     OW24965   4.076   6.402   4.941 -0.4409  0.1601  0.4926
 6300SOL    HW224966   4.118   6.457   4.875 -0.1974 -1.5202 -0.8581
 6300SOL    HW324967   4.148   6.357   4.985 -0.6563  0.3209  1.0140
 6300SOL    MW424968   4.091   6.403   4.938 -0.4372 -0.0404  0.3832
 6301SOL     OW24969   4.010   4.354   3.659  0.0054 -0.2656 -0.0619
 6301SOL    HW224970   4.015   4.444   3.690 -2.4379 -0.3277  0.7808
 6301SOL    HW324971   3.977   4.362   3.570 -1.2416 -0.3129  0.3738
 6301SOL    MW424972   4.006   4.367   3.651 -0.4815 -0.2800  0.1067
 6302SOL     OW24973   2.960   2.272   5.195  0.1577 -0.5080 -0.8797
 6302SOL    HW224974   2.889   2.291   5.256  0.6185 -0.2535 -0.4169
 6302SOL    HW324975   3.026   2.338   5.214 -0.0774  0.1809 -2.3169
 6302SOL    MW424976   2.959   2.283   5.206  0.1874 -0.3835 -1.0083
 6303SOL     OW24977   0.186   2.525   0.062 -0.0130  0.0278  0.1007
 6303SOL    HW224978   0.153   2.560   0.144 -1.9402  1.5767 -1.2206
 6303SOL    HW324979   0.113   2.474   0.026  0.1590  0.7815 -1.4043
 6303SOL    MW424980   0.172   2.523   0.068 -0.2446  0.3316 -0.2722
 6304SOL     OW24981   3.678   5.859   0.833  0.2151  0.3745  0.8657
 6304SOL    HW224982   3.668   5.954   0.830  0.3840  0.3766 -0.8143
 6304SOL    HW324983   3.596   5.825   0.796  0.1181 -0.1569  1.5375
 6304SOL    MW424984   3.666   5.867   0.828  0.2246  0.3047  0.7327
 6305SOL     OW24985   1.369   3.237   5.138  0.3456 -0.9067  0.5923
 6305SOL    HW224986   1.368   3.199   5.050 -1.3992  1.1805 -0.3687
 6305SOL    HW324987   1.459   3.268   5.150  0.1157  0.7206 -1.4114
 6305SOL    MW424988   1.381   3.236   5.128  0.0851 -0.4166  0.2011
 6306SOL     OW24989   1.730   6.232   0.483  0.4190 -0.3673  0.6742
 6306SOL    HW224990   1.816   6.275   0.479  0.4971 -0.3879  1.8644
 6306SOL    HW324991   1.720   6.191   0.397  1.6065 -0.3775  0.5229
 6306SOL    MW424992   1.740   6.232   0.471  0.5859 -0.3714  0.8113
 6307SOL     OW24993   4.568   4.589   0.600  0.6251  0.3535  0.0951
 6307SOL    HW224994   4.629   4.525   0.564 -1.5200 -0.6844 -1.9802
 6307SOL    HW324995   4.498   4.537   0.639  0.9806  1.5055  2.4013
 6307SOL    MW424996   4.567   4.574   0.600  0.3890  0.3685  0.1256
 6308SOL     OW24997   0.751   1.013   0.876 -0.2522  0.0015 -0.1188
 6308SOL    HW224998   0.786   1.083   0.822 -1.4764  1.3392  0.7640
 6308SOL    HW324999   0.790   1.027   0.963  0.8795 -1.5025 -0.3377
 6308SOL    MW425000   0.761   1.024   0.881 -0.2644 -0.0204 -0.0312
 6309SOL     OW25001   4.090   3.215   6.021  0.2603  0.0696  0.3651
 6309SOL    HW225002   4.044   3.278   6.076 -1.1897 -1.8150  1.4603
 6309SOL    HW325003   4.036   3.209   5.942 -0.5343 -0.9331  0.9543
 6309SOL    MW425004   4.077   3.223   6.018 -0.0359 -0.3114  0.5873
 6310SOL     OW25005   0.637   6.020   0.301  0.1755  0.5397 -0.1805
 6310SOL    HW225006   0.545   5.994   0.309  0.5687 -0.7139  0.5311
 6310SOL    HW325007   0.646   6.048   0.210 -0.1637 -2.5676 -1.2797
 6310SOL    MW425008   0.626   6.020   0.290  0.1826 -0.0357 -0.2316
 6311SOL     OW25009   1.994   1.186   1.244  0.8762  0.1799  0.6726
 6311SOL    HW225010   2.085   1.162   1.260  0.6954 -0.1689  1.1898
 6311SOL    HW325011   1.966   1.228   1.325  0.5036  0.0579  0.6075
 6311SOL    MW425012   2.002   1.188   1.257  0.8032  0.1178  0.7323
 6312SOL     OW25013   1.064   1.949   5.904 -0.6297  0.6531  0.7354
 6312SOL    HW225014   1.119   1.986   5.835 -1.5580  0.7026 -0.0010
 6312SOL    HW325015   1.002   2.019   5.925 -3.5770 -0.8531 -1.9199
 6312SOL    MW425016   1.063   1.963   5.897 -1.1410  0.4609  0.2879
 6313SOL     OW25017   1.806   2.980   2.344 -0.3885  0.6672  0.2920
 6313SOL    HW225018   1.869   3.052   2.337 -0.5787  0.8933  0.8935
 6313SOL    HW325019   1.836   2.917   2.279  1.9355 -0.3556  2.1999
 6313SOL    MW425020   1.818   2.982   2.334 -0.1069  0.5621  0.6230
 6314SOL     OW25021   2.492   3.175   1.496 -0.4579 -0.1838  0.0748
 6314SOL    HW225022   2.532   3.193   1.581  0.3006  0.7816 -0.4721
 6314SOL    HW325023   2.553   3.115   1.454 -1.9181 -2.5025  1.0382
 6314SOL    MW425024   2.505   3.169   1.502 -0.5505 -0.3623  0.1297
 6315SOL     OW25025   4.515   1.603   5.309 -0.2870 -0.2160 -0.2840
 6315SOL    HW225026   4.559   1.540   5.253  0.5254 -0.3750  0.4987
 6315SOL    HW325027   4.425   1.573   5.313  0.0674 -1.2927  0.0101
 6315SOL    MW425028   4.509   1.591   5.302 -0.1330 -0.3791 -0.1419
 6316SOL     OW25029   3.396   3.542   5.969 -0.0490 -0.0841  0.6909
 6316SOL    HW225030   3.451   3.492   5.908 -1.1907  0.1741 -0.6091
 6316SOL    HW325031   3.392   3.630   5.930 -1.7987 -0.2413  0.4412
 6316SOL    MW425032   3.402   3.547   5.956 -0.4305 -0.0708  0.4864
 6317SOL     OW25033   3.413   2.124   2.008 -0.2776 -0.3961 -0.1608
 6317SOL    HW225034   3.460   2.101   2.088 -1.4461 -0.0372  0.6475
 6317SOL    HW325035   3.435   2.053   1.946  0.4997 -0.7623  0.5166
 6317SOL    MW425036   3.423   2.111   2.010 -0.3292 -0.3970  0.0352
 6318SOL     OW25037   1.211   3.445   5.971 -0.3426  0.8231 -0.0984
 6318SOL    HW225038   1.215   3.447   6.066  0.0861 -2.5711  0.0587
 6318SOL    HW325039   1.120   3.468   5.950 -0.5331  1.2468  1.1224
 6318SOL    MW425040   1.199   3.448   5.981 -0.3112  0.4312  0.0834
 6319SOL     OW25041   2.264   6.366   6.378 -0.0322 -0.2072 -0.4457
 6319SOL    HW225042   2.349   6.397   6.348  0.0815  0.3130  0.4005
 6319SOL    HW325043   2.208   6.443   6.376 -0.3698 -0.4505 -0.5634
 6319SOL    MW425044   2.268   6.380   6.374 -0.0618 -0.1707 -0.3496
 6320SOL     OW25045   3.276   3.225   1.746  0.4732  0.8607  0.0743
 6320SOL    HW225046   3.322   3.273   1.814 -0.8198  1.3868  0.6135
 6320SOL    HW325047   3.184   3.232   1.770  0.0847  0.0386 -1.0858
 6320SOL    MW425048   3.270   3.232   1.758  0.2514  0.8216 -0.0076
 6321SOL     OW25049   5.016   4.309   5.161 -0.1296  0.4428 -0.2599
 6321SOL    HW225050   5.021   4.347   5.073  1.1752  0.2445 -0.2893
 6321SOL    HW325051   5.106   4.309   5.192 -0.7919  2.6888  2.0125
 6321SOL    MW425052   5.028   4.314   5.153 -0.0449  0.7129  0.0360
 6322SOL     OW25053   1.338   5.235   1.764 -0.5204  0.0115 -0.0307
 6322SOL    HW225054   1.299   5.240   1.677 -1.3214 -0.2675  0.2955
 6322SOL    HW325055   1.431   5.221   1.748 -0.8634 -1.6682 -0.8745
 6322SOL    MW425056   1.345   5.234   1.750 -0.6713 -0.2469 -0.0990
 6323SOL     OW25057   3.511   1.986   5.066 -0.1254  0.1087 -0.2982
 6323SOL    HW225058   3.550   1.928   5.132  0.9445  1.0017 -0.1075
 6323SOL    HW325059   3.582   2.046   5.043 -1.1897  1.3140 -0.5211
 6323SOL    MW425060   3.526   1.986   5.072 -0.1246  0.3856 -0.3024
 6324SOL     OW25061   1.870   1.409   4.406  0.0827 -0.2448  0.4425
 6324SOL    HW225062   1.852   1.503   4.417  0.5133 -0.2079  0.8883
 6324SOL    HW325063   1.950   1.406   4.353 -0.2078 -0.3711  0.0083
 6324SOL    MW425064   1.878   1.421   4.400  0.1012 -0.2566  0.4440
 6325SOL     OW25065   6.171   6.106   5.638  0.2234 -0.1517 -0.1884
 6325SOL    HW225066   6.157   6.154   5.557 -1.4590 -0.0554  0.1274
 6325SOL    HW325067   6.091   6.119   5.689  0.2518 -2.1586  0.4930
 6325SOL    MW425068   6.158   6.114   5.634  0.0052 -0.4038 -0.0568
 6326SOL     OW25069   5.049   4.224   0.069  0.1848 -0.4009  0.1904
 6326SOL    HW225070   5.098   4.171   0.132  0.5282 -0.8158 -0.4089
 6326SOL    HW325071   5.114   4.285   0.034  0.1773 -0.6510 -0.2757
 6326SOL    MW425072   5.064   4.225   0.073  0.2291 -0.4887  0.0498
 6327SOL     OW25073   2.422   1.072   2.999 -0.2765 -0.6340 -0.2765
 6327SOL    HW225074   2.451   1.159   3.026 -2.2698 -0.4170  1.3883
 6327SOL    HW325075   2.501   1.031   2.964  0.2312  2.7036 -3.6560
 6327SOL    MW425076   2.436   1.078   2.998 -0.4725 -0.1650 -0.5027
 6328SOL     OW25077   1.047   4.918   0.485 -0.2041 -0.3295 -0.3048
 6328SOL    HW225078   1.005   4.948   0.566 -1.3683 -0.9428 -0.6634
 6328SOL    HW325079   0.978   4.923   0.419  0.2334 -1.5341 -0.8785
 6328SOL    MW425080   1.032   4.923   0.487 -0.3000 -0.5694 -0.4278
 6329SOL     OW25081   0.672   3.414   0.149 -0.0334 -0.1473 -1.1053
 6329SOL    HW225082   0.749   3.433   0.095  1.0586  0.2324  0.5272
 6329SOL    HW325083   0.691   3.454   0.234 -1.2882 -1.4890 -0.1355
 6329SOL    MW425084   0.685   3.421   0.153 -0.0549 -0.2742 -0.7620
 6330SOL     OW25085   1.089   6.327   5.648 -0.2703  0.3285 -0.3167
 6330SOL    HW225086   1.175   6.294   5.620 -0.2291  0.8320 -0.7869
 6330SOL    HW325087   1.082   6.298   5.739 -0.3286 -1.1723 -0.7706
 6330SOL    MW425088   1.100   6.318   5.656 -0.2726  0.1969 -0.4386
 6331SOL     OW25089   4.278   6.102   6.148 -0.3789  0.4220 -0.1034
 6331SOL    HW225090   4.261   6.012   6.179 -0.3995  0.6842  0.6701
 6331SOL    HW325091   4.306   6.149   6.227  0.4590  0.8891 -0.6739
 6331SOL    MW425092   4.279   6.096   6.163 -0.2711  0.5182 -0.0766
 6332SOL     OW25093   4.552   4.960   5.361 -0.1790  0.1653  0.3150
 6332SOL    HW225094   4.490   4.997   5.298 -0.0046  0.6065  0.3957
 6332SOL    HW325095   4.498   4.914   5.425 -0.4822  1.1576  0.7932
 6332SOL    MW425096   4.537   4.959   5.361 -0.1960  0.3544  0.3887
 6333SOL     OW25097   2.105   2.722   2.084 -0.2674 -0.4711  0.0011
 6333SOL    HW225098   2.147   2.785   2.142  1.7675  0.3576 -2.2349
 6333SOL    HW325099   2.119   2.637   2.127  1.7856  0.0396  0.4315
 6333SOL    MW425100   2.112   2.719   2.097  0.2719 -0.2944 -0.2371
 6334SOL     OW25101   3.710   2.142   0.873 -0.0291  0.1678  0.1324
 6334SOL    HW225102   3.780   2.188   0.919 -1.7366  1.4235  1.6507
 6334SOL    HW325103   3.654   2.212   0.839  0.1618 -0.7794 -2.2651
 6334SOL    MW425104   3.712   2.157   0.875 -0.2292  0.2085  0.0164
 6335SOL     OW25105   3.325   4.301   0.067  0.2058  0.0458 -0.1576
 6335SOL    HW225106   3.309   4.326   0.158  1.0872 -0.7657  0.2333
 6335SOL    HW325107   3.364   4.380   0.027  0.2045  0.2705  0.2761
 6335SOL    MW425108   3.328   4.315   0.074  0.3219 -0.0316 -0.0488
 6336SOL     OW25109   0.614   1.893   1.337  0.8027 -0.0565  0.4187
 6336SOL    HW225110   0.615   1.973   1.389  1.5353 -0.6576  1.3634
 6336SOL    HW325111   0.686   1.904   1.274 -1.0338  1.3424 -1.6116
 6336SOL    MW425112   0.624   1.905   1.335  0.6570  0.0488  0.2755
 6337SOL     OW25113   0.107   2.535   1.284 -0.5107 -0.9000 -0.1859
 6337SOL    HW225114   0.199   2.546   1.260 -0.0773 -1.2243  1.2555
 6337SOL    HW325115   0.081   2.455   1.238 -0.4536 -0.1643 -1.5716
 6337SOL    MW425116   0.115   2.526   1.275 -0.4460 -0.8457 -0.1786
 6338SOL     OW25117   5.562   3.651   1.467 -0.1086  0.0382  0.3683
 6338SOL    HW225118   5.547   3.742   1.442  0.1666 -0.3582 -1.3494
 6338SOL    HW325119   5.516   3.600   1.401  0.8962 -1.0881  0.5090
 6338SOL    MW425120   5.554   3.657   1.455  0.0603 -0.1627  0.1603
 6339SOL     OW25121   2.230   1.074   6.081 -0.3337 -0.6565 -0.0719
 6339SOL    HW225122   2.223   1.076   5.985  0.5108 -1.0689 -0.1565
 6339SOL    HW325123   2.324   1.073   6.098 -0.4499 -2.4390  0.7092
 6339SOL    MW425124   2.241   1.074   6.070 -0.2376 -0.9461  0.0200
 6340SOL     OW25125   2.261   1.823   4.434  0.2807 -0.0423 -0.3841
 6340SOL    HW225126   2.288   1.865   4.352  2.4868  1.0528  0.8213
 6340SOL    HW325127   2.299   1.736   4.429 -1.3851 -0.7772 -1.3721
 6340SOL    MW425128   2.269   1.817   4.422  0.3520  0.0052 -0.3554
 6341SOL     OW25129   5.778   2.429   6.365 -0.0666  0.7192  0.6368
 6341SOL    HW225130   5.728   2.418   6.284  1.7703 -1.2980 -0.3182
 6341SOL    HW325131   5.727   2.383   6.432  0.5474 -1.5882 -0.3859
 6341SOL    MW425132   5.764   2.422   6.363  0.2568  0.1486  0.3759
 6342SOL     OW25133   0.236   5.991   0.590  0.6035  0.2871  0.3398
 6342SOL    HW225134   0.195   5.918   0.636 -0.7386  1.2278  0.7061
 6342SOL    HW325135   0.256   6.054   0.660 -3.1437  2.5489 -0.4027
 6342SOL    MW425136   0.234   5.990   0.605 -0.0680  0.7096  0.2902
 6343SOL     OW25137   1.236   4.026   2.376 -0.0023  0.1811  0.0021
 6343SOL    HW225138   1.233   3.943   2.424 -0.0172 -0.6309 -1.3502
 6343SOL    HW325139   1.235   4.093   2.444 -0.4844 -0.9152  1.1145
 6343SOL    MW425140   1.235   4.024   2.391 -0.0679 -0.0707 -0.0296
 6344SOL     OW25141   1.607   0.905   4.480 -0.3563 -0.0886  0.3852
 6344SOL    HW225142   1.531   0.913   4.422  0.0887  0.8266 -0.0900
 6344SOL    HW325143   1.681   0.891   4.421  0.4011  2.7830  0.5359
 6344SOL    MW425144   1.606   0.904   4.465 -0.1976  0.4110  0.3424
 6345SOL     OW25145   5.226   3.457   1.596 -0.0603 -0.3604 -0.5350
 6345SOL    HW225146   5.184   3.428   1.515  2.1015 -1.3701 -1.4026
 6345SOL    HW325147   5.213   3.384   1.657 -0.8870  0.0003 -0.2729
 6345SOL    MW425148   5.219   3.443   1.593  0.1159 -0.4460 -0.6149
 6346SOL     OW25149   1.863   2.206   0.635  0.1864 -0.1415 -0.1443
 6346SOL    HW225150   1.882   2.165   0.550 -0.0294 -0.9590  0.1937
 6346SOL    HW325151   1.893   2.143   0.699 -1.2499 -0.3097  0.3956
 6346SOL    MW425152   1.869   2.192   0.632 -0.0316 -0.2716 -0.0285
 6347SOL     OW25153   0.208   1.035   2.534 -0.7593  0.4301 -0.0099
 6347SOL    HW225154   0.150   1.035   2.459 -1.5012  2.1767  0.5131
 6347SOL    HW325155   0.289   1.076   2.502  0.0219 -1.4402 -0.5718
 6347SOL    MW425156   0.211   1.041   2.520 -0.7541  0.4137 -0.0150
 6348SOL     OW25157   0.037   3.785   1.407  0.1295 -0.5305  0.4361
 6348SOL    HW225158   0.123   3.793   1.448  0.4549 -0.6807 -0.2020
 6348SOL    HW325159   0.056   3.751   1.319 -0.5157  0.2166  0.0050
 6348SOL    MW425160   0.051   3.781   1.401  0.0873 -0.4518  0.2950
 6349SOL     OW25161   4.173   3.215   2.693  0.0974  0.6690 -0.2315
 6349SOL    HW225162   4.200   3.174   2.611 -0.3613  0.1608 -0.1309
 6349SOL    HW325163   4.255   3.226   2.743 -0.0107 -2.9964  1.0704
 6349SOL    MW425164   4.188   3.211   2.689  0.0226  0.1183 -0.0465
 6350SOL     OW25165   1.376   4.679   5.021 -0.0167 -0.2344 -0.0632
 6350SOL    HW225166   1.351   4.770   5.009  2.1181  0.2528 -1.2256
 6350SOL    HW325167   1.310   4.629   4.973 -2.5860  0.4435  2.5038
 6350SOL    MW425168   1.364   4.684   5.013 -0.0740 -0.0807  0.1221
 6351SOL     OW25169   3.398   0.734   3.326  0.2719  0.2660 -0.0966
 6351SOL    HW225170   3.390   0.817   3.279  2.1473  1.0356  0.8275
 6351SOL    HW325171   3.468   0.687   3.280  3.4417  1.7700  2.6626
 6351SOL    MW425172   3.407   0.739   3.314  0.9376  0.5660  0.3894
 6352SOL     OW25173   4.365   0.384   1.958  0.4391 -0.1025  0.2780
 6352SOL    HW225174   4.387   0.293   1.978  1.5796 -0.1624 -1.0732
 6352SOL    HW325175   4.319   0.381   1.874  0.1159  0.5372  0.4207
 6352SOL    MW425176   4.362   0.372   1.949  0.5469 -0.0260  0.1186
 6353SOL     OW25177   3.353   3.430   4.597  0.1810  0.4919 -0.7023
 6353SOL    HW225178   3.446   3.422   4.576  0.3026  1.7602 -0.7030
 6353SOL    HW325179   3.329   3.518   4.567 -0.3874  1.1882  1.6337
 6353SOL    MW425180   3.362   3.441   4.590  0.1221  0.7511 -0.3942
 6354SOL     OW25181   6.076   4.473   3.251  0.1580  0.0865 -0.0546
 6354SOL    HW225182   6.044   4.491   3.163 -1.6990  1.0641  0.7752
 6354SOL    HW325183   6.131   4.549   3.272 -1.9400  1.4638  0.7571
 6354SOL    MW425184   6.079   4.485   3.242 -0.3638  0.3972  0.1619
 6355SOL     OW25185   4.023   1.577   0.484 -0.0642 -0.4664  0.3930
 6355SOL    HW225186   3.992   1.633   0.556 -2.0492  0.5447 -1.1342
 6355SOL    HW325187   4.117   1.570   0.499  0.1657  2.5844  1.2130
 6355SOL    MW425188   4.031   1.584   0.496 -0.2958  0.0696  0.2997
 6356SOL     OW25189   1.076   5.026   0.975  0.2043 -0.4179  0.1468
 6356SOL    HW225190   1.149   4.968   0.954  1.3730  1.5368 -1.5860
 6356SOL    HW325191   1.117   5.107   1.005 -1.3176  0.1761  0.7641
 6356SOL    MW425192   1.091   5.029   0.976  0.1577 -0.0817 -0.0004
 6357SOL     OW25193   0.928   4.002   0.363 -0.8230  0.5515 -0.2967
 6357SOL    HW225194   0.926   4.092   0.394 -0.0839  0.1448  1.0297
 6357SOL    HW325195   1.013   3.993   0.319 -1.0533  0.5970 -0.7577
 6357SOL    MW425196   0.939   4.013   0.361 -0.7559  0.5038 -0.1825
 6358SOL     OW25197   1.155   5.934   0.342  0.1445  0.2744 -0.2602
 6358SOL    HW225198   1.177   5.912   0.432 -2.1159 -0.6652  0.1407
 6358SOL    HW325199   1.212   6.007   0.320  0.6641  0.6003  1.9622
 6358SOL    MW425200   1.165   5.941   0.351 -0.0852  0.1935  0.0859
 6359SOL     OW25201   5.315   2.221   0.786 -0.3085 -0.2451 -0.2199
 6359SOL    HW225202   5.237   2.188   0.743 -0.8162 -1.2085  1.3522
 6359SOL    HW325203   5.301   2.316   0.791 -0.6582 -0.2285 -1.2834
 6359SOL    MW425204   5.303   2.229   0.781 -0.4216 -0.3700 -0.1528
 6360SOL     OW25205   4.759   5.794   5.205 -0.0511 -0.1737 -0.4430
 6360SOL    HW225206   4.697   5.777   5.276  1.9332 -1.7984  1.0388
 6360SOL    HW325207   4.805   5.874   5.231 -1.1036  0.7247 -1.2701
 6360SOL    MW425208   4.757   5.802   5.218  0.0718 -0.2695 -0.3566
 6361SOL     OW25209   3.024   0.532   4.642  0.0443  0.3593 -0.4573
 6361SOL    HW225210   2.930   0.520   4.633  0.0467  1.0352 -1.4492
 6361SOL    HW325211   3.035   0.563   4.732 -0.5341 -1.0225  0.1204
 6361SOL    MW425212   3.013   0.534   4.653 -0.0317  0.2662 -0.5120
 6362SOL     OW25213   2.597   4.944   3.267  0.4529  0.1743  0.2449
 6362SOL    HW225214   2.668   5.005   3.247  0.2150  0.7118  1.0242
 6362SOL    HW325215   2.625   4.861   3.227 -0.5728  1.4372 -3.4335
 6362SOL    MW425216   2.610   4.941   3.259  0.2862  0.4118 -0.1376
 6363SOL     OW25217   1.314   4.691   5.430  0.2806  0.1141  0.1589
 6363SOL    HW225218   1.368   4.632   5.483  1.4075  2.1238  1.3959
 6363SOL    HW325219   1.283   4.757   5.493 -2.4558 -0.1478 -0.8090
 6363SOL    MW425220   1.317   4.692   5.446  0.0683  0.3447  0.1944
 6364SOL     OW25221   5.730   2.122   1.987 -0.4560  0.0265 -0.3214
 6364SOL    HW225222   5.770   2.185   2.048  1.4446 -1.7929  0.4326
 6364SOL    HW325223   5.704   2.049   2.042 -0.8422 -0.6735 -1.4159
 6364SOL    MW425224   5.732   2.121   2.002 -0.2562 -0.3059 -0.3663
 6365SOL     OW25225   1.910   4.778   0.216 -0.3337 -0.3767 -0.4734
 6365SOL    HW225226   1.840   4.721   0.185 -1.3689 -0.4859  1.8636
 6365SOL    HW325227   1.985   4.720   0.227 -1.1796 -1.2353  1.2242
 6365SOL    MW425228   1.910   4.763   0.213 -0.5819 -0.5044  0.0589
 6366SOL     OW25229   3.228   3.146   2.631  0.3095  0.3109 -0.6872
 6366SOL    HW225230   3.261   3.211   2.693  0.1999 -1.2105  1.0771
 6366SOL    HW325231   3.134   3.163   2.628 -0.0193 -0.8213  1.2152
 6366SOL    MW425232   3.220   3.157   2.639  0.2516 -0.0392 -0.2035
 6367SOL     OW25233   2.719   6.063   1.078  0.1948  0.0972  0.0470
 6367SOL    HW225234   2.749   6.150   1.049  2.4360 -0.0849  1.6458
 6367SOL    HW325235   2.797   6.020   1.110 -1.0750 -2.1715  0.2605
 6367SOL    MW425236   2.733   6.069   1.078  0.3229 -0.2262  0.2861
 6368SOL     OW25237   3.448   0.419   0.855 -0.3650 -0.2012  0.0870
 6368SOL    HW225238   3.395   0.486   0.812 -0.5539  0.6078  1.5373
 6368SOL    HW325239   3.520   0.403   0.794 -0.9717  0.4351 -0.8212
 6368SOL    MW425240   3.450   0.426   0.841 -0.4699 -0.0105  0.1585
 6369SOL     OW25241   5.098   3.156   4.550  0.0598 -0.0097 -0.1627
 6369SOL    HW225242   5.124   3.241   4.585  0.6458 -0.3574  0.2660
 6369SOL    HW325243   5.006   3.148   4.572  0.1992  0.1718  0.4950
 6369SOL    MW425244   5.089   3.166   4.557  0.1555 -0.0316 -0.0194
 6370SOL     OW25245   1.921   5.740   3.546 -0.8089  1.2765  0.2323
 6370SOL    HW225246   2.005   5.776   3.575 -1.8068  3.6720  0.4110
 6370SOL    HW325247   1.896   5.679   3.616  0.8894  0.2545  0.0130
 6370SOL    MW425248   1.929   5.737   3.559 -0.7165  1.4578  0.2269
 6371SOL     OW25249   3.792   4.088   4.006 -0.1468  0.5972  0.0260
 6371SOL    HW225250   3.709   4.133   3.996 -1.3291 -1.1949  1.2196
 6371SOL    HW325251   3.781   4.032   4.083  1.9132 -0.2366 -0.1911
 6371SOL    MW425252   3.780   4.086   4.015 -0.0310  0.2508  0.1548
 6372SOL     OW25253   2.578   3.424   2.837 -0.1784 -0.5831 -0.0010
 6372SOL    HW225254   2.585   3.486   2.909  0.1529  0.5127 -0.9437
 6372SOL    HW325255   2.607   3.341   2.874  1.3849  0.2540  0.7479
 6372SOL    MW425256   2.582   3.421   2.851  0.0716 -0.3281 -0.0265
 6373SOL     OW25257   1.329   3.496   5.219 -0.0704  0.4211  0.4784
 6373SOL    HW225258   1.343   3.406   5.190  0.6816  0.1358  1.6690
 6373SOL    HW325259   1.348   3.549   5.141 -1.0217 -0.4481 -0.3744
 6373SOL    MW425260   1.333   3.491   5.205 -0.0967  0.2688  0.5230
 6374SOL     OW25261   5.519   0.665   2.219  0.8072  0.5799 -0.4872
 6374SOL    HW225262   5.544   0.673   2.311  0.2973  0.4920 -0.3422
 6374SOL    HW325263   5.468   0.584   2.214  0.6266  0.7100 -0.8033
 6374SOL    MW425264   5.516   0.655   2.230  0.7161  0.5855 -0.5098
 6375SOL     OW25265   6.390   2.058   4.392  0.4909 -0.4454 -0.0000
 6375SOL    HW225266   6.469   2.006   4.406 -0.9142 -2.0254  2.8703
 6375SOL    HW325267   6.404   2.137   4.445  1.3237  0.7673 -1.9143
 6375SOL    MW425268   6.403   2.062   4.401  0.4154 -0.4938  0.1261
 6376SOL     OW25269   5.993   0.677   0.726 -0.2251 -0.1475  0.0995
 6376SOL    HW225270   6.045   0.598   0.718  0.8437  0.3690  1.6565
 6376SOL    HW325271   6.042   0.733   0.785 -2.5993  0.3103  1.7838
 6376SOL    MW425272   6.006   0.674   0.733 -0.3973 -0.0190  0.5272
 6377SOL     OW25273   4.570   2.252   1.484  0.3443 -0.0699  0.0103
 6377SOL    HW225274   4.575   2.280   1.575  0.5147  1.2030 -0.3723
 6377SOL    HW325275   4.496   2.300   1.447 -1.5252 -2.6272  0.1246
 6377SOL    MW425276   4.561   2.262   1.491  0.1201 -0.2393 -0.0251
 6378SOL     OW25277   5.762   4.827   3.404 -0.0434  0.4583  0.3504
 6378SOL    HW225278   5.851   4.860   3.415  0.5472 -1.5536  2.3682
 6378SOL    HW325279   5.773   4.740   3.367 -1.3998  1.2394 -2.1379
 6378SOL    MW425280   5.775   4.820   3.401 -0.1444  0.2959  0.2883
 6379SOL     OW25281   5.027   1.679   0.149 -0.3288  0.1205  0.2282
 6379SOL    HW225282   5.014   1.609   0.213  1.2544  0.9229  1.4795
 6379SOL    HW325283   5.062   1.634   0.072  0.7723 -0.4833  1.0465
 6379SOL    MW425284   5.030   1.664   0.147  0.0254  0.1467  0.5013
 6380SOL     OW25285   4.378   3.971   0.350  0.1926 -0.1470  0.4622
 6380SOL    HW225286   4.327   3.911   0.296 -2.4495  1.2722  1.1812
 6380SOL    HW325287   4.414   3.915   0.419 -0.9463 -1.1708  0.2808
 6380SOL    MW425288   4.376   3.956   0.352 -0.3063 -0.0948  0.5331
 6381SOL     OW25289   0.891   0.489   1.474 -0.2370  0.3729  0.9046
 6381SOL    HW225290   0.889   0.478   1.379 -1.1737  1.7187  0.7321
 6381SOL    HW325291   0.927   0.577   1.487 -0.0768  0.1842  1.8045
 6381SOL    MW425292   0.896   0.499   1.463 -0.3394  0.5256  1.0006
 6382SOL     OW25293   1.029   0.095   1.388 -0.3666 -0.4451  0.9294
 6382SOL    HW225294   0.942   0.065   1.414 -0.6203  0.4518  1.1584
 6382SOL    HW325295   1.042   0.176   1.437  0.8484 -0.8703  1.3434
 6382SOL    MW425296   1.019   0.102   1.398 -0.2397 -0.3828  1.0143
 6383SOL     OW25297   0.473   1.765   2.363 -0.2481 -0.0795  0.2381
 6383SOL    HW225298   0.516   1.778   2.447 -0.7783 -0.3597  0.5622
 6383SOL    HW325299   0.413   1.692   2.378 -1.5862  0.9507  0.1041
 6383SOL    MW425300   0.471   1.758   2.376 -0.4946  0.0194  0.2632
 6384SOL     OW25301   3.093   0.308   4.488 -0.1226 -0.8738  0.3694
 6384SOL    HW225302   3.072   0.216   4.507 -1.2204 -0.5148  0.9868
 6384SOL    HW325303   3.102   0.349   4.574  2.3249 -0.7750  0.1537
 6384SOL    MW425304   3.092   0.301   4.502  0.0554 -0.8134  0.4224
 6385SOL     OW25305   4.668   1.777   3.188  0.3727  0.6090 -0.5459
 6385SOL    HW225306   4.678   1.683   3.200  0.5723  0.7840  0.8777
 6385SOL    HW325307   4.576   1.789   3.165  0.2947  0.0722 -0.5201
 6385SOL    MW425308   4.658   1.766   3.187  0.3887  0.5613 -0.3547
 6386SOL     OW25309   3.438   1.251   1.132  0.8787 -0.1958 -0.1245
 6386SOL    HW225310   3.363   1.251   1.191  0.8083  1.6043 -0.1513
 6386SOL    HW325311   3.489   1.329   1.157  1.1987  0.2490 -1.9664
 6386SOL    MW425312   3.435   1.261   1.143  0.9116  0.1004 -0.3710
 6387SOL     OW25313   0.448   5.372  -0.034 -0.1900  0.4704 -1.0041
 6387SOL    HW225314   0.541   5.396  -0.023 -0.5580  1.1132  1.1955
 6387SOL    HW325315   0.403   5.457  -0.036 -0.8666  0.1186 -0.5728
 6387SOL    MW425316   0.455   5.387  -0.033 -0.3278  0.5088 -0.6570
 6388SOL     OW25317   2.872   2.141   2.666 -0.1012 -0.8214  0.3522
 6388SOL    HW225318   2.904   2.178   2.749  0.5878 -2.0089  0.6302
 6388SOL    HW325319   2.949   2.137   2.610 -0.4018 -0.8047 -0.0621
 6388SOL    MW425320   2.886   2.145   2.670 -0.0500 -0.9759  0.3342
 6389SOL     OW25321   0.702   3.791   2.564  0.4092 -0.3741  0.1439
 6389SOL    HW225322   0.656   3.847   2.502  1.7224  0.6743  0.0756
 6389SOL    HW325323   0.742   3.851   2.626  1.4116 -1.2590  0.3863
 6389SOL    MW425324   0.701   3.806   2.564  0.7147 -0.3525  0.1669
 6390SOL     OW25325   5.238   5.526   5.501  0.5491 -0.2317  0.3959
 6390SOL    HW225326   5.245   5.571   5.417  0.9257 -0.5097  0.2756
 6390SOL    HW325327   5.327   5.499   5.521  0.5231  0.1424  1.0596
 6390SOL    MW425328   5.251   5.529   5.493  0.5954 -0.2190  0.4676
 6391SOL     OW25329   2.022   6.317   1.344 -0.0042  0.5444 -0.4667
 6391SOL    HW225330   1.983   6.378   1.282  0.8385  0.0435 -1.5125
 6391SOL    HW325331   2.111   6.302   1.312  0.0005 -0.7893  0.0799
 6391SOL    MW425332   2.029   6.323   1.332  0.1076  0.3024 -0.5325
 6392SOL     OW25333   2.838   6.272   2.537 -0.3879 -0.4017 -0.0115
 6392SOL    HW225334   2.896   6.320   2.596 -2.8162  1.0842  1.2827
 6392SOL    HW325335   2.897   6.211   2.491  2.1064  0.7137  1.4861
 6392SOL    MW425336   2.854   6.270   2.538 -0.3792 -0.0585  0.3568
 6393SOL     OW25337   4.642   3.042   1.032  0.0065  0.3656  0.6134
 6393SOL    HW225338   4.589   3.068   1.108 -0.1177  0.1131  0.6182
 6393SOL    HW325339   4.686   3.122   1.004 -1.1234  0.8100  0.0209
 6393SOL    MW425340   4.641   3.056   1.038 -0.1590  0.3909  0.5359
 6394SOL     OW25341   0.360   1.331   0.434  0.8036 -0.0575 -0.1754
 6394SOL    HW225342   0.453   1.317   0.416  0.3411 -0.0999 -2.8770
 6394SOL    HW325343   0.324   1.242   0.441  0.6536 -0.0718 -1.0555
 6394SOL    MW425344   0.368   1.317   0.433  0.7228 -0.0650 -0.6480
 6395SOL     OW25345   5.393   2.243   4.743 -0.0178 -0.1797 -0.9444
 6395SOL    HW225346   5.425   2.164   4.786 -2.3443 -0.3793  0.5972
 6395SOL    HW325347   5.343   2.211   4.668 -0.8131 -0.1988 -0.4201
 6395SOL    MW425348   5.390   2.229   4.739 -0.4297 -0.2085 -0.6719
 6396SOL     OW25349   1.044   4.296   5.445 -0.3243  0.6217 -0.0049
 6396SOL    HW225350   0.950   4.279   5.452  0.0000 -0.9166  0.9143
 6396SOL    HW325351   1.079   4.221   5.397  0.4692  1.1638 -0.3169
 6396SOL    MW425352   1.036   4.284   5.439 -0.1768  0.4902  0.0752
 6397SOL     OW25353   2.702   6.096   4.415 -0.1232 -0.7589  0.3574
 6397SOL    HW225354   2.795   6.081   4.400 -0.4738 -0.7008 -2.3728
 6397SOL    HW325355   2.658   6.025   4.369 -1.4448  0.9442 -1.1959
 6397SOL    MW425356   2.708   6.085   4.407 -0.3439 -0.5266 -0.2078
 6398SOL     OW25357   2.930   5.580   6.000  0.0776 -0.2502 -0.0386
 6398SOL    HW225358   2.856   5.588   5.940  1.2833 -0.0089 -1.5500
 6398SOL    HW325359   2.910   5.641   6.071 -0.5334  0.8450 -1.1130
 6398SOL    MW425360   2.917   5.589   6.002  0.1561 -0.0738 -0.3797
 6399SOL     OW25361   1.207   4.330   5.657  0.1645  0.5983 -0.7451
 6399SOL    HW225362   1.279   4.268   5.644  2.1070  2.6278 -0.0804
 6399SOL    HW325363   1.159   4.328   5.574  0.1038 -1.8022 -0.7177
 6399SOL    MW425364   1.210   4.321   5.644  0.4128  0.5493 -0.6538
 6400SOL     OW25365   4.705   2.303   4.298  0.0204 -0.4371 -0.3437
 6400SOL    HW225366   4.632   2.355   4.333  0.3253 -0.8282  0.9314
 6400SOL    HW325367   4.705   2.322   4.204 -1.2544  0.1437 -0.2495
 6400SOL    MW425368   4.696   2.312   4.290 -0.1076 -0.4121 -0.1630
 6401SOL     OW25369   3.218   4.047   5.428  0.1830  0.3085 -0.1067
 6401SOL    HW225370   3.149   4.113   5.430 -0.9667 -0.8371 -0.4970
 6401SOL    HW325371   3.187   3.983   5.364  1.0076 -0.8722  0.6480
 6401SOL    MW425372   3.205   4.047   5.420  0.1401  0.0016 -0.0586
 6402SOL     OW25373   5.588   4.386   4.860 -0.1771 -0.1781  0.0083
 6402SOL    HW225374   5.638   4.450   4.911  0.5733 -0.3271 -0.5312
 6402SOL    HW325375   5.588   4.307   4.915  2.0926 -0.8917 -0.8963
 6402SOL    MW425376   5.595   4.384   4.874  0.2214 -0.2919 -0.1822
 6403SOL     OW25377   3.523   2.913   0.722  0.7972 -0.4847 -0.4907
 6403SOL    HW225378   3.447   2.855   0.728 -0.3735  1.0752  0.1587
 6403SOL    HW325379   3.511   2.961   0.640 -1.1430  2.6608  1.4445
 6403SOL    MW425380   3.512   2.911   0.712  0.3868  0.1361 -0.1497
 6404SOL     OW25381   5.867   2.618   5.664 -0.2374 -0.7402  0.2420
 6404SOL    HW225382   5.825   2.662   5.739 -1.8726 -0.2493 -0.9054
 6404SOL    HW325383   5.956   2.651   5.663 -0.4780 -0.0114  1.3991
 6404SOL    MW425384   5.873   2.628   5.674 -0.4849 -0.5793  0.2433
 6405SOL     OW25385   2.953   3.607   6.030  0.1457 -0.2260 -0.4241
 6405SOL    HW225386   2.869   3.566   6.052 -0.3250 -0.6223 -2.7446
 6405SOL    HW325387   2.930   3.692   5.993  0.9298  0.5675  0.8122
 6405SOL    MW425388   2.939   3.612   6.028  0.1871 -0.1736 -0.5671
 6406SOL     OW25389   3.711   3.138   4.096  0.1759  0.4699  0.1499
 6406SOL    HW225390   3.620   3.163   4.111 -0.8361 -1.2338 -2.4659
 6406SOL    HW325391   3.731   3.077   4.167 -0.9904  0.3183  0.3640
 6406SOL    MW425392   3.702   3.133   4.107 -0.1115  0.2251 -0.1670
 6407SOL     OW25393   2.242   1.872   4.161  0.2445 -0.1708 -0.9987
 6407SOL    HW225394   2.202   1.843   4.079  1.2220  0.8614 -1.8665
 6407SOL    HW325395   2.328   1.905   4.135  1.4646 -1.8018  0.7291
 6407SOL    MW425396   2.248   1.872   4.147  0.5345 -0.2498 -0.8853
 6408SOL     OW25397   4.098   3.547   1.614 -0.2003 -0.4911  0.4550
 6408SOL    HW225398   4.012   3.581   1.587  0.7743  0.9946 -1.0230
 6408SOL    HW325399   4.094   3.454   1.592 -1.4965 -0.4972  0.6032
 6408SOL    MW425400   4.086   3.539   1.607 -0.2427 -0.2959  0.2795
 6409SOL     OW25401   5.098   0.136   2.182  0.3568 -0.3176  0.1579
 6409SOL    HW225402   5.047   0.153   2.261  0.3435  1.9305 -0.2744
 6409SOL    HW325403   5.136   0.221   2.159  1.3398 -1.1720 -1.5792
 6409SOL    MW425404   5.096   0.149   2.190  0.4847 -0.1337 -0.1283
 6410SOL     OW25405   4.922   0.274   3.687 -0.5872  0.5133  0.5950
 6410SOL    HW225406   4.859   0.344   3.705 -2.0870 -1.0037  1.5333
 6410SOL    HW325407   5.005   0.307   3.722 -0.8327  2.4666 -0.4691
 6410SOL    MW425408   4.925   0.288   3.694 -0.8175  0.5709  0.5784
 6411SOL     OW25409   5.184   4.233   4.467 -0.3341 -0.2670  0.0662
 6411SOL    HW225410   5.279   4.240   4.478 -0.3475  0.8865 -0.3869
 6411SOL    HW325411   5.168   4.140   4.451  0.8723 -0.2898 -1.1568
 6411SOL    MW425412   5.194   4.222   4.466 -0.1767 -0.1178 -0.1549
 6412SOL     OW25413   0.916   5.411   5.524  0.3116 -0.1842  0.4056
 6412SOL    HW225414   0.827   5.445   5.519 -0.0516 -0.8272  1.9364
 6412SOL    HW325415   0.913   5.329   5.476 -0.2659 -0.8372  1.5277
 6412SOL    MW425416   0.904   5.405   5.517  0.1875 -0.3552  0.7556
 6413SOL     OW25417   2.752   0.264   4.947 -0.9168 -0.5004 -0.1301
 6413SOL    HW225418   2.769   0.237   4.857  2.5403 -0.0788  0.2685
 6413SOL    HW325419   2.715   0.352   4.940  0.2989 -0.0552 -1.1251
 6413SOL    MW425420   2.749   0.272   4.934 -0.3002 -0.3860 -0.2088
 6414SOL     OW25421   0.353   2.452   5.122 -0.1762  0.0567 -0.2574
 6414SOL    HW225422   0.416   2.476   5.055 -0.6293  0.7307 -0.4561
 6414SOL    HW325423   0.339   2.532   5.172  0.4195 -0.5261  0.8805
 6414SOL    MW425424   0.359   2.466   5.120 -0.1574  0.0687 -0.1335
 6415SOL     OW25425   4.818   0.059   5.741 -0.0819 -0.1257 -0.3847
 6415SOL    HW225426   4.793   0.144   5.704 -2.1198 -1.1120 -1.4524
 6415SOL    HW325427   4.739   0.027   5.784  0.3448 -1.8906 -0.8211
 6415SOL    MW425428   4.804   0.066   5.742 -0.2944 -0.4887 -0.5831
 6416SOL     OW25429   4.435   5.158   4.022 -0.3014  0.7643 -0.4542
 6416SOL    HW225430   4.516   5.121   4.059 -2.1218 -2.7508  0.4887
 6416SOL    HW325431   4.449   5.158   3.928  1.7150  2.8809 -0.2549
 6416SOL    MW425432   4.448   5.153   4.015 -0.2756  0.5798 -0.3035
 6417SOL     OW25433   4.257   0.501   2.168 -0.8729  0.3995  0.0054
 6417SOL    HW225434   4.180   0.544   2.132 -0.0817  1.7489 -0.1580
 6417SOL    HW325435   4.313   0.484   2.092  0.0003  1.5836  0.3472
 6417SOL    MW425436   4.254   0.504   2.153 -0.6533  0.7338  0.0289
 6418SOL     OW25437   3.965   2.922   0.812 -0.0424 -0.6219 -0.3286
 6418SOL    HW225438   3.878   2.914   0.850  0.8740 -0.3455  2.0204
 6418SOL    HW325439   3.955   2.987   0.742 -1.5019  0.3224  0.6928
 6418SOL    MW425440   3.952   2.930   0.808 -0.1141 -0.4608  0.1161
 6419SOL     OW25441   6.272   0.631   4.820 -0.2279  0.4129  1.1144
 6419SOL    HW225442   6.288   0.723   4.841  0.1514  0.9893 -1.3531
 6419SOL    HW325443   6.188   0.632   4.774  0.5424 -0.1861 -0.3840
 6419SOL    MW425444   6.263   0.643   4.816 -0.0762  0.4099  0.5911
 6420SOL     OW25445   2.348   5.724   1.575 -0.9679  0.2027  0.7174
 6420SOL    HW225446   2.398   5.680   1.644 -0.1970  1.1035  0.7565
 6420SOL    HW325447   2.326   5.810   1.612 -1.7638  0.1598  0.3614
 6420SOL    MW425448   2.352   5.730   1.589 -0.9712  0.3159  0.6756
 6421SOL     OW25449   1.255   5.620   1.206 -0.0029 -0.3225  0.5387
 6421SOL    HW225450   1.256   5.530   1.239 -3.5046 -0.5763  0.3024
 6421SOL    HW325451   1.215   5.671   1.277  0.7992  0.8540  0.1795
 6421SOL    MW425452   1.250   5.615   1.220 -0.3591 -0.2008  0.4601
 6422SOL     OW25453   1.784   2.703   4.420  0.2036  0.3598  0.7368
 6422SOL    HW225454   1.767   2.666   4.334 -0.3162  4.2158 -1.0212
 6422SOL    HW325455   1.720   2.661   4.477 -2.3668  0.6802 -1.6962
 6422SOL    MW425456   1.773   2.693   4.416 -0.2041  0.9108  0.1838
 6423SOL     OW25457   1.105   2.587   6.029  0.0692  0.4524  0.3332
 6423SOL    HW225458   1.068   2.529   5.964  1.6935 -1.0698  0.6876
 6423SOL    HW325459   1.134   2.664   5.979 -2.2252  1.1036 -0.1139
 6423SOL    MW425460   1.104   2.590   6.014 -0.0192  0.3374  0.3210
 6424SOL     OW25461   5.831   3.957   5.961 -0.4155  0.4729  0.1223
 6424SOL    HW225462   5.789   3.902   6.027 -2.0593 -0.5689 -1.6857
 6424SOL    HW325463   5.760   4.012   5.927  0.2615  0.6138 -1.1213
 6424SOL    MW425464   5.816   3.957   5.965 -0.5431  0.3541 -0.2803
 6425SOL     OW25465   5.902   5.301   4.085  0.0929  0.4613 -0.2244
 6425SOL    HW225466   5.976   5.345   4.126 -1.4228  2.2453  0.7638
 6425SOL    HW325467   5.828   5.320   4.142 -1.3056 -0.5880 -1.5878
 6425SOL    MW425468   5.902   5.309   4.098 -0.2916  0.5582 -0.2739
 6426SOL     OW25469   4.493   2.438   2.224 -0.3120  0.1439  0.3347
 6426SOL    HW225470   4.523   2.492   2.151 -2.4042 -0.9173 -1.4021
 6426SOL    HW325471   4.444   2.499   2.280 -1.1591  0.4353 -0.6853
 6426SOL    MW425472   4.491   2.453   2.222 -0.6998  0.0423 -0.0290
 6427SOL     OW25473   2.092   1.460   0.547 -0.0895 -0.3973  0.2312
 6427SOL    HW225474   2.146   1.402   0.601 -1.4413 -3.4890 -1.4900
 6427SOL    HW325475   2.130   1.453   0.459 -0.2675  1.4511 -0.0296
 6427SOL    MW425476   2.104   1.451   0.543 -0.2913 -0.5613 -0.0303
 6428SOL     OW25477   2.876   0.124   4.252  0.1692  0.6078  0.4886
 6428SOL    HW225478   2.797   0.071   4.250 -1.3240  2.7221 -0.3970
 6428SOL    HW325479   2.938   0.077   4.195 -0.8890 -0.4363  0.1666
 6428SOL    MW425480   2.874   0.111   4.244 -0.1674  0.7490  0.3293
 6429SOL     OW25481   4.284   6.235   5.036  0.1850  0.5837 -0.7594
 6429SOL    HW225482   4.278   6.150   4.992  1.0693 -0.0348  0.2498
 6429SOL    HW325483   4.281   6.213   5.129 -0.9575  1.7913 -0.4951
 6429SOL    MW425484   4.283   6.221   5.043  0.1509  0.6615 -0.5914
 6430SOL     OW25485   3.890   1.175   2.272  0.1310  0.5175  0.0247
 6430SOL    HW225486   3.814   1.179   2.329  0.1362 -0.4409  0.1123
 6430SOL    HW325487   3.896   1.083   2.247  0.5751  0.7896 -0.9125
 6430SOL    MW425488   3.881   1.163   2.276  0.1903  0.4269 -0.0874
 6431SOL     OW25489   2.918   6.118   5.210 -0.3743  0.1197 -0.5994
 6431SOL    HW225490   2.855   6.052   5.238 -3.5129  2.7021 -0.9396
 6431SOL    HW325491   2.968   6.076   5.140 -0.4838 -2.5913  0.8271
 6431SOL    MW425492   2.916   6.104   5.204 -0.8028  0.1028 -0.4561
 6432SOL     OW25493   6.374   0.210   5.159 -0.2285 -0.0227 -0.0092
 6432SOL    HW225494   6.338   0.159   5.231  0.9620  1.5740  1.8199
 6432SOL    HW325495   6.314   0.284   5.149 -0.1868 -0.0380 -0.3985
 6432SOL    MW425496   6.362   0.213   5.167 -0.0659  0.1859  0.1808
 6433SOL     OW25497   1.881   1.490   2.481  0.5777  0.1196 -0.1441
 6433SOL    HW225498   1.839   1.460   2.400  0.8580 -0.1737 -0.1803
 6433SOL    HW325499   1.812   1.482   2.547  0.2492  0.6664 -0.4116
 6433SOL    MW425500   1.866   1.485   2.479  0.5713  0.1531 -0.1842
 6434SOL     OW25501   3.146   1.560   2.405  0.1166  0.1101 -0.0314
 6434SOL    HW225502   3.131   1.561   2.311 -0.0530  0.4251 -0.0036
 6434SOL    HW325503   3.241   1.553   2.415  0.0166 -1.9030 -0.2163
 6434SOL    MW425504   3.156   1.559   2.394  0.0810 -0.1139 -0.0522
 6435SOL     OW25505   3.093   6.175   0.314 -0.1764  0.1461  0.3961
 6435SOL    HW225506   3.172   6.157   0.364  0.6697 -0.2104 -1.0069
 6435SOL    HW325507   3.121   6.235   0.245 -0.7122 -1.2991 -1.1494
 6435SOL    MW425508   3.107   6.181   0.312 -0.1355 -0.0916  0.0071
 6436SOL     OW25509   2.160   5.079   4.120 -0.8139  0.3750 -0.0567
 6436SOL    HW225510   2.209   5.000   4.140 -0.5151  0.4398 -0.5098
 6436SOL    HW325511   2.068   5.054   4.134 -0.6874  0.1072  0.3082
 6436SOL    MW425512   2.154   5.065   4.124 -0.7578  0.3482 -0.0683
 6437SOL     OW25513   5.037   1.450   0.651 -0.4420  0.0481  0.2393
 6437SOL    HW225514   4.971   1.507   0.690 -2.0455 -1.6102  0.0927
 6437SOL    HW325515   5.063   1.391   0.722 -0.5288 -0.5174 -0.1902
 6437SOL    MW425516   5.032   1.449   0.665 -0.6650 -0.2453  0.1633
 6438SOL     OW25517   0.852   2.894   5.718 -0.3520  0.0047  0.3436
 6438SOL    HW225518   0.814   2.812   5.685 -0.4198 -0.5813  1.7735
 6438SOL    HW325519   0.834   2.892   5.812  0.4357  1.2487  0.5439
 6438SOL    MW425520   0.845   2.883   5.726 -0.2570  0.0915  0.5587
 6439SOL     OW25521   5.370   3.397   3.776  0.3244  0.7804  0.0762
 6439SOL    HW225522   5.444   3.435   3.728  0.8860  0.5823  0.7718
 6439SOL    HW325523   5.380   3.430   3.865 -1.2128  1.8628 -0.1116
 6439SOL    MW425524   5.381   3.406   3.782  0.1957  0.8971  0.1432
 6440SOL     OW25525   5.485   4.175   2.434 -0.4931  1.1408  0.3447
 6440SOL    HW225526   5.417   4.211   2.377  0.8278  1.3418 -1.1617
 6440SOL    HW325527   5.565   4.182   2.383  0.3928 -0.6645  1.4052
 6440SOL    MW425528   5.486   4.181   2.420 -0.2019  0.9291  0.2859
 6441SOL     OW25529   1.079   2.027   4.364  0.0512 -0.3152 -0.1347
 6441SOL    HW225530   1.051   2.087   4.295 -0.4704  0.5930  0.8476
 6441SOL    HW325531   0.997   1.992   4.400  0.3498 -2.2177 -1.1808
 6441SOL    MW425532   1.065   2.030   4.359  0.0218 -0.4464 -0.1431
 6442SOL     OW25533   4.672   5.032   2.589  0.4753  0.0492  0.0507
 6442SOL    HW225534   4.615   4.976   2.537  2.2413 -1.8900  0.0738
 6442SOL    HW325535   4.636   5.027   2.678 -0.2313  0.1615 -0.2216
 6442SOL    MW425536   4.660   5.024   2.594  0.6150 -0.1919  0.0179
 6443SOL     OW25537   5.950   3.011   2.485 -0.3620 -0.9818  1.2279
 6443SOL    HW225538   6.009   3.085   2.480  1.5747 -2.4940 -2.8122
 6443SOL    HW325539   5.994   2.949   2.543 -0.0567 -0.4936  1.5226
 6443SOL    MW425540   5.963   3.012   2.492 -0.0662 -1.1169  0.7338
 6444SOL     OW25541   4.498   2.085   2.470 -0.3321 -0.1065 -0.1348
 6444SOL    HW225542   4.473   2.046   2.386  1.0699 -0.8918 -0.2142
 6444SOL    HW325543   4.439   2.044   2.534  0.9434 -2.2798 -0.2492
 6444SOL    MW425544   4.487   2.075   2.468  0.0212 -0.4969 -0.1604
 6445SOL     OW25545   0.957   5.324   0.007  0.3169  0.3822  0.0760
 6445SOL    HW225546   1.034   5.272  -0.013  0.7805  1.0762  0.0203
 6445SOL    HW325547   0.963   5.340   0.101 -0.0035  0.0537  0.1533
 6445SOL    MW425548   0.968   5.320   0.017  0.3358  0.4304  0.0788
 6446SOL     OW25549   3.582   1.620   3.474 -0.3555 -0.1186  0.5218
 6446SOL    HW225550   3.510   1.644   3.532  0.0974 -0.5384  1.2653
 6446SOL    HW325551   3.542   1.613   3.388 -1.1749 -0.1893  0.9026
 6446SOL    MW425552   3.567   1.622   3.470 -0.4038 -0.1833  0.6701
 6447SOL     OW25553   3.698   5.605   0.077 -0.0637  0.2510  0.3228
 6447SOL    HW225554   3.766   5.553   0.035 -0.6057  0.9801 -1.5338
 6447SOL    HW325555   3.744   5.682   0.111  0.1927  0.2897 -0.1029
 6447SOL    MW425556   3.713   5.608   0.076 -0.1013  0.3523  0.0217
 6448SOL     OW25557   4.037   4.411   2.486  0.4507 -0.0403  0.5541
 6448SOL    HW225558   4.072   4.360   2.559 -0.1664  1.5071  1.9950
 6448SOL    HW325559   4.113   4.457   2.450  0.6449 -0.3146  0.6053
 6448SOL    MW425560   4.052   4.410   2.491  0.3949  0.1277  0.7510
 6449SOL     OW25561   1.529   2.162   0.777 -0.3285  0.4069 -0.0949
 6449SOL    HW225562   1.619   2.187   0.758 -0.2074 -1.3266 -2.1350
 6449SOL    HW325563   1.536   2.083   0.831 -0.6776  1.0040  0.8610
 6449SOL    MW425564   1.541   2.155   0.782 -0.3586  0.2570 -0.2379
 6450SOL     OW25565   5.290   4.529   2.932 -0.0756  0.4653 -0.8177
 6450SOL    HW225566   5.322   4.615   2.958 -0.8472  0.3896  0.4461
 6450SOL    HW325567   5.318   4.470   3.002 -0.0595 -0.2097 -1.3809
 6450SOL    MW425568   5.298   4.533   2.944 -0.1753  0.3662 -0.7253
 6451SOL     OW25569   3.838   4.000   2.728 -0.2502  0.5927 -0.6791
 6451SOL    HW225570   3.758   4.025   2.774 -1.1104 -0.5845 -1.4769
 6451SOL    HW325571   3.821   3.910   2.699  1.4710  0.2238 -0.6254
 6451SOL    MW425572   3.825   3.991   2.730 -0.1366  0.3887 -0.7773
 6452SOL     OW25573   3.148   4.919   1.961  0.0697  0.1890 -0.3097
 6452SOL    HW225574   3.212   4.973   1.914  0.1594  2.3959  2.1623
 6452SOL    HW325575   3.064   4.943   1.922  0.2465  1.2082 -0.0945
 6452SOL    MW425576   3.145   4.929   1.949  0.1049  0.6146  0.0449
 6453SOL     OW25577   5.096   0.512   4.165 -0.2708  0.5082  0.0604
 6453SOL    HW225578   5.169   0.572   4.179 -0.6015  0.9903 -0.2406
 6453SOL    HW325579   5.114   0.438   4.223  0.8645  0.2517 -0.5936
 6453SOL    MW425580   5.108   0.511   4.175 -0.1646  0.5379 -0.0656
 6454SOL     OW25581   0.355   5.367   5.000 -0.7182  0.3421 -0.7313
 6454SOL    HW225582   0.266   5.335   5.011 -0.6650  0.4079 -0.0109
 6454SOL    HW325583   0.373   5.359   4.907 -0.3215 -2.7690 -0.5050
 6454SOL    MW425584   0.346   5.362   4.989 -0.6589 -0.0597 -0.6064
 6455SOL     OW25585   2.007   2.939   0.450  0.4826 -0.3979  0.2994
 6455SOL    HW225586   1.964   3.022   0.429 -1.0454 -1.3510 -0.5352
 6455SOL    HW325587   1.935   2.876   0.460  1.6362 -1.9911 -0.8024
 6455SOL    MW425588   1.991   2.941   0.448  0.4332 -0.7339  0.0439
 6456SOL     OW25589   0.164   0.509   1.722 -0.0174 -0.3978 -0.1268
 6456SOL    HW225590   0.156   0.423   1.681  0.6646 -0.9078  0.7768
 6456SOL    HW325591   0.081   0.522   1.769 -0.8539  0.2422 -1.6957
 6456SOL    MW425592   0.152   0.500   1.723 -0.0378 -0.3807 -0.2145
 6457SOL     OW25593   6.285   4.302   3.513  0.6900 -0.3626  0.3168
 6457SOL    HW225594   6.217   4.260   3.460  1.2442 -2.1296  0.9396
 6457SOL    HW325595   6.367   4.274   3.473  1.0939 -0.0574  0.9096
 6457SOL    MW425596   6.287   4.293   3.500  0.8164 -0.5554  0.4772
 6458SOL     OW25597   5.242   4.124   0.563 -0.6114  0.1137  0.7257
 6458SOL    HW225598   5.211   4.139   0.652 -1.0064  1.9393  0.3440
 6458SOL    HW325599   5.163   4.101   0.514 -0.3456 -1.2063  0.8798
 6458SOL    MW425600   5.227   4.123   0.568 -0.6285  0.1804  0.6957
 6459SOL     OW25601   3.013   3.853   2.901 -0.0691 -0.3922  0.4326
 6459SOL    HW225602   2.952   3.866   2.828  0.4681 -0.0526  0.0360
 6459SOL    HW325603   2.958   3.818   2.972 -0.0940 -3.8921 -1.0927
 6459SOL    MW425604   2.998   3.850   2.901 -0.0015 -0.8092  0.1790
 6460SOL     OW25605   1.762   4.698   4.639  0.3155 -0.3914 -0.2805
 6460SOL    HW225606   1.779   4.777   4.690  0.5863 -0.1534 -0.7432
 6460SOL    HW325607   1.713   4.641   4.700 -2.7316  1.3497 -0.8860
 6460SOL    MW425608   1.758   4.701   4.654 -0.0508 -0.1303 -0.4214
 6461SOL     OW25609   2.156   2.015   1.744 -0.1053  0.1319  0.1615
 6461SOL    HW225610   2.197   1.934   1.777 -1.1780 -0.3646  0.3039
 6461SOL    HW325611   2.063   1.994   1.739 -0.4734  1.5554  0.7571
 6461SOL    MW425612   2.149   2.001   1.748 -0.2954  0.2542  0.2588
 6462SOL     OW25613   1.047   4.118   4.776 -0.2468 -0.1748  0.3152
 6462SOL    HW225614   1.141   4.104   4.768 -0.3446 -0.3612 -0.5965
 6462SOL    HW325615   1.009   4.069   4.704 -0.9745  0.6901  0.0901
 6462SOL    MW425616   1.054   4.110   4.766 -0.3557 -0.0853  0.1652
 6463SOL     OW25617   6.227   3.786   0.969  0.0653  0.2108  0.1812
 6463SOL    HW225618   6.170   3.863   0.968 -0.3852 -0.1074  0.6624
 6463SOL    HW325619   6.190   3.731   1.038  0.4546 -0.3815 -0.0843
 6463SOL    MW425620   6.215   3.789   0.978  0.0572  0.0906  0.2096
 6464SOL     OW25621   0.207   6.337   1.507  0.5745  0.1558  0.1811
 6464SOL    HW225622   0.275   6.303   1.449  1.4152  0.5105  0.9469
 6464SOL    HW325623   0.135   6.361   1.448  1.5696  0.8955 -0.7664
 6464SOL    MW425624   0.207   6.336   1.492  0.8167  0.3002  0.1571
 6465SOL     OW25625   0.383   0.485   2.460 -0.1942  0.1029 -0.0593
 6465SOL    HW225626   0.367   0.396   2.429 -0.1939  0.3491 -0.7828
 6465SOL    HW325627   0.445   0.474   2.532  0.5452 -0.4019 -0.7572
 6465SOL    MW425628   0.389   0.472   2.466 -0.0966  0.0688 -0.2468
 6466SOL     OW25629   5.447   3.175   0.631  0.4451 -0.0789 -0.5643
 6466SOL    HW225630   5.479   3.120   0.559  2.3613  0.8612 -0.5095
 6466SOL    HW325631   5.446   3.263   0.594  1.1685  0.3716  0.4480
 6466SOL    MW425632   5.451   3.179   0.616  0.7934  0.1046 -0.4235
 6467SOL     OW25633   4.905   3.580   2.430 -0.2040 -0.2899 -0.1063
 6467SOL    HW225634   4.878   3.533   2.350  2.4856  0.6233 -1.6773
 6467SOL    HW325635   4.980   3.531   2.463  0.0806  0.5999  0.6023
 6467SOL    MW425636   4.911   3.567   2.423  0.1884 -0.0520 -0.2201
 6468SOL     OW25637   0.278   3.468   0.553 -0.0504 -0.2354  0.2253
 6468SOL    HW225638   0.292   3.562   0.566 -0.2599 -0.2293  0.4062
 6468SOL    HW325639   0.188   3.460   0.523 -0.2519 -0.4351  0.8699
 6468SOL    MW425640   0.268   3.479   0.551 -0.1046 -0.2610  0.3342
 6469SOL     OW25641   0.082   0.714   0.273 -0.2617  0.0583 -0.1393
 6469SOL    HW225642   0.008   0.769   0.300  2.0225  3.0151  0.6407
 6469SOL    HW325643   0.087   0.646   0.340 -1.0925  0.9991  0.9088
 6469SOL    MW425644   0.073   0.713   0.285 -0.0700  0.5725  0.1019
 6470SOL     OW25645   5.697   0.277   5.044 -0.3152 -0.2643 -0.4927
 6470SOL    HW225646   5.758   0.351   5.047 -0.7790  0.0850  1.3676
 6470SOL    HW325647   5.610   0.317   5.050 -0.5175 -0.9836  2.5022
 6470SOL    MW425648   5.694   0.292   5.045 -0.4031 -0.3131  0.1479
 6471SOL     OW25649   4.875   6.225   6.261 -0.4985  0.6031  0.0238
 6471SOL    HW225650   4.956   6.264   6.230 -0.8921  0.4126 -1.2862
 6471SOL    HW325651   4.885   6.131   6.242 -1.8136  0.8183 -2.0642
 6471SOL    MW425652   4.887   6.218   6.255 -0.7240  0.6063 -0.4245
 6472SOL     OW25653   1.568   2.237   2.714  0.8121  0.3253 -0.2773
 6472SOL    HW225654   1.653   2.214   2.677  0.9232 -0.1270  0.2431
 6472SOL    HW325655   1.529   2.296   2.650  1.2233 -0.0181 -0.8506
 6472SOL    MW425656   1.574   2.242   2.701  0.8810  0.2203 -0.2843
 6473SOL     OW25657   6.255   3.880   3.453 -0.2782  0.1331  0.1833
 6473SOL    HW225658   6.244   3.878   3.548 -0.0097 -1.5010  0.2060
 6473SOL    HW325659   6.177   3.837   3.418 -0.0368  0.0649 -0.2904
 6473SOL    MW425660   6.244   3.874   3.461 -0.2109 -0.0915  0.1238
 6474SOL     OW25661   5.648   2.327   0.170  0.3883 -0.1370  0.2483
 6474SOL    HW225662   5.625   2.417   0.195  0.1822  0.0687 -0.6482
 6474SOL    HW325663   5.602   2.272   0.233  2.0693  0.4131  2.0461
 6474SOL    MW425664   5.639   2.332   0.181  0.5829 -0.0373  0.3672
 6475SOL     OW25665   5.375   1.308   3.307  0.4388 -0.2429  0.4297
 6475SOL    HW225666   5.313   1.236   3.313  1.0485 -0.7536  0.7321
 6475SOL    HW325667   5.434   1.283   3.236 -0.7886  1.1180 -1.1669
 6475SOL    MW425668   5.375   1.296   3.299  0.3573 -0.1307  0.2590
 6476SOL     OW25669   6.102   1.877   1.215  0.3693 -0.0357  0.2356
 6476SOL    HW225670   6.066   1.839   1.135  0.0472 -1.0603  0.8446
 6476SOL    HW325671   6.143   1.959   1.187 -0.0639 -0.1968 -0.9078
 6476SOL    MW425672   6.103   1.883   1.201  0.2697 -0.1921  0.1651
 6477SOL     OW25673   4.130   0.297   4.088 -0.4413 -0.5769 -0.3735
 6477SOL    HW225674   4.136   0.367   4.023 -2.4607  0.3739  0.3800
 6477SOL    HW325675   4.046   0.311   4.130  0.3328 -1.8234  1.7152
 6477SOL    MW425676   4.120   0.308   4.085 -0.6056 -0.6159  0.0015
 6478SOL     OW25677   4.491   4.581   4.755 -0.3301 -0.0386  0.3367
 6478SOL    HW225678   4.397   4.584   4.770 -0.3971 -0.6458  0.1024
 6478SOL    HW325679   4.525   4.523   4.823 -0.5149 -2.0611 -1.1852
 6478SOL    MW425680   4.483   4.574   4.766 -0.3633 -0.3855  0.1050
 6479SOL     OW25681   3.156   2.888   1.947 -0.0815 -0.4023  0.2873
 6479SOL    HW225682   3.085   2.898   1.884  0.0370 -0.2470  0.1767
 6479SOL    HW325683   3.116   2.911   2.031 -0.4000 -1.2116  0.3647
 6479SOL    MW425684   3.142   2.893   1.950 -0.1079 -0.4886  0.2829
 6480SOL     OW25685   2.580   5.293   6.076  0.2550  0.1519 -0.0199
 6480SOL    HW225686   2.535   5.367   6.035  0.8536  1.9436  2.2992
 6480SOL    HW325687   2.652   5.333   6.125  0.6064 -1.9563  1.3257
 6480SOL    MW425688   2.583   5.308   6.077  0.3804  0.1101  0.4636
 6481SOL     OW25689   5.246   1.602   2.397 -0.2675 -0.2068  0.0988
 6481SOL    HW225690   5.216   1.668   2.334 -0.7513  0.4583  0.9893
 6481SOL    HW325691   5.166   1.558   2.425 -0.3451  0.8181  1.6539
 6481SOL    MW425692   5.231   1.605   2.393 -0.3416  0.0162  0.4215
 6482SOL     OW25693   0.146   4.285   5.409 -0.2750 -0.1631 -0.1825
 6482SOL    HW225694   0.149   4.365   5.356 -1.2156  0.2279  0.3290
 6482SOL    HW325695   0.106   4.219   5.352 -1.8010  0.4008  0.1834
 6482SOL    MW425696   0.141   4.287   5.394 -0.6004 -0.0371 -0.0667
 6483SOL     OW25697   4.823   5.861   4.520 -0.3172 -0.2927 -0.4185
 6483SOL    HW225698   4.760   5.789   4.527 -1.4335  0.6033 -0.8849
 6483SOL    HW325699   4.772   5.933   4.483  0.7622  0.7564  0.0926
 6483SOL    MW425700   4.808   5.861   4.516 -0.3221 -0.0361 -0.4126
 6484SOL     OW25701   2.438   4.686   3.710 -0.5688  0.1646 -0.6245
 6484SOL    HW225702   2.511   4.731   3.753 -0.9984 -0.1504  0.4673
 6484SOL    HW325703   2.360   4.720   3.754 -1.0758  0.3115 -1.6053
 6484SOL    MW425704   2.438   4.697   3.722 -0.6924  0.1424 -0.6098
 6485SOL     OW25705   3.617   0.771   1.733  0.9453  0.2767  0.0940
 6485SOL    HW225706   3.549   0.836   1.716 -0.1843 -0.7456  0.5783
 6485SOL    HW325707   3.698   0.813   1.704 -0.1441  0.7391 -2.5535
 6485SOL    MW425708   3.619   0.785   1.727  0.6525  0.2028 -0.1914
 6486SOL     OW25709   1.480   5.715   0.844 -0.1796 -0.3432 -0.0713
 6486SOL    HW225710   1.395   5.737   0.805 -0.1956  1.1683  0.7267
 6486SOL    HW325711   1.528   5.798   0.843  0.0637 -0.3936  2.5051
 6486SOL    MW425712   1.475   5.729   0.839 -0.1496 -0.1504  0.3739
 6487SOL     OW25713   3.579   4.094   2.871  0.2620 -0.1216 -0.7793
 6487SOL    HW225714   3.551   4.003   2.877  0.2401 -0.0804 -0.1169
 6487SOL    HW325715   3.608   4.116   2.960  0.7803  0.3525 -1.0592
 6487SOL    MW425716   3.579   4.085   2.884  0.3275 -0.0536 -0.7289
 6488SOL     OW25717   0.217   6.038   1.397  0.1178 -0.4293 -0.1502
 6488SOL    HW225718   0.221   5.944   1.414 -0.8951 -0.8007 -1.7186
 6488SOL    HW325719   0.186   6.076   1.479 -0.4022 -1.5845  0.2161
 6488SOL    MW425720   0.213   6.030   1.410 -0.0844 -0.6307 -0.3088
 6489SOL     OW25721   4.700   3.804   1.659  0.2020 -0.1013 -0.0549
 6489SOL    HW225722   4.657   3.719   1.662  1.7490 -0.9104  0.0451
 6489SOL    HW325723   4.701   3.833   1.751 -2.4427  1.1932 -0.3349
 6489SOL    MW425724   4.695   3.797   1.672  0.0572 -0.0372 -0.0787
 6490SOL     OW25725   1.010   5.677   4.424  0.4405 -0.1642 -0.1705
 6490SOL    HW225726   1.030   5.763   4.388 -0.8074  0.2077 -0.0445
 6490SOL    HW325727   0.943   5.694   4.491  1.4693 -1.0347  1.1341
 6490SOL    MW425728   1.003   5.690   4.428  0.4116 -0.2300  0.0182
 6491SOL     OW25729   1.979   5.207   3.528 -0.0793 -0.1233 -0.1138
 6491SOL    HW225730   1.972   5.185   3.436 -1.8999  0.7851 -0.2422
 6491SOL    HW325731   1.889   5.203   3.561  0.7824 -3.0949  2.3132
 6491SOL    MW425732   1.966   5.204   3.520 -0.2058 -0.3955  0.1895
 6492SOL     OW25733   2.301   4.917   6.029 -0.0800  0.2732  0.6142
 6492SOL    HW225734   2.340   4.830   6.028 -2.5521 -0.9125  0.5551
 6492SOL    HW325735   2.268   4.930   5.940  0.7081  1.5345  0.4737
 6492SOL    MW425736   2.302   4.907   6.017 -0.3022  0.2832  0.5879
 6493SOL     OW25737   5.511   5.925   5.970  0.0699  0.5236  0.5820
 6493SOL    HW225738   5.439   5.982   5.997  0.1306  1.3926 -0.9652
 6493SOL    HW325739   5.468   5.850   5.929  0.0246  0.4974  0.6783
 6493SOL    MW425740   5.496   5.923   5.968  0.0719  0.6348  0.3905
 6494SOL     OW25741   5.514   5.379   2.455  0.1100  0.2605 -0.4331
 6494SOL    HW225742   5.491   5.419   2.371 -2.4039  0.8792  0.4701
 6494SOL    HW325743   5.546   5.452   2.508 -1.1305  0.4636  0.0701
 6494SOL    MW425744   5.515   5.394   2.451 -0.3854  0.3690 -0.2475
 6495SOL     OW25745   4.172   2.685   5.531  0.3208  0.0252  0.0806
 6495SOL    HW225746   4.129   2.720   5.609 -0.3772  1.2022 -0.8061
 6495SOL    HW325747   4.263   2.671   5.558  1.0435  3.8047  0.1856
 6495SOL    MW425748   4.179   2.688   5.545  0.3241  0.6792 -0.0226
 6496SOL     OW25749   4.060   2.199   1.572  0.2670 -0.1101 -0.4304
 6496SOL    HW225750   4.063   2.293   1.589  0.2972  0.1739 -1.8698
 6496SOL    HW325751   4.148   2.177   1.542 -0.5179  0.0356 -3.0172
 6496SOL    MW425752   4.072   2.208   1.571  0.1674 -0.0534 -0.9616
 6497SOL     OW25753   6.365   4.992   0.653  0.2523 -0.8071 -0.5783
 6497SOL    HW225754   6.344   5.017   0.563 -0.5835 -2.1049 -0.7572
 6497SOL    HW325755   6.280   4.984   0.696  0.5849 -1.4876 -0.0378
 6497SOL    MW425756   6.351   4.995   0.647  0.1859 -1.0681 -0.5306
 6498SOL     OW25757   5.941   3.736   2.598 -0.4159 -0.1836  0.1653
 6498SOL    HW225758   6.016   3.677   2.603  0.8607  0.7895 -3.8887
 6498SOL    HW325759   5.958   3.801   2.666  1.2466 -1.1769  0.7824
 6498SOL    MW425760   5.953   3.737   2.608 -0.0281 -0.1863 -0.2882
 6499SOL     OW25761   1.324   3.122  -0.000  0.3912 -0.3578 -0.4439
 6499SOL    HW225762   1.333   3.071   0.081  2.1281 -0.3077 -0.5560
 6499SOL    HW325763   1.314   3.212   0.030  1.1444 -0.3261 -0.2746
 6499SOL    MW425764   1.324   3.127   0.015  0.7197 -0.3470 -0.4363
 6500SOL     OW25765   5.454   4.546   0.992 -0.0589  0.3677  0.1381
 6500SOL    HW225766   5.479   4.627   1.035 -1.8317  1.6318 -1.0579
 6500SOL    HW325767   5.380   4.570   0.936  0.1064 -1.8368 -1.1591
 6500SOL    MW425768   5.447   4.560   0.990 -0.2710  0.2436 -0.1908
 6501SOL     OW25769   1.554   1.505   5.447  0.3400  0.2638  0.1567
 6501SOL    HW225770   1.614   1.556   5.501 -0.5804 -0.0472  1.5416
 6501SOL    HW325771   1.467   1.535   5.474 -0.1689 -0.7724 -0.2753
 6501SOL    MW425772   1.550   1.516   5.458  0.1514  0.0861  0.2824
 6502SOL     OW25773   4.867   0.029   1.225  0.1976 -0.0096  0.1102
 6502SOL    HW225774   4.809  -0.030   1.274  0.5926 -0.5046 -0.0084
 6502SOL    HW325775   4.941  -0.027   1.199  0.6869  0.5910  0.1920
 6502SOL    MW425776   4.869   0.013   1.228  0.3142  0.0043  0.1054
 6503SOL     OW25777   1.668   0.786   0.815 -0.4640 -0.7248  0.0495
 6503SOL    HW225778   1.615   0.729   0.870  0.4869 -2.9245 -1.2019
 6503SOL    HW325779   1.733   0.728   0.776  1.2204  1.4223 -0.5088
 6503SOL    MW425780   1.669   0.771   0.817 -0.1163 -0.7317 -0.1893
 6504SOL     OW25781   2.646   3.622   0.493  0.0009  0.1565  0.3978
 6504SOL    HW225782   2.598   3.682   0.550  0.5774  0.4593  0.5814
 6504SOL    HW325783   2.584   3.599   0.424 -0.2793  0.8483  0.4097
 6504SOL    MW425784   2.632   3.627   0.491  0.0400  0.2878  0.4236
 6505SOL     OW25785   5.059   1.508   4.719  0.3024  0.2095 -0.0859
 6505SOL    HW225786   5.123   1.507   4.790 -1.1140 -0.8926  1.2673
 6505SOL    HW325787   5.007   1.587   4.734 -0.4458 -0.3832  0.5908
 6505SOL    MW425788   5.060   1.518   4.730  0.0168 -0.0141  0.1819
 6506SOL     OW25789   0.286   4.027   3.510 -0.1679 -0.1257 -0.2539
 6506SOL    HW225790   0.226   4.090   3.470 -0.4927 -0.2812 -0.0247
 6506SOL    HW325791   0.373   4.064   3.497 -0.1282 -0.7892 -2.2631
 6506SOL    MW425792   0.289   4.040   3.503 -0.2055 -0.2337 -0.4888
 6507SOL     OW25793   4.475   1.515   4.467 -0.1004 -0.4857  0.7192
 6507SOL    HW225794   4.432   1.579   4.411 -1.5143 -2.0001 -0.0238
 6507SOL    HW325795   4.534   1.566   4.522 -1.4678  1.4829  0.4481
 6507SOL    MW425796   4.477   1.530   4.467 -0.4674 -0.4258  0.5854
 6508SOL     OW25797   1.987   2.116   5.330 -0.7636  0.5586  0.7211
 6508SOL    HW225798   2.040   2.059   5.274 -1.2945  0.3881  0.3941
 6508SOL    HW325799   1.958   2.186   5.272  0.4567  1.5621  1.2666
 6508SOL    MW425800   1.991   2.118   5.315 -0.6726  0.6685  0.7499
 6509SOL     OW25801   3.537   4.640   2.085 -0.3568  0.2923 -0.3593
 6509SOL    HW225802   3.580   4.556   2.099 -1.0613 -0.3865 -2.0225
 6509SOL    HW325803   3.444   4.621   2.100 -0.4669  0.8987 -0.2690
 6509SOL    MW425804   3.530   4.626   2.089 -0.4643  0.2827 -0.5668
 6510SOL     OW25805   3.360   5.553   1.787  0.1976  0.3874  0.1952
 6510SOL    HW225806   3.400   5.466   1.782 -0.8324 -0.1116  0.3849
 6510SOL    HW325807   3.370   5.589   1.699  0.7510  0.1398  0.1504
 6510SOL    MW425808   3.367   5.546   1.775  0.1347  0.2889  0.2143
 6511SOL     OW25809   3.461   2.205   6.244  0.5027  0.3186 -0.0261
 6511SOL    HW225810   3.498   2.155   6.171 -1.6986  0.3296 -1.2489
 6511SOL    HW325811   3.528   2.201   6.312  1.5657 -1.9495 -1.0807
 6511SOL    MW425812   3.475   2.198   6.243  0.3525  0.0208 -0.3266
 6512SOL     OW25813   1.455   1.699   2.480 -0.4915  0.3541 -0.5448
 6512SOL    HW225814   1.419   1.763   2.541 -0.0867 -1.3460  1.6083
 6512SOL    HW325815   1.525   1.746   2.434 -1.7791  2.1033 -0.8296
 6512SOL    MW425816   1.460   1.714   2.482 -0.6080  0.3606 -0.2983
 6513SOL     OW25817   0.620   4.985   3.929  0.1258 -0.2970 -0.8231
 6513SOL    HW225818   0.600   4.892   3.927  0.1753 -0.3018 -1.4406
 6513SOL    HW325819   0.683   4.997   3.857 -0.5501  0.3577 -1.3265
 6513SOL    MW425820   0.626   4.975   3.919  0.0431 -0.2113 -0.9710
 6514SOL     OW25821   2.872   0.392   4.183 -0.3247  0.0191 -0.1693
 6514SOL    HW225822   2.910   0.306   4.199 -1.2529 -0.1024  1.5452
 6514SOL    HW325823   2.916   0.450   4.244 -1.2029  0.3202  0.2017
 6514SOL    MW425824   2.882   0.388   4.193 -0.5631  0.0428  0.1059
 6515SOL     OW25825   0.110   5.665   2.149 -0.1175 -0.1049 -0.0488
 6515SOL    HW225826   0.144   5.578   2.131 -0.9773 -0.4581  0.0010
 6515SOL    HW325827   0.168   5.724   2.101 -1.8292 -0.9232 -3.4624
 6515SOL    MW425828   0.122   5.661   2.140 -0.4567 -0.2595 -0.4926
 6516SOL     OW25829   5.344   4.991   2.940 -0.8864  0.0385  0.5903
 6516SOL    HW225830   5.420   5.049   2.939 -0.4277 -0.5527  0.9728
 6516SOL    HW325831   5.273   5.044   2.902 -0.4832  0.8540  0.9550
 6516SOL    MW425832   5.344   5.006   2.935 -0.7727  0.0681  0.6889
 6517SOL     OW25833   3.824   1.997   5.989 -0.0149 -1.0120  0.4146
 6517SOL    HW225834   3.739   2.011   6.031 -0.9172 -1.3535 -1.2357
 6517SOL    HW325835   3.830   1.903   5.977  1.4531 -1.1895  2.1687
 6517SOL    MW425836   3.814   1.987   5.993  0.0598 -1.0805  0.4283
 6518SOL     OW25837   5.554   2.732   1.546 -0.2752 -0.1742 -0.0710
 6518SOL    HW225838   5.502   2.775   1.614  0.8721  1.4266 -0.1545
 6518SOL    HW325839   5.489   2.688   1.491 -1.5492  1.5515 -0.0404
 6518SOL    MW425840   5.538   2.732   1.548 -0.2919  0.2647 -0.0780
 6519SOL     OW25841   5.387   3.180   1.268  0.1408  0.2100 -0.0099
 6519SOL    HW225842   5.430   3.096   1.283 -0.0986  0.1769  0.5022
 6519SOL    HW325843   5.359   3.176   1.176  0.5261 -0.0836 -0.1158
 6519SOL    MW425844   5.389   3.168   1.258  0.1600  0.1669  0.0437
 6520SOL     OW25845   3.203   5.054   6.003 -0.4355 -0.0378 -0.2358
 6520SOL    HW225846   3.219   5.137   6.047 -0.5234  0.8054 -1.7276
 6520SOL    HW325847   3.110   5.056   5.981 -0.0520  0.3806 -1.9908
 6520SOL    MW425848   3.193   5.065   6.006 -0.3965  0.1287 -0.6642
 6521SOL     OW25849   4.545   5.205   5.961  0.0383  0.3577  1.0291
 6521SOL    HW225850   4.627   5.188   6.007  0.4762 -1.3670 -0.2516
 6521SOL    HW325851   4.562   5.283   5.908  0.8693  0.0183  0.7794
 6521SOL    MW425852   4.558   5.213   5.960  0.2057  0.0853  0.8272
 6522SOL     OW25853   1.680   1.746   0.843  0.2954  0.3159 -0.0683
 6522SOL    HW225854   1.627   1.667   0.832  3.2897 -1.8351 -0.0620
 6522SOL    HW325855   1.646   1.807   0.777 -3.6767  0.0939  1.4772
 6522SOL    MW425856   1.668   1.744   0.833  0.1664  0.0028  0.1364
 6523SOL     OW25857   2.137   3.083   1.510 -0.0047  0.1433 -0.0897
 6523SOL    HW225858   2.188   3.030   1.571  1.3466  0.5101 -0.8495
 6523SOL    HW325859   2.172   3.172   1.520  0.5712  0.1328 -1.6768
 6523SOL    MW425860   2.148   3.088   1.519  0.2496  0.1903 -0.3994
 6524SOL     OW25861   6.233   4.057   0.669  0.3777 -0.9355  0.3791
 6524SOL    HW225862   6.199   4.034   0.755  0.8585 -1.1853  0.5053
 6524SOL    HW325863   6.282   4.138   0.684  0.4557 -0.9754  0.3400
 6524SOL    MW425864   6.235   4.065   0.682  0.4514 -0.9737  0.3906
 6525SOL     OW25865   5.374   2.858   5.810 -0.1306 -0.4144 -0.4718
 6525SOL    HW225866   5.416   2.771   5.806  0.6443 -0.1620  1.0800
 6525SOL    HW325867   5.286   2.840   5.842 -0.0223 -0.6603 -0.2987
 6525SOL    MW425868   5.368   2.844   5.814 -0.0141 -0.4136 -0.2442
 6526SOL     OW25869   6.293   0.967   0.051 -0.4199  0.5071  0.4708
 6526SOL    HW225870   6.249   0.898   0.100 -0.3234  0.6363  0.7419
 6526SOL    HW325871   6.360   1.001   0.111 -0.6681  1.0422  0.4545
 6526SOL    MW425872   6.296   0.962   0.065 -0.4399  0.5947  0.5044
 6527SOL     OW25873   5.873   3.829   0.090 -0.0089  0.5163 -0.2068
 6527SOL    HW225874   5.811   3.765   0.124 -0.4562  0.5666 -0.8943
 6527SOL    HW325875   5.868   3.903   0.151 -0.7815  0.6015 -0.3638
 6527SOL    MW425876   5.864   3.831   0.102 -0.1699  0.5342 -0.3182
 6528SOL     OW25877   3.132   2.941   4.987 -0.6942  0.3147 -0.4273
 6528SOL    HW225878   3.059   2.952   4.926  0.2131 -0.1234 -1.6411
 6528SOL    HW325879   3.173   2.858   4.961 -0.0803  0.2830  0.5669
 6528SOL    MW425880   3.128   2.932   4.975 -0.4935  0.2528 -0.4563
 6529SOL     OW25881   3.941   2.176   5.105  0.4505 -0.5435 -0.2918
 6529SOL    HW225882   3.848   2.166   5.085  0.3574  0.7409 -0.6316
 6529SOL    HW325883   3.946   2.259   5.153  1.6509  0.6710 -2.3357
 6529SOL    MW425884   3.929   2.186   5.109  0.5966 -0.2138 -0.6063
 6530SOL     OW25885   0.732   5.846   4.167  0.5378  0.7817  0.1558
 6530SOL    HW225886   0.720   5.867   4.259  0.1122  0.5658  0.1544
 6530SOL    HW325887   0.660   5.891   4.122 -0.6771 -0.9850  0.2089
 6530SOL    MW425888   0.721   5.855   4.173  0.3213  0.5201  0.1626
 6531SOL     OW25889   0.288   3.896   4.299  0.0186  0.5513  0.2442
 6531SOL    HW225890   0.318   3.809   4.273  0.9471  0.2154  2.2674
 6531SOL    HW325891   0.197   3.884   4.324 -0.0249  0.2974 -0.0285
 6531SOL    MW425892   0.280   3.883   4.299  0.1354  0.4735  0.4752
 6532SOL     OW25893   2.502   0.049   6.311  0.3147 -0.3135  0.1835
 6532SOL    HW225894   2.497   0.107   6.387 -0.5666  0.2873 -0.3140
 6532SOL    HW325895   2.565  -0.019   6.336  1.6128  1.0088  0.6740
 6532SOL    MW425896   2.510   0.048   6.324  0.3696 -0.0598  0.1826
 6533SOL     OW25897   5.429   1.463   5.100 -0.9861 -0.4940  0.0013
 6533SOL    HW225898   5.363   1.465   5.169 -2.5637 -2.4105 -1.2940
 6533SOL    HW325899   5.501   1.516   5.133 -1.9520 -0.7316  2.7739
 6533SOL    MW425900   5.430   1.470   5.113 -1.3217 -0.7782  0.1962
 6534SOL     OW25901   2.996   4.336   1.997 -0.0082 -0.0797  0.5415
 6534SOL    HW225902   2.951   4.420   1.984 -0.5609 -0.6038 -1.2295
 6534SOL    HW325903   3.000   4.298   1.910  2.8265 -0.6195  0.8127
 6534SOL    MW425904   2.990   4.342   1.984  0.2929 -0.2201  0.3436
 6535SOL     OW25905   1.792   4.081   5.738  0.2011  0.0905 -0.0817
 6535SOL    HW225906   1.711   4.053   5.781 -1.0189  1.6356 -1.2718
 6535SOL    HW325907   1.792   4.034   5.655  0.5490  0.0729 -0.0718
 6535SOL    MW425908   1.781   4.071   5.733  0.0861  0.2921 -0.2374
 6536SOL     OW25909   1.146   1.904   3.977 -0.0274  0.0580 -0.7889
 6536SOL    HW225910   1.212   1.931   4.041 -0.9361 -1.4959  0.8783
 6536SOL    HW325911   1.142   1.977   3.915  2.0870  0.8842 -0.0486
 6536SOL    MW425912   1.154   1.918   3.977  0.1317 -0.0380 -0.4712
 6537SOL     OW25913   3.071   3.871   4.708  0.4813  0.2502  0.2873
 6537SOL    HW225914   3.032   3.790   4.675  0.5833  0.4322 -0.2958
 6537SOL    HW325915   3.108   3.847   4.792  0.5995 -0.3360  0.0743
 6537SOL    MW425916   3.070   3.857   4.714  0.5104  0.1969  0.1823
 6538SOL     OW25917   4.850   0.949   4.783  0.3827  0.0654  0.6122
 6538SOL    HW225918   4.822   0.859   4.799  0.3067 -0.1212 -0.4843
 6538SOL    HW325919   4.788   0.983   4.718  0.1848  1.0402  1.2774
 6538SOL    MW425920   4.838   0.942   4.776  0.3465  0.1694  0.5553
 6539SOL     OW25921   2.596   4.970   6.229 -0.4322  0.2414  0.0033
 6539SOL    HW225922   2.532   5.034   6.260 -0.5564  0.3553 -0.4940
 6539SOL    HW325923   2.544   4.895   6.202 -0.4021  0.5776 -1.0015
 6539SOL    MW425924   2.581   4.968   6.230 -0.4446  0.3008 -0.1949
 6540SOL     OW25925   4.644   6.090   4.434  0.2030  0.0569 -0.1914
 6540SOL    HW225926   4.723   6.143   4.422 -0.1165  0.1084 -2.6571
 6540SOL    HW325927   4.573   6.154   4.439  0.1242 -0.0529  0.1324
 6540SOL    MW425928   4.645   6.106   4.433  0.1504  0.0492 -0.4740
 6541SOL     OW25929   5.518   2.880   0.901  0.3104  0.2418  0.1044
 6541SOL    HW225930   5.546   2.801   0.947 -0.7605 -1.4058 -1.9146
 6541SOL    HW325931   5.599   2.919   0.869  0.7653 -1.2865 -0.7402
 6541SOL    MW425932   5.533   2.875   0.903  0.2291 -0.1772 -0.2734
 6542SOL     OW25933   1.759   2.148   3.062  0.0084 -0.1132  0.0141
 6542SOL    HW225934   1.805   2.217   3.014 -0.6969 -0.3552 -1.0470
 6542SOL    HW325935   1.724   2.090   2.994 -2.5333  0.4763  0.7009
 6542SOL    MW425936   1.760   2.149   3.047 -0.4200 -0.0674 -0.0353
 6543SOL     OW25937   5.836   4.226   4.578 -0.7427 -0.0026 -0.8178
 6543SOL    HW225938   5.905   4.185   4.631 -1.8763  0.7501  1.3552
 6543SOL    HW325939   5.867   4.315   4.564 -1.2594  0.3411  0.1743
 6543SOL    MW425940   5.849   4.232   4.583 -0.9605  0.1421 -0.4002
 6544SOL     OW25941   3.846   2.984   3.502 -0.3828 -0.4051 -0.2405
 6544SOL    HW225942   3.898   2.973   3.582 -2.9655 -0.9903  1.4784
 6544SOL    HW325943   3.892   3.052   3.453  1.8348 -0.7170  1.2529
 6544SOL    MW425944   3.859   2.991   3.506 -0.4310 -0.5235  0.1833
 6545SOL     OW25945   3.470   3.259   4.204 -0.0724  0.2166 -0.3175
 6545SOL    HW225946   3.437   3.188   4.261 -0.5072  0.6490 -0.0231
 6545SOL    HW325947   3.393   3.288   4.156 -0.2314  1.5328  0.6899
 6545SOL    MW425948   3.455   3.253   4.205 -0.1508  0.4473 -0.1457
 6546SOL     OW25949   4.784   3.783   6.243  0.3747 -0.4728 -0.0664
 6546SOL    HW225950   4.829   3.865   6.227 -1.2626  0.3164 -0.8378
 6546SOL    HW325951   4.699   3.808   6.279 -0.0819 -1.8322 -0.1281
 6546SOL    MW425952   4.779   3.797   6.246  0.0984 -0.5481 -0.1763
 6547SOL     OW25953   6.421   1.633   6.214  0.0092  0.0158  0.1169
 6547SOL    HW225954   6.339   1.681   6.219 -0.2880 -0.3272 -1.0519
 6547SOL    HW325955   6.400   1.546   6.249 -0.1960 -0.1384 -0.3735
 6547SOL    MW425956   6.408   1.628   6.219 -0.0571 -0.0498 -0.1020
 6548SOL     OW25957   0.082   1.045   6.191  0.1269  0.3829  0.8350
 6548SOL    HW225958   0.056   1.133   6.163  0.3059  0.3821  0.6568
 6548SOL    HW325959   0.072   1.046   6.286  0.9511  0.8800  0.9307
 6548SOL    MW425960   0.077   1.057   6.200  0.2593  0.4484  0.8241
 6549SOL     OW25961   1.556   5.221   6.007  0.4692 -0.4629 -0.6861
 6549SOL    HW225962   1.536   5.312   5.985 -0.8276 -0.1108  1.5974
 6549SOL    HW325963   1.544   5.172   5.926 -2.2181  0.9178 -1.2197
 6549SOL    MW425964   1.552   5.227   5.993 -0.0564 -0.2343 -0.4552
 6550SOL     OW25965   5.074   2.972   1.126  0.2472  0.4328  0.5234
 6550SOL    HW225966   5.150   2.933   1.170 -0.0840  0.2293  0.9186
 6550SOL    HW325967   5.000   2.920   1.156  0.2211 -1.0086 -1.8333
 6550SOL    MW425968   5.074   2.960   1.136  0.2001  0.2158  0.2646
 6551SOL     OW25969   5.098   4.437   3.850 -0.0514 -0.0155  0.4504
 6551SOL    HW225970   5.068   4.346   3.838  0.8828 -0.0502 -2.3666
 6551SOL    HW325971   5.036   4.474   3.912 -1.0849 -2.2984  0.9069
 6551SOL    MW425972   5.085   4.430   3.856 -0.0645 -0.3213  0.1390
 6552SOL     OW25973   3.084   1.279   2.422 -0.0857 -0.4314  0.2820
 6552SOL    HW225974   3.085   1.375   2.425 -2.1874 -0.3706  0.3967
 6552SOL    HW325975   3.091   1.258   2.329 -1.9245 -0.0461  0.0143
 6552SOL    MW425976   3.085   1.289   2.410 -0.6056 -0.3725  0.2618
 6553SOL     OW25977   4.465   4.531   6.355 -0.5930 -0.1615 -0.0128
 6553SOL    HW225978   4.378   4.512   6.319  0.0050 -2.8960 -0.2297
 6553SOL    HW325979   4.523   4.526   6.279 -0.0476 -0.0222  0.3958
 6553SOL    MW425980   4.461   4.528   6.340 -0.4421 -0.5039  0.0125
 6554SOL     OW25981   5.175   1.896   0.222 -0.2956  0.1789 -0.0141
 6554SOL    HW225982   5.170   1.890   0.317  1.9338 -0.0920  0.1417
 6554SOL    HW325983   5.140   1.813   0.190 -2.6793  0.9295  0.4165
 6554SOL    MW425984   5.170   1.884   0.230 -0.3159  0.2422  0.0633
 6555SOL     OW25985   1.651   2.067   6.064 -0.6022 -0.2180  0.5194
 6555SOL    HW225986   1.736   2.079   6.021  0.3918  0.5611  2.5360
 6555SOL    HW325987   1.604   2.149   6.047  0.0771  0.3941  1.4475
 6555SOL    MW425988   1.656   2.080   6.056 -0.3814 -0.0345  0.9079
 6556SOL     OW25989   3.227   3.296   0.480 -0.4006 -0.0283 -0.0668
 6556SOL    HW225990   3.161   3.326   0.542  0.5288 -0.0000  0.9369
 6556SOL    HW325991   3.251   3.374   0.430  0.5823  0.5238  1.2013
 6556SOL    MW425992   3.222   3.310   0.481 -0.1483  0.0483  0.2329
 6557SOL     OW25993   3.335   5.227   0.205 -0.2219 -0.4814  0.7103
 6557SOL    HW225994   3.387   5.147   0.209  1.5936  0.6627  1.3692
 6557SOL    HW325995   3.382   5.289   0.260 -1.1715  1.2806 -0.3580
 6557SOL    MW425996   3.348   5.225   0.213 -0.1076 -0.0979  0.6563
 6558SOL     OW25997   0.659   1.013   4.185  0.1236  0.4100 -0.1799
 6558SOL    HW225998   0.730   0.968   4.230  1.0917  1.1123 -0.9484
 6558SOL    HW325999   0.637   1.087   4.242  0.0154  0.1949  0.0568
 6558SOL    MW426000   0.666   1.017   4.198  0.2370  0.4743 -0.2501
 6559SOL     OW26001   6.003   5.498   1.749  0.2144  0.1648 -0.3296
 6559SOL    HW226002   6.065   5.535   1.686 -2.2527  2.8921 -1.3757
 6559SOL    HW326003   6.028   5.539   1.832 -0.9311  2.4174 -1.0139
 6559SOL    MW426004   6.015   5.508   1.752 -0.2623  0.8219 -0.5579
 6560SOL     OW26005   4.728   6.349   2.926 -0.2632 -0.8055 -0.6780
 6560SOL    HW226006   4.786   6.306   2.862 -0.8378 -1.3982 -0.8163
 6560SOL    HW326007   4.641   6.313   2.907 -0.3582 -1.4319  0.8040
 6560SOL    MW426008   4.724   6.338   2.915 -0.3516 -0.9663 -0.5008
 6561SOL     OW26009   5.796   0.269   0.303 -0.5871 -0.7025 -0.1121
 6561SOL    HW226010   5.848   0.189   0.306  0.4053 -0.0495  0.9862
 6561SOL    HW326011   5.795   0.294   0.211  0.8945 -0.8405 -0.1849
 6561SOL    MW426012   5.803   0.261   0.292 -0.2607 -0.6346  0.0232
 6562SOL     OW26013   0.208   0.230   3.044  0.7064  0.5027 -0.7871
 6562SOL    HW226014   0.303   0.220   3.055  0.7435  0.9861 -0.6595
 6562SOL    HW326015   0.171   0.196   3.125  0.7804  0.5349 -0.7400
 6562SOL    MW426016   0.216   0.224   3.056  0.7211  0.5707 -0.7641
 6563SOL     OW26017   0.215   0.376   1.002 -0.2782  0.0589  0.2827
 6563SOL    HW226018   0.255   0.370   0.916 -1.7945 -3.0356 -0.3718
 6563SOL    HW326019   0.220   0.287   1.037 -1.9896  0.6601  2.2772
 6563SOL    MW426020   0.221   0.363   0.995 -0.7041 -0.2700  0.4595
 6564SOL     OW26021   5.866   2.713   4.480  0.5693 -0.1123 -0.3282
 6564SOL    HW226022   5.914   2.796   4.477  0.7346 -0.0948  1.7150
 6564SOL    HW326023   5.775   2.737   4.468  0.7523  0.1772 -1.2332
 6564SOL    MW426024   5.861   2.727   4.478  0.6152 -0.0718 -0.1780
 6565SOL     OW26025   2.095   5.994   3.173 -0.2948  0.5861 -0.2795
 6565SOL    HW226026   2.031   6.014   3.242  0.5209 -2.1798  1.4233
 6565SOL    HW326027   2.180   6.014   3.213  0.1508 -0.5130 -0.6434
 6565SOL    MW426028   2.098   5.999   3.188 -0.1284  0.0761 -0.1028
 6566SOL     OW26029   1.854   3.160   0.736  0.3837 -0.3933 -0.3904
 6566SOL    HW226030   1.937   3.127   0.701  0.9960 -1.2249  1.7086
 6566SOL    HW326031   1.794   3.086   0.730  0.0632 -0.1041 -0.9315
 6566SOL    MW426032   1.857   3.146   0.730  0.4222 -0.4649 -0.1849
 6567SOL     OW26033   0.779   6.086   1.910  0.1300  0.0898  0.4201
 6567SOL    HW226034   0.694   6.128   1.895 -0.0954 -0.3051  0.5872
 6567SOL    HW326035   0.760   6.014   1.969  0.1417 -1.6244 -1.5543
 6567SOL    MW426036   0.765   6.082   1.916  0.1018 -0.1885  0.1816
 6568SOL     OW26037   4.735   3.257   5.666  0.3368  0.0088 -0.2882
 6568SOL    HW226038   4.798   3.313   5.619 -1.6681  1.4850 -1.3495
 6568SOL    HW326039   4.691   3.316   5.727 -0.0194 -1.0225  0.4955
 6568SOL    MW426040   4.738   3.272   5.668  0.0253  0.0675 -0.3248
 6569SOL     OW26041   3.234   3.683   2.975  0.3160  0.1422 -0.3185
 6569SOL    HW226042   3.248   3.725   3.060  0.1490  0.6431 -0.5323
 6569SOL    HW326043   3.151   3.721   2.943 -0.4800 -1.2505  0.0241
 6569SOL    MW426044   3.225   3.694   2.982  0.1890  0.0246 -0.3015
 6570SOL     OW26045   0.890   0.362   5.325  0.3515 -0.4017 -0.3477
 6570SOL    HW226046   0.913   0.452   5.302 -1.3639  1.0033  2.7457
 6570SOL    HW326047   0.797   0.354   5.303  0.2676 -1.0825  0.2039
 6570SOL    MW426048   0.881   0.373   5.319  0.1141 -0.3062  0.1332
 6571SOL     OW26049   3.111   6.042   6.266  0.0822 -0.3467 -0.3799
 6571SOL    HW226050   3.156   6.006   6.342  0.2742 -0.2095 -0.4280
 6571SOL    HW326051   3.034   6.086   6.303  1.2045  1.4411 -0.0478
 6571SOL    MW426052   3.107   6.043   6.281  0.2556 -0.0927 -0.3424
 6572SOL     OW26053   1.347   2.609   0.286  0.1961 -0.5726  0.4564
 6572SOL    HW226054   1.333   2.598   0.192  2.3796 -1.9032  0.2127
 6572SOL    HW326055   1.261   2.633   0.320 -0.7524 -0.4580 -1.8010
 6572SOL    MW426056   1.334   2.611   0.278  0.3590 -0.7331  0.1264
 6573SOL     OW26057   4.683   0.487   2.497  0.5886 -0.5669  0.4643
 6573SOL    HW226058   4.588   0.472   2.504  0.1047  2.5334  1.9925
 6573SOL    HW326059   4.710   0.509   2.586  2.7704 -1.2593  0.0192
 6573SOL    MW426060   4.674   0.488   2.510  0.8126 -0.2492  0.6072
 6574SOL     OW26061   0.598   3.563   3.613  0.1043 -0.1219  0.1343
 6574SOL    HW226062   0.535   3.550   3.684 -0.4293  0.1125 -0.2846
 6574SOL    HW326063   0.661   3.492   3.623 -1.8947 -2.2100 -1.1885
 6574SOL    MW426064   0.598   3.552   3.624 -0.2299 -0.3665 -0.0955
 6575SOL     OW26065   6.307   3.621   5.925 -0.0892 -0.3383 -0.3049
 6575SOL    HW226066   6.268   3.567   5.994 -0.5585  0.5893  0.1630
 6575SOL    HW326067   6.237   3.636   5.863  0.0006 -0.1387 -0.3587
 6575SOL    MW426068   6.293   3.616   5.926 -0.1393 -0.1896 -0.2503
 6576SOL     OW26069   3.806   3.348   4.882  0.1088  0.0614 -0.5911
 6576SOL    HW226070   3.758   3.269   4.906  0.1770 -0.0792 -0.9122
 6576SOL    HW326071   3.803   3.403   4.961  0.8931 -0.6621 -0.0446
 6576SOL    MW426072   3.799   3.345   4.895  0.2213 -0.0526 -0.5613
 6577SOL     OW26073   3.103   0.568   1.732 -0.3114 -0.1403  0.5250
 6577SOL    HW226074   3.193   0.585   1.761 -1.3054  0.4409  3.6570
 6577SOL    HW326075   3.089   0.475   1.751  0.0251 -0.5871 -1.2878
 6577SOL    MW426076   3.113   0.558   1.739 -0.3981 -0.1225  0.6991
 6578SOL     OW26077   1.890   0.365   2.078 -0.0512 -0.5914 -0.3389
 6578SOL    HW226078   1.914   0.333   1.991 -1.0752  1.2491 -1.3810
 6578SOL    HW326079   1.827   0.435   2.060  0.7068  0.7366  1.8313
 6578SOL    MW426080   1.885   0.370   2.064 -0.0863 -0.1733 -0.1901
 6579SOL     OW26081   3.887   2.502   0.418  0.6438 -0.2499 -0.5090
 6579SOL    HW226082   3.887   2.572   0.482 -0.1619 -1.1225  0.4900
 6579SOL    HW326083   3.805   2.513   0.370  0.8437 -0.1054 -0.8238
 6579SOL    MW426084   3.876   2.512   0.420  0.5639 -0.3460 -0.4188
 6580SOL     OW26085   5.189   2.749   3.493 -0.3380 -0.7091 -0.4039
 6580SOL    HW226086   5.244   2.822   3.521 -1.7672 -0.1350  1.0959
 6580SOL    HW326087   5.147   2.780   3.413 -1.7353  0.6331  0.7631
 6580SOL    MW426088   5.191   2.762   3.486 -0.7109 -0.4562 -0.0521
 6581SOL     OW26089   2.695   6.295   0.575 -0.1525 -0.1726 -0.6252
 6581SOL    HW226090   2.720   6.333   0.659  1.4287 -1.3748 -0.5152
 6581SOL    HW326091   2.724   6.359   0.510  1.3654 -0.5724 -0.3836
 6581SOL    MW426092   2.702   6.308   0.578  0.2564 -0.3840 -0.5788
 6582SOL     OW26093   4.269   1.442   2.410 -0.7512 -0.1817 -0.0071
 6582SOL    HW226094   4.276   1.466   2.318  0.9908 -1.8197 -0.3536
 6582SOL    HW326095   4.176   1.454   2.431 -0.8999  1.7380 -1.5067
 6582SOL    MW426096   4.258   1.447   2.401 -0.5410 -0.1445 -0.2507
 6583SOL     OW26097   0.465   2.490   1.605  0.1984  0.3110 -0.2998
 6583SOL    HW226098   0.472   2.430   1.531 -0.5828  0.9195 -0.8816
 6583SOL    HW326099   0.547   2.539   1.604  0.7786 -0.6221  0.0857
 6583SOL    MW426100   0.476   2.489   1.595  0.1718  0.2681 -0.3257
 6584SOL     OW26101   5.762   6.189   3.343 -0.0802 -0.2886  0.4224
 6584SOL    HW226102   5.675   6.151   3.336  0.0105 -0.4587  0.1918
 6584SOL    HW326103   5.817   6.117   3.375 -0.2826  0.1839  1.9037
 6584SOL    MW426104   5.758   6.175   3.347 -0.0949 -0.2487  0.5875
 6585SOL     OW26105   3.334   5.711   2.220 -0.1066  0.0270 -0.0863
 6585SOL    HW226106   3.352   5.743   2.132 -1.9596  0.4409 -0.3618
 6585SOL    HW326107   3.272   5.639   2.207  0.8517 -0.9927  0.7971
 6585SOL    MW426108   3.328   5.706   2.207 -0.2246 -0.0529 -0.0061
 6586SOL     OW26109   4.301   2.480   1.251  0.5555 -0.6926 -0.1152
 6586SOL    HW226110   4.302   2.385   1.234 -0.5365 -0.8277  0.5133
 6586SOL    HW326111   4.346   2.518   1.175  2.3745 -1.8115  0.3359
 6586SOL    MW426112   4.307   2.472   1.239  0.6514 -0.8580  0.0272
 6587SOL     OW26113   2.030   4.131   0.186 -0.2420  0.1910 -0.5174
 6587SOL    HW226114   1.967   4.189   0.227  0.9193  2.4374 -1.7346
 6587SOL    HW326115   2.101   4.123   0.250 -0.8399 -0.7162  0.0453
 6587SOL    MW426116   2.031   4.137   0.200 -0.1676  0.3677 -0.6037
 6588SOL     OW26117   1.603   4.991   4.318 -0.5042 -0.7138  0.7947
 6588SOL    HW226118   1.568   4.940   4.391 -0.5891  0.0043  1.2687
 6588SOL    HW326119   1.582   5.081   4.340 -0.0750 -0.4444  0.1245
 6588SOL    MW426120   1.596   4.996   4.331 -0.4588 -0.5835  0.7688
 6589SOL     OW26121   6.282   4.194   6.205  0.1908  0.6548  0.4127
 6589SOL    HW226122   6.308   4.261   6.267 -0.1660 -0.1394  1.4473
 6589SOL    HW326123   6.340   4.120   6.223 -0.5395  0.0769  0.4577
 6589SOL    MW426124   6.293   4.193   6.215  0.0473  0.4737  0.5551
 6590SOL     OW26125   1.796   2.303   4.826 -0.3441  0.0500  0.1526
 6590SOL    HW226126   1.771   2.376   4.882 -1.2315 -0.0303 -0.1384
 6590SOL    HW326127   1.864   2.340   4.768 -1.9181  1.1136 -1.0936
 6590SOL    MW426128   1.802   2.317   4.826 -0.6688  0.1797 -0.0502
 6591SOL     OW26129   5.460   5.831   5.625 -0.0560 -0.4538  0.1109
 6591SOL    HW226130   5.431   5.780   5.700  0.6529 -2.8132 -1.1413
 6591SOL    HW326131   5.555   5.824   5.626 -0.0473 -0.9288 -1.2433
 6591SOL    MW426132   5.469   5.824   5.635  0.0387 -0.8278 -0.2330
 6592SOL     OW26133   0.974   2.413   5.848 -0.4322  1.2490 -0.0956
 6592SOL    HW226134   0.983   2.440   5.756 -1.1969  0.9133 -0.2721
 6592SOL    HW326135   0.887   2.444   5.874 -0.7396  0.2247  0.1334
 6592SOL    MW426136   0.964   2.421   5.839 -0.5737  1.0696 -0.0887
 6593SOL     OW26137   5.790   3.410   5.704 -0.0745 -0.1046  0.1915
 6593SOL    HW226138   5.851   3.422   5.632  1.1502 -1.5880  0.9342
 6593SOL    HW326139   5.800   3.318   5.729 -1.6663 -0.0453  1.1960
 6593SOL    MW426140   5.799   3.399   5.698 -0.1229 -0.2925  0.4221
 6594SOL     OW26141   1.922   6.364   1.736  0.2216 -0.1978 -0.4201
 6594SOL    HW226142   2.017   6.374   1.734  0.2256  1.2833  2.2695
 6594SOL    HW326143   1.906   6.297   1.803 -0.6227 -0.3873 -0.7993
 6594SOL    MW426144   1.932   6.357   1.745  0.1107 -0.0274 -0.1152
 6595SOL     OW26145   5.321   2.537   0.345 -0.0851 -0.3292  0.1936
 6595SOL    HW226146   5.303   2.596   0.418  2.0466  0.0822  0.4637
 6595SOL    HW326147   5.312   2.449   0.382 -0.3033 -0.1420  0.5916
 6595SOL    MW426148   5.317   2.533   0.359  0.1674 -0.2502  0.2817
 6596SOL     OW26149   5.899   3.179   6.369 -0.4192  0.1264 -0.0829
 6596SOL    HW226150   5.962   3.249   6.353  0.9076 -0.8349  0.7354
 6596SOL    HW326151   5.888   3.178   6.464 -0.4674 -0.7217 -0.0911
 6596SOL    MW426152   5.906   3.188   6.380 -0.2505 -0.1123  0.0240
 6597SOL     OW26153   6.066   6.405   1.242  0.7883 -0.0391  0.0936
 6597SOL    HW226154   5.999   6.347   1.205 -0.3403  0.7160  0.8662
 6597SOL    HW326155   6.126   6.346   1.288  0.2706 -0.6857 -0.0493
 6597SOL    MW426156   6.065   6.389   1.243  0.5711 -0.0248  0.1767
 6598SOL     OW26157   1.415   5.066   3.579 -0.0485  0.2932  0.0085
 6598SOL    HW226158   1.393   5.047   3.487 -2.0130  0.0747  0.4742
 6598SOL    HW326159   1.499   5.023   3.593  0.1533  0.0927 -1.6171
 6598SOL    MW426160   1.423   5.058   3.568 -0.2811  0.2379 -0.1446
 6599SOL     OW26161   0.556   3.207   5.875 -0.7028 -0.1895  0.1723
 6599SOL    HW226162   0.561   3.181   5.967  0.0180  0.6142  0.3594
 6599SOL    HW326163   0.530   3.299   5.876 -0.6157 -0.1502 -0.4324
 6599SOL    MW426164   0.553   3.215   5.887 -0.5962 -0.0783  0.1172
 6600SOL     OW26165   0.747   3.679   0.896  0.0650 -0.5631 -0.6592
 6600SOL    HW226166   0.709   3.684   0.808 -1.3369 -2.0506 -0.1845
 6600SOL    HW326167   0.749   3.770   0.926 -2.8293 -0.3462 -0.8846
 6600SOL    MW426168   0.742   3.691   0.888 -0.5018 -0.7308 -0.6263
 6601SOL     OW26169   0.532   1.917   5.294 -0.1160  0.0633 -0.0809
 6601SOL    HW226170   0.447   1.920   5.337 -1.0195  2.2267 -1.8499
 6601SOL    HW326171   0.584   1.986   5.336 -0.6164  1.4032 -1.5698
 6601SOL    MW426172   0.528   1.926   5.305 -0.3012  0.5255 -0.5107
 6602SOL     OW26173   0.176   1.479   4.804  0.4950  0.2144  0.5335
 6602SOL    HW226174   0.174   1.561   4.754  0.3503  1.0080  1.7979
 6602SOL    HW326175   0.097   1.433   4.778  0.8221  0.2416 -0.5563
 6602SOL    MW426176   0.165   1.484   4.794  0.5191  0.3227  0.5565
 6603SOL     OW26177   3.463   5.939   3.509 -0.5000  0.4962 -0.1935
 6603SOL    HW226178   3.416   5.967   3.431 -0.7823  2.6705  0.6811
 6603SOL    HW326179   3.540   5.892   3.476 -0.9123  0.8693 -1.7464
 6603SOL    MW426180   3.467   5.937   3.495 -0.5916  0.8323 -0.2830
 6604SOL     OW26181   5.110   5.887   5.780 -0.2643 -0.0358 -0.4519
 6604SOL    HW226182   5.035   5.938   5.811 -1.2515 -1.4066 -0.4600
 6604SOL    HW326183   5.074   5.834   5.708  0.9900  0.0645 -1.1889
 6604SOL    MW426184   5.095   5.887   5.774 -0.2291 -0.2034 -0.5502
 6605SOL     OW26185   4.689   1.402   0.502  0.1078  0.1353 -0.0280
 6605SOL    HW226186   4.626   1.439   0.565 -0.3329  0.4558 -0.6449
 6605SOL    HW326187   4.707   1.474   0.442  0.3611 -0.2343 -0.3978
 6605SOL    MW426188   4.683   1.417   0.503  0.0831  0.1288 -0.1582
 6606SOL     OW26189   3.137   0.949   1.824 -0.2945  0.1675 -0.3875
 6606SOL    HW226190   3.097   1.024   1.868 -0.8234  0.5315 -1.4580
 6606SOL    HW326191   3.063   0.896   1.793  0.0702 -0.4497 -0.2209
 6606SOL    MW426192   3.122   0.952   1.825 -0.3161  0.1341 -0.5067
 6607SOL     OW26193   5.864   4.726   6.351 -0.4513  0.0827 -0.1679
 6607SOL    HW226194   5.773   4.755   6.362 -0.7531 -0.4334 -1.1648
 6607SOL    HW326195   5.879   4.731   6.256  0.6086  0.2811  0.0030
 6607SOL    MW426196   5.854   4.730   6.340 -0.3513  0.0408 -0.2769
 6608SOL     OW26197   3.497   5.005   0.231  0.1941  1.0337 -0.0122
 6608SOL    HW226198   3.535   5.050   0.306  2.9644 -1.3082  0.1725
 6608SOL    HW326199   3.567   5.005   0.165 -0.4903 -0.9139 -0.8291
 6608SOL    MW426200   3.511   5.011   0.232  0.4693  0.4678 -0.0956
 6609SOL     OW26201   5.491   1.703   2.312  0.0043 -0.5313  0.1396
 6609SOL    HW226202   5.562   1.666   2.260 -0.2647  0.0614 -0.6814
 6609SOL    HW326203   5.418   1.642   2.301  0.2899 -0.9919  0.7519
 6609SOL    MW426204   5.491   1.690   2.304  0.0065 -0.5139  0.1121
 6610SOL     OW26205   0.419   5.382   3.726  0.7882 -0.2684  0.6365
 6610SOL    HW226206   0.395   5.290   3.725 -1.7174  0.1464 -3.3894
 6610SOL    HW326207   0.344   5.426   3.767  0.6331  0.1108 -0.0266
 6610SOL    MW426208   0.406   5.376   3.731  0.4371 -0.1636  0.0178
 6611SOL     OW26209   3.257   5.810   2.721  0.1733 -0.1483 -0.3211
 6611SOL    HW226210   3.310   5.859   2.658  1.0911  0.1569  0.6449
 6611SOL    HW326211   3.268   5.859   2.803 -0.0097 -1.2050  0.3454
 6611SOL    MW426212   3.266   5.823   2.723  0.2703 -0.2474 -0.1057
 6612SOL     OW26213   3.700   1.498   4.522 -0.2939  0.2038  0.6969
 6612SOL    HW226214   3.711   1.453   4.438 -0.1362  0.3133  0.6578
 6612SOL    HW326215   3.641   1.442   4.572  0.7102 -0.5680  1.0383
 6612SOL    MW426216   3.694   1.485   4.518 -0.1406  0.1164  0.7368
 6613SOL     OW26217   1.134   3.047   2.044  0.6619  0.3411  0.4238
 6613SOL    HW226218   1.064   3.003   2.092 -0.3507 -0.8736 -1.9949
 6613SOL    HW326219   1.108   3.139   2.041 -1.1050 -0.1465 -0.7528
 6613SOL    MW426220   1.121   3.054   2.050  0.2952  0.1165 -0.0505
 6614SOL     OW26221   4.656   1.673   1.085  0.2146  0.4090  0.2431
 6614SOL    HW226222   4.564   1.648   1.098  0.3430 -1.8429 -2.3162
 6614SOL    HW326223   4.704   1.622   1.149 -0.1298 -0.3952 -0.1315
 6614SOL    MW426224   4.650   1.663   1.095  0.1861  0.0058 -0.1440
 6615SOL     OW26225   0.522   2.502   0.960  0.6806 -0.1245  0.3650
 6615SOL    HW226226   0.473   2.437   0.911  0.7548  0.5273 -0.6119
 6615SOL    HW326227   0.556   2.455   1.036 -0.1496 -0.9524  0.2438
 6615SOL    MW426228   0.520   2.488   0.964  0.5809 -0.1478  0.2201
 6616SOL     OW26229   0.619   1.907   5.034 -0.3894 -0.1267  0.1965
 6616SOL    HW226230   0.579   1.887   5.119  1.6399  2.0382  1.7916
 6616SOL    HW326231   0.575   1.987   5.005  0.0657  0.0553  0.0062
 6616SOL    MW426232   0.608   1.915   5.041 -0.0616  0.1829  0.3819
 6617SOL     OW26233   3.676   5.104   3.201  0.0752 -0.4047  0.0596
 6617SOL    HW226234   3.701   5.165   3.271  0.4922 -0.4478 -0.0490
 6617SOL    HW326235   3.587   5.076   3.224 -0.8198  1.5502 -0.7691
 6617SOL    MW426236   3.667   5.109   3.213  0.0121 -0.1524 -0.0641
 6618SOL     OW26237   4.917   4.289   1.544  0.1996 -0.4598  0.3156
 6618SOL    HW226238   4.959   4.205   1.531 -0.1905 -0.3869 -1.9966
 6618SOL    HW326239   4.987   4.353   1.533  0.1140 -0.4334 -0.0891
 6618SOL    MW426240   4.932   4.287   1.541  0.1368 -0.4467 -0.0429
 6619SOL     OW26241   5.051   1.470   1.117  0.3577  0.5126  0.2652
 6619SOL    HW226242   4.972   1.470   1.064 -0.0265  0.1360  0.8249
 6619SOL    HW326243   5.096   1.389   1.092  0.2220  0.3809  0.4452
 6619SOL    MW426244   5.047   1.459   1.107  0.2891  0.4455  0.3628
 6620SOL     OW26245   6.223   2.101   1.101 -0.2235  0.3357  0.2209
 6620SOL    HW226246   6.139   2.113   1.057  0.0605 -0.9962 -0.7231
 6620SOL    HW326247   6.271   2.039   1.046  0.9449  0.2143  1.3298
 6620SOL    MW426248   6.218   2.094   1.088 -0.0318  0.1440  0.2426
 6621SOL     OW26249   5.098   5.623   0.596  0.2212  0.4582  0.1995
 6621SOL    HW226250   5.129   5.710   0.569  0.5219  0.3414  0.1639
 6621SOL    HW326251   5.128   5.614   0.687  2.6624 -0.7282 -0.6359
 6621SOL    MW426252   5.106   5.633   0.605  0.5830  0.2863  0.0846
 6622SOL     OW26253   1.204   0.487   2.465 -0.5399  0.0450 -0.2442
 6622SOL    HW226254   1.159   0.530   2.537 -2.8857 -2.0241 -0.3434
 6622SOL    HW326255   1.267   0.553   2.433 -1.2736  1.9390  1.9514
 6622SOL    MW426256   1.206   0.502   2.470 -0.9462  0.0219  0.0324
 6623SOL     OW26257   1.957   1.665   3.752 -0.5000  0.6833  0.4546
 6623SOL    HW226258   2.018   1.662   3.678 -0.2540 -0.0421  0.6821
 6623SOL    HW326259   1.898   1.738   3.732 -1.8132 -0.8113 -1.5506
 6623SOL    MW426260   1.957   1.674   3.740 -0.6408  0.3904  0.2200
 6624SOL     OW26261   1.416   5.285   2.112 -0.5081  0.4234  0.0020
 6624SOL    HW226262   1.421   5.260   2.204  0.7809  1.4990  0.2660
 6624SOL    HW326263   1.440   5.206   2.064 -1.2236 -0.1555  0.5767
 6624SOL    MW426264   1.420   5.272   2.118 -0.4325  0.4889  0.1127
 6625SOL     OW26265   3.254   2.385   4.190 -0.2529 -0.1377 -0.4381
 6625SOL    HW226266   3.176   2.346   4.151  0.4054 -0.8552 -1.0899
 6625SOL    HW326267   3.267   2.467   4.142 -0.6411  0.0107 -0.2870
 6625SOL    MW426268   3.246   2.391   4.178 -0.2173 -0.2128 -0.5042
 6626SOL     OW26269   0.844   3.475   6.332 -0.3075  0.0722 -0.0328
 6626SOL    HW226270   0.924   3.423   6.328 -0.8771 -0.9520  1.3004
 6626SOL    HW326271   0.875   3.565   6.341  0.6902  0.0895 -2.6356
 6626SOL    MW426272   0.859   3.480   6.333 -0.2510 -0.0607 -0.2003
 6627SOL     OW26273   1.066   3.029   0.313  0.7437  0.1390  0.0167
 6627SOL    HW226274   1.116   3.059   0.390  1.1446  0.4804 -0.3721
 6627SOL    HW326275   1.045   3.110   0.266 -0.7932  0.0750  0.5348
 6627SOL    MW426276   1.070   3.044   0.317  0.5938  0.1756  0.0338
 6628SOL     OW26277   2.326   6.118   4.761 -0.3553  0.0597 -0.3224
 6628SOL    HW226278   2.325   6.192   4.822  1.1655  0.0478 -0.2462
 6628SOL    HW326279   2.237   6.085   4.762 -0.7155  0.9931  0.7491
 6628SOL    MW426280   2.314   6.124   4.769 -0.2022  0.1813 -0.1710
 6629SOL     OW26281   5.341   4.498   3.972  0.1332  0.0039  0.7386
 6629SOL    HW226282   5.264   4.467   3.925  0.6281 -1.0569  0.5999
 6629SOL    HW326283   5.394   4.542   3.906 -0.4613  0.9701  0.8873
 6629SOL    MW426284   5.338   4.500   3.957  0.1201 -0.0086  0.7399
 6630SOL     OW26285   0.226   4.829   0.816  0.2081 -0.4488 -0.1154
 6630SOL    HW226286   0.300   4.840   0.876 -1.0954 -0.7861  1.6571
 6630SOL    HW326287   0.257   4.767   0.750  0.9768 -2.0131  1.6044
 6630SOL    MW426288   0.240   4.822   0.815  0.1376 -0.6997  0.3453
 6631SOL     OW26289   6.344   4.242   5.637  0.0862  0.5727  0.2292
 6631SOL    HW226290   6.269   4.200   5.678  0.6781  0.2390  1.0018
 6631SOL    HW326291   6.383   4.175   5.581  0.3444  0.4471  0.5530
 6631SOL    MW426292   6.339   4.228   5.635  0.1983  0.5121  0.3738
 6632SOL     OW26293   1.307   2.838   0.856 -0.3569  0.2923 -0.4320
 6632SOL    HW226294   1.285   2.773   0.789  0.0842 -0.2337 -0.0718
 6632SOL    HW326295   1.237   2.903   0.849 -1.7174 -1.0197  0.2611
 6632SOL    MW426296   1.295   2.838   0.846 -0.4782  0.0498 -0.2930
 6633SOL     OW26297   3.681   2.220   3.094  0.2334 -0.0979 -0.6445
 6633SOL    HW226298   3.700   2.254   3.182 -0.4695 -0.3422 -0.3922
 6633SOL    HW326299   3.600   2.264   3.068  0.7821  0.4557 -1.4410
 6633SOL    MW426300   3.673   2.230   3.102  0.2131 -0.0571 -0.7163
 6634SOL     OW26301   4.935   6.361   5.180  0.4859 -0.4105 -0.3282
 6634SOL    HW226302   4.902   6.296   5.242  0.7846 -0.8313 -0.5984
 6634SOL    HW326303   4.904   6.329   5.095 -2.0521  1.4614 -0.2240
 6634SOL    MW426304   4.927   6.348   5.177  0.1904 -0.2191 -0.3501
 6635SOL     OW26305   4.596   4.413   4.306  0.8924  0.0705  0.2659
 6635SOL    HW226306   4.581   4.395   4.213 -0.8672 -2.7355  0.9754
 6635SOL    HW326307   4.562   4.502   4.318 -0.4350 -0.1392 -1.4755
 6635SOL    MW426308   4.589   4.423   4.295  0.4851 -0.3274  0.1297
 6636SOL     OW26309   0.506   0.540   3.585 -0.3565 -0.3535  0.0897
 6636SOL    HW226310   0.420   0.500   3.568 -1.0078  1.1748 -0.3652
 6636SOL    HW326311   0.520   0.599   3.512  0.4154  0.5293  0.9261
 6636SOL    MW426312   0.496   0.542   3.573 -0.3406 -0.0354  0.1401
 6637SOL     OW26313   0.770   2.423   3.174 -0.4888  0.2247  0.7190
 6637SOL    HW226314   0.857   2.449   3.143  0.9917 -0.8409  3.6421
 6637SOL    HW326315   0.741   2.495   3.229 -1.3847  0.4398 -0.0037
 6637SOL    MW426316   0.777   2.436   3.177 -0.4117  0.1125  1.0094
 6638SOL     OW26317   4.540   4.777   3.481 -0.4210 -0.3126  0.4224
 6638SOL    HW226318   4.570   4.859   3.520  1.2289 -0.9940  0.6614
 6638SOL    HW326319   4.601   4.760   3.409 -2.2490 -0.0830 -1.2633
 6638SOL    MW426320   4.552   4.786   3.477 -0.4445 -0.3722  0.2315
 6639SOL     OW26321   3.403   2.831   1.863  0.1454 -0.2519 -0.3207
 6639SOL    HW226322   3.399   2.888   1.787 -1.4415 -0.9289 -0.7743
 6639SOL    HW326323   3.319   2.843   1.908  0.9660 -0.0152  1.2351
 6639SOL    MW426324   3.392   2.840   1.859  0.0443 -0.3100 -0.1752
 6640SOL     OW26325   6.227   5.668   1.017  0.0157  0.2614 -0.2377
 6640SOL    HW226326   6.283   5.645   1.092 -1.2647  2.3954  1.4892
 6640SOL    HW326327   6.271   5.741   0.975  0.1815 -0.2257 -0.9184
 6640SOL    MW426328   6.240   5.674   1.022 -0.1314  0.4787 -0.0997
 6641SOL     OW26329   5.804   2.664   0.234  0.3430 -0.5354 -0.7952
 6641SOL    HW226330   5.804   2.716   0.314  0.3591 -0.7813 -0.6335
 6641SOL    HW326331   5.714   2.632   0.227  0.5645 -1.2839 -0.3666
 6641SOL    MW426332   5.792   2.667   0.244  0.3744 -0.6666 -0.7173
 6642SOL     OW26333   1.402   2.304   3.106 -0.1906 -0.2943 -0.0050
 6642SOL    HW226334   1.436   2.214   3.100 -0.9494 -0.6171  0.3566
 6642SOL    HW326335   1.313   2.293   3.142 -0.8570  0.4840 -1.3654
 6642SOL    MW426336   1.394   2.290   3.110 -0.3786 -0.2342 -0.1368
 6643SOL     OW26337   3.203   3.064   3.455  0.2770  1.3697  0.3591
 6643SOL    HW226338   3.264   3.136   3.443  0.5436  0.9736 -0.7750
 6643SOL    HW326339   3.212   3.011   3.376  0.3361 -0.0941  1.2998
 6643SOL    MW426340   3.212   3.066   3.443  0.3199  1.1243  0.3336
 6644SOL     OW26341   5.275   2.550   6.301  0.4187  0.2946  0.2576
 6644SOL    HW226342   5.242   2.607   6.232  0.5925 -0.4503 -0.4602
 6644SOL    HW326343   5.353   2.594   6.335  1.2893 -0.1102 -1.1541
 6644SOL    MW426344   5.281   2.563   6.297  0.5565  0.1429 -0.0234
 6645SOL     OW26345   0.713   2.379   4.589  0.0368 -0.4245 -0.8332
 6645SOL    HW226346   0.676   2.310   4.535 -0.4710 -0.9981  0.2093
 6645SOL    HW326347   0.797   2.344   4.618 -0.3018 -0.6917 -0.1570
 6645SOL    MW426348   0.719   2.366   4.586 -0.0749 -0.5354 -0.6065
 6646SOL     OW26349   3.888   5.884   1.119 -0.1699 -0.1659  0.8571
 6646SOL    HW226350   3.945   5.869   1.194  0.0576 -0.9585  0.5275
 6646SOL    HW326351   3.805   5.843   1.143  0.0938 -0.9700  0.4325
 6646SOL    MW426352   3.884   5.877   1.132 -0.1051 -0.3766  0.7576
 6647SOL     OW26353   2.973   3.442   5.055  0.0470 -0.0544 -0.0885
 6647SOL    HW226354   3.067   3.459   5.043  0.2625  1.0782  2.4718
 6647SOL    HW326355   2.932   3.481   4.978  1.6416 -0.3273 -1.1318
 6647SOL    MW426356   2.980   3.449   5.043  0.2859  0.0590  0.1117
 6648SOL     OW26357   2.888   3.860   5.917  0.6928  0.0232  0.4982
 6648SOL    HW226358   2.867   3.889   5.828  1.1189 -1.7806 -0.2176
 6648SOL    HW326359   2.808   3.879   5.967  0.3850  0.8974 -0.2881
 6648SOL    MW426360   2.875   3.867   5.912  0.7084 -0.0994  0.3000
 6649SOL     OW26361   3.979   3.893   0.439  0.5185 -0.5037 -0.3148
 6649SOL    HW226362   4.041   3.955   0.477  1.3251 -0.7901 -1.1251
 6649SOL    HW326363   3.921   3.948   0.385 -0.4274 -0.1411  1.0244
 6649SOL    MW426364   3.980   3.909   0.437  0.5001 -0.4937 -0.2450
 6650SOL     OW26365   6.130   0.990   3.669 -0.3954 -0.0360 -0.1668
 6650SOL    HW226366   6.159   0.967   3.758  1.1735  1.6076 -0.1840
 6650SOL    HW326367   6.037   1.009   3.678 -0.6830 -1.7247  0.7312
 6650SOL    MW426368   6.122   0.990   3.682 -0.2264 -0.0419 -0.0506
 6651SOL     OW26369   3.225   0.775   5.126  0.1948 -0.7532  0.3259
 6651SOL    HW226370   3.196   0.855   5.083 -1.8212 -1.0607  0.9953
 6651SOL    HW326371   3.297   0.743   5.072 -0.1284  0.5784 -0.9463
 6651SOL    MW426372   3.230   0.781   5.113 -0.1138 -0.6181  0.2464
 6652SOL     OW26373   4.835   0.823   0.496 -0.0672 -0.8090  0.2327
 6652SOL    HW226374   4.770   0.877   0.451  0.9434  0.2491 -0.0013
 6652SOL    HW326375   4.797   0.807   0.582 -1.3471 -1.5850 -0.4323
 6652SOL    MW426376   4.821   0.828   0.501 -0.1027 -0.7718  0.1141
 6653SOL     OW26377   2.116   2.756   5.841 -0.6374  0.4965  0.0129
 6653SOL    HW226378   2.145   2.666   5.833 -1.5395  0.0190  1.5891
 6653SOL    HW326379   2.075   2.776   5.757  0.0505 -0.3740 -0.5417
 6653SOL    MW426380   2.114   2.747   5.829 -0.6656  0.3187  0.1477
 6654SOL     OW26381   1.922   3.606   0.302  0.1642 -0.2586 -0.2346
 6654SOL    HW226382   1.856   3.561   0.355 -0.1481 -0.0044 -0.4063
 6654SOL    HW326383   1.903   3.699   0.313  0.8372 -0.1558  0.1588
 6654SOL    MW426384   1.911   3.612   0.311  0.2118 -0.2115 -0.2053
 6655SOL     OW26385   4.824   6.190   1.983  0.2089  0.2277 -0.2100
 6655SOL    HW226386   4.759   6.257   2.005 -0.9544 -0.2664 -1.9320
 6655SOL    HW326387   4.786   6.108   2.013  0.7280  0.0935  0.0976
 6655SOL    MW426388   4.810   6.188   1.990  0.1239  0.1448 -0.3966
 6656SOL     OW26389   3.568   0.900   5.254 -0.0359 -0.2357 -0.4536
 6656SOL    HW226390   3.574   0.855   5.339 -0.4851  0.5972  0.0318
 6656SOL    HW326391   3.656   0.892   5.217  0.7037  1.0174  0.9327
 6656SOL    MW426392   3.580   0.893   5.260  0.0024  0.0395 -0.2066
 6657SOL     OW26393   0.459   0.227   0.675  0.3916  0.8914 -0.0638
 6657SOL    HW226394   0.531   0.229   0.612  0.0569 -1.3785 -0.6297
 6657SOL    HW326395   0.492   0.174   0.747 -0.8218 -0.5911 -0.5458
 6657SOL    MW426396   0.473   0.220   0.676  0.1873  0.3963 -0.2021
 6658SOL     OW26397   4.933   5.024   1.589  0.4401 -0.1587 -0.1142
 6658SOL    HW226398   4.932   4.928   1.590  0.2377 -0.1649 -0.5442
 6658SOL    HW326399   4.859   5.049   1.643  0.6774 -0.2400  0.2529
 6658SOL    MW426400   4.923   5.015   1.596  0.4447 -0.1702 -0.1225
 6659SOL     OW26401   5.097   2.360   5.144  0.6542  0.3228  0.2345
 6659SOL    HW226402   5.139   2.282   5.181 -1.6715 -0.8991  0.5316
 6659SOL    HW326403   5.066   2.409   5.220  2.2559  1.6821  0.0515
 6659SOL    MW426404   5.098   2.356   5.159  0.5587  0.3409  0.2496
 6660SOL     OW26405   4.828   1.570   1.254 -0.4241 -0.2446  0.1141
 6660SOL    HW226406   4.917   1.537   1.245 -0.4053  0.2247 -1.8423
 6660SOL    HW326407   4.822   1.598   1.345  1.7120  0.5187  0.0752
 6660SOL    MW426408   4.839   1.569   1.265 -0.1398 -0.0820 -0.1491
 6661SOL     OW26409   6.322   0.549   2.818 -0.2995  0.0116 -0.5202
 6661SOL    HW226410   6.249   0.584   2.869  0.8443 -2.0188  2.8270
 6661SOL    HW326411   6.369   0.626   2.787 -2.0254  1.3555  0.0637
 6661SOL    MW426412   6.319   0.563   2.821 -0.3763 -0.0789 -0.0016
 6662SOL     OW26413   0.655   2.912   6.370  0.6413  0.1272 -0.1390
 6662SOL    HW226414   0.659   2.872   6.457 -0.8665  0.9231  0.3301
 6662SOL    HW326415   0.714   2.987   6.376  2.3336 -1.1204 -0.5617
 6662SOL    MW426416   0.663   2.917   6.382  0.6656  0.0676 -0.1329
 6663SOL     OW26417   1.650   3.412   2.563  0.4304 -0.0950 -0.4949
 6663SOL    HW226418   1.716   3.465   2.517  4.1752 -2.3674  1.7330
 6663SOL    HW326419   1.647   3.450   2.651 -0.1416 -0.9247 -0.1522
 6663SOL    MW426420   1.658   3.424   2.568  0.8490 -0.5043 -0.1557
 6664SOL     OW26421   5.087   6.074   2.881 -0.0530 -0.2414 -0.5926
 6664SOL    HW226422   5.050   6.052   2.967  0.2687  2.1496  0.2357
 6664SOL    HW326423   5.174   6.108   2.901  0.2962 -0.2964 -1.9534
 6664SOL    MW426424   5.093   6.075   2.895  0.0355  0.0668 -0.6628
 6665SOL     OW26425   0.298   0.492   4.144 -0.3265 -0.0841 -0.6057
 6665SOL    HW226426   0.216   0.457   4.178 -0.0601 -1.4061 -1.2472
 6665SOL    HW326427   0.352   0.506   4.222 -0.6856 -0.5005 -0.2759
 6665SOL    MW426428   0.294   0.489   4.159 -0.3387 -0.3134 -0.6468
 6666SOL     OW26429   5.756   4.825   4.487 -0.1707  0.5717  0.5980
 6666SOL    HW226430   5.668   4.816   4.523 -0.6361  0.0264 -0.6124
 6666SOL    HW326431   5.755   4.771   4.408  0.6844  1.9954 -0.4358
 6666SOL    MW426432   5.744   4.816   4.481 -0.1193  0.6876  0.3019
 6667SOL     OW26433   0.506   5.522   2.532  0.4547 -0.3015  0.6120
 6667SOL    HW226434   0.444   5.594   2.519  0.9092  0.2507  1.3879
 6667SOL    HW326435   0.451   5.448   2.557 -0.2516 -0.8831 -2.2858
 6667SOL    MW426436   0.491   5.522   2.534  0.4215 -0.3054  0.3320
 6668SOL     OW26437   5.434   2.610   4.499  0.3299 -0.5072 -0.1998
 6668SOL    HW226438   5.388   2.532   4.468 -3.0113  0.8178  0.9913
 6668SOL    HW326439   5.467   2.586   4.585  0.0831 -0.8556 -0.2008
 6668SOL    MW426440   5.432   2.597   4.506 -0.1435 -0.3784 -0.0428
 6669SOL     OW26441   3.349   4.113   0.444  0.0422 -0.4012  0.4615
 6669SOL    HW226442   3.343   4.124   0.539  1.8435  1.9022  0.3898
 6669SOL    HW326443   3.442   4.099   0.428  0.3727  2.8504 -1.1778
 6669SOL    MW426444   3.361   4.113   0.455  0.3235  0.3317  0.2358
 6670SOL     OW26445   4.026   0.249   2.709 -0.5816 -0.3185 -0.4697
 6670SOL    HW226446   4.030   0.322   2.648  1.3159 -0.8934 -1.0688
 6670SOL    HW326447   3.980   0.285   2.786  2.9184  2.5096  0.5497
 6670SOL    MW426448   4.020   0.263   2.711  0.1305 -0.0212 -0.4142
 6671SOL     OW26449   2.858   4.617   1.981  0.2063 -0.2634  0.5998
 6671SOL    HW226450   2.816   4.702   1.994  0.7541 -0.0526  1.0775
 6671SOL    HW326451   2.833   4.591   1.892  0.0218  0.3916  0.4525
 6671SOL    MW426452   2.849   4.625   1.971  0.2542 -0.1492  0.6434
 6672SOL     OW26453   4.192   4.505   1.797  0.5777  1.3981 -0.0126
 6672SOL    HW226454   4.275   4.457   1.802 -0.9345 -1.3545  1.4430
 6672SOL    HW326455   4.187   4.553   1.880 -0.4419 -0.7603  1.2760
 6672SOL    MW426456   4.202   4.505   1.809  0.2437  0.7501  0.3494
 6673SOL     OW26457   1.553   0.706   1.536 -0.0079  0.3377  0.1606
 6673SOL    HW226458   1.594   0.619   1.545 -1.1642 -0.3992 -1.3121
 6673SOL    HW326459   1.621   0.760   1.495  0.3945 -0.1297  0.1944
 6673SOL    MW426460   1.568   0.701   1.532 -0.1074  0.1788 -0.0293
 6674SOL     OW26461   3.218   4.806   6.132 -0.6331 -0.3765  0.3647
 6674SOL    HW226462   3.217   4.897   6.103  0.2821 -1.0192 -1.8543
 6674SOL    HW326463   3.223   4.812   6.228  1.1015  1.9260  0.2215
 6674SOL    MW426464   3.219   4.819   6.141 -0.2835 -0.1575  0.0531
 6675SOL     OW26465   2.801   1.021   3.319 -0.3406 -0.2234 -0.0537
 6675SOL    HW226466   2.808   0.932   3.286 -1.3218 -0.2085 -0.3074
 6675SOL    HW326467   2.815   1.077   3.243  1.4310 -0.1126  0.2986
 6675SOL    MW426468   2.804   1.016   3.305 -0.2363 -0.2068 -0.0407
 6676SOL     OW26469   3.776   2.984   4.307 -0.4390  0.2261 -0.2702
 6676SOL    HW226470   3.821   2.901   4.290  0.4533  0.4022  1.0444
 6676SOL    HW326471   3.705   2.961   4.367 -1.5763  0.0977 -1.6163
 6676SOL    MW426472   3.773   2.970   4.312 -0.4713  0.2324 -0.2744
 6677SOL     OW26473   1.946   4.142   2.734 -0.0872 -0.0148 -0.3409
 6677SOL    HW226474   1.859   4.173   2.759  0.0968  0.9324 -0.8130
 6677SOL    HW326475   1.984   4.215   2.684  1.2740 -0.1080  0.5129
 6677SOL    MW426476   1.939   4.156   2.730  0.1167  0.0979 -0.2905
 6678SOL     OW26477   1.829   5.870   3.990  0.1450 -0.2965  0.3689
 6678SOL    HW226478   1.832   5.956   3.948  0.1801 -0.4086  0.1412
 6678SOL    HW326479   1.899   5.872   4.055 -0.1236 -0.0023  0.6525
 6678SOL    MW426480   1.839   5.881   3.993  0.1142 -0.2724  0.3763
 6679SOL     OW26481   2.764   4.457   0.648 -0.7314 -0.5468  0.5039
 6679SOL    HW226482   2.733   4.538   0.688  0.6684 -0.0189  0.5694
 6679SOL    HW326483   2.794   4.403   0.721 -0.7145 -0.7110  0.3775
 6679SOL    MW426484   2.764   4.461   0.663 -0.5445 -0.4989  0.4959
 6680SOL     OW26485   1.105   1.665   3.056 -0.1561  0.1142 -0.1948
 6680SOL    HW226486   1.162   1.635   2.985 -1.8413  0.0753 -1.5685
 6680SOL    HW326487   1.060   1.741   3.021 -2.2814 -0.8953  0.1773
 6680SOL    MW426488   1.107   1.671   3.042 -0.6588 -0.0241 -0.3269
 6681SOL     OW26489   5.268   6.409   0.962  0.3921 -0.1290 -0.2937
 6681SOL    HW226490   5.337   6.376   0.905  1.0478  0.4783  0.1239
 6681SOL    HW326491   5.214   6.465   0.906  1.9104  1.6986 -0.0318
 6681SOL    MW426492   5.270   6.412   0.947  0.6789  0.1923 -0.2041
 6682SOL     OW26493   5.069   1.871   4.643  0.4194  0.5444  0.5974
 6682SOL    HW226494   4.986   1.838   4.610  1.3689 -1.8789  0.4644
 6682SOL    HW326495   5.110   1.912   4.566 -0.0106  0.4172  0.2961
 6682SOL    MW426496   5.064   1.872   4.628  0.4879  0.2079  0.5401
 6683SOL     OW26497   6.142   5.633   0.586 -0.8507 -0.2097  0.3291
 6683SOL    HW226498   6.142   5.728   0.597  1.9801  0.3397 -2.8639
 6683SOL    HW326499   6.141   5.598   0.675 -1.2504  2.7961  1.6075
 6683SOL    MW426500   6.142   5.641   0.599 -0.5300  0.2594  0.0765
 6684SOL     OW26501   4.141   0.047   1.115  0.2341 -0.0952  0.2765
 6684SOL    HW226502   4.140   0.008   1.203  0.8323  0.3824  0.5037
 6684SOL    HW326503   4.085   0.124   1.123  1.9760  1.1763  0.8455
 6684SOL    MW426504   4.134   0.052   1.128  0.5428  0.1356  0.3815
 6685SOL     OW26505   2.633   6.156   5.408  0.4859  0.3728 -0.1650
 6685SOL    HW226506   2.659   6.065   5.391  0.3936 -0.3505  2.8810
 6685SOL    HW326507   2.715   6.204   5.417  0.5339  0.6695 -1.9376
 6685SOL    MW426508   2.647   6.150   5.407  0.4801  0.3165  0.0030
 6686SOL     OW26509   1.022   6.176   5.195 -0.1438 -0.0372 -0.2291
 6686SOL    HW226510   1.019   6.087   5.229 -0.2826  0.2864  0.6274
 6686SOL    HW326511   0.938   6.188   5.152 -0.7331  0.1649  0.9368
 6686SOL    MW426512   1.011   6.166   5.194 -0.2399  0.0321  0.0377
 6687SOL     OW26513   5.930   0.746   5.833  0.2763 -0.5081  0.2199
 6687SOL    HW226514   5.935   0.835   5.799 -0.0050 -0.3666  0.5538
 6687SOL    HW326515   6.015   0.732   5.876  1.4114 -1.3260 -2.0730
 6687SOL    MW426516   5.942   0.756   5.834  0.3889 -0.5973 -0.0386
 6688SOL     OW26517   0.071   5.977   2.847  0.4507  0.3657 -0.4298
 6688SOL    HW226518   0.060   6.067   2.814  0.5758  1.0123  1.1908
 6688SOL    HW326519   0.000   5.966   2.910 -0.3899 -1.1989 -1.5820
 6688SOL    MW426520   0.061   5.988   2.851  0.3563  0.2446 -0.3680
 6689SOL     OW26521   3.870   4.461   6.377 -0.1934  0.8694  0.6837
 6689SOL    HW226522   3.944   4.429   6.428 -0.1336 -0.1500 -0.0130
 6689SOL    HW326523   3.903   4.469   6.288 -0.7209  1.1291  0.5049
 6689SOL    MW426524   3.884   4.458   6.372 -0.2551  0.7692  0.5682
 6690SOL     OW26525   4.126   0.282   3.324  0.0324  0.3283  0.6053
 6690SOL    HW226526   4.072   0.294   3.246  0.3844 -0.0959  0.2955
 6690SOL    HW326527   4.170   0.366   3.336  0.5872  0.1460 -0.1143
 6690SOL    MW426528   4.124   0.295   3.315  0.1520  0.2483  0.4695
 6691SOL     OW26529   4.709   5.637   1.982  0.9343 -0.2011  0.0151
 6691SOL    HW226530   4.683   5.584   2.058  1.0214  0.4948  0.5352
 6691SOL    HW326531   4.790   5.595   1.951  1.3798  0.0227  0.8391
 6691SOL    MW426532   4.717   5.624   1.988  1.0046 -0.0798  0.1924
 6692SOL     OW26533   0.892   1.759   1.875  0.5226 -0.5174  0.5163
 6692SOL    HW226534   0.827   1.701   1.914  1.0788 -2.1440 -0.8684
 6692SOL    HW326535   0.900   1.831   1.938 -1.8269 -0.7719  1.2198
 6692SOL    MW426536   0.884   1.761   1.889  0.2860 -0.7656  0.4264
 6693SOL     OW26537   2.066   3.565   0.808 -0.0662  0.2758 -0.4800
 6693SOL    HW226538   1.983   3.535   0.771  0.7096  1.2779 -3.2658
 6693SOL    HW326539   2.110   3.485   0.838 -0.8700 -0.5873 -1.5545
 6693SOL    MW426540   2.061   3.550   0.807 -0.0699  0.2942 -0.9893
 6694SOL     OW26541   6.014   0.462   4.006 -0.4100  0.0969  0.1679
 6694SOL    HW226542   5.961   0.393   4.046  2.3642 -0.3714  3.4649
 6694SOL    HW326543   6.082   0.414   3.957 -1.4130  0.6588 -1.8869
 6694SOL    MW426544   6.016   0.447   4.005 -0.1763  0.1092  0.3318
 6695SOL     OW26545   1.064   5.430   3.481 -0.1131 -0.3022  0.3330
 6695SOL    HW226546   1.117   5.353   3.460 -0.9444 -0.9938  0.7699
 6695SOL    HW326547   1.080   5.446   3.574 -1.0903 -0.8441  0.6009
 6695SOL    MW426548   1.073   5.422   3.490 -0.3517 -0.4650  0.4260
 6696SOL     OW26549   4.735   5.248   4.865  0.5887  0.1338 -0.3057
 6696SOL    HW226550   4.715   5.245   4.959  0.2692 -0.7748 -0.3934
 6696SOL    HW326551   4.660   5.206   4.823  0.4323  1.0947 -1.0235
 6696SOL    MW426552   4.722   5.242   4.872  0.5259  0.1407 -0.4120
 6697SOL     OW26553   2.341   5.292   4.001 -0.1386  0.0419 -0.6298
 6697SOL    HW226554   2.293   5.214   4.029 -1.8279  0.8731 -1.0862
 6697SOL    HW326555   2.304   5.313   3.915 -0.6867  2.0840  0.0462
 6697SOL    MW426556   2.330   5.285   3.993 -0.4338  0.4210 -0.6008
 6698SOL     OW26557   5.934   5.515   1.405 -0.1708  0.0222 -0.2415
 6698SOL    HW226558   5.895   5.587   1.455  1.5931  0.3327  0.7738
 6698SOL    HW326559   5.905   5.436   1.450 -0.5559  0.1928 -0.1893
 6698SOL    MW426560   5.925   5.514   1.418  0.0111  0.0857 -0.1007
 6699SOL     OW26561   0.449   5.360   0.711 -0.1570 -0.2969 -0.0312
 6699SOL    HW226562   0.397   5.439   0.722 -0.9732 -1.0345  1.8793
 6699SOL    HW326563   0.434   5.332   0.621  0.8851  2.1827 -1.0492
 6699SOL    MW426564   0.440   5.366   0.700 -0.1272 -0.0670  0.0865
 6700SOL     OW26565   3.280   3.716   0.522  0.0156 -0.6075  0.1161
 6700SOL    HW226566   3.318   3.774   0.587  0.5837  0.0740 -0.8103
 6700SOL    HW326567   3.240   3.774   0.457 -1.6526 -1.2838  0.4837
 6700SOL    MW426568   3.279   3.731   0.522 -0.1296 -0.6068  0.0423
 6701SOL     OW26569   4.928   5.045   4.863  0.4380 -0.3218  0.6801
 6701SOL    HW226570   4.999   5.064   4.924  0.2587 -0.5765  0.9703
 6701SOL    HW326571   4.876   5.125   4.861  1.5636  0.4323 -0.6950
 6701SOL    MW426572   4.931   5.058   4.871  0.5629 -0.2559  0.5369
 6702SOL     OW26573   5.546   1.426   1.768  0.0012 -0.5833 -0.2186
 6702SOL    HW226574   5.619   1.379   1.728  1.9559  0.2008  2.1848
 6702SOL    HW326575   5.583   1.510   1.793 -1.4485 -0.5280  1.9581
 6702SOL    MW426576   5.561   1.431   1.766  0.0678 -0.4726  0.3857
 6703SOL     OW26577   1.351   1.800   4.907 -0.0855  0.7845 -0.1483
 6703SOL    HW226578   1.355   1.766   4.996  4.8287 -0.5463 -0.6198
 6703SOL    HW326579   1.308   1.731   4.857 -1.4567  0.8633  0.8625
 6703SOL    MW426580   1.346   1.786   4.912  0.3820  0.6193 -0.0771
 6704SOL     OW26581   1.772   4.733   4.180 -0.3332 -0.7206  0.2306
 6704SOL    HW226582   1.775   4.828   4.193 -2.1863 -0.8523  2.2867
 6704SOL    HW326583   1.827   4.697   4.250  0.5876 -1.1797 -0.7066
 6704SOL    MW426584   1.780   4.741   4.191 -0.4562 -0.7986  0.3782
 6705SOL     OW26585   3.270   5.448   2.504 -0.2064 -0.1240  0.6387
 6705SOL    HW226586   3.348   5.500   2.487  0.0656 -0.7076  0.0550
 6705SOL    HW326587   3.304   5.365   2.539 -0.6598  0.3444  2.2967
 6705SOL    MW426588   3.285   5.444   2.507 -0.2304 -0.1392  0.7805
 6706SOL     OW26589   6.300   5.424   2.874  0.1466  0.2670  0.2463
 6706SOL    HW226590   6.383   5.471   2.870 -0.3015  1.0996  0.5067
 6706SOL    HW326591   6.241   5.475   2.818 -0.1714 -0.3514  0.0158
 6706SOL    MW426592   6.303   5.437   2.866  0.0455  0.2953  0.2503
 6707SOL     OW26593   2.180   5.829   3.666 -0.5938  0.1697 -0.0222
 6707SOL    HW226594   2.212   5.909   3.707 -0.9804  0.9379 -1.1514
 6707SOL    HW326595   2.244   5.810   3.598 -0.7474 -0.2151 -0.0611
 6707SOL    MW426596   2.192   5.837   3.662 -0.6651  0.2203 -0.1763
 6708SOL     OW26597   0.429   1.581   5.526  0.1648 -0.1596 -0.0474
 6708SOL    HW226598   0.386   1.567   5.442  0.8885 -0.9237 -0.3027
 6708SOL    HW326599   0.398   1.510   5.582 -1.8289  1.4242  0.9817
 6708SOL    MW426600   0.419   1.570   5.522 -0.0028 -0.0515  0.0547
 6709SOL     OW26601   5.390   5.418   3.113  0.0874  0.2109  0.1766
 6709SOL    HW226602   5.339   5.403   3.034 -1.9105  1.1060  1.2196
 6709SOL    HW326603   5.444   5.339   3.122 -0.5758 -0.4597 -1.3683
 6709SOL    MW426604   5.391   5.405   3.104 -0.2637  0.2405  0.1104
 6710SOL     OW26605   5.673   4.496   6.289  0.5220 -0.0742 -0.3749
 6710SOL    HW226606   5.627   4.460   6.365  1.1332 -1.3022 -0.5637
 6710SOL    HW326607   5.657   4.590   6.294 -1.6759 -0.4108 -0.2160
 6710SOL    MW426608   5.665   4.504   6.300  0.3127 -0.2806 -0.3788
 6711SOL     OW26609   0.540   4.264   5.369  0.4172  0.1167  0.5276
 6711SOL    HW226610   0.530   4.300   5.281 -2.1927 -0.6418  0.4373
 6711SOL    HW326611   0.472   4.307   5.421 -0.1436 -1.7022  1.3929
 6711SOL    MW426612   0.530   4.275   5.365 -0.0011 -0.2233  0.6299
 6712SOL     OW26613   0.338   1.493   4.279  0.7191  0.2812 -0.7313
 6712SOL    HW226614   0.259   1.535   4.315  0.8974 -0.6773  0.9030
 6712SOL    HW326615   0.309   1.451   4.199  0.3668  2.8218 -2.0285
 6712SOL    MW426616   0.324   1.493   4.273  0.6961  0.4899 -0.6868
 6713SOL     OW26617   2.619   0.245   6.079  0.1722  0.0640 -0.4740
 6713SOL    HW226618   2.579   0.199   6.153  0.4148 -0.0365 -0.4017
 6713SOL    HW326619   2.690   0.187   6.051 -0.4472 -0.2879 -1.3206
 6713SOL    MW426620   2.623   0.231   6.085  0.1225  0.0043 -0.5762
 6714SOL     OW26621   1.670   3.102   6.054  0.1585 -0.6212  0.4145
 6714SOL    HW226622   1.727   3.038   6.011  1.6008  0.7403  0.2066
 6714SOL    HW326623   1.712   3.120   6.137  0.0639  0.4269  0.2548
 6714SOL    MW426624   1.683   3.096   6.059  0.3363 -0.3033  0.3660
 6715SOL     OW26625   5.891   5.732   4.618  0.0710  0.1649 -0.3176
 6715SOL    HW226626   5.799   5.707   4.611 -0.1631  0.7499  0.5129
 6715SOL    HW326627   5.914   5.716   4.709  0.3496  1.4691 -0.1388
 6715SOL    MW426628   5.882   5.727   4.629  0.0769  0.4141 -0.1844
 6716SOL     OW26629   1.071   1.506   3.400 -0.0826  0.2631  1.1863
 6716SOL    HW226630   1.047   1.449   3.474  1.2252 -0.7900  0.8418
 6716SOL    HW326631   1.151   1.550   3.429 -0.7213  1.4575  1.1857
 6716SOL    MW426632   1.078   1.504   3.414  0.0057  0.2818  1.1407
 6717SOL     OW26633   1.269   4.987   0.667 -0.5181 -0.0803 -0.3616
 6717SOL    HW226634   1.237   5.076   0.683 -1.2955 -0.5961  1.2040
 6717SOL    HW326635   1.221   4.957   0.590  0.7793  1.3193 -1.7816
 6717SOL    MW426636   1.258   4.995   0.659 -0.4495  0.0363 -0.3424
 6718SOL     OW26637   3.843   3.233   1.844  0.0224  0.0877  0.0604
 6718SOL    HW226638   3.930   3.274   1.845  0.2985 -0.4983  0.7402
 6718SOL    HW326639   3.812   3.246   1.755  0.1964  1.5772  0.1917
 6718SOL    MW426640   3.851   3.240   1.833  0.0818  0.2069  0.1674
 6719SOL     OW26641   2.721   1.501   6.342  0.4864 -0.1466 -0.0826
 6719SOL    HW226642   2.665   1.513   6.265  1.1508 -1.0711 -0.7307
 6719SOL    HW326643   2.810   1.493   6.306  1.1448  1.8625  0.9622
 6719SOL    MW426644   2.726   1.501   6.327  0.6609 -0.0035 -0.0303
 6720SOL     OW26645   1.605   3.237   1.533  0.0895 -0.3029  0.1284
 6720SOL    HW226646   1.692   3.205   1.556  1.1923  2.4841  0.2769
 6720SOL    HW326647   1.619   3.298   1.461 -1.3830  1.8005  1.4895
 6720SOL    MW426648   1.618   3.241   1.527  0.0408  0.3423  0.3275
 6721SOL     OW26649   4.937   4.250   2.160 -0.2080  0.2280 -0.0893
 6721SOL    HW226650   4.939   4.344   2.148  0.1829  0.0437 -1.5546
 6721SOL    HW326651   4.903   4.215   2.078  0.1333 -0.9475  0.2428
 6721SOL    MW426652   4.933   4.258   2.148 -0.1114  0.0486 -0.2388
 6722SOL     OW26653   0.675   1.310   2.873  0.1037 -0.0678 -0.2805
 6722SOL    HW226654   0.724   1.391   2.884 -1.7002  1.0374  0.1180
 6722SOL    HW326655   0.719   1.246   2.928  1.7741  0.5159 -0.8846
 6722SOL    MW426656   0.687   1.312   2.881  0.0861  0.1550 -0.3076
 6723SOL     OW26657   1.719   6.349   3.535  0.8931 -0.4645  0.3410
 6723SOL    HW226658   1.808   6.373   3.557  0.7492  2.4599 -1.7034
 6723SOL    HW326659   1.668   6.429   3.549 -0.8275 -1.1776 -1.3288
 6723SOL    MW426660   1.724   6.362   3.540  0.6471 -0.1727 -0.1491
 6724SOL     OW26661   6.207   5.313   1.233  0.0719 -0.5460 -0.0731
 6724SOL    HW226662   6.301   5.331   1.241  0.1766 -0.9285 -0.4493
 6724SOL    HW326663   6.180   5.287   1.321 -0.1951  1.9176  0.6586
 6724SOL    MW426664   6.216   5.312   1.246  0.0505 -0.2714 -0.0262
 6725SOL     OW26665   1.512   6.408   1.693 -0.1717 -0.1884 -0.4303
 6725SOL    HW226666   1.460   6.338   1.732  0.3459 -0.0973  0.4495
 6725SOL    HW326667   1.590   6.364   1.658 -0.9786 -0.3829 -2.1052
 6725SOL    MW426668   1.516   6.393   1.693 -0.2099 -0.2020 -0.5352
 6726SOL     OW26669   4.348   1.258   2.677  0.2543 -0.0645  0.3681
 6726SOL    HW226670   4.378   1.232   2.764  0.4048 -1.5787 -0.0971
 6726SOL    HW326671   4.284   1.190   2.652 -1.1995  1.3587  0.0433
 6726SOL    MW426672   4.344   1.245   2.685  0.0823 -0.0765  0.2638
 6727SOL     OW26673   0.518   0.668   0.223 -0.5171  0.0770  1.1932
 6727SOL    HW226674   0.463   0.744   0.241 -1.0480 -0.4115  1.6596
 6727SOL    HW326675   0.511   0.614   0.302  0.7904  0.0982  1.3529
 6727SOL    MW426676   0.510   0.671   0.236 -0.4146  0.0154  1.2758
 6728SOL     OW26677   6.148   6.023   0.278 -0.2692  0.0007  0.8700
 6728SOL    HW226678   6.193   6.104   0.257  1.9953 -1.4910 -0.4121
 6728SOL    HW326679   6.073   6.021   0.219 -1.2802  1.8245  2.0024
 6728SOL    MW426680   6.144   6.034   0.268 -0.1038  0.0445  0.8502
 6729SOL     OW26681   2.754   5.606   5.781  0.6991  0.1643  0.0669
 6729SOL    HW226682   2.808   5.629   5.705  0.0335 -0.1344 -0.5127
 6729SOL    HW326683   2.669   5.583   5.743  0.3597  0.0071  0.9097
 6729SOL    MW426684   2.750   5.606   5.766  0.5665  0.1041  0.1017
 6730SOL     OW26685   1.125   2.373   2.266 -0.7404  0.1150 -0.9036
 6730SOL    HW226686   1.172   2.339   2.342  0.2176  0.3608 -1.3735
 6730SOL    HW326687   1.053   2.424   2.304 -2.0241 -2.0982 -0.1795
 6730SOL    MW426688   1.122   2.375   2.281 -0.7834 -0.1446 -0.8701
 6731SOL     OW26689   6.262   1.155   2.292  0.5059  0.3239  0.2688
 6731SOL    HW226690   6.229   1.071   2.325 -0.8161  1.3148  1.5855
 6731SOL    HW326691   6.340   1.173   2.345 -0.3226  0.8272  1.3558
 6731SOL    MW426692   6.268   1.146   2.303  0.2222  0.5210  0.5859
 6732SOL     OW26693   3.436   4.699   1.812 -0.2863 -0.3200 -0.1925
 6732SOL    HW226694   3.364   4.677   1.871  1.2197 -1.0546  1.4766
 6732SOL    HW326695   3.514   4.696   1.868  0.7392  3.9832 -1.0571
 6732SOL    MW426696   3.437   4.696   1.827  0.0477  0.1508 -0.0864
 6733SOL     OW26697   6.160   4.476   5.785  0.1100  0.0170 -0.4126
 6733SOL    HW226698   6.165   4.555   5.838 -2.8600  0.8886 -1.2591
 6733SOL    HW326699   6.243   4.431   5.801  1.4548  2.7502  0.9253
 6733SOL    MW426700   6.172   4.481   5.794 -0.1045  0.4926 -0.3478
 6734SOL     OW26701   2.653   6.332   4.263 -0.2156  0.4072 -0.1424
 6734SOL    HW226702   2.625   6.302   4.176  0.7771  0.5883 -0.5403
 6734SOL    HW326703   2.697   6.256   4.300 -0.6528  0.3260  0.2167
 6734SOL    MW426704   2.655   6.318   4.256 -0.1423  0.4204 -0.1475
 6735SOL     OW26705   5.209   6.194   0.605  0.4903 -0.3564 -0.0504
 6735SOL    HW226706   5.138   6.151   0.556  0.2467 -0.0116  0.0013
 6735SOL    HW326707   5.167   6.227   0.684 -0.2403  3.4714 -1.8397
 6735SOL    MW426708   5.194   6.192   0.609  0.3617  0.1941 -0.2796
 6736SOL     OW26709   6.196   5.963   6.362  0.0495  0.4788  0.1186
 6736SOL    HW226710   6.110   5.951   6.400 -0.1908  1.6586 -0.0131
 6736SOL    HW326711   6.224   5.875   6.336 -0.4352 -0.1234  1.5790
 6736SOL    MW426712   6.189   5.950   6.363 -0.0462  0.5550  0.2939
 6737SOL     OW26713   1.249   2.029   1.319  0.5335  0.7892 -0.4043
 6737SOL    HW226714   1.277   1.942   1.289  2.3234  0.4494  1.9411
 6737SOL    HW326715   1.248   2.082   1.240  2.1464 -0.7142 -1.5265
 6737SOL    MW426716   1.253   2.024   1.305  0.9824  0.5460 -0.2429
 6738SOL     OW26717   2.990   3.167   3.752  0.0375 -0.3403 -0.3810
 6738SOL    HW226718   3.074   3.129   3.779  0.3146  0.1062 -0.6062
 6738SOL    HW326719   3.014   3.248   3.707 -0.5501  0.0902  0.0712
 6738SOL    MW426720   3.004   3.172   3.750 -0.0035 -0.2246 -0.3510
 6739SOL     OW26721   2.079   0.742   3.772 -0.0075  0.2623  0.4159
 6739SOL    HW226722   2.062   0.836   3.772 -0.6212  0.1582  0.9839
 6739SOL    HW326723   2.162   0.733   3.818  0.3516  0.5730 -0.1640
 6739SOL    MW426724   2.088   0.753   3.778 -0.0411  0.2896  0.4143
 6740SOL     OW26725   3.560   2.055   2.220  0.1050  0.3499  0.0377
 6740SOL    HW226726   3.654   2.039   2.211  0.0924 -0.3361  0.9593
 6740SOL    HW326727   3.554   2.138   2.267  0.2512  0.2406  0.2474
 6740SOL    MW426728   3.571   2.064   2.225  0.1227  0.2450  0.1870
 6741SOL     OW26729   2.927   6.236   3.565  0.0429 -0.2406 -0.1700
 6741SOL    HW226730   2.941   6.143   3.582 -1.0380 -0.3869  0.0167
 6741SOL    HW326731   2.953   6.248   3.474  1.8349 -0.3489  0.2978
 6741SOL    MW426732   2.932   6.225   3.556  0.1367 -0.2742 -0.0836
 6742SOL     OW26733   2.260   6.103   4.360  0.4804 -0.4605  0.4062
 6742SOL    HW226734   2.342   6.126   4.404  1.0491  1.2657 -1.4248
 6742SOL    HW326735   2.248   6.171   4.294 -1.4465 -1.7419 -0.6592
 6742SOL    MW426736   2.269   6.115   4.357  0.3012 -0.4018  0.0241
 6743SOL     OW26737   4.315   1.713   4.351 -0.3507  0.1717  0.1123
 6743SOL    HW226738   4.318   1.781   4.419 -0.5197 -0.1016  0.3945
 6743SOL    HW326739   4.252   1.649   4.384 -0.3001 -0.0514 -0.2221
 6743SOL    MW426740   4.307   1.714   4.364 -0.3664  0.1062  0.1054
 6744SOL     OW26741   0.521   4.391   0.392  0.1042  0.5826 -0.1218
 6744SOL    HW226742   0.434   4.380   0.355 -0.1061 -0.2682  0.5785
 6744SOL    HW326743   0.563   4.456   0.336 -0.8264  0.6862 -0.7263
 6744SOL    MW426744   0.515   4.398   0.380 -0.0463  0.4840 -0.1091
 6745SOL     OW26745   6.076   0.231   4.958  0.0365  0.1236 -0.3160
 6745SOL    HW226746   6.007   0.165   4.946 -1.1777  1.5016 -1.4111
 6745SOL    HW326747   6.054   0.300   4.895  3.0701  0.1423 -1.5152
 6745SOL    MW426748   6.064   0.231   4.948  0.2765  0.3078 -0.6187
 6746SOL     OW26749   4.458   5.234   2.091  0.0701 -0.3343 -0.1107
 6746SOL    HW226750   4.386   5.262   2.034 -0.1640 -2.1515 -0.7632
 6746SOL    HW326751   4.446   5.284   2.172 -2.7110 -1.5311  0.2955
 6746SOL    MW426752   4.447   5.244   2.094 -0.3277 -0.7320 -0.1432
 6747SOL     OW26753   1.594   2.683   4.666 -0.7052  0.2711 -0.1654
 6747SOL    HW226754   1.586   2.618   4.735  0.1228 -0.6288 -0.8874
 6747SOL    HW326755   1.505   2.717   4.655 -1.4442 -1.6691 -0.6490
 6747SOL    MW426756   1.581   2.679   4.673 -0.6934 -0.1036 -0.3244
 6748SOL     OW26757   1.361   0.898   0.925  0.1469 -0.3999 -0.2877
 6748SOL    HW226758   1.358   0.993   0.940  0.5357  0.4366 -4.1981
 6748SOL    HW326759   1.281   0.865   0.965  0.5415  1.3549  2.1202
 6748SOL    MW426760   1.350   0.906   0.932  0.2503 -0.0580 -0.4859
 6749SOL     OW26761   4.147   2.662   4.469 -0.4261  0.1635 -0.8867
 6749SOL    HW226762   4.153   2.623   4.382 -1.2481 -0.7440 -0.5479
 6749SOL    HW326763   4.056   2.689   4.477 -0.1344  1.1234 -0.6647
 6749SOL    MW426764   4.136   2.661   4.458 -0.4961  0.1704 -0.8127
 6750SOL     OW26765   6.402   2.593   4.486 -0.4384  0.1002  0.6166
 6750SOL    HW226766   6.311   2.606   4.513 -0.7583  0.4956 -0.5937
 6750SOL    HW326767   6.406   2.632   4.399  0.9569  0.3051  0.7625
 6750SOL    MW426768   6.390   2.600   4.478 -0.2965  0.1794  0.4762
 6751SOL     OW26769   4.941   0.941   2.468  0.2190 -0.4522 -0.3292
 6751SOL    HW226770   4.862   0.905   2.508 -0.8541  0.8490 -1.2217
 6751SOL    HW326771   5.007   0.937   2.538 -0.9350 -0.4787  0.7907
 6751SOL    MW426772   4.939   0.936   2.483 -0.0748 -0.2841 -0.2992
 6752SOL     OW26773   1.920   2.645   2.560 -0.0012  0.2460 -0.0197
 6752SOL    HW226774   1.844   2.702   2.555 -0.2106  0.0297  0.6293
 6752SOL    HW326775   1.995   2.704   2.547 -0.2520  0.5371 -0.1491
 6752SOL    MW426776   1.920   2.660   2.557 -0.0619  0.2559  0.0489
 6753SOL     OW26777   6.273   3.769   2.776  0.2503  0.2596 -0.1715
 6753SOL    HW226778   6.322   3.730   2.848 -0.9777  0.5395  0.8717
 6753SOL    HW326779   6.334   3.828   2.734  0.6698  1.0382  1.4426
 6753SOL    MW426780   6.287   3.772   2.780  0.1436  0.3993  0.1791
 6754SOL     OW26781   1.636   1.961   1.389  0.1968  0.2992  0.1140
 6754SOL    HW226782   1.571   1.957   1.459  0.4009  1.0915  0.3570
 6754SOL    HW326783   1.696   1.889   1.408 -0.1952  0.0132  0.2955
 6754SOL    MW426784   1.635   1.951   1.400  0.1720  0.3660  0.1700
 6755SOL     OW26785   3.609   1.930   1.318 -0.1912  0.2287 -0.2000
 6755SOL    HW226786   3.664   1.878   1.376 -1.9142 -0.5136  0.8552
 6755SOL    HW326787   3.552   1.980   1.377 -1.5833 -0.0879 -1.2056
 6755SOL    MW426788   3.609   1.930   1.334 -0.6022  0.0890 -0.1935
 6756SOL     OW26789   2.661   4.528   5.035 -0.6890  0.1462 -0.0964
 6756SOL    HW226790   2.731   4.544   4.972  0.1416  1.3954  1.1170
 6756SOL    HW326791   2.672   4.436   5.060 -0.4042 -0.0780 -0.9976
 6756SOL    MW426792   2.671   4.518   5.030 -0.5418  0.2814 -0.0552
 6757SOL     OW26793   6.406   2.704   4.222 -0.3412 -0.4726 -0.0155
 6757SOL    HW226794   6.385   2.646   4.149 -0.5660 -1.3421  0.7177
 6757SOL    HW326795   6.348   2.780   4.210  1.8509  0.9860 -2.5382
 6757SOL    MW426796   6.396   2.706   4.211 -0.0816 -0.3949 -0.2516
 6758SOL     OW26797   2.667   2.643   0.420  0.1178  0.0611  0.0910
 6758SOL    HW226798   2.715   2.724   0.409 -1.6985  1.4522  1.7609
 6758SOL    HW326799   2.711   2.598   0.492  0.1284  0.3774  0.2850
 6758SOL    MW426800   2.679   2.647   0.428 -0.1204  0.2863  0.3369
 6759SOL     OW26801   5.262   5.080   4.589  0.0800 -0.0716  0.6708
 6759SOL    HW226802   5.251   4.987   4.607 -1.7864 -0.2792 -1.2500
 6759SOL    HW326803   5.314   5.083   4.509 -1.1406  0.4601 -0.1267
 6759SOL    MW426804   5.268   5.068   4.581 -0.3273 -0.0288  0.3122
 6760SOL     OW26805   2.455   3.330   1.238  0.5264  0.0086  0.5094
 6760SOL    HW226806   2.505   3.249   1.250  0.3217 -0.2630 -0.3603
 6760SOL    HW326807   2.488   3.389   1.305  0.5423 -0.8657  1.2859
 6760SOL    MW426808   2.466   3.327   1.248  0.5015 -0.1426  0.4971
 6761SOL     OW26809   6.288   2.705   6.127 -0.2108 -0.3465 -0.1314
 6761SOL    HW226810   6.198   2.707   6.094 -1.3566 -0.9882  2.6627
 6761SOL    HW326811   6.298   2.617   6.162  0.7286  0.3650  1.5015
 6761SOL    MW426812   6.277   2.694   6.127 -0.2380 -0.3373  0.4527
 6762SOL     OW26813   6.143   2.523   2.720  0.4135  0.0972 -0.3095
 6762SOL    HW226814   6.092   2.523   2.638 -1.1127 -0.4038  0.5954
 6762SOL    HW326815   6.194   2.442   2.716 -1.9077 -1.5064  0.4993
 6762SOL    MW426816   6.143   2.512   2.708 -0.0941 -0.1805 -0.0834
 6763SOL     OW26817   6.169   5.611   1.535  0.5370 -0.2743 -0.1324
 6763SOL    HW226818   6.102   5.576   1.477  1.3303 -1.2888 -0.4658
 6763SOL    HW326819   6.249   5.564   1.510  0.9515 -0.5363  1.5874
 6763SOL    MW426820   6.171   5.600   1.524  0.6964 -0.4427  0.0505
 6764SOL     OW26821   4.596   1.217   3.533 -0.3654 -0.1849  0.2300
 6764SOL    HW226822   4.503   1.199   3.547  0.1155 -1.3352  2.2921
 6764SOL    HW326823   4.640   1.178   3.609  1.4955  3.2237  1.1554
 6764SOL    MW426824   4.589   1.210   3.545 -0.0564  0.1131  0.6241
 6765SOL     OW26825   6.099   0.469   4.324 -0.0879 -0.1315  0.5605
 6765SOL    HW226826   6.016   0.431   4.295  0.0076 -0.3284  0.5404
 6765SOL    HW326827   6.118   0.538   4.261  0.9399 -1.6130 -0.8480
 6765SOL    MW426828   6.091   0.473   4.312  0.0603 -0.3529  0.3720
 6766SOL     OW26829   0.483   1.422   4.901 -0.5180  0.2380  0.0695
 6766SOL    HW226830   0.571   1.400   4.871 -0.4485 -1.2977  1.3136
 6766SOL    HW326831   0.472   1.514   4.878  0.8585  0.0748 -1.3841
 6766SOL    MW426832   0.493   1.431   4.894 -0.3272  0.0138  0.0418
 6767SOL     OW26833   4.381   4.353   1.418 -0.2469  0.3195 -0.3303
 6767SOL    HW226834   4.369   4.269   1.463  0.0605  0.9109  0.8963
 6767SOL    HW326835   4.385   4.330   1.325 -3.1238 -0.7423 -0.3071
 6767SOL    MW426836   4.380   4.338   1.412 -0.5859  0.2574 -0.1654
 6768SOL     OW26837   2.695   0.976   0.387  0.4520 -0.2300  0.0716
 6768SOL    HW226838   2.715   0.887   0.417  0.5370 -0.3350 -0.2892
 6768SOL    HW326839   2.600   0.982   0.393  0.2959 -0.9083 -1.4271
 6768SOL    MW426840   2.685   0.965   0.392  0.4426 -0.3334 -0.1737
 6769SOL     OW26841   3.824   5.766   1.577 -0.5422 -0.1579 -0.3402
 6769SOL    HW226842   3.748   5.716   1.607 -1.1774 -0.6102 -2.4585
 6769SOL    HW326843   3.900   5.719   1.610 -1.1549 -0.1586  1.1346
 6769SOL    MW426844   3.824   5.753   1.585 -0.7068 -0.2177 -0.4251
 6770SOL     OW26845   5.647   5.033   0.597  0.1513 -0.8741  0.4033
 6770SOL    HW226846   5.697   5.024   0.516 -0.0074 -0.3004  0.2401
 6770SOL    HW326847   5.702   5.087   0.654 -0.7231  0.6674 -0.1638
 6770SOL    MW426848   5.661   5.039   0.594  0.0150 -0.5950  0.3069
 6771SOL     OW26849   4.248   2.111   5.694  0.1889 -0.0906 -0.0090
 6771SOL    HW226850   4.155   2.116   5.715 -0.4453  0.3920 -2.5936
 6771SOL    HW326851   4.286   2.190   5.733 -0.3219 -0.6150  1.6139
 6771SOL    MW426852   4.241   2.123   5.701  0.0379 -0.0961 -0.1358
 6772SOL     OW26853   3.025   0.027   2.653 -0.0283  0.0438  0.1052
 6772SOL    HW226854   3.101   0.005   2.599 -0.3149 -0.2577 -0.1803
 6772SOL    HW326855   2.993   0.109   2.616 -1.4872 -1.2129 -1.5733
 6772SOL    MW426856   3.031   0.035   2.641 -0.2586 -0.1618 -0.1540
 6773SOL     OW26857   0.611   1.197   5.823  0.2610  0.1367  0.7198
 6773SOL    HW226858   0.682   1.158   5.874  0.5929 -0.4411 -0.1662
 6773SOL    HW326859   0.654   1.238   5.748 -0.2528  0.7033  0.7201
 6773SOL    MW426860   0.626   1.198   5.820  0.2370  0.1352  0.6030
 6774SOL     OW26861   4.573   1.823   6.169  0.4947  0.0412  0.6212
 6774SOL    HW226862   4.600   1.751   6.226  0.6228 -1.2326 -0.9791
 6774SOL    HW326863   4.527   1.781   6.097  0.1479  1.6147 -0.1198
 6774SOL    MW426864   4.571   1.808   6.167  0.4658  0.0808  0.3123
 6775SOL     OW26865   5.034   0.604   2.806  0.3456  0.4916  0.1188
 6775SOL    HW226866   5.072   0.589   2.892 -0.7741  0.7937  0.6826
 6775SOL    HW326867   5.105   0.586   2.745  0.7243 -1.2812  1.0155
 6775SOL    MW426868   5.048   0.600   2.809  0.2478  0.2976  0.3115
 6776SOL     OW26869   5.877   0.989   2.325  0.0546  0.2133  0.0351
 6776SOL    HW226870   5.849   1.077   2.351 -2.4490 -0.1582 -1.0905
 6776SOL    HW326871   5.844   0.980   2.236  2.3929 -1.0322 -0.7775
 6776SOL    MW426872   5.869   1.000   2.316  0.0328 -0.0001 -0.2206
 6777SOL     OW26873   0.993   3.278   5.312 -0.0432  0.1133 -0.0865
 6777SOL    HW226874   0.946   3.210   5.359 -0.4504  0.3011 -0.2118
 6777SOL    HW326875   1.037   3.232   5.240 -0.5410  0.0131 -0.3375
 6777SOL    MW426876   0.992   3.263   5.308 -0.1626  0.1249 -0.1361
 6778SOL     OW26877   4.536   5.293   4.483  0.2429  0.3893 -0.5584
 6778SOL    HW226878   4.477   5.281   4.408 -1.5178 -0.4656  0.8676
 6778SOL    HW326879   4.618   5.252   4.457 -0.5997 -0.6092 -1.7149
 6778SOL    MW426880   4.539   5.286   4.470 -0.1006  0.1448 -0.5229
 6779SOL     OW26881   0.688   2.114   2.544  0.4243  0.0466  0.3277
 6779SOL    HW226882   0.593   2.118   2.555  0.5670  0.6751  1.5154
 6779SOL    HW326883   0.701   2.107   2.450 -0.8582 -2.9449  0.2696
 6779SOL    MW426884   0.678   2.114   2.533  0.2739 -0.2652  0.4767
 6780SOL     OW26885   1.187   5.423   5.546 -0.2594  0.3042 -0.3286
 6780SOL    HW226886   1.100   5.444   5.513 -0.6851 -0.2060  0.4293
 6780SOL    HW326887   1.172   5.394   5.637  0.7556  0.6913 -0.0262
 6780SOL    MW426888   1.173   5.422   5.554 -0.1817  0.2879 -0.1887
 6781SOL     OW26889   0.862   3.912   3.190  0.0416  0.7375  0.1922
 6781SOL    HW226890   0.797   3.862   3.140  1.8973 -1.5529 -0.0512
 6781SOL    HW326891   0.901   3.849   3.249  1.4687  2.2586  0.9364
 6781SOL    MW426892   0.858   3.897   3.191  0.4747  0.6360  0.2583
 6782SOL     OW26893   6.111   1.189   2.671 -0.1439  0.1060 -0.5420
 6782SOL    HW226894   6.024   1.209   2.638 -0.3293 -0.4955 -0.4241
 6782SOL    HW326895   6.111   1.224   2.760  0.4247  1.9106 -1.1859
 6782SOL    MW426896   6.100   1.197   2.678 -0.0934  0.2647 -0.6114
 6783SOL     OW26897   4.870   4.781   5.936  0.5402 -0.1975 -0.3171
 6783SOL    HW226898   4.939   4.778   6.002 -0.2050 -1.0017  0.4656
 6783SOL    HW326899   4.881   4.865   5.892  1.4514  0.0721  0.4049
 6783SOL    MW426900   4.880   4.792   5.939  0.5621 -0.2680 -0.1186
 6784SOL     OW26901   5.178   1.236   3.968 -0.2960  0.0344  0.1659
 6784SOL    HW226902   5.137   1.259   4.051  0.5680  0.3821  0.5074
 6784SOL    HW326903   5.195   1.320   3.926  0.4315 -0.0831  0.2168
 6784SOL    MW426904   5.175   1.250   3.973 -0.0861  0.0648  0.2177
 6785SOL     OW26905   4.850   6.173   4.065  0.1068  0.5101  0.1865
 6785SOL    HW226906   4.882   6.161   3.976 -0.9876 -1.8197  0.0234
 6785SOL    HW326907   4.776   6.233   4.057 -1.6272 -1.6198 -0.9771
 6785SOL    MW426908   4.844   6.179   4.052 -0.2664 -0.0783  0.0115
 6786SOL     OW26909   5.772   3.882   1.672 -0.0711 -0.3179 -0.5204
 6786SOL    HW226910   5.686   3.854   1.705 -0.1871  0.5048 -0.0994
 6786SOL    HW326911   5.812   3.801   1.640 -1.9712 -0.3867 -3.0484
 6786SOL    MW426912   5.766   3.868   1.672 -0.3371 -0.2184 -0.7984
 6787SOL     OW26913   1.874   2.726   5.967 -0.3918 -0.4803 -0.0009
 6787SOL    HW226914   1.899   2.755   6.055  0.1169  0.3390 -0.3938
 6787SOL    HW326915   1.957   2.724   5.919 -0.4418 -2.4144 -0.0665
 6787SOL    MW426916   1.888   2.730   5.973 -0.3313 -0.6274 -0.0614
 6788SOL     OW26917   4.295   3.468   4.672 -0.4964  0.3703 -0.3454
 6788SOL    HW226918   4.327   3.379   4.681 -1.1790 -0.2588 -3.0429
 6788SOL    HW326919   4.211   3.469   4.717 -1.3424 -0.9407 -1.7846
 6788SOL    MW426920   4.288   3.457   4.679 -0.6980  0.1143 -0.8912
 6789SOL     OW26921   4.353   4.237   2.585 -0.2858  0.0994  0.1066
 6789SOL    HW226922   4.399   4.214   2.505 -0.6766 -0.7011  0.1089
 6789SOL    HW326923   4.411   4.299   2.629 -0.4302  1.1977 -1.1774
 6789SOL    MW426924   4.366   4.242   2.581 -0.3565  0.1387 -0.0625
 6790SOL     OW26925   1.114   6.153  -0.033 -0.2732  0.5487 -0.3038
 6790SOL    HW226926   1.191   6.203  -0.004 -0.7475  0.1309  1.8812
 6790SOL    HW326927   1.060   6.145   0.046 -0.3407 -3.2256 -0.5595
 6790SOL    MW426928   1.117   6.159  -0.018 -0.3447 -0.0044 -0.0492
 6791SOL     OW26929   2.639   4.579   2.701 -0.0849 -0.0338  0.4629
 6791SOL    HW226930   2.681   4.612   2.780  0.5238 -0.2206  0.2252
 6791SOL    HW326931   2.651   4.484   2.707 -0.8586 -0.1243  0.6054
 6791SOL    MW426932   2.646   4.570   2.712 -0.1067 -0.0704  0.4503
 6792SOL     OW26933   0.513   1.098   4.794  0.0075 -0.3266  0.6783
 6792SOL    HW226934   0.508   1.063   4.883 -2.3336 -0.6524  0.4774
 6792SOL    HW326935   0.575   1.171   4.801 -0.8727  0.3198  2.8228
 6792SOL    MW426936   0.520   1.103   4.807 -0.4175 -0.2843  0.9347
 6793SOL     OW26937   3.025   2.396   0.866  0.4601 -0.2733 -0.1175
 6793SOL    HW226938   3.014   2.491   0.870  1.0622 -0.1969 -0.2110
 6793SOL    HW326939   3.119   2.383   0.854  0.2339 -0.8467 -1.3726
 6793SOL    MW426940   3.036   2.406   0.865  0.5097 -0.3389 -0.2954
 6794SOL     OW26941   3.324   3.791   5.062  0.3338  0.5396 -0.5473
 6794SOL    HW226942   3.338   3.730   4.990 -1.6933  1.2139 -1.5771
 6794SOL    HW326943   3.336   3.737   5.141  1.4173 -0.4871 -1.3822
 6794SOL    MW426944   3.327   3.776   5.063  0.2093  0.4931 -0.7933
 6795SOL     OW26945   4.375   3.610   4.039  0.5438  0.4035  0.2828
 6795SOL    HW226946   4.335   3.697   4.051 -0.9955 -0.3528  0.9328
 6795SOL    HW326947   4.391   3.579   4.128 -0.2342 -0.5417  0.1130
 6795SOL    MW426948   4.372   3.618   4.053  0.2380  0.1790  0.3461
 6796SOL     OW26949   5.855   1.034   5.157 -0.6342 -0.1534  0.3929
 6796SOL    HW226950   5.874   1.077   5.074 -0.6879 -1.9028 -0.5724
 6796SOL    HW326951   5.852   1.105   5.221  1.3828  1.0357 -0.7285
 6796SOL    MW426952   5.857   1.049   5.155 -0.3752 -0.2273  0.1175
 6797SOL     OW26953   1.461   1.469   4.122  0.3404 -0.1038  0.6719
 6797SOL    HW226954   1.535   1.439   4.175  1.3984 -1.1052 -1.2564
 6797SOL    HW326955   1.441   1.396   4.064 -1.2873  0.6465  0.2239
 6797SOL    MW426956   1.468   1.456   4.121  0.2652 -0.1369  0.3584
 6798SOL     OW26957   2.305   4.227   1.379 -0.0914 -0.1260  0.0287
 6798SOL    HW226958   2.277   4.201   1.467 -0.0093  0.9746  0.3928
 6798SOL    HW326959   2.245   4.181   1.321  1.2930 -2.7168  0.5290
 6798SOL    MW426960   2.293   4.218   1.383  0.1021 -0.3227  0.1428
 6799SOL     OW26961   4.527   2.822   5.373  0.4518 -0.5885 -0.2219
 6799SOL    HW226962   4.446   2.850   5.331  1.2583  1.1670 -0.6745
 6799SOL    HW326963   4.501   2.795   5.461 -0.5631  0.4851 -0.1756
 6799SOL    MW426964   4.513   2.822   5.379  0.4243 -0.2152 -0.2755
 6800SOL     OW26965   1.595   2.302   4.607  0.3957 -0.2041 -0.3121
 6800SOL    HW226966   1.525   2.363   4.583  0.0749 -0.9996 -1.4256
 6800SOL    HW326967   1.627   2.336   4.691 -1.4106  0.0878  0.3086
 6800SOL    MW426968   1.590   2.315   4.615  0.1150 -0.2706 -0.3771
 6801SOL     OW26969   5.591   4.645   2.734 -0.3135 -0.3444 -0.1023
 6801SOL    HW226970   5.521   4.710   2.731 -0.3639 -0.3811  0.2057
 6801SOL    HW326971   5.599   4.623   2.827 -0.5439 -1.0453 -0.2455
 6801SOL    MW426972   5.583   4.651   2.746 -0.3506 -0.4417 -0.0806
 6802SOL     OW26973   3.574   5.019   2.656  0.1207  0.9442 -0.6354
 6802SOL    HW226974   3.539   5.106   2.639  0.3793  1.1869  0.0503
 6802SOL    HW326975   3.658   5.035   2.699 -0.3105  0.3741  0.4793
 6802SOL    MW426976   3.581   5.032   2.660  0.0979  0.9010 -0.3978
 6803SOL     OW26977   0.165   5.328   4.284  0.8287 -0.1782 -0.2042
 6803SOL    HW226978   0.202   5.370   4.206 -0.4758  0.7345 -0.3541
 6803SOL    HW326979   0.241   5.311   4.340  2.0136 -2.2353 -2.2716
 6803SOL    MW426980   0.180   5.331   4.281  0.8129 -0.3292 -0.4968
 6804SOL     OW26981   6.195   5.998   4.602 -0.1345  0.0446 -0.3579
 6804SOL    HW226982   6.194   5.955   4.687  1.1873 -1.2149 -0.9343
 6804SOL    HW326983   6.104   6.022   4.585 -1.0738 -3.0443 -0.2263
 6804SOL    MW426984   6.183   5.996   4.611 -0.0841 -0.5291 -0.4166
 6805SOL     OW26985   2.811   3.039   0.480  0.3441  0.2000 -0.4013
 6805SOL    HW226986   2.835   3.043   0.573 -1.0388 -0.6779  0.0289
 6805SOL    HW326987   2.851   2.958   0.449 -1.0529 -0.7025  0.0441
 6805SOL    MW426988   2.819   3.029   0.489 -0.0227 -0.0349 -0.2858
 6806SOL     OW26989   2.957   4.207   1.724 -0.0446  0.1297  0.1278
 6806SOL    HW226990   3.037   4.157   1.707 -0.9330 -1.2221 -0.2448
 6806SOL    HW326991   2.974   4.292   1.685  0.9560 -0.3652 -0.5710
 6806SOL    MW426992   2.970   4.211   1.717 -0.0298 -0.1140 -0.0135
 6807SOL     OW26993   1.941   0.398  -0.030 -0.4400  0.3674 -0.6095
 6807SOL    HW226994   1.977   0.465  -0.088  0.4955  0.7848  0.3987
 6807SOL    HW326995   1.979   0.419   0.056 -2.0856  0.0280  0.2446
 6807SOL    MW426996   1.951   0.410  -0.026 -0.5337  0.3777 -0.3638
 6808SOL     OW26997   2.643   4.077   2.960 -0.3441  0.2769  0.0346
 6808SOL    HW226998   2.549   4.065   2.971 -0.0681 -0.9355  1.2911
 6808SOL    HW326999   2.660   4.165   2.994 -0.6603 -0.5320  2.4419
 6808SOL    MW427000   2.633   4.087   2.966 -0.3494  0.0102  0.5180
 6809SOL     OW27001   5.795   1.575   3.453 -0.1787  0.1359  0.2242
 6809SOL    HW227002   5.880   1.617   3.443  0.7669 -1.4352  1.1274
 6809SOL    HW327003   5.749   1.628   3.517  0.2005  0.8839 -0.1130
 6809SOL    MW427004   5.800   1.587   3.460 -0.0039  0.0273  0.2989
 6810SOL     OW27005   2.395   6.150   2.828  0.3166  0.1824 -0.3807
 6810SOL    HW227006   2.396   6.220   2.893  1.5174  0.8926 -1.1308
 6810SOL    HW327007   2.456   6.179   2.760 -0.2830 -0.9139 -1.4313
 6810SOL    MW427008   2.403   6.163   2.828  0.3959  0.1314 -0.6183
 6811SOL     OW27009   2.579   5.947   2.019 -0.3179 -0.3121 -0.1200
 6811SOL    HW227010   2.611   6.026   1.975  1.0960 -1.0284 -0.4382
 6811SOL    HW327011   2.590   5.877   1.954 -0.1569 -1.0222  0.6503
 6811SOL    MW427012   2.585   5.948   2.005 -0.1101 -0.5003 -0.0604
 6812SOL     OW27013   2.393   5.714   2.805  0.3293 -0.6265  0.1190
 6812SOL    HW227014   2.425   5.633   2.766 -0.5449 -0.2623 -1.4196
 6812SOL    HW327015   2.338   5.685   2.878 -0.7464 -1.4652 -1.0013
 6812SOL    MW427016   2.390   5.700   2.810  0.0721 -0.6891 -0.2318
 6813SOL     OW27017   1.683   3.245   3.076  0.6403 -0.6280  0.1204
 6813SOL    HW227018   1.775   3.271   3.069  0.1327  0.9267 -1.7999
 6813SOL    HW327019   1.672   3.177   3.009  0.0318  0.4848 -0.9531
 6813SOL    MW427020   1.694   3.239   3.066  0.4931 -0.2761 -0.2746
 6814SOL     OW27021   6.375   5.835   1.546 -0.4131  0.2658  0.3757
 6814SOL    HW227022   6.341   5.924   1.546 -0.4662  0.2453  0.4423
 6814SOL    HW327023   6.298   5.779   1.546 -0.4562  0.1934 -2.4709
 6814SOL    MW427024   6.361   5.839   1.546 -0.4258  0.2536  0.0089
 6815SOL     OW27025   4.293   2.532   2.780  0.1461  0.0397 -0.3350
 6815SOL    HW227026   4.215   2.495   2.822  0.4867  1.3862  1.6435
 6815SOL    HW327027   4.346   2.457   2.756 -1.2029 -0.8633 -0.6190
 6815SOL    MW427028   4.290   2.517   2.782  0.0130  0.0982 -0.1114
 6816SOL     OW27029   0.500   4.020   6.160  0.0609  0.2870 -0.9511
 6816SOL    HW227030   0.586   3.978   6.169 -0.1371  0.0369 -0.0187
 6816SOL    HW327031   0.517   4.113   6.174 -0.1286 -0.0126  1.8697
 6816SOL    MW427032   0.514   4.026   6.163  0.0098  0.2145 -0.4559
 6817SOL     OW27033   4.430   0.218   3.615 -0.2403 -0.7959  0.1900
 6817SOL    HW227034   4.388   0.305   3.620  0.9210 -0.3099  2.6568
 6817SOL    HW327035   4.521   0.237   3.592 -0.8168 -1.7520 -3.5535
 6817SOL    MW427036   4.436   0.232   3.612 -0.1631 -0.8579  0.0216
 6818SOL     OW27037   5.461   0.081   6.213 -0.0498 -0.0432  0.0811
 6818SOL    HW227038   5.517   0.159   6.220  0.0078 -0.1936  1.6303
 6818SOL    HW327039   5.423   0.087   6.125 -1.0003  2.4063  0.5722
 6818SOL    MW427040   5.463   0.092   6.203 -0.1676  0.2601  0.3503
 6819SOL     OW27041   5.783   0.022   1.729 -0.2569  1.0470  0.2496
 6819SOL    HW227042   5.721  -0.015   1.792 -0.5726  2.5888  0.8996
 6819SOL    HW327043   5.762  -0.023   1.647 -0.9755  0.1977  0.8722
 6819SOL    MW427044   5.772   0.011   1.727 -0.3934  1.1384  0.4175
 6820SOL     OW27045   1.891   6.164   1.919  0.2428  0.0341  0.3719
 6820SOL    HW227046   1.889   6.070   1.907 -1.0167  0.2631 -1.6439
 6820SOL    HW327047   1.852   6.178   2.006  0.6742 -1.2871  0.7971
 6820SOL    MW427048   1.885   6.154   1.929  0.1335 -0.1100  0.1621
 6821SOL     OW27049   0.670   5.923   4.685  0.3685  0.1792 -0.5786
 6821SOL    HW227050   0.708   5.954   4.602  0.4560 -0.3086 -0.7263
 6821SOL    HW327051   0.698   5.987   4.750 -2.1045  2.2190 -1.3805
 6821SOL    MW427052   0.679   5.935   4.682  0.0537  0.3840 -0.7039
 6822SOL     OW27053   3.875   0.740   5.813  0.4152 -0.0330 -0.0854
 6822SOL    HW227054   3.862   0.810   5.877  0.9615  0.8461 -0.9227
 6822SOL    HW327055   3.788   0.699   5.804 -0.1015  1.0676 -0.2076
 6822SOL    MW427056   3.862   0.744   5.820  0.4191  0.2282 -0.2120
 6823SOL     OW27057   2.576   6.237   4.026 -0.1731 -0.0350  0.6976
 6823SOL    HW227058   2.488   6.257   3.994 -0.2106  1.6667  1.7053
 6823SOL    HW327059   2.631   6.306   3.988  0.4649 -0.2790  1.1668
 6823SOL    MW427060   2.572   6.249   4.017 -0.0939  0.1573  0.8925
 6824SOL     OW27061   1.830   3.601   3.900 -0.0941 -0.0414 -0.0923
 6824SOL    HW227062   1.922   3.625   3.908  0.0111  0.1762 -1.6909
 6824SOL    HW327063   1.826   3.542   3.825 -1.0778 -1.1245  0.7744
 6824SOL    MW427064   1.841   3.597   3.891 -0.2100 -0.1556 -0.1888
 6825SOL     OW27065   2.747   2.625   1.209 -0.1802  0.1861  0.3752
 6825SOL    HW227066   2.669   2.658   1.253 -0.2956 -0.3645  0.5943
 6825SOL    HW327067   2.783   2.559   1.269 -0.4377 -0.6968 -0.4140
 6825SOL    MW427068   2.742   2.621   1.223 -0.2294 -0.0030  0.2999
 6826SOL     OW27069   3.687   1.069   2.867 -0.1178 -0.0317  0.2378
 6826SOL    HW227070   3.612   1.015   2.890 -0.2795  0.2800  0.4484
 6826SOL    HW327071   3.654   1.159   2.868  0.1680  0.0776 -0.0303
 6826SOL    MW427072   3.673   1.074   2.870 -0.1014  0.0239  0.2302
 6827SOL     OW27073   5.420   0.354   3.032  0.4939  0.0819 -0.5571
 6827SOL    HW227074   5.478   0.371   2.957  0.1180 -0.2630 -0.9334
 6827SOL    HW327075   5.339   0.322   2.992  0.3262 -0.2035  0.0044
 6827SOL    MW427076   5.417   0.352   3.017  0.4222 -0.0012 -0.5327
 6828SOL     OW27077   3.076   4.950   4.566 -0.2811  0.0457  0.4992
 6828SOL    HW227078   3.042   5.004   4.638  0.3981  0.6416  0.3877
 6828SOL    HW327079   3.113   4.873   4.610 -0.8753 -0.1362  0.6936
 6828SOL    MW427080   3.076   4.947   4.582 -0.2699  0.1003  0.5101
 6829SOL     OW27081   4.421   4.214   0.884  0.5177 -0.5679 -0.1708
 6829SOL    HW227082   4.400   4.129   0.922 -0.2181 -0.4257 -0.2336
 6829SOL    HW327083   4.512   4.230   0.909  0.5273 -1.1725  0.2103
 6829SOL    MW427084   4.430   4.205   0.892  0.4219 -0.6289 -0.1288
 6830SOL     OW27085   6.044   0.488   3.299 -0.4607  0.0551  0.0037
 6830SOL    HW227086   5.998   0.570   3.284 -0.1159 -0.1927 -3.0293
 6830SOL    HW327087   5.989   0.422   3.256  0.5078 -0.9076  0.2038
 6830SOL    MW427088   6.031   0.490   3.291 -0.2874 -0.1046 -0.3701
 6831SOL     OW27089   0.844   0.303   4.369  0.2881  0.1968 -0.1911
 6831SOL    HW227090   0.844   0.281   4.276 -1.0918 -0.4787 -0.0591
 6831SOL    HW327091   0.871   0.395   4.372  2.0729 -0.2662 -1.0948
 6831SOL    MW427092   0.847   0.312   4.357  0.3415  0.0466 -0.2929
 6832SOL     OW27093   4.143   1.871   1.461  0.3647  0.4022 -0.3521
 6832SOL    HW227094   4.101   1.873   1.375  1.1249 -3.7104 -1.0637
 6832SOL    HW327095   4.087   1.815   1.514 -0.0607  2.8122  1.9581
 6832SOL    MW427096   4.130   1.864   1.457  0.4088  0.1776 -0.1412
 6833SOL     OW27097   0.287   1.987   0.713 -0.2050  0.1440 -0.0706
 6833SOL    HW227098   0.334   1.992   0.630 -0.7111  1.0519 -0.3157
 6833SOL    HW327099   0.198   2.016   0.693 -0.4116  0.0991  0.7283
 6833SOL    MW427100   0.282   1.992   0.699 -0.2991  0.2579  0.0025
 6834SOL     OW27101   6.100   6.257   4.390 -0.4753  0.4281 -0.2457
 6834SOL    HW227102   6.183   6.242   4.344 -0.9644  0.2703 -1.0883
 6834SOL    HW327103   6.047   6.307   4.329  0.1343  3.4282  1.5034
 6834SOL    MW427104   6.104   6.262   4.376 -0.4594  0.8031 -0.1261
 6835SOL     OW27105   4.057   1.231   0.495  0.5039 -1.5599  0.7907
 6835SOL    HW227106   4.134   1.208   0.546  2.7357  1.5595 -0.8237
 6835SOL    HW327107   4.024   1.311   0.535 -1.4252 -2.3185  0.8630
 6835SOL    MW427108   4.062   1.238   0.507  0.5438 -1.2484  0.5872
 6836SOL     OW27109   5.107   2.957   0.054 -0.5333 -0.2899 -0.2731
 6836SOL    HW227110   5.148   2.871   0.059 -0.1439 -0.0237  2.8629
 6836SOL    HW327111   5.043   2.958   0.125 -2.5231  1.0989 -1.9371
 6836SOL    MW427112   5.104   2.946   0.064 -0.7445 -0.0715 -0.0789
 6837SOL     OW27113   3.617   2.363   1.385 -0.2532 -0.1738  0.2750
 6837SOL    HW227114   3.592   2.361   1.477  2.1373 -0.1521  1.0003
 6837SOL    HW327115   3.698   2.312   1.381 -0.3370 -0.2617 -1.8544
 6837SOL    MW427116   3.624   2.356   1.396  0.0512 -0.1825  0.0898
 6838SOL     OW27117   5.659   0.290   1.775 -0.1066  0.2208 -0.2106
 6838SOL    HW227118   5.710   0.313   1.853 -1.3889 -0.9042  1.0310
 6838SOL    HW327119   5.680   0.198   1.759  0.6057  0.6028 -1.5921
 6838SOL    MW427120   5.668   0.281   1.783 -0.1818  0.1228 -0.2291
 6839SOL     OW27121   1.657   5.411   2.513 -0.7875  0.4033  0.0973
 6839SOL    HW227122   1.682   5.326   2.477 -1.3105 -0.3423  1.4073
 6839SOL    HW327123   1.584   5.440   2.458 -1.0434 -0.3276  0.0397
 6839SOL    MW427124   1.651   5.404   2.501 -0.8903  0.2085  0.2626
 6840SOL     OW27125   3.816   5.414   5.707  0.1475  0.4519 -0.2131
 6840SOL    HW227126   3.722   5.401   5.703  0.1403  0.8245 -2.1380
 6840SOL    HW327127   3.835   5.479   5.639  1.8101  0.2295 -0.0195
 6840SOL    MW427128   3.806   5.421   5.698  0.3659  0.4717 -0.4415
 6841SOL     OW27129   3.151   3.041   2.247 -0.1388 -0.1212 -0.0839
 6841SOL    HW227130   3.166   3.134   2.232 -0.0381 -0.1979 -0.4837
 6841SOL    HW327131   3.238   3.002   2.251 -0.1865 -0.2968 -0.6099
 6841SOL    MW427132   3.164   3.048   2.245 -0.1318 -0.1545 -0.2060
 6842SOL     OW27133   2.261   2.855   2.790 -0.1598 -0.3955 -0.0385
 6842SOL    HW227134   2.249   2.781   2.850 -0.4734 -0.5258 -0.2597
 6842SOL    HW327135   2.224   2.825   2.707 -0.7526  0.1946  0.0080
 6842SOL    MW427136   2.255   2.841   2.787 -0.2794 -0.3349 -0.0615
 6843SOL     OW27137   3.537   6.238   3.717 -0.5523  0.2004 -0.0768
 6843SOL    HW227138   3.510   6.309   3.659  1.1833  0.2528 -0.8591
 6843SOL    HW327139   3.456   6.191   3.737 -1.1054 -0.4345 -3.3475
 6843SOL    MW427140   3.523   6.241   3.712 -0.3963  0.1236 -0.6115
 6844SOL     OW27141   0.303   6.116   0.084  0.3215  0.0081 -0.0452
 6844SOL    HW227142   0.261   6.202   0.091 -0.1215 -0.3066  1.6233
 6844SOL    HW327143   0.230   6.055   0.070  0.4405 -0.2791  0.5468
 6844SOL    MW427144   0.288   6.119   0.083  0.2788 -0.0713  0.2530
 6845SOL     OW27145   5.424   5.703   3.190  0.1238 -0.1104  0.3445
 6845SOL    HW227146   5.510   5.714   3.230  0.3495  1.1980 -0.4233
 6845SOL    HW327147   5.424   5.614   3.154  2.6815  1.0279 -3.0083
 6845SOL    MW427148   5.435   5.693   3.191  0.4910  0.2124 -0.1992
 6846SOL     OW27149   2.814   5.127   6.224  0.3245 -0.1994  0.4805
 6846SOL    HW227150   2.763   5.050   6.250  0.7471 -1.8320 -3.0513
 6846SOL    HW327151   2.900   5.112   6.262  0.7885 -2.2346 -1.1780
 6846SOL    MW427152   2.819   5.115   6.233  0.4415 -0.6833 -0.2043
 6847SOL     OW27153   4.446   1.222   1.462  0.7734  0.1785 -0.0802
 6847SOL    HW227154   4.518   1.255   1.514  1.1088  1.2494 -1.1709
 6847SOL    HW327155   4.456   1.264   1.376  1.0893 -2.5878 -1.5270
 6847SOL    MW427156   4.457   1.232   1.457  0.8594 -0.0452 -0.4150
 6848SOL     OW27157   6.237   1.477   5.488  0.1647  0.0807  0.4353
 6848SOL    HW227158   6.273   1.410   5.545  1.4760  1.0954  0.8421
 6848SOL    HW327159   6.305   1.491   5.421 -0.6700  0.0467 -0.4478
 6848SOL    MW427160   6.251   1.470   5.486  0.2276  0.2101  0.3725
 6849SOL     OW27161   3.591   2.847   4.462 -0.1758 -0.4520 -0.4862
 6849SOL    HW227162   3.554   2.875   4.545  0.7021 -1.7069  0.3688
 6849SOL    HW327163   3.549   2.763   4.445 -2.2959  0.9311 -2.6692
 6849SOL    MW427164   3.581   2.839   4.471 -0.3397 -0.4351 -0.6614
 6850SOL     OW27165   3.789   2.616   5.743  0.0355  0.0038  0.0578
 6850SOL    HW227166   3.745   2.665   5.674 -0.8748 -0.8944 -0.0113
 6850SOL    HW327167   3.721   2.597   5.807  1.0483  1.6542  1.7244
 6850SOL    MW427168   3.774   2.620   5.742  0.0490  0.1030  0.2685
 6851SOL     OW27169   1.365   0.083   0.091 -0.3133  0.2633  0.4731
 6851SOL    HW227170   1.456   0.058   0.071 -0.2197 -0.4687  1.7405
 6851SOL    HW327171   1.369   0.118   0.180 -1.2951  0.1600  0.5670
 6851SOL    MW427172   1.378   0.085   0.100 -0.4305  0.1531  0.6527
 6852SOL     OW27173   0.968   4.141   5.042 -0.3942  0.4883  0.5101
 6852SOL    HW227174   1.026   4.209   5.077 -1.1838  2.0334 -1.0541
 6852SOL    HW327175   0.974   4.150   4.947 -3.5722  1.1187  0.2569
 6852SOL    MW427176   0.976   4.152   5.034 -0.9177  0.7753  0.2703
 6853SOL     OW27177   4.976   3.299   0.708 -0.1490 -0.6277  0.1535
 6853SOL    HW227178   5.056   3.247   0.705  0.2341 -0.0249 -0.6805
 6853SOL    HW327179   4.995   3.375   0.652 -0.7401  0.3342  1.2234
 6853SOL    MW427180   4.989   3.302   0.700 -0.1765 -0.4213  0.1847
 6854SOL     OW27181   0.532   2.558   2.023 -0.3201  0.2116 -0.3329
 6854SOL    HW227182   0.625   2.581   2.023 -0.5469  1.2099 -1.6444
 6854SOL    HW327183   0.487   2.640   2.005 -1.4029 -0.4506 -0.7406
 6854SOL    MW427184   0.538   2.572   2.021 -0.4929  0.2559 -0.5598
 6855SOL     OW27185   1.638   5.685   5.785  0.1858 -0.8333 -0.0425
 6855SOL    HW227186   1.685   5.650   5.709  0.9258  0.0343 -0.0007
 6855SOL    HW327187   1.675   5.772   5.798 -0.2561 -0.7910  1.0376
 6855SOL    MW427188   1.649   5.692   5.777  0.2251 -0.7133  0.1055
 6856SOL     OW27189   2.882   4.748   4.753  0.7551  0.0893 -0.6550
 6856SOL    HW227190   2.856   4.752   4.661  0.8353 -1.3623 -0.7629
 6856SOL    HW327191   2.875   4.655   4.776 -0.2212  0.5372  1.0893
 6856SOL    MW427192   2.877   4.736   4.744  0.6368 -0.0431 -0.4391
 6857SOL     OW27193   3.726   3.133   3.126 -0.4656  0.1867  0.4591
 6857SOL    HW227194   3.770   3.154   3.209  0.5976 -1.6960  0.4224
 6857SOL    HW327195   3.772   3.187   3.061 -0.3738  0.6393  0.8916
 6857SOL    MW427196   3.738   3.143   3.129 -0.3132 -0.0020  0.5113
 6858SOL     OW27197   4.486   0.503   0.374 -0.5143  0.5737  0.1370
 6858SOL    HW227198   4.429   0.580   0.367 -1.2624  0.3747  3.0105
 6858SOL    HW327199   4.487   0.481   0.467  0.0223 -2.6557 -0.4989
 6858SOL    MW427200   4.479   0.510   0.385 -0.5422  0.1214  0.4322
 6859SOL     OW27201   2.348   4.267   0.217 -0.7823 -0.1378 -0.9035
 6859SOL    HW227202   2.324   4.310   0.299  2.9884  0.3063  0.1496
 6859SOL    HW327203   2.347   4.173   0.237  1.7048  0.0146  0.2863
 6859SOL    MW427204   2.345   4.260   0.231  0.0433 -0.0591 -0.6076
 6860SOL     OW27205   4.968   1.543   2.456 -0.4406 -0.1669  0.2034
 6860SOL    HW227206   4.909   1.511   2.389  0.6783 -1.4210 -0.2319
 6860SOL    HW327207   4.966   1.638   2.448  1.3952 -0.2737 -3.2100
 6860SOL    MW427208   4.960   1.551   2.446 -0.0508 -0.3465 -0.3044
 6861SOL     OW27209   2.500   3.012   0.411 -0.4769 -0.0937  0.2635
 6861SOL    HW227210   2.462   2.925   0.426 -0.0200 -0.2912  0.3220
 6861SOL    HW327211   2.594   2.999   0.428 -0.5055  0.5686  0.9316
 6861SOL    MW427212   2.508   2.999   0.415 -0.4204 -0.0324  0.3594
 6862SOL     OW27213   2.393   3.917   2.698  0.4383  0.1056  0.1182
 6862SOL    HW227214   2.360   3.838   2.739  0.1622  0.1864  0.0545
 6862SOL    HW327215   2.479   3.893   2.663  1.1355  0.3056  1.6244
 6862SOL    MW427216   2.400   3.904   2.699  0.4939  0.1427  0.3085
 6863SOL     OW27217   1.585   4.092   4.387 -0.1956 -0.2571  0.0517
 6863SOL    HW227218   1.611   4.179   4.418 -0.5897 -0.0806 -0.1138
 6863SOL    HW327219   1.495   4.081   4.417 -0.2596 -0.4710 -0.2184
 6863SOL    MW427220   1.577   4.102   4.395 -0.2560 -0.2621 -0.0058
 6864SOL     OW27221   4.097   3.335   1.879 -0.2376 -0.0292 -0.2592
 6864SOL    HW227222   4.165   3.271   1.860  1.0139  0.8135  1.2207
 6864SOL    HW327223   4.139   3.420   1.867 -0.9985  0.5102  0.7241
 6864SOL    MW427224   4.111   3.338   1.875 -0.1729  0.1532  0.0658
 6865SOL     OW27225   4.802   2.463   0.625 -0.0530 -0.7225 -0.2167
 6865SOL    HW227226   4.777   2.381   0.667  1.1123 -0.2719  1.4504
 6865SOL    HW327227   4.755   2.531   0.674  0.5047 -0.2611 -0.3050
 6865SOL    MW427228   4.792   2.461   0.637  0.1743 -0.6022 -0.0084
 6866SOL     OW27229   6.032   0.200   5.493 -0.4060  0.4147  0.1284
 6866SOL    HW227230   6.068   0.226   5.578 -0.5050  2.0766 -0.2980
 6866SOL    HW327231   5.946   0.165   5.514  0.3961 -1.2021  0.9037
 6866SOL    MW427232   6.026   0.199   5.507 -0.3133  0.4206  0.1745
 6867SOL     OW27233   3.822   2.950   4.822 -0.5511 -0.4383 -0.0472
 6867SOL    HW227234   3.756   3.008   4.861  0.7470  0.5099  0.7996
 6867SOL    HW327235   3.870   3.006   4.762 -0.3846 -1.0837 -0.5249
 6867SOL    MW427236   3.819   2.965   4.819 -0.3579 -0.3983  0.0015
 6868SOL     OW27237   0.708   2.677   5.609 -0.3059 -0.0492 -0.4518
 6868SOL    HW227238   0.624   2.664   5.654 -0.9101  0.4488 -1.4247
 6868SOL    HW327239   0.690   2.741   5.541  1.4045  1.8769  0.8028
 6868SOL    MW427240   0.695   2.684   5.606 -0.1599  0.2706 -0.4146
 6869SOL     OW27241   0.488   6.151   1.664  0.4532 -0.4169 -0.5147
 6869SOL    HW227242   0.400   6.162   1.699  1.2051  0.1453  1.3500
 6869SOL    HW327243   0.545   6.195   1.728  2.0764 -0.6284 -1.7341
 6869SOL    MW427244   0.484   6.159   1.677  0.7665 -0.3706 -0.4296
 6870SOL     OW27245   6.398   4.837   1.734  0.2292  0.4484 -0.9699
 6870SOL    HW227246   6.398   4.746   1.762 -0.7408  0.2401 -1.6159
 6870SOL    HW327247   6.357   4.884   1.807  0.6298  0.3509 -0.6829
 6870SOL    MW427248   6.392   4.831   1.747  0.1541  0.4080 -1.0172
 6871SOL     OW27249   6.085   3.059   5.253 -0.2708 -0.8314  0.4131
 6871SOL    HW227250   6.013   3.110   5.215 -0.6455 -0.3986  1.6786
 6871SOL    HW327251   6.164   3.103   5.220 -0.5875 -0.2929  0.3545
 6871SOL    MW427252   6.086   3.071   5.243 -0.3620 -0.7032  0.5724
 6872SOL     OW27253   1.697   2.807   5.505  1.1205  0.0803  0.1508
 6872SOL    HW227254   1.781   2.808   5.552  1.0521  0.8418  0.2727
 6872SOL    HW327255   1.632   2.793   5.574  1.1790 -1.1886 -0.0241
 6872SOL    MW427256   1.699   2.805   5.520  1.1192  0.0133  0.1438
 6873SOL     OW27257   4.799   5.614   5.802 -0.1630  0.0461 -0.1991
 6873SOL    HW227258   4.872   5.578   5.752 -0.0204 -0.5344  0.4147
 6873SOL    HW327259   4.840   5.650   5.881 -0.4988  0.0957 -0.0469
 6873SOL    MW427260   4.814   5.614   5.806 -0.1885 -0.0240 -0.0980
 6874SOL     OW27261   2.533   1.606   1.063  0.0188  0.4982  0.1876
 6874SOL    HW227262   2.459   1.589   1.120  0.0049 -4.3422 -0.8173
 6874SOL    HW327263   2.610   1.593   1.119  0.0548  0.9723  0.2469
 6874SOL    MW427264   2.534   1.602   1.078  0.0217 -0.0779  0.0628
 6875SOL     OW27265   3.903   2.765   4.571  0.4188  0.1880  0.2613
 6875SOL    HW227266   3.884   2.837   4.632 -1.2250  0.7349 -0.8334
 6875SOL    HW327267   3.818   2.725   4.554  1.1302 -1.1678 -0.2251
 6875SOL    MW427268   3.889   2.770   4.577  0.2958  0.0813  0.0527
 6876SOL     OW27269   3.906   3.765   4.442 -0.6022  0.1311  0.6125
 6876SOL    HW227270   3.884   3.771   4.535  0.4690  2.3788  0.7777
 6876SOL    HW327271   3.898   3.854   4.409 -2.5842 -0.8419 -1.9132
 6876SOL    MW427272   3.902   3.777   4.450 -0.7223  0.2993  0.3011
 6877SOL     OW27273   3.689   4.799   2.507  0.2442 -0.0925 -0.1937
 6877SOL    HW227274   3.640   4.740   2.564  2.7216  0.0326  2.3063
 6877SOL    HW327275   3.673   4.887   2.543  1.9246 -0.0180  0.4519
 6877SOL    MW427276   3.681   4.803   2.520  0.7928 -0.0662  0.2213
 6878SOL     OW27277   1.267   0.997   5.160  0.1297  0.3738  0.5903
 6878SOL    HW227278   1.331   0.926   5.163 -1.1076 -0.7535  0.8725
 6878SOL    HW327279   1.194   0.967   5.215 -1.5241  0.7324 -1.2939
 6878SOL    MW427280   1.266   0.984   5.168 -0.2518  0.2724  0.3790
 6879SOL     OW27281   3.277   4.143   1.122  0.5784 -0.2000 -0.8002
 6879SOL    HW227282   3.273   4.235   1.098  1.2226 -0.0959 -0.5415
 6879SOL    HW327283   3.244   4.096   1.045 -2.1688  0.3293 -0.0634
 6879SOL    MW427284   3.272   4.149   1.109  0.3009 -0.1164 -0.6689
 6880SOL     OW27285   2.297   0.635   1.475  1.0599 -0.2972 -0.0071
 6880SOL    HW227286   2.253   0.686   1.544  1.0115 -1.5668  0.9480
 6880SOL    HW327287   2.226   0.589   1.431  1.2969 -1.5068  0.8264
 6880SOL    MW427288   2.282   0.635   1.479  1.0848 -0.6243  0.2289
 6881SOL     OW27289   2.658   0.269   5.762 -0.2450  0.2482  0.1361
 6881SOL    HW227290   2.585   0.247   5.820 -0.1856 -0.5581 -0.0869
 6881SOL    HW327291   2.659   0.199   5.696  0.0738  0.8137 -0.4805
 6881SOL    MW427292   2.649   0.257   5.761 -0.1951  0.2164  0.0253
 6882SOL     OW27293   2.100   2.673   3.832  0.2672  0.2073 -0.5425
 6882SOL    HW227294   2.181   2.714   3.862 -0.7361  1.5185  0.4744
 6882SOL    HW327295   2.128   2.611   3.765  2.3417 -1.1103  1.4242
 6882SOL    MW427296   2.114   2.670   3.827  0.4085  0.2064 -0.1488
 6883SOL     OW27297   2.282   1.354   0.736 -0.4143  0.1687  0.2578
 6883SOL    HW227298   2.371   1.384   0.750  0.1059 -0.8218 -0.7225
 6883SOL    HW327299   2.249   1.332   0.823  1.5032 -2.6502  0.3771
 6883SOL    MW427300   2.289   1.355   0.749 -0.0927 -0.3339  0.1442
 6884SOL     OW27301   0.125   1.557   0.438  0.0181 -0.8626 -0.1153
 6884SOL    HW227302   0.096   1.499   0.368 -0.7294  0.3174 -0.8169
 6884SOL    HW327303   0.107   1.645   0.405  2.2763 -0.1450  0.3784
 6884SOL    MW427304   0.119   1.561   0.424  0.2175 -0.6123 -0.1427
 6885SOL     OW27305   5.304   1.161   6.288 -0.1335  0.0233 -0.1638
 6885SOL    HW227306   5.325   1.163   6.381 -2.1325  0.1344  0.3262
 6885SOL    HW327307   5.370   1.103   6.250 -0.1238 -1.1632  1.5556
 6885SOL    MW427308   5.316   1.154   6.295 -0.3960 -0.1186  0.1277
 6886SOL     OW27309   5.708   1.117   2.727  0.1181  0.3714  0.2742
 6886SOL    HW227310   5.756   1.139   2.807  0.4628 -3.7779  1.4574
 6886SOL    HW327311   5.619   1.096   2.758 -0.0296 -0.2795 -0.5747
 6886SOL    MW427312   5.702   1.117   2.742  0.1441 -0.2619  0.3183
 6887SOL     OW27313   5.901   1.508   1.878  0.1070 -0.7118 -0.2663
 6887SOL    HW227314   5.874   1.593   1.914  2.5378  0.2310 -0.5034
 6887SOL    HW327315   5.935   1.529   1.791  0.1485 -2.0326 -0.5784
 6887SOL    MW427316   5.902   1.522   1.872  0.4332 -0.7617 -0.3387
 6888SOL     OW27317   4.994   3.521   1.381 -0.0905 -0.5577 -0.4171
 6888SOL    HW227318   4.947   3.575   1.318  0.3738 -1.1083 -1.2528
 6888SOL    HW327319   5.012   3.579   1.455  1.3821  0.7659 -1.7579
 6888SOL    MW427320   4.990   3.536   1.383  0.1650 -0.4557 -0.7043
 6889SOL     OW27321   6.329   3.685   5.502  0.0025 -0.2433  0.3288
 6889SOL    HW227322   6.341   3.741   5.578 -0.2327  1.7229 -1.0069
 6889SOL    HW327323   6.416   3.680   5.462  0.4108 -2.2876  1.3110
 6889SOL    MW427324   6.342   3.691   5.507  0.0253 -0.2536  0.2822
 6890SOL     OW27325   4.629   3.743   5.857 -0.3011  0.1454 -0.0607
 6890SOL    HW227326   4.574   3.796   5.915 -1.1792 -3.0672  2.3361
 6890SOL    HW327327   4.707   3.723   5.908 -0.2673 -1.2831 -0.6041
 6890SOL    MW427328   4.632   3.747   5.871 -0.4125 -0.4670  0.1838
 6891SOL     OW27329   1.575   5.778   2.444 -0.1842 -0.0408 -0.7766
 6891SOL    HW227330   1.506   5.840   2.421  0.0716  0.7128  0.4317
 6891SOL    HW327331   1.629   5.772   2.365  0.1836  1.8121 -0.7015
 6891SOL    MW427332   1.573   5.785   2.431 -0.1019  0.3031 -0.6072
 6892SOL     OW27333   2.943   4.003   0.464 -0.1057 -0.2841  0.1474
 6892SOL    HW227334   2.878   3.957   0.412  0.6136 -1.4624  0.2724
 6892SOL    HW327335   2.912   3.995   0.554  0.1767 -0.8201  0.2034
 6892SOL    MW427336   2.930   3.996   0.469  0.0265 -0.5103  0.1712
 6893SOL     OW27337   1.278   2.109   6.153  0.0840  0.1588 -0.5926
 6893SOL    HW227338   1.289   2.203   6.169  1.1907  0.0398 -0.5985
 6893SOL    HW327339   1.346   2.067   6.206 -1.2871 -0.7480  0.5160
 6893SOL    MW427340   1.288   2.116   6.162  0.0491  0.0235 -0.4471
 6894SOL     OW27341   4.615   5.811   5.710  0.4706 -0.0148 -0.2447
 6894SOL    HW227342   4.680   5.744   5.732 -0.8846 -0.8531  1.4762
 6894SOL    HW327343   4.558   5.815   5.787 -1.8288  0.2801 -1.8537
 6894SOL    MW427344   4.616   5.803   5.723 -0.0115 -0.0865 -0.2299
 6895SOL     OW27345   6.228   1.348   3.156 -0.3302 -0.2149 -0.3108
 6895SOL    HW227346   6.269   1.434   3.166  1.4962 -0.7188 -2.5960
 6895SOL    HW327347   6.272   1.293   3.221 -0.7317  0.2809  0.4046
 6895SOL    MW427348   6.239   1.352   3.166 -0.1422 -0.2160 -0.5179
 6896SOL     OW27349   5.479   3.497   2.267 -0.0012  0.3029 -0.4034
 6896SOL    HW227350   5.451   3.475   2.355 -1.7099  2.5709 -0.2675
 6896SOL    HW327351   5.574   3.502   2.272  0.2179 -2.7785  0.4215
 6896SOL    MW427352   5.488   3.495   2.279 -0.1977  0.1956 -0.2766
 6897SOL     OW27353   0.485   4.376   5.873  0.6475  0.1509 -0.2463
 6897SOL    HW227354   0.579   4.364   5.862  0.6494 -0.7162  0.5831
 6897SOL    HW327355   0.445   4.303   5.827  0.3217  1.0266 -1.3935
 6897SOL    MW427356   0.492   4.365   5.866  0.6048  0.1521 -0.2882
 6898SOL     OW27357   4.071   1.066   4.415 -0.2512 -0.4848  0.0256
 6898SOL    HW227358   4.165   1.065   4.428 -0.2847  1.7170  0.8813
 6898SOL    HW327359   4.059   1.093   4.324 -0.0139  0.9301  0.3863
 6898SOL    MW427360   4.082   1.070   4.405 -0.2243 -0.0076  0.1861
 6899SOL     OW27361   5.615   3.040   0.028 -0.2010 -0.1328 -0.2033
 6899SOL    HW227362   5.548   2.985   0.070 -0.9767  1.0513  0.1696
 6899SOL    HW327363   5.698   2.995   0.046 -0.9183 -1.8225 -0.9939
 6899SOL    MW427364   5.617   3.027   0.036 -0.3980 -0.1995 -0.2584
 6900SOL     OW27365   5.274   3.923   5.928 -0.0467  0.2105  0.4220
 6900SOL    HW227366   5.279   3.908   6.022 -0.6126 -0.9451  0.2863
 6900SOL    HW327367   5.312   3.844   5.888 -1.0207  0.0875 -0.3142
 6900SOL    MW427368   5.279   3.910   5.935 -0.2499  0.0418  0.3070
 6901SOL     OW27369   2.463   6.187   4.540  0.4334 -0.1177  0.0616
 6901SOL    HW227370   2.546   6.142   4.522  0.2743 -1.2272  1.8092
 6901SOL    HW327371   2.437   6.155   4.626 -1.7175  0.3837 -0.3422
 6901SOL    MW427372   2.471   6.177   4.549  0.1286 -0.1979  0.2389
 6902SOL     OW27373   4.597   4.092   0.222  0.1154  0.2239  0.2699
 6902SOL    HW227374   4.515   4.055   0.254  0.8270 -1.5764  0.1722
 6902SOL    HW327375   4.581   4.186   0.215 -1.3731  0.1395  1.8970
 6902SOL    MW427376   4.584   4.099   0.225  0.0129 -0.0248  0.4717
 6903SOL     OW27377   4.107   4.109   4.563 -0.2965  0.9646  0.3621
 6903SOL    HW227378   4.189   4.085   4.521 -0.4132  1.8429 -0.3851
 6903SOL    HW327379   4.041   4.099   4.495 -0.5310  2.1017  0.3995
 6903SOL    MW427380   4.109   4.105   4.549 -0.3429  1.2305  0.2684
 6904SOL     OW27381   2.435   2.757   0.523  0.8749 -0.1873 -0.1072
 6904SOL    HW227382   2.497   2.702   0.474  0.9393  0.0231 -0.2603
 6904SOL    HW327383   2.488   2.796   0.593  0.6173 -1.1124  0.6235
 6904SOL    MW427384   2.451   2.755   0.526  0.8494 -0.2816 -0.0310
 6905SOL     OW27385   4.594   1.061   1.271 -0.5768  0.2802  0.0912
 6905SOL    HW227386   4.672   1.010   1.247 -0.5936 -0.3863  1.3682
 6905SOL    HW327387   4.628   1.148   1.290 -0.3845  0.4509 -0.9758
 6905SOL    MW427388   4.609   1.066   1.271 -0.5537  0.2148  0.1189
 6906SOL     OW27389   0.155   2.917   1.492 -0.0252  0.4284  0.7106
 6906SOL    HW227390   0.089   2.878   1.434  0.1634  0.6131  0.3727
 6906SOL    HW327391   0.223   2.850   1.499 -0.8712 -0.3230  2.1534
 6906SOL    MW427392   0.155   2.903   1.485 -0.1119  0.3536  0.8564
 6907SOL     OW27393   5.958   1.480   1.266 -0.3902  0.0314  0.4123
 6907SOL    HW227394   6.038   1.530   1.279 -1.9276  2.5656  0.6857
 6907SOL    HW327395   5.919   1.473   1.353 -2.6800  2.9155 -0.2289
 6907SOL    MW427396   5.964   1.485   1.279 -0.8952  0.7463  0.3638
 6908SOL     OW27397   0.915   5.139   1.871  0.4830  0.2934  0.0199
 6908SOL    HW227398   0.993   5.084   1.879  1.1446  1.1314 -0.4527
 6908SOL    HW327399   0.872   5.132   1.956  1.0118 -0.2716  0.2482
 6908SOL    MW427400   0.920   5.131   1.883  0.6400  0.3294 -0.0124
 6909SOL     OW27401   5.798   3.006   3.614 -0.4260  0.7540  0.4233
 6909SOL    HW227402   5.719   3.027   3.664 -0.1231  1.5742  0.5783
 6909SOL    HW327403   5.870   3.041   3.667  0.2324 -1.5796  1.1891
 6909SOL    MW427404   5.797   3.014   3.628 -0.2992  0.5543  0.5448
 6910SOL     OW27405   1.982   0.682   2.623 -0.1165  0.4607  0.2127
 6910SOL    HW227406   1.951   0.600   2.660 -1.5032  0.6231 -0.5226
 6910SOL    HW327407   2.070   0.663   2.590 -0.2889 -0.6265  0.3560
 6910SOL    MW427408   1.989   0.669   2.624 -0.3222  0.3386  0.1346
 6911SOL     OW27409   5.963   1.214   5.998  0.0134  0.2212 -0.2867
 6911SOL    HW227410   5.872   1.187   5.986  0.0154 -1.2575  2.2626
 6911SOL    HW327411   6.012   1.132   6.005  1.4868  0.9846 -1.1484
 6911SOL    MW427412   5.957   1.200   5.998  0.2081  0.1268 -0.0641
 6912SOL     OW27413   3.952   5.080   4.218  0.4900 -0.3243  0.2712
 6912SOL    HW227414   4.018   5.019   4.184  3.0002  2.8596 -1.0311
 6912SOL    HW327415   3.920   5.125   4.140  0.1650  1.3545  1.3405
 6912SOL    MW427416   3.957   5.078   4.203  0.7783  0.3173  0.2405
 6913SOL     OW27417   4.993   0.151   5.969 -0.2653 -0.3378  1.1164
 6913SOL    HW227418   5.017   0.071   6.017  1.2346  0.4866  1.7984
 6913SOL    HW327419   4.934   0.120   5.900  0.1217 -2.0141  1.4812
 6913SOL    MW427420   4.988   0.136   5.966 -0.0163 -0.4502  1.2545
 6914SOL     OW27421   3.673   1.360   3.352  0.2442 -0.4397 -0.2058
 6914SOL    HW227422   3.621   1.426   3.398  2.5238  2.2208 -1.1353
 6914SOL    HW327423   3.618   1.281   3.352 -1.7906  0.8005  2.7919
 6914SOL    MW427424   3.659   1.358   3.358  0.2765  0.0750  0.0671
 6915SOL     OW27425   0.660   1.815   0.875  0.2630  0.0137 -0.0979
 6915SOL    HW227426   0.579   1.779   0.841  0.3986  0.9316 -1.4887
 6915SOL    HW327427   0.659   1.907   0.848  1.6344  0.1163  0.0888
 6915SOL    MW427428   0.649   1.823   0.867  0.4619  0.1484 -0.2568
 6916SOL     OW27429   2.539   5.109   5.628 -0.0382 -0.0629 -0.3175
 6916SOL    HW227430   2.547   5.090   5.721 -0.5166  1.2638  0.0201
 6916SOL    HW327431   2.484   5.039   5.593 -0.4719 -0.1608  0.5487
 6916SOL    MW427432   2.532   5.097   5.636 -0.1585  0.0993 -0.1587
 6917SOL     OW27433   2.561   5.364   3.403  0.0621 -0.1104  0.0761
 6917SOL    HW227434   2.636   5.422   3.391 -0.4004  0.2154 -1.4156
 6917SOL    HW327435   2.557   5.349   3.498  0.9376  1.2807  0.3592
 6917SOL    MW427436   2.570   5.369   3.414  0.1166  0.1161 -0.0834
 6918SOL     OW27437   0.654   4.816   5.527  0.1798 -0.2253  0.0179
 6918SOL    HW227438   0.643   4.906   5.558  0.3591 -0.0761 -0.3473
 6918SOL    HW327439   0.569   4.793   5.491  0.5399  0.3217 -1.2315
 6918SOL    MW427440   0.641   4.825   5.527  0.2509 -0.1334 -0.1951
 6919SOL     OW27441   3.301   0.236   6.029 -0.0975  0.5803 -0.1204
 6919SOL    HW227442   3.396   0.246   6.035  0.0895 -1.0482 -0.0672
 6919SOL    HW327443   3.285   0.204   5.940 -0.8588  3.0771 -0.9838
 6919SOL    MW427444   3.312   0.233   6.018 -0.1733  0.6949 -0.2273
 6920SOL     OW27445   5.277   1.648   1.034  0.1404 -0.0437  0.4616
 6920SOL    HW227446   5.214   1.605   1.092  0.7103 -1.2321  0.2226
 6920SOL    HW327447   5.269   1.741   1.056 -1.6251 -0.1710  0.4860
 6920SOL    MW427448   5.268   1.655   1.045 -0.0173 -0.2173  0.4333
 6921SOL     OW27449   4.980   5.501   4.470 -0.2023 -0.0170 -0.2881
 6921SOL    HW227450   5.071   5.531   4.469 -0.1832 -0.0653 -1.5806
 6921SOL    HW327451   4.973   5.449   4.550  0.1704  2.1296  1.2436
 6921SOL    MW427452   4.991   5.498   4.481 -0.1506  0.2598 -0.2565
 6922SOL     OW27453   5.641   4.046   3.452 -0.0828  0.2862 -0.3785
 6922SOL    HW227454   5.604   3.959   3.445  1.0304 -0.1087 -2.0097
 6922SOL    HW327455   5.566   4.104   3.461 -0.9914 -0.6469 -1.6359
 6922SOL    MW427456   5.626   4.042   3.452 -0.0558  0.1110 -0.7596
 6923SOL     OW27457   2.251   1.109   1.305  0.1098 -0.6098  0.1795
 6923SOL    HW227458   2.303   1.085   1.228 -1.5778  2.0786 -1.9665
 6923SOL    HW327459   2.273   1.201   1.321 -1.0753 -0.5577  1.6789
 6923SOL    MW427460   2.261   1.118   1.297 -0.2692 -0.2482  0.0942
 6924SOL     OW27461   2.835   0.092   4.746  0.1723 -0.7773 -0.1353
 6924SOL    HW227462   2.884   0.033   4.804  0.1274 -1.4274 -0.7522
 6924SOL    HW327463   2.758   0.041   4.719  0.6516 -0.8175 -1.4908
 6924SOL    MW427464   2.831   0.078   4.750  0.2296 -0.8684 -0.3955
 6925SOL     OW27465   3.035   4.274   1.391  0.4238 -0.0012  0.3207
 6925SOL    HW227466   2.983   4.195   1.378  0.0535  0.2303  0.3798
 6925SOL    HW327467   3.048   4.310   1.303 -0.9483  0.8451  0.4352
 6925SOL    MW427468   3.030   4.268   1.378  0.1939  0.1410  0.3436
 6926SOL     OW27469   1.799   1.742   1.415 -0.7372  0.3217 -0.2769
 6926SOL    HW227470   1.819   1.689   1.492 -0.1929  0.5714 -0.2355
 6926SOL    HW327471   1.813   1.684   1.341 -0.0826  0.4171 -0.2340
 6926SOL    MW427472   1.804   1.728   1.416 -0.5790  0.3672 -0.2658
 6927SOL     OW27473   1.487   6.066   0.709 -0.0009 -0.9252  0.7065
 6927SOL    HW227474   1.480   6.006   0.635 -0.4322 -1.1130  0.8937
 6927SOL    HW327475   1.439   6.022   0.779  0.0220 -0.5423  0.9645
 6927SOL    MW427476   1.479   6.052   0.709 -0.0548 -0.8995  0.7653
 6928SOL     OW27477   1.722   2.144   2.108  0.4844 -0.3968 -0.1476
 6928SOL    HW227478   1.666   2.107   2.040  0.8561 -0.4326 -0.4367
 6928SOL    HW327479   1.788   2.193   2.061  0.6960 -0.3502  0.1925
 6928SOL    MW427480   1.723   2.146   2.093  0.5614 -0.3954 -0.1409
 6929SOL     OW27481   0.218   3.646   3.961  0.0844 -0.4625 -0.1242
 6929SOL    HW227482   0.150   3.581   3.979  0.2036 -0.8387 -1.0125
 6929SOL    HW327483   0.179   3.703   3.895  0.2381 -0.0240  0.1548
 6929SOL    MW427484   0.204   3.645   3.955  0.1204 -0.4542 -0.2046
 6930SOL     OW27485   1.497   4.342   5.845 -0.4121  0.0348 -0.4259
 6930SOL    HW227486   1.438   4.385   5.908 -2.0749 -2.5671 -0.0314
 6930SOL    HW327487   1.448   4.343   5.763  0.3800  0.5664 -0.9062
 6930SOL    MW427488   1.483   4.348   5.843 -0.5270 -0.2383 -0.4372
 6931SOL     OW27489   4.039   2.457   1.131  0.0241 -0.4873 -0.7361
 6931SOL    HW227490   4.041   2.520   1.059  0.9301  0.6826  0.2639
 6931SOL    HW327491   4.132   2.439   1.150 -0.1253  0.4366  1.1332
 6931SOL    MW427492   4.052   2.463   1.124  0.1239 -0.2110 -0.3576
 6932SOL     OW27493   2.897   6.117   0.033 -0.9867  0.1028  0.7479
 6932SOL    HW227494   2.834   6.115  -0.039 -0.1514 -0.9169  0.0110
 6932SOL    HW327495   2.868   6.047   0.092  0.3798 -1.5715 -0.4598
 6932SOL    MW427496   2.885   6.107   0.031 -0.6962 -0.2526  0.4914
 6933SOL     OW27497   0.315   5.147   5.639  0.3974 -0.4310  0.0633
 6933SOL    HW227498   0.324   5.221   5.579 -0.3018  1.1365  1.8228
 6933SOL    HW327499   0.345   5.180   5.723 -0.5345 -1.9560  1.0444
 6933SOL    MW427500   0.320   5.161   5.642  0.1822 -0.4254  0.4249
 6934SOL     OW27501   4.050   5.285   6.079 -0.1403  0.3156  0.3105
 6934SOL    HW227502   4.145   5.300   6.080 -0.2026  0.6823  1.6434
 6934SOL    HW327503   4.030   5.250   6.166 -1.0332 -1.0789 -0.4210
 6934SOL    MW427504   4.060   5.282   6.090 -0.2663  0.1800  0.3898
 6935SOL     OW27505   5.902   2.453   3.216  0.3203  0.0201 -0.1385
 6935SOL    HW227506   5.984   2.419   3.181  0.4095  0.9850 -0.9290
 6935SOL    HW327507   5.928   2.526   3.272 -0.0121  0.7104 -0.8597
 6935SOL    MW427508   5.916   2.458   3.219  0.2882  0.2385 -0.3380
 6936SOL     OW27509   1.032   4.636   0.541 -0.9355  0.0813 -0.4691
 6936SOL    HW227510   1.066   4.725   0.551 -0.7370 -0.1822  1.7064
 6936SOL    HW327511   1.096   4.592   0.485  0.7039  0.4661  1.0010
 6936SOL    MW427512   1.045   4.642   0.535 -0.6930  0.0973  0.0119
 6937SOL     OW27513   0.298   4.093   4.099  0.5320  0.3142  0.2882
 6937SOL    HW227514   0.363   4.146   4.146  0.9129 -0.7091  0.9458
 6937SOL    HW327515   0.286   4.016   4.154  0.4800 -0.5987 -0.9591
 6937SOL    MW427516   0.305   4.090   4.112  0.5754  0.0587  0.2104
 6938SOL     OW27517   1.750   6.126   5.128 -0.7105  0.1631 -0.1199
 6938SOL    HW227518   1.836   6.097   5.097 -0.1314  1.5841  0.0801
 6938SOL    HW327519   1.688   6.086   5.066 -0.0149 -1.6376  0.2655
 6938SOL    MW427520   1.753   6.117   5.115 -0.5423  0.1130 -0.0427
 6939SOL     OW27521   6.191   3.366   4.689  0.0142  0.5114  0.7359
 6939SOL    HW227522   6.193   3.299   4.757 -0.5114  1.3799  1.6173
 6939SOL    HW327523   6.176   3.448   4.735 -3.0295  0.8519 -0.5626
 6939SOL    MW427524   6.189   3.368   4.704 -0.4567  0.6709  0.6808
 6940SOL     OW27525   4.299   0.145   5.787 -0.0047 -0.2837 -0.2093
 6940SOL    HW227526   4.222   0.099   5.753 -0.8303 -0.1821  1.4263
 6940SOL    HW327527   4.292   0.233   5.751 -0.9306 -0.1394  0.2891
 6940SOL    MW427528   4.288   0.150   5.778 -0.2358 -0.2512  0.0723
 6941SOL     OW27529   0.509   2.304   5.884  0.6683 -0.0246  0.1863
 6941SOL    HW227530   0.540   2.215   5.899  0.4465  0.0657  1.2589
 6941SOL    HW327531   0.499   2.342   5.972 -1.2351  0.3719 -0.1532
 6941SOL    MW427532   0.512   2.298   5.897  0.3879  0.0396  0.2830
 6942SOL     OW27533   0.926   5.318   2.158  0.1978  0.2202 -0.4115
 6942SOL    HW227534   0.939   5.380   2.230 -0.8657 -1.3229  1.2142
 6942SOL    HW327535   1.011   5.274   2.149  0.4581  0.7101 -0.4089
 6942SOL    MW427536   0.939   5.320   2.166  0.0919  0.0812 -0.1967
 6943SOL     OW27537   1.506   1.916   0.334 -0.3132  0.3097  0.0585
 6943SOL    HW227538   1.520   1.857   0.260  0.2923  1.3583 -0.6888
 6943SOL    HW327539   1.473   1.997   0.295 -0.0949  0.8390  0.9422
 6943SOL    MW427540   1.504   1.919   0.319 -0.2045  0.5178  0.0765
 6944SOL     OW27541   2.268   2.531   5.753  0.2361 -0.2748  0.9895
 6944SOL    HW227542   2.346   2.522   5.807 -0.9892 -0.5403  2.7934
 6944SOL    HW327543   2.242   2.441   5.732  0.1733 -0.2004  0.7380
 6944SOL    MW427544   2.275   2.518   5.757  0.0661 -0.3000  1.1943
 6945SOL     OW27545   2.677   3.076   5.730  0.2403 -0.3821 -0.3109
 6945SOL    HW227546   2.752   3.028   5.694  0.0470 -0.3024 -0.8268
 6945SOL    HW327547   2.611   3.010   5.746  0.9416 -0.6903  1.6019
 6945SOL    MW427548   2.678   3.061   5.727  0.3073 -0.4123 -0.1266
 6946SOL     OW27549   3.144   3.502   4.005  0.2197 -0.0174  0.3967
 6946SOL    HW227550   3.169   3.410   4.019  1.3949  0.2829  0.3439
 6946SOL    HW327551   3.080   3.519   4.074 -2.1649 -1.6561 -1.2497
 6946SOL    MW427552   3.139   3.492   4.016  0.0601 -0.1940  0.1725
 6947SOL     OW27553   3.747   2.604   1.027 -0.2013  0.7152 -0.5879
 6947SOL    HW227554   3.839   2.607   0.999 -0.4084 -0.9798 -1.5991
 6947SOL    HW327555   3.699   2.583   0.947 -1.5213  1.7948 -0.1094
 6947SOL    MW427556   3.753   2.601   1.012 -0.4028  0.6340 -0.6582
 6948SOL     OW27557   4.101   5.774   5.701  0.3061  0.6012 -0.7994
 6948SOL    HW227558   4.071   5.864   5.713  1.6059  1.1146 -1.1423
 6948SOL    HW327559   4.033   5.732   5.648  0.2326  1.7225 -1.6311
 6948SOL    MW427560   4.088   5.780   5.695  0.4679  0.8169 -0.9544
 6949SOL     OW27561   3.469   1.409   5.355 -0.6114 -0.3818  0.7414
 6949SOL    HW227562   3.472   1.385   5.262  0.0617  2.7749 -0.1763
 6949SOL    HW327563   3.436   1.330   5.399  0.1215 -2.3788 -1.9924
 6949SOL    MW427564   3.465   1.395   5.348 -0.4259 -0.2288  0.2596
 6950SOL     OW27565   1.239   4.839   5.667 -0.3119  0.0081  0.1699
 6950SOL    HW227566   1.257   4.839   5.762  0.6137  1.6579  0.0207
 6950SOL    HW327567   1.144   4.834   5.661 -0.7658  3.9236  1.3587
 6950SOL    MW427568   1.229   4.838   5.679 -0.2496  0.7424  0.3070
 6951SOL     OW27569   0.032   5.988   3.753  0.2499  0.6224 -0.5851
 6951SOL    HW227570   0.021   5.922   3.820 -0.9059  0.4809 -0.8853
 6951SOL    HW327571  -0.016   6.065   3.786  1.3224  1.2129 -0.3728
 6951SOL    MW427572   0.024   5.990   3.766  0.2389  0.6816 -0.5967
 6952SOL     OW27573   2.410   3.976   2.285 -0.0792 -0.2670  0.4123
 6952SOL    HW227574   2.452   4.062   2.276  3.0084 -1.5633  1.3256
 6952SOL    HW327575   2.346   3.988   2.355 -0.5370  1.5314 -0.2582
 6952SOL    MW427576   2.407   3.989   2.293  0.2678 -0.2008  0.4443
 6953SOL     OW27577   0.505   5.715   6.242  0.4080 -0.4822 -0.4450
 6953SOL    HW227578   0.547   5.668   6.314  1.2686 -0.1975 -0.7534
 6953SOL    HW327579   0.509   5.655   6.168  0.6908 -0.2727 -0.6000
 6953SOL    MW427580   0.511   5.701   6.242  0.5588 -0.4170 -0.5062
 6954SOL     OW27581   0.070   4.637   4.947 -0.0919  0.4079  0.0591
 6954SOL    HW227582   0.113   4.723   4.946 -0.5091  0.6171 -0.0885
 6954SOL    HW327583   0.129   4.580   4.898 -0.0163  0.7093 -0.2048
 6954SOL    MW427584   0.083   4.641   4.941 -0.1369  0.4753  0.0048
 6955SOL     OW27585   4.867   5.158   3.157 -0.6135 -0.0781  0.6141
 6955SOL    HW227586   4.778   5.174   3.187 -0.9217  1.6026 -0.9665
 6955SOL    HW327587   4.913   5.241   3.173  0.5753 -0.7859  1.0363
 6955SOL    MW427588   4.861   5.171   3.163 -0.4973  0.0503  0.4612
 6956SOL     OW27589   1.537   0.366   1.384 -0.3951 -0.3197 -0.5118
 6956SOL    HW227590   1.617   0.394   1.340 -0.0203  0.8393  0.8376
 6956SOL    HW327591   1.518   0.279   1.347  1.5510 -0.6807 -0.7611
 6956SOL    MW427592   1.545   0.358   1.373 -0.0889 -0.2144 -0.3666
 6957SOL     OW27593   5.266   0.051   2.754 -0.2946 -0.9332 -0.2796
 6957SOL    HW227594   5.305  -0.020   2.805  1.1838  0.3273  0.4144
 6957SOL    HW327595   5.192   0.010   2.709 -1.3648 -2.2617  2.4288
 6957SOL    MW427596   5.261   0.036   2.755 -0.2408 -0.9422  0.1693
 6958SOL     OW27597   6.138   2.823   0.134 -0.2776  0.2410  0.0449
 6958SOL    HW227598   6.224   2.829   0.092  0.9248 -1.6419  2.0349
 6958SOL    HW327599   6.123   2.729   0.145 -2.3843  0.5549  0.2014
 6958SOL    MW427600   6.147   2.811   0.130 -0.3969  0.0340  0.3281
 6959SOL     OW27601   5.783   2.458   0.465 -0.3578 -0.1827  0.3980
 6959SOL    HW227602   5.791   2.553   0.472 -0.6580 -0.0750 -0.5949
 6959SOL    HW327603   5.718   2.434   0.530  0.2424  0.1991  1.1545
 6959SOL    MW427604   5.776   2.467   0.474 -0.3182 -0.1181  0.3668
 6960SOL     OW27605   5.032   1.853   1.957 -0.0121  0.3554  0.1041
 6960SOL    HW227606   5.076   1.769   1.974  0.1366  0.1831 -1.0295
 6960SOL    HW327607   5.104   1.917   1.956 -0.0708  0.4318  0.5004
 6960SOL    MW427608   5.048   1.850   1.959 -0.0002  0.3428  0.0068
 6961SOL     OW27609   4.459   3.330   3.651  0.5402 -0.3676  0.4863
 6961SOL    HW227610   4.391   3.351   3.715  0.6621  0.4786  0.3548
 6961SOL    HW327611   4.497   3.248   3.682  0.2958 -0.1999  1.2463
 6961SOL    MW427612   4.455   3.322   3.663  0.5240 -0.2338  0.5693
 6962SOL     OW27613   2.420   6.398   5.947  0.4616 -0.1784 -0.0125
 6962SOL    HW227614   2.406   6.485   5.984 -0.6486 -0.5635  0.5190
 6962SOL    HW327615   2.393   6.406   5.855  0.0880 -0.0296  0.1083
 6962SOL    MW427616   2.415   6.411   5.939  0.2658 -0.2096  0.0736
 6963SOL     OW27617   2.591   1.729   5.247 -0.4707 -0.4945 -0.2599
 6963SOL    HW227618   2.525   1.708   5.313  0.4171 -0.8686  0.5250
 6963SOL    HW327619   2.547   1.714   5.163 -2.0629  1.3358  0.1960
 6963SOL    MW427620   2.577   1.724   5.245 -0.5636 -0.3024 -0.0962
 6964SOL     OW27621   3.110   2.779   5.349  0.1388  0.3067  0.1630
 6964SOL    HW227622   3.075   2.691   5.362  0.1721  0.6055  2.7922
 6964SOL    HW327623   3.038   2.829   5.311 -0.1612 -0.5889 -0.4913
 6964SOL    MW427624   3.096   2.774   5.345  0.1036  0.2280  0.4236
 6965SOL     OW27625   4.003   4.978   3.926 -0.0096 -0.5325  0.0290
 6965SOL    HW227626   3.929   4.918   3.914  0.3846 -1.1869  0.7667
 6965SOL    HW327627   4.054   4.939   3.997 -0.1390  1.0549  1.0583
 6965SOL    MW427628   4.000   4.965   3.934  0.0254 -0.4094  0.2621
 6966SOL     OW27629   2.097   1.886   5.198 -0.2424 -0.1432  0.6552
 6966SOL    HW227630   2.156   1.812   5.186 -0.1174  0.2168 -1.2294
 6966SOL    HW327631   2.010   1.849   5.190 -0.2671 -0.4268  1.9682
 6966SOL    MW427632   2.094   1.871   5.195 -0.2291 -0.1331  0.5798
 6967SOL     OW27633   2.763   2.662   6.372  1.0061  0.1209  0.1140
 6967SOL    HW227634   2.762   2.729   6.302 -0.4412 -1.2149 -1.2308
 6967SOL    HW327635   2.804   2.586   6.331 -0.5225 -0.9179  0.4511
 6967SOL    MW427636   2.768   2.661   6.357  0.6134 -0.1924 -0.0190
 6968SOL     OW27637   4.900   3.120   4.969 -0.2954 -0.0862 -1.0872
 6968SOL    HW227638   4.993   3.105   4.988 -0.5864  0.5376  1.1458
 6968SOL    HW327639   4.875   3.049   4.910  0.9085 -2.0550  0.6331
 6968SOL    MW427640   4.909   3.109   4.964 -0.1749 -0.2636 -0.5656
 6969SOL     OW27641   2.275   3.862   3.528  0.2539  0.1415 -0.4393
 6969SOL    HW227642   2.368   3.852   3.507  0.1509 -0.7723 -0.4904
 6969SOL    HW327643   2.274   3.920   3.604  0.7902  1.1500 -1.1626
 6969SOL    MW427644   2.287   3.868   3.535  0.3111  0.1540 -0.5415
 6970SOL     OW27645   2.139   1.854   0.383  0.0589  0.1068 -0.6815
 6970SOL    HW227646   2.057   1.841   0.430  0.9324  0.2162  0.9589
 6970SOL    HW327647   2.207   1.825   0.444  1.3852  2.1126 -1.0959
 6970SOL    MW427648   2.137   1.848   0.397  0.3491  0.3859 -0.5198
 6971SOL     OW27649   5.188   5.994   3.953 -0.3363 -0.0508  0.3693
 6971SOL    HW227650   5.232   5.980   3.869 -0.3529  0.4079  0.2782
 6971SOL    HW327651   5.154   5.908   3.978  0.7278 -0.4456  0.5038
 6971SOL    MW427652   5.189   5.981   3.945 -0.1981 -0.0423  0.3750
 6972SOL     OW27653   5.839   0.993   3.998  0.1113  0.1469  0.7251
 6972SOL    HW227654   5.895   0.926   4.037  0.8577  0.6564  0.5304
 6972SOL    HW327655   5.754   0.981   4.042  0.0216 -1.3742  0.2045
 6972SOL    MW427656   5.835   0.982   4.009  0.1980  0.0134  0.6307
 6973SOL     OW27657   1.092   1.075   0.450  0.4659 -0.0849  0.4988
 6973SOL    HW227658   1.186   1.096   0.452  0.3750  0.5287 -0.7597
 6973SOL    HW327659   1.048   1.158   0.469  0.1543  0.3074 -1.7126
 6973SOL    MW427660   1.099   1.089   0.453  0.4128  0.0478  0.0410
 6974SOL     OW27661   5.821   1.500   5.403  0.4895 -1.3503 -0.7442
 6974SOL    HW227662   5.906   1.542   5.384 -0.1915 -0.0408 -1.0075
 6974SOL    HW327663   5.761   1.537   5.338 -0.6318 -1.0548  0.4254
 6974SOL    MW427664   5.825   1.510   5.392  0.2517 -1.1385 -0.6246
 6975SOL     OW27665   1.612   3.004   4.173  0.4395 -0.1947 -0.1705
 6975SOL    HW227666   1.532   2.992   4.122 -0.0058  1.4589  0.0937
 6975SOL    HW327667   1.664   2.925   4.154 -2.1293 -2.4700  1.3890
 6975SOL    MW427668   1.608   2.992   4.164  0.0418 -0.2767  0.0701
 6976SOL     OW27669   4.208   3.196   4.792  0.0093 -0.4930 -0.2807
 6976SOL    HW227670   4.282   3.157   4.745  0.6738 -0.5119  0.7478
 6976SOL    HW327671   4.132   3.174   4.739  0.6465 -1.1966 -0.9286
 6976SOL    MW427672   4.208   3.188   4.779  0.1810 -0.5883 -0.2305
 6977SOL     OW27673   4.590   2.958   1.979 -0.7371  0.4712 -0.7832
 6977SOL    HW227674   4.563   3.038   2.024 -0.2564  0.8613 -1.1850
 6977SOL    HW327675   4.673   2.980   1.938 -1.2490  0.1728 -2.0294
 6977SOL    MW427676   4.597   2.971   1.980 -0.7413  0.4833 -1.0006
 6978SOL     OW27677   2.880   6.063   0.470 -0.3362  0.0843  0.0819
 6978SOL    HW227678   2.800   6.117   0.473 -0.6589 -0.2627 -1.3533
 6978SOL    HW327679   2.941   6.114   0.417  0.1863  0.0821  0.6843
 6978SOL    MW427680   2.877   6.077   0.463 -0.3098  0.0382 -0.0280
 6979SOL     OW27681   1.216   5.636   1.689  0.2589  0.4432 -0.3736
 6979SOL    HW227682   1.123   5.653   1.705  0.0988  0.5674 -1.3868
 6979SOL    HW327683   1.246   5.593   1.769 -0.3668  1.5428  0.4806
 6979SOL    MW427684   1.207   5.633   1.702  0.1552  0.6047 -0.3946
 6980SOL     OW27685   4.759   6.039   2.589 -0.1511 -0.3191 -0.6829
 6980SOL    HW227686   4.681   6.026   2.642  0.3098  1.5870  0.6013
 6980SOL    HW327687   4.806   5.956   2.594 -1.4631 -1.0611 -0.3989
 6980SOL    MW427688   4.755   6.026   2.597 -0.2634 -0.1655 -0.4760
 6981SOL     OW27689   2.532   0.754   4.190 -0.1644 -0.0414  0.2987
 6981SOL    HW227690   2.501   0.835   4.230  0.3808  1.2561 -1.7152
 6981SOL    HW327691   2.495   0.684   4.244 -4.6015  1.3965 -0.4438
 6981SOL    MW427692   2.523   0.755   4.202 -0.6779  0.3195 -0.0649
 6982SOL     OW27693   0.879   0.160   3.194  0.1104  0.1897  0.1333
 6982SOL    HW227694   0.947   0.103   3.157  0.5817  2.1579 -2.3406
 6982SOL    HW327695   0.928   0.229   3.239 -0.2568  0.8220 -0.4114
 6982SOL    MW427696   0.895   0.162   3.195  0.1241  0.5328 -0.2650
 6983SOL     OW27697   3.279   0.705   3.770  0.2848 -0.6855  0.2505
 6983SOL    HW227698   3.276   0.790   3.727 -0.0882 -1.4148 -1.2253
 6983SOL    HW327699   3.297   0.642   3.700 -0.3817 -1.9286  1.1395
 6983SOL    MW427700   3.281   0.708   3.755  0.1477 -0.9457  0.1731
 6984SOL     OW27701   3.789   0.717   2.873 -0.5442 -0.0995 -0.1705
 6984SOL    HW227702   3.793   0.626   2.846 -2.0235  0.1919 -1.5259
 6984SOL    HW327703   3.696   0.740   2.866 -0.3274  1.2682  0.9876
 6984SOL    MW427704   3.777   0.708   2.868 -0.7108  0.1194 -0.1965
 6985SOL     OW27705   6.390   2.314   4.574  0.0080 -0.3429  0.4268
 6985SOL    HW227706   6.478   2.312   4.612  0.8803  1.3790 -1.3292
 6985SOL    HW327707   6.381   2.403   4.539 -1.9153 -0.8954 -0.6226
 6985SOL    MW427708   6.401   2.325   4.574 -0.1307 -0.1886  0.0567
 6986SOL     OW27709   4.816   5.710   3.651 -0.5307  0.0455 -0.4711
 6986SOL    HW227710   4.903   5.673   3.640  0.1189  0.2645  3.0875
 6986SOL    HW327711   4.830   5.804   3.659 -0.9897  0.0308  0.7122
 6986SOL    MW427712   4.829   5.718   3.650 -0.5056  0.0724  0.1545
 6987SOL     OW27713   5.261   6.367   0.232  0.8487 -0.2044  0.7633
 6987SOL    HW227714   5.350   6.396   0.211  0.8547 -0.7154  0.0355
 6987SOL    HW327715   5.206   6.413   0.169  0.7396 -0.8571  0.3742
 6987SOL    MW427716   5.266   6.377   0.221  0.8351 -0.3580  0.6160
 6988SOL     OW27717   4.571   1.982   1.569 -0.3156 -0.0019 -0.2256
 6988SOL    HW227718   4.627   1.932   1.510 -0.0483  0.0173  0.0084
 6988SOL    HW327719   4.577   2.072   1.537 -1.4652 -0.2452 -1.1625
 6988SOL    MW427720   4.579   1.987   1.557 -0.4320 -0.0315 -0.3184
 6989SOL     OW27721   1.309   3.709   5.866 -0.3795 -0.5670 -0.9945
 6989SOL    HW227722   1.221   3.733   5.896 -0.0863  1.4188 -1.5972
 6989SOL    HW327723   1.319   3.617   5.892 -2.7195 -0.9212 -1.1412
 6989SOL    MW427724   1.299   3.700   5.874 -0.6496 -0.3517 -1.0934
 6990SOL     OW27725   0.668   4.975   1.520 -0.0827 -0.0569  0.2065
 6990SOL    HW227726   0.582   4.993   1.559 -0.3625 -0.6542 -0.1163
 6990SOL    HW327727   0.708   5.061   1.511 -0.4281  0.1817  0.8570
 6990SOL    MW427728   0.662   4.989   1.524 -0.1652 -0.1042  0.2498
 6991SOL     OW27729   4.638   2.884   1.372  0.2929 -0.2316  0.1666
 6991SOL    HW227730   4.687   2.843   1.301 -0.9455  0.4986 -1.1796
 6991SOL    HW327731   4.703   2.932   1.423  0.8405  2.6261 -2.8929
 6991SOL    MW427732   4.653   2.885   1.369  0.2018  0.2418 -0.4146
 6992SOL     OW27733   0.557   1.501   6.178  0.4483 -0.0129  0.0820
 6992SOL    HW227734   0.513   1.425   6.141 -0.3718  0.0682  0.8704
 6992SOL    HW327735   0.488   1.566   6.190  1.0443  0.6628 -0.0675
 6992SOL    MW427736   0.542   1.500   6.175  0.4188  0.0870  0.1663
 6993SOL     OW27737   1.446   5.154   6.257  0.2361  0.0720  0.0914
 6993SOL    HW227738   1.471   5.168   6.165 -0.3191 -1.8672 -0.3913
 6993SOL    HW327739   1.527   5.169   6.306  0.7760  0.1916 -0.8052
 6993SOL    MW427740   1.460   5.158   6.251  0.2341 -0.1680 -0.0906
 6994SOL     OW27741   5.732   3.998   1.051 -0.0981 -0.4254  0.1093
 6994SOL    HW227742   5.653   3.973   1.003 -0.4995 -0.1878  0.6324
 6994SOL    HW327743   5.790   3.922   1.043  0.0872 -0.1662 -1.2391
 6994SOL    MW427744   5.729   3.985   1.044 -0.1266 -0.3598  0.0004
 6995SOL     OW27745   3.160   0.604   3.319  0.4253 -0.0885 -0.4348
 6995SOL    HW227746   3.247   0.638   3.340 -0.1339  1.1383 -0.0148
 6995SOL    HW327747   3.155   0.520   3.366  0.5766  0.8664  1.3951
 6995SOL    MW427748   3.170   0.598   3.328  0.3715  0.1994 -0.1379
 6996SOL     OW27749   3.431   3.080   0.524 -0.1529  0.1719  0.2133
 6996SOL    HW227750   3.494   3.151   0.535  1.5403 -1.3270  0.7960
 6996SOL    HW327751   3.346   3.121   0.538  0.6876  2.2366 -0.3278
 6996SOL    MW427752   3.428   3.095   0.528  0.1814  0.2465  0.2188
 6997SOL     OW27753   1.027   2.141   3.425 -0.2345  0.6490 -0.6227
 6997SOL    HW227754   1.091   2.161   3.357  1.4363  1.7294  1.1432
 6997SOL    HW327755   0.947   2.187   3.398 -0.5126 -1.1102 -3.1233
 6997SOL    MW427756   1.025   2.150   3.413 -0.0508  0.5594 -0.7196
 6998SOL     OW27757   0.855   1.910   1.198  0.5084 -0.2488 -0.1279
 6998SOL    HW227758   0.892   1.965   1.129  0.0328 -0.0567 -0.2322
 6998SOL    HW327759   0.848   1.823   1.157  0.6838 -0.2494 -0.1598
 6998SOL    MW427760   0.859   1.905   1.183  0.4688 -0.2235 -0.1458
 6999SOL     OW27761   2.327   5.252   1.738 -0.2407  0.6699 -0.2617
 6999SOL    HW227762   2.237   5.284   1.749 -0.9431 -1.0235 -0.7060
 6999SOL    HW327763   2.335   5.234   1.645  0.6453  1.0182 -0.2558
 6999SOL    MW427764   2.316   5.254   1.727 -0.2165  0.4924 -0.3196
 7000SOL     OW27765   0.698   4.983   2.586 -0.1201  0.1373 -0.5561
 7000SOL    HW227766   0.607   5.007   2.607  0.1786 -0.0710  1.1062
 7000SOL    HW327767   0.690   4.917   2.517 -1.2790 -0.4190  0.0813
 7000SOL    MW427768   0.685   4.977   2.579 -0.2336  0.0364 -0.2527
 7001SOL     OW27769   4.840   1.330   5.068  0.1185  0.0102 -0.3115
 7001SOL    HW227770   4.772   1.270   5.037  0.4138 -0.8349  0.6126
 7001SOL    HW327771   4.919   1.276   5.072  1.0589  1.1589 -2.1037
 7001SOL    MW427772   4.842   1.315   5.064  0.2816  0.0503 -0.4260
 7002SOL     OW27773   0.461   1.128   3.925 -0.6956  0.1854 -0.5128
 7002SOL    HW227774   0.543   1.118   3.973 -1.4303 -0.8102  0.5852
 7002SOL    HW327775   0.479   1.090   3.839  0.6818  2.1344 -1.1750
 7002SOL    MW427776   0.474   1.122   3.920 -0.6108  0.3112 -0.4553
 7003SOL     OW27777   3.577   3.654   3.410 -0.2472 -0.3610  0.0436
 7003SOL    HW227778   3.668   3.649   3.440 -0.4868 -1.3499  0.6641
 7003SOL    HW327779   3.582   3.696   3.324  0.8553 -0.8172 -0.1340
 7003SOL    MW427780   3.590   3.659   3.402 -0.1333 -0.5517  0.1020
 7004SOL     OW27781   5.203   5.866   6.272  0.3558 -0.7283  0.0550
 7004SOL    HW227782   5.150   5.787   6.261 -0.4177 -0.1997 -0.0471
 7004SOL    HW327783   5.149   5.924   6.324  0.9791 -0.3103  0.2437
 7004SOL    MW427784   5.189   5.863   6.277  0.3360 -0.6034  0.0664
 7005SOL     OW27785   6.021   3.340   1.044  0.4574 -0.1259 -0.6033
 7005SOL    HW227786   5.976   3.420   1.016 -0.0782 -0.4877 -0.7727
 7005SOL    HW327787   5.977   3.315   1.125  1.2233  0.2501 -0.0495
 7005SOL    MW427788   6.009   3.347   1.051  0.4878 -0.1240 -0.5526
 7006SOL     OW27789   3.760   3.381   0.766 -0.0083  0.2293  0.2400
 7006SOL    HW227790   3.792   3.427   0.689  0.9612  1.4885  1.3612
 7006SOL    HW327791   3.718   3.449   0.819  1.3780 -0.1275  1.8874
 7006SOL    MW427792   3.759   3.396   0.763  0.3025  0.3484  0.6053
 7007SOL     OW27793   5.613   0.717   4.854  0.3061 -0.5518 -1.0359
 7007SOL    HW227794   5.604   0.624   4.833 -1.3231 -0.4224 -1.0047
 7007SOL    HW327795   5.561   0.729   4.933  1.7326  0.1117 -0.1543
 7007SOL    MW427796   5.605   0.706   4.861  0.2793 -0.4472 -0.9155
 7008SOL     OW27797   3.665   3.740   1.877  0.2008  0.5957 -0.1109
 7008SOL    HW227798   3.655   3.810   1.940  1.2841 -0.7638  1.6659
 7008SOL    HW327799   3.758   3.741   1.854  0.4971 -0.9394  0.8582
 7008SOL    MW427800   3.676   3.749   1.882  0.3828  0.2138  0.2514
 7009SOL     OW27801   2.569   0.900   5.629 -0.4044 -0.4813 -0.0175
 7009SOL    HW227802   2.585   0.992   5.605 -0.9264 -0.4510 -0.2654
 7009SOL    HW327803   2.484   0.902   5.674 -0.5097 -0.8710 -0.2006
 7009SOL    MW427804   2.560   0.913   5.632 -0.4871 -0.5287 -0.0744
 7010SOL     OW27805   2.766   1.238   2.188 -0.1480 -0.5145 -0.1157
 7010SOL    HW227806   2.682   1.283   2.179  0.4728  1.1444  1.5872
 7010SOL    HW327807   2.753   1.175   2.259  0.2086  0.2613  0.6579
 7010SOL    MW427808   2.753   1.236   2.196 -0.0191 -0.1933  0.2110
 7011SOL     OW27809   2.769   4.984   0.560  0.4483 -0.1553  0.4413
 7011SOL    HW227810   2.797   4.999   0.470  1.2245  0.6722  0.8020
 7011SOL    HW327811   2.678   4.956   0.553  0.0746  1.1768 -0.5377
 7011SOL    MW427812   2.761   4.983   0.547  0.5014  0.1296  0.3597
 7012SOL     OW27813   4.841   4.158   1.923  0.4364  0.0194 -0.3659
 7012SOL    HW227814   4.791   4.076   1.929 -1.0960  0.6254 -3.0479
 7012SOL    HW327815   4.911   4.139   1.861 -0.7455  1.0065 -2.0976
 7012SOL    MW427816   4.843   4.145   1.916  0.0783  0.2296 -0.9483
 7013SOL     OW27817   0.031   5.709   0.011  0.6574 -0.0107  0.0263
 7013SOL    HW227818   0.027   5.655  -0.067 -0.0436 -0.2179  0.1951
 7013SOL    HW327819  -0.013   5.657   0.079 -0.4926  0.9633  0.0703
 7013SOL    MW427820   0.025   5.695   0.010  0.4132  0.0905  0.0544
 7014SOL     OW27821   1.935   0.323   5.942  0.2771 -0.8304 -0.0099
 7014SOL    HW227822   1.955   0.237   5.906 -0.0241 -1.3168  0.9745
 7014SOL    HW327823   1.877   0.306   6.016  0.8186  0.1629  0.6618
 7014SOL    MW427824   1.930   0.310   5.947  0.3088 -0.7636  0.2086
 7015SOL     OW27825   6.324   5.283   0.340 -0.0292 -0.3583  0.1017
 7015SOL    HW227826   6.235   5.305   0.365 -0.2979 -0.4139 -0.7708
 7015SOL    HW327827   6.378   5.311   0.414 -0.6289  0.8352  0.1040
 7015SOL    MW427828   6.319   5.290   0.353 -0.1438 -0.2082 -0.0131
 7016SOL     OW27829   0.007   6.021   1.206  0.2796  0.2042  0.1044
 7016SOL    HW227830  -0.028   5.938   1.237  1.2632  0.0136  0.7661
 7016SOL    HW327831   0.083   6.037   1.262  0.0301  1.6143  0.0766
 7016SOL    MW427832   0.013   6.012   1.218  0.3765  0.3651  0.1880
 7017SOL     OW27833   4.507   2.572   5.236  0.2354  0.0311  0.5228
 7017SOL    HW227834   4.525   2.660   5.272  1.0814  0.2853 -0.4729
 7017SOL    HW327835   4.530   2.579   5.144 -1.7790 -0.6508 -0.0746
 7017SOL    MW427836   4.513   2.585   5.229  0.0813 -0.0253  0.3126
 7018SOL     OW27837   5.681   3.401  -0.001  0.1231 -0.6227  0.1128
 7018SOL    HW227838   5.596   3.444  -0.014  0.8279  0.6014 -0.6349
 7018SOL    HW327839   5.746   3.470  -0.018  1.2949 -1.8803 -0.7236
 7018SOL    MW427840   5.678   3.416  -0.005  0.3707 -0.6271 -0.0962
 7019SOL     OW27841   6.185   3.810   1.385  0.4679  0.2573  0.3848
 7019SOL    HW227842   6.169   3.776   1.473 -0.0003 -2.7795 -0.7459
 7019SOL    HW327843   6.279   3.823   1.380  0.6664 -0.8951  0.9151
 7019SOL    MW427844   6.195   3.807   1.396  0.4323 -0.2954  0.3056
 7020SOL     OW27845   4.218   1.141   4.147  0.0977  0.1667  0.2212
 7020SOL    HW227846   4.142   1.196   4.162 -0.6740 -0.4980 -1.0473
 7020SOL    HW327847   4.291   1.203   4.140 -0.6667  1.0086 -0.6944
 7020SOL    MW427848   4.218   1.157   4.148 -0.1050  0.1900 -0.0670
 7021SOL     OW27849   2.507   3.150   6.143 -0.2946 -0.4536 -0.4332
 7021SOL    HW227850   2.447   3.152   6.218 -0.6591 -1.9450 -0.6560
 7021SOL    HW327851   2.458   3.193   6.073  0.2688  1.4671  0.3061
 7021SOL    MW427852   2.493   3.156   6.144 -0.2683 -0.3970 -0.3650
 7022SOL     OW27853   0.399   0.926   3.017 -0.4433  0.4984 -0.3634
 7022SOL    HW227854   0.325   0.961   2.967 -0.3356  2.3596  0.6927
 7022SOL    HW327855   0.360   0.855   3.069 -1.1594  0.4586 -0.9356
 7022SOL    MW427856   0.384   0.921   3.017 -0.5236  0.7387 -0.2996
 7023SOL     OW27857   5.074   4.472   1.807  0.3294 -0.1295  0.2592
 7023SOL    HW227858   5.047   4.459   1.898  0.9682  0.4731  0.5418
 7023SOL    HW327859   5.113   4.559   1.805  0.4224 -0.1792 -0.5727
 7023SOL    MW427860   5.076   4.481   1.819  0.4259 -0.0565  0.1867
 7024SOL     OW27861   3.788   2.158   3.464 -0.1555 -0.2216  0.2708
 7024SOL    HW227862   3.737   2.125   3.390 -0.7314  0.6035  0.2774
 7024SOL    HW327863   3.847   2.223   3.426  0.1711 -0.4308  0.4156
 7024SOL    MW427864   3.789   2.162   3.449 -0.1884 -0.1404  0.2908
 7025SOL     OW27865   0.794   3.831   0.168  0.0994  0.2863  0.1554
 7025SOL    HW227866   0.832   3.906   0.214  1.4744 -0.3599  0.1275
 7025SOL    HW327867   0.705   3.824   0.203  0.8961  0.1816  2.2793
 7025SOL    MW427868   0.787   3.840   0.179  0.3859  0.1873  0.4320
 7026SOL     OW27869   1.310   0.750   2.389  0.1651  0.4064 -0.4552
 7026SOL    HW227870   1.224   0.722   2.359 -1.0392  1.1917  1.9605
 7026SOL    HW327871   1.309   0.845   2.381  0.6465  0.4521 -0.0365
 7026SOL    MW427872   1.299   0.759   2.384  0.0697  0.5160 -0.0812
 7027SOL     OW27873   2.513   3.253   3.128  0.1225  0.6199 -0.2425
 7027SOL    HW227874   2.512   3.346   3.154  0.7666  0.0501  2.0439
 7027SOL    HW327875   2.529   3.206   3.210  1.1047 -1.4578 -1.5680
 7027SOL    MW427876   2.515   3.259   3.142  0.3371  0.2706 -0.1157
 7028SOL     OW27877   5.175   4.935   1.107 -0.1564  0.3196 -0.2070
 7028SOL    HW227878   5.222   4.904   1.185  1.2578  1.5238 -0.5511
 7028SOL    HW327879   5.244   4.954   1.043 -1.2738 -0.2684 -1.6435
 7028SOL    MW427880   5.190   4.933   1.109 -0.1173  0.4009 -0.4419
 7029SOL     OW27881   5.081   1.104   1.235  0.3474  0.4261  0.3101
 7029SOL    HW227882   5.144   1.036   1.210  0.1199  0.0817  0.6642
 7029SOL    HW327883   5.078   1.099   1.331 -0.4586  0.2161  0.2826
 7029SOL    MW427884   5.089   1.094   1.244  0.2111  0.3529  0.3532
 7030SOL     OW27885   5.848   1.549   0.555  0.0009 -0.2980 -0.8210
 7030SOL    HW227886   5.835   1.644   0.561 -0.1585 -0.3126 -0.9468
 7030SOL    HW327887   5.760   1.513   0.545 -0.0812 -0.5625  0.6124
 7030SOL    MW427888   5.834   1.557   0.555 -0.0310 -0.3348 -0.6485
 7031SOL     OW27889   3.742   0.592   2.040  0.4214 -0.4319 -0.2914
 7031SOL    HW227890   3.834   0.581   2.063  0.5661 -0.9817 -1.0830
 7031SOL    HW327891   3.737   0.566   1.948 -0.6726 -1.2622 -0.0217
 7031SOL    MW427892   3.754   0.587   2.031  0.2962 -0.6140 -0.3603
 7032SOL     OW27893   2.149   1.040   0.266  0.2065  0.1114  0.1327
 7032SOL    HW227894   2.189   1.118   0.304 -0.2232  0.7175 -0.6336
 7032SOL    HW327895   2.221   0.995   0.223  0.5059 -0.0573  0.8052
 7032SOL    MW427896   2.164   1.044   0.266  0.1893  0.1691  0.1203
 7033SOL     OW27897   1.182   6.037   5.004 -0.9464 -0.8194 -0.7504
 7033SOL    HW227898   1.157   6.091   5.080 -0.2072 -2.4349  0.7115
 7033SOL    HW327899   1.212   6.100   4.939  0.2487  0.5392  1.0348
 7033SOL    MW427900   1.182   6.053   5.006 -0.6912 -0.8533 -0.3220
 7034SOL     OW27901   1.349   0.910   4.750 -0.1131 -0.1222 -0.2795
 7034SOL    HW227902   1.294   0.842   4.791  0.6692 -0.4868  0.2033
 7034SOL    HW327903   1.348   0.888   4.657 -1.8416  0.6595 -0.4732
 7034SOL    MW427904   1.342   0.898   4.743 -0.2380 -0.0672 -0.2414
 7035SOL     OW27905   3.369   6.050   4.606 -0.1976  0.1359  0.0757
 7035SOL    HW227906   3.393   6.094   4.525  1.2543 -0.5018  0.1217
 7035SOL    HW327907   3.426   6.088   4.673  0.4848 -1.1603  0.2719
 7035SOL    MW427908   3.380   6.060   4.604  0.0840 -0.1192  0.1077
 7036SOL     OW27909   4.354   5.954   4.452 -0.7436 -0.3880 -0.1556
 7036SOL    HW227910   4.426   5.928   4.395  0.1244  0.7320  0.4063
 7036SOL    HW327911   4.359   5.894   4.526 -0.6911 -0.6135 -0.3382
 7036SOL    MW427912   4.364   5.943   4.454 -0.6221 -0.2700 -0.1055
 7037SOL     OW27913   3.058   5.184   3.751  0.3694  0.0863  0.3772
 7037SOL    HW227914   2.969   5.165   3.723  0.5270 -0.3291  0.1515
 7037SOL    HW327915   3.085   5.106   3.800 -0.2502  1.1691  2.5783
 7037SOL    MW427916   3.050   5.171   3.754  0.3085  0.1743  0.6379
 7038SOL     OW27917   6.385   5.802   3.952  0.1644 -0.5667 -0.1118
 7038SOL    HW227918   6.399   5.713   3.984 -2.5954 -1.5241 -1.3178
 7038SOL    HW327919   6.306   5.832   3.997  0.6644  1.0443 -0.2420
 7038SOL    MW427920   6.377   5.794   3.962 -0.1337 -0.4805 -0.2881
 7039SOL     OW27921   4.011   6.212   1.603  0.2434  0.4066 -0.3804
 7039SOL    HW227922   3.935   6.155   1.613  0.2493  0.5373  0.4730
 7039SOL    HW327923   4.085   6.159   1.632  0.2941  0.7247  0.0906
 7039SOL    MW427924   4.011   6.198   1.608  0.2509  0.4658 -0.2056
 7040SOL     OW27925   0.666   4.286   2.891  0.0802 -0.6438  0.6979
 7040SOL    HW227926   0.758   4.312   2.895 -0.6313  2.3975  0.0400
 7040SOL    HW327927   0.618   4.369   2.895 -2.7161 -2.2080  2.5538
 7040SOL    MW427928   0.672   4.300   2.892 -0.3826 -0.4489  0.8560
 7041SOL     OW27929   3.975   2.941   3.767 -0.3299  0.0616 -0.3478
 7041SOL    HW227930   3.984   2.853   3.731  2.4893 -0.0099  0.2962
 7041SOL    HW327931   3.974   2.929   3.862 -1.7735  0.6581 -0.2502
 7041SOL    MW427932   3.976   2.928   3.775 -0.1484  0.1309 -0.2499
 7042SOL     OW27933   3.674   1.929   5.640  0.3470  0.0558 -0.1339
 7042SOL    HW227934   3.683   2.013   5.683  1.6801  0.5487 -1.2971
 7042SOL    HW327935   3.756   1.884   5.657 -0.1969 -0.8674  0.1458
 7042SOL    MW427936   3.686   1.934   5.648  0.4511 -0.0010 -0.2504
 7043SOL     OW27937   6.357   4.076   3.269 -0.1546  0.3196  0.0075
 7043SOL    HW227938   6.403   4.013   3.212 -1.7022  0.5479 -1.6026
 7043SOL    HW327939   6.304   4.021   3.327 -1.1668  0.0637 -1.1028
 7043SOL    MW427940   6.356   4.060   3.269 -0.4924  0.3160 -0.3514
 7044SOL     OW27941   1.700   4.239   2.894 -0.0638 -0.1346  0.0213
 7044SOL    HW227942   1.720   4.166   2.953 -0.4044  0.2141  0.5755
 7044SOL    HW327943   1.758   4.310   2.924 -0.2147  0.0352 -0.0880
 7044SOL    MW427944   1.711   4.239   2.906 -0.1287 -0.0662  0.0800
 7045SOL     OW27945   5.197   1.218   2.939  0.1673  0.5544  0.0378
 7045SOL    HW227946   5.233   1.243   2.854 -0.1516  1.1465  0.0746
 7045SOL    HW327947   5.111   1.260   2.943 -0.1957 -0.1786  0.2936
 7045SOL    MW427948   5.190   1.227   2.928  0.0773  0.5358  0.0764
 7046SOL     OW27949   0.367   0.556   5.882 -0.4231 -0.2767 -0.5511
 7046SOL    HW227950   0.398   0.569   5.793 -0.1163 -3.3150 -0.9905
 7046SOL    HW327951   0.291   0.614   5.891 -0.3117  0.2584 -2.6778
 7046SOL    MW427952   0.361   0.565   5.872 -0.3679 -0.6070 -0.8897
 7047SOL     OW27953   1.044   1.423   6.115  0.1084 -0.2236 -0.0196
 7047SOL    HW227954   1.033   1.494   6.179 -0.9121  1.0909 -1.5590
 7047SOL    HW327955   1.138   1.407   6.112  0.4568  1.6357 -0.1739
 7047SOL    MW427956   1.055   1.431   6.123  0.0197  0.1952 -0.2431
 7048SOL     OW27957   0.821   1.609   0.288 -0.3055  0.0690  0.4420
 7048SOL    HW227958   0.899   1.556   0.276 -1.0613 -0.7500 -1.2000
 7048SOL    HW327959   0.853   1.698   0.299  0.8562 -0.3058  0.1514
 7048SOL    MW427960   0.835   1.614   0.288 -0.2520 -0.0885  0.1870
 7049SOL     OW27961   0.138   1.720   4.659  0.3987  0.6706 -0.3854
 7049SOL    HW227962   0.049   1.754   4.670  0.6481  1.0509  0.5831
 7049SOL    HW327963   0.194   1.797   4.665  0.6950  0.7867 -3.3651
 7049SOL    MW427964   0.134   1.734   4.661  0.4707  0.7361 -0.6508
 7050SOL     OW27965   5.047   5.569   2.779 -0.1213  0.0511  0.1581
 7050SOL    HW227966   5.024   5.656   2.746  0.2006 -0.3887 -1.3125
 7050SOL    HW327967   5.040   5.512   2.703 -1.3953 -1.4485  1.3328
 7050SOL    MW427968   5.043   5.573   2.765 -0.2469 -0.2048  0.1191
 7051SOL     OW27969   3.503   3.901   4.029 -0.0126 -0.1923  0.6233
 7051SOL    HW227970   3.554   3.897   3.947  0.1900 -1.2107  0.7907
 7051SOL    HW327971   3.452   3.821   4.030 -1.5912  0.7626  0.5157
 7051SOL    MW427972   3.503   3.890   4.018 -0.1942 -0.2007  0.6312
 7052SOL     OW27973   0.791   1.133   3.065  0.3015 -0.1008 -0.2702
 7052SOL    HW227974   0.845   1.070   3.017 -0.2490 -2.1763  1.6551
 7052SOL    HW327975   0.854   1.187   3.113  0.7694  0.6363 -1.6649
 7052SOL    MW427976   0.807   1.132   3.065  0.2906 -0.2774 -0.2002
 7053SOL     OW27977   1.169   5.531   2.676 -0.0077 -0.0331  0.2113
 7053SOL    HW227978   1.259   5.560   2.686 -0.8631  2.2469  2.4559
 7053SOL    HW327979   1.176   5.439   2.649  2.9389  0.1086  0.1849
 7053SOL    MW427980   1.182   5.523   2.674  0.2682  0.2864  0.5039
 7054SOL     OW27981   1.138   2.226   3.175 -0.3154  0.4669  0.1561
 7054SOL    HW227982   1.130   2.146   3.123 -1.7556 -0.4687  1.6944
 7054SOL    HW327983   1.096   2.294   3.121  0.6853  0.1736 -1.0495
 7054SOL    MW427984   1.131   2.225   3.161 -0.3734  0.3047  0.2000
 7055SOL     OW27985   1.320   1.304   3.704 -0.0404 -0.6673  0.3387
 7055SOL    HW227986   1.396   1.362   3.712 -0.6753  0.3217 -0.5392
 7055SOL    HW327987   1.258   1.336   3.769 -1.2899  1.1299 -1.6361
 7055SOL    MW427988   1.322   1.316   3.713 -0.2890 -0.2997 -0.0377
 7056SOL     OW27989   5.316   5.586   0.163 -0.1417 -0.6617 -0.2186
 7056SOL    HW227990   5.380   5.530   0.119  0.4862 -0.8815  0.9426
 7056SOL    HW327991   5.245   5.526   0.188 -0.6828 -0.4719 -1.2253
 7056SOL    MW427992   5.315   5.571   0.161 -0.1302 -0.6657 -0.1982
 7057SOL     OW27993   0.930   5.535   1.994 -0.0554 -0.0736  0.3551
 7057SOL    HW227994   0.913   5.454   2.041 -0.0709 -0.1082  0.2898
 7057SOL    HW327995   0.951   5.507   1.905 -1.2020  0.0542  0.0277
 7057SOL    MW427996   0.931   5.521   1.989 -0.2087 -0.0613  0.3033
 7058SOL     OW27997   1.060   3.045   5.974 -0.7531 -0.6697 -0.0432
 7058SOL    HW227998   1.084   2.964   5.928 -1.2867 -0.5962 -0.4560
 7058SOL    HW327999   1.003   3.091   5.912 -0.4171  0.0419  0.1755
 7058SOL    MW428000   1.056   3.040   5.959 -0.7792 -0.5661 -0.0688
 7059SOL     OW28001   5.638   2.101   0.717  0.0378 -0.3936  0.1257
 7059SOL    HW228002   5.730   2.104   0.690 -0.1466 -1.9373 -0.7982
 7059SOL    HW328003   5.641   2.116   0.812  1.5372 -2.8746  0.5695
 7059SOL    MW428004   5.651   2.103   0.726  0.2113 -0.9246  0.0624
 7060SOL     OW28005   5.270   3.156   3.920 -0.3825  0.0967 -0.3691
 7060SOL    HW228006   5.301   3.240   3.885  0.9799 -0.2747 -0.1133
 7060SOL    HW328007   5.213   3.180   3.994  3.9359  0.9124  3.0833
 7060SOL    MW428008   5.266   3.170   3.925  0.3670  0.1553  0.1202
 7061SOL     OW28009   4.599   4.058   5.404  0.6785 -0.0616 -0.0407
 7061SOL    HW228010   4.654   4.136   5.394  2.0066 -1.0664 -1.0210
 7061SOL    HW328011   4.659   3.990   5.435 -0.6110 -0.5440  1.5828
 7061SOL    MW428012   4.614   4.059   5.407  0.6836 -0.2578  0.0441
 7062SOL     OW28013   4.371   6.231   6.357  0.3177  0.5236 -0.1452
 7062SOL    HW228014   4.347   6.180   6.434  0.6653 -2.2690 -1.7869
 7062SOL    HW328015   4.464   6.249   6.368  0.5282 -0.4921 -0.2512
 7062SOL    MW428016   4.380   6.227   6.368  0.3913  0.0212 -0.3758
 7063SOL     OW28017   1.095   2.283   0.115 -0.8106 -0.1487 -0.5451
 7063SOL    HW228018   1.112   2.201   0.068  1.5880 -1.3269  2.0733
 7063SOL    HW328019   1.011   2.269   0.159 -0.8586 -0.8197 -0.8392
 7063SOL    MW428020   1.086   2.270   0.114 -0.5005 -0.3927 -0.2384
 7064SOL     OW28021   2.504   6.094   0.199 -0.1131 -0.0428  0.1360
 7064SOL    HW228022   2.504   6.077   0.105  4.7120 -0.2333 -0.0341
 7064SOL    HW328023   2.477   6.011   0.239  0.2571 -0.7353 -1.0294
 7064SOL    MW428024   2.500   6.081   0.192  0.5723 -0.1593 -0.0402
 7065SOL     OW28025   0.983   4.609   5.055 -0.5874  0.2339 -0.2330
 7065SOL    HW228026   1.011   4.700   5.047  0.1888  0.1273  0.9227
 7065SOL    HW328027   1.014   4.583   5.142  0.9953 -1.7296 -1.3023
 7065SOL    MW428028   0.991   4.618   5.066 -0.2762 -0.0392 -0.2216
 7066SOL     OW28029   0.707   1.828   2.536  0.1246 -0.2540 -0.2163
 7066SOL    HW228030   0.730   1.920   2.543  0.9454 -0.4986  0.5193
 7066SOL    HW328031   0.714   1.794   2.625 -1.3914 -0.7641 -0.2537
 7066SOL    MW428032   0.711   1.835   2.548  0.0329 -0.3536 -0.1242
 7067SOL     OW28033   5.427   5.881   2.141  0.4124 -0.5375  0.2987
 7067SOL    HW228034   5.357   5.947   2.144  0.4861 -0.4375 -0.1499
 7067SOL    HW328035   5.461   5.879   2.230 -0.0505 -0.4637  0.4786
 7067SOL    MW428036   5.422   5.890   2.153  0.3611 -0.5146  0.2633
 7068SOL     OW28037   5.763   0.544   2.117  0.5546 -0.4270  0.0875
 7068SOL    HW228038   5.726   0.602   2.050  0.2778 -1.0967 -0.3453
 7068SOL    HW328039   5.725   0.575   2.199 -2.0279 -1.8887 -0.4628
 7068SOL    MW428040   5.753   0.556   2.119  0.1773 -0.7082 -0.0422
 7069SOL     OW28041   0.620   5.528   3.315 -0.0134 -0.1632 -0.0550
 7069SOL    HW228042   0.639   5.619   3.336  3.3311 -0.7951  0.2786
 7069SOL    HW328043   0.675   5.477   3.374 -0.1165 -2.3411 -1.6786
 7069SOL    MW428044   0.630   5.533   3.325  0.4142 -0.5339 -0.2252
 7070SOL     OW28045   1.904   4.716   3.750  0.0322 -0.6402  0.3860
 7070SOL    HW228046   1.946   4.631   3.751  0.9679 -0.1950  0.0123
 7070SOL    HW328047   1.934   4.756   3.668 -1.0429 -0.2692  0.1528
 7070SOL    MW428048   1.913   4.710   3.739  0.0138 -0.5325  0.3059
 7071SOL     OW28049   3.857   1.106   4.616  0.0451  0.2677 -0.0516
 7071SOL    HW228050   3.939   1.118   4.567 -0.0058  1.0625  0.0418
 7071SOL    HW328051   3.883   1.104   4.708  0.0789 -0.6450 -0.0768
 7071SOL    MW428052   3.871   1.107   4.622  0.0428  0.2522 -0.0426
 7072SOL     OW28053   6.139   0.674   2.986  0.4466  0.7247  0.2683
 7072SOL    HW228054   6.068   0.737   2.977 -0.1394  0.3824  2.0529
 7072SOL    HW328055   6.190   0.706   3.060  1.3151  0.1787 -0.0838
 7072SOL    MW428056   6.136   0.686   2.995  0.4839  0.6075  0.4573
 7073SOL     OW28057   5.092   0.237   0.560  0.3495 -0.2370 -0.3193
 7073SOL    HW228058   5.000   0.215   0.550  0.1399 -0.4192  1.7169
 7073SOL    HW328059   5.139   0.157   0.535 -0.1054 -0.6155  0.0328
 7073SOL    MW428060   5.086   0.224   0.555  0.2619 -0.3110 -0.0042
 7074SOL     OW28061   4.415   4.819   2.756 -0.5522  0.4272  0.3323
 7074SOL    HW228062   4.351   4.752   2.781  0.2183  0.3994  2.3964
 7074SOL    HW328063   4.386   4.848   2.670 -1.0696 -2.3834 -0.5710
 7074SOL    MW428064   4.403   4.814   2.748 -0.5188  0.0527  0.4854
 7075SOL     OW28065   6.057   5.216  -0.024  0.3003 -0.2722  0.0514
 7075SOL    HW228066   6.018   5.150  -0.081 -0.1735  1.1591 -1.3637
 7075SOL    HW328067   5.998   5.221   0.052 -1.3753  0.6354 -1.2545
 7075SOL    MW428068   6.044   5.208  -0.021  0.0167  0.0364 -0.3076
 7076SOL     OW28069   5.165   5.677   5.967 -1.0966  0.1047 -0.0221
 7076SOL    HW228070   5.140   5.747   5.906 -1.5499 -0.2778 -0.2851
 7076SOL    HW328071   5.137   5.597   5.923  0.5374 -0.3496 -0.2893
 7076SOL    MW428072   5.158   5.676   5.953 -0.9408 -0.0057 -0.0921
 7077SOL     OW28073   1.137   4.522   3.331  0.0234  0.1321  0.0187
 7077SOL    HW228074   1.063   4.566   3.372 -0.7827 -0.5544 -0.6641
 7077SOL    HW328075   1.177   4.588   3.275  0.2411  0.6466  0.7676
 7077SOL    MW428076   1.133   4.536   3.329 -0.0542  0.1094  0.0275
 7078SOL     OW28077   3.926   0.652   3.939  0.3694  0.4872  0.1340
 7078SOL    HW228078   3.861   0.586   3.914  1.2507 -0.3281 -0.0653
 7078SOL    HW328079   3.905   0.672   4.030 -1.5474  1.9147 -0.5473
 7078SOL    MW428080   3.915   0.646   3.948  0.2328  0.5679  0.0178
 7079SOL     OW28081   5.776   5.643   4.250  0.0144 -0.1517 -0.0138
 7079SOL    HW228082   5.702   5.675   4.198 -0.4776 -0.6253  0.3804
 7079SOL    HW328083   5.854   5.673   4.202 -0.4287 -0.1076 -0.7252
 7079SOL    MW428084   5.777   5.651   4.237 -0.1090 -0.2084 -0.0556
 7080SOL     OW28085   1.271   3.514   2.911  0.6147  1.2877  0.6082
 7080SOL    HW228086   1.213   3.528   2.836  0.7734 -0.3096  0.1485
 7080SOL    HW328087   1.288   3.602   2.945  1.5588  2.2071 -1.9831
 7080SOL    MW428088   1.265   3.528   2.905  0.7602  1.1982  0.2057
 7081SOL     OW28089   2.166   5.869   1.950 -0.8534  0.2284  0.0860
 7081SOL    HW228090   2.082   5.855   1.994 -0.6560 -1.0671  0.0862
 7081SOL    HW328091   2.229   5.821   2.004 -0.1655  0.9184 -0.0990
 7081SOL    MW428092   2.163   5.861   1.963 -0.7366  0.1485  0.0616
 7082SOL     OW28093   1.436   0.161   4.283 -0.4338 -0.5368 -0.5227
 7082SOL    HW228094   1.454   0.069   4.262  0.5850 -0.4655  0.0150
 7082SOL    HW328095   1.470   0.173   4.371  1.1096  0.8200 -1.2573
 7082SOL    MW428096   1.443   0.150   4.292 -0.0957 -0.3483 -0.5487
 7083SOL     OW28097   6.017   2.599   2.101 -0.2750  0.1968  0.6590
 7083SOL    HW228098   6.092   2.551   2.136  0.1023  0.3811  0.1112
 7083SOL    HW328099   5.986   2.547   2.028  0.0174  0.6756  0.1827
 7083SOL    MW428100   6.023   2.586   2.096 -0.1866  0.2843  0.5239
 7084SOL     OW28101   1.379   5.816   0.015 -0.1441 -0.0896  0.1229
 7084SOL    HW228102   1.409   5.803  -0.075 -0.8468 -1.1619  0.0309
 7084SOL    HW328103   1.376   5.911   0.026  1.3207  0.0573 -0.5108
 7084SOL    MW428104   1.382   5.827   0.005 -0.0435 -0.2117  0.0272
 7085SOL     OW28105   1.164   4.553   3.830  0.4947  0.1370 -0.1354
 7085SOL    HW228106   1.086   4.593   3.868  0.6290 -0.2632  0.5707
 7085SOL    HW328107   1.202   4.622   3.776 -1.2478 -0.1614 -1.8499
 7085SOL    MW428108   1.159   4.568   3.828  0.2825  0.0448 -0.2684
 7086SOL     OW28109   5.743   3.535   2.256  0.3763 -0.0596  0.5446
 7086SOL    HW228110   5.696   3.608   2.298  1.9267  2.2693 -1.4561
 7086SOL    HW328111   5.746   3.559   2.164  1.3000 -2.5270 -0.1318
 7086SOL    MW428112   5.737   3.548   2.250  0.7028 -0.0779  0.1914
 7087SOL     OW28113   4.343   1.427   5.541 -0.1506 -0.4742  0.0208
 7087SOL    HW228114   4.265   1.375   5.558 -0.3766 -0.5650 -1.2226
 7087SOL    HW328115   4.416   1.367   5.558 -0.3695 -0.6499  0.3409
 7087SOL    MW428116   4.342   1.412   5.546 -0.2093 -0.5093 -0.1010
 7088SOL     OW28117   4.093   1.571   5.852 -0.3476  0.8929 -0.7062
 7088SOL    HW228118   4.026   1.540   5.791  0.4169 -1.0251 -0.6398
 7088SOL    HW328119   4.078   1.519   5.931  0.6986  1.0420 -0.4034
 7088SOL    MW428120   4.082   1.560   5.855 -0.1087  0.6595 -0.6575
 7089SOL     OW28121   5.917   5.991   0.718 -0.2534 -0.0791 -0.2799
 7089SOL    HW228122   5.864   5.913   0.729  0.0645 -0.1287  1.2506
 7089SOL    HW328123   5.859   6.055   0.677 -0.6069 -1.0053 -1.2628
 7089SOL    MW428124   5.903   5.989   0.714 -0.2581 -0.2078 -0.2076
 7090SOL     OW28125   5.229   4.860   5.112  0.2371 -0.0541 -0.3684
 7090SOL    HW228126   5.141   4.865   5.075  0.2378 -1.1277 -0.5522
 7090SOL    HW328127   5.285   4.843   5.036  0.7016  1.2276 -0.3442
 7090SOL    MW428128   5.225   4.858   5.097  0.2985 -0.0266 -0.3895
 7091SOL     OW28129   0.879   2.549   0.505  0.5988  0.3152 -0.3454
 7091SOL    HW228130   0.898   2.470   0.556 -0.8628  0.4471  0.4630
 7091SOL    HW328131   0.862   2.617   0.570  0.9312  1.0731 -1.0317
 7091SOL    MW428132   0.879   2.547   0.520  0.4498  0.4326 -0.3293
 7092SOL     OW28133   4.151   5.038   4.542  0.6145  0.2321  0.3762
 7092SOL    HW228134   4.084   5.106   4.547  2.9341  2.7688 -0.5233
 7092SOL    HW328135   4.181   5.027   4.632  0.7656  1.0799  0.4455
 7092SOL    MW428136   4.146   5.046   4.554  0.9405  0.6787  0.2666
 7093SOL     OW28137   3.891   2.947   1.861 -0.3182  0.0385 -0.3981
 7093SOL    HW228138   3.885   2.892   1.783  0.6617  1.2564 -1.3620
 7093SOL    HW328139   3.872   3.035   1.830  2.6756  0.9675  0.1710
 7093SOL    MW428140   3.887   2.951   1.847  0.2061  0.3217 -0.4502
 7094SOL     OW28141   3.156   6.179   1.218 -0.4094  0.0735 -0.4062
 7094SOL    HW228142   3.192   6.243   1.157  0.4325  0.3946  0.4171
 7094SOL    HW328143   3.217   6.105   1.215 -1.1623 -0.5488 -1.0479
 7094SOL    MW428144   3.168   6.178   1.209 -0.3976  0.0337 -0.3823
 7095SOL     OW28145   5.656   2.107   3.640 -0.1406 -0.4383 -0.2757
 7095SOL    HW228146   5.642   2.077   3.729 -1.7538  0.7388 -0.0908
 7095SOL    HW328147   5.653   2.202   3.646 -0.3492 -0.3460 -1.5952
 7095SOL    MW428148   5.654   2.115   3.652 -0.3810 -0.2708 -0.4254
 7096SOL     OW28149   2.346   0.980   2.053  0.5960 -0.3662  0.3923
 7096SOL    HW228150   2.366   1.063   2.010  1.2358 -0.0025  1.3482
 7096SOL    HW328151   2.251   0.974   2.051  0.5099  0.6701  0.7935
 7096SOL    MW428152   2.336   0.990   2.047  0.6690 -0.1815  0.5714
 7097SOL     OW28153   4.467   3.878   6.081 -0.4851  0.1934  0.3108
 7097SOL    HW228154   4.399   3.822   6.119  0.6481 -1.3144  0.2164
 7097SOL    HW328155   4.496   3.933   6.153  0.5777 -1.5765  1.3097
 7097SOL    MW428156   4.462   3.878   6.096 -0.1954 -0.2391  0.4301
 7098SOL     OW28157   4.126   1.186   3.238  0.2757 -0.1323 -0.0784
 7098SOL    HW228158   4.211   1.143   3.248 -0.2274 -0.9447  0.9160
 7098SOL    HW328159   4.146   1.268   3.194  1.3634 -1.0455 -1.4043
 7098SOL    MW428160   4.140   1.191   3.233  0.3528 -0.3599 -0.1222
 7099SOL     OW28161   4.308   6.364   0.946 -0.1657  0.7046 -0.0836
 7099SOL    HW228162   4.245   6.415   0.997 -1.3302  1.9223 -2.5564
 7099SOL    HW328163   4.268   6.277   0.940 -0.3360  0.7337  0.4833
 7099SOL    MW428164   4.294   6.359   0.952 -0.3418  0.8691 -0.3351
 7100SOL     OW28165   6.273   6.109   1.568  0.3872 -0.6747 -0.0888
 7100SOL    HW228166   6.316   6.171   1.627 -0.9961  0.5393 -0.2870
 7100SOL    HW328167   6.185   6.099   1.604 -0.2021 -0.5902 -1.4292
 7100SOL    MW428168   6.267   6.116   1.580  0.1269 -0.5033 -0.2918
 7101SOL     OW28169   4.826   0.992   1.958  0.5621  0.3335 -0.1479
 7101SOL    HW228170   4.757   1.017   2.019  2.9644  1.2488  2.4081
 7101SOL    HW328171   4.825   0.896   1.957  0.5661  0.2838  1.5561
 7101SOL    MW428172   4.817   0.983   1.966  0.8795  0.4477  0.4142
 7102SOL     OW28173   4.110   4.382   3.233  0.2491 -0.4745 -0.0836
 7102SOL    HW228174   4.027   4.377   3.280 -0.5726 -0.5665 -1.4935
 7102SOL    HW328175   4.087   4.364   3.142  2.0131 -1.7493 -0.3219
 7102SOL    MW428176   4.096   4.379   3.227  0.3735 -0.6549 -0.3011
 7103SOL     OW28177   5.077   2.779   3.978  0.1384  0.3572 -0.4929
 7103SOL    HW228178   5.053   2.691   3.950 -0.4367 -0.0228  1.0674
 7103SOL    HW328179   5.073   2.775   4.074  3.9776  0.9439 -0.1438
 7103SOL    MW428180   5.074   2.767   3.987  0.5691  0.3845 -0.2410
 7104SOL     OW28181   3.616   5.267   3.885  0.3721  0.1526  0.2414
 7104SOL    HW228182   3.706   5.279   3.914  0.8418  0.5661 -1.2758
 7104SOL    HW328183   3.614   5.178   3.850  0.7561  0.7754 -1.4842
 7104SOL    MW428184   3.627   5.257   3.884  0.4847  0.2894 -0.1864
 7105SOL     OW28185   1.011   3.731   3.323 -0.3833  0.4776 -0.1865
 7105SOL    HW228186   1.031   3.730   3.416 -0.7649 -1.1389 -0.0931
 7105SOL    HW328187   1.094   3.714   3.280 -0.4340 -0.0845 -0.0714
 7105SOL    MW428188   1.025   3.728   3.330 -0.4404  0.1902 -0.1590
 7106SOL     OW28189   1.729   1.938   6.333 -0.1911  0.6867  0.4616
 7106SOL    HW228190   1.679   1.971   6.259  1.2474  0.5202 -0.6247
 7106SOL    HW328191   1.791   2.009   6.354 -1.3391  1.2304  2.3103
 7106SOL    MW428192   1.730   1.952   6.326 -0.1528  0.7365  0.5622
 7107SOL     OW28193   3.058   0.645   3.065 -0.0318 -0.0767 -0.1336
 7107SOL    HW228194   3.095   0.724   3.026  0.0860 -0.1498 -0.1702
 7107SOL    HW328195   3.088   0.647   3.156 -0.6307  0.2977  0.0644
 7107SOL    MW428196   3.067   0.656   3.072 -0.0953 -0.0370 -0.1123
 7108SOL     OW28197   1.192   0.366   3.755  0.2638 -0.3927 -0.2761
 7108SOL    HW228198   1.185   0.292   3.696 -1.9512  0.3340 -1.0238
 7108SOL    HW328199   1.200   0.442   3.698 -0.5535  0.2090  0.3863
 7108SOL    MW428200   1.192   0.366   3.740 -0.1363 -0.2174 -0.2873
 7109SOL     OW28201   3.714   0.152   4.776  0.3735 -0.0191  0.0879
 7109SOL    HW228202   3.681   0.239   4.753  0.4853  0.0826  0.3090
 7109SOL    HW328203   3.751   0.118   4.695  0.1741  0.0700 -0.0410
 7109SOL    MW428204   3.714   0.159   4.762  0.3620  0.0061  0.1001
 7110SOL     OW28205   1.400   3.067   1.956  0.9813  0.2399 -0.1685
 7110SOL    HW228206   1.313   3.060   1.995  0.2027 -2.0654 -2.0453
 7110SOL    HW328207   1.460   3.065   2.030 -0.5086  0.8864  1.1232
 7110SOL    MW428208   1.396   3.066   1.971  0.6820  0.0211 -0.2457
 7111SOL     OW28209   2.945   1.312   3.287  0.3600 -0.1771 -0.2185
 7111SOL    HW228210   2.852   1.329   3.270  0.6472 -0.4847 -2.4041
 7111SOL    HW328211   2.950   1.296   3.381 -1.8620 -0.5025 -0.1048
 7111SOL    MW428212   2.933   1.312   3.297  0.1047 -0.2606 -0.4918
 7112SOL     OW28213   4.359   4.480   2.163  0.0211 -0.3160  0.2380
 7112SOL    HW228214   4.451   4.504   2.177  0.0522 -1.1587  1.7363
 7112SOL    HW328215   4.361   4.385   2.150 -0.6213 -0.3264  0.1878
 7112SOL    MW428216   4.371   4.470   2.164 -0.0596 -0.4286  0.4290
 7113SOL     OW28217   0.186   3.642   2.533 -0.2881  0.2429 -0.1997
 7113SOL    HW228218   0.264   3.681   2.493 -0.0476 -1.3445 -1.3857
 7113SOL    HW328219   0.212   3.622   2.622  0.7756 -0.4623 -0.6439
 7113SOL    MW428220   0.200   3.644   2.539 -0.1160 -0.0596 -0.4148
 7114SOL     OW28221   0.821   6.032   4.449 -0.2058 -0.3057  0.0529
 7114SOL    HW228222   0.810   6.115   4.401  2.8685 -0.1728 -0.5941
 7114SOL    HW328223   0.876   6.055   4.523 -1.3378 -1.3777  1.2714
 7114SOL    MW428224   0.827   6.046   4.452  0.0505 -0.4296  0.1283
 7115SOL     OW28225   0.293   3.195   3.407  0.0608  0.2879 -0.2221
 7115SOL    HW228226   0.331   3.279   3.433 -2.8756  1.4573  0.7016
 7115SOL    HW328227   0.360   3.155   3.351  1.5766  3.2058 -0.7096
 7115SOL    MW428228   0.307   3.200   3.403 -0.1266  0.8272 -0.1646
 7116SOL     OW28229   4.415   1.172   2.929  0.2659 -0.7374  0.2569
 7116SOL    HW228230   4.497   1.213   2.956 -0.3277  0.2242  0.6625
 7116SOL    HW328231   4.347   1.226   2.971 -0.6988  0.4787 -2.6283
 7116SOL    MW428232   4.417   1.185   2.938  0.0603 -0.4501 -0.0703
 7117SOL     OW28233   5.143   4.568   3.561  0.2400  0.0561 -0.8239
 7117SOL    HW228234   5.122   4.649   3.607 -1.6767 -1.2013  0.7122
 7117SOL    HW328235   5.136   4.500   3.628  0.6927 -1.5148 -2.2827
 7117SOL    MW428236   5.139   4.570   3.576  0.0468 -0.3170 -0.8137
 7118SOL     OW28237   1.031   2.539   0.883  0.0529  0.4804  0.3867
 7118SOL    HW228238   0.982   2.617   0.910  0.0170  0.2100  1.1185
 7118SOL    HW328239   1.076   2.566   0.803  0.1247  1.2914  0.6922
 7118SOL    MW428240   1.031   2.553   0.876  0.0576  0.5518  0.5236
 7119SOL     OW28241   4.619   5.245   3.300 -0.2287 -0.8007  0.8120
 7119SOL    HW228242   4.533   5.220   3.335  0.0195  0.8511  2.8343
 7119SOL    HW328243   4.600   5.315   3.237 -0.4012 -0.6040  1.0790
 7119SOL    MW428244   4.605   5.251   3.297 -0.2187 -0.5568  1.1141
 7120SOL     OW28245   4.795   2.289   4.845 -0.6437  0.0162 -0.1811
 7120SOL    HW228246   4.781   2.374   4.886 -0.3002 -0.4227  0.8945
 7120SOL    HW328247   4.713   2.242   4.859 -0.8336  0.1627 -0.7753
 7120SOL    MW428248   4.782   2.294   4.852 -0.6234 -0.0223 -0.1176
 7121SOL     OW28249   5.759   5.720   0.730  0.6579  0.3896  0.6724
 7121SOL    HW228250   5.803   5.642   0.695  0.9051  0.5376  0.6516
 7121SOL    HW328251   5.770   5.713   0.824 -0.6888 -0.4186  0.7952
 7121SOL    MW428252   5.766   5.709   0.737  0.5129  0.3025  0.6859
 7122SOL     OW28253   5.190   4.543   4.501  0.4726  0.0307 -0.0015
 7122SOL    HW228254   5.121   4.480   4.518  0.1663  0.4700  0.4357
 7122SOL    HW328255   5.261   4.517   4.561 -0.3756  1.2112  1.6048
 7122SOL    MW428256   5.191   4.531   4.511  0.3203  0.2444  0.2681
 7123SOL     OW28257   3.709   0.874   2.060 -0.1073 -0.7727  0.1123
 7123SOL    HW228258   3.715   0.779   2.046  0.2928 -0.7805  0.3009
 7123SOL    HW328259   3.764   0.890   2.137 -0.4719 -0.4379  0.3046
 7123SOL    MW428260   3.717   0.864   2.069 -0.1026 -0.7295  0.1626
 7124SOL     OW28261   2.860   2.759   2.143 -0.0875  0.1098 -0.0318
 7124SOL    HW228262   2.951   2.747   2.168 -0.2622  0.8908  1.0582
 7124SOL    HW328263   2.814   2.685   2.182 -0.0807  0.3331  0.4094
 7124SOL    MW428264   2.866   2.748   2.151 -0.1097  0.2423  0.1702
 7125SOL     OW28265   0.817   4.497   1.619  0.1403 -0.5192  0.6927
 7125SOL    HW228266   0.855   4.430   1.562  0.7048 -0.1082  0.5707
 7125SOL    HW328267   0.889   4.522   1.677  0.6839  1.6269 -0.7594
 7125SOL    MW428268   0.832   4.492   1.619  0.2865 -0.1818  0.4850
 7126SOL     OW28269   3.279   1.526   6.006 -0.3609 -0.0899 -0.2972
 7126SOL    HW228270   3.193   1.565   5.988 -0.8523 -1.3582 -0.8258
 7126SOL    HW328271   3.340   1.599   6.001 -1.4814  0.9644  0.7401
 7126SOL    MW428272   3.276   1.541   6.003 -0.5735 -0.1181 -0.2301
 7127SOL     OW28273   4.636   5.956   0.461 -0.2244 -0.6104  0.7228
 7127SOL    HW228274   4.578   5.897   0.510 -0.7343 -0.8351 -0.1387
 7127SOL    HW328275   4.703   5.897   0.425 -0.6087 -0.6342  0.0447
 7127SOL    MW428276   4.637   5.940   0.463 -0.3424 -0.6432  0.5197
 7128SOL     OW28277   5.967   2.283   2.425  0.2814 -0.0518  0.4077
 7128SOL    HW228278   5.933   2.284   2.336  0.1228  1.4538  0.4595
 7128SOL    HW328279   5.962   2.375   2.454 -1.0910 -0.7011  2.4888
 7128SOL    MW428280   5.962   2.296   2.417  0.0794  0.0611  0.6891
 7129SOL     OW28281   0.567   2.009   4.640  0.1923  0.0374  0.3171
 7129SOL    HW228282   0.482   1.965   4.636  0.3468 -0.4220  1.8192
 7129SOL    HW328283   0.624   1.949   4.687  1.1723  0.6465 -0.0558
 7129SOL    MW428284   0.563   1.995   4.645  0.3420  0.0572  0.4661
 7130SOL     OW28285   1.453   0.523   5.594  0.6972 -0.5868  0.0278
 7130SOL    HW228286   1.524   0.478   5.548  2.3619  0.5686  1.3275
 7130SOL    HW328287   1.465   0.616   5.573  0.1699 -0.2718  1.0406
 7130SOL    MW428288   1.464   0.530   5.585  0.8473 -0.3928  0.3329
 7131SOL     OW28289   5.888   5.654   2.905  0.4761 -0.2451 -0.0727
 7131SOL    HW228290   5.896   5.718   2.976 -0.1068  0.3395 -0.5164
 7131SOL    HW328291   5.855   5.705   2.831  0.0131 -1.0614 -0.4408
 7131SOL    MW428292   5.884   5.669   2.904  0.3381 -0.2757 -0.1798
 7132SOL     OW28293   1.605   0.455   1.638  0.5186  0.1008 -1.0433
 7132SOL    HW228294   1.591   0.413   1.553  0.5479  0.8966 -1.4434
 7132SOL    HW328295   1.700   0.462   1.646  0.4992  0.8249 -1.3499
 7132SOL    MW428296   1.616   0.450   1.628  0.5199  0.3013 -1.1365
 7133SOL     OW28297   2.190   5.551   5.787 -0.3611 -0.2828 -0.5555
 7133SOL    HW228298   2.158   5.503   5.864  2.2843  0.8905  1.4476
 7133SOL    HW328299   2.162   5.641   5.803  0.2824 -0.0165 -0.9259
 7133SOL    MW428300   2.182   5.557   5.799  0.0728 -0.0929 -0.3401
 7134SOL     OW28301   0.730   2.275   5.059  0.1964  0.2137  0.1589
 7134SOL    HW228302   0.803   2.267   5.120  1.0533 -2.2110 -1.0147
 7134SOL    HW328303   0.652   2.266   5.113  0.9038 -0.5667  1.0877
 7134SOL    MW428304   0.729   2.273   5.074  0.4028 -0.2091  0.1266
 7135SOL     OW28305   2.875   4.261   0.795  0.2721 -0.1337 -0.6594
 7135SOL    HW228306   2.879   4.165   0.788  1.3551 -0.0961 -0.6541
 7135SOL    HW328307   2.966   4.289   0.794 -0.0484  0.9323 -0.9857
 7135SOL    MW428308   2.887   4.252   0.794  0.3727  0.0119 -0.7018
 7136SOL     OW28309   1.633   1.544   2.067  0.2759  0.1106  0.1695
 7136SOL    HW228310   1.603   1.622   2.019  0.0415  0.4484  0.8549
 7136SOL    HW328311   1.554   1.491   2.077 -0.0346  0.7874  1.5719
 7136SOL    MW428312   1.619   1.548   2.062  0.2040  0.2444  0.4449
 7137SOL     OW28313   5.236   1.923   4.385  0.0123  0.6810 -0.3114
 7137SOL    HW228314   5.307   1.886   4.438 -1.7257 -0.5951  1.2316
 7137SOL    HW328315   5.263   1.906   4.294  0.0232 -3.1993  0.2597
 7137SOL    MW428316   5.249   1.916   4.380 -0.2155  0.0007 -0.0325
 7138SOL     OW28317   2.508   4.227   1.202 -0.3335  0.6253  0.6255
 7138SOL    HW228318   2.569   4.188   1.265  0.3269 -0.4209 -0.5981
 7138SOL    HW328319   2.425   4.234   1.250  0.1837 -0.0058  1.6518
 7138SOL    MW428320   2.505   4.223   1.217 -0.1781  0.4040  0.5995
 7139SOL     OW28321   2.613   3.482   3.409  0.1055 -0.0219 -0.2780
 7139SOL    HW228322   2.527   3.507   3.376  0.0413  0.7697  0.4659
 7139SOL    HW328323   2.596   3.419   3.478  0.1658 -0.4618 -0.6599
 7139SOL    MW428324   2.600   3.477   3.413  0.1050  0.0245 -0.2302
 7140SOL     OW28325   0.979   5.979   5.804  0.3779  0.4547  0.1482
 7140SOL    HW228326   1.050   5.967   5.741  1.0806 -1.3166  1.1991
 7140SOL    HW328327   0.909   6.020   5.754  1.3878  0.3566 -1.4256
 7140SOL    MW428328   0.979   5.983   5.789  0.6038  0.2081  0.0792
 7141SOL     OW28329   5.945   6.349   5.273  0.4624  0.2329 -1.3245
 7141SOL    HW228330   5.917   6.440   5.275  1.5745  0.5851  0.3372
 7141SOL    HW328331   5.882   6.306   5.215 -1.2422  1.6881 -0.6615
 7141SOL    MW428332   5.933   6.355   5.266  0.3842  0.4713 -1.0178
 7142SOL     OW28333   2.787   4.858   5.822 -0.3758 -0.8430 -0.4066
 7142SOL    HW228334   2.705   4.874   5.776 -1.6612 -1.6286  1.4760
 7142SOL    HW328335   2.803   4.938   5.871 -0.7152 -1.1355  0.1965
 7142SOL    MW428336   2.778   4.870   5.823 -0.5902 -0.9852 -0.0786
 7143SOL     OW28337   1.589   0.949   2.003  0.1238 -0.3966  0.0995
 7143SOL    HW228338   1.522   0.882   2.020 -1.2860  1.1129  0.7981
 7143SOL    HW328339   1.593   1.000   2.084  0.4375  0.9591 -0.7383
 7143SOL    MW428340   1.580   0.947   2.016 -0.0208 -0.0186  0.0811
 7144SOL     OW28341   6.137   5.133   4.832  0.2464 -0.3018 -0.0308
 7144SOL    HW228342   6.136   5.044   4.867  0.3610 -0.4013 -0.2780
 7144SOL    HW328343   6.130   5.121   4.737 -1.4453  0.0008  0.0135
 7144SOL    MW428344   6.136   5.119   4.824  0.0383 -0.2750 -0.0575
 7145SOL     OW28345   4.950   2.728   4.592 -0.2254  0.1276 -0.2150
 7145SOL    HW228346   4.922   2.646   4.554 -0.8591 -0.0221  0.5440
 7145SOL    HW328347   5.039   2.741   4.559 -0.1294 -0.8483 -0.3537
 7145SOL    MW428348   4.958   2.719   4.583 -0.2964 -0.0209 -0.1332
 7146SOL     OW28349   3.757   5.263   0.738 -0.5168 -0.0783  0.2735
 7146SOL    HW228350   3.713   5.247   0.821 -1.4626 -0.1301 -0.2260
 7146SOL    HW328351   3.700   5.323   0.691  0.0039 -0.0563 -0.3490
 7146SOL    MW428352   3.744   5.268   0.743 -0.5729 -0.0823  0.1255
 7147SOL     OW28353   4.995   1.701   1.688 -0.0899  0.3851  0.3134
 7147SOL    HW228354   4.961   1.761   1.755 -2.4528 -0.1462 -0.3368
 7147SOL    HW328355   5.007   1.618   1.734 -3.7142 -0.5878 -0.2011
 7147SOL    MW428356   4.992   1.698   1.703 -0.8799  0.1867  0.1597
 7148SOL     OW28357   5.170   4.060   2.594  0.3816  0.1724  0.1964
 7148SOL    HW228358   5.161   4.113   2.515  0.2256  0.0975  0.1639
 7148SOL    HW328359   5.108   4.098   2.656 -0.1757 -0.3515 -0.0310
 7148SOL    MW428360   5.161   4.072   2.592  0.2875  0.0934  0.1621
 7149SOL     OW28361   5.889   0.813   1.351  0.3605 -0.0781  0.3482
 7149SOL    HW228362   5.944   0.809   1.429 -0.3466 -0.7205  0.8312
 7149SOL    HW328363   5.951   0.817   1.278  1.0284  1.0583  0.9503
 7149SOL    MW428364   5.904   0.813   1.352  0.3553 -0.0129  0.4914
 7150SOL     OW28365   5.415   3.173   0.954  0.6157  0.0719 -0.0646
 7150SOL    HW228366   5.398   3.213   0.869  2.2137 -1.0883 -0.9746
 7150SOL    HW328367   5.392   3.081   0.943 -0.5663  0.1588  1.2437
 7150SOL    MW428368   5.409   3.166   0.941  0.6706 -0.0697 -0.0121
 7151SOL     OW28369   0.368   5.797   5.587  0.0272 -0.3293  0.1442
 7151SOL    HW228370   0.372   5.789   5.492 -0.7631 -1.0045  0.1596
 7151SOL    HW328371   0.456   5.826   5.612 -0.0212  0.7994 -0.8661
 7151SOL    MW428372   0.380   5.800   5.578 -0.0834 -0.2695  0.0130
 7152SOL     OW28373   5.894   5.667   0.138  0.9563  1.0091 -0.3131
 7152SOL    HW228374   5.953   5.607   0.093 -2.5088 -2.0303 -1.3580
 7152SOL    HW328375   5.902   5.644   0.231 -0.7018 -1.7698 -0.7303
 7152SOL    MW428376   5.903   5.656   0.144  0.2803  0.2415 -0.5060
 7153SOL     OW28377   3.817   4.077   1.468 -0.0363 -0.0863 -0.1599
 7153SOL    HW228378   3.897   4.053   1.514  2.0622  0.7590 -3.0949
 7153SOL    HW328379   3.805   4.169   1.488 -1.0219 -0.4717  1.1959
 7153SOL    MW428380   3.826   4.086   1.477  0.1105 -0.0257 -0.3682
 7154SOL     OW28381   6.333   3.262   4.187  0.0971  0.3669 -0.2050
 7154SOL    HW228382   6.238   3.250   4.187  0.2890 -1.3970 -0.4949
 7154SOL    HW328383   6.354   3.289   4.277 -0.5283 -0.6266  0.2432
 7154SOL    MW428384   6.323   3.264   4.199  0.0399  0.0031 -0.1841
 7155SOL     OW28385   3.673   1.511   1.707 -0.0799 -0.2722 -0.0911
 7155SOL    HW228386   3.611   1.460   1.655  0.1580 -0.6085 -0.0478
 7155SOL    HW328387   3.718   1.446   1.761 -1.9288  0.2711  2.3012
 7155SOL    MW428388   3.671   1.496   1.707 -0.2925 -0.2449  0.2302
 7156SOL     OW28389   3.116   1.489   4.448  0.0633  0.3758  0.3459
 7156SOL    HW228390   3.207   1.463   4.438 -0.3067 -0.4554 -1.2154
 7156SOL    HW328391   3.115   1.544   4.526  1.5580 -1.1596  1.5332
 7156SOL    MW428392   3.128   1.493   4.457  0.2117  0.0636  0.2965
 7157SOL     OW28393   0.704   3.744   2.991 -0.8547 -0.8233  0.1816
 7157SOL    HW228394   0.777   3.683   2.988 -1.1077 -1.2033  1.2277
 7157SOL    HW328395   0.735   3.821   2.943  0.5397 -0.6677  1.2403
 7157SOL    MW428396   0.718   3.746   2.985 -0.7041 -0.8529  0.4593
 7158SOL     OW28397   1.723   5.321   1.497 -0.0464  0.4663 -0.3355
 7158SOL    HW228398   1.738   5.413   1.518  0.1318 -0.0717  2.2958
 7158SOL    HW328399   1.671   5.288   1.570  1.8177 -2.0168  0.0141
 7158SOL    MW428400   1.718   5.329   1.509  0.2230  0.0677  0.0578
 7159SOL     OW28401   4.402   1.612   1.137 -0.2059  0.5098  0.1843
 7159SOL    HW228402   4.327   1.626   1.079  0.0162 -0.5535 -0.3934
 7159SOL    HW328403   4.375   1.651   1.220 -1.6408 -0.3301  0.1579
 7159SOL    MW428404   4.388   1.619   1.140 -0.3659  0.2587  0.1046
 7160SOL     OW28405   0.122   1.141   2.276  0.0814 -0.3674  0.1344
 7160SOL    HW228406   0.122   1.234   2.297 -0.3665 -0.1922 -0.5840
 7160SOL    HW328407   0.088   1.137   2.186  0.8592 -1.1500 -0.1484
 7160SOL    MW428408   0.118   1.153   2.267  0.1250 -0.4475  0.0023
 7161SOL     OW28409   1.684   3.042   4.596  0.6254  0.3636 -0.2860
 7161SOL    HW228410   1.620   2.984   4.554 -0.5177  0.6828  0.9439
 7161SOL    HW328411   1.721   2.989   4.666  1.1549  0.4341 -0.5104
 7161SOL    MW428412   1.680   3.027   4.599  0.5444  0.4150 -0.1533
 7162SOL     OW28413   0.890   6.415   6.330  0.0356  0.2061 -0.2369
 7162SOL    HW228414   0.932   6.329   6.340  0.1110  0.2229 -0.4078
 7162SOL    HW328415   0.798   6.394   6.314  0.3063  0.0891 -1.8266
 7162SOL    MW428416   0.883   6.401   6.329  0.0813  0.1929 -0.4692
 7163SOL     OW28417   1.011   2.221   4.147 -0.9092  0.2546  0.1803
 7163SOL    HW228418   0.973   2.187   4.067  0.8199  0.4126 -0.7649
 7163SOL    HW328419   0.975   2.310   4.156 -1.8295 -0.1065  0.1046
 7163SOL    MW428420   1.002   2.229   4.138 -0.8024  0.2278  0.0456
 7164SOL     OW28421   4.684   5.661   2.446  0.4177 -1.3755  0.3723
 7164SOL    HW228422   4.759   5.719   2.449 -1.8629  2.0572 -1.5869
 7164SOL    HW328423   4.701   5.603   2.372  0.2050  1.0716 -1.7290
 7164SOL    MW428424   4.696   5.661   2.436  0.0888 -0.5997 -0.1634
 7165SOL     OW28425   2.817   5.352   2.729  0.3776 -1.2180 -0.8734
 7165SOL    HW228426   2.897   5.337   2.780 -0.0704 -0.9247 -0.0696
 7165SOL    HW328427   2.847   5.355   2.638  1.4164 -0.1645 -0.5167
 7165SOL    MW428428   2.831   5.350   2.723  0.4555 -1.0403 -0.7203
 7166SOL     OW28429   5.295   2.396   4.367  0.6311 -0.7086 -0.1553
 7166SOL    HW228430   5.224   2.399   4.302  1.1096 -0.4298 -0.6677
 7166SOL    HW328431   5.275   2.318   4.419 -0.0006 -0.6916 -0.3541
 7166SOL    MW428432   5.283   2.386   4.365  0.6109 -0.6696 -0.2491
 7167SOL     OW28433   0.064   2.151   2.941 -0.3119 -0.2799  0.3142
 7167SOL    HW228434   0.091   2.121   3.028 -0.2061 -0.9160  0.0699
 7167SOL    HW328435   0.125   2.107   2.881  0.8467  1.5971  0.0168
 7167SOL    MW428436   0.076   2.141   2.944 -0.1451 -0.1161  0.2428
 7168SOL     OW28437   0.704   6.385   2.150 -0.3051 -0.1840 -0.5796
 7168SOL    HW228438   0.692   6.480   2.144 -1.1065 -0.2366 -0.0001
 7168SOL    HW328439   0.636   6.356   2.210 -1.3937 -1.3813 -2.2749
 7168SOL    MW428440   0.693   6.394   2.157 -0.5544 -0.3489 -0.7268
 7169SOL     OW28441   3.049   1.978   3.790  0.0246 -0.0910 -0.4556
 7169SOL    HW228442   3.033   1.956   3.881  2.3540 -0.4296 -0.0703
 7169SOL    HW328443   2.992   1.920   3.741 -0.3460 -0.7804  0.7582
 7169SOL    MW428444   3.039   1.968   3.795  0.2830 -0.2266 -0.2446
 7170SOL     OW28445   5.489   1.341   2.907 -0.3104  0.2964 -0.0747
 7170SOL    HW228446   5.414   1.391   2.939  0.2638  1.2078 -0.1162
 7170SOL    HW328447   5.486   1.350   2.812 -0.3005  0.1067 -0.0945
 7170SOL    MW428448   5.479   1.349   2.899 -0.2334  0.3916 -0.0828
 7171SOL     OW28449   0.362   4.460   5.514  0.3369  0.0201  0.2834
 7171SOL    HW228450   0.281   4.417   5.488  0.3157  0.1315  0.1614
 7171SOL    HW328451   0.351   4.477   5.608 -0.1918  0.9083  0.0760
 7171SOL    MW428452   0.350   4.457   5.523  0.2643  0.1520  0.2399
 7172SOL     OW28453   1.951   3.636   5.867  0.1939 -0.3831 -0.1626
 7172SOL    HW228454   1.946   3.630   5.962  0.3795  0.3409 -0.1035
 7172SOL    HW328455   2.041   3.663   5.849 -0.2313  0.9114 -0.4616
 7172SOL    MW428456   1.962   3.639   5.877  0.1623 -0.1168 -0.1942
 7173SOL     OW28457   5.369   2.988   1.590  0.3368  0.6503 -0.8469
 7173SOL    HW228458   5.385   3.029   1.675 -0.2153  2.1153 -1.4192
 7173SOL    HW328459   5.275   2.977   1.586  0.5505 -2.2833 -0.0385
 7173SOL    MW428460   5.359   2.992   1.601  0.2922  0.4566 -0.8157
 7174SOL     OW28461   0.735   0.901   0.451  0.0983  0.2006 -0.0934
 7174SOL    HW228462   0.761   0.904   0.359  2.2821 -2.1022  0.3205
 7174SOL    HW328463   0.814   0.927   0.499 -0.0049 -1.5804  1.1470
 7174SOL    MW428464   0.749   0.905   0.445  0.3728 -0.3382  0.1248
 7175SOL     OW28465   5.275   2.125   1.948 -0.2173  0.2780  0.1539
 7175SOL    HW228466   5.252   2.216   1.967  1.2307  0.3885  1.6115
 7175SOL    HW328467   5.307   2.090   2.031  0.1209 -1.2979 -0.5979
 7175SOL    MW428468   5.276   2.132   1.961  0.0183  0.0846  0.2470
 7176SOL     OW28469   1.397   4.898   1.182  0.4274 -0.3996 -0.0959
 7176SOL    HW228470   1.429   4.818   1.223 -2.4534 -0.5554  2.1925
 7176SOL    HW328471   1.463   4.964   1.205  1.2817 -1.4642  0.6523
 7176SOL    MW428472   1.410   4.896   1.190  0.1601 -0.5606  0.3047
 7177SOL     OW28473   4.245   6.019   3.179 -0.2108  0.2809  0.0793
 7177SOL    HW228474   4.165   6.065   3.154  0.2808  1.1336  0.0472
 7177SOL    HW328475   4.312   6.053   3.120  0.0885 -0.7501 -0.1818
 7177SOL    MW428476   4.243   6.030   3.168 -0.1064  0.2574  0.0406
 7178SOL     OW28477   2.388   5.838   0.316  0.1925  0.1622 -0.1282
 7178SOL    HW228478   2.322   5.776   0.286  0.1525 -0.7853  1.7637
 7178SOL    HW328479   2.471   5.790   0.310  0.2913  0.2580  0.4068
 7178SOL    MW428480   2.390   5.824   0.311  0.2002  0.0499  0.1920
 7179SOL     OW28481   6.033   4.325   5.519 -0.1391 -0.5143  0.0180
 7179SOL    HW228482   6.087   4.368   5.586  0.8181 -0.7136 -0.5957
 7179SOL    HW328483   5.968   4.391   5.496 -1.1764 -0.8173  1.8889
 7179SOL    MW428484   6.032   4.340   5.525 -0.1496 -0.5806  0.1839
 7180SOL     OW28485   5.256   5.559   4.502  0.5118  0.0369 -0.2671
 7180SOL    HW228486   5.267   5.490   4.437 -1.2118  1.4158 -2.1797
 7180SOL    HW328487   5.298   5.635   4.463  0.7565  0.5528  0.9465
 7180SOL    MW428488   5.263   5.560   4.488  0.3167  0.2869 -0.3593
 7181SOL     OW28489   0.596   2.776   0.954  0.4432  0.3716  0.1871
 7181SOL    HW228490   0.563   2.686   0.954  1.5231 -0.0421  0.2984
 7181SOL    HW328491   0.651   2.781   0.876  0.6079  0.8462  0.3327
 7181SOL    MW428492   0.599   2.765   0.944  0.6074  0.3796  0.2210
 7182SOL     OW28493   3.260   1.208   3.460 -0.3922  0.5799 -0.1640
 7182SOL    HW228494   3.171   1.241   3.465 -0.8030 -0.5143  0.1382
 7182SOL    HW328495   3.252   1.114   3.478  0.5008 -0.0485 -2.6171
 7182SOL    MW428496   3.247   1.200   3.463 -0.3286  0.3526 -0.4478
 7183SOL     OW28497   3.042   2.382   5.900  0.1607  0.2878 -0.1075
 7183SOL    HW228498   3.025   2.397   5.807 -1.4423  0.3180  0.1573
 7183SOL    HW328499   3.127   2.424   5.917  1.3964 -1.3550 -1.9425
 7183SOL    MW428500   3.051   2.390   5.890  0.1122  0.0751 -0.3147
 7184SOL     OW28501   3.829   4.816   4.971 -0.0353 -0.0013 -0.0847
 7184SOL    HW228502   3.776   4.741   5.000 -2.6492  2.1846  1.2453
 7184SOL    HW328503   3.788   4.844   4.890 -1.4146  2.0579  1.2415
 7184SOL    MW428504   3.817   4.809   4.964 -0.5621  0.5588  0.2657
 7185SOL     OW28505   5.013   3.962   0.492 -0.4281  0.3984 -0.4276
 7185SOL    HW228506   4.949   3.977   0.423 -1.3810 -0.1558  0.3021
 7185SOL    HW328507   5.072   3.895   0.457 -1.6501 -0.8071 -0.2683
 7185SOL    MW428508   5.013   3.955   0.478 -0.7150  0.1662 -0.3103
 7186SOL     OW28509   4.466   5.761   3.671 -0.1363 -0.7904 -0.4326
 7186SOL    HW228510   4.477   5.679   3.719 -0.5408 -1.1285 -0.9146
 7186SOL    HW328511   4.385   5.750   3.622  0.9289 -0.9939 -2.2674
 7186SOL    MW428512   4.457   5.749   3.671 -0.0491 -0.8618 -0.7383
 7187SOL     OW28513   5.097   4.070   1.845  0.4790  0.1825  0.5913
 7187SOL    HW228514   5.091   4.009   1.919 -0.6180  0.3247  0.6335
 7187SOL    HW328515   5.148   4.022   1.779 -1.0389 -1.1393  0.3068
 7187SOL    MW428516   5.103   4.056   1.846  0.1340  0.0269  0.5593
 7188SOL     OW28517   1.520   3.644   1.844  0.0595 -0.6109  0.1479
 7188SOL    HW228518   1.486   3.555   1.847  0.1664 -0.6120  1.8976
 7188SOL    HW328519   1.450   3.695   1.802 -0.2557 -1.3901 -0.2831
 7188SOL    MW428520   1.506   3.639   1.839  0.0320 -0.7139  0.3219
 7189SOL     OW28521   5.505   1.232   5.397  0.3934  0.1613 -0.1611
 7189SOL    HW228522   5.477   1.253   5.307 -1.1316  0.6774  0.3985
 7189SOL    HW328523   5.479   1.308   5.448  3.5939  1.0437  0.3576
 7189SOL    MW428524   5.498   1.244   5.392  0.6145  0.3458 -0.0188
 7190SOL     OW28525   5.946   0.883   3.026 -0.1800  0.4694 -0.4461
 7190SOL    HW228526   5.946   0.979   3.033  0.4634  0.5329 -1.1635
 7190SOL    HW328527   5.952   0.853   3.117  0.1722  1.1163 -0.2437
 7190SOL    MW428528   5.946   0.892   3.039 -0.0486  0.5631 -0.5140
 7191SOL     OW28529   2.895   4.621   5.930 -0.6674 -0.4164  0.5211
 7191SOL    HW228530   2.866   4.694   5.876 -1.9726  0.9023  2.8575
 7191SOL    HW328531   2.990   4.626   5.929 -0.7026  0.3314 -0.6153
 7191SOL    MW428532   2.904   4.631   5.923 -0.8443 -0.1437  0.6794
 7192SOL     OW28533   0.113   1.597   4.401  0.3007  0.0707 -0.3115
 7192SOL    HW228534   0.141   1.650   4.475  1.3127  1.1036 -1.3929
 7192SOL    HW328535   0.076   1.518   4.440 -0.9818  1.4113  1.3505
 7192SOL    MW428536   0.112   1.594   4.416  0.2650  0.3838 -0.2349
 7193SOL     OW28537   5.512   0.106   2.888  0.0732  0.1123 -0.1399
 7193SOL    HW228538   5.437   0.115   2.829 -1.3891 -2.3406  1.1830
 7193SOL    HW328539   5.493   0.166   2.961 -0.6575 -0.5000  0.1894
 7193SOL    MW428540   5.500   0.115   2.890 -0.2162 -0.2921  0.0781
 7194SOL     OW28541   2.045   1.086   1.660 -0.2013  0.2284  0.0783
 7194SOL    HW228542   2.126   1.052   1.619 -0.4577  2.3581 -2.4554
 7194SOL    HW328543   1.984   1.012   1.656  0.8899 -0.7004 -0.1117
 7194SOL    MW428544   2.048   1.072   1.654 -0.0911  0.3868 -0.2811
 7195SOL     OW28545   3.573   2.718   2.212  0.1883  0.2678  0.1913
 7195SOL    HW228546   3.527   2.643   2.174 -1.9865  0.5612  2.0650
 7195SOL    HW328547   3.584   2.778   2.138 -0.9725 -0.5467 -0.6904
 7195SOL    MW428548   3.568   2.716   2.197 -0.2518  0.1990  0.3222
 7196SOL     OW28549   5.129   2.648   0.925  0.1704  1.1156 -0.4080
 7196SOL    HW228550   5.133   2.736   0.889  0.7935  1.3190  0.1448
 7196SOL    HW328551   5.173   2.654   1.010  0.4207  0.2264 -0.4624
 7196SOL    MW428552   5.135   2.660   0.931  0.2856  1.0251 -0.3423
 7197SOL     OW28553   1.022   2.781   6.358 -0.0249  0.0553  0.5448
 7197SOL    HW228554   0.978   2.787   6.442 -2.5678  3.0139 -0.7830
 7197SOL    HW328555   1.070   2.863   6.350  1.4733 -0.8614 -0.2831
 7197SOL    MW428556   1.022   2.793   6.368 -0.1627  0.3247  0.2603
 7198SOL     OW28557   0.138   3.140   5.913 -0.3586  0.3453  0.5647
 7198SOL    HW228558   0.185   3.059   5.934 -1.4486 -0.5806 -0.4358
 7198SOL    HW328559   0.196   3.209   5.944  2.5156 -0.6457 -2.0526
 7198SOL    MW428560   0.152   3.138   5.920 -0.1232  0.0924  0.0874
 7199SOL     OW28561   4.441   1.676   3.878  0.1743 -0.3665  0.6063
 7199SOL    HW228562   4.446   1.651   3.970  0.6675  0.5866  0.8527
 7199SOL    HW328563   4.347   1.675   3.857 -0.0086  0.2400  1.3604
 7199SOL    MW428564   4.429   1.673   3.887  0.2153 -0.1607  0.7383
 7200SOL     OW28565   5.441   0.396   3.862 -0.1953  0.2714  0.0306
 7200SOL    HW228566   5.473   0.311   3.831 -0.4852 -0.0258  0.5391
 7200SOL    HW328567   5.496   0.460   3.817 -0.5734 -0.1479 -1.0786
 7200SOL    MW428568   5.452   0.393   3.852 -0.2834  0.1769 -0.0487
 7201SOL     OW28569   4.441   2.990   6.142  0.4065 -0.2641 -0.3894
 7201SOL    HW228570   4.521   2.965   6.096  0.5372  0.7953 -0.7620
 7201SOL    HW328571   4.464   2.984   6.235  0.9584  0.1583 -0.4944
 7201SOL    MW428572   4.455   2.986   6.148  0.4965 -0.0686 -0.4524
 7202SOL     OW28573   1.329   0.869   3.868 -0.0539 -0.8282  0.4585
 7202SOL    HW228574   1.340   0.852   3.774  1.6115 -0.0812  0.4833
 7202SOL    HW328575   1.274   0.948   3.871  0.1790 -0.6492  0.0975
 7202SOL    MW428576   1.323   0.877   3.856  0.1966 -0.7060  0.4142
 7203SOL     OW28577   1.718   3.566   5.044  0.7535  0.4374  0.9005
 7203SOL    HW228578   1.701   3.548   4.952  2.0129  1.6862  0.4007
 7203SOL    HW328579   1.695   3.484   5.088  1.1435 -0.5436 -0.6374
 7203SOL    MW428580   1.712   3.552   5.038  0.9711  0.4727  0.6317
 7204SOL     OW28581   1.526   3.997   5.811 -0.0126 -0.1278  0.1975
 7204SOL    HW228582   1.501   3.950   5.731 -0.0708  1.5262 -0.7851
 7204SOL    HW328583   1.483   4.082   5.804  0.6208  0.3442  1.6304
 7204SOL    MW428584   1.517   4.002   5.800  0.0633  0.1527  0.2569
 7205SOL     OW28585   4.355   3.073   0.424 -0.1804 -0.7595  0.3854
 7205SOL    HW228586   4.332   3.085   0.516 -1.3485  0.9851 -0.0963
 7205SOL    HW328587   4.272   3.084   0.377  0.6281 -0.3331 -0.9786
 7205SOL    MW428588   4.341   3.076   0.430 -0.2278 -0.4730  0.1419
 7206SOL     OW28589   2.685   2.371   3.872 -1.0595  0.2938  0.4555
 7206SOL    HW228590   2.754   2.409   3.925 -1.8056  3.0567 -0.3896
 7206SOL    HW328591   2.674   2.282   3.907  1.3449  0.5231  2.0390
 7206SOL    MW428592   2.692   2.364   3.883 -0.8407  0.6886  0.5529
 7207SOL     OW28593   0.412   2.738   0.656 -0.0482 -0.0802 -0.5710
 7207SOL    HW228594   0.366   2.711   0.736 -1.1742 -3.3339 -2.1726
 7207SOL    HW328595   0.503   2.751   0.685 -0.4675 -0.8914  1.2979
 7207SOL    MW428596   0.418   2.736   0.671 -0.2521 -0.6165 -0.5358
 7208SOL     OW28597   5.088   5.213   0.585 -0.1912 -0.3839  0.6930
 7208SOL    HW228598   5.054   5.282   0.642  2.1549  0.8464  0.7369
 7208SOL    HW328599   5.162   5.176   0.633 -0.2413 -1.6523 -0.1578
 7208SOL    MW428600   5.093   5.217   0.599  0.1118 -0.3889  0.5865
 7209SOL     OW28601   4.145   4.093   5.219  0.0138 -0.0551 -0.1268
 7209SOL    HW228602   4.109   4.052   5.298 -1.0057  1.5624  0.2987
 7209SOL    HW328603   4.239   4.072   5.223 -0.1489 -0.6936  1.0742
 7209SOL    MW428604   4.153   4.085   5.230 -0.1422  0.0741  0.0878
 7210SOL     OW28605   3.411   1.799   5.722  0.4861  0.1466 -0.1334
 7210SOL    HW228606   3.402   1.711   5.686  1.2028  0.3852 -0.9253
 7210SOL    HW328607   3.479   1.840   5.669 -0.8435  1.6811 -0.7426
 7210SOL    MW428608   3.419   1.793   5.711  0.4052  0.3806 -0.3182
 7211SOL     OW28609   0.515   1.145   4.384 -0.0511 -0.1009 -0.5897
 7211SOL    HW228610   0.527   1.236   4.411 -0.2525  0.3598 -1.9601
 7211SOL    HW328611   0.507   1.096   4.466 -2.4450  1.4419  0.2122
 7211SOL    MW428612   0.515   1.151   4.398 -0.3935  0.1634 -0.6647
 7212SOL     OW28613   1.519   4.659   1.282 -0.0492 -0.0057 -0.1532
 7212SOL    HW228614   1.438   4.622   1.317  0.5612 -0.1322  1.1858
 7212SOL    HW328615   1.587   4.631   1.344  0.9738  0.3383 -1.0920
 7212SOL    MW428616   1.518   4.651   1.295  0.1663  0.0230 -0.1004
 7213SOL     OW28617   5.030   0.976   0.322  0.4214  0.4725  0.3459
 7213SOL    HW228618   4.969   0.939   0.385  1.3609 -0.3384  0.8027
 7213SOL    HW328619   5.082   1.039   0.372  1.4846 -0.5119  0.5341
 7213SOL    MW428620   5.029   0.979   0.337  0.6856  0.2357  0.4310
 7214SOL     OW28621   3.451   5.414   3.409  0.0691 -0.2513  0.0813
 7214SOL    HW228622   3.405   5.335   3.436  0.8411 -0.0461  2.2494
 7214SOL    HW328623   3.397   5.486   3.444  1.1881  0.0298  1.3293
 7214SOL    MW428624   3.438   5.413   3.417  0.3186 -0.1871  0.5320
 7215SOL     OW28625   5.464   1.027   1.366  0.0997 -0.3441 -0.4035
 7215SOL    HW228626   5.444   1.106   1.418  0.9931  0.7651 -1.6830
 7215SOL    HW328627   5.522   0.976   1.422  1.0653  0.8386 -0.2946
 7215SOL    MW428628   5.469   1.031   1.381  0.3450 -0.0417 -0.5579
 7216SOL     OW28629   2.648   6.218   1.490 -0.0486 -0.1154  0.0134
 7216SOL    HW228630   2.577   6.209   1.553 -1.2767  0.2864 -1.2792
 7216SOL    HW328631   2.701   6.139   1.503 -0.1517  0.0456  1.6526
 7216SOL    MW428632   2.646   6.206   1.500 -0.2243 -0.0412  0.0591
 7217SOL     OW28633   3.235   6.365   5.456  0.0223 -0.0330 -0.0835
 7217SOL    HW228634   3.143   6.387   5.471 -0.1970  0.6947 -2.1918
 7217SOL    HW328635   3.276   6.448   5.432  1.2762 -0.3325  0.9506
 7217SOL    MW428636   3.228   6.379   5.455  0.1588  0.0235 -0.2252
 7218SOL     OW28637   4.588   5.668   5.447  0.1127  0.0362 -0.0709
 7218SOL    HW228638   4.658   5.604   5.459 -0.2426 -0.4883 -0.7051
 7218SOL    HW328639   4.585   5.716   5.529  1.2031  0.0533 -0.0174
 7218SOL    MW428640   4.597   5.666   5.459  0.2097 -0.0308 -0.1475
 7219SOL     OW28641   4.717   5.673   0.648  0.0876  0.3318  0.0276
 7219SOL    HW228642   4.740   5.602   0.708  0.0705  1.5527  1.5487
 7219SOL    HW328643   4.790   5.735   0.655 -0.6078  1.1875 -0.0620
 7219SOL    MW428644   4.730   5.672   0.657 -0.0064  0.6058  0.2165
 7220SOL     OW28645   1.334   4.609   2.585 -0.1789  0.3906 -0.2246
 7220SOL    HW228646   1.326   4.539   2.650 -0.9577  0.9345  0.2802
 7220SOL    HW328647   1.264   4.592   2.522 -0.1493  0.5157 -0.2913
 7220SOL    MW428648   1.324   4.598   2.585 -0.2778  0.4789 -0.1668
 7221SOL     OW28649   4.601   1.555   0.052  0.4804 -0.3711 -1.2161
 7221SOL    HW228650   4.670   1.621   0.060  1.1865 -1.1709 -0.5581
 7221SOL    HW328651   4.616   1.514  -0.032  1.1485 -0.9143 -0.8349
 7221SOL    MW428652   4.612   1.558   0.042  0.6617 -0.5483 -1.0790
 7222SOL     OW28653   5.495   4.630   6.044 -0.7549  0.2203 -0.3647
 7222SOL    HW228654   5.478   4.710   5.993  1.3982  0.8421 -0.2237
 7222SOL    HW328655   5.553   4.579   5.987  2.3197  1.2538  1.6008
 7222SOL    MW428656   5.501   4.634   6.030 -0.0652  0.4387 -0.0868
 7223SOL     OW28657   6.253   4.640   6.031  0.4162  0.4612  0.3533
 7223SOL    HW228658   6.227   4.729   6.006 -0.0679 -0.4724 -2.8828
 7223SOL    HW328659   6.187   4.613   6.095  0.0312  2.0829  0.6793
 7223SOL    MW428660   6.241   4.648   6.036  0.3015  0.5520 -0.0306
 7224SOL     OW28661   4.809   5.747   2.739  0.3598  0.2148  0.4861
 7224SOL    HW228662   4.724   5.703   2.739  1.2950 -1.7754 -1.6789
 7224SOL    HW328663   4.806   5.804   2.816 -2.6789 -0.2193  0.8106
 7224SOL    MW428664   4.798   5.749   2.750  0.0823 -0.1051  0.2433
 7225SOL     OW28665   0.863   4.877   4.495  0.1613 -0.5642  0.2455
 7225SOL    HW228666   0.807   4.800   4.506 -1.4930  0.6973  1.0154
 7225SOL    HW328667   0.878   4.908   4.584  1.0010 -0.0971 -0.0491
 7225SOL    MW428668   0.858   4.871   4.508  0.0538 -0.3361  0.3082
 7226SOL     OW28669   1.673   4.124   3.665 -0.1577 -0.0263 -0.1896
 7226SOL    HW228670   1.604   4.181   3.632  1.2629  1.1481 -1.2895
 7226SOL    HW328671   1.687   4.152   3.756  0.6904  1.6250 -0.7876
 7226SOL    MW428672   1.666   4.135   3.673  0.1416  0.3465 -0.4136
 7227SOL     OW28673   2.396   4.500   4.950  0.0042 -0.0559 -0.2212
 7227SOL    HW228674   2.336   4.461   5.014  1.7106 -3.9238 -0.7075
 7227SOL    HW328675   2.476   4.517   4.999  0.4808 -0.6327 -0.7852
 7227SOL    MW428676   2.399   4.497   4.965  0.2922 -0.6423 -0.3598
 7228SOL     OW28677   1.674   4.490   2.644  0.1293  0.0057  0.0849
 7228SOL    HW228678   1.638   4.551   2.579 -2.7628 -0.4175  1.1064
 7228SOL    HW328679   1.696   4.545   2.719 -2.9890 -0.0892  1.2118
 7228SOL    MW428680   1.672   4.505   2.645 -0.6637 -0.0627  0.3684
 7229SOL     OW28681   0.833   3.119   6.368  0.1335 -0.4234  0.3946
 7229SOL    HW228682   0.873   3.173   6.437  1.4790  1.1904 -1.5333
 7229SOL    HW328683   0.904   3.103   6.306 -1.5510  0.2935 -1.8467
 7229SOL    MW428684   0.847   3.124   6.369  0.0888 -0.1159 -0.1555
 7230SOL     OW28685   5.550   0.978   3.976 -0.2063  0.1027 -0.3813
 7230SOL    HW228686   5.545   0.947   3.886  0.2207 -0.7275 -0.1254
 7230SOL    HW328687   5.546   1.074   3.968 -0.4522  0.0297 -1.2548
 7230SOL    MW428688   5.549   0.987   3.963 -0.1824 -0.0165 -0.4628
 7231SOL     OW28689   2.936   4.466   3.565  0.1674 -0.1769 -0.1824
 7231SOL    HW228690   2.992   4.534   3.603  1.0167 -0.0075 -1.6974
 7231SOL    HW328691   2.996   4.407   3.521 -0.7475 -0.7702 -0.6666
 7231SOL    MW428692   2.951   4.467   3.564  0.1587 -0.2329 -0.4461
 7232SOL     OW28693   2.416   0.259   4.224  0.3534  0.4450 -0.3552
 7232SOL    HW228694   2.330   0.225   4.248  1.0425 -1.1745 -0.0468
 7232SOL    HW328695   2.404   0.354   4.219 -1.0294  0.4049  1.3816
 7232SOL    MW428696   2.403   0.267   4.226  0.2619  0.2261 -0.0853
 7233SOL     OW28697   3.340   4.288   2.318  0.0429  0.5570 -0.7601
 7233SOL    HW228698   3.369   4.234   2.391  0.8093  1.0710 -0.6745
 7233SOL    HW328699   3.244   4.289   2.325  0.0695 -0.0674 -0.2566
 7233SOL    MW428700   3.331   4.281   2.328  0.1476  0.5425 -0.6824
 7234SOL     OW28701   5.057   3.095   3.522  0.5103  0.1844 -0.2199
 7234SOL    HW228702   5.105   3.039   3.583  2.0637 -0.5108 -1.9843
 7234SOL    HW328703   4.965   3.072   3.537  0.8194  0.0982  1.8506
 7234SOL    MW428704   5.051   3.084   3.532  0.7560  0.0813 -0.1795
 7235SOL     OW28705   3.659   2.825   0.212  0.1444 -0.0332 -0.0154
 7235SOL    HW228706   3.727   2.853   0.274 -0.3859  1.1729  0.0413
 7235SOL    HW328707   3.587   2.886   0.226 -0.7717 -0.9975 -0.4274
 7235SOL    MW428708   3.659   2.836   0.222 -0.0465 -0.0013 -0.0622
 7236SOL     OW28709   6.230   3.097  -0.004 -0.7133  0.4493  0.3868
 7236SOL    HW228710   6.156   3.054  -0.047 -1.1289  1.0597  0.4853
 7236SOL    HW328711   6.303   3.035  -0.014 -0.8550  0.4868 -1.0054
 7236SOL    MW428712   6.230   3.083  -0.011 -0.7868  0.5348  0.2161
 7237SOL     OW28713   2.613   6.334   4.706 -0.0128 -0.3630  0.1760
 7237SOL    HW228714   2.562   6.293   4.636 -2.0502  1.3667  0.5763
 7237SOL    HW328715   2.621   6.266   4.773 -1.5742 -0.7539 -0.0047
 7237SOL    MW428716   2.608   6.320   4.705 -0.4876 -0.1863  0.2049
 7238SOL     OW28717   6.106   3.313   0.568 -0.3015  0.3803 -0.4357
 7238SOL    HW228718   6.014   3.290   0.581 -0.4738  1.1166 -0.3039
 7238SOL    HW328719   6.140   3.323   0.657  0.2811 -1.2597 -0.4353
 7238SOL    MW428720   6.098   3.311   0.582 -0.2474  0.2611 -0.4183
 7239SOL     OW28721   4.450   1.353   1.212  0.0150 -0.0622  0.6985
 7239SOL    HW228722   4.418   1.441   1.192  1.1324  1.0822  3.3644
 7239SOL    HW328723   4.404   1.295   1.152 -0.7935  2.3319 -1.1118
 7239SOL    MW428724   4.440   1.357   1.202  0.0558  0.4047  0.8114
 7240SOL     OW28725   1.081   1.360   3.883  0.2618  0.0849  0.7312
 7240SOL    HW228726   1.103   1.267   3.897 -2.1276 -0.5404  0.6956
 7240SOL    HW328727   1.058   1.392   3.970  0.6584  0.5384  0.6714
 7240SOL    MW428728   1.081   1.352   3.896 -0.0011  0.0622  0.7186
 7241SOL     OW28729   5.599   5.768   1.920 -0.1228  0.2512  0.1339
 7241SOL    HW228730   5.686   5.802   1.943  0.0845 -0.9174  1.1847
 7241SOL    HW328731   5.540   5.808   1.984  0.3007 -2.1790  2.2050
 7241SOL    MW428732   5.603   5.778   1.932 -0.0395 -0.2236  0.5458
 7242SOL     OW28733   4.517   0.567   0.840 -0.5112  0.7499 -0.4078
 7242SOL    HW228734   4.574   0.619   0.784  1.2525 -0.3046  0.3321
 7242SOL    HW328735   4.541   0.591   0.929 -0.3163 -0.6103 -0.0643
 7242SOL    MW428736   4.528   0.577   0.845 -0.2528  0.4313 -0.2648
 7243SOL     OW28737   2.775   2.913   3.742 -0.3664 -0.2854  0.4871
 7243SOL    HW228738   2.837   2.980   3.712  1.1381 -2.2937 -1.1539
 7243SOL    HW328739   2.750   2.866   3.662 -0.4449 -2.4283  1.7000
 7243SOL    MW428740   2.780   2.916   3.727 -0.1783 -0.8331  0.4306
 7244SOL     OW28741   2.076   3.710   3.648 -0.0641  0.1146  0.0123
 7244SOL    HW228742   2.126   3.678   3.723  0.1369 -0.5371 -0.3887
 7244SOL    HW328743   2.137   3.766   3.600 -0.5453  1.4876  0.9447
 7244SOL    MW428744   2.091   3.713   3.652 -0.1010  0.2097  0.0824
 7245SOL     OW28745   5.887   3.558   4.491  0.7766  0.0657 -0.5691
 7245SOL    HW228746   5.928   3.472   4.498 -0.5819 -0.5163  1.1463
 7245SOL    HW328747   5.959   3.620   4.496  1.5547 -0.9227  1.3626
 7245SOL    MW428748   5.902   3.555   4.492  0.7000 -0.1415 -0.0879
 7246SOL     OW28749   0.999   5.616   3.288  0.0850 -0.1081  0.4170
 7246SOL    HW228750   1.059   5.690   3.280  0.6025 -0.7038 -1.9227
 7246SOL    HW328751   1.035   5.563   3.359  1.9588 -0.0776 -0.4628
 7246SOL    MW428752   1.011   5.619   3.296  0.4005 -0.1827 -0.0077
 7247SOL     OW28753   1.381   0.541   2.952 -0.0435  0.2486  0.0156
 7247SOL    HW228754   1.317   0.563   3.020 -0.9420 -0.3142 -0.6254
 7247SOL    HW328755   1.432   0.621   2.941  0.9191 -0.0046  2.1889
 7247SOL    MW428756   1.379   0.554   2.960 -0.0350  0.1409  0.2178
 7248SOL     OW28757   5.225   6.374   5.265  0.2204  0.2616 -0.1808
 7248SOL    HW228758   5.266   6.437   5.206 -1.3501  0.0382 -1.5863
 7248SOL    HW328759   5.133   6.372   5.238 -0.1960 -1.1198  1.1790
 7248SOL    MW428760   5.218   6.382   5.254 -0.0418  0.0499 -0.1869
 7249SOL     OW28761   5.247   5.692   5.288  0.1624 -0.1970 -0.0630
 7249SOL    HW228762   5.202   5.772   5.315 -0.6790 -1.1845  1.6573
 7249SOL    HW328763   5.195   5.659   5.214 -0.7894 -0.2858  0.6348
 7249SOL    MW428764   5.234   5.698   5.282 -0.0742 -0.3390  0.2560
 7250SOL     OW28765   0.177   1.224   1.097  0.2668 -0.0456  0.2371
 7250SOL    HW228766   0.244   1.173   1.050 -0.4475  0.4244 -1.3660
 7250SOL    HW328767   0.219   1.308   1.115  0.7188 -0.4115  0.9157
 7250SOL    MW428768   0.192   1.228   1.093  0.2322 -0.0318  0.1151
 7251SOL     OW28769   1.870   1.123   3.097  0.2502 -0.0440  0.0591
 7251SOL    HW228770   1.936   1.176   3.053 -1.0437  0.3329 -1.5081
 7251SOL    HW328771   1.788   1.144   3.052 -0.7017 -1.5696  0.9972
 7251SOL    MW428772   1.868   1.133   3.085 -0.0461 -0.1956 -0.0239
 7252SOL     OW28773   4.472   3.226   4.568 -0.6113  0.9864  0.1599
 7252SOL    HW228774   4.522   3.178   4.634  0.8674  1.1022 -0.8323
 7252SOL    HW328775   4.530   3.297   4.541 -1.1144  0.8473 -1.3841
 7252SOL    MW428776   4.486   3.229   4.573 -0.4826  0.9834 -0.1747
 7253SOL     OW28777   4.842   4.277   1.127 -0.2382  0.0812  0.1159
 7253SOL    HW228778   4.770   4.247   1.183 -1.2641 -0.5218 -1.4781
 7253SOL    HW328779   4.863   4.364   1.161 -2.2765  0.6259  0.1338
 7253SOL    MW428780   4.835   4.285   1.139 -0.6424  0.0735 -0.0920
 7254SOL     OW28781   0.516   2.880   6.103 -0.2102  0.0950 -0.5311
 7254SOL    HW228782   0.601   2.905   6.069  0.6417 -3.8108 -1.8459
 7254SOL    HW328783   0.522   2.896   6.197  2.2494 -0.5375 -0.5026
 7254SOL    MW428784   0.528   2.885   6.111  0.2268 -0.5037 -0.7008
 7255SOL     OW28785   3.815   4.567   2.879 -0.1866  0.0855 -0.3950
 7255SOL    HW228786   3.906   4.544   2.899 -1.1213 -1.7910  2.1651
 7255SOL    HW328787   3.811   4.662   2.892  1.3262  0.1744 -0.3562
 7255SOL    MW428788   3.827   4.577   2.883 -0.1103 -0.1504 -0.0521
 7256SOL     OW28789   0.555   5.458   5.314 -0.0337  0.4008  0.7313
 7256SOL    HW228790   0.647   5.437   5.301 -0.1484  1.0495 -1.6401
 7256SOL    HW328791   0.513   5.374   5.332  0.6542 -0.3050 -0.7851
 7256SOL    MW428792   0.561   5.444   5.314  0.0419  0.3933  0.2183
 7257SOL     OW28793   3.044   5.566   3.191  0.3705  0.1355  0.1896
 7257SOL    HW228794   3.065   5.632   3.125  0.4127  0.9415  0.9951
 7257SOL    HW328795   3.007   5.493   3.140 -0.0314  0.9175 -0.6851
 7257SOL    MW428796   3.042   5.565   3.175  0.3231  0.3450  0.1805
 7258SOL     OW28797   0.840   0.363   2.091 -0.1078  0.1321 -0.4419
 7258SOL    HW228798   0.834   0.301   2.163 -0.3969 -0.5750 -1.0592
 7258SOL    HW328799   0.918   0.415   2.110 -0.9664  0.9193  1.1107
 7258SOL    MW428800   0.849   0.361   2.103 -0.2592  0.1426 -0.3185
 7259SOL     OW28801   6.293   4.286   3.111 -0.2419 -0.8109  0.1252
 7259SOL    HW228802   6.235   4.335   3.168  1.4857 -0.8079  1.9693
 7259SOL    HW328803   6.323   4.212   3.164  1.5125 -0.7613 -0.7144
 7259SOL    MW428804   6.289   4.283   3.125  0.2175 -0.8040  0.2577
 7260SOL     OW28805   4.899   1.563   4.447 -0.2907 -0.1253 -0.4685
 7260SOL    HW228806   4.982   1.601   4.418  0.6478 -1.4211  0.4614
 7260SOL    HW328807   4.920   1.473   4.472 -1.6366  0.0047  1.3465
 7260SOL    MW428808   4.913   1.556   4.446 -0.3444 -0.2791 -0.1063
 7261SOL     OW28809   5.370   2.646   5.031 -0.1204 -0.0187 -0.1567
 7261SOL    HW228810   5.379   2.614   5.121 -0.6826  0.5270  0.0994
 7261SOL    HW328811   5.344   2.568   4.981  2.2266 -0.8101 -0.2616
 7261SOL    MW428812   5.368   2.632   5.037  0.1151 -0.0511 -0.1367
 7262SOL     OW28813   2.364   5.019   3.645 -0.4278  0.0385 -0.3522
 7262SOL    HW228814   2.387   5.101   3.600  2.4979  0.0025  0.8493
 7262SOL    HW328815   2.370   4.952   3.576  0.6088  0.4243 -0.6580
 7262SOL    MW428816   2.368   5.021   3.630  0.0950  0.0847 -0.2340
 7263SOL     OW28817   1.717   4.556   1.502 -0.2130 -0.4954  0.0694
 7263SOL    HW228818   1.805   4.536   1.471  0.6816  0.5520  1.7366
 7263SOL    HW328819   1.687   4.476   1.544  1.1438 -0.0829  1.9719
 7263SOL    MW428820   1.725   4.543   1.503  0.0841 -0.3028  0.5404
 7264SOL     OW28821   6.380   2.427   4.954 -0.3029 -0.5361 -0.1636
 7264SOL    HW228822   6.416   2.513   4.977 -1.7493  0.1339 -0.2865
 7264SOL    HW328823   6.441   2.365   4.993  0.0330  0.5523  1.1614
 7264SOL    MW428824   6.393   2.430   4.962 -0.4494 -0.3041 -0.0050
 7265SOL     OW28825   3.783   1.073   5.562  0.1506  0.1568 -0.2967
 7265SOL    HW228826   3.856   1.032   5.609  0.2242  1.6110  0.9256
 7265SOL    HW328827   3.705   1.043   5.608  0.1879  1.0957  0.4110
 7265SOL    MW428828   3.783   1.063   5.574  0.1652  0.4725 -0.0421
 7266SOL     OW28829   4.204   3.586   5.387 -0.1982  0.0820  1.2608
 7266SOL    HW228830   4.189   3.503   5.341 -0.6978  0.3145  1.0063
 7266SOL    HW328831   4.280   3.624   5.343 -2.4951  1.8169 -1.5466
 7266SOL    MW428832   4.212   3.580   5.375 -0.5671  0.3416  0.8568
 7267SOL     OW28833   2.374   4.275   2.697 -0.3013  0.3786 -0.3548
 7267SOL    HW228834   2.338   4.282   2.785  1.1391  0.0501  0.3019
 7267SOL    HW328835   2.344   4.354   2.651  0.2547  1.3787  0.9509
 7267SOL    MW428836   2.366   4.286   2.702 -0.0379  0.4672 -0.0959
 7268SOL     OW28837   4.732   3.645   0.250  0.0056  0.2562  0.2632
 7268SOL    HW228838   4.759   3.731   0.281  0.4066  1.3841 -2.8634
 7268SOL    HW328839   4.644   3.659   0.215  0.3273 -0.4356 -0.8667
 7268SOL    MW428840   4.724   3.658   0.250  0.1009  0.3138 -0.2984
 7269SOL     OW28841   4.618   0.955   3.118  0.0810 -0.1036 -0.2333
 7269SOL    HW228842   4.568   0.879   3.147 -2.9271  1.9785  0.5562
 7269SOL    HW328843   4.663   0.986   3.197 -0.6286  0.2704  0.0334
 7269SOL    MW428844   4.617   0.949   3.132 -0.4095  0.2205 -0.0940
 7270SOL     OW28845   1.394   5.599   5.524  0.1904 -0.0085  0.0605
 7270SOL    HW228846   1.326   5.532   5.533  1.6457 -1.2818  2.9373
 7270SOL    HW328847   1.372   5.663   5.592 -1.2949  2.7573 -2.7553
 7270SOL    MW428848   1.382   5.599   5.534  0.1864  0.1884  0.0686
 7271SOL     OW28849   3.217   4.351   6.106 -0.3335 -0.5010  0.1258
 7271SOL    HW228850   3.165   4.355   6.187  0.3999 -1.7041  0.6781
 7271SOL    HW328851   3.196   4.433   6.061 -1.6944 -0.3502  0.9480
 7271SOL    MW428852   3.207   4.363   6.111 -0.4163 -0.6398  0.3071
 7272SOL     OW28853   0.867   1.347   1.845  0.3799  0.2649 -0.0388
 7272SOL    HW228854   0.867   1.254   1.867 -0.1599  0.4440  0.7727
 7272SOL    HW328855   0.868   1.349   1.750  2.3879 -0.5478 -0.0756
 7272SOL    MW428856   0.867   1.335   1.836  0.5736  0.1813  0.0634
 7273SOL     OW28857   0.345   4.590   5.767 -0.3820  0.0078 -0.5778
 7273SOL    HW228858   0.257   4.610   5.799  0.2738  0.2382  1.2352
 7273SOL    HW328859   0.375   4.517   5.822  0.7905  0.3689 -0.7056
 7273SOL    MW428860   0.337   4.583   5.779 -0.1407  0.0859 -0.3554
 7274SOL     OW28861   4.331   5.047   5.208 -0.5728 -0.1717  0.5123
 7274SOL    HW228862   4.346   5.132   5.250 -0.4818 -0.2802  0.7016
 7274SOL    HW328863   4.255   5.061   5.152 -0.2137  0.1905  0.1054
 7274SOL    MW428864   4.323   5.060   5.206 -0.5134 -0.1382  0.4836
 7275SOL     OW28865   3.068   2.618   4.229  0.0913 -0.4447 -0.4177
 7275SOL    HW228866   3.144   2.580   4.274  0.7809  1.4958  0.1510
 7275SOL    HW328867   3.096   2.707   4.207 -2.4544  0.8172  1.0193
 7275SOL    MW428868   3.082   2.625   4.232 -0.1536 -0.0222 -0.1530
 7276SOL     OW28869   3.174   2.957   6.069 -0.6438 -0.1902  0.8969
 7276SOL    HW228870   3.254   2.957   6.120 -1.7687  0.4169  2.7525
 7276SOL    HW328871   3.109   2.999   6.125 -2.0151  0.3364 -0.9588
 7276SOL    MW428872   3.176   2.963   6.083 -0.9731 -0.0407  0.8969
 7277SOL     OW28873   3.717   1.799   6.369 -0.5356  0.2335  0.3512
 7277SOL    HW228874   3.719   1.705   6.386 -2.6660  0.2481  0.9242
 7277SOL    HW328875   3.716   1.840   6.455 -0.3588  0.7586  0.1134
 7277SOL    MW428876   3.717   1.792   6.382 -0.7934  0.3047  0.3954
 7278SOL     OW28877   6.374   5.982   6.002  0.4050 -0.2036  0.7270
 7278SOL    HW228878   6.406   6.024   6.082  1.0587 -1.5881  1.2376
 7278SOL    HW328879   6.443   5.920   5.978  1.4230  1.9125 -2.4010
 7278SOL    MW428880   6.388   5.979   6.010  0.6256 -0.1071  0.3817
 7279SOL     OW28881   5.106   0.856   2.099  0.4163 -0.1930  0.1207
 7279SOL    HW228882   5.031   0.816   2.054  0.7728 -1.0287  0.2467
 7279SOL    HW328883   5.114   0.807   2.180  0.4779  0.5686  0.5802
 7279SOL    MW428884   5.097   0.844   2.104  0.4715 -0.2028  0.1979
 7280SOL     OW28885   2.993   2.426   0.469 -0.0982  0.2728 -0.4310
 7280SOL    HW228886   2.914   2.379   0.441 -0.4861 -0.1183  1.2166
 7280SOL    HW328887   3.005   2.495   0.404 -1.1713 -0.3423 -1.3037
 7280SOL    MW428888   2.984   2.429   0.457 -0.2910  0.1400 -0.3287
 7281SOL     OW28889   2.123   1.258   5.344  0.7011 -0.1528 -0.4280
 7281SOL    HW228890   2.196   1.316   5.365  1.0004 -0.2811 -1.0834
 7281SOL    HW328891   2.146   1.220   5.259 -0.4083  0.2936 -0.9622
 7281SOL    MW428892   2.135   1.261   5.335  0.5942 -0.1108 -0.5850
 7282SOL     OW28893   5.919   6.143   4.877 -0.3202 -0.5012 -0.3360
 7282SOL    HW228894   5.915   6.238   4.862  0.6881 -0.3330  0.3673
 7282SOL    HW328895   5.877   6.105   4.800 -0.1255  0.4976 -0.9547
 7282SOL    MW428896   5.912   6.151   4.865 -0.1614 -0.3472 -0.3248
 7283SOL     OW28897   2.198   0.130   4.321  0.0442  0.1839  0.3982
 7283SOL    HW228898   2.177   0.040   4.296 -0.2292  0.3252  0.1064
 7283SOL    HW328899   2.216   0.125   4.415  1.1522 -0.3640  0.1667
 7283SOL    MW428900   2.198   0.117   4.330  0.1543  0.1302  0.3292
 7284SOL     OW28901   5.421   3.525   0.266 -0.0564  0.6628 -0.2065
 7284SOL    HW228902   5.479   3.585   0.220 -0.3719  1.8450  0.8948
 7284SOL    HW328903   5.448   3.438   0.236 -1.1367  1.3461 -3.6710
 7284SOL    MW428904   5.432   3.521   0.256 -0.2405  0.9089 -0.5183
 7285SOL     OW28905   2.312   4.422   2.377  0.3857 -0.0066  0.1189
 7285SOL    HW228906   2.321   4.335   2.336  0.3636  0.4578 -0.9065
 7285SOL    HW328907   2.283   4.479   2.306  0.2114  0.8111  0.8283
 7285SOL    MW428908   2.310   4.418   2.362  0.3598  0.1625  0.0772
 7286SOL     OW28909   5.393   4.233   3.959  0.5501 -0.0413  0.1065
 7286SOL    HW228910   5.431   4.203   3.877  0.0333 -0.4971  0.0267
 7286SOL    HW328911   5.403   4.328   3.957  1.5070 -0.1363  0.0080
 7286SOL    MW428912   5.399   4.242   3.948  0.6082 -0.1139  0.0829
 7287SOL     OW28913   1.780   3.059   5.324  0.4476 -0.5419  0.1423
 7287SOL    HW228914   1.817   3.129   5.378  2.2979 -0.1930 -1.4404
 7287SOL    HW328915   1.771   2.984   5.383  0.7966  0.3027  1.2923
 7287SOL    MW428916   1.784   3.058   5.339  0.7378 -0.3844  0.0852
 7288SOL     OW28917   0.048   4.333   0.371  0.1456 -0.0246 -0.1025
 7288SOL    HW228918   0.107   4.262   0.344  0.0879  0.1402 -0.6955
 7288SOL    HW328919  -0.029   4.321   0.316 -0.5320 -0.4480  0.9127
 7288SOL    MW428920   0.046   4.322   0.360  0.0486 -0.0587 -0.0468
 7289SOL     OW28921   3.724   3.148   2.270 -0.0396  0.1899  0.1848
 7289SOL    HW228922   3.642   3.154   2.221 -1.1856  0.1147  2.0061
 7289SOL    HW328923   3.712   3.206   2.345  1.3124 -0.3307  0.8493
 7289SOL    MW428924   3.712   3.156   2.274 -0.0124  0.1113  0.5128
 7290SOL     OW28925   1.176   1.833   0.779 -0.2528  0.2290 -0.2056
 7290SOL    HW228926   1.247   1.877   0.733 -0.4906  1.2463  0.3652
 7290SOL    HW328927   1.107   1.822   0.713  0.0507  0.1328 -0.5092
 7290SOL    MW428928   1.176   1.837   0.764 -0.2442  0.3505 -0.1704
 7291SOL     OW28929   5.783   1.126   0.950 -0.3987 -0.0843  0.0892
 7291SOL    HW228930   5.816   1.039   0.973 -0.9288 -0.7278 -1.4448
 7291SOL    HW328931   5.688   1.115   0.946 -0.3642  0.0583 -1.9351
 7291SOL    MW428932   5.775   1.113   0.953 -0.4641 -0.1504 -0.3803
 7292SOL     OW28933   3.811   4.747   5.334  0.1679 -0.0632  0.5538
 7292SOL    HW228934   3.891   4.714   5.376  0.2234  1.2008  1.5164
 7292SOL    HW328935   3.781   4.675   5.279  2.7793 -0.0687 -1.0348
 7292SOL    MW428936   3.817   4.733   5.333  0.5198  0.1029  0.4712
 7293SOL     OW28937   5.386   4.816   2.729 -0.3506 -0.0296  0.1897
 7293SOL    HW228938   5.417   4.872   2.657 -0.7576 -0.4366 -0.3090
 7293SOL    HW328939   5.373   4.877   2.802  1.6777  0.1633  0.4655
 7293SOL    MW428940   5.389   4.832   2.729 -0.1367 -0.0579  0.1603
 7294SOL     OW28941   0.422   1.739   0.766 -0.2030  0.0815  0.0689
 7294SOL    HW228942   0.372   1.815   0.737 -2.3483 -1.3090 -0.1439
 7294SOL    HW328943   0.399   1.670   0.704  0.3881 -1.1895  1.1959
 7294SOL    MW428944   0.412   1.740   0.754 -0.4080 -0.2697  0.1895
 7295SOL     OW28945   5.883   0.813   4.796  0.3059 -0.3111  0.0828
 7295SOL    HW228946   5.907   0.777   4.882  0.8212  0.4051  0.2506
 7295SOL    HW328947   5.800   0.771   4.775  0.5085 -1.0014  0.6287
 7295SOL    MW428948   5.875   0.803   4.805  0.4006 -0.3077  0.1770
 7296SOL     OW28949   1.975   0.487   3.846 -0.3010  0.3756  0.0816
 7296SOL    HW228950   1.994   0.579   3.826  1.0278  0.3073  0.9028
 7296SOL    HW328951   1.922   0.491   3.926  0.7606  0.4238  0.8120
 7296SOL    MW428952   1.971   0.500   3.854  0.0144  0.3730  0.2863
 7297SOL     OW28953   5.750   3.141   4.767  0.1674  0.4776 -0.4680
 7297SOL    HW228954   5.679   3.128   4.705 -1.2037 -1.2292  1.3162
 7297SOL    HW328955   5.790   3.054   4.776  0.9467  0.8994  0.3020
 7297SOL    MW428956   5.746   3.128   4.760  0.0893  0.3081 -0.1310
 7298SOL     OW28957   6.377   5.151   3.985 -0.4112 -0.0465  0.4488
 7298SOL    HW228958   6.373   5.056   3.974 -0.7362  0.1677 -2.0745
 7298SOL    HW328959   6.286   5.178   3.992 -0.3152  0.0896  1.2431
 7298SOL    MW428960   6.365   5.142   3.984 -0.4414 -0.0003  0.2207
 7299SOL     OW28961   6.026   6.115   2.943 -0.0578 -0.2977  0.0912
 7299SOL    HW228962   6.046   6.208   2.942 -0.6261 -0.1127  2.0358
 7299SOL    HW328963   6.105   6.073   2.975  0.2764 -0.5386 -0.9977
 7299SOL    MW428964   6.039   6.122   2.947 -0.0887 -0.3050  0.2041
 7300SOL     OW28965   4.263   3.030   3.045  0.0797  0.5099 -0.1312
 7300SOL    HW228966   4.218   2.998   2.967 -0.5051 -0.1532  0.4628
 7300SOL    HW328967   4.354   3.045   3.017  0.2848 -1.3167 -0.5443
 7300SOL    MW428968   4.269   3.028   3.031  0.0296  0.1814 -0.1073
 7301SOL     OW28969   5.269   5.654   3.738  0.2202  0.5119 -0.0422
 7301SOL    HW228970   5.225   5.734   3.766 -1.5458  0.5810 -2.6162
 7301SOL    HW328971   5.313   5.678   3.657 -0.2427 -1.0328 -0.7963
 7301SOL    MW428972   5.269   5.667   3.731 -0.0739  0.3172 -0.4813
 7302SOL     OW28973   2.435   3.215   2.699  0.2092  0.3284  0.0832
 7302SOL    HW228974   2.452   3.280   2.768  0.3164  1.7652 -1.2444
 7302SOL    HW328975   2.352   3.175   2.724 -0.1235  1.3497  0.6827
 7302SOL    MW428976   2.426   3.218   2.712  0.1794  0.6527 -0.0129
 7303SOL     OW28977   0.375   3.456   4.863 -0.0920  0.5371  0.0484
 7303SOL    HW228978   0.461   3.413   4.859 -0.4020  0.0054 -2.0639
 7303SOL    HW328979   0.381   3.527   4.799 -1.0454  0.8322  0.2750
 7303SOL    MW428980   0.387   3.460   4.854 -0.2587  0.5059 -0.2004
 7304SOL     OW28981   3.379   1.006   0.742  0.0008 -0.7606 -0.1241
 7304SOL    HW228982   3.340   1.076   0.794  0.5744  0.1086 -0.8413
 7304SOL    HW328983   3.380   0.930   0.801 -1.6467 -0.4947  0.2993
 7304SOL    MW428984   3.374   1.005   0.757 -0.1409 -0.6108 -0.1628
 7305SOL     OW28985   4.471   5.666   1.592  0.2228  0.9329 -0.0093
 7305SOL    HW228986   4.484   5.599   1.660 -0.1277 -2.2829 -2.8279
 7305SOL    HW328987   4.532   5.641   1.523 -0.2902  3.3424 -1.4467
 7305SOL    MW428988   4.481   5.654   1.592  0.1089  0.8265 -0.5709
 7306SOL     OW28989   4.132   5.638   5.149 -0.3485  0.1169  0.0657
 7306SOL    HW228990   4.175   5.574   5.205 -0.6923 -0.3645 -0.2137
 7306SOL    HW328991   4.160   5.616   5.060  1.6123  1.9640  0.1537
 7306SOL    MW428992   4.141   5.627   5.145 -0.1352  0.2971  0.0404
 7307SOL     OW28993   4.820   5.530   5.473  0.5577 -0.1533 -0.2092
 7307SOL    HW228994   4.801   5.442   5.505 -1.7869  0.6127  0.7238
 7307SOL    HW328995   4.793   5.529   5.381 -0.2571 -0.2114  0.0219
 7307SOL    MW428996   4.814   5.518   5.465  0.1409 -0.0599 -0.0556
 7308SOL     OW28997   5.146   2.649   0.112 -0.4246  0.3026  0.0581
 7308SOL    HW228998   5.179   2.620   0.027 -0.1187  0.3411  0.1586
 7308SOL    HW328999   5.205   2.608   0.175  0.6510  1.9103  0.1691
 7308SOL    MW429000   5.158   2.640   0.109 -0.2423  0.5198  0.0861
 7309SOL     OW29001   0.408   2.824   2.150  0.0227 -0.6460  0.3218
 7309SOL    HW229002   0.334   2.885   2.146  1.1293  0.7955  1.0212
 7309SOL    HW329003   0.427   2.816   2.243  0.5384 -1.2941  0.1698
 7309SOL    MW429004   0.401   2.831   2.162  0.2367 -0.5413  0.3941
 7310SOL     OW29005   0.803   3.974   5.556 -0.3902  0.1440 -0.4956
 7310SOL    HW229006   0.758   3.950   5.637  0.6030 -1.9180 -0.5023
 7310SOL    HW329007   0.896   3.970   5.578 -0.1369  0.6874 -1.4409
 7310SOL    MW429008   0.809   3.970   5.569 -0.2257 -0.0563 -0.6212
 7311SOL     OW29009   2.245   5.490   6.217  0.3662  0.3444 -0.2395
 7311SOL    HW229010   2.214   5.581   6.218  0.9429  0.7028 -3.5313
 7311SOL    HW329011   2.177   5.442   6.171  0.5017 -0.7426  0.6606
 7311SOL    MW429012   2.232   5.496   6.211  0.4602  0.2483 -0.5551
 7312SOL     OW29013   3.153   1.886   0.150  0.7173 -0.0625 -0.5389
 7312SOL    HW229014   3.138   1.942   0.226  1.6896 -1.0713  0.4279
 7312SOL    HW329015   3.227   1.928   0.105 -0.9017  1.4775 -1.9201
 7312SOL    MW429016   3.161   1.899   0.154  0.6320  0.0076 -0.5936
 7313SOL     OW29017   5.539   5.134   1.750  0.1114 -0.7124 -0.1314
 7313SOL    HW229018   5.502   5.065   1.696 -1.3392 -0.3280  0.2992
 7313SOL    HW329019   5.606   5.175   1.696 -0.9848 -0.6240 -1.4819
 7313SOL    MW429020   5.543   5.130   1.736 -0.2246 -0.6500 -0.2528
 7314SOL     OW29021   4.467   0.493   1.692  0.1754 -0.0991  0.4161
 7314SOL    HW229022   4.394   0.430   1.691 -0.2335  0.3698 -0.7688
 7314SOL    HW329023   4.437   0.565   1.637 -0.6715  2.6604  4.0724
 7314SOL    MW429024   4.453   0.494   1.685  0.0097  0.3268  0.7422
 7315SOL     OW29025   0.099   6.140   4.704  0.3761  0.1385 -0.8503
 7315SOL    HW229026   0.099   6.055   4.748  2.3317  1.2143  1.4928
 7315SOL    HW329027   0.015   6.179   4.726  0.5537 -0.1437  0.4286
 7315SOL    MW429028   0.088   6.134   4.713  0.6575  0.2432 -0.3724
 7316SOL     OW29029   5.489   5.120   5.400 -0.4482 -0.0858 -0.2036
 7316SOL    HW229030   5.411   5.068   5.381 -0.4737  0.0572 -0.4939
 7316SOL    HW329031   5.465   5.209   5.376 -0.5437  0.1372  0.6752
 7316SOL    MW429032   5.475   5.125   5.395 -0.4642 -0.0375 -0.1259
 7317SOL     OW29033   3.059   0.812   4.604 -0.0805 -0.0704  0.0948
 7317SOL    HW229034   3.067   0.717   4.595  0.7555 -0.0020  0.0804
 7317SOL    HW329035   2.975   0.824   4.649 -0.7386 -0.7594 -0.9073
 7317SOL    MW429036   3.049   0.801   4.609 -0.0570 -0.1523 -0.0393
 7318SOL     OW29037   6.061   4.126   4.713 -0.0365 -0.1129 -0.1500
 7318SOL    HW229038   6.073   4.157   4.803 -1.6688 -0.5044  0.2295
 7318SOL    HW329039   6.087   4.034   4.716 -0.9669 -0.3761  0.1576
 7318SOL    MW429040   6.066   4.118   4.725 -0.3746 -0.1993 -0.0593
 7319SOL     OW29041   2.281   1.067   0.707  0.6711  0.5727  0.2005
 7319SOL    HW229042   2.193   1.034   0.724  1.2722 -1.7753 -0.8606
 7319SOL    HW329043   2.269   1.161   0.694 -1.4768  0.4953  1.2731
 7319SOL    MW429044   2.268   1.075   0.707  0.4670  0.2527  0.2020
 7320SOL     OW29045   4.294   6.426   2.480 -0.3898 -0.6812  0.0148
 7320SOL    HW229046   4.351   6.499   2.458 -0.8244  0.3760  2.1434
 7320SOL    HW329047   4.231   6.421   2.408  0.1131  0.5575 -0.5339
 7320SOL    MW429048   4.293   6.435   2.468 -0.3808 -0.3783  0.2233
 7321SOL     OW29049   5.690   2.948   5.672  0.1734  0.1202  0.3222
 7321SOL    HW229050   5.704   2.886   5.743  0.5130  1.4039  1.4019
 7321SOL    HW329051   5.611   2.996   5.696 -0.0501  0.1753 -0.4735
 7321SOL    MW429052   5.681   2.946   5.684  0.1887  0.2968  0.3597
 7322SOL     OW29053   5.179   5.304   5.670 -0.2101  0.4717 -0.0535
 7322SOL    HW229054   5.212   5.373   5.613  0.0182 -0.7094 -1.3770
 7322SOL    HW329055   5.116   5.256   5.616  0.3248 -0.9359  0.5373
 7322SOL    MW429056   5.175   5.307   5.656 -0.1094  0.1302 -0.1501
 7323SOL     OW29057   4.107   4.273   1.049  0.3795  0.2471  0.3010
 7323SOL    HW229058   4.087   4.203   1.111  0.0677  0.9373  0.9985
 7323SOL    HW329059   4.192   4.307   1.078 -0.6807  1.9403  1.6857
 7323SOL    MW429060   4.116   4.268   1.061  0.1985  0.5615  0.5757
 7324SOL     OW29061   0.526   6.356   5.163 -0.0475 -0.0592  0.1524
 7324SOL    HW229062   0.582   6.280   5.145 -1.1877 -0.5108 -1.7877
 7324SOL    HW329063   0.441   6.319   5.186 -0.4199  0.6201 -0.0924
 7324SOL    MW429064   0.522   6.341   5.164 -0.2471 -0.0291 -0.1359
 7325SOL     OW29065   4.305   4.645   5.953 -0.0201  0.8717 -0.1669
 7325SOL    HW229066   4.329   4.596   5.874 -0.5512  1.6893 -0.8564
 7325SOL    HW329067   4.328   4.586   6.025 -3.7591 -1.9874 -0.9511
 7325SOL    MW429068   4.311   4.631   5.952 -0.5835  0.6024 -0.3613
 7326SOL     OW29069   3.193   1.835   1.763  0.4518 -0.2498  0.3130
 7326SOL    HW229070   3.277   1.873   1.790  0.2152  0.9742 -0.6192
 7326SOL    HW329071   3.131   1.866   1.829  0.7266 -1.2953  1.1016
 7326SOL    MW429072   3.196   1.844   1.775  0.4569 -0.2263  0.2940
 7327SOL     OW29073   1.087   4.968   3.824 -0.6439 -0.6895  0.6934
 7327SOL    HW229074   1.170   4.940   3.863  0.5450  1.5976 -0.0226
 7327SOL    HW329075   1.091   5.064   3.825 -2.1700 -0.5172 -1.6511
 7327SOL    MW429076   1.099   4.977   3.830 -0.6884 -0.3650  0.2896
 7328SOL     OW29077   4.204   1.209   1.710 -0.1202  0.0552  0.0758
 7328SOL    HW229078   4.208   1.266   1.633 -1.2962  0.4039  0.2386
 7328SOL    HW329079   4.210   1.120   1.675  0.3752  0.2384 -0.3128
 7328SOL    MW429080   4.205   1.205   1.695 -0.2100  0.1254  0.0460
 7329SOL     OW29081   2.448   5.834   3.090 -0.1766  0.2609 -0.0986
 7329SOL    HW229082   2.358   5.828   3.058  0.4222 -2.4811 -1.5806
 7329SOL    HW329083   2.465   5.748   3.130  1.8547  0.6093 -0.0913
 7329SOL    MW429084   2.439   5.822   3.091  0.1704 -0.0549 -0.2931
 7330SOL     OW29085   4.413   1.804   3.052 -0.0560 -0.0537  0.2917
 7330SOL    HW229086   4.332   1.753   3.054 -0.0019 -0.2637 -1.2670
 7330SOL    HW329087   4.433   1.812   2.958  0.5953  1.7812  0.5459
 7330SOL    MW429088   4.405   1.798   3.040  0.0371  0.1607  0.1196
 7331SOL     OW29089   0.086   5.260   0.750  0.6904 -0.0627  0.8263
 7331SOL    HW229090   0.026   5.307   0.808 -0.0279  1.0621 -0.7526
 7331SOL    HW329091   0.165   5.315   0.748  0.1296  0.7462 -0.4333
 7331SOL    MW429092   0.089   5.274   0.757  0.5216  0.1924  0.4518
 7332SOL     OW29093   2.867   1.963   4.045 -0.5652 -0.3874 -0.1966
 7332SOL    HW229094   2.835   1.875   4.064  0.1679 -1.0962 -2.0140
 7332SOL    HW329095   2.843   2.015   4.122 -1.2193 -2.1093  0.8060
 7332SOL    MW429096   2.860   1.958   4.058 -0.5548 -0.7081 -0.3041
 7333SOL     OW29097   4.872   0.290   4.475  0.3404  0.4368  0.4520
 7333SOL    HW229098   4.939   0.296   4.407 -0.0894  1.2487  0.0800
 7333SOL    HW329099   4.790   0.280   4.427 -0.3983  4.2995  0.6003
 7333SOL    MW429100   4.870   0.290   4.460  0.1862  1.0536  0.4225
 7334SOL     OW29101   2.217   1.627   5.198 -0.0862  0.3539 -0.3186
 7334SOL    HW229102   2.228   1.588   5.111 -0.7205 -0.3676 -0.0872
 7334SOL    HW329103   2.249   1.560   5.259  0.4542  0.8962  0.0033
 7334SOL    MW429104   2.223   1.613   5.195 -0.0986  0.3302 -0.2456
 7335SOL     OW29105   5.593   0.448   2.851 -0.2103  0.5937  0.1809
 7335SOL    HW229106   5.657   0.398   2.901 -2.2611  0.3573  2.7790
 7335SOL    HW329107   5.639   0.472   2.771  1.7763 -3.0826 -0.0050
 7335SOL    MW429108   5.607   0.444   2.847 -0.2188  0.0774  0.4991
 7336SOL     OW29109   6.134   4.303   1.361 -0.0568 -0.6129 -0.0587
 7336SOL    HW229110   6.129   4.388   1.318 -0.3938 -1.1470 -1.1342
 7336SOL    HW329111   6.046   4.289   1.397 -0.0609 -0.5873 -0.0588
 7336SOL    MW429112   6.122   4.312   1.360 -0.1018 -0.6800 -0.2006
 7337SOL     OW29113   2.712   2.797   3.487 -0.2220  0.5495 -0.1504
 7337SOL    HW229114   2.753   2.711   3.476 -2.1239 -0.2599 -1.3805
 7337SOL    HW329115   2.718   2.837   3.400  1.5087  2.1530  0.6110
 7337SOL    MW429116   2.718   2.791   3.474 -0.2446  0.6543 -0.2122
 7338SOL     OW29117   1.819   2.810   4.762 -0.0597  0.2381 -0.2118
 7338SOL    HW229118   1.863   2.758   4.829  1.4314 -0.4575 -1.6756
 7338SOL    HW329119   1.754   2.751   4.724 -0.1223  0.2795 -0.1717
 7338SOL    MW429120   1.816   2.796   4.766  0.1288  0.1518 -0.3996
 7339SOL     OW29121   4.962   3.424   3.827 -0.3232  0.4769 -0.3499
 7339SOL    HW229122   5.016   3.383   3.760 -1.6140 -0.1976 -1.0361
 7339SOL    HW329123   4.885   3.456   3.779 -0.7400  0.9915  0.6383
 7339SOL    MW429124   4.959   3.423   3.812 -0.5485  0.4558 -0.3101
 7340SOL     OW29125   6.412   4.693   2.306  0.2981  0.3549  0.0402
 7340SOL    HW229126   6.327   4.654   2.326  0.8008 -0.4906  0.5798
 7340SOL    HW329127   6.402   4.785   2.328 -0.2779  0.1266  0.7796
 7340SOL    MW429128   6.400   4.700   2.312  0.2884  0.2132  0.2089
 7341SOL     OW29129   0.560   0.202   4.343 -0.4283 -0.2945  0.3065
 7341SOL    HW229130   0.527   0.174   4.428 -0.2099 -1.9427 -0.1126
 7341SOL    HW329131   0.654   0.213   4.355 -0.1631 -1.9538 -0.0369
 7341SOL    MW429132   0.568   0.200   4.356 -0.3645 -0.7309  0.2059
 7342SOL     OW29133   2.719   3.466   5.991 -0.1895  0.1834  0.2382
 7342SOL    HW229134   2.725   3.374   6.018  0.7780  0.2083  0.1445
 7342SOL    HW329135   2.625   3.483   5.985 -0.4139 -1.2725 -1.3316
 7342SOL    MW429136   2.708   3.456   5.994 -0.0915 -0.0054  0.0187
 7343SOL     OW29137   3.368   4.620   5.744  0.1965 -0.0286 -0.4054
 7343SOL    HW229138   3.354   4.606   5.651  0.9931 -0.1603 -0.5180
 7343SOL    HW329139   3.343   4.711   5.759 -0.5444 -0.1962 -0.6154
 7343SOL    MW429140   3.363   4.630   5.734  0.2039 -0.0681 -0.4480
 7344SOL     OW29141   4.770   5.170   4.108  0.0168  0.0473  0.3444
 7344SOL    HW229142   4.776   5.259   4.142 -1.0259  0.3968 -0.3312
 7344SOL    HW329143   4.780   5.179   4.013  0.1760 -0.5896  0.2946
 7344SOL    MW429144   4.772   5.183   4.100 -0.0998  0.0094  0.2487
 7345SOL     OW29145   5.919   2.833   3.086 -0.4210 -0.6017  0.1809
 7345SOL    HW229146   5.993   2.784   3.051 -1.1839 -0.7944 -1.2280
 7345SOL    HW329147   5.908   2.907   3.027 -1.5555 -0.7658  0.1506
 7345SOL    MW429148   5.927   2.836   3.074 -0.6713 -0.6488 -0.0090
 7346SOL     OW29149   0.079   0.738   2.769 -0.3660  0.0769 -0.2645
 7346SOL    HW229150   0.101   0.818   2.817 -1.5789 -0.0524  0.5435
 7346SOL    HW329151   0.126   0.669   2.815 -0.4863  0.1298 -0.0623
 7346SOL    MW429152   0.088   0.740   2.781 -0.5419  0.0668 -0.1312
 7347SOL     OW29153   3.638   5.643   4.271 -0.6145  0.0212  0.4371
 7347SOL    HW229154   3.545   5.654   4.292 -0.4655  3.6866 -0.1521
 7347SOL    HW329155   3.663   5.726   4.232  2.7277 -1.2109 -0.3326
 7347SOL    MW429156   3.629   5.656   4.269 -0.1539  0.3422  0.2578
 7348SOL     OW29157   5.046   5.857   2.053 -0.3934  0.2677 -0.1358
 7348SOL    HW229158   4.982   5.902   2.109 -1.8072 -0.0077 -1.4557
 7348SOL    HW329159   5.073   5.781   2.105 -1.4872  0.1441  0.2927
 7348SOL    MW429160   5.041   5.853   2.067 -0.7242  0.2151 -0.2534
 7349SOL     OW29161   5.261   3.624   2.650 -0.1778  0.3306  0.0642
 7349SOL    HW229162   5.231   3.686   2.583 -0.8829  1.1237  1.0801
 7349SOL    HW329163   5.180   3.596   2.694  0.3970  2.0558  2.4635
 7349SOL    MW429164   5.246   3.629   2.647 -0.1950  0.6628  0.5148
 7350SOL     OW29165   4.448   5.257   5.345 -0.1419  0.1619 -0.1656
 7350SOL    HW229166   4.450   5.249   5.441 -0.7900 -0.5564 -0.2104
 7350SOL    HW329167   4.425   5.348   5.329  0.7093  0.4827  0.3585
 7350SOL    MW429168   4.446   5.268   5.356 -0.1151  0.1095 -0.1024
 7351SOL     OW29169   0.272   4.740   3.774 -0.0623 -0.1213  0.9903
 7351SOL    HW229170   0.361   4.752   3.806 -0.3428  0.9639  1.3961
 7351SOL    HW329171   0.263   4.801   3.701  0.8857 -3.2284 -2.0022
 7351SOL    MW429172   0.283   4.750   3.769  0.0258 -0.3881  0.6490
 7352SOL     OW29173   1.383   3.963   5.313 -0.3651 -0.2373  0.1850
 7352SOL    HW229174   1.381   3.973   5.217  0.0985  0.0826  0.2049
 7352SOL    HW329175   1.415   3.874   5.327  0.6440  0.0862  0.0431
 7352SOL    MW429176   1.387   3.953   5.302 -0.1708 -0.1524  0.1689
 7353SOL     OW29177   3.565   4.113   3.666  0.1473  0.2344  0.0676
 7353SOL    HW229178   3.533   4.035   3.620  0.8600  1.4142 -2.6011
 7353SOL    HW329179   3.495   4.177   3.657  0.2964  0.4873  0.6673
 7353SOL    MW429180   3.552   4.111   3.659  0.2610  0.4234 -0.2054
 7354SOL     OW29181   4.382   2.705   0.235 -0.3167  0.2534 -0.0670
 7354SOL    HW229182   4.426   2.746   0.310  0.9496 -0.2536 -0.5067
 7354SOL    HW329183   4.436   2.628   0.215 -3.2833 -2.4753  1.5346
 7354SOL    MW429184   4.395   2.700   0.242 -0.5411 -0.1735  0.0863
 7355SOL     OW29185   4.694   4.137   4.481 -0.2946  0.3135  0.2650
 7355SOL    HW229186   4.657   4.116   4.395  1.7359 -0.8568 -0.3918
 7355SOL    HW329187   4.670   4.062   4.536 -0.4093  0.4070  0.3437
 7355SOL    MW429188   4.686   4.124   4.477 -0.0418  0.1714  0.1887
 7356SOL     OW29189   5.762   0.298   2.993  0.0412 -0.3121  0.4127
 7356SOL    HW229190   5.768   0.212   2.952 -0.6491  1.1953 -3.3094
 7356SOL    HW329191   5.851   0.332   2.990  0.2372 -0.7045  1.4914
 7356SOL    MW429192   5.774   0.291   2.987 -0.0240 -0.1650  0.0639
 7357SOL     OW29193   5.721   1.499   2.854  0.1482 -0.0219 -0.2047
 7357SOL    HW229194   5.670   1.558   2.909 -2.5431 -0.3030 -2.1806
 7357SOL    HW329195   5.672   1.416   2.857  2.0039 -1.1679 -0.1273
 7357SOL    MW429196   5.708   1.496   2.862  0.0379 -0.2102 -0.4552
 7358SOL     OW29197   1.529   2.289   5.306 -0.6209  0.4892  0.1217
 7358SOL    HW229198   1.574   2.370   5.328 -0.8148 -0.2693  4.0879
 7358SOL    HW329199   1.437   2.314   5.294 -0.5704  0.9633  0.6940
 7358SOL    MW429200   1.523   2.303   5.307 -0.6398  0.4516  0.7205
 7359SOL     OW29201   5.188   2.299   5.952  0.1477 -0.4641  0.1580
 7359SOL    HW229202   5.182   2.394   5.943 -0.7599 -0.2762  2.1991
 7359SOL    HW329203   5.282   2.280   5.943  0.2638  0.5246 -0.9425
 7359SOL    MW429204   5.200   2.309   5.950  0.0433 -0.3089  0.2821
 7360SOL     OW29205   2.110   5.363   2.136  0.2572  0.1573 -0.6669
 7360SOL    HW229206   2.199   5.379   2.105  0.4272  1.8777  0.5399
 7360SOL    HW329207   2.086   5.444   2.182 -2.2360  0.0671 -1.6606
 7360SOL    MW429208   2.119   5.376   2.138 -0.0493  0.3724 -0.6388
 7361SOL     OW29209   2.955   2.727   4.512 -0.1553  0.0280 -0.2533
 7361SOL    HW229210   2.914   2.806   4.475 -1.5362  0.7272  2.4841
 7361SOL    HW329211   3.047   2.735   4.489 -0.6738  1.1613 -2.1229
 7361SOL    MW429212   2.962   2.739   4.504 -0.4059  0.2698 -0.1388
 7362SOL     OW29213   3.500   4.630   3.520 -0.1206 -0.3364 -0.3863
 7362SOL    HW229214   3.571   4.575   3.554  0.9388  1.1910 -0.0367
 7362SOL    HW329215   3.472   4.586   3.440  0.0692 -1.8509  0.3505
 7362SOL    MW429216   3.506   4.617   3.514  0.0443 -0.3347 -0.2430
 7363SOL     OW29217   4.932   6.020   3.111 -0.1572 -0.6134  0.2986
 7363SOL    HW229218   4.902   6.013   3.201  1.2069 -2.8670  0.6715
 7363SOL    HW329219   4.857   5.993   3.058 -0.1028 -2.2386  0.9827
 7363SOL    MW429220   4.918   6.016   3.116  0.0299 -1.1252  0.4381
 7364SOL     OW29221   3.734   1.117   5.304  0.3542  0.3132 -0.6356
 7364SOL    HW229222   3.757   1.093   5.394 -0.4134  0.9111 -0.2634
 7364SOL    HW329223   3.648   1.077   5.289 -0.3063  1.6157 -0.4842
 7364SOL    MW429224   3.726   1.109   5.314  0.1658  0.5639 -0.5665
 7365SOL     OW29225   0.574   3.524   3.199 -0.7227 -0.0382  0.3171
 7365SOL    HW229226   0.570   3.455   3.133  0.1551 -0.0102  0.2243
 7365SOL    HW329227   0.515   3.494   3.268 -4.4725  1.5273 -1.9052
 7365SOL    MW429228   0.566   3.511   3.199 -1.1016  0.1721  0.0116
 7366SOL     OW29229   2.369   5.766   2.128  0.2172 -0.0848 -0.1992
 7366SOL    HW229230   2.404   5.736   2.212 -1.2347 -0.3758  0.3378
 7366SOL    HW329231   2.418   5.846   2.108  0.9042 -0.2729  0.6824
 7366SOL    MW429232   2.380   5.772   2.136  0.1163 -0.1480 -0.0121
 7367SOL     OW29233   3.039   4.588   2.187  0.0203 -0.2937 -0.4937
 7367SOL    HW229234   2.980   4.580   2.112  1.3632 -0.2934 -1.5769
 7367SOL    HW329235   3.027   4.507   2.236 -2.7018  0.7233  0.7057
 7367SOL    MW429236   3.029   4.576   2.184 -0.1616 -0.1595 -0.4783
 7368SOL     OW29237   3.520   6.372   4.820  0.3149  0.2823 -0.4490
 7368SOL    HW229238   3.436   6.413   4.839  0.2683  0.2106 -0.4996
 7368SOL    HW329239   3.579   6.444   4.799 -0.0865  0.2349 -1.7988
 7368SOL    MW429240   3.517   6.387   4.820  0.2558  0.2666 -0.6338
 7369SOL     OW29241   5.613   6.373   0.501 -0.0419  0.3740  0.4451
 7369SOL    HW229242   5.559   6.296   0.487  0.2502  0.2246  0.1219
 7369SOL    HW329243   5.568   6.423   0.570  1.6288 -1.8882  3.4172
 7369SOL    MW429244   5.600   6.370   0.509  0.2170  0.0558  0.7946
 7370SOL     OW29245   3.527   5.939   5.066 -0.0142 -0.8411 -0.0114
 7370SOL    HW229246   3.530   5.845   5.045 -1.4123 -1.0981  0.7574
 7370SOL    HW329247   3.565   5.946   5.153 -0.2551 -0.7490  0.0870
 7370SOL    MW429248   3.532   5.927   5.075 -0.2304 -0.8628  0.1030
 7371SOL     OW29249   4.551   5.620   2.739  0.1336  0.0333 -0.3159
 7371SOL    HW229250   4.490   5.583   2.675 -1.0339 -0.0800  0.8314
 7371SOL    HW329251   4.549   5.559   2.813  1.2277  0.3187 -0.0301
 7371SOL    MW429252   4.542   5.607   2.740  0.1239  0.0560 -0.1268
 7372SOL     OW29253   3.620   5.264   0.976 -0.3979 -1.1006 -0.3834
 7372SOL    HW229254   3.610   5.221   1.062 -1.6008 -0.7456 -0.3206
 7372SOL    HW329255   3.540   5.240   0.929 -0.5815  0.1660 -0.7469
 7372SOL    MW429256   3.608   5.255   0.981 -0.5808 -0.8866 -0.4231
 7373SOL     OW29257   2.533   3.799   3.450 -0.1250  0.3486 -0.2035
 7373SOL    HW229258   2.607   3.744   3.476  0.8480  1.5073 -0.4289
 7373SOL    HW329259   2.547   3.818   3.357  0.3948  2.1788  0.2092
 7373SOL    MW429260   2.544   3.794   3.441  0.0719  0.7429 -0.1788
 7374SOL     OW29261   4.720   3.297   6.231 -0.2178 -0.0511  0.5610
 7374SOL    HW229262   4.659   3.365   6.205 -1.6020 -2.0497 -1.9399
 7374SOL    HW329263   4.665   3.225   6.263  1.0699 -0.6525  1.5554
 7374SOL    MW429264   4.705   3.296   6.232 -0.2305 -0.3941  0.3622
 7375SOL     OW29265   6.030   2.558   2.449 -0.0648 -0.0456  0.0396
 7375SOL    HW229266   6.090   2.530   2.381 -0.2610 -0.2657 -0.0461
 7375SOL    HW329267   5.972   2.621   2.406  0.6402  0.8410  0.3346
 7375SOL    MW429268   6.030   2.563   2.435  0.0023  0.0423  0.0672
 7376SOL     OW29269   0.574   2.804   4.727 -0.3929  0.4663  0.7142
 7376SOL    HW229270   0.656   2.836   4.766  0.1840  0.5024 -0.4786
 7376SOL    HW329271   0.531   2.883   4.693  0.5841  0.1478 -1.3986
 7376SOL    MW429272   0.579   2.819   4.728 -0.1879  0.4291  0.2781
 7377SOL     OW29273   3.650   5.801   5.628  0.1899  0.5063  0.6807
 7377SOL    HW229274   3.746   5.801   5.621  0.2491  3.3785  0.1903
 7377SOL    HW329275   3.633   5.784   5.721  1.2565  1.1791  1.0248
 7377SOL    MW429276   3.660   5.798   5.639  0.3384  0.9740  0.6614
 7378SOL     OW29277   0.123   1.827   0.336  0.2213  0.0432 -0.3522
 7378SOL    HW229278   0.047   1.863   0.382  1.1296  3.5130 -1.2626
 7378SOL    HW329279   0.100   1.833   0.243  0.5296 -1.6859 -0.5830
 7378SOL    MW429280   0.110   1.833   0.330  0.3818  0.2728 -0.5028
 7379SOL     OW29281   3.524   2.440   3.536 -0.2483 -0.1496  0.3643
 7379SOL    HW229282   3.520   2.386   3.457 -3.0924 -0.4323  0.6095
 7379SOL    HW329283   3.584   2.393   3.594  0.8918 -0.5951 -1.1183
 7379SOL    MW429284   3.532   2.427   3.533 -0.4731 -0.2457  0.2010
 7380SOL     OW29285   3.648   5.685   2.873 -0.4634 -0.4281 -0.1698
 7380SOL    HW229286   3.639   5.724   2.786 -0.2247  3.1759  1.2460
 7380SOL    HW329287   3.741   5.668   2.883 -0.3503  0.1219 -0.2635
 7380SOL    MW429288   3.659   5.688   2.863 -0.4170  0.1200  0.0046
 7381SOL     OW29289   0.843   4.592   5.486 -0.0123 -0.1817  0.0779
 7381SOL    HW229290   0.848   4.647   5.408 -1.5804 -0.3531 -0.1682
 7381SOL    HW329291   0.905   4.521   5.470  1.6218  1.1625  0.1545
 7381SOL    MW429292   0.852   4.590   5.474 -0.0036 -0.0270  0.0556
 7382SOL     OW29293   5.160   6.051   3.501  0.1554  0.1756 -0.2676
 7382SOL    HW229294   5.096   6.121   3.518  0.6288  0.7989 -0.9976
 7382SOL    HW329295   5.184   6.063   3.409  0.3820 -0.8447 -0.3460
 7382SOL    MW429296   5.155   6.062   3.491  0.2477  0.1233 -0.3743
 7383SOL     OW29297   4.123   1.025   1.498  0.9156 -0.2593 -0.2779
 7383SOL    HW229298   4.091   0.936   1.509  0.9500 -0.2662 -0.2333
 7383SOL    HW329299   4.209   1.015   1.459  0.6339 -0.2223 -0.9218
 7383SOL    MW429300   4.130   1.012   1.494  0.8830 -0.2553 -0.3569
 7384SOL     OW29301   1.530   3.478   3.075 -0.3127 -0.5471 -0.2228
 7384SOL    HW229302   1.566   3.389   3.077  1.3025  0.0402 -1.0794
 7384SOL    HW329303   1.532   3.502   2.982 -0.5579  0.4665  0.0220
 7384SOL    MW429304   1.535   3.469   3.063 -0.1319 -0.3359 -0.3036
 7385SOL     OW29305   4.284   2.861   3.924  0.2646  0.3985 -0.3196
 7385SOL    HW229306   4.200   2.889   3.960  0.4685  0.9773 -0.2801
 7385SOL    HW329307   4.319   2.801   3.990  0.3708  0.9991  0.1809
 7385SOL    MW429308   4.277   2.857   3.938  0.3055  0.5541 -0.2483
 7386SOL     OW29309   4.347   0.863   4.981  0.4583  0.1484  0.1493
 7386SOL    HW229310   4.300   0.938   5.017 -0.9595 -0.7586  0.2651
 7386SOL    HW329311   4.313   0.854   4.892  1.6411  0.4783 -0.3471
 7386SOL    MW429312   4.336   0.872   4.974  0.4273  0.0723  0.0991
 7387SOL     OW29313   1.895   0.527   3.134 -0.4871 -0.4797 -0.3184
 7387SOL    HW229314   1.949   0.490   3.064 -1.2490 -1.2859 -0.4938
 7387SOL    HW329315   1.902   0.464   3.205 -0.6952 -0.2668 -0.1077
 7387SOL    MW429316   1.903   0.514   3.134 -0.6151 -0.5580 -0.3138
 7388SOL     OW29317   4.030   4.346   2.969  0.1391  0.1605  0.3565
 7388SOL    HW229318   4.015   4.257   2.938 -0.0385  0.4835 -0.5349
 7388SOL    HW329319   4.109   4.375   2.923 -0.1096  0.6411  0.2136
 7388SOL    MW429320   4.038   4.338   2.959  0.0828  0.2665  0.2201
 7389SOL     OW29321   0.165   3.880   0.363 -0.6371  0.0083 -0.9453
 7389SOL    HW229322   0.220   3.848   0.292 -0.1145 -1.2980  0.0219
 7389SOL    HW329323   0.075   3.867   0.333 -0.4585  1.2876 -2.1445
 7389SOL    MW429324   0.160   3.874   0.350 -0.5446  0.0047 -0.9759
 7390SOL     OW29325   4.367   4.359   1.133  0.0259  0.0717  0.6923
 7390SOL    HW229326   4.374   4.311   1.050 -0.3964 -0.8270  1.1674
 7390SOL    HW329327   4.388   4.450   1.109  1.5116 -0.4438 -0.0986
 7390SOL    MW429328   4.370   4.365   1.119  0.1662 -0.1149  0.6506
 7391SOL     OW29329   1.260   2.701   5.154  0.4763 -0.0698 -0.3205
 7391SOL    HW229330   1.355   2.714   5.158  0.2676  1.4792  1.4579
 7391SOL    HW329331   1.225   2.763   5.219 -1.7157 -0.9988 -0.5194
 7391SOL    MW429332   1.268   2.711   5.163  0.1596  0.0120 -0.1121
 7392SOL     OW29333   4.442   3.749   0.141 -0.4167 -0.4343 -0.3374
 7392SOL    HW229334   4.374   3.737   0.207 -1.4204  0.2548 -1.2188
 7392SOL    HW329335   4.414   3.695   0.067 -0.2182  0.1538 -0.8496
 7392SOL    MW429336   4.429   3.741   0.140 -0.5230 -0.2658 -0.5213
 7393SOL     OW29337   3.705   0.732   4.649  0.1367 -0.1288 -0.0295
 7393SOL    HW229338   3.705   0.645   4.689 -0.4132 -0.1382 -0.0313
 7393SOL    HW329339   3.780   0.732   4.590  1.2532  0.0495  1.3400
 7393SOL    MW429340   3.715   0.721   4.646  0.2115 -0.1065  0.1510
 7394SOL     OW29341   2.505   1.948   1.555  0.1918 -0.6742  0.1233
 7394SOL    HW229342   2.522   1.934   1.461  0.7377 -1.4769  0.3276
 7394SOL    HW329343   2.470   2.037   1.560 -2.0023 -1.3833 -1.1121
 7394SOL    MW429344   2.503   1.958   1.543 -0.0257 -0.8737 -0.0128
 7395SOL     OW29345   3.796   4.584   5.621 -0.1642 -0.0287 -0.6371
 7395SOL    HW229346   3.870   4.625   5.665  0.2166 -0.1561 -1.1517
 7395SOL    HW329347   3.797   4.493   5.652 -2.2223  0.7621  2.0942
 7395SOL    MW429348   3.806   4.577   5.631 -0.3855  0.0588 -0.3446
 7396SOL     OW29349   4.645   2.825  -0.009 -0.3063  0.3656 -0.1572
 7396SOL    HW229350   4.565   2.774  -0.023  0.5168 -0.8768 -0.5095
 7396SOL    HW329351   4.614   2.914   0.010 -1.8418 -0.4924  1.6911
 7396SOL    MW429352   4.630   2.830  -0.008 -0.4003  0.0885  0.0402
 7397SOL     OW29353   2.364   6.307   4.975 -0.3317 -0.8936  0.1696
 7397SOL    HW229354   2.374   6.242   5.044  1.1971  0.9410  1.7996
 7397SOL    HW329355   2.425   6.377   4.999 -0.7461  0.4340 -2.3389
 7397SOL    MW429356   2.373   6.308   4.987 -0.1847 -0.4764  0.0537
 7398SOL     OW29357   3.540   5.707   6.310  0.2317  0.6747 -0.0830
 7398SOL    HW229358   3.587   5.675   6.233 -0.6315  0.3133 -0.4696
 7398SOL    HW329359   3.589   5.671   6.384  0.2050 -0.2275 -0.4885
 7398SOL    MW429360   3.552   5.698   6.310  0.1143  0.5080 -0.1875
 7399SOL     OW29361   0.888   2.088   3.914 -0.2349  0.4727  0.1388
 7399SOL    HW229362   0.820   2.044   3.965  1.9913 -3.3944  0.1476
 7399SOL    HW329363   0.897   2.035   3.835  1.1923  2.2502 -0.9693
 7399SOL    MW429364   0.880   2.075   3.911  0.2471  0.1970 -0.0062
 7400SOL     OW29365   2.651   6.148   3.531 -0.1029  0.0954 -0.5068
 7400SOL    HW229366   2.741   6.178   3.547 -0.1518 -0.5194  1.0103
 7400SOL    HW329367   2.596   6.221   3.559 -0.1553 -0.6493  1.4773
 7400SOL    MW429368   2.656   6.162   3.536 -0.1163 -0.0840 -0.0449
 7401SOL     OW29369   3.318   6.025   3.290 -0.1749 -0.0542 -0.2363
 7401SOL    HW229370   3.316   6.110   3.246  1.8841  0.3124  0.2731
 7401SOL    HW329371   3.238   6.022   3.342 -0.3521  1.5144 -0.3921
 7401SOL    MW429372   3.307   6.036   3.291  0.0734  0.2011 -0.1897
 7402SOL     OW29373   6.344   3.548   1.472  0.0877  0.3238  0.1553
 7402SOL    HW229374   6.391   3.631   1.459 -1.0655  1.1680  1.2151
 7402SOL    HW329375   6.331   3.514   1.383 -1.6594  2.5743 -0.5459
 7402SOL    MW429376   6.349   3.554   1.458 -0.2950  0.7321  0.2026
 7403SOL     OW29377   5.717   5.026   3.706 -0.2268  0.4401  0.2500
 7403SOL    HW229378   5.808   4.995   3.710 -0.0645  0.4709 -1.9963
 7403SOL    HW329379   5.723   5.119   3.731  0.4149  0.5148 -0.1479
 7403SOL    MW429380   5.730   5.034   3.710 -0.1207  0.4540 -0.0989
 7404SOL     OW29381   5.896   1.810   4.303 -0.5197  0.1316 -0.1521
 7404SOL    HW229382   5.802   1.823   4.289 -0.1547  0.6489 -2.4423
 7404SOL    HW329383   5.905   1.716   4.321 -1.4001 -0.0397 -0.5552
 7404SOL    MW429384   5.885   1.799   4.304 -0.5877  0.1772 -0.5075
 7405SOL     OW29385   5.197   1.821   0.511 -0.3341 -0.9122  0.0163
 7405SOL    HW229386   5.261   1.758   0.543 -0.9606 -1.5449  0.0382
 7405SOL    HW329387   5.190   1.887   0.580 -1.3023 -1.9937  0.9809
 7405SOL    MW429388   5.205   1.822   0.524 -0.5445 -1.1384  0.1464
 7406SOL     OW29389   2.086   0.732   0.266  0.3476  0.0544 -0.2920
 7406SOL    HW229390   2.062   0.761   0.177 -3.3699  0.8910  0.7870
 7406SOL    HW329391   2.164   0.783   0.288  0.6856  0.6615 -2.6431
 7406SOL    MW429392   2.093   0.743   0.257 -0.0983  0.2448 -0.4599
 7407SOL     OW29393   4.447   5.252   5.626  0.3482 -0.4148 -0.5074
 7407SOL    HW229394   4.517   5.312   5.650 -0.3071  0.1701  0.0091
 7407SOL    HW329395   4.468   5.170   5.672  0.2137  0.0450  0.3990
 7407SOL    MW429396   4.459   5.249   5.635  0.2440 -0.2769 -0.3196
 7408SOL     OW29397   2.221   0.245   3.024  0.2001 -0.5764  0.4497
 7408SOL    HW229398   2.239   0.203   2.940 -0.8572 -0.9172  0.3690
 7408SOL    HW329399   2.170   0.324   3.001 -0.0412 -0.6392  0.7569
 7408SOL    MW429400   2.216   0.250   3.009  0.0288 -0.6297  0.4796
 7409SOL     OW29401   1.533   5.558   5.199 -0.1629  0.0281  0.1734
 7409SOL    HW229402   1.440   5.580   5.209 -0.6438 -2.3129  1.8419
 7409SOL    HW329403   1.576   5.600   5.273 -0.5370 -1.6753  1.4269
 7409SOL    MW429404   1.526   5.566   5.210 -0.2757 -0.5055  0.5589
 7410SOL     OW29405   6.112   3.520   3.477  0.2037  0.3266 -0.0777
 7410SOL    HW229406   6.105   3.425   3.489  1.7207 -0.0446 -1.6958
 7410SOL    HW329407   6.091   3.556   3.563  0.6049 -1.5315  0.8756
 7410SOL    MW429408   6.109   3.512   3.490  0.4568  0.0325 -0.1654
 7411SOL     OW29409   3.370   4.511   3.742  0.0328 -0.3355 -0.0537
 7411SOL    HW229410   3.435   4.574   3.712  0.4750 -1.3065 -1.2421
 7411SOL    HW329411   3.286   4.550   3.720  0.3021 -0.1569 -0.7992
 7411SOL    MW429412   3.368   4.524   3.735  0.1267 -0.4401 -0.3089
 7412SOL     OW29413   2.919   5.075   5.951 -0.6881 -0.6699  0.4822
 7412SOL    HW229414   2.935   5.165   5.923  0.0445 -1.3820 -1.6016
 7412SOL    HW329415   2.878   5.083   6.037 -0.6049  1.6359  0.3612
 7412SOL    MW429416   2.916   5.088   5.958 -0.5805 -0.4596  0.1913
 7413SOL     OW29417   5.447   3.122   5.427  0.0037  0.0496 -0.1827
 7413SOL    HW229418   5.425   3.042   5.380  0.5291 -0.4000  0.3171
 7413SOL    HW329419   5.474   3.184   5.360 -0.4891 -0.1580 -0.5797
 7413SOL    MW429420   5.447   3.120   5.412  0.0080 -0.0371 -0.1691
 7414SOL     OW29421   6.284   3.838   3.781 -0.3671 -0.3691 -0.4329
 7414SOL    HW229422   6.369   3.800   3.804 -0.7188 -0.5549  0.6099
 7414SOL    HW329423   6.221   3.790   3.834 -1.3142 -1.1593 -2.1774
 7414SOL    MW429424   6.287   3.827   3.791 -0.5385 -0.4979 -0.5255
 7415SOL     OW29425   5.708   1.911   2.167 -0.0229 -0.4098  0.3814
 7415SOL    HW229426   5.748   1.930   2.252 -1.5571  1.4827  0.7530
 7415SOL    HW329427   5.696   1.816   2.166  1.4509 -0.6492  1.5933
 7415SOL    MW429428   5.712   1.901   2.178 -0.0309 -0.1917  0.5904
 7416SOL     OW29429   4.654   3.501   1.082  0.2302  0.3368  0.2818
 7416SOL    HW229430   4.702   3.448   1.019 -2.1173  0.7419 -2.0431
 7416SOL    HW329431   4.642   3.444   1.158  1.0929 -1.0588 -0.5928
 7416SOL    MW429432   4.659   3.487   1.084  0.0343  0.2061 -0.1403
 7417SOL     OW29433   1.691   5.905   0.904  0.1518 -0.6041 -0.1780
 7417SOL    HW229434   1.758   5.837   0.889  1.3954  0.4688  0.2878
 7417SOL    HW329435   1.722   5.979   0.853  0.9592  0.9154  2.3318
 7417SOL    MW429436   1.704   5.906   0.896  0.4224 -0.2621  0.2146
 7418SOL     OW29437   1.163   5.172   6.196  0.4425  0.2035 -0.3575
 7418SOL    HW229438   1.242   5.204   6.152  0.7414  0.1825  0.1577
 7418SOL    HW329439   1.092   5.196   6.137  0.5213  2.8320  0.4947
 7418SOL    MW429440   1.164   5.179   6.182  0.4923  0.5475 -0.1771
 7419SOL     OW29441   1.350   3.924   5.023 -0.5282 -0.1166 -0.6851
 7419SOL    HW229442   1.413   3.852   5.019 -1.8518 -1.3070 -1.0579
 7419SOL    HW329443   1.267   3.885   4.995 -1.9911  0.7983  2.0102
 7419SOL    MW429444   1.347   3.909   5.018 -0.8958 -0.1529 -0.3787
 7420SOL     OW29445   5.124   5.154   5.026  0.1632  0.2475  0.0459
 7420SOL    HW229446   5.189   5.109   5.080 -0.1244 -0.3439 -0.1004
 7420SOL    HW329447   5.174   5.190   4.953  0.7565  2.0319  1.2544
 7420SOL    MW429448   5.139   5.153   5.024  0.2035  0.4049  0.1860
 7421SOL     OW29449   4.031   6.263   0.556  0.3071 -0.1269  0.4618
 7421SOL    HW229450   3.952   6.218   0.586 -1.1541  0.9705 -1.4641
 7421SOL    HW329451   3.998   6.344   0.517  2.4024  0.3730 -0.3861
 7421SOL    MW429452   4.016   6.268   0.555  0.3908  0.0838  0.0958
 7422SOL     OW29453   6.143   5.009   2.175 -0.0110 -0.7309 -0.0801
 7422SOL    HW229454   6.221   4.992   2.121  1.3813 -0.9098  1.8771
 7422SOL    HW329455   6.076   5.035   2.112  2.2097  1.5939 -1.7108
 7422SOL    MW429456   6.144   5.010   2.159  0.4657 -0.4478 -0.0370
 7423SOL     OW29457   5.361   1.102   3.784 -1.0056 -0.4974 -0.8681
 7423SOL    HW229458   5.320   1.016   3.776 -0.8843 -0.5356 -1.0756
 7423SOL    HW329459   5.328   1.136   3.867  0.7134 -1.6964  0.3866
 7423SOL    MW429460   5.351   1.095   3.794 -0.7628 -0.6606 -0.7299
 7424SOL     OW29461   1.969   5.437   4.436  0.4338 -0.4610 -0.1105
 7424SOL    HW229462   2.037   5.377   4.407  2.6954  0.3406  2.9508
 7424SOL    HW329463   1.895   5.380   4.460  0.8556 -1.5714 -1.3452
 7424SOL    MW429464   1.968   5.422   4.436  0.7878 -0.5017  0.1305
 7425SOL     OW29465   2.403   4.217   4.462 -0.3173 -0.7614  0.4569
 7425SOL    HW229466   2.410   4.260   4.547  0.4960 -1.4947  0.7718
 7425SOL    HW329467   2.493   4.200   4.435 -0.5901 -1.8270  0.1338
 7425SOL    MW429468   2.416   4.220   4.470 -0.2460 -0.9987  0.4558
 7426SOL     OW29469   2.530   2.431   6.223  0.3659  0.2266 -0.4813
 7426SOL    HW229470   2.511   2.418   6.130  1.5613  0.5903 -0.7979
 7426SOL    HW329471   2.626   2.432   6.228  0.3198  0.7931  0.6688
 7426SOL    MW429472   2.540   2.429   6.211  0.5175  0.3493 -0.3713
 7427SOL     OW29473   2.457   6.132   2.286 -0.0110  0.0472 -0.1129
 7427SOL    HW229474   2.465   6.157   2.378 -0.0033  1.3838 -0.4650
 7427SOL    HW329475   2.523   6.184   2.241 -0.7562  0.2208 -1.0344
 7427SOL    MW429476   2.467   6.142   2.292 -0.1083  0.2464 -0.2809
 7428SOL     OW29477   3.198   3.222   4.041  0.8154  0.4577  0.0873
 7428SOL    HW229478   3.138   3.158   4.078 -0.5294  1.5274 -0.1784
 7428SOL    HW329479   3.255   3.171   3.983 -1.0520 -0.3376 -1.1328
 7428SOL    MW429480   3.198   3.207   4.038  0.3916  0.4939 -0.1087
 7429SOL     OW29481   2.796   5.082   3.621 -0.1288  0.2877 -0.8137
 7429SOL    HW229482   2.760   5.010   3.570 -1.1550  0.8544 -0.9143
 7429SOL    HW329483   2.720   5.137   3.642 -0.0463 -0.7176  2.6588
 7429SOL    MW429484   2.781   5.080   3.617 -0.2533  0.2298 -0.3688
 7430SOL     OW29485   3.617   5.424   0.584  0.3455  0.3792  0.2975
 7430SOL    HW229486   3.647   5.503   0.538 -0.9773  0.7636  0.0712
 7430SOL    HW329487   3.536   5.450   0.627  0.9557 -0.2948  1.9555
 7430SOL    MW429488   3.610   5.438   0.584  0.2514  0.3410  0.4864
 7431SOL     OW29489   6.416   4.238   1.356  0.2449  0.5164 -0.5109
 7431SOL    HW229490   6.462   4.295   1.294  1.5853  0.7515  0.6676
 7431SOL    HW329491   6.328   4.276   1.363  0.8106  1.8761 -0.4792
 7431SOL    MW429492   6.410   4.251   1.348  0.4964  0.7268 -0.3513
 7432SOL     OW29493   0.481   3.613   0.924 -0.2901  0.4562 -0.3276
 7432SOL    HW229494   0.482   3.519   0.944  0.2888  0.7227  1.0128
 7432SOL    HW329495   0.573   3.636   0.911 -0.5378  0.5699 -2.1656
 7432SOL    MW429496   0.493   3.603   0.925 -0.2464  0.5064 -0.3933
 7433SOL     OW29497   2.821   4.425   6.286  0.4590 -0.2677 -0.0357
 7433SOL    HW229498   2.801   4.331   6.282 -0.3545 -0.1568  0.9381
 7433SOL    HW329499   2.913   4.429   6.312  1.1557 -0.7842 -2.2105
 7433SOL    MW429500   2.830   4.413   6.289  0.4436 -0.3212 -0.1942
 7434SOL     OW29501   5.142   1.820   3.337  0.2847  0.5840  0.1242
 7434SOL    HW229502   5.184   1.905   3.323  1.3416 -0.0824 -1.0282
 7434SOL    HW329503   5.178   1.765   3.267 -0.3336 -0.8182  0.8861
 7434SOL    MW429504   5.152   1.824   3.326  0.3426  0.3111  0.0727
 7435SOL     OW29505   6.273   6.176   0.929  0.2072 -0.1884  0.1309
 7435SOL    HW229506   6.249   6.265   0.954 -1.4095 -0.5034 -0.1656
 7435SOL    HW329507   6.208   6.151   0.864  0.3683 -1.7310  0.5185
 7435SOL    MW429508   6.261   6.184   0.924  0.0151 -0.4335  0.1429
 7436SOL     OW29509   5.331   4.774   4.875 -0.0669  0.4111  0.3607
 7436SOL    HW229510   5.270   4.748   4.806  0.3119 -1.2280  0.6054
 7436SOL    HW329511   5.392   4.833   4.832 -1.1020  1.1270 -0.1723
 7436SOL    MW429512   5.331   4.778   4.860 -0.1535  0.2893  0.3227
 7437SOL     OW29513   5.154   5.738   0.984 -0.3729 -0.6063  0.1375
 7437SOL    HW229514   5.166   5.644   1.000 -1.3500 -0.8955 -0.7537
 7437SOL    HW329515   5.215   5.758   0.914 -0.4672 -0.6625  0.0400
 7437SOL    MW429516   5.164   5.728   0.977 -0.5142 -0.6519  0.0071
 7438SOL     OW29517   3.155   5.902   5.536  0.1982 -0.2816  0.2573
 7438SOL    HW229518   3.138   5.970   5.469  0.2774 -0.9300 -0.4325
 7438SOL    HW329519   3.250   5.901   5.545  0.4827 -2.3875 -2.0015
 7438SOL    MW429520   3.165   5.911   5.528  0.2462 -0.6450 -0.1318
 7439SOL     OW29521   6.244   0.174   2.974  0.5097  0.0438  0.0963
 7439SOL    HW229522   6.263   0.206   2.886  0.4014  0.0862  0.0880
 7439SOL    HW329523   6.199   0.247   3.017  3.6839  1.4246  1.3942
 7439SOL    MW429524   6.241   0.188   2.968  0.9142  0.2316  0.2664
 7440SOL     OW29525   3.711   5.182   5.017 -0.3002  0.3351  0.3811
 7440SOL    HW229526   3.781   5.237   4.982  0.3548  0.2536  1.5330
 7440SOL    HW329527   3.722   5.186   5.112 -0.6292 -1.2809  0.5180
 7440SOL    MW429528   3.722   5.190   5.025 -0.2572  0.1111  0.5512
 7441SOL     OW29529   6.233   1.237   1.942  0.2747  0.0470  0.2182
 7441SOL    HW229530   6.176   1.273   2.010 -1.2581 -1.5053 -0.1759
 7441SOL    HW329531   6.232   1.303   1.873 -1.4389 -0.1144  0.0401
 7441SOL    MW429532   6.225   1.250   1.942 -0.1536 -0.1791  0.1427
 7442SOL     OW29533   3.604   4.896   4.760 -0.4117 -0.3660 -0.2928
 7442SOL    HW229534   3.557   4.821   4.724 -0.0385 -0.4597 -0.5898
 7442SOL    HW329535   3.551   4.924   4.834 -0.3733 -1.1350  0.0309
 7442SOL    MW429536   3.590   4.890   4.765 -0.3574 -0.4798 -0.2893
 7443SOL     OW29537   0.563   0.638   1.507  0.1789  0.6440  0.1493
 7443SOL    HW229538   0.581   0.639   1.601  0.0160 -0.7108  0.2106
 7443SOL    HW329539   0.468   0.633   1.501  0.1570  1.2495 -0.1083
 7443SOL    MW429540   0.553   0.637   1.519  0.1545  0.5451  0.1234
 7444SOL     OW29541   5.605   4.053   4.579 -1.0324 -0.4474  0.3457
 7444SOL    HW229542   5.689   4.098   4.579 -0.7210 -1.0347 -0.1722
 7444SOL    HW329543   5.549   4.107   4.523 -1.0505  0.0148  0.7961
 7444SOL    MW429544   5.609   4.066   4.572 -0.9937 -0.4639  0.3368
 7445SOL     OW29545   0.652   5.787   2.842  0.1529 -0.0931 -0.0027
 7445SOL    HW229546   0.667   5.853   2.911  1.0155  1.4323 -1.5742
 7445SOL    HW329547   0.739   5.758   2.817 -0.1922 -1.2543  0.0850
 7445SOL    MW429548   0.665   5.792   2.848  0.2212 -0.0451 -0.1984
 7446SOL     OW29549   0.300   6.138   4.501  0.2768 -0.1888 -0.5652
 7446SOL    HW229550   0.233   6.148   4.568 -0.9529 -2.7642 -1.3096
 7446SOL    HW329551   0.267   6.070   4.443  2.8914 -0.5338 -1.8144
 7446SOL    MW429552   0.287   6.131   4.502  0.4595 -0.5741 -0.8283
 7447SOL     OW29553   5.206   5.336   1.629 -0.1863 -0.4036 -0.1463
 7447SOL    HW229554   5.133   5.398   1.621  0.9578  1.2763  1.5726
 7447SOL    HW329555   5.168   5.262   1.676 -1.2144 -0.3943 -0.9055
 7447SOL    MW429556   5.191   5.334   1.634 -0.1710 -0.1807 -0.0197
 7448SOL     OW29557   1.563   2.686   5.133  0.5304  0.5266 -0.0254
 7448SOL    HW229558   1.619   2.635   5.191  1.5039 -0.0581 -1.4187
 7448SOL    HW329559   1.577   2.777   5.159  0.6586  0.2525  0.8879
 7448SOL    MW429560   1.572   2.691   5.144  0.6758  0.4133 -0.0887
 7449SOL     OW29561   1.197   4.713   3.133 -0.1311 -0.3413 -1.1111
 7449SOL    HW229562   1.292   4.710   3.121  0.0365 -2.0704  0.1862
 7449SOL    HW329563   1.178   4.804   3.155  1.4405 -0.2427 -0.0039
 7449SOL    MW429564   1.207   4.724   3.134  0.0984 -0.5564 -0.7938
 7450SOL     OW29565   2.573   4.458   2.106  0.0589 -0.1035 -0.0752
 7450SOL    HW229566   2.660   4.474   2.144 -0.3239  0.8232  0.4511
 7450SOL    HW329567   2.591   4.416   2.022  1.0228  0.1921 -0.0329
 7450SOL    MW429568   2.587   4.454   2.100  0.1355  0.0577 -0.0002
 7451SOL     OW29569   1.852   0.676   4.486  0.0382  0.6562  0.1954
 7451SOL    HW229570   1.770   0.678   4.437 -0.1985  1.5372  0.6113
 7451SOL    HW329571   1.898   0.756   4.461  0.1515  0.8561  1.0080
 7451SOL    MW429572   1.848   0.687   4.476  0.0219  0.7988  0.3575
 7452SOL     OW29573   1.046   2.192   2.704  0.1036  0.0503 -0.1880
 7452SOL    HW229574   1.099   2.246   2.762 -0.9319  0.4621  0.4161
 7452SOL    HW329575   0.967   2.244   2.688 -0.6420 -1.0025 -0.1065
 7452SOL    MW429576   1.042   2.206   2.710 -0.1314 -0.0343 -0.0975
 7453SOL     OW29577   3.126   5.268   2.222 -0.2474  0.3653  0.3263
 7453SOL    HW229578   3.139   5.173   2.222  1.7022  0.5925  0.1599
 7453SOL    HW329579   3.124   5.291   2.315 -1.2363  0.1303  0.3793
 7453SOL    MW429580   3.128   5.258   2.234 -0.1207  0.3643  0.3113
 7454SOL     OW29581   2.280   3.686   0.666  0.8670 -0.0779  0.0824
 7454SOL    HW229582   2.211   3.649   0.720 -0.0582  0.1942 -0.8864
 7454SOL    HW329583   2.266   3.648   0.579  0.4589  1.7810 -0.7144
 7454SOL    MW429584   2.269   3.677   0.661  0.6911  0.2033 -0.1505
 7455SOL     OW29585   6.007   2.989   1.808  0.3435  0.7602 -0.2683
 7455SOL    HW229586   6.043   3.059   1.862  3.4099 -1.2185  0.5036
 7455SOL    HW329587   5.932   2.957   1.858  0.7491  1.4962  0.8536
 7455SOL    MW429588   6.001   2.994   1.821  0.8016  0.5962 -0.0184
 7456SOL     OW29589   0.884   2.208   6.278  0.0827 -0.6561 -0.3777
 7456SOL    HW229590   0.849   2.294   6.305 -0.2856 -0.8538 -0.2152
 7456SOL    HW329591   0.808   2.150   6.279  0.6266 -1.3838  1.1670
 7456SOL    MW429592   0.869   2.212   6.282  0.1059 -0.7782 -0.1525
 7457SOL     OW29593   0.641   5.952   3.075 -0.5593  0.3061 -0.4826
 7457SOL    HW229594   0.713   5.897   3.104 -0.7518  0.1200 -0.3469
 7457SOL    HW329595   0.682   6.030   3.037 -0.2875  1.3164  1.7121
 7457SOL    MW429596   0.656   5.955   3.074 -0.5489  0.4148 -0.1751
 7458SOL     OW29597   4.191   1.077   3.850  0.0327 -0.1116 -0.1589
 7458SOL    HW229598   4.218   1.100   3.939 -0.0371  1.5364 -0.5303
 7458SOL    HW329599   4.097   1.063   3.857  0.1848 -1.0082  0.2093
 7458SOL    MW429600   4.182   1.078   3.863  0.0436 -0.0124 -0.1593
 7459SOL     OW29601   2.967   5.692   2.821  0.7641  0.0564 -0.2058
 7459SOL    HW229602   2.989   5.599   2.814  0.6388 -0.3547  3.2575
 7459SOL    HW329603   3.021   5.725   2.893  0.0200  2.4098 -0.6215
 7459SOL    MW429604   2.977   5.684   2.830  0.6494  0.3127  0.1963
 7460SOL     OW29605   5.728   4.297   3.070 -0.5765  0.8487  0.1470
 7460SOL    HW229606   5.777   4.339   3.000 -1.5845  0.5668 -0.7604
 7460SOL    HW329607   5.647   4.268   3.029 -0.2605 -1.3055  0.8896
 7460SOL    MW429608   5.724   4.298   3.056 -0.6678  0.5273  0.1253
 7461SOL     OW29609   3.895   2.372   5.654  0.0036 -0.0516 -0.1592
 7461SOL    HW229610   3.879   2.460   5.688 -1.2380 -0.2766 -0.1197
 7461SOL    HW329611   3.986   2.374   5.624 -0.6068  1.8989 -2.1418
 7461SOL    MW429612   3.905   2.384   5.655 -0.2408  0.1760 -0.4156
 7462SOL     OW29613   1.818   0.465   2.747 -0.3850  0.3422 -0.1016
 7462SOL    HW229614   1.727   0.479   2.722 -0.3458  0.6227 -0.0937
 7462SOL    HW329615   1.813   0.420   2.832 -0.5523 -2.8327 -1.6328
 7462SOL    MW429616   1.806   0.461   2.755 -0.4019 -0.0397 -0.3026
 7463SOL     OW29617   0.435   2.210   5.503 -0.4900  0.3505 -0.6701
 7463SOL    HW229618   0.500   2.275   5.530 -1.6248  1.5888 -0.8404
 7463SOL    HW329619   0.457   2.192   5.411  0.6399 -0.5444 -0.2546
 7463SOL    MW429620   0.447   2.216   5.494 -0.4906  0.3958 -0.6377
 7464SOL     OW29621   1.854   1.311   5.305  0.0296 -0.4269  0.1412
 7464SOL    HW229622   1.874   1.405   5.298 -1.1945 -0.1900 -0.5643
 7464SOL    HW329623   1.926   1.275   5.356  1.3415  0.6294 -0.8756
 7464SOL    MW429624   1.866   1.319   5.311  0.0412 -0.2563 -0.0860
 7465SOL     OW29625   1.556   6.251   4.497 -0.2343  0.2241 -0.3855
 7465SOL    HW229626   1.478   6.215   4.538 -0.8152  0.2541 -1.4221
 7465SOL    HW329627   1.624   6.186   4.512 -0.9918 -0.8139 -1.2962
 7465SOL    MW429628   1.554   6.238   4.504 -0.4109  0.0911 -0.6424
 7466SOL     OW29629   5.544   4.945   4.184  0.3521 -0.1928 -0.1042
 7466SOL    HW229630   5.614   5.007   4.203  1.1585 -1.1816  0.2398
 7466SOL    HW329631   5.553   4.928   4.090 -1.0560  1.5927 -0.6139
 7466SOL    MW429632   5.555   4.950   4.174  0.2727 -0.0877 -0.1261
 7467SOL     OW29633   5.505   0.686   0.729 -0.5270 -0.0414 -0.0664
 7467SOL    HW229634   5.483   0.758   0.788 -1.2558  0.3979 -0.8543
 7467SOL    HW329635   5.434   0.623   0.741 -1.0373  0.3496 -0.9461
 7467SOL    MW429636   5.492   0.687   0.738 -0.6905  0.0681 -0.2864
 7468SOL     OW29637   4.283   3.470   3.096  0.0139  0.0741  0.2751
 7468SOL    HW229638   4.209   3.416   3.070  1.4514 -1.1357 -1.6330
 7468SOL    HW329639   4.247   3.558   3.104 -1.6222 -0.4699 -0.5878
 7468SOL    MW429640   4.269   3.474   3.094 -0.0123 -0.1573 -0.0905
 7469SOL     OW29641   0.667   1.582   2.268  0.1562 -0.5764  0.2104
 7469SOL    HW229642   0.643   1.512   2.330  0.4474  0.1854  1.2128
 7469SOL    HW329643   0.606   1.653   2.287  0.8667  0.0274  0.3048
 7469SOL    MW429644   0.656   1.582   2.279  0.2883 -0.3962  0.3551
 7470SOL     OW29645   5.544   4.603   1.365  0.4934  0.0266  0.5343
 7470SOL    HW229646   5.498   4.649   1.294  0.2856 -0.8759  0.0659
 7470SOL    HW329647   5.634   4.635   1.359  1.2979 -2.3500 -2.2674
 7470SOL    MW429648   5.550   4.613   1.355  0.5721 -0.4060  0.1029
 7471SOL     OW29649   0.352   2.598   2.790  0.3632 -0.1825  0.1274
 7471SOL    HW229650   0.281   2.550   2.831  0.6104 -0.5961  0.0784
 7471SOL    HW329651   0.392   2.535   2.729  2.9970 -1.1725  2.6188
 7471SOL    MW429652   0.348   2.583   2.787  0.7433 -0.3677  0.4497
 7472SOL     OW29653   2.735   5.675   4.159 -0.0867 -0.5877  0.2055
 7472SOL    HW229654   2.677   5.750   4.171  1.8733  0.7290  2.4465
 7472SOL    HW329655   2.719   5.646   4.070 -1.0380  2.4318 -0.7294
 7472SOL    MW429656   2.725   5.681   4.149  0.0464 -0.0156  0.3778
 7473SOL     OW29657   0.923   2.793   0.873 -0.3755 -0.0315 -0.0664
 7473SOL    HW229658   0.876   2.831   0.947  0.4118 -0.4077  0.6540
 7473SOL    HW329659   0.983   2.863   0.845 -2.2121  0.9354 -1.8450
 7473SOL    MW429660   0.925   2.807   0.879 -0.5140  0.0464 -0.2060
 7474SOL     OW29661   2.713   2.564   2.293 -0.0578 -0.4173 -0.1555
 7474SOL    HW229662   2.643   2.522   2.243  0.5197 -0.0876 -1.2901
 7474SOL    HW329663   2.771   2.492   2.317 -0.3139 -0.5745 -0.0088
 7474SOL    MW429664   2.712   2.549   2.289 -0.0154 -0.3946 -0.2858
 7475SOL     OW29665   4.222   5.114   1.517 -0.3006  0.5098 -0.4401
 7475SOL    HW229666   4.286   5.052   1.551 -0.9632 -0.6619 -1.2608
 7475SOL    HW329667   4.215   5.181   1.585  0.9036  0.0357  0.1811
 7475SOL    MW429668   4.230   5.114   1.530 -0.2291  0.2926 -0.4664
 7476SOL     OW29669   1.531   0.538   0.916  0.2165  0.0786 -0.1715
 7476SOL    HW229670   1.504   0.484   0.841  0.5925  0.9338 -0.9356
 7476SOL    HW329671   1.450   0.553   0.965 -0.3241  0.8102 -1.2658
 7476SOL    MW429672   1.517   0.533   0.913  0.1948  0.2880 -0.4167
 7477SOL     OW29673   6.150   2.495   4.797 -0.1608  0.0105 -0.0730
 7477SOL    HW229674   6.080   2.453   4.847  0.1827  0.6823  1.0118
 7477SOL    HW329675   6.231   2.458   4.834  0.0934  0.4230 -0.2067
 7477SOL    MW429676   6.151   2.485   4.809 -0.0819  0.1535  0.0525
 7478SOL     OW29677   5.934   1.735   1.028 -0.3559 -0.5396  0.3116
 7478SOL    HW229678   5.863   1.746   1.091  0.2635 -0.8545  1.0830
 7478SOL    HW329679   5.933   1.642   1.006 -0.6437 -0.4081 -0.2351
 7478SOL    MW429680   5.925   1.724   1.034 -0.3122 -0.5638  0.3413
 7479SOL     OW29681   6.134   2.775   1.360 -0.3124  0.1914 -0.8121
 7479SOL    HW229682   6.146   2.680   1.358  0.2106  0.2595 -1.0543
 7479SOL    HW329683   6.116   2.796   1.452  1.0309  0.0274 -0.4987
 7479SOL    MW429684   6.133   2.765   1.372 -0.0662  0.1788 -0.8027
 7480SOL     OW29685   2.470   0.566   5.889  0.1335  0.3123  0.2490
 7480SOL    HW229686   2.515   0.551   5.806  0.5174 -1.9753  0.7969
 7480SOL    HW329687   2.538   0.554   5.955 -0.4965  0.5280  0.9453
 7480SOL    MW429688   2.485   0.562   5.887  0.1011  0.0390  0.4132
 7481SOL     OW29689   5.096   3.858   3.132 -0.2911  0.0410  0.3062
 7481SOL    HW229690   5.070   3.891   3.218 -1.3503  0.6755 -0.2358
 7481SOL    HW329691   5.047   3.776   3.122 -0.2572  0.0269  0.2595
 7481SOL    MW429692   5.086   3.851   3.142 -0.4264  0.1229  0.2285
 7482SOL     OW29693   1.389   3.810   2.530 -0.0583 -0.4638 -0.6637
 7482SOL    HW229694   1.315   3.751   2.543  0.2964 -0.7352  0.1600
 7482SOL    HW329695   1.399   3.815   2.435  0.3919 -2.3371 -0.7420
 7482SOL    MW429696   1.381   3.803   2.519  0.0479 -0.7468 -0.5654
 7483SOL     OW29697   2.510   3.516   1.687  0.2176 -0.3229 -0.2178
 7483SOL    HW229698   2.425   3.493   1.724  0.5393 -1.8627 -0.3489
 7483SOL    HW329699   2.564   3.537   1.763 -0.5044  1.5946 -0.1917
 7483SOL    MW429700   2.506   3.516   1.702  0.1647 -0.2731 -0.2317
 7484SOL     OW29701   5.268   4.960   5.366 -0.2424 -0.0753  0.5067
 7484SOL    HW229702   5.244   4.883   5.417 -0.5772 -1.1172 -1.1393
 7484SOL    HW329703   5.272   4.928   5.276 -0.2668  1.8153 -0.2022
 7484SOL    MW429704   5.266   4.945   5.361 -0.2898  0.0367  0.1960
 7485SOL     OW29705   4.276   3.913   4.765  0.5788 -0.4383 -0.3522
 7485SOL    HW229706   4.200   3.954   4.723 -0.8899 -2.9690 -0.3795
 7485SOL    HW329707   4.247   3.895   4.854  2.5488  1.9591  0.8875
 7485SOL    MW429708   4.262   3.916   4.771  0.6449 -0.4559 -0.1922
 7486SOL     OW29709   2.165   0.467   4.682  0.1251 -0.0879 -0.9194
 7486SOL    HW229710   2.249   0.449   4.639 -0.2389 -1.0306 -1.2737
 7486SOL    HW329711   2.099   0.442   4.616 -0.4421  1.2863 -0.9060
 7486SOL    MW429712   2.167   0.461   4.668  0.0023 -0.0310 -0.9643
 7487SOL     OW29713   4.575   6.222   3.368 -0.2041 -0.0905  0.1083
 7487SOL    HW229714   4.573   6.216   3.464 -1.5460 -0.8590  0.0613
 7487SOL    HW329715   4.629   6.299   3.350  3.2960 -2.0203  1.3313
 7487SOL    MW429716   4.582   6.231   3.379  0.0807 -0.4465  0.2635
 7488SOL     OW29717   0.146   0.169   3.321 -0.0043 -0.4792  0.5823
 7488SOL    HW229718   0.179   0.259   3.324 -0.1462 -0.3715 -0.4809
 7488SOL    HW329719   0.051   0.179   3.325 -0.0245 -0.5635  0.3536
 7488SOL    MW429720   0.138   0.183   3.322 -0.0257 -0.4761  0.4119
 7489SOL     OW29721   3.371   2.981   1.616  0.0765 -0.5903 -0.3295
 7489SOL    HW229722   3.463   3.003   1.603  0.1205 -1.9179 -2.8688
 7489SOL    HW329723   3.327   3.065   1.625  1.3771  0.1010 -0.1628
 7489SOL    MW429724   3.377   2.995   1.615  0.2539 -0.6743 -0.6425
 7490SOL     OW29725   3.704   4.198   2.011  0.3081  0.0107 -1.0818
 7490SOL    HW229726   3.675   4.107   2.017 -2.1163  0.7620 -0.3114
 7490SOL    HW329727   3.643   4.239   1.949  0.4742  1.4114 -0.3687
 7490SOL    MW429728   3.692   4.191   2.003  0.0101  0.2946 -0.8860
 7491SOL     OW29729   2.113   4.280   3.423 -0.1889 -0.4363 -0.5436
 7491SOL    HW229730   2.184   4.217   3.412 -1.1628 -2.0720  1.5914
 7491SOL    HW329731   2.152   4.365   3.404  1.5194 -1.5445 -2.3130
 7491SOL    MW429732   2.127   4.283   3.419 -0.0920 -0.7983 -0.4954
 7492SOL     OW29733   2.167   6.148   2.524 -0.1708  0.6083  0.5139
 7492SOL    HW229734   2.234   6.204   2.486  0.1241  0.0655  0.2110
 7492SOL    HW329735   2.123   6.203   2.589 -2.3900  2.4456 -2.2717
 7492SOL    MW429736   2.170   6.162   2.528 -0.4247  0.7791  0.1064
 7493SOL     OW29737   2.076   3.074   2.096  0.2149 -0.2406  0.0906
 7493SOL    HW229738   2.023   3.078   2.016  0.1825 -0.9570  0.0707
 7493SOL    HW329739   2.101   3.165   2.113 -1.4345  0.1848  0.3901
 7493SOL    MW429740   2.072   3.086   2.088 -0.0070 -0.2790  0.1275
 7494SOL     OW29741   2.214   1.296   0.033 -0.8293 -0.4467 -0.1715
 7494SOL    HW229742   2.209   1.313  -0.061 -1.0703 -1.1455 -0.2891
 7494SOL    HW329743   2.240   1.204   0.040  2.1828  0.3346  0.4407
 7494SOL    MW429744   2.216   1.286   0.022 -0.4637 -0.4358 -0.1063
 7495SOL     OW29745   2.926   3.569   1.055  0.0980 -0.4243  0.4144
 7495SOL    HW229746   2.962   3.514   1.125  1.3365 -0.5661 -0.2964
 7495SOL    HW329747   2.971   3.539   0.976  0.8467  1.6164  0.0005
 7495SOL    MW429748   2.937   3.557   1.054  0.3602 -0.1738  0.2660
 7496SOL     OW29749   0.332   4.526   0.962 -0.5455  0.0623 -0.9033
 7496SOL    HW229750   0.281   4.446   0.973 -0.2048 -0.7501 -4.1699
 7496SOL    HW329751   0.288   4.573   0.891  0.4312  1.7846 -0.4225
 7496SOL    MW429752   0.320   4.521   0.954 -0.3717  0.1823 -1.2709
 7497SOL     OW29753   0.155   5.927   4.372 -0.1861  0.1009  1.1268
 7497SOL    HW229754   0.139   5.987   4.299  0.4893 -0.2484  0.6718
 7497SOL    HW329755   0.075   5.876   4.379 -1.1310  1.6527  2.1227
 7497SOL    MW429756   0.143   5.928   4.363 -0.2217  0.2596  1.1982
 7498SOL     OW29757   2.209   5.129   3.261 -0.3047  0.2494  0.1519
 7498SOL    HW229758   2.117   5.155   3.266  0.3740  2.6540  1.3609
 7498SOL    HW329759   2.241   5.169   3.180 -0.6810 -2.1324 -1.2773
 7498SOL    MW429760   2.201   5.138   3.251 -0.2648  0.2524  0.1228
 7499SOL     OW29761   3.110   0.823   0.298 -0.2416 -0.7306 -0.3791
 7499SOL    HW229762   3.097   0.912   0.330 -0.6167 -1.2304  0.9352
 7499SOL    HW329763   3.205   0.816   0.282  0.4885 -1.2605  3.3607
 7499SOL    MW429764   3.121   0.834   0.300 -0.1947 -0.8665  0.2877
 7500SOL     OW29765   5.912   1.765   6.028 -0.5878 -0.2741 -0.7560
 7500SOL    HW229766   5.927   1.801   6.116 -0.9357  0.4444 -0.9744
 7500SOL    HW329767   5.962   1.684   6.026  0.3153  0.2509 -0.2670
 7500SOL    MW429768   5.920   1.759   6.040 -0.5146 -0.1100 -0.7203
 7501SOL     OW29769   4.212   5.124   0.585  0.1352  0.2664  0.2732
 7501SOL    HW229770   4.136   5.181   0.591  0.9199  1.2935  0.8476
 7501SOL    HW329771   4.219   5.101   0.492 -1.3578 -0.5645  0.3386
 7501SOL    MW429772   4.203   5.128   0.574  0.0418  0.2923  0.3576
 7502SOL     OW29773   5.369   5.227   1.152 -0.2349 -0.1296  0.0943
 7502SOL    HW229774   5.306   5.220   1.224  0.1786 -1.3265  0.3677
 7502SOL    HW329775   5.423   5.302   1.175 -0.6681  0.0465  0.5765
 7502SOL    MW429776   5.368   5.236   1.165 -0.2375 -0.2642  0.1940
 7503SOL     OW29777   5.367   2.745   3.929 -0.1957  0.9287 -0.4895
 7503SOL    HW229778   5.279   2.737   3.967 -0.0667  1.4849 -0.0638
 7503SOL    HW329779   5.395   2.834   3.952  0.2136  0.9896 -1.1961
 7503SOL    MW429780   5.359   2.756   3.937 -0.1247  1.0101 -0.5266
 7504SOL     OW29781   5.655   4.300   2.272  0.4287  0.0161 -0.1710
 7504SOL    HW229782   5.748   4.289   2.249  0.5408 -0.6410  0.5512
 7504SOL    HW329783   5.647   4.392   2.295  1.5705 -0.4338  2.4435
 7504SOL    MW429784   5.666   4.310   2.272  0.5942 -0.1300  0.2692
 7505SOL     OW29785   0.706   4.551   3.835 -0.1293  0.0977 -0.0248
 7505SOL    HW229786   0.779   4.613   3.840 -1.0385  1.1978  0.2239
 7505SOL    HW329787   0.728   4.482   3.898  1.8653 -0.9505 -1.7659
 7505SOL    MW429788   0.719   4.550   3.844  0.0139  0.1045 -0.2217
 7506SOL     OW29789   3.405   1.317   0.072 -0.6219 -0.1154 -0.1497
 7506SOL    HW229790   3.317   1.318   0.035 -0.9494  0.4903  0.6050
 7506SOL    HW329791   3.403   1.384   0.141  0.2552 -0.4987  0.2725
 7506SOL    MW429792   3.393   1.326   0.076 -0.5494 -0.0861  0.0056
 7507SOL     OW29793   5.122   6.165   2.314  0.2118 -0.6910  0.1912
 7507SOL    HW229794   5.188   6.156   2.245 -1.5413 -2.4080 -1.3938
 7507SOL    HW329795   5.054   6.219   2.274 -0.3363 -0.7852  0.9772
 7507SOL    MW429796   5.122   6.171   2.300 -0.0918 -0.9300  0.0858
 7508SOL     OW29797   4.895   5.450   3.439  0.3126 -0.3084  0.2870
 7508SOL    HW229798   4.980   5.415   3.465  0.8734  0.1864 -0.8319
 7508SOL    HW329799   4.914   5.510   3.367 -0.9203  0.2739  0.4111
 7508SOL    MW429800   4.909   5.453   3.433  0.2239 -0.1663  0.1558
 7509SOL     OW29801   0.743   3.551   5.425  0.1426  0.2619  0.0807
 7509SOL    HW229802   0.838   3.546   5.433  0.3620  1.6059 -1.3032
 7509SOL    HW329803   0.721   3.643   5.440 -0.8720  0.0919 -0.2455
 7509SOL    MW429804   0.752   3.562   5.428  0.0377  0.4168 -0.1449
 7510SOL     OW29805   1.322   4.807   2.205  0.7422 -0.3084 -0.2840
 7510SOL    HW229806   1.340   4.882   2.149 -0.2062  0.8850  0.9418
 7510SOL    HW329807   1.390   4.743   2.182  1.2807  0.7101 -1.6967
 7510SOL    MW429808   1.333   4.808   2.194  0.6881 -0.0165 -0.3086
 7511SOL     OW29809   3.845   5.054   2.769  0.2317  0.5350 -0.4001
 7511SOL    HW229810   3.831   5.098   2.852  1.8020  0.8922 -0.2983
 7511SOL    HW329811   3.899   5.114   2.718  0.0085 -0.0444 -1.3527
 7511SOL    MW429812   3.850   5.068   2.773  0.4094  0.5056 -0.5124
 7512SOL     OW29813   5.164   1.424   1.505  0.0075  0.2735 -0.0897
 7512SOL    HW229814   5.178   1.494   1.441  1.2232 -1.1202 -1.4383
 7512SOL    HW329815   5.076   1.392   1.487  0.2352  0.0756 -0.9587
 7512SOL    MW429816   5.155   1.429   1.494  0.1979  0.0635 -0.3823
 7513SOL     OW29817   3.896   3.755   0.681 -0.1189  0.2673  0.4452
 7513SOL    HW229818   3.930   3.833   0.636 -1.0859  0.8817  0.7493
 7513SOL    HW329819   3.893   3.780   0.773 -2.8120  0.8212  0.2825
 7513SOL    MW429820   3.900   3.769   0.687 -0.6018  0.4215  0.4639
 7514SOL     OW29821   5.169   0.295   1.267 -0.3393  0.2998  0.3400
 7514SOL    HW229822   5.206   0.339   1.343 -0.6083  1.2796 -0.0757
 7514SOL    HW329823   5.078   0.277   1.291  0.1185 -1.2608  1.0084
 7514SOL    MW429824   5.162   0.298   1.280 -0.3144  0.2232  0.3734
 7515SOL     OW29825   1.464   4.888   5.317  0.0733  0.3556  0.1501
 7515SOL    HW229826   1.482   4.930   5.401 -2.2412  0.5684  0.6127
 7515SOL    HW329827   1.421   4.806   5.339  0.0245  0.1065 -0.8110
 7515SOL    MW429828   1.461   4.883   5.331 -0.2385  0.3508  0.0843
 7516SOL     OW29829   3.403   4.994   4.105 -0.1187  0.3814  0.2834
 7516SOL    HW229830   3.341   5.001   4.033 -0.6451 -2.4531  0.3663
 7516SOL    HW329831   3.351   4.962   4.179  1.0661 -0.0787  0.9505
 7516SOL    MW429832   3.388   4.991   4.105 -0.0318 -0.0532  0.3823
 7517SOL     OW29833   0.388   5.265   1.454 -0.2065  0.0621 -0.2651
 7517SOL    HW229834   0.476   5.259   1.417 -0.1937  1.4825 -0.5021
 7517SOL    HW329835   0.331   5.230   1.385  0.1155 -0.4426 -0.2842
 7517SOL    MW429836   0.392   5.259   1.440 -0.1623  0.1829 -0.2989
 7518SOL     OW29837   0.562   2.038   5.996  0.3166 -0.0911 -0.2451
 7518SOL    HW229838   0.484   1.990   6.024 -0.7237  2.5131  1.7902
 7518SOL    HW329839   0.614   2.047   6.075  1.0240  1.1101 -0.8243
 7518SOL    MW429840   0.559   2.033   6.010  0.2727  0.4110 -0.0530
 7519SOL     OW29841   4.401   0.889   0.075  0.0984 -0.5121  0.3422
 7519SOL    HW229842   4.367   0.802   0.096  1.0525 -1.0724 -0.3600
 7519SOL    HW329843   4.496   0.878   0.071  0.1409 -0.6285 -4.4746
 7519SOL    MW429844   4.409   0.876   0.077  0.2299 -0.6014 -0.3859
 7520SOL     OW29845   0.080   0.372   4.263 -0.4729  0.1014  0.0976
 7520SOL    HW229846   0.122   0.286   4.253 -2.2629 -0.9437  1.0715
 7520SOL    HW329847   0.132   0.416   4.330 -1.1701 -1.3904  1.7074
 7520SOL    MW429848   0.093   0.366   4.271 -0.8011 -0.2333  0.4385
 7521SOL     OW29849   2.423   5.329   0.563  0.8241 -0.4539  0.1590
 7521SOL    HW229850   2.438   5.422   0.583 -2.2283 -0.0445  1.2133
 7521SOL    HW329851   2.451   5.283   0.642 -0.3252 -0.0744  0.8131
 7521SOL    MW429852   2.429   5.336   0.576  0.2697 -0.3498  0.3844
 7522SOL     OW29853   4.227   2.475   0.001 -0.5127  0.1601 -0.0673
 7522SOL    HW229854   4.217   2.408  -0.066  0.1190  1.6904 -1.7857
 7522SOL    HW329855   4.201   2.432   0.083  0.2820 -2.2663 -1.0139
 7522SOL    MW429856   4.222   2.460   0.003 -0.3245  0.0419 -0.4189
 7523SOL     OW29857   6.104   3.237   2.408  0.6903  0.5063 -0.6407
 7523SOL    HW229858   6.117   3.266   2.498 -0.4443 -2.3740  0.5481
 7523SOL    HW329859   6.015   3.265   2.386  0.4653 -0.0042 -0.3711
 7523SOL    MW429860   6.094   3.245   2.417  0.5109  0.0590 -0.4483
 7524SOL     OW29861   1.103   0.742   0.388 -0.3378  0.5671 -0.1476
 7524SOL    HW229862   1.164   0.742   0.462 -0.1835 -0.7144 -0.2512
 7524SOL    HW329863   1.160   0.749   0.311 -0.2877 -0.6556 -0.2457
 7524SOL    MW429864   1.119   0.743   0.387 -0.3108  0.2367 -0.1742
 7525SOL     OW29865   1.246   3.211   4.172  0.4894  0.4382 -0.6526
 7525SOL    HW229866   1.197   3.281   4.216 -1.0726 -1.9288  1.6593
 7525SOL    HW329867   1.184   3.139   4.165  2.6069 -1.4514 -1.0080
 7525SOL    MW429868   1.231   3.211   4.177  0.5627 -0.1234 -0.3944
 7526SOL     OW29869   4.688   1.384   1.890 -0.2096  0.0514  0.0515
 7526SOL    HW229870   4.775   1.377   1.852  0.0964 -0.5172  0.8244
 7526SOL    HW329871   4.693   1.457   1.951 -0.5097  0.5277 -0.4792
 7526SOL    MW429872   4.700   1.392   1.893 -0.2088  0.0392  0.0834
 7527SOL     OW29873   3.548   4.790   0.967 -0.5389  0.1171 -0.5662
 7527SOL    HW229874   3.583   4.708   0.932 -0.1147 -0.7050  1.6274
 7527SOL    HW329875   3.458   4.794   0.935 -0.8302 -1.6377 -0.0547
 7527SOL    MW429876   3.541   4.780   0.958 -0.5213 -0.2229 -0.2093
 7528SOL     OW29877   5.294   1.571   4.876 -0.0570 -0.2771  0.0114
 7528SOL    HW229878   5.285   1.663   4.900 -2.3062 -1.1300  3.0641
 7528SOL    HW329879   5.344   1.532   4.948  0.6143 -1.5340 -1.0905
 7528SOL    MW429880   5.299   1.578   4.889 -0.2651 -0.5555  0.2688
 7529SOL     OW29881   4.418   5.779   4.656  0.4463  0.8114  0.2911
 7529SOL    HW229882   4.477   5.719   4.610  0.5870  1.3294 -0.2242
 7529SOL    HW329883   4.472   5.817   4.725  0.6969  1.2000 -0.1087
 7529SOL    MW429884   4.433   5.776   4.659  0.4980  0.9310  0.1704
 7530SOL     OW29885   4.152   4.862   4.129  0.0687  0.1707 -0.6580
 7530SOL    HW229886   4.243   4.858   4.098 -0.0247 -0.4532 -0.8613
 7530SOL    HW329887   4.154   4.820   4.215  0.0473  0.5319 -0.4806
 7530SOL    MW429888   4.164   4.856   4.136  0.0536  0.1361 -0.6614
 7531SOL     OW29889   0.974   0.161   0.134 -0.8711  0.4484  0.1594
 7531SOL    HW229890   0.893   0.203   0.165 -1.0511 -1.0031  1.8855
 7531SOL    HW329891   0.943   0.088   0.080 -0.6302  1.1228 -0.9079
 7531SOL    MW429892   0.959   0.157   0.131 -0.8631  0.3459  0.2463
 7532SOL     OW29893   5.384   1.029   4.329  0.0960  0.1004 -0.0635
 7532SOL    HW229894   5.354   0.971   4.259  2.1626 -1.0229 -0.1077
 7532SOL    HW329895   5.378   1.117   4.292 -1.3256 -0.2246 -0.6749
 7532SOL    MW429896   5.379   1.033   4.315  0.1811 -0.0907 -0.1500
 7533SOL     OW29897   2.638   5.195   2.843  0.2084  0.0334 -0.3754
 7533SOL    HW229898   2.622   5.126   2.778 -0.1376  0.1237 -0.3871
 7533SOL    HW329899   2.697   5.257   2.799  0.0621  0.0391 -0.5629
 7533SOL    MW429900   2.644   5.194   2.829  0.1435  0.0461 -0.4017
 7534SOL     OW29901   6.018   4.081   6.228  0.3493 -0.5908  0.2145
 7534SOL    HW229902   5.975   4.153   6.183 -0.9644 -1.6116 -0.2301
 7534SOL    HW329903   6.111   4.102   6.224  0.0118  0.9138 -0.1609
 7534SOL    MW429904   6.025   4.093   6.222  0.1315 -0.5270  0.1063
 7535SOL     OW29905   1.466   3.174   5.860 -0.1538  0.0182  0.0597
 7535SOL    HW229906   1.548   3.152   5.904 -0.1465  0.2025  0.1409
 7535SOL    HW329907   1.399   3.165   5.927 -0.4215 -1.6515 -0.3859
 7535SOL    MW429908   1.468   3.170   5.874 -0.1882 -0.1778  0.0116
 7536SOL     OW29909   0.538   1.560   0.208 -0.3870  0.3247 -0.1880
 7536SOL    HW229910   0.530   1.485   0.149  0.1799  0.0620  0.0608
 7536SOL    HW329911   0.632   1.567   0.225 -0.5579  0.3005  0.8054
 7536SOL    MW429912   0.550   1.551   0.202 -0.3348  0.2869 -0.0241
 7537SOL     OW29913   0.886   5.581   1.594 -0.3407 -0.1667 -0.4730
 7537SOL    HW229914   0.952   5.604   1.529 -0.5053 -0.6368 -0.8184
 7537SOL    HW329915   0.851   5.664   1.625  0.2921  0.0790 -0.4114
 7537SOL    MW429916   0.890   5.595   1.590 -0.2790 -0.1963 -0.5105
 7538SOL     OW29917   1.848   0.516   0.414 -0.3483 -0.3875  0.6917
 7538SOL    HW229918   1.885   0.438   0.373  1.5095  0.3886  0.7494
 7538SOL    HW329919   1.783   0.548   0.351 -1.9732 -2.5427  1.1764
 7538SOL    MW429920   1.844   0.510   0.400 -0.3176 -0.5694  0.7633
 7539SOL     OW29921   1.611   0.330   0.184 -0.0621 -0.8592  0.2574
 7539SOL    HW229922   1.521   0.357   0.165  0.0147 -1.4528 -1.0433
 7539SOL    HW329923   1.664   0.405   0.157 -0.0425 -1.2516 -0.8623
 7539SOL    MW429924   1.606   0.344   0.178 -0.0493 -0.9893 -0.0619
 7540SOL     OW29925   3.031   4.943   4.910  0.8895 -0.0726 -0.4021
 7540SOL    HW229926   2.959   4.898   4.865  0.4072  0.4271 -0.1350
 7540SOL    HW329927   3.078   4.872   4.955  1.0597 -0.5026 -1.2520
 7540SOL    MW429928   3.028   4.927   4.910  0.8483 -0.0634 -0.4790
 7541SOL     OW29929   5.010   0.540   0.901  0.0833 -0.6581  0.2190
 7541SOL    HW229930   4.926   0.498   0.920  0.1086 -0.5478  0.5731
 7541SOL    HW329931   5.075   0.486   0.948  0.0062  0.4250  1.6264
 7541SOL    MW429932   5.008   0.527   0.910  0.0764 -0.5007  0.4514
 7542SOL     OW29933   4.326   2.248   5.167  0.2898 -0.2415  0.1878
 7542SOL    HW229934   4.365   2.275   5.250  2.3281 -2.2805 -0.0071
 7542SOL    HW329935   4.336   2.325   5.110 -1.4007  1.2880  1.8132
 7542SOL    MW429936   4.332   2.262   5.170  0.3357 -0.3087  0.3766
 7543SOL     OW29937   3.181   1.215   4.163  0.2631 -0.1718  0.2942
 7543SOL    HW229938   3.187   1.137   4.107 -0.0483  0.3267 -0.4607
 7543SOL    HW329939   3.110   1.266   4.125  1.0569  0.9138  0.2068
 7543SOL    MW429940   3.173   1.212   4.150  0.3267  0.0372  0.1831
 7544SOL     OW29941   3.133   1.963   3.398  0.2975  0.1201 -0.1544
 7544SOL    HW229942   3.161   1.976   3.489 -2.0147 -0.3134  0.6770
 7544SOL    HW329943   3.203   1.911   3.359  1.7869  1.0983  1.0933
 7544SOL    MW429944   3.146   1.958   3.405  0.1890  0.1919  0.1199
 7545SOL     OW29945   5.777   0.063   2.119  0.4275 -0.1571  0.0904
 7545SOL    HW229946   5.737   0.012   2.048 -1.3494  0.7058  0.4205
 7545SOL    HW329947   5.742   0.025   2.199  1.7904 -0.5998  0.5005
 7545SOL    MW429948   5.767   0.052   2.120  0.3729 -0.1017  0.1881
 7546SOL     OW29949   0.969   1.831   1.450  0.2162 -0.2885  0.4111
 7546SOL    HW229950   0.884   1.813   1.491  0.4042  0.8313  1.3588
 7546SOL    HW329951   0.950   1.839   1.357 -0.4094 -1.8369  0.3816
 7546SOL    MW429952   0.955   1.830   1.443  0.1584 -0.3451  0.5323
 7547SOL     OW29953   1.470   3.288   0.278  1.0685 -0.3644 -0.1176
 7547SOL    HW229954   1.531   3.253   0.214  1.6807  1.2379 -0.4389
 7547SOL    HW329955   1.457   3.379   0.252 -1.5190 -0.6626 -0.0932
 7547SOL    MW429956   1.476   3.295   0.266  0.8079 -0.1924 -0.1568
 7548SOL     OW29957   2.791   5.216   4.688 -0.8070 -0.1798  0.4017
 7548SOL    HW229958   2.704   5.231   4.652 -1.3797  0.7331  2.1057
 7548SOL    HW329959   2.850   5.231   4.614 -2.0208  0.3051 -0.4972
 7548SOL    MW429960   2.788   5.220   4.673 -1.0427  0.0046  0.5079
 7549SOL     OW29961   3.776   6.348   5.868  0.3233  0.1141 -0.1534
 7549SOL    HW229962   3.710   6.407   5.833  1.1748  0.3043 -1.5178
 7549SOL    HW329963   3.733   6.262   5.869  0.3652  0.0393 -2.0498
 7549SOL    MW429964   3.762   6.344   5.864  0.4412  0.1294 -0.5836
 7550SOL     OW29965   6.306   5.427   1.901 -0.3835 -0.1183 -0.3545
 7550SOL    HW229966   6.246   5.365   1.860 -0.9816  1.3601 -1.8185
 7550SOL    HW329967   6.383   5.374   1.924 -0.6895 -1.3293 -1.9423
 7550SOL    MW429968   6.308   5.412   1.898 -0.5028 -0.0830 -0.7572
 7551SOL     OW29969   3.310   2.767   2.917 -0.1385  0.2526 -0.4754
 7551SOL    HW229970   3.396   2.729   2.933 -0.0746  0.4058 -0.4455
 7551SOL    HW329971   3.307   2.780   2.822 -0.8576 -1.4546 -0.7215
 7551SOL    MW429972   3.321   2.764   2.906 -0.2249  0.0476 -0.5039
 7552SOL     OW29973   2.944   5.288   3.132 -0.0471  0.0231 -1.0150
 7552SOL    HW229974   3.020   5.254   3.179 -0.2104  2.4297  1.2624
 7552SOL    HW329975   2.970   5.289   3.040  2.3748  0.0372 -0.3840
 7552SOL    MW429976   2.957   5.284   3.126  0.2509  0.3425 -0.6313
 7553SOL     OW29977   0.908   2.938   2.777 -0.1572 -0.5050  0.0079
 7553SOL    HW229978   0.924   2.965   2.868 -0.2232  1.1467 -0.4339
 7553SOL    HW329979   0.819   2.905   2.777 -1.4864  2.6711 -0.0273
 7553SOL    MW429980   0.899   2.937   2.789 -0.3413  0.1320 -0.0550
 7554SOL     OW29981   3.569   3.115   2.820  0.1599  0.8499 -0.0115
 7554SOL    HW229982   3.620   3.043   2.856  2.1802  1.9199 -0.5521
 7554SOL    HW329983   3.555   3.091   2.729  0.6827  1.0439 -0.1472
 7554SOL    MW429984   3.574   3.102   2.813  0.4955  1.0167 -0.1008
 7555SOL     OW29985   1.328   1.047   3.511 -0.5439 -0.3990 -0.4223
 7555SOL    HW229986   1.328   1.102   3.432  1.9990  0.1622 -0.1177
 7555SOL    HW329987   1.324   1.109   3.584  2.2441 -0.5053 -0.0756
 7555SOL    MW429988   1.328   1.063   3.510  0.1595 -0.3390 -0.3364
 7556SOL     OW29989   2.894   5.660   4.839  0.5503 -0.3165 -0.7191
 7556SOL    HW229990   2.897   5.567   4.859 -1.6247 -0.8264 -2.4025
 7556SOL    HW329991   2.842   5.666   4.759  0.3655  2.3716 -0.4904
 7556SOL    MW429992   2.887   5.649   4.831  0.2389 -0.0291 -0.9110
 7557SOL     OW29993   1.912   2.319   5.166 -0.3709  0.3723  0.4880
 7557SOL    HW229994   1.973   2.323   5.093 -2.2774 -0.0404 -1.2080
 7557SOL    HW329995   1.829   2.292   5.127 -1.8761  1.7350  2.5398
 7557SOL    MW429996   1.909   2.316   5.151 -0.8210  0.4977  0.5350
 7558SOL     OW29997   5.423   4.452   4.360  0.3303 -0.2345 -0.4579
 7558SOL    HW229998   5.336   4.490   4.369  1.5133  2.2722  2.6123
 7558SOL    HW329999   5.465   4.502   4.290  0.2836  0.7972  0.2349
 7558SOL    MW430000   5.417   4.464   4.352  0.4802  0.2324  0.0385
 7559SOL     OW30001   4.735   4.324   2.342 -0.2536 -0.5966  0.0534
 7559SOL    HW230002   4.808   4.286   2.293 -0.9081 -1.6210 -0.1763
 7559SOL    HW330003   4.718   4.408   2.300 -0.9377 -1.5483 -1.6580
 7559SOL    MW430004   4.743   4.330   2.330 -0.4302 -0.8573 -0.2027
 7560SOL     OW30005   3.597   0.997   4.584 -0.3200 -0.3212 -0.2161
 7560SOL    HW230006   3.628   0.909   4.603  1.8535  0.2707 -0.7404
 7560SOL    HW330007   3.672   1.053   4.604 -2.3740  1.7328  2.5622
 7560SOL    MW430008   3.611   0.993   4.589 -0.3042  0.0279  0.0813
 7561SOL     OW30009   4.761   2.011   0.862 -0.9904  0.0273  0.4439
 7561SOL    HW230010   4.669   1.997   0.886 -0.6615 -2.2392  0.6698
 7561SOL    HW330011   4.810   1.984   0.940 -0.1138  2.4198  0.7852
 7561SOL    MW430012   4.755   2.005   0.875 -0.8314  0.0439  0.5187
 7562SOL     OW30013   1.420   5.075   0.199 -0.3710  0.4072 -0.1298
 7562SOL    HW230014   1.447   5.095   0.289 -0.1096  0.3992 -0.2053
 7562SOL    HW330015   1.499   5.089   0.147  0.2705 -2.2499 -0.0006
 7562SOL    MW430016   1.434   5.079   0.204 -0.2519  0.0556 -0.1227
 7563SOL     OW30017   5.462   4.187   4.373 -0.6455  0.4261 -0.4511
 7563SOL    HW230018   5.486   4.148   4.289  0.1133  0.9131 -0.4727
 7563SOL    HW330019   5.455   4.281   4.355 -0.4459  0.5400  0.0368
 7563SOL    MW430020   5.464   4.195   4.360 -0.5190  0.5054 -0.3896
 7564SOL     OW30021   3.364   2.737   2.636 -0.0517  0.9978 -0.5089
 7564SOL    HW230022   3.298   2.782   2.583 -1.3139  1.3797  1.2690
 7564SOL    HW330023   3.428   2.804   2.657  0.4186  0.8587 -1.4740
 7564SOL    MW430024   3.364   2.752   2.632 -0.1561  1.0298 -0.4016
 7565SOL     OW30025   1.859   0.147   4.641  0.1605 -0.5505 -0.3228
 7565SOL    HW230026   1.873   0.184   4.728 -0.6866 -0.3812 -0.2522
 7565SOL    HW330027   1.837   0.222   4.586 -1.6583 -0.9210 -0.1566
 7565SOL    MW430028   1.858   0.162   4.645 -0.1912 -0.5770 -0.2916
 7566SOL     OW30029   3.585   0.250   3.760 -0.0362 -0.3807  0.2476
 7566SOL    HW230030   3.636   0.234   3.840 -0.8086 -0.7873  0.6765
 7566SOL    HW330031   3.494   0.241   3.788 -0.3084 -1.0159 -0.7828
 7566SOL    MW430032   3.580   0.246   3.774 -0.1741 -0.5182  0.1682
 7567SOL     OW30033   2.584   3.560   2.335  0.2733  0.1630  0.4583
 7567SOL    HW230034   2.578   3.629   2.401  0.2733  0.9808 -0.3935
 7567SOL    HW330035   2.534   3.487   2.373 -0.6745  1.0080  0.8850
 7567SOL    MW430036   2.577   3.559   2.349  0.1482  0.3824  0.4022
 7568SOL     OW30037   3.228   3.833   2.323 -0.0222 -0.1305  0.4735
 7568SOL    HW230038   3.289   3.761   2.310  0.9455  0.6957  0.2903
 7568SOL    HW330039   3.273   3.910   2.288 -0.8496  0.6451  1.0402
 7568SOL    MW430040   3.242   3.834   2.316 -0.0037  0.0808  0.5241
 7569SOL     OW30041   5.435   3.608   5.032  0.1609  0.9971 -0.0057
 7569SOL    HW230042   5.401   3.594   5.121  0.5314  1.5425  0.2291
 7569SOL    HW330043   5.415   3.700   5.013  0.0727  0.8784 -0.4903
 7569SOL    MW430044   5.428   3.619   5.042  0.1981  1.0534 -0.0386
 7570SOL     OW30045   4.907   6.298   2.227  0.3834  0.2785  0.4887
 7570SOL    HW230046   4.861   6.377   2.255  0.6793  1.2368 -1.5480
 7570SOL    HW330047   4.894   6.295   2.132  0.8010 -1.8629  0.4518
 7570SOL    MW430048   4.900   6.308   2.218  0.4775  0.1224  0.2151
 7571SOL     OW30049   6.069   0.613   4.610  0.0554 -0.1765 -0.0595
 7571SOL    HW230050   5.986   0.655   4.632  0.4228  0.5572 -0.0487
 7571SOL    HW330051   6.055   0.576   4.523 -0.4588 -0.5486  0.1763
 7571SOL    MW430052   6.057   0.614   4.602  0.0360 -0.1288 -0.0270
 7572SOL     OW30053   1.807   2.637   2.846 -0.4563  0.7291  0.1624
 7572SOL    HW230054   1.861   2.699   2.894  0.8210  1.3577 -1.9131
 7572SOL    HW330055   1.844   2.637   2.757 -3.2285  0.3989 -1.1263
 7572SOL    MW430056   1.819   2.645   2.840 -0.6536  0.7685 -0.2815
 7573SOL     OW30057   0.604   4.745   0.484 -0.0398  0.4002  0.2206
 7573SOL    HW230058   0.533   4.726   0.422 -0.6895 -0.1888  1.1250
 7573SOL    HW330059   0.676   4.775   0.429  0.2549 -2.3921 -1.0980
 7573SOL    MW430060   0.604   4.747   0.468 -0.0867 -0.0459  0.1659
 7574SOL     OW30061   2.218   1.067   5.806 -0.1254 -0.0428 -0.6702
 7574SOL    HW230062   2.233   0.973   5.790 -2.0039 -0.2673 -1.3033
 7574SOL    HW330063   2.220   1.106   5.719  2.0048  0.7787 -0.3138
 7574SOL    MW430064   2.221   1.059   5.793 -0.0922  0.0360 -0.7067
 7575SOL     OW30065   3.334   1.835   3.240  0.1352 -0.6412 -0.1036
 7575SOL    HW230066   3.350   1.745   3.212 -1.3215 -0.5012 -1.5323
 7575SOL    HW330067   3.339   1.887   3.160 -0.8721  0.2720  0.3944
 7575SOL    MW430068   3.337   1.830   3.226 -0.1899 -0.5022 -0.2264
 7576SOL     OW30069   4.332   0.481   3.622 -0.0651 -0.7625 -0.1300
 7576SOL    HW230070   4.259   0.525   3.577  0.5640  0.2560 -0.1971
 7576SOL    HW330071   4.410   0.529   3.592  1.0095 -3.5812 -2.3328
 7576SOL    MW430072   4.332   0.493   3.612  0.1597 -1.0000 -0.4295
 7577SOL     OW30073   0.548   4.790   3.081 -0.3334  0.2906  0.0188
 7577SOL    HW230074   0.503   4.873   3.065 -0.3821  0.4303  0.8702
 7577SOL    HW330075   0.504   4.752   3.156  0.3895  0.0089  0.3119
 7577SOL    MW430076   0.537   4.796   3.089 -0.2445  0.2719  0.1698
 7578SOL     OW30077   3.719   0.014   6.144 -0.6609 -0.2331 -0.1862
 7578SOL    HW230078   3.733   0.002   6.050  1.3873 -0.1827  0.0665
 7578SOL    HW330079   3.669   0.096   6.150 -2.5955 -1.2648 -1.2796
 7578SOL    MW430080   3.714   0.023   6.132 -0.6459 -0.3626 -0.2971
 7579SOL     OW30081   6.222   0.041   1.023 -0.6248 -0.6188 -0.2388
 7579SOL    HW230082   6.171   0.032   1.103 -2.0771  1.0270 -0.9305
 7579SOL    HW330083   6.272   0.121   1.035 -0.1173 -0.8736 -0.6060
 7579SOL    MW430084   6.222   0.050   1.035 -0.7494 -0.4352 -0.3785
 7580SOL     OW30085   3.793   3.281   2.892 -0.1085  0.4591 -0.6767
 7580SOL    HW230086   3.715   3.237   2.857 -0.2352  0.4326 -0.3705
 7580SOL    HW330087   3.758   3.361   2.931  0.1193  0.8253 -1.2203
 7580SOL    MW430088   3.778   3.286   2.893 -0.0951  0.5039 -0.7080
 7581SOL     OW30089   2.702   5.722   2.916 -0.2212  0.0303 -0.1806
 7581SOL    HW230090   2.666   5.639   2.947  0.1758  0.4251  1.4491
 7581SOL    HW330091   2.787   5.699   2.879 -0.0421 -0.2769  0.4128
 7581SOL    MW430092   2.708   5.708   2.915 -0.1452  0.0418  0.1127
 7582SOL     OW30093   1.062   3.309   1.989 -0.2123 -0.0829 -0.2402
 7582SOL    HW230094   1.149   3.342   2.012  0.0585 -2.5737  3.0742
 7582SOL    HW330095   1.004   3.345   2.056 -1.0668 -1.2000 -0.3458
 7582SOL    MW430096   1.066   3.318   2.001 -0.2893 -0.5589  0.1832
 7583SOL     OW30097   0.769   1.684   1.072 -0.1382  0.1737 -0.3757
 7583SOL    HW230098   0.718   1.725   1.002 -1.7505  0.2556  0.7788
 7583SOL    HW330099   0.705   1.632   1.121  1.1270 -0.6395  0.4883
 7583SOL    MW430100   0.754   1.682   1.069 -0.1840  0.0772 -0.1094
 7584SOL     OW30101   0.027   3.314   2.988 -0.0345  0.4614 -0.0415
 7584SOL    HW230102   0.102   3.364   3.020 -0.6450  0.8816  0.7754
 7584SOL    HW330103  -0.049   3.363   3.019 -0.6791 -1.7014  2.0197
 7584SOL    MW430104   0.027   3.327   2.996 -0.2001  0.2315  0.3382
 7585SOL     OW30105   2.169   5.130   6.326 -0.1333  0.1005  0.2665
 7585SOL    HW230106   2.107   5.078   6.377 -0.2927  0.0747  0.0469
 7585SOL    HW330107   2.135   5.220   6.332 -0.7368 -0.0607 -0.6632
 7585SOL    MW430108   2.157   5.135   6.334 -0.2339  0.0758  0.1149
 7586SOL     OW30109   3.085   5.520   1.839  0.5097  0.6972 -0.4956
 7586SOL    HW230110   3.173   5.522   1.801  2.1716 -1.6572  2.7464
 7586SOL    HW330111   3.060   5.428   1.837 -1.4864  1.1911 -0.3665
 7586SOL    MW430112   3.093   5.508   1.833  0.4656  0.4517 -0.0508
 7587SOL     OW30113   4.117   3.544   3.412  0.0148 -0.6750 -0.5364
 7587SOL    HW230114   4.192   3.485   3.416  1.4320  0.9680 -1.4139
 7587SOL    HW330115   4.121   3.582   3.324 -1.2333  0.2241 -0.2298
 7587SOL    MW430116   4.127   3.542   3.401  0.0371 -0.3396 -0.6118
 7588SOL     OW30117   1.034   4.002   1.538  0.1577 -0.5479 -0.2406
 7588SOL    HW230118   1.082   3.998   1.621 -0.3582  0.2681  0.1038
 7588SOL    HW330119   0.963   4.064   1.554  1.0331  0.9483 -1.7890
 7588SOL    MW430120   1.031   4.010   1.551  0.2051 -0.2429 -0.3994
 7589SOL     OW30121   5.588   4.329   1.345  0.9504  0.1627 -0.2438
 7589SOL    HW230122   5.576   4.423   1.359 -0.6032 -0.0377  0.0247
 7589SOL    HW330123   5.682   4.315   1.353  1.4963  2.0088 -2.3705
 7589SOL    MW430124   5.599   4.339   1.348  0.8175  0.3798 -0.4890
 7590SOL     OW30125   3.776   3.951   3.116  0.2686 -0.3743  0.1617
 7590SOL    HW230126   3.730   4.033   3.137 -1.0887 -1.0226 -0.1829
 7590SOL    HW330127   3.816   3.925   3.199  1.4635  1.0719  0.0855
 7590SOL    MW430128   3.775   3.959   3.130  0.2472 -0.2691  0.1061
 7591SOL     OW30129   3.855   5.041   6.327  0.2024  0.5543  0.3281
 7591SOL    HW230130   3.823   5.005   6.410 -1.6538 -1.0761 -0.9859
 7591SOL    HW330131   3.929   4.986   6.303 -0.1835  0.0727  0.2227
 7591SOL    MW430132   3.861   5.029   6.335 -0.0935  0.2757  0.1408
 7592SOL     OW30133   5.066   0.561   1.196 -0.0987  0.1491  0.2605
 7592SOL    HW230134   4.983   0.518   1.175  0.8187 -0.9965 -1.1677
 7592SOL    HW330135   5.123   0.491   1.227  0.6155  0.7678  0.3827
 7592SOL    MW430136   5.062   0.546   1.197  0.1166  0.0796  0.0882
 7593SOL     OW30137   0.717   4.131   0.678  0.3818 -0.3607  0.3215
 7593SOL    HW230138   0.730   4.213   0.725  1.5451 -0.2832 -0.1034
 7593SOL    HW330139   0.644   4.089   0.723  0.7526  0.2081  1.5124
 7593SOL    MW430140   0.709   4.136   0.690  0.5842 -0.2754  0.4226
 7594SOL     OW30141   2.637   5.751   3.420 -0.6401  0.0443 -0.3325
 7594SOL    HW230142   2.614   5.837   3.386 -0.7582  0.1005 -0.1103
 7594SOL    HW330143   2.608   5.690   3.352 -0.1949  0.2019 -0.6684
 7594SOL    MW430144   2.630   5.754   3.406 -0.5970  0.0725 -0.3475
 7595SOL     OW30145   5.322   6.087   6.099 -0.3486  0.4271  1.0264
 7595SOL    HW230146   5.273   6.025   6.153 -0.8726 -1.1221 -1.0868
 7595SOL    HW330147   5.256   6.126   6.042  0.3747  0.9060  0.4970
 7595SOL    MW430148   5.307   6.084   6.099 -0.3223  0.2859  0.6777
 7596SOL     OW30149   0.910   5.240   5.762  0.1529 -0.1798 -0.3661
 7596SOL    HW230150   0.893   5.301   5.690  1.8377 -0.8174 -1.3499
 7596SOL    HW330151   0.938   5.159   5.719  1.4870 -0.4819  0.9967
 7596SOL    MW430152   0.911   5.238   5.747  0.5512 -0.3038 -0.3161
 7597SOL     OW30153   3.650   1.573   3.004 -0.5472 -0.1853  0.2090
 7597SOL    HW230154   3.742   1.566   2.978 -0.7277 -2.8511  0.0088
 7597SOL    HW330155   3.611   1.631   2.939  0.4040 -1.4109 -1.5324
 7597SOL    MW430156   3.657   1.580   2.992 -0.4455 -0.6987 -0.0472
 7598SOL     OW30157   3.946   1.174   1.354 -0.3389 -0.7774 -0.4291
 7598SOL    HW230158   4.005   1.245   1.329 -1.0320  0.2367  0.6909
 7598SOL    HW330159   4.000   1.115   1.405  0.7213 -2.1170 -2.9393
 7598SOL    MW430160   3.961   1.176   1.358 -0.2905 -0.8203 -0.6125
 7599SOL     OW30161   3.353   1.126   4.629 -0.1143 -0.3793  0.3191
 7599SOL    HW230162   3.298   1.091   4.560  1.0384 -2.7217  0.5071
 7599SOL    HW330163   3.442   1.101   4.604  0.7406  1.8507  0.8659
 7599SOL    MW430164   3.358   1.118   4.617  0.1506 -0.3941  0.4161
 7600SOL     OW30165   3.561   2.079   1.574  0.3105 -0.1472 -0.2215
 7600SOL    HW230166   3.640   2.130   1.557  0.9876  0.8119  4.4690
 7600SOL    HW330167   3.489   2.137   1.548  1.1084  0.5701 -0.8800
 7600SOL    MW430168   3.562   2.093   1.568  0.5051  0.0740  0.3104
 7601SOL     OW30169   0.743   3.880   6.157  0.1549 -0.8081  0.3043
 7601SOL    HW230170   0.782   3.839   6.080  1.8333 -1.4162  1.4293
 7601SOL    HW330171   0.779   3.832   6.231 -0.7721  0.2904  1.5237
 7601SOL    MW430172   0.753   3.868   6.157  0.2540 -0.7434  0.6136
 7602SOL     OW30173   5.849   6.275   1.102 -0.0661  0.1926 -0.0289
 7602SOL    HW230174   5.888   6.193   1.071 -0.4109  0.3974 -1.0550
 7602SOL    HW330175   5.834   6.326   1.022 -2.3660  0.1470  0.3065
 7602SOL    MW430176   5.852   6.271   1.087 -0.4150  0.2136 -0.1200
 7603SOL     OW30177   4.600   3.466   4.500  0.2219 -0.5209 -0.6595
 7603SOL    HW230178   4.691   3.444   4.482  0.3480 -0.9358  0.4435
 7603SOL    HW330179   4.595   3.474   4.595 -0.9370 -0.6781 -0.6901
 7603SOL    MW430180   4.611   3.464   4.510  0.0857 -0.5964 -0.5180
 7604SOL     OW30181   2.964   1.276   2.826 -0.3596  0.2646 -0.0809
 7604SOL    HW230182   3.055   1.273   2.796  0.3886  1.3410  1.8988
 7604SOL    HW330183   2.948   1.368   2.846 -1.0185 -0.2183  1.9415
 7604SOL    MW430184   2.974   1.288   2.825 -0.3478  0.3429  0.4471
 7605SOL     OW30185   5.457   1.542   3.469 -0.5105 -0.1942  0.4583
 7605SOL    HW230186   5.532   1.580   3.423 -0.9113 -0.2333 -0.2386
 7605SOL    HW330187   5.445   1.456   3.428  0.5894 -1.2658  2.2359
 7605SOL    MW430188   5.465   1.536   3.458 -0.4183 -0.3407  0.6009
 7606SOL     OW30189   5.280   6.215   1.839  0.2253  0.0098  0.1116
 7606SOL    HW230190   5.199   6.183   1.799  0.2785  1.6242 -1.4050
 7606SOL    HW330191   5.258   6.303   1.871  1.3333  0.4076 -0.1814
 7606SOL    MW430192   5.267   6.222   1.838  0.3785  0.2753 -0.1272
 7607SOL     OW30193   3.304   2.352   0.897 -0.3042 -0.7728 -0.7374
 7607SOL    HW230194   3.367   2.336   0.827 -0.1174  2.2751 -1.3812
 7607SOL    HW330195   3.346   2.316   0.975  1.5166 -0.2725 -1.4250
 7607SOL    MW430196   3.318   2.345   0.898 -0.0393 -0.3047 -0.9131
 7608SOL     OW30197   1.044   1.289   3.213  0.3934 -0.0629  0.0243
 7608SOL    HW230198   1.114   1.236   3.252  0.8742  0.4781 -0.0896
 7608SOL    HW330199   1.038   1.366   3.269 -2.3718 -1.5597  1.9957
 7608SOL    MW430200   1.053   1.292   3.225  0.0920 -0.1890  0.2694
 7609SOL     OW30201   1.736   3.709   3.088 -0.7407  0.3019 -0.1020
 7609SOL    HW230202   1.676   3.637   3.110  0.2151 -0.9392 -1.3124
 7609SOL    HW330203   1.698   3.748   3.009 -2.0312  2.1379  1.3439
 7609SOL    MW430204   1.723   3.704   3.080 -0.7849  0.3804 -0.0709
 7610SOL     OW30205   1.063   3.740   4.409 -0.5046  0.1290  0.3007
 7610SOL    HW230206   1.136   3.733   4.470  0.6585 -2.3542 -1.2708
 7610SOL    HW330207   1.036   3.650   4.392 -1.8805  0.8366 -1.6031
 7610SOL    MW430208   1.069   3.727   4.415 -0.5327 -0.1052 -0.1578
 7611SOL     OW30209   0.497   1.264   1.866  0.1687 -0.2386 -0.8282
 7611SOL    HW230210   0.426   1.309   1.911  1.2491  0.9034 -0.1817
 7611SOL    HW330211   0.513   1.316   1.787  1.1460  0.3123 -0.2899
 7611SOL    MW430212   0.490   1.277   1.862  0.4402 -0.0152 -0.6718
 7612SOL     OW30213   1.696   1.304   1.562  0.2485  0.0776  0.0268
 7612SOL    HW230214   1.681   1.215   1.531 -1.6954  0.8754 -1.5335
 7612SOL    HW330215   1.660   1.305   1.651  1.7484 -1.0529  0.7005
 7612SOL    MW430216   1.689   1.292   1.570  0.1899  0.0337 -0.0902
 7613SOL     OW30217   6.379   1.582   3.225  0.0189  0.0009  0.4718
 7613SOL    HW230218   6.464   1.547   3.251 -0.6158 -0.5603  1.8801
 7613SOL    HW330219   6.333   1.599   3.307 -0.2316  2.9473 -0.1451
 7613SOL    MW430220   6.384   1.580   3.239 -0.0979  0.3156  0.5762
 7614SOL     OW30221   5.958   1.870   5.629 -1.0827  0.1827  0.2020
 7614SOL    HW230222   5.993   1.933   5.692 -1.0403  0.3682 -0.0023
 7614SOL    HW330223   6.012   1.792   5.640  0.1301  0.8225 -0.8440
 7614SOL    MW430224   5.970   1.868   5.638 -0.9171  0.2916  0.0370
 7615SOL     OW30225   1.260   2.596   3.210 -0.1019 -0.2344  0.0414
 7615SOL    HW230226   1.353   2.577   3.217 -0.1747 -0.7970 -0.4265
 7615SOL    HW330227   1.233   2.622   3.299  0.4466 -0.2823  0.2214
 7615SOL    MW430228   1.268   2.597   3.223 -0.0392 -0.3150  0.0034
 7616SOL     OW30229   2.064   3.490   4.154 -0.2389 -0.0372 -0.0000
 7616SOL    HW230230   2.007   3.433   4.102 -0.9021 -0.5856  1.2731
 7616SOL    HW330231   2.042   3.469   4.245  0.9742  0.7948  0.5123
 7616SOL    MW430232   2.054   3.479   4.159 -0.1663  0.0002  0.2355
 7617SOL     OW30233   5.562   0.046   0.238  0.3066  0.0579  0.0767
 7617SOL    HW230234   5.584   0.027   0.329 -1.4499 -0.7954  0.3740
 7617SOL    HW330235   5.587   0.137   0.225  0.2707  0.2908  1.5237
 7617SOL    MW430236   5.568   0.055   0.248  0.0701 -0.0239  0.3069
 7618SOL     OW30237   3.895   3.924   1.206  0.2852 -0.4906  0.3134
 7618SOL    HW230238   3.918   3.839   1.244  1.7885  0.7882  2.4735
 7618SOL    HW330239   3.818   3.952   1.255 -1.2142 -1.2338 -1.4932
 7618SOL    MW430240   3.888   3.916   1.217  0.2857 -0.4199  0.3600
 7619SOL     OW30241   1.585   2.071   3.988  0.4465  0.0821 -0.0465
 7619SOL    HW230242   1.538   2.150   3.961  0.1731 -0.7622 -2.2671
 7619SOL    HW330243   1.660   2.103   4.038 -0.7890  1.6176  0.9041
 7619SOL    MW430244   1.589   2.085   3.991  0.2474  0.1733 -0.2141
 7620SOL     OW30245   5.394   5.094   5.686 -0.2915 -0.4948 -0.3701
 7620SOL    HW230246   5.430   5.090   5.597  0.3990 -1.2888 -0.0659
 7620SOL    HW330247   5.331   5.166   5.683  0.6858  0.3543 -1.1556
 7620SOL    MW430248   5.391   5.103   5.674 -0.0714 -0.4875 -0.4336
 7621SOL     OW30249   3.559   6.173   1.082  0.1436 -0.4312 -0.8816
 7621SOL    HW230250   3.545   6.254   1.131  0.7960 -1.1410  0.5357
 7621SOL    HW330251   3.479   6.122   1.096  0.9381 -1.2879  0.8193
 7621SOL    MW430252   3.546   6.177   1.090  0.3345 -0.6378 -0.4702
 7622SOL     OW30253   0.928   1.591   2.350 -0.0779 -0.3986  0.5259
 7622SOL    HW230254   0.961   1.507   2.318  0.6556 -0.0193  0.2636
 7622SOL    HW330255   0.843   1.602   2.308  0.4612 -0.3460 -0.5753
 7622SOL    MW430256   0.921   1.582   2.340  0.0900 -0.3416  0.3460
 7623SOL     OW30257   0.658   3.138   5.087 -0.1243 -0.2471  0.2114
 7623SOL    HW230258   0.718   3.077   5.129 -0.3833 -0.9412 -0.4096
 7623SOL    HW330259   0.695   3.153   5.000 -0.2844  0.1573  0.2087
 7623SOL    MW430260   0.671   3.132   5.081 -0.1796 -0.2853  0.1291
 7624SOL     OW30261   5.233   2.611   1.668  0.4176  0.7321  0.1341
 7624SOL    HW230262   5.310   2.658   1.700 -0.3092  2.4186 -0.4679
 7624SOL    HW330263   5.255   2.518   1.678  1.2092  1.1458  3.1405
 7624SOL    MW430264   5.246   2.605   1.674  0.4261  1.0092  0.4513
 7625SOL     OW30265   2.106   2.328   4.979  0.0764  0.2548  0.1472
 7625SOL    HW230266   2.114   2.242   4.937 -0.1476 -1.1764  2.7887
 7625SOL    HW330267   2.138   2.390   4.914  0.7657 -1.8777 -1.6737
 7625SOL    MW430268   2.111   2.325   4.965  0.1378 -0.2154  0.2554
 7626SOL     OW30269   1.856   1.375   3.690  0.1997  0.1703 -0.5301
 7626SOL    HW230270   1.868   1.464   3.724 -2.2978 -0.4879  2.6270
 7626SOL    HW330271   1.775   1.380   3.639  0.8718 -0.0268 -1.6450
 7626SOL    MW430272   1.847   1.387   3.687 -0.0412  0.0575 -0.2606
 7627SOL     OW30273   4.685   5.297   2.437 -0.0251  0.1648  0.3897
 7627SOL    HW230274   4.612   5.236   2.429 -0.1510  0.4268 -0.5947
 7627SOL    HW330275   4.700   5.305   2.531 -1.2403  0.0803  0.5990
 7627SOL    MW430276   4.678   5.290   2.448 -0.2021  0.1882  0.2874
 7628SOL     OW30277   2.566   2.854   4.147 -0.1091 -0.4358  0.1195
 7628SOL    HW230278   2.594   2.915   4.215 -1.9478  2.4633 -1.5188
 7628SOL    HW330279   2.601   2.769   4.175  2.4740  1.2686  2.6255
 7628SOL    MW430280   2.574   2.851   4.160 -0.0109  0.1716  0.2340
 7629SOL     OW30281   4.152   4.864   5.567 -0.1853  0.6858 -0.1525
 7629SOL    HW230282   4.098   4.942   5.558 -0.3425  0.3616 -2.8664
 7629SOL    HW330283   4.103   4.796   5.521 -0.9329 -1.6026  3.5956
 7629SOL    MW430284   4.138   4.865   5.560 -0.3047  0.3411 -0.0160
 7630SOL     OW30285   1.146   4.312   1.637  0.0374  0.4285 -0.4689
 7630SOL    HW230286   1.175   4.383   1.694  1.1104  0.6236 -1.2437
 7630SOL    HW330287   1.192   4.326   1.555 -1.1124 -0.1376 -1.2322
 7630SOL    MW430288   1.156   4.323   1.634  0.0273  0.3796 -0.6718
 7631SOL     OW30289   4.827   0.936   4.080  0.5615 -0.4681  0.0283
 7631SOL    HW230290   4.795   0.883   4.007 -0.1829 -1.4097  1.0155
 7631SOL    HW330291   4.887   0.879   4.128  2.7058  0.8237 -0.9843
 7631SOL    MW430292   4.830   0.922   4.077  0.7462 -0.4219  0.0250
 7632SOL     OW30293   5.091   1.111   4.387 -0.5057 -0.0646  0.0009
 7632SOL    HW230294   5.013   1.127   4.441 -0.6212 -0.1901 -0.1272
 7632SOL    HW330295   5.143   1.191   4.395 -1.9799  1.2117 -2.1772
 7632SOL    MW430296   5.087   1.124   4.395 -0.7154  0.0872 -0.3034
 7633SOL     OW30297   2.857   0.564   1.997  0.6691  0.7911  0.3358
 7633SOL    HW230298   2.874   0.645   2.046  1.7127  0.9388 -0.2352
 7633SOL    HW330299   2.931   0.557   1.937  1.2571 -1.2455  1.2104
 7633SOL    MW430300   2.869   0.574   1.996  0.8844  0.5419  0.3759
 7634SOL     OW30301   1.659   3.334   5.163  0.4048  0.0708 -0.0703
 7634SOL    HW230302   1.665   3.272   5.090 -1.2529 -1.6081  1.1036
 7634SOL    HW330303   1.719   3.299   5.229 -1.1233 -0.8058  0.9052
 7634SOL    MW430304   1.668   3.321   5.162 -0.0155 -0.2663  0.2133
 7635SOL     OW30305   2.660   3.812   6.055 -0.2973  0.4021  0.0291
 7635SOL    HW230306   2.586   3.852   6.100 -0.2943  0.5257 -0.0760
 7635SOL    HW330307   2.625   3.730   6.019 -0.4588  0.5996 -0.2682
 7635SOL    MW430308   2.646   3.806   6.056 -0.3182  0.4445 -0.0240
 7636SOL     OW30309   2.106   0.033   4.924 -0.5766 -0.5096 -0.3840
 7636SOL    HW230310   2.197   0.002   4.923 -0.8892 -1.4543 -0.2299
 7636SOL    HW330311   2.113   0.128   4.909  0.4511 -0.5261 -0.0979
 7636SOL    MW430312   2.119   0.042   4.922 -0.4822 -0.6364 -0.3259
 7637SOL     OW30313   1.382   5.016   2.926 -0.2793  0.4423 -0.4407
 7637SOL    HW230314   1.323   5.059   2.865 -0.5883 -0.1397 -0.5542
 7637SOL    HW330315   1.458   5.074   2.931 -1.3761  1.8564  0.6749
 7637SOL    MW430316   1.384   5.029   2.919 -0.4648  0.5521 -0.3085
 7638SOL     OW30317   1.417   3.114   4.422 -0.1286  0.5365  0.3436
 7638SOL    HW230318   1.368   3.158   4.352  1.0565 -1.6739 -2.0032
 7638SOL    HW330319   1.493   3.076   4.379  2.0799  1.1784  3.3218
 7638SOL    MW430320   1.421   3.115   4.407  0.3191  0.3295  0.4269
 7639SOL     OW30321   4.537   3.037   2.933  0.5739 -0.0142  0.2627
 7639SOL    HW230322   4.577   2.998   2.856  2.9702  2.3709  0.1191
 7639SOL    HW330323   4.610   3.047   2.995 -0.7074  0.6635  1.7495
 7639SOL    MW430324   4.552   3.033   2.931  0.7210  0.3899  0.4399
 7640SOL     OW30325   0.687   2.130   1.500  0.5387 -1.2830  0.1958
 7640SOL    HW230326   0.727   2.078   1.569  1.7869 -1.0606 -0.3121
 7640SOL    HW330327   0.762   2.168   1.453 -0.2728  1.5119  0.9442
 7640SOL    MW430328   0.702   2.128   1.503  0.5963 -0.8849  0.2276
 7641SOL     OW30329   0.646   0.879   5.451  0.0815 -0.3967 -0.1737
 7641SOL    HW230330   0.676   0.959   5.495 -1.9515  0.3728 -0.0851
 7641SOL    HW330331   0.696   0.809   5.492  0.6712  0.6529  0.9655
 7641SOL    MW430332   0.657   0.880   5.462 -0.1089 -0.1567 -0.0117
 7642SOL     OW30333   1.598   2.927   4.912  0.5655  0.1003  0.0849
 7642SOL    HW230334   1.675   2.874   4.892  0.1203 -0.6300  0.2857
 7642SOL    HW330335   1.570   2.897   4.999 -1.1512 -1.1207 -0.8271
 7642SOL    MW430336   1.605   2.916   4.921  0.2803 -0.1571 -0.0090
 7643SOL     OW30337   4.065   0.272   3.731 -0.6918  0.1171  0.5031
 7643SOL    HW230338   4.010   0.296   3.657  0.1205  1.8372  0.4147
 7643SOL    HW330339   4.087   0.355   3.773  1.4023 -0.5514  0.8412
 7643SOL    MW430340   4.061   0.286   3.727 -0.3084  0.2559  0.5361
 7644SOL     OW30341   3.235   2.293   0.523 -0.2694  0.4630 -0.1342
 7644SOL    HW230342   3.248   2.280   0.617 -2.3615  0.6674  0.2246
 7644SOL    HW330343   3.153   2.343   0.517 -0.5675 -0.1928 -2.0915
 7644SOL    MW430344   3.226   2.298   0.535 -0.5848  0.4035 -0.3451
 7645SOL     OW30345   3.796   1.730   4.134 -0.0545 -0.3678 -0.1423
 7645SOL    HW230346   3.718   1.697   4.091  0.3289  0.4789 -1.5624
 7645SOL    HW330347   3.857   1.750   4.063  0.4005  1.6472  0.7242
 7645SOL    MW430348   3.794   1.728   4.119  0.0561  0.0098 -0.2154
 7646SOL     OW30349   3.435   1.183   1.877 -0.0514  0.1699  0.1651
 7646SOL    HW230350   3.428   1.125   1.953  0.5887  1.8195  1.5474
 7646SOL    HW330351   3.527   1.207   1.873 -0.4078  1.6783  0.1371
 7646SOL    MW430352   3.446   1.179   1.887 -0.0140  0.5865  0.3438
 7647SOL     OW30353   2.572   1.405   2.849  0.4309 -0.1108 -0.2555
 7647SOL    HW230354   2.506   1.469   2.874 -1.2573 -1.0307 -2.0996
 7647SOL    HW330355   2.639   1.457   2.805  0.2391  0.6461  0.3072
 7647SOL    MW430356   2.572   1.420   2.847  0.1828 -0.1323 -0.4245
 7648SOL     OW30357   2.432   2.393   5.964  1.1808  0.4617 -0.0804
 7648SOL    HW230358   2.339   2.412   5.981  1.0844  0.6788 -0.8478
 7648SOL    HW330359   2.435   2.298   5.954  1.0529  0.4478  0.0003
 7648SOL    MW430360   2.420   2.383   5.965  1.1512  0.4885 -0.1710
 7649SOL     OW30361   6.008   4.181   0.062 -0.3458 -0.6137  0.2246
 7649SOL    HW230362   5.969   4.267   0.047  2.7470  0.9038  0.1021
 7649SOL    HW330363   6.022   4.146  -0.026  0.9295  0.0355  0.1538
 7649SOL    MW430364   6.005   4.188   0.048  0.2305 -0.3278  0.1991
 7650SOL     OW30365   4.513   2.674   2.925 -0.2366 -0.2187  0.0830
 7650SOL    HW230366   4.590   2.696   2.874 -0.7499  0.2095 -0.5141
 7650SOL    HW330367   4.458   2.622   2.866 -1.0606  0.7028  0.0069
 7650SOL    MW430368   4.516   2.670   2.911 -0.4130 -0.0407 -0.0058
 7651SOL     OW30369   1.560   2.554   6.230 -0.3725  0.3300  0.6125
 7651SOL    HW230370   1.528   2.632   6.275  1.0458 -0.8337  3.9117
 7651SOL    HW330371   1.482   2.498   6.220 -0.9489  1.1543  0.4273
 7651SOL    MW430372   1.546   2.557   6.234 -0.2614  0.2852  1.0234
 7652SOL     OW30373   2.682   3.582   1.929  0.2528 -0.2107  0.1337
 7652SOL    HW230374   2.735   3.512   1.967  0.5672 -0.1840 -0.2445
 7652SOL    HW330375   2.609   3.594   1.991  0.4559 -0.5400  0.4404
 7652SOL    MW430376   2.679   3.574   1.942  0.3210 -0.2506  0.1242
 7653SOL     OW30377   0.069   6.269   2.826 -0.4318 -0.3104  0.3056
 7653SOL    HW230378   0.126   6.344   2.812 -0.5723 -0.2770 -0.1071
 7653SOL    HW330379   0.012   6.267   2.748 -0.0574 -1.1734  0.0428
 7653SOL    MW430380   0.069   6.278   2.813 -0.4009 -0.4199  0.2164
 7654SOL     OW30381   5.524   2.905   3.208  0.3510 -0.0502  0.3987
 7654SOL    HW230382   5.458   2.895   3.139 -1.0835 -0.2739  1.7473
 7654SOL    HW330383   5.596   2.849   3.181 -0.2239 -0.2231 -0.8540
 7654SOL    MW430384   5.525   2.896   3.195  0.0859 -0.1025  0.4113
 7655SOL     OW30385   0.903   2.554   3.562  1.1753 -0.3124 -0.1705
 7655SOL    HW230386   0.886   2.641   3.599  1.2907 -0.9131  1.3774
 7655SOL    HW330387   0.836   2.498   3.599  0.2881 -0.6710 -2.1969
 7655SOL    MW430388   0.892   2.558   3.572  1.0735 -0.4390 -0.2337
 7656SOL     OW30389   4.778   2.484   3.256  0.2658 -0.8614  0.3255
 7656SOL    HW230390   4.783   2.579   3.245 -0.5821 -0.8987 -0.5692
 7656SOL    HW330391   4.698   2.459   3.210 -0.3301 -1.8388  1.7938
 7656SOL    MW430392   4.768   2.493   3.249  0.0753 -0.9953  0.4012
 7657SOL     OW30393   4.099   0.631   1.706 -0.4288 -0.1262  0.6460
 7657SOL    HW230394   4.076   0.657   1.617 -0.3892 -0.3519  0.5689
 7657SOL    HW330395   4.146   0.548   1.695  2.4181  1.3854  0.5815
 7657SOL    MW430396   4.102   0.624   1.693 -0.0479  0.0435  0.6273
 7658SOL     OW30397   1.728   1.216   3.915 -1.1447 -0.8205 -0.4787
 7658SOL    HW230398   1.750   1.127   3.886  1.4393 -0.2392 -0.6012
 7658SOL    HW330399   1.765   1.273   3.848 -0.6586  0.3910  0.7699
 7658SOL    MW430400   1.736   1.211   3.903 -0.7396 -0.5840 -0.3301
 7659SOL     OW30401   5.540   4.225   5.227  0.9557  0.2025 -0.5919
 7659SOL    HW230402   5.536   4.190   5.316 -1.8866  0.7643 -0.4005
 7659SOL    HW330403   5.569   4.151   5.174  2.0172 -0.3415  0.6957
 7659SOL    MW430404   5.543   4.211   5.232  0.7208  0.2049 -0.3968
 7660SOL     OW30405   1.324   6.080   3.698  0.5245 -0.3462 -0.0723
 7660SOL    HW230406   1.415   6.066   3.672  0.7564 -0.5370  0.8044
 7660SOL    HW330407   1.312   6.175   3.693  1.2084 -0.1636  1.1236
 7660SOL    MW430408   1.334   6.091   3.694  0.6453 -0.3472  0.2012
 7661SOL     OW30409   4.497   4.834   2.231 -0.1574  0.4514  0.1393
 7661SOL    HW230410   4.565   4.899   2.213  0.1008 -0.0584 -0.7917
 7661SOL    HW330411   4.541   4.750   2.222 -0.4689  0.1266  1.4136
 7661SOL    MW430412   4.512   4.832   2.227 -0.1644  0.3413  0.1846
 7662SOL     OW30413   3.080   2.083   1.121 -0.0857  0.2805  0.0195
 7662SOL    HW230414   3.051   2.023   1.189  0.2561 -0.8126 -0.7838
 7662SOL    HW330415   3.087   2.168   1.166  0.8302 -0.5521  1.5230
 7662SOL    MW430416   3.077   2.087   1.136  0.0803  0.0264  0.1119
 7663SOL     OW30417   3.571   1.730   3.947  0.0936 -0.0536 -0.0223
 7663SOL    HW230418   3.479   1.754   3.945  0.2930  0.7784 -2.5533
 7663SOL    HW330419   3.574   1.644   3.905  0.5774  0.4707 -1.0886
 7663SOL    MW430420   3.559   1.722   3.941  0.1837  0.1253 -0.4969
 7664SOL     OW30421   3.717   3.925   4.208  0.4561  0.7981 -0.0863
 7664SOL    HW230422   3.778   3.860   4.174 -0.9031 -2.8367  3.6903
 7664SOL    HW330423   3.642   3.923   4.147  1.0777 -0.0069 -0.8350
 7664SOL    MW430424   3.715   3.916   4.195  0.3588  0.2123  0.3132
 7665SOL     OW30425   1.052   1.922   2.636  0.6464  0.1801  0.7669
 7665SOL    HW230426   1.020   2.009   2.661  0.4398  0.1303  0.6820
 7665SOL    HW330427   1.024   1.911   2.546 -0.0399 -0.2942  1.0244
 7665SOL    MW430428   1.044   1.932   2.628  0.5286  0.1109  0.7897
 7666SOL     OW30429   5.491   2.148   1.784 -0.8938  0.4461 -0.1595
 7666SOL    HW230430   5.408   2.129   1.829 -0.7012  0.2830  0.1289
 7666SOL    HW330431   5.557   2.141   1.853 -0.5071 -0.5473 -0.6131
 7666SOL    MW430432   5.488   2.145   1.799 -0.8174  0.2935 -0.1813
 7667SOL     OW30433   4.801   6.267   1.420 -0.1948  0.4890 -0.1693
 7667SOL    HW230434   4.736   6.326   1.458 -0.2856  0.1818  0.1528
 7667SOL    HW330435   4.761   6.180   1.425  0.5182  0.1928  0.6817
 7667SOL    MW430436   4.788   6.263   1.426 -0.1127  0.4094 -0.0145
 7668SOL     OW30437   0.105   2.205   1.937 -0.2186  0.5391 -0.6454
 7668SOL    HW230438   0.142   2.228   1.852 -0.9270  0.1580 -1.0699
 7668SOL    HW330439   0.015   2.180   1.918 -0.5810  1.0530  0.3029
 7668SOL    MW430440   0.098   2.205   1.923 -0.3598  0.5566 -0.5763
 7669SOL     OW30441   5.141   3.726   0.112 -0.4465 -0.4695 -0.0127
 7669SOL    HW230442   5.203   3.658   0.088 -0.9325 -0.8565 -0.1925
 7669SOL    HW330443   5.056   3.693   0.082 -0.4899  0.9550 -1.6217
 7669SOL    MW430444   5.138   3.712   0.105 -0.5163 -0.3326 -0.2487
 7670SOL     OW30445   4.913   4.197   0.670  0.0488  0.0845 -0.0186
 7670SOL    HW230446   4.947   4.135   0.605 -2.0154 -0.9989 -0.1292
 7670SOL    HW330447   4.986   4.210   0.731  0.7205 -2.0807 -0.2796
 7670SOL    MW430448   4.927   4.190   0.669 -0.1349 -0.3441 -0.0676
 7671SOL     OW30449   1.513   5.977   0.287 -0.0990 -0.0584 -0.1211
 7671SOL    HW230450   1.491   6.015   0.202  2.1179 -0.1363 -0.7828
 7671SOL    HW330451   1.579   5.911   0.267 -0.6319 -1.1455  1.5172
 7671SOL    MW430452   1.518   5.973   0.273  0.1232 -0.2121  0.0077
 7672SOL     OW30453   0.757   4.216   1.789 -0.1779  0.2277  0.3619
 7672SOL    HW230454   0.790   4.295   1.748  0.1269  0.2420  0.6296
 7672SOL    HW330455   0.724   4.245   1.874 -3.2976  0.6864 -0.8810
 7672SOL    MW430456   0.757   4.230   1.795 -0.5493  0.2901  0.2332
 7673SOL     OW30457   5.444   6.181   3.976 -0.2330 -0.6101  0.0022
 7673SOL    HW230458   5.448   6.204   3.883 -1.9681 -0.8174 -0.1586
 7673SOL    HW330459   5.370   6.122   3.983 -1.2076  0.7284  1.7750
 7673SOL    MW430460   5.435   6.176   3.964 -0.5905 -0.4609  0.2149
 7674SOL     OW30461   4.595   0.479   5.726  0.4000 -0.0953  0.6121
 7674SOL    HW230462   4.572   0.543   5.660 -3.4959  0.0197  1.7947
 7674SOL    HW330463   4.614   0.399   5.677  1.0619  0.8552 -0.7206
 7674SOL    MW430464   4.594   0.477   5.711 -0.0267  0.0453  0.5923
 7675SOL     OW30465   5.512   2.811   4.851 -0.0751  0.1662  0.0658
 7675SOL    HW230466   5.465   2.743   4.901 -2.6297  0.8014 -1.2840
 7675SOL    HW330467   5.601   2.778   4.844 -1.0210 -2.7117  0.1378
 7675SOL    MW430468   5.517   2.798   4.857 -0.5370 -0.1297 -0.1028
 7676SOL     OW30469   5.730   0.971   2.070  0.1417  0.1828 -0.3483
 7676SOL    HW230470   5.720   1.035   1.999  0.0037  0.1963 -0.3166
 7676SOL    HW330471   5.800   0.913   2.040 -0.8801 -0.6701 -1.1167
 7676SOL    MW430472   5.738   0.972   2.057 -0.0113  0.0720 -0.4455
 7677SOL     OW30473   5.009   1.333   4.175  0.7763 -0.6960 -0.3597
 7677SOL    HW230474   5.042   1.404   4.231 -0.4806 -0.2453 -0.1460
 7677SOL    HW330475   4.973   1.378   4.098 -0.3500 -1.0466 -0.0622
 7677SOL    MW430476   5.009   1.348   4.172  0.4619 -0.6828 -0.2922
 7678SOL     OW30477   2.136   0.011   0.351 -0.0234 -0.1556  0.5114
 7678SOL    HW230478   2.220  -0.035   0.356  0.3200  0.4615  0.5212
 7678SOL    HW330479   2.098  -0.018   0.268  0.5139  0.0891  0.1742
 7678SOL    MW430480   2.142   0.001   0.341  0.0928 -0.0419  0.4682
 7679SOL     OW30481   0.896   3.545   2.615  0.3381 -0.3896  0.2963
 7679SOL    HW230482   0.841   3.492   2.672 -1.0432  1.0125  0.3480
 7679SOL    HW330483   0.851   3.630   2.611  2.5334  0.8627  0.3833
 7679SOL    MW430484   0.883   3.549   2.622  0.4455 -0.0394  0.3146
 7680SOL     OW30485   4.873   2.147   5.922  0.3713  0.4536 -0.1011
 7680SOL    HW230486   4.953   2.108   5.888 -0.1955 -0.3288 -0.5681
 7680SOL    HW330487   4.832   2.077   5.973 -0.1834  0.7341 -0.1558
 7680SOL    MW430488   4.878   2.133   5.925  0.2233  0.3874 -0.1699
 7681SOL     OW30489   5.674   4.590   5.030  0.0311  0.0276 -0.3351
 7681SOL    HW230490   5.648   4.598   5.122  0.0765  1.8890 -0.4551
 7681SOL    HW330491   5.703   4.678   5.005  0.0758 -0.4564 -2.1253
 7681SOL    MW430492   5.674   4.603   5.039  0.0430  0.2093 -0.5872
 7682SOL     OW30493   2.955   6.330   0.807 -0.6034 -0.4395 -0.3513
 7682SOL    HW230494   2.953   6.341   0.902 -0.9680 -0.6287 -0.3350
 7682SOL    HW330495   2.991   6.412   0.774 -2.7375  0.6385 -0.1950
 7682SOL    MW430496   2.959   6.342   0.815 -0.9331 -0.3222 -0.3286
 7683SOL     OW30497   3.608   3.612   4.625  0.2616 -0.0907  0.3653
 7683SOL    HW230498   3.564   3.693   4.598  1.1500  0.7477  1.3596
 7683SOL    HW330499   3.623   3.565   4.543  2.7102  2.2947 -0.7168
 7683SOL    MW430500   3.604   3.616   4.610  0.7019  0.3346  0.3537
 7684SOL     OW30501   3.562   4.028   4.801  0.0659  0.7671 -0.3337
 7684SOL    HW230502   3.512   4.043   4.881 -0.6669  0.7964 -0.7877
 7684SOL    HW330503   3.582   4.116   4.769 -0.5908  0.7609 -0.7637
 7684SOL    MW430504   3.558   4.042   4.807 -0.1174  0.7701 -0.4503
 7685SOL     OW30505   3.575   1.848   2.470  0.5956 -0.1305  0.2710
 7685SOL    HW230506   3.647   1.816   2.415 -0.0877  0.3396 -0.9265
 7685SOL    HW330507   3.547   1.929   2.429 -0.7190 -0.3810  0.6347
 7685SOL    MW430508   3.581   1.854   2.457  0.3320 -0.1015  0.1610
 7686SOL     OW30509   0.028   0.783   3.887  0.5941 -0.3374  0.0264
 7686SOL    HW230510   0.105   0.839   3.901  0.1192  0.6687 -1.1706
 7686SOL    HW330511   0.038   0.751   3.797 -1.1461  1.1164 -0.7473
 7686SOL    MW430512   0.040   0.786   3.877  0.3019 -0.0128 -0.2336
 7687SOL     OW30513   1.906   5.657   6.042 -0.0454  0.4763  0.0127
 7687SOL    HW230514   1.861   5.663   6.126 -0.1123 -0.4397  0.0491
 7687SOL    HW330515   1.848   5.701   5.980 -0.6707 -0.1060  0.1828
 7687SOL    MW430516   1.892   5.664   6.045 -0.1367  0.2786  0.0399
 7688SOL     OW30517   1.398   4.148   5.599 -0.0294  0.4899  0.0171
 7688SOL    HW230518   1.360   4.066   5.566 -1.1411  1.1654 -0.4446
 7688SOL    HW330519   1.481   4.156   5.553 -1.4723  1.3356 -2.6331
 7688SOL    MW430520   1.404   4.138   5.589 -0.3664  0.6906 -0.3935
 7689SOL     OW30521   0.668   4.129   2.396  0.1261  0.2511 -0.0372
 7689SOL    HW230522   0.636   4.124   2.486 -0.5673 -0.0555 -0.2965
 7689SOL    HW330523   0.759   4.100   2.402 -0.1866 -0.6704  0.4259
 7689SOL    MW430524   0.676   4.125   2.409 -0.0066  0.0891 -0.0103
 7690SOL     OW30525   2.946   4.730   6.181  0.1303 -0.6100  0.2358
 7690SOL    HW230526   3.027   4.757   6.138  1.4186 -1.4945  1.9775
 7690SOL    HW330527   2.901   4.677   6.116 -0.3340  1.8987 -1.6695
 7690SOL    MW430528   2.951   4.727   6.167  0.2390 -0.3957  0.2142
 7691SOL     OW30529   2.906   2.963   5.258 -0.7252 -0.1892 -0.1123
 7691SOL    HW230530   2.913   3.027   5.329 -0.7076 -0.1099 -0.1856
 7691SOL    HW330531   2.908   3.015   5.178 -4.6840  0.1277 -0.1903
 7691SOL    MW430532   2.907   2.978   5.257 -1.2452 -0.1369 -0.1323
 7692SOL     OW30533   3.335   5.390   5.866  0.0099 -0.0700 -0.3498
 7692SOL    HW230534   3.253   5.345   5.884  0.8326 -1.6350 -0.3736
 7692SOL    HW330535   3.310   5.482   5.857 -1.5997 -0.3894  0.5097
 7692SOL    MW430536   3.321   5.396   5.867 -0.0939 -0.3186 -0.2396
 7693SOL     OW30537   0.360   0.806   1.946 -0.5984  0.3077  0.3419
 7693SOL    HW230538   0.454   0.788   1.947 -0.6310  0.1679  1.0411
 7693SOL    HW330539   0.347   0.874   2.012 -0.7129  1.7777 -1.1262
 7693SOL    MW430540   0.371   0.812   1.955 -0.6178  0.4832  0.2405
 7694SOL     OW30541   6.196   0.820   3.447 -0.0557  0.0647 -0.1707
 7694SOL    HW230542   6.164   0.883   3.512  0.8708 -0.5205  0.8790
 7694SOL    HW330543   6.200   0.737   3.494  3.1187  0.1222 -0.1649
 7694SOL    MW430544   6.192   0.818   3.462  0.4854 -0.0049 -0.0315
 7695SOL     OW30545   2.477   5.246   4.552 -0.1201  0.1424 -0.4226
 7695SOL    HW230546   2.384   5.230   4.568  0.2930 -1.3567  0.6545
 7695SOL    HW330547   2.500   5.317   4.611 -0.3566 -0.2056  0.0981
 7695SOL    MW430548   2.468   5.253   4.562 -0.0968 -0.1013 -0.2118
 7696SOL     OW30549   4.007   4.951   1.558  0.0066 -0.7762 -0.1361
 7696SOL    HW230550   4.081   5.012   1.553 -0.6774 -0.0043 -1.5321
 7696SOL    HW330551   4.046   4.868   1.586  1.0091  0.1951  1.5012
 7696SOL    MW430552   4.022   4.948   1.561  0.0486 -0.5462 -0.1042
 7697SOL     OW30553   2.514   0.549  -0.026  0.4704  0.4981 -0.2896
 7697SOL    HW230554   2.521   0.543  -0.122 -2.5296  0.4516 -0.5751
 7697SOL    HW330555   2.454   0.479  -0.002  1.4911  0.2625  1.7232
 7697SOL    MW430556   2.507   0.539  -0.036  0.2092  0.4609 -0.0617
 7698SOL     OW30557   6.356   4.181   2.554 -0.0095 -0.3074 -0.0653
 7698SOL    HW230558   6.399   4.211   2.634 -0.3346  2.0067 -0.7036
 7698SOL    HW330559   6.400   4.227   2.483 -0.7371 -1.1510 -1.1105
 7698SOL    MW430560   6.367   4.191   2.555 -0.1484 -0.1134 -0.2874
 7699SOL     OW30561   0.559   4.088   3.539 -0.0060 -0.1570 -0.4214
 7699SOL    HW230562   0.568   3.992   3.541 -2.5424 -0.4747  0.9688
 7699SOL    HW330563   0.579   4.115   3.629  1.0536  0.6959 -0.9017
 7699SOL    MW430564   0.562   4.079   3.551 -0.2009 -0.0864 -0.3014
 7700SOL     OW30565   4.863   4.026   6.171 -0.0272  0.0683  0.1543
 7700SOL    HW230566   4.888   4.062   6.086 -1.2593 -0.0914 -0.2875
 7700SOL    HW330567   4.860   4.102   6.229  2.2716 -0.0036  0.4475
 7700SOL    MW430568   4.866   4.041   6.167  0.1136  0.0378  0.1347
 7701SOL     OW30569   1.634   3.652   1.578  0.0361  0.0345  0.0923
 7701SOL    HW230570   1.625   3.747   1.585 -1.7287 -0.0205 -0.9199
 7701SOL    HW330571   1.593   3.618   1.657 -0.1162  0.0878  0.0360
 7701SOL    MW430572   1.628   3.660   1.589 -0.2168  0.0343 -0.0487
 7702SOL     OW30573   3.331   3.391   1.178 -0.8418 -0.2256 -0.5320
 7702SOL    HW230574   3.293   3.319   1.227 -0.2339 -2.0509 -2.5596
 7702SOL    HW330575   3.281   3.468   1.204 -1.5010 -1.3515  1.7332
 7702SOL    MW430576   3.320   3.392   1.188 -0.8486 -0.6149 -0.5007
 7703SOL     OW30577   2.156   5.004   2.880 -0.3807 -0.2589 -0.4409
 7703SOL    HW230578   2.155   4.946   2.804 -0.1398 -0.1404 -0.5328
 7703SOL    HW330579   2.193   5.086   2.848 -0.8119 -0.0196 -0.3350
 7703SOL    MW430580   2.160   5.007   2.866 -0.4058 -0.2117 -0.4390
 7704SOL     OW30581   1.134   5.971   1.177  0.3741 -0.1459  0.0927
 7704SOL    HW230582   1.076   5.897   1.159  0.8843 -0.1064 -2.0226
 7704SOL    HW330583   1.221   5.940   1.153  0.6132  1.0680 -0.7096
 7704SOL    MW430584   1.138   5.957   1.171  0.4729  0.0195 -0.2923
 7705SOL     OW30585   2.410   6.079   6.339  0.1027  0.2690 -0.0951
 7705SOL    HW230586   2.371   6.116   6.259 -0.8824  1.6420  0.9855
 7705SOL    HW330587   2.338   6.072   6.400  0.6792 -1.5851  0.4479
 7705SOL    MW430588   2.396   6.083   6.336  0.0488  0.2055  0.1191
 7706SOL     OW30589   4.908   0.420   3.991 -0.3522 -0.1551  0.0448
 7706SOL    HW230590   4.840   0.372   4.038  0.2729  0.5626  1.7421
 7706SOL    HW330591   4.970   0.446   4.058  1.1124  0.0607 -1.3321
 7706SOL    MW430592   4.907   0.417   4.006 -0.0765 -0.0319  0.0870
 7707SOL     OW30593   1.121   1.340   5.654 -0.3975  0.0820 -0.3048
 7707SOL    HW230594   1.182   1.310   5.722  0.4854 -0.2318 -1.2048
 7707SOL    HW330595   1.150   1.429   5.635  0.0064 -0.1857 -0.9697
 7707SOL    MW430596   1.133   1.348   5.661 -0.2277  0.0053 -0.5113
 7708SOL     OW30597   5.237   6.358   4.653 -0.1431 -0.3499  0.5821
 7708SOL    HW230598   5.317   6.310   4.675 -0.9764 -1.8281  0.4715
 7708SOL    HW330599   5.174   6.291   4.629 -0.9064  0.8899 -1.1134
 7708SOL    MW430600   5.239   6.343   4.653 -0.3537 -0.3814  0.3438
 7709SOL     OW30601   5.198   2.610   5.579  0.2285  0.4581  0.0634
 7709SOL    HW230602   5.161   2.616   5.667 -1.0249  3.2176 -0.5547
 7709SOL    HW330603   5.149   2.540   5.537  0.8086 -0.8691  1.4739
 7709SOL    MW430604   5.187   2.601   5.585  0.1397  0.6471  0.1679
 7710SOL     OW30605   6.162   3.326   2.651 -0.4814  0.1807  0.5494
 7710SOL    HW230606   6.150   3.421   2.652 -0.0619  0.2379  2.2383
 7710SOL    HW330607   6.143   3.298   2.740  1.3431 -1.0723  0.5928
 7710SOL    MW430608   6.158   3.334   2.663 -0.1853  0.0230  0.7780
 7711SOL     OW30609   4.045   1.040   5.122 -0.0131  0.1617  0.4867
 7711SOL    HW230610   3.987   1.115   5.111 -2.2383 -1.2907  1.5357
 7711SOL    HW330611   4.077   1.047   5.212  2.5373  1.6002 -0.4377
 7711SOL    MW430612   4.042   1.051   5.133  0.0298  0.1599  0.5032
 7712SOL     OW30613   2.552   4.312   5.913 -0.3874 -0.6660 -0.4257
 7712SOL    HW230614   2.577   4.387   5.968  0.9333 -0.8034 -0.7958
 7712SOL    HW330615   2.487   4.347   5.853  1.3628  0.6604 -1.6557
 7712SOL    MW430616   2.547   4.327   5.913  0.0178 -0.5091 -0.6368
 7713SOL     OW30617   0.892   4.169   4.306  0.7710  0.1798  0.5646
 7713SOL    HW230618   0.953   4.105   4.270 -0.0372  0.4021 -1.2770
 7713SOL    HW330619   0.806   4.142   4.274 -0.0871  0.1958  2.6417
 7713SOL    MW430620   0.888   4.157   4.297  0.5512  0.2112  0.5957
 7714SOL     OW30621   0.992   0.795   1.258  0.0869  0.0270 -0.4446
 7714SOL    HW230622   0.975   0.708   1.221  0.6786  1.0910 -3.4949
 7714SOL    HW330623   0.907   0.839   1.258 -0.0821 -0.2600  0.4551
 7714SOL    MW430624   0.979   0.789   1.253  0.1426  0.1295 -0.7283
 7715SOL     OW30625   4.470   1.971   2.236 -0.2533 -0.4251 -0.1182
 7715SOL    HW230626   4.508   1.892   2.274  2.0000  0.6727  0.0346
 7715SOL    HW330627   4.522   1.989   2.158  0.4219  1.8307  0.7865
 7715SOL    MW430628   4.482   1.963   2.231  0.1331  0.0174  0.0213
 7716SOL     OW30629   0.998   5.945   3.832 -0.0517 -0.1152 -0.4970
 7716SOL    HW230630   1.022   5.868   3.885  0.0322  0.2185 -0.0395
 7716SOL    HW330631   1.044   5.932   3.749 -1.6584 -1.5728 -1.2235
 7716SOL    MW430632   1.008   5.933   3.828 -0.2526 -0.2635 -0.5325
 7717SOL     OW30633   6.048   4.172   5.276  0.3035  0.2484  0.6542
 7717SOL    HW230634   6.024   4.247   5.222 -1.3533 -0.2137  0.6880
 7717SOL    HW330635   6.039   4.203   5.366  0.4829  0.2594  0.6687
 7717SOL    MW430636   6.044   4.186   5.281  0.1086  0.1889  0.6606
 7718SOL     OW30637   0.332   1.819   5.657 -0.0985 -0.0005  0.8060
 7718SOL    HW230638   0.361   1.730   5.638 -2.0535 -1.1986  2.9099
 7718SOL    HW330639   0.411   1.872   5.652  1.0799 -1.7882 -0.7455
 7718SOL    MW430640   0.346   1.815   5.654 -0.2010 -0.3944  0.8789
 7719SOL     OW30641   1.333   2.025   0.624 -0.4190  0.1737  0.4376
 7719SOL    HW230642   1.383   1.990   0.551 -0.3924 -0.1642  0.6142
 7719SOL    HW330643   1.398   2.074   0.676 -0.6473  1.3061 -0.3173
 7719SOL    MW430644   1.348   2.027   0.621 -0.4456  0.2785  0.3613
 7720SOL     OW30645   3.328   3.777   1.163  0.2818 -0.1507 -0.1164
 7720SOL    HW230646   3.363   3.787   1.252 -1.0082  0.2859  0.3676
 7720SOL    HW330647   3.404   3.788   1.106  0.7419  2.3497  0.8163
 7720SOL    MW430648   3.343   3.780   1.167  0.1723  0.2368  0.0705
 7721SOL     OW30649   0.965   3.245   0.173  0.0000  1.0213  0.2559
 7721SOL    HW230650   0.946   3.292   0.254 -1.5835  0.1058  0.4628
 7721SOL    HW330651   1.022   3.304   0.124 -0.4892  2.3824  1.2515
 7721SOL    MW430652   0.970   3.259   0.177 -0.2735  1.0801  0.4145
 7722SOL     OW30653   2.175   0.512   2.127  0.3857 -0.3162 -0.0522
 7722SOL    HW230654   2.122   0.520   2.048  0.0703 -0.8201  0.1036
 7722SOL    HW330655   2.134   0.441   2.177 -0.7304  1.3693  1.5923
 7722SOL    MW430656   2.163   0.504   2.124  0.1968 -0.1603  0.1853
 7723SOL     OW30657   0.920   5.553   0.409  0.9008 -0.0728  0.3637
 7723SOL    HW230658   0.877   5.635   0.384 -1.0582 -0.1623  3.0176
 7723SOL    HW330659   0.940   5.564   0.502  1.1937 -2.3570  0.6268
 7723SOL    MW430660   0.917   5.565   0.418  0.6810 -0.3860  0.7486
 7724SOL     OW30661   3.961   4.095   3.786  0.1210  0.5952 -0.1272
 7724SOL    HW230662   3.897   4.087   3.857 -1.0990  0.2955 -1.2163
 7724SOL    HW330663   3.938   4.176   3.742  0.0538  0.1553 -0.9270
 7724SOL    MW430664   3.949   4.104   3.790 -0.0488  0.4976 -0.3764
 7725SOL     OW30665   0.322   2.233   3.572  0.1326  0.0945 -0.3158
 7725SOL    HW230666   0.326   2.294   3.498 -1.2854  0.3673 -0.1937
 7725SOL    HW330667   0.229   2.209   3.578  0.4296 -0.8861  0.6031
 7725SOL    MW430668   0.310   2.238   3.563 -0.0153  0.0011 -0.1785
 7726SOL     OW30669   4.389   1.449   3.416 -0.5121  0.5918 -0.0388
 7726SOL    HW230670   4.306   1.493   3.396 -0.2725  1.9075  1.6037
 7726SOL    HW330671   4.404   1.469   3.508  1.8566  0.7650 -0.4073
 7726SOL    MW430672   4.380   1.458   3.425 -0.1680  0.7882  0.1293
 7727SOL     OW30673   4.801   3.488   5.526  0.1723 -0.5138  0.1496
 7727SOL    HW230674   4.717   3.507   5.485 -0.8767  0.3108  2.5195
 7727SOL    HW330675   4.858   3.464   5.453 -1.8734 -0.3126 -1.6204
 7727SOL    MW430676   4.798   3.487   5.511 -0.2360 -0.3785  0.2287
 7728SOL     OW30677   5.888   4.052   2.326  0.1149 -0.2883  0.1938
 7728SOL    HW230678   5.868   4.064   2.234 -0.8637 -0.4366  0.3798
 7728SOL    HW330679   5.915   3.960   2.333  0.7966 -0.1145 -0.0376
 7728SOL    MW430680   5.889   4.042   2.315  0.0757 -0.2849  0.1878
 7729SOL     OW30681   6.373   5.500   3.463 -0.0461 -0.4152 -0.1200
 7729SOL    HW230682   6.354   5.434   3.396 -1.7987  0.1862 -0.2710
 7729SOL    HW330683   6.449   5.547   3.430 -1.0720  0.0831 -1.8727
 7729SOL    MW430684   6.380   5.497   3.450 -0.4127 -0.2701 -0.3712
 7730SOL     OW30685   2.345   0.288   5.296 -0.0878 -0.6927  0.2813
 7730SOL    HW230686   2.412   0.230   5.331 -0.5158 -1.6067 -0.3681
 7730SOL    HW330687   2.276   0.228   5.266 -0.3146  0.1310 -0.8686
 7730SOL    MW430688   2.345   0.272   5.297 -0.1742 -0.7046  0.0439
 7731SOL     OW30689   2.890   0.830   4.372  0.4771  0.3338 -0.0828
 7731SOL    HW230690   2.937   0.813   4.290  1.3005 -1.4173  0.7020
 7731SOL    HW330691   2.958   0.827   4.440 -0.2951  1.1058  0.7531
 7731SOL    MW430692   2.905   0.828   4.370  0.4839  0.2046  0.1310
 7732SOL     OW30693   4.366   5.525   5.298 -0.4759 -0.2953  0.3954
 7732SOL    HW230694   4.396   5.541   5.208 -0.0034 -0.6980  0.4811
 7732SOL    HW330695   4.417   5.585   5.352  1.7593 -2.3970  0.7943
 7732SOL    MW430696   4.376   5.535   5.293 -0.1186 -0.6257  0.4593
 7733SOL     OW30697   1.906   1.095   5.808 -0.1875 -0.4671 -0.0596
 7733SOL    HW230698   1.847   1.028   5.842 -0.4771 -0.1611  0.0402
 7733SOL    HW330699   1.989   1.079   5.853 -0.2953 -0.6769  0.0651
 7733SOL    MW430700   1.909   1.084   5.819 -0.2399 -0.4544 -0.0300
 7734SOL     OW30701   5.359   4.937   0.263 -0.4404 -0.0854 -0.2403
 7734SOL    HW230702   5.423   4.867   0.275 -0.1109  0.0651 -1.0666
 7734SOL    HW330703   5.329   4.957   0.352 -0.2625 -1.0115  0.0425
 7734SOL    MW430704   5.363   4.930   0.276 -0.3735 -0.1878 -0.3120
 7735SOL     OW30705   1.914   3.105   3.299  0.4885 -0.4032  0.2260
 7735SOL    HW230706   1.842   3.164   3.323 -0.2669 -0.7219 -1.1276
 7735SOL    HW330707   1.958   3.150   3.227  1.0496 -0.6572  0.4095
 7735SOL    MW430708   1.910   3.119   3.292  0.4629 -0.4788  0.0716
 7736SOL     OW30709   3.780   4.415   2.646 -0.0441 -0.9035  0.0939
 7736SOL    HW230710   3.860   4.442   2.600 -1.1630 -0.2099 -1.5575
 7736SOL    HW330711   3.782   4.462   2.729  0.3202  0.6603 -0.7742
 7736SOL    MW430712   3.791   4.424   2.651 -0.1436 -0.6057 -0.2385
 7737SOL     OW30713   1.739   6.403   1.278 -0.1133 -0.3491 -0.3030
 7737SOL    HW230714   1.757   6.365   1.364  1.4574 -2.1306 -1.3245
 7737SOL    HW330715   1.697   6.332   1.229 -3.0358  1.3206 -0.4221
 7737SOL    MW430716   1.736   6.388   1.283 -0.2917 -0.3638 -0.4535
 7738SOL     OW30717   3.438   0.830   4.119 -0.1619 -0.7316 -0.3895
 7738SOL    HW230718   3.479   0.837   4.206 -2.2068 -2.0416  0.7575
 7738SOL    HW330719   3.490   0.762   4.075  0.8048 -0.1694 -0.1591
 7738SOL    MW430720   3.451   0.822   4.125 -0.3042 -0.8303 -0.2078
 7739SOL     OW30721   4.465   2.134   0.600  0.3010 -0.1329 -0.0571
 7739SOL    HW230722   4.466   2.057   0.544 -1.1905  0.3184 -0.7657
 7739SOL    HW330723   4.556   2.164   0.600  0.7329 -1.3674 -0.4916
 7739SOL    MW430724   4.477   2.128   0.592  0.1612 -0.2362 -0.2079
 7740SOL     OW30725   1.590   6.334   5.520  0.1532 -0.1207 -0.3138
 7740SOL    HW230726   1.581   6.427   5.541 -0.3160  0.1289 -1.5198
 7740SOL    HW330727   1.639   6.332   5.438  2.5279 -1.0857  1.0449
 7740SOL    MW430728   1.595   6.346   5.512  0.4046 -0.2151 -0.2936
 7741SOL     OW30729   0.613   5.626   3.645 -0.4456  0.0759 -0.0143
 7741SOL    HW230730   0.678   5.562   3.615  0.3937  0.4928  0.8934
 7741SOL    HW330731   0.536   5.572   3.668  0.9023 -0.9052  2.6248
 7741SOL    MW430732   0.611   5.610   3.644 -0.1570  0.0015  0.4537
 7742SOL     OW30733   0.270   1.910   5.406 -0.1510  0.0506 -0.0239
 7742SOL    HW230734   0.185   1.954   5.398 -0.5368 -0.7031 -0.1431
 7742SOL    HW330735   0.274   1.884   5.498  0.8749  1.8944  0.5021
 7742SOL    MW430736   0.259   1.913   5.417 -0.0665  0.1944  0.0298
 7743SOL     OW30737   2.055   4.760   3.523  0.5676 -0.1520  0.6220
 7743SOL    HW230738   2.127   4.820   3.500  2.2556 -1.7388  1.5729
 7743SOL    HW330739   1.988   4.778   3.456  1.5797  1.7818  0.0398
 7743SOL    MW430740   2.056   4.770   3.511  0.9239 -0.1062  0.6706
 7744SOL     OW30741   0.965   0.353   3.411  0.6206  0.5404 -0.0043
 7744SOL    HW230742   1.060   0.360   3.403  0.6198 -0.1862 -0.9261
 7744SOL    HW330743   0.951   0.297   3.487  0.9175  0.9281  0.3370
 7744SOL    MW430744   0.976   0.346   3.420  0.6597  0.4957 -0.0809
 7745SOL     OW30745   6.301   3.105   3.896  0.0354 -0.8742  0.4639
 7745SOL    HW230746   6.208   3.114   3.873  0.2538 -0.4666 -0.2751
 7745SOL    HW330747   6.315   3.011   3.903 -0.2950 -0.9618  0.0054
 7745SOL    MW430748   6.291   3.094   3.894  0.0206 -0.8320  0.3059
 7746SOL     OW30749   5.349   2.189   2.338 -0.2116  0.1475 -0.0291
 7746SOL    HW230750   5.384   2.271   2.304 -1.8738  1.2529  0.7681
 7746SOL    HW330751   5.425   2.143   2.373  0.7842  1.2561 -0.6590
 7746SOL    MW430752   5.363   2.193   2.338 -0.2995  0.4396 -0.0071
 7747SOL     OW30753   4.975   3.157   6.289 -0.3022 -0.5484  0.4350
 7747SOL    HW230754   4.891   3.192   6.259  0.4764 -0.2392 -1.5323
 7747SOL    HW330755   4.951   3.082   6.344 -1.8610 -0.4267 -0.0158
 7747SOL    MW430756   4.960   3.152   6.292 -0.4051 -0.4915  0.1160
 7748SOL     OW30757   5.778   0.197   0.722 -0.0688  0.3619  0.6208
 7748SOL    HW230758   5.789   0.253   0.645 -0.4186 -0.9019 -0.3910
 7748SOL    HW330759   5.842   0.231   0.785 -0.7909  2.3544  0.3615
 7748SOL    MW430760   5.788   0.209   0.720 -0.2102  0.4581  0.4531
 7749SOL     OW30761   5.870   2.060   3.237  0.2029 -0.1258  0.6284
 7749SOL    HW230762   5.778   2.031   3.243 -0.2582  0.4448 -2.1192
 7749SOL    HW330763   5.921   1.979   3.245 -0.7046 -0.8070 -0.1711
 7749SOL    MW430764   5.864   2.045   3.239  0.0223 -0.1404  0.1604
 7750SOL     OW30765   1.515   4.316   0.846 -0.2456 -0.3870 -0.0149
 7750SOL    HW230766   1.595   4.360   0.816 -1.1096  0.0517 -1.8042
 7750SOL    HW330767   1.453   4.388   0.858 -1.0984 -0.9250 -1.0851
 7750SOL    MW430768   1.518   4.331   0.844 -0.4721 -0.4001 -0.3922
 7751SOL     OW30769   0.503   4.660   6.034 -0.0232  0.1236  0.2439
 7751SOL    HW230770   0.472   4.743   5.999 -1.0646 -1.0518 -1.8340
 7751SOL    HW330771   0.427   4.601   6.027  1.3226 -1.6108 -0.5975
 7751SOL    MW430772   0.489   4.663   6.029  0.0170 -0.2603 -0.1413
 7752SOL     OW30773   4.458   1.116   6.059  0.4022 -0.0252  0.3150
 7752SOL    HW230774   4.403   1.093   5.984 -0.5545  2.0946  0.2923
 7752SOL    HW330775   4.541   1.142   6.020  0.1680  0.3109  0.0286
 7752SOL    MW430776   4.462   1.116   6.044  0.2451  0.2988  0.2742
 7753SOL     OW30777   4.791   5.949   6.199 -0.1524 -0.1161  0.1746
 7753SOL    HW230778   4.803   5.902   6.281  0.8320  2.3830  1.5705
 7753SOL    HW330779   4.697   5.965   6.194 -0.1356  0.4169  1.2708
 7753SOL    MW430780   4.780   5.945   6.209 -0.0203  0.2839  0.5034
 7754SOL     OW30781   6.053   5.824   6.027  0.5639  0.1851 -0.2089
 7754SOL    HW230782   6.111   5.820   5.951 -0.3198  0.0893 -0.8984
 7754SOL    HW330783   6.100   5.777   6.095  0.8929 -0.7282 -1.0396
 7754SOL    MW430784   6.067   5.817   6.026  0.4907  0.0519 -0.4095
 7755SOL     OW30785   5.799   5.758   5.919 -0.0329  0.0862 -0.5243
 7755SOL    HW230786   5.882   5.764   5.967  0.5738 -0.0627 -1.5110
 7755SOL    HW330787   5.817   5.805   5.837 -1.2732  0.9833 -0.3001
 7755SOL    MW430788   5.813   5.765   5.914 -0.1165  0.1849 -0.6249
 7756SOL     OW30789   6.191   0.914   3.931 -0.6423  0.1389 -0.3822
 7756SOL    HW230790   6.284   0.893   3.938 -0.5656  0.3848 -0.6243
 7756SOL    HW330791   6.172   0.967   4.008 -0.7390 -0.4562  0.0114
 7756SOL    MW430792   6.201   0.918   3.942 -0.6449  0.0928 -0.3622
 7757SOL     OW30793   0.223   1.172   4.352  0.2763 -0.3696  0.5578
 7757SOL    HW230794   0.317   1.173   4.372  0.4851 -1.0856 -0.3140
 7757SOL    HW330795   0.215   1.111   4.278 -1.0538 -1.3929  1.5029
 7757SOL    MW430796   0.234   1.164   4.345  0.1284 -0.5991  0.5675
 7758SOL     OW30797   2.667   3.878   3.192  0.9703 -0.5327  0.0103
 7758SOL    HW230798   2.745   3.905   3.241  0.2529  1.3730  0.2089
 7758SOL    HW330799   2.668   3.935   3.115 -0.4184 -0.2265  0.2046
 7758SOL    MW430800   2.678   3.889   3.188  0.6924 -0.2409  0.0621
 7759SOL     OW30801   2.905   5.520   5.246  0.0810 -0.0912  0.2414
 7759SOL    HW230802   2.881   5.496   5.335 -0.9727 -0.2808 -0.0683
 7759SOL    HW330803   2.986   5.570   5.255  0.0267 -0.1668  1.2935
 7759SOL    MW430804   2.912   5.523   5.259 -0.0652 -0.1262  0.3394
 7760SOL     OW30805   5.490   0.574   4.456  0.2755 -0.7173  0.7103
 7760SOL    HW230806   5.465   0.482   4.451 -1.3363 -0.3560  1.4495
 7760SOL    HW330807   5.451   0.614   4.378  0.5916 -0.5718  0.6227
 7760SOL    MW430808   5.481   0.567   4.445  0.1045 -0.6504  0.7963
 7761SOL     OW30809   2.781   0.855   5.821  0.0573  0.0275 -0.4348
 7761SOL    HW230810   2.728   0.853   5.901  0.6916  2.0671  0.1056
 7761SOL    HW330811   2.718   0.868   5.750 -0.3244  0.5728  0.0012
 7761SOL    MW430812   2.766   0.857   5.822  0.0906  0.3686 -0.3060
 7762SOL     OW30813   1.512   1.499   5.162 -0.2474  0.4096 -0.2953
 7762SOL    HW230814   1.471   1.585   5.174  2.1216  1.5875 -0.2029
 7762SOL    HW330815   1.539   1.473   5.250 -0.6649 -0.3249 -0.3712
 7762SOL    MW430816   1.510   1.507   5.176  0.0101  0.4681 -0.2931
 7763SOL     OW30817   4.769   2.219   1.891  0.0068  0.5924 -0.2437
 7763SOL    HW230818   4.845   2.256   1.844  1.4035 -0.5361  1.0444
 7763SOL    HW330819   4.783   2.245   1.982  0.2925 -1.8521  0.4643
 7763SOL    MW430820   4.781   2.228   1.897  0.2288  0.1210  0.0197
 7764SOL     OW30821   3.928   0.933   3.500 -0.3474 -1.0326  0.2608
 7764SOL    HW230822   3.910   0.870   3.570  0.8924 -1.5115  0.1791
 7764SOL    HW330823   3.979   0.884   3.436 -1.5644 -0.6275 -1.0541
 7764SOL    MW430824   3.932   0.918   3.501 -0.3444 -1.0423  0.0766
 7765SOL     OW30825   2.299   3.269   4.135  0.2879 -0.1993 -0.2867
 7765SOL    HW230826   2.295   3.203   4.065  0.9261 -2.9376  2.0739
 7765SOL    HW330827   2.269   3.223   4.213 -1.6780  3.1027  1.1232
 7765SOL    MW430828   2.295   3.254   4.136  0.1127 -0.1250  0.2107
 7766SOL     OW30829   1.599   5.648   0.438 -0.2811  0.0815 -0.0708
 7766SOL    HW230830   1.586   5.679   0.349 -0.5657  0.1368 -0.0118
 7766SOL    HW330831   1.515   5.610   0.463 -0.6175  1.2193  0.6314
 7766SOL    MW430832   1.586   5.647   0.430 -0.3630  0.2389  0.0296
 7767SOL     OW30833   2.864   1.342   4.876 -0.3707 -0.1773  0.2705
 7767SOL    HW230834   2.934   1.287   4.839  0.1624  1.4404 -1.2272
 7767SOL    HW330835   2.910   1.404   4.932 -0.7075  0.2940  0.0299
 7767SOL    MW430836   2.879   1.343   4.879 -0.3448  0.0983  0.0411
 7768SOL     OW30837   1.923   4.396   5.438  0.0358 -0.0568  0.3304
 7768SOL    HW230838   1.838   4.363   5.465 -0.1408 -1.5283 -1.7732
 7768SOL    HW330839   1.979   4.319   5.433  0.5742  0.3928 -1.4210
 7768SOL    MW430840   1.919   4.382   5.441  0.0835 -0.1917 -0.1782
 7769SOL     OW30841   1.396   3.843   5.630 -0.0861  0.5229  0.3892
 7769SOL    HW230842   1.424   3.782   5.563  2.2670  0.3331  1.4212
 7769SOL    HW330843   1.373   3.788   5.705 -0.5340  0.8131  0.4713
 7769SOL    MW430844   1.397   3.828   5.631  0.1652  0.5362  0.5362
 7770SOL     OW30845   4.339   0.277   0.299 -0.2499  0.2438 -0.8470
 7770SOL    HW230846   4.397   0.210   0.262 -0.0624 -0.5906  0.8677
 7770SOL    HW330847   4.394   0.355   0.306 -0.7067  0.9441 -3.6894
 7770SOL    MW430848   4.354   0.278   0.295 -0.2854  0.2261 -0.9958
 7771SOL     OW30849   1.455   2.471   2.886 -0.0171 -0.1514 -0.1535
 7771SOL    HW230850   1.499   2.441   2.807 -0.4794 -0.6831 -0.2172
 7771SOL    HW330851   1.469   2.401   2.950 -0.9023 -0.4077 -0.2300
 7771SOL    MW430852   1.462   2.458   2.884 -0.1949 -0.2554 -0.1720
 7772SOL     OW30853   1.250   0.588   5.149  0.1753  0.1821  0.5159
 7772SOL    HW230854   1.166   0.615   5.187 -0.0972 -0.5013  0.4020
 7772SOL    HW330855   1.243   0.611   5.056 -0.1188 -0.4111  0.3873
 7772SOL    MW430856   1.238   0.595   5.142  0.1006  0.0137  0.4839
 7773SOL     OW30857   2.244   1.114   5.124  0.0161  0.7720  0.2044
 7773SOL    HW230858   2.235   1.019   5.136 -0.5144  0.5697 -1.4622
 7773SOL    HW330859   2.338   1.128   5.117  0.0981  0.3500  0.3976
 7773SOL    MW430860   2.255   1.103   5.125 -0.0431  0.6896  0.0100
 7774SOL     OW30861   5.637   0.408   3.274 -0.4718  0.6716  0.3663
 7774SOL    HW230862   5.719   0.363   3.257 -1.5895 -1.1952 -0.3417
 7774SOL    HW330863   5.629   0.472   3.203 -0.6674 -0.6882 -0.8903
 7774SOL    MW430864   5.646   0.411   3.263 -0.6451  0.2459  0.1071
 7775SOL     OW30865   5.609   2.591   3.952  0.3354 -0.2835 -0.1898
 7775SOL    HW230866   5.658   2.627   4.025  1.3908 -2.8205  0.4901
 7775SOL    HW330867   5.518   2.615   3.969  0.8909  1.5144  0.4278
 7775SOL    MW430868   5.603   2.599   3.963  0.5480 -0.3810 -0.0186
 7776SOL     OW30869   2.714   4.695   0.802  0.1221  0.4378 -0.3062
 7776SOL    HW230870   2.795   4.711   0.755  0.5374  0.1145  0.2842
 7776SOL    HW330871   2.737   4.631   0.869 -0.0732  2.0393  1.3657
 7776SOL    MW430872   2.728   4.689   0.805  0.1511  0.6065 -0.0077
 7777SOL     OW30873   2.633   5.247   2.446 -0.1952 -0.2333 -0.0240
 7777SOL    HW230874   2.706   5.307   2.431 -0.2429 -0.3595 -0.7625
 7777SOL    HW330875   2.674   5.161   2.454 -0.2401 -0.2725 -0.2103
 7777SOL    MW430876   2.648   5.243   2.445 -0.2074 -0.2552 -0.1460
 7778SOL     OW30877   4.485   0.949   0.749  0.0693 -0.2812  0.3428
 7778SOL    HW230878   4.409   0.891   0.746  0.0074 -0.2398  1.0206
 7778SOL    HW330879   4.507   0.955   0.842  0.1387  0.6944  0.2762
 7778SOL    MW430880   4.478   0.942   0.761  0.0703 -0.1470  0.4235
 7779SOL     OW30881   0.581   3.167   1.166 -0.0095  0.5793 -0.0151
 7779SOL    HW230882   0.671   3.189   1.188 -0.6170  1.1041  2.2625
 7779SOL    HW330883   0.563   3.216   1.086  1.4494  1.1674 -0.0106
 7779SOL    MW430884   0.590   3.177   1.159  0.1028  0.7262  0.2860
 7780SOL     OW30885   0.518   3.298   4.547  0.6390  0.8156  0.0802
 7780SOL    HW230886   0.464   3.366   4.506 -0.5269 -0.7193 -1.0526
 7780SOL    HW330887   0.559   3.254   4.474  0.7157 -0.2258  0.7365
 7780SOL    MW430888   0.516   3.301   4.532  0.4953  0.4757  0.0173
 7781SOL     OW30889   2.830   1.422   1.439 -0.8518 -0.5748  0.6643
 7781SOL    HW230890   2.878   1.347   1.403 -1.5358 -0.8416  0.2862
 7781SOL    HW330891   2.897   1.474   1.484  0.1717  0.1394 -1.5447
 7781SOL    MW430892   2.846   1.419   1.440 -0.8070 -0.5158  0.3230
 7782SOL     OW30893   4.177   5.322   5.677  0.1735  0.0198 -0.1152
 7782SOL    HW230894   4.137   5.240   5.702  0.5739  0.3983  1.9763
 7782SOL    HW330895   4.270   5.301   5.665  0.1790  0.0613 -0.1478
 7782SOL    MW430896   4.184   5.309   5.679  0.2271  0.0752  0.1564
 7783SOL     OW30897   2.517   3.362   4.293 -0.2417 -0.1035 -0.0714
 7783SOL    HW230898   2.427   3.377   4.265 -0.3146 -1.5531 -0.6904
 7783SOL    HW330899   2.570   3.378   4.215  0.0291  0.4386  0.2111
 7783SOL    MW430900   2.512   3.366   4.279 -0.2156 -0.2232 -0.1158
 7784SOL     OW30901   5.764   1.615   3.971 -0.4974  0.6592  0.7074
 7784SOL    HW230902   5.778   1.542   3.911 -0.2955  2.2201 -1.2602
 7784SOL    HW330903   5.832   1.604   4.038 -1.1494 -1.5066  1.0898
 7784SOL    MW430904   5.775   1.604   3.972 -0.5568  0.5794  0.4983
 7785SOL     OW30905   4.426   0.554   4.870 -0.2222 -0.2074  0.5309
 7785SOL    HW230906   4.429   0.650   4.864  0.1180 -0.1774  1.0817
 7785SOL    HW330907   4.389   0.526   4.786  0.8018  0.3377 -0.1275
 7785SOL    MW430908   4.421   0.563   4.858 -0.0422 -0.1315  0.5167
 7786SOL     OW30909   3.035   1.767   5.208 -0.0657  0.3279 -0.2282
 7786SOL    HW230910   2.991   1.826   5.146 -0.6798 -0.8516 -0.9538
 7786SOL    HW330911   3.051   1.821   5.285 -0.0598  1.6022 -1.0981
 7786SOL    MW430912   3.031   1.782   5.210 -0.1459  0.3404 -0.4387
 7787SOL     OW30913   3.872   3.610   5.067 -0.4390 -0.4690 -0.4817
 7787SOL    HW230914   3.952   3.578   5.025 -0.3451  1.5744 -1.9993
 7787SOL    HW330915   3.899   3.629   5.157  0.4080 -1.1170 -0.5826
 7787SOL    MW430916   3.886   3.608   5.073 -0.3148 -0.2849 -0.6952
 7788SOL     OW30917   0.128   0.471   2.590 -0.4283 -0.1147 -0.2650
 7788SOL    HW230918   0.059   0.533   2.566 -0.4469 -0.5475 -1.4081
 7788SOL    HW330919   0.202   0.496   2.534 -0.2451 -0.7574 -0.3142
 7788SOL    MW430920   0.129   0.482   2.579 -0.4066 -0.2566 -0.4223
 7789SOL     OW30921   2.308   3.052   3.397  0.2305  0.0828  0.0749
 7789SOL    HW230922   2.222   3.043   3.438  0.1293 -0.7909 -0.3131
 7789SOL    HW330923   2.327   3.146   3.402 -0.1596  0.1131  1.3437
 7789SOL    MW430924   2.299   3.063   3.403  0.1657 -0.0285  0.1911
 7790SOL     OW30925   5.554   4.717   0.297  0.4239  0.0487 -0.7794
 7790SOL    HW230926   5.543   4.632   0.256  0.1199  0.7369 -2.1900
 7790SOL    HW330927   5.552   4.699   0.391  1.1423 -1.5821 -1.0407
 7790SOL    MW430928   5.552   4.704   0.304  0.4786 -0.0757 -1.0000
 7791SOL     OW30929   4.288   3.164   5.325  0.0118  0.8594 -0.1562
 7791SOL    HW230930   4.220   3.097   5.329  0.0308  0.4566 -3.5899
 7791SOL    HW330931   4.367   3.120   5.357 -0.8389  0.7880  2.0869
 7791SOL    MW430932   4.289   3.150   5.330 -0.0979  0.7968 -0.3133
 7792SOL     OW30933   5.644   3.781   2.311 -0.0783  0.1322 -0.0121
 7792SOL    HW230934   5.601   3.799   2.228 -0.3136  1.5945  0.4105
 7792SOL    HW330935   5.587   3.821   2.377  1.4610  1.3426  0.6327
 7792SOL    MW430936   5.631   3.788   2.309  0.0938  0.4848  0.1288
 7793SOL     OW30937   1.550   0.246   5.956  0.1778 -0.0808  0.1426
 7793SOL    HW230938   1.507   0.161   5.951  1.1013 -0.5930  0.5787
 7793SOL    HW330939   1.488   0.302   6.003 -0.0213 -0.8114  0.7731
 7793SOL    MW430940   1.536   0.242   5.962  0.2733 -0.2447  0.2833
 7794SOL     OW30941   0.013   0.193   0.691 -0.0636  0.7327 -0.0294
 7794SOL    HW230942  -0.073   0.193   0.650  0.1011 -0.7921 -0.4461
 7794SOL    HW330943   0.020   0.278   0.734 -2.1463  0.5402  0.7866
 7794SOL    MW430944   0.003   0.204   0.691 -0.3167  0.5061  0.0232
 7795SOL     OW30945   3.382   1.693   1.155 -0.6094  0.8338  0.3830
 7795SOL    HW230946   3.330   1.762   1.113  0.0626  0.9229 -0.3120
 7795SOL    HW330947   3.325   1.616   1.152 -1.0852  1.1691  0.5224
 7795SOL    MW430948   3.367   1.692   1.149 -0.5835  0.8898  0.3097
 7796SOL     OW30949   3.251   4.692   2.032  0.5264 -0.2926 -0.2110
 7796SOL    HW230950   3.216   4.777   2.005  0.7061 -0.4464 -0.9653
 7796SOL    HW330951   3.191   4.660   2.099  0.4970  0.4585  0.1240
 7796SOL    MW430952   3.239   4.699   2.037  0.5462 -0.2138 -0.2663
 7797SOL     OW30953   5.753   5.255   5.837 -0.5170 -0.0415 -0.5809
 7797SOL    HW230954   5.680   5.204   5.873  0.8505 -0.8120  1.2924
 7797SOL    HW330955   5.796   5.195   5.775 -0.4096 -0.2774 -0.2857
 7797SOL    MW430956   5.749   5.240   5.834 -0.3224 -0.1743 -0.2948
 7798SOL     OW30957   3.121   2.213   2.863  0.0726 -0.4737 -0.0242
 7798SOL    HW230958   3.074   2.245   2.940 -0.2519 -2.2739  0.5852
 7798SOL    HW330959   3.213   2.215   2.889  0.1925  1.1145 -0.4705
 7798SOL    MW430960   3.127   2.217   2.877  0.0456 -0.5017 -0.0027
 7799SOL     OW30961   6.277   2.797   0.947 -0.0430 -0.2237  0.0376
 7799SOL    HW230962   6.310   2.887   0.952  1.0410 -0.5877 -0.3767
 7799SOL    HW330963   6.188   2.803   0.981  0.3982  0.8063  1.0886
 7799SOL    MW430964   6.269   2.810   0.952  0.1582 -0.1358  0.1216
 7800SOL     OW30965   0.171   0.056   4.730 -0.1357  0.0179  0.2308
 7800SOL    HW230966   0.166   0.147   4.759 -5.1585 -0.4474  1.8068
 7800SOL    HW330967   0.151   0.004   4.808 -0.4162 -2.2617 -1.2510
 7800SOL    MW430968   0.168   0.061   4.744 -0.8354 -0.3442  0.2432
 7801SOL     OW30969   1.196   4.572   1.756  0.1715 -0.4459  0.1411
 7801SOL    HW230970   1.291   4.573   1.745  0.2416  1.5997  0.4871
 7801SOL    HW330971   1.182   4.607   1.844 -0.9472  3.5411 -1.4078
 7801SOL    MW430972   1.207   4.577   1.766  0.0331  0.3501 -0.0176
 7802SOL     OW30973   0.597   0.573   1.784  0.1894  0.3607  0.0477
 7802SOL    HW230974   0.642   0.633   1.843  0.8190  0.8585 -0.9031
 7802SOL    HW330975   0.512   0.558   1.824  1.0775 -0.3698  1.7479
 7802SOL    MW430976   0.592   0.579   1.797  0.3897  0.3300  0.1466
 7803SOL     OW30977   0.288   4.261   3.187 -0.5954 -0.3163 -0.6047
 7803SOL    HW230978   0.377   4.227   3.186 -1.3325 -2.4250 -0.1771
 7803SOL    HW330979   0.244   4.213   3.117 -1.7277 -0.2919  0.0651
 7803SOL    MW430980   0.294   4.250   3.177 -0.8421 -0.5913 -0.4599
 7804SOL     OW30981   5.187   5.557   1.855 -0.8166 -0.2184  0.5081
 7804SOL    HW230982   5.206   5.649   1.875  0.3988  0.1211 -1.8142
 7804SOL    HW330983   5.266   5.510   1.882 -0.4564 -0.1981 -0.4555
 7804SOL    MW430984   5.200   5.563   1.861 -0.6087 -0.1709  0.0746
 7805SOL     OW30985   1.084   3.338   6.316 -0.0576  0.5215  0.0108
 7805SOL    HW230986   1.113   3.249   6.295 -2.5177 -0.2324 -0.6000
 7805SOL    HW330987   1.158   3.393   6.293  1.5559 -1.3505  0.4172
 7805SOL    MW430988   1.097   3.333   6.310 -0.1693  0.1751 -0.0162
 7806SOL     OW30989   4.939   1.564   3.122  0.7529 -0.2340  0.0931
 7806SOL    HW230990   4.958   1.630   3.056 -0.0643  0.4989  0.5800
 7806SOL    HW330991   4.992   1.590   3.197  0.4246 -0.1169  0.2875
 7806SOL    MW430992   4.949   1.576   3.123  0.6018 -0.1218  0.1830
 7807SOL     OW30993   2.898   1.578   3.837  0.1536 -0.1508  0.2449
 7807SOL    HW230994   2.939   1.519   3.901  0.9887 -1.7968 -1.7108
 7807SOL    HW330995   2.814   1.537   3.817 -0.1617  0.4254  0.3765
 7807SOL    MW430996   2.892   1.565   3.843  0.2222 -0.2919  0.0043
 7808SOL     OW30997   1.266   1.257   5.852 -0.1601  0.3989 -0.8090
 7808SOL    HW230998   1.352   1.229   5.821 -0.3816 -1.3664  0.0377
 7808SOL    HW330999   1.282   1.291   5.941 -0.1845  1.1776 -1.0929
 7808SOL    MW431000   1.279   1.258   5.860 -0.1925  0.2687 -0.7347
 7809SOL     OW31001   3.759   1.198   5.043 -0.0718 -0.2745 -0.0338
 7809SOL    HW231002   3.733   1.160   5.127 -3.8701  1.2747 -0.3239
 7809SOL    HW331003   3.713   1.144   4.978  2.1061 -0.8975 -1.1566
 7809SOL    MW431004   3.749   1.186   5.045 -0.2856 -0.1523 -0.2202
 7810SOL     OW31005   2.734   2.181   3.033 -0.2989  0.0019  0.1840
 7810SOL    HW231006   2.646   2.175   2.997 -0.0870 -0.7350 -0.2162
 7810SOL    HW331007   2.768   2.092   3.032  0.4315  0.2635  0.3884
 7810SOL    MW431008   2.727   2.169   3.028 -0.1746 -0.0608  0.1582
 7811SOL     OW31009   5.249   3.626   2.189 -0.1602  0.2108 -0.2019
 7811SOL    HW231010   5.342   3.615   2.211  0.2756  0.6071 -1.6802
 7811SOL    HW331011   5.206   3.549   2.226  0.7806 -0.0472  0.3956
 7811SOL    MW431012   5.256   3.614   2.197  0.0214  0.2291 -0.3181
 7812SOL     OW31013   0.605   5.396   5.847  0.6434  0.2200 -0.3403
 7812SOL    HW231014   0.632   5.410   5.757 -0.5584  0.0134 -0.7429
 7812SOL    HW331015   0.585   5.303   5.852  1.2088  0.1235  0.2874
 7812SOL    MW431016   0.606   5.386   5.836  0.5594  0.1800 -0.3106
 7813SOL     OW31017   6.200   5.049   5.700 -0.8907  0.2752  0.0101
 7813SOL    HW231018   6.217   5.139   5.728 -0.8378  0.4450 -0.5431
 7813SOL    HW331019   6.237   4.994   5.769 -1.5648  0.6780  0.7152
 7813SOL    MW431020   6.207   5.054   5.712 -0.9727  0.3507  0.0301
 7814SOL     OW31021   6.331   1.838   2.725  0.8080 -0.0081  0.2342
 7814SOL    HW231022   6.322   1.784   2.646  0.3390 -0.1858  0.4081
 7814SOL    HW331023   6.253   1.817   2.777  0.3388  1.2151  0.0655
 7814SOL    MW431024   6.319   1.828   2.721  0.6842  0.1298  0.2349
 7815SOL     OW31025   0.851   4.245   0.470  0.1348 -0.2534  0.2986
 7815SOL    HW231026   0.891   4.326   0.502  3.4245 -2.3611  2.1547
 7815SOL    HW331027   0.794   4.216   0.542 -0.4003 -0.0337 -0.0279
 7815SOL    MW431028   0.849   4.252   0.484  0.4982 -0.5025  0.5004
 7816SOL     OW31029   2.641   2.508   0.179  0.0570 -0.2182 -0.5416
 7816SOL    HW231030   2.623   2.570   0.108 -1.7613  0.5694  0.5194
 7816SOL    HW331031   2.652   2.564   0.257 -0.0529 -1.1490  0.1554
 7816SOL    MW431032   2.640   2.524   0.180 -0.1974 -0.2371 -0.3097
 7817SOL     OW31033   2.199   2.232   1.911 -0.2387 -0.5568  0.4188
 7817SOL    HW231034   2.185   2.187   1.995 -2.0385 -0.8242  0.0052
 7817SOL    HW331035   2.186   2.164   1.845 -1.2897  0.1771 -0.1511
 7817SOL    MW431036   2.196   2.217   1.914 -0.6148 -0.4952  0.2890
 7818SOL     OW31037   2.577   5.931   2.641 -0.2635 -0.0600  0.2853
 7818SOL    HW231038   2.579   6.024   2.622 -1.9789  0.6123  2.8380
 7818SOL    HW331039   2.498   5.899   2.597  0.2131 -0.2981 -0.4183
 7818SOL    MW431040   2.567   5.939   2.632 -0.4269 -0.0027  0.5293
 7819SOL     OW31041   0.419   2.863   1.733  0.0990  0.2695 -0.6160
 7819SOL    HW231042   0.359   2.792   1.754 -0.6437  0.5916 -1.5479
 7819SOL    HW331043   0.363   2.940   1.727  0.7650  0.7735 -0.4811
 7819SOL    MW431044   0.404   2.864   1.735  0.0889  0.3785 -0.7212
 7820SOL     OW31045   2.695   0.566   0.203  0.3946 -0.1735  0.2184
 7820SOL    HW231046   2.623   0.567   0.140 -0.5551 -0.2322  1.2654
 7820SOL    HW331047   2.751   0.640   0.178 -1.2693  1.3322  0.7563
 7820SOL    MW431048   2.693   0.576   0.191  0.0497  0.0174  0.4275
 7821SOL     OW31049   1.461   2.326   1.778 -0.6307 -0.4485  0.4762
 7821SOL    HW231050   1.378   2.338   1.732  1.0725  1.0727 -2.5422
 7821SOL    HW331051   1.507   2.409   1.767  0.7569 -0.7295  3.3293
 7821SOL    MW431052   1.456   2.338   1.770 -0.2229 -0.2849  0.4544
 7822SOL     OW31053   5.836   0.086   4.459  0.4481 -0.3581  0.2588
 7822SOL    HW231054   5.910   0.089   4.518 -0.9424 -0.4019  2.0915
 7822SOL    HW331055   5.830   0.174   4.422  0.7573 -0.0564  0.9218
 7822SOL    MW431056   5.845   0.098   4.462  0.3055 -0.3241  0.5881
 7823SOL     OW31057   1.371   5.485   0.277 -0.0432 -0.0709 -0.8651
 7823SOL    HW231058   1.391   5.488   0.183  2.3306 -2.0271 -0.5200
 7823SOL    HW331059   1.302   5.550   0.289  0.5660  1.2467 -3.7243
 7823SOL    MW431060   1.365   5.494   0.266  0.3504 -0.1552 -1.1968
 7824SOL     OW31061   3.809   3.923   4.916  0.3064  0.0401 -0.0657
 7824SOL    HW231062   3.740   3.969   4.868  0.7444  0.6350 -0.1385
 7824SOL    HW331063   3.773   3.912   5.004 -1.0882 -2.3522 -0.8510
 7824SOL    MW431064   3.795   3.928   4.921  0.1802 -0.1970 -0.1789
 7825SOL     OW31065   0.805   5.357   5.092  0.1520 -0.0094  0.3268
 7825SOL    HW231066   0.894   5.322   5.098  0.7581  0.5456 -3.1998
 7825SOL    HW331067   0.749   5.279   5.094  1.1948 -1.0202 -3.0179
 7825SOL    MW431068   0.809   5.342   5.093  0.3696 -0.0696 -0.5798
 7826SOL     OW31069   5.059   4.814   3.684 -0.0008  0.0380  0.6348
 7826SOL    HW231070   5.141   4.860   3.701  1.0887 -1.9330  1.1564
 7826SOL    HW331071   5.014   4.812   3.768 -0.0184  0.1181  0.6267
 7826SOL    MW431072   5.064   4.820   3.697  0.1406 -0.2115  0.7025
 7827SOL     OW31073   6.285   2.822   1.964  0.1755 -0.3052 -0.0255
 7827SOL    HW231074   6.318   2.905   1.931  0.1417 -0.4860 -0.5335
 7827SOL    HW331075   6.318   2.756   1.902  1.3530 -0.8412  1.1438
 7827SOL    MW431076   6.294   2.824   1.951  0.3264 -0.3998  0.0617
 7828SOL     OW31077   1.029   6.063   6.139 -0.1290  0.1431 -0.7784
 7828SOL    HW231078   0.947   6.026   6.173 -0.1924 -2.1004 -3.0139
 7828SOL    HW331079   1.076   6.095   6.216 -0.6245 -3.7066  1.3550
 7828SOL    MW431080   1.024   6.062   6.154 -0.2027 -0.6609 -0.7918
 7829SOL     OW31081   1.102   2.684   0.402  0.3829  0.0699  0.2925
 7829SOL    HW231082   1.058   2.749   0.347  0.3736  1.2816  1.6767
 7829SOL    HW331083   1.030   2.630   0.436  0.3837 -0.6504 -0.7955
 7829SOL    MW431084   1.087   2.685   0.399  0.3818  0.1347  0.3316
 7830SOL     OW31085   0.341   5.506   3.272  0.3145  0.8620 -0.2101
 7830SOL    HW231086   0.299   5.449   3.337  1.0095  0.6045  0.0210
 7830SOL    HW331087   0.427   5.524   3.309  1.3735 -0.6422 -1.7980
 7830SOL    MW431088   0.347   5.501   3.286  0.5459  0.6296 -0.3891
 7831SOL     OW31089   4.358   3.225   1.861 -0.2986 -0.2412  0.7693
 7831SOL    HW231090   4.422   3.249   1.927 -0.1163 -0.6288  0.7316
 7831SOL    HW331091   4.386   3.271   1.782  0.3216 -0.9490  0.5710
 7831SOL    MW431092   4.370   3.234   1.860 -0.1927 -0.3858  0.7381
 7832SOL     OW31093   5.526   2.356   0.587 -0.1287  0.0725  0.0420
 7832SOL    HW231094   5.433   2.342   0.569 -0.2705 -2.4881  2.2222
 7832SOL    HW331095   5.556   2.274   0.625  3.2136  0.6107 -1.1169
 7832SOL    MW431096   5.518   2.344   0.590  0.2936 -0.1943  0.1767
 7833SOL     OW31097   1.476   3.623   1.352 -0.0821 -0.2980 -0.3212
 7833SOL    HW231098   1.423   3.548   1.380 -0.5615 -0.3672 -1.3520
 7833SOL    HW331099   1.538   3.638   1.423  0.5744 -2.2011 -0.4573
 7833SOL    MW431100   1.477   3.615   1.365 -0.0587 -0.5582 -0.4751
 7834SOL     OW31101   4.968   3.895   3.852 -0.3654  0.8804  0.3042
 7834SOL    HW231102   4.911   3.854   3.917 -1.2400  1.3241 -0.1696
 7834SOL    HW331103   4.923   3.881   3.769  0.7304  0.3372 -0.2204
 7834SOL    MW431104   4.955   3.887   3.850 -0.3362  0.8673  0.1724
 7835SOL     OW31105   4.599   3.137   4.805 -0.2334  0.2138 -0.7200
 7835SOL    HW231106   4.674   3.079   4.815  1.1569  2.0191 -0.2515
 7835SOL    HW331107   4.537   3.108   4.872  0.3862 -0.7585 -0.5472
 7835SOL    MW431108   4.601   3.125   4.815  0.0318  0.3237 -0.6354
 7836SOL     OW31109   2.064   2.463   3.138  0.2468 -0.1715  0.4081
 7836SOL    HW231110   2.025   2.524   3.200 -1.9342 -0.6990 -0.3711
 7836SOL    HW331111   2.114   2.402   3.192  1.4828  1.5476  1.2908
 7836SOL    MW431112   2.066   2.463   3.153  0.1221 -0.0143  0.4217
 7837SOL     OW31113   6.104   6.254   0.723  0.0504  0.6478  0.1034
 7837SOL    HW231114   6.019   6.297   0.731 -1.0701 -0.8992 -2.3668
 7837SOL    HW331115   6.104   6.217   0.635  2.4736 -1.1550  0.7548
 7837SOL    MW431116   6.093   6.255   0.712  0.2223  0.2058 -0.1366
 7838SOL     OW31117   3.261   1.563   5.554  0.2545 -0.4071  0.5239
 7838SOL    HW231118   3.170   1.556   5.523  0.7428  0.3677 -1.2013
 7838SOL    HW331119   3.314   1.559   5.475  1.6394  0.8377  1.3355
 7838SOL    MW431120   3.256   1.562   5.540  0.5017 -0.1407  0.4034
 7839SOL     OW31121   1.159   2.877   2.334 -0.0877  0.0838 -0.1736
 7839SOL    HW231122   1.147   2.816   2.261 -1.5967 -2.2020  1.8186
 7839SOL    HW331123   1.253   2.896   2.335  0.1038 -0.5483 -2.0872
 7839SOL    MW431124   1.169   2.872   2.324 -0.2615 -0.3012 -0.1632
 7840SOL     OW31125   5.660   0.918   3.031  0.4128 -0.0756 -0.2151
 7840SOL    HW231126   5.636   0.826   3.033 -0.0834 -0.0144 -1.8145
 7840SOL    HW331127   5.752   0.919   3.006  0.7343 -0.1471  0.8991
 7840SOL    MW431128   5.669   0.906   3.028  0.3897 -0.0769 -0.2791
 7841SOL     OW31129   5.178   4.474   0.006 -0.3033  0.2695 -0.4613
 7841SOL    HW231130   5.231   4.475  -0.074 -0.0390  1.7668 -0.2818
 7841SOL    HW331131   5.181   4.564   0.039  0.0162 -0.4162  1.5267
 7841SOL    MW431132   5.185   4.486  -0.000 -0.2263  0.3766 -0.1753
 7842SOL     OW31133   0.288   1.787   1.637 -0.1232 -0.8034  0.9720
 7842SOL    HW231134   0.199   1.756   1.622  0.0782 -0.6982 -0.5542
 7842SOL    HW331135   0.343   1.730   1.584  0.5909 -0.0752  0.9104
 7842SOL    MW431136   0.284   1.775   1.628 -0.0024 -0.6935  0.7625
 7843SOL     OW31137   1.759   0.048   2.447 -0.1516 -0.1331  0.2863
 7843SOL    HW231138   1.794   0.061   2.360  2.2802 -1.7773  0.9210
 7843SOL    HW331139   1.806   0.110   2.502 -0.4175 -0.2852  0.6909
 7843SOL    MW431140   1.769   0.058   2.443  0.1342 -0.3701  0.4234
 7844SOL     OW31141   5.770   5.439   0.023  0.3167  0.5433  0.2089
 7844SOL    HW231142   5.782   5.531   0.042  2.4270  0.3420  0.0259
 7844SOL    HW331143   5.771   5.434  -0.073  1.7396  0.1904  0.2189
 7844SOL    MW431144   5.771   5.450   0.013  0.7829  0.4702  0.1861
 7845SOL     OW31145   5.629   2.019   5.778  0.2052 -0.4469  0.0559
 7845SOL    HW231146   5.695   2.084   5.753 -0.0087  0.1954  1.1169
 7845SOL    HW331147   5.680   1.941   5.800  0.5529 -0.2279  0.0413
 7845SOL    MW431148   5.645   2.018   5.777  0.2228 -0.3333  0.1940
 7846SOL     OW31149   2.541   5.906   5.770  0.5052 -0.3475 -0.5726
 7846SOL    HW231150   2.504   5.856   5.697 -0.2456 -1.0092  0.2313
 7846SOL    HW331151   2.566   5.839   5.834 -0.7494  0.2912  0.6429
 7846SOL    MW431152   2.540   5.890   5.769  0.2406 -0.3505 -0.3062
 7847SOL     OW31153   4.362   5.854   1.749 -0.3124 -0.1742 -0.0722
 7847SOL    HW231154   4.408   5.804   1.681 -0.5823 -0.8790  0.2531
 7847SOL    HW331155   4.356   5.794   1.823  0.4030  0.7510  0.7538
 7847SOL    MW431156   4.367   5.840   1.750 -0.2536 -0.1451  0.0797
 7848SOL     OW31157   0.215   3.627   3.515 -0.0323  0.3035 -0.2221
 7848SOL    HW231158   0.256   3.687   3.451  1.1802  0.7619  0.9385
 7848SOL    HW331159   0.128   3.610   3.479  0.9649 -0.3403 -2.5764
 7848SOL    MW431160   0.209   3.633   3.502  0.2592  0.2791 -0.3796
 7849SOL     OW31161   5.176   0.749   5.629 -0.5473 -0.6731 -0.3313
 7849SOL    HW231162   5.135   0.668   5.660 -1.4094  0.3114  1.2126
 7849SOL    HW331163   5.174   0.807   5.705  1.5875  0.2436 -0.9199
 7849SOL    MW431164   5.170   0.746   5.643 -0.3794 -0.4223 -0.2053
 7850SOL     OW31165   6.175   2.894   1.634  0.0320 -0.4189 -0.5716
 7850SOL    HW231166   6.237   2.965   1.619  3.2047 -2.2869  2.2617
 7850SOL    HW331167   6.114   2.929   1.698  1.1723  0.0020  0.3175
 7850SOL    MW431168   6.175   2.908   1.640  0.6011 -0.6098 -0.0805
 7851SOL     OW31169   5.605   1.685   3.270 -0.1218  0.1184  0.5078
 7851SOL    HW231170   5.686   1.635   3.284 -0.2475  0.2043  1.6678
 7851SOL    HW331171   5.581   1.666   3.180  0.2039 -1.3882  0.6959
 7851SOL    MW431172   5.613   1.676   3.260 -0.0954 -0.0690  0.6856
 7852SOL     OW31173   3.460   3.613   4.859 -0.1065 -0.6232 -0.1309
 7852SOL    HW231174   3.405   3.535   4.865  0.0928 -0.6917  1.0100
 7852SOL    HW331175   3.515   3.597   4.783 -0.1704 -1.5386 -0.0055
 7852SOL    MW431176   3.460   3.600   4.850 -0.0886 -0.7530  0.0362
 7853SOL     OW31177   4.997   1.082   3.765 -0.2775 -0.2620  0.1519
 7853SOL    HW231178   5.047   1.107   3.687  0.0144  2.2119  1.0333
 7853SOL    HW331179   5.027   1.142   3.833 -3.2293  0.2647  1.1605
 7853SOL    MW431180   5.007   1.093   3.764 -0.6285  0.1338  0.4013
 7854SOL     OW31181   1.005   6.003   1.796  0.1247 -0.1352 -0.5344
 7854SOL    HW231182   1.029   6.070   1.732 -1.0867 -1.1912 -2.1739
 7854SOL    HW331183   0.930   6.039   1.843  0.4956  0.3010 -0.2680
 7854SOL    MW431184   0.999   6.016   1.794  0.0138 -0.2169 -0.7156
 7855SOL     OW31185   4.072   2.106   5.457 -0.2830 -0.2254 -0.2025
 7855SOL    HW231186   4.130   2.066   5.392 -0.3095  1.4453 -1.3475
 7855SOL    HW331187   4.131   2.155   5.514 -0.4013 -0.1716 -0.1273
 7855SOL    MW431188   4.088   2.107   5.456 -0.3021  0.0021 -0.3436
 7856SOL     OW31189   5.350   4.450   6.195 -0.2743  0.0660 -0.1278
 7856SOL    HW231190   5.374   4.360   6.174 -2.2443 -0.1662 -1.7126
 7856SOL    HW331191   5.401   4.503   6.132 -0.3024 -0.0565 -0.2541
 7856SOL    MW431192   5.360   4.445   6.184 -0.5379  0.0192 -0.3536
 7857SOL     OW31193   0.453   5.081   1.663  0.5248  0.4249 -0.1607
 7857SOL    HW231194   0.434   5.131   1.584  0.7671 -0.0154 -0.5028
 7857SOL    HW331195   0.529   5.126   1.702 -0.3640  1.4051  0.5170
 7857SOL    MW431196   0.461   5.094   1.658  0.4395  0.4961 -0.1164
 7858SOL     OW31197   4.651   1.352   5.584 -0.5956 -0.6344  0.6863
 7858SOL    HW231198   4.617   1.269   5.554 -0.7285 -0.3419  0.0183
 7858SOL    HW331199   4.682   1.396   5.505  0.7709 -0.6321  1.1905
 7858SOL    MW431200   4.651   1.347   5.570 -0.4328 -0.5955  0.6647
 7859SOL     OW31201   3.599   1.616   2.047 -0.0397 -0.0813  0.2278
 7859SOL    HW231202   3.643   1.666   2.116 -1.8098  1.3772  0.4104
 7859SOL    HW331203   3.630   1.655   1.966  0.0201  0.0366  0.3061
 7859SOL    MW431204   3.609   1.628   2.046 -0.2654  0.1267  0.2622
 7860SOL     OW31205   6.322   0.766   0.658 -0.3909 -0.2113 -0.3665
 7860SOL    HW231206   6.264   0.723   0.595  0.3875 -0.2091 -1.1133
 7860SOL    HW331207   6.364   0.836   0.607  1.0083 -0.8481 -0.1343
 7860SOL    MW431208   6.320   0.770   0.643 -0.1036 -0.2950 -0.4344
 7861SOL     OW31209   0.444   4.546   2.679 -0.9442 -0.1241  0.0558
 7861SOL    HW231210   0.372   4.487   2.654 -1.0473  0.4750 -1.1240
 7861SOL    HW331211   0.400   4.626   2.708 -0.7993 -0.5376  1.5130
 7861SOL    MW431212   0.428   4.549   2.680 -0.9387 -0.0996  0.0924
 7862SOL     OW31213   3.438   4.523   2.408 -0.0778 -0.5612  0.2745
 7862SOL    HW231214   3.362   4.581   2.415  0.0152 -0.4144  0.0604
 7862SOL    HW331215   3.400   4.437   2.390 -0.3960 -1.0956  2.9824
 7862SOL    MW431216   3.423   4.519   2.407 -0.1075 -0.6123  0.6036
 7863SOL     OW31217   3.945   3.013   1.165  0.2946  0.2649  0.3015
 7863SOL    HW231218   3.946   2.953   1.239 -0.8826 -0.3529 -0.1599
 7863SOL    HW331219   3.904   2.963   1.094 -0.5313  1.5468 -0.1481
 7863SOL    MW431220   3.940   2.998   1.165  0.0303  0.3525  0.1813
 7864SOL     OW31221   4.867   1.758   3.386 -0.5684  0.2747 -0.0611
 7864SOL    HW231222   4.820   1.776   3.304 -0.2705  1.1600 -0.0476
 7864SOL    HW331223   4.959   1.771   3.363 -0.0127 -3.7372 -0.7206
 7864SOL    MW431224   4.873   1.762   3.372 -0.4558 -0.1378 -0.1463
 7865SOL     OW31225   3.630   3.808   0.554  0.1458  0.4688 -0.0189
 7865SOL    HW231226   3.718   3.796   0.589  0.8312 -0.3068 -1.8493
 7865SOL    HW331227   3.581   3.733   0.588  0.1149  1.0001  1.1526
 7865SOL    MW431228   3.635   3.796   0.563  0.2322  0.4366 -0.1058
 7866SOL     OW31229   1.956   5.639   0.148  0.6376  0.3789  0.3097
 7866SOL    HW231230   1.915   5.604   0.227  0.5094  0.3011  0.2086
 7866SOL    HW331231   2.050   5.633   0.165  0.6839 -1.6197 -0.3852
 7866SOL    MW431232   1.963   5.634   0.161  0.6268  0.1050  0.2047
 7867SOL     OW31233   2.690   3.728   5.620 -0.6217 -0.4498 -0.0794
 7867SOL    HW231234   2.734   3.647   5.646  1.5671  0.5859 -0.3288
 7867SOL    HW331235   2.757   3.778   5.574 -1.7725  1.7133  0.4643
 7867SOL    MW431236   2.705   3.724   5.617 -0.4847 -0.0277 -0.0406
 7868SOL     OW31237   1.532   4.190   4.099  0.1036  0.0816  0.2538
 7868SOL    HW231238   1.504   4.104   4.068  2.5637 -0.0803 -1.8175
 7868SOL    HW331239   1.588   4.172   4.174  2.2894 -0.3804 -1.4021
 7868SOL    MW431240   1.536   4.176   4.105  0.7165 -0.0007 -0.2380
 7869SOL     OW31241   2.492   0.285   5.035 -0.1248 -0.4069 -0.0748
 7869SOL    HW231242   2.583   0.254   5.037  0.7333  1.8944  2.2776
 7869SOL    HW331243   2.451   0.243   5.111  0.0250  1.1922  0.9435
 7869SOL    MW431244   2.498   0.275   5.046  0.0082  0.1077  0.3700
 7870SOL     OW31245   2.401   4.628  -0.039 -0.2353 -0.2722  0.5820
 7870SOL    HW231246   2.334   4.695  -0.029  0.8290  1.2503 -1.4906
 7870SOL    HW331247   2.458   4.640   0.037 -0.3594  0.8504  0.5217
 7870SOL    MW431248   2.400   4.638  -0.028 -0.1112  0.0768  0.3006
 7871SOL     OW31249   4.479   3.628   4.957 -0.4320 -0.3393 -0.1742
 7871SOL    HW231250   4.562   3.674   4.952  0.6366 -2.3398 -1.9680
 7871SOL    HW331251   4.414   3.694   4.932  0.5993  1.1011  0.7298
 7871SOL    MW431252   4.481   3.643   4.953 -0.1550 -0.4132 -0.2916
 7872SOL     OW31253   6.298   5.939   1.969  0.1304 -0.1280 -0.2467
 7872SOL    HW231254   6.327   6.030   1.974  0.5835 -0.2948  0.1808
 7872SOL    HW331255   6.312   5.904   2.057  0.2139 -0.6883 -0.4789
 7872SOL    MW431256   6.303   5.946   1.981  0.2012 -0.2240 -0.2209
 7873SOL     OW31257   1.690   1.125   1.107  0.2212  0.1229 -0.0120
 7873SOL    HW231258   1.624   1.056   1.105 -0.0976  0.4070  0.3525
 7873SOL    HW331259   1.642   1.205   1.085  0.5086  0.2825 -0.0637
 7873SOL    MW431260   1.675   1.127   1.104  0.2171  0.1814  0.0293
 7874SOL     OW31261   5.063   3.040   5.661 -0.4005 -0.3644 -0.5250
 7874SOL    HW231262   4.971   3.013   5.653 -0.7856  1.1939 -1.7212
 7874SOL    HW331263   5.093   3.051   5.571  1.6217 -2.7769 -0.2553
 7874SOL    MW431264   5.055   3.038   5.648 -0.1845 -0.4771 -0.6472
 7875SOL     OW31265   5.014   2.605   3.743  0.1073 -0.0618  0.2392
 7875SOL    HW231266   5.088   2.580   3.687 -0.4252  0.3152 -0.6540
 7875SOL    HW331267   4.957   2.656   3.686 -0.0947  0.9810  1.3321
 7875SOL    MW431268   5.017   2.609   3.728  0.0104  0.1255  0.2655
 7876SOL     OW31269   0.877   3.685   4.847 -0.1220 -0.3165 -0.6564
 7876SOL    HW231270   0.803   3.726   4.893  1.2112  0.9900  0.4497
 7876SOL    HW331271   0.837   3.638   4.774 -1.9761  1.0375 -0.5953
 7876SOL    MW431272   0.862   3.685   4.844 -0.1907  0.0345 -0.5024
 7877SOL     OW31273   1.101   1.534   0.273  0.0140 -0.2171  0.0912
 7877SOL    HW231274   1.178   1.479   0.287 -1.4186 -2.2594  0.4495
 7877SOL    HW331275   1.123   1.617   0.315  1.1042 -1.5889  2.4775
 7877SOL    MW431276   1.114   1.538   0.281 -0.0312 -0.6676  0.4533
 7878SOL     OW31277   4.032   5.828   2.654 -0.2108 -0.1284  0.6261
 7878SOL    HW231278   4.128   5.822   2.656 -0.2842 -2.2372  0.1594
 7878SOL    HW331279   4.004   5.781   2.733 -0.8688 -0.4600  0.2022
 7878SOL    MW431280   4.041   5.821   2.665 -0.3073 -0.4504  0.5086
 7879SOL     OW31281   5.882   4.084   4.331 -0.3189 -0.2720 -0.1558
 7879SOL    HW231282   5.943   4.146   4.291  1.0638 -1.2689  0.3283
 7879SOL    HW331283   5.829   4.137   4.391  1.6523  0.3021  1.1684
 7879SOL    MW431284   5.883   4.099   4.334  0.1236 -0.3278  0.0828
 7880SOL     OW31285   0.911   0.497   4.693  0.3267 -0.6419  0.4500
 7880SOL    HW231286   0.915   0.490   4.789 -0.5800 -0.4716  0.5071
 7880SOL    HW331287   0.821   0.473   4.671 -0.7600  3.1923  0.0090
 7880SOL    MW431288   0.899   0.493   4.703  0.0637 -0.1136  0.3994
 7881SOL     OW31289   3.144   1.380  -0.011  0.0901  0.2979 -0.2316
 7881SOL    HW231290   3.079   1.361   0.058  0.5808 -0.7866 -0.0391
 7881SOL    HW331291   3.147   1.475  -0.016 -0.2366  0.3882  0.9950
 7881SOL    MW431292   3.136   1.390  -0.002  0.1117  0.1667 -0.0443
 7882SOL     OW31293   2.986   1.326   0.220  0.2497  0.1680 -0.0900
 7882SOL    HW231294   2.891   1.309   0.221  0.4925 -1.2994  0.5699
 7882SOL    HW331295   3.026   1.240   0.232  1.7038  0.6517 -1.1733
 7882SOL    MW431296   2.978   1.313   0.221  0.4736  0.0382 -0.1459
 7883SOL     OW31297   2.468   4.890   1.941 -0.2884  0.4894 -1.2375
 7883SOL    HW231298   2.446   4.799   1.960 -2.4186  1.2474  0.1851
 7883SOL    HW331299   2.418   4.911   1.862 -0.2449  0.5925 -1.2383
 7883SOL    MW431300   2.459   4.881   1.933 -0.5637  0.6030 -1.0499
 7884SOL     OW31301   2.157   2.379   6.050 -0.0058 -0.3947 -0.0129
 7884SOL    HW231302   2.121   2.300   6.090 -1.0345  0.1181  0.1165
 7884SOL    HW331303   2.148   2.446   6.117  0.7889 -0.1368 -0.1490
 7884SOL    MW431304   2.151   2.378   6.064 -0.0367 -0.2931 -0.0138
 7885SOL     OW31305   3.998   4.702   3.298  0.1065  0.2550 -0.0233
 7885SOL    HW231306   3.934   4.631   3.305 -0.5721  0.6413 -1.6883
 7885SOL    HW331307   4.053   4.677   3.224  0.2502  1.1569 -0.2384
 7885SOL    MW431308   3.997   4.689   3.289  0.0359  0.4249 -0.2714
 7886SOL     OW31309   4.449   1.625   6.009  0.4714  0.1422 -0.1105
 7886SOL    HW231310   4.538   1.589   6.009  1.4938  2.1227  3.5281
 7886SOL    HW331311   4.398   1.562   6.060 -0.2918 -0.9923 -2.1966
 7886SOL    MW431312   4.454   1.612   6.016  0.5056  0.2538  0.0944
 7887SOL     OW31313   1.278   3.187   6.061  0.0590  0.1011  0.4838
 7887SOL    HW231314   1.209   3.129   6.028  2.4643 -2.0140 -1.2076
 7887SOL    HW331315   1.257   3.273   6.024 -1.0204 -0.7541 -0.9782
 7887SOL    MW431316   1.266   3.191   6.052  0.2339 -0.2908  0.0677
 7888SOL     OW31317   5.136   1.121   5.450  0.1974  0.0553  0.0175
 7888SOL    HW231318   5.214   1.072   5.426 -0.0715 -0.5875  0.4447
 7888SOL    HW331319   5.107   1.160   5.368  0.3637 -0.5736 -0.3461
 7888SOL    MW431320   5.142   1.120   5.436  0.1839 -0.1125  0.0259
 7889SOL     OW31321   0.276   1.651   1.000 -0.4573 -0.2351 -0.4812
 7889SOL    HW231322   0.335   1.683   0.932  0.0567 -1.1393 -0.4717
 7889SOL    HW331323   0.191   1.692   0.979 -0.4480 -0.9086 -1.9725
 7889SOL    MW431324   0.272   1.661   0.988 -0.3883 -0.4433 -0.6767
 7890SOL     OW31325   5.242   3.807   4.679 -0.1189  0.0841  0.2828
 7890SOL    HW231326   5.197   3.815   4.763 -1.5305  1.2269 -0.5263
 7890SOL    HW331327   5.182   3.847   4.616  0.6840 -1.1784 -1.3577
 7890SOL    MW431328   5.229   3.813   4.682 -0.1992  0.0683 -0.0404
 7891SOL     OW31329   1.864   5.648   2.848 -0.0651 -0.5100  0.1144
 7891SOL    HW231330   1.958   5.638   2.836 -0.0500 -0.3071  0.0492
 7891SOL    HW331331   1.852   5.656   2.942 -0.1479 -1.7745  0.2258
 7891SOL    MW431332   1.875   5.648   2.859 -0.0741 -0.6501  0.1205
 7892SOL     OW31333   3.341   2.749   0.067 -0.4562  0.2687  0.4247
 7892SOL    HW231334   3.247   2.735   0.066 -0.7696  2.1137  0.6027
 7892SOL    HW331335   3.354   2.822   0.128  0.9633  0.7401 -0.3823
 7892SOL    MW431336   3.330   2.757   0.075 -0.3103  0.5743  0.3417
 7893SOL     OW31337   3.879   4.208   6.197 -0.6503 -0.3182  0.3269
 7893SOL    HW231338   3.955   4.168   6.239  0.4027  0.8426 -0.3864
 7893SOL    HW331339   3.831   4.249   6.268  0.0528 -0.0430  0.6542
 7893SOL    MW431340   3.883   4.208   6.212 -0.4186 -0.1288  0.2760
 7894SOL     OW31341   5.109   0.336   4.777  0.4691 -0.0491 -0.1808
 7894SOL    HW231342   5.026   0.378   4.757  1.3034  1.7628 -0.0986
 7894SOL    HW331343   5.093   0.287   4.858 -0.9040 -1.0988 -1.0401
 7894SOL    MW431344   5.096   0.335   4.785  0.3980  0.0514 -0.2834
 7895SOL     OW31345   0.368   4.774   2.800  0.5822 -1.1911  0.8729
 7895SOL    HW231346   0.461   4.798   2.802  0.4774 -0.4047 -1.1124
 7895SOL    HW331347   0.334   4.802   2.885  1.5117  1.5704  0.4511
 7895SOL    MW431348   0.376   4.781   2.811  0.6910 -0.7230  0.5553
 7896SOL     OW31349   0.754   0.578   5.130 -0.0344  0.0363 -0.4572
 7896SOL    HW231350   0.717   0.510   5.187 -0.5786 -0.6766 -1.6309
 7896SOL    HW331351   0.825   0.534   5.083  1.3649  0.9962  0.6691
 7896SOL    MW431352   0.759   0.563   5.132  0.0784  0.0689 -0.4635
 7897SOL     OW31353   3.380   0.305   3.242  0.6010  0.2025 -0.0565
 7897SOL    HW231354   3.420   0.379   3.196 -0.3162  0.3782 -0.5774
 7897SOL    HW331355   3.343   0.250   3.173  2.9293 -1.7983  0.1458
 7897SOL    MW431356   3.381   0.308   3.227  0.7872 -0.0383 -0.0985
 7898SOL     OW31357   2.488   1.512   4.715  0.3314  0.2798  0.2478
 7898SOL    HW231358   2.527   1.517   4.802  1.5410 -1.0636 -0.1702
 7898SOL    HW331359   2.483   1.418   4.697 -0.4412  0.5245 -0.9089
 7898SOL    MW431360   2.492   1.500   4.724  0.3890  0.1348  0.0400
 7899SOL     OW31361   0.680   4.548   0.224  0.4090  0.1195 -0.2147
 7899SOL    HW231362   0.766   4.563   0.185  0.1362  0.2042 -0.7985
 7899SOL    HW331363   0.624   4.615   0.185  0.1105  0.1533  0.2683
 7899SOL    MW431364   0.684   4.559   0.214  0.3336  0.1352 -0.2280
 7900SOL     OW31365   4.936   0.184   1.681  0.1108  0.2526  0.2595
 7900SOL    HW231366   4.847   0.162   1.709 -0.3636  1.8147  0.0715
 7900SOL    HW331367   4.928   0.197   1.587  1.1144 -2.1798 -0.2256
 7900SOL    MW431368   4.923   0.183   1.672  0.1806  0.1378  0.1707
 7901SOL     OW31369   6.025   1.845   0.778 -0.1118 -0.2824 -0.2609
 7901SOL    HW231370   5.994   1.814   0.863 -1.3859 -1.0473 -0.9694
 7901SOL    HW331371   5.952   1.898   0.744 -0.1601 -1.0575 -1.4254
 7901SOL    MW431372   6.011   1.848   0.785 -0.2863 -0.4856 -0.5080
 7902SOL     OW31373   1.003   1.694   5.752  0.1672  0.4198  0.3210
 7902SOL    HW231374   1.025   1.773   5.801 -1.0387  1.5035 -0.8080
 7902SOL    HW331375   0.949   1.725   5.679  1.1053 -1.2329 -1.1639
 7902SOL    MW431376   0.999   1.708   5.749  0.1319  0.3448 -0.0238
 7903SOL     OW31377   1.845   0.831   1.932  0.7503  0.0284 -0.0488
 7903SOL    HW231378   1.768   0.883   1.954  0.0537 -1.6063  1.7210
 7903SOL    HW331379   1.915   0.867   1.987 -0.2410 -2.0553  2.8551
 7903SOL    MW431380   1.844   0.842   1.942  0.5276 -0.4622  0.5678
 7904SOL     OW31381   4.091   5.163   2.201 -0.1406  0.1288 -0.1825
 7904SOL    HW231382   4.040   5.186   2.123 -1.8152  0.7500  1.0463
 7904SOL    HW331383   4.128   5.077   2.181  2.9869  1.9079 -3.3218
 7904SOL    MW431384   4.089   5.155   2.188  0.0511  0.4455 -0.4346
 7905SOL     OW31385   6.323   3.672   1.806  0.4586 -0.2001  0.2524
 7905SOL    HW231386   6.350   3.581   1.795  0.2156 -0.5646  2.2660
 7905SOL    HW331387   6.239   3.678   1.760  1.6202 -0.2729 -2.0457
 7905SOL    MW431388   6.316   3.661   1.798  0.5798 -0.2578  0.2148
 7906SOL     OW31389   2.477   0.020   1.760  1.0990 -0.1446 -0.7913
 7906SOL    HW231390   2.407   0.085   1.751  1.2006  0.0450 -0.2828
 7906SOL    HW331391   2.546   0.050   1.701  0.6646 -0.4585 -1.4711
 7906SOL    MW431392   2.477   0.033   1.751  1.0551 -0.1610 -0.8139
 7907SOL     OW31393   1.339   0.638   3.389  0.7556  0.2420 -1.1569
 7907SOL    HW231394   1.291   0.574   3.442  0.7450  0.5122 -0.8374
 7907SOL    HW331395   1.426   0.599   3.380  1.7801  1.5643  1.7015
 7907SOL    MW431396   1.344   0.624   3.395  0.8894  0.4521 -0.7376
 7908SOL     OW31397   2.291   2.757   1.880 -0.3558  0.1777  0.5712
 7908SOL    HW231398   2.365   2.700   1.901 -1.7467 -1.7867  0.4636
 7908SOL    HW331399   2.219   2.724   1.935 -1.3900  1.4496  0.0429
 7908SOL    MW431400   2.291   2.745   1.890 -0.6758  0.0863  0.4873
 7909SOL     OW31401   5.357   3.880   5.013  0.2356  0.3111  0.1134
 7909SOL    HW231402   5.268   3.873   4.979  0.5800 -0.3465 -0.6872
 7909SOL    HW331403   5.407   3.917   4.941 -0.1891  5.2667  1.9961
 7909SOL    MW431404   5.352   3.884   4.999  0.2250  0.8782  0.2562
 7910SOL     OW31405   5.263   0.793   0.055 -0.2152 -0.0058  0.0890
 7910SOL    HW231406   5.289   0.784   0.146  0.9220 -1.0656 -0.3102
 7910SOL    HW331407   5.265   0.704   0.021 -1.5621  0.2592 -0.7330
 7910SOL    MW431408   5.267   0.780   0.062 -0.2429 -0.1107 -0.0721
 7911SOL     OW31409   5.170   3.704   4.289 -0.0211 -0.0392 -0.8067
 7911SOL    HW231410   5.163   3.656   4.207 -0.4674  0.0972 -0.8539
 7911SOL    HW331411   5.226   3.650   4.345  0.1334 -0.2200 -1.1387
 7911SOL    MW431412   5.176   3.691   4.286 -0.0596 -0.0451 -0.8567
 7912SOL     OW31413   1.110   4.316   3.163  0.5427 -0.3816  0.1804
 7912SOL    HW231414   1.070   4.358   3.087 -1.9776 -0.6158  1.2688
 7912SOL    HW331415   1.105   4.382   3.232  0.1441 -1.1182  0.8699
 7912SOL    MW431416   1.104   4.330   3.162  0.1576 -0.5097  0.4149
 7913SOL     OW31417   5.453   5.062   3.574  0.3851 -0.2784  0.6037
 7913SOL    HW231418   5.543   5.070   3.604  0.3057 -1.1319  1.0845
 7913SOL    HW331419   5.456   5.001   3.501  0.3974  0.8487 -0.3695
 7913SOL    MW431420   5.465   5.055   3.568  0.3762 -0.2423  0.5387
 7914SOL     OW31421   0.941   0.025   2.617 -0.2817  0.6056 -0.5452
 7914SOL    HW231422   0.938   0.021   2.521 -2.8745 -3.0126 -0.5181
 7914SOL    HW331423   0.853  -0.001   2.645  1.4010 -2.5827  2.7362
 7914SOL    MW431424   0.929   0.021   2.608 -0.4018 -0.2924 -0.1087
 7915SOL     OW31425   1.479   1.959   1.601 -0.1227  0.4492 -0.4622
 7915SOL    HW231426   1.396   1.964   1.649  1.7745  0.2993  3.2091
 7915SOL    HW331427   1.516   2.047   1.608  0.4181  0.2942 -1.2702
 7915SOL    MW431428   1.473   1.971   1.608  0.1990  0.4090 -0.0844
 7916SOL     OW31429   5.141   4.140   0.837 -0.2240 -0.2433 -0.3336
 7916SOL    HW231430   5.186   4.199   0.898 -1.4286  0.9762 -0.5735
 7916SOL    HW331431   5.086   4.086   0.894 -1.3798  0.9234 -0.2798
 7916SOL    MW431432   5.139   4.141   0.853 -0.5354  0.0715 -0.3581
 7917SOL     OW31433   4.321   5.432   1.029 -0.1270  0.1587  0.4633
 7917SOL    HW231434   4.276   5.364   1.078  0.2559 -0.1746  0.3563
 7917SOL    HW331435   4.264   5.509   1.037 -2.0291 -0.8829 -1.7523
 7917SOL    MW431436   4.308   5.433   1.036 -0.3274 -0.0227  0.1569
 7918SOL     OW31437   4.747   5.168   6.153  0.1080  0.1521  0.3091
 7918SOL    HW231438   4.695   5.135   6.226  0.6087  0.7877  0.9786
 7918SOL    HW331439   4.837   5.166   6.186  0.4531 -0.4594 -0.6496
 7918SOL    MW431440   4.752   5.164   6.167  0.2196  0.1553  0.2709
 7919SOL     OW31441   4.956   5.723   1.662  0.3958  0.3634  0.4572
 7919SOL    HW231442   4.885   5.786   1.650 -0.0989 -0.2102  0.3113
 7919SOL    HW331443   4.942   5.687   1.750 -0.2229 -0.6310 -0.0352
 7919SOL    MW431444   4.945   5.727   1.672  0.2489  0.1565  0.3730
 7920SOL     OW31445   1.443   4.497   3.945  0.8465  0.1228  0.0095
 7920SOL    HW231446   1.510   4.480   3.879  0.0518 -1.2938 -0.4942
 7920SOL    HW331447   1.364   4.516   3.894  0.5923  0.5956  0.5727
 7920SOL    MW431448   1.441   4.497   3.929  0.7081 -0.0017  0.0174
 7921SOL     OW31449   2.247   2.272   3.278  0.4269  0.3611 -0.2883
 7921SOL    HW231450   2.167   2.255   3.326  1.5681 -0.9682  1.2582
 7921SOL    HW331451   2.246   2.207   3.207  0.1064  0.3871 -0.3082
 7921SOL    MW431452   2.237   2.261   3.275  0.5352  0.1892 -0.0869
 7922SOL     OW31453   4.150   1.891   1.167 -0.2450  0.1887 -0.0148
 7922SOL    HW231454   4.168   1.811   1.117  0.0697 -0.1949  0.7017
 7922SOL    HW331455   4.172   1.962   1.106  2.4116 -0.2453  0.2929
 7922SOL    MW431456   4.155   1.889   1.152  0.1470  0.0808  0.1203
 7923SOL     OW31457   5.797   0.363   4.362 -0.4349  0.3889  0.1301
 7923SOL    HW231458   5.734   0.429   4.390 -0.6234 -0.0643  0.7875
 7923SOL    HW331459   5.763   0.331   4.278 -0.3687  1.0777 -0.1676
 7923SOL    MW431460   5.784   0.368   4.355 -0.4510  0.4199  0.1775
 7924SOL     OW31461   2.861   4.382   5.783 -0.7651  0.1451 -0.3755
 7924SOL    HW231462   2.779   4.394   5.735 -1.7856  0.7806  1.4549
 7924SOL    HW331463   2.876   4.466   5.826  1.3286  0.3191 -1.3510
 7924SOL    MW431464   2.852   4.395   5.782 -0.6235  0.2519 -0.2627
 7925SOL     OW31465   4.266   1.880   0.532 -0.3395  0.1051  0.1810
 7925SOL    HW231466   4.352   1.894   0.492 -0.7316  4.6928  0.5188
 7925SOL    HW331467   4.212   1.847   0.460  1.2918 -1.5628 -0.3645
 7925SOL    MW431468   4.271   1.877   0.517 -0.1760  0.4903  0.1536
 7926SOL     OW31469   3.642   3.902   1.583 -0.0246  0.1711 -0.4972
 7926SOL    HW231470   3.576   3.955   1.627  1.2734  1.3105  0.1248
 7926SOL    HW331471   3.708   3.965   1.553  1.5535 -1.0593  0.2390
 7926SOL    MW431472   3.642   3.917   1.585  0.3548  0.1591 -0.3180
 7927SOL     OW31473   4.593   0.776   2.265 -0.3299 -0.1311 -0.1543
 7927SOL    HW231474   4.642   0.847   2.223 -0.8755 -0.1450 -0.8360
 7927SOL    HW331475   4.619   0.698   2.216  0.2374 -0.4025  0.5670
 7927SOL    MW431476   4.603   0.775   2.253 -0.3270 -0.1687 -0.1490
 7928SOL     OW31477   3.206   3.913   0.349  0.2455  0.1957  0.1781
 7928SOL    HW231478   3.118   3.939   0.374 -0.4270 -1.0211 -0.7856
 7928SOL    HW331479   3.261   3.989   0.369 -1.2079  1.4212 -0.3264
 7928SOL    MW431480   3.202   3.926   0.355 -0.0350  0.1968 -0.0156
 7929SOL     OW31481   6.219   5.894   4.140 -0.2255 -0.6342  0.4867
 7929SOL    HW231482   6.176   5.980   4.138  0.7790 -0.1242 -0.1780
 7929SOL    HW331483   6.216   5.867   4.232  2.2243  1.5851  1.3441
 7929SOL    MW431484   6.213   5.902   4.152  0.2303 -0.2741  0.5121
 7930SOL     OW31485   6.151   4.214   4.952 -0.2187 -0.5380  0.1563
 7930SOL    HW231486   6.221   4.200   5.015  0.5720 -0.8184 -0.7596
 7930SOL    HW331487   6.122   4.304   4.967  0.4565 -0.3651  0.4272
 7930SOL    MW431488   6.156   4.224   4.962 -0.0253 -0.5522  0.0712
 7931SOL     OW31489   1.290   1.700   1.819 -0.4253 -0.1871  0.1476
 7931SOL    HW231490   1.261   1.782   1.778  0.2350 -1.6093 -3.5747
 7931SOL    HW331491   1.210   1.659   1.849 -0.9758  0.9531  0.3018
 7931SOL    MW431492   1.276   1.706   1.817 -0.4108 -0.2243 -0.3232
 7932SOL     OW31493   0.774   6.137   4.845 -0.0232  0.0610  0.0818
 7932SOL    HW231494   0.729   6.182   4.774  2.0182  2.4921  0.2103
 7932SOL    HW331495   0.853   6.101   4.805 -0.0415 -0.6695  0.6689
 7932SOL    MW431496   0.779   6.138   4.830  0.2437  0.2854  0.1762
 7933SOL     OW31497   5.689   1.311   3.407  0.6702  0.0968 -0.0636
 7933SOL    HW231498   5.739   1.392   3.416 -0.3607  0.7221  0.1727
 7933SOL    HW331499   5.656   1.314   3.317  0.2685  0.1554  0.0859
 7933SOL    MW431500   5.691   1.322   3.396  0.4812  0.1870 -0.0127
 7934SOL     OW31501   2.330   3.867   6.191  0.4465  0.3200  0.6489
 7934SOL    HW231502   2.329   3.945   6.246  1.2627 -0.1246  1.3184
 7934SOL    HW331503   2.321   3.900   6.102  1.3309  1.2322  0.8760
 7934SOL    MW431504   2.329   3.882   6.187  0.6709  0.3817  0.7672
 7935SOL     OW31505   5.650   0.722   5.929  0.2432 -0.1017 -0.3256
 7935SOL    HW231506   5.741   0.750   5.921 -0.2664  1.5412 -0.6327
 7935SOL    HW331507   5.650   0.664   6.005  1.0285  2.3219  1.6647
 7935SOL    MW431508   5.662   0.718   5.938  0.2796  0.4348 -0.1035
 7936SOL     OW31509   2.288   1.723   2.142 -0.0267  0.2398 -0.0725
 7936SOL    HW231510   2.197   1.694   2.147 -0.2940  1.0050 -0.2737
 7936SOL    HW331511   2.338   1.655   2.185 -0.7054 -0.1635  0.0876
 7936SOL    MW431512   2.283   1.710   2.148 -0.1515  0.2876 -0.0779
 7937SOL     OW31513   0.820   5.173   4.432  0.0062  0.0817 -0.1132
 7937SOL    HW231514   0.817   5.080   4.453 -0.8235  0.2020  0.3619
 7937SOL    HW331515   0.914   5.194   4.426  0.2879 -0.3113  2.0016
 7937SOL    MW431516   0.832   5.164   4.434 -0.0661  0.0458  0.2285
 7938SOL     OW31517   3.572   5.204   4.159  0.2075  0.5830 -0.1583
 7938SOL    HW231518   3.519   5.126   4.144 -0.0416  0.9707 -1.3756
 7938SOL    HW331519   3.575   5.248   4.074  0.4914  1.8101  0.4730
 7938SOL    MW431520   3.566   5.199   4.146  0.2121  0.7961 -0.2356
 7939SOL     OW31521   4.824   2.862   2.485 -0.2166  0.1218 -0.2263
 7939SOL    HW231522   4.892   2.798   2.504 -1.4505 -0.9096  0.9324
 7939SOL    HW331523   4.786   2.833   2.402 -0.9379 -0.8165  0.4216
 7939SOL    MW431524   4.828   2.850   2.477 -0.4745 -0.1381  0.0121
 7940SOL     OW31525   2.530   3.764   1.295 -0.1620 -0.3227 -0.3684
 7940SOL    HW231526   2.513   3.676   1.326  3.1568 -0.2747  2.0370
 7940SOL    HW331527   2.580   3.752   1.214  1.9102 -0.7620  0.9275
 7940SOL    MW431528   2.534   3.751   1.288  0.5493 -0.3743  0.1199
 7941SOL     OW31529   5.269   4.617   5.231  0.1866  0.0192  0.2295
 7941SOL    HW231530   5.240   4.694   5.182 -1.2929 -0.0627  0.9196
 7941SOL    HW331531   5.298   4.555   5.165 -0.5303  0.4095 -0.4554
 7941SOL    MW431532   5.269   4.619   5.216 -0.1032  0.0599  0.2302
 7942SOL     OW31533   4.927   1.893   4.337  0.3938 -0.3427  0.4640
 7942SOL    HW231534   4.863   1.869   4.269  0.9997 -1.8099  0.3580
 7942SOL    HW331535   5.011   1.888   4.292  0.8198 -1.5047  1.3473
 7942SOL    MW431536   4.930   1.889   4.322  0.5300 -0.6896  0.5665
 7943SOL     OW31537   3.056   5.215   0.171  0.0543  1.2364 -0.1695
 7943SOL    HW231538   3.146   5.184   0.178 -0.7435 -1.4293 -0.7282
 7943SOL    HW331539   3.041   5.226   0.077 -0.6375  0.1637 -0.1990
 7943SOL    MW431540   3.066   5.212   0.160 -0.1423  0.7431 -0.2471
 7944SOL     OW31541   3.412   3.207   5.545  0.1413  0.3166  0.8397
 7944SOL    HW231542   3.368   3.260   5.611 -0.6944  2.0859 -1.0146
 7944SOL    HW331543   3.391   3.250   5.462  1.8866 -1.2668 -0.5156
 7944SOL    MW431544   3.403   3.220   5.543  0.2613  0.3411  0.4163
 7945SOL     OW31545   3.662   4.546   0.808 -0.0742 -0.3541  0.1540
 7945SOL    HW231546   3.598   4.494   0.759 -1.6989  0.6703  1.1004
 7945SOL    HW331547   3.687   4.489   0.881 -0.7885 -0.3649  0.4037
 7945SOL    MW431548   3.657   4.531   0.811 -0.3828 -0.2204  0.3118
 7946SOL     OW31549   2.299   4.429   0.726  0.2742  0.3923 -0.2469
 7946SOL    HW231550   2.372   4.436   0.787  1.4923  0.7758 -1.6937
 7946SOL    HW331551   2.276   4.336   0.725 -1.2107  0.6491  2.3652
 7946SOL    MW431552   2.305   4.418   0.734  0.2390  0.4768 -0.0931
 7947SOL     OW31553   5.104   0.072   0.052 -0.1259 -0.3657 -0.9621
 7947SOL    HW231554   5.015   0.081   0.017  0.3694 -0.3535 -2.2753
 7947SOL    HW331555   5.129   0.162   0.075 -1.3365 -0.6356  1.8177
 7947SOL    MW431556   5.095   0.085   0.050 -0.2203 -0.3997 -0.7686
 7948SOL     OW31557   1.567   2.047   1.910 -0.2170 -0.4549 -0.2211
 7948SOL    HW231558   1.481   2.087   1.918  0.2362  0.7271 -0.9785
 7948SOL    HW331559   1.608   2.093   1.837  1.4456 -0.2787  0.7790
 7948SOL    MW431560   1.561   2.058   1.901  0.0622 -0.2757 -0.1891
 7949SOL     OW31561   3.925   1.486   2.971  0.1718 -0.3574  0.3298
 7949SOL    HW231562   4.004   1.533   2.999 -0.8334  0.3179  2.1375
 7949SOL    HW331563   3.913   1.418   3.037  0.3981 -1.8393 -1.1008
 7949SOL    MW431564   3.934   1.484   2.983  0.0690 -0.4638  0.3796
 7950SOL     OW31565   4.695   1.506   3.251 -0.4753 -0.1491  0.0267
 7950SOL    HW231566   4.620   1.449   3.235  0.3881 -0.9252 -1.4188
 7950SOL    HW331567   4.755   1.489   3.179  1.1634  0.3867  1.1896
 7950SOL    MW431568   4.693   1.497   3.240 -0.1452 -0.1808 -0.0106
 7951SOL     OW31569   2.691   1.716   1.755  0.0887  0.1029  0.1913
 7951SOL    HW231570   2.627   1.786   1.763  0.6681  0.4313  3.2145
 7951SOL    HW331571   2.645   1.646   1.708 -0.6715  2.1738 -2.4275
 7951SOL    MW431572   2.677   1.716   1.750  0.0648  0.4194  0.2446
 7952SOL     OW31573   5.193   2.843   5.412  0.5228  0.1808 -0.6374
 7952SOL    HW231574   5.115   2.823   5.360 -0.0635  1.7099 -0.3949
 7952SOL    HW331575   5.192   2.780   5.483 -1.3976  1.1405  0.2582
 7952SOL    MW431576   5.182   2.832   5.414  0.1921  0.5091 -0.4872
 7953SOL     OW31577   3.397   4.589   4.035  0.0176  0.3046  0.0098
 7953SOL    HW231578   3.309   4.605   4.069 -0.6904 -2.9590 -0.0024
 7953SOL    HW331579   3.384   4.577   3.941  0.5301  0.2049 -0.0487
 7953SOL    MW431580   3.383   4.590   4.027 -0.0082 -0.1391  0.0005
 7954SOL     OW31581   0.098   0.725   6.281  0.1290  0.1416  0.5764
 7954SOL    HW231582   0.154   0.652   6.254  1.6512  1.7667 -0.8473
 7954SOL    HW331583   0.031   0.684   6.336  1.6500 -2.1356  0.8618
 7954SOL    MW431584   0.096   0.710   6.285  0.5305  0.0556  0.4262
 7955SOL     OW31585   0.315   2.025   1.994  0.2278  0.0306  0.4339
 7955SOL    HW231586   0.233   2.072   1.979  1.1879  1.6129 -0.0216
 7955SOL    HW331587   0.375   2.058   1.927  1.3218 -0.9533  0.8791
 7955SOL    MW431588   0.312   2.035   1.983  0.4988  0.1095  0.4325
 7956SOL     OW31589   4.405   2.777   3.156  0.0421 -0.0565 -0.1542
 7956SOL    HW231590   4.392   2.866   3.122 -1.9862 -0.6630 -1.1492
 7956SOL    HW331591   4.450   2.732   3.085  1.8882  0.3725  0.7082
 7956SOL    MW431592   4.409   2.783   3.142  0.0181 -0.0800 -0.1717
 7957SOL     OW31593   5.973   0.729   4.001 -0.2901 -0.2651 -0.3003
 7957SOL    HW231594   6.043   0.778   3.957 -1.0512  0.8473 -0.3024
 7957SOL    HW331595   5.997   0.637   3.987  1.4375  0.0743  0.1253
 7957SOL    MW431596   5.986   0.724   3.993 -0.1626 -0.0735 -0.2444
 7958SOL     OW31597   1.052   0.969   2.968  0.3267  0.5157 -0.2638
 7958SOL    HW231598   1.079   0.943   2.880  1.0746 -1.0048  0.3675
 7958SOL    HW331599   1.059   1.065   2.968 -0.2935  0.5964 -2.0253
 7958SOL    MW431600   1.057   0.978   2.956  0.3436  0.3258 -0.4129
 7959SOL     OW31601   0.596   4.085   2.694  0.2383  0.3226 -0.6161
 7959SOL    HW231602   0.602   4.168   2.741  1.0328 -0.1106  0.0805
 7959SOL    HW331603   0.631   4.020   2.755 -1.9354 -0.8080 -0.4768
 7959SOL    MW431604   0.602   4.087   2.708  0.0563  0.1163 -0.5058
 7960SOL     OW31605   5.891   4.920   4.730  0.0765  0.3822  0.1030
 7960SOL    HW231606   5.859   4.905   4.641 -0.9901 -0.4751  0.6017
 7960SOL    HW331607   5.905   4.832   4.765  0.2458  0.6999  0.8555
 7960SOL    MW431608   5.888   4.906   4.723 -0.0419  0.3110  0.2681
 7961SOL     OW31609   1.475   3.654   0.459 -0.5049  0.3281 -0.3237
 7961SOL    HW231610   1.396   3.704   0.482 -0.4089  0.4046 -0.1622
 7961SOL    HW331611   1.443   3.588   0.398 -0.6550  0.5041 -0.4366
 7961SOL    MW431612   1.460   3.652   0.454 -0.5120  0.3614 -0.3173
 7962SOL     OW31613   3.343   1.400   0.610  0.7293 -0.1110  0.1241
 7962SOL    HW231614   3.276   1.433   0.550  0.0913  0.6827  1.2201
 7962SOL    HW331615   3.381   1.324   0.566 -0.3975 -0.1322 -0.8415
 7962SOL    MW431616   3.339   1.394   0.596  0.4965 -0.0091  0.1413
 7963SOL     OW31617   5.786   4.572   1.112  0.4015 -0.8533  0.1546
 7963SOL    HW231618   5.709   4.516   1.120  0.2631 -0.6301  0.3856
 7963SOL    HW331619   5.858   4.512   1.093  0.1021 -1.0273 -0.4617
 7963SOL    MW431620   5.786   4.557   1.110  0.3437 -0.8468  0.1038
 7964SOL     OW31621   3.200   3.161   5.851  0.5891  0.0664 -0.1379
 7964SOL    HW231622   3.159   3.122   5.927 -0.1726 -0.0576 -0.6070
 7964SOL    HW331623   3.173   3.253   5.853 -1.2841 -0.3925 -1.4487
 7964SOL    MW431624   3.191   3.168   5.861  0.2415 -0.0105 -0.3727
 7965SOL     OW31625   6.128   0.147   3.705  0.0860 -0.2357  0.3065
 7965SOL    HW231626   6.123   0.102   3.621  2.3397 -0.6939  0.3412
 7965SOL    HW331627   6.099   0.236   3.688 -0.2183 -0.5367 -0.7843
 7965SOL    MW431628   6.124   0.153   3.692  0.3432 -0.3359  0.1671
 7966SOL     OW31629   4.456   4.490   2.685  0.3254  0.4792 -0.2196
 7966SOL    HW231630   4.413   4.520   2.605 -0.6922 -0.8052 -0.1880
 7966SOL    HW331631   4.499   4.568   2.719 -1.3169  1.6495 -0.6858
 7966SOL    MW431632   4.456   4.504   2.679 -0.0255  0.4641 -0.2769
 7967SOL     OW31633   2.582   5.962   3.723  0.3452  0.1962  0.2180
 7967SOL    HW231634   2.594   6.023   3.651  0.0344 -0.6995 -0.6102
 7967SOL    HW331635   2.656   5.901   3.716 -1.1079 -1.5426 -1.0615
 7967SOL    MW431636   2.593   5.962   3.713  0.1125 -0.1514 -0.0601
 7968SOL     OW31637   1.021   0.112   6.123 -0.1167 -0.0708 -0.5419
 7968SOL    HW231638   0.966   0.074   6.192 -0.3691 -1.9673 -1.6988
 7968SOL    HW331639   1.110   0.100   6.154 -0.0511 -3.3677 -1.5125
 7968SOL    MW431640   1.025   0.105   6.136 -0.1413 -0.7560 -0.8226
 7969SOL     OW31641   3.007   5.453   1.250 -0.1592 -0.0138 -0.2311
 7969SOL    HW231642   3.057   5.440   1.330 -1.3949 -0.6064  0.4689
 7969SOL    HW331643   3.004   5.548   1.238 -0.3088  0.1056  0.6633
 7969SOL    MW431644   3.013   5.464   1.259 -0.3420 -0.0762 -0.0207
 7970SOL     OW31645   4.035   6.125   4.509 -0.1064  0.2416  0.2551
 7970SOL    HW231646   4.065   6.060   4.445  1.8756  0.8061  0.5350
 7970SOL    HW331647   3.960   6.084   4.552 -1.0607 -0.4297 -1.9223
 7970SOL    MW431648   4.029   6.111   4.507  0.0292  0.2275  0.0048
 7971SOL     OW31649   4.363   3.965   1.006  0.7545 -0.1825 -0.4470
 7971SOL    HW231650   4.296   3.962   0.937  1.0541 -0.6235 -0.7203
 7971SOL    HW331651   4.432   3.906   0.975  1.3230  0.3613 -0.2197
 7971SOL    MW431652   4.363   3.957   0.993  0.8690 -0.1689 -0.4530
 7972SOL     OW31653   2.839   2.136   3.469  0.3192 -0.3193 -0.1249
 7972SOL    HW231654   2.843   2.207   3.404 -1.5895  0.0656  0.1117
 7972SOL    HW331655   2.866   2.058   3.420  1.3857  0.3710 -0.6823
 7972SOL    MW431656   2.843   2.135   3.454  0.2081 -0.1775 -0.1672
 7973SOL     OW31657   1.309   3.431   2.027  0.0177  0.4954 -0.3267
 7973SOL    HW231658   1.368   3.491   2.073 -0.0171  0.3987 -0.1550
 7973SOL    HW331659   1.365   3.360   1.996  0.1933  1.0184 -1.2333
 7973SOL    MW431660   1.324   3.429   2.029  0.0363  0.5517 -0.4236
 7974SOL     OW31661   5.967   2.416   1.898  0.1553 -0.3986  0.5849
 7974SOL    HW231662   5.946   2.338   1.846 -2.0012  0.6664 -0.2610
 7974SOL    HW331663   5.997   2.480   1.834  0.2324  0.0131  1.0299
 7974SOL    MW431664   5.968   2.414   1.882 -0.1190 -0.2037  0.5320
 7975SOL     OW31665   0.593   5.292   2.359 -0.1636  0.1339 -0.3864
 7975SOL    HW231666   0.572   5.353   2.429  0.3550 -1.9203  1.6624
 7975SOL    HW331667   0.552   5.331   2.281  0.3969  3.1841  0.7009
 7975SOL    MW431668   0.585   5.305   2.358 -0.0213  0.2653  0.0273
 7976SOL     OW31669   0.783   5.980   2.443 -0.0811  0.1986 -0.5426
 7976SOL    HW231670   0.847   5.945   2.504 -2.0131 -0.1783  1.4171
 7976SOL    HW331671   0.752   5.904   2.393 -2.2765 -0.5887  1.7925
 7976SOL    MW431672   0.787   5.966   2.444 -0.6256  0.0450  0.0241
 7977SOL     OW31673   2.694   3.916   5.312  0.0436 -0.6936 -0.2455
 7977SOL    HW231674   2.648   3.962   5.382  0.2871  0.5591 -0.8827
 7977SOL    HW331675   2.783   3.905   5.346 -0.3076 -1.7643  0.3760
 7977SOL    MW431676   2.700   3.921   5.326  0.0294 -0.6696 -0.2476
 7978SOL     OW31677   4.675   3.930   3.138 -0.2546  0.0309 -0.0527
 7978SOL    HW231678   4.737   3.929   3.211 -0.2278  0.2315 -0.0739
 7978SOL    HW331679   4.593   3.898   3.176 -0.5364  1.1678  0.3299
 7978SOL    MW431680   4.672   3.925   3.153 -0.2882  0.2074 -0.0050
 7979SOL     OW31681   1.196   1.606   0.948 -0.1202 -0.3705 -0.0451
 7979SOL    HW231682   1.114   1.559   0.962 -1.1778  1.0552 -1.0834
 7979SOL    HW331683   1.172   1.677   0.887  1.9818 -0.1860 -0.7203
 7979SOL    MW431684   1.182   1.609   0.941  0.0176 -0.1581 -0.2712
 7980SOL     OW31685   2.644   5.369   1.881 -0.3792 -0.3990  0.2534
 7980SOL    HW231686   2.663   5.384   1.973  0.0102  2.4017 -0.2083
 7980SOL    HW331687   2.563   5.418   1.865  0.0992 -0.0060 -1.0955
 7980SOL    MW431688   2.636   5.377   1.891 -0.2647  0.0223  0.0146
 7981SOL     OW31689   2.429   1.547   2.307 -0.6450 -0.1744  0.5044
 7981SOL    HW231690   2.436   1.481   2.237 -1.8191 -1.3889  1.4769
 7981SOL    HW331691   2.513   1.593   2.305  0.3034 -1.8442 -0.0714
 7981SOL    MW431692   2.441   1.544   2.297 -0.6748 -0.5549  0.5567
 7982SOL     OW31693   3.159   4.347   0.844  0.1659  0.0210  0.0601
 7982SOL    HW231694   3.160   4.434   0.803  0.1374  0.7052  1.4653
 7982SOL    HW331695   3.226   4.298   0.797  1.6239  1.4460  0.5905
 7982SOL    MW431696   3.168   4.352   0.832  0.3545  0.2993  0.3155
 7983SOL     OW31697   2.360   5.521   5.091 -0.8556 -0.1763 -0.1233
 7983SOL    HW231698   2.388   5.611   5.075  0.4834 -0.3310  1.1338
 7983SOL    HW331699   2.315   5.524   5.175  0.5222 -0.9007  0.6705
 7983SOL    MW431700   2.358   5.533   5.100 -0.4972 -0.2923  0.1473
 7984SOL     OW31701   1.767   3.645   4.373 -0.3027  0.0493 -0.2473
 7984SOL    HW231702   1.705   3.607   4.435  1.2025 -1.3361  0.5009
 7984SOL    HW331703   1.752   3.597   4.292  0.7275 -1.3252  0.3411
 7984SOL    MW431704   1.757   3.634   4.371  0.0318 -0.3149 -0.0710
 7985SOL     OW31705   4.787   4.761   4.180  0.6398 -0.8759  0.3742
 7985SOL    HW231706   4.836   4.807   4.249  0.2493 -1.0849  0.7986
 7985SOL    HW331707   4.697   4.759   4.212  0.4537 -0.9770 -0.1499
 7985SOL    MW431708   4.782   4.767   4.194  0.5637 -0.9168  0.3610
 7986SOL     OW31709   2.425   0.644   2.309 -0.4378  0.4975  0.0252
 7986SOL    HW231710   2.415   0.584   2.235 -0.6234  0.2527  0.2470
 7986SOL    HW331711   2.459   0.589   2.380  1.4347  1.0737 -0.3785
 7986SOL    MW431712   2.428   0.629   2.309 -0.2152  0.5412  0.0012
 7987SOL     OW31713   3.228   2.060   4.609 -0.0299 -0.4314 -0.5987
 7987SOL    HW231714   3.322   2.045   4.614  0.4770  2.7210  2.4276
 7987SOL    HW331715   3.219   2.146   4.569 -1.5223  0.0141  0.6018
 7987SOL    MW431716   3.239   2.069   4.604 -0.1599  0.0433 -0.0410
 7988SOL     OW31717   0.965   4.715   3.448 -0.1300  0.2385  0.3315
 7988SOL    HW231718   0.927   4.672   3.524 -1.0601 -1.3574 -0.9574
 7988SOL    HW331719   1.019   4.786   3.484 -0.9739 -0.1120  2.4104
 7988SOL    MW431720   0.967   4.719   3.463 -0.3640 -0.0183  0.4357
 7989SOL     OW31721   3.775   3.756   2.876 -0.9079  0.8212  0.3903
 7989SOL    HW231722   3.733   3.717   2.799 -1.9270 -0.2847  1.4698
 7989SOL    HW331723   3.703   3.775   2.935 -0.1723  2.0668  0.9151
 7989SOL    MW431724   3.760   3.753   2.873 -0.9453  0.8396  0.6019
 7990SOL     OW31725   0.031   2.154   3.831 -0.0889  0.4648  0.2793
 7990SOL    HW231726   0.069   2.098   3.764 -0.7973 -0.9797  1.0309
 7990SOL    HW331727  -0.045   2.105   3.863 -0.4882  1.6757  1.2636
 7990SOL    MW431728   0.026   2.140   3.827 -0.2350  0.4340  0.5083
 7991SOL     OW31729   0.822   2.937   5.231 -0.2371  0.3941  0.0881
 7991SOL    HW231730   0.855   2.997   5.298  1.0672  0.2444 -0.3904
 7991SOL    HW331731   0.885   2.865   5.230 -0.6002  0.0728 -0.8371
 7991SOL    MW431732   0.835   2.936   5.240 -0.1129  0.3319 -0.0971
 7992SOL     OW31733   4.745   2.777   0.266  0.4344  0.6191 -0.0865
 7992SOL    HW231734   4.787   2.691   0.272  0.5375  0.7056  0.4909
 7992SOL    HW331735   4.717   2.783   0.174 -0.8621 -0.6365  0.1874
 7992SOL    MW431736   4.747   2.766   0.254  0.2769  0.4648  0.0258
 7993SOL     OW31737   4.956   1.251   2.635  0.2651  0.3189 -0.4182
 7993SOL    HW231738   4.963   1.288   2.548 -0.7160  0.1826 -0.5684
 7993SOL    HW331739   4.862   1.234   2.647  0.5376 -1.0135  0.0953
 7993SOL    MW431740   4.944   1.253   2.625  0.1716  0.1251 -0.3703
 7994SOL     OW31741   4.652   2.168   5.270 -0.0603 -0.9778 -0.4558
 7994SOL    HW231742   4.689   2.256   5.265 -1.8763 -0.2536 -2.1983
 7994SOL    HW331743   4.664   2.142   5.361  1.0098  0.8330 -0.0312
 7994SOL    MW431744   4.659   2.176   5.281 -0.1587 -0.6434 -0.6297
 7995SOL     OW31745   1.726   1.000   3.715 -0.1024 -0.0860 -0.7557
 7995SOL    HW231746   1.819   1.016   3.700  0.0919 -0.5991 -0.1672
 7995SOL    HW331747   1.681   1.058   3.654  0.4494  4.0728  2.3241
 7995SOL    MW431748   1.733   1.010   3.705 -0.0040  0.3950 -0.2717
 7996SOL     OW31749   2.204   3.555   0.425 -0.2507 -0.2213 -0.1197
 7996SOL    HW231750   2.110   3.574   0.421 -0.4630 -1.3783 -1.1900
 7996SOL    HW331751   2.244   3.619   0.367 -0.5642 -0.7207 -0.9013
 7996SOL    MW431752   2.197   3.566   0.417 -0.3201 -0.4398 -0.3640
 7997SOL     OW31753   5.622   4.100   1.949 -0.1310 -0.6142 -0.3897
 7997SOL    HW231754   5.699   4.045   1.965  0.8831  0.4184 -1.5196
 7997SOL    HW331755   5.610   4.097   1.854  0.0817  1.2596 -0.5053
 7997SOL    MW431756   5.630   4.092   1.938  0.0309 -0.2307 -0.5541
 7998SOL     OW31757   2.572   3.649   3.037 -0.3558  0.2187  0.0895
 7998SOL    HW231758   2.622   3.706   3.096  0.6149 -1.0807  0.5579
 7998SOL    HW331759   2.497   3.620   3.089 -1.4319  1.8300 -0.4783
 7998SOL    MW431760   2.569   3.653   3.052 -0.3697  0.2599  0.0764
 7999SOL     OW31761   6.016   0.209   2.298 -0.0117 -0.3986  0.2707
 7999SOL    HW231762   5.999   0.125   2.256 -0.3298 -0.8126  1.2010
 7999SOL    HW331763   5.929   0.244   2.316  0.1226 -0.0811  0.3073
 7999SOL    MW431764   6.002   0.203   2.295 -0.0360 -0.4114  0.3983
 8000SOL     OW31765   1.403   0.790   3.621  0.2450 -0.2542  0.0676
 8000SOL    HW231766   1.394   0.855   3.551  0.2651 -1.9485 -1.5925
 8000SOL    HW331767   1.389   0.706   3.577  1.0257 -1.4321  1.9712
 8000SOL    MW431768   1.400   0.788   3.606  0.3507 -0.6332  0.0997
 8001SOL     OW31769   2.595   3.906   1.911 -0.4175  0.1031 -0.3848
 8001SOL    HW231770   2.513   3.938   1.950  0.8414  1.0238  1.6575
 8001SOL    HW331771   2.643   3.867   1.983  0.9228 -0.5257 -1.5599
 8001SOL    MW431772   2.590   3.905   1.925 -0.0746  0.1416 -0.2704
 8002SOL     OW31773   4.373   2.163   1.928 -0.4436  0.1709  0.2822
 8002SOL    HW231774   4.432   2.108   1.978 -0.2380  0.5647  0.4747
 8002SOL    HW331775   4.416   2.175   1.844 -1.2696 -1.3633 -0.4051
 8002SOL    MW431776   4.386   2.157   1.924 -0.5255  0.0205  0.2169
 8003SOL     OW31777   3.945   5.681   2.895  0.4845  0.5786 -0.1021
 8003SOL    HW231778   4.008   5.609   2.893 -1.8036 -1.5489 -0.6241
 8003SOL    HW331779   3.968   5.730   2.974  1.7786 -1.0733  0.6124
 8003SOL    MW431780   3.956   5.678   2.905  0.3533  0.0799 -0.0767
 8004SOL     OW31781   1.823   3.368   3.690 -0.3405 -0.1017  0.1090
 8004SOL    HW231782   1.826   3.429   3.617  0.0537  0.1781  0.3506
 8004SOL    HW331783   1.913   3.338   3.699 -0.3286  0.0833  0.6517
 8004SOL    MW431784   1.835   3.372   3.682 -0.2869 -0.0403  0.2125
 8005SOL     OW31785   2.056   4.646   0.960  0.3158  1.1619 -0.0565
 8005SOL    HW231786   1.999   4.600   1.022  1.5662  1.2307  1.1951
 8005SOL    HW331787   2.053   4.593   0.880  2.9315 -2.1942  1.7904
 8005SOL    MW431788   2.048   4.633   0.957  0.8259  0.7282  0.3523
 8006SOL     OW31789   2.952   5.393   4.847 -0.2618  0.4038 -0.8754
 8006SOL    HW231790   2.880   5.336   4.824 -0.3069  0.5604 -1.1222
 8006SOL    HW331791   2.980   5.363   4.934  0.1773 -0.4477 -1.3066
 8006SOL    MW431792   2.946   5.382   4.856 -0.2098  0.3121 -0.9649
 8007SOL     OW31793   5.196   3.063   6.164 -0.3696 -0.1448  0.0903
 8007SOL    HW231794   5.132   3.109   6.217 -0.1152 -0.9193  1.1020
 8007SOL    HW331795   5.173   3.085   6.074  1.0201  3.6465  0.5009
 8007SOL    MW431796   5.184   3.072   6.159 -0.1527  0.2532  0.2780
 8008SOL     OW31797   5.726   0.527   1.595 -0.1701 -0.0563  0.1044
 8008SOL    HW231798   5.649   0.568   1.635  0.2679 -0.0940  1.0229
 8008SOL    HW331799   5.726   0.438   1.629 -0.9851 -0.7915 -1.6999
 8008SOL    MW431800   5.716   0.521   1.605 -0.2199 -0.1583 -0.0124
 8009SOL     OW31801   5.623   1.145   5.023 -0.1610 -0.7022  0.2928
 8009SOL    HW231802   5.690   1.093   5.067 -0.2435 -0.8010  0.3044
 8009SOL    HW331803   5.610   1.101   4.939 -0.0754 -0.5721  0.2111
 8009SOL    MW431804   5.630   1.132   5.018 -0.1606 -0.6980  0.2836
 8010SOL     OW31805   1.114   3.369   3.658 -0.0714 -0.0067  0.2463
 8010SOL    HW231806   1.174   3.377   3.584 -1.3625  0.6652 -0.7568
 8010SOL    HW331807   1.101   3.274   3.668 -0.0686 -0.0948 -0.5408
 8010SOL    MW431808   1.120   3.357   3.649 -0.2414  0.0703  0.0101
 8011SOL     OW31809   2.697   0.423   1.406 -0.2652  0.3532  0.1517
 8011SOL    HW231810   2.697   0.511   1.368 -0.8969  0.2913  0.0092
 8011SOL    HW331811   2.776   0.381   1.370 -1.1742  0.0816 -1.5908
 8011SOL    MW431812   2.708   0.429   1.397 -0.4685  0.3092 -0.0970
 8012SOL     OW31813   0.873   1.531   2.960  0.1678 -0.4998  0.4193
 8012SOL    HW231814   0.959   1.561   2.991  0.0429  0.7567 -0.3595
 8012SOL    HW331815   0.862   1.575   2.876 -1.6065  0.0394  0.8924
 8012SOL    MW431816   0.883   1.541   2.953 -0.0828 -0.2629  0.3789
 8013SOL     OW31817   1.536   4.636   4.292  0.0889 -0.4400 -0.7891
 8013SOL    HW231818   1.619   4.651   4.247  2.6928 -0.5628  3.4283
 8013SOL    HW331819   1.513   4.546   4.269  1.6484 -0.7399 -1.3255
 8013SOL    MW431820   1.544   4.626   4.283  0.6382 -0.4958 -0.3034
 8014SOL     OW31821   2.380   3.921   0.067 -0.1729  0.1822 -0.0869
 8014SOL    HW231822   2.331   3.999   0.042 -0.7173  0.7765  2.5569
 8014SOL    HW331823   2.471   3.950   0.073  0.0260 -0.0594 -1.5793
 8014SOL    MW431824   2.386   3.935   0.065 -0.2185  0.2287  0.0650
 8015SOL     OW31825   4.997   5.060   1.924  0.4184 -0.3925 -0.2964
 8015SOL    HW231826   5.066   5.125   1.911 -1.7478  1.8521 -1.2281
 8015SOL    HW331827   5.005   5.035   2.017 -1.0607  4.2636  1.3647
 8015SOL    MW431828   5.007   5.065   1.935 -0.0626  0.5180 -0.2002
 8016SOL     OW31829   4.948   4.850   5.043 -0.1888  0.1211  0.0262
 8016SOL    HW231830   4.868   4.799   5.055 -0.1198 -0.5346 -1.9085
 8016SOL    HW331831   4.926   4.915   4.977  1.0718 -0.6314 -1.1954
 8016SOL    MW431832   4.934   4.852   5.036 -0.0134 -0.0647 -0.3902
 8017SOL     OW31833   5.123   6.044   5.027  0.2499  0.3079  0.3819
 8017SOL    HW231834   5.205   6.018   5.070 -0.6619 -0.3976  1.7603
 8017SOL    HW331835   5.111   5.980   4.957  1.3656  1.0152 -0.4971
 8017SOL    MW431836   5.132   6.032   5.024  0.2768  0.3081  0.4478
 8018SOL     OW31837   3.157   2.636   3.536 -0.2798 -0.4013 -0.2243
 8018SOL    HW231838   3.203   2.580   3.599  1.5244  0.0778 -1.0510
 8018SOL    HW331839   3.219   2.648   3.464 -1.7875  0.1442 -1.5150
 8018SOL    MW431840   3.171   2.630   3.535 -0.2407 -0.2661 -0.5037
 8019SOL     OW31841   3.819   4.361   5.785  0.6849 -0.7154  0.0714
 8019SOL    HW231842   3.884   4.382   5.853  0.4504 -2.4674  0.9011
 8019SOL    HW331843   3.735   4.384   5.825  0.5243 -1.9940  0.5210
 8019SOL    MW431844   3.816   4.367   5.800  0.6327 -1.1152  0.2402
 8020SOL     OW31845   3.130   0.354   0.844  0.1780  0.4607 -0.6378
 8020SOL    HW231846   3.050   0.398   0.873 -0.2381 -0.6738 -0.0400
 8020SOL    HW331847   3.099   0.287   0.783  0.6397 -0.1779 -0.1789
 8020SOL    MW431848   3.115   0.351   0.839  0.1840  0.2267 -0.4984
 8021SOL     OW31849   1.144   5.847   3.201 -0.3028  0.6792 -0.6535
 8021SOL    HW231850   1.152   5.943   3.203  1.9953  0.5513  0.5788
 8021SOL    HW331851   1.222   5.816   3.248 -2.3789 -1.7571  1.4554
 8021SOL    MW431852   1.156   5.856   3.207 -0.2735  0.3409 -0.2127
 8022SOL     OW31853   0.275   1.973   1.346 -0.0182 -0.1033 -0.0092
 8022SOL    HW231854   0.320   1.989   1.429  0.0998 -0.1219 -0.0692
 8022SOL    HW331855   0.192   1.933   1.371 -0.2170  0.3895  0.1317
 8022SOL    MW431856   0.270   1.970   1.360 -0.0289 -0.0408  0.0015
 8023SOL     OW31857   2.009   0.905   4.819 -0.0661  0.4632  0.7855
 8023SOL    HW231858   1.984   0.812   4.826  2.5234 -0.2469  1.7432
 8023SOL    HW331859   1.964   0.947   4.893  0.6408 -0.5352  1.8233
 8023SOL    MW431860   2.000   0.898   4.830  0.3688  0.2378  1.0488
 8024SOL     OW31861   2.343   3.591   6.227  0.7755  0.4378 -0.4080
 8024SOL    HW231862   2.401   3.580   6.302  0.3509 -0.0002 -0.1412
 8024SOL    HW331863   2.329   3.685   6.221 -0.2343  0.3914  0.8572
 8024SOL    MW431864   2.349   3.602   6.236  0.5862  0.3739 -0.2059
 8025SOL     OW31865   2.740   6.240   0.250  0.0845 -0.2192  0.5671
 8025SOL    HW231866   2.809   6.237   0.184  0.2212  0.2059  0.6840
 8025SOL    HW331867   2.674   6.179   0.218  0.2890 -0.2526  0.1943
 8025SOL    MW431868   2.741   6.232   0.237  0.1295 -0.1675  0.5333
 8026SOL     OW31869   1.559   6.054   2.182  0.0775  0.2602  0.4646
 8026SOL    HW231870   1.506   6.049   2.102 -0.6545  1.1467  0.8712
 8026SOL    HW331871   1.618   6.128   2.168  1.0625 -0.5714  0.1150
 8026SOL    MW431872   1.560   6.063   2.170  0.1109  0.2674  0.4721
 8027SOL     OW31873   4.597   4.637   3.985 -0.6281  0.5927 -0.0300
 8027SOL    HW231874   4.583   4.544   3.965  0.0453  0.6800 -0.9530
 8027SOL    HW331875   4.510   4.675   3.983 -0.8133  0.1563 -0.5741
 8027SOL    MW431876   4.584   4.630   3.982 -0.5637  0.5466 -0.2236
 8028SOL     OW31877   4.957   3.677   1.635  0.4273  0.7177  0.2312
 8028SOL    HW231878   4.962   3.638   1.722 -1.8465 -1.3317 -0.4570
 8028SOL    HW331879   4.880   3.734   1.638 -0.3418 -0.2306 -0.6937
 8028SOL    MW431880   4.948   3.679   1.647  0.0258  0.3222  0.0184
 8029SOL     OW31881   3.094   4.521   6.332 -0.8514  0.2442  0.1542
 8029SOL    HW231882   3.146   4.550   6.407  1.4136 -0.9897 -0.8145
 8029SOL    HW331883   3.058   4.602   6.295 -0.2848  1.0744  1.3444
 8029SOL    MW431884   3.096   4.535   6.337 -0.4778  0.1910  0.1834
 8030SOL     OW31885   3.941   6.254   2.902  0.1634  0.8079  0.1351
 8030SOL    HW231886   3.966   6.242   2.993 -1.4931 -1.0800  0.4129
 8030SOL    HW331887   4.020   6.229   2.852  0.1409 -1.2711  1.0269
 8030SOL    MW431888   3.955   6.249   2.907 -0.0581  0.2845  0.2894
 8031SOL     OW31889   1.594   4.524   5.130 -0.4276  0.2238  0.8126
 8031SOL    HW231890   1.659   4.579   5.174 -1.1153  0.5581  1.4190
 8031SOL    HW331891   1.530   4.585   5.095 -0.6250 -0.1328  0.5417
 8031SOL    MW431892   1.594   4.539   5.131 -0.5444  0.2208  0.8569
 8032SOL     OW31893   4.393   4.620   1.012  0.2026  0.1278 -0.1104
 8032SOL    HW231894   4.381   4.576   0.928  0.9102  1.2067 -0.7992
 8032SOL    HW331895   4.447   4.696   0.992 -0.6461  1.0926  1.1260
 8032SOL    MW431896   4.399   4.624   0.999  0.1840  0.3975 -0.0381
 8033SOL     OW31897   6.158   5.698   2.876  1.0063 -0.0411  0.2797
 8033SOL    HW231898   6.064   5.679   2.883  1.4401 -1.7711  2.3113
 8033SOL    HW331899   6.167   5.744   2.792 -1.5972 -0.0860 -0.0948
 8033SOL    MW431900   6.147   5.702   2.866  0.7200 -0.2753  0.4984
 8034SOL     OW31901   4.067   5.908   0.653 -0.1996  0.1420  0.2782
 8034SOL    HW231902   4.158   5.877   0.651 -0.8860 -1.9480 -0.7555
 8034SOL    HW331903   4.042   5.916   0.561 -1.0430  0.8220  0.5564
 8034SOL    MW431904   4.076   5.905   0.641 -0.4014 -0.0440  0.1785
 8035SOL     OW31905   3.710   5.495   2.617  0.0831 -0.0710  0.1494
 8035SOL    HW231906   3.628   5.492   2.667  1.0488 -1.3422  1.7682
 8035SOL    HW331907   3.720   5.587   2.593 -1.4405  0.2349  0.5575
 8035SOL    MW431908   3.700   5.507   2.620  0.0095 -0.1984  0.4168
 8036SOL     OW31909   6.277   6.417   2.133  0.1760  0.4819 -0.4817
 8036SOL    HW231910   6.314   6.435   2.219  2.1925 -1.0352 -0.9629
 8036SOL    HW331911   6.280   6.502   2.088  4.7953  0.2913 -1.0318
 8036SOL    MW431912   6.282   6.431   2.138  1.0515  0.2566 -0.6177
 8037SOL     OW31913   6.251   1.405   6.347  0.0964  0.0721 -0.0130
 8037SOL    HW231914   6.244   1.311   6.334 -0.5795  0.1293 -0.0879
 8037SOL    HW331915   6.243   1.417   6.442  0.8484  0.0063  0.0676
 8037SOL    MW431916   6.249   1.394   6.358  0.1064  0.0709 -0.0123
 8038SOL     OW31917   0.225   4.812   3.022  0.1856 -0.0677  0.3991
 8038SOL    HW231918   0.152   4.854   2.977 -0.0817 -1.1974 -0.2499
 8038SOL    HW331919   0.210   4.718   3.012  0.5997 -0.3624  2.0756
 8038SOL    MW431920   0.214   4.805   3.015  0.2050 -0.2557  0.5347
 8039SOL     OW31921   0.708   4.108   4.095 -0.1041  0.0867  0.5348
 8039SOL    HW231922   0.630   4.162   4.101  0.8291  1.3625  1.7367
 8039SOL    HW331923   0.675   4.021   4.072 -1.7239  0.9160 -0.4952
 8039SOL    MW431924   0.694   4.104   4.093 -0.1947  0.3645  0.5575
 8040SOL     OW31925   5.144   5.899   0.511  0.2027  0.3052  0.5859
 8040SOL    HW231926   5.198   5.892   0.432 -0.8754 -0.9122 -0.0881
 8040SOL    HW331927   5.079   5.966   0.489 -1.9514 -2.0590 -0.8018
 8040SOL    MW431928   5.143   5.907   0.498 -0.2238 -0.1673  0.3139
 8041SOL     OW31929   0.646   4.619   3.369 -0.2402 -0.1595 -0.2341
 8041SOL    HW231930   0.636   4.692   3.431 -0.5066  0.4745 -1.0199
 8041SOL    HW331931   0.558   4.584   3.359 -0.3421  0.2951 -0.9301
 8041SOL    MW431932   0.633   4.624   3.376 -0.2888 -0.0159 -0.4296
 8042SOL     OW31933   4.545   6.327   4.950 -0.2588  0.1429 -0.2591
 8042SOL    HW231934   4.585   6.374   5.024  0.3323 -0.0729 -0.4328
 8042SOL    HW331935   4.465   6.289   4.986  0.5756 -0.8873  0.5865
 8042SOL    MW431936   4.540   6.328   4.965 -0.0707 -0.0215 -0.1704
 8043SOL     OW31937   1.332   6.199   5.550  0.2974  0.2290 -0.3213
 8043SOL    HW231938   1.299   6.235   5.467  0.9106  3.2818  0.6264
 8043SOL    HW331939   1.426   6.216   5.548  0.6064 -1.2861  0.2914
 8043SOL    MW431940   1.340   6.206   5.539  0.4191  0.4319 -0.1154
 8044SOL     OW31941   2.612   0.746   4.582  0.0595 -0.6840  0.1345
 8044SOL    HW231942   2.527   0.738   4.539 -0.1732  1.1669  0.1472
 8044SOL    HW331943   2.639   0.836   4.564  0.9366 -0.5175  2.0935
 8044SOL    MW431944   2.604   0.757   4.574  0.1445 -0.4178  0.3947
 8045SOL     OW31945   6.168   1.972   0.232 -0.1864 -0.1188 -0.0984
 8045SOL    HW231946   6.167   1.879   0.254  1.1597  0.2324  1.7126
 8045SOL    HW331947   6.183   1.975   0.137  0.1822 -1.7434 -0.1143
 8045SOL    MW431948   6.170   1.960   0.222  0.0398 -0.2868  0.1385
 8046SOL     OW31949   6.286   4.860   3.465  0.2838  0.5906  0.3328
 8046SOL    HW231950   6.306   4.773   3.499 -3.9772 -1.0759 -0.8202
 8046SOL    HW331951   6.285   4.916   3.543 -2.0382 -1.5771  2.0204
 8046SOL    MW431952   6.289   4.856   3.480 -0.5848  0.0847  0.4033
 8047SOL     OW31953   1.467   1.040   1.563 -0.2148  0.1694  0.4672
 8047SOL    HW231954   1.514   1.053   1.481  0.0797 -1.4271  0.3564
 8047SOL    HW331955   1.391   1.098   1.558  0.3740  0.8826 -0.4495
 8047SOL    MW431956   1.463   1.050   1.552 -0.0983  0.0528  0.3317
 8048SOL     OW31957   3.917   5.476  -0.032  0.2235 -0.4547 -0.0386
 8048SOL    HW231958   3.985   5.416  -0.003 -0.3422 -0.4114  1.4671
 8048SOL    HW331959   3.887   5.440  -0.116  1.1410 -1.2321 -0.0433
 8048SOL    MW431960   3.922   5.464  -0.039  0.2699 -0.5515  0.1594
 8049SOL     OW31961   4.873   1.189   2.334 -0.2648 -0.2939 -0.0473
 8049SOL    HW231962   4.952   1.168   2.285 -1.3424 -1.3891 -1.4010
 8049SOL    HW331963   4.865   1.117   2.397 -0.1137 -0.1009  0.1951
 8049SOL    MW431964   4.882   1.177   2.336 -0.3870 -0.4129 -0.1939
 8050SOL     OW31965   1.529   0.124   4.573 -0.0406 -0.2864 -0.1888
 8050SOL    HW231966   1.521   0.168   4.658 -0.6030 -0.5648 -0.0913
 8050SOL    HW331967   1.562   0.036   4.594 -0.6107 -0.5116 -0.2062
 8050SOL    MW431968   1.532   0.118   4.587 -0.1900 -0.3528 -0.1782
 8051SOL     OW31969   6.106   5.515   5.331 -0.0505  0.0613 -0.1743
 8051SOL    HW231970   6.188   5.514   5.380 -0.1875 -0.3835  0.0525
 8051SOL    HW331971   6.073   5.604   5.342  0.0383  0.0360  0.3506
 8051SOL    MW431972   6.113   5.526   5.339 -0.0569 -0.0007 -0.0751
 8052SOL     OW31973   4.418   4.083   5.183 -0.4618  0.2752 -0.0720
 8052SOL    HW231974   4.461   4.107   5.100 -0.7620 -0.6281 -0.5015
 8052SOL    HW331975   4.489   4.085   5.247  0.1251 -0.5516 -0.6560
 8052SOL    MW431976   4.433   4.086   5.180 -0.4239  0.0469 -0.2057
 8053SOL     OW31977   2.262   0.677   3.359 -0.6499 -0.8513  0.8732
 8053SOL    HW231978   2.255   0.585   3.382 -1.8164 -0.8996  0.4050
 8053SOL    HW331979   2.178   0.715   3.387 -1.1403 -0.4241 -1.0327
 8053SOL    MW431980   2.250   0.670   3.365 -0.8685 -0.8013  0.5600
 8054SOL     OW31981   3.869   1.268   6.332 -0.7343  0.0231  0.2715
 8054SOL    HW231982   3.841   1.196   6.388 -0.2237 -1.5636 -1.3968
 8054SOL    HW331983   3.962   1.280   6.353 -0.2732 -1.2680 -0.8689
 8054SOL    MW431984   3.878   1.260   6.342 -0.6061 -0.3566 -0.0991
 8055SOL     OW31985   3.276   1.190   0.913  0.2960 -0.0479  0.3431
 8055SOL    HW231986   3.342   1.213   0.978 -0.6541  1.1768  0.9065
 8055SOL    HW331987   3.236   1.273   0.889 -1.9706 -0.8691  1.0251
 8055SOL    MW431988   3.280   1.204   0.918 -0.1284  0.0053  0.5074
 8056SOL     OW31989   2.188   0.736   1.716 -0.0292  0.4390  0.2544
 8056SOL    HW231990   2.208   0.829   1.706 -0.8774  0.7135  0.9896
 8056SOL    HW331991   2.269   0.697   1.749  0.6883  0.7002 -1.1160
 8056SOL    MW431992   2.201   0.743   1.719 -0.0464  0.5097  0.1706
 8057SOL     OW31993   2.570   3.758   4.028 -0.1914  0.0804  0.4302
 8057SOL    HW231994   2.589   3.665   4.043 -0.0537  0.4194  2.7167
 8057SOL    HW331995   2.529   3.761   3.941  0.3826 -2.0185  0.0400
 8057SOL    MW431996   2.567   3.746   4.018 -0.0975 -0.1518  0.6804
 8058SOL     OW31997   5.311   5.950   3.722 -0.2208  0.4995  0.1024
 8058SOL    HW231998   5.396   5.931   3.683  0.8793  1.0858  2.0874
 8058SOL    HW331999   5.259   5.985   3.650  1.3505  0.5215 -1.0720
 8058SOL    MW432000   5.316   5.952   3.708  0.1317  0.5798  0.2093
 8059SOL     OW32001   6.152   1.727   6.242 -0.9450  0.0387 -0.4063
 8059SOL    HW232002   6.138   1.792   6.173  0.5997  0.3376 -0.4738
 8059SOL    HW332003   6.127   1.644   6.202 -2.0982  0.4575 -0.6072
 8059SOL    MW432004   6.147   1.724   6.228 -0.8933  0.1334 -0.4417
 8060SOL     OW32005   0.596   3.105   2.221  0.4000 -0.5634  0.1975
 8060SOL    HW232006   0.584   3.025   2.273  0.9220 -1.9237 -1.6480
 8060SOL    HW332007   0.511   3.148   2.223 -0.5299 -2.2592 -0.4168
 8060SOL    MW432008   0.583   3.100   2.228  0.3462 -0.9666 -0.1270
 8061SOL     OW32009   0.742   5.929   1.318  0.3068 -0.8576 -0.3459
 8061SOL    HW232010   0.761   5.997   1.253 -0.2440 -0.1500  0.2238
 8061SOL    HW332011   0.671   5.965   1.371  0.0968 -1.8250  0.0503
 8061SOL    MW432012   0.735   5.943   1.316  0.2064 -0.8919 -0.2185
 8062SOL     OW32013   2.308   3.030   1.951 -0.3707  0.4329  0.3428
 8062SOL    HW232014   2.213   3.037   1.944 -0.3323 -0.2376 -1.4094
 8062SOL    HW332015   2.327   2.940   1.924  0.8535  0.9750 -0.6948
 8062SOL    MW432016   2.298   3.019   1.946 -0.2041  0.4160 -0.0253
 8063SOL     OW32017   1.367   0.266   2.543  0.1591 -0.4223  0.4884
 8063SOL    HW232018   1.341   0.174   2.534 -2.2685  0.2896 -0.5330
 8063SOL    HW332019   1.294   0.316   2.506  0.8733  1.9963  2.0982
 8063SOL    MW432020   1.354   0.260   2.537 -0.0670 -0.0093  0.5660
 8064SOL     OW32021   5.478   1.946   3.817  0.3497  0.8497 -0.7340
 8064SOL    HW232022   5.448   1.869   3.865  1.2988  1.1265  0.3411
 8064SOL    HW332023   5.404   2.006   3.821 -0.0139  0.4032 -0.6524
 8064SOL    MW432024   5.464   1.944   3.824  0.4270  0.8273 -0.5814
 8065SOL     OW32025   0.820   2.519   2.302 -0.7622 -0.0836 -0.1441
 8065SOL    HW232026   0.831   2.543   2.210  1.2136 -0.6557 -0.1152
 8065SOL    HW332027   0.797   2.601   2.345  4.8368  1.9699 -0.2112
 8065SOL    MW432028   0.819   2.533   2.296  0.2372  0.1119 -0.1491
 8066SOL     OW32029   3.174   4.447   2.968  0.2125  0.2170  0.3701
 8066SOL    HW232030   3.249   4.504   2.945  0.2010 -0.3306 -1.1730
 8066SOL    HW332031   3.158   4.465   3.060  0.0094  2.9690 -0.1173
 8066SOL    MW432032   3.182   4.457   2.977  0.1842  0.5079  0.1022
 8067SOL     OW32033   1.131   4.417   0.665  0.5907 -0.0516  0.1640
 8067SOL    HW232034   1.189   4.455   0.732 -2.4796  4.3950  0.7460
 8067SOL    HW332035   1.082   4.492   0.631 -3.4714 -3.1364 -1.6004
 8067SOL    MW432036   1.133   4.432   0.669 -0.3504  0.1280  0.0080
 8068SOL     OW32037   3.370   5.661   3.539  0.6204  0.2401  0.1912
 8068SOL    HW232038   3.427   5.719   3.489  1.3955  0.3180  1.1369
 8068SOL    HW332039   3.285   5.703   3.537  0.5213  0.0336 -1.3969
 8068SOL    MW432040   3.367   5.674   3.532  0.7096  0.2232  0.1064
 8069SOL     OW32041   3.696   5.820   1.343 -0.1916 -0.2821  0.1070
 8069SOL    HW232042   3.760   5.809   1.413  0.4026  0.2720 -0.3359
 8069SOL    HW332043   3.681   5.915   1.339 -1.9088 -0.4660  0.9637
 8069SOL    MW432044   3.702   5.831   1.352 -0.3398 -0.2333  0.1616
 8070SOL     OW32045   5.750   6.105   2.317 -0.0422 -0.0592 -0.0814
 8070SOL    HW232046   5.844   6.084   2.320  0.0663  0.1966  3.4732
 8070SOL    HW332047   5.707   6.023   2.341 -0.3719  0.7078  2.2169
 8070SOL    MW432048   5.757   6.091   2.321 -0.0714  0.0757  0.6908
 8071SOL     OW32049   0.860   2.806   3.646 -0.2734  0.3708  0.3593
 8071SOL    HW232050   0.888   2.785   3.735  0.3251  0.9575  0.3140
 8071SOL    HW332051   0.920   2.874   3.617 -0.7279  0.4842 -0.3451
 8071SOL    MW432052   0.872   2.812   3.654 -0.2544  0.4632  0.2604
 8072SOL     OW32053   4.046   2.446   0.821  0.4394 -0.3641 -0.3395
 8072SOL    HW232054   4.065   2.364   0.866 -0.1091 -0.3203 -0.0204
 8072SOL    HW332055   3.995   2.420   0.744 -0.9846 -0.2174  0.5203
 8072SOL    MW432056   4.042   2.432   0.817  0.1791 -0.3390 -0.1840
 8073SOL     OW32057   2.236   0.671   3.091  0.0369 -0.7773 -0.4502
 8073SOL    HW232058   2.238   0.666   3.186 -0.2833  0.7666 -0.3388
 8073SOL    HW332059   2.326   0.651   3.064  0.6162  0.6595  0.3064
 8073SOL    MW432060   2.248   0.667   3.100  0.0711 -0.3841 -0.3357
 8074SOL     OW32061   6.017   6.325   2.235 -0.0812 -0.1165  0.5311
 8074SOL    HW232062   5.955   6.327   2.162 -0.8297 -2.2670  1.0322
 8074SOL    HW332063   6.101   6.345   2.195 -0.5964 -0.4674 -0.7906
 8074SOL    MW432064   6.020   6.328   2.220 -0.2479 -0.4465  0.4228
 8075SOL     OW32065   4.360   1.965   5.491  0.6033 -0.2277  0.3466
 8075SOL    HW232066   4.300   1.890   5.491 -1.2008  1.0746 -2.3236
 8075SOL    HW332067   4.327   2.021   5.562  0.1950 -0.6562  0.5034
 8075SOL    MW432068   4.348   1.963   5.501  0.3114 -0.1124  0.0150
 8076SOL     OW32069   6.374   3.060   1.856 -0.0622  0.0778  0.1083
 8076SOL    HW232070   6.378   3.130   1.921  2.6816 -0.6090  0.8005
 8076SOL    HW332071   6.346   3.103   1.776  0.7944  1.8291  0.7035
 8076SOL    MW432072   6.371   3.075   1.854  0.4128  0.2182  0.2781
 8077SOL     OW32073   5.858   2.884   0.069  0.1502 -0.0402  0.2768
 8077SOL    HW232074   5.952   2.889   0.085  0.3613 -1.7448 -0.2574
 8077SOL    HW332075   5.829   2.810   0.123 -0.3584 -1.3517 -1.7104
 8077SOL    MW432076   5.866   2.875   0.079  0.1109 -0.4381 -0.0558
 8078SOL     OW32077   4.898   2.839   2.848  0.0109  0.0724  0.0833
 8078SOL    HW232078   4.911   2.763   2.903 -0.9358 -1.3297 -1.5328
 8078SOL    HW332079   4.868   2.804   2.764 -0.4769  2.2152 -0.7211
 8078SOL    MW432080   4.895   2.825   2.844 -0.1784  0.1701 -0.2361
 8079SOL     OW32081   5.027   4.214   2.419  0.2570  0.0475  0.1144
 8079SOL    HW232082   5.009   4.300   2.458  0.7232 -0.6978  2.0964
 8079SOL    HW332083   5.003   4.224   2.327 -0.1715  2.1490  0.4018
 8079SOL    MW432084   5.022   4.227   2.412  0.2620  0.2264  0.4138
 8080SOL     OW32085   4.755   1.876   1.378 -0.2719  0.1952  0.1214
 8080SOL    HW232086   4.740   1.969   1.361  0.3861  0.3827  0.5539
 8080SOL    HW332087   4.706   1.831   1.309 -1.3695  0.8312  0.4517
 8080SOL    MW432088   4.746   1.882   1.367 -0.3299  0.3038  0.2221
 8081SOL     OW32089   1.264   5.747   5.333  0.3501  0.3433  0.6678
 8081SOL    HW232090   1.318   5.713   5.404 -0.9323  0.5473  1.7764
 8081SOL    HW332091   1.325   5.795   5.278  1.6983 -1.3018  0.6233
 8081SOL    MW432092   1.279   5.749   5.335  0.3588  0.1532  0.8082
 8082SOL     OW32093   1.374   1.810   6.283  0.1035 -0.2549  0.9523
 8082SOL    HW232094   1.440   1.740   6.281 -0.0683 -0.4216  1.2522
 8082SOL    HW332095   1.416   1.881   6.332  0.1708 -0.2454  0.8834
 8082SOL    MW432096   1.388   1.810   6.289  0.0897 -0.2756  0.9828
 8083SOL     OW32097   1.617   4.255   2.035  0.1449  0.1986  0.1380
 8083SOL    HW232098   1.539   4.205   2.059  0.2025 -0.0790 -0.2466
 8083SOL    HW332099   1.689   4.206   2.074  0.2041 -0.0420 -0.2639
 8083SOL    MW432100   1.616   4.242   2.043  0.1603  0.1302  0.0342
 8084SOL     OW32101   2.520   4.958   4.065  0.1710  0.1155 -0.2094
 8084SOL    HW232102   2.536   5.031   4.125  1.0576 -0.4474  0.2662
 8084SOL    HW332103   2.446   4.911   4.104  0.2077  0.2286  0.0009
 8084SOL    MW432104   2.512   4.961   4.078  0.2928  0.0562 -0.1189
 8085SOL     OW32105   1.379   0.341   6.175 -0.4063  0.6489  0.1341
 8085SOL    HW232106   1.453   0.382   6.220 -0.1134 -0.2705  0.5178
 8085SOL    HW332107   1.385   0.248   6.200 -1.8016  0.5975  0.3312
 8085SOL    MW432108   1.390   0.334   6.184 -0.5517  0.5208  0.2107
 8086SOL     OW32109   0.508   2.246   5.238 -0.7511 -0.2835  0.1776
 8086SOL    HW232110   0.583   2.297   5.267 -0.0906 -2.1387  1.9342
 8086SOL    HW332111   0.444   2.312   5.210  1.3787  1.3473 -1.1340
 8086SOL    MW432112   0.509   2.262   5.238 -0.3830 -0.3131  0.2363
 8087SOL     OW32113   5.893   2.256   3.438 -0.1818 -0.1276 -0.2745
 8087SOL    HW232114   5.915   2.315   3.366  0.1904 -0.7963 -0.7286
 8087SOL    HW332115   5.880   2.171   3.396  2.0321 -0.9944  0.6299
 8087SOL    MW432116   5.895   2.252   3.423  0.1594 -0.3302 -0.2151
 8088SOL     OW32117   4.145   2.412   5.524  0.5648 -0.0403  0.9333
 8088SOL    HW232118   4.139   2.506   5.509  0.3520 -0.3959 -1.6526
 8088SOL    HW332119   4.232   2.388   5.492  0.4358 -0.7868  1.1145
 8088SOL    MW432120   4.156   2.421   5.517  0.5197 -0.1857  0.6160
 8089SOL     OW32121   3.401   5.544   4.456  0.2982 -0.6733  0.1391
 8089SOL    HW232122   3.442   5.498   4.529  1.4592 -1.5174 -1.0060
 8089SOL    HW332123   3.381   5.475   4.393 -0.0530  0.1227 -0.6392
 8089SOL    MW432124   3.404   5.529   4.457  0.4051 -0.6797 -0.1147
 8090SOL     OW32125   3.693   2.653   2.450  0.1071  0.4093  0.2682
 8090SOL    HW232126   3.666   2.693   2.533 -3.6461 -1.5782  0.2498
 8090SOL    HW332127   3.646   2.703   2.383 -0.3256 -0.6162 -0.2174
 8090SOL    MW432128   3.683   2.665   2.453 -0.4452  0.0118  0.2017
 8091SOL     OW32129   4.438   1.655   1.699  0.0482 -0.5635  0.2332
 8091SOL    HW232130   4.460   1.565   1.677  0.3126 -0.8022  1.3792
 8091SOL    HW332131   4.372   1.647   1.768 -0.6103  0.1331 -0.2981
 8091SOL    MW432132   4.432   1.642   1.706 -0.0038 -0.5031  0.3143
 8092SOL     OW32133   0.628   2.946   3.632  0.0203 -0.1835 -0.3758
 8092SOL    HW232134   0.703   2.887   3.628  0.3117  0.2016 -0.7727
 8092SOL    HW332135   0.563   2.908   3.572  0.0843 -0.2655 -0.3924
 8092SOL    MW432136   0.629   2.933   3.623  0.0672 -0.1435 -0.4304
 8093SOL     OW32137   0.480   5.384   2.105  0.1778  0.3410  0.0607
 8093SOL    HW232138   0.522   5.419   2.026  0.7134 -0.2291  0.0823
 8093SOL    HW332139   0.473   5.290   2.089 -0.9676  0.3997  0.1302
 8093SOL    MW432140   0.485   5.377   2.092  0.0974  0.2735  0.0727
 8094SOL     OW32141   5.088   0.962   6.240  0.3183 -0.1494 -0.1382
 8094SOL    HW232142   5.027   0.973   6.313 -0.4867 -1.7491 -0.5374
 8094SOL    HW332143   5.165   1.013   6.266 -1.1309  1.8720  0.3975
 8094SOL    MW432144   5.090   0.970   6.253  0.0209 -0.0938 -0.1202
 8095SOL     OW32145   1.241   2.581   1.091 -0.3476 -0.3655  0.4100
 8095SOL    HW232146   1.329   2.568   1.056 -0.3603  1.9313 -0.6676
 8095SOL    HW332147   1.185   2.582   1.013 -0.9121  1.0498  0.8159
 8095SOL    MW432148   1.245   2.579   1.076 -0.4238  0.1243  0.3214
 8096SOL     OW32149   2.554   5.677   2.336 -0.3433  0.2805  0.4624
 8096SOL    HW232150   2.597   5.624   2.269 -2.1852 -1.7214  0.7545
 8096SOL    HW332151   2.622   5.696   2.400  0.8048 -0.1396 -0.5915
 8096SOL    MW432152   2.568   5.673   2.335 -0.4348 -0.0391  0.3619
 8097SOL     OW32153   6.002   0.251   6.088 -0.0834 -0.5777 -0.2561
 8097SOL    HW232154   6.074   0.308   6.114 -0.4513 -0.1116 -0.2345
 8097SOL    HW332155   6.036   0.199   6.016  0.8182 -1.5832  0.8619
 8097SOL    MW432156   6.016   0.252   6.082 -0.0130 -0.6489 -0.1057
 8098SOL     OW32157   5.693   1.075   4.308 -0.3873  0.3732 -0.1211
 8098SOL    HW232158   5.597   1.070   4.306 -0.4446  0.8679  0.8542
 8098SOL    HW332159   5.722   0.985   4.302 -0.8724  0.2890 -1.6861
 8098SOL    MW432160   5.684   1.063   4.307 -0.4589  0.4273 -0.1989
 8099SOL     OW32161   5.872   2.139   4.106 -0.2381 -0.4342  0.7650
 8099SOL    HW232162   5.889   2.190   4.027  0.3970  0.9143  1.7359
 8099SOL    HW332163   5.788   2.095   4.089 -0.8005  0.9348 -0.1145
 8099SOL    MW432164   5.863   2.140   4.093 -0.2285 -0.0757  0.7771
 8100SOL     OW32165   4.000   3.089   4.631 -0.4542  0.0005 -0.5066
 8100SOL    HW232166   3.941   3.152   4.590 -2.8171 -1.7899 -0.0895
 8100SOL    HW332167   4.060   3.063   4.562  0.0647  2.0339 -0.8934
 8100SOL    MW432168   4.001   3.094   4.617 -0.6975  0.0326 -0.5026
 8101SOL     OW32169   1.392   3.124   4.894 -0.4451  0.0369  0.2376
 8101SOL    HW232170   1.413   3.161   4.808 -0.8486 -3.7078 -1.6788
 8101SOL    HW332171   1.459   3.057   4.908 -1.1358 -0.3024  2.3281
 8101SOL    MW432172   1.404   3.120   4.885 -0.5895 -0.5019  0.2606
 8102SOL     OW32173   1.981   5.469   1.276 -0.1881 -0.0721  0.3536
 8102SOL    HW232174   2.002   5.561   1.292 -0.2796 -0.2649  1.6679
 8102SOL    HW332175   1.891   5.471   1.242 -0.3670  0.2961  0.8366
 8102SOL    MW432176   1.972   5.482   1.274 -0.2237 -0.0489  0.5907
 8103SOL     OW32177   3.814   2.723   5.123  0.0240 -0.0672  0.0005
 8103SOL    HW232178   3.802   2.812   5.158  2.1354 -0.0162  0.7572
 8103SOL    HW332179   3.900   2.697   5.155  0.4992 -1.4643 -2.2408
 8103SOL    MW432180   3.823   2.731   5.132  0.3652 -0.2448 -0.1954
 8104SOL     OW32181   6.300   3.645   0.604  0.0535  0.6190 -0.0862
 8104SOL    HW232182   6.224   3.653   0.661  0.7867 -0.6495  1.1323
 8104SOL    HW332183   6.364   3.705   0.641  0.4865 -0.1108  0.3617
 8104SOL    MW432184   6.298   3.654   0.616  0.2073  0.3554  0.1337
 8105SOL     OW32185   5.235   1.745   5.626  0.4184  0.0655  0.1957
 8105SOL    HW232186   5.270   1.669   5.672  1.5350  0.2462 -0.3231
 8105SOL    HW332187   5.296   1.759   5.553 -0.6733  0.4779 -0.6631
 8105SOL    MW432188   5.248   1.737   5.622  0.4217  0.1438  0.0140
 8106SOL     OW32189   2.522   2.051   0.013  0.1813 -0.3215  0.2224
 8106SOL    HW232190   2.567   2.111   0.072  1.8814 -1.5706  0.2986
 8106SOL    HW332191   2.457   2.007   0.067 -0.7731  1.0853  0.2660
 8106SOL    MW432192   2.520   2.053   0.028  0.2797 -0.3007  0.2382
 8107SOL     OW32193   4.490   3.720   2.837 -0.2305 -0.1652 -0.6131
 8107SOL    HW232194   4.576   3.751   2.863 -0.2878 -1.5071  1.4753
 8107SOL    HW332195   4.429   3.766   2.895 -0.4921 -2.2396  0.9084
 8107SOL    MW432196   4.493   3.730   2.848 -0.2726 -0.6160 -0.1368
 8108SOL     OW32197   0.959   6.328   2.070 -0.0858 -0.0819  0.4014
 8108SOL    HW232198   0.956   6.264   2.000  0.4514 -2.0543  2.0865
 8108SOL    HW332199   0.868   6.340   2.097 -0.2490  0.3631 -0.3329
 8108SOL    MW432200   0.947   6.321   2.064 -0.0365 -0.2834  0.5269
 8109SOL     OW32201   2.495   3.528   0.269  0.1472  0.6380  0.0878
 8109SOL    HW232202   2.448   3.445   0.270  1.0024  0.1142  2.2165
 8109SOL    HW332203   2.496   3.554   0.177  0.0105 -1.7872 -0.6747
 8109SOL    MW432204   2.489   3.521   0.257  0.2420  0.2489  0.2681
 8110SOL     OW32205   0.094   0.468   0.752 -0.1556  0.0767  0.5286
 8110SOL    HW232206   0.184   0.501   0.758  0.0748 -0.0524 -1.6901
 8110SOL    HW332207   0.051   0.504   0.830  1.8502 -0.0533  1.7701
 8110SOL    MW432208   0.100   0.477   0.763  0.1394  0.0425  0.3997
 8111SOL     OW32209   3.063   3.471   4.659  0.8816 -0.1218  0.6517
 8111SOL    HW232210   3.149   3.439   4.630  0.2725  0.8237 -2.5744
 8111SOL    HW332211   3.000   3.417   4.613 -0.2452  0.5827  1.3185
 8111SOL    MW432212   3.066   3.460   4.649  0.6526  0.0959  0.3141
 8112SOL     OW32213   1.579   5.889   4.936 -0.0239  0.3386 -0.1219
 8112SOL    HW232214   1.557   5.802   4.904  1.0262  0.3729 -0.9666
 8112SOL    HW332215   1.597   5.940   4.857 -0.7297  1.3603  0.3542
 8112SOL    MW432216   1.578   5.885   4.922  0.0215  0.4779 -0.1705
 8113SOL     OW32217   1.648   5.708   4.514 -0.3323  0.2154  0.2712
 8113SOL    HW232218   1.568   5.759   4.503  0.5008  1.5694  0.3267
 8113SOL    HW332219   1.664   5.671   4.427 -0.2026  1.1872 -0.1343
 8113SOL    MW432220   1.639   5.710   4.501 -0.2053  0.5223  0.2250
 8114SOL     OW32221   0.059   0.375   1.400  0.4423 -0.3156  0.0348
 8114SOL    HW232222   0.147   0.341   1.390 -0.4285 -2.5897 -0.4209
 8114SOL    HW332223   0.024   0.331   1.477  0.4932  2.4885  1.8088
 8114SOL    MW432224   0.066   0.365   1.409  0.3342 -0.2457  0.2088
 8115SOL     OW32225   5.622   3.499   4.861  0.2648  0.2046 -0.0097
 8115SOL    HW232226   5.571   3.419   4.849 -1.5801  1.2838  0.2767
 8115SOL    HW332227   5.589   3.536   4.943  0.2916  1.8098 -0.6869
 8115SOL    MW432228   5.611   3.494   4.870  0.0249  0.5588 -0.0612
 8116SOL     OW32229   3.025   5.213   2.474  0.2330 -0.3744 -0.5921
 8116SOL    HW232230   3.088   5.197   2.544  0.4805  1.6479 -0.2868
 8116SOL    HW332231   2.974   5.133   2.468  2.4005 -1.8331 -0.4021
 8116SOL    MW432232   3.026   5.201   2.482  0.5516 -0.3000 -0.5268
 8117SOL     OW32233   4.878   3.937   3.333  0.6460 -0.2686  0.3190
 8117SOL    HW232234   4.922   4.021   3.343  1.9457 -1.2034  3.5909
 8117SOL    HW332235   4.849   3.914   3.421  0.5428 -3.3601 -0.4058
 8117SOL    MW432236   4.880   3.945   3.346  0.8039 -0.7998  0.6550
 8118SOL     OW32237   2.213   3.625   5.765 -0.1650  0.4406 -0.2248
 8118SOL    HW232238   2.230   3.706   5.717  0.4183  0.8953  0.7371
 8118SOL    HW332239   2.181   3.564   5.698 -0.2304  1.3374 -1.0243
 8118SOL    MW432240   2.211   3.628   5.750 -0.0967  0.6189 -0.2033
 8119SOL     OW32241   3.468   2.825   5.723 -0.2159  0.2056  0.0659
 8119SOL    HW232242   3.410   2.836   5.648 -0.3594 -0.3002  0.1031
 8119SOL    HW332243   3.469   2.911   5.765 -0.0742  0.5120 -0.5586
 8119SOL    MW432244   3.461   2.838   5.718 -0.2162  0.1793 -0.0115
 8120SOL     OW32245   0.240   1.056   1.319 -0.4972 -0.0650 -0.3449
 8120SOL    HW232246   0.207   1.100   1.240 -2.0894  0.4457  0.5697
 8120SOL    HW332247   0.294   0.985   1.285 -0.6353  0.5175 -1.8962
 8120SOL    MW432248   0.243   1.052   1.304 -0.7255  0.0792 -0.4289
 8121SOL     OW32249   1.546   0.610   0.360  0.3957 -0.2613  0.1165
 8121SOL    HW232250   1.609   0.670   0.400  2.9212 -1.5782 -1.5366
 8121SOL    HW332251   1.536   0.642   0.270 -0.8803 -0.4024  0.1947
 8121SOL    MW432252   1.553   0.622   0.353  0.5605 -0.4537 -0.0913
 8122SOL     OW32253   3.970   0.942   2.905  0.2917  0.0579 -0.8998
 8122SOL    HW232254   3.932   0.978   2.985 -0.2114 -1.7562 -0.2852
 8122SOL    HW332255   3.914   0.868   2.883  1.3537 -0.4399 -2.0588
 8122SOL    MW432256   3.958   0.937   2.912  0.3655 -0.2472 -0.9716
 8123SOL     OW32257   4.996   0.681  -0.033  0.0867  0.3828 -0.1612
 8123SOL    HW232258   4.983   0.606   0.025  2.3106  0.0555 -0.0239
 8123SOL    HW332259   5.014   0.754   0.026 -0.9035  0.7872 -0.3421
 8123SOL    MW432260   4.997   0.681  -0.017  0.2494  0.3929 -0.1670
 8124SOL     OW32261   4.050   5.674   1.701  0.0261  0.0187  0.0321
 8124SOL    HW232262   4.086   5.760   1.719 -2.0956  1.1778 -0.8612
 8124SOL    HW332263   4.121   5.627   1.656  0.8659  1.6633 -0.4318
 8124SOL    MW432264   4.064   5.679   1.697 -0.1430  0.3886 -0.1469
 8125SOL     OW32265   0.638   2.884   2.752  0.3890  0.5949 -0.1735
 8125SOL    HW232266   0.661   2.805   2.704 -1.2300  1.2236 -2.1105
 8125SOL    HW332267   0.579   2.855   2.821 -1.8690  0.2178 -2.1169
 8125SOL    MW432268   0.633   2.870   2.755 -0.1225  0.6281 -0.6854
 8126SOL     OW32269   4.762   1.202   6.316  0.2423  0.6248  0.3243
 8126SOL    HW232270   4.752   1.130   6.254 -0.9520  0.3256  0.8265
 8126SOL    HW332271   4.842   1.246   6.289  0.9284 -0.7987 -0.0786
 8126SOL    MW432272   4.771   1.198   6.304  0.1752  0.3975  0.3374
 8127SOL     OW32273   3.538   3.566   1.478  0.0333 -0.1731 -0.4051
 8127SOL    HW232274   3.631   3.578   1.499 -0.1000  1.1627 -0.5227
 8127SOL    HW332275   3.493   3.580   1.562  0.0099 -2.3838  0.0165
 8127SOL    MW432276   3.544   3.569   1.492  0.0126 -0.2885 -0.3650
 8128SOL     OW32277   2.477   3.686   2.113 -0.4469  0.2795  0.2965
 8128SOL    HW232278   2.501   3.641   2.194 -0.2797 -0.1125  0.0320
 8128SOL    HW332279   2.470   3.779   2.138 -0.1293  0.1984  0.6955
 8128SOL    MW432280   2.479   3.693   2.127 -0.3830  0.2171  0.3143
 8129SOL     OW32281   5.251   1.488   4.301  0.1911  0.0219  0.2692
 8129SOL    HW232282   5.237   1.465   4.393  0.9539  0.9514  0.6367
 8129SOL    HW332283   5.314   1.424   4.269 -1.1668 -1.2111 -0.0419
 8129SOL    MW432284   5.257   1.477   4.309  0.1126 -0.0182  0.2766
 8130SOL     OW32285   2.646   0.762   3.797 -0.1906 -0.4012 -0.6016
 8130SOL    HW232286   2.734   0.768   3.760  0.1697 -0.7303  0.1961
 8130SOL    HW332287   2.629   0.668   3.806 -1.2573 -0.4083 -2.2190
 8130SOL    MW432288   2.655   0.751   3.793 -0.2838 -0.4455 -0.7098
 8131SOL     OW32289   1.284   1.169   4.693 -0.0574  0.4286  0.5929
 8131SOL    HW232290   1.322   1.083   4.674  0.1882  1.0069 -1.9351
 8131SOL    HW332291   1.268   1.168   4.787  4.5087 -0.5429  1.6070
 8131SOL    MW432292   1.287   1.158   4.703  0.5775  0.3767  0.3932
 8132SOL     OW32293   4.027   4.533   4.042  0.7447 -0.1426 -0.2822
 8132SOL    HW232294   4.000   4.588   4.116 -0.3732  2.3047 -2.3345
 8132SOL    HW332295   4.105   4.487   4.073  2.1564  3.0928  1.4711
 8132SOL    MW432296   4.034   4.534   4.056  0.7834  0.6072 -0.3217
 8133SOL     OW32297   0.518   5.874   2.616 -0.2109  0.5390 -0.3976
 8133SOL    HW232298   0.564   5.838   2.692 -0.6648  1.5467  0.3650
 8133SOL    HW332299   0.577   5.940   2.581  0.5213 -0.7289 -1.6657
 8133SOL    MW432300   0.532   5.878   2.621 -0.1742  0.5047 -0.4643
 8134SOL     OW32301   0.171   4.149   2.975  0.6343  0.4130  0.5648
 8134SOL    HW232302   0.232   4.087   2.936 -0.1797 -0.4865  0.7079
 8134SOL    HW332303   0.121   4.184   2.901  1.0417  0.8592  0.4930
 8134SOL    MW432304   0.172   4.146   2.960  0.5806  0.3532  0.5742
 8135SOL     OW32305   6.133   5.113   0.943  0.1776 -0.3820 -0.4025
 8135SOL    HW232306   6.101   5.122   0.854 -1.5333 -1.5042  0.0504
 8135SOL    HW332307   6.074   5.168   0.995  0.0740 -1.0823  0.2382
 8135SOL    MW432308   6.121   5.122   0.938 -0.0618 -0.6224 -0.2582
 8136SOL     OW32309   4.972   1.111   6.039  0.4541 -0.2530 -0.2345
 8136SOL    HW232310   5.061   1.148   6.041  0.6515 -0.7400  0.2064
 8136SOL    HW332311   4.967   1.057   6.118 -1.0067  1.5325  0.9741
 8136SOL    MW432312   4.983   1.109   6.050  0.2874 -0.0817 -0.0168
 8137SOL     OW32313   1.952   3.245   2.364 -0.2412  0.3557  0.6325
 8137SOL    HW232314   2.023   3.229   2.303 -0.1369  1.7298  0.3595
 8137SOL    HW332315   1.932   3.338   2.354 -2.2876 -0.0544  0.4782
 8137SOL    MW432316   1.958   3.255   2.355 -0.4975  0.4829  0.5761
 8138SOL     OW32317   0.648   1.704   5.428  0.1170  0.4647  0.6881
 8138SOL    HW232318   0.617   1.758   5.355  0.2537 -1.3627 -0.8066
 8138SOL    HW332319   0.570   1.659   5.459  0.5847 -1.5648 -0.8469
 8138SOL    MW432320   0.634   1.705   5.422  0.1967 -0.0442  0.2884
 8139SOL     OW32321   2.621   5.129   1.545  0.4112 -0.4008 -0.2953
 8139SOL    HW232322   2.605   5.109   1.637  0.2053  0.1515 -0.2077
 8139SOL    HW332323   2.645   5.045   1.506  0.4316 -0.6496  0.2460
 8139SOL    MW432324   2.622   5.115   1.552  0.3867 -0.3607 -0.2123
 8140SOL     OW32325   2.511   2.390   2.181  0.3890  0.3824 -0.4668
 8140SOL    HW232326   2.507   2.322   2.114 -0.6359  0.5699 -0.6091
 8140SOL    HW332327   2.520   2.341   2.263 -0.3751  0.0688 -0.5649
 8140SOL    MW432328   2.512   2.375   2.183  0.1530  0.3657 -0.4985
 8141SOL     OW32329   5.985   2.852   5.118 -0.2987  0.1018  0.1780
 8141SOL    HW232330   6.034   2.929   5.147  0.7352 -1.3803  2.5839
 8141SOL    HW332331   5.903   2.856   5.166 -0.2309 -0.3167  0.3289
 8141SOL    MW432332   5.981   2.863   5.128 -0.1533 -0.1490  0.5153
 8142SOL     OW32333   0.534   3.837   3.230  0.0026  0.7855 -0.2201
 8142SOL    HW232334   0.554   3.761   3.176 -0.5011 -0.7189  1.5808
 8142SOL    HW332335   0.439   3.839   3.234 -0.0052  1.8374 -0.6427
 8142SOL    MW432336   0.524   3.827   3.224 -0.0649  0.7258 -0.0383
 8143SOL     OW32337   5.808   2.600   4.167 -0.5950  0.1980 -0.0126
 8143SOL    HW232338   5.799   2.520   4.219  0.3400  0.8655  1.2232
 8143SOL    HW332339   5.794   2.671   4.230 -0.4140  1.0181 -0.8814
 8143SOL    MW432340   5.805   2.598   4.182 -0.4478  0.3943  0.0359
 8144SOL     OW32341   4.441   3.299   2.831 -0.0727 -0.0272 -0.1203
 8144SOL    HW232342   4.462   3.208   2.850 -0.7069 -0.2365 -0.4169
 8144SOL    HW332343   4.404   3.333   2.913  1.7085  0.4493  0.5261
 8144SOL    MW432344   4.439   3.291   2.844  0.0787  0.0081 -0.0741
 8145SOL     OW32345   2.531   2.638   1.944 -0.2366 -0.8380  0.0871
 8145SOL    HW232346   2.538   2.542   1.936  1.4464 -0.6591 -1.2827
 8145SOL    HW332347   2.531   2.654   2.038  0.0165 -2.1655  0.3367
 8145SOL    MW432348   2.532   2.627   1.955  0.0188 -0.9896 -0.0607
 8146SOL     OW32349   0.187   3.409   5.212  0.1342 -0.3749  0.4031
 8146SOL    HW232350   0.177   3.416   5.117  1.2592 -0.0214  0.2886
 8146SOL    HW332351   0.199   3.315   5.228  0.5001 -0.3770  0.1284
 8146SOL    MW432352   0.187   3.397   5.202  0.3309 -0.3285  0.3518
 8147SOL     OW32353   2.279   0.455   2.747  0.3459  0.5880  0.1893
 8147SOL    HW232354   2.369   0.425   2.760  0.0279 -1.1672 -1.1452
 8147SOL    HW332355   2.273   0.471   2.653 -0.6556  0.9246  0.2986
 8147SOL    MW432356   2.290   0.453   2.736  0.1718  0.4008  0.0276
 8148SOL     OW32357   5.492   1.695   3.956  0.1411  0.2021 -0.5318
 8148SOL    HW232358   5.581   1.706   3.989 -0.3462 -0.0827  0.9174
 8148SOL    HW332359   5.498   1.620   3.897  1.3013  1.5660 -2.2746
 8148SOL    MW432360   5.505   1.686   3.952  0.2299  0.3445 -0.5705
 8149SOL     OW32361   3.313   1.322   3.204  0.6795 -0.2022  0.1729
 8149SOL    HW232362   3.244   1.384   3.227 -0.3496 -0.9963 -0.7034
 8149SOL    HW332363   3.315   1.260   3.277 -0.6692 -1.1092 -0.5269
 8149SOL    MW432364   3.305   1.322   3.217  0.3658 -0.4267 -0.0350
 8150SOL     OW32365   2.499   4.037   0.460 -0.2289  0.3097  0.0260
 8150SOL    HW232366   2.409   4.032   0.428  0.2201 -0.3876 -1.2323
 8150SOL    HW332367   2.526   4.126   0.441 -0.2701  0.1655 -0.7480
 8150SOL    MW432368   2.491   4.048   0.453 -0.1751  0.1987 -0.2421
 8151SOL     OW32369   0.361   2.637   1.159 -0.7876  0.5750 -0.5867
 8151SOL    HW232370   0.411   2.601   1.086  0.5076 -0.8694  0.9237
 8151SOL    HW332371   0.383   2.730   1.160  4.5369 -0.3930  1.8033
 8151SOL    MW432372   0.370   2.645   1.150  0.0858  0.2568 -0.0721
 8152SOL     OW32373   3.938   4.544   4.637  0.7010 -0.3147 -0.4193
 8152SOL    HW232374   3.901   4.621   4.594 -0.2638 -0.5485 -0.0293
 8152SOL    HW332375   3.957   4.483   4.566  1.8865  0.4433 -0.7707
 8152SOL    MW432376   3.936   4.546   4.622  0.7301 -0.2455 -0.4142
 8153SOL     OW32377   3.082   3.487   0.853  0.3557  0.0599 -0.2970
 8153SOL    HW232378   3.175   3.469   0.862  0.1518 -1.9888 -1.5843
 8153SOL    HW332379   3.077   3.551   0.782  0.8068  0.6952  0.2369
 8153SOL    MW432380   3.093   3.493   0.845  0.3883 -0.1266 -0.3964
 8154SOL     OW32381   6.187   2.069   3.054 -0.0006 -0.0772  0.0654
 8154SOL    HW232382   6.167   2.145   3.108 -2.3413 -0.7026  0.2129
 8154SOL    HW332383   6.163   2.096   2.965  1.5853  0.1693 -0.3046
 8154SOL    MW432384   6.181   2.082   3.049 -0.1002 -0.1272  0.0361
 8155SOL     OW32385   2.973   4.173   3.781 -0.6395  0.1896  0.0178
 8155SOL    HW232386   3.051   4.185   3.835 -0.1718 -1.2228 -0.3060
 8155SOL    HW332387   2.904   4.150   3.844 -0.3066 -0.5519  0.1275
 8155SOL    MW432388   2.974   4.171   3.797 -0.5338 -0.0946 -0.0104
 8156SOL     OW32389   1.915   1.325   6.025  0.1273  0.4750  0.0733
 8156SOL    HW232390   1.905   1.282   5.940  0.3059  1.1489 -0.2968
 8156SOL    HW332391   1.910   1.418   6.006 -0.3693  0.6232  0.8833
 8156SOL    MW432392   1.913   1.331   6.011  0.0854  0.5834  0.1313
 8157SOL     OW32393   5.854   1.012   5.706  0.1103 -0.5727 -0.2820
 8157SOL    HW232394   5.814   0.959   5.638 -0.5298  1.2827 -1.4073
 8157SOL    HW332395   5.918   1.067   5.660 -0.3273  0.7150  0.5863
 8157SOL    MW432396   5.857   1.012   5.691 -0.0319 -0.1580 -0.3159
 8158SOL     OW32397   4.490   5.598   5.053 -1.2358 -0.0826  0.2351
 8158SOL    HW232398   4.512   5.582   4.961  0.0015  1.6165  0.1847
 8158SOL    HW332399   4.497   5.693   5.063 -2.2051 -0.1497  1.8908
 8158SOL    MW432400   4.494   5.609   5.042 -1.2004  0.1327  0.4469
 8159SOL     OW32401   0.773   2.863   1.470 -0.2810  0.4645 -0.2094
 8159SOL    HW232402   0.814   2.946   1.448 -2.4178  1.2118 -1.7188
 8159SOL    HW332403   0.679   2.883   1.475 -0.6364 -1.3029  2.2131
 8159SOL    MW432404   0.766   2.877   1.468 -0.6098  0.3299 -0.0889
 8160SOL     OW32405   2.347   0.801   0.308 -0.5077  0.2942 -0.0698
 8160SOL    HW232406   2.352   0.873   0.371 -0.6707  0.5944 -0.3948
 8160SOL    HW332407   2.391   0.728   0.351 -2.3884 -0.1325  1.2346
 8160SOL    MW432408   2.353   0.801   0.322 -0.7774  0.2775  0.0594
 8161SOL     OW32409   2.212   3.309   2.206 -0.0295 -0.1353  0.3124
 8161SOL    HW232410   2.291   3.291   2.155 -0.0547  0.0629  0.2043
 8161SOL    HW332411   2.181   3.394   2.174 -0.0475 -0.0109  0.6553
 8161SOL    MW432412   2.218   3.318   2.195 -0.0352 -0.0928  0.3434
 8162SOL     OW32413   4.320   1.368   6.141 -0.1759  0.2244  0.6362
 8162SOL    HW232414   4.236   1.396   6.105  0.8306  0.4441 -1.7157
 8162SOL    HW332415   4.355   1.308   6.075  1.1816 -0.4907  1.9484
 8162SOL    MW432416   4.313   1.364   6.127  0.1360  0.1591  0.4990
 8163SOL     OW32417   4.589   4.990   3.655  0.5876 -0.0657  0.0855
 8163SOL    HW232418   4.619   4.955   3.739  0.4946 -2.0583 -0.6478
 8163SOL    HW332419   4.666   5.033   3.618  1.2787 -1.1666  0.2111
 8163SOL    MW432420   4.603   4.991   3.661  0.6665 -0.4739  0.0053
 8164SOL     OW32421   1.802   2.451   2.409 -0.3958 -0.3838 -0.2299
 8164SOL    HW232422   1.816   2.384   2.476  0.7246 -0.3680 -0.4321
 8164SOL    HW332423   1.857   2.524   2.437 -0.6342 -0.0310 -0.6807
 8164SOL    MW432424   1.811   2.452   2.421 -0.2794 -0.3352 -0.3160
 8165SOL     OW32425   0.412   2.169   2.633  0.1751 -0.2323  0.1747
 8165SOL    HW232426   0.351   2.144   2.563 -2.3110 -0.4616  2.2816
 8165SOL    HW332427   0.420   2.264   2.625 -2.4063  0.1377  1.2540
 8165SOL    MW432428   0.405   2.178   2.623 -0.4935 -0.2138  0.5951
 8166SOL     OW32429   1.610   1.896   5.025  0.1368 -0.3053 -0.1162
 8166SOL    HW232430   1.527   1.869   4.986 -0.2412  0.5319  0.0839
 8166SOL    HW332431   1.662   1.929   4.952  0.3570 -0.9546 -0.2626
 8166SOL    MW432432   1.606   1.897   5.010  0.1160 -0.2805 -0.1091
 8167SOL     OW32433   6.391   5.648   5.788  0.8219 -0.1378  0.2261
 8167SOL    HW232434   6.383   5.743   5.789 -0.9168 -0.2439  0.7687
 8167SOL    HW332435   6.305   5.617   5.818  1.2218 -1.8816 -0.3271
 8167SOL    MW432436   6.379   5.656   5.792  0.6453 -0.3819  0.2247
 8168SOL     OW32437   4.751   0.119   2.314  0.2482  0.1353 -0.7245
 8168SOL    HW232438   4.715   0.105   2.226 -1.7221  2.6475 -0.4366
 8168SOL    HW332439   4.801   0.201   2.307 -0.9452  1.0386  0.6967
 8168SOL    MW432440   4.753   0.128   2.301 -0.1692  0.5859 -0.4990
 8169SOL     OW32441   4.184   2.782   2.735  0.2413 -0.0819 -0.6418
 8169SOL    HW232442   4.262   2.822   2.696  1.4774 -2.0738 -0.3552
 8169SOL    HW332443   4.201   2.688   2.731 -1.6583 -0.5239  0.4956
 8169SOL    MW432444   4.197   2.775   2.729  0.1538 -0.4030 -0.4540
 8170SOL     OW32445   1.299   4.499   0.861  0.0895 -0.1888 -0.1918
 8170SOL    HW232446   1.254   4.549   0.929 -1.1766 -0.2895 -0.9389
 8170SOL    HW332447   1.344   4.566   0.808 -1.6825  0.2290 -1.2535
 8170SOL    MW432448   1.299   4.515   0.863 -0.3113 -0.1470 -0.4305
 8171SOL     OW32449   1.264   3.912   3.681 -0.4509  0.0503 -0.1202
 8171SOL    HW232450   1.299   3.985   3.733  0.9925  0.0697 -1.0651
 8171SOL    HW332451   1.265   3.943   3.591  2.4659 -1.8629 -0.8868
 8171SOL    MW432452   1.269   3.926   3.676  0.1244 -0.1996 -0.3460
 8172SOL     OW32453   6.128   0.781   1.189  0.1540 -0.0971 -0.3163
 8172SOL    HW232454   6.162   0.864   1.222 -0.8420  0.3961 -0.4906
 8172SOL    HW332455   6.117   0.795   1.095 -1.4516  0.1208 -0.1279
 8172SOL    MW432456   6.131   0.794   1.181 -0.1892 -0.0033 -0.3145
 8173SOL     OW32457   1.256   1.233   1.563 -0.2124 -0.0028 -0.4714
 8173SOL    HW232458   1.243   1.323   1.592 -0.2347 -0.1743  0.0765
 8173SOL    HW332459   1.168   1.203   1.537 -0.0854  0.3536 -1.3285
 8173SOL    MW432460   1.243   1.241   1.564 -0.1986  0.0216 -0.5122
 8174SOL     OW32461   2.790   0.458   2.405  0.1163  0.3414 -0.0170
 8174SOL    HW232462   2.773   0.425   2.317 -2.3317 -0.2791  0.5967
 8174SOL    HW332463   2.705   0.494   2.433  1.3244  2.3196  1.3699
 8174SOL    MW432464   2.776   0.459   2.397 -0.0473  0.5206  0.2470
 8175SOL     OW32465   5.915   5.769   3.332  0.0896  0.0547 -0.3088
 8175SOL    HW232466   5.982   5.712   3.368 -0.8425  0.8833  3.1403
 8175SOL    HW332467   5.932   5.854   3.372 -0.3676  1.4479 -2.9176
 8175SOL    MW432468   5.926   5.772   3.342 -0.0937  0.3479 -0.1979
 8176SOL     OW32469   1.399   1.749   5.188 -0.4279 -0.5443  0.1214
 8176SOL    HW232470   1.449   1.828   5.212 -1.0911 -0.5548  1.6753
 8176SOL    HW332471   1.328   1.746   5.252 -1.3280 -1.5556 -0.9006
 8176SOL    MW432472   1.396   1.759   5.200 -0.6342 -0.6791  0.1916
 8177SOL     OW32473   0.762   0.526   0.261  0.1023  0.1969  0.0335
 8177SOL    HW232474   0.757   0.525   0.357  1.6781  1.3238  0.1802
 8177SOL    HW332475   0.709   0.601   0.235  0.7791  0.7258  0.1470
 8177SOL    MW432476   0.754   0.536   0.271  0.3995  0.4153  0.0678
 8178SOL     OW32477   1.113   4.505   4.597  0.0060 -0.2383 -0.6849
 8178SOL    HW232478   1.040   4.443   4.594 -0.6263  0.4075  0.4586
 8178SOL    HW332479   1.099   4.563   4.523  0.9733 -1.8149 -2.1732
 8178SOL    MW432480   1.101   4.504   4.587  0.0502 -0.3611 -0.7304
 8179SOL     OW32481   0.246   5.565   5.704  0.1117 -1.1394  0.4562
 8179SOL    HW232482   0.281   5.652   5.685  0.5342 -1.0963  1.3657
 8179SOL    HW332483   0.158   5.581   5.736  0.2751 -1.0283  0.8502
 8179SOL    MW432484   0.239   5.578   5.706  0.1890 -1.1190  0.6282
 8180SOL     OW32485   2.940   6.037   2.412  0.3170 -0.8589 -0.4800
 8180SOL    HW232486   2.864   6.004   2.363 -0.8037 -0.4135  0.8614
 8180SOL    HW332487   2.932   5.996   2.498  0.7338  0.3389  0.1600
 8180SOL    MW432488   2.929   6.027   2.417  0.2241 -0.6421 -0.2186
 8181SOL     OW32489   4.596   3.463   5.832 -0.0198  0.2797  0.2801
 8181SOL    HW232490   4.565   3.474   5.922  0.5457 -1.0365  0.6671
 8181SOL    HW332491   4.630   3.549   5.807 -1.6849  1.1052  0.7184
 8181SOL    MW432492   4.596   3.476   5.841 -0.1649  0.2150  0.3890
 8182SOL     OW32493   3.416   2.879   4.673  0.5680  0.0910  0.3063
 8182SOL    HW232494   3.408   2.807   4.736  1.3380  1.7661  2.4187
 8182SOL    HW332495   3.381   2.955   4.718  0.5216  1.2476 -1.5712
 8182SOL    MW432496   3.411   2.879   4.687  0.6634  0.4646  0.3373
 8183SOL     OW32497   5.854   1.489   0.827  0.1456 -0.2619  0.3370
 8183SOL    HW232498   5.837   1.545   0.752  2.7608  0.6233  0.3074
 8183SOL    HW332499   5.874   1.403   0.790  2.1325  0.3426 -0.1130
 8183SOL    MW432500   5.854   1.485   0.812  0.7528 -0.0654  0.2737
 8184SOL     OW32501   1.155   3.430   3.151 -0.4958  0.1955 -0.1652
 8184SOL    HW232502   1.189   3.463   3.068  0.4391 -0.6210 -0.1252
 8184SOL    HW332503   1.168   3.335   3.146 -0.9327  0.0812  0.6945
 8184SOL    MW432504   1.161   3.422   3.139 -0.4301  0.0727 -0.0465
 8185SOL     OW32505   1.840   6.332   4.827  0.1106 -0.0863 -0.4461
 8185SOL    HW232506   1.850   6.373   4.741 -0.9722 -1.2643 -1.1757
 8185SOL    HW332507   1.913   6.367   4.879  0.7908  0.6491 -1.8312
 8185SOL    MW432508   1.851   6.342   4.823  0.0575 -0.1447 -0.7251
 8186SOL     OW32509   1.562   5.872   4.115 -0.5954 -0.7496  0.1867
 8186SOL    HW232510   1.647   5.885   4.073 -0.7589 -1.1611 -0.2782
 8186SOL    HW332511   1.538   5.782   4.093  0.1873 -1.6620  2.7261
 8186SOL    MW432512   1.570   5.862   4.107 -0.5137 -0.9243  0.4604
 8187SOL     OW32513   3.031   0.673   1.144  0.0122  0.3777  0.1151
 8187SOL    HW232514   3.112   0.641   1.104  0.9464  1.7952  0.7747
 8187SOL    HW332515   3.051   0.677   1.238 -1.7576 -1.8377  0.6608
 8187SOL    MW432516   3.045   0.670   1.151 -0.0980  0.2724  0.2741
 8188SOL     OW32517   4.720   3.585   2.618 -0.4299  0.1496 -0.0864
 8188SOL    HW232518   4.784   3.588   2.548  2.0868  1.9623  2.0802
 8188SOL    HW332519   4.677   3.670   2.616 -1.8108 -0.5201 -0.5943
 8188SOL    MW432520   4.722   3.596   2.609 -0.2801  0.3004  0.1325
 8189SOL     OW32521   5.334   0.554   3.185  0.1400  0.3084  0.3262
 8189SOL    HW232522   5.290   0.610   3.121 -0.6469  1.0182  1.4475
 8189SOL    HW332523   5.361   0.477   3.135  0.4918  1.2866 -1.0765
 8189SOL    MW432524   5.332   0.551   3.170  0.0826  0.5311  0.2891
 8190SOL     OW32525   3.508   1.773   4.868 -0.1707 -0.4771  0.5865
 8190SOL    HW232526   3.539   1.847   4.921  0.4663 -0.4683  0.2197
 8190SOL    HW332527   3.584   1.751   4.813 -0.1287 -1.8168  1.1535
 8190SOL    MW432528   3.522   1.780   4.868 -0.0811 -0.6527  0.6129
 8191SOL     OW32529   5.669   5.374   4.213 -0.0536  0.5475 -0.5460
 8191SOL    HW232530   5.630   5.386   4.300 -0.0272  0.9113 -0.5844
 8191SOL    HW332531   5.652   5.456   4.167 -1.9052 -0.3466 -1.6085
 8191SOL    MW432532   5.661   5.386   4.218 -0.2944  0.4776 -0.6912
 8192SOL     OW32533   3.031   5.789   2.208 -0.1071 -0.2190  0.3764
 8192SOL    HW232534   2.967   5.830   2.150  1.5054  1.0369 -0.5989
 8192SOL    HW332535   3.047   5.703   2.168 -0.1771  0.0059 -0.1437
 8192SOL    MW432536   3.025   5.783   2.195  0.0964 -0.0237  0.1791
 8193SOL     OW32537   2.934   0.793   3.772 -0.1755  0.2854  0.3070
 8193SOL    HW232538   2.993   0.769   3.701  1.9311 -0.6072  2.2350
 8193SOL    HW332539   2.950   0.727   3.840 -1.5761  1.4893  1.8956
 8193SOL    MW432540   2.944   0.781   3.771 -0.0823  0.3265  0.7709
 8194SOL     OW32541   2.147   5.336   4.233 -0.0512 -0.2528  0.2545
 8194SOL    HW232542   2.127   5.245   4.208 -2.1774  0.1956  0.1519
 8194SOL    HW332543   2.237   5.349   4.203 -0.3256 -1.7493 -1.4446
 8194SOL    MW432544   2.157   5.325   4.226 -0.3679 -0.3911  0.0168
 8195SOL     OW32545   1.419   3.073   5.417  0.4207 -0.0446 -0.3424
 8195SOL    HW232546   1.477   3.033   5.482  0.6726  2.1493  0.8687
 8195SOL    HW332547   1.418   3.166   5.439 -3.4946  0.0620 -0.3522
 8195SOL    MW432548   1.426   3.080   5.428 -0.0626  0.2589 -0.1839
 8196SOL     OW32549   4.728   3.469   3.649 -0.2021  0.1029 -0.0586
 8196SOL    HW232550   4.643   3.432   3.626 -0.0658 -0.2967  0.0723
 8196SOL    HW332551   4.747   3.531   3.578 -1.5721  1.8065  0.9981
 8196SOL    MW432552   4.719   3.473   3.636 -0.3649  0.2749  0.0981
 8197SOL     OW32553   4.803   2.748   6.199 -0.4781  0.3170 -0.0423
 8197SOL    HW232554   4.758   2.764   6.281 -1.8854  1.0111 -0.9212
 8197SOL    HW332555   4.783   2.656   6.178  2.0089 -0.6952  1.6172
 8197SOL    MW432556   4.795   2.738   6.207 -0.3356  0.2750  0.0607
 8198SOL     OW32557   4.523   0.918   1.041 -0.1475 -0.6852  0.2004
 8198SOL    HW232558   4.562   0.968   1.113  2.4139 -2.3099  0.0347
 8198SOL    HW332559   4.560   0.831   1.048 -0.1059 -1.0261 -2.8593
 8198SOL    MW432560   4.533   0.913   1.051  0.1959 -0.9445 -0.2252
 8199SOL     OW32561   6.357   4.963   3.720  0.4817  0.3693  0.3599
 8199SOL    HW232562   6.291   5.024   3.753  0.1088 -0.4828  1.2616
 8199SOL    HW332563   6.376   4.906   3.795  1.5075 -0.0368 -0.1808
 8199SOL    MW432564   6.351   4.964   3.734  0.5678  0.2033  0.4075
 8200SOL     OW32565   5.591   1.698   1.823 -0.2653  0.0518 -0.2557
 8200SOL    HW232566   5.669   1.752   1.836 -0.8906  1.2786 -1.3849
 8200SOL    HW332567   5.518   1.759   1.831 -1.1435 -1.0839  0.8301
 8200SOL    MW432568   5.592   1.713   1.826 -0.4636  0.0638 -0.2614
 8201SOL     OW32569   4.523   3.076   3.733 -0.0786  0.1409  0.1670
 8201SOL    HW232570   4.473   3.008   3.688 -0.8413 -0.8057  2.3535
 8201SOL    HW332571   4.494   3.072   3.824 -0.3568  3.5839  0.3569
 8201SOL    MW432572   4.513   3.067   3.739 -0.2159  0.4703  0.4805
 8202SOL     OW32573   2.100   0.774   4.166  0.1214  0.0776  0.0367
 8202SOL    HW232574   2.155   0.741   4.095  0.3527 -0.3729  0.4257
 8202SOL    HW332575   2.012   0.744   4.143  0.5988 -2.6906  1.4454
 8202SOL    MW432576   2.096   0.766   4.154  0.2149 -0.3471  0.2739
 8203SOL     OW32577   5.198   4.336   1.027  0.2261  0.1255  0.3474
 8203SOL    HW232578   5.135   4.358   1.094 -0.0133  0.6664 -0.0507
 8203SOL    HW332579   5.198   4.411   0.967 -1.3740 -1.3179 -1.6201
 8203SOL    MW432580   5.190   4.349   1.028 -0.0166  0.0064  0.0353
 8204SOL     OW32581   4.817   3.132   4.444 -0.0053 -1.0269 -0.5228
 8204SOL    HW232582   4.754   3.173   4.384 -0.6751 -0.1962  0.7057
 8204SOL    HW332583   4.848   3.055   4.397 -0.9212 -0.7050 -1.7090
 8204SOL    MW432584   4.813   3.127   4.430 -0.2145 -0.8748 -0.5172
 8205SOL     OW32585   1.902   3.106   1.022 -0.4054 -0.2419 -0.4196
 8205SOL    HW232586   1.830   3.159   0.990 -0.8991 -1.0102 -0.6188
 8205SOL    HW332587   1.863   3.020   1.038  0.7377 -1.0595 -1.8060
 8205SOL    MW432588   1.887   3.101   1.020 -0.3198 -0.4512 -0.6288
 8206SOL     OW32589   4.631   4.332   3.281  0.2530  0.1704  0.8153
 8206SOL    HW232590   4.549   4.351   3.237  0.0866 -0.7410  0.7140
 8206SOL    HW332591   4.632   4.391   3.356  0.4562  1.6216 -0.2719
 8206SOL    MW432592   4.621   4.342   3.285  0.2579  0.2416  0.6585
 8207SOL     OW32593   0.903   2.465   4.186  0.0512  0.4710 -0.4778
 8207SOL    HW232594   0.808   2.470   4.171 -0.2532  0.9493  1.3208
 8207SOL    HW332595   0.911   2.458   4.281  1.7903 -0.8405 -0.6778
 8207SOL    MW432596   0.891   2.465   4.197  0.2405  0.3611 -0.2669
 8208SOL     OW32597   5.358   5.611   1.619 -0.3885  0.2396  0.7889
 8208SOL    HW232598   5.299   5.566   1.678 -0.4359 -0.5793  0.1422
 8208SOL    HW332599   5.301   5.655   1.556 -0.3225 -0.0613  0.5162
 8208SOL    MW432600   5.343   5.611   1.618 -0.3860  0.0919  0.6676
 8209SOL     OW32601   0.797   5.872   6.022 -0.2176  0.0552 -0.2094
 8209SOL    HW232602   0.795   5.912   6.109  0.5283 -1.2622  0.4575
 8209SOL    HW332603   0.863   5.921   5.974  0.2313  0.0372  0.3756
 8209SOL    MW432604   0.805   5.883   6.027 -0.0600 -0.1210 -0.0442
 8210SOL     OW32605   3.381   6.198   4.396 -0.2746  0.4748  0.0923
 8210SOL    HW232606   3.382   6.283   4.440  1.3153  1.4373 -1.6543
 8210SOL    HW332607   3.472   6.184   4.369 -0.5674 -1.6484  0.0581
 8210SOL    MW432608   3.393   6.208   4.398 -0.1035  0.3217 -0.1427
 8211SOL     OW32609   2.332   4.104   3.366 -0.0472 -0.3190  1.0847
 8211SOL    HW232610   2.389   4.093   3.442  0.8778  0.1794  0.4868
 8211SOL    HW332611   2.327   4.016   3.327  3.5141  0.2027 -1.0327
 8211SOL    MW432612   2.339   4.091   3.371  0.5447 -0.1844  0.7264
 8212SOL     OW32613   1.297   1.177   0.914  0.7745  0.7616 -0.3076
 8212SOL    HW232614   1.208   1.178   0.949  0.5783 -1.7710 -0.5707
 8212SOL    HW332615   1.343   1.244   0.964 -1.0482  1.5173  0.4524
 8212SOL    MW432616   1.292   1.186   0.925  0.5081  0.5272 -0.2420
 8213SOL     OW32617   0.407   3.020   4.691  0.6550  0.4848  0.3399
 8213SOL    HW232618   0.323   3.040   4.732  1.0748  1.8209  0.5783
 8213SOL    HW332619   0.438   3.104   4.656  1.4649 -0.1568 -0.5544
 8213SOL    MW432620   0.400   3.033   4.692  0.8173  0.5765  0.2534
 8214SOL     OW32621   3.661   1.752   4.626 -0.1109  0.0690  0.0585
 8214SOL    HW232622   3.662   1.662   4.594 -1.9379  0.7589 -2.3111
 8214SOL    HW332623   3.712   1.801   4.561 -1.6682  1.1302 -0.4476
 8214SOL    MW432624   3.668   1.747   4.613 -0.5574  0.3000 -0.3209
 8215SOL     OW32625   3.734   4.141   3.473  0.1694  0.1930  0.5124
 8215SOL    HW232626   3.795   4.069   3.463  0.6269  0.7714 -1.0834
 8215SOL    HW332627   3.682   4.118   3.550  2.2439 -0.4033  1.8021
 8215SOL    MW432628   3.735   4.129   3.482  0.5035  0.1906  0.4720
 8216SOL     OW32629   0.462   6.089   2.071 -0.4007 -0.6144 -0.1725
 8216SOL    HW232630   0.425   6.155   2.013  0.3890  0.2021  0.2265
 8216SOL    HW332631   0.402   6.015   2.065 -2.6039  0.9654  1.1258
 8216SOL    MW432632   0.449   6.088   2.063 -0.5872 -0.2983  0.0514
 8217SOL     OW32633   4.191   3.273   1.498  0.2638  0.1368 -0.4793
 8217SOL    HW232634   4.131   3.199   1.513  0.0044 -0.0019 -1.9812
 8217SOL    HW332635   4.168   3.304   1.410  1.6209  0.8291 -0.6120
 8217SOL    MW432636   4.180   3.267   1.488  0.4086  0.2098 -0.6950
 8218SOL     OW32637   5.389   0.833   0.947  0.0234  0.4146 -0.1764
 8218SOL    HW232638   5.320   0.811   1.009  0.6305  1.3137  0.8369
 8218SOL    HW332639   5.344   0.882   0.878 -0.4092  0.6663  0.2804
 8218SOL    MW432640   5.374   0.836   0.946  0.0464  0.5665  0.0176
 8219SOL     OW32641   5.446   0.382   5.073  0.2977 -1.0951  0.4965
 8219SOL    HW232642   5.422   0.457   5.019 -0.4037 -1.6442  0.0336
 8219SOL    HW332643   5.446   0.416   5.163 -0.0400 -0.5496  0.2948
 8219SOL    MW432644   5.443   0.396   5.078  0.1606 -1.0956  0.4088
 8220SOL     OW32645   2.788   3.866   3.878 -0.3512  0.0358 -0.0754
 8220SOL    HW232646   2.866   3.811   3.890  0.5273  1.3715  0.5506
 8220SOL    HW332647   2.718   3.818   3.922  0.7165  0.0913  1.7669
 8220SOL    MW432648   2.789   3.852   3.885 -0.0944  0.2193  0.2503
 8221SOL     OW32649   0.022   3.657   6.371 -0.5483 -0.0781 -0.2727
 8221SOL    HW232650   0.067   3.673   6.288  0.4135  1.3693  0.4698
 8221SOL    HW332651   0.058   3.575   6.403 -1.4392 -1.0314 -1.5678
 8221SOL    MW432652   0.033   3.649   6.364 -0.5389 -0.0129 -0.3456
 8222SOL     OW32653   3.755   1.437   4.259 -0.2970  0.1808  0.4979
 8222SOL    HW232654   3.781   1.516   4.211 -1.1260  0.9631  1.2890
 8222SOL    HW332655   3.832   1.380   4.256 -0.0160  0.5998 -0.9381
 8222SOL    MW432656   3.768   1.440   4.252 -0.3693  0.3393  0.4128
 8223SOL     OW32657   1.975   2.543   5.316 -0.3057 -0.2276 -0.4352
 8223SOL    HW232658   1.973   2.463   5.263 -0.4269 -0.6003  0.1214
 8223SOL    HW332659   2.062   2.544   5.356 -0.4062 -0.2311 -0.2152
 8223SOL    MW432660   1.986   2.533   5.314 -0.3349 -0.2772 -0.3328
 8224SOL     OW32661   3.100   2.088   0.391 -1.0685 -0.3480 -0.0320
 8224SOL    HW232662   3.151   2.160   0.429  0.4060 -1.7577  0.7814
 8224SOL    HW332663   3.010   2.119   0.393 -0.5476  1.2216  0.8875
 8224SOL    MW432664   3.095   2.101   0.396 -0.8052 -0.3269  0.1966
 8225SOL     OW32665   6.312   5.073   0.063  0.1850  0.2423  0.6004
 8225SOL    HW232666   6.294   4.981   0.044  0.9799 -0.4362  2.9337
 8225SOL    HW332667   6.227   5.116   0.050 -0.7532 -1.2029  1.6554
 8225SOL    MW432668   6.298   5.067   0.059  0.1661 -0.0379  1.0475
 8226SOL     OW32669   6.270   2.757   2.561 -0.2641 -0.6208  0.0101
 8226SOL    HW232670   6.222   2.677   2.581  0.3463 -1.2180 -0.8715
 8226SOL    HW332671   6.279   2.757   2.466 -0.6190  0.7150 -0.0465
 8226SOL    MW432672   6.265   2.747   2.551 -0.2304 -0.5234 -0.1137
 8227SOL     OW32673   2.765   3.372   0.578 -0.3210  0.0563 -0.2362
 8227SOL    HW232674   2.724   3.314   0.641 -1.0756  0.6458 -0.1730
 8227SOL    HW332675   2.723   3.457   0.593  1.3704  0.8605  0.2938
 8227SOL    MW432676   2.754   3.376   0.589 -0.1974  0.2402 -0.1580
 8228SOL     OW32677   0.342   4.190   5.704  0.3176  0.6290  0.1666
 8228SOL    HW232678   0.295   4.144   5.635  0.8889  1.6365 -0.9212
 8228SOL    HW332679   0.329   4.136   5.782 -0.0593 -0.6977 -0.7882
 8228SOL    MW432680   0.334   4.177   5.705  0.3433  0.5869 -0.1029
 8229SOL     OW32681   5.259   2.969   2.567  0.2018 -0.3552  0.1877
 8229SOL    HW232682   5.222   3.041   2.619 -0.5638 -0.9072  0.4219
 8229SOL    HW332683   5.250   2.998   2.477  0.6208  0.1830  0.3167
 8229SOL    MW432684   5.253   2.982   2.562  0.1561 -0.3570  0.2356
 8230SOL     OW32685   4.605   1.837   4.979 -0.0962  0.4989 -0.1760
 8230SOL    HW232686   4.644   1.751   4.995  0.8109  0.8956 -0.1953
 8230SOL    HW332687   4.557   1.857   5.059 -0.5317 -0.1409 -0.2736
 8230SOL    MW432688   4.604   1.829   4.991 -0.0339  0.4669 -0.1914
 8231SOL     OW32689   5.883   1.974   3.558  0.4134 -0.2131  0.9011
 8231SOL    HW232690   5.806   2.029   3.570  1.0162  0.8346  0.1413
 8231SOL    HW332691   5.946   2.005   3.623  0.4879 -0.5098  0.9708
 8231SOL    MW432692   5.881   1.985   3.568  0.5027 -0.1140  0.8101
 8232SOL     OW32693   0.394   2.337   0.792  0.1157  0.0929  0.1133
 8232SOL    HW232694   0.330   2.267   0.803 -0.6698  0.5457 -1.2987
 8232SOL    HW332695   0.405   2.345   0.697 -1.1149  3.0051  0.0959
 8232SOL    MW432696   0.387   2.329   0.781 -0.1503  0.5369 -0.0753
 8233SOL     OW32697   1.019   3.042   4.155 -0.0581 -0.4147  0.0001
 8233SOL    HW232698   0.991   2.951   4.147 -1.1316 -0.0631 -0.4300
 8233SOL    HW332699   0.958   3.081   4.217 -1.9766  0.8810 -2.4897
 8233SOL    MW432700   1.007   3.035   4.162 -0.4529 -0.1974 -0.3852
 8234SOL     OW32701   6.272   4.699   5.553 -0.1520  0.1220 -0.1991
 8234SOL    HW232702   6.270   4.767   5.486  1.3934 -0.2157 -0.6491
 8234SOL    HW332703   6.296   4.619   5.505  0.6804 -0.1847  0.6915
 8234SOL    MW432704   6.275   4.697   5.537  0.1617  0.0370 -0.1410
 8235SOL     OW32705   1.878   4.363   0.262  0.6074  0.2058 -0.1484
 8235SOL    HW232706   1.866   4.370   0.357 -0.1017  0.3262 -0.2388
 8235SOL    HW332707   1.790   4.345   0.228  0.9838 -0.6608 -0.7132
 8235SOL    MW432708   1.865   4.361   0.270  0.5635  0.1074 -0.2348
 8236SOL     OW32709   2.528   2.895   2.711 -0.4590 -0.3156  0.1212
 8236SOL    HW232710   2.433   2.885   2.712 -0.5668  0.2538 -1.3761
 8236SOL    HW332711   2.561   2.809   2.684 -0.6120 -0.2313 -0.3361
 8236SOL    MW432712   2.520   2.882   2.707 -0.4934 -0.2293 -0.1367
 8237SOL     OW32713   5.030   2.633   4.858 -0.6944  0.0582  0.0631
 8237SOL    HW232714   5.008   2.653   4.767  1.6661  0.7722 -0.4100
 8237SOL    HW332715   5.093   2.561   4.852 -0.1647  0.4172  1.0943
 8237SOL    MW432716   5.036   2.626   4.845 -0.3131  0.1998  0.1368
 8238SOL     OW32717   0.555   0.904  -0.025 -0.1138  0.1541  0.0693
 8238SOL    HW232718   0.563   0.965  -0.099 -1.9484 -0.4755 -0.7129
 8238SOL    HW332719   0.469   0.865  -0.036  0.3547 -1.3827  1.4873
 8238SOL    MW432720   0.545   0.907  -0.036 -0.2941 -0.1317  0.1532
 8239SOL     OW32721   0.252   3.990   2.415 -0.1859  0.2266  0.0255
 8239SOL    HW232722   0.160   3.977   2.392 -0.5828  0.1547  1.5201
 8239SOL    HW332723   0.250   4.005   2.510  1.4478 -1.0702  0.3104
 8239SOL    MW432724   0.239   3.990   2.425 -0.0227  0.0460  0.2603
 8240SOL     OW32725   3.628   3.931   2.082  0.6797 -0.1057 -0.0493
 8240SOL    HW232726   3.673   3.897   2.159 -0.6303 -0.9687  0.3703
 8240SOL    HW332727   3.559   3.988   2.117  2.4454  2.6513 -0.7191
 8240SOL    MW432728   3.624   3.934   2.096  0.7398  0.1442 -0.0823
 8241SOL     OW32729   5.111   2.923   2.207  0.0751 -0.2050 -0.2169
 8241SOL    HW232730   5.098   2.840   2.254  1.4215  0.4333  1.3876
 8241SOL    HW332731   5.130   2.897   2.117  4.2982 -1.9818  0.9282
 8241SOL    MW432732   5.111   2.909   2.201  0.8099 -0.3552  0.1459
 8242SOL     OW32733   0.575   1.128   0.234  0.1685 -0.2633 -0.0045
 8242SOL    HW232734   0.611   1.043   0.209  2.6499  0.6989 -0.0223
 8242SOL    HW332735   0.542   1.164   0.151  0.7463 -0.4890 -0.3416
 8242SOL    MW432736   0.575   1.122   0.219  0.5722 -0.1661 -0.0513
 8243SOL     OW32737   3.509   1.828   4.331 -1.0109  0.3239  0.2457
 8243SOL    HW232738   3.599   1.859   4.331 -0.1669 -1.8960 -1.8444
 8243SOL    HW332739   3.507   1.757   4.395 -0.3891 -1.6719 -1.8093
 8243SOL    MW432740   3.520   1.823   4.340 -0.8175 -0.2323 -0.3012
 8244SOL     OW32741   0.344   3.027   2.779 -0.0223 -0.6179  0.1552
 8244SOL    HW232742   0.284   3.002   2.850  0.0358 -1.6176 -0.1287
 8244SOL    HW332743   0.361   2.945   2.732  0.7400 -0.1531 -0.4059
 8244SOL    MW432744   0.338   3.013   2.782  0.0860 -0.6884  0.0437
 8245SOL     OW32745   3.618   3.319   2.472  0.1229 -0.5567 -0.3582
 8245SOL    HW232746   3.678   3.367   2.528 -0.1952 -2.1452  1.4752
 8245SOL    HW332747   3.531   3.344   2.503 -0.1117 -0.2663 -1.2218
 8245SOL    MW432748   3.614   3.328   2.483  0.0500 -0.7280 -0.2303
 8246SOL     OW32749   1.609   0.211   2.793 -0.5440 -0.4423  0.3299
 8246SOL    HW232750   1.593   0.269   2.719  1.3226 -0.1308  0.1224
 8246SOL    HW332751   1.626   0.270   2.867  2.2573 -0.6220 -0.0775
 8246SOL    MW432752   1.609   0.226   2.793  0.0718 -0.4249  0.2488
 8247SOL     OW32753   0.355   5.150   0.863 -0.0197 -0.1643 -0.4619
 8247SOL    HW232754   0.415   5.081   0.892  0.6950  0.6248 -0.0147
 8247SOL    HW332755   0.413   5.218   0.827 -0.4998  1.2961  1.4037
 8247SOL    MW432756   0.371   5.150   0.862  0.0112  0.1325 -0.1567
 8248SOL     OW32757   2.419   3.075   3.672  0.1213  0.1088  0.2186
 8248SOL    HW232758   2.396   3.041   3.585  0.3689 -2.4269  1.0518
 8248SOL    HW332759   2.513   3.095   3.666  1.1595 -3.7397  0.8173
 8248SOL    MW432760   2.428   3.073   3.659  0.2909 -0.7335  0.4075
 8249SOL     OW32761   0.050   3.534   5.687 -0.2607  0.0813  0.7470
 8249SOL    HW232762  -0.005   3.557   5.612 -0.7902  0.4737  1.2469
 8249SOL    HW332763  -0.011   3.526   5.760  0.2886  0.0072  1.2056
 8249SOL    MW432764   0.035   3.536   5.686 -0.2581  0.1233  0.8734
 8250SOL     OW32765   6.365   0.456   3.480 -0.8570  0.0223  0.2760
 8250SOL    HW232766   6.391   0.519   3.412  0.7959  0.7009  1.4551
 8250SOL    HW332767   6.349   0.375   3.432 -0.5941  0.6976 -1.0167
 8250SOL    MW432768   6.367   0.454   3.465 -0.6042  0.2010  0.2610
 8251SOL     OW32769   0.363   2.662   6.320  0.2528  0.2518  0.7140
 8251SOL    HW232770   0.453   2.654   6.353  0.0844  1.2113  1.4484
 8251SOL    HW332771   0.310   2.612   6.382  0.1599  0.4816  0.8181
 8251SOL    MW432772   0.368   2.654   6.332  0.2183  0.4087  0.8246
 8252SOL     OW32773   2.591   3.663   4.813 -0.0850  0.3216  0.2960
 8252SOL    HW232774   2.580   3.756   4.834 -0.4173  0.7995 -1.7906
 8252SOL    HW332775   2.509   3.639   4.768  0.5710 -0.5901 -0.4530
 8252SOL    MW432776   2.579   3.672   4.810 -0.0423  0.2643 -0.0781
 8253SOL     OW32777   5.238   2.101   5.054 -0.0691 -0.3816  0.0953
 8253SOL    HW232778   5.154   2.123   5.014 -0.6826  0.2808  1.6916
 8253SOL    HW332779   5.219   2.090   5.147  1.8033  0.8849  0.6811
 8253SOL    MW432780   5.225   2.102   5.061  0.0970 -0.1271  0.3832
 8254SOL     OW32781   4.735   3.833   4.036  0.2526 -0.2039 -0.2259
 8254SOL    HW232782   4.665   3.896   4.019  0.5334 -0.0183 -0.7085
 8254SOL    HW332783   4.715   3.759   3.979  0.1891 -0.3541 -0.0114
 8254SOL    MW432784   4.723   3.831   4.026  0.2813 -0.1993 -0.2613
 8255SOL     OW32785   4.362   5.423   0.500  0.3386 -0.2440 -0.5209
 8255SOL    HW232786   4.282   5.422   0.552 -0.2967 -3.1080 -1.4052
 8255SOL    HW332787   4.391   5.514   0.503 -2.1701  0.6036  0.9790
 8255SOL    MW432788   4.355   5.435   0.507 -0.0762 -0.5100 -0.4397
 8256SOL     OW32789   1.198   4.809   5.970 -0.1168 -0.4818  0.0695
 8256SOL    HW232790   1.191   4.715   5.956  0.7376 -0.3447 -1.4457
 8256SOL    HW332791   1.136   4.827   6.041 -2.1861 -1.7921 -1.3017
 8256SOL    MW432792   1.189   4.799   5.977 -0.2771 -0.6366 -0.3113
 8257SOL     OW32793   0.468   1.497   5.170  0.6198  0.3390 -0.1152
 8257SOL    HW232794   0.394   1.550   5.199  1.2508  1.3342 -0.2791
 8257SOL    HW332795   0.456   1.489   5.076  0.2199 -0.3068 -0.0161
 8257SOL    MW432796   0.457   1.503   5.162  0.6503  0.3851 -0.1238
 8258SOL     OW32797   2.633   6.270   6.055  0.1729  0.0291  0.7297
 8258SOL    HW232798   2.608   6.177   6.060  0.0948  0.1148  3.2045
 8258SOL    HW332799   2.557   6.313   6.015  0.1115 -0.9373 -0.2232
 8258SOL    MW432800   2.619   6.263   6.050  0.1545 -0.0871  0.9305
 8259SOL     OW32801   5.984   5.072   3.105 -0.9297  0.3539 -0.2889
 8259SOL    HW232802   6.039   5.098   3.179  1.2709  1.0387 -2.0513
 8259SOL    HW332803   5.967   5.154   3.057 -1.6600 -0.1672 -0.9486
 8259SOL    MW432804   5.989   5.086   3.108 -0.7357  0.3755 -0.6084
 8260SOL     OW32805   0.341   0.331   1.315  0.5030 -0.4667  0.0112
 8260SOL    HW232806   0.323   0.419   1.281 -1.3483 -1.2763 -1.2869
 8260SOL    HW332807   0.437   0.326   1.320  0.6660  1.3767 -0.5537
 8260SOL    MW432808   0.351   0.342   1.311  0.2802 -0.3303 -0.2346
 8261SOL     OW32809   2.665   4.517   5.617  0.1344  0.0967 -0.1766
 8261SOL    HW232810   2.724   4.581   5.577  0.0704 -0.3743 -1.0392
 8261SOL    HW332811   2.599   4.571   5.661  0.2090  0.6301 -0.7018
 8261SOL    MW432812   2.664   4.533   5.618  0.1358  0.1050 -0.3597
 8262SOL     OW32813   0.198   3.340   4.681 -0.6114 -0.1315 -0.4267
 8262SOL    HW232814   0.243   3.349   4.597 -1.3519  2.4969 -0.6558
 8262SOL    HW332815   0.251   3.391   4.742 -1.4963  0.2503  0.0493
 8262SOL    MW432816   0.211   3.348   4.678 -0.8259  0.2657 -0.3941
 8263SOL     OW32817   3.516   5.124   5.461 -0.1107 -0.3765  0.1190
 8263SOL    HW232818   3.525   5.179   5.539  1.8741  0.7367 -0.8274
 8263SOL    HW332819   3.575   5.050   5.477  1.6611  0.7310 -0.9868
 8263SOL    MW432820   3.525   5.121   5.473  0.3849 -0.0835 -0.1518
 8264SOL     OW32821   2.089   0.461   0.207  0.7320 -0.0904  0.2609
 8264SOL    HW232822   2.048   0.404   0.271 -1.7056 -0.0486 -1.1029
 8264SOL    HW332823   2.082   0.549   0.245  0.3057 -0.1960  0.4369
 8264SOL    MW432824   2.082   0.465   0.220  0.3541 -0.0988  0.1042
 8265SOL     OW32825   5.270   1.067   0.123 -0.0603  0.3249  0.2945
 8265SOL    HW232826   5.314   1.054   0.207  2.8548  1.4885 -0.9222
 8265SOL    HW332827   5.267   0.980   0.084  0.5586  0.1064  0.7153
 8265SOL    MW432828   5.276   1.054   0.129  0.4060  0.4496  0.1895
 8266SOL     OW32829   4.058   4.930   2.424 -0.5834  0.0287 -0.6800
 8266SOL    HW232830   3.983   4.984   2.446  0.2085  1.6818 -1.8791
 8266SOL    HW332831   4.031   4.881   2.346 -0.9208 -0.5119 -0.2303
 8266SOL    MW432832   4.045   4.931   2.417 -0.5235  0.1755 -0.7789
 8267SOL     OW32833   0.275   0.462   4.485  0.1473 -0.8059 -0.3519
 8267SOL    HW232834   0.234   0.507   4.559  0.5926  0.3217 -0.7760
 8267SOL    HW332835   0.300   0.377   4.520 -0.0439 -0.4506  0.6702
 8267SOL    MW432836   0.273   0.456   4.499  0.1808 -0.6102 -0.2730
 8268SOL     OW32837   2.480   2.384   1.038  0.1316  0.3320 -0.0189
 8268SOL    HW232838   2.447   2.391   1.128  1.4121  1.3806  0.4050
 8268SOL    HW332839   2.571   2.414   1.043  0.5475 -0.5493 -1.4967
 8268SOL    MW432840   2.488   2.389   1.050  0.3554  0.3541 -0.1580
 8269SOL     OW32841   3.929   2.880   2.264 -0.1572 -0.2276 -0.3055
 8269SOL    HW232842   3.853   2.933   2.239  2.4917  4.0195 -0.3331
 8269SOL    HW332843   3.958   2.917   2.347  1.2766 -2.5641  0.3327
 8269SOL    MW432844   3.923   2.891   2.272  0.3815  0.0245 -0.2250
 8270SOL     OW32845   0.643   5.600   0.021 -0.5723  0.2792  0.0142
 8270SOL    HW232846   0.726   5.647   0.017 -0.2625 -0.2800 -0.3322
 8270SOL    HW332847   0.611   5.614   0.110  0.3656 -0.2755  0.4536
 8270SOL    MW432848   0.649   5.608   0.032 -0.4077  0.1322  0.0265
 8271SOL     OW32849   4.117   2.705   6.047 -0.3186  0.1752 -0.2086
 8271SOL    HW232850   4.101   2.793   6.081  1.2374  0.2861  0.3371
 8271SOL    HW332851   4.210   2.705   6.025 -1.0889  0.0505 -4.3395
 8271SOL    MW432852   4.127   2.717   6.049 -0.2149  0.1734 -0.6816
 8272SOL     OW32853   4.219   0.641   5.115  0.0952  0.1429  0.0438
 8272SOL    HW232854   4.292   0.691   5.080  0.6189  0.4903  1.5818
 8272SOL    HW332855   4.172   0.611   5.037  0.5471  1.8387 -0.9423
 8272SOL    MW432856   4.222   0.643   5.100  0.2239  0.4125  0.1166
 8273SOL     OW32857   5.531   2.150   5.044  0.0550 -0.0824 -0.1579
 8273SOL    HW232858   5.549   2.243   5.041 -0.9219  0.1463  0.5736
 8273SOL    HW332859   5.436   2.144   5.054  0.2233 -1.1201  1.0839
 8273SOL    MW432860   5.521   2.161   5.045 -0.0517 -0.1891  0.1025
 8274SOL     OW32861   0.459   6.224   6.024 -0.0261  0.4240 -0.2668
 8274SOL    HW232862   0.398   6.289   6.058 -0.3480 -0.3546  0.7031
 8274SOL    HW332863   0.419   6.193   5.943 -0.5571  0.4506 -0.0165
 8274SOL    MW432864   0.446   6.228   6.018 -0.1387  0.3248 -0.1058
 8275SOL     OW32865   4.393   1.732   0.740  0.5626  0.1481 -0.1839
 8275SOL    HW232866   4.326   1.754   0.676 -1.9662 -2.4314  1.3701
 8275SOL    HW332867   4.411   1.639   0.726  2.5279  0.3493  0.6330
 8275SOL    MW432868   4.387   1.723   0.730  0.4882 -0.1657  0.1289
 8276SOL     OW32869   4.546   3.781   2.119 -0.0539  0.3026 -0.3613
 8276SOL    HW232870   4.453   3.802   2.106  0.6141  2.9590 -1.6038
 8276SOL    HW332871   4.572   3.837   2.192  1.0834  1.6090 -1.6859
 8276SOL    MW432872   4.537   3.791   2.127  0.1843  0.8255 -0.7000
 8277SOL     OW32873   5.418   1.974   2.156  0.0563  0.5051  0.0412
 8277SOL    HW232874   5.511   1.953   2.157  0.1279  0.8051 -0.2220
 8277SOL    HW332875   5.408   2.039   2.225 -0.1033 -0.1248  0.6201
 8277SOL    MW432876   5.429   1.980   2.165  0.0447  0.4615  0.0829
 8278SOL     OW32877   1.263   5.505   3.935 -0.1792 -0.0895 -0.2425
 8278SOL    HW232878   1.222   5.430   3.978  0.7432 -1.7756 -2.1569
 8278SOL    HW332879   1.196   5.539   3.876 -0.6561  0.7503  0.7514
 8278SOL    MW432880   1.249   5.500   3.933 -0.1204 -0.2012 -0.3640
 8279SOL     OW32881   3.621   1.450   4.994 -0.3819 -0.1744 -0.1995
 8279SOL    HW232882   3.670   1.371   5.017  1.6073  0.6127 -1.4352
 8279SOL    HW332883   3.685   1.522   5.005 -1.5612  1.0277 -0.9159
 8279SOL    MW432884   3.636   1.449   4.998 -0.2750  0.0881 -0.4570
 8280SOL     OW32885   1.287   1.104   4.157 -0.2620 -0.3655  0.3346
 8280SOL    HW232886   1.326   1.133   4.074  0.0890 -2.1354 -0.1534
 8280SOL    HW332887   1.349   1.132   4.224  0.4727 -0.6929 -0.1900
 8280SOL    MW432888   1.300   1.112   4.155 -0.1188 -0.6422  0.2010
 8281SOL     OW32889   2.174   1.874   5.496  0.5963  0.3017 -0.2713
 8281SOL    HW232890   2.116   1.847   5.426  1.1567 -1.4883 -0.1013
 8281SOL    HW332891   2.121   1.866   5.576  0.0042  2.1958 -0.4307
 8281SOL    MW432892   2.159   1.869   5.497  0.5921  0.3154 -0.2699
 8282SOL     OW32893   5.412   3.459   1.306 -0.2783 -0.2047  0.1750
 8282SOL    HW232894   5.345   3.449   1.373 -0.5104  0.4182  0.0453
 8282SOL    HW332895   5.417   3.374   1.264 -0.9142 -0.2874  0.2540
 8282SOL    MW432896   5.404   3.447   1.309 -0.3928 -0.1335  0.1683
 8283SOL     OW32897   1.530   1.987   5.328  0.3269  0.5284  0.5097
 8283SOL    HW232898   1.474   1.938   5.388  1.8541 -0.3261  1.3070
 8283SOL    HW332899   1.537   2.074   5.368 -0.4094  0.6468  0.3976
 8283SOL    MW432900   1.524   1.992   5.341  0.4313  0.4313  0.6001
 8284SOL     OW32901   4.396   4.120   1.580  0.6131 -0.4579 -0.3712
 8284SOL    HW232902   4.347   4.038   1.591 -0.7243  0.1468 -1.4782
 8284SOL    HW332903   4.488   4.093   1.579  0.2461 -1.8182  0.2897
 8284SOL    MW432904   4.401   4.105   1.581  0.3882 -0.5576 -0.4300
 8285SOL     OW32905   4.572   4.103   4.020  0.1749 -0.6174 -0.3840
 8285SOL    HW232906   4.542   4.077   3.932  1.5864 -1.0528 -0.7538
 8285SOL    HW332907   4.659   4.139   4.006 -0.0197  0.3302  0.7151
 8285SOL    MW432908   4.579   4.104   4.006  0.3355 -0.5498 -0.2878
 8286SOL     OW32909   0.664   2.816   0.212  0.0390 -0.5796 -0.2312
 8286SOL    HW232910   0.622   2.748   0.160  1.0501 -0.2436 -1.5626
 8286SOL    HW332911   0.593   2.858   0.259 -0.9664 -0.8133 -1.4781
 8286SOL    MW432912   0.649   2.813   0.211  0.0398 -0.5661 -0.5714
 8287SOL     OW32913   1.510   4.795   4.531  0.4435 -0.1422  0.3309
 8287SOL    HW232914   1.516   4.731   4.459  2.7606  0.8277 -0.4105
 8287SOL    HW332915   1.593   4.786   4.577  0.3745  1.6271  0.8346
 8287SOL    MW432916   1.522   4.785   4.527  0.7401  0.2192  0.2995
 8288SOL     OW32917   0.848   3.320   1.183 -0.4278 -0.0841 -0.2609
 8288SOL    HW232918   0.807   3.406   1.186 -0.3420 -0.0671  0.3804
 8288SOL    HW332919   0.909   3.325   1.109 -1.1668  0.0686 -0.8701
 8288SOL    MW432920   0.851   3.332   1.173 -0.5140 -0.0617 -0.2567
 8289SOL     OW32921   1.158   4.020   0.192  0.0937  0.0729 -0.3157
 8289SOL    HW232922   1.188   4.082   0.258  0.3806 -0.3772 -0.0173
 8289SOL    HW332923   1.165   4.068   0.109 -0.3102  0.6541 -0.0246
 8289SOL    MW432924   1.163   4.035   0.190  0.0782  0.0902 -0.2379
 8290SOL     OW32925   0.106   5.174   3.652 -0.5832 -0.3014  0.1024
 8290SOL    HW232926   0.082   5.262   3.680  0.0409  0.5287 -1.7730
 8290SOL    HW332927   0.058   5.116   3.711 -3.1460  1.2790 -0.2650
 8290SOL    MW432928   0.096   5.178   3.663 -0.8390  0.0166 -0.1935
 8291SOL     OW32929   3.564   2.339   1.928  0.5704  0.0232 -0.3627
 8291SOL    HW232930   3.650   2.301   1.945  0.6525  0.8942  1.3668
 8291SOL    HW332931   3.504   2.265   1.934  0.9952 -0.2722  0.5088
 8291SOL    MW432932   3.567   2.324   1.931  0.6373  0.0991 -0.0195
 8292SOL     OW32933   4.558   4.582   5.337 -0.4470  0.5717  0.2679
 8292SOL    HW232934   4.553   4.677   5.347  1.9898  1.0842 -2.0789
 8292SOL    HW332935   4.545   4.568   5.243  1.0653 -1.1822  0.2613
 8292SOL    MW432936   4.556   4.593   5.326  0.0740  0.4079 -0.0426
 8293SOL     OW32937   5.372   5.026   0.956 -0.5176 -0.0439 -0.0256
 8293SOL    HW232938   5.356   5.075   0.875  2.7017  0.1121 -0.6947
 8293SOL    HW332939   5.383   5.094   1.023 -0.2629 -0.0337 -0.0768
 8293SOL    MW432940   5.372   5.042   0.955 -0.0592 -0.0219 -0.1206
 8294SOL     OW32941   1.665   2.163   1.682 -0.0014  0.1522 -0.1310
 8294SOL    HW232942   1.598   2.221   1.717 -0.5084 -1.0491  1.0055
 8294SOL    HW332943   1.729   2.221   1.641 -0.7690  1.4527  0.4600
 8294SOL    MW432944   1.665   2.178   1.681 -0.1696  0.1653  0.0970
 8295SOL     OW32945   3.762   2.694   6.224 -0.7147  0.3976 -0.0819
 8295SOL    HW232946   3.711   2.640   6.285 -0.3671 -2.6967 -2.3043
 8295SOL    HW332947   3.849   2.656   6.224 -0.5797  0.5787 -2.1129
 8295SOL    MW432948   3.766   2.682   6.232 -0.6510  0.0133 -0.6431
 8296SOL     OW32949   1.164   4.984   1.268  0.9722  0.3432  0.2791
 8296SOL    HW232950   1.088   4.965   1.212  0.6187  1.1039  0.4838
 8296SOL    HW332951   1.238   4.946   1.221  0.4228 -0.7250  0.2448
 8296SOL    MW432952   1.164   4.976   1.254  0.8531  0.3026  0.3016
 8297SOL     OW32953   6.131   6.337   3.901  0.0679  0.0780  0.0092
 8297SOL    HW232954   6.046   6.349   3.943 -0.5634  1.8719 -1.5870
 8297SOL    HW332955   6.142   6.417   3.849  2.5876 -0.2710 -0.0925
 8297SOL    MW432956   6.121   6.349   3.900  0.3171  0.2686 -0.2148
 8298SOL     OW32957   1.848   1.748   5.108  0.1707  0.1468 -0.3471
 8298SOL    HW232958   1.832   1.659   5.075  0.1780 -0.4447  1.1761
 8298SOL    HW332959   1.765   1.794   5.094 -0.1030 -0.3489 -0.3585
 8298SOL    MW432960   1.835   1.742   5.102  0.1356  0.0033 -0.1477
 8299SOL     OW32961   0.298   3.803   0.131  0.3775 -0.3289 -0.2075
 8299SOL    HW232962   0.378   3.768   0.171 -0.9874 -1.1385  2.0022
 8299SOL    HW332963   0.233   3.734   0.144 -0.5926  0.0694 -2.4810
 8299SOL    MW432964   0.300   3.789   0.138  0.0695 -0.3831 -0.2159
 8300SOL     OW32965   6.377   0.573   0.055 -0.1950  0.0901  0.2081
 8300SOL    HW232966   6.321   0.509   0.098  0.2158  0.2957  1.0786
 8300SOL    HW332967   6.430   0.609   0.126  0.0734  0.8809 -0.3848
 8300SOL    MW432968   6.377   0.569   0.070 -0.1054  0.2215  0.2447
 8301SOL     OW32969   0.440   1.853   1.115  0.5631  0.2167 -0.7811
 8301SOL    HW232970   0.380   1.779   1.121 -0.3440  0.8520 -1.7385
 8301SOL    HW332971   0.483   1.856   1.200  0.4931 -1.3042 -0.6718
 8301SOL    MW432972   0.438   1.844   1.127  0.4342  0.0998 -0.8930
 8302SOL     OW32973   2.870   6.332   5.787 -0.0883  0.4922 -0.3431
 8302SOL    HW232974   2.829   6.246   5.775  0.8212  0.2210 -1.7506
 8302SOL    HW332975   2.964   6.315   5.782  0.1069  1.5544 -0.5690
 8302SOL    MW432976   2.877   6.318   5.785  0.0574  0.5966 -0.5586
 8303SOL     OW32977   5.329   4.299   2.749 -0.1482  0.4611 -0.3303
 8303SOL    HW232978   5.320   4.371   2.811 -1.4776 -0.6188  0.7955
 8303SOL    HW332979   5.349   4.342   2.666  0.0847  2.0524  0.5078
 8303SOL    MW432980   5.330   4.314   2.746 -0.2929  0.5286 -0.0712
 8304SOL     OW32981   0.129   0.099   4.246  0.2957 -0.2473 -0.4141
 8304SOL    HW232982   0.216   0.089   4.208  1.3821  2.0919  1.2000
 8304SOL    HW332983   0.132   0.046   4.327  0.4615  0.3316 -0.0361
 8304SOL    MW432984   0.141   0.090   4.252  0.4609  0.1377 -0.1512
 8305SOL     OW32985   2.766   3.413   2.630 -0.1213  0.5057  0.3080
 8305SOL    HW232986   2.700   3.424   2.697 -0.6152  1.6031 -0.3182
 8305SOL    HW332987   2.788   3.503   2.604  1.0875  0.1381  0.0042
 8305SOL    MW432988   2.760   3.427   2.635 -0.0270  0.6020  0.1853
 8306SOL     OW32989   2.890   4.666   3.902 -0.3307 -0.4138 -0.4535
 8306SOL    HW232990   2.821   4.731   3.891 -0.2006 -0.4250 -1.3968
 8306SOL    HW332991   2.850   4.583   3.875  0.0541 -0.4147 -1.0318
 8306SOL    MW432992   2.876   4.664   3.897 -0.2627 -0.4154 -0.6543
 8307SOL     OW32993   4.770   4.429   2.989  0.1160 -1.0357  0.2233
 8307SOL    HW232994   4.742   4.453   2.900 -0.9862  0.1314  0.8500
 8307SOL    HW332995   4.721   4.349   3.008 -1.2697 -0.1565  0.5208
 8307SOL    MW432996   4.759   4.422   2.980 -0.2123 -0.7657  0.3452
 8308SOL     OW32997   4.751   6.185   1.123  0.1864 -0.1280 -0.3854
 8308SOL    HW232998   4.728   6.112   1.066 -1.0248 -0.1079  0.0525
 8308SOL    HW332999   4.816   6.148   1.184 -0.6335 -0.9361  0.0219
 8308SOL    MW433000   4.757   6.170   1.124 -0.0816 -0.2320 -0.2738
 8309SOL     OW33001   4.247   1.650   1.902 -0.2150  0.3614 -0.1665
 8309SOL    HW233002   4.253   1.627   1.994  0.9334 -0.4040 -0.4105
 8309SOL    HW333003   4.179   1.717   1.898 -1.1336 -0.4510  1.0700
 8309SOL    MW433004   4.239   1.655   1.913 -0.1847  0.1532 -0.0355
 8310SOL     OW33005   2.908   2.732   4.793 -0.2235  0.5571  0.3480
 8310SOL    HW233006   2.942   2.648   4.825 -0.8483  0.2916  0.3384
 8310SOL    HW333007   2.940   2.738   4.703 -1.8582 -0.6827 -0.3783
 8310SOL    MW433008   2.917   2.721   4.785 -0.5216  0.3585  0.2509
 8311SOL     OW33009   2.475   6.083   5.115 -0.0056  0.2024 -0.0496
 8311SOL    HW233010   2.505   6.085   5.206  1.4441 -0.8634 -0.4566
 8311SOL    HW333011   2.423   6.003   5.108 -1.5816  1.1564  0.2208
 8311SOL    MW433012   2.472   6.073   5.126 -0.0223  0.1876 -0.0676
 8312SOL     OW33013   5.934   2.714   3.354 -0.4084  0.2107 -0.5554
 8312SOL    HW233014   5.935   2.762   3.272  1.0938  0.4792 -0.4110
 8312SOL    HW333015   5.978   2.771   3.416  0.6511 -0.9791 -0.1718
 8312SOL    MW433016   5.940   2.728   3.351 -0.0704  0.0892 -0.4857
 8313SOL     OW33017   1.048   0.946   2.676 -0.2068  0.0140  0.2948
 8313SOL    HW233018   0.962   0.974   2.645  0.8152  0.2069 -2.6960
 8313SOL    HW333019   1.105   1.021   2.661  0.6846 -0.3982  1.4205
 8313SOL    MW433020   1.044   0.959   2.670  0.0456 -0.0150  0.0487
 8314SOL     OW33021   0.179   5.146   0.257  0.1401 -0.2328 -0.6682
 8314SOL    HW233022   0.194   5.160   0.164  1.1186 -0.6775 -0.5910
 8314SOL    HW333023   0.099   5.195   0.277  0.7009  1.0342 -1.4423
 8314SOL    MW433024   0.171   5.155   0.248  0.3432 -0.1243 -0.7601
 8315SOL     OW33025   0.967   5.334   1.016  0.0619 -0.1446  0.1194
 8315SOL    HW233026   0.955   5.319   0.922  0.4654  1.1679 -0.1672
 8315SOL    HW333027   1.057   5.305   1.034 -0.1689 -0.8209  0.2045
 8315SOL    MW433028   0.977   5.328   1.006  0.0847 -0.0606  0.0928
 8316SOL     OW33029   5.417   1.983   0.135  0.0287 -0.1805 -0.3394
 8316SOL    HW233030   5.458   1.906   0.096  0.2214 -1.2521  1.7888
 8316SOL    HW333031   5.333   1.951   0.168 -0.7162  0.9937 -1.0286
 8316SOL    MW433032   5.412   1.969   0.134 -0.0442 -0.1669 -0.1495
 8317SOL     OW33033   2.057   0.463   5.200 -0.0308 -0.1391 -0.1168
 8317SOL    HW233034   2.101   0.395   5.149 -0.6359 -0.1604 -0.6265
 8317SOL    HW333035   2.083   0.446   5.290 -0.7192 -1.4690 -0.1491
 8317SOL    MW433036   2.066   0.452   5.205 -0.2015 -0.3174 -0.1883
 8318SOL     OW33037   6.129   5.487   0.837  0.2306 -0.2156 -0.2256
 8318SOL    HW233038   6.172   5.563   0.876  0.6750 -0.7450  0.3167
 8318SOL    HW333039   6.037   5.495   0.863 -0.1628  1.2432 -1.8797
 8318SOL    MW433040   6.123   5.498   0.845  0.2373 -0.0929 -0.3723
 8319SOL     OW33041   4.445   2.169   6.033  0.0138  0.0318  0.4441
 8319SOL    HW233042   4.463   2.081   6.000  1.7812  0.3319  0.4857
 8319SOL    HW333043   4.405   2.214   5.958 -1.1075 -0.8383  0.4872
 8319SOL    MW433044   4.442   2.163   6.018  0.0990 -0.0434  0.4553
 8320SOL     OW33045   0.158   4.425   1.982 -0.2335 -0.1858  0.2688
 8320SOL    HW233046   0.188   4.409   2.071 -0.2004 -0.5008  0.2018
 8320SOL    HW333047   0.235   4.411   1.927 -0.3283 -0.2883  0.1614
 8320SOL    MW433048   0.172   4.421   1.986 -0.2417 -0.2409  0.2458
 8321SOL     OW33049   1.956   2.149   3.828  0.2798 -0.5508 -0.2669
 8321SOL    HW233050   1.897   2.207   3.780  2.1708  2.1431  0.4382
 8321SOL    HW333051   1.914   2.135   3.912 -0.5204 -0.7922 -0.7009
 8321SOL    MW433052   1.943   2.155   3.833  0.4237 -0.2272 -0.2311
 8322SOL     OW33053   1.535   3.530   3.571  0.5230 -0.0948 -0.7629
 8322SOL    HW233054   1.521   3.616   3.610 -2.9320 -0.6412 -0.4652
 8322SOL    HW333055   1.538   3.470   3.645  0.9630 -0.4368 -1.0538
 8322SOL    MW433056   1.534   3.533   3.586  0.1252 -0.2120 -0.7620
 8323SOL     OW33057   5.658   4.246   0.252  0.0943  0.4649  0.5141
 8323SOL    HW233058   5.717   4.301   0.303 -0.6502  0.5711  1.2869
 8323SOL    HW333059   5.581   4.237   0.307  0.1277 -1.2165  0.3491
 8323SOL    MW433060   5.656   4.252   0.266  0.0005  0.2571  0.5943
 8324SOL     OW33061   2.230   4.038   0.361  0.1450 -0.5524  0.6222
 8324SOL    HW233062   2.179   4.024   0.441  1.9229 -2.8360  1.4612
 8324SOL    HW333063   2.229   3.953   0.316  1.8221 -0.2065 -0.1441
 8324SOL    MW433064   2.223   4.025   0.366  0.6008 -0.8081  0.6318
 8325SOL     OW33065   5.737   5.001   1.926 -0.0131  0.6210  0.0369
 8325SOL    HW233066   5.690   4.923   1.955  0.6000  0.3009  0.1963
 8325SOL    HW333067   5.693   5.027   1.846 -0.5090  0.3742  0.2232
 8325SOL    MW433068   5.725   4.994   1.919  0.0023  0.5462  0.0825
 8326SOL     OW33069   3.606   3.592   5.087 -0.5857  0.1210 -0.1854
 8326SOL    HW233070   3.701   3.594   5.074 -0.5065  1.5360  0.4763
 8326SOL    HW333071   3.570   3.593   4.999 -0.0165 -1.9129 -0.5062
 8326SOL    MW433072   3.614   3.592   5.074 -0.5002  0.0393 -0.1404
 8327SOL     OW33073   2.747   6.418   1.337  0.2394 -0.4108  0.2445
 8327SOL    HW233074   2.825   6.432   1.391 -0.0037 -0.0119  0.4919
 8327SOL    HW333075   2.699   6.349   1.382 -0.3201  0.4139  0.9326
 8327SOL    MW433076   2.751   6.411   1.350  0.1335 -0.2494  0.3680
 8328SOL     OW33077   3.141   4.030   2.615 -0.4572  0.2428 -0.6483
 8328SOL    HW233078   3.054   4.021   2.575 -0.2929 -0.2557 -0.9080
 8328SOL    HW333079   3.169   3.939   2.631  0.8646  0.3035 -2.3998
 8328SOL    MW433080   3.133   4.017   2.612 -0.2611  0.1851 -0.9137
 8329SOL     OW33081   5.325   1.995   6.157 -0.3046 -0.2783  0.6939
 8329SOL    HW233082   5.328   1.987   6.062 -1.2441  2.8087  0.3085
 8329SOL    HW333083   5.318   2.089   6.174  1.3671 -0.5745  3.9031
 8329SOL    MW433084   5.324   2.006   6.147 -0.2080  0.0899  1.0665
 8330SOL     OW33085   1.628   2.598   5.937  0.5468  0.1350 -0.4361
 8330SOL    HW233086   1.588   2.620   6.022  1.2353  1.9561 -0.5648
 8330SOL    HW333087   1.709   2.648   5.934  0.0973  0.8158 -2.5681
 8330SOL    MW433088   1.633   2.607   5.948  0.5783  0.4651 -0.7344
 8331SOL     OW33089   0.949   5.013   0.722 -0.4816  0.3758 -0.3902
 8331SOL    HW233090   0.994   5.021   0.807 -1.4533  0.6687  0.1048
 8331SOL    HW333091   0.862   5.048   0.737 -1.1629 -0.9078 -1.1306
 8331SOL    MW433092   0.944   5.019   0.735 -0.6997  0.2451 -0.4226
 8332SOL     OW33093   3.049   5.980   5.001 -0.0114 -0.0528 -0.5562
 8332SOL    HW233094   3.139   6.014   5.004  0.7988 -1.8254 -2.5640
 8332SOL    HW333095   3.019   5.999   4.912 -0.3490 -2.4672 -1.0143
 8332SOL    MW433096   3.057   5.987   4.990  0.0509 -0.6052 -0.8815
 8333SOL     OW33097   6.153   2.201   2.121 -0.5401 -0.6104  0.2553
 8333SOL    HW233098   6.189   2.205   2.033  1.3606 -1.9136  0.9125
 8333SOL    HW333099   6.221   2.239   2.177 -1.7534  0.2930  1.1715
 8333SOL    MW433100   6.167   2.206   2.117 -0.4494 -0.6631  0.4629
 8334SOL     OW33101   0.083   1.128   1.648  0.6578 -0.2129  0.4482
 8334SOL    HW233102   0.070   1.115   1.742  0.2860  0.9059  0.5714
 8334SOL    HW333103   0.118   1.045   1.616 -1.5251 -1.4686  1.1218
 8334SOL    MW433104   0.086   1.115   1.656  0.3208 -0.2310  0.5533
 8335SOL     OW33105   4.978   5.385   4.747  0.1561  0.0987 -0.2001
 8335SOL    HW233106   4.909   5.389   4.814 -0.7486 -0.7130 -1.0502
 8335SOL    HW333107   5.038   5.456   4.771 -1.7723  1.8649 -0.2868
 8335SOL    MW433108   4.977   5.395   4.759 -0.2177  0.2247 -0.3237
 8336SOL     OW33109   4.572   5.660   6.024  0.1812 -0.4356 -0.2635
 8336SOL    HW233110   4.489   5.695   5.992  0.0045 -0.4509  0.1802
 8336SOL    HW333111   4.560   5.650   6.118  1.4326  1.6978  0.1909
 8336SOL    MW433112   4.560   5.663   6.032  0.3230 -0.1562 -0.1450
 8337SOL     OW33113   3.748   5.080   2.076 -0.0563  0.2643  0.0206
 8337SOL    HW233114   3.664   5.125   2.066 -0.2918 -0.4032 -1.2289
 8337SOL    HW333115   3.727   4.999   2.123  0.3848  1.4345  2.3713
 8337SOL    MW433116   3.734   5.075   2.081 -0.0292  0.3306  0.1659
 8338SOL     OW33117   3.721   0.119   3.551 -0.8108 -0.0767 -0.1699
 8338SOL    HW233118   3.675   0.152   3.629  0.1222 -0.4362  0.5542
 8338SOL    HW333119   3.793   0.180   3.539 -0.4548 -0.5098 -0.2381
 8338SOL    MW433120   3.724   0.131   3.560 -0.6407 -0.1812 -0.0834
 8339SOL     OW33121   3.673   6.102   1.327 -0.5525 -0.3999 -0.3990
 8339SOL    HW233122   3.763   6.133   1.315 -0.9081  1.0294  0.4389
 8339SOL    HW333123   3.634   6.105   1.240  0.1387 -0.8518 -0.7375
 8339SOL    MW433124   3.680   6.106   1.314 -0.5082 -0.2710 -0.3331
 8340SOL     OW33125   6.032   0.386   3.564 -0.0047 -0.2378 -0.1103
 8340SOL    HW233126   6.040   0.409   3.472  1.1143 -1.3569 -0.3172
 8340SOL    HW333127   5.937   0.388   3.582 -0.1199  1.9330 -0.7359
 8340SOL    MW433128   6.020   0.389   3.554  0.1278 -0.0990 -0.2201
 8341SOL     OW33129   4.906   3.953   0.046 -0.3375  0.6762  0.4551
 8341SOL    HW233130   4.814   3.959   0.021  0.0211 -0.1857 -1.2707
 8341SOL    HW333131   4.942   4.040   0.030 -0.8753  1.0628  1.3062
 8341SOL    MW433132   4.899   3.965   0.040 -0.3612  0.6135  0.3397
 8342SOL     OW33133   0.397   1.961   0.458  0.2820  0.6465  0.1027
 8342SOL    HW233134   0.355   1.879   0.434  0.8437  0.4174 -0.1304
 8342SOL    HW333135   0.475   1.964   0.402  0.0984  1.4885 -0.1203
 8342SOL    MW433136   0.402   1.951   0.447  0.3319  0.7274  0.0425
 8343SOL     OW33137   5.616   4.428   5.846 -0.0817  0.3527 -0.4438
 8343SOL    HW233138   5.608   4.347   5.897 -0.0734  0.1296 -0.7953
 8343SOL    HW333139   5.600   4.401   5.756  1.2562  0.5011 -0.7432
 8343SOL    MW433140   5.613   4.413   5.841  0.0959  0.3428 -0.5297
 8344SOL     OW33141   2.568   5.364   5.525  0.3256 -0.6122  0.0182
 8344SOL    HW233142   2.563   5.274   5.559 -2.4425 -0.5626 -0.0811
 8344SOL    HW333143   2.524   5.417   5.590  3.3391  1.0701  0.8931
 8344SOL    MW433144   2.562   5.359   5.538  0.3580 -0.3837  0.1205
 8345SOL     OW33145   5.585   6.230   2.761 -0.0308 -0.3551 -0.2928
 8345SOL    HW233146   5.664   6.274   2.730  0.6488  0.1953  1.9771
 8345SOL    HW333147   5.525   6.233   2.687  1.1518  1.5762 -1.2625
 8345SOL    MW433148   5.587   6.236   2.747  0.2149 -0.0277 -0.1213
 8346SOL     OW33149   5.644   3.703   3.834  1.2718 -0.0480  0.2113
 8346SOL    HW233150   5.691   3.780   3.865  1.9920 -1.1511  1.9630
 8346SOL    HW333151   5.559   3.708   3.878  1.4734 -0.4794  0.6448
 8346SOL    MW433152   5.639   3.714   3.844  1.3934 -0.2505  0.4996
 8347SOL     OW33153   2.286   2.895   4.155  0.3229 -0.5297 -0.0309
 8347SOL    HW233154   2.382   2.897   4.147  0.2293 -0.4686 -1.4367
 8347SOL    HW333155   2.267   2.956   4.226  1.2104  1.3302 -1.2832
 8347SOL    MW433156   2.296   2.903   4.163  0.4276 -0.2762 -0.3816
 8348SOL     OW33157   5.252   1.204   2.411 -0.0604 -0.2390  0.3124
 8348SOL    HW233158   5.240   1.269   2.341 -1.6110  0.6272  1.3249
 8348SOL    HW333159   5.326   1.151   2.382 -0.0150  0.7358 -1.4961
 8348SOL    MW433160   5.260   1.206   2.398 -0.2590  0.0039  0.2074
 8349SOL     OW33161   2.122   1.583   5.778 -0.1571 -0.1784  0.1541
 8349SOL    HW233162   2.088   1.564   5.866 -0.1550 -1.7425 -0.1552
 8349SOL    HW333163   2.168   1.666   5.788 -2.5441  1.1626  0.9901
 8349SOL    MW433164   2.123   1.592   5.791 -0.4718 -0.2078  0.2236
 8350SOL     OW33165   0.897   1.815   5.046 -0.2967 -0.0062  0.5413
 8350SOL    HW233166   0.818   1.843   4.999 -0.3454  0.0961  0.6852
 8350SOL    HW333167   0.889   1.720   5.051  0.7330 -0.2672 -1.5326
 8350SOL    MW433168   0.886   1.806   5.040 -0.1673 -0.0271  0.2866
 8351SOL     OW33169   4.456   1.934   5.882  0.2305  0.1537 -0.0688
 8351SOL    HW233170   4.390   1.925   5.814 -0.2534 -0.2900  0.4560
 8351SOL    HW333171   4.521   1.866   5.862  0.1091  0.0501 -0.1099
 8351SOL    MW433172   4.456   1.924   5.871  0.1506  0.0815 -0.0050
 8352SOL     OW33173   2.919   0.423   1.085 -0.5943  0.1485 -0.3887
 8352SOL    HW233174   2.831   0.424   1.046 -0.6536  1.5090 -0.2804
 8352SOL    HW333175   2.929   0.511   1.122  0.3807 -0.3645  0.6003
 8352SOL    MW433176   2.908   0.435   1.085 -0.4735  0.2603 -0.2439
 8353SOL     OW33177   0.796   6.281   4.331  0.2969 -0.1786  0.9242
 8353SOL    HW233178   0.704   6.304   4.323  0.7106  1.3913  0.2630
 8353SOL    HW333179   0.821   6.253   4.243  0.6964  0.3775  0.8615
 8353SOL    MW433180   0.787   6.280   4.318  0.4042  0.1019  0.8287
 8354SOL     OW33181   2.519   1.534   5.012 -0.3214  0.2753 -0.4866
 8354SOL    HW233182   2.425   1.525   4.997 -1.3681  3.2856  2.7694
 8354SOL    HW333183   2.538   1.470   5.081 -0.1368  0.1369 -0.6658
 8354SOL    MW433184   2.509   1.525   5.019 -0.4351  0.6542 -0.0806
 8355SOL     OW33185   4.695   4.072   5.724 -0.5072 -0.4269 -0.1892
 8355SOL    HW233186   4.661   4.160   5.708  0.6108  0.0779  0.0543
 8355SOL    HW333187   4.749   4.054   5.647  1.4114  0.2347  0.9059
 8355SOL    MW433188   4.698   4.081   5.712 -0.1066 -0.2730 -0.0126
 8356SOL     OW33189   2.376   2.630  -0.035 -0.2136 -0.5662 -0.2929
 8356SOL    HW233190   2.435   2.572  -0.084  0.8510  0.3968 -0.1755
 8356SOL    HW333191   2.433   2.697   0.002 -1.2930 -0.0397  0.4652
 8356SOL    MW433192   2.392   2.631  -0.037 -0.2156 -0.3697 -0.1774
 8357SOL     OW33193   4.360   2.881   0.020 -0.1666 -0.2695 -0.5042
 8357SOL    HW233194   4.377   2.843   0.106  0.6939  0.1049 -0.5051
 8357SOL    HW333195   4.264   2.887   0.016 -0.2233 -0.3897  0.3777
 8357SOL    MW433196   4.349   2.877   0.031 -0.0605 -0.2360 -0.3880
 8358SOL     OW33197   3.651   5.515   1.330 -0.0398  0.1142  0.4025
 8358SOL    HW233198   3.592   5.475   1.266 -1.5667 -0.0505  1.8453
 8358SOL    HW333199   3.671   5.601   1.293 -1.6549  0.4097  0.1282
 8358SOL    MW433200   3.646   5.521   1.316 -0.4544  0.1314  0.5567
 8359SOL     OW33201   6.161   0.741   2.158 -0.0995  0.0522  0.3861
 8359SOL    HW233202   6.174   0.813   2.219 -0.0370  0.0896  0.3289
 8359SOL    HW333203   6.087   0.768   2.103 -1.6622 -0.9507  1.9021
 8359SOL    MW433204   6.153   0.754   2.159 -0.2975 -0.0752  0.5786
 8360SOL     OW33205   3.920   0.787   4.835 -0.2108 -0.5655  0.0512
 8360SOL    HW233206   3.844   0.791   4.777  0.7891  2.4649 -1.2296
 8360SOL    HW333207   3.883   0.791   4.923 -1.5879 -0.3842 -0.5108
 8360SOL    MW433208   3.905   0.788   4.839 -0.2606 -0.1418 -0.1919
 8361SOL     OW33209   2.586   3.333   5.716  0.5268  0.3704  0.4483
 8361SOL    HW233210   2.670   3.369   5.744  1.0280 -0.3675 -0.0485
 8361SOL    HW333211   2.606   3.241   5.696 -0.4177  0.1711  0.4036
 8361SOL    MW433212   2.600   3.325   5.717  0.4683  0.2467  0.3769
 8362SOL     OW33213   1.278   3.771   3.219 -0.4009  0.0784  0.7861
 8362SOL    HW233214   1.341   3.707   3.252  0.3469 -0.0392 -0.7938
 8362SOL    HW333215   1.283   3.844   3.281  3.4481  1.3454 -0.7325
 8362SOL    MW433216   1.287   3.773   3.231  0.2056  0.2301  0.3773
 8363SOL     OW33217   3.646   2.203   0.037  0.3983 -0.2826 -0.0700
 8363SOL    HW233218   3.702   2.263  -0.012  0.3958  0.5878  0.9776
 8363SOL    HW333219   3.613   2.254   0.111 -0.2980 -1.3210  0.3692
 8363SOL    MW433220   3.649   2.217   0.040  0.3061 -0.3048  0.1261
 8364SOL     OW33221   0.273   4.447   2.235  0.0201  0.0220  0.0235
 8364SOL    HW233222   0.287   4.508   2.306 -1.2470 -0.4350  0.7073
 8364SOL    HW333223   0.321   4.368   2.261  2.5152  0.9940 -1.3410
 8364SOL    MW433224   0.281   4.444   2.248  0.1821  0.0900 -0.0663
 8365SOL     OW33225   2.290   0.765   0.016 -0.6698  0.2269 -0.4913
 8365SOL    HW233226   2.304   0.671   0.003 -2.7681 -0.0107 -1.4936
 8365SOL    HW333227   2.338   0.786   0.096  1.0101 -1.3803 -1.0115
 8365SOL    MW433228   2.298   0.756   0.025 -0.7250 -0.0165 -0.6922
 8366SOL     OW33229   5.054   2.628   2.297  0.4224  0.2484  0.1360
 8366SOL    HW233230   4.992   2.559   2.275  0.5998  0.7240 -2.0753
 8366SOL    HW333231   5.043   2.641   2.391 -2.6329  0.1375 -0.1073
 8366SOL    MW433232   5.044   2.621   2.306  0.0427  0.2965 -0.1879
 8367SOL     OW33233   3.081   0.514   5.641 -0.2575  0.0345  0.1209
 8367SOL    HW233234   3.040   0.582   5.696 -0.0026 -0.3175  0.7503
 8367SOL    HW333235   3.066   0.545   5.552  0.4501  1.2862  0.4015
 8367SOL    MW433236   3.074   0.527   5.637 -0.1305  0.1532  0.2410
 8368SOL     OW33237   4.707   0.824   2.556 -0.4195 -0.0903 -0.0366
 8368SOL    HW233238   4.659   0.753   2.513 -0.0154 -1.9259  2.3552
 8368SOL    HW333239   4.646   0.898   2.556 -1.8189 -1.2107 -0.3486
 8368SOL    MW433240   4.693   0.825   2.550 -0.5508 -0.4803  0.2378
 8369SOL     OW33241   3.933   5.965   0.405  0.1366 -0.1994 -0.9909
 8369SOL    HW233242   3.902   5.913   0.330 -1.7389  1.0291 -1.1270
 8369SOL    HW333243   3.855   6.011   0.436  1.4669  1.5270 -0.0638
 8369SOL    MW433244   3.919   5.964   0.399  0.0647  0.1904 -0.8865
 8370SOL     OW33245   0.499   2.446   2.582 -0.5560  0.5974 -0.4964
 8370SOL    HW233246   0.519   2.455   2.489  3.1579 -1.3304 -0.0663
 8370SOL    HW333247   0.567   2.497   2.626  0.2110 -1.6565  1.1238
 8370SOL    MW433248   0.511   2.454   2.576  0.0352  0.0457 -0.2259
 8371SOL     OW33249   2.637   2.341   2.618  0.2043  0.9049  0.1233
 8371SOL    HW233250   2.607   2.307   2.534 -2.3159 -0.4366  1.4443
 8371SOL    HW333251   2.691   2.270   2.654  0.2131  0.9375  0.1755
 8371SOL    MW433252   2.640   2.327   2.612 -0.1270  0.7322  0.3044
 8372SOL     OW33253   4.428   1.938   3.935 -1.1008 -0.3530  0.0481
 8372SOL    HW233254   4.450   1.849   3.906 -1.4461 -0.3147 -0.3548
 8372SOL    HW333255   4.461   1.995   3.866 -1.4155 -0.2145  0.0087
 8372SOL    MW433256   4.435   1.934   3.922 -1.1879 -0.3296 -0.0103
 8373SOL     OW33257   3.137   1.927   2.866  0.5760  0.2059  0.0327
 8373SOL    HW233258   3.092   2.010   2.879 -0.6667 -0.4915  0.3092
 8373SOL    HW333259   3.211   1.930   2.926  0.4743  1.0527  0.1270
 8373SOL    MW433260   3.141   1.938   2.875  0.3986  0.2256  0.0817
 8374SOL     OW33261   3.652   1.223   6.074 -0.0492  0.1497 -0.1473
 8374SOL    HW233262   3.571   1.264   6.103  0.1244 -0.6411  1.5820
 8374SOL    HW333263   3.721   1.267   6.125  0.2910 -1.1196  0.5352
 8374SOL    MW433264   3.651   1.234   6.085  0.0186 -0.1221  0.1709
 8375SOL     OW33265   2.278   6.066   5.833 -0.6200  0.0535 -0.1914
 8375SOL    HW233266   2.260   6.083   5.926 -2.2184 -2.4258  0.0381
 8375SOL    HW333267   2.364   6.024   5.833 -0.5031  0.2882  0.1353
 8375SOL    MW433268   2.287   6.063   5.845 -0.8155 -0.2427 -0.1180
 8376SOL     OW33269   5.628   0.552   3.737 -0.4555  0.2054 -0.0553
 8376SOL    HW233270   5.602   0.585   3.651  1.2592 -0.9430 -1.0930
 8376SOL    HW333271   5.713   0.593   3.753  0.7147 -1.9006 -0.4002
 8376SOL    MW433272   5.636   0.562   3.728 -0.0749 -0.2240 -0.2377
 8377SOL     OW33273   1.300   4.039   6.105  0.3111 -0.3704 -0.0887
 8377SOL    HW233274   1.358   3.968   6.078 -1.0320 -0.9784 -1.5078
 8377SOL    HW333275   1.258   4.069   6.024 -1.7601 -0.3322  0.9194
 8377SOL    MW433276   1.302   4.034   6.091 -0.1394 -0.4456 -0.1429
 8378SOL     OW33277   4.052   3.465   2.751 -0.0219  0.3569  0.0987
 8378SOL    HW233278   4.090   3.383   2.719  0.1231  0.1643  0.7513
 8378SOL    HW333279   4.075   3.529   2.684  0.4593  0.0046 -0.0800
 8378SOL    MW433280   4.060   3.462   2.738  0.0607  0.2850  0.1612
 8379SOL     OW33281   6.006   3.027   0.763  0.1061  0.2056  0.1734
 8379SOL    HW233282   6.076   3.028   0.697  0.6002 -0.6780  0.6634
 8379SOL    HW333283   5.951   3.102   0.740  1.1386  0.8540 -0.2996
 8379SOL    MW433284   6.008   3.037   0.751  0.3075  0.1745  0.1756
 8380SOL     OW33285   6.287   1.643   3.474 -0.1787 -0.3307  0.2269
 8380SOL    HW233286   6.353   1.663   3.541  0.7433  1.5219 -1.1446
 8380SOL    HW333287   6.205   1.675   3.511  0.7960  3.8264 -0.6797
 8380SOL    MW433288   6.285   1.650   3.488  0.0716  0.4622 -0.0737
 8381SOL     OW33289   0.281   3.113   5.518 -0.5542  0.0690 -0.0566
 8381SOL    HW233290   0.271   3.122   5.423  0.3161  0.4673 -0.1161
 8381SOL    HW333291   0.281   3.203   5.551 -1.0842 -0.0752  0.3513
 8381SOL    MW433292   0.279   3.126   5.509 -0.5093  0.1025 -0.0106
 8382SOL     OW33293   0.291   3.047   0.590  0.2943  0.2452  0.2861
 8382SOL    HW233294   0.294   2.965   0.639 -0.0489 -0.1177 -0.2927
 8382SOL    HW333295   0.340   3.109   0.644 -1.5423  0.3209  1.9404
 8382SOL    MW433296   0.298   3.045   0.603  0.0067  0.2073  0.4280
 8383SOL     OW33297   3.888   4.424   1.298 -0.0529 -0.2563 -0.0192
 8383SOL    HW233298   3.977   4.444   1.326 -0.7697  1.0200  1.5068
 8383SOL    HW333299   3.898   4.355   1.233  1.9920 -0.6202  0.6175
 8383SOL    MW433300   3.901   4.418   1.293  0.1223 -0.1359  0.2661
 8384SOL     OW33301   3.430   2.978   4.275  0.0483 -0.5767 -0.6703
 8384SOL    HW233302   3.436   2.917   4.201 -0.5081 -1.4057 -0.0591
 8384SOL    HW333303   3.490   2.941   4.340  1.9002  1.1024 -1.3177
 8384SOL    MW433304   3.439   2.965   4.274  0.2193 -0.4646 -0.6751
 8385SOL     OW33305   2.392   5.576   4.617  0.0237  0.2326  0.1550
 8385SOL    HW233306   2.386   5.590   4.523 -1.8180 -1.4906 -0.0639
 8385SOL    HW333307   2.301   5.566   4.645  0.6060 -0.6028  1.8936
 8385SOL    MW433308   2.379   5.577   4.608 -0.1424 -0.1050  0.3555
 8386SOL     OW33309   6.297   4.120   3.941  0.4885  0.1395 -0.1584
 8386SOL    HW233310   6.258   4.177   3.876  2.5922  0.7755 -0.9482
 8386SOL    HW333311   6.335   4.048   3.891  0.7264 -0.2188  0.5150
 8386SOL    MW433312   6.297   4.118   3.926  0.7974  0.1762 -0.1738
 8387SOL     OW33313   4.810   0.476   1.131  0.4570  0.2026  0.2362
 8387SOL    HW233314   4.764   0.393   1.144  1.7617 -0.5149  0.4889
 8387SOL    HW333315   4.741   0.543   1.134 -0.5552 -0.8220  0.5520
 8387SOL    MW433316   4.795   0.474   1.133  0.4956 -0.0272  0.3112
 8388SOL     OW33317   3.415   3.819   1.414 -0.2679  0.9647 -0.6189
 8388SOL    HW233318   3.507   3.845   1.420  0.6844 -2.0478 -0.6239
 8388SOL    HW333319   3.414   3.726   1.434 -3.3434  0.8522 -0.7208
 8388SOL    MW433320   3.427   3.810   1.417 -0.5480  0.5524 -0.6330
 8389SOL     OW33321   3.499   5.187   2.096  0.7984 -0.0777  0.3626
 8389SOL    HW233322   3.495   5.135   2.175  0.5840 -1.1310 -0.3265
 8389SOL    HW333323   3.505   5.278   2.127 -0.5590 -0.3721  1.5738
 8389SOL    MW433324   3.500   5.192   2.110  0.5910 -0.2555  0.4315
 8390SOL     OW33325   3.448   2.496   2.130  0.4730  0.1784 -0.2873
 8390SOL    HW233326   3.454   2.452   2.045 -2.3191 -0.1348 -0.4299
 8390SOL    HW333327   3.365   2.544   2.126  1.5038  2.2751  1.3452
 8390SOL    MW433328   3.438   2.497   2.118  0.2406  0.4137 -0.0907
 8391SOL     OW33329   4.527   2.665   2.481 -0.0335 -0.3444 -0.1694
 8391SOL    HW233330   4.482   2.589   2.518 -1.1328 -0.1335 -1.0103
 8391SOL    HW333331   4.465   2.737   2.490 -0.4900 -0.3354 -2.5517
 8391SOL    MW433332   4.513   2.664   2.487 -0.2388 -0.3154 -0.5947
 8392SOL     OW33333   0.315   6.177   3.052 -0.3370  0.5010  0.5481
 8392SOL    HW233334   0.248   6.206   2.990  0.2946 -0.3734 -0.5875
 8392SOL    HW333335   0.348   6.095   3.015  1.6429  1.1054  0.8304
 8392SOL    MW433336   0.311   6.170   3.039  0.0076  0.4654  0.4355
 8393SOL     OW33337   0.702   5.753   0.680  0.5929  0.3861  0.4754
 8393SOL    HW233338   0.693   5.846   0.659  1.9986  0.9399  2.0532
 8393SOL    HW333339   0.698   5.749   0.776  0.0148 -1.2628  0.4179
 8393SOL    MW433340   0.701   5.764   0.690  0.7021  0.2416  0.6760
 8394SOL     OW33341   6.307   6.284   2.613 -0.1149  0.0850  0.3431
 8394SOL    HW233342   6.257   6.204   2.596  1.6252 -0.8607 -0.6239
 8394SOL    HW333343   6.245   6.342   2.658 -2.2400 -0.7777 -1.2986
 8394SOL    MW433344   6.292   6.281   2.617 -0.1657 -0.1536 -0.0011
 8395SOL     OW33345   5.791   1.061   4.574  0.1086  0.3033  0.0206
 8395SOL    HW233346   5.719   1.046   4.636 -0.2915 -1.4944 -0.8104
 8395SOL    HW333347   5.748   1.075   4.490  0.7052  0.3663 -0.2798
 8395SOL    MW433348   5.776   1.061   4.571  0.1345  0.0744 -0.1286
 8396SOL     OW33349   3.122   1.532   3.246 -0.4163  0.3320  0.2970
 8396SOL    HW233350   3.110   1.573   3.332 -0.4715 -1.3697  1.1455
 8396SOL    HW333351   3.055   1.464   3.243  0.1008 -0.1510 -0.7476
 8396SOL    MW433352   3.112   1.528   3.257 -0.3554  0.0437  0.2711
 8397SOL     OW33353   2.058   5.354   1.709 -0.1677 -0.8065  0.0944
 8397SOL    HW233354   2.075   5.446   1.691 -2.4758 -0.1613  0.7676
 8397SOL    HW333355   2.037   5.316   1.624 -0.1656 -0.4688 -0.0592
 8397SOL    MW433356   2.057   5.361   1.696 -0.4719 -0.6768  0.1629
 8398SOL     OW33357   1.972   1.575   5.304  0.4647 -0.0603  0.6291
 8398SOL    HW233358   1.921   1.650   5.274 -0.0336 -0.9642 -0.8797
 8398SOL    HW333359   2.053   1.580   5.254 -0.1869 -1.3378 -0.6152
 8398SOL    MW433360   1.976   1.586   5.294  0.3130 -0.3481  0.2659
 8399SOL     OW33361   4.816   4.074   4.986 -0.5265  0.0123  0.1528
 8399SOL    HW233362   4.822   4.058   5.080 -1.3621 -1.6043 -0.0335
 8399SOL    HW333363   4.889   4.132   4.967  0.2724 -0.4463  1.6345
 8399SOL    MW433364   4.826   4.079   4.996 -0.5313 -0.2615  0.3237
 8400SOL     OW33365   0.453   5.047   2.996  0.5862  0.9387  0.2142
 8400SOL    HW233366   0.418   5.127   3.034  2.6093  2.3246 -0.6804
 8400SOL    HW333367   0.500   5.076   2.918  2.6785 -0.9063  0.6844
 8400SOL    MW433368   0.454   5.061   2.991  1.1292  0.8781  0.1582
 8401SOL     OW33369   3.757   1.848   1.020  0.5088 -0.2131  0.2787
 8401SOL    HW233370   3.786   1.856   0.929  0.0552  0.7114  0.2069
 8401SOL    HW333371   3.679   1.793   1.015  0.6132 -0.3527  0.1453
 8401SOL    MW433372   3.751   1.842   1.007  0.4627 -0.1096  0.2516
 8402SOL     OW33373   0.150   4.620   4.362  0.4560 -0.3157  0.0790
 8402SOL    HW233374   0.234   4.647   4.400  0.4269 -1.5052  1.0215
 8402SOL    HW333375   0.100   4.701   4.354  1.0633  0.1781  1.0963
 8402SOL    MW433376   0.155   4.634   4.366  0.5323 -0.4075  0.3376
 8403SOL     OW33377   1.872   0.808   3.094  0.0099 -0.2054 -0.5172
 8403SOL    HW233378   1.818   0.835   3.019 -0.2337 -0.0348 -0.2791
 8403SOL    HW333379   1.890   0.715   3.078  0.0857 -0.1315 -0.8668
 8403SOL    MW433380   1.867   0.799   3.082 -0.0123 -0.1731 -0.5319
 8404SOL     OW33381   4.139   3.703   3.138 -0.2899 -0.2491  0.1727
 8404SOL    HW233382   4.080   3.664   3.073 -2.5981  0.9407  1.4138
 8404SOL    HW333383   4.188   3.769   3.089 -2.3334  0.9647 -0.3440
 8404SOL    MW433384   4.137   3.707   3.123 -0.8641  0.0680  0.2683
 8405SOL     OW33385   6.268   5.834   5.489 -0.1864 -0.6339  0.2749
 8405SOL    HW233386   6.182   5.861   5.521 -0.5321 -0.4408 -0.7982
 8405SOL    HW333387   6.280   5.745   5.523 -1.2137 -1.0175 -0.3370
 8405SOL    MW433388   6.258   5.826   5.498 -0.3675 -0.6590  0.0526
 8406SOL     OW33389   0.905   6.402   4.778 -0.3710 -0.0204 -0.7601
 8406SOL    HW233390   0.914   6.438   4.690 -1.9600 -1.0713 -1.3873
 8406SOL    HW333391   0.853   6.323   4.767  0.9283 -1.1955  0.8992
 8406SOL    MW433392   0.899   6.397   4.765 -0.4093 -0.3141 -0.6239
 8407SOL     OW33393   5.704   1.348   4.812 -0.1922 -0.1195  0.1067
 8407SOL    HW233394   5.703   1.293   4.890  0.9432 -0.2294  0.0671
 8407SOL    HW333395   5.743   1.431   4.842  1.7215 -0.6878 -0.6274
 8407SOL    MW433396   5.709   1.352   4.826  0.2101 -0.2090  0.0046
 8408SOL     OW33397   4.372   5.152   3.409 -0.1718 -0.7078 -0.1733
 8408SOL    HW233398   4.317   5.173   3.334  0.2217 -0.7751 -0.4834
 8408SOL    HW333399   4.379   5.234   3.458  1.0607 -0.1639 -1.1835
 8408SOL    MW433400   4.366   5.165   3.406  0.0427 -0.6450 -0.3475
 8409SOL     OW33401   6.204   1.471   0.596  0.0209 -0.0748 -0.5945
 8409SOL    HW233402   6.271   1.407   0.620 -0.2453 -0.0102  0.3364
 8409SOL    HW333403   6.144   1.424   0.538 -0.7695 -0.9878  0.9230
 8409SOL    MW433404   6.205   1.457   0.591 -0.1185 -0.1868 -0.2714
 8410SOL     OW33405   4.836   2.347   0.066  0.5035 -0.1059  0.0655
 8410SOL    HW233406   4.869   2.257   0.064  2.8403  0.7011 -1.8919
 8410SOL    HW333407   4.847   2.379  -0.023  2.3084  2.9470  1.2408
 8410SOL    MW433408   4.842   2.339   0.054  1.0499  0.4034 -0.0377
 8411SOL     OW33409   0.930   1.269   5.288 -0.0616  0.0756  0.1070
 8411SOL    HW233410   0.858   1.326   5.315  0.2048 -0.1748  1.3835
 8411SOL    HW333411   1.009   1.320   5.305  0.1603 -0.5145  0.8792
 8411SOL    MW433412   0.931   1.283   5.293  0.0028 -0.0353  0.3773
 8412SOL     OW33413   2.127   5.456   4.928 -0.3292 -0.5919 -0.0382
 8412SOL    HW233414   2.207   5.469   4.980 -0.3513 -0.3403 -0.0681
 8412SOL    HW333415   2.077   5.391   4.978  1.4222 -3.4630 -1.7072
 8412SOL    MW433416   2.131   5.449   4.942 -0.1010 -0.9375 -0.2624
 8413SOL     OW33417   1.644   5.187   0.064  0.3633  0.2684 -0.1303
 8413SOL    HW233418   1.636   5.277   0.094 -0.5730 -0.1065  0.8019
 8413SOL    HW333419   1.702   5.192  -0.012  0.8739  1.5515  0.3264
 8413SOL    MW433420   1.650   5.199   0.058  0.3071  0.3882  0.0530
 8414SOL     OW33421   1.393   0.023   5.801 -0.1062 -0.1029 -0.0096
 8414SOL    HW233422   1.466   0.062   5.754  0.6756 -0.8185  0.5875
 8414SOL    HW333423   1.329   0.093   5.808  1.3442  1.1527  1.2300
 8414SOL    MW433424   1.394   0.037   5.796  0.1883 -0.0317  0.2327
 8415SOL     OW33425   5.893   6.402   4.808 -0.9931 -0.1415 -0.6842
 8415SOL    HW233426   5.970   6.417   4.754  0.3109  2.6720  1.6412
 8415SOL    HW333427   5.835   6.475   4.789 -1.4139 -0.2281  0.1918
 8415SOL    MW433428   5.896   6.414   4.799 -0.8766  0.2182 -0.2618
 8416SOL     OW33429   6.239   3.425   1.244  0.4459 -0.1337 -0.2454
 8416SOL    HW233430   6.331   3.407   1.228  0.1130 -0.8421 -1.5276
 8416SOL    HW333431   6.195   3.398   1.163 -0.8916  0.1306  0.3637
 8416SOL    MW433432   6.245   3.419   1.231  0.2255 -0.1923 -0.3342
 8417SOL     OW33433   0.981   4.082   2.985  0.5836 -0.0424 -0.6169
 8417SOL    HW233434   0.942   4.016   3.043 -0.8455  0.3152 -1.1265
 8417SOL    HW333435   0.954   4.166   3.023  0.3275  0.2078 -1.3455
 8417SOL    MW433436   0.972   4.085   2.998  0.3613  0.0378 -0.7802
 8418SOL     OW33437   6.073   0.757   4.248 -0.0775 -0.2476 -0.4178
 8418SOL    HW233438   6.036   0.725   4.166  0.4909 -2.3258  0.0869
 8418SOL    HW333439   6.154   0.802   4.222  0.4648 -1.4981 -0.9584
 8418SOL    MW433440   6.079   0.759   4.234  0.0691 -0.6867 -0.4225
 8419SOL     OW33441   3.233   2.282   4.444  0.3734  0.3186 -0.0056
 8419SOL    HW233442   3.245   2.310   4.353 -0.6758  1.3697  0.1610
 8419SOL    HW333443   3.302   2.327   4.493  0.4299  0.4037 -0.1639
 8419SOL    MW433444   3.243   2.292   4.438  0.2424  0.4685 -0.0045
 8420SOL     OW33445   4.220   4.617   0.256  0.1562  0.0615  0.5529
 8420SOL    HW233446   4.299   4.569   0.282  0.0954 -0.5279 -0.2905
 8420SOL    HW333447   4.250   4.707   0.241  0.2843  0.3008  2.0966
 8420SOL    MW433448   4.234   4.622   0.257  0.1651  0.0153  0.6453
 8421SOL     OW33449   1.050   0.946   5.321  0.3208  0.5574 -0.1243
 8421SOL    HW233450   0.957   0.939   5.303  0.0675  2.1010  0.3567
 8421SOL    HW333451   1.054   0.989   5.407  1.4334  2.3938 -1.0345
 8421SOL    MW433452   1.038   0.951   5.330  0.4342  1.0033 -0.1809
 8422SOL     OW33453   0.914   4.381   2.962  0.2566 -0.4984 -0.1503
 8422SOL    HW233454   0.875   4.425   3.038  3.0013  0.7498  0.6431
 8422SOL    HW333455   0.977   4.444   2.928 -1.3655 -0.7145 -4.0138
 8422SOL    MW433456   0.917   4.395   2.968  0.4047 -0.3623 -0.5554
 8423SOL     OW33457   0.602   4.480   1.003  0.2198 -0.2900 -0.5598
 8423SOL    HW233458   0.604   4.491   1.098 -1.3091 -2.0504 -0.2701
 8423SOL    HW333459   0.515   4.512   0.977  0.9353  0.9892 -1.5317
 8423SOL    MW433460   0.590   4.486   1.012  0.1125 -0.3535 -0.6498
 8424SOL     OW33461   0.491   5.879   1.715  0.0729  0.0830 -0.0975
 8424SOL    HW233462   0.472   5.972   1.703 -1.5773  0.0749  1.8765
 8424SOL    HW333463   0.582   5.869   1.688  0.7532  2.5875  1.0455
 8424SOL    MW433464   0.501   5.890   1.710 -0.0550  0.4124  0.3137
 8425SOL     OW33465   6.235   5.806   2.622 -0.1792 -0.6608  0.7529
 8425SOL    HW233466   6.195   5.752   2.554  0.1774  0.7004 -0.5766
 8425SOL    HW333467   6.326   5.776   2.626  0.1438  0.1348 -0.3194
 8425SOL    MW433468   6.242   5.795   2.614 -0.0895 -0.3763  0.4360
 8426SOL     OW33469   1.582   6.402   3.857  0.8630  0.1677  0.5584
 8426SOL    HW233470   1.655   6.465   3.855  0.4875  0.6032  0.1945
 8426SOL    HW333471   1.618   6.323   3.818  0.6711  0.9263 -1.2962
 8426SOL    MW433472   1.596   6.400   3.851  0.7882  0.3252  0.2657
 8427SOL     OW33473   3.413   1.490   0.265  0.3567 -0.1091  0.0574
 8427SOL    HW233474   3.373   1.575   0.284  1.1586  0.4649 -0.7246
 8427SOL    HW333475   3.498   1.493   0.308  0.8994 -0.0069 -0.9820
 8427SOL    MW433476   3.419   1.501   0.273  0.5341 -0.0199 -0.1829
 8428SOL     OW33477   4.844   0.676   5.327  0.7004  0.1872  0.5988
 8428SOL    HW233478   4.810   0.722   5.404  2.8757  0.6484  1.3457
 8428SOL    HW333479   4.938   0.691   5.330  1.1112 -1.7884 -0.8640
 8428SOL    MW433480   4.852   0.684   5.337  1.0416 -0.0126  0.5044
 8429SOL     OW33481   4.809   1.795   0.013  0.6070 -0.0550 -0.1700
 8429SOL    HW233482   4.877   1.752   0.065  0.5338  0.9419  0.7835
 8429SOL    HW333483   4.759   1.846   0.077 -1.6630 -1.5125 -0.6747
 8429SOL    MW433484   4.812   1.796   0.028  0.2978 -0.1158 -0.1108
 8430SOL     OW33485   1.962   1.295   1.509  0.1465  0.4617 -0.3478
 8430SOL    HW233486   1.868   1.284   1.519  0.0651  0.6047 -0.8851
 8430SOL    HW333487   2.000   1.216   1.546 -0.2050  0.2548 -0.4218
 8430SOL    MW433488   1.955   1.283   1.515  0.0894  0.4532 -0.4284
 8431SOL     OW33489   4.746   4.391   1.767  0.0667 -0.0169  0.3961
 8431SOL    HW233490   4.815   4.377   1.703 -0.1106  0.5981  0.0689
 8431SOL    HW333491   4.754   4.317   1.827 -0.1197 -0.8997 -0.6395
 8431SOL    MW433492   4.756   4.379   1.767  0.0187 -0.0522  0.2163
 8432SOL     OW33493   4.586   0.742   4.632 -0.0450  0.7454 -0.0462
 8432SOL    HW233494   4.492   0.751   4.653  0.4356  2.2523  1.8354
 8432SOL    HW333495   4.630   0.759   4.716  1.9191 -0.0812 -0.8634
 8432SOL    MW433496   4.579   0.745   4.646  0.2776  0.8352  0.0942
 8433SOL     OW33497   3.210   3.618   6.164 -0.2683 -0.0640  0.6365
 8433SOL    HW233498   3.127   3.612   6.117 -0.3954  0.6860  0.7661
 8433SOL    HW333499   3.275   3.586   6.102 -0.5787 -0.1108  0.3364
 8433SOL    MW433500   3.208   3.613   6.150 -0.3260  0.0288  0.6140
 8434SOL     OW33501   1.303   2.930   4.650 -0.1993 -0.0385  0.0177
 8434SOL    HW233502   1.294   2.979   4.732 -0.1178 -0.5906  0.3622
 8434SOL    HW333503   1.350   2.990   4.591 -2.3734  1.3048 -0.4580
 8434SOL    MW433504   1.308   2.944   4.653 -0.4754  0.0659  0.0004
 8435SOL     OW33505   0.405   4.463   3.378 -0.5364 -0.3360 -0.5539
 8435SOL    HW233506   0.355   4.487   3.456 -0.6287 -1.4609 -0.2513
 8435SOL    HW333507   0.339   4.443   3.312 -0.4570  1.1546 -1.1089
 8435SOL    MW433508   0.390   4.463   3.380 -0.5381 -0.2878 -0.5872
 8436SOL     OW33509   3.803   2.055   5.392 -0.4654 -0.3568  0.3101
 8436SOL    HW233510   3.895   2.060   5.417 -0.3361 -1.3603  0.0810
 8436SOL    HW333511   3.761   2.009   5.464 -0.7702 -0.0275  0.3471
 8436SOL    MW433512   3.809   2.050   5.405 -0.4885 -0.4458  0.2848
 8437SOL     OW33513   1.317   4.966   2.605 -0.4397 -0.0769 -0.0768
 8437SOL    HW233514   1.393   5.019   2.630 -0.0935 -0.3767 -0.4825
 8437SOL    HW333515   1.276   4.941   2.688  0.5242 -0.8181  0.1924
 8437SOL    MW433516   1.322   4.970   2.619 -0.2668 -0.2142 -0.0948
 8438SOL     OW33517   3.931   3.603   5.660  0.0704 -0.4954  0.2713
 8438SOL    HW233518   3.902   3.537   5.723  1.8623  0.9787  2.8233
 8438SOL    HW333519   4.025   3.588   5.651  0.2072  0.6567 -0.4226
 8438SOL    MW433520   3.939   3.592   5.667  0.3249 -0.1489  0.5165
 8439SOL     OW33521   2.534   0.155   1.210 -0.5745 -0.3529 -0.0195
 8439SOL    HW233522   2.609   0.117   1.255  0.7321  1.2404 -0.7207
 8439SOL    HW333523   2.571   0.198   1.133 -1.9544  1.8092  0.4090
 8439SOL    MW433524   2.549   0.156   1.206 -0.5842  0.1426 -0.0555
 8440SOL     OW33525   2.772   3.809   4.573  0.2087 -0.0988 -0.6400
 8440SOL    HW233526   2.690   3.759   4.567  0.7119 -0.7830 -3.3019
 8440SOL    HW333527   2.838   3.750   4.538  1.4456  1.2092 -0.5988
 8440SOL    MW433528   2.770   3.795   4.567  0.4383 -0.0165 -0.9858
 8441SOL     OW33529   1.515   4.455   3.082  0.1616  1.1379  0.2384
 8441SOL    HW233530   1.473   4.371   3.065 -1.1384  1.8527 -0.2278
 8441SOL    HW333531   1.604   4.445   3.047 -0.1356  0.1250 -0.2639
 8441SOL    MW433532   1.521   4.443   3.075 -0.0491  1.0985  0.1106
 8442SOL     OW33533   1.313   2.596   1.674 -0.0272 -0.2806  0.5009
 8442SOL    HW233534   1.241   2.604   1.610  0.6950 -1.4306 -0.5145
 8442SOL    HW333535   1.377   2.540   1.630  1.2240  0.2145  1.6328
 8442SOL    MW433536   1.312   2.590   1.659  0.2332 -0.3670  0.5163
 8443SOL     OW33537   1.212   3.410   5.621 -0.4603 -0.1898  0.6368
 8443SOL    HW233538   1.161   3.465   5.562  0.9370  0.3390 -0.1048
 8443SOL    HW333539   1.296   3.397   5.577  0.3964 -0.2983  2.2157
 8443SOL    MW433540   1.216   3.416   5.608 -0.1629 -0.1343  0.7473
 8444SOL     OW33541   6.412   6.425   4.501  0.1824  0.7070 -0.2502
 8444SOL    HW233542   6.354   6.501   4.494  0.7313  1.0657 -1.1103
 8444SOL    HW333543   6.467   6.443   4.577  1.5545  2.0710 -1.5116
 8444SOL    MW433544   6.411   6.437   4.510  0.4359  0.9343 -0.5301
 8445SOL     OW33545   2.089   4.603   0.682 -0.1745 -0.0604  0.4433
 8445SOL    HW233546   2.117   4.677   0.628 -1.2237 -1.3347 -2.0070
 8445SOL    HW333547   2.165   4.545   0.685  0.0730  0.2737  0.8835
 8445SOL    MW433548   2.103   4.605   0.676 -0.2803 -0.1844  0.1781
 8446SOL     OW33549   5.687   1.086   1.809 -0.1492 -0.0209  0.3939
 8446SOL    HW233550   5.749   1.155   1.833 -0.1123  0.6027 -1.3087
 8446SOL    HW333551   5.740   1.022   1.762 -0.9451  1.3636 -2.6715
 8446SOL    MW433552   5.702   1.087   1.806 -0.2493  0.2440 -0.2352
 8447SOL     OW33553   3.678   1.142   0.375 -0.2667  0.3205  0.1240
 8447SOL    HW233554   3.621   1.108   0.306 -0.0186  0.6622 -0.2537
 8447SOL    HW333555   3.751   1.183   0.328  0.7973 -0.9405  0.5729
 8447SOL    MW433556   3.680   1.143   0.360 -0.0936  0.1992  0.1334
 8448SOL     OW33557   0.569   1.727   1.785 -0.0084  0.2283 -0.1828
 8448SOL    HW233558   0.486   1.760   1.820 -0.8338 -1.9975  0.1406
 8448SOL    HW333559   0.600   1.667   1.853  0.5156 -0.9538 -1.4294
 8448SOL    MW433560   0.562   1.723   1.799 -0.0482 -0.2213 -0.3046
 8449SOL     OW33561   1.797   0.921   6.112 -0.1843  0.4748  0.3297
 8449SOL    HW233562   1.806   0.829   6.086 -0.2634  0.2290  1.1498
 8449SOL    HW333563   1.887   0.950   6.130 -0.0613  0.8155 -0.7289
 8449SOL    MW433564   1.810   0.913   6.111 -0.1785  0.4873  0.2982
 8450SOL     OW33565   3.005   4.492   2.562  0.3139  0.2320 -0.1084
 8450SOL    HW233566   3.005   4.424   2.630 -0.6300 -0.6713 -0.9691
 8450SOL    HW333567   2.934   4.466   2.503 -1.2684  2.9334  0.4667
 8450SOL    MW433568   2.996   4.479   2.563 -0.0194  0.4692 -0.1461
 8451SOL     OW33569   1.703   3.777   0.738  0.2777  0.5040  0.2441
 8451SOL    HW233570   1.728   3.698   0.786 -0.1192  0.6384  0.6771
 8451SOL    HW333571   1.639   3.820   0.794 -1.1896  0.0037 -0.9790
 8451SOL    MW433572   1.698   3.772   0.751  0.0317  0.4557  0.1398
 8452SOL     OW33573   2.608   2.292   4.328  0.0192 -0.0444 -0.0829
 8452SOL    HW233574   2.530   2.320   4.281 -0.8532 -0.0901  1.2584
 8452SOL    HW333575   2.627   2.364   4.388 -1.9116 -1.8622  2.9878
 8452SOL    MW433576   2.600   2.305   4.330 -0.3507 -0.2902  0.4992
 8453SOL     OW33577   3.127   5.559   0.584  0.4476 -0.1602 -0.1374
 8453SOL    HW233578   3.189   5.603   0.525  0.5005 -0.2641 -0.1593
 8453SOL    HW333579   3.054   5.620   0.591  0.4577 -0.1310 -0.2807
 8453SOL    MW433580   3.126   5.573   0.577  0.4559 -0.1700 -0.1592
 8454SOL     OW33581   1.197   0.257   4.923  0.1527 -0.3174  0.1452
 8454SOL    HW233582   1.235   0.264   5.010  0.3015 -1.0162  0.1420
 8454SOL    HW333583   1.155   0.172   4.921  0.8143 -0.6502 -0.7154
 8454SOL    MW433584   1.197   0.247   4.934  0.2596 -0.4535  0.0312
 8455SOL     OW33585   0.518   2.808   4.289  0.1905 -0.3477  0.5267
 8455SOL    HW233586   0.444   2.777   4.238  1.0721 -1.8635  0.1062
 8455SOL    HW333587   0.520   2.751   4.366  0.2031  0.4742  1.1506
 8455SOL    MW433588   0.509   2.797   4.292  0.3085 -0.4393  0.5535
 8456SOL     OW33589   3.140   5.207   0.580 -0.5685 -0.6090  0.1989
 8456SOL    HW233590   3.072   5.220   0.646 -1.4330  1.5445 -1.0266
 8456SOL    HW333591   3.113   5.127   0.533 -2.5122  0.3898 -0.4899
 8456SOL    MW433592   3.127   5.198   0.582 -0.9390 -0.1931 -0.0536
 8457SOL     OW33593   1.051   3.651   1.218  0.4483  0.2094 -0.0909
 8457SOL    HW233594   1.094   3.667   1.302  3.5801  0.3860 -1.5652
 8457SOL    HW333595   1.041   3.738   1.179  0.1619  0.0388 -0.4020
 8457SOL    MW433596   1.056   3.665   1.224  0.8237  0.2102 -0.3264
 8458SOL     OW33597   0.587   6.110   0.007  0.1158  0.1118 -0.3093
 8458SOL    HW233598   0.492   6.106   0.017  0.0503  0.7427 -0.6604
 8458SOL    HW333599   0.602   6.172  -0.064  0.8448  1.2525  0.8031
 8458SOL    MW433600   0.576   6.117  -0.001  0.2033  0.3456 -0.2089
 8459SOL     OW33601   1.228   1.044   1.249  0.0859 -0.7260 -0.2069
 8459SOL    HW233602   1.244   0.953   1.272  0.1398 -0.6729 -0.0324
 8459SOL    HW333603   1.141   1.063   1.283  0.1909 -0.6296  0.0118
 8459SOL    MW433604   1.219   1.035   1.257  0.1068 -0.7063 -0.1550
 8460SOL     OW33605   5.239   4.078   4.134  0.4975 -0.8325  0.0338
 8460SOL    HW233606   5.301   4.011   4.164  2.4769  1.3305  1.1189
 8460SOL    HW333607   5.288   4.131   4.072 -0.6683  0.2485 -0.0087
 8460SOL    MW433608   5.254   4.076   4.130  0.6048 -0.4045  0.1714
 8461SOL     OW33609   5.893   2.274   3.857 -0.5910 -0.5907 -0.2286
 8461SOL    HW233610   5.926   2.361   3.878 -0.5294 -1.0279  1.6716
 8461SOL    HW333611   5.822   2.289   3.795 -0.1358  0.7436 -0.4519
 8461SOL    MW433612   5.888   2.288   3.851 -0.5228 -0.4723 -0.0073
 8462SOL     OW33613   4.839   5.833   0.036 -0.2111 -0.2006  0.4093
 8462SOL    HW233614   4.771   5.886   0.078  1.4502  0.2848  2.6952
 8462SOL    HW333615   4.920   5.882   0.050  1.0011 -2.0231  0.1668
 8462SOL    MW433616   4.841   5.846   0.043  0.1680 -0.3770  0.6789
 8463SOL     OW33617   2.116   4.243   2.251 -0.5413  0.1505  0.0841
 8463SOL    HW233618   2.059   4.284   2.186  2.2738  2.0470 -1.4407
 8463SOL    HW333619   2.089   4.280   2.335 -2.7902 -0.5930 -0.2686
 8463SOL    MW433620   2.105   4.253   2.254 -0.4666  0.3026 -0.1636
 8464SOL     OW33621   2.887   2.155   0.918 -0.3665  0.4198  0.5502
 8464SOL    HW233622   2.934   2.237   0.902  0.4309 -0.0179  0.5428
 8464SOL    HW333623   2.952   2.099   0.962 -1.2838  0.2146  1.6800
 8464SOL    MW433624   2.902   2.158   0.921 -0.3823  0.3350  0.6983
 8465SOL     OW33625   3.353   3.170   3.037 -0.0532 -0.0078 -0.7629
 8465SOL    HW233626   3.388   3.244   3.087  0.2424  0.2035 -1.2737
 8465SOL    HW333627   3.425   3.144   2.980 -0.0154 -0.9704 -0.2892
 8465SOL    MW433628   3.367   3.177   3.036 -0.0092 -0.1069 -0.7678
 8466SOL     OW33629   2.059   5.859   4.156  0.1443  0.3328  0.0971
 8466SOL    HW233630   2.079   5.808   4.234  1.5121  1.3252  0.4264
 8466SOL    HW333631   2.105   5.815   4.085  2.5695  1.8420  0.6250
 8466SOL    MW433632   2.068   5.847   4.157  0.6448  0.6629  0.2102
 8467SOL     OW33633   5.471   0.321   5.827 -0.5485 -0.3104  0.1879
 8467SOL    HW233634   5.428   0.391   5.877 -0.6362  0.1559 -0.5357
 8467SOL    HW333635   5.558   0.354   5.808 -1.1083  0.2922 -1.5225
 8467SOL    MW433636   5.477   0.335   5.831 -0.6339 -0.1694 -0.1333
 8468SOL     OW33637   0.749   6.352   0.582 -0.0908 -0.2056  0.1380
 8468SOL    HW233638   0.675   6.294   0.562 -0.1458  0.1837 -0.8838
 8468SOL    HW333639   0.763   6.342   0.676 -0.8794 -0.9499  0.1923
 8468SOL    MW433640   0.741   6.343   0.591 -0.2021 -0.2524  0.0103
 8469SOL     OW33641   4.092   5.666   4.417 -0.4727 -0.1981 -0.6249
 8469SOL    HW233642   4.002   5.632   4.421 -0.2687 -0.6426  0.4101
 8469SOL    HW333643   4.114   5.687   4.508  0.4731 -0.0720 -0.8718
 8469SOL    MW433644   4.083   5.664   4.430 -0.3210 -0.2401 -0.5209
 8470SOL     OW33645   0.208   5.480   1.821  0.3897 -0.3106  0.0017
 8470SOL    HW233646   0.211   5.415   1.892 -1.8318 -1.4186 -0.8290
 8470SOL    HW333647   0.124   5.523   1.833  1.1002  1.2647 -0.4926
 8470SOL    MW433648   0.197   5.477   1.832  0.1903 -0.2489 -0.1731
 8471SOL     OW33649   1.343   4.025   4.480  0.5003 -0.9011 -0.0473
 8471SOL    HW233650   1.376   4.002   4.567  1.8683  0.0892 -0.2821
 8471SOL    HW333651   1.290   4.103   4.494 -0.1277 -1.3310  0.0292
 8471SOL    MW433652   1.340   4.032   4.493  0.5980 -0.8272 -0.0682
 8472SOL     OW33653   2.399   3.571   3.223 -0.1111 -0.6165 -0.0323
 8472SOL    HW233654   2.322   3.531   3.261 -0.6200  1.0908  0.8419
 8472SOL    HW333655   2.383   3.665   3.228  0.3528 -0.2190 -3.3267
 8472SOL    MW433656   2.387   3.578   3.228 -0.1170 -0.3388 -0.3516
 8473SOL     OW33657   3.350   2.463   2.575 -0.2646 -0.1055 -0.2766
 8473SOL    HW233658   3.351   2.557   2.595  1.0783 -0.4957  1.7769
 8473SOL    HW333659   3.258   2.438   2.583 -0.7105  1.1095 -1.3204
 8473SOL    MW433660   3.338   2.472   2.579 -0.1462  0.0033 -0.1434
 8474SOL     OW33661   0.841   1.348   5.685  0.3710 -0.5226 -0.2676
 8474SOL    HW233662   0.935   1.327   5.683  0.2221 -1.2507  0.0299
 8474SOL    HW333663   0.832   1.412   5.755  0.5420 -0.9845  0.1761
 8474SOL    MW433664   0.852   1.354   5.694  0.3739 -0.6796 -0.1698
 8475SOL     OW33665   4.504   4.244   6.044  0.0646 -0.2771  0.3364
 8475SOL    HW233666   4.435   4.237   5.979  0.6483  1.3585 -0.5023
 8475SOL    HW333667   4.518   4.338   6.056  1.1014 -0.5517  1.6100
 8475SOL    MW433668   4.497   4.255   6.037  0.2784 -0.0975  0.3938
 8476SOL     OW33669   1.748   1.963   2.445  0.2568 -0.4451  0.0339
 8476SOL    HW233670   1.714   1.907   2.376  0.5602  0.7761 -1.1455
 8476SOL    HW333671   1.842   1.969   2.426  0.4903 -0.7563  1.0428
 8476SOL    MW433672   1.756   1.956   2.433  0.3277 -0.3250  0.0114
 8477SOL     OW33673   2.070   0.054   5.848  0.3372 -0.0904  0.1678
 8477SOL    HW233674   2.154   0.045   5.802 -0.3116 -0.3520 -1.0096
 8477SOL    HW333675   2.088   0.023   5.937  1.1453 -1.5852 -0.4817
 8477SOL    MW433676   2.084   0.048   5.854  0.3582 -0.3221 -0.0732
 8478SOL     OW33677   5.838   0.308   2.009 -0.1143 -0.5712 -0.0571
 8478SOL    HW233678   5.824   0.232   2.066 -1.3877  0.5838  1.2173
 8478SOL    HW333679   5.810   0.383   2.060  0.2271  0.6966 -1.6370
 8478SOL    MW433680   5.832   0.308   2.023 -0.2373 -0.2515 -0.0974
 8479SOL     OW33681   3.853   4.392   4.849 -0.5715 -0.1370  0.3472
 8479SOL    HW233682   3.932   4.338   4.853 -1.2466 -1.2027 -0.2303
 8479SOL    HW333683   3.876   4.463   4.790  0.2544  0.0732  0.9107
 8479SOL    MW433684   3.866   4.394   4.842 -0.5516 -0.2499  0.3453
 8480SOL     OW33685   5.819   0.258   4.087 -0.2768  0.0085 -0.1206
 8480SOL    HW233686   5.802   0.170   4.052 -0.4681 -0.2545  0.6142
 8480SOL    HW333687   5.742   0.309   4.064 -0.9852 -0.5057  1.0056
 8480SOL    MW433688   5.807   0.253   4.080 -0.3955 -0.0941  0.1249
 8481SOL     OW33689   3.804   1.993   0.130 -0.5973 -0.0897  0.3983
 8481SOL    HW233690   3.891   2.025   0.110 -0.8134 -1.3567 -3.3144
 8481SOL    HW333691   3.746   2.067   0.110 -0.5877 -0.3893 -0.7982
 8481SOL    MW433692   3.808   2.007   0.125 -0.6246 -0.2964 -0.2494
 8482SOL     OW33693   1.572   4.855   3.705  0.3720  0.0992 -0.2073
 8482SOL    HW233694   1.594   4.912   3.779 -1.2927  3.4940 -2.0712
 8482SOL    HW333695   1.655   4.838   3.662  0.9567  0.8833  0.5840
 8482SOL    MW433696   1.586   4.860   3.709  0.2295  0.6505 -0.3489
 8483SOL     OW33697   0.447   2.199   4.827 -0.0387 -0.1654 -0.2070
 8483SOL    HW233698   0.473   2.133   4.763  2.5172 -0.6995  1.2078
 8483SOL    HW333699   0.507   2.272   4.811 -1.1789  0.8116 -0.1397
 8483SOL    MW433700   0.459   2.200   4.817  0.1481 -0.1070 -0.0114
 8484SOL     OW33701   5.785   2.118   2.971  0.0114  0.0622 -0.0826
 8484SOL    HW233702   5.836   2.122   3.052  2.9843 -1.6631 -1.7252
 8484SOL    HW333703   5.717   2.053   2.989  0.2467  0.1452  1.2016
 8484SOL    MW433704   5.783   2.110   2.984  0.4347 -0.1545 -0.1299
 8485SOL     OW33705   5.393   5.357   1.843  0.2408 -0.3886 -0.4781
 8485SOL    HW233706   5.438   5.272   1.837  0.6680 -0.1071 -1.4142
 8485SOL    HW333707   5.327   5.353   1.774  2.3517  1.2337 -2.7744
 8485SOL    MW433708   5.391   5.345   1.833  0.5757 -0.1374 -0.9045
 8486SOL     OW33709   1.268   5.868   1.561 -0.0894 -0.2889 -0.3120
 8486SOL    HW233710   1.189   5.922   1.565  0.5733  0.8712 -2.0387
 8486SOL    HW333711   1.242   5.785   1.603 -1.7391  0.6051  0.5405
 8486SOL    MW433712   1.254   5.864   1.567 -0.2196 -0.0179 -0.4273
 8487SOL     OW33713   4.661   3.892   1.264  0.0673  0.3029 -0.0243
 8487SOL    HW233714   4.591   3.860   1.322 -1.9549  0.0144 -2.4255
 8487SOL    HW333715   4.639   3.984   1.249  1.6751  0.9182  1.0750
 8487SOL    MW433716   4.649   3.900   1.270  0.0126  0.3460 -0.1961
 8488SOL     OW33717   1.854   3.637   1.239 -0.1147 -0.3134 -0.4499
 8488SOL    HW233718   1.882   3.667   1.325 -0.7344  0.0741 -0.3770
 8488SOL    HW333719   1.927   3.658   1.181  0.6575 -1.3261  0.1106
 8488SOL    MW433720   1.867   3.643   1.243 -0.0946 -0.3959 -0.3663
 8489SOL     OW33721   6.308   1.066   3.042 -0.3497  0.2737  0.2368
 8489SOL    HW233722   6.290   1.058   2.948 -0.6152  1.3439  0.1796
 8489SOL    HW333723   6.223   1.087   3.081  0.1275  2.0506  0.4045
 8489SOL    MW433724   6.294   1.068   3.035 -0.3218  0.6494  0.2514
 8490SOL     OW33725   1.135   3.779   2.138 -0.2535 -0.0309  0.0480
 8490SOL    HW233726   1.223   3.812   2.154  0.4690 -0.0471 -3.2300
 8490SOL    HW333727   1.119   3.718   2.211  2.4361 -0.0577  0.7235
 8490SOL    MW433728   1.145   3.775   2.150  0.1967 -0.0366 -0.2954
 8491SOL     OW33729   4.385   5.149   3.058 -0.3544 -0.2644 -0.3179
 8491SOL    HW233730   4.312   5.091   3.036 -0.8371 -0.3525  1.3529
 8491SOL    HW333731   4.436   5.099   3.123 -0.9978  1.2665  1.4499
 8491SOL    MW433732   4.382   5.135   3.064 -0.5030 -0.0740  0.1357
 8492SOL     OW33733   4.589   2.632   5.846  0.1924 -0.5518 -0.2306
 8492SOL    HW233734   4.656   2.698   5.831 -0.6461  0.0570 -1.4737
 8492SOL    HW333735   4.536   2.666   5.918  3.1302 -2.6211  3.3105
 8492SOL    MW433736   4.591   2.645   5.854  0.4694 -0.7445  0.0726
 8493SOL     OW33737   1.182   4.793   0.217  0.2894 -0.3073 -0.5265
 8493SOL    HW233738   1.213   4.787   0.307 -0.7800  1.8510  0.0468
 8493SOL    HW333739   1.139   4.878   0.212 -2.0741 -1.5033 -2.3504
 8493SOL    MW433740   1.181   4.804   0.228 -0.1635 -0.1803 -0.6915
 8494SOL     OW33741   2.426   2.787   5.465  0.1127 -0.0175  0.1359
 8494SOL    HW233742   2.424   2.808   5.558  0.2117  0.7273 -0.0175
 8494SOL    HW333743   2.406   2.871   5.422  2.0539  0.1327 -0.5713
 8494SOL    MW433744   2.423   2.801   5.471  0.3819  0.1006  0.0224
 8495SOL     OW33745   2.133   3.293   2.577 -0.0949 -0.8491 -0.6733
 8495SOL    HW233746   2.150   3.221   2.638  1.6754 -0.6440 -0.8738
 8495SOL    HW333747   2.069   3.259   2.516  0.7668 -2.2934 -0.8074
 8495SOL    MW433748   2.127   3.279   2.577  0.2524 -1.0126 -0.7175
 8496SOL     OW33749   0.333   4.698   0.369  0.3408 -0.0127 -0.1622
 8496SOL    HW233750   0.269   4.750   0.320 -0.5818 -0.3132  0.6842
 8496SOL    HW333751   0.319   4.608   0.338 -0.0239 -0.1548  0.3806
 8496SOL    MW433752   0.322   4.693   0.359  0.1709 -0.0711  0.0211
 8497SOL     OW33753   4.768   3.854   5.497 -0.0515  0.0944 -0.8399
 8497SOL    HW233754   4.771   3.808   5.413 -0.6053 -0.3914 -0.5944
 8497SOL    HW333755   4.845   3.822   5.545  0.6245  0.8369 -1.3875
 8497SOL    MW433756   4.779   3.844   5.492 -0.0354  0.1282 -0.8798
 8498SOL     OW33757   3.560   2.012   3.355  0.4163  0.2964  0.9094
 8498SOL    HW233758   3.542   2.005   3.449  1.2179 -2.0894  0.9583
 8498SOL    HW333759   3.491   1.959   3.313 -2.0226  3.9780 -0.2567
 8498SOL    MW433760   3.548   2.004   3.362  0.2003  0.4673  0.7620
 8499SOL     OW33761   4.163   4.700   4.636 -0.4691  0.3152 -0.5020
 8499SOL    HW233762   4.127   4.784   4.606  0.8293  0.4641 -1.7513
 8499SOL    HW333763   4.086   4.643   4.645 -1.1595  0.9291 -2.0522
 8499SOL    MW433764   4.148   4.703   4.633 -0.3889  0.4158 -0.8714
 8500SOL     OW33765   6.024   2.630   1.682  0.2843  0.1867  0.6069
 8500SOL    HW233766   6.076   2.710   1.689  2.5078 -0.9762 -1.3132
 8500SOL    HW333767   5.949   2.654   1.628 -0.3981  1.5047  2.0705
 8500SOL    MW433768   6.020   2.643   1.676  0.4876  0.2071  0.5467
 8501SOL     OW33769   0.840   0.261   2.949  0.0634 -0.2823  0.2329
 8501SOL    HW233770   0.842   0.248   3.043 -1.2533 -0.0324  0.3222
 8501SOL    HW333771   0.776   0.331   2.936  0.7740  0.2081 -0.7997
 8501SOL    MW433772   0.832   0.268   2.960 -0.0165 -0.1846  0.1085
 8502SOL     OW33773   6.112   0.391   2.057 -0.2071 -0.1970  0.2596
 8502SOL    HW233774   6.028   0.358   2.026 -1.0171 -0.5341  2.6810
 8502SOL    HW333775   6.096   0.421   2.146  2.0307  0.6442  0.4517
 8502SOL    MW433776   6.099   0.390   2.064 -0.0187 -0.1305  0.6045
 8503SOL     OW33777   2.019   4.914   0.940  0.0123 -0.2382  0.0245
 8503SOL    HW233778   1.956   4.945   0.876 -1.3447  0.1480  1.4808
 8503SOL    HW333779   2.018   4.819   0.930 -0.6424 -0.2201 -0.1390
 8503SOL    MW433780   2.011   4.905   0.931 -0.2531 -0.1849  0.1951
 8504SOL     OW33781   6.048   1.595   4.770 -0.3590 -0.3873  0.0240
 8504SOL    HW233782   6.051   1.500   4.783 -0.3791 -0.4681 -0.5108
 8504SOL    HW333783   5.990   1.606   4.694  0.7660 -0.0441 -0.8028
 8504SOL    MW433784   6.041   1.584   4.761 -0.2133 -0.3527 -0.1557
 8505SOL     OW33785   0.403   0.021   1.297 -0.1831 -0.0276 -0.1376
 8505SOL    HW233786   0.479   0.064   1.335 -0.2309  0.6176 -0.7541
 8505SOL    HW333787   0.354   0.091   1.254  0.6051 -0.8691 -2.6106
 8505SOL    MW433788   0.406   0.036   1.296 -0.0854 -0.0535 -0.5452
 8506SOL     OW33789   5.987   1.364   0.406  0.1772  0.6601  0.0748
 8506SOL    HW233790   5.924   1.421   0.450  0.5438  2.5260 -1.6408
 8506SOL    HW333791   5.952   1.276   0.416 -1.2614  1.3494  1.4694
 8506SOL    MW433792   5.974   1.360   0.413  0.0357  0.9973  0.0325
 8507SOL     OW33793   5.367   4.833   5.897 -0.7752 -0.3237  0.2689
 8507SOL    HW233794   5.415   4.853   5.817  0.3783 -1.7318  0.5645
 8507SOL    HW333795   5.327   4.916   5.924  0.5304  0.6151 -0.6283
 8507SOL    MW433796   5.368   4.847   5.890 -0.4508 -0.3856  0.1895
 8508SOL     OW33797   0.936   3.427   4.498  0.0959 -0.4038 -0.2100
 8508SOL    HW233798   1.007   3.387   4.547 -0.3651 -0.8221  0.1298
 8508SOL    HW333799   0.890   3.353   4.458 -0.5156 -0.1909  0.0860
 8508SOL    MW433800   0.939   3.412   4.499 -0.0456 -0.4309 -0.1261
 8509SOL     OW33801   6.352   5.364   0.966  0.1624 -0.1877  0.0911
 8509SOL    HW233802   6.269   5.398   0.932 -1.1393 -1.3799  1.9409
 8509SOL    HW333803   6.331   5.278   1.002  1.7054  0.3513  2.5504
 8509SOL    MW433804   6.338   5.357   0.966  0.1942 -0.2739  0.6596
 8510SOL     OW33805   3.444   2.284   1.141  0.5557  0.0060 -0.3549
 8510SOL    HW233806   3.473   2.195   1.123 -0.1762 -0.8700  2.3610
 8510SOL    HW333807   3.508   2.319   1.202 -0.7691  0.1904  1.0014
 8510SOL    MW433808   3.456   2.277   1.146  0.2843 -0.0852  0.1824
 8511SOL     OW33809   5.888   1.125   0.500  0.3851  0.5135  0.2588
 8511SOL    HW233810   5.928   1.167   0.576  0.6933  0.5234  0.0906
 8511SOL    HW333811   5.879   1.033   0.526  3.5007 -0.2316 -0.8483
 8511SOL    MW433812   5.892   1.118   0.514  0.8368  0.4165  0.0906
 8512SOL     OW33813   3.629   3.964   1.280  0.0731 -0.3304 -0.5342
 8512SOL    HW233814   3.656   4.011   1.359 -1.6059 -0.3791  0.1274
 8512SOL    HW333815   3.603   4.032   1.219  0.3254 -0.3237 -0.6345
 8512SOL    MW433816   3.629   3.979   1.282 -0.1151 -0.3360 -0.4602
 8513SOL     OW33817   5.626   6.142   0.762 -0.0054 -0.4512 -0.9123
 8513SOL    HW233818   5.614   6.078   0.833  0.9184  1.0894  0.7230
 8513SOL    HW333819   5.578   6.105   0.688 -1.2093 -2.0327  0.5723
 8513SOL    MW433820   5.618   6.128   0.762 -0.0423 -0.4566 -0.5007
 8514SOL     OW33821   4.208   0.420   5.405 -0.8486 -0.4455  0.2966
 8514SOL    HW233822   4.226   0.373   5.323 -1.7946 -0.1006 -0.1308
 8514SOL    HW333823   4.112   0.424   5.409 -0.7927  0.8903  0.6478
 8514SOL    MW433824   4.198   0.414   5.395 -0.9661 -0.2238  0.2865
 8515SOL     OW33825   4.255   4.904   5.979 -0.4519 -0.0752 -0.6883
 8515SOL    HW233826   4.325   4.917   6.042 -0.2255 -1.1275 -0.6987
 8515SOL    HW333827   4.253   4.809   5.965 -3.5846 -0.4550  1.3199
 8515SOL    MW433828   4.264   4.893   5.986 -0.8354 -0.2642 -0.4247
 8516SOL     OW33829   4.083   3.348   5.240 -0.3375  0.0690 -0.0922
 8516SOL    HW233830   4.134   3.268   5.252 -0.4454 -0.0184 -0.2207
 8516SOL    HW333831   3.996   3.327   5.274 -0.8632 -0.4169 -1.6487
 8516SOL    MW433832   4.078   3.335   5.246 -0.4211 -0.0066 -0.3145
 8517SOL     OW33833   4.704   4.246   0.864 -0.1208  0.0512 -0.2883
 8517SOL    HW233834   4.761   4.212   0.934  0.2007  1.9673  0.4338
 8517SOL    HW333835   4.759   4.248   0.787 -0.0100 -0.5837 -0.2341
 8517SOL    MW433836   4.718   4.242   0.863 -0.0638  0.2202 -0.1859
 8518SOL     OW33837   2.224   0.984   2.408  0.0853  0.1082  0.5121
 8518SOL    HW233838   2.315   0.956   2.397  0.1065 -0.3462  1.7028
 8518SOL    HW333839   2.216   1.060   2.351  1.1632  0.0368  0.2394
 8518SOL    MW433840   2.235   0.991   2.399  0.2303  0.0388  0.6332
 8519SOL     OW33841   5.302   5.806   0.757 -0.2554 -0.2540  0.0332
 8519SOL    HW233842   5.257   5.874   0.706  1.9088  2.4016  1.3810
 8519SOL    HW333843   5.355   5.760   0.692 -1.1332 -0.1213 -0.8050
 8519SOL    MW433844   5.303   5.809   0.742 -0.0857  0.1139  0.1004
 8520SOL     OW33845   0.670   5.103   5.599 -0.0297  0.1459 -0.1689
 8520SOL    HW233846   0.649   5.084   5.691 -0.3702 -0.6860 -0.4070
 8520SOL    HW333847   0.763   5.082   5.591 -0.1292 -0.3198 -0.1426
 8520SOL    MW433848   0.679   5.098   5.610 -0.0877 -0.0253 -0.1968
 8521SOL     OW33849   0.191   4.042   3.786  0.5274 -0.2574  0.2624
 8521SOL    HW233850   0.276   4.011   3.817  0.7252 -0.1098 -0.1170
 8521SOL    HW333851   0.203   4.053   3.691  0.7611  1.9214  0.5005
 8521SOL    MW433852   0.204   4.039   3.777  0.5843  0.0495  0.2437
 8522SOL     OW33853   0.977   3.024   1.159  0.5417  0.3458  0.4467
 8522SOL    HW233854   0.915   2.952   1.147 -1.5555  2.1312 -0.0702
 8522SOL    HW333855   0.956   3.060   1.245  1.4906  0.4419  0.6525
 8522SOL    MW433856   0.966   3.019   1.169  0.3902  0.5941  0.4056
 8523SOL     OW33857   0.738   2.472   0.790 -0.2339  0.6538 -0.7703
 8523SOL    HW233858   0.658   2.468   0.843  0.1213 -2.5112 -0.3233
 8523SOL    HW333859   0.807   2.440   0.847  0.7003 -0.1024 -2.2615
 8523SOL    MW433860   0.736   2.467   0.804 -0.0638  0.1364 -0.9081
 8524SOL     OW33861   2.193   1.377   1.653  0.6290  0.0344  0.1746
 8524SOL    HW233862   2.106   1.382   1.615  0.6685 -1.8997 -0.2863
 8524SOL    HW333863   2.250   1.352   1.581  1.6151  1.3561  0.4528
 8524SOL    MW433864   2.189   1.374   1.639  0.7643 -0.0464  0.1505
 8525SOL     OW33865   2.988   0.942   5.194 -0.0957  0.1920 -0.2376
 8525SOL    HW233866   2.902   0.906   5.217 -0.2880  0.9137  0.2111
 8525SOL    HW333867   2.992   1.026   5.240  0.8764  0.1403 -0.2036
 8525SOL    MW433868   2.977   0.948   5.203  0.0072  0.2804 -0.1739
 8526SOL     OW33869   2.334   5.285   2.299  0.0262  0.1584 -0.4193
 8526SOL    HW233870   2.392   5.248   2.232 -0.1475 -1.2466  0.1721
 8526SOL    HW333871   2.246   5.265   2.269 -0.0568 -0.3546  0.1597
 8526SOL    MW433872   2.330   5.278   2.286 -0.0077 -0.0947 -0.2649
 8527SOL     OW33873   2.228   3.260   0.457 -0.2761 -0.0442  0.0140
 8527SOL    HW233874   2.314   3.220   0.465 -0.0342  0.5631  0.5294
 8527SOL    HW333875   2.242   3.353   0.477 -0.8485  0.2811 -1.0138
 8527SOL    MW433876   2.241   3.267   0.461 -0.3197  0.0788 -0.0536
 8528SOL     OW33877   5.398   3.873   4.233  0.4536  0.3480 -0.7385
 8528SOL    HW233878   5.466   3.845   4.294 -0.0221  1.1074  0.1526
 8528SOL    HW333879   5.316   3.841   4.270  0.1628  0.7867 -0.9833
 8528SOL    MW433880   5.396   3.865   4.246  0.3525  0.5060 -0.6533
 8529SOL     OW33881   0.880   0.551  -0.018 -0.7701 -0.3728 -0.4125
 8529SOL    HW233882   0.913   0.640  -0.035 -1.1445 -0.0057  0.6531
 8529SOL    HW333883   0.831   0.560   0.063 -2.9837 -1.0339 -1.6127
 8529SOL    MW433884   0.878   0.564  -0.009 -1.1116 -0.4116 -0.4302
 8530SOL     OW33885   3.115   5.459   3.796 -0.0910  0.3656  0.1312
 8530SOL    HW233886   3.203   5.475   3.762 -0.1955 -0.2646 -0.4740
 8530SOL    HW333887   3.100   5.366   3.779 -1.3995  0.7523 -1.0374
 8530SOL    MW433888   3.124   5.448   3.789 -0.2774  0.3334 -0.1028
 8531SOL     OW33889   4.228   2.288   2.195  0.5924  0.1913  0.5802
 8531SOL    HW233890   4.271   2.249   2.119 -0.0505  0.0801  0.2698
 8531SOL    HW333891   4.279   2.367   2.213 -0.9115  1.8162 -1.7602
 8531SOL    MW433892   4.240   2.293   2.188  0.3091  0.3910  0.2304
 8532SOL     OW33893   2.071   5.487   5.549 -0.6489 -0.1883 -0.5229
 8532SOL    HW233894   2.149   5.474   5.494  0.2886 -1.6919  1.0565
 8532SOL    HW333895   2.105   5.495   5.638 -2.2503  0.2522  0.0833
 8532SOL    MW433896   2.086   5.486   5.553 -0.7365 -0.3285 -0.2345
 8533SOL     OW33897   3.798   4.364   1.547  0.2883 -0.2045  0.5515
 8533SOL    HW233898   3.816   4.392   1.457 -0.5785 -1.8763 -0.1913
 8533SOL    HW333899   3.723   4.417   1.574 -0.5745 -0.9023 -0.3925
 8533SOL    MW433900   3.790   4.375   1.539  0.0601 -0.5171  0.3290
 8534SOL     OW33901   3.946   0.808   4.480 -0.4716 -0.0886  0.3794
 8534SOL    HW233902   3.949   0.902   4.458  0.1511  0.0677  1.1102
 8534SOL    HW333903   4.035   0.787   4.508  0.1250 -1.5350 -2.2250
 8534SOL    MW433904   3.958   0.818   4.481 -0.3108 -0.2588  0.1322
 8535SOL     OW33905   3.324   5.360   4.258 -0.1009 -0.2049  0.6215
 8535SOL    HW233906   3.272   5.372   4.178  0.2832 -0.9249  0.2602
 8535SOL    HW333907   3.409   5.328   4.228  0.1573 -0.1822  1.2974
 8535SOL    MW433908   3.328   5.358   4.244 -0.0161 -0.2969  0.6630
 8536SOL     OW33909   1.163   4.656   1.084  0.5025 -0.2596  0.5988
 8536SOL    HW233910   1.208   4.732   1.046 -0.4458  0.4023  0.7585
 8536SOL    HW333911   1.205   4.643   1.169 -0.3273  1.0919  1.2672
 8536SOL    MW433912   1.174   4.665   1.090  0.2679  0.0061  0.7081
 8537SOL     OW33913   5.942   4.756   6.077  0.6911 -0.4942  0.3608
 8537SOL    HW233914   5.915   4.675   6.034  0.1500 -0.4388  0.5774
 8537SOL    HW333915   5.922   4.825   6.014 -0.4163 -0.3809  0.8038
 8537SOL    MW433916   5.936   4.755   6.063  0.4736 -0.4720  0.4479
 8538SOL     OW33917   5.329   0.733   1.539  0.2254  0.3147 -0.5013
 8538SOL    HW233918   5.355   0.685   1.618 -1.4181  1.6234  0.9100
 8538SOL    HW333919   5.331   0.667   1.469  0.9614 -1.0671  0.7717
 8538SOL    MW433920   5.332   0.718   1.540  0.1057  0.3051 -0.1471
 8539SOL     OW33921   3.679   2.789   5.522  0.2759 -0.1912 -0.1825
 8539SOL    HW233922   3.633   2.749   5.448 -0.3366  0.9827 -0.4626
 8539SOL    HW333923   3.609   2.817   5.582  0.7563 -0.9901  0.7863
 8539SOL    MW433924   3.664   2.787   5.520  0.2585 -0.1417 -0.0917
 8540SOL     OW33925   2.284   6.165   6.097  0.2556 -0.4474  0.1455
 8540SOL    HW233926   2.194   6.188   6.118  0.2093  0.0991 -0.6476
 8540SOL    HW333927   2.321   6.243   6.055  0.1038 -1.7182 -2.5712
 8540SOL    MW433928   2.277   6.178   6.094  0.2294 -0.5429 -0.3175
 8541SOL     OW33929   2.983   0.553   3.971 -0.2122  0.5378 -0.2009
 8541SOL    HW233930   2.941   0.496   4.035 -0.8097  0.5890 -0.5392
 8541SOL    HW333931   3.072   0.519   3.962  1.1493  2.5873  3.2767
 8541SOL    MW433932   2.989   0.541   3.978 -0.1114  0.8150  0.2133
 8542SOL     OW33933   6.276   0.739   5.849  0.3282  0.1640  0.2184
 8542SOL    HW233934   6.303   0.828   5.871 -2.2231  0.8015  1.1502
 8542SOL    HW333935   6.304   0.686   5.923 -0.2189  0.6439  0.7751
 8542SOL    MW433936   6.283   0.744   5.861 -0.0806  0.3114  0.4148
 8543SOL     OW33937   2.856   0.797   0.169 -0.0955  0.4106  0.5089
 8543SOL    HW233938   2.811   0.873   0.206  0.0231  1.0795 -0.6735
 8543SOL    HW333939   2.944   0.801   0.206  0.1537  1.3137 -0.1461
 8543SOL    MW433940   2.861   0.808   0.179 -0.0470  0.6180  0.2665
 8544SOL     OW33941   5.422   0.287   2.514 -0.1519  0.0278 -0.6994
 8544SOL    HW233942   5.497   0.286   2.573 -1.4014 -0.0860  0.9928
 8544SOL    HW333943   5.360   0.348   2.555 -1.2697 -0.4215 -1.6412
 8544SOL    MW433944   5.424   0.295   2.527 -0.4642 -0.0465 -0.6004
 8545SOL     OW33945   3.882   5.156   3.030 -0.3802  0.1566 -0.5028
 8545SOL    HW233946   3.826   5.123   3.101  1.5850 -1.6319  0.2983
 8545SOL    HW333947   3.914   5.240   3.063 -1.9097  0.8318 -0.6412
 8545SOL    MW433948   3.879   5.163   3.044 -0.3227  0.0097 -0.4154
 8546SOL     OW33949   0.475   0.367   4.836 -0.5065 -0.2878  0.0128
 8546SOL    HW233950   0.409   0.431   4.861 -1.6845 -1.5520  0.3247
 8546SOL    HW333951   0.486   0.313   4.915  1.3474  0.2330  0.1472
 8546SOL    MW433952   0.467   0.368   4.850 -0.4174 -0.3858  0.0717
 8547SOL     OW33953   1.962   6.365   0.120 -0.5088  0.1851 -0.7338
 8547SOL    HW233954   1.910   6.395   0.046 -0.5735 -0.4663 -0.9549
 8547SOL    HW333955   1.904   6.307   0.169 -0.7615  1.3037  0.3282
 8547SOL    MW433956   1.948   6.361   0.117 -0.5507  0.2467 -0.6229
 8548SOL     OW33957   0.834   0.189   4.959  0.5106  0.2110 -0.0105
 8548SOL    HW233958   0.887   0.144   5.025 -0.7089 -0.9439  0.2263
 8548SOL    HW333959   0.832   0.129   4.884  0.2694  0.6327 -0.3480
 8548SOL    MW433960   0.840   0.175   4.958  0.3178  0.1142 -0.0238
 8549SOL     OW33961   3.427   3.645   2.318  0.2101  0.6313  0.0814
 8549SOL    HW233962   3.444   3.612   2.407  0.5618 -0.2055 -0.2885
 8549SOL    HW333963   3.491   3.601   2.263 -0.0461  1.0982 -0.6077
 8549SOL    MW433964   3.438   3.635   2.323  0.2227  0.5825 -0.0583
 8550SOL     OW33965   5.670   4.049   4.170  0.0042 -0.1316  0.0257
 8550SOL    HW233966   5.741   4.058   4.234 -0.8664 -1.0901  1.1661
 8550SOL    HW333967   5.669   4.133   4.123 -0.6150  1.4391  2.6370
 8550SOL    MW433968   5.679   4.062   4.172 -0.1923 -0.0508  0.5207
 8551SOL     OW33969   0.202   3.111   5.256  0.4544  0.5546 -0.0519
 8551SOL    HW233970   0.112   3.081   5.240  0.2685  0.6076  0.8403
 8551SOL    HW333971   0.256   3.054   5.202 -0.0782  0.1885 -0.2090
 8551SOL    MW433972   0.197   3.100   5.247  0.3596  0.5133  0.0451
 8552SOL     OW33973   6.355   6.392   6.259 -0.1799  0.1106  0.1588
 8552SOL    HW233974   6.267   6.357   6.254 -0.4213  0.7055  0.1465
 8552SOL    HW333975   6.412   6.320   6.230 -0.6299 -0.3798  0.4863
 8552SOL    MW433976   6.351   6.378   6.254 -0.2711  0.1243  0.2004
 8553SOL     OW33977   3.661   6.295   2.882  0.3279 -0.1936  0.0569
 8553SOL    HW233978   3.751   6.262   2.886  0.3852 -0.1117 -0.5254
 8553SOL    HW333979   3.637   6.288   2.790 -0.8702 -1.8291  0.4514
 8553SOL    MW433980   3.670   6.290   2.871  0.1774 -0.3986  0.0322
 8554SOL     OW33981   1.706   3.515   4.119  0.4858  0.1595 -0.2599
 8554SOL    HW233982   1.616   3.546   4.109  0.2568 -0.3688  0.0675
 8554SOL    HW333983   1.749   3.539   4.037  0.7468  2.6518  0.5401
 8554SOL    MW433984   1.700   3.522   4.107  0.4900  0.4186 -0.1112
 8555SOL     OW33985   1.730   2.854   1.892 -0.3232 -0.7621 -0.1930
 8555SOL    HW233986   1.701   2.868   1.802  0.9328 -1.2145 -0.6895
 8555SOL    HW333987   1.765   2.765   1.892  0.7679 -0.3448  0.4433
 8555SOL    MW433988   1.731   2.844   1.880 -0.0135 -0.7667 -0.1746
 8556SOL     OW33989   6.120   5.192   1.483  0.5136  0.4182 -0.2891
 8556SOL    HW233990   6.140   5.117   1.427 -2.3976  1.1295 -2.5332
 8556SOL    HW333991   6.062   5.157   1.551  1.5410  0.1479  0.4783
 8556SOL    MW433992   6.115   5.177   1.485  0.2650  0.4764 -0.4840
 8557SOL     OW33993   1.892   6.018   3.626  0.6019  0.2060  0.2720
 8557SOL    HW233994   1.920   5.927   3.618  0.0783 -0.3668  3.4087
 8557SOL    HW333995   1.962   6.060   3.676 -0.3616  0.7986  1.1651
 8557SOL    MW433996   1.905   6.011   3.632  0.4057  0.2086  0.8037
 8558SOL     OW33997   3.239   5.287   6.151 -0.4384  0.5231  0.0094
 8558SOL    HW233998   3.260   5.380   6.145  0.5372  0.3081 -0.0221
 8558SOL    HW333999   3.317   5.247   6.189 -0.3992 -0.4342 -1.0147
 8558SOL    MW434000   3.252   5.294   6.155 -0.3045  0.3684 -0.1298
 8559SOL     OW34001   6.095   1.367   4.464 -0.0097 -0.2577 -0.0496
 8559SOL    HW234002   6.180   1.405   4.488 -0.5163  1.2982 -0.6357
 8559SOL    HW334003   6.052   1.353   4.548  0.4937 -0.2636  0.2148
 8559SOL    MW434004   6.101   1.370   4.479 -0.0101 -0.0532 -0.0920
 8560SOL     OW34005   1.441   4.771   2.870 -0.2143 -0.4918 -0.2743
 8560SOL    HW234006   1.403   4.779   2.782 -1.0066  1.0979  0.1602
 8560SOL    HW334007   1.424   4.856   2.910  0.5124 -1.0490  1.2775
 8560SOL    MW434008   1.434   4.783   2.863 -0.2230 -0.3556 -0.0122
 8561SOL     OW34009   2.691   3.631   5.259  0.0139  0.4997 -0.4349
 8561SOL    HW234010   2.756   3.574   5.299  1.0786  0.5362 -2.0574
 8561SOL    HW334011   2.701   3.714   5.305  0.1564  0.1109  0.2547
 8561SOL    MW434012   2.701   3.634   5.271  0.1732  0.4532 -0.5580
 8562SOL     OW34013   5.951   1.038   0.249 -0.2512 -0.3969  0.8479
 8562SOL    HW234014   5.925   1.075   0.333 -0.0940 -1.7169  1.4990
 8562SOL    HW334015   5.880   0.977   0.226 -0.7642  0.6295 -0.4549
 8562SOL    MW434016   5.938   1.035   0.257 -0.2981 -0.4357  0.7619
 8563SOL     OW34017   1.630   5.395   3.847  0.2341  0.4306  0.8604
 8563SOL    HW234018   1.634   5.489   3.864  1.7039  0.4143  0.6992
 8563SOL    HW334019   1.542   5.370   3.875 -0.1854  1.8486  0.9014
 8563SOL    MW434020   1.619   5.404   3.853  0.3727  0.6155  0.8445
 8564SOL     OW34021   1.296   1.047   2.367 -0.0746  0.4351 -0.8786
 8564SOL    HW234022   1.280   1.119   2.428  2.7927  1.8821 -1.6301
 8564SOL    HW334023   1.222   1.050   2.306 -0.9614  1.5367  0.2065
 8564SOL    MW434024   1.284   1.057   2.367  0.1867  0.7713 -0.8346
 8565SOL     OW34025   0.375   5.964   0.328  0.4318  0.1337  0.3725
 8565SOL    HW234026   0.340   6.041   0.282  0.6096 -0.3283 -0.5550
 8565SOL    HW334027   0.328   5.963   0.411 -0.5839  0.4531 -0.1819
 8565SOL    MW434028   0.364   5.974   0.333  0.3212  0.1149  0.1769
 8566SOL     OW34029   1.231   1.432   4.990  0.2298  0.1085 -0.1060
 8566SOL    HW234030   1.315   1.386   4.986  0.9190  1.3693 -0.6042
 8566SOL    HW334031   1.212   1.454   4.899 -1.9894 -2.4485 -0.3897
 8566SOL    MW434032   1.240   1.429   4.977  0.0280 -0.0625 -0.2091
 8567SOL     OW34033   1.954   4.173   3.913 -0.7148  0.4719  0.3032
 8567SOL    HW234034   1.865   4.205   3.895 -0.3353  0.8380 -1.0715
 8567SOL    HW334035   1.949   4.079   3.895 -0.3563  0.8199 -1.9190
 8567SOL    MW434036   1.942   4.165   3.908 -0.6174  0.5661 -0.1714
 8568SOL     OW34037   0.384   3.661   4.666  0.3899 -0.5177  0.0061
 8568SOL    HW234038   0.299   3.648   4.625 -0.4907  0.6036  1.4012
 8568SOL    HW334039   0.446   3.658   4.593 -0.9192 -0.4762 -1.1497
 8568SOL    MW434040   0.381   3.659   4.651  0.1010 -0.3643  0.0377
 8569SOL     OW34041   4.252   4.894   2.094  0.5353  0.0325  0.1849
 8569SOL    HW234042   4.192   4.820   2.086  0.6356 -0.0397  0.0769
 8569SOL    HW334043   4.327   4.858   2.142  0.1599  0.3275  0.9966
 8569SOL    MW434044   4.254   4.879   2.099  0.4990  0.0619  0.2777
 8570SOL     OW34045   5.327   6.068   5.234  0.2663  0.5133 -0.5242
 8570SOL    HW234046   5.421   6.064   5.250  0.1769  0.0994 -0.0784
 8570SOL    HW334047   5.307   6.162   5.231  0.9028  0.6201 -1.9221
 8570SOL    MW434048   5.336   6.080   5.236  0.3384  0.4728 -0.6498
 8571SOL     OW34049   4.888   3.555   1.871 -0.0618  0.1644 -0.1982
 8571SOL    HW234050   4.975   3.564   1.911  0.1048 -0.2338 -0.4528
 8571SOL    HW334051   4.827   3.576   1.941  0.2004 -1.5263  0.5924
 8571SOL    MW434052   4.892   3.559   1.886 -0.0052 -0.1112 -0.1275
 8572SOL     OW34053   2.545   1.339   5.910 -0.1144 -0.0399  0.0004
 8572SOL    HW234054   2.473   1.331   5.847  0.0235 -0.2568 -0.1306
 8572SOL    HW334055   2.615   1.285   5.874  0.7292  1.4653 -0.7279
 8572SOL    MW434056   2.544   1.331   5.897  0.0151  0.1300 -0.1130
 8573SOL     OW34057   1.569   6.202   1.120  0.7049  0.0740  0.5292
 8573SOL    HW234058   1.531   6.122   1.156  3.3001 -0.5192  2.2195
 8573SOL    HW334059   1.606   6.176   1.035 -0.6047  0.1233 -0.0741
 8573SOL    MW434060   1.569   6.188   1.113  0.8745  0.0022  0.6726
 8574SOL     OW34061   0.866   2.245   2.321 -0.1575  0.1474  0.1629
 8574SOL    HW234062   0.838   2.336   2.333  0.1767  0.0497  1.9718
 8574SOL    HW334063   0.961   2.251   2.307 -0.3275  0.1505 -1.0658
 8574SOL    MW434064   0.875   2.258   2.321 -0.1359  0.1349  0.2394
 8575SOL     OW34065   4.226   1.094   0.106 -0.5169 -0.0783  0.0779
 8575SOL    HW234066   4.150   1.038   0.094  0.7493 -1.4541 -2.4159
 8575SOL    HW334067   4.301   1.034   0.100  0.8939  0.9330  4.0033
 8575SOL    MW434068   4.226   1.079   0.104 -0.1637 -0.1264  0.2668
 8576SOL     OW34069   1.228   0.360   4.337  0.3401 -0.0595  0.4988
 8576SOL    HW234070   1.291   0.290   4.316 -0.9942 -0.8192 -1.2642
 8576SOL    HW334071   1.185   0.330   4.416  1.8061  0.2240  1.4461
 8576SOL    MW434072   1.231   0.347   4.344  0.3575 -0.1223  0.3911
 8577SOL     OW34073   5.661   0.157   4.794 -0.5597  0.4419 -0.9684
 8577SOL    HW234074   5.665   0.211   4.872  0.2787  0.7630 -1.2226
 8577SOL    HW334075   5.616   0.211   4.729 -3.4168 -0.6679 -0.0837
 8577SOL    MW434076   5.656   0.171   4.796 -0.8261  0.3379 -0.8852
 8578SOL     OW34077   0.943   3.475   5.033 -0.1498  0.1151 -0.8364
 8578SOL    HW234078   0.863   3.461   5.084  0.2074 -3.9247 -1.0913
 8578SOL    HW334079   0.915   3.531   4.960 -2.4211 -0.0706 -0.1940
 8578SOL    MW434080   0.929   3.480   5.030 -0.4023 -0.4424 -0.7853
 8579SOL     OW34081   3.407   2.264   5.145  0.3426  0.4996 -0.2197
 8579SOL    HW234082   3.336   2.314   5.186 -0.3409  0.5281 -1.3782
 8579SOL    HW334083   3.391   2.173   5.171  0.1407  0.5652 -0.1124
 8579SOL    MW434084   3.395   2.259   5.154  0.2258  0.5120 -0.3584
 8580SOL     OW34085   2.878   5.751   6.243 -0.5118  0.6179 -0.6775
 8580SOL    HW234086   2.934   5.703   6.305 -0.0523 -0.7506 -2.1033
 8580SOL    HW334087   2.791   5.752   6.285 -0.1276  0.0504  0.1513
 8580SOL    MW434088   2.874   5.745   6.257 -0.4005  0.3625 -0.7563
 8581SOL     OW34089   3.617   5.613   3.994 -0.1527  0.7203 -0.1465
 8581SOL    HW234090   3.635   5.592   4.086 -1.8287 -0.9706 -0.1252
 8581SOL    HW334091   3.543   5.673   3.997  0.6652  1.7547 -0.3774
 8581SOL    MW434092   3.609   5.618   4.007 -0.2659  0.6337 -0.1741
 8582SOL     OW34093   0.067   1.240   5.381  0.1370  0.1119 -0.2303
 8582SOL    HW234094   0.126   1.166   5.392 -0.5707 -0.3722  0.4010
 8582SOL    HW334095   0.039   1.262   5.469 -1.3570 -0.2853 -0.5661
 8582SOL    MW434096   0.071   1.233   5.394 -0.1535 -0.0044 -0.1913
 8583SOL     OW34097   3.026   1.662   0.836  0.3781  0.1603  0.2435
 8583SOL    HW234098   3.062   1.747   0.814  0.7331  0.0312  0.3146
 8583SOL    HW334099   2.932   1.677   0.845  0.4008  0.4820 -0.0332
 8583SOL    MW434100   3.018   1.675   0.835  0.4280  0.1857  0.2164
 8584SOL     OW34101   2.202   3.201   5.142 -0.0081 -0.5378 -0.5280
 8584SOL    HW234102   2.158   3.280   5.173 -0.0358 -1.3228  1.5699
 8584SOL    HW334103   2.143   3.165   5.076 -0.5894  0.5034 -0.5995
 8584SOL    MW434104   2.188   3.207   5.138 -0.0884 -0.5040 -0.2606
 8585SOL     OW34105   3.802   4.817   3.879  0.6248  0.3127  0.2897
 8585SOL    HW234106   3.733   4.873   3.843 -0.5355  0.1850  2.1643
 8585SOL    HW334107   3.761   4.775   3.955  1.9524 -1.8714 -0.1185
 8585SOL    MW434108   3.788   4.819   3.884  0.6469  0.0077  0.4832
 8586SOL     OW34109   3.932   1.892   0.500  0.3966 -0.6185 -0.0912
 8586SOL    HW234110   3.967   1.846   0.424 -0.0284 -0.6543 -0.2687
 8586SOL    HW334111   4.001   1.953   0.525  0.2047  0.0338 -1.0598
 8586SOL    MW434112   3.946   1.894   0.493  0.3152 -0.5372 -0.2425
 8587SOL     OW34113   2.042   1.765   2.805  0.0089 -0.3460  0.2027
 8587SOL    HW234114   2.065   1.672   2.809  0.5737 -0.3378 -1.7782
 8587SOL    HW334115   2.118   1.807   2.765 -0.3923  0.9199  0.7157
 8587SOL    MW434116   2.055   1.758   2.800  0.0305 -0.1779  0.0091
 8588SOL     OW34117   2.303   0.378   0.053  0.0525  0.0828  0.2702
 8588SOL    HW234118   2.260   0.329  -0.017  1.9955 -0.4903 -0.5754
 8588SOL    HW334119   2.231   0.410   0.107 -1.4529 -0.3757 -1.3671
 8588SOL    MW434120   2.288   0.376   0.051  0.1102 -0.0533 -0.0574
 8589SOL     OW34121   4.807   3.926   0.312  0.2910  1.3014  0.1184
 8589SOL    HW234122   4.726   3.968   0.281 -0.0818  0.0366 -0.6989
 8589SOL    HW334123   4.858   3.911   0.233 -0.1458 -0.9069  0.1875
 8589SOL    MW434124   4.803   3.929   0.297  0.1842  0.8431  0.0197
 8590SOL     OW34125   3.837   2.873   0.001 -0.3446 -0.5776  0.5706
 8590SOL    HW234126   3.822   2.825  -0.081 -0.8058 -0.1185  0.3823
 8590SOL    HW334127   3.788   2.824   0.067 -0.6971 -0.4525  0.4053
 8590SOL    MW434128   3.829   2.860  -0.001 -0.4520 -0.5005  0.5239
 8591SOL     OW34129   0.973   3.320   1.730  0.3205 -0.1759 -0.3514
 8591SOL    HW234130   0.980   3.326   1.825 -1.1294 -0.1296 -0.2315
 8591SOL    HW334131   0.909   3.250   1.715 -0.8637  1.0433 -1.2361
 8591SOL    MW434132   0.966   3.312   1.740 -0.0271 -0.0089 -0.4523
 8592SOL     OW34133   5.010   3.832   2.001  0.2372 -0.3310  0.5451
 8592SOL    HW234134   4.991   3.820   2.094 -1.0501 -0.3712  0.2992
 8592SOL    HW334135   5.060   3.754   1.976 -2.5891 -2.2443  0.3947
 8592SOL    MW434136   5.014   3.820   2.010 -0.3055 -0.5888  0.4928
 8593SOL     OW34137   3.803   0.554   1.772  0.1040 -0.1850 -0.0466
 8593SOL    HW234138   3.743   0.620   1.737  0.4447  0.2456  0.1856
 8593SOL    HW334139   3.890   0.590   1.759  0.2141  0.7743  2.7323
 8593SOL    MW434140   3.806   0.567   1.766  0.1635 -0.0016  0.3507
 8594SOL     OW34141   5.859   2.291   1.122 -0.6767  0.1600  0.0939
 8594SOL    HW234142   5.778   2.279   1.073  0.3126 -0.7802 -1.4035
 8594SOL    HW334143   5.878   2.385   1.114 -0.4135 -0.0074 -1.5953
 8594SOL    MW434144   5.851   2.302   1.114 -0.5114  0.0139 -0.3265
 8595SOL     OW34145   0.730   3.521   4.652  0.8825 -0.1673  0.4690
 8595SOL    HW234146   0.703   3.443   4.701  0.4046  1.1364  2.3652
 8595SOL    HW334147   0.804   3.491   4.599 -3.0245 -3.6348 -4.0318
 8595SOL    MW434148   0.736   3.507   4.651  0.3039 -0.4528  0.1253
 8596SOL     OW34149   5.400   3.086   1.860 -0.2272  0.7939 -0.3075
 8596SOL    HW234150   5.345   3.164   1.858 -0.4445  0.6875  0.7494
 8596SOL    HW334151   5.366   3.034   1.933  0.7608  0.3454 -0.1421
 8596SOL    MW434152   5.388   3.089   1.869 -0.1255  0.7207 -0.1462
 8597SOL     OW34153   2.283   5.295   3.484 -0.1951 -0.6716 -0.2036
 8597SOL    HW234154   2.373   5.321   3.462 -0.1759 -0.6687 -0.1254
 8597SOL    HW334155   2.246   5.263   3.402  0.2038 -1.6366 -0.0186
 8597SOL    MW434156   2.290   5.294   3.471 -0.1400 -0.7985 -0.1689
 8598SOL     OW34157   2.625   3.051   4.718  0.2794  0.0406  0.6879
 8598SOL    HW234158   2.555   3.036   4.654  0.6176 -0.2731  0.3802
 8598SOL    HW334159   2.623   2.973   4.773  0.2518  0.1270  0.8080
 8598SOL    MW434160   2.615   3.039   4.717  0.3204  0.0106  0.6632
 8599SOL     OW34161   4.758   5.321   1.238 -0.3568 -0.7942 -0.1277
 8599SOL    HW234162   4.678   5.362   1.270 -0.1796 -0.8080  0.3482
 8599SOL    HW334163   4.823   5.391   1.239  0.2099 -1.2987  1.6725
 8599SOL    MW434164   4.756   5.336   1.242 -0.2586 -0.8626  0.1726
 8600SOL     OW34165   1.814   1.024   0.634  0.9199 -0.1790  0.1434
 8600SOL    HW234166   1.769   0.974   0.702  0.6825 -1.1983 -0.7343
 8600SOL    HW334167   1.883   0.966   0.603  1.4053  0.5026 -0.0903
 8600SOL    MW434168   1.817   1.010   0.639  0.9526 -0.2236 -0.0032
 8601SOL     OW34169   5.973   3.799   2.328  0.3555 -0.8855 -0.0316
 8601SOL    HW234170   5.903   3.745   2.292 -0.2570 -0.4989  0.5475
 8601SOL    HW334171   5.976   3.777   2.421  0.8669 -0.7538 -0.0135
 8601SOL    MW434172   5.964   3.789   2.335  0.3421 -0.8171  0.0472
 8602SOL     OW34173   2.673   2.653   2.649 -0.3010  0.1936  0.0460
 8602SOL    HW234174   2.667   2.562   2.678  1.4988  0.2484  0.7114
 8602SOL    HW334175   2.756   2.658   2.603 -2.0204  0.6678 -3.2955
 8602SOL    MW434176   2.683   2.641   2.647 -0.2904  0.2634 -0.3071
 8603SOL     OW34177   6.279   3.162   0.284  0.1086  0.2307  0.0508
 8603SOL    HW234178   6.227   3.113   0.220 -0.6616 -1.6116  1.9622
 8603SOL    HW334179   6.221   3.233   0.313  0.1806  0.6104 -0.7281
 8603SOL    MW434180   6.264   3.165   0.280  0.0164  0.0377  0.2002
 8604SOL     OW34181   4.302   5.405   1.934  0.0074  0.1674 -0.1522
 8604SOL    HW234182   4.254   5.365   1.862 -0.4316 -1.1647  0.8463
 8604SOL    HW334183   4.385   5.434   1.895 -0.4878  0.0491 -1.3139
 8604SOL    MW434184   4.307   5.404   1.920 -0.1159 -0.0239 -0.1737
 8605SOL     OW34185   2.179   4.795   6.219 -0.0217 -0.0943 -0.2296
 8605SOL    HW234186   2.217   4.845   6.147  2.1899 -0.6817  0.4685
 8605SOL    HW334187   2.219   4.832   6.298  2.2549 -3.2712  0.2863
 8605SOL    MW434188   2.189   4.807   6.220  0.5705 -0.5909 -0.0695
 8606SOL     OW34189   3.260   5.574   6.165  0.2369  0.3782  0.1820
 8606SOL    HW234190   3.189   5.636   6.153 -0.7558 -0.8324 -0.4409
 8606SOL    HW334191   3.261   5.557   6.260 -0.0791  0.6622  0.2374
 8606SOL    MW434192   3.251   5.580   6.176  0.0643  0.2559  0.1072
 8607SOL     OW34193   0.046   3.292   2.024  0.3958 -0.8609 -0.0291
 8607SOL    HW234194   0.108   3.356   2.060 -0.6607  0.4302 -0.3910
 8607SOL    HW334195  -0.040   3.328   2.047 -0.2766 -0.8950 -2.3120
 8607SOL    MW434196   0.043   3.305   2.032  0.1677 -0.6950 -0.3780
 8608SOL     OW34197   5.410   1.482   5.529 -0.1165 -0.1031 -0.0091
 8608SOL    HW234198   5.415   1.514   5.619 -1.9612 -0.2025  0.1680
 8608SOL    HW334199   5.417   1.562   5.475  0.2165  0.0407  0.2462
 8608SOL    MW434200   5.412   1.497   5.533 -0.3160 -0.0973  0.0479
 8609SOL     OW34201   1.046   4.896   5.412  0.0674  0.2467  0.4153
 8609SOL    HW234202   1.029   4.987   5.387 -2.7924 -0.1710  0.4876
 8609SOL    HW334203   1.021   4.846   5.334  0.1297 -0.5381  0.8997
 8609SOL    MW434204   1.040   4.902   5.398 -0.3017  0.0880  0.4887
 8610SOL     OW34205   2.419   1.754   5.495  0.0795  0.1040 -0.4048
 8610SOL    HW234206   2.452   1.738   5.583  0.0407 -2.1635 -0.7346
 8610SOL    HW334207   2.334   1.797   5.508  0.0891 -0.1846  0.6703
 8610SOL    MW434208   2.412   1.757   5.508  0.0757 -0.2332 -0.3065
 8611SOL     OW34209   0.172   2.734   0.884  0.0388 -0.5843 -0.3789
 8611SOL    HW234210   0.181   2.792   0.959  1.2395 -2.3746  0.9426
 8611SOL    HW334211   0.113   2.780   0.824 -0.7403  1.0145  1.5332
 8611SOL    MW434212   0.165   2.747   0.886  0.0944 -0.6095  0.0477
 8612SOL     OW34213   0.716   4.748   1.367 -0.3361  0.0386  0.2296
 8612SOL    HW234214   0.761   4.748   1.282 -0.6441  1.0140  0.0557
 8612SOL    HW334215   0.728   4.837   1.401 -1.5643  0.1277  0.4755
 8612SOL    MW434216   0.723   4.760   1.360 -0.5387  0.1790  0.2391
 8613SOL     OW34217   4.357   4.216   2.120  0.4841  0.0598  0.2144
 8613SOL    HW234218   4.274   4.175   2.144  1.0789 -0.5559  1.3197
 8613SOL    HW334219   4.420   4.179   2.181  1.0788  2.6094  1.2836
 8613SOL    MW434220   4.354   4.206   2.131  0.6410  0.3150  0.5013
 8614SOL     OW34221   1.114   6.239   1.668 -0.6148 -0.2615 -0.2591
 8614SOL    HW234222   1.081   6.317   1.713  1.2447  1.2007 -1.2888
 8614SOL    HW334223   1.123   6.265   1.577 -1.9542 -2.3972 -1.0859
 8614SOL    MW434224   1.111   6.253   1.662 -0.5461 -0.3503 -0.5040
 8615SOL     OW34225   4.274   0.742   2.315  0.1425 -0.4178  0.0567
 8615SOL    HW234226   4.351   0.787   2.282 -0.8360  0.8523 -0.6110
 8615SOL    HW334227   4.265   0.665   2.258 -0.0008  0.3262 -0.9598
 8615SOL    MW434228   4.283   0.738   2.303 -0.0055 -0.1520 -0.1655
 8616SOL     OW34229   0.788   4.575   2.636 -0.3131 -0.1195  0.0795
 8616SOL    HW234230   0.734   4.619   2.702 -1.5755 -0.6967 -0.5220
 8616SOL    HW334231   0.848   4.642   2.605 -2.5376  1.3934 -1.2183
 8616SOL    MW434232   0.788   4.589   2.641 -0.7731  0.0039 -0.1711
 8617SOL     OW34233   6.213   1.441   1.711  0.2990  0.2666 -0.1498
 8617SOL    HW234234   6.145   1.452   1.644  0.9232 -0.3097 -0.9085
 8617SOL    HW334235   6.294   1.466   1.666  0.8698 -1.1232  0.0426
 8617SOL    MW434236   6.214   1.446   1.696  0.4566  0.0072 -0.2245
 8618SOL     OW34237   5.078   5.587   6.223  0.3564 -0.1127  0.3977
 8618SOL    HW234238   4.983   5.582   6.213  0.2725  2.6777 -1.1960
 8618SOL    HW334239   5.109   5.617   6.137  2.5800 -0.1573  1.1390
 8618SOL    MW434240   5.069   5.590   6.210  0.6387  0.2496  0.2853
 8619SOL     OW34241   2.869   2.348   3.289 -0.0821  0.1313  0.1826
 8619SOL    HW234242   2.847   2.432   3.328 -0.2417  0.4021 -0.4794
 8619SOL    HW334243   2.784   2.310   3.263  0.0543  0.1846 -0.3585
 8619SOL    MW434244   2.854   2.354   3.291 -0.0851  0.1741  0.0239
 8620SOL     OW34245   2.208   3.089   4.345 -0.1521 -0.5476  0.1070
 8620SOL    HW234246   2.128   3.062   4.390 -0.4395  0.3731  0.1825
 8620SOL    HW334247   2.275   3.088   4.414 -1.0000  2.8619  1.2002
 8620SOL    MW434248   2.206   3.085   4.360 -0.3019  0.0237  0.2612
 8621SOL     OW34249   6.384   5.264   4.797 -0.3223  0.6023  0.3250
 8621SOL    HW234250   6.360   5.355   4.777 -0.5521  0.0943 -1.9634
 8621SOL    HW334251   6.303   5.226   4.831 -0.2262  1.2351  1.2993
 8621SOL    MW434252   6.370   5.271   4.799 -0.3399  0.6187  0.1517
 8622SOL     OW34253   5.687   5.992   3.976  0.1374 -0.8251  0.6327
 8622SOL    HW234254   5.649   5.905   3.990  1.3845 -1.3943  0.6874
 8622SOL    HW334255   5.615   6.053   3.989 -1.1757 -1.9211 -1.0694
 8622SOL    MW434256   5.673   5.989   3.980  0.1287 -1.0448  0.4153
 8623SOL     OW34257   0.600   0.439   2.929 -0.3064 -0.5144  0.0157
 8623SOL    HW234258   0.566   0.378   2.994 -0.4573  0.2792  0.6887
 8623SOL    HW334259   0.523   0.489   2.900 -0.3128 -1.1112 -1.0610
 8623SOL    MW434260   0.585   0.438   2.934 -0.3271 -0.4884 -0.0376
 8624SOL     OW34261   1.599   6.259   3.310 -0.1188  0.4011 -0.0782
 8624SOL    HW234262   1.549   6.340   3.303  0.3240  0.7310  0.5473
 8624SOL    HW334263   1.671   6.280   3.369 -0.8139 -0.8357  1.2851
 8624SOL    MW434264   1.602   6.272   3.317 -0.1521  0.2814  0.1842
 8625SOL     OW34265   4.360   4.042   1.266  0.9252  0.3225 -0.2130
 8625SOL    HW234266   4.368   4.012   1.175 -0.6576 -1.2569  0.1179
 8625SOL    HW334267   4.385   3.966   1.318 -0.5526  0.4119  0.6681
 8625SOL    MW434268   4.364   4.028   1.261  0.5214  0.1259 -0.0531
 8626SOL     OW34269   3.470   3.784   0.231  0.4480  0.3067 -0.5388
 8626SOL    HW234270   3.458   3.877   0.212  1.6608  0.4180 -0.8381
 8626SOL    HW334271   3.551   3.780   0.281  0.4745 -0.6094 -0.6404
 8626SOL    MW434272   3.479   3.796   0.235  0.6115  0.2005 -0.5917
 8627SOL     OW34273   6.359   3.238   3.594  0.7983  0.4806  0.2643
 8627SOL    HW234274   6.325   3.226   3.683  1.3944  3.2555  0.9471
 8627SOL    HW334275   6.430   3.174   3.587 -0.1121 -0.6945  1.2686
 8627SOL    MW434276   6.364   3.228   3.605  0.7568  0.6917  0.4869
 8628SOL     OW34277   0.229   0.114   0.556 -0.1458  0.2855  0.2718
 8628SOL    HW234278   0.297   0.148   0.614 -0.6824 -1.2026  1.8744
 8628SOL    HW334279   0.147   0.132   0.602 -0.6610 -0.1874 -0.4336
 8628SOL    MW434280   0.227   0.121   0.570 -0.2845  0.0268  0.3902
 8629SOL     OW34281   5.505   4.646   3.763  0.0921  0.5528  0.1962
 8629SOL    HW234282   5.591   4.609   3.742 -0.3024 -0.2779 -0.0235
 8629SOL    HW334283   5.472   4.679   3.680  0.4806  1.5031  0.4094
 8629SOL    MW434284   5.512   4.645   3.749  0.0913  0.5686  0.1954
 8630SOL     OW34285   3.311   0.484   2.998  0.0701  0.4570 -0.2812
 8630SOL    HW234286   3.243   0.545   3.024 -1.0760 -0.6824 -0.5040
 8630SOL    HW334287   3.275   0.398   3.018  1.0920 -0.2133 -1.2051
 8630SOL    MW434288   3.297   0.481   3.004  0.0537  0.2182 -0.4325
 8631SOL     OW34289   0.717   1.562   2.002 -0.0483 -0.2471 -0.4442
 8631SOL    HW234290   0.750   1.473   1.986  0.9411  0.2181 -1.0315
 8631SOL    HW334291   0.701   1.564   2.096 -2.6951 -1.9090 -0.7488
 8631SOL    MW434292   0.719   1.550   2.012 -0.2670 -0.4050 -0.5619
 8632SOL     OW34293   1.765   4.830   6.260 -0.1240  0.8401 -0.0396
 8632SOL    HW234294   1.763   4.770   6.334 -1.7379 -1.1903 -1.6015
 8632SOL    HW334295   1.677   4.867   6.256 -0.3364  0.2709 -1.3695
 8632SOL    MW434296   1.753   4.827   6.269 -0.3650  0.4971 -0.4212
 8633SOL     OW34297   5.211   0.960   5.850 -0.2194 -0.3388  0.6621
 8633SOL    HW234298   5.305   0.973   5.836 -0.5763  1.5932 -0.2573
 8633SOL    HW334299   5.203   0.947   5.945  0.9541 -0.2142  0.7934
 8633SOL    MW434300   5.223   0.960   5.861 -0.1117 -0.0675  0.5581
 8634SOL     OW34301   2.656   2.748   0.749  0.1563  0.1841  0.0845
 8634SOL    HW234302   2.725   2.689   0.720  0.9603  1.0854  0.1069
 8634SOL    HW334303   2.619   2.706   0.826 -0.7878 -1.3523 -1.1487
 8634SOL    MW434304   2.660   2.735   0.755  0.1378  0.1003 -0.0753
 8635SOL     OW34305   1.081   4.080   5.890  0.1717  0.7472  0.6792
 8635SOL    HW234306   1.051   4.171   5.885  0.4331  1.1350  3.8316
 8635SOL    HW334307   1.088   4.052   5.799  0.6637  4.0621 -0.4533
 8635SOL    MW434308   1.078   4.088   5.877  0.2711  1.2357  0.9457
 8636SOL     OW34309   2.402   6.335   0.347  0.5618 -0.1640 -0.3865
 8636SOL    HW234310   2.469   6.340   0.415  1.5552 -1.3763 -1.2263
 8636SOL    HW334311   2.414   6.248   0.309 -0.1052  0.4108 -1.9778
 8636SOL    MW434312   2.412   6.324   0.351  0.6049 -0.2481 -0.7073
 8637SOL     OW34313   0.197   4.237   6.059  0.0768 -0.1584 -0.0653
 8637SOL    HW234314   0.221   4.156   6.015  1.9432  0.8143 -0.9734
 8637SOL    HW334315   0.259   4.244   6.132  0.2214  0.6297 -0.2454
 8637SOL    MW434316   0.208   4.227   6.063  0.3421  0.0739 -0.2088
 8638SOL     OW34317   3.238   6.024   2.968 -0.4864  0.3814  0.4502
 8638SOL    HW234318   3.177   6.073   2.913 -1.9195 -2.7379 -0.9954
 8638SOL    HW334319   3.324   6.044   2.932 -0.8864  2.3783  0.4745
 8638SOL    MW434320   3.241   6.033   2.956 -0.7282  0.2333  0.2626
 8639SOL     OW34321   4.312   1.089   4.546 -0.1902 -0.1603 -0.1393
 8639SOL    HW234322   4.271   1.162   4.592 -1.3042  0.7886 -2.4731
 8639SOL    HW334323   4.374   1.130   4.486  0.0347 -1.2302 -0.6601
 8639SOL    MW434324   4.315   1.104   4.544 -0.3075 -0.1762 -0.5159
 8640SOL     OW34325   3.625   4.877   4.341 -0.2088 -0.2773 -0.5606
 8640SOL    HW234326   3.659   4.966   4.346 -0.1048 -0.3355 -0.2124
 8640SOL    HW334327   3.530   4.887   4.343 -0.1882 -0.2066  0.0174
 8640SOL    MW434328   3.617   4.890   4.342 -0.1924 -0.2756 -0.4384
 8641SOL     OW34329   1.814   2.148   4.076 -0.2457  0.1337 -0.4183
 8641SOL    HW234330   1.844   2.067   4.117 -0.2380 -0.8881 -2.3601
 8641SOL    HW334331   1.863   2.217   4.122 -0.5448 -0.8906  1.5314
 8641SOL    MW434332   1.824   2.147   4.088 -0.2842 -0.1363 -0.4172
 8642SOL     OW34333   2.726   1.855   5.684 -0.1071  0.5272 -0.4372
 8642SOL    HW234334   2.733   1.941   5.724 -1.1088 -0.0506  1.0868
 8642SOL    HW334335   2.816   1.825   5.673  0.2155  1.3133  0.0370
 8642SOL    MW434336   2.738   1.862   5.688 -0.1967  0.5547 -0.1736
 8643SOL     OW34337   1.251   3.332   2.280 -0.0080  0.1173  0.3254
 8643SOL    HW234338   1.227   3.378   2.200 -0.9745  1.4335  1.3275
 8643SOL    HW334339   1.186   3.262   2.288  1.0691 -1.0916 -0.8483
 8643SOL    MW434340   1.239   3.329   2.271  0.0066  0.1315  0.3028
 8644SOL     OW34341   4.687   5.410   1.600 -0.2959 -0.3644  0.2189
 8644SOL    HW234342   4.626   5.402   1.526  0.3122  0.7288 -0.4189
 8644SOL    HW334343   4.692   5.322   1.636  1.4522 -1.6178 -2.6950
 8644SOL    MW434344   4.679   5.398   1.595  0.0150 -0.3855 -0.2497
 8645SOL     OW34345   0.521   4.729   0.104 -0.0674 -0.5972 -0.0083
 8645SOL    HW234346   0.428   4.710   0.101 -0.2166  0.1601 -2.2414
 8645SOL    HW334347   0.546   4.741   0.012  2.2929 -1.0847  0.5079
 8645SOL    MW434348   0.512   4.728   0.091  0.2244 -0.5616 -0.2348
 8646SOL     OW34349   6.303   4.973   5.451  0.4982  0.5080 -0.3227
 8646SOL    HW234350   6.264   4.999   5.535 -0.8331 -2.4459  0.0818
 8646SOL    HW334351   6.282   5.046   5.392 -2.5395  0.6878  0.8068
 8646SOL    MW434352   6.295   4.986   5.455 -0.0782  0.1420 -0.1203
 8647SOL     OW34353   3.545   4.705   1.352  0.4422 -0.5504  0.0977
 8647SOL    HW234354   3.634   4.723   1.381  0.1069 -1.2384  1.6425
 8647SOL    HW334355   3.519   4.783   1.304  2.2352 -0.7588 -1.3483
 8647SOL    MW434356   3.554   4.718   1.349  0.6345 -0.6687  0.1107
 8648SOL     OW34357   1.793   6.366   5.902 -0.3508 -0.2577 -0.0373
 8648SOL    HW234358   1.760   6.282   5.869 -0.9341  0.1127 -0.4181
 8648SOL    HW334359   1.780   6.427   5.829 -0.0652  0.1934  0.2859
 8648SOL    MW434360   1.787   6.363   5.888 -0.3901 -0.1493 -0.0449
 8649SOL     OW34361   2.614   1.557   4.022 -0.3992  0.7113  0.0506
 8649SOL    HW234362   2.620   1.465   3.999  1.9923  0.3033  1.9668
 8649SOL    HW334363   2.524   1.568   4.055 -0.9772 -0.6684 -0.9774
 8649SOL    MW434364   2.603   1.547   4.023 -0.1600  0.4754  0.1678
 8650SOL     OW34365   5.829   1.164   2.990 -0.5067 -0.6236  0.2107
 8650SOL    HW234366   5.911   1.213   2.987 -1.0520  0.3023 -0.1291
 8650SOL    HW334367   5.778   1.208   3.059 -0.7000 -1.2286  0.4626
 8650SOL    MW434368   5.833   1.177   2.999 -0.6042 -0.5813  0.1991
 8651SOL     OW34369   1.837   1.667   4.024  0.3260 -0.0940 -0.1588
 8651SOL    HW234370   1.882   1.664   3.940  3.4015 -0.3593  1.3512
 8651SOL    HW334371   1.823   1.576   4.048  0.8770 -0.0612  0.3005
 8651SOL    MW434372   1.841   1.655   4.016  0.8045 -0.1246  0.1010
 8652SOL     OW34373   4.911   4.905   0.371  0.1863  0.3047  0.5843
 8652SOL    HW234374   4.993   4.869   0.406  1.1085  0.0738 -1.6566
 8652SOL    HW334375   4.859   4.924   0.449  1.9991 -0.3836  2.0600
 8652SOL    MW434376   4.915   4.903   0.386  0.5471  0.1834  0.4833
 8653SOL     OW34377   0.731   6.205   5.887  0.1283  0.4557 -0.1068
 8653SOL    HW234378   0.783   6.284   5.868 -0.3344  0.7935  0.0222
 8653SOL    HW334379   0.646   6.238   5.916 -0.7666 -0.0892 -1.9498
 8653SOL    MW434380   0.727   6.220   5.888 -0.0508  0.4284 -0.3330
 8654SOL     OW34381   4.770   5.953   4.196  0.9877  0.3089 -0.0819
 8654SOL    HW234382   4.692   5.990   4.237  0.8343 -0.2337  0.1220
 8654SOL    HW334383   4.809   6.026   4.148 -1.0964  0.0362 -2.4023
 8654SOL    MW434384   4.765   5.967   4.195  0.6925  0.2013 -0.3611
 8655SOL     OW34385   3.283   6.139   0.815 -0.0203  0.4703  0.1421
 8655SOL    HW234386   3.208   6.128   0.757  1.0476 -0.6295 -1.1138
 8655SOL    HW334387   3.348   6.185   0.761  0.4336  0.8369  0.9903
 8655SOL    MW434388   3.282   6.143   0.800  0.1805  0.3735  0.0883
 8656SOL     OW34389   1.902   1.548   1.616  0.3003  0.0010 -0.4422
 8656SOL    HW234390   1.930   1.476   1.559  0.5624  0.3624 -0.7833
 8656SOL    HW334391   1.983   1.597   1.632  0.6062 -1.1063  1.7432
 8656SOL    MW434392   1.917   1.545   1.610  0.3752 -0.0974 -0.1989
 8657SOL     OW34393   5.126   5.310   3.183  0.0973 -0.2014 -0.1422
 8657SOL    HW234394   5.070   5.332   3.109 -0.7270 -1.2021  0.1447
 8657SOL    HW334395   5.215   5.331   3.154 -0.2543 -0.1992 -1.2664
 8657SOL    MW434396   5.131   5.315   3.170 -0.0578 -0.3331 -0.2527
 8658SOL     OW34397   0.885   3.066   5.493 -0.2995  0.0879  0.6844
 8658SOL    HW234398   0.791   3.065   5.475 -0.2839  1.0715  0.4937
 8658SOL    HW334399   0.898   2.996   5.557 -0.5726 -2.5944 -2.0022
 8658SOL    MW434400   0.874   3.057   5.499 -0.3334 -0.1362  0.3048
 8659SOL     OW34401   0.273   1.281   0.717  0.6560 -0.7066  0.0519
 8659SOL    HW234402   0.304   1.299   0.628 -0.4632  0.9749 -0.0474
 8659SOL    HW334403   0.208   1.349   0.734  0.5182 -1.2612  2.0094
 8659SOL    MW434404   0.268   1.292   0.707  0.4901 -0.5579  0.2970
 8660SOL     OW34405   3.750   4.566   3.307  0.2477  0.8041  0.3534
 8660SOL    HW234406   3.722   4.542   3.219  1.1673  1.4869 -0.1346
 8660SOL    HW334407   3.706   4.648   3.326 -0.1255  0.5450  0.6260
 8660SOL    MW434408   3.741   4.574   3.298  0.3198  0.8600  0.3250
 8661SOL     OW34409   5.255   1.249   1.075 -0.3217 -0.6162 -0.0280
 8661SOL    HW234410   5.212   1.196   1.143 -1.2656  0.7614  0.4913
 8661SOL    HW334411   5.344   1.261   1.107 -0.7873  0.1016  1.0488
 8661SOL    MW434412   5.261   1.244   1.088 -0.5076 -0.3398  0.1826
 8662SOL     OW34413   0.677   1.786   2.886 -0.4268  0.3704  0.2028
 8662SOL    HW234414   0.670   1.747   2.973 -0.0586  1.4031  0.7045
 8662SOL    HW334415   0.656   1.878   2.898 -3.1529  0.0504 -1.2996
 8662SOL    MW434416   0.674   1.793   2.899 -0.7379  0.4644  0.0708
 8663SOL     OW34417   5.188   6.102   5.609 -0.1920 -0.0357  0.6298
 8663SOL    HW234418   5.172   6.033   5.674 -0.4961 -1.2724 -0.7104
 8663SOL    HW334419   5.279   6.088   5.581  1.0030  2.3357  2.8249
 8663SOL    MW434420   5.198   6.091   5.614 -0.0745  0.1140  0.7426
 8664SOL     OW34421   5.820   0.835   4.307  0.3161 -0.4041 -0.1599
 8664SOL    HW234422   5.915   0.821   4.307  0.1612 -1.5678 -0.2073
 8664SOL    HW334423   5.787   0.776   4.238 -0.4629 -0.2156  0.0388
 8664SOL    MW434424   5.828   0.825   4.298  0.1929 -0.5328 -0.1399
 8665SOL     OW34425   2.535   4.638   4.398 -0.2350 -0.2851 -0.1990
 8665SOL    HW234426   2.459   4.581   4.389 -0.1727 -0.6430  1.2139
 8665SOL    HW334427   2.498   4.727   4.398 -1.0396 -0.5000  2.9595
 8665SOL    MW434428   2.520   4.642   4.397 -0.3330 -0.3607  0.4041
 8666SOL     OW34429   4.486   4.365   4.024  0.3112  0.2237  0.3682
 8666SOL    HW234430   4.399   4.352   4.063  0.4409  0.3687  0.7063
 8666SOL    HW334431   4.515   4.276   4.003  0.0524  0.1790  0.1896
 8666SOL    MW434432   4.478   4.351   4.026  0.2942  0.2369  0.3893
 8667SOL     OW34433   5.465   2.975   4.015 -0.2889 -0.1696 -0.3367
 8667SOL    HW234434   5.471   2.996   4.108 -0.1951 -2.6044  0.2685
 8667SOL    HW334435   5.394   3.030   3.983  0.9237  2.1188  0.6941
 8667SOL    MW434436   5.456   2.985   4.023 -0.1165 -0.1889 -0.1209
 8668SOL     OW34437   1.915   3.228   5.499  0.4844 -0.2051  0.7971
 8668SOL    HW234438   1.859   3.297   5.534  0.3176 -0.8181  1.7747
 8668SOL    HW334439   1.954   3.187   5.576 -0.5055 -2.1182  0.3514
 8668SOL    MW434440   1.913   3.232   5.513  0.3318 -0.5384  0.8673
 8669SOL     OW34441   1.883   3.488   3.421  0.0361 -0.5658 -0.0460
 8669SOL    HW234442   1.833   3.566   3.398  0.1491 -0.8141 -1.1983
 8669SOL    HW334443   1.822   3.416   3.408 -0.5875 -0.6052  2.5664
 8669SOL    MW434444   1.868   3.489   3.416 -0.0312 -0.6037  0.1466
 8670SOL     OW34445   0.526   1.080   0.532 -0.1543  0.1773  0.1381
 8670SOL    HW234446   0.510   1.049   0.621 -0.4576 -0.9204 -0.2852
 8670SOL    HW334447   0.591   1.019   0.497 -0.0762  0.5712 -0.4102
 8670SOL    MW434448   0.533   1.068   0.539 -0.1841  0.0845  0.0099
 8671SOL     OW34449   3.753   0.747   3.193  0.9519  0.0434  0.3374
 8671SOL    HW234450   3.815   0.721   3.125  2.6960  1.8584  1.1300
 8671SOL    HW334451   3.668   0.719   3.160  1.8228  0.1904 -2.2156
 8671SOL    MW434452   3.750   0.740   3.180  1.2969  0.3022  0.1051
 8672SOL     OW34453   2.907   5.010   1.808 -0.1858 -0.0796  0.2177
 8672SOL    HW234454   2.900   4.999   1.713  0.7256 -1.1866  0.2641
 8672SOL    HW334455   2.818   5.036   1.835 -0.5791 -0.2298 -0.8587
 8672SOL    MW434456   2.894   5.012   1.799 -0.1174 -0.2455  0.0818
 8673SOL     OW34457   1.041   3.218   0.990  0.5135 -0.6165 -0.1975
 8673SOL    HW234458   1.113   3.264   1.033  0.3505 -2.3991  2.1850
 8673SOL    HW334459   1.021   3.145   1.049 -0.6031 -2.5238 -2.7683
 8673SOL    MW434460   1.048   3.215   1.003  0.3447 -1.1033 -0.2223
 8674SOL     OW34461   5.343   4.798   0.703  0.4453 -0.6073  0.2034
 8674SOL    HW234462   5.304   4.723   0.747 -0.9437  0.4237  0.8083
 8674SOL    HW334463   5.381   4.850   0.775  0.8963 -0.4499 -0.1457
 8674SOL    MW434464   5.343   4.795   0.718  0.3215 -0.4505  0.2372
 8675SOL     OW34465   2.142   6.296   4.566 -0.7715 -0.2710 -0.2357
 8675SOL    HW234466   2.199   6.246   4.507  1.1582  0.7612  0.6431
 8675SOL    HW334467   2.072   6.329   4.510 -0.4016 -1.3915 -1.4201
 8675SOL    MW434468   2.141   6.294   4.551 -0.4681 -0.2826 -0.2760
 8676SOL     OW34469   1.540   1.260   3.181 -0.5219 -0.2673  0.3833
 8676SOL    HW234470   1.571   1.350   3.177 -4.1705  1.1311  0.4956
 8676SOL    HW334471   1.538   1.231   3.090 -0.6842  0.2585  0.2210
 8676SOL    MW434472   1.544   1.268   3.169 -1.0247 -0.0134  0.3767
 8677SOL     OW34473   4.921   2.087  -0.000 -0.0075  0.0802 -0.6288
 8677SOL    HW234474   4.859   2.014  -0.008 -0.8320  0.8409 -1.4039
 8677SOL    HW334475   4.955   2.100  -0.089  0.0985  0.6741 -0.5073
 8677SOL    MW434476   4.917   2.079  -0.013 -0.1023  0.2589 -0.7150
 8678SOL     OW34477   2.586   0.828   6.049  0.0454 -0.0193  0.3090
 8678SOL    HW234478   2.541   0.744   6.047 -2.0635  1.0282  0.7088
 8678SOL    HW334479   2.605   0.844   6.142  0.1447  0.1049  0.2693
 8678SOL    MW434480   2.583   0.819   6.061 -0.2197  0.1353  0.3565
 8679SOL     OW34481   1.799   1.351   0.257 -0.1943 -0.0952 -0.2671
 8679SOL    HW234482   1.803   1.298   0.178  1.1373 -2.1549  1.0901
 8679SOL    HW334483   1.773   1.289   0.326  0.8152  1.1342  1.2880
 8679SOL    MW434484   1.796   1.336   0.256  0.1145 -0.2047  0.1171
 8680SOL     OW34485   2.372   4.982   1.295 -0.4256 -0.0628  0.2736
 8680SOL    HW234486   2.335   5.039   1.362  1.3596  0.2765  1.0478
 8680SOL    HW334487   2.342   5.020   1.212  0.2168  1.6815  0.7820
 8680SOL    MW434488   2.363   4.995   1.293 -0.1053  0.2121  0.4428
 8681SOL     OW34489   6.222   2.388   1.639  0.1291  0.0473 -0.0776
 8681SOL    HW234490   6.151   2.426   1.587 -0.5191  0.0996  0.8206
 8681SOL    HW334491   6.288   2.457   1.642  0.7047 -0.3739 -1.7935
 8681SOL    MW434492   6.221   2.402   1.632  0.1195 -0.0014 -0.1855
 8682SOL     OW34493   5.365   5.171   2.292 -0.6079  0.2171  0.3886
 8682SOL    HW234494   5.429   5.124   2.239 -1.3829  1.3714 -1.7034
 8682SOL    HW334495   5.395   5.160   2.382  1.0759 -1.4002 -0.3130
 8682SOL    MW434496   5.377   5.164   2.296 -0.4880  0.1560  0.0200
 8683SOL     OW34497   0.825   5.696   3.817  0.6534 -0.8880 -0.2887
 8683SOL    HW234498   0.842   5.790   3.807 -1.0351 -0.5167  0.0143
 8683SOL    HW334499   0.755   5.677   3.755  1.4315 -2.1238 -0.8323
 8683SOL    MW434500   0.818   5.706   3.808  0.5333 -1.0021 -0.3204
 8684SOL     OW34501   4.308   2.791   4.863  0.0417 -0.3346  0.0590
 8684SOL    HW234502   4.213   2.786   4.863  0.0270 -0.1008  0.6035
 8684SOL    HW334503   4.329   2.846   4.787 -0.2650 -0.1955  0.0743
 8684SOL    MW434504   4.298   2.798   4.853 -0.0007 -0.2854  0.1329
 8685SOL     OW34505   1.503   1.516   0.123  0.2614 -0.0503 -0.2353
 8685SOL    HW234506   1.549   1.599   0.130 -0.8839  0.6604 -0.8920
 8685SOL    HW334507   1.435   1.531   0.057 -0.3605 -1.3259  0.0766
 8685SOL    MW434508   1.500   1.529   0.115  0.0282 -0.1249 -0.2808
 8686SOL     OW34509   5.169   1.043   4.978 -0.4709  0.2703  0.1195
 8686SOL    HW234510   5.141   1.047   4.887 -0.4871 -1.3604  0.0169
 8686SOL    HW334511   5.259   1.075   4.977 -0.5460  0.4788 -0.4204
 8686SOL    MW434512   5.177   1.048   4.966 -0.4829  0.0827  0.0347
 8687SOL     OW34513   1.853   5.683   3.128  0.1788  0.3192  0.0600
 8687SOL    HW234514   1.856   5.778   3.132 -1.7738  0.4092  2.5552
 8687SOL    HW334515   1.765   5.661   3.158  0.1684 -2.2667 -1.5837
 8687SOL    MW434516   1.842   5.692   3.133 -0.0802 -0.0101  0.1724
 8688SOL     OW34517   4.166   5.770   3.121  0.6220  0.3186  0.1925
 8688SOL    HW234518   4.203   5.742   3.037  1.0471 -0.5568  0.6547
 8688SOL    HW334519   4.209   5.853   3.141  0.6321  0.4509 -0.3786
 8688SOL    MW434520   4.177   5.777   3.113  0.6794  0.2206  0.1781
 8689SOL     OW34521   2.761   3.803   2.156 -0.5726 -0.2489  0.2226
 8689SOL    HW234522   2.720   3.728   2.199 -1.5664  0.5012  0.6109
 8689SOL    HW334523   2.831   3.765   2.102 -1.0147 -1.4377  0.4703
 8689SOL    MW434524   2.765   3.788   2.154 -0.7621 -0.3068  0.3065
 8690SOL     OW34525   1.716   1.216   2.863 -0.3084 -0.5016  0.0581
 8690SOL    HW234526   1.726   1.178   2.775 -1.6480 -0.8177  0.0130
 8690SOL    HW334527   1.763   1.299   2.859 -0.1989 -0.6002 -0.9068
 8690SOL    MW434528   1.723   1.222   2.851 -0.4707 -0.5563 -0.0751
 8691SOL     OW34529   2.247   4.444   6.101 -0.3137 -0.1148 -0.0621
 8691SOL    HW234530   2.304   4.412   6.171 -1.0027  0.6069  0.8413
 8691SOL    HW334531   2.184   4.500   6.145 -0.6094  0.5533 -1.3046
 8691SOL    MW434532   2.246   4.447   6.116 -0.4436  0.0686 -0.1069
 8692SOL     OW34533   3.038   5.730   1.246  0.0621 -0.5383  0.0514
 8692SOL    HW234534   3.131   5.741   1.267  0.1910 -0.7690 -0.3861
 8692SOL    HW334535   3.009   5.818   1.223  0.1948 -0.4791  0.1041
 8692SOL    MW434536   3.047   5.743   1.246  0.0966 -0.5610  0.0006
 8693SOL     OW34537   6.060   3.739   3.290 -0.0215 -0.2689 -0.3052
 8693SOL    HW234538   5.967   3.758   3.306  0.1712  0.8145 -0.4139
 8693SOL    HW334539   6.069   3.645   3.310 -0.6700  0.0735  1.8187
 8693SOL    MW434540   6.049   3.729   3.295 -0.0817 -0.0808 -0.0393
 8694SOL     OW34541   2.747   0.511   4.628  0.2789  0.2759  0.4855
 8694SOL    HW234542   2.700   0.588   4.596  0.5007  0.4981  0.6923
 8694SOL    HW334543   2.740   0.447   4.557  0.6567  0.7193  0.0493
 8694SOL    MW434544   2.739   0.512   4.615  0.3580  0.3637  0.4552
 8695SOL     OW34545   0.305   4.186   4.527  0.6595 -0.7184 -0.5435
 8695SOL    HW234546   0.218   4.158   4.499  0.3833 -1.3285  0.8548
 8695SOL    HW334547   0.365   4.120   4.492  0.3861 -1.1312 -0.2382
 8695SOL    MW434548   0.302   4.173   4.519  0.5870 -0.8534 -0.3187
 8696SOL     OW34549   4.188   3.743   0.294  0.4909  0.2486 -0.7093
 8696SOL    HW234550   4.134   3.784   0.362  0.4885 -0.0104 -0.5549
 8696SOL    HW334551   4.178   3.649   0.309 -0.1705  0.1622 -1.5733
 8696SOL    MW434552   4.179   3.736   0.305  0.4034  0.2030 -0.8029
 8697SOL     OW34553   5.405   1.748   5.402  0.3690 -0.1007  0.4589
 8697SOL    HW234554   5.382   1.747   5.309  1.4280 -1.1116  0.1787
 8697SOL    HW334555   5.430   1.839   5.419 -0.2019  0.1793 -0.1402
 8697SOL    MW434556   5.405   1.760   5.392  0.4334 -0.1971  0.3429
 8698SOL     OW34557   3.899   5.386   1.386 -0.0452  0.4499  0.3691
 8698SOL    HW234558   3.918   5.301   1.347 -1.1882  0.0656  0.6371
 8698SOL    HW334559   3.807   5.403   1.366 -0.0198  1.3165  0.8948
 8698SOL    MW434560   3.889   5.377   1.378 -0.1926  0.5135  0.4738
 8699SOL     OW34561   0.459   3.773   1.961 -0.3543  0.0361 -0.5792
 8699SOL    HW234562   0.514   3.784   1.884 -0.8113  0.9845 -0.7845
 8699SOL    HW334563   0.505   3.820   2.030 -1.5427  2.0617 -1.0831
 8699SOL    MW434564   0.472   3.780   1.960 -0.5714  0.4285 -0.6728
 8700SOL     OW34565   5.223   0.427   2.671  0.0840  0.2528  0.2843
 8700SOL    HW234566   5.194   0.397   2.757  0.3510  0.4363  0.4357
 8700SOL    HW334567   5.188   0.361   2.610 -0.1403  0.1477  0.5262
 8700SOL    MW434568   5.215   0.414   2.674  0.0897  0.2631  0.3362
 8701SOL     OW34569   5.632   6.085   5.767  0.1916 -0.2217 -0.1921
 8701SOL    HW234570   5.577   6.054   5.839 -0.0696  0.7157  0.0215
 8701SOL    HW334571   5.570   6.121   5.704  0.4508 -0.6480 -0.6956
 8701SOL    MW434572   5.616   6.085   5.768  0.1913 -0.1543 -0.2304
 8702SOL     OW34573   0.785   4.965   4.181  0.1786  0.2140 -0.0442
 8702SOL    HW234574   0.786   5.046   4.231  1.6705  0.8695 -1.0683
 8702SOL    HW334575   0.726   4.984   4.107  2.0902  1.1295 -1.4030
 8702SOL    MW434576   0.777   4.978   4.178  0.6276  0.4213 -0.3586
 8703SOL     OW34577   3.325   5.910   1.739  0.6837  0.0834  0.5462
 8703SOL    HW234578   3.411   5.940   1.708  1.2291 -2.5850 -0.9047
 8703SOL    HW334579   3.339   5.890   1.832  0.7914  2.3288  1.0576
 8703SOL    MW434580   3.338   5.911   1.747  0.7699  0.0276  0.4223
 8704SOL     OW34581   1.866   2.383   2.942 -0.3661  0.9127 -0.2635
 8704SOL    HW234582   1.922   2.405   3.017 -0.9281  0.7237  0.2132
 8704SOL    HW334583   1.830   2.466   2.914 -0.5418  0.9185 -0.0176
 8704SOL    MW434584   1.869   2.397   2.948 -0.4634  0.8886 -0.1682
 8705SOL     OW34585   2.146   0.107   5.181 -0.2385 -0.1287  0.4378
 8705SOL    HW234586   2.140   0.073   5.091  1.2059 -1.3821  0.7614
 8705SOL    HW334587   2.099   0.043   5.234 -2.0705  1.1946  0.4970
 8705SOL    MW434588   2.139   0.094   5.176 -0.2897 -0.1195  0.4883
 8706SOL     OW34589   2.330   5.639   4.346  0.1220  0.5545 -0.1554
 8706SOL    HW234590   2.234   5.644   4.346  0.0366 -0.5808 -1.0117
 8706SOL    HW334591   2.351   5.590   4.266  1.3681  0.0063  0.4823
 8706SOL    MW434592   2.320   5.633   4.336  0.2752  0.3324 -0.1843
 8707SOL     OW34593   4.488   2.380   1.747 -0.2404  0.5948 -0.5388
 8707SOL    HW234594   4.508   2.437   1.821  1.2457  1.0522 -1.2695
 8707SOL    HW334595   4.444   2.437   1.684 -0.1295  0.5669 -0.6415
 8707SOL    MW434596   4.485   2.395   1.749 -0.0297  0.6515 -0.6488
 8708SOL     OW34597   2.728   1.905   2.664 -0.0081 -0.5655 -0.4245
 8708SOL    HW234598   2.793   1.835   2.659 -0.3317 -0.8187 -1.5593
 8708SOL    HW334599   2.776   1.982   2.692  0.3733 -1.2158  0.7700
 8708SOL    MW434600   2.743   1.906   2.667 -0.0005 -0.6847 -0.4166
 8709SOL     OW34601   1.374   5.193   3.206 -0.2940  0.4629 -0.3899
 8709SOL    HW234602   1.427   5.115   3.191  0.6083  0.8545  0.5945
 8709SOL    HW334603   1.335   5.213   3.121  0.7070 -0.1514 -1.0116
 8709SOL    MW434604   1.375   5.185   3.193 -0.0429  0.4335 -0.3420
 8710SOL     OW34605   3.900   0.948   6.009 -0.2485  0.6576  0.3469
 8710SOL    HW234606   3.942   1.017   5.957  2.5749 -1.5374 -0.5486
 8710SOL    HW334607   3.937   0.957   6.096  2.4311 -1.3182 -0.4581
 8710SOL    MW434608   3.911   0.958   6.013  0.4775  0.1073  0.1225
 8711SOL     OW34609   5.990   3.494   4.112 -0.1564  0.0898  0.0122
 8711SOL    HW234610   5.928   3.534   4.173 -0.8723 -0.5217 -0.3103
 8711SOL    HW334611   5.943   3.490   4.029  1.0050  1.4500 -0.7632
 8711SOL    MW434612   5.976   3.499   4.109 -0.0976  0.1885 -0.1327
 8712SOL     OW34613   3.867   5.231   3.997 -0.1802  0.0836 -0.0609
 8712SOL    HW234614   3.928   5.304   4.007 -0.1918  0.1484 -0.4734
 8712SOL    HW334615   3.920   5.159   3.962 -0.0734 -0.2435  0.7421
 8712SOL    MW434616   3.882   5.231   3.994 -0.1676  0.0490 -0.0094
 8713SOL     OW34617   5.864   4.173   3.530 -0.4048 -0.4720  0.4813
 8713SOL    HW234618   5.943   4.151   3.480 -0.5167 -0.6846  0.3984
 8713SOL    HW334619   5.800   4.108   3.503 -1.0070  0.4667 -0.4068
 8713SOL    MW434620   5.866   4.161   3.520 -0.4991 -0.3762  0.3532
 8714SOL     OW34621   2.754   4.996   3.001 -0.4642 -0.5800  0.2216
 8714SOL    HW234622   2.732   5.086   2.975  0.8697 -0.0577  0.7919
 8714SOL    HW334623   2.675   4.946   2.982 -0.7049  0.3945 -1.6389
 8714SOL    MW434624   2.741   5.001   2.995 -0.3200 -0.3825  0.0513
 8715SOL     OW34625   1.583   5.729   0.171  0.4320 -0.3566  0.5104
 8715SOL    HW234626   1.614   5.653   0.123  2.0736  1.0536 -0.8183
 8715SOL    HW334627   1.503   5.756   0.125  1.4760  0.4267 -0.9140
 8715SOL    MW434628   1.577   5.723   0.159  0.7863 -0.0672  0.1471
 8716SOL     OW34629   3.614   6.012   5.333 -0.4571  0.0532 -0.3217
 8716SOL    HW234630   3.553   5.982   5.400  0.0649 -0.0787  0.0953
 8716SOL    HW334631   3.700   6.008   5.375 -0.2288  0.8218 -0.7045
 8716SOL    MW434632   3.617   6.007   5.347 -0.3581  0.1372 -0.3172
 8717SOL     OW34633   0.330   3.513   3.750 -0.0888 -0.0606  0.1607
 8717SOL    HW234634   0.290   3.554   3.674 -0.0373 -1.3965 -0.6237
 8717SOL    HW334635   0.295   3.561   3.825 -1.8270 -0.0841 -0.5943
 8717SOL    MW434636   0.320   3.525   3.750 -0.3114 -0.2399 -0.0424
 8718SOL     OW34637   1.429   4.159   1.060  0.1651  0.0088 -0.9196
 8718SOL    HW234638   1.449   4.227   0.996 -0.4868 -0.2266 -1.3964
 8718SOL    HW334639   1.356   4.195   1.111  1.4832  0.7003  0.5246
 8718SOL    MW434640   1.422   4.173   1.058  0.2530  0.0690 -0.7919
 8719SOL     OW34641   1.024   0.790   6.331  0.9171  0.2607  0.4437
 8719SOL    HW234642   0.997   0.740   6.254 -0.2771 -0.0202  1.0244
 8719SOL    HW334643   0.963   0.864   6.334  1.6977  0.9182  0.4620
 8719SOL    MW434644   1.012   0.793   6.321  0.8626  0.3104  0.5227
 8720SOL     OW34645   0.354   3.350   2.956  0.1715  0.3369 -0.4840
 8720SOL    HW234646   0.425   3.304   3.001 -1.2802 -0.8976  0.6894
 8720SOL    HW334647   0.341   3.301   2.875  1.1736  1.0686 -1.1025
 8720SOL    MW434648   0.362   3.337   2.952  0.1122  0.2706 -0.4108
 8721SOL     OW34649   0.902   5.137   6.010  0.1578  0.1313 -0.1484
 8721SOL    HW234650   0.861   5.198   6.072 -3.9533 -1.8869 -0.5656
 8721SOL    HW334651   0.897   5.183   5.926 -0.8254  0.1489 -0.0942
 8721SOL    MW434652   0.896   5.151   6.007 -0.5143 -0.1326 -0.1963
 8722SOL     OW34653   3.355   4.435   1.097  0.1188  0.5108 -0.2242
 8722SOL    HW234654   3.347   4.521   1.056 -0.0148  0.4634 -0.2979
 8722SOL    HW334655   3.442   4.436   1.138  1.1217 -0.1551 -2.1989
 8722SOL    MW434656   3.366   4.446   1.097  0.2335  0.4167 -0.4945
 8723SOL     OW34657   1.437   4.297   4.671 -0.3771 -0.5072  0.4193
 8723SOL    HW234658   1.452   4.390   4.690  2.3536 -0.7084 -0.3374
 8723SOL    HW334659   1.397   4.297   4.585  3.3815  0.0141 -1.5398
 8723SOL    MW434660   1.434   4.309   4.662  0.4791 -0.4650  0.0610
 8724SOL     OW34661   3.061   6.125   4.108 -0.0610  0.3139  0.2751
 8724SOL    HW234662   3.034   6.047   4.059 -0.0703  0.0360  0.7192
 8724SOL    HW334663   3.150   6.142   4.077  0.9389 -1.4107  2.0263
 8724SOL    MW434664   3.069   6.117   4.097  0.0697  0.0497  0.5647
 8725SOL     OW34665   2.981   5.933   0.879 -0.0135 -0.1562  0.2837
 8725SOL    HW234666   2.932   5.859   0.842  1.5402 -1.0144 -0.1296
 8725SOL    HW334667   2.980   6.000   0.811  1.1295 -0.9689 -0.5658
 8725SOL    MW434668   2.974   5.932   0.865  0.3423 -0.3767  0.1171
 8726SOL     OW34669   3.048   6.119   0.689 -0.0587  0.0797 -0.0925
 8726SOL    HW234670   3.003   6.116   0.605  0.4745  0.1745 -0.3839
 8726SOL    HW334671   3.014   6.197   0.732  1.1101  1.1407 -1.0447
 8726SOL    MW434672   3.037   6.129   0.684  0.1659  0.2322 -0.2566
 8727SOL     OW34673   5.955   1.955   6.251  0.1688  0.7672 -0.3421
 8727SOL    HW234674   5.913   1.916   6.328 -0.8451  0.6507 -0.9438
 8727SOL    HW334675   5.886   2.002   6.206 -0.1040 -1.8136 -2.9299
 8727SOL    MW434676   5.941   1.956   6.255 -0.0009  0.4113 -0.7629
 8728SOL     OW34677   5.121   4.483   1.478 -0.2365 -0.2675 -0.2832
 8728SOL    HW234678   5.198   4.437   1.447  0.4062 -0.4911  1.5332
 8728SOL    HW334679   5.153   4.569   1.504 -0.6924 -0.1743 -0.0188
 8728SOL    MW434680   5.135   4.488   1.477 -0.2118 -0.2847 -0.0087
 8729SOL     OW34681   0.391   3.521   0.325  1.0584 -0.2925  0.1522
 8729SOL    HW234682   0.325   3.515   0.256  0.4426 -0.5674  0.7518
 8729SOL    HW334683   0.347   3.487   0.403  0.6346  2.9477  1.4851
 8729SOL    MW434684   0.377   3.515   0.326  0.9212  0.0987  0.4071
 8730SOL     OW34685   1.237   0.057   4.521 -0.1702 -0.0128 -0.5829
 8730SOL    HW234686   1.184   0.118   4.573 -0.0724 -0.1864 -0.2779
 8730SOL    HW334687   1.326   0.091   4.527 -0.2573  0.3348 -1.1770
 8730SOL    MW434688   1.242   0.070   4.529 -0.1688  0.0102 -0.6211
 8731SOL     OW34689   2.858   5.916   3.144 -0.3910 -0.2068 -0.0630
 8731SOL    HW234690   2.778   5.946   3.187 -1.0220 -0.1787 -1.2024
 8731SOL    HW334691   2.833   5.833   3.103  0.4241 -0.6470  0.3132
 8731SOL    MW434692   2.844   5.909   3.144 -0.3667 -0.2612 -0.1637
 8732SOL     OW34693   5.308   2.604   1.140  0.4103  0.6253  0.5341
 8732SOL    HW234694   5.305   2.579   1.232 -0.2088 -0.0625  0.3401
 8732SOL    HW334695   5.401   2.604   1.118  0.6052  1.3447  1.2960
 8732SOL    MW434696   5.319   2.601   1.149  0.3543  0.6294  0.6090
 8733SOL     OW34697   4.863   6.012   4.738  0.5714  0.3641  0.1554
 8733SOL    HW234698   4.842   5.953   4.666  1.6570 -0.4512  0.4779
 8733SOL    HW334699   4.781   6.057   4.758 -0.4691 -1.5749  0.4028
 8733SOL    MW434700   4.849   6.010   4.731  0.5773  0.0007  0.2306
 8734SOL     OW34701   5.914   5.719   0.418 -0.0430  0.2129  0.0797
 8734SOL    HW234702   5.885   5.810   0.410 -0.5594  0.2756  2.0973
 8734SOL    HW334703   5.995   5.724   0.469  0.0902 -0.4382 -0.0604
 8734SOL    MW434704   5.921   5.732   0.424 -0.0935  0.1352  0.3274
 8735SOL     OW34705   2.032   1.575   6.375  0.4828  0.1026  0.1098
 8735SOL    HW234706   2.080   1.498   6.404  0.4042  0.0913  0.2067
 8735SOL    HW334707   1.947   1.542   6.347  1.1881 -0.1793 -1.9199
 8735SOL    MW434708   2.027   1.561   6.375  0.5655  0.0639 -0.1452
 8736SOL     OW34709   5.499   3.870   2.056 -0.0828 -0.9398  0.2023
 8736SOL    HW234710   5.520   3.955   2.018 -2.4928 -0.7322 -0.8287
 8736SOL    HW334711   5.420   3.886   2.109  0.0903 -2.3112  0.9283
 8736SOL    MW434712   5.491   3.883   2.058 -0.3780 -1.0934  0.1620
 8737SOL     OW34713   4.994   3.671   4.038 -0.3267 -0.2693  0.3267
 8737SOL    HW234714   4.899   3.682   4.042 -0.4883 -1.7872  1.3145
 8737SOL    HW334715   5.009   3.625   3.955 -0.2722  1.2703 -0.5602
 8737SOL    MW434716   4.984   3.666   4.027 -0.3408 -0.2665  0.3400
 8738SOL     OW34717   1.238   2.986   0.521  0.6710  0.5209 -0.3290
 8738SOL    HW234718   1.204   2.995   0.610 -0.9862 -1.3101 -0.7150
 8738SOL    HW334719   1.327   2.953   0.533  0.4234  0.1800  0.6538
 8738SOL    MW434720   1.245   2.983   0.535  0.4197  0.2344 -0.2503
 8739SOL     OW34721   2.868   4.375   3.239 -0.8530 -0.3115 -0.3734
 8739SOL    HW234722   2.918   4.295   3.226 -0.5472 -0.5002  1.5943
 8739SOL    HW334723   2.830   4.365   3.327  1.3867  2.7978  1.1118
 8739SOL    MW434724   2.869   4.363   3.249 -0.5171  0.0738  0.0821
 8740SOL     OW34725   4.645   0.317   0.849 -0.6713 -0.1542  0.1160
 8740SOL    HW234726   4.711   0.328   0.780 -0.0680  2.3911  0.9888
 8740SOL    HW334727   4.592   0.396   0.845 -1.1438 -0.3202  1.9911
 8740SOL    MW434728   4.647   0.329   0.840 -0.6540  0.1597  0.4786
 8741SOL     OW34729   0.642   4.305   3.374  0.1118  0.5034  0.3414
 8741SOL    HW234730   0.552   4.336   3.366  1.1028  3.3373 -1.0848
 8741SOL    HW334731   0.639   4.240   3.444 -3.0419  0.3786  0.2188
 8741SOL    MW434732   0.630   4.301   3.382 -0.1736  0.8608  0.1371
 8742SOL     OW34733   4.335   0.932   1.316  0.0728 -0.1698 -0.1333
 8742SOL    HW234734   4.357   0.847   1.356  1.8159 -0.0074 -0.6751
 8742SOL    HW334735   4.419   0.970   1.292 -0.7394  1.3082 -0.7736
 8742SOL    MW434736   4.349   0.925   1.318  0.1956  0.0467 -0.2892
 8743SOL     OW34737   0.525   1.464   3.346  0.1640 -0.3789 -0.6248
 8743SOL    HW234738   0.499   1.372   3.355  0.6748 -0.4109  1.0084
 8743SOL    HW334739   0.621   1.462   3.348  0.2123  0.1172 -1.7203
 8743SOL    MW434740   0.534   1.451   3.348  0.2378 -0.3176 -0.5539
 8744SOL     OW34741   1.356   1.417   0.358 -0.1597 -0.6969  0.3486
 8744SOL    HW234742   1.370   1.326   0.385 -0.5372 -1.2241 -1.1177
 8744SOL    HW334743   1.425   1.434   0.294  0.8599  0.5900  1.7423
 8744SOL    MW434744   1.367   1.407   0.353 -0.0750 -0.5967  0.3390
 8745SOL     OW34745   1.005   2.765   3.881  0.2756 -0.2324 -0.0140
 8745SOL    HW234746   0.990   2.673   3.901 -0.7045 -0.3089 -1.0084
 8745SOL    HW334747   0.964   2.812   3.953  0.0431 -0.5668  0.0759
 8745SOL    MW434748   0.997   2.759   3.893  0.1156 -0.2866 -0.1333
 8746SOL     OW34749   0.527   2.213   3.766  0.3608 -0.9769 -0.6773
 8746SOL    HW234750   0.482   2.185   3.846 -2.5547  0.6417 -1.6182
 8746SOL    HW334751   0.459   2.215   3.699  1.1401  3.8366 -1.7068
 8746SOL    MW434752   0.512   2.209   3.768  0.0789 -0.1283 -0.9373
 8747SOL     OW34753   4.386   2.264   0.987  0.0214 -0.5298 -0.6544
 8747SOL    HW234754   4.473   2.259   1.027 -0.0037  1.4960 -0.2588
 8747SOL    HW334755   4.397   2.323   0.912 -1.2855  0.9613  0.2716
 8747SOL    MW434756   4.399   2.271   0.982 -0.1543 -0.0658 -0.4800
 8748SOL     OW34757   0.100   0.212   1.841 -0.0342 -0.1560  0.0925
 8748SOL    HW234758   0.151   0.257   1.908 -0.4017 -0.7761  0.8142
 8748SOL    HW334759   0.024   0.178   1.888 -2.6796  3.0885 -1.4279
 8748SOL    MW434760   0.097   0.213   1.856 -0.4317  0.1902 -0.0129
 8749SOL     OW34761   0.739   6.185   5.118  0.1203 -0.3290 -0.1069
 8749SOL    HW234762   0.757   6.181   5.024  2.7097 -1.5875  0.3539
 8749SOL    HW334763   0.741   6.094   5.147 -1.4933 -0.0410  1.0883
 8749SOL    MW434764   0.742   6.173   5.110  0.2490 -0.4570  0.1116
 8750SOL     OW34765   5.198   0.813   1.174  0.0242 -0.3540  1.0029
 8750SOL    HW234766   5.276   0.786   1.222  0.6592 -0.8508 -0.2633
 8750SOL    HW334767   5.139   0.737   1.179  0.3686 -0.6692  0.4510
 8750SOL    MW434768   5.200   0.799   1.181  0.1534 -0.4611  0.7630
 8751SOL     OW34769   6.040   1.177   5.570  0.3539  0.2087  0.1501
 8751SOL    HW234770   6.117   1.120   5.581  0.6998  0.3769 -1.1570
 8751SOL    HW334771   6.007   1.155   5.483 -0.4736  0.8704  0.2896
 8751SOL    MW434772   6.046   1.167   5.560  0.2904  0.3182 -0.0039
 8752SOL     OW34773   0.789   0.833   5.213  0.0293 -0.2460 -0.2667
 8752SOL    HW234774   0.720   0.843   5.279 -1.3623 -0.6121 -1.6003
 8752SOL    HW334775   0.784   0.741   5.187 -0.5462  0.2435 -2.0032
 8752SOL    MW434776   0.779   0.823   5.218 -0.2302 -0.2297 -0.6717
 8753SOL     OW34777   5.268   1.547   1.785  0.2134  0.7991  0.0444
 8753SOL    HW234778   5.351   1.502   1.769  0.6690  2.0260 -1.3006
 8753SOL    HW334779   5.219   1.536   1.703 -0.8720  0.3045  0.7318
 8753SOL    MW434780   5.272   1.540   1.772  0.1303  0.8957 -0.0424
 8754SOL     OW34781   4.521   3.467   6.125 -0.0821  0.2106 -0.1005
 8754SOL    HW234782   4.450   3.403   6.129  0.0727  0.0743  0.7051
 8754SOL    HW334783   4.506   3.524   6.200 -0.8268  1.7966 -1.4006
 8754SOL    MW434784   4.509   3.466   6.136 -0.1599  0.4019 -0.1658
 8755SOL     OW34785   0.371   6.298   2.485  0.0702 -0.2915 -0.3739
 8755SOL    HW234786   0.434   6.258   2.424  0.1608 -0.4264 -0.1917
 8755SOL    HW334787   0.399   6.268   2.572 -2.5004 -3.5597 -0.4813
 8755SOL    MW434788   0.383   6.289   2.488 -0.2570 -0.7405 -0.3641
 8756SOL     OW34789   4.022   1.048   4.839  0.4360  0.2791  0.2003
 8756SOL    HW234790   4.002   0.956   4.822  0.6086  0.1232  0.7960
 8756SOL    HW334791   4.061   1.047   4.927 -0.8509  1.0855  0.8071
 8756SOL    MW434792   4.024   1.036   4.849  0.2889  0.3649  0.3590
 8757SOL     OW34793   3.591   3.745   3.144 -0.1195  0.5692 -0.2591
 8757SOL    HW234794   3.635   3.829   3.129  0.3469  0.4592  0.4587
 8757SOL    HW334795   3.507   3.768   3.182  0.8464  0.6756  1.9736
 8757SOL    MW434796   3.586   3.759   3.147  0.0694  0.5687  0.1302
 8758SOL     OW34797   3.013   5.566  -0.002 -0.5484 -0.3596 -0.0135
 8758SOL    HW234798   3.106   5.576   0.017 -0.4888 -0.5996 -0.1719
 8758SOL    HW334799   2.969   5.580   0.082 -0.3893  0.0397  0.0012
 8758SOL    MW434800   3.019   5.569   0.011 -0.5196 -0.3386 -0.0325
 8759SOL     OW34801   6.326   4.305   0.734 -0.4590  0.4343  0.0294
 8759SOL    HW234802   6.343   4.360   0.657  0.8362 -0.5334 -0.4273
 8759SOL    HW334803   6.412   4.293   0.773 -1.0117  0.3116  1.2353
 8759SOL    MW434804   6.340   4.311   0.729 -0.3611  0.2904  0.1282
 8760SOL     OW34805   0.269   0.840   3.533 -0.1239  0.3693 -0.6336
 8760SOL    HW234806   0.245   0.868   3.444 -0.8342  0.6789 -0.3489
 8760SOL    HW334807   0.200   0.779   3.559  0.2774 -0.0038 -0.4242
 8760SOL    MW434808   0.257   0.836   3.525 -0.1647  0.3609 -0.5684
 8761SOL     OW34809   0.919   0.665   6.076  0.0320  0.4392 -0.0857
 8761SOL    HW234810   0.883   0.719   6.005  0.4651 -1.4870 -1.9000
 8761SOL    HW334811   0.884   0.578   6.058  0.3509 -0.1525  1.9922
 8761SOL    MW434812   0.910   0.661   6.064  0.1312  0.1070 -0.0509
 8762SOL     OW34813   6.391   4.926   5.114 -0.5004 -0.1235  0.1991
 8762SOL    HW234814   6.459   4.917   5.047  0.0839 -2.0959  0.9770
 8762SOL    HW334815   6.426   4.991   5.175 -0.3771  0.5981 -0.6218
 8762SOL    MW434816   6.405   4.933   5.113 -0.4070 -0.2885  0.1935
 8763SOL     OW34817   1.414   3.871   1.240  0.1268  0.1196 -0.0344
 8763SOL    HW234818   1.432   3.934   1.310 -1.6933  0.0477  0.5415
 8763SOL    HW334819   1.429   3.786   1.280  1.6528  0.1075 -0.5407
 8763SOL    MW434820   1.419   3.868   1.254  0.0880  0.1085 -0.0252
 8764SOL     OW34821   1.487   4.079   0.371  0.8020 -0.1081 -0.3545
 8764SOL    HW234822   1.503   4.103   0.462  1.6884  1.1502 -0.8064
 8764SOL    HW334823   1.525   3.991   0.363  0.0744 -0.5305  0.6469
 8764SOL    MW434824   1.494   4.071   0.382  0.8230  0.0022 -0.2820
 8765SOL     OW34825   0.296   1.412   2.805 -0.0501  0.0484  0.3524
 8765SOL    HW234826   0.222   1.450   2.852  0.4299  1.0237  0.3448
 8765SOL    HW334827   0.370   1.420   2.866  0.1691 -0.4397  0.1607
 8765SOL    MW434828   0.296   1.418   2.819  0.0422  0.1127  0.3261
 8766SOL     OW34829   3.898   4.837   2.941  0.2258  0.2217 -0.3629
 8766SOL    HW234830   3.861   4.843   3.029 -2.5932 -0.5052 -1.3900
 8766SOL    HW334831   3.872   4.919   2.898  1.4358  0.4978 -0.6201
 8766SOL    MW434832   3.890   4.849   2.947  0.0135  0.1622 -0.5323
 8767SOL     OW34833   1.552   2.941   5.217  0.1464 -0.1173  0.2332
 8767SOL    HW234834   1.484   2.968   5.278 -0.3119 -2.8856  1.0804
 8767SOL    HW334835   1.631   2.985   5.249 -0.4802  0.0376  1.6480
 8767SOL    MW434836   1.554   2.950   5.229  0.0032 -0.4621  0.5316
 8768SOL     OW34837   2.143   3.154   4.682 -0.1609 -0.1440 -0.6296
 8768SOL    HW234838   2.106   3.067   4.667 -1.0388  0.2690 -0.8964
 8768SOL    HW334839   2.077   3.215   4.649  0.4329  0.6296 -0.4257
 8768SOL    MW434840   2.130   3.150   4.676 -0.1984  0.0125 -0.6379
 8769SOL     OW34841   2.539   1.655   5.725  0.6049 -0.4559 -0.1789
 8769SOL    HW234842   2.576   1.567   5.735  3.7334  0.9785  3.5969
 8769SOL    HW334843   2.616   1.711   5.716 -1.2699  2.0780 -1.6906
 8769SOL    MW434844   2.554   1.650   5.725  0.7703  0.0677  0.1198
 8770SOL     OW34845   0.822   4.366   1.248 -0.6187  0.2045  0.0928
 8770SOL    HW234846   0.741   4.362   1.298 -1.0593 -1.9240 -0.6619
 8770SOL    HW334847   0.820   4.287   1.193  1.4961  0.6072 -0.6662
 8770SOL    MW434848   0.811   4.355   1.247 -0.3978 -0.0232 -0.1069
 8771SOL     OW34849   2.849   5.091   0.321 -0.2657 -0.0274 -0.3099
 8771SOL    HW234850   2.781   5.144   0.278  0.1022  1.0799  0.4313
 8771SOL    HW334851   2.926   5.102   0.265  0.0839  1.0390  0.3543
 8771SOL    MW434852   2.850   5.099   0.308 -0.1711  0.2594 -0.1244
 8772SOL     OW34853   4.319   5.699   1.979 -0.3433  0.0772  0.2602
 8772SOL    HW234854   4.269   5.617   1.981 -0.4424  0.1436  0.5332
 8772SOL    HW334855   4.259   5.764   2.016 -0.3220  0.3040 -0.1060
 8772SOL    MW434856   4.304   5.697   1.984 -0.3536  0.1159  0.2479
 8773SOL     OW34857   2.648   6.224   6.345 -0.3047  0.1561 -0.0836
 8773SOL    HW234858   2.657   6.234   6.250  0.3397 -1.3408 -0.1961
 8773SOL    HW334859   2.561   6.187   6.357 -0.0949 -0.3579 -0.1453
 8773SOL    MW434860   2.638   6.221   6.334 -0.1920 -0.1092 -0.1065
 8774SOL     OW34861   5.998   2.548   1.009 -0.5465 -0.1999  0.0032
 8774SOL    HW234862   6.083   2.537   1.051 -0.3770  1.6762  0.2598
 8774SOL    HW334863   5.940   2.575   1.080 -1.4424 -1.6874 -0.1270
 8774SOL    MW434864   6.002   2.550   1.024 -0.6424 -0.1487  0.0199
 8775SOL     OW34865   5.488   4.399   1.813  0.3134 -0.4484  0.3814
 8775SOL    HW234866   5.498   4.402   1.908 -0.0029  1.5453  0.4012
 8775SOL    HW334867   5.405   4.353   1.799  0.5669 -1.1228  1.0273
 8775SOL    MW434868   5.478   4.393   1.824  0.3051 -0.2744  0.4693
 8776SOL     OW34869   4.445   2.643   1.014 -0.2778  0.2770 -0.3653
 8776SOL    HW234870   4.448   2.666   0.922 -0.0806 -1.2344 -0.7650
 8776SOL    HW334871   4.524   2.592   1.029 -0.2605  0.5759  0.6656
 8776SOL    MW434872   4.456   2.639   1.004 -0.2495  0.1170 -0.2820
 8777SOL     OW34873   2.110   5.618   1.670 -0.3703  0.3427 -0.3745
 8777SOL    HW234874   2.195   5.642   1.632 -1.1381  3.2086 -0.5032
 8777SOL    HW334875   2.113   5.654   1.759 -1.0558 -0.5053  0.0013
 8777SOL    MW434876   2.122   5.626   1.677 -0.5620  0.6089 -0.3419
 8778SOL     OW34877   4.026   1.918   3.038  0.0002 -0.1076  0.0274
 8778SOL    HW234878   4.070   1.997   3.005 -0.2262 -0.3110 -0.7836
 8778SOL    HW334879   3.933   1.940   3.038 -0.0234 -0.2115  0.2466
 8778SOL    MW434880   4.020   1.931   3.033 -0.0328 -0.1481 -0.0507
 8779SOL     OW34881   3.047   1.018   0.905  0.1501  0.4789 -0.1913
 8779SOL    HW234882   3.119   1.079   0.918  1.7182 -1.0188 -1.3905
 8779SOL    HW334883   3.059   0.985   0.815 -1.5055 -0.4635 -0.1127
 8779SOL    MW434884   3.058   1.021   0.895  0.1385  0.1569 -0.3391
 8780SOL     OW34885   5.888   5.763   5.292  0.5548 -0.2610 -0.5492
 8780SOL    HW234886   5.836   5.685   5.312  0.6939  0.1770  1.6742
 8780SOL    HW334887   5.872   5.778   5.198 -1.5009 -1.4643 -0.4520
 8780SOL    MW434888   5.879   5.755   5.282  0.3019 -0.3620 -0.2430
 8781SOL     OW34889   5.791   5.910   3.727 -0.3919 -0.1397  0.3941
 8781SOL    HW234890   5.855   5.841   3.745 -2.5568 -2.3554  0.1660
 8781SOL    HW334891   5.758   5.935   3.814  0.2962  0.5565  0.4670
 8781SOL    MW434892   5.795   5.904   3.741 -0.5868 -0.3402  0.3736
 8782SOL     OW34893   2.481   0.920   2.281 -0.3146  0.3973  0.1057
 8782SOL    HW234894   2.426   0.943   2.206 -2.1850 -1.7726  0.7014
 8782SOL    HW334895   2.472   0.825   2.289  1.8918  0.2381  1.5529
 8782SOL    MW434896   2.473   0.911   2.272 -0.2703  0.0900  0.3752
 8783SOL     OW34897   3.412   5.934   4.047  0.5212 -0.2077  0.1532
 8783SOL    HW234898   3.386   6.026   4.056 -1.1557 -0.5333 -0.8879
 8783SOL    HW334899   3.368   5.889   4.119  2.9702  0.0453  1.9052
 8783SOL    MW434900   3.403   5.940   4.058  0.6231 -0.2173  0.2470
 8784SOL     OW34901   2.275   3.364   0.008 -0.4427  0.5043  0.2547
 8784SOL    HW234902   2.208   3.368   0.077  0.6635 -0.1123  1.4181
 8784SOL    HW334903   2.288   3.455  -0.018  0.3735  1.0015  2.1676
 8784SOL    MW434904   2.267   3.376   0.014 -0.1891  0.4885  0.6606
 8785SOL     OW34905   4.536   3.759   5.579 -0.1668  0.0629 -0.0221
 8785SOL    HW234906   4.622   3.796   5.560  0.8833 -1.9533  0.5029
 8785SOL    HW334907   4.537   3.743   5.673 -0.1985 -2.0475 -0.3412
 8785SOL    MW434908   4.548   3.762   5.589 -0.0324 -0.4815  0.0051
 8786SOL     OW34909   3.357   1.434   4.226 -0.1749  0.4493 -0.1189
 8786SOL    HW234910   3.290   1.368   4.207 -1.1936  1.3358  0.3664
 8786SOL    HW334911   3.310   1.517   4.228  0.2911  0.7742  3.4940
 8786SOL    MW434912   3.342   1.436   4.224 -0.2479  0.6091  0.4218
 8787SOL     OW34913   1.055   5.710   1.377 -0.0321 -0.1029  0.1171
 8787SOL    HW234914   1.050   5.802   1.403  0.5733  0.1281 -0.5543
 8787SOL    HW334915   0.987   5.699   1.311  1.7579  0.6199 -1.9477
 8787SOL    MW434916   1.045   5.721   1.372  0.2839  0.0229 -0.2439
 8788SOL     OW34917   2.233   4.477   1.094 -0.1603  0.8603  0.1735
 8788SOL    HW234918   2.180   4.399   1.079  1.6234 -0.3077 -0.4638
 8788SOL    HW334919   2.184   4.548   1.053 -1.1329 -0.1903 -0.5481
 8788SOL    MW434920   2.220   4.476   1.087 -0.0533  0.5676 -0.0058
 8789SOL     OW34921   0.427   4.326   4.877  0.3868  0.2773  0.3047
 8789SOL    HW234922   0.487   4.339   4.804  1.1360  0.6533  0.9798
 8789SOL    HW334923   0.374   4.251   4.851  0.2706  0.7392 -0.8653
 8789SOL    MW434924   0.428   4.318   4.864  0.4703  0.3878  0.2394
 8790SOL     OW34925   6.374   3.636   3.405  0.3464 -0.3765  0.0561
 8790SOL    HW234926   6.345   3.726   3.415  0.6953  0.0748 -2.4096
 8790SOL    HW334927   6.295   3.583   3.418  0.3972  0.0728  2.9990
 8790SOL    MW434928   6.360   3.641   3.408  0.3992 -0.2577  0.1190
 8791SOL     OW34929   4.042   4.351   5.960 -0.5821 -0.4650  0.0590
 8791SOL    HW234930   3.999   4.278   6.004 -0.8414  0.6667  1.7675
 8791SOL    HW334931   4.120   4.313   5.920 -1.6473 -1.9976 -0.6668
 8791SOL    MW434932   4.047   4.336   5.960 -0.7568 -0.5179  0.1887
 8792SOL     OW34933   0.023   3.957   6.233  0.3141 -0.0592 -0.2520
 8792SOL    HW234934   0.091   3.973   6.299 -1.5815  2.8765  1.1973
 8792SOL    HW334935   0.055   3.881   6.185  2.4300 -1.6850  3.2490
 8792SOL    MW434936   0.036   3.949   6.236  0.3432  0.1136  0.4012
 8793SOL     OW34937   4.092   2.626   5.152 -0.0118 -0.0812 -0.5447
 8793SOL    HW234938   4.083   2.551   5.211  0.5558 -0.5707 -1.0738
 8793SOL    HW334939   4.152   2.685   5.198  1.9242 -1.2852 -1.4068
 8793SOL    MW434940   4.099   2.624   5.166  0.3185 -0.3046 -0.7283
 8794SOL     OW34941   1.973   5.546   1.960 -0.1504 -0.2164 -0.5904
 8794SOL    HW234942   1.945   5.560   2.051 -0.4584 -0.7287 -0.6041
 8794SOL    HW334943   2.030   5.469   1.964  3.4496  2.2519 -0.1393
 8794SOL    MW434944   1.976   5.538   1.973  0.2840  0.0417 -0.5327
 8795SOL     OW34945   0.850   1.671   3.495 -0.1096  0.2444  0.7612
 8795SOL    HW234946   0.895   1.740   3.448 -1.5735 -0.8020 -2.4685
 8795SOL    HW334947   0.920   1.614   3.528  0.9983  1.3976  0.4620
 8795SOL    MW434948   0.865   1.672   3.493 -0.1566  0.2585  0.2956
 8796SOL     OW34949   1.550   1.228   5.465 -0.0249  0.1231 -0.1605
 8796SOL    HW234950   1.573   1.320   5.475  1.3136  0.0053 -1.6705
 8796SOL    HW334951   1.466   1.229   5.418  1.0187  0.6265 -2.1295
 8796SOL    MW434952   1.542   1.240   5.460  0.2894  0.1739 -0.6195
 8797SOL     OW34953   1.579   0.497   3.305 -0.2297 -0.0178 -0.0594
 8797SOL    HW234954   1.575   0.572   3.246  2.0581 -0.2933 -0.6456
 8797SOL    HW334955   1.599   0.423   3.248 -0.6981 -0.7834  0.7427
 8797SOL    MW434956   1.581   0.497   3.289  0.0104 -0.1552 -0.0309
 8798SOL     OW34957   4.992   4.868   3.071  0.1200  0.0953 -0.1060
 8798SOL    HW234958   4.980   4.923   2.994 -0.5556 -0.1192 -0.1564
 8798SOL    HW334959   5.019   4.930   3.140  0.2906  0.3494 -0.3998
 8798SOL    MW434960   4.994   4.884   3.070  0.0534  0.1005 -0.1514
 8799SOL     OW34961   1.207   2.437   1.345 -0.1331  0.0748 -0.1186
 8799SOL    HW234962   1.231   2.453   1.254 -2.0818 -0.4675 -0.7754
 8799SOL    HW334963   1.133   2.496   1.361 -0.6333 -0.7468  0.6967
 8799SOL    MW434964   1.201   2.447   1.335 -0.4562 -0.1052 -0.0977
 8800SOL     OW34965   3.315   5.267   1.229 -0.4479 -0.3560  0.3354
 8800SOL    HW234966   3.369   5.343   1.210  1.3295 -1.4106  0.9103
 8800SOL    HW334967   3.309   5.220   1.145 -0.2686 -0.3627  0.3269
 8800SOL    MW434968   3.321   5.271   1.215 -0.1898 -0.4960  0.4101
 8801SOL     OW34969   0.928   4.348   0.077 -0.2883 -0.2820  0.3457
 8801SOL    HW234970   0.934   4.442   0.092 -0.4238 -0.3550  0.8872
 8801SOL    HW334971   1.017   4.316   0.091 -0.1105 -0.1574 -0.4428
 8801SOL    MW434972   0.941   4.356   0.081 -0.2827 -0.2752  0.3131
 8802SOL     OW34973   6.405   5.540   6.217 -0.1189  0.8999  0.0056
 8802SOL    HW234974   6.476   5.538   6.153  0.6344  3.1088  0.6575
 8802SOL    HW334975   6.390   5.449   6.239  3.2013  0.3433  0.5435
 8802SOL    MW434976   6.412   5.528   6.212  0.4186  1.1179  0.1626
 8803SOL     OW34977   3.274   3.668   4.480  0.7436  0.2085  0.1607
 8803SOL    HW234978   3.351   3.694   4.429  1.6868 -0.6875  1.0978
 8803SOL    HW334979   3.265   3.737   4.546 -0.4174  1.3155 -1.1033
 8803SOL    MW434980   3.283   3.681   4.482  0.7148  0.2363  0.1175
 8804SOL     OW34981   2.824   4.729   5.192 -0.1600 -0.4227 -0.4361
 8804SOL    HW234982   2.775   4.811   5.197 -0.6172 -0.7450  1.0147
 8804SOL    HW334983   2.758   4.663   5.172  0.1717 -0.4857 -1.3815
 8804SOL    MW434984   2.809   4.731   5.190 -0.1766 -0.4736 -0.3694
 8805SOL     OW34985   0.690   0.474   0.556 -0.4875 -0.1961  0.3775
 8805SOL    HW234986   0.672   0.417   0.630 -0.1016 -1.7494 -0.6716
 8805SOL    HW334987   0.765   0.526   0.583 -0.3787 -0.7076  1.0882
 8805SOL    MW434988   0.698   0.473   0.569 -0.4223 -0.4685  0.3328
 8806SOL     OW34989   4.749   2.152   1.309  0.3887  0.5769  0.1417
 8806SOL    HW234990   4.677   2.192   1.358  0.9135  3.5866 -1.3311
 8806SOL    HW334991   4.828   2.173   1.360  0.5237 -0.5089  0.4273
 8806SOL    MW434992   4.750   2.160   1.322  0.4757  0.8308 -0.0150
 8807SOL     OW34993   3.777   5.103   5.790 -0.0792  0.3171  0.1376
 8807SOL    HW234994   3.865   5.067   5.805  0.3494  0.9182 -0.8184
 8807SOL    HW334995   3.792   5.178   5.733 -1.2610  0.2096 -0.3315
 8807SOL    MW434996   3.791   5.108   5.784 -0.1785  0.3822 -0.0504
 8808SOL     OW34997   4.119   1.455   4.363 -0.5312  0.2202  0.3010
 8808SOL    HW234998   4.066   1.416   4.432  1.3167 -1.0238  1.0860
 8808SOL    HW334999   4.086   1.415   4.282  0.3299 -1.9515  0.9422
 8808SOL    MW435000   4.108   1.445   4.362 -0.1738 -0.2305  0.4892
 8809SOL     OW35001   1.416   0.361   3.911  0.6366 -0.4366  0.0905
 8809SOL    HW235002   1.478   0.377   3.840  0.5478 -1.6808 -0.2879
 8809SOL    HW335003   1.331   0.379   3.872  0.6781  0.3220  0.3287
 8809SOL    MW435004   1.413   0.365   3.896  0.6303 -0.5007  0.0720
 8810SOL     OW35005   2.481   3.782   1.678 -0.0829 -0.2489 -0.1208
 8810SOL    HW235006   2.522   3.808   1.760 -1.6374 -1.0973  0.9735
 8810SOL    HW335007   2.500   3.689   1.670  1.8184  0.2079 -1.8396
 8810SOL    MW435008   2.489   3.773   1.688 -0.0371 -0.3006 -0.2032
 8811SOL     OW35009   2.133   1.178   4.616  0.3580 -0.2980  0.2042
 8811SOL    HW235010   2.160   1.211   4.702  0.9090  0.9529 -0.4101
 8811SOL    HW335011   2.038   1.174   4.620  0.4174 -1.1918  1.1806
 8811SOL    MW435012   2.124   1.182   4.627  0.4386 -0.2509  0.2520
 8812SOL     OW35013   3.321   0.373   5.671 -0.3122 -0.4573  0.3912
 8812SOL    HW235014   3.364   0.438   5.728 -2.0322  0.1415  1.0867
 8812SOL    HW335015   3.229   0.400   5.670 -0.5405 -1.1594 -1.7632
 8812SOL    MW435016   3.315   0.385   5.679 -0.5692 -0.4709  0.1987
 8813SOL     OW35017   6.354   0.635   1.997 -0.3510 -0.8110  0.1651
 8813SOL    HW235018   6.321   0.573   1.932 -2.2499 -1.8327  1.9824
 8813SOL    HW335019   6.277   0.661   2.047  0.9162  0.5470  1.5015
 8813SOL    MW435020   6.340   0.630   1.995 -0.4344 -0.7666  0.5812
 8814SOL     OW35021   4.687   4.899   3.900  0.6362 -0.5918  0.0618
 8814SOL    HW235022   4.781   4.885   3.899  0.6311 -0.7573  1.0050
 8814SOL    HW335023   4.650   4.813   3.919  0.4092 -0.1757  1.7171
 8814SOL    MW435024   4.694   4.886   3.902  0.6056 -0.5587  0.4046
 8815SOL     OW35025   4.334   3.376   5.789  0.1479 -0.4264 -0.5563
 8815SOL    HW235026   4.425   3.395   5.812  0.0497  0.2358 -0.6934
 8815SOL    HW335027   4.302   3.457   5.750 -0.7311 -0.4067  0.1758
 8815SOL    MW435028   4.342   3.389   5.787  0.0190 -0.3364 -0.4778
 8816SOL     OW35029   1.396   5.252   0.442 -0.3118 -0.1524 -0.5461
 8816SOL    HW235030   1.321   5.208   0.401 -0.8885  0.7196 -0.4565
 8816SOL    HW335031   1.394   5.341   0.406  0.0454  0.1948  0.2582
 8816SOL    MW435032   1.386   5.258   0.432 -0.3408  0.0085 -0.4282
 8817SOL     OW35033   0.303   5.760   1.127  0.3224 -0.4317 -0.1382
 8817SOL    HW235034   0.259   5.675   1.132 -0.7282  0.1157  0.3952
 8817SOL    HW335035   0.387   5.747   1.169  0.0037 -1.1180  0.3014
 8817SOL    MW435036   0.308   5.747   1.133  0.1417 -0.4501 -0.0098
 8818SOL     OW35037   1.387   6.400   5.087  0.0370  0.1375  0.1292
 8818SOL    HW235038   1.453   6.373   5.023 -0.4402 -0.8770  0.0404
 8818SOL    HW335039   1.308   6.416   5.034 -0.3703 -0.7439  0.4514
 8818SOL    MW435040   1.385   6.399   5.071 -0.0797 -0.1127  0.1600
 8819SOL     OW35041   6.352   3.485   3.748  0.1490  0.0306 -0.4939
 8819SOL    HW235042   6.278   3.529   3.705 -0.2558 -0.3841 -0.2258
 8819SOL    HW335043   6.371   3.410   3.692  0.5585  0.2862 -0.7123
 8819SOL    MW435044   6.345   3.481   3.735  0.1496  0.0096 -0.4873
 8820SOL     OW35045   5.254   2.269   6.268 -0.4766  0.0283 -0.6469
 8820SOL    HW235046   5.224   2.248   6.356  1.1071  0.8076  0.1280
 8820SOL    HW335047   5.261   2.365   6.267  0.0534 -0.0066 -1.4187
 8820SOL    MW435048   5.251   2.279   6.279 -0.1977  0.1265 -0.6465
 8821SOL     OW35049   5.410   6.090   1.277 -0.7435 -0.2555  0.4362
 8821SOL    HW235050   5.370   6.120   1.359  1.1790  2.0820  0.6489
 8821SOL    HW335051   5.354   6.018   1.248 -3.2508  0.7949  2.2289
 8821SOL    MW435052   5.397   6.084   1.284 -0.8206  0.1915  0.7008
 8822SOL     OW35053   4.941   0.661   4.953 -0.4700 -0.0481  0.0993
 8822SOL    HW235054   4.947   0.576   4.997  0.2497  0.1802  0.4629
 8822SOL    HW335055   4.977   0.723   5.017  2.4738  0.0531 -1.4613
 8822SOL    MW435056   4.947   0.658   4.967  0.0134 -0.0046 -0.0587
 8823SOL     OW35057   2.678   0.631   2.709  0.1631 -0.3603 -0.2091
 8823SOL    HW235058   2.769   0.617   2.735  0.2902 -0.7503 -0.8292
 8823SOL    HW335059   2.634   0.548   2.728 -0.1277 -0.0865  0.3366
 8823SOL    MW435060   2.684   0.618   2.715  0.1415 -0.3757 -0.2189
 8824SOL     OW35061   0.627   5.065   6.259  1.0702 -0.1236 -0.6934
 8824SOL    HW235062   0.610   5.052   6.352 -0.5553 -1.7997 -1.1637
 8824SOL    HW335063   0.679   5.145   6.255  0.1738  0.6509  1.5650
 8824SOL    MW435064   0.632   5.074   6.271  0.7374 -0.2425 -0.4574
 8825SOL     OW35065   1.561   1.981   3.727  0.0558 -0.5244 -0.5094
 8825SOL    HW235066   1.585   2.006   3.816  1.8451 -0.4446 -0.9870
 8825SOL    HW335067   1.544   2.064   3.683  2.0505 -0.3263 -1.0002
 8825SOL    MW435068   1.562   1.995   3.733  0.5550 -0.4878 -0.6372
 8826SOL     OW35069   6.183   3.309   5.372  0.0996  0.0207  0.0976
 8826SOL    HW235070   6.203   3.344   5.285  2.0300  0.4426  0.6587
 8826SOL    HW335071   6.267   3.311   5.419 -0.8149 -0.5078  1.8678
 8826SOL    MW435072   6.197   3.314   5.367  0.2336  0.0067  0.4052
 8827SOL     OW35073   3.634   2.173   4.406 -0.2305 -0.4416  0.0892
 8827SOL    HW235074   3.610   2.253   4.453  0.4195 -0.8789  1.1968
 8827SOL    HW335075   3.651   2.203   4.316  0.1091  0.6905  0.5120
 8827SOL    MW435076   3.633   2.188   4.400 -0.0999 -0.3499  0.2911
 8828SOL     OW35077   4.113   4.062   5.680  0.1148 -0.1357  0.9964
 8828SOL    HW235078   4.152   3.984   5.721 -0.8313  0.0949  2.3769
 8828SOL    HW335079   4.188   4.116   5.656  0.8012 -1.5294 -0.1542
 8828SOL    MW435080   4.128   4.059   5.682  0.0805 -0.2892  1.0268
 8829SOL     OW35081   0.199   4.456   4.795  0.1298 -0.0605  0.2337
 8829SOL    HW235082   0.150   4.427   4.718  0.7955 -0.2903 -0.1150
 8829SOL    HW335083   0.272   4.395   4.801  0.8147  0.7430  0.2735
 8829SOL    MW435084   0.202   4.444   4.786  0.3080  0.0152  0.1930
 8830SOL     OW35085   5.213   2.295   2.970  1.2614 -0.7121  0.1572
 8830SOL    HW235086   5.155   2.244   3.026  0.6595  1.3514  1.5126
 8830SOL    HW335087   5.267   2.346   3.030  1.2462  0.8677 -1.0822
 8830SOL    MW435088   5.212   2.295   2.985  1.1800 -0.2314  0.1725
 8831SOL     OW35089   3.897   3.844   3.638 -0.0080 -0.9599  0.6095
 8831SOL    HW235090   3.931   3.925   3.676 -0.3358 -0.6167  0.1764
 8831SOL    HW335091   3.967   3.780   3.652  0.1414 -0.6740  1.1962
 8831SOL    MW435092   3.911   3.847   3.645 -0.0316 -0.8769  0.6298
 8832SOL     OW35093   2.163   2.947   1.274  0.7272  0.5675 -0.1239
 8832SOL    HW235094   2.154   3.019   1.336 -0.0175  1.8975 -1.6979
 8832SOL    HW335095   2.203   2.987   1.197  0.3208 -0.7054 -1.0283
 8832SOL    MW435096   2.167   2.961   1.272  0.5753  0.5750 -0.4509
 8833SOL     OW35097   4.971   0.162   5.427 -0.2635  0.2402 -0.0802
 8833SOL    HW235098   4.924   0.245   5.423  0.5600  0.7222 -0.0221
 8833SOL    HW335099   4.925   0.105   5.365 -1.0174  0.6357  0.1049
 8833SOL    MW435100   4.959   0.165   5.418 -0.2543  0.3559 -0.0481
 8834SOL     OW35101   4.626   3.926   4.654 -0.1625  0.2484  0.5801
 8834SOL    HW235102   4.706   3.892   4.614  0.4472  0.7632  1.3345
 8834SOL    HW335103   4.569   3.850   4.662  0.1621 -0.0821 -0.1767
 8834SOL    MW435104   4.629   3.912   4.650 -0.0392  0.2728  0.5798
 8835SOL     OW35105   5.806   2.564   1.265 -0.2595  0.3734 -0.2061
 8835SOL    HW235106   5.806   2.628   1.336 -0.4979 -0.4276  0.5274
 8835SOL    HW335107   5.747   2.495   1.294  0.1852 -0.3100 -0.8798
 8835SOL    MW435108   5.798   2.564   1.278 -0.2322  0.1775 -0.1982
 8836SOL     OW35109   4.870   0.444   4.711  0.3324  0.1625  0.6129
 8836SOL    HW235110   4.917   0.521   4.679  1.3651 -0.9488 -0.6495
 8836SOL    HW335111   4.850   0.393   4.633 -2.0079 -0.0026  1.2132
 8836SOL    MW435112   4.873   0.447   4.697  0.1598 -0.0059  0.5255
 8837SOL     OW35113   4.546   3.744   0.949  0.0605 -0.3851 -0.0381
 8837SOL    HW235114   4.545   3.681   1.021 -1.5011  0.7894  1.0276
 8837SOL    HW335115   4.576   3.693   0.873  0.6066 -1.9400  1.1629
 8837SOL    MW435116   4.550   3.729   0.948 -0.0735 -0.4353  0.2610
 8838SOL     OW35117   4.897   5.745   1.118 -0.1821 -0.3564 -0.0685
 8838SOL    HW235118   4.974   5.749   1.061 -0.4710 -0.5098 -0.4730
 8838SOL    HW335119   4.823   5.737   1.058 -0.8313  2.8320  0.1343
 8838SOL    MW435120   4.897   5.745   1.102 -0.3059  0.0440 -0.0951
 8839SOL     OW35121   1.777   4.735   5.588  0.4018 -0.0017  0.1113
 8839SOL    HW235122   1.847   4.670   5.594 -1.0797 -1.6659  0.1054
 8839SOL    HW335123   1.713   4.708   5.654 -0.3744  1.3086 -0.0789
 8839SOL    MW435124   1.777   4.723   5.597  0.1040 -0.0484  0.0854
 8840SOL     OW35125   3.829   5.618   4.467  0.0516  0.8869 -0.4799
 8840SOL    HW235126   3.813   5.536   4.514 -0.9408  1.3267 -0.0395
 8840SOL    HW335127   3.756   5.625   4.405 -0.6731  2.1447  0.4748
 8840SOL    MW435128   3.817   5.608   4.465 -0.1750  1.1109 -0.2959
 8841SOL     OW35129   6.161   3.325   1.635 -0.0989 -0.0784 -0.8956
 8841SOL    HW235130   6.207   3.269   1.572  3.4408  1.0673  0.4400
 8841SOL    HW335131   6.200   3.412   1.624 -0.7078  0.6045  1.5751
 8841SOL    MW435132   6.172   3.329   1.625  0.2878  0.1629 -0.3934
 8842SOL     OW35133   1.902   5.172   5.931 -0.0112 -0.2041  0.1573
 8842SOL    HW235134   1.958   5.104   5.969  0.0379  0.1095  0.6647
 8842SOL    HW335135   1.848   5.126   5.868 -0.3351 -0.8204  0.8615
 8842SOL    MW435136   1.902   5.157   5.928 -0.0474 -0.2440  0.3171
 8843SOL     OW35137   2.490   2.526   4.585 -0.2437  0.4228 -0.8785
 8843SOL    HW235138   2.432   2.453   4.607 -0.8395  0.4004 -2.3814
 8843SOL    HW335139   2.574   2.502   4.624 -1.3992  0.8803  2.1279
 8843SOL    MW435140   2.493   2.513   4.593 -0.4748  0.4802 -0.6801
 8844SOL     OW35141   6.397   4.328   5.906  0.0837 -0.1318 -0.0211
 8844SOL    HW235142   6.461   4.297   5.971  0.4989  1.8795  0.5900
 8844SOL    HW335143   6.443   4.320   5.823  0.5105 -0.3132  0.2266
 8844SOL    MW435144   6.412   4.323   5.904  0.1948  0.1096  0.0922
 8845SOL     OW35145   5.943   1.229   0.751  0.0636  0.2334 -0.0622
 8845SOL    HW235146   5.891   1.207   0.828 -0.1735 -0.6773 -0.4586
 8845SOL    HW335147   6.031   1.198   0.772  0.5015  1.8797  0.6547
 8845SOL    MW435148   5.947   1.222   0.764  0.0901  0.3305 -0.0199
 8846SOL     OW35149   0.829   1.511   4.638  0.5802 -0.5684 -0.0509
 8846SOL    HW235150   0.830   1.528   4.543 -0.1508 -1.3597 -0.2200
 8846SOL    HW335151   0.798   1.592   4.677  0.2311 -0.4531 -0.5586
 8846SOL    MW435152   0.825   1.524   4.630  0.4377 -0.6576 -0.1402
 8847SOL     OW35153   3.573   0.267   6.093 -0.3822  0.8422  0.0715
 8847SOL    HW235154   3.565   0.335   6.160  0.5292  1.3254 -0.2935
 8847SOL    HW335155   3.619   0.309   6.021 -1.0286  0.2227 -0.7221
 8847SOL    MW435156   3.578   0.281   6.092 -0.3472  0.8242 -0.0813
 8848SOL     OW35157   4.527   4.985   1.945  0.4260  0.2272 -0.1022
 8848SOL    HW235158   4.504   5.067   1.989 -0.5019 -0.6530  1.1574
 8848SOL    HW335159   4.454   4.926   1.966 -0.0157 -0.3069 -2.7829
 8848SOL    MW435160   4.514   4.988   1.954  0.2453  0.0406 -0.2897
 8849SOL     OW35161   1.695   2.156   5.137  0.3391  0.3802 -0.2721
 8849SOL    HW235162   1.631   2.202   5.190  0.1692  1.0415 -1.0316
 8849SOL    HW335163   1.656   2.070   5.121 -0.2436  0.6928 -0.5215
 8849SOL    MW435164   1.682   2.150   5.142  0.2398  0.5087 -0.4052
 8850SOL     OW35165   0.863   5.763   0.026 -0.0049 -0.0846  0.2901
 8850SOL    HW235166   0.944   5.722  -0.003  1.0698  1.6406  0.6956
 8850SOL    HW335167   0.876   5.777   0.120  0.2564  2.2734 -0.0285
 8850SOL    MW435168   0.876   5.760   0.035  0.1713  0.4541  0.3016
 8851SOL     OW35169   1.114   4.210   2.057 -0.0654 -0.5465 -0.4399
 8851SOL    HW235170   1.092   4.294   2.096  0.6142 -0.1624 -0.8581
 8851SOL    HW335171   1.054   4.147   2.098 -0.2325  0.0557  0.2446
 8851SOL    MW435172   1.103   4.213   2.067  0.0022 -0.4163 -0.4048
 8852SOL     OW35173   4.061   0.743   1.215 -0.2834  0.0926  0.2646
 8852SOL    HW235174   4.138   0.760   1.160  0.5273  0.2624  1.4202
 8852SOL    HW335175   3.995   0.805   1.184  0.1303  0.1307 -0.5572
 8852SOL    MW435176   4.062   0.753   1.204 -0.1219  0.1201  0.3086
 8853SOL     OW35177   0.529   6.363   3.093  0.2009 -0.4002 -0.0860
 8853SOL    HW235178   0.467   6.298   3.124  0.0238 -0.0944  0.2046
 8853SOL    HW335179   0.550   6.415   3.170  0.2563 -0.0442 -0.3383
 8853SOL    MW435180   0.524   6.361   3.107  0.1848 -0.3129 -0.0809
 8854SOL     OW35181   3.545   6.405   1.220  0.0038 -0.0531  0.5474
 8854SOL    HW235182   3.617   6.440   1.272 -0.4851  0.0837  1.1354
 8854SOL    HW335183   3.526   6.474   1.156  2.6285 -1.3655 -1.9262
 8854SOL    MW435184   3.552   6.419   1.218  0.2856 -0.2082  0.2986
 8855SOL     OW35185   4.645   1.032   4.620  0.0128  0.9309  0.2113
 8855SOL    HW235186   4.595   1.103   4.581  0.1581  0.4446 -0.8934
 8855SOL    HW335187   4.612   0.953   4.579  0.4046  0.4274  0.8399
 8855SOL    MW435188   4.634   1.031   4.609  0.0837  0.8003  0.1485
 8856SOL     OW35189   1.216   0.233   5.825  0.2894  0.0467 -0.4679
 8856SOL    HW235190   1.261   0.316   5.839  0.4661 -0.0011 -0.7360
 8856SOL    HW335191   1.154   0.226   5.898  0.7347  0.0990 -0.0787
 8856SOL    MW435192   1.213   0.243   5.836  0.3715  0.0473 -0.4519
 8857SOL     OW35193   1.405   2.309   3.986 -0.7427  0.3720 -0.7982
 8857SOL    HW235194   1.364   2.249   3.924 -2.1874  0.3418  0.1316
 8857SOL    HW335195   1.396   2.266   4.071 -0.9340  1.4424 -0.2479
 8857SOL    MW435196   1.398   2.296   3.989 -0.9585  0.5093 -0.6029
 8858SOL     OW35197   4.251   4.490   3.721 -0.3410 -0.0510 -0.0710
 8858SOL    HW235198   4.294   4.526   3.644 -1.0738  1.8110  0.3160
 8858SOL    HW335199   4.273   4.552   3.791 -1.5899 -0.4182  0.6768
 8858SOL    MW435200   4.260   4.503   3.720 -0.6025  0.1462  0.0788
 8859SOL     OW35201   6.020   2.976   6.225  0.4301 -0.2523 -0.1036
 8859SOL    HW235202   5.964   3.043   6.265  0.9344  1.2522 -1.7436
 8859SOL    HW335203   6.052   3.018   6.145 -0.6770 -3.1148 -2.2094
 8859SOL    MW435204   6.017   2.990   6.220  0.3506 -0.4315 -0.5978
 8860SOL     OW35205   0.352   2.159   3.977  0.1180 -0.8017 -0.2791
 8860SOL    HW235206   0.413   2.178   4.048  0.8651 -2.3535 -0.4651
 8860SOL    HW335207   0.268   2.194   4.007  1.1143  1.6306 -0.1436
 8860SOL    MW435208   0.349   2.166   3.990  0.3480 -0.6855 -0.2857
 8861SOL     OW35209   0.866   4.522   6.122 -0.2152 -0.0673  0.1472
 8861SOL    HW235210   0.788   4.496   6.171 -1.5529  2.5598 -0.4123
 8861SOL    HW335211   0.887   4.445   6.069 -2.1558 -1.0179  0.6615
 8861SOL    MW435212   0.858   4.508   6.121 -0.6478  0.1539  0.1412
 8862SOL     OW35213   2.861   2.528   4.048  0.4150 -0.8372 -0.0985
 8862SOL    HW235214   2.789   2.554   4.106  0.3462 -0.2633 -0.4265
 8862SOL    HW335215   2.940   2.559   4.093  0.2814  0.6864 -0.8490
 8862SOL    MW435216   2.862   2.536   4.062  0.3883 -0.5605 -0.2408
 8863SOL     OW35217   5.945   2.273   1.398  0.5291 -0.6637 -0.0555
 8863SOL    HW235218   5.906   2.257   1.312 -0.6263 -1.7232  0.6308
 8863SOL    HW335219   5.870   2.285   1.456  1.3030  0.8167  0.6867
 8863SOL    MW435220   5.930   2.273   1.394  0.4788 -0.6082  0.1329
 8864SOL     OW35221   1.849   4.551   1.108  0.2998 -0.2652 -0.3105
 8864SOL    HW235222   1.793   4.629   1.114  0.9533  0.2024 -0.1598
 8864SOL    HW335223   1.788   4.478   1.105 -0.3533  0.3024 -1.4132
 8864SOL    MW435224   1.834   4.552   1.108  0.2998 -0.1286 -0.4361
 8865SOL     OW35225   2.820   0.875   1.026  0.3585 -0.5318  0.3005
 8865SOL    HW235226   2.894   0.915   0.980  0.3997  0.4886  1.2005
 8865SOL    HW335227   2.776   0.821   0.960  0.7507  0.4250 -0.7677
 8865SOL    MW435228   2.824   0.873   1.012  0.4157 -0.2709  0.2783
 8866SOL     OW35229   5.041   3.339   2.563 -0.4803 -0.5675  0.6297
 8866SOL    HW235230   5.080   3.293   2.489  1.0298 -0.6610  1.4260
 8866SOL    HW335231   5.094   3.312   2.638 -0.0965  1.7088  1.2823
 8866SOL    MW435232   5.053   3.330   2.563 -0.2304 -0.2795  0.8209
 8867SOL     OW35233   0.434   3.952   3.895 -0.1802 -0.1295 -0.5093
 8867SOL    HW235234   0.385   3.990   3.967 -1.4039 -0.1600 -1.3019
 8867SOL    HW335235   0.484   4.025   3.859 -1.1179  0.3446 -0.8818
 8867SOL    MW435236   0.435   3.966   3.900 -0.4653 -0.0710 -0.6630
 8868SOL     OW35237   2.749   6.031   2.910  0.2890 -0.2732  0.3235
 8868SOL    HW235238   2.780   6.005   2.997  1.0286  0.0365  0.1590
 8868SOL    HW335239   2.763   6.126   2.907  0.5783 -0.3268 -0.2471
 8868SOL    MW435240   2.755   6.040   2.921  0.4247 -0.2394  0.2265
 8869SOL     OW35241   0.351   2.391   3.327 -0.5258  0.1732 -0.7096
 8869SOL    HW235242   0.294   2.459   3.363 -0.4132 -0.0662 -0.0603
 8869SOL    HW335243   0.352   2.408   3.233  1.3515  2.5261 -0.3837
 8869SOL    MW435244   0.343   2.402   3.319 -0.2633  0.4521 -0.5809
 8870SOL     OW35245   5.627   0.657   5.645  0.4154  0.8286  0.1988
 8870SOL    HW235246   5.640   0.673   5.739 -1.4138  1.8002  0.3239
 8870SOL    HW335247   5.663   0.735   5.602 -0.1253  1.0952  0.2146
 8870SOL    MW435248   5.633   0.669   5.652  0.1027  0.9920  0.2174
 8871SOL     OW35249   2.914   0.902   2.764 -0.2712  0.3264 -0.0877
 8871SOL    HW235250   2.917   0.811   2.735 -0.6847 -0.0998  1.1763
 8871SOL    HW335251   2.972   0.948   2.703  0.1802 -0.8217 -0.5487
 8871SOL    MW435252   2.922   0.896   2.752 -0.2662  0.1187  0.0183
 8872SOL     OW35253   0.219   5.301   3.421 -0.2520 -0.4010 -0.3224
 8872SOL    HW235254   0.230   5.215   3.382 -0.2024  0.2549 -1.7960
 8872SOL    HW335255   0.164   5.286   3.499 -0.4647 -1.7097 -0.7170
 8872SOL    MW435256   0.213   5.288   3.426 -0.2735 -0.4872 -0.5689
 8873SOL     OW35257   2.905   3.235   2.982  0.6515  0.1463  0.3007
 8873SOL    HW235258   2.982   3.178   2.993  1.5110  1.2009 -0.0999
 8873SOL    HW335259   2.831   3.175   2.981  1.6168 -1.0793 -1.2090
 8873SOL    MW435260   2.905   3.220   2.983  0.8923  0.1238  0.0486
 8874SOL     OW35261   6.421   6.395   3.061  0.0840 -0.1402  0.2544
 8874SOL    HW235262   6.362   6.465   3.034 -0.7680  0.2809  2.8984
 8874SOL    HW335263   6.428   6.338   2.984 -2.9162  0.3706 -0.5250
 8874SOL    MW435264   6.414   6.397   3.047 -0.4242 -0.0172  0.5004
 8875SOL     OW35265   3.849   2.816   1.342 -0.1319 -0.2838  0.1309
 8875SOL    HW235266   3.766   2.776   1.317  0.0184  0.2579 -1.3252
 8875SOL    HW335267   3.913   2.746   1.330 -0.0931 -0.0943 -0.8683
 8875SOL    MW435268   3.847   2.801   1.337 -0.1069 -0.1873 -0.1930
 8876SOL     OW35269   5.303   3.154   0.040  0.2452  0.3701  0.0667
 8876SOL    HW235270   5.242   3.080   0.048 -0.5716  1.1896  2.2367
 8876SOL    HW335271   5.362   3.129  -0.031 -0.3329 -2.1178  0.3663
 8876SOL    MW435272   5.303   3.141   0.031  0.0611  0.1500  0.3926
 8877SOL     OW35273   3.288   0.239   3.838  0.0643  0.1458 -0.1629
 8877SOL    HW235274   3.273   0.166   3.899 -2.9722 -0.2699 -1.2356
 8877SOL    HW335275   3.251   0.315   3.883  1.5153  0.6790  0.1645
 8877SOL    MW435276   3.281   0.239   3.852 -0.1449  0.1613 -0.2612
 8878SOL     OW35277   2.612   1.838   1.328  0.2813 -0.2608  0.4448
 8878SOL    HW235278   2.664   1.761   1.348  0.6235  0.8023  4.5439
 8878SOL    HW335279   2.663   1.886   1.263  0.6389 -2.7871 -1.2673
 8878SOL    MW435280   2.625   1.834   1.322  0.3737 -0.4538  0.7597
 8879SOL     OW35281   1.878   5.012   3.924 -0.1867 -0.5028  0.1985
 8879SOL    HW235282   1.957   5.035   3.875  0.1725 -0.0036  0.9995
 8879SOL    HW335283   1.864   4.919   3.905 -0.5420 -0.1389 -1.5092
 8879SOL    MW435284   1.886   5.003   3.915 -0.1862 -0.3889  0.0789
 8880SOL     OW35285   0.046   2.755   5.545 -0.4617 -0.5300 -0.1255
 8880SOL    HW235286  -0.004   2.796   5.474  0.2479  1.9742  0.7119
 8880SOL    HW335287   0.067   2.827   5.604  1.3983 -2.0524  1.1949
 8880SOL    MW435288   0.042   2.770   5.543 -0.1226 -0.4004  0.1592
 8881SOL     OW35289   6.223   4.424   4.700  0.1045  0.8063  0.3444
 8881SOL    HW235290   6.210   4.341   4.744  1.3165  1.5839  2.2933
 8881SOL    HW335291   6.308   4.415   4.656 -0.8872  0.1993 -1.5919
 8881SOL    MW435292   6.232   4.412   4.700  0.1336  0.8288  0.3460
 8882SOL     OW35293   1.925   3.950   0.836  0.0152 -0.1275 -0.6626
 8882SOL    HW235294   1.937   3.924   0.927 -0.2033  1.8306 -0.0342
 8882SOL    HW335295   1.859   3.890   0.802  0.1297 -0.9033  0.4391
 8882SOL    MW435296   1.918   3.939   0.843  0.0015  0.0285 -0.4343
 8883SOL     OW35297   1.902   6.041   2.605 -0.1266 -0.1090  0.1819
 8883SOL    HW235298   1.859   6.119   2.569 -0.7290  0.0981  1.3085
 8883SOL    HW335299   1.957   6.075   2.676 -0.0610 -0.6678  0.4012
 8883SOL    MW435300   1.904   6.056   2.610 -0.1974 -0.1554  0.3594
 8884SOL     OW35301   0.152   4.879   0.214  0.0183 -0.4821 -0.0235
 8884SOL    HW235302   0.059   4.854   0.214  0.3863 -2.0600  1.7073
 8884SOL    HW335303   0.151   4.973   0.228 -1.3190 -0.1697 -1.7479
 8884SOL    MW435304   0.139   4.888   0.216 -0.1096 -0.6490 -0.0227
 8885SOL     OW35305   6.145   1.386   0.939  0.6085  0.1598  0.4102
 8885SOL    HW235306   6.142   1.428   0.853  0.6024  2.1476  1.3094
 8885SOL    HW335307   6.210   1.437   0.988  1.1757 -1.4040  1.3663
 8885SOL    MW435308   6.153   1.398   0.934  0.6825  0.2158  0.6550
 8886NA      NA35309   5.685   3.207   6.277 -0.0499  0.0168 -0.4923
 8887NA      NA35310   2.228   1.070   2.854  0.2370 -0.1039 -0.0188
 8888NA      NA35311   1.110   6.289   2.658 -0.5301  0.1972 -0.3848
 8889NA      NA35312   3.132   4.167   5.986  0.1446 -0.0674 -0.4261
 8890NA      NA35313   2.543   5.889   2.867 -0.2633 -0.3071 -0.0269
 8891NA      NA35314   0.155   5.047   0.747  0.2826  0.5199 -0.1464
 8892NA      NA35315   4.807   4.363   4.425  0.4133  0.1128 -0.5312
   6.42920   6.42920   6.42920
