A-SYNC WITH FASUDIL
35315
  121NASP     N    1   1.179   2.473   4.595  0.3428 -0.1637  0.8820
  121NASP    H1    2   1.182   2.374   4.617 -0.7664 -0.6724 -0.9732
  121NASP    H2    3   1.154   2.535   4.670 -0.4265  1.6190 -0.7774
  121NASP    H3    4   1.271   2.506   4.571 -0.4532  1.6537  0.1704
  121NASP    CA    5   1.089   2.502   4.487  0.0663  0.5045 -0.3480
  121NASP    HA    6   1.068   2.606   4.512  1.4148  0.5656  0.6386
  121NASP    CB    7   1.146   2.484   4.344  0.4297 -0.0146  0.1004
  121NASP   HB1    8   1.091   2.556   4.283  1.7301  0.7582 -0.2033
  121NASP   HB2    9   1.130   2.383   4.308 -1.5340 -0.4171  1.8861
  121NASP    CG   10   1.288   2.522   4.324 -0.7246  0.3572 -0.5285
  121NASP   OD1   11   1.314   2.607   4.237  0.0014 -0.6923 -0.1942
  121NASP   OD2   12   1.372   2.475   4.407  0.7075 -0.3826 -0.2213
  121NASP     C   13   0.973   2.416   4.517 -0.3239  0.2695 -0.2445
  121NASP     O   14   0.992   2.298   4.553  0.3580  0.3486  0.9033
  122ASN      N   15   0.851   2.461   4.506 -0.0515 -0.6080  0.5733
  122ASN      H   16   0.843   2.555   4.469  0.1113 -0.7927  0.0737
  122ASN     CA   17   0.730   2.398   4.564  0.3510 -0.7510  0.3191
  122ASN     HA   18   0.728   2.289   4.567 -0.2205 -0.8053 -1.2932
  122ASN     CB   19   0.689   2.455   4.699 -0.1894 -0.2545  0.4217
  122ASN    HB1   20   0.697   2.563   4.693  1.1703 -0.3811 -0.3083
  122ASN    HB2   21   0.765   2.417   4.767  0.6711  1.4385  0.4478
  122ASN     CG   22   0.560   2.404   4.748  0.2698 -0.7924  0.3945
  122ASN    OD1   23   0.526   2.290   4.730  0.4260 -0.3147  0.3008
  122ASN    ND2   24   0.469   2.492   4.788  0.3117 -0.1077  0.1852
  122ASN   HD21   25   0.371   2.472   4.779  0.2050 -0.8110  2.2201
  122ASN   HD22   26   0.504   2.587   4.796  0.3344  0.0869 -1.8807
  122ASN      C   27   0.613   2.443   4.470  0.5404 -0.1595 -0.6603
  122ASN      O   28   0.592   2.566   4.458  0.3550  0.1768  0.5259
  123GLU      N   29   0.526   2.358   4.412 -0.3320 -0.3118 -0.0631
  123GLU      H   30   0.533   2.258   4.426 -0.5692 -0.3179  0.0186
  123GLU     CA   31   0.427   2.404   4.319 -0.0971 -0.0221  0.0592
  123GLU     HA   32   0.483   2.478   4.261  1.9395  0.3406  2.3342
  123GLU     CB   33   0.387   2.289   4.229 -0.5938  0.1117 -0.1733
  123GLU    HB1   34   0.309   2.327   4.163  1.6655 -0.0080 -3.0814
  123GLU    HB2   35   0.349   2.209   4.293 -1.3178  0.5299 -0.0622
  123GLU     CG   36   0.502   2.231   4.136  0.6471  0.0163 -0.5186
  123GLU    HG1   37   0.464   2.147   4.077  1.7199 -2.5463  2.2151
  123GLU    HG2   38   0.579   2.196   4.205  0.3002  2.6818  1.3474
  123GLU     CD   39   0.554   2.334   4.034  0.6530 -0.8603 -0.2996
  123GLU    OE1   40   0.468   2.419   3.995  0.2562  0.5571 -0.7049
  123GLU    OE2   41   0.677   2.327   4.004  0.0820  0.3725 -0.1732
  123GLU      C   42   0.304   2.473   4.374 -0.5438  0.3643  0.0729
  123GLU      O   43   0.257   2.568   4.310  0.1404 -0.9333  0.1161
  124ALA      N   44   0.250   2.422   4.483 -0.6771  0.6053  0.1638
  124ALA      H   45   0.305   2.346   4.520 -0.3153  0.2280 -1.1299
  124ALA     CA   46   0.130   2.483   4.555 -0.4220  0.7869  0.1907
  124ALA     HA   47   0.113   2.584   4.518  0.4363  0.7263 -0.3968
  124ALA     CB   48   0.013   2.394   4.518  0.0797 -0.3094  0.5316
  124ALA    HB1   49   0.029   2.360   4.416  0.4904  1.0006  0.1366
  124ALA    HB2   50  -0.080   2.445   4.539  1.0722  1.6899  0.3288
  124ALA    HB3   51   0.013   2.311   4.588  0.6265 -2.0714 -1.4460
  124ALA      C   52   0.146   2.484   4.703  0.2254 -0.2328 -0.1899
  124ALA      O   53   0.205   2.397   4.763 -0.9080 -0.2371  0.3541
  125TYR      N   54   0.075   2.580   4.761  0.4625  1.1164  0.7821
  125TYR      H   55   0.022   2.647   4.707  0.4078  0.7315  0.3531
  125TYR     CA   56   0.069   2.603   4.909 -0.3361 -0.1010 -0.3361
  125TYR     HA   57   0.169   2.635   4.937  0.4433  0.8975 -3.8599
  125TYR     CB   58  -0.029   2.716   4.933 -0.3125 -0.5287 -0.1502
  125TYR    HB1   59  -0.082   2.705   5.027 -0.3553 -1.1328 -0.2384
  125TYR    HB2   60  -0.106   2.699   4.858  0.7029  2.6843 -2.1387
  125TYR     CG   61   0.040   2.858   4.902 -0.5365 -0.0564  0.3339
  125TYR    CD1   62   0.032   2.911   4.770  0.6069 -0.2770 -0.0375
  125TYR    HD1   63  -0.014   2.852   4.692  1.9238 -2.6059  0.8305
  125TYR    CE1   64   0.083   3.037   4.745  0.4160 -0.4269 -0.1022
  125TYR    HE1   65   0.071   3.080   4.646  1.2199  0.4591  0.1732
  125TYR     CZ   66   0.145   3.117   4.844 -0.6860 -0.5092  0.1462
  125TYR     OH   67   0.206   3.238   4.815 -0.0080 -0.0488 -0.1131
  125TYR     HH   68   0.193   3.266   4.724  2.0626  1.2016 -0.1004
  125TYR    CE2   69   0.148   3.066   4.978 -0.3307  0.3895  0.6843
  125TYR    HE2   70   0.172   3.127   5.064 -0.0551  2.6081 -0.9109
  125TYR    CD2   71   0.100   2.937   5.005 -0.5295 -0.5986 -0.4946
  125TYR    HD2   72   0.105   2.905   5.108  1.3066  1.1522  0.0040
  125TYR      C   73   0.016   2.482   4.991  0.6018  0.1760  0.0350
  125TYR      O   74  -0.088   2.426   4.953  0.3190 -0.1400  0.1150
  126GLU      N   75   0.076   2.444   5.107  0.1995 -0.6926 -0.2775
  126GLU      H   76   0.161   2.489   5.137 -0.3175  0.9721 -1.1914
  126GLU     CA   77   0.015   2.341   5.195  0.0033  0.2267 -0.4672
  126GLU     HA   78  -0.013   2.261   5.126  0.0819 -2.9817  2.9147
  126GLU     CB   79   0.103   2.278   5.306 -0.1606  0.4150 -0.1988
  126GLU    HB1   80   0.160   2.354   5.360  2.2857 -0.3170 -1.5824
  126GLU    HB2   81   0.181   2.223   5.252 -1.0121 -0.3685 -0.6613
  126GLU     CG   82   0.032   2.164   5.382 -0.0665 -0.3961  0.2314
  126GLU    HG1   83  -0.011   2.102   5.304 -0.0022  1.1368 -1.0581
  126GLU    HG2   84  -0.048   2.210   5.439  0.0475  0.6450 -0.4287
  126GLU     CD   85   0.108   2.080   5.480 -0.0590 -0.0296 -0.3793
  126GLU    OE1   86   0.085   1.956   5.486  0.6225 -0.0377 -0.3289
  126GLU    OE2   87   0.194   2.135   5.556  0.3267  0.2034 -0.9135
  126GLU      C   88  -0.120   2.392   5.257 -0.7000 -0.4047 -0.2301
  126GLU      O   89  -0.204   2.312   5.302 -0.0538 -0.5630  0.6088
  127MET      N   90  -0.143   2.520   5.252 -0.4933  0.2982  0.2851
  127MET      H   91  -0.061   2.569   5.218  0.0832 -1.7193 -1.4985
  127MET     CA   92  -0.259   2.593   5.300 -0.0034  0.0168 -0.0739
  127MET     HA   93  -0.342   2.522   5.304 -1.2235  1.3105 -1.3639
  127MET     CB   94  -0.229   2.644   5.445  0.0970  0.0730 -0.4651
  127MET    HB1   95  -0.128   2.684   5.448  0.7611 -1.3557 -2.1759
  127MET    HB2   96  -0.235   2.553   5.505 -1.3268  0.1868 -0.3986
  127MET     CG   97  -0.339   2.746   5.491 -0.1404 -0.6454 -0.1935
  127MET    HG1   98  -0.338   2.834   5.426  1.3073  0.6818  1.5342
  127MET    HG2   99  -0.300   2.772   5.589 -0.6244 -0.4478 -0.0533
  127MET     SD  100  -0.510   2.684   5.503 -0.1050  0.1422 -0.0015
  127MET     CE  101  -0.598   2.837   5.520 -0.1323 -0.2386  0.8585
  127MET    HE1  102  -0.599   2.887   5.423 -2.1007  0.7024  1.3092
  127MET    HE2  103  -0.545   2.904   5.589 -0.9750 -0.1076  1.3902
  127MET    HE3  104  -0.704   2.833   5.545 -0.3743 -0.5321 -0.1850
  127MET      C  105  -0.300   2.699   5.202 -0.7431  0.0342 -0.0956
  127MET      O  106  -0.252   2.812   5.204 -0.1272  0.5964 -0.2627
  128PRO      N  107  -0.385   2.663   5.108  0.3634 -0.1041 -0.0319
  128PRO     CD  108  -0.431   2.529   5.072  0.0878  0.5273 -0.0901
  128PRO    HD1  109  -0.515   2.502   5.137  0.1403  0.2088 -0.1558
  128PRO    HD2  110  -0.349   2.458   5.079 -0.6549 -0.3044  0.4302
  128PRO     CG  111  -0.471   2.535   4.920  0.5952 -0.1568 -0.3518
  128PRO    HG1  112  -0.547   2.458   4.903  0.0909  0.4135 -0.7150
  128PRO    HG2  113  -0.386   2.536   4.853 -0.2791 -1.1689 -1.5275
  128PRO     CB  114  -0.539   2.673   4.923  0.0533  0.4871 -0.0569
  128PRO    HB1  115  -0.541   2.726   4.828  1.4661  0.2587 -0.2410
  128PRO    HB2  116  -0.639   2.658   4.964  0.2324  1.7119  0.9124
  128PRO     CA  117  -0.444   2.762   5.015 -0.4736  0.4413  0.7112
  128PRO     HA  118  -0.369   2.810   4.953 -0.3648  0.4284  0.8335
  128PRO      C  119  -0.526   2.864   5.092 -0.9684  0.3498 -0.4678
  128PRO      O  120  -0.597   2.827   5.183 -0.0280  0.4119 -0.3428
  129SER      N  121  -0.529   2.992   5.048 -0.1926 -0.1001 -0.1110
  129SER      H  122  -0.472   3.012   4.967  0.8603 -4.4212 -0.6988
  129SER     CA  123  -0.605   3.099   5.118 -0.3206  0.2379 -0.9278
  129SER     HA  124  -0.589   3.090   5.225  1.4395  1.3570 -1.0549
  129SER     CB  125  -0.541   3.232   5.077 -0.5468 -0.3146 -0.5733
  129SER    HB1  126  -0.432   3.227   5.083 -0.5301 -2.4503 -1.5178
  129SER    HB2  127  -0.570   3.314   5.143 -0.0302  1.6125 -2.5853
  129SER     OG  128  -0.570   3.257   4.941 -0.3383 -0.3097 -0.5429
  129SER    HG1  129  -0.655   3.299   4.931 -0.3625 -0.5245 -1.3298
  129SER      C  130  -0.757   3.092   5.091  0.2774  0.5743 -0.0385
  129SER      O  131  -0.797   3.023   4.998  0.1784  0.1963 -0.0070
  130GLU      N  132  -0.832   3.161   5.177 -0.7222  0.1201 -0.0981
  130GLU      H  133  -0.775   3.213   5.243 -1.3323  0.4660  0.1628
  130GLU     CA  134  -0.980   3.150   5.196  0.4717 -0.4162 -0.2243
  130GLU     HA  135  -1.031   3.099   5.114 -0.9562  0.8290 -0.1509
  130GLU     CB  136  -1.015   3.058   5.318  0.1187 -0.0407  0.2267
  130GLU    HB1  137  -1.123   3.050   5.324  0.1066  0.5830  0.9788
  130GLU    HB2  138  -0.983   3.095   5.415  1.3496  0.4362 -0.3372
  130GLU     CG  139  -0.954   2.920   5.300  0.6042  0.3382  0.5566
  130GLU    HG1  140  -0.850   2.940   5.327 -0.7719  3.2285  4.7975
  130GLU    HG2  141  -0.962   2.882   5.198  1.7795 -0.3497  0.6978
  130GLU     CD  142  -1.010   2.827   5.409  0.5667  0.3737  0.2498
  130GLU    OE1  143  -0.979   2.706   5.397  0.1173  0.5139  0.3987
  130GLU    OE2  144  -1.097   2.866   5.490  0.4429  0.1501 -0.6845
  130GLU      C  145  -1.050   3.294   5.215  0.0120 -0.3810 -0.3239
  130GLU      O  146  -0.988   3.393   5.265 -0.3966  0.2568 -0.1343
  131GLU      N  147  -1.181   3.308   5.194 -0.2695  0.3740  0.4266
  131GLU      H  148  -1.229   3.226   5.159 -0.5681  1.4157 -1.7039
  131GLU     CA  149  -1.258   3.429   5.198  0.7050 -0.7826 -0.4591
  131GLU     HA  150  -1.189   3.506   5.165  1.1522 -0.9097  0.1549
  131GLU     CB  151  -1.397   3.431   5.126 -0.3312 -0.3012  0.2532
  131GLU    HB1  152  -1.436   3.533   5.137  0.1007 -0.3416  2.8043
  131GLU    HB2  153  -1.460   3.364   5.183 -0.6055  1.3620  2.0098
  131GLU     CG  154  -1.396   3.389   4.978  0.1317 -0.7048 -0.5031
  131GLU    HG1  155  -1.499   3.372   4.946  0.5565 -0.9624 -1.7903
  131GLU    HG2  156  -1.340   3.296   4.971  1.1059 -0.0326 -2.3973
  131GLU     CD  157  -1.316   3.491   4.900  0.3663 -0.3823  0.4067
  131GLU    OE1  158  -1.203   3.466   4.853 -0.6711  0.2488  0.0800
  131GLU    OE2  159  -1.361   3.604   4.869  0.5575 -0.3213  0.2479
  131GLU      C  160  -1.281   3.476   5.342 -0.2863  0.2643  0.3750
  131GLU      O  161  -1.326   3.585   5.370  0.8678 -0.0171 -0.1547
  132GLY      N  162  -1.256   3.390   5.440  0.3296 -0.6193  0.2584
  132GLY      H  163  -1.220   3.299   5.413  0.2854  0.0901 -2.4478
  132GLY     CA  164  -1.294   3.413   5.583  0.0280  0.2416  0.6020
  132GLY    HA1  165  -1.273   3.318   5.633  2.4067  0.5445  0.2858
  132GLY    HA2  166  -1.400   3.433   5.602 -0.6122 -1.6360 -0.6925
  132GLY      C  167  -1.207   3.512   5.658  0.5225  0.4737  1.2277
  132GLY      O  168  -1.115   3.577   5.605  0.2992 -0.4490  0.3628
  133TYR      N  169  -1.228   3.534   5.788  0.4000 -0.2208 -0.6295
  133TYR      H  170  -1.305   3.484   5.830  0.6226 -0.5929 -0.6571
  133TYR     CA  171  -1.148   3.631   5.876 -0.0805 -0.2369 -0.5368
  133TYR     HA  172  -1.163   3.727   5.826 -1.8240  0.3166  0.9581
  133TYR     CB  173  -1.203   3.648   6.016 -0.1229 -0.6331  0.5092
  133TYR    HB1  174  -1.132   3.705   6.075  0.2114 -0.3553 -0.1460
  133TYR    HB2  175  -1.212   3.549   6.060 -2.8118  0.7620  3.4992
  133TYR     CG  176  -1.334   3.729   6.022 -0.4662 -0.4742  0.6798
  133TYR    CD1  177  -1.454   3.661   5.994 -0.4181  0.2541 -0.0886
  133TYR    HD1  178  -1.450   3.555   5.975  1.4375  0.2433  0.1211
  133TYR    CE1  179  -1.576   3.726   5.998  0.0044 -0.2836  0.2979
  133TYR    HE1  180  -1.669   3.673   5.993  0.6100 -1.2334 -3.0843
  133TYR     CZ  181  -1.580   3.865   6.029  0.5436 -0.5523 -0.0730
  133TYR     OH  182  -1.703   3.926   6.032 -0.7066  0.1093  0.2805
  133TYR     HH  183  -1.692   4.019   6.052  0.1978  0.6212 -2.2276
  133TYR    CE2  184  -1.464   3.942   6.032 -0.1551  0.6311 -0.3944
  133TYR    HE2  185  -1.474   4.049   6.032 -0.5004  0.6491 -2.4138
  133TYR    CD2  186  -1.341   3.873   6.031 -0.2266 -0.4886  0.0417
  133TYR    HD2  187  -1.249   3.930   6.033 -1.5172  1.7280 -1.1260
  133TYR      C  188  -0.995   3.595   5.895  0.1513  0.0873 -0.2336
  133TYR      O  189  -0.957   3.479   5.918  0.1116 -0.2857 -0.3281
  134GLN      N  190  -0.910   3.694   5.890 -0.1586 -0.0610  0.4284
  134GLN      H  191  -0.941   3.789   5.880 -1.0929 -0.5469 -1.8760
  134GLN     CA  192  -0.769   3.671   5.926 -0.8043 -0.4454  0.8778
  134GLN     HA  193  -0.723   3.622   5.840 -0.9595  2.5609 -1.0769
  134GLN     CB  194  -0.702   3.815   5.943 -0.2643  0.6115  0.1330
  134GLN    HB1  195  -0.752   3.884   6.011 -1.6926 -0.8380  0.6330
  134GLN    HB2  196  -0.708   3.864   5.846 -2.6872  0.9985  0.4097
  134GLN     CG  197  -0.553   3.803   5.978 -0.2457 -0.2595  0.5675
  134GLN    HG1  198  -0.504   3.749   5.897  1.5122  2.0002  0.0291
  134GLN    HG2  199  -0.531   3.754   6.073 -1.0900  0.2224  1.0228
  134GLN     CD  200  -0.486   3.942   5.977  0.7508 -0.2489 -0.2242
  134GLN    OE1  201  -0.502   4.021   6.066  0.4790  0.2242 -0.8149
  134GLN    NE2  202  -0.424   3.979   5.874 -0.3426  0.1460  0.0904
  134GLN   HE21  203  -0.382   4.071   5.877  0.5892 -0.2844  0.6701
  134GLN   HE22  204  -0.426   3.926   5.788 -1.4153 -0.1531  0.2893
  134GLN      C  205  -0.741   3.580   6.047 -0.4199  0.0516 -0.5455
  134GLN      O  206  -0.806   3.598   6.148 -0.0991  0.1126 -0.2538
  135ASP      N  207  -0.641   3.492   6.049 -0.2309  0.2930  0.5774
  135ASP      H  208  -0.593   3.482   5.961 -2.0615  0.1771 -0.4621
  135ASP     CA  209  -0.589   3.416   6.165 -0.7174 -0.6836  0.1599
  135ASP     HA  210  -0.510   3.356   6.121  1.7452  2.0858  0.4926
  135ASP     CB  211  -0.499   3.511   6.251 -0.5719  0.6856 -0.0139
  135ASP    HB1  212  -0.563   3.589   6.292 -2.1099 -0.3776 -0.3166
  135ASP    HB2  213  -0.424   3.549   6.181 -0.3560  1.4066  0.5874
  135ASP     CG  214  -0.416   3.451   6.371  0.1299 -0.7691  0.4937
  135ASP    OD1  215  -0.400   3.329   6.383 -0.1778  0.1464  0.2900
  135ASP    OD2  216  -0.355   3.532   6.444 -0.0718  0.1255  0.8309
  135ASP      C  217  -0.688   3.328   6.241  0.5295 -0.1078 -0.6153
  135ASP      O  218  -0.682   3.319   6.365  0.5706 -0.7720  0.2035
  136TYR      N  219  -0.781   3.270   6.164 -0.0701 -0.0043 -0.6016
  136TYR      H  220  -0.758   3.269   6.065 -0.3924 -3.0248 -0.7275
  136TYR     CA  221  -0.888   3.194   6.211 -0.0265  0.0620  0.1870
  136TYR     HA  222  -0.918   3.231   6.309  2.8746  0.3327  1.0415
  136TYR     CB  223  -1.005   3.223   6.110 -0.1792  0.3744  0.6360
  136TYR    HB1  224  -0.955   3.214   6.014 -0.2649  0.9889  0.5311
  136TYR    HB2  225  -1.046   3.323   6.123  0.1225  0.4585  0.9691
  136TYR     CG  226  -1.124   3.122   6.114  0.7536 -0.0960  0.0668
  136TYR    CD1  227  -1.183   3.080   6.231  0.0709  0.2252  0.1742
  136TYR    HD1  228  -1.148   3.119   6.326  0.1012  0.9539 -0.1330
  136TYR    CE1  229  -1.291   2.991   6.232 -0.2285 -0.0589 -0.2689
  136TYR    HE1  230  -1.352   2.965   6.317 -1.7846  0.4239 -1.1816
  136TYR     CZ  231  -1.350   2.953   6.111  0.0073 -0.1843  0.4204
  136TYR     OH  232  -1.462   2.885   6.112  0.0183 -0.2381  0.2220
  136TYR     HH  233  -1.485   2.868   6.203  0.6958  2.0390  0.8902
  136TYR    CE2  234  -1.292   2.992   5.988 -0.4454  0.5669 -0.1379
  136TYR    HE2  235  -1.335   2.955   5.896 -0.4370 -1.6569  0.6912
  136TYR    CD2  236  -1.181   3.080   5.993  0.2861  0.1082 -0.0381
  136TYR    HD2  237  -1.141   3.104   5.896  0.0038 -1.3644 -0.5501
  136TYR      C  238  -0.856   3.040   6.210 -0.5759  0.1674 -0.0816
  136TYR      O  239  -0.822   2.986   6.103 -0.5483 -0.3045 -0.3142
  137GLU      N  240  -0.872   2.975   6.322  0.1008 -0.5739 -0.3073
  137GLU      H  241  -0.903   3.029   6.402 -0.8812 -0.8912 -0.4591
  137GLU     CA  242  -0.855   2.829   6.339 -0.1512 -0.0801 -0.2396
  137GLU     HA  243  -0.806   2.791   6.249  0.0676  0.7765 -0.4997
  137GLU     CB  244  -0.766   2.801   6.456 -0.4491 -0.8540  0.3753
  137GLU    HB1  245  -0.803   2.864   6.537 -0.7819  1.6455 -1.6130
  137GLU    HB2  246  -0.663   2.837   6.446 -1.1323  2.1793  2.6702
  137GLU     CG  247  -0.770   2.650   6.485  1.0911 -0.3481 -0.1693
  137GLU    HG1  248  -0.776   2.591   6.394 -1.1926 -0.9250  0.2840
  137GLU    HG2  249  -0.851   2.610   6.545  1.6791 -1.4246 -0.0692
  137GLU     CD  250  -0.642   2.617   6.567  0.0091  0.0970  0.4987
  137GLU    OE1  251  -0.581   2.513   6.539 -0.4485  0.2427 -0.3212
  137GLU    OE2  252  -0.613   2.692   6.662 -0.6687 -0.2488  0.0359
  137GLU      C  253  -0.995   2.768   6.349 -0.4627  0.0171 -0.4782
  137GLU      O  254  -1.070   2.819   6.428 -0.1270  0.6957 -0.6177
  138PRO      N  255  -1.032   2.677   6.260  0.5715 -0.3233 -0.1749
  138PRO     CD  256  -0.951   2.612   6.158  0.2025  0.1184  0.5501
  138PRO    HD1  257  -0.859   2.565   6.191 -0.5775 -0.9053  1.3452
  138PRO    HD2  258  -0.926   2.687   6.083 -0.4324  2.4280  2.5286
  138PRO     CG  259  -1.037   2.500   6.099 -0.2430 -0.3302 -0.3077
  138PRO    HG1  260  -1.010   2.401   6.135 -1.4173 -0.5429 -0.0028
  138PRO    HG2  261  -1.021   2.506   5.991  0.3084  1.6167 -0.1554
  138PRO     CB  262  -1.175   2.546   6.121  0.9491  0.4083 -0.2982
  138PRO    HB1  263  -1.211   2.622   6.053  0.8879 -0.2168 -0.9755
  138PRO    HB2  264  -1.236   2.457   6.135  1.6962  0.0025  0.4981
  138PRO     CA  265  -1.170   2.629   6.255  0.3278 -0.0600 -0.4723
  138PRO     HA  266  -1.244   2.709   6.249 -0.5828 -0.9369 -1.3776
  138PRO      C  267  -1.203   2.534   6.376  0.1442  0.1858 -0.6449
  138PRO      O  268  -1.128   2.525   6.468  0.0561 -0.2038 -0.1376
  139GLU      N  269  -1.312   2.460   6.374 -0.0080 -0.0197  0.7222
  139GLU      H  270  -1.360   2.461   6.285 -0.0402 -0.3282  0.7339
  139GLU     CA  271  -1.357   2.364   6.480 -0.6816  0.4858 -0.0278
  139GLU     HA  272  -1.293   2.386   6.565 -1.2265  2.5793 -0.1043
  139GLU     CB  273  -1.500   2.390   6.523  0.3903  0.3761  0.0335
  139GLU    HB1  274  -1.536   2.300   6.573 -3.0582  1.2036 -0.6927
  139GLU    HB2  275  -1.555   2.402   6.430 -0.6109 -0.4996  0.4868
  139GLU     CG  276  -1.516   2.522   6.609  0.0494  0.8092 -0.3411
  139GLU    HG1  277  -1.573   2.584   6.540 -0.5883 -1.0110 -1.5261
  139GLU    HG2  278  -1.421   2.559   6.645  0.0609 -0.8282  1.4815
  139GLU     CD  279  -1.590   2.494   6.748 -0.3524  0.1308  0.0216
  139GLU    OE1  280  -1.683   2.573   6.780 -0.7227  0.4182 -0.1596
  139GLU    OE2  281  -1.554   2.392   6.810 -0.3756  0.1872 -0.1960
  139GLU      C  282  -1.322   2.217   6.447  0.8429  1.0696 -0.6002
  139GLU      O  283  -1.284   2.183   6.331 -0.3870  0.3072 -0.4433
  140CALA     N  284  -1.337   2.129   6.552 -0.4036 -0.0231  0.3864
  140CALA     H  285  -1.362   2.166   6.643 -1.1009  0.0260  0.1801
  140CALA    CA  286  -1.300   1.994   6.556 -0.6531  0.0354  0.2821
  140CALA    HA  287  -1.200   1.987   6.514 -0.7062 -0.2445  0.2017
  140CALA    CB  288  -1.292   1.953   6.710 -0.1854  0.0852 -0.6709
  140CALA   HB1  289  -1.255   1.851   6.726  3.9433  1.5684  0.2868
  140CALA   HB2  290  -1.384   1.975   6.764  0.5636 -0.7704  1.0326
  140CALA   HB3  291  -1.219   2.020   6.755 -1.8944  1.9797 -0.5620
  140CALA     C  292  -1.389   1.915   6.464  0.0523  0.0380 -0.1014
  140CALA   OC1  293  -1.497   1.870   6.508 -1.2949 -0.0531  0.3345
  140CALA   OC2  294  -1.341   1.892   6.354 -0.3365  0.6382  0.0137
  141FAS      C  295   4.081   1.468   0.376  0.6092 -0.0326 -0.2347
  141FAS     C1  296   4.121   1.564   0.489 -0.1668 -0.3032 -0.2029
  141FAS      N  297   4.218   1.511   0.591 -0.4004  0.0960  0.5857
  141FAS     C2  298   4.352   1.486   0.522 -0.1696  0.3902 -0.5649
  141FAS     C3  299   4.378   1.350   0.461 -0.5442  0.3202 -0.3828
  141FAS     N1  300   4.256   1.295   0.396  0.5910 -0.6478  0.0067
  141FAS     C4  301   4.192   1.397   0.305 -0.9111  0.2920  0.1981
  141FAS      S  302   4.290   1.150   0.321  0.3310  0.1657  0.1716
  141FAS      O  303   4.160   1.073   0.316 -0.1894 -0.6710  0.3477
  141FAS     O1  304   4.355   1.199   0.198  0.8010  0.6345 -0.0886
  141FAS     C5  305   4.404   1.064   0.434 -0.1807  0.4030 -0.1251
  141FAS     C6  306   4.534   1.043   0.388  0.2484 -0.6511  0.3114
  141FAS     C7  307   4.630   0.971   0.461 -0.5525  0.3432 -0.3379
  141FAS     C8  308   4.582   0.893   0.566  0.5847  0.3862 -0.0773
  141FAS     C9  309   4.450   0.910   0.617 -0.7355 -0.2125  0.1753
  141FAS    C10  310   4.365   1.008   0.556 -0.2173  0.7409  0.2074
  141FAS    C11  311   4.235   1.025   0.613  0.6852  0.2184 -0.1100
  141FAS    C12  312   4.200   0.952   0.728  0.2500  0.0088  0.4990
  141FAS     N2  313   4.283   0.866   0.794 -0.4072  0.2046  0.6941
  141FAS    C13  314   4.400   0.842   0.732 -0.0923 -0.9145  0.8704
  141FAS      H  315   4.019   1.526   0.306 -2.1909 -1.1243  1.1645
  141FAS     H1  316   4.007   1.396   0.411  3.0163 -1.6415  1.9072
  141FAS     H2  317   4.040   1.612   0.545  0.9664  2.2294 -0.6033
  141FAS     H3  318   4.172   1.652   0.450 -1.5073  0.3785 -0.4797
  141FAS     H4  319   4.224   1.565   0.678  2.5249  1.9878 -0.6630
  141FAS     H5  320   4.430   1.498   0.597  0.2956  0.5182 -1.0618
  141FAS     H6  321   4.372   1.559   0.444  1.5314  0.1967 -0.3481
  141FAS     H7  322   4.418   1.281   0.537 -0.2269 -0.8693 -1.5918
  141FAS     H8  323   4.448   1.373   0.381  0.3965 -0.1138  0.2969
  141FAS     H9  324   4.156   1.358   0.209  1.0169  1.7317 -1.1872
  141FAS    H10  325   4.261   1.474   0.268  0.7730 -1.1751  0.2042
  141FAS    H11  326   4.560   1.082   0.290  0.6331 -1.3441  0.1334
  141FAS    H12  327   4.727   0.944   0.421 -0.4587 -0.8428  0.6157
  141FAS    H13  328   4.652   0.821   0.606  0.4195  0.5290  0.4657
  141FAS    H14  329   4.158   1.079   0.560  0.9013  1.5350  0.8813
  141FAS    H15  330   4.103   0.967   0.774  0.1008 -0.7688  0.4463
  141FAS    H16  331   4.453   0.758   0.777 -0.6312 -0.4716  2.3959
  141FAS    H17  332   4.186   1.417   0.620  0.5556 -1.2605 -2.3418
  142SOL     OW  333   5.404   1.830   2.274  0.3337 -0.0282 -0.0703
  142SOL    HW2  334   5.474   1.790   2.223  0.5929 -0.2275  0.4379
  142SOL    HW3  335   5.435   1.919   2.292  0.2764  0.0159 -0.1825
  142SOL    MW4  336   5.417   1.837   2.269  0.3603 -0.0487 -0.0181
  143SOL     OW  337   2.641   5.093   1.105 -0.0916 -0.2671  0.4741
  143SOL    HW2  338   2.650   5.148   1.183 -0.9607  0.7019 -0.0809
  143SOL    HW3  339   2.731   5.067   1.083  0.2072 -0.1131  1.4856
  143SOL    MW4  340   2.654   5.097   1.112 -0.1668 -0.1189  0.5344
  144SOL     OW  341   4.148   1.719   0.164 -0.3678 -0.1601  0.2883
  144SOL    HW2  342   4.073   1.765   0.203  0.4586  0.0513  1.6817
  144SOL    HW3  343   4.128   1.716   0.070 -1.3639  1.3021  0.4273
  144SOL    MW4  344   4.135   1.724   0.157 -0.3902  0.0607  0.4905
  145SOL     OW  345   2.927   2.514   0.132  0.1448 -0.0029 -0.0082
  145SOL    HW2  346   2.942   2.420   0.124  0.6314 -0.0716  1.3492
  145SOL    HW3  347   2.839   2.521   0.170  0.8066 -0.0220  1.6362
  145SOL    MW4  348   2.918   2.502   0.136  0.2963 -0.0145  0.3878
  146SOL     OW  349   6.301   3.527   6.272  0.0607  0.3576 -0.5637
  146SOL    HW2  350   6.248   3.586   6.219 -1.2593 -0.3771 -0.1043
  146SOL    HW3  351   6.269   3.538   6.361  2.9630  2.3755  0.3938
  146SOL    MW4  352   6.290   3.536   6.277  0.2695  0.5269 -0.3767
  147SOL     OW  353   3.938   6.260   6.349 -0.0720  0.2477 -0.4031
  147SOL    HW2  354   3.915   6.320   6.420 -0.6734 -0.4035 -0.0263
  147SOL    HW3  355   3.874   6.278   6.280 -1.0107 -0.7450  0.1750
  147SOL    MW4  356   3.926   6.270   6.349 -0.2752  0.0308 -0.2771
  148SOL     OW  357   6.131   3.034   4.114  0.1614 -0.0004 -0.3716
  148SOL    HW2  358   6.109   2.966   4.178  0.9476 -0.9859 -1.1113
  148SOL    HW3  359   6.048   3.073   4.089 -0.2692 -0.4772  0.2979
  148SOL    MW4  360   6.117   3.030   4.120  0.2083 -0.1934 -0.3809
  149SOL     OW  361   4.178   2.271   2.994  0.4546 -0.2528 -0.0551
  149SOL    HW2  362   4.203   2.221   2.916  1.3749  1.6022 -1.0044
  149SOL    HW3  363   4.232   2.235   3.064  0.6663 -0.9715 -0.5748
  149SOL    MW4  364   4.188   2.260   2.993  0.6040 -0.1029 -0.2489
  150SOL     OW  365   1.807   3.949   0.112  0.0066 -0.4491  0.1178
  150SOL    HW2  366   1.811   4.000   0.193  0.9583  0.7596 -0.6408
  150SOL    HW3  367   1.853   3.868   0.132  0.6973  0.0590  0.6557
  150SOL    MW4  368   1.814   3.945   0.126  0.2233 -0.2226  0.0887
  151SOL     OW  369   1.163   2.777   0.924 -0.0188  0.5168  0.1538
  151SOL    HW2  370   1.126   2.819   1.001  1.5146  0.5023  0.9258
  151SOL    HW3  371   1.184   2.688   0.952  2.0585  0.9849  0.2607
  151SOL    MW4  372   1.161   2.771   0.938  0.4576  0.5766  0.2698
  152SOL     OW  373   5.524   1.871   1.359  0.2493 -0.4725 -0.7983
  152SOL    HW2  374   5.451   1.900   1.413  0.9492 -0.9358  0.4505
  152SOL    HW3  375   5.571   1.952   1.338  0.3776 -0.3465 -0.0743
  152SOL    MW4  376   5.521   1.886   1.364  0.3586 -0.5170 -0.5380
  153SOL     OW  377   3.503   5.867   0.784  0.3667  0.4888  0.1172
  153SOL    HW2  378   3.464   5.891   0.868  1.2473  0.7053  0.4734
  153SOL    HW3  379   3.442   5.804   0.746  0.6182 -0.6411  1.5192
  153SOL    MW4  380   3.490   5.862   0.790  0.5160  0.3683  0.3492
  154SOL     OW  381   0.253   1.651   4.570 -0.0667 -0.2377  0.1067
  154SOL    HW2  382   0.337   1.682   4.536  0.2685 -2.0717 -0.8637
  154SOL    HW3  383   0.256   1.672   4.664  1.2593  0.1427 -0.0046
  154SOL    MW4  384   0.264   1.658   4.578  0.1525 -0.4295 -0.0360
  155SOL     OW  385   1.311   4.066   6.252 -0.3213 -0.3613  0.2753
  155SOL    HW2  386   1.220   4.083   6.276  0.2855 -0.3110  2.7600
  155SOL    HW3  387   1.355   4.150   6.263  0.2717 -0.6781  0.3320
  155SOL    MW4  388   1.305   4.079   6.257 -0.1630 -0.3964  0.6106
  156SOL     OW  389   5.902   5.140   3.461 -0.5139 -0.5400  0.5433
  156SOL    HW2  390   5.988   5.132   3.503 -0.8007  0.5445  1.3856
  156SOL    HW3  391   5.840   5.142   3.534 -0.9895  1.9535  0.1573
  156SOL    MW4  392   5.905   5.139   3.476 -0.6145 -0.0679  0.6035
  157SOL     OW  393   0.247   0.945   2.769 -0.0316  0.0928 -0.1938
  157SOL    HW2  394   0.208   0.875   2.821 -3.0318  0.3998 -1.8422
  157SOL    HW3  395   0.244   1.021   2.826  0.4405 -0.4327  0.5506
  157SOL    MW4  396   0.242   0.946   2.783 -0.3651  0.0640 -0.3131
  158SOL     OW  397   3.640   3.584   2.854 -0.4456 -0.1888 -0.1178
  158SOL    HW2  398   3.618   3.503   2.901 -0.9531 -0.5440 -0.9409
  158SOL    HW3  399   3.580   3.649   2.890  0.7856  0.1578  1.4331
  158SOL    MW4  400   3.629   3.582   2.865 -0.3501 -0.1899 -0.0218
  159SOL     OW  401   1.109   3.241   4.490 -0.3310 -0.0957  0.2026
  159SOL    HW2  402   1.182   3.207   4.438  2.6003  0.1312  3.7832
  159SOL    HW3  403   1.047   3.168   4.494  0.9185 -1.2716 -0.8016
  159SOL    MW4  404   1.110   3.227   4.484  0.2206 -0.2209  0.5426
  160SOL     OW  405   5.359   1.854   5.525 -0.3265 -0.3580 -0.0501
  160SOL    HW2  406   5.375   1.939   5.483 -0.7336 -1.3203 -2.3235
  160SOL    HW3  407   5.419   1.852   5.599  2.1789  0.5933 -1.8981
  160SOL    MW4  408   5.369   1.865   5.529 -0.0497 -0.3594 -0.5939
  161SOL     OW  409   3.392   6.229   1.787 -0.2119 -0.4977  0.1985
  161SOL    HW2  410   3.448   6.195   1.717 -0.6806 -0.5884 -0.1345
  161SOL    HW3  411   3.445   6.218   1.867  0.1576 -0.7912 -0.0798
  161SOL    MW4  412   3.406   6.223   1.789 -0.2250 -0.5484  0.1178
  162SOL     OW  413   1.410   5.294   5.767  0.4593 -0.0976  0.2643
  162SOL    HW2  414   1.423   5.241   5.688  0.5320  0.5428 -0.1597
  162SOL    HW3  415   1.487   5.350   5.772 -1.6784  3.4491 -2.0635
  162SOL    MW4  416   1.422   5.294   5.757  0.1869  0.4548 -0.0988
  163SOL     OW  417   6.089   1.516   6.055  0.3232 -0.2822 -0.1877
  163SOL    HW2  418   6.185   1.517   6.058  0.3530 -0.4166 -0.9258
  163SOL    HW3  419   6.062   1.534   6.145  1.0280  1.1225 -0.2257
  163SOL    MW4  420   6.098   1.518   6.068  0.4201 -0.1146 -0.2901
  164SOL     OW  421   1.994   6.334   2.014 -0.5094 -0.1267  0.6498
  164SOL    HW2  422   2.036   6.356   1.931  0.2979  2.9126  1.7593
  164SOL    HW3  423   1.909   6.376   2.010 -1.2544 -1.5565  0.6848
  164SOL    MW4  424   1.989   6.342   2.002 -0.5011  0.0857  0.8008
  165SOL     OW  425   0.137   5.455   2.376 -0.2861  0.0807 -0.1311
  165SOL    HW2  426   0.172   5.402   2.305 -1.2667  1.2447 -1.5353
  165SOL    HW3  427   0.212   5.506   2.407  0.4337 -1.3402  0.5799
  165SOL    MW4  428   0.152   5.455   2.371 -0.3205  0.0468 -0.2226
  166SOL     OW  429   3.857   3.600   1.703  0.0526  0.5562  0.6290
  166SOL    HW2  430   3.822   3.621   1.617 -0.0877 -0.3891  0.4457
  166SOL    HW3  431   3.791   3.543   1.742 -0.1519  1.4203  1.5889
  166SOL    MW4  432   3.843   3.595   1.697  0.0071  0.5455  0.7314
  167SOL     OW  433   6.190   0.540   1.077  0.1101  0.4551 -0.3257
  167SOL    HW2  434   6.226   0.454   1.093 -1.8930 -0.5534 -0.8740
  167SOL    HW3  435   6.098   0.524   1.056 -1.2385  2.9505  2.8161
  167SOL    MW4  436   6.182   0.527   1.076 -0.3321  0.6513  0.0164
  168SOL     OW  437   2.846   1.333   1.039 -0.2416 -0.6381 -0.1963
  168SOL    HW2  438   2.827   1.241   1.016 -1.6161 -0.5350  0.3900
  168SOL    HW3  439   2.809   1.343   1.127  1.3659  0.0542  0.4334
  168SOL    MW4  440   2.838   1.322   1.048 -0.2109 -0.5331 -0.0359
  169SOL     OW  441   5.615   2.056   0.518  0.0363  0.4565 -0.3642
  169SOL    HW2  442   5.692   1.999   0.510 -0.1416  0.2032 -0.2772
  169SOL    HW3  443   5.558   2.030   0.446 -0.4957 -0.1782  0.2643
  169SOL    MW4  444   5.618   2.045   0.508 -0.0574  0.3394 -0.2698
  170SOL     OW  445   5.028   2.667   3.095 -0.2553  0.1555  0.0668
  170SOL    HW2  446   5.091   2.713   3.150  0.7983 -1.4829  0.2992
  170SOL    HW3  447   4.943   2.680   3.138  0.0693  1.5152  0.3219
  170SOL    MW4  448   5.025   2.675   3.108 -0.0735  0.1187  0.1311
  171SOL     OW  449   1.309   1.455   2.632 -0.0757  0.0644 -0.1163
  171SOL    HW2  450   1.380   1.505   2.673  0.2805  0.0218 -0.6683
  171SOL    HW3  451   1.354   1.399   2.569 -0.5141 -0.6338  0.1851
  171SOL    MW4  452   1.324   1.454   2.629 -0.0866 -0.0334 -0.1494
  172SOL     OW  453   5.777   4.198   3.389  0.2195 -0.2674 -0.4547
  172SOL    HW2  454   5.760   4.284   3.428  1.0478  1.0685 -2.8513
  172SOL    HW3  455   5.857   4.210   3.338  0.3365 -2.4698 -0.8865
  172SOL    MW4  456   5.785   4.211   3.388  0.3442 -0.3817 -0.8279
  173SOL     OW  457   2.949   5.123   0.425  0.0139 -0.3892 -0.3385
  173SOL    HW2  458   2.963   5.127   0.331  1.5591  1.0060 -0.0906
  173SOL    HW3  459   2.880   5.057   0.436  0.7882 -1.6303 -2.3229
  173SOL    MW4  460   2.942   5.115   0.414  0.3199 -0.3689 -0.5676
  174SOL     OW  461   0.460   2.500   2.239 -0.3076 -0.4878  0.6854
  174SOL    HW2  462   0.522   2.434   2.271  0.3109  0.3900  1.3325
  174SOL    HW3  463   0.475   2.576   2.295  0.1303  0.7672 -1.0674
  174SOL    MW4  464   0.470   2.501   2.251 -0.1682 -0.2064  0.5395
  175SOL     OW  465   5.004   5.181   5.595 -0.0541  0.1384  0.1709
  175SOL    HW2  466   4.922   5.231   5.593 -0.3123 -0.2371 -2.0770
  175SOL    HW3  467   5.072   5.245   5.616 -0.8854  0.4432  2.1591
  175SOL    MW4  468   5.002   5.196   5.597 -0.1978  0.1291  0.1367
  176SOL     OW  469   3.068   4.827   0.275  0.1718 -0.1476  0.0174
  176SOL    HW2  470   3.143   4.884   0.283 -0.5976  0.7549  1.2604
  176SOL    HW3  471   3.067   4.777   0.357 -1.2778  0.7951  0.6302
  176SOL    MW4  472   3.077   4.828   0.287 -0.1210  0.0958  0.2623
  177SOL     OW  473   4.665   3.997   1.309  0.7724  0.6312  0.1512
  177SOL    HW2  474   4.580   3.997   1.353  0.8148 -1.4378  0.3516
  177SOL    HW3  475   4.645   4.023   1.219 -0.2662 -0.7183 -0.0535
  177SOL    MW4  476   4.651   4.000   1.303  0.6410  0.1802  0.1506
  178SOL     OW  477   5.134   5.871   0.531  0.1999 -0.2967 -0.2051
  178SOL    HW2  478   5.132   5.777   0.549  1.2996 -0.2003  0.5827
  178SOL    HW3  479   5.226   5.889   0.509  0.2898  0.8067  0.9664
  178SOL    MW4  480   5.146   5.861   0.530  0.3568 -0.1384  0.0534
  179SOL     OW  481   4.601   1.667   0.461 -0.3197 -0.0134  0.2323
  179SOL    HW2  482   4.660   1.653   0.535 -0.0385  0.1840  0.0440
  179SOL    HW3  483   4.653   1.715   0.397 -0.8388  0.6216  0.2732
  179SOL    MW4  484   4.615   1.671   0.462 -0.3510  0.0964  0.2128
  180SOL     OW  485   5.810   5.292   0.985 -0.2020 -0.2876 -0.0393
  180SOL    HW2  486   5.837   5.287   0.893  2.0195 -1.0438  0.5848
  180SOL    HW3  487   5.730   5.240   0.990  1.2005 -2.7135 -1.0606
  180SOL    MW4  488   5.803   5.284   0.973  0.2761 -0.7075 -0.0917
  181SOL     OW  489   5.964   5.783   3.744  0.2714  0.2491 -0.1772
  181SOL    HW2  490   5.951   5.771   3.650  2.2821 -1.3601 -0.3195
  181SOL    HW3  491   5.933   5.701   3.783  2.3287 -0.4224  0.1892
  181SOL    MW4  492   5.958   5.770   3.736  0.8081 -0.0518 -0.1476
  182SOL     OW  493   5.854   2.391   3.950 -0.4619 -0.1084 -0.2534
  182SOL    HW2  494   5.906   2.314   3.928 -0.3601 -0.2780  0.5412
  182SOL    HW3  495   5.766   2.358   3.966 -0.9169  0.2242 -1.9330
  182SOL    MW4  496   5.849   2.377   3.949 -0.5085 -0.0869 -0.3702
  183SOL     OW  497   5.196   6.096   5.789 -0.4211 -1.5323  0.0205
  183SOL    HW2  498   5.117   6.107   5.737 -0.1905  0.5218  0.0168
  183SOL    HW3  499   5.246   6.176   5.774  0.5746 -1.7582  1.8411
  183SOL    MW4  500   5.192   6.108   5.780 -0.2593 -1.2911  0.2602
  184SOL     OW  501   5.283   6.381   5.483 -0.2981  0.4947 -0.5280
  184SOL    HW2  502   5.279   6.476   5.472 -0.6183  0.7644  1.5474
  184SOL    HW3  503   5.309   6.368   5.574  1.5605 -1.4375 -1.2384
  184SOL    MW4  504   5.286   6.392   5.493 -0.0951  0.2753 -0.3479
  185SOL     OW  505   0.570   5.237   3.574  0.5614  0.4131 -0.2714
  185SOL    HW2  506   0.602   5.282   3.495 -0.1865 -0.1484 -0.9159
  185SOL    HW3  507   0.495   5.186   3.543  0.0907  0.3892  0.8706
  185SOL    MW4  508   0.565   5.236   3.559  0.4006  0.3358 -0.2057
  186SOL     OW  509   2.074   2.735   4.875  0.1427 -0.7804  0.3966
  186SOL    HW2  510   2.024   2.711   4.952  0.3747 -0.1534  0.7550
  186SOL    HW3  511   2.152   2.778   4.910  1.9250 -3.4072 -0.0510
  186SOL    MW4  512   2.078   2.738   4.890  0.4085 -1.0443  0.3848
  187SOL     OW  513   1.811   1.753   4.762  0.7335  0.5410 -0.1206
  187SOL    HW2  514   1.836   1.821   4.700 -1.1766  1.4672  0.0535
  187SOL    HW3  515   1.748   1.796   4.820 -0.9482 -1.4922 -0.3220
  187SOL    MW4  516   1.806   1.768   4.762  0.2596  0.3949 -0.1242
  188SOL     OW  517   2.207   6.363   4.844 -0.1915 -0.9224  0.4126
  188SOL    HW2  518   2.187   6.402   4.759  0.6870 -1.2025  0.0740
  188SOL    HW3  519   2.155   6.282   4.846 -1.7265  0.0269  0.9623
  188SOL    MW4  520   2.197   6.358   4.833 -0.2781 -0.8341  0.4405
  189SOL     OW  521   4.662   0.545   0.912  0.5401 -0.0432 -0.0893
  189SOL    HW2  522   4.722   0.479   0.946  2.6059  0.4417 -2.5007
  189SOL    HW3  523   4.653   0.608   0.984  1.6863 -0.9253  0.8745
  189SOL    MW4  524   4.669   0.544   0.926  0.9639 -0.0956 -0.2803
  190SOL     OW  525   4.580   0.602   1.178 -0.4255 -0.1814  0.2228
  190SOL    HW2  526   4.587   0.507   1.183 -0.3435 -0.3222 -1.7545
  190SOL    HW3  527   4.487   0.619   1.163 -0.3898  0.0159  0.2130
  190SOL    MW4  528   4.569   0.592   1.177 -0.4100 -0.1740 -0.0394
  191SOL     OW  529   0.381   4.319   2.245  0.4210 -0.0994 -1.0804
  191SOL    HW2  530   0.419   4.254   2.185 -1.1245 -1.9000 -0.2094
  191SOL    HW3  531   0.318   4.367   2.191  1.8506  1.0256 -1.8305
  191SOL    MW4  532   0.378   4.317   2.230  0.4057 -0.1885 -1.0644
  192SOL     OW  533   4.990   3.542   4.378 -0.2638  0.3295  0.1300
  192SOL    HW2  534   4.904   3.550   4.419 -1.0715  2.1802 -1.7573
  192SOL    HW3  535   5.050   3.527   4.452 -1.8389  1.8979  1.8480
  192SOL    MW4  536   4.987   3.541   4.393 -0.5782  0.7806  0.1076
  193SOL     OW  537   3.584   5.781   4.734 -0.2842  0.0597 -0.4151
  193SOL    HW2  538   3.537   5.815   4.810  0.1837 -0.0321 -0.0873
  193SOL    HW3  539   3.672   5.818   4.740 -0.0683 -0.4085 -0.5972
  193SOL    MW4  540   3.589   5.790   4.745 -0.1940 -0.0142 -0.3959
  194SOL     OW  541   6.219   4.000   2.803  0.3139 -1.1825 -0.3464
  194SOL    HW2  542   6.309   4.033   2.797  0.1731 -0.7215  0.0638
  194SOL    HW3  543   6.209   3.945   2.725  1.1540 -1.7285 -0.0825
  194SOL    MW4  544   6.230   3.997   2.792  0.4062 -1.1937 -0.2575
  195SOL     OW  545   1.953   4.827   2.377 -0.6186  0.1304  0.0649
  195SOL    HW2  546   1.890   4.761   2.406  0.1128 -0.4825  0.3017
  195SOL    HW3  547   1.942   4.899   2.438 -2.1396  0.6812 -0.8065
  195SOL    MW4  548   1.943   4.828   2.389 -0.7228  0.1222 -0.0188
  196SOL     OW  549   5.870   6.241   3.815 -0.0910  0.0876  0.1299
  196SOL    HW2  550   5.875   6.222   3.721  3.1035  1.2030 -0.0357
  196SOL    HW3  551   5.922   6.172   3.856 -0.6024  0.1976  0.9763
  196SOL    MW4  552   5.878   6.230   3.808  0.2630  0.2493  0.2197
  197SOL     OW  553   2.157   1.431   4.412 -0.1018  0.0468  0.1191
  197SOL    HW2  554   2.197   1.518   4.405  2.6805 -0.8420  2.7621
  197SOL    HW3  555   2.064   1.449   4.427  0.6059  2.7058  2.1920
  197SOL    MW4  556   2.150   1.445   4.413  0.3586  0.2803  0.7413
  198SOL     OW  557   6.307   1.847   4.391 -0.6725  0.6789 -0.1940
  198SOL    HW2  558   6.236   1.889   4.343 -1.3368 -1.1524 -0.8990
  198SOL    HW3  559   6.380   1.909   4.385 -1.7109  1.8981 -0.7985
  198SOL    MW4  560   6.308   1.861   4.384 -0.8972  0.5982 -0.3667
  199SOL     OW  561   1.152   3.022   4.750 -0.4128  0.7616  0.0913
  199SOL    HW2  562   1.245   3.044   4.759 -0.7646  1.9998  0.8269
  199SOL    HW3  563   1.121   3.010   4.839 -0.4363 -2.1358 -0.2104
  199SOL    MW4  564   1.160   3.023   4.763 -0.4623  0.5427  0.1485
  200SOL     OW  565   0.336   4.471   2.809 -0.0331  0.1308  0.0078
  200SOL    HW2  566   0.320   4.436   2.721  1.5747  1.0558 -0.6957
  200SOL    HW3  567   0.304   4.561   2.805  0.8731  0.4659  0.0638
  200SOL    MW4  568   0.330   4.478   2.797  0.2986  0.2970 -0.0776
  201SOL     OW  569   5.194   4.046   2.616  0.2683 -0.6868  0.0058
  201SOL    HW2  570   5.108   4.011   2.593  0.0312  0.3735 -0.7905
  201SOL    HW3  571   5.245   4.041   2.535 -0.2710  2.2063 -0.6236
  201SOL    MW4  572   5.190   4.041   2.602  0.1659 -0.1652 -0.1823
  202SOL     OW  573   4.180   4.064   4.650  0.0461 -0.0176 -0.1141
  202SOL    HW2  574   4.156   4.041   4.560 -0.1852  1.7512 -0.5347
  202SOL    HW3  575   4.257   4.011   4.668  0.9010  0.5577 -1.8541
  202SOL    MW4  576   4.187   4.054   4.641  0.1283  0.2917 -0.3992
  203SOL     OW  577   2.325   4.048   5.203  0.5554  0.1211 -0.4143
  203SOL    HW2  578   2.271   4.054   5.282  0.6678  2.0420 -0.4346
  203SOL    HW3  579   2.265   4.065   5.131  0.9159  0.9196 -0.5389
  203SOL    MW4  580   2.310   4.051   5.204  0.6178  0.4799 -0.4334
  204SOL     OW  581   0.961   3.164   0.934  0.9441  0.2520  0.4714
  204SOL    HW2  582   0.986   3.246   0.976  0.1440  0.6687  0.1502
  204SOL    HW3  583   0.958   3.185   0.840  1.1336 -0.2502  0.3502
  204SOL    MW4  584   0.964   3.177   0.927  0.8635  0.2407  0.4130
  205SOL     OW  585   3.709   4.067   4.712 -0.2834  0.2143 -0.0339
  205SOL    HW2  586   3.630   4.114   4.685 -0.5405  0.4461  1.0440
  205SOL    HW3  587   3.706   3.985   4.664  0.1525  1.2545 -1.9333
  205SOL    MW4  588   3.698   4.062   4.702 -0.2598  0.3822 -0.1423
  206SOL     OW  589   1.421   0.385   3.862 -0.2384 -0.2562 -0.1391
  206SOL    HW2  590   1.482   0.400   3.789  0.5701  0.8111  0.7103
  206SOL    HW3  591   1.465   0.319   3.916  0.1003  0.3707  0.3714
  206SOL    MW4  592   1.435   0.378   3.860 -0.0871 -0.0326  0.0403
  207SOL     OW  593   5.869   1.297   4.267  0.1627 -0.3608  0.4799
  207SOL    HW2  594   5.920   1.265   4.341  3.8639  0.1564 -1.5627
  207SOL    HW3  595   5.856   1.390   4.285  0.9285 -0.2685  0.5960
  207SOL    MW4  596   5.874   1.305   4.279  0.7521 -0.2804  0.2257
  208SOL     OW  597   1.074   5.062   0.898 -0.5613  0.2513 -0.5411
  208SOL    HW2  598   1.117   5.120   0.960  0.4891  0.8863 -1.8140
  208SOL    HW3  599   1.099   4.973   0.925 -1.0934  0.4441  0.6231
  208SOL    MW4  600   1.083   5.058   0.910 -0.4929  0.3605 -0.5555
  209SOL     OW  601   3.585   4.049   3.710 -0.2157  1.0884 -0.0417
  209SOL    HW2  602   3.585   4.104   3.788 -0.5602  1.1370 -0.0773
  209SOL    HW3  603   3.493   4.031   3.693 -0.1102  0.5570 -0.0674
  209SOL    MW4  604   3.573   4.054   3.718 -0.2473  1.0247 -0.0498
  210SOL     OW  605   3.922   0.430   5.534  0.3490 -0.3310  0.0316
  210SOL    HW2  606   3.965   0.390   5.609  0.4381 -0.5640 -0.1422
  210SOL    HW3  607   3.841   0.380   5.522  0.8499 -1.0032 -0.6868
  210SOL    MW4  608   3.917   0.418   5.542  0.4269 -0.4504 -0.0861
  211SOL     OW  609   4.953   4.944   2.112  0.0179 -0.9806  0.0952
  211SOL    HW2  610   4.871   4.949   2.063 -0.1180  0.5819  0.4334
  211SOL    HW3  611   5.020   4.964   2.047 -0.1822  1.3505  0.5369
  211SOL    MW4  612   4.951   4.947   2.097 -0.0264 -0.4669  0.1981
  212SOL     OW  613   0.717   3.819   4.478 -0.9124  0.0628 -0.8801
  212SOL    HW2  614   0.693   3.769   4.556  1.4523 -1.5839 -1.1000
  212SOL    HW3  615   0.755   3.900   4.513 -0.1887 -0.5056 -0.3142
  212SOL    MW4  616   0.719   3.823   4.493 -0.5049 -0.2295 -0.8344
  213SOL     OW  617   2.001   0.067   0.275  0.4802 -0.0114  0.0621
  213SOL    HW2  618   1.975  -0.021   0.300  2.9001 -1.0477 -0.7679
  213SOL    HW3  619   2.094   0.071   0.295  0.8298  1.7191 -1.5861
  213SOL    MW4  620   2.010   0.056   0.281  0.8456  0.0802 -0.2648
  214SOL     OW  621   4.403   0.968   2.100 -0.2237  0.0713 -0.0147
  214SOL    HW2  622   4.351   0.908   2.046 -2.6786 -0.3140  2.5414
  214SOL    HW3  623   4.470   0.912   2.140  0.2944 -0.0438 -1.0217
  214SOL    MW4  624   4.405   0.952   2.098 -0.4792  0.0053  0.1897
  215SOL     OW  625   2.865   0.806   3.596 -0.6971  0.1375 -0.1100
  215SOL    HW2  626   2.924   0.812   3.521  1.4792  2.7153  1.6204
  215SOL    HW3  627   2.874   0.716   3.626  1.8858  0.2128 -0.3838
  215SOL    MW4  628   2.874   0.795   3.590 -0.0692  0.4875  0.0822
  216SOL     OW  629   3.482   2.618   0.831  0.3032  0.0195 -0.2438
  216SOL    HW2  630   3.556   2.648   0.778  0.2139 -1.5648 -1.3520
  216SOL    HW3  631   3.520   2.562   0.897  0.1834 -0.0036 -0.1931
  216SOL    MW4  632   3.496   2.615   0.832  0.2756 -0.1926 -0.3833
  217SOL     OW  633   3.338   0.934   6.086 -0.2751 -0.0872  0.3382
  217SOL    HW2  634   3.427   0.902   6.095 -0.4754 -0.1837  2.6734
  217SOL    HW3  635   3.283   0.861   6.115 -1.1188  0.0344 -0.8898
  217SOL    MW4  636   3.342   0.920   6.091 -0.4128 -0.0839  0.4843
  218SOL     OW  637   3.191   3.788   3.329  0.1414 -0.1198  0.6315
  218SOL    HW2  638   3.240   3.717   3.287 -1.2179 -0.6317 -0.1490
  218SOL    HW3  639   3.121   3.743   3.377 -1.3709  0.6772 -0.7123
  218SOL    MW4  640   3.188   3.772   3.330 -0.2375 -0.0822  0.3512
  219SOL     OW  641   1.379   3.092   5.185 -0.4085  0.1133  0.1220
  219SOL    HW2  642   1.391   3.183   5.157 -0.4290  0.1398  0.2005
  219SOL    HW3  643   1.463   3.049   5.163 -0.6118  0.0084 -0.4660
  219SOL    MW4  644   1.392   3.098   5.178 -0.4380  0.1030  0.0548
  220SOL     OW  645   3.059   5.543   0.016 -0.6661 -0.4377  0.0251
  220SOL    HW2  646   3.025   5.603  -0.050  2.3237  0.2495 -1.0601
  220SOL    HW3  647   3.102   5.474  -0.035  2.5923  0.6311  1.0827
  220SOL    MW4  648   3.061   5.542  -0.000  0.1582 -0.2060  0.0214
  221SOL     OW  649   3.790   3.264   4.225  0.6129 -0.3023 -0.4799
  221SOL    HW2  650   3.744   3.321   4.287  0.6031 -1.5299  0.6833
  221SOL    HW3  651   3.724   3.240   4.160  0.1186 -0.4572  0.0692
  221SOL    MW4  652   3.775   3.268   4.225  0.5464 -0.4847 -0.2540
  222SOL     OW  653   0.909   3.098   5.584 -0.6563 -0.2296  0.5670
  222SOL    HW2  654   0.816   3.095   5.565 -0.7808  1.4474  0.7114
  222SOL    HW3  655   0.927   3.018   5.634 -1.9693 -0.6553  0.3737
  222SOL    MW4  656   0.899   3.087   5.588 -0.8460 -0.0645  0.5605
  223SOL     OW  657   2.027   1.041   5.817  0.5014  0.5963 -0.8572
  223SOL    HW2  658   2.077   0.962   5.795  1.4687  0.6264  0.9646
  223SOL    HW3  659   1.957   1.009   5.874  1.6950  1.1216  1.0181
  223SOL    MW4  660   2.025   1.026   5.822  0.7865  0.6696 -0.3694
  224SOL     OW  661   2.908   0.669   4.556  0.0131  0.1984  0.6082
  224SOL    HW2  662   2.822   0.704   4.534 -0.4235 -1.4449 -0.4642
  224SOL    HW3  663   2.947   0.646   4.472  1.3114  0.4320  1.1100
  224SOL    MW4  664   2.902   0.671   4.542  0.1268  0.0124  0.5329
  225SOL     OW  665   5.440   0.016   4.291  0.6295 -0.1339 -0.6859
  225SOL    HW2  666   5.438   0.074   4.367  1.2791 -0.3205 -0.5197
  225SOL    HW3  667   5.371  -0.048   4.308  3.3132 -2.6603  1.7757
  225SOL    MW4  668   5.430   0.015   4.304  1.0693 -0.4919 -0.3392
  226SOL     OW  669   5.590   3.921   4.875  0.0664  0.0557  0.1680
  226SOL    HW2  670   5.546   3.876   4.947 -0.7227 -0.4731 -0.6194
  226SOL    HW3  671   5.667   3.868   4.857 -2.4124 -3.0714 -2.8486
  226SOL    MW4  672   5.594   3.908   4.882 -0.3647 -0.4266 -0.3339
  227SOL     OW  673   1.064   6.372   2.781 -0.4512  0.0649  0.0077
  227SOL    HW2  674   1.122   6.384   2.705 -1.6693 -3.3904 -1.6907
  227SOL    HW3  675   1.123   6.351   2.853  0.6092  1.3077 -0.4464
  227SOL    MW4  676   1.080   6.371   2.780 -0.4720 -0.2270 -0.2763
  228SOL     OW  677   0.086   1.804   3.611 -0.4282  0.1993  0.2851
  228SOL    HW2  678   0.029   1.738   3.649  0.8458 -1.0190  0.1819
  228SOL    HW3  679   0.105   1.772   3.523  1.4362 -0.1269  0.7634
  228SOL    MW4  680   0.081   1.791   3.604 -0.0141 -0.0045  0.3346
  229SOL     OW  681   6.050   4.546   1.228 -0.2603 -0.1876 -0.7985
  229SOL    HW2  682   6.121   4.498   1.271  0.1724  1.5078  0.5155
  229SOL    HW3  683   5.971   4.522   1.277 -0.0671  0.2610 -0.2438
  229SOL    MW4  684   6.049   4.537   1.240 -0.1777  0.0953 -0.5519
  230SOL     OW  685   0.506   3.505   3.370  0.4949 -0.0897 -0.1580
  230SOL    HW2  686   0.459   3.503   3.453 -0.4829  1.8692 -0.5934
  230SOL    HW3  687   0.467   3.435   3.318 -0.4354  0.0922  0.2734
  230SOL    MW4  688   0.495   3.496   3.374  0.2431  0.1928 -0.1585
  231SOL     OW  689   6.086   5.780   4.433 -0.2302  0.0681  0.1349
  231SOL    HW2  690   6.121   5.785   4.521  0.6331 -0.2231 -0.1820
  231SOL    HW3  691   6.159   5.806   4.376 -0.3283 -1.1481 -0.5786
  231SOL    MW4  692   6.100   5.784   4.437 -0.1292 -0.1308 -0.0010
  232SOL     OW  693   1.965   4.815   4.792 -0.3885 -0.4044 -0.1006
  232SOL    HW2  694   1.907   4.869   4.739 -0.2346  0.8795  0.9605
  232SOL    HW3  695   1.906   4.765   4.848 -0.5167  0.0671  0.1984
  232SOL    MW4  696   1.950   4.816   4.793 -0.3851 -0.1728  0.0788
  233SOL     OW  697   2.620   0.516   1.513 -0.0557  0.1023  0.0469
  233SOL    HW2  698   2.661   0.588   1.559 -1.2364  0.2510  0.9381
  233SOL    HW3  699   2.539   0.500   1.562  0.1176 -1.7457 -0.1800
  233SOL    MW4  700   2.614   0.523   1.526 -0.1886 -0.1219  0.1345
  234SOL     OW  701   3.452   3.934   0.005  0.0489  0.3421  0.4687
  234SOL    HW2  702   3.365   3.905  -0.019 -0.3947  1.8538  0.1327
  234SOL    HW3  703   3.504   3.927  -0.075  0.1730 -0.3073  0.6027
  234SOL    MW4  704   3.448   3.930  -0.008  0.0068  0.4559  0.4420
  235SOL     OW  705   2.922   3.656   0.299  0.4337  0.2711  0.5346
  235SOL    HW2  706   3.001   3.662   0.245 -0.9572 -0.8439 -1.8164
  235SOL    HW3  707   2.888   3.568   0.282 -1.7032  0.9807  0.8440
  235SOL    MW4  708   2.928   3.645   0.289 -0.0317  0.2176  0.2652
  236SOL     OW  709   0.652   3.857   3.564 -0.3091  0.3124 -0.9569
  236SOL    HW2  710   0.644   3.941   3.521 -1.1689  0.5632 -0.3254
  236SOL    HW3  711   0.566   3.815   3.553  0.3987 -0.9217 -2.1377
  236SOL    MW4  712   0.640   3.862   3.557 -0.3292  0.1827 -1.0294
  237SOL     OW  713   2.274   4.398   3.214  0.2183 -0.5216 -0.3711
  237SOL    HW2  714   2.294   4.415   3.306  3.1433 -0.0876 -0.9884
  237SOL    HW3  715   2.272   4.486   3.174 -1.1622 -0.6960 -0.7158
  237SOL    MW4  716   2.277   4.412   3.221  0.4221 -0.4873 -0.4980
  238SOL     OW  717   6.231   3.217   0.119  0.3933 -0.1052  0.0360
  238SOL    HW2  718   6.167   3.287   0.104 -1.2936 -1.5968 -0.1163
  238SOL    HW3  719   6.316   3.261   0.116 -0.4972  1.6656 -1.6497
  238SOL    MW4  720   6.234   3.232   0.117  0.0533 -0.0684 -0.2065
  239SOL     OW  721   4.616   1.055   1.533 -0.1572  0.2230  0.4798
  239SOL    HW2  722   4.689   0.995   1.516 -0.8401 -0.2703 -0.9038
  239SOL    HW3  723   4.603   1.050   1.627 -1.1354 -3.0436  0.3104
  239SOL    MW4  724   4.624   1.046   1.543 -0.3763 -0.2731  0.2749
  240SOL     OW  725   5.182   1.455   5.623 -0.0958 -0.1589 -0.4596
  240SOL    HW2  726   5.250   1.409   5.672 -0.2466  0.7788  0.6435
  240SOL    HW3  727   5.171   1.539   5.667 -1.5722 -0.0503 -0.9562
  240SOL    MW4  728   5.190   1.460   5.635 -0.3105 -0.0208 -0.3796
  241SOL     OW  729   1.560   1.473   6.413 -0.2689  0.1285 -0.0794
  241SOL    HW2  730   1.574   1.481   6.319 -0.1941  1.2762  0.0117
  241SOL    HW3  731   1.643   1.503   6.452 -0.7669  0.9562  0.3662
  241SOL    MW4  732   1.573   1.478   6.406 -0.3247  0.3891 -0.0086
  242SOL     OW  733   6.443   3.378   5.019 -0.1639 -0.2123 -0.2504
  242SOL    HW2  734   6.359   3.354   4.980  0.4352 -0.8744 -1.1975
  242SOL    HW3  735   6.508   3.341   4.959  0.8506  2.8195 -1.1980
  242SOL    MW4  736   6.440   3.370   5.006  0.0490  0.1004 -0.5004
  243SOL     OW  737   0.959   4.252   3.598 -0.3845 -0.3084 -0.2642
  243SOL    HW2  738   1.036   4.212   3.557  0.7467  1.7791 -0.2822
  243SOL    HW3  739   0.919   4.180   3.648  2.2161 -1.2060  0.6697
  243SOL    MW4  740   0.964   4.237   3.599  0.1079 -0.1514 -0.1433
  244SOL     OW  741   3.717   2.807   3.141  0.0266 -0.3804 -0.0008
  244SOL    HW2  742   3.734   2.889   3.187 -0.2654 -1.3758  1.9732
  244SOL    HW3  743   3.786   2.802   3.075  0.7727  0.8730  0.6462
  244SOL    MW4  744   3.728   2.817   3.138  0.0865 -0.3464  0.3450
  245SOL     OW  745   2.366   6.408   1.737 -0.3788 -0.4161 -0.2563
  245SOL    HW2  746   2.366   6.356   1.658  0.0664 -0.4451 -0.2355
  245SOL    HW3  747   2.422   6.360   1.798  2.0380  1.2648 -1.0189
  245SOL    MW4  748   2.373   6.395   1.735 -0.0012 -0.1981 -0.3542
  246SOL     OW  749   3.756   3.693   5.120  0.2467 -0.1257 -0.3175
  246SOL    HW2  750   3.693   3.622   5.125 -0.4499  0.3329 -2.0990
  246SOL    HW3  751   3.841   3.651   5.132 -0.1361 -1.2908 -1.5577
  246SOL    MW4  752   3.759   3.678   5.122  0.1043 -0.2189 -0.7162
  247SOL     OW  753   2.835   6.375   3.721  0.7749  0.4179  0.1440
  247SOL    HW2  754   2.832   6.279   3.727  1.0822  0.4468  0.7587
  247SOL    HW3  755   2.927   6.397   3.734  0.4982  0.8863  1.4638
  247SOL    MW4  756   2.847   6.365   3.723  0.7789  0.4835  0.3993
  248SOL     OW  757   5.287   0.935   4.095  0.4352  0.0426 -0.7279
  248SOL    HW2  758   5.338   0.960   4.172 -1.6365 -0.6936  0.9974
  248SOL    HW3  759   5.270   1.018   4.050  0.5894  0.6678  0.3206
  248SOL    MW4  760   5.292   0.949   4.099  0.1823  0.0280 -0.3620
  249SOL     OW  761   4.399   3.162   3.102 -0.6179 -0.1127  0.1994
  249SOL    HW2  762   4.475   3.180   3.158 -0.7326  0.8759  0.0583
  249SOL    HW3  763   4.358   3.247   3.091 -0.7875 -0.3543 -1.1278
  249SOL    MW4  764   4.404   3.175   3.108 -0.6554 -0.0141  0.0056
  250SOL     OW  765   5.885   4.104   0.642  0.1895 -0.4763  0.4406
  250SOL    HW2  766   5.922   4.179   0.689  1.0680 -0.2246 -0.6293
  250SOL    HW3  767   5.805   4.139   0.602 -0.3230 -0.5752  1.3551
  250SOL    MW4  768   5.879   4.119   0.643  0.2378 -0.4561  0.4201
  251SOL     OW  769   4.242   4.537   3.791  0.1948 -0.5351 -0.4172
  251SOL    HW2  770   4.181   4.573   3.726 -1.1483 -0.9537  0.5580
  251SOL    HW3  771   4.226   4.590   3.870  1.2777 -0.5038 -0.2114
  251SOL    MW4  772   4.232   4.549   3.793  0.1604 -0.5862 -0.2613
  252SOL     OW  773   2.726   4.790   3.485  0.1406  0.2110 -0.1791
  252SOL    HW2  774   2.633   4.800   3.464 -0.3661 -0.6734  1.4387
  252SOL    HW3  775   2.753   4.875   3.518  0.0480  0.6086 -1.0967
  252SOL    MW4  776   2.717   4.802   3.486  0.0615  0.1468 -0.0867
  253SOL     OW  777   4.899   5.097   4.637 -0.0094 -0.4594 -0.3950
  253SOL    HW2  778   4.903   5.034   4.565 -1.6658 -0.8441 -0.1947
  253SOL    HW3  779   4.808   5.096   4.665  0.4803  0.0730  1.3751
  253SOL    MW4  780   4.888   5.089   4.631 -0.1633 -0.4399 -0.1350
  254SOL     OW  781   3.554   2.092   1.001  0.3745 -0.0097  0.3634
  254SOL    HW2  782   3.477   2.133   1.040 -0.9055 -0.8889 -1.1276
  254SOL    HW3  783   3.552   2.002   1.032 -0.6010 -0.6917 -1.5447
  254SOL    MW4  784   3.544   2.086   1.010  0.0769 -0.2157 -0.0851
  255SOL     OW  785   0.412   1.286   5.915 -0.5042  0.1114  0.1960
  255SOL    HW2  786   0.421   1.373   5.875  0.3824  1.1867  2.5411
  255SOL    HW3  787   0.331   1.291   5.964 -0.6838 -0.5616 -0.0309
  255SOL    MW4  788   0.403   1.298   5.916 -0.4109  0.1645  0.4755
  256SOL     OW  789   6.465   5.419   4.236  0.3369 -0.2336 -0.5023
  256SOL    HW2  790   6.456   5.375   4.151 -0.2707  0.9357 -1.0788
  256SOL    HW3  791   6.381   5.464   4.248  0.6994  0.2282  0.3569
  256SOL    MW4  792   6.453   5.420   4.226  0.3046 -0.0184 -0.4650
  257SOL     OW  793   2.581   0.588   2.540  0.9461  0.3335 -0.6445
  257SOL    HW2  794   2.504   0.619   2.491  0.7082 -0.5074 -0.8252
  257SOL    HW3  795   2.548   0.573   2.628  0.1810 -2.6171 -1.3417
  257SOL    MW4  796   2.566   0.590   2.545  0.8138 -0.1667 -0.7603
  258SOL     OW  797   0.222   4.208   4.633  0.3706 -0.4134  0.4505
  258SOL    HW2  798   0.131   4.196   4.605  0.3963 -0.8599  0.5512
  258SOL    HW3  799   0.237   4.303   4.627  0.2089 -0.4400 -0.5153
  258SOL    MW4  800   0.212   4.219   4.629  0.3527 -0.4758  0.3363
  259SOL     OW  801   2.468   5.849   5.317 -0.6876  0.5860  0.3483
  259SOL    HW2  802   2.480   5.937   5.284  1.0658 -0.0488 -0.8371
  259SOL    HW3  803   2.414   5.805   5.251  1.1936 -0.1197 -0.8096
  259SOL    MW4  804   2.463   5.855   5.304 -0.2081  0.4091  0.0391
  260SOL     OW  805   3.763   5.905   1.328 -0.3719  0.4162  0.1593
  260SOL    HW2  806   3.768   6.000   1.337 -1.1132  0.4844 -0.0617
  260SOL    HW3  807   3.761   5.890   1.234 -0.0458  0.1621  0.1906
  260SOL    MW4  808   3.763   5.916   1.317 -0.4267  0.3917  0.1342
  261SOL     OW  809   3.712   1.002   4.136 -0.0419 -0.1532  0.0912
  261SOL    HW2  810   3.687   0.909   4.140 -0.6092  0.0220  0.8975
  261SOL    HW3  811   3.734   1.016   4.044 -0.6333 -0.9213 -0.1895
  261SOL    MW4  812   3.711   0.992   4.125 -0.1948 -0.2314  0.1606
  262SOL     OW  813   0.282   4.452   4.253 -0.1973 -0.2035 -0.5192
  262SOL    HW2  814   0.236   4.513   4.311 -1.9260 -0.1441 -1.8365
  262SOL    HW3  815   0.319   4.508   4.185  2.0481 -0.2408  0.5915
  262SOL    MW4  816   0.281   4.468   4.251 -0.1291 -0.2006 -0.5465
  263SOL     OW  817   6.333   4.342   3.825 -0.7323 -0.0379 -0.0099
  263SOL    HW2  818   6.330   4.368   3.733 -1.4954  0.3232  0.1165
  263SOL    HW3  819   6.394   4.268   3.826 -0.2765  0.3095 -0.7127
  263SOL    MW4  820   6.341   4.335   3.813 -0.7729  0.0556 -0.0860
  264SOL     OW  821   2.631   0.859   0.742 -0.2076 -0.3083 -0.1180
  264SOL    HW2  822   2.541   0.890   0.735  0.1329  0.4869 -1.3164
  264SOL    HW3  823   2.684   0.933   0.714  0.8186 -0.8292  0.3954
  264SOL    MW4  824   2.626   0.873   0.737 -0.0272 -0.2721 -0.2084
  265SOL     OW  825   1.191   1.590   1.194 -0.0934 -0.3422 -0.5301
  265SOL    HW2  826   1.151   1.574   1.280 -1.9792  0.4342 -1.2243
  265SOL    HW3  827   1.148   1.529   1.135 -0.3336  0.5774 -1.3239
  265SOL    MW4  828   1.180   1.580   1.198 -0.3739 -0.1185 -0.7264
  266SOL     OW  829   0.378   2.979   6.061  0.7942 -0.0078 -0.3273
  266SOL    HW2  830   0.333   2.896   6.071 -0.3617  0.8709  3.1936
  266SOL    HW3  831   0.322   3.030   6.002  1.6514 -1.6796 -2.7208
  266SOL    MW4  832   0.365   2.975   6.054  0.7548 -0.1125 -0.1785
  267SOL     OW  833   2.071   1.426   3.035 -0.1276  0.4143 -0.0650
  267SOL    HW2  834   2.043   1.345   3.078  1.6164 -0.6048 -0.7537
  267SOL    HW3  835   2.167   1.421   3.034  0.0131  2.3977 -0.3191
  267SOL    MW4  836   2.080   1.415   3.040  0.1211  0.5415 -0.1894
  268SOL     OW  837   1.595   3.463   1.368 -0.4771 -0.4390  0.6304
  268SOL    HW2  838   1.591   3.436   1.460 -1.5173 -1.0347  0.4209
  268SOL    HW3  839   1.681   3.435   1.339 -0.7617 -1.7428  0.9816
  268SOL    MW4  840   1.606   3.456   1.377 -0.6519 -0.6896  0.6491
  269SOL     OW  841   2.601   1.648   0.983  0.4352 -0.2943 -0.2059
  269SOL    HW2  842   2.523   1.607   0.947  0.3676  0.3705 -0.8656
  269SOL    HW3  843   2.586   1.742   0.971  1.3050 -0.1555 -0.2899
  269SOL    MW4  844   2.589   1.655   0.976  0.5410 -0.1882 -0.3040
  270SOL     OW  845   4.720   4.543   1.602 -0.1136 -0.1089 -0.4310
  270SOL    HW2  846   4.801   4.511   1.643  0.7041  1.2577 -0.9159
  270SOL    HW3  847   4.700   4.478   1.536  2.5884  1.1691 -2.7223
  270SOL    MW4  848   4.728   4.530   1.599  0.3508  0.2400 -0.7973
  271SOL     OW  849   5.895   3.736   0.103 -0.2849 -0.7054 -0.0142
  271SOL    HW2  850   5.977   3.732   0.054  0.5239 -0.7218  1.3044
  271SOL    HW3  851   5.903   3.667   0.169 -1.1832 -0.4246  0.4044
  271SOL    MW4  852   5.907   3.726   0.105 -0.2967 -0.6705  0.2150
  272SOL     OW  853   2.811   0.680   0.490 -0.7825  0.3611 -0.0850
  272SOL    HW2  854   2.758   0.759   0.485  1.3473  1.9115  0.5334
  272SOL    HW3  855   2.902   0.711   0.482  0.0773 -2.1375 -0.9274
  272SOL    MW4  856   2.816   0.694   0.489 -0.3881  0.2360 -0.1146
  273SOL     OW  857   2.498   0.535   2.824 -0.0630 -0.1242  0.4228
  273SOL    HW2  858   2.472   0.607   2.881 -0.3935 -1.5313  2.1367
  273SOL    HW3  859   2.563   0.486   2.875  0.8232 -0.5626 -1.0480
  273SOL    MW4  860   2.503   0.538   2.838  0.0103 -0.3677  0.4549
  274SOL     OW  861   4.476   3.041   4.609  0.2274 -0.0076 -0.0924
  274SOL    HW2  862   4.514   3.107   4.551  1.2452 -0.3456  0.1594
  274SOL    HW3  863   4.411   3.088   4.661  1.3855  0.9561  0.5257
  274SOL    MW4  864   4.473   3.056   4.608  0.5145  0.0749  0.0224
  275SOL     OW  865   2.002   4.416   2.778  0.6560 -0.1118 -0.0801
  275SOL    HW2  866   2.011   4.442   2.686 -2.1945 -0.4722 -0.5678
  275SOL    HW3  867   2.077   4.359   2.795  1.7318  0.6873 -1.9014
  275SOL    MW4  868   2.013   4.412   2.768  0.4219 -0.0539 -0.3847
  276SOL     OW  869   3.201   4.523   2.266  0.1254 -0.1548 -0.0405
  276SOL    HW2  870   3.215   4.585   2.337  1.9453  2.8898 -2.7794
  276SOL    HW3  871   3.106   4.525   2.251  0.0174  1.0964  0.6880
  276SOL    MW4  872   3.190   4.532   2.273  0.3513  0.4120 -0.3058
  277SOL     OW  873   0.844   4.112   3.261  0.0217 -0.4510 -0.1970
  277SOL    HW2  874   0.932   4.147   3.278 -0.4646  1.1135 -0.6865
  277SOL    HW3  875   0.807   4.173   3.197 -1.8092 -0.4721  0.7971
  277SOL    MW4  876   0.851   4.125   3.255 -0.2841 -0.2474 -0.1304
  278SOL     OW  877   3.115   3.941   2.032  0.0111  0.4938  0.1686
  278SOL    HW2  878   3.125   3.853   1.995 -0.1096 -0.3449  1.9776
  278SOL    HW3  879   3.094   3.997   1.958  2.4129 -0.5550 -1.4261
  278SOL    MW4  880   3.113   3.937   2.018  0.3120  0.2447  0.1969
  279SOL     OW  881   4.978   3.796   5.700 -0.3968 -0.4618  0.2370
  279SOL    HW2  882   4.923   3.731   5.656 -1.2555  0.1226  0.4343
  279SOL    HW3  883   4.972   3.774   5.793 -1.1514  0.2412  0.3600
  279SOL    MW4  884   4.970   3.785   5.706 -0.6097 -0.2919  0.2792
  280SOL     OW  885   5.036   6.133   1.505  0.1968  0.2018 -0.4864
  280SOL    HW2  886   4.983   6.213   1.496  1.5437  1.1810 -0.0511
  280SOL    HW3  887   4.995   6.085   1.577 -1.0985  0.0812 -1.2598
  280SOL    MW4  888   5.023   6.137   1.513  0.2036  0.3151 -0.5310
  281SOL     OW  889   0.936   0.438   4.599 -0.2030  0.1879 -0.4431
  281SOL    HW2  890   0.845   0.460   4.618 -0.1572 -1.1491  1.7322
  281SOL    HW3  891   0.933   0.349   4.566  0.3575 -0.2629  0.6552
  281SOL    MW4  892   0.924   0.429   4.597 -0.1230 -0.0480 -0.0112
  282SOL     OW  893   4.384   0.587   2.144  0.1596  0.1778 -0.1945
  282SOL    HW2  894   4.433   0.669   2.151 -1.3365  1.2176 -1.4609
  282SOL    HW3  895   4.295   0.609   2.171  0.2738 -1.7053  2.1290
  282SOL    MW4  896   4.379   0.600   2.149 -0.0227  0.0666 -0.0550
  283SOL     OW  897   0.416   0.210   0.054  0.3751  0.3392  0.5984
  283SOL    HW2  898   0.322   0.197   0.064  0.1587  0.2403 -1.1783
  283SOL    HW3  899   0.455   0.132   0.093 -0.4712 -1.2045 -1.4678
  283SOL    MW4  900   0.409   0.198   0.060  0.2349  0.1225  0.0914
  284SOL     OW  901   4.781   2.018   4.273  0.2026  0.5229 -0.2306
  284SOL    HW2  902   4.854   2.079   4.281  0.8762 -0.3431  0.4980
  284SOL    HW3  903   4.814   1.948   4.216 -0.0744  0.1561  0.0549
  284SOL    MW4  904   4.795   2.016   4.267  0.2549  0.3603 -0.0968
  285SOL     OW  905   3.022   2.798   3.529 -0.2738 -0.1168  0.1543
  285SOL    HW2  906   3.087   2.760   3.471 -0.1071  2.6476 -1.6222
  285SOL    HW3  907   2.938   2.775   3.489 -0.2195  0.1362 -0.1103
  285SOL    MW4  908   3.019   2.790   3.516 -0.2447  0.2813 -0.1150
  286SOL     OW  909   4.212   2.639   5.312  0.3591  0.6281  0.3192
  286SOL    HW2  910   4.187   2.547   5.304 -0.4050  0.7955  0.6539
  286SOL    HW3  911   4.294   2.646   5.264 -0.4183  0.1190 -1.1778
  286SOL    MW4  912   4.219   2.628   5.304  0.1557  0.5830  0.1659
  287SOL     OW  913   0.198   0.069   4.254 -0.0499  0.0193 -0.5576
  287SOL    HW2  914   0.220   0.015   4.330  1.2638  0.8218 -0.3279
  287SOL    HW3  915   0.191   0.006   4.181 -0.6227 -0.6741  0.0826
  287SOL    MW4  916   0.200   0.054   4.254  0.0479  0.0337 -0.4428
  288SOL     OW  917   0.258   1.400   3.487 -0.0506  0.3612 -0.0447
  288SOL    HW2  918   0.197   1.438   3.550  0.9551 -0.4229  1.4665
  288SOL    HW3  919   0.216   1.320   3.456 -0.8830  1.1404 -0.9973
  288SOL    MW4  920   0.245   1.395   3.491 -0.0277  0.3606  0.0290
  289SOL     OW  921   1.839   2.962   1.734 -0.1625 -0.0011 -0.2078
  289SOL    HW2  922   1.848   2.896   1.802  0.3239 -0.7540 -0.9925
  289SOL    HW3  923   1.845   2.914   1.652  2.4077  1.2124 -0.8513
  289SOL    MW4  924   1.841   2.947   1.732  0.2407  0.0596 -0.3962
  290SOL     OW  925   0.730   5.186   4.922  0.3238  0.0655  0.2377
  290SOL    HW2  926   0.729   5.155   5.012  0.5960 -0.1391  0.1739
  290SOL    HW3  927   0.766   5.275   4.927  0.4779 -0.0001  0.3170
  290SOL    MW4  928   0.735   5.194   4.934  0.3800  0.0299  0.2397
  291SOL     OW  929   5.645   1.968   4.940  0.4026  0.3965 -0.7982
  291SOL    HW2  930   5.665   1.928   5.024  1.4146  2.4343 -0.0132
  291SOL    HW3  931   5.721   2.022   4.920 -0.5783  1.3612 -2.1454
  291SOL    MW4  932   5.657   1.970   4.948  0.4067  0.7926 -0.8724
  292SOL     OW  933   3.028   2.801   2.644  0.1157  0.5450 -0.0017
  292SOL    HW2  934   3.112   2.757   2.655 -0.0426  0.0771 -0.6190
  292SOL    HW3  935   3.026   2.828   2.552 -0.6139  0.1195 -0.1164
  292SOL    MW4  936   3.039   2.799   2.634 -0.0015  0.4271 -0.0983
  293SOL     OW  937   5.811   1.810   0.258 -0.4383 -0.5061 -0.6670
  293SOL    HW2  938   5.845   1.748   0.193 -1.1380 -0.5342 -1.0231
  293SOL    HW3  939   5.719   1.822   0.233 -0.5088  0.0906 -0.1461
  293SOL    MW4  940   5.803   1.804   0.246 -0.5399 -0.4311 -0.6452
  294SOL     OW  941   2.170   5.041   2.845 -0.0539 -0.4066  0.0411
  294SOL    HW2  942   2.117   5.021   2.922  1.2943 -1.2710  0.7838
  294SOL    HW3  943   2.210   4.957   2.821 -1.6604 -0.5490 -2.6071
  294SOL    MW4  944   2.169   5.027   2.852 -0.0880 -0.5394 -0.2103
  295SOL     OW  945   2.226   2.920   3.444 -0.1474 -0.2418  0.1688
  295SOL    HW2  946   2.245   2.998   3.496 -2.8939  0.7710 -0.1754
  295SOL    HW3  947   2.243   2.947   3.353 -0.0581 -0.4004  0.1378
  295SOL    MW4  948   2.230   2.934   3.439 -0.4980 -0.1291  0.1193
  296SOL     OW  949   6.308   1.517   2.565  0.6219  0.8368  0.1319
  296SOL    HW2  950   6.345   1.604   2.575 -0.0844  1.0516  0.9730
  296SOL    HW3  951   6.219   1.532   2.532  0.4302  0.4480  0.4600
  296SOL    MW4  952   6.301   1.530   2.562  0.5034  0.8138  0.2862
  297SOL     OW  953   2.586   1.171   2.278  0.2144  0.6534  0.0893
  297SOL    HW2  954   2.575   1.084   2.240 -0.0445  0.6902  0.0734
  297SOL    HW3  955   2.603   1.228   2.203  2.0790  0.3646  0.2434
  297SOL    MW4  956   2.586   1.167   2.263  0.4262  0.6202  0.1075
  298SOL     OW  957   5.630   0.351   5.942 -0.2279 -0.1513 -0.3502
  298SOL    HW2  958   5.683   0.391   5.873  0.4661 -0.1370  0.1879
  298SOL    HW3  959   5.598   0.425   5.993 -2.9550  0.0932 -2.1490
  298SOL    MW4  960   5.633   0.366   5.939 -0.4962 -0.1172 -0.5165
  299SOL     OW  961   5.913   0.055   4.908 -0.0181 -0.1085  0.2652
  299SOL    HW2  962   5.852  -0.018   4.900  0.8122 -0.7125 -0.7512
  299SOL    HW3  963   5.922   0.069   5.003 -1.2588 -0.3852  0.4412
  299SOL    MW4  964   5.906   0.047   4.920 -0.0722 -0.2247  0.1543
  300SOL     OW  965   1.626   2.483   4.778  0.9432 -0.3355  0.2103
  300SOL    HW2  966   1.666   2.567   4.757 -0.2023  0.0176 -0.6474
  300SOL    HW3  967   1.627   2.434   4.696 -1.2709  0.0815 -0.1118
  300SOL    MW4  968   1.632   2.487   4.765  0.5000 -0.2339  0.0547
  301SOL     OW  969   3.747   2.357   0.495  0.4433 -0.4179  0.3785
  301SOL    HW2  970   3.831   2.389   0.461 -0.2592 -0.1183 -1.1735
  301SOL    HW3  971   3.681   2.406   0.446 -0.6491 -0.9910  1.2310
  301SOL    MW4  972   3.749   2.368   0.484  0.2065 -0.4540  0.2862
  302SOL     OW  973   0.505   5.713   4.394  0.4078  0.1048  0.7614
  302SOL    HW2  974   0.434   5.660   4.432  0.6280 -0.6663  0.1469
  302SOL    HW3  975   0.546   5.654   4.331  0.4927  1.1130 -0.1525
  302SOL    MW4  976   0.501   5.698   4.390  0.4481  0.1360  0.5598
  303SOL     OW  977   5.867   0.323   4.458 -0.1442  0.0141  0.4131
  303SOL    HW2  978   5.775   0.350   4.454  0.1332  0.7833 -1.2485
  303SOL    HW3  979   5.908   0.388   4.515 -0.7811 -0.9353  2.0503
  303SOL    MW4  980   5.860   0.335   4.465 -0.1917 -0.0097  0.4099
  304SOL     OW  981   1.734   2.523   1.393 -0.5105  0.7848  0.4221
  304SOL    HW2  982   1.649   2.520   1.349 -0.0344 -0.3459 -0.4550
  304SOL    HW3  983   1.770   2.609   1.370 -0.4516  0.3785 -1.0534
  304SOL    MW4  984   1.727   2.534   1.384 -0.4399  0.5820  0.1117
  305SOL     OW  985   0.099   1.528   3.704 -0.1002 -0.2400  0.1356
  305SOL    HW2  986   0.174   1.574   3.740  0.5606  0.3296 -1.8090
  305SOL    HW3  987   0.092   1.447   3.755  0.9564  0.3503  1.2493
  305SOL    MW4  988   0.108   1.523   3.715  0.1264 -0.0870  0.0259
  306SOL     OW  989   0.306   0.633   5.509 -0.0925 -0.3624 -0.4627
  306SOL    HW2  990   0.282   0.705   5.450  0.1715 -0.5329 -0.7840
  306SOL    HW3  991   0.309   0.556   5.453  0.3574 -0.4925 -0.2655
  306SOL    MW4  992   0.304   0.633   5.494  0.0017 -0.4020 -0.4791
  307SOL     OW  993   0.512   2.972   0.251 -0.1340  0.1926 -0.1555
  307SOL    HW2  994   0.432   2.946   0.206  0.9901  0.0985 -2.2174
  307SOL    HW3  995   0.502   3.066   0.265 -0.0084  0.4798 -1.8013
  307SOL    MW4  996   0.500   2.981   0.247  0.0309  0.2181 -0.6447
  308SOL     OW  997   1.520   4.789   0.367  0.3941  0.6398  0.1937
  308SOL    HW2  998   1.577   4.720   0.402 -1.2050 -1.2533 -0.7247
  308SOL    HW3  999   1.440   4.783   0.419 -1.2716 -0.9298 -2.3123
  308SOL    MW4 1000   1.517   4.779   0.378 -0.0366  0.1829 -0.2581
  309SOL     OW 1001   4.324   0.222   3.815  0.4402  0.2833 -0.0520
  309SOL    HW2 1002   4.339   0.184   3.902  1.3713 -0.2206 -0.4156
  309SOL    HW3 1003   4.342   0.151   3.754  0.6272  0.8598 -0.6838
  309SOL    MW4 1004   4.328   0.208   3.819  0.5877  0.2929 -0.1833
  310SOL     OW 1005   5.289   4.734   3.208 -0.1865  0.2887 -0.0445
  310SOL    HW2 1006   5.291   4.825   3.176  0.3081  0.9876  1.8442
  310SOL    HW3 1007   5.218   4.733   3.272 -0.2750 -0.7144 -0.1436
  310SOL    MW4 1008   5.279   4.746   3.212 -0.1329  0.2485  0.1916
  311SOL     OW 1009   3.526   0.802   5.138  0.2109  0.0659 -0.6428
  311SOL    HW2 1010   3.450   0.829   5.190 -1.6810 -1.5029 -2.3917
  311SOL    HW3 1011   3.601   0.814   5.196 -1.4927  0.6358  1.5777
  311SOL    MW4 1012   3.526   0.807   5.153 -0.2635 -0.0659 -0.5806
  312SOL     OW 1013   2.380   1.587   2.272  0.8014 -0.7858 -0.2458
  312SOL    HW2 1014   2.395   1.674   2.309  1.6349 -0.1210 -2.0314
  312SOL    HW3 1015   2.422   1.528   2.335  1.0376  0.1658  0.5303
  312SOL    MW4 1016   2.388   1.591   2.285  0.9425 -0.5725 -0.3790
  313SOL     OW 1017   5.561   0.412   1.027 -0.1143 -0.6311  0.0652
  313SOL    HW2 1018   5.471   0.387   1.049  0.1273 -0.4088  1.3770
  313SOL    HW3 1019   5.604   0.329   1.003 -0.9415 -0.5904 -1.6425
  313SOL    MW4 1020   5.555   0.398   1.027 -0.1916 -0.5964  0.0130
  314SOL     OW 1021   6.061   4.269   5.871  0.1931 -0.1763  0.5765
  314SOL    HW2 1022   5.971   4.283   5.843 -0.1496 -1.0965  1.1716
  314SOL    HW3 1023   6.060   4.284   5.965  0.8746  0.7515  0.4444
  314SOL    MW4 1024   6.049   4.273   5.880  0.2378 -0.1753  0.6376
  315SOL     OW 1025   2.237   2.377   1.637 -0.1900 -0.5863  0.3323
  315SOL    HW2 1026   2.291   2.379   1.716  0.6478  2.5654 -0.1739
  315SOL    HW3 1027   2.301   2.371   1.565 -0.7967 -0.9973 -0.1857
  315SOL    MW4 1028   2.253   2.377   1.638 -0.1595 -0.2247  0.1972
  316SOL     OW 1029   2.815   5.163   0.839 -0.1825  0.2279  0.1458
  316SOL    HW2 1030   2.761   5.241   0.831  1.6073  1.7002  1.4897
  316SOL    HW3 1031   2.874   5.167   0.763 -0.1741  0.1079  0.1453
  316SOL    MW4 1032   2.816   5.173   0.828  0.0548  0.4064  0.3230
  317SOL     OW 1033   4.790   1.693   4.809 -0.1029  0.1450  0.5643
  317SOL    HW2 1034   4.751   1.780   4.820 -2.3300 -0.9838  2.7316
  317SOL    HW3 1035   4.801   1.661   4.899  0.7851 -1.7664 -0.1706
  317SOL    MW4 1036   4.786   1.700   4.823 -0.2796 -0.2561  0.7533
  318SOL     OW 1037   1.078   3.293   5.043  0.2144  0.2170 -0.1339
  318SOL    HW2 1038   1.099   3.319   4.954  0.1778 -1.1125 -0.5470
  318SOL    HW3 1039   1.161   3.298   5.091  0.3391  0.4005 -0.3704
  318SOL    MW4 1040   1.091   3.297   5.038  0.2260  0.0658 -0.2196
  319SOL     OW 1041   4.552   5.885   4.771 -0.0093  0.1210  0.2581
  319SOL    HW2 1042   4.467   5.842   4.764  0.5533 -1.5325  2.4491
  319SOL    HW3 1043   4.609   5.838   4.711 -0.3511  0.4686 -0.3414
  319SOL    MW4 1044   4.549   5.873   4.762  0.0198 -0.0513  0.4681
  320SOL     OW 1045   5.891   4.310   1.583  0.2435 -0.1033 -0.5829
  320SOL    HW2 1046   5.809   4.307   1.631  0.1057 -0.4283 -0.8384
  320SOL    HW3 1047   5.959   4.305   1.651  0.0549  0.2983 -0.3654
  320SOL    MW4 1048   5.889   4.309   1.598  0.2004 -0.0932 -0.5879
  321SOL     OW 1049   3.664   5.943   1.849 -0.6981 -0.3276  0.1228
  321SOL    HW2 1050   3.702   5.953   1.762  1.0328 -0.7366  0.7677
  321SOL    HW3 1051   3.653   6.032   1.882  0.9827 -0.1861  0.3918
  321SOL    MW4 1052   3.668   5.956   1.842 -0.2480 -0.3629  0.2434
  322SOL     OW 1053   1.395   1.295   6.198  0.2002  0.1732 -0.8452
  322SOL    HW2 1054   1.472   1.265   6.150  0.9079  0.7533 -0.1200
  322SOL    HW3 1055   1.347   1.349   6.135  1.1057  0.9136 -0.9310
  322SOL    MW4 1056   1.399   1.298   6.184  0.4130  0.3474 -0.7608
  323SOL     OW 1057   3.776   5.517   2.050  0.0192 -0.6547 -0.3491
  323SOL    HW2 1058   3.726   5.477   1.979  1.7760 -2.0396 -0.8760
  323SOL    HW3 1059   3.867   5.508   2.022  0.6277  0.7494  1.0993
  323SOL    MW4 1060   3.781   5.510   2.037  0.3312 -0.6522 -0.2276
  324SOL     OW 1061   0.071   1.570   2.879 -0.4652 -0.1151  0.0705
  324SOL    HW2 1062   0.161   1.601   2.891 -0.7373  1.2879 -1.2178
  324SOL    HW3 1063   0.045   1.604   2.793 -1.9620 -1.1730  0.0633
  324SOL    MW4 1064   0.080   1.578   2.869 -0.6986 -0.0695 -0.1004
  325SOL     OW 1065   3.953   6.379   5.507 -0.0762 -0.0903  0.1421
  325SOL    HW2 1066   3.978   6.366   5.598 -1.5564 -0.1812  0.5533
  325SOL    HW3 1067   3.859   6.364   5.505 -0.0303 -0.3453 -1.4561
  325SOL    MW4 1068   3.944   6.375   5.519 -0.2654 -0.1359 -0.0145
  326SOL     OW 1069   4.727   4.410   0.258 -0.2835  0.4543 -0.2341
  326SOL    HW2 1070   4.784   4.483   0.277 -0.8279  1.2331 -1.4822
  326SOL    HW3 1071   4.658   4.446   0.203 -1.0805 -0.8000 -0.1185
  326SOL    MW4 1072   4.725   4.424   0.253 -0.4605  0.3916 -0.3835
  327SOL     OW 1073   5.940   1.562   3.651 -0.4778 -0.7349 -0.0832
  327SOL    HW2 1074   5.938   1.618   3.729  0.8899 -0.8651  0.0668
  327SOL    HW3 1075   6.018   1.509   3.662 -0.0505 -0.4999 -1.7362
  327SOL    MW4 1076   5.950   1.563   3.663 -0.2410 -0.7211 -0.2815
  328SOL     OW 1077   2.370   2.921   3.196 -0.0775 -0.1798 -0.2936
  328SOL    HW2 1078   2.341   2.846   3.145 -0.6583  0.6576 -1.2329
  328SOL    HW3 1079   2.396   2.986   3.131  0.5084  0.4118  0.5012
  328SOL    MW4 1080   2.370   2.920   3.181 -0.0768  0.0087 -0.3126
  329SOL     OW 1081   3.440   3.906   3.447 -0.9388 -0.7488 -0.3666
  329SOL    HW2 1082   3.364   3.849   3.447 -1.3210 -0.2367 -0.0293
  329SOL    HW3 1083   3.513   3.848   3.468 -1.3649 -1.0528  0.2842
  329SOL    MW4 1084   3.440   3.891   3.450 -1.0454 -0.7213 -0.2363
  330SOL     OW 1085   3.952   5.367   2.435  0.6988  0.4630  0.1972
  330SOL    HW2 1086   3.876   5.359   2.377  1.9000 -2.2360 -1.1701
  330SOL    HW3 1087   4.008   5.432   2.392  0.5196  0.2207 -0.4094
  330SOL    MW4 1088   3.949   5.375   2.422  0.8336  0.0750 -0.0633
  331SOL     OW 1089   5.196   6.426   0.479  0.0448 -0.4001  0.4154
  331SOL    HW2 1090   5.209   6.512   0.440  1.0945 -0.6001  0.2764
  331SOL    HW3 1091   5.112   6.432   0.524 -1.2270 -0.1378 -1.8118
  331SOL    MW4 1092   5.187   6.438   0.479  0.0155 -0.3919  0.1032
  332SOL     OW 1093   6.106   5.055   2.270 -0.0617  0.1848 -0.1258
  332SOL    HW2 1094   6.147   4.969   2.263 -0.0413  0.2013 -0.2154
  332SOL    HW3 1095   6.027   5.048   2.216  0.8859  0.7887 -1.6740
  332SOL    MW4 1096   6.101   5.043   2.262  0.0660  0.2666 -0.3419
  333SOL     OW 1097   4.998   5.597   2.740  0.2105  0.2692  0.8105
  333SOL    HW2 1098   5.027   5.688   2.731  0.1355  0.1543 -0.7908
  333SOL    HW3 1099   4.914   5.594   2.693  1.2702 -1.1149 -1.1058
  333SOL    MW4 1100   4.991   5.609   2.733  0.3404  0.0714  0.3464
  334SOL     OW 1101   3.594   2.141   2.055 -0.2246  0.1499 -0.1154
  334SOL    HW2 1102   3.616   2.088   1.979 -0.1130 -0.3810  0.2802
  334SOL    HW3 1103   3.645   2.102   2.127 -1.3468 -0.1942  0.5132
  334SOL    MW4 1104   3.604   2.129   2.055 -0.3579  0.0345  0.0198
  335SOL     OW 1105   3.222   2.960   5.266  0.0585 -0.5639 -0.0922
  335SOL    HW2 1106   3.299   2.917   5.230 -0.0859 -1.5475  0.7227
  335SOL    HW3 1107   3.249   2.992   5.352  0.3161  1.5012 -0.8794
  335SOL    MW4 1108   3.236   2.959   5.273  0.0734 -0.4212 -0.0885
  336SOL     OW 1109   5.389   4.281   3.196  0.0185 -0.0795  0.0320
  336SOL    HW2 1110   5.469   4.237   3.166  0.2792  1.1922 -1.2164
  336SOL    HW3 1111   5.361   4.230   3.273  2.0201 -0.5381  0.5007
  336SOL    MW4 1112   5.396   4.268   3.202  0.3170  0.0278 -0.0709
  337SOL     OW 1113   5.884   0.699   4.302  0.5511 -0.0930 -0.6376
  337SOL    HW2 1114   5.791   0.677   4.293  0.7349 -0.3371 -2.3017
  337SOL    HW3 1115   5.886   0.794   4.295  0.5380 -0.1778 -2.2424
  337SOL    MW4 1116   5.872   0.708   4.300  0.5736 -0.1364 -1.0689
  338SOL     OW 1117   6.218   5.890   1.862 -0.4527  0.1271 -0.2597
  338SOL    HW2 1118   6.264   5.963   1.820 -1.2792  0.6020 -0.3736
  338SOL    HW3 1119   6.286   5.826   1.882  0.0692  0.2301 -1.6291
  338SOL    MW4 1120   6.233   5.891   1.859 -0.4929  0.2034 -0.4554
  339SOL     OW 1121   1.905   3.452   6.094 -0.2618  0.4608  0.0853
  339SOL    HW2 1122   1.911   3.389   6.166 -1.2035 -0.7382 -0.8500
  339SOL    HW3 1123   1.990   3.445   6.049 -0.0907  0.3968  0.4166
  339SOL    MW4 1124   1.917   3.443   6.097 -0.3635  0.2942  0.0056
  340SOL     OW 1125   3.070   4.943   3.575 -0.0698  0.1032 -0.1878
  340SOL    HW2 1126   3.089   4.893   3.495  0.4995  0.4583 -0.2839
  340SOL    HW3 1127   2.976   4.957   3.573 -0.0885 -0.0684 -0.7014
  340SOL    MW4 1128   3.060   4.938   3.564  0.0028  0.1274 -0.2682
  341SOL     OW 1129   5.287   4.530   5.629 -0.2218  0.0601  0.4353
  341SOL    HW2 1130   5.283   4.459   5.564 -1.1727  0.0770  0.4610
  341SOL    HW3 1131   5.305   4.486   5.712 -0.6909 -0.1450  0.4314
  341SOL    MW4 1132   5.289   4.514   5.631 -0.4091  0.0352  0.4382
  342SOL     OW 1133   2.014   6.285   2.463 -0.2754  0.0793 -0.3613
  342SOL    HW2 1134   2.003   6.190   2.455 -2.5566  0.2742 -0.1779
  342SOL    HW3 1135   2.028   6.300   2.557  0.1269 -0.0607 -0.3961
  342SOL    MW4 1136   2.014   6.275   2.475 -0.5233  0.0865 -0.3417
  343SOL     OW 1137   6.281   1.841   5.740  0.7251  0.4701  0.0530
  343SOL    HW2 1138   6.229   1.762   5.756  2.4054 -0.8063 -0.4545
  343SOL    HW3 1139   6.231   1.889   5.674  0.0654 -0.5921 -0.2495
  343SOL    MW4 1140   6.267   1.837   5.733  0.8598  0.1615 -0.0539
  344SOL     OW 1141   5.828   1.982   1.894 -0.1364 -0.7562  0.1633
  344SOL    HW2 1142   5.805   1.956   1.805 -1.7270  0.6858  0.1194
  344SOL    HW3 1143   5.888   2.056   1.883  0.8270 -1.4840  0.3206
  344SOL    MW4 1144   5.833   1.988   1.881 -0.2191 -0.6620  0.1783
  345SOL     OW 1145   6.049   5.735   1.692 -0.2594  0.1175 -0.0410
  345SOL    HW2 1146   6.113   5.791   1.738  0.1954  0.9272 -1.6022
  345SOL    HW3 1147   5.999   5.796   1.638 -1.2788 -0.7348 -0.0771
  345SOL    MW4 1148   6.051   5.751   1.691 -0.3339  0.1119 -0.2518
  346SOL     OW 1149   4.279   1.805   1.750  0.5548 -0.0595 -0.7968
  346SOL    HW2 1150   4.286   1.894   1.787 -0.4932 -0.4266  0.3662
  346SOL    HW3 1151   4.240   1.818   1.664 -2.2028  0.4803  0.4179
  346SOL    MW4 1152   4.274   1.819   1.744  0.0527 -0.0367 -0.4831
  347SOL     OW 1153   2.146   6.216   5.857 -1.0281  0.2734  0.3699
  347SOL    HW2 1154   2.140   6.268   5.936 -1.2172  0.1820  0.4148
  347SOL    HW3 1155   2.191   6.273   5.794  0.3479 -0.1225  0.9468
  347SOL    MW4 1156   2.151   6.230   5.859 -0.8715  0.2091  0.4519
  348SOL     OW 1157   3.611   1.861   4.612 -0.0901  0.1147  0.2045
  348SOL    HW2 1158   3.682   1.884   4.672  0.6534  0.1690 -0.6679
  348SOL    HW3 1159   3.638   1.898   4.528 -2.0149  1.7074  0.2285
  348SOL    MW4 1160   3.624   1.869   4.609 -0.2460  0.3320  0.0926
  349SOL     OW 1161   5.164   6.322   2.878  0.2674 -0.5922  0.3430
  349SOL    HW2 1162   5.164   6.359   2.966 -1.5148 -2.2090  1.0970
  349SOL    HW3 1163   5.244   6.270   2.873  1.1299  0.6965  0.4371
  349SOL    MW4 1164   5.174   6.320   2.889  0.1460 -0.6355  0.4549
  350SOL     OW 1165   5.613   2.545   1.733  0.4233  0.2678  0.1431
  350SOL    HW2 1166   5.652   2.458   1.729 -0.4010 -0.1416  0.6025
  350SOL    HW3 1167   5.519   2.529   1.725  0.2637  1.1168  0.2199
  350SOL    MW4 1168   5.606   2.531   1.731  0.2935  0.3258  0.2138
  351SOL     OW 1169   2.444   5.924   0.748  0.2522  0.4100  0.1700
  351SOL    HW2 1170   2.457   5.830   0.763  1.1361  0.1822 -1.7797
  351SOL    HW3 1171   2.527   5.955   0.713 -0.0508  1.9331  0.7273
  351SOL    MW4 1172   2.457   5.915   0.746  0.3289  0.5809 -0.0137
  352SOL     OW 1173   1.937   6.074   2.000  0.4820 -0.7266  0.8808
  352SOL    HW2 1174   1.984   6.156   2.014  0.6834 -0.8134  0.7143
  352SOL    HW3 1175   1.973   6.038   1.918 -0.7341 -0.1832  0.0638
  352SOL    MW4 1176   1.948   6.080   1.991  0.3481 -0.6664  0.7511
  353SOL     OW 1177   2.362   1.849   2.417 -0.3311 -0.0940 -0.3404
  353SOL    HW2 1178   2.317   1.838   2.501  1.8909  0.8260  1.0496
  353SOL    HW3 1179   2.304   1.906   2.366 -1.0785  0.4772  1.0962
  353SOL    MW4 1180   2.348   1.855   2.421 -0.1366  0.1027  0.0326
  354SOL     OW 1181   2.984   0.628   5.580 -0.2236  0.3163 -0.1240
  354SOL    HW2 1182   2.928   0.699   5.550  1.2529  1.0249 -1.3533
  354SOL    HW3 1183   2.980   0.632   5.676 -1.4778  0.9480 -0.1874
  354SOL    MW4 1184   2.976   0.638   5.589 -0.1943  0.4931 -0.2946
  355SOL     OW 1185   4.992   1.264   5.224  0.0999  0.1660 -0.1896
  355SOL    HW2 1186   5.027   1.176   5.239  0.0637  0.0746 -0.6130
  355SOL    HW3 1187   4.978   1.300   5.311 -2.7764 -1.3886  0.1116
  355SOL    MW4 1188   4.995   1.257   5.237 -0.2844 -0.0512 -0.2057
  356SOL     OW 1189   5.591   6.143   1.617  0.0719 -0.2561  0.1116
  356SOL    HW2 1190   5.498   6.130   1.598 -0.5108  1.0405  1.8224
  356SOL    HW3 1191   5.632   6.059   1.595 -1.9339 -1.7931  1.8346
  356SOL    MW4 1192   5.584   6.130   1.611 -0.2696 -0.2878  0.5646
  357SOL     OW 1193   2.977   6.371   4.475 -0.4006  0.6103  0.4548
  357SOL    HW2 1194   3.022   6.422   4.543  1.5709  0.0928 -0.4023
  357SOL    HW3 1195   3.028   6.291   4.468 -0.4787  0.7005 -1.7081
  357SOL    MW4 1196   2.990   6.368   4.483 -0.1508  0.5539  0.0564
  358SOL     OW 1197   3.472   4.169   4.633 -0.5994  0.2146 -0.1071
  358SOL    HW2 1198   3.388   4.155   4.677 -0.8500  2.5492  0.2793
  358SOL    HW3 1199   3.453   4.149   4.541 -1.9030  1.5974 -0.1972
  358SOL    MW4 1200   3.458   4.165   4.627 -0.8045  0.7050 -0.0680
  359SOL     OW 1201   5.009   6.097   3.704 -0.7945 -0.3942  0.0410
  359SOL    HW2 1202   4.968   6.042   3.638  1.4045 -0.0605 -1.7466
  359SOL    HW3 1203   5.062   6.159   3.653  0.8013  0.0410  2.1088
  359SOL    MW4 1204   5.011   6.098   3.688 -0.2938 -0.2927  0.0780
  360SOL     OW 1205   0.465   1.273   5.310 -0.7093  0.0275 -0.4511
  360SOL    HW2 1206   0.558   1.259   5.327 -0.9441  0.6662  1.6361
  360SOL    HW3 1207   0.428   1.185   5.308 -0.2533 -0.1844  0.0449
  360SOL    MW4 1208   0.472   1.259   5.312 -0.6801  0.0838 -0.1103
  361SOL     OW 1209   3.443   5.502   4.993  0.0683 -0.1128  0.2863
  361SOL    HW2 1210   3.382   5.429   5.000 -1.0817  0.7713 -0.3309
  361SOL    HW3 1211   3.429   5.537   4.905  1.2510  0.2972  0.2424
  361SOL    MW4 1212   3.433   5.497   4.982  0.0726  0.0580  0.1991
  362SOL     OW 1213   0.345   1.745   6.321  0.7977  0.0956  0.0228
  362SOL    HW2 1214   0.322   1.729   6.230  0.3022  0.7926  0.0206
  362SOL    HW3 1215   0.409   1.816   6.317 -1.0622  1.8840  0.3383
  362SOL    MW4 1216   0.351   1.753   6.309  0.4870  0.4235  0.0641
  363SOL     OW 1217   3.316   6.416   6.118 -0.4095  0.0302  0.2371
  363SOL    HW2 1218   3.323   6.337   6.064 -0.2449 -0.8519  1.5028
  363SOL    HW3 1219   3.234   6.406   6.165 -0.7857  1.0180 -0.1797
  363SOL    MW4 1220   3.306   6.404   6.117 -0.4375  0.0441  0.3491
  364SOL     OW 1221   4.787   0.926   2.685 -0.0912  0.0819  0.2961
  364SOL    HW2 1222   4.779   0.884   2.771 -1.6148  1.4350  0.8651
  364SOL    HW3 1223   4.777   1.020   2.704 -0.4351  0.4026 -1.3614
  364SOL    MW4 1224   4.785   0.933   2.699 -0.3376  0.3027  0.1525
  365SOL     OW 1225   3.690   5.680   2.576 -0.1705 -0.3017 -0.2626
  365SOL    HW2 1226   3.618   5.618   2.587 -2.3055  2.2492  1.5689
  365SOL    HW3 1227   3.742   5.671   2.656 -0.1892 -0.0993 -0.2270
  365SOL    MW4 1228   3.687   5.671   2.588 -0.4547  0.0616 -0.0163
  366SOL     OW 1229   0.650   2.596   3.578  0.2046 -0.1623 -0.5406
  366SOL    HW2 1230   0.696   2.680   3.572  0.3442  0.0232  2.0212
  366SOL    HW3 1231   0.557   2.620   3.570  0.1737  0.4211  1.2400
  366SOL    MW4 1232   0.644   2.610   3.576  0.2190 -0.0608  0.0323
  367SOL     OW 1233   3.890   1.696   4.199 -0.6882  0.2289 -0.0165
  367SOL    HW2 1234   3.969   1.748   4.181 -1.2831  1.1066 -0.1246
  367SOL    HW3 1235   3.918   1.606   4.183  0.1339  0.5774 -0.6630
  367SOL    MW4 1236   3.904   1.691   4.194 -0.6582  0.3907 -0.1161
  368SOL     OW 1237   2.835   1.758   4.782  0.0516  0.2593 -0.1278
  368SOL    HW2 1238   2.804   1.668   4.792 -1.7067  0.7958 -0.4235
  368SOL    HW3 1239   2.864   1.782   4.870 -1.0161 -0.0712  0.3375
  368SOL    MW4 1240   2.835   1.749   4.795 -0.3212  0.2865 -0.1054
  369SOL     OW 1241   1.848   4.239   1.024 -0.1626  0.0689  0.5527
  369SOL    HW2 1242   1.933   4.278   1.045 -0.5966  1.0884  0.4641
  369SOL    HW3 1243   1.784   4.295   1.069 -0.9503  0.7654 -1.3413
  369SOL    MW4 1244   1.851   4.252   1.033 -0.3238  0.2953  0.2911
  370SOL     OW 1245   3.504   0.993   2.884 -0.0149 -0.0098 -0.1163
  370SOL    HW2 1246   3.572   1.008   2.949  0.1896 -1.3515  0.0097
  370SOL    HW3 1247   3.518   0.903   2.855 -1.9493 -0.4502  0.1662
  370SOL    MW4 1248   3.515   0.983   2.889 -0.2431 -0.2450 -0.0624
  371SOL     OW 1249   4.586   2.415   0.780 -0.3706 -0.0082  0.3606
  371SOL    HW2 1250   4.541   2.499   0.769  0.5427  0.7133  1.8149
  371SOL    HW3 1251   4.657   2.418   0.716 -0.6757  0.0689  0.0184
  371SOL    MW4 1252   4.589   2.427   0.770 -0.2903  0.0971  0.5073
  372SOL     OW 1253   0.733   0.378   3.585  0.1466  0.0869  0.3449
  372SOL    HW2 1254   0.782   0.311   3.538 -0.6585 -1.0768  1.1273
  372SOL    HW3 1255   0.790   0.401   3.659  0.8292  0.9720 -0.4198
  372SOL    MW4 1256   0.747   0.372   3.588  0.1305  0.0501  0.3473
  373SOL     OW 1257   6.009   3.165   1.815  0.0569  0.4213 -0.0979
  373SOL    HW2 1258   5.956   3.085   1.808 -0.7748  1.0312 -1.0884
  373SOL    HW3 1259   5.983   3.203   1.899  0.4683 -0.3368  0.3896
  373SOL    MW4 1260   5.999   3.159   1.826  0.0014  0.4018 -0.1643
  374SOL     OW 1261   1.420   0.862   2.329  0.0140  0.1471 -0.3658
  374SOL    HW2 1262   1.395   0.925   2.262 -1.0301  1.3369  1.0652
  374SOL    HW3 1263   1.428   0.914   2.409  1.9718 -1.0841  0.3116
  374SOL    MW4 1264   1.418   0.877   2.331  0.1345  0.1416 -0.0876
  375SOL     OW 1265   4.686   4.514   3.227 -0.0710  0.7767 -0.2293
  375SOL    HW2 1266   4.619   4.508   3.295  3.2355 -1.0313  3.2772
  375SOL    HW3 1267   4.683   4.606   3.199 -2.1883  1.4000  1.7073
  375SOL    MW4 1268   4.677   4.525   3.232  0.0859  0.6204  0.4888
  376SOL     OW 1269   3.669   0.835   1.523 -0.1176 -0.2659 -0.2386
  376SOL    HW2 1270   3.705   0.752   1.492  0.5678  0.9691 -2.9798
  376SOL    HW3 1271   3.746   0.890   1.540 -0.5847  0.6712 -1.0416
  376SOL    MW4 1272   3.684   0.832   1.521 -0.0888  0.0207 -0.7062
  377SOL     OW 1273   0.641   5.541   0.158 -0.4072  0.1851 -0.1346
  377SOL    HW2 1274   0.586   5.615   0.133  0.4126  0.4929 -1.0755
  377SOL    HW3 1275   0.728   5.578   0.169 -0.0203 -0.6125 -0.4472
  377SOL    MW4 1276   0.645   5.556   0.156 -0.2480  0.1205 -0.3000
  378SOL     OW 1277   0.907   4.262   5.024 -0.1451  0.5371  0.1737
  378SOL    HW2 1278   0.844   4.202   5.064  0.3580 -0.5393 -0.5795
  378SOL    HW3 1279   0.988   4.211   5.020  0.1669  1.0973 -0.9475
  378SOL    MW4 1280   0.910   4.247   5.029 -0.0376  0.4690 -0.0736
  379SOL     OW 1281   5.287   0.434   3.403  0.1212  0.2085 -0.6467
  379SOL    HW2 1282   5.331   0.393   3.477 -2.4993  2.6979  2.5643
  379SOL    HW3 1283   5.351   0.498   3.370  0.5418  0.6727  0.9855
  379SOL    MW4 1284   5.302   0.437   3.408 -0.1690  0.5982 -0.0077
  380SOL     OW 1285   5.227   2.300   0.569  0.7372 -0.1488 -0.0583
  380SOL    HW2 1286   5.161   2.368   0.554  0.8511  0.1376  0.7124
  380SOL    HW3 1287   5.257   2.315   0.659  2.7081  0.4691 -0.7738
  380SOL    MW4 1288   5.222   2.311   0.579  1.0123 -0.0295 -0.0510
  381SOL     OW 1289   4.315   0.155   5.148 -0.0351  0.4074  0.0850
  381SOL    HW2 1290   4.319   0.187   5.058 -0.2220 -0.0353 -0.0863
  381SOL    HW3 1291   4.317   0.234   5.202  0.5912  0.6572 -0.2888
  381SOL    MW4 1292   4.316   0.169   5.144  0.0229  0.3819  0.0131
  382SOL     OW 1293   6.446   5.985   4.105  0.5216 -0.6074 -0.1386
  382SOL    HW2 1294   6.526   6.008   4.059 -0.1237 -0.1489 -1.0713
  382SOL    HW3 1295   6.434   5.891   4.087  0.7694 -0.6418 -0.1202
  382SOL    MW4 1296   6.455   5.975   4.097  0.4691 -0.5514 -0.2592
  383SOL     OW 1297   1.358   3.360   5.133 -0.4453  0.0071  0.2283
  383SOL    HW2 1298   1.390   3.443   5.168  0.4579 -0.3304  0.2363
  383SOL    HW3 1299   1.383   3.361   5.041 -1.0191  0.0217  0.0683
  383SOL    MW4 1300   1.365   3.371   5.126 -0.4019 -0.0355  0.2082
  384SOL     OW 1301   3.296   3.051   2.274 -0.2994 -0.0509  0.1880
  384SOL    HW2 1302   3.347   2.978   2.240 -0.2990 -0.5670  1.2490
  384SOL    HW3 1303   3.309   3.047   2.369  1.6216  2.7564  0.1425
  384SOL    MW4 1304   3.304   3.041   2.282 -0.0459  0.2514  0.3220
  385SOL     OW 1305   5.268   5.399   4.782 -0.3519  0.2201 -0.3101
  385SOL    HW2 1306   5.300   5.424   4.868 -0.3581 -0.2211 -0.1825
  385SOL    HW3 1307   5.228   5.313   4.794  0.4613 -0.2617 -0.9391
  385SOL    MW4 1308   5.267   5.391   4.795 -0.2454  0.0983 -0.3763
  386SOL     OW 1309   4.586   3.350   1.735  0.6640  0.1539 -0.0829
  386SOL    HW2 1310   4.587   3.432   1.686  1.1820 -0.0488 -0.4122
  386SOL    HW3 1311   4.519   3.363   1.802  0.2622  0.5937 -0.5659
  386SOL    MW4 1312   4.577   3.362   1.737  0.6793  0.1852 -0.1901
  387SOL     OW 1313   3.964   2.195   4.826  0.1203  0.1434  0.5613
  387SOL    HW2 1314   3.910   2.270   4.851 -0.9665  0.3052 -1.9659
  387SOL    HW3 1315   4.013   2.225   4.749  0.0659 -1.5541 -0.1762
  387SOL    MW4 1316   3.963   2.209   4.819 -0.0303 -0.0592  0.1305
  388SOL     OW 1317   4.854   0.894   1.525  0.3109  0.1452 -0.5561
  388SOL    HW2 1318   4.907   0.936   1.593 -0.3761  2.0813 -1.1491
  388SOL    HW3 1319   4.905   0.818   1.498  2.1214  1.1462 -0.1245
  388SOL    MW4 1320   4.868   0.889   1.531  0.4591  0.5327 -0.5774
  389SOL     OW 1321   2.843   0.446   3.625 -0.0912 -0.3924  0.3435
  389SOL    HW2 1322   2.784   0.452   3.550  0.7211  1.8827 -0.1916
  389SOL    HW3 1323   2.928   0.426   3.587  0.2820  0.5471  0.6743
  389SOL    MW4 1324   2.846   0.444   3.610  0.0652  0.0317  0.3165
  390SOL     OW 1325   4.810   0.161   1.347  0.0115 -0.5255 -0.1355
  390SOL    HW2 1326   4.887   0.211   1.374  1.5255 -2.1812 -1.2171
  390SOL    HW3 1327   4.845   0.081   1.308 -2.0800  0.0605 -3.6513
  390SOL    MW4 1328   4.825   0.157   1.345 -0.0647 -0.6666 -0.7421
  391SOL     OW 1329   4.241   2.844   5.558  0.5626  0.0213  0.2070
  391SOL    HW2 1330   4.236   2.922   5.503  2.7291 -0.1804 -0.3484
  391SOL    HW3 1331   4.276   2.776   5.501  1.3658 -0.6102  1.4029
  391SOL    MW4 1332   4.245   2.846   5.543  0.9544 -0.0887  0.2915
  392SOL     OW 1333   0.378   1.469   5.717 -0.0581 -0.7200  0.7061
  392SOL    HW2 1334   0.316   1.474   5.644 -0.1199 -0.3444  0.7868
  392SOL    HW3 1335   0.372   1.553   5.761  1.0650 -0.3836  0.2583
  392SOL    MW4 1336   0.369   1.480   5.713  0.0819 -0.6261  0.6577
  393SOL     OW 1337   1.853   0.266   0.405  0.4682  0.6429  0.2501
  393SOL    HW2 1338   1.887   0.350   0.374  1.1529  0.2634 -0.0552
  393SOL    HW3 1339   1.909   0.201   0.363 -0.0993  0.0300  0.4290
  393SOL    MW4 1340   1.865   0.269   0.395  0.4837  0.5119  0.2335
  394SOL     OW 1341   2.049   1.749   1.134 -0.3794  1.1227 -0.5673
  394SOL    HW2 1342   2.093   1.670   1.164  0.5881  1.3936 -1.2337
  394SOL    HW3 1343   1.982   1.767   1.200  0.5779  0.7649  0.5125
  394SOL    MW4 1344   2.046   1.741   1.146 -0.1254  1.1112 -0.5127
  395SOL     OW 1345   2.263   4.400   5.090 -0.5681  0.0392 -0.8429
  395SOL    HW2 1346   2.289   4.361   5.007 -1.4488  0.0524 -1.1381
  395SOL    HW3 1347   2.185   4.451   5.069 -0.9136 -0.1149  0.0200
  395SOL    MW4 1348   2.256   4.401   5.076 -0.7299  0.0206 -0.7680
  396SOL     OW 1349   6.314   5.942   5.382 -0.1467 -0.3928  0.3199
  396SOL    HW2 1350   6.324   5.960   5.289 -0.7561 -0.1704  0.2943
  396SOL    HW3 1351   6.395   5.973   5.422  0.2195 -0.7082 -0.1637
  396SOL    MW4 1352   6.326   5.948   5.375 -0.1788 -0.4051  0.2527
  397SOL     OW 1353   5.271   2.502   5.340 -0.8364  0.2270  0.3168
  397SOL    HW2 1354   5.331   2.577   5.342 -1.3772  0.8051 -2.0712
  397SOL    HW3 1355   5.204   2.523   5.405 -1.2583  2.1298 -0.6420
  397SOL    MW4 1356   5.270   2.515   5.349 -0.9634  0.5543 -0.1248
  398SOL     OW 1357   3.549   0.135   4.307  0.5607  0.2969  0.3411
  398SOL    HW2 1358   3.468   0.109   4.263  0.1192  1.3017  0.5193
  398SOL    HW3 1359   3.566   0.065   4.370 -0.4761  0.3293  0.6766
  398SOL    MW4 1360   3.541   0.122   4.309  0.3656  0.4337  0.4089
  399SOL     OW 1361   0.096   4.436   2.361  0.7284 -0.0361  0.3307
  399SOL    HW2 1362   0.084   4.371   2.292  2.9732 -0.7774  0.5341
  399SOL    HW3 1363   0.131   4.513   2.316 -1.8082  1.0939  0.1083
  399SOL    MW4 1364   0.099   4.438   2.346  0.6899  0.0152  0.3282
  400SOL     OW 1365   2.039   2.176   4.651  0.0253  0.6168  0.3049
  400SOL    HW2 1366   2.128   2.144   4.663  0.2491  1.0258 -0.2458
  400SOL    HW3 1367   2.024   2.235   4.725 -0.1715 -0.2737  0.9875
  400SOL    MW4 1368   2.049   2.179   4.662  0.0289  0.5533  0.3223
  401SOL     OW 1369   2.868   0.944   5.922 -0.3635 -0.0543 -0.2422
  401SOL    HW2 1370   2.788   0.945   5.869  0.6039 -0.7698 -1.7896
  401SOL    HW3 1371   2.937   0.967   5.860  0.6759  0.2900  1.0091
  401SOL    MW4 1372   2.867   0.947   5.907 -0.0988 -0.1032 -0.2813
  402SOL     OW 1373   5.595   6.410   4.774 -0.0901 -0.2114  0.1762
  402SOL    HW2 1374   5.562   6.498   4.791  1.0737  0.3863 -0.5918
  402SOL    HW3 1375   5.520   6.353   4.791 -0.6174  0.8329  1.5647
  402SOL    MW4 1376   5.581   6.414   4.779 -0.0061  0.0052  0.2581
  403SOL     OW 1377   4.542   2.477   4.898 -0.7306 -0.3289 -0.2152
  403SOL    HW2 1378   4.538   2.524   4.981  0.5176  1.7209 -1.2409
  403SOL    HW3 1379   4.629   2.496   4.864 -1.1818 -1.2043 -1.9614
  403SOL    MW4 1380   4.553   2.485   4.905 -0.6254 -0.1740 -0.5809
  404SOL     OW 1381   4.586   4.010   2.683  0.4866  0.0517  0.3873
  404SOL    HW2 1382   4.642   3.987   2.757  1.2086  0.3652 -0.0508
  404SOL    HW3 1383   4.505   4.041   2.723  0.8441  0.1470  1.0446
  404SOL    MW4 1384   4.583   4.011   2.698  0.6290  0.1056  0.4163
  405SOL     OW 1385   1.707   5.413   2.894  0.2758 -0.0452 -0.1566
  405SOL    HW2 1386   1.774   5.361   2.939 -1.3254 -0.7655  1.5024
  405SOL    HW3 1387   1.648   5.348   2.855 -0.6565  0.5363  0.2557
  405SOL    MW4 1388   1.708   5.397   2.895 -0.0585 -0.0635  0.1167
  406SOL     OW 1389   2.087   5.123   1.430  0.3485  0.2114  0.3506
  406SOL    HW2 1390   2.050   5.103   1.517  0.0605  1.0243  0.4296
  406SOL    HW3 1391   2.080   5.218   1.424  1.7816  0.3092  0.0562
  406SOL    MW4 1392   2.081   5.133   1.441  0.4996  0.3316  0.3221
  407SOL     OW 1393   5.454   4.121   1.177  0.1588  0.5992  0.2774
  407SOL    HW2 1394   5.373   4.082   1.145  0.4074 -0.0994  0.4821
  407SOL    HW3 1395   5.430   4.210   1.202 -0.9196 -0.1260  1.9193
  407SOL    MW4 1396   5.440   4.128   1.176  0.0493  0.4114  0.5210
  408SOL     OW 1397   0.609   4.482   2.300  0.1837 -0.3647 -0.1332
  408SOL    HW2 1398   0.566   4.567   2.294  2.0881  0.7180  0.6857
  408SOL    HW3 1399   0.537   4.419   2.304 -1.3030  0.9885 -2.8095
  408SOL    MW4 1400   0.594   4.485   2.300  0.2388 -0.0433 -0.3783
  409SOL     OW 1401   1.074   5.409   2.710 -0.3827 -0.0223  0.7660
  409SOL    HW2 1402   0.995   5.428   2.660 -0.6276  1.1866  1.5841
  409SOL    HW3 1403   1.094   5.490   2.756  2.6234  0.4414 -1.1085
  409SOL    MW4 1404   1.066   5.422   2.709 -0.0184  0.1984  0.6266
  410SOL     OW 1405   4.628   1.554   2.631 -0.2974  0.0724  0.1072
  410SOL    HW2 1406   4.602   1.576   2.720  0.8955  2.1560 -0.0023
  410SOL    HW3 1407   4.561   1.593   2.575 -0.1321  0.2427  0.0282
  410SOL    MW4 1408   4.616   1.562   2.635 -0.1182  0.3698  0.0823
  411SOL     OW 1409   5.167   1.559   4.604  0.9465  0.8177  0.5782
  411SOL    HW2 1410   5.093   1.541   4.547  0.3486 -0.9717  1.8313
  411SOL    HW3 1411   5.211   1.474   4.613  1.4269  1.2138  2.1760
  411SOL    MW4 1412   5.163   1.545   4.598  0.9310  0.6339  0.9543
  412SOL     OW 1413   3.930   2.111   2.917  0.1906 -0.0412 -0.2943
  412SOL    HW2 1414   3.904   2.157   2.837 -0.6044  0.4376  0.2213
  412SOL    HW3 1415   4.015   2.149   2.940  1.5249 -1.7496 -2.1028
  412SOL    MW4 1416   3.938   2.122   2.909  0.2617 -0.2035 -0.4649
  413SOL     OW 1417   4.816   4.454   5.132 -0.7162 -0.4780 -0.5014
  413SOL    HW2 1418   4.901   4.447   5.088  1.9644  3.5036  3.2552
  413SOL    HW3 1419   4.780   4.537   5.102 -2.0928 -0.9058 -0.1048
  413SOL    MW4 1420   4.822   4.464   5.122 -0.5441 -0.0091  0.0466
  414SOL     OW 1421   5.692   5.089   1.246  0.0603  0.0980 -0.5012
  414SOL    HW2 1422   5.692   5.049   1.333 -0.7853  1.5401  0.1942
  414SOL    HW3 1423   5.758   5.039   1.197 -0.0879 -1.3139  0.6789
  414SOL    MW4 1424   5.701   5.077   1.251 -0.0708  0.1020 -0.2537
  415SOL     OW 1425   6.115   5.162   6.000  0.2064  0.0043  0.1737
  415SOL    HW2 1426   6.203   5.196   5.982  0.2963  1.3935  2.6746
  415SOL    HW3 1427   6.130   5.071   6.027  0.5660 -0.5096 -1.6559
  415SOL    MW4 1428   6.129   5.154   6.001  0.2657  0.1198  0.2623
  416SOL     OW 1429   0.146   3.082   0.020  0.2132 -0.1511 -0.4139
  416SOL    HW2 1430   0.227   3.090  -0.031 -1.6073  0.1769 -3.5101
  416SOL    HW3 1431   0.158   3.003   0.072  3.4265  1.1985  1.1339
  416SOL    MW4 1432   0.158   3.073   0.020  0.3969  0.0702 -0.6182
  417SOL     OW 1433   5.661   4.448   1.789 -0.2767  0.0649  0.1862
  417SOL    HW2 1434   5.607   4.500   1.730  1.6182  0.9858 -0.8144
  417SOL    HW3 1435   5.706   4.513   1.844  1.3129 -0.5146 -0.3626
  417SOL    MW4 1436   5.660   4.463   1.789  0.1830  0.1100 -0.0183
  418SOL     OW 1437   1.360   3.771   5.605  0.0506 -0.5279 -0.5452
  418SOL    HW2 1438   1.361   3.859   5.645  1.5141 -1.1184  0.8094
  418SOL    HW3 1439   1.282   3.729   5.643 -0.5639  0.0975 -1.0743
  418SOL    MW4 1440   1.350   3.777   5.615  0.1626 -0.5233 -0.4363
  419SOL     OW 1441   4.590   1.238   4.161 -0.1966  0.0597 -0.2504
  419SOL    HW2 1442   4.642   1.319   4.153 -0.2164  0.1520  0.4426
  419SOL    HW3 1443   4.518   1.249   4.100  0.9523 -0.3558 -1.7255
  419SOL    MW4 1444   4.588   1.250   4.152 -0.0476  0.0171 -0.3536
  420SOL     OW 1445   2.156   5.322   2.790 -0.4906  0.4891  0.1070
  420SOL    HW2 1446   2.157   5.226   2.789 -2.0318  0.4416  0.1927
  420SOL    HW3 1447   2.104   5.346   2.713  0.8222  1.3119 -0.5594
  420SOL    MW4 1448   2.149   5.312   2.780 -0.5208  0.5914  0.0304
  421SOL     OW 1449   2.957   5.992   1.119  0.0236 -0.7012 -0.2175
  421SOL    HW2 1450   2.964   5.929   1.048  0.3093  0.2880 -1.0868
  421SOL    HW3 1451   2.964   6.077   1.077  1.9595 -0.0950  1.1692
  421SOL    MW4 1452   2.959   5.995   1.104  0.3167 -0.4907 -0.1493
  422SOL     OW 1453   0.489   4.438   5.320 -0.3382  0.7026 -0.7006
  422SOL    HW2 1454   0.468   4.370   5.256 -0.0815  1.3760 -1.5116
  422SOL    HW3 1455   0.581   4.458   5.304 -0.6290  1.8177 -1.0236
  422SOL    MW4 1456   0.498   4.431   5.310 -0.3427  0.9386 -0.8502
  423SOL     OW 1457   2.894   5.278   3.562  0.2587  0.5873 -0.2452
  423SOL    HW2 1458   2.941   5.298   3.643  3.6730 -1.3355 -1.5384
  423SOL    HW3 1459   2.946   5.320   3.493  0.1477 -1.5847 -1.7706
  423SOL    MW4 1460   2.907   5.286   3.563  0.6945  0.0470 -0.6171
  424SOL     OW 1461   4.849   6.200   2.220  0.0810  0.0523  0.0402
  424SOL    HW2 1462   4.787   6.139   2.260  0.0231  1.1785  1.8031
  424SOL    HW3 1463   4.934   6.156   2.226 -0.0762 -0.1886  0.6114
  424SOL    MW4 1464   4.852   6.186   2.226  0.0526  0.1691  0.3482
  425SOL     OW 1465   3.798   1.032   3.881  0.0939  0.1998 -0.1592
  425SOL    HW2 1466   3.731   1.008   3.818 -0.4745  2.1475 -0.3467
  425SOL    HW3 1467   3.857   0.956   3.883 -1.4436 -1.0721 -0.8466
  425SOL    MW4 1468   3.797   1.019   3.873 -0.1839  0.2890 -0.2746
  426SOL     OW 1469   0.726   0.088   6.210 -0.1522  0.3115  0.0164
  426SOL    HW2 1470   0.806   0.100   6.160 -0.8098  0.0140 -1.1628
  426SOL    HW3 1471   0.745   0.016   6.271 -0.1926 -1.3291 -1.8142
  426SOL    MW4 1472   0.739   0.080   6.212 -0.2443  0.0558 -0.3807
  427SOL     OW 1473   1.199   0.774   5.897 -0.0287  0.0841 -0.4976
  427SOL    HW2 1474   1.132   0.709   5.879 -1.7159  1.1125  1.5519
  427SOL    HW3 1475   1.165   0.855   5.859 -1.0498  1.0603  2.2139
  427SOL    MW4 1476   1.186   0.776   5.890 -0.3860  0.3486  0.1305
  428SOL     OW 1477   2.519   5.063   0.179  0.4077 -0.1423 -0.4706
  428SOL    HW2 1478   2.524   4.974   0.216  0.0792 -0.7000 -1.7345
  428SOL    HW3 1479   2.483   5.116   0.250  0.5303 -1.0310  0.2800
  428SOL    MW4 1480   2.515   5.058   0.194  0.3805 -0.3331 -0.5383
  429SOL     OW 1481   3.538   2.510   0.363  0.0397 -0.2678 -0.2576
  429SOL    HW2 1482   3.542   2.445   0.292  3.4988 -0.9249  0.3741
  429SOL    HW3 1483   3.571   2.591   0.324  2.5961 -0.7967  0.6374
  429SOL    MW4 1484   3.543   2.512   0.348  0.8334 -0.4243 -0.0561
  430SOL     OW 1485   4.120   0.408   5.131  0.0528  0.0836  0.0563
  430SOL    HW2 1486   4.032   0.410   5.170 -0.1783  1.9274 -0.4619
  430SOL    HW3 1487   4.104   0.402   5.037  0.5320 -0.8513  0.0291
  430SOL    MW4 1488   4.106   0.407   5.124  0.0856  0.2035 -0.0156
  431SOL     OW 1489   2.414   2.344   1.141  0.6166 -0.2348  0.2240
  431SOL    HW2 1490   2.365   2.425   1.124  0.4363 -0.1332  1.2081
  431SOL    HW3 1491   2.388   2.285   1.070 -0.1858  0.1527  0.1842
  431SOL    MW4 1492   2.404   2.347   1.129  0.4869 -0.1703  0.3486
  432SOL     OW 1493   5.101   1.730   5.124  0.5692 -0.3109 -0.0306
  432SOL    HW2 1494   5.139   1.683   5.050  2.0465  3.5943 -2.0570
  432SOL    HW3 1495   5.007   1.715   5.117  0.8099 -1.2532 -1.7828
  432SOL    MW4 1496   5.094   1.722   5.114  0.7958  0.0800 -0.5291
  433SOL     OW 1497   1.086   3.215   6.123  0.1404  0.2924 -0.1912
  433SOL    HW2 1498   1.097   3.121   6.112 -0.2936  0.3356 -1.1589
  433SOL    HW3 1499   1.126   3.235   6.207  1.7203 -0.5070 -0.7175
  433SOL    MW4 1500   1.093   3.205   6.132  0.2916  0.1926 -0.3884
  434SOL     OW 1501   4.560   4.710   6.331 -0.4696  0.6035  0.0340
  434SOL    HW2 1502   4.605   4.779   6.380  0.0267  1.8128 -2.0066
  434SOL    HW3 1503   4.472   4.744   6.316 -1.4709 -0.8427  2.1604
  434SOL    MW4 1504   4.554   4.724   6.335 -0.5362  0.5723  0.0453
  435SOL     OW 1505   0.798   3.480   4.977  0.4723 -0.6995 -0.4162
  435SOL    HW2 1506   0.803   3.403   4.920 -0.9265  0.1402 -1.7318
  435SOL    HW3 1507   0.884   3.482   5.020  1.7104 -1.2438 -2.6592
  435SOL    MW4 1508   0.810   3.470   4.975  0.4511 -0.6605 -0.8857
  436SOL     OW 1509   5.355   1.102   5.758  0.2359 -0.0840 -0.1933
  436SOL    HW2 1510   5.320   1.090   5.670 -0.0878  0.3379 -0.1237
  436SOL    HW3 1511   5.280   1.092   5.816  0.2856  0.4684 -0.0225
  436SOL    MW4 1512   5.341   1.099   5.754  0.1998  0.0446 -0.1616
  437SOL     OW 1513   5.745   2.767   4.278 -0.5484 -0.5221  0.0450
  437SOL    HW2 1514   5.724   2.708   4.350 -0.0504 -0.4175  0.2798
  437SOL    HW3 1515   5.812   2.826   4.314  0.1643 -0.8595 -0.6884
  437SOL    MW4 1516   5.751   2.767   4.292 -0.3887 -0.5528 -0.0208
  438SOL     OW 1517   0.333   2.693   2.486 -0.4356 -0.0423  0.5607
  438SOL    HW2 1518   0.307   2.785   2.486 -0.3553  0.0005  1.9266
  438SOL    HW3 1519   0.333   2.668   2.578 -0.0232 -1.2940  0.2421
  438SOL    MW4 1520   0.330   2.702   2.498 -0.3706 -0.2018  0.6989
  439SOL     OW 1521   1.128   4.809   0.059  0.5614 -0.8273 -0.1926
  439SOL    HW2 1522   1.200   4.835   0.002  0.6797  2.5634  1.2614
  439SOL    HW3 1523   1.055   4.791  -0.001  1.0224  1.3857 -1.5371
  439SOL    MW4 1524   1.128   4.810   0.044  0.6378 -0.0880 -0.1782
  440SOL     OW 1525   1.014   4.542   4.215  0.2602 -0.1505 -0.2626
  440SOL    HW2 1526   0.922   4.535   4.188 -0.0941 -0.7234  1.0158
  440SOL    HW3 1527   1.039   4.452   4.237  0.2611  0.3536  2.0570
  440SOL    MW4 1528   1.005   4.529   4.214  0.2136 -0.1596  0.2121
  441SOL     OW 1529   5.868   1.422   2.799 -0.2600  0.1586 -0.0749
  441SOL    HW2 1530   5.865   1.469   2.882  0.9946 -2.1349  1.3621
  441SOL    HW3 1531   5.950   1.451   2.758  0.1211 -0.1609  0.4454
  441SOL    MW4 1532   5.879   1.432   2.804 -0.0442 -0.1862  0.1833
  442SOL     OW 1533   4.904   2.287   2.368  0.3028 -0.3609  0.0246
  442SOL    HW2 1534   4.886   2.379   2.353 -1.1448 -0.8142 -1.2475
  442SOL    HW3 1535   4.995   2.275   2.340  1.3002  1.0924  2.3707
  442SOL    MW4 1536   4.914   2.297   2.363  0.2434 -0.2290  0.1663
  443SOL     OW 1537   3.729   0.051   0.526  0.0782  0.3421 -0.0816
  443SOL    HW2 1538   3.773  -0.022   0.570  1.0734 -0.4750 -2.2676
  443SOL    HW3 1539   3.800   0.113   0.505 -0.7922  2.1634  2.0201
  443SOL    MW4 1540   3.744   0.050   0.529  0.0946  0.4746 -0.0928
  444SOL     OW 1541   2.842   1.019   3.757 -0.0284 -0.3133  0.1364
  444SOL    HW2 1542   2.789   0.975   3.824 -1.4666  0.6620 -0.3186
  444SOL    HW3 1543   2.855   0.952   3.690 -1.6079 -0.2982 -0.2279
  444SOL    MW4 1544   2.837   1.004   3.757 -0.4265 -0.1826  0.0283
  445SOL     OW 1545   5.350   1.996   4.387 -0.4043  0.2964 -0.5270
  445SOL    HW2 1546   5.347   1.913   4.433 -1.7598 -0.5039 -1.9539
  445SOL    HW3 1547   5.442   2.007   4.363 -0.2000 -0.7856 -0.2935
  445SOL    MW4 1548   5.362   1.987   4.390 -0.5562  0.0481 -0.6845
  446SOL     OW 1549   1.337   3.428   2.838 -0.3410 -0.0809  0.0284
  446SOL    HW2 1550   1.245   3.450   2.857 -0.0513 -0.3212  1.8871
  446SOL    HW3 1551   1.386   3.507   2.862 -0.0101 -0.0827 -0.6147
  446SOL    MW4 1552   1.331   3.442   2.844 -0.2592 -0.1128  0.1888
  447SOL     OW 1553   3.705   3.789   4.577 -0.2394 -0.0966 -0.3986
  447SOL    HW2 1554   3.793   3.824   4.562  0.0565  0.1357  1.5461
  447SOL    HW3 1555   3.716   3.727   4.650 -1.2300 -2.2111 -1.9429
  447SOL    MW4 1556   3.718   3.785   4.585 -0.3310 -0.3449 -0.3458
  448SOL     OW 1557   2.452   1.886   6.026  0.4080 -0.5243 -0.4414
  448SOL    HW2 1558   2.434   1.961   5.970 -0.0799 -0.4477 -0.1964
  448SOL    HW3 1559   2.377   1.883   6.086  1.9046  0.6791  1.6254
  448SOL    MW4 1560   2.439   1.895   6.026  0.5411 -0.3554 -0.1364
  449SOL     OW 1561   2.397   6.243   3.599  0.5334 -0.0277 -0.3502
  449SOL    HW2 1562   2.331   6.306   3.568  1.3934  1.2228  0.2760
  449SOL    HW3 1563   2.474   6.261   3.545 -0.0418 -2.5400 -2.1667
  449SOL    MW4 1564   2.398   6.254   3.587  0.5710 -0.1942 -0.5072
  450SOL     OW 1565   4.571   0.510   1.947 -0.7112  0.2517 -0.0492
  450SOL    HW2 1566   4.508   0.532   2.015 -0.1621  1.3591  0.1194
  450SOL    HW3 1567   4.532   0.435   1.901 -2.1562  0.9400  0.0279
  450SOL    MW4 1568   4.558   0.503   1.950 -0.8294  0.4886 -0.0168
  451SOL     OW 1569   3.100   5.096   0.673  0.2683  0.2017 -0.0696
  451SOL    HW2 1570   3.154   5.175   0.683  0.7663 -0.1440 -0.0021
  451SOL    HW3 1571   3.071   5.098   0.582 -1.0297  1.2878  0.3306
  451SOL    MW4 1572   3.104   5.107   0.662  0.1627  0.2994 -0.0079
  452SOL     OW 1573   4.229   0.732   3.444  0.1994 -0.5049 -0.1253
  452SOL    HW2 1574   4.256   0.770   3.361 -1.0545  0.1194 -0.2801
  452SOL    HW3 1575   4.310   0.723   3.495  0.8456  0.0166 -1.0416
  452SOL    MW4 1576   4.243   0.736   3.440  0.1192 -0.3537 -0.2666
  453SOL     OW 1577   4.628   3.051   5.962 -0.3846 -0.1166  0.3684
  453SOL    HW2 1578   4.628   3.121   6.028 -0.9911 -0.7218  1.0332
  453SOL    HW3 1579   4.558   3.075   5.902  0.3506  0.5827 -0.2290
  453SOL    MW4 1580   4.619   3.064   5.963 -0.3677 -0.1042  0.3773
  454SOL     OW 1581   5.130   5.006   6.379 -0.1377  0.2125  0.2825
  454SOL    HW2 1582   5.157   5.079   6.435 -3.2041  0.3629  1.7294
  454SOL    HW3 1583   5.173   5.023   6.295  2.4531  1.4272  1.7290
  454SOL    MW4 1584   5.139   5.018   6.375 -0.2005  0.3926  0.6642
  455SOL     OW 1585   3.988   5.515   3.844  0.1292 -0.3752  0.0068
  455SOL    HW2 1586   3.950   5.478   3.765 -1.3467 -0.6488  0.8018
  455SOL    HW3 1587   3.936   5.479   3.915  0.9026  0.4899  1.0564
  455SOL    MW4 1588   3.976   5.506   3.843  0.0365 -0.2972  0.2502
  456SOL     OW 1589   4.468   3.341   2.335  0.3151  0.3525  0.4509
  456SOL    HW2 1590   4.385   3.389   2.340 -0.4430 -0.9310  0.9878
  456SOL    HW3 1591   4.463   3.294   2.251 -0.0006 -0.5281  0.9406
  456SOL    MW4 1592   4.456   3.341   2.325  0.1735  0.0670  0.5863
  457SOL     OW 1593   3.494   1.135   1.667 -0.2308  0.0779 -0.0228
  457SOL    HW2 1594   3.451   1.070   1.612  0.5339 -0.5563  0.1170
  457SOL    HW3 1595   3.430   1.155   1.735 -0.8283  0.1773 -0.6064
  457SOL    MW4 1596   3.480   1.129   1.669 -0.2087  0.0073 -0.0814
  458SOL     OW 1597   5.225   0.806   5.438  0.2178 -0.2480  0.2540
  458SOL    HW2 1598   5.289   0.736   5.425  0.4614  0.2484 -1.3375
  458SOL    HW3 1599   5.176   0.778   5.516  0.9329 -1.7022  0.2270
  458SOL    MW4 1600   5.227   0.793   5.447  0.3443 -0.3743  0.0405
  459SOL     OW 1601   0.470   2.218   3.347 -0.1784  0.2598  0.0358
  459SOL    HW2 1602   0.489   2.126   3.363  2.1342  0.6945  0.2016
  459SOL    HW3 1603   0.462   2.257   3.434  1.0732  0.5702  0.0401
  459SOL    MW4 1604   0.472   2.211   3.360  0.2918  0.3581  0.0582
  460SOL     OW 1605   5.791   2.629   3.490  0.1585 -0.1217 -0.9078
  460SOL    HW2 1606   5.853   2.558   3.505  0.0080 -0.1782 -0.5456
  460SOL    HW3 1607   5.841   2.708   3.509 -0.3254 -0.2259  1.0297
  460SOL    MW4 1608   5.805   2.630   3.495  0.0748 -0.1429 -0.6044
  461SOL     OW 1609   1.691   2.809   5.569  0.0644 -0.0182 -0.3851
  461SOL    HW2 1610   1.774   2.815   5.616 -0.6748 -0.4243  1.0400
  461SOL    HW3 1611   1.708   2.746   5.499  0.5392 -1.3869  0.8999
  461SOL    MW4 1612   1.704   2.802   5.566  0.0295 -0.2524 -0.0275
  462SOL     OW 1613   1.401   4.164   4.484  0.2942  0.1374 -0.0209
  462SOL    HW2 1614   1.406   4.254   4.455  0.8337 -0.0856 -0.6401
  462SOL    HW3 1615   1.355   4.118   4.414 -1.2300  0.1734  0.9083
  462SOL    MW4 1616   1.395   4.170   4.471  0.1643  0.1128  0.0200
  463SOL     OW 1617   1.661   0.263   0.741 -0.0785 -0.2654 -0.7242
  463SOL    HW2 1618   1.748   0.299   0.725 -0.6557  0.9664 -1.1812
  463SOL    HW3 1619   1.671   0.214   0.823  1.0313 -0.0987 -0.7382
  463SOL    MW4 1620   1.674   0.261   0.750 -0.0082 -0.0809 -0.7864
  464SOL     OW 1621   1.898   1.435   1.593  0.2890 -0.3091 -0.3737
  464SOL    HW2 1622   1.979   1.477   1.566  0.2239 -0.8569 -1.4949
  464SOL    HW3 1623   1.925   1.370   1.658  0.7251 -0.3803 -0.6235
  464SOL    MW4 1624   1.912   1.432   1.598  0.3379 -0.3907 -0.5546
  465SOL     OW 1625   2.595   3.207   0.220 -0.2178  0.3285  0.0330
  465SOL    HW2 1626   2.608   3.151   0.143 -0.5959  1.6437 -1.0221
  465SOL    HW3 1627   2.579   3.294   0.184  1.4920  1.3890  1.6363
  465SOL    MW4 1628   2.595   3.211   0.205 -0.0421  0.6420  0.1053
  466SOL     OW 1629   3.972   1.298   1.775 -0.2949  0.2807  0.0278
  466SOL    HW2 1630   4.054   1.294   1.726 -0.6927  2.2790 -0.9046
  466SOL    HW3 1631   3.910   1.248   1.722  0.1679 -0.8047  0.4793
  466SOL    MW4 1632   3.975   1.291   1.762 -0.2864  0.4011 -0.0357
  467SOL     OW 1633   0.680   3.284   0.884  0.3290  0.7157  0.9645
  467SOL    HW2 1634   0.730   3.297   0.803  2.8705 -0.7266  2.1911
  467SOL    HW3 1635   0.685   3.369   0.928  0.3722  1.0286  0.3755
  467SOL    MW4 1636   0.687   3.297   0.879  0.6700  0.5667  1.0486
  468SOL     OW 1637   2.461   5.527   5.268 -0.6249  0.1003  0.3760
  468SOL    HW2 1638   2.554   5.508   5.256 -0.1055  0.9320  2.5245
  468SOL    HW3 1639   2.424   5.444   5.299 -0.5551 -0.1628 -0.2315
  468SOL    MW4 1640   2.469   5.513   5.271 -0.5471  0.1753  0.5793
  469SOL     OW 1641   6.335   0.285   5.946  0.2336  0.0838 -0.3487
  469SOL    HW2 1642   6.316   0.379   5.938  0.6447  0.2180  0.1343
  469SOL    HW3 1643   6.256   0.241   5.915 -0.2759  0.6014  0.1964
  469SOL    MW4 1644   6.322   0.292   5.941  0.2206  0.1698 -0.2130
  470SOL     OW 1645   4.603   0.013   6.248  0.1239 -0.1907  0.7857
  470SOL    HW2 1646   4.665  -0.052   6.214 -1.1590 -0.3631 -1.3475
  470SOL    HW3 1647   4.655   0.093   6.255  0.8492 -0.5741  0.0357
  470SOL    MW4 1648   4.618   0.015   6.245  0.0503 -0.2640  0.4053
  471SOL     OW 1649   3.675   1.526   1.547  0.7619  0.0489 -0.2307
  471SOL    HW2 1650   3.661   1.596   1.483  2.7275 -0.2901 -1.1096
  471SOL    HW3 1651   3.611   1.543   1.615 -1.5540  0.3289 -2.3429
  471SOL    MW4 1652   3.665   1.537   1.547  0.7157  0.0411 -0.6253
  472SOL     OW 1653   0.646   4.778   5.021  0.1255 -0.0648  0.5669
  472SOL    HW2 1654   0.607   4.839   4.958 -0.9316  0.0856  1.3368
  472SOL    HW3 1655   0.594   4.698   5.011  0.1059 -0.1169  1.0782
  472SOL    MW4 1656   0.634   4.776   5.011 -0.0166 -0.0518  0.7359
  473SOL     OW 1657   5.059   4.292   0.547 -1.2025 -0.3861 -0.3398
  473SOL    HW2 1658   5.043   4.264   0.457 -1.1621 -1.1880 -0.1058
  473SOL    HW3 1659   5.014   4.227   0.601 -0.6467 -0.3062  0.2338
  473SOL    MW4 1660   5.051   4.280   0.543 -1.1239 -0.4814 -0.2332
  474SOL     OW 1661   6.167   1.722   3.491 -0.7391 -0.3473  0.2002
  474SOL    HW2 1662   6.227   1.782   3.447  0.3884 -1.7741 -0.2928
  474SOL    HW3 1663   6.096   1.709   3.427 -1.3552  0.9370  0.5811
  474SOL    MW4 1664   6.165   1.728   3.477 -0.6717 -0.3661  0.1854
  475SOL     OW 1665   5.226   4.160   4.442 -0.4520  1.2469 -0.4521
  475SOL    HW2 1666   5.238   4.239   4.493 -1.5624  0.0118  1.8614
  475SOL    HW3 1667   5.132   4.151   4.432 -0.3469  0.2708 -0.7600
  475SOL    MW4 1668   5.215   4.169   4.447 -0.5846  0.9551 -0.1874
  476SOL     OW 1669   1.904   5.539   0.438 -0.3384 -0.0006 -0.1626
  476SOL    HW2 1670   1.900   5.635   0.432 -1.3559  0.1006  1.4098
  476SOL    HW3 1671   1.841   5.508   0.372 -1.5679  0.5140  0.7227
  476SOL    MW4 1672   1.895   5.548   0.429 -0.6349  0.0807  0.1616
  477SOL     OW 1673   3.881   6.164   2.888  0.0252  0.3255  0.1955
  477SOL    HW2 1674   3.821   6.090   2.880  0.6794 -0.2083  0.1379
  477SOL    HW3 1675   3.896   6.192   2.797  0.7154 -0.2536  0.1139
  477SOL    MW4 1676   3.875   6.158   2.875  0.2026  0.1787  0.1771
  478SOL     OW 1677   4.016   4.800   4.277  0.1401  0.4199  0.8794
  478SOL    HW2 1678   3.981   4.736   4.339 -0.3598  0.2519  0.4273
  478SOL    HW3 1679   4.000   4.885   4.320  1.8349  0.2281  2.0033
  478SOL    MW4 1680   4.009   4.803   4.291  0.2978  0.3724  0.9681
  479SOL     OW 1681   3.284   6.006   2.049  0.4853 -0.2853 -0.4602
  479SOL    HW2 1682   3.318   5.955   1.976  0.5712  0.2293 -0.7863
  479SOL    HW3 1683   3.195   5.972   2.063  0.5606 -0.5566 -0.6367
  479SOL    MW4 1684   3.277   5.995   2.041  0.5065 -0.2532 -0.5265
  480SOL     OW 1685   1.152   1.051   0.169  0.5686  0.3531 -0.1587
  480SOL    HW2 1686   1.148   1.079   0.078  2.7462  0.7477 -0.1930
  480SOL    HW3 1687   1.150   0.955   0.165 -0.0923  0.3725 -0.5388
  480SOL    MW4 1688   1.151   1.042   0.157  0.7687  0.4077 -0.2134
  481SOL     OW 1689   0.903   2.466   1.277 -0.6357 -0.0237  0.0015
  481SOL    HW2 1690   0.888   2.371   1.278  0.6093 -0.2570 -1.0201
  481SOL    HW3 1691   0.877   2.495   1.364 -0.4468 -1.3977  0.5434
  481SOL    MW4 1692   0.897   2.457   1.288 -0.4465 -0.2358 -0.0618
  482SOL     OW 1693   5.215   5.040   4.489  0.8343 -0.7705  0.4056
  482SOL    HW2 1694   5.142   4.979   4.478 -0.6106  1.1010 -1.0760
  482SOL    HW3 1695   5.226   5.081   4.403  3.6743 -0.9396  0.5626
  482SOL    MW4 1696   5.207   5.037   4.476  1.0183 -0.5459  0.2308
  483SOL     OW 1697   3.795   3.675   2.174 -0.0927  0.0068 -0.4235
  483SOL    HW2 1698   3.797   3.718   2.259 -2.1760  0.0170 -0.3198
  483SOL    HW3 1699   3.823   3.742   2.112  0.8695  0.1727  0.1729
  483SOL    MW4 1700   3.799   3.689   2.177 -0.2406  0.0300 -0.3311
  484SOL     OW 1701   4.806   5.810   1.450 -0.3742  0.3486  0.1338
  484SOL    HW2 1702   4.757   5.850   1.521 -1.0880  0.4626 -0.4110
  484SOL    HW3 1703   4.801   5.874   1.378  1.4815  0.8518  0.3937
  484SOL    MW4 1704   4.799   5.824   1.450 -0.2235  0.4300  0.0962
  485SOL     OW 1705   2.050   1.250   3.450 -0.7227 -0.3584 -0.4000
  485SOL    HW2 1706   2.091   1.332   3.422 -0.7498  0.1793  1.0352
  485SOL    HW3 1707   1.958   1.273   3.464 -0.1324  0.3941  3.4434
  485SOL    MW4 1708   2.043   1.264   3.448 -0.6484 -0.1882  0.2964
  486SOL     OW 1709   3.506   5.705   1.601  0.3691  0.5545  0.6487
  486SOL    HW2 1710   3.456   5.696   1.683  1.5238  0.4743  1.3670
  486SOL    HW3 1711   3.450   5.665   1.534  0.5030 -1.7239  1.8245
  486SOL    MW4 1712   3.492   5.699   1.603  0.5391  0.2433  0.8986
  487SOL     OW 1713   3.284   1.491   3.130 -0.5217 -0.5294  0.1466
  487SOL    HW2 1714   3.272   1.552   3.058  2.3443  0.3066  0.2814
  487SOL    HW3 1715   3.291   1.405   3.088 -0.9548 -0.3177 -0.3641
  487SOL    MW4 1716   3.283   1.487   3.115 -0.2007 -0.3912  0.0970
  488SOL     OW 1717   2.037   2.854   0.651  0.1347  0.2475  0.1022
  488SOL    HW2 1718   2.019   2.768   0.611 -0.6709  0.8261 -0.8300
  488SOL    HW3 1719   2.123   2.878   0.616  0.1365  0.0433 -0.0404
  488SOL    MW4 1720   2.046   2.845   0.641  0.0286  0.2969 -0.0396
  489SOL     OW 1721   4.777   2.786   1.568 -0.2383  0.1428  0.0864
  489SOL    HW2 1722   4.734   2.747   1.643  0.3618 -0.7612 -0.0192
  489SOL    HW3 1723   4.725   2.864   1.547 -0.4338  0.3772  1.3936
  489SOL    MW4 1724   4.765   2.791   1.575 -0.1849  0.0545  0.2449
  490SOL     OW 1725   5.663   3.889   2.074 -0.1923 -0.2995 -0.1290
  490SOL    HW2 1726   5.753   3.910   2.100 -0.0163 -0.2417 -0.7824
  490SOL    HW3 1727   5.670   3.862   1.983 -0.7418 -0.9745  0.0223
  490SOL    MW4 1728   5.676   3.888   2.065 -0.2416 -0.3809 -0.1952
  491SOL     OW 1729   5.433   2.579   3.171  0.3413 -0.1496  0.5131
  491SOL    HW2 1730   5.373   2.529   3.116  0.1502  2.1401 -1.5196
  491SOL    HW3 1731   5.419   2.545   3.260 -1.9596 -1.5383 -0.3152
  491SOL    MW4 1732   5.423   2.568   3.176  0.0125 -0.0307  0.1356
  492SOL     OW 1733   3.915   0.902   6.120  0.1566 -0.1838 -0.0701
  492SOL    HW2 1734   3.911   0.826   6.179  1.0142 -0.5961 -0.5166
  492SOL    HW3 1735   3.907   0.978   6.177  2.0495 -0.5326  0.7565
  492SOL    MW4 1736   3.914   0.902   6.135  0.5195 -0.2842 -0.0199
  493SOL     OW 1737   4.831   1.049   2.405  0.1733 -0.0242  0.0558
  493SOL    HW2 1738   4.862   1.112   2.470  1.5445  1.9250 -2.2810
  493SOL    HW3 1739   4.891   0.974   2.413 -0.4333 -0.3590  1.7735
  493SOL    MW4 1740   4.843   1.047   2.414  0.2742  0.1888 -0.0259
  494SOL     OW 1741   1.124   0.315   3.498  0.5930  0.7467 -0.2588
  494SOL    HW2 1742   1.185   0.307   3.425  0.6747 -2.1097 -0.0119
  494SOL    HW3 1743   1.045   0.269   3.468  0.6635 -0.5642  1.4290
  494SOL    MW4 1744   1.121   0.307   3.484  0.6131  0.1969 -0.0035
  495SOL     OW 1745   0.427   2.337   3.654  0.3166  0.1842 -0.1136
  495SOL    HW2 1746   0.449   2.404   3.718 -1.3292 -0.2576  0.9870
  495SOL    HW3 1747   0.500   2.275   3.658  1.1444  1.1342 -0.0818
  495SOL    MW4 1748   0.440   2.338   3.663  0.2087  0.2512  0.0358
  496SOL     OW 1749   1.308   5.816   4.527 -0.5325  0.3219  0.3435
  496SOL    HW2 1750   1.230   5.855   4.489 -0.2056  0.0434 -0.6398
  496SOL    HW3 1751   1.288   5.722   4.532 -0.3754  0.2887  0.3583
  496SOL    MW4 1752   1.295   5.809   4.523 -0.4686  0.2808  0.2157
  497SOL     OW 1753   1.982   4.041   2.759 -0.4981 -0.3264  0.4221
  497SOL    HW2 1754   2.029   4.031   2.676 -0.7703  0.0817  0.2176
  497SOL    HW3 1755   1.890   4.051   2.734 -0.8868 -2.3188  0.8645
  497SOL    MW4 1756   1.976   4.041   2.745 -0.5853 -0.5354  0.4535
  498SOL     OW 1757   5.150   1.719   5.725 -0.3603  0.3353 -0.4112
  498SOL    HW2 1758   5.116   1.689   5.809 -0.7073  2.6389  0.3263
  498SOL    HW3 1759   5.216   1.785   5.747 -0.6175  1.1440 -1.9282
  498SOL    MW4 1760   5.154   1.724   5.739 -0.4400  0.7459 -0.5141
  499SOL     OW 1761   3.293   3.566   3.151 -0.0600  0.1055 -0.3837
  499SOL    HW2 1762   3.365   3.510   3.180 -2.7347 -3.1110  0.7920
  499SOL    HW3 1763   3.267   3.529   3.066  0.1880  1.7837 -1.2209
  499SOL    MW4 1764   3.299   3.553   3.144 -0.3802 -0.0975 -0.3390
  500SOL     OW 1765   2.248   0.352   5.989  0.0627  0.1771  0.0537
  500SOL    HW2 1766   2.332   0.373   6.029 -0.6240  1.0962  1.0688
  500SOL    HW3 1767   2.237   0.418   5.921  0.4366 -0.3367 -0.5212
  500SOL    MW4 1768   2.258   0.363   5.986  0.0214  0.2306  0.1118
  501SOL     OW 1769   0.522   6.324   1.940 -0.3661  0.3068  0.2432
  501SOL    HW2 1770   0.463   6.281   1.879  0.3139 -0.3486  0.0427
  501SOL    HW3 1771   0.470   6.335   2.020 -0.8414 -0.0119 -0.0198
  501SOL    MW4 1772   0.507   6.320   1.943 -0.3391  0.1783  0.1821
  502SOL     OW 1773   2.448   4.570   4.545 -0.5925 -0.1947 -0.1259
  502SOL    HW2 1774   2.375   4.551   4.604  0.0537  1.3190  1.2440
  502SOL    HW3 1775   2.517   4.509   4.572 -1.2866 -1.6348 -1.4303
  502SOL    MW4 1776   2.448   4.559   4.556 -0.5988 -0.1850 -0.1173
  503SOL     OW 1777   0.367   4.424   1.826  0.7496 -0.1672 -0.1781
  503SOL    HW2 1778   0.432   4.376   1.776  0.9149  0.2670 -0.3830
  503SOL    HW3 1779   0.334   4.491   1.765 -1.5173 -1.7631 -0.8664
  503SOL    MW4 1780   0.371   4.427   1.811  0.4723 -0.3204 -0.2960
  504SOL     OW 1781   3.351   1.328   2.542  0.1113  0.0383  0.1954
  504SOL    HW2 1782   3.359   1.249   2.488 -3.8640  0.5075 -1.4919
  504SOL    HW3 1783   3.385   1.398   2.487 -0.8840  0.0688 -0.4169
  504SOL    MW4 1784   3.356   1.326   2.527 -0.5445  0.1042 -0.1080
  505SOL     OW 1785   3.296   3.174   5.717  0.0943  0.2502 -0.4761
  505SOL    HW2 1786   3.304   3.247   5.778  1.3107  0.0738 -0.4034
  505SOL    HW3 1787   3.202   3.154   5.716  0.0898 -0.1193  1.7808
  505SOL    MW4 1788   3.284   3.181   5.725  0.2542  0.1782 -0.1687
  506SOL     OW 1789   4.212   5.448   2.739  0.0943  0.0659 -0.6175
  506SOL    HW2 1790   4.252   5.420   2.821  1.0824  1.7771 -0.4826
  506SOL    HW3 1791   4.121   5.417   2.745  0.4828 -0.9292  0.5344
  506SOL    MW4 1792   4.205   5.440   2.750  0.2759  0.1604 -0.4477
  507SOL     OW 1793   1.136   5.530   1.670 -0.0591  0.0885  0.5179
  507SOL    HW2 1794   1.082   5.458   1.638  1.1067 -0.4212 -0.3557
  507SOL    HW3 1795   1.083   5.608   1.654 -0.6439 -0.4176 -0.0839
  507SOL    MW4 1796   1.122   5.531   1.664  0.0175 -0.0455  0.3232
  508SOL     OW 1797   3.339   4.202   5.342  0.1977 -0.2234 -0.2932
  508SOL    HW2 1798   3.311   4.264   5.409 -0.5422  1.0951 -1.7482
  508SOL    HW3 1799   3.348   4.118   5.388 -1.9604  0.2377  1.0937
  508SOL    MW4 1800   3.337   4.199   5.357 -0.1847  0.0114 -0.3022
  509SOL     OW 1801   5.104   6.182   5.392 -0.2062 -0.4263  0.2465
  509SOL    HW2 1802   5.133   6.273   5.390 -0.3625 -0.3790 -1.3109
  509SOL    HW3 1803   5.137   6.145   5.310 -1.0996 -1.4604  0.3346
  509SOL    MW4 1804   5.112   6.189   5.381 -0.3447 -0.5565  0.0526
  510SOL     OW 1805   5.320   3.432   0.733  0.3112  0.5986  0.1897
  510SOL    HW2 1806   5.356   3.421   0.821  0.2392 -2.5730 -0.0545
  510SOL    HW3 1807   5.396   3.430   0.676  0.1861 -0.6615  0.0279
  510SOL    MW4 1808   5.335   3.430   0.737  0.2852  0.0139  0.1361
  511SOL     OW 1809   6.233   5.715   0.634  0.1015  0.5791  0.1853
  511SOL    HW2 1810   6.223   5.736   0.541 -3.4310  0.1761  0.3273
  511SOL    HW3 1811   6.248   5.621   0.635  0.1220  0.5794  0.0157
  511SOL    MW4 1812   6.234   5.705   0.622 -0.3619  0.5260  0.1817
  512SOL     OW 1813   5.308   1.681   3.227 -0.2407 -0.3361 -0.0992
  512SOL    HW2 1814   5.290   1.591   3.203  1.7262 -1.1807  1.3280
  512SOL    HW3 1815   5.286   1.686   3.321  0.1588  0.5072 -0.0418
  512SOL    MW4 1816   5.303   1.670   3.237  0.0715 -0.3363  0.0966
  513SOL     OW 1817   2.934   3.072   5.080  0.0765 -0.2520 -0.1870
  513SOL    HW2 1818   2.948   3.068   5.175  0.3637  2.6310 -0.0142
  513SOL    HW3 1819   3.005   3.020   5.043  0.5234 -0.6436  1.1655
  513SOL    MW4 1820   2.946   3.065   5.088  0.1733  0.0767  0.0142
  514SOL     OW 1821   0.677   0.307   0.640 -0.4763  0.0998  0.3456
  514SOL    HW2 1822   0.743   0.267   0.583 -0.0565  0.4283  0.5980
  514SOL    HW3 1823   0.597   0.258   0.621 -0.3452  0.2001 -0.5208
  514SOL    MW4 1824   0.675   0.295   0.630 -0.4037  0.1564  0.2646
  515SOL     OW 1825   2.886   3.002   6.147 -0.7813  0.1684 -0.2024
  515SOL    HW2 1826   2.852   2.980   6.061 -1.4578 -0.9222  0.3116
  515SOL    HW3 1827   2.839   3.081   6.173 -0.5628  0.5041 -0.8332
  515SOL    MW4 1828   2.875   3.009   6.139 -0.8417  0.0688 -0.2178
  516SOL     OW 1829   2.755   4.867   2.890  0.1662  0.6587  0.0225
  516SOL    HW2 1830   2.776   4.913   2.808  1.3484 -1.3704 -0.8899
  516SOL    HW3 1831   2.825   4.894   2.950  1.1651 -0.3038 -0.6745
  516SOL    MW4 1832   2.767   4.877   2.887  0.4539  0.2640 -0.1899
  517SOL     OW 1833   0.282   5.128   1.186 -0.5706  0.0029  0.1850
  517SOL    HW2 1834   0.361   5.141   1.135 -0.1371  0.0225  0.8531
  517SOL    HW3 1835   0.281   5.200   1.248 -2.4263  1.4955 -1.4235
  517SOL    MW4 1836   0.292   5.139   1.187 -0.7582  0.2024  0.0609
  518SOL     OW 1837   1.881   5.023   1.228  0.0985  0.1838  0.3023
  518SOL    HW2 1838   1.950   5.049   1.289  1.1240 -0.5314 -0.5055
  518SOL    HW3 1839   1.808   4.996   1.284  0.5010  0.8676  1.1803
  518SOL    MW4 1840   1.881   5.023   1.243  0.2869  0.1796  0.3116
  519SOL     OW 1841   6.251   6.234   6.148  0.6454  0.0183  0.3774
  519SOL    HW2 1842   6.254   6.139   6.161  2.6340  0.0115  0.1864
  519SOL    HW3 1843   6.229   6.269   6.235 -2.5638 -0.6470 -0.0575
  519SOL    MW4 1844   6.249   6.226   6.161  0.4844 -0.0704  0.2948
  520SOL     OW 1845   2.365   0.083   6.224 -0.3329  0.1507 -0.3355
  520SOL    HW2 1846   2.406   0.111   6.142 -1.4254  1.2860 -0.5230
  520SOL    HW3 1847   2.437   0.048   6.276  1.1041  2.9517 -0.2450
  520SOL    MW4 1848   2.380   0.082   6.220 -0.2874  0.6701 -0.3483
  521SOL     OW 1849   3.307   5.020   1.597 -0.4452  0.0747  0.2191
  521SOL    HW2 1850   3.295   5.102   1.549  1.5286 -1.2522 -2.9104
  521SOL    HW3 1851   3.235   4.964   1.567  0.2626 -0.4570 -0.5372
  521SOL    MW4 1852   3.296   5.023   1.587 -0.0914 -0.1705 -0.2936
  522SOL     OW 1853   3.311   2.324   2.665 -0.8114 -0.1057 -0.6022
  522SOL    HW2 1854   3.237   2.325   2.725  1.0099  0.9103  1.7673
  522SOL    HW3 1855   3.385   2.297   2.718  0.7233 -0.2015 -2.6723
  522SOL    MW4 1856   3.311   2.321   2.680 -0.3686  0.0157 -0.5627
  523SOL     OW 1857   3.290   2.876   0.508  0.5232  0.4326  0.1863
  523SOL    HW2 1858   3.281   2.781   0.509  0.8979  0.3926 -0.0101
  523SOL    HW3 1859   3.380   2.891   0.478 -0.2640  0.8976 -2.1504
  523SOL    MW4 1860   3.301   2.865   0.504  0.4688  0.4887 -0.1479
  524SOL     OW 1861   1.269   0.980   3.954  0.0681  0.0946 -0.2371
  524SOL    HW2 1862   1.216   0.930   3.892  0.2401  1.4009 -1.4652
  524SOL    HW3 1863   1.359   0.953   3.936  0.0303 -0.3304  0.1973
  524SOL    MW4 1864   1.273   0.970   3.944  0.0858  0.2109 -0.3418
  525SOL     OW 1865   5.500   2.710   5.006  0.6386  0.2334  0.0292
  525SOL    HW2 1866   5.533   2.800   5.007  0.6833  0.2214 -0.2437
  525SOL    HW3 1867   5.549   2.665   5.075  2.2615 -0.1541 -1.3083
  525SOL    MW4 1868   5.511   2.716   5.015  0.8586  0.1807 -0.1833
  526SOL     OW 1869   3.964   5.998   0.009 -0.2749 -0.3508  0.2656
  526SOL    HW2 1870   3.941   6.090  -0.004 -2.7361 -0.4335  3.0773
  526SOL    HW3 1871   3.937   5.955  -0.072  0.5069  1.2865 -0.9198
  526SOL    MW4 1872   3.958   6.004  -0.003 -0.4965 -0.1457  0.4802
  527SOL     OW 1873   2.163   5.288   5.543  0.2446 -0.2033 -0.2783
  527SOL    HW2 1874   2.070   5.304   5.556  0.3276 -0.9321  1.3898
  527SOL    HW3 1875   2.169   5.259   5.452 -1.2171 -0.5369 -0.2951
  527SOL    MW4 1876   2.151   5.286   5.532  0.0627 -0.3434 -0.0604
  528SOL     OW 1877   4.320   4.416   4.175  0.3104  0.3159  0.4680
  528SOL    HW2 1878   4.237   4.402   4.131  0.6817  0.1228 -0.1854
  528SOL    HW3 1879   4.385   4.375   4.118  0.8887  0.7158  0.8245
  528SOL    MW4 1880   4.318   4.408   4.162  0.4356  0.3432  0.4288
  529SOL     OW 1881   6.202   0.376   4.960 -0.0458 -0.3345 -0.0628
  529SOL    HW2 1882   6.259   0.424   5.020 -0.0169 -3.0700  2.2685
  529SOL    HW3 1883   6.134   0.338   5.016 -0.6084 -2.2444 -1.8968
  529SOL    MW4 1884   6.200   0.378   4.975 -0.1162 -0.9474  0.0028
  530SOL     OW 1885   5.463   5.009   6.364 -0.0642  0.8275  0.4301
  530SOL    HW2 1886   5.520   5.077   6.400 -1.3815  1.9348  0.4811
  530SOL    HW3 1887   5.400   4.990   6.434  1.0031 -1.3720  0.8903
  530SOL    MW4 1888   5.462   5.015   6.378 -0.0972  0.6834  0.4975
  531SOL     OW 1889   5.624   1.059   5.804 -0.0280 -0.3258  0.0916
  531SOL    HW2 1890   5.668   1.048   5.720 -0.1734  1.2286 -0.2236
  531SOL    HW3 1891   5.532   1.072   5.782  0.1848  2.0000  0.2812
  531SOL    MW4 1892   5.618   1.059   5.790 -0.0191  0.1861  0.0750
  532SOL     OW 1893   1.083   5.260   5.567 -0.2929  0.0913 -0.0370
  532SOL    HW2 1894   1.052   5.320   5.499  0.8952  0.5675 -0.1909
  532SOL    HW3 1895   1.064   5.304   5.649 -1.3298 -0.2851 -0.0637
  532SOL    MW4 1896   1.077   5.274   5.569 -0.2730  0.1045 -0.0608
  533SOL     OW 1897   2.784   1.642   5.147  0.7244 -0.1380  0.1998
  533SOL    HW2 1898   2.833   1.721   5.123 -1.1487  0.7184 -0.9733
  533SOL    HW3 1899   2.816   1.575   5.087  0.0568  0.5764 -0.9859
  533SOL    MW4 1900   2.795   1.644   5.136  0.3892  0.0693 -0.1114
  534SOL     OW 1901   3.535   3.718   5.438  0.5461  0.9938  0.2663
  534SOL    HW2 1902   3.554   3.780   5.367  0.3133 -0.4170 -1.0715
  534SOL    HW3 1903   3.446   3.688   5.420  0.8800 -0.1895  0.5030
  534SOL    MW4 1904   3.526   3.723   5.426  0.5594  0.6515  0.1211
  535SOL     OW 1905   1.367   5.457   2.595  0.1303 -0.1142  0.1734
  535SOL    HW2 1906   1.383   5.406   2.515 -0.4170 -1.2705  0.7741
  535SOL    HW3 1907   1.277   5.436   2.619  0.8357 -1.2178  2.0624
  535SOL    MW4 1908   1.357   5.447   2.588  0.1512 -0.4124  0.5019
  536SOL     OW 1909   2.635   2.037   5.649  0.2043  0.1725 -0.3911
  536SOL    HW2 1910   2.692   2.111   5.630  0.0643  0.5923  0.7325
  536SOL    HW3 1911   2.674   1.996   5.726 -1.1125  0.5996  0.5314
  536SOL    MW4 1912   2.648   2.042   5.657  0.0121  0.2843 -0.1211
  537SOL     OW 1913   2.906   1.939   5.293  1.1543 -0.7823  0.4285
  537SOL    HW2 1914   2.855   1.993   5.233  0.9516 -2.3038 -0.8310
  537SOL    HW3 1915   2.965   2.000   5.337 -0.0816  0.6523  0.1515
  537SOL    MW4 1916   2.907   1.954   5.291  0.9645 -0.7938  0.2258
  538SOL     OW 1917   2.507   4.267   0.506  0.4260 -0.3481  0.2646
  538SOL    HW2 1918   2.602   4.273   0.506  0.3752  0.8059 -0.9474
  538SOL    HW3 1919   2.489   4.178   0.474  1.0804 -1.1861  2.1022
  538SOL    MW4 1920   2.517   4.256   0.502  0.5057 -0.3064  0.3471
  539SOL     OW 1921   0.761   5.536   2.178  0.3986 -0.6285  0.2432
  539SOL    HW2 1922   0.690   5.486   2.137 -2.1310  0.9032  2.4395
  539SOL    HW3 1923   0.802   5.583   2.105 -1.4917 -0.8385 -1.0257
  539SOL    MW4 1924   0.757   5.536   2.163 -0.1846 -0.4541  0.3656
  540SOL     OW 1925   1.235   0.484   0.974 -0.1042  0.0687 -0.2259
  540SOL    HW2 1926   1.259   0.420   1.041  0.8789 -0.0934 -0.7061
  540SOL    HW3 1927   1.288   0.459   0.898 -0.4150  0.8844 -0.7164
  540SOL    MW4 1928   1.245   0.472   0.973 -0.0155  0.1549 -0.3539
  541SOL     OW 1929   3.112   0.451   2.844  0.6921 -0.2064 -0.5945
  541SOL    HW2 1930   3.035   0.483   2.891  0.1197  0.2864 -1.8125
  541SOL    HW3 1931   3.078   0.384   2.784  1.0420  0.6632 -1.8055
  541SOL    MW4 1932   3.097   0.446   2.842  0.6628 -0.0267 -0.9150
  542SOL     OW 1933   1.178   3.799   1.992  0.0461  0.2902 -0.9887
  542SOL    HW2 1934   1.123   3.758   2.058  0.1257  1.0509 -0.4427
  542SOL    HW3 1935   1.232   3.727   1.958  1.3763  0.1975  1.1337
  542SOL    MW4 1936   1.178   3.784   1.996  0.2321  0.3783 -0.6366
  543SOL     OW 1937   4.059   3.265   0.112 -0.3046  0.2885  0.1104
  543SOL    HW2 1938   4.133   3.280   0.053 -0.8247 -1.9199 -1.1941
  543SOL    HW3 1939   3.984   3.306   0.068 -0.4363 -0.1501 -0.0715
  543SOL    MW4 1940   4.059   3.272   0.099 -0.3906 -0.0608 -0.0857
  544SOL     OW 1941   5.688   4.590   2.588 -0.3317 -0.3325  0.8174
  544SOL    HW2 1942   5.764   4.643   2.612 -0.8888  0.3173  1.1938
  544SOL    HW3 1943   5.621   4.615   2.651 -1.6871  1.0435 -1.0508
  544SOL    MW4 1944   5.689   4.600   2.600 -0.5840 -0.0652  0.6206
  545SOL     OW 1945   4.545   0.792   5.210  0.0562 -0.4226 -0.2566
  545SOL    HW2 1946   4.603   0.833   5.145  3.2769 -2.0602  1.3215
  545SOL    HW3 1947   4.501   0.722   5.161  0.4683 -0.0235 -1.2291
  545SOL    MW4 1948   4.547   0.788   5.195  0.5355 -0.5860 -0.1767
  546SOL     OW 1949   0.468   1.942   5.048  0.8241 -0.3257 -0.1754
  546SOL    HW2 1950   0.396   1.945   4.984 -1.7788  2.5142  2.5462
  546SOL    HW3 1951   0.441   1.877   5.112  0.2862  1.1349  1.1488
  546SOL    MW4 1952   0.455   1.934   5.048  0.4097  0.2417  0.3584
  547SOL     OW 1953   2.463   2.603   0.448  0.5645  0.7458 -0.7230
  547SOL    HW2 1954   2.412   2.525   0.427 -1.1748  1.6811 -0.1798
  547SOL    HW3 1955   2.524   2.612   0.374  0.9998 -1.2419 -0.6629
  547SOL    MW4 1956   2.465   2.594   0.435  0.3925  0.6069 -0.6434
  548SOL     OW 1957   3.822   4.639   0.315 -0.0561  0.1564  0.4260
  548SOL    HW2 1958   3.849   4.710   0.373 -0.4798  1.5954 -1.0566
  548SOL    HW3 1959   3.904   4.601   0.283  0.2119  1.1492 -0.1112
  548SOL    MW4 1960   3.836   4.644   0.318 -0.0766  0.4772  0.1595
  549SOL     OW 1961   5.438   5.689   3.616 -0.0174  0.5582 -0.1670
  549SOL    HW2 1962   5.356   5.710   3.572 -0.4057 -0.4441  0.0409
  549SOL    HW3 1963   5.431   5.596   3.636  1.7889  0.1057 -1.4315
  549SOL    MW4 1964   5.426   5.679   3.613  0.1697  0.3663 -0.3064
  550SOL     OW 1965   5.954   0.694   2.891 -0.8517  0.1442  0.3334
  550SOL    HW2 1966   5.918   0.625   2.836 -3.6957  0.7674  1.2577
  550SOL    HW3 1967   6.037   0.717   2.849 -1.0426 -2.0379 -1.4340
  550SOL    MW4 1968   5.960   0.688   2.878 -1.2521 -0.0615  0.2222
  551SOL     OW 1969   2.029   4.577   5.087  0.1184  0.5059 -0.0377
  551SOL    HW2 1970   2.013   4.555   5.179  0.1320 -0.9667 -0.3537
  551SOL    HW3 1971   2.057   4.668   5.088  1.4715  0.1236  1.5834
  551SOL    MW4 1972   2.031   4.586   5.099  0.2987  0.2612  0.1345
  552SOL     OW 1973   4.051   3.509   0.392  0.1210  0.1415 -0.4163
  552SOL    HW2 1974   4.023   3.532   0.303 -0.2314  0.6599 -0.1812
  552SOL    HW3 1975   4.055   3.593   0.438  1.7215  0.0496 -0.3295
  552SOL    MW4 1976   4.048   3.523   0.386  0.2857  0.1978 -0.3738
  553SOL     OW 1977   3.819   6.180   1.280 -0.8764  0.3957  0.1335
  553SOL    HW2 1978   3.876   6.189   1.356 -1.2821  0.1769  0.4642
  553SOL    HW3 1979   3.835   6.260   1.229  1.0049 -0.4359 -0.6675
  553SOL    MW4 1980   3.829   6.192   1.283 -0.6817  0.2571  0.0714
  554SOL     OW 1981   4.007   2.801   1.313  0.5291  0.3656 -0.5090
  554SOL    HW2 1982   4.033   2.880   1.358 -0.2010  0.4017 -0.1368
  554SOL    HW3 1983   4.089   2.761   1.284  0.9783  0.5818  0.4339
  554SOL    MW4 1984   4.021   2.806   1.315  0.4920  0.3989 -0.3355
  555SOL     OW 1985   2.366   5.512   5.725  0.1700  0.1745  0.2086
  555SOL    HW2 1986   2.411   5.592   5.699 -0.2250  0.4246  0.2773
  555SOL    HW3 1987   2.345   5.468   5.643 -0.9375  0.8848  0.0791
  555SOL    MW4 1988   2.369   5.517   5.711 -0.0282  0.3012  0.2006
  556SOL     OW 1989   1.722   1.940   5.626  0.1991 -0.4027  0.7171
  556SOL    HW2 1990   1.786   1.903   5.687  1.2474 -0.3762 -0.3469
  556SOL    HW3 1991   1.742   2.034   5.623  0.7703 -0.5495 -0.3747
  556SOL    MW4 1992   1.733   1.948   5.634  0.4128 -0.4185  0.4327
  557SOL     OW 1993   6.400   1.085   6.402 -0.1214  0.5429  0.0959
  557SOL    HW2 1994   6.454   1.083   6.481  0.5475  0.7338 -0.3440
  557SOL    HW3 1995   6.430   1.162   6.354  0.7377 -0.5402 -1.1829
  557SOL    MW4 1996   6.411   1.095   6.406  0.0802  0.4252 -0.1308
  558SOL     OW 1997   1.786   5.231   2.525  0.3308 -0.8292  0.2087
  558SOL    HW2 1998   1.819   5.290   2.593  1.4974 -2.0188  0.7197
  558SOL    HW3 1999   1.860   5.173   2.505  0.4610  0.2319 -2.9922
  558SOL    MW4 2000   1.800   5.231   2.531  0.5019 -0.8462 -0.1462
  559SOL     OW 2001   4.973   4.285   4.804  1.4938  0.9969 -0.2855
  559SOL    HW2 2002   4.924   4.309   4.726  2.1736  1.0693 -0.7011
  559SOL    HW3 2003   5.023   4.208   4.779 -0.3998 -0.7346  0.9379
  559SOL    MW4 2004   4.973   4.278   4.791  1.3337  0.7780 -0.1789
  560SOL     OW 2005   0.704   1.453   2.134  0.4909 -0.4975  0.0124
  560SOL    HW2 2006   0.674   1.374   2.091  0.6724 -0.5028 -0.1031
  560SOL    HW3 2007   0.791   1.431   2.168  0.4662 -0.4060  0.1360
  560SOL    MW4 2008   0.712   1.440   2.133  0.5116 -0.4861  0.0135
  561SOL     OW 2009   1.778   4.418   1.970  0.4526 -0.6839  0.3178
  561SOL    HW2 2010   1.761   4.397   2.062 -2.5201  0.0900  0.0537
  561SOL    HW3 2011   1.766   4.512   1.964 -0.0799 -0.8089 -0.9553
  561SOL    MW4 2012   1.774   4.427   1.982 -0.0098 -0.5983  0.1150
  562SOL     OW 2013   4.518   1.395   6.022 -0.2905 -0.2346  0.2169
  562SOL    HW2 2014   4.428   1.423   6.004  0.0175  1.1935  0.7150
  562SOL    HW3 2015   4.509   1.311   6.067 -1.4710  0.6251  1.6800
  562SOL    MW4 2016   4.504   1.388   6.026 -0.4056  0.0672  0.4756
  563SOL     OW 2017   2.311   2.028   5.508  0.3277  0.3407  0.0776
  563SOL    HW2 2018   2.240   2.060   5.564 -0.1843  0.5464 -0.6825
  563SOL    HW3 2019   2.357   2.107   5.480  1.2213  0.1810  1.0122
  563SOL    MW4 2020   2.308   2.042   5.512  0.3780  0.3467  0.1007
  564SOL     OW 2021   4.484   5.047   4.101  0.0104  0.2040  0.3773
  564SOL    HW2 2022   4.411   4.985   4.097  0.8680 -0.8635  0.8123
  564SOL    HW3 2023   4.487   5.074   4.193 -1.7084  2.6250 -0.1601
  564SOL    MW4 2024   4.475   5.043   4.113 -0.1033  0.3826  0.3638
  565SOL     OW 2025   3.752   2.516   5.480 -0.0874 -0.4527  0.3281
  565SOL    HW2 2026   3.768   2.608   5.463 -2.8626  0.5321  2.3024
  565SOL    HW3 2027   3.750   2.475   5.393 -0.6419  1.7234 -0.7352
  565SOL    MW4 2028   3.754   2.522   5.466 -0.5267 -0.0357  0.4483
  566SOL     OW 2029   2.582   5.383   0.454  0.3486  0.1762  0.1041
  566SOL    HW2 2030   2.677   5.373   0.446  0.3159 -0.3862  0.4333
  566SOL    HW3 2031   2.549   5.377   0.364  0.5240 -0.6606  0.0932
  566SOL    MW4 2032   2.590   5.381   0.441  0.3675 -0.0084  0.1461
  567SOL     OW 2033   1.442   5.206   6.049 -0.0078  0.4088  0.0819
  567SOL    HW2 2034   1.457   5.297   6.074 -0.7576  0.3731  0.7273
  567SOL    HW3 2035   1.460   5.203   5.955 -1.1452  1.5084 -0.2087
  567SOL    MW4 2036   1.446   5.217   6.040 -0.2568  0.5492  0.1287
  568SOL     OW 2037   5.544   0.276   4.802 -0.0052  0.1320 -0.0070
  568SOL    HW2 2038   5.524   0.231   4.884 -0.2094 -1.1472 -0.7314
  568SOL    HW3 2039   5.640   0.277   4.797  0.0213  0.6839  0.4817
  568SOL    MW4 2040   5.554   0.270   4.812 -0.0286  0.0360 -0.0381
  569SOL     OW 2041   5.002   3.426   1.545  0.1576 -0.1703  0.3144
  569SOL    HW2 2042   4.952   3.502   1.516 -0.6140 -0.8269 -0.1204
  569SOL    HW3 2043   4.935   3.364   1.573  0.8239 -0.0340  2.3589
  569SOL    MW4 2044   4.986   3.428   1.545  0.1437 -0.2390  0.5268
  570SOL     OW 2045   5.125   3.724   6.345  0.0863 -0.1571 -0.0093
  570SOL    HW2 2046   5.192   3.787   6.319 -0.6333  0.1457 -1.2140
  570SOL    HW3 2047   5.098   3.752   6.432  0.2002  0.8408 -0.2880
  570SOL    MW4 2048   5.130   3.736   6.353  0.0064  0.0145 -0.2050
  571SOL     OW 2049   2.816   1.453   3.354 -0.5033 -0.0174  0.8566
  571SOL    HW2 2050   2.732   1.416   3.379  0.2662 -1.1553  1.8352
  571SOL    HW3 2051   2.865   1.380   3.317 -0.1258  0.7545 -0.2165
  571SOL    MW4 2052   2.811   1.439   3.352 -0.3519 -0.0657  0.8441
  572SOL     OW 2053   1.044   5.914   0.873  0.1044  0.0053  0.1823
  572SOL    HW2 2054   1.110   5.888   0.809  1.9590  0.7066  1.6939
  572SOL    HW3 2055   0.962   5.917   0.824  1.5036  0.9513 -2.2502
  572SOL    MW4 2056   1.042   5.911   0.858  0.5337  0.2226  0.0608
  573SOL     OW 2057   5.716   6.002   1.048 -0.2107  0.3196 -0.0738
  573SOL    HW2 2058   5.744   5.912   1.033  1.0755  0.7553 -0.4432
  573SOL    HW3 2059   5.621   6.000   1.033 -0.4135 -1.2005  1.1359
  573SOL    MW4 2060   5.707   5.990   1.044 -0.0677  0.1766  0.0371
  574SOL     OW 2061   4.737   4.597   4.727  0.5766  0.2011 -0.7273
  574SOL    HW2 2062   4.699   4.510   4.730 -0.3009  0.5819  1.5160
  574SOL    HW3 2063   4.824   4.585   4.689  1.3769 -2.0495  1.5592
  574SOL    MW4 2064   4.744   4.584   4.723  0.5664 -0.0456 -0.1296
  575SOL     OW 2065   2.268   4.504   1.731 -0.1129  0.5693  0.1773
  575SOL    HW2 2066   2.177   4.478   1.713  0.2450  0.0441 -0.9340
  575SOL    HW3 2067   2.312   4.423   1.755  0.1755  0.7408  0.2310
  575SOL    MW4 2068   2.262   4.490   1.732 -0.0276  0.5227  0.0378
  576SOL     OW 2069   1.391   1.601   0.995  0.2838  0.2111  0.1054
  576SOL    HW2 2070   1.332   1.601   1.071 -0.8398  1.2429 -0.7279
  576SOL    HW3 2071   1.348   1.659   0.932  1.5161 -0.1250 -1.0752
  576SOL    MW4 2072   1.377   1.609   0.997  0.2982  0.3029 -0.1603
  577SOL     OW 2073   5.921   2.258   3.272 -0.6128 -0.0922 -0.2672
  577SOL    HW2 2074   5.945   2.320   3.203  0.0232 -1.7026 -1.5434
  577SOL    HW3 2075   5.932   2.308   3.353 -2.6972  2.2744 -1.3222
  577SOL    MW4 2076   5.925   2.273   3.274 -0.8039  0.0076 -0.5748
  578SOL     OW 2077   4.714   4.197   0.749  0.2408  0.0301 -0.3963
  578SOL    HW2 2078   4.747   4.109   0.732 -1.1942 -1.0367  1.8971
  578SOL    HW3 2079   4.782   4.239   0.801  0.1227 -0.3966  0.1074
  578SOL    MW4 2080   4.727   4.191   0.753  0.0359 -0.1669 -0.0273
  579SOL     OW 2081   1.611   3.756   0.589 -0.6626  0.0557  1.0399
  579SOL    HW2 2082   1.577   3.765   0.500  0.2357  0.8125  0.7485
  579SOL    HW3 2083   1.544   3.795   0.645 -1.9357 -1.7941  0.8727
  579SOL    MW4 2084   1.598   3.763   0.585 -0.7120 -0.0885  0.9794
  580SOL     OW 2085   0.459   4.827   5.520  0.6167  0.2063  0.4729
  580SOL    HW2 2086   0.506   4.874   5.451 -1.6518  2.0095  0.0331
  580SOL    HW3 2087   0.459   4.887   5.594  0.6786 -0.6034  1.1421
  580SOL    MW4 2088   0.465   4.841   5.520  0.3256  0.3374  0.5032
  581SOL     OW 2089   2.037   2.452   2.255  0.1111  0.6609  0.2926
  581SOL    HW2 2090   2.029   2.380   2.193  1.0235 -0.2624  1.2027
  581SOL    HW3 2091   1.995   2.526   2.211 -1.0444 -0.4575 -0.5794
  581SOL    MW4 2092   2.030   2.452   2.241  0.0790  0.3915  0.2976
  582SOL     OW 2093   5.402   0.215   4.107  0.1271 -0.2810 -0.2792
  582SOL    HW2 2094   5.399   0.136   4.161 -0.6163 -0.9435 -1.2531
  582SOL    HW3 2095   5.452   0.189   4.029  1.6542  0.8165  0.2898
  582SOL    MW4 2096   5.408   0.201   4.103  0.2305 -0.2236 -0.3326
  583SOL     OW 2097   0.336   2.660   0.030 -0.1108  0.5747  0.4228
  583SOL    HW2 2098   0.278   2.599  -0.016 -0.9633  1.9787 -0.4343
  583SOL    HW3 2099   0.424   2.631   0.006 -0.4673 -0.7759  0.6553
  583SOL    MW4 2100   0.340   2.648   0.020 -0.2703  0.5818  0.3404
  584SOL     OW 2101   4.346   2.600   4.029  0.5152  0.0754 -0.2213
  584SOL    HW2 2102   4.363   2.619   4.121 -0.5903  3.8465 -0.6164
  584SOL    HW3 2103   4.254   2.572   4.026 -0.2455  2.3481 -0.2953
  584SOL    MW4 2104   4.336   2.599   4.040  0.2690  0.8728 -0.2832
  585SOL     OW 2105   6.219   5.575   1.261  0.2244 -0.0956 -0.3473
  585SOL    HW2 2106   6.265   5.656   1.282  0.2298  0.3359 -1.9142
  585SOL    HW3 2107   6.141   5.603   1.214 -0.2943 -0.9632 -0.0298
  585SOL    MW4 2108   6.215   5.589   1.257  0.1567 -0.1531 -0.5121
  586SOL     OW 2109   4.965   5.126   2.365  0.5540  0.6539 -0.4084
  586SOL    HW2 2110   4.960   5.067   2.290 -1.0179  0.0334  0.1566
  586SOL    HW3 2111   5.058   5.125   2.390  0.9036  0.0193 -1.6451
  586SOL    MW4 2112   4.977   5.118   2.358  0.3927  0.4883 -0.4970
  587SOL     OW 2113   1.689   3.406   2.332  0.2907  0.0471  0.4322
  587SOL    HW2 2114   1.719   3.468   2.399 -0.4021 -0.2326  1.0117
  587SOL    HW3 2115   1.594   3.409   2.337  0.1589  1.1068 -1.5620
  587SOL    MW4 2116   1.681   3.415   2.341  0.1819  0.1500  0.2455
  588SOL     OW 2117   5.557   1.454   6.062 -0.1018  0.7875 -0.0094
  588SOL    HW2 2118   5.608   1.504   6.126  1.0000  3.4930 -2.7507
  588SOL    HW3 2119   5.615   1.381   6.037 -0.2643  0.1104  1.4527
  588SOL    MW4 2120   5.572   1.451   6.067  0.0221  1.0551 -0.1782
  589SOL     OW 2121   3.084   0.083   4.703 -0.0002  0.3712 -0.0586
  589SOL    HW2 2122   3.177   0.067   4.722 -0.0004 -0.4606 -0.6694
  589SOL    HW3 2123   3.037   0.027   4.765 -0.0708  0.1765 -0.2847
  589SOL    MW4 2124   3.090   0.073   4.713 -0.0096  0.2358 -0.1690
  590SOL     OW 2125   1.051   2.304   2.078  0.0732  0.1753 -0.4571
  590SOL    HW2 2126   1.113   2.354   2.132  1.5763 -0.9762 -1.0402
  590SOL    HW3 2127   1.041   2.221   2.124 -0.8378  0.2320 -0.5341
  590SOL    MW4 2128   1.058   2.300   2.091  0.1513  0.0309 -0.5442
  591SOL     OW 2129   4.754   3.706   2.543  0.0321 -0.1601 -0.4512
  591SOL    HW2 2130   4.724   3.623   2.579 -0.2374  0.0842 -0.1014
  591SOL    HW3 2131   4.675   3.748   2.509 -0.2091  0.8443  1.2072
  591SOL    MW4 2132   4.740   3.701   2.544 -0.0353  0.0047 -0.1862
  592SOL     OW 2133   4.826   5.363   1.335  0.7752  0.8832  0.3047
  592SOL    HW2 2134   4.860   5.392   1.251 -2.0406 -0.7864 -1.6097
  592SOL    HW3 2135   4.770   5.435   1.364 -0.3254  0.4567 -0.6601
  592SOL    MW4 2136   4.823   5.376   1.328  0.2585  0.6067 -0.0751
  593SOL     OW 2137   5.690   2.311   0.204  0.6355  0.0067 -1.0178
  593SOL    HW2 2138   5.741   2.379   0.160 -0.3535 -1.1323 -4.1782
  593SOL    HW3 2139   5.747   2.234   0.203  0.4511 -0.1369 -0.6038
  593SOL    MW4 2140   5.704   2.309   0.198  0.4807 -0.1625 -1.3801
  594SOL     OW 2141   5.414   4.265   0.061 -0.2425  0.2414  0.2074
  594SOL    HW2 2142   5.451   4.339   0.012  1.1295 -0.1540  0.6143
  594SOL    HW3 2143   5.424   4.290   0.153  2.2368 -1.3145  0.4381
  594SOL    MW4 2144   5.420   4.278   0.067  0.2656 -0.0161  0.2915
  595SOL     OW 2145   3.240   3.480   0.791  0.0592 -0.3889  0.4468
  595SOL    HW2 2146   3.204   3.392   0.781  0.3495 -0.4520 -0.1045
  595SOL    HW3 2147   3.224   3.522   0.707  2.4654 -0.8845 -0.3341
  595SOL    MW4 2148   3.233   3.474   0.778  0.4150 -0.4626  0.2710
  596SOL     OW 2149   1.055   3.632   3.644 -0.4041 -0.2103 -0.1530
  596SOL    HW2 2150   1.013   3.701   3.593  0.9619  0.4088 -0.5095
  596SOL    HW3 2151   1.003   3.625   3.724 -0.7198  1.0660 -0.2259
  596SOL    MW4 2152   1.043   3.640   3.648 -0.2655  0.0398 -0.2097
  597SOL     OW 2153   1.015   2.207   1.668  0.3935  0.0368 -0.6145
  597SOL    HW2 2154   0.977   2.271   1.728  0.6838  0.5794 -1.0001
  597SOL    HW3 2155   1.026   2.128   1.721 -1.1839 -0.1238 -0.4608
  597SOL    MW4 2156   1.011   2.205   1.683  0.2237  0.0872 -0.6451
  598SOL     OW 2157   0.958   2.610   6.324 -0.3552  0.2516  0.2113
  598SOL    HW2 2158   0.894   2.555   6.369 -0.7068  0.7324  0.3100
  598SOL    HW3 2159   1.039   2.560   6.327 -1.2047 -1.3905 -1.9123
  598SOL    MW4 2160   0.960   2.596   6.331 -0.5137  0.0984 -0.0558
  599SOL     OW 2161   3.793   2.828   4.788  0.6467 -0.3856  0.1324
  599SOL    HW2 2162   3.851   2.893   4.747 -1.4716  2.3175  1.1048
  599SOL    HW3 2163   3.705   2.864   4.777 -0.5788 -2.6993  1.5417
  599SOL    MW4 2164   3.789   2.841   4.781  0.2055 -0.3342  0.4466
  600SOL     OW 2165   6.249   3.052   0.590 -0.1637 -0.2149  0.1680
  600SOL    HW2 2166   6.273   2.960   0.586  0.7335 -0.0484  1.2328
  600SOL    HW3 2167   6.282   3.090   0.508 -0.4366 -0.7987 -0.2178
  600SOL    MW4 2168   6.256   3.045   0.579 -0.0813 -0.2700  0.2576
  601SOL     OW 2169   1.815   6.159   2.842  0.5396 -0.0479 -0.1611
  601SOL    HW2 2170   1.776   6.227   2.787 -0.2617 -0.0519  0.3886
  601SOL    HW3 2171   1.897   6.138   2.798 -0.9747 -1.5220 -2.5620
  601SOL    MW4 2172   1.821   6.165   2.829  0.2341 -0.2429 -0.4053
  602SOL     OW 2173   1.133   2.944   6.098  0.4494  0.6035 -0.1387
  602SOL    HW2 2174   1.104   2.915   6.184 -0.6142  0.8410 -0.4041
  602SOL    HW3 2175   1.061   2.922   6.039  2.1014 -1.7469 -1.4321
  602SOL    MW4 2176   1.120   2.937   6.101  0.5270  0.3248 -0.3444
  603SOL     OW 2177   5.188   2.990   4.483  0.1749  0.5860 -0.4190
  603SOL    HW2 2178   5.267   2.967   4.434 -0.3595  0.6251 -1.3359
  603SOL    HW3 2179   5.120   2.934   4.445 -0.3483  0.9450 -0.0269
  603SOL    MW4 2180   5.189   2.979   4.471  0.0354  0.6385 -0.4882
  604SOL     OW 2181   6.460   1.487   1.458 -0.0562  0.3689  0.3309
  604SOL    HW2 2182   6.555   1.497   1.453 -0.0847  1.9547  2.1108
  604SOL    HW3 2183   6.433   1.477   1.367  1.8212 -0.3657 -0.2021
  604SOL    MW4 2184   6.469   1.487   1.445  0.1878  0.4812  0.4954
  605SOL     OW 2185   3.114   0.691   3.911  0.0171  0.1886  0.3340
  605SOL    HW2 2186   3.110   0.708   3.817 -0.3509  0.5107  0.4048
  605SOL    HW3 2187   3.109   0.778   3.952 -0.2465  0.0270  0.6569
  605SOL    MW4 2188   3.113   0.705   3.904 -0.0662  0.2098  0.3860
  606SOL     OW 2189   4.562   5.701   1.151 -0.5035 -0.0492  0.2162
  606SOL    HW2 2190   4.583   5.794   1.164 -1.2808  0.0967  0.4930
  606SOL    HW3 2191   4.588   5.659   1.233  1.5600 -0.4178 -0.5519
  606SOL    MW4 2192   4.568   5.708   1.164 -0.3338 -0.0786  0.1513
  607SOL     OW 2193   4.620   5.379   5.407 -0.4224  0.3496 -0.1528
  607SOL    HW2 2194   4.579   5.292   5.400  0.5277 -0.2029  0.8659
  607SOL    HW3 2195   4.677   5.384   5.331 -1.3719  0.5900 -0.8709
  607SOL    MW4 2196   4.622   5.368   5.396 -0.4223  0.3084 -0.1132
  608SOL     OW 2197   4.668   3.385   4.823 -0.1605 -0.8696 -0.0143
  608SOL    HW2 2198   4.725   3.357   4.752 -0.1727 -0.5043 -0.1692
  608SOL    HW3 2199   4.681   3.319   4.891  1.2264 -0.2437  0.3647
  608SOL    MW4 2200   4.677   3.372   4.823  0.0209 -0.7388  0.0153
  609SOL     OW 2201   6.435   1.281   2.477 -0.2368  0.0096  0.2199
  609SOL    HW2 2202   6.370   1.345   2.506 -0.0345 -0.4374  1.7614
  609SOL    HW3 2203   6.432   1.212   2.544  0.8603 -0.6788 -0.4146
  609SOL    MW4 2204   6.426   1.280   2.490 -0.0653 -0.1402  0.3396
  610SOL     OW 2205   3.909   4.953   3.750  0.2662 -0.2474  0.1303
  610SOL    HW2 2206   3.956   4.951   3.833  0.8978  0.0768 -0.2147
  610SOL    HW3 2207   3.973   4.984   3.686 -1.1143  3.0782  0.1583
  610SOL    MW4 2208   3.924   4.957   3.752  0.1674  0.2342  0.0885
  611SOL     OW 2209   2.322   0.899   4.276 -0.0049  0.0256  0.5008
  611SOL    HW2 2210   2.381   0.970   4.301 -1.9363  1.2461  1.7891
  611SOL    HW3 2211   2.332   0.834   4.347  1.1160 -0.6402 -0.2356
  611SOL    MW4 2212   2.331   0.900   4.289 -0.1118  0.0988  0.5736
  612SOL     OW 2213   4.260   5.501   5.641  0.0753  0.4056  0.0252
  612SOL    HW2 2214   4.337   5.503   5.583 -0.4232  1.8835 -0.6302
  612SOL    HW3 2215   4.185   5.500   5.581 -0.7051 -5.9679  0.3857
  612SOL    MW4 2216   4.260   5.501   5.625 -0.0934 -0.2403 -0.0137
  613SOL     OW 2217   4.694   3.654   0.610  0.3428  0.4562 -0.4202
  613SOL    HW2 2218   4.637   3.715   0.563  1.9238  1.8626 -0.6049
  613SOL    HW3 2219   4.705   3.693   0.696 -1.7288 -1.6036  0.9047
  613SOL    MW4 2220   4.688   3.667   0.615  0.2781  0.3700 -0.2698
  614SOL     OW 2221   3.611   3.511   2.041  0.4048  0.1690  0.0456
  614SOL    HW2 2222   3.612   3.423   2.079 -1.2090  0.3014  0.4788
  614SOL    HW3 2223   3.659   3.565   2.104 -0.7232  0.0484  1.0357
  614SOL    MW4 2224   3.618   3.506   2.055  0.0431  0.1705  0.2334
  615SOL     OW 2225   0.723   2.986   4.307  0.1357  0.0733 -0.1599
  615SOL    HW2 2226   0.774   2.919   4.351  0.4447  0.4168  0.0125
  615SOL    HW3 2227   0.788   3.046   4.270 -0.1129 -0.5218 -1.5947
  615SOL    MW4 2228   0.738   2.985   4.308  0.1437  0.0401 -0.3265
  616SOL     OW 2229   3.562   1.280   0.969  0.1328 -0.0542  0.1205
  616SOL    HW2 2230   3.546   1.186   0.978 -0.3725  0.1598  1.7795
  616SOL    HW3 2231   3.627   1.287   0.899  1.0813 -1.7105  0.8015
  616SOL    MW4 2232   3.568   1.268   0.961  0.1913 -0.2445  0.4293
  617SOL     OW 2233   4.079   3.980   5.021 -0.5048  0.3610  0.1330
  617SOL    HW2 2234   4.023   3.986   4.944  0.0207  3.2803 -0.1227
  617SOL    HW3 2235   4.019   3.963   5.093 -1.1317 -1.2219 -0.7036
  617SOL    MW4 2236   4.064   3.978   5.020 -0.5182  0.5373 -0.0111
  618SOL     OW 2237   5.595   3.141   3.322  0.1386 -0.4318 -0.3331
  618SOL    HW2 2238   5.673   3.165   3.273 -0.4676  0.7166 -0.7670
  618SOL    HW3 2239   5.555   3.224   3.346  0.9190 -0.8809  3.0329
  618SOL    MW4 2240   5.600   3.155   3.318  0.1616 -0.3395  0.0537
  619SOL     OW 2241   0.329   1.942   5.673 -0.6543  0.1578  0.4626
  619SOL    HW2 2242   0.388   1.933   5.598  0.3760  1.6994  1.0419
  619SOL    HW3 2243   0.262   2.005   5.643 -2.6433 -2.2589 -0.5161
  619SOL    MW4 2244   0.328   1.949   5.659 -0.7808  0.0424  0.4099
  620SOL     OW 2245   6.015   6.230   1.724  0.4022  0.3209  0.4122
  620SOL    HW2 2246   6.084   6.282   1.764  0.1535  0.1133  1.1329
  620SOL    HW3 2247   5.947   6.294   1.701  0.6084  0.4592  0.1838
  620SOL    MW4 2248   6.015   6.245   1.726  0.3966  0.3118  0.4771
  621SOL     OW 2249   1.105   1.965   4.286  0.0311 -0.8467 -0.1257
  621SOL    HW2 2250   1.152   1.949   4.204  0.7386  1.6852 -0.3058
  621SOL    HW3 2251   1.145   1.906   4.349  0.2153 -2.0612 -1.3290
  621SOL    MW4 2252   1.116   1.955   4.284  0.1487 -0.6729 -0.3082
  622SOL     OW 2253   3.351   0.075   4.771  0.0607  0.3597  0.0819
  622SOL    HW2 2254   3.351   0.168   4.796 -1.0009  0.1268  1.0451
  622SOL    HW3 2255   3.405   0.071   4.693  0.8756  1.6562  0.5437
  622SOL    MW4 2256   3.358   0.087   4.764  0.0281  0.5000  0.2699
  623SOL     OW 2257   6.353   6.259   0.522 -0.4103  0.1805 -0.4326
  623SOL    HW2 2258   6.323   6.194   0.458 -2.2107 -0.6548  1.1508
  623SOL    HW3 2259   6.398   6.208   0.589 -1.9614  0.4867  0.8990
  623SOL    MW4 2260   6.355   6.244   0.522 -0.8525  0.1107 -0.0480
  624SOL     OW 2261   3.269   0.974   4.240  0.6771  0.6350  0.0799
  624SOL    HW2 2262   3.300   1.065   4.236 -1.8177  1.6558  1.5666
  624SOL    HW3 2263   3.280   0.949   4.331  1.1403 -0.5189 -0.2795
  624SOL    MW4 2264   3.275   0.983   4.251  0.4091  0.6174  0.2286
  625SOL     OW 2265   5.662   3.914   0.334 -0.5448 -0.0832 -0.2479
  625SOL    HW2 2266   5.570   3.915   0.307 -0.1941 -0.9377 -1.5379
  625SOL    HW3 2267   5.711   3.930   0.253  0.4420  1.4353  0.5946
  625SOL    MW4 2268   5.656   3.917   0.320 -0.3683  0.0044 -0.3069
  626SOL     OW 2269   1.674   5.571   1.465  0.1847 -0.4659  0.3181
  626SOL    HW2 2270   1.702   5.620   1.543  0.7508 -1.3639  0.7018
  626SOL    HW3 2271   1.727   5.491   1.468 -0.5563 -0.9893 -0.4177
  626SOL    MW4 2272   1.685   5.567   1.476  0.1616 -0.6534  0.2716
  627SOL     OW 2273   5.241   6.242   1.813 -0.0343 -0.0542 -0.0508
  627SOL    HW2 2274   5.280   6.206   1.734  1.4175 -0.5369  0.8423
  627SOL    HW3 2275   5.287   6.326   1.826  0.2880 -0.3332  0.6765
  627SOL    MW4 2276   5.253   6.248   1.804  0.1998 -0.1547  0.1630
  628SOL     OW 2277   4.055   2.410   0.594 -0.1672  0.0605  0.4470
  628SOL    HW2 2278   4.020   2.486   0.640 -0.0916 -0.4878  1.4538
  628SOL    HW3 2279   4.146   2.405   0.623  0.2303  0.3844 -0.6947
  628SOL    MW4 2280   4.062   2.419   0.604 -0.1048  0.0309  0.4292
  629SOL     OW 2281   0.088   2.041   6.209 -0.0609  0.5503  0.0851
  629SOL    HW2 2282   0.156   2.078   6.265 -0.6042  1.4988  0.1436
  629SOL    HW3 2283   0.122   2.052   6.120 -0.4967  1.8473  0.0551
  629SOL    MW4 2284   0.101   2.047   6.204 -0.1901  0.8466  0.0889
  630SOL     OW 2285   3.787   3.598   6.067  0.1898 -0.3694 -0.0772
  630SOL    HW2 2286   3.795   3.686   6.031  0.4327 -0.1618  0.4839
  630SOL    HW3 2287   3.806   3.540   5.993  1.0470  0.0593 -0.1998
  630SOL    MW4 2288   3.791   3.602   6.052  0.3349 -0.2854 -0.0193
  631SOL     OW 2289   3.038   4.882   6.306  0.3118  0.2961 -0.2060
  631SOL    HW2 2290   2.972   4.873   6.375  0.4987  0.2267 -0.0363
  631SOL    HW3 2291   3.027   4.804   6.252  0.2749  0.2704 -0.1611
  631SOL    MW4 2292   3.028   4.870   6.308  0.3316  0.2835 -0.1777
  632SOL     OW 2293   1.788   5.965   3.872 -0.1866 -0.1296  0.3633
  632SOL    HW2 2294   1.738   6.040   3.906  2.6744  0.6354  3.3830
  632SOL    HW3 2295   1.796   5.906   3.947  0.2514 -2.0219 -1.1167
  632SOL    MW4 2296   1.782   5.967   3.887  0.2487 -0.2783  0.5664
  633SOL     OW 2297   3.630   2.620   3.976 -0.4519  0.0362 -0.5708
  633SOL    HW2 2298   3.652   2.614   4.069  0.2427 -1.5453 -0.8194
  633SOL    HW3 2299   3.705   2.665   3.936 -0.0616 -0.6049 -0.5792
  633SOL    MW4 2300   3.643   2.625   3.983 -0.3087 -0.2571 -0.6047
  634SOL     OW 2301   6.237   6.363   1.820  0.4729 -0.8607 -0.0380
  634SOL    HW2 2302   6.242   6.330   1.909  0.8716  1.3451  0.8291
  634SOL    HW3 2303   6.240   6.458   1.830 -0.9099 -0.5129 -2.3257
  634SOL    MW4 2304   6.238   6.371   1.833  0.3431 -0.5238 -0.2254
  635SOL     OW 2305   3.844   2.486   3.758  0.0712 -0.5722  0.5959
  635SOL    HW2 2306   3.836   2.433   3.838 -0.5277 -0.8599  0.3521
  635SOL    HW3 2307   3.938   2.486   3.739  0.0552 -1.7821  0.4479
  635SOL    MW4 2308   3.856   2.479   3.766 -0.0099 -0.7698  0.5442
  636SOL     OW 2309   0.665   0.075   3.720  0.2644  0.4007  0.4021
  636SOL    HW2 2310   0.614   0.097   3.641  0.0542 -1.3359  0.0138
  636SOL    HW3 2311   0.648   0.148   3.780 -1.7042  0.5014 -0.1829
  636SOL    MW4 2312   0.656   0.088   3.717 -0.0231  0.1849  0.2736
  637SOL     OW 2313   3.959   6.331   4.185 -0.1611 -0.1466  0.2647
  637SOL    HW2 2314   3.893   6.389   4.146  1.5617  2.1937  0.6266
  637SOL    HW3 2315   3.910   6.280   4.250 -1.9917 -0.0867 -0.9845
  637SOL    MW4 2316   3.944   6.332   4.189 -0.1753  0.1701  0.1476
  638SOL     OW 2317   2.129   5.873   5.148 -0.2234 -0.3763  0.5219
  638SOL    HW2 2318   2.072   5.910   5.216 -0.0019 -0.6747  0.8767
  638SOL    HW3 2319   2.180   5.947   5.116  0.2134 -0.3606  1.2233
  638SOL    MW4 2320   2.128   5.887   5.153 -0.1365 -0.4136  0.6612
  639SOL     OW 2321   0.675   1.959   2.606  0.2658 -0.1886 -0.4095
  639SOL    HW2 2322   0.605   1.926   2.550  1.0546  2.1430 -2.9812
  639SOL    HW3 2323   0.634   2.030   2.656  0.2114 -0.4989 -0.0078
  639SOL    MW4 2324   0.660   1.964   2.605  0.3627  0.0781 -0.6958
  640SOL     OW 2325   5.365   2.911   2.838 -0.3147  0.3261 -0.0595
  640SOL    HW2 2326   5.273   2.888   2.849 -0.1095  0.0252  1.1837
  640SOL    HW3 2327   5.408   2.829   2.817 -0.1798  0.2810  0.3871
  640SOL    MW4 2328   5.358   2.897   2.836 -0.2699  0.2804  0.1635
  641SOL     OW 2329   3.087   0.367   3.533 -0.1137 -0.1388 -0.3883
  641SOL    HW2 2330   3.127   0.438   3.482  0.2690  0.7753  1.1196
  641SOL    HW3 2331   3.154   0.342   3.596 -0.3437 -1.7006 -0.7309
  641SOL    MW4 2332   3.101   0.373   3.535 -0.0935 -0.2243 -0.2346
  642SOL     OW 2333   1.804   5.111   3.749  0.0335  0.1148 -0.0450
  642SOL    HW2 2334   1.766   5.096   3.836 -3.1680 -0.1767 -1.3715
  642SOL    HW3 2335   1.820   5.206   3.746  1.3390 -0.0171  1.2065
  642SOL    MW4 2336   1.801   5.122   3.760 -0.2167  0.0589 -0.0549
  643SOL     OW 2337   0.726   0.304   6.372  0.4041  0.4126 -0.0936
  643SOL    HW2 2338   0.727   0.228   6.314 -0.5680 -0.6066  1.1791
  643SOL    HW3 2339   0.804   0.354   6.347  1.4488 -1.3541 -0.4998
  643SOL    MW4 2340   0.737   0.301   6.361  0.4136  0.0450  0.0207
  644SOL     OW 2341   6.348   5.792   3.449 -0.0024 -0.4426  0.0697
  644SOL    HW2 2342   6.301   5.713   3.476  1.2024 -1.3165 -0.3461
  644SOL    HW3 2343   6.412   5.807   3.519 -0.0163 -0.0046 -0.0085
  644SOL    MW4 2344   6.350   5.783   3.462  0.1548 -0.5001  0.0045
  645SOL     OW 2345   0.222   0.451   3.605  0.5229  0.4569  0.2877
  645SOL    HW2 2346   0.305   0.447   3.558  1.0535 -1.7496  1.2753
  645SOL    HW3 2347   0.159   0.482   3.540  2.1948  2.8896 -0.2851
  645SOL    MW4 2348   0.224   0.455   3.590  0.8135  0.4868  0.3424
  646SOL     OW 2349   0.177   0.405   6.318 -0.5935  0.5687  0.6252
  646SOL    HW2 2350   0.123   0.333   6.287 -0.6059  1.4167 -1.5563
  646SOL    HW3 2351   0.267   0.375   6.305 -0.5880  1.1938 -1.1655
  646SOL    MW4 2352   0.182   0.392   6.312 -0.5944  0.7631  0.1011
  647SOL     OW 2353   3.951   1.892   0.942 -0.0122  0.6281 -0.2343
  647SOL    HW2 2354   3.967   1.918   0.852 -1.1932 -1.3062 -1.0673
  647SOL    HW3 2355   4.014   1.943   0.994  2.9402 -0.5108 -2.4190
  647SOL    MW4 2356   3.961   1.902   0.937  0.2215  0.2227 -0.6325
  648SOL     OW 2357   2.189   0.494   0.691 -0.1451  0.4755  0.2204
  648SOL    HW2 2358   2.257   0.556   0.719 -0.0783 -0.1126  1.4546
  648SOL    HW3 2359   2.237   0.419   0.658 -0.1727  0.0970  1.0089
  648SOL    MW4 2360   2.204   0.492   0.691 -0.1399  0.3480  0.4873
  649SOL     OW 2361   6.124   3.070   4.857  0.7806  0.5127 -0.6340
  649SOL    HW2 2362   6.152   3.160   4.839 -0.5260  0.7699 -1.4592
  649SOL    HW3 2363   6.191   3.036   4.917  1.6380  1.8161 -0.8166
  649SOL    MW4 2364   6.137   3.077   4.863  0.7214  0.7186 -0.7670
  650SOL     OW 2365   5.510   3.641   5.275  0.5559 -0.5128  0.0048
  650SOL    HW2 2366   5.497   3.547   5.279  0.2616 -0.4295  1.4702
  650SOL    HW3 2367   5.445   3.678   5.335  2.1681  0.4442  1.2617
  650SOL    MW4 2368   5.500   3.634   5.283  0.7298 -0.3755  0.3640
  651SOL     OW 2369   2.740   0.875   4.465 -0.3059  0.4134  0.7462
  651SOL    HW2 2370   2.816   0.903   4.516  0.9260  0.4440 -0.9768
  651SOL    HW3 2371   2.676   0.846   4.529 -0.0268  3.1882  2.4202
  651SOL    MW4 2372   2.742   0.875   4.480 -0.1065  0.7835  0.7398
  652SOL     OW 2373   1.403   4.907   3.514 -0.1992 -0.3512 -0.7168
  652SOL    HW2 2374   1.456   4.877   3.440  0.1144 -0.6646 -0.3635
  652SOL    HW3 2375   1.316   4.870   3.497  0.3406 -2.0888  0.0763
  652SOL    MW4 2376   1.398   4.898   3.502 -0.0866 -0.6218 -0.5655
  653SOL     OW 2377   3.067   0.935   5.489 -0.0632  0.5818  0.6644
  653SOL    HW2 2378   3.054   0.845   5.520 -0.3098 -0.8019 -2.9758
  653SOL    HW3 2379   2.990   0.982   5.522 -1.4604 -1.2908  0.3179
  653SOL    MW4 2380   3.055   0.929   5.498 -0.2801  0.1522  0.1384
  654SOL     OW 2381   0.972   5.292   4.545 -0.3366 -0.2757 -0.6225
  654SOL    HW2 2382   0.891   5.273   4.592  0.2444  0.3680  0.6980
  654SOL    HW3 2383   0.959   5.378   4.507  0.2864  0.5768  0.9880
  654SOL    MW4 2384   0.960   5.301   4.547 -0.1777 -0.0783 -0.2358
  655SOL     OW 2385   1.397   0.336   0.555 -0.1379  0.3385  0.2483
  655SOL    HW2 2386   1.393   0.393   0.631  0.9732  1.3451 -0.4119
  655SOL    HW3 2387   1.306   0.309   0.540 -0.6540  1.7456  0.7094
  655SOL    MW4 2388   1.384   0.340   0.563 -0.0594  0.6570  0.2220
  656SOL     OW 2389   6.003   4.888   3.357 -0.0925 -0.0498  0.5605
  656SOL    HW2 2390   5.982   4.807   3.403  0.4197  0.6676  2.1270
  656SOL    HW3 2391   5.950   4.955   3.401 -0.5901  0.4808 -0.7698
  656SOL    MW4 2392   5.993   4.886   3.369 -0.0906  0.1149  0.5916
  657SOL     OW 2393   1.967   2.818   3.622  0.4458 -0.2274  0.1608
  657SOL    HW2 2394   2.043   2.876   3.615 -0.5202  1.0756  0.0742
  657SOL    HW3 2395   1.910   2.845   3.549 -0.0872 -1.1939  0.2136
  657SOL    MW4 2396   1.970   2.830   3.611  0.2480 -0.1830  0.1563
  658SOL     OW 2397   5.509   4.311   6.129  0.3365  0.2199 -0.2359
  658SOL    HW2 2398   5.604   4.302   6.121  0.4363  1.4210 -0.6999
  658SOL    HW3 2399   5.496   4.361   6.209  0.0950  0.1319 -0.2179
  658SOL    MW4 2400   5.520   4.316   6.139  0.3178  0.3667 -0.2947
  659SOL     OW 2401   5.655   5.272   4.000 -0.4467 -0.3244  0.0131
  659SOL    HW2 2402   5.663   5.353   4.049  2.0208 -0.4521 -0.0900
  659SOL    HW3 2403   5.657   5.298   3.908  0.0202 -0.4710 -0.0201
  659SOL    MW4 2404   5.656   5.286   3.994 -0.0596 -0.3606 -0.0049
  660SOL     OW 2405   0.096   5.300   0.282  0.1665 -1.0548  0.5703
  660SOL    HW2 2406   0.060   5.212   0.273 -2.2101 -0.1128  0.2103
  660SOL    HW3 2407   0.071   5.345   0.202 -0.7370  0.6069  1.7296
  660SOL    MW4 2408   0.088   5.294   0.271 -0.2663 -0.7113  0.6758
  661SOL     OW 2409   1.241   0.186   4.785  0.0051 -0.3303  0.0642
  661SOL    HW2 2410   1.217   0.278   4.779  1.8329  0.2828  1.2591
  661SOL    HW3 2411   1.294   0.169   4.708 -0.8530 -0.5853 -0.4859
  661SOL    MW4 2412   1.245   0.196   4.774  0.1331 -0.2830  0.1493
  662SOL     OW 2413   2.263   1.557   2.752 -0.3533 -0.1320  0.0172
  662SOL    HW2 2414   2.352   1.570   2.784  0.2169  0.2430 -1.6183
  662SOL    HW3 2415   2.255   1.462   2.741  0.1778 -0.0939 -0.7219
  662SOL    MW4 2416   2.273   1.546   2.755 -0.2080 -0.0775 -0.2961
  663SOL     OW 2417   0.503   2.128   2.307 -0.3230  0.3230 -1.2015
  663SOL    HW2 2418   0.505   2.124   2.212 -2.1087  1.1491 -1.3150
  663SOL    HW3 2419   0.562   2.200   2.329  1.8912 -1.3067 -1.4824
  663SOL    MW4 2420   0.511   2.137   2.298 -0.2664  0.2170 -1.2536
  664SOL     OW 2421   2.439   4.810   2.127  0.3739 -0.0890  0.5563
  664SOL    HW2 2422   2.498   4.740   2.154 -0.7618 -2.1394 -1.8897
  664SOL    HW3 2423   2.352   4.779   2.153  0.0766  2.0102  2.3887
  664SOL    MW4 2424   2.435   4.797   2.134  0.1849 -0.0826  0.4754
  665SOL     OW 2425   6.298   2.455   2.371  0.1818  0.3628 -0.2804
  665SOL    HW2 2426   6.331   2.529   2.422  0.7901  0.2277 -0.4702
  665SOL    HW3 2427   6.249   2.496   2.299  1.1077  0.6055 -0.7838
  665SOL    MW4 2428   6.296   2.470   2.368  0.3842  0.3770 -0.3719
  666SOL     OW 2429   3.432   5.542   0.933 -0.2196  0.0130 -0.0648
  666SOL    HW2 2430   3.368   5.472   0.945 -0.6032  0.1289 -1.3318
  666SOL    HW3 2431   3.517   5.497   0.938 -0.3642 -0.1245  1.6933
  666SOL    MW4 2432   3.435   5.527   0.935 -0.2893  0.0101 -0.0000
  667SOL     OW 2433   5.038   1.014   0.297  0.0995  0.5202  0.3217
  667SOL    HW2 2434   5.014   0.936   0.347 -0.1596  0.1439 -0.3760
  667SOL    HW3 2435   5.134   1.015   0.298  0.1477 -0.6924 -0.9860
  667SOL    MW4 2436   5.047   1.004   0.304  0.0717  0.3106  0.0571
  668SOL     OW 2437   5.164   4.103   4.960 -0.2515  0.2983  0.1938
  668SOL    HW2 2438   5.192   4.095   4.869 -1.9108  1.7681 -0.5043
  668SOL    HW3 2439   5.215   4.177   4.995  0.3499 -0.2350  0.4648
  668SOL    MW4 2440   5.175   4.112   4.953 -0.3911  0.4219  0.1374
  669SOL     OW 2441   1.963   3.884   0.905 -0.0828  0.4949  0.2848
  669SOL    HW2 2442   1.942   3.820   0.974 -1.5302 -1.9881 -2.2551
  669SOL    HW3 2443   2.004   3.832   0.836  2.9777  3.1773 -0.1757
  669SOL    MW4 2444   1.966   3.869   0.905  0.1300  0.5212 -0.1111
  670SOL     OW 2445   4.863   0.638   4.299 -0.1674  0.0859 -0.8226
  670SOL    HW2 2446   4.935   0.694   4.269 -0.2960  0.3849 -0.5774
  670SOL    HW3 2447   4.820   0.609   4.218  0.2937 -0.1819 -0.9733
  670SOL    MW4 2448   4.867   0.642   4.284 -0.1235  0.0900 -0.8101
  671SOL     OW 2449   4.524   1.238   4.467  0.2330  0.8156  0.1511
  671SOL    HW2 2450   4.579   1.204   4.396 -0.6678  0.8544 -0.5751
  671SOL    HW3 2451   4.497   1.161   4.515  1.0856  0.8100  0.6540
  671SOL    MW4 2452   4.528   1.224   4.464  0.2267  0.8200  0.1216
  672SOL     OW 2453   4.242   4.218   1.368 -0.7371 -0.7836  0.0141
  672SOL    HW2 2454   4.307   4.149   1.359 -0.3049 -0.2457 -1.2170
  672SOL    HW3 2455   4.166   4.175   1.406 -0.2277 -1.7698 -0.0576
  672SOL    MW4 2456   4.241   4.203   1.372 -0.6129 -0.8428 -0.1577
  673SOL     OW 2457   4.046   1.985   4.515  0.2563 -0.2686  0.3768
  673SOL    HW2 2458   3.978   1.917   4.516  0.0848 -0.1037  0.1123
  673SOL    HW3 2459   4.089   1.977   4.600 -2.4970  2.0249  2.2197
  673SOL    MW4 2460   4.043   1.975   4.526 -0.1296  0.0557  0.5850
  674SOL     OW 2461   0.285   4.693   3.990  0.1509 -0.1190  0.5823
  674SOL    HW2 2462   0.335   4.748   3.930 -0.6976  0.0235 -0.0037
  674SOL    HW3 2463   0.276   4.747   4.069 -0.2475  0.4031  0.1916
  674SOL    MW4 2464   0.290   4.707   3.993 -0.0136 -0.0313  0.4534
  675SOL     OW 2465   0.891   2.643   4.141  0.1945  0.2579 -0.5132
  675SOL    HW2 2466   0.893   2.548   4.146 -0.4725  0.1812 -1.4285
  675SOL    HW3 2467   0.972   2.666   4.094  1.4983  0.3331  1.6079
  675SOL    MW4 2468   0.902   2.633   4.135  0.2785  0.2577 -0.3541
  676SOL     OW 2469   1.491   6.032   6.088 -1.1039  0.2563  0.0387
  676SOL    HW2 2470   1.519   6.017   5.998 -1.0650  1.5127 -0.1694
  676SOL    HW3 2471   1.432   5.959   6.107  0.9992 -1.5599 -0.0401
  676SOL    MW4 2472   1.487   6.020   6.079 -0.8213  0.1824  0.0009
  677SOL     OW 2473   4.502   0.011   2.485 -0.0058 -0.2729 -0.2391
  677SOL    HW2 2474   4.412   0.009   2.517  0.2070 -1.3570  0.3213
  677SOL    HW3 2475   4.542   0.086   2.531 -0.4744 -0.1078 -0.0965
  677SOL    MW4 2476   4.496   0.021   2.495 -0.0395 -0.3941 -0.1464
  678SOL     OW 2477   0.507   1.678   1.525 -0.3950  0.0749 -0.1629
  678SOL    HW2 2478   0.478   1.743   1.460 -1.6699  0.3174  0.6215
  678SOL    HW3 2479   0.574   1.628   1.479  0.2244  1.5790 -0.9868
  678SOL    MW4 2480   0.512   1.680   1.510 -0.4815  0.3053 -0.1681
  679SOL     OW 2481   6.012   0.061   3.874 -0.4392  0.4016 -0.6015
  679SOL    HW2 2482   6.083   0.045   3.936 -1.1901  0.1804  0.2124
  679SOL    HW3 2483   5.964  -0.022   3.869 -1.5346  0.9730  0.0222
  679SOL    MW4 2484   6.015   0.048   3.882 -0.6828  0.4478 -0.4118
  680SOL     OW 2485   0.674   0.348   5.695 -0.4192 -0.2173  0.3018
  680SOL    HW2 2486   0.707   0.267   5.735  0.6459  0.6596  1.2922
  680SOL    HW3 2487   0.587   0.359   5.733 -1.3052 -1.7582 -1.1473
  680SOL    MW4 2488   0.667   0.338   5.706 -0.3955 -0.3049  0.2413
  681SOL     OW 2489   0.356   5.195   5.170  0.2621  0.9127  0.0831
  681SOL    HW2 2490   0.311   5.117   5.135  1.5428 -0.0353  0.4543
  681SOL    HW3 2491   0.345   5.261   5.102 -1.5623  0.6991  0.1089
  681SOL    MW4 2492   0.348   5.193   5.156  0.1903  0.7594  0.1355
  682SOL     OW 2493   0.910   5.583   5.664 -0.1446  0.3036 -0.1131
  682SOL    HW2 2494   0.945   5.505   5.708  4.4441  2.3108  0.3096
  682SOL    HW3 2495   0.928   5.567   5.571 -1.6441 -0.1771 -0.3436
  682SOL    MW4 2496   0.917   5.570   5.657  0.2630  0.5050 -0.0877
  683SOL     OW 2497   3.476   3.761   2.613 -0.7146  0.4636 -0.4130
  683SOL    HW2 2498   3.486   3.793   2.703  0.5004  3.0559 -1.3548
  683SOL    HW3 2499   3.469   3.841   2.560 -0.4601 -0.9490 -2.7132
  683SOL    MW4 2500   3.476   3.776   2.618 -0.5207  0.6193 -0.8407
  684SOL     OW 2501   5.030   3.072   2.967 -0.5059  0.4630  0.2001
  684SOL    HW2 2502   4.942   3.044   2.992 -0.9650  0.2246 -1.5097
  684SOL    HW3 2503   5.075   2.991   2.943 -0.6826  0.7748 -1.3503
  684SOL    MW4 2504   5.024   3.058   2.967 -0.5898  0.4727 -0.2300
  685SOL     OW 2505   3.836   1.936   5.837 -0.1581 -0.5586  0.4413
  685SOL    HW2 2506   3.744   1.918   5.855 -0.9287  2.3151 -0.0692
  685SOL    HW3 2507   3.872   1.967   5.921  0.1706 -0.9935  0.4670
  685SOL    MW4 2508   3.829   1.938   5.851 -0.2164 -0.2369  0.3773
  686SOL     OW 2509   1.326   5.152   1.631 -0.3566  0.6274  0.2153
  686SOL    HW2 2510   1.324   5.239   1.593 -1.0367  1.1689  1.4499
  686SOL    HW3 2511   1.322   5.166   1.725  2.3107 -0.6224  0.6238
  686SOL    MW4 2512   1.325   5.165   1.638 -0.0944  0.5340  0.4321
  687SOL     OW 2513   1.558   4.002   1.583 -0.1946  0.4891 -0.5314
  687SOL    HW2 2514   1.590   3.938   1.521  0.9699  0.8849 -0.3534
  687SOL    HW3 2515   1.481   3.961   1.623  0.3526 -0.6584 -0.6383
  687SOL    MW4 2516   1.552   3.988   1.580  0.0313  0.3899 -0.5220
  688SOL     OW 2517   5.641   1.026   0.752  0.1954 -0.5407 -0.3587
  688SOL    HW2 2518   5.674   0.998   0.838  0.2550  0.6245  0.0045
  688SOL    HW3 2519   5.615   1.117   0.765 -0.8295 -0.6874 -1.2987
  688SOL    MW4 2520   5.642   1.034   0.765  0.0680 -0.4063 -0.4348
  689SOL     OW 2521   0.863   2.130   4.309  0.4362 -0.1253  0.2563
  689SOL    HW2 2522   0.946   2.082   4.299  0.4343 -0.5972  2.1046
  689SOL    HW3 2523   0.881   2.217   4.273  1.1656 -0.7568 -0.9954
  689SOL    MW4 2524   0.876   2.135   4.303  0.5322 -0.2709  0.3350
  690SOL     OW 2525   0.835   0.948   2.793 -0.1136 -0.0638 -0.2110
  690SOL    HW2 2526   0.812   0.910   2.877 -0.8582  1.0408  0.1002
  690SOL    HW3 2527   0.849   1.041   2.811  1.4087 -0.0987 -0.9996
  690SOL    MW4 2528   0.834   0.955   2.806 -0.0110  0.0773 -0.2740
  691SOL     OW 2529   5.595   4.121   4.084 -0.1457 -0.2034  0.0481
  691SOL    HW2 2530   5.621   4.144   3.995 -0.4669 -0.4969 -0.1226
  691SOL    HW3 2531   5.614   4.028   4.093  1.4106  0.1473  0.8367
  691SOL    MW4 2532   5.601   4.112   4.074  0.0173 -0.1958  0.1296
  692SOL     OW 2533   3.925   2.878   3.756  0.6315  0.1332 -0.4543
  692SOL    HW2 2534   3.916   2.967   3.721 -2.6779  0.1493  0.0819
  692SOL    HW3 2535   3.887   2.822   3.689  0.8513 -0.6686  0.0779
  692SOL    MW4 2536   3.919   2.882   3.742  0.2239  0.0295 -0.3133
  693SOL     OW 2537   3.460   4.567   1.079  0.0777  0.5722  0.4669
  693SOL    HW2 2538   3.392   4.589   1.143 -0.2551 -1.4544  0.8637
  693SOL    HW3 2539   3.480   4.651   1.037 -0.4439  1.7773  2.4616
  693SOL    MW4 2540   3.453   4.581   1.082 -0.0350  0.4638  0.7824
  694SOL     OW 2541   5.305   2.191   4.665 -0.2931  0.4984 -0.0552
  694SOL    HW2 2542   5.330   2.107   4.705 -0.8595  0.8931  1.1673
  694SOL    HW3 2543   5.222   2.173   4.621 -0.5390  0.4774  0.4166
  694SOL    MW4 2544   5.298   2.177   4.664 -0.4002  0.5477  0.1684
  695SOL     OW 2545   1.621   2.558   0.028 -0.2441  0.3739 -0.7190
  695SOL    HW2 2546   1.589   2.565   0.118  1.4740  1.6317 -0.1519
  695SOL    HW3 2547   1.574   2.483  -0.008 -0.9771 -0.1724  1.2186
  695SOL    MW4 2548   1.610   2.549   0.035 -0.1141  0.4677 -0.3886
  696SOL     OW 2549   3.111   2.893   6.343  0.1554 -0.5668  0.2000
  696SOL    HW2 2550   3.041   2.956   6.327  3.5264  3.4506 -0.4193
  696SOL    HW3 2551   3.144   2.916   6.430  1.6986 -1.2011 -0.1776
  696SOL    MW4 2552   3.106   2.904   6.353  0.8038 -0.1204  0.0684
  697SOL     OW 2553   3.518   2.521   6.214  0.7289 -0.6040  0.4072
  697SOL    HW2 2554   3.520   2.488   6.124  2.0970 -0.6609  0.4369
  697SOL    HW3 2555   3.469   2.603   6.209 -0.2193 -1.1872 -0.1719
  697SOL    MW4 2556   3.512   2.527   6.202  0.7843 -0.6885  0.3347
  698SOL     OW 2557   2.485   3.617   4.900  0.4123  0.5444 -0.1884
  698SOL    HW2 2558   2.413   3.644   4.843  0.9902  0.0449 -1.1812
  698SOL    HW3 2559   2.513   3.532   4.865  0.6776  0.1520  0.9457
  698SOL    MW4 2560   2.479   3.610   4.888  0.5236  0.4268 -0.1698
  699SOL     OW 2561   3.993   5.543   1.487 -0.2786  0.3491 -0.3169
  699SOL    HW2 2562   4.056   5.525   1.557 -2.2743  0.5795  1.6382
  699SOL    HW3 2563   3.908   5.550   1.532 -1.7678 -0.1991 -2.8637
  699SOL    MW4 2564   3.990   5.542   1.502 -0.7384  0.3072 -0.3949
  700SOL     OW 2565   4.069   2.030   6.366  0.2499 -0.1185 -0.2387
  700SOL    HW2 2566   3.996   2.091   6.365  1.5173  1.4570 -0.1866
  700SOL    HW3 2567   4.101   2.031   6.457  2.0834  1.4437 -0.8353
  700SOL    MW4 2568   4.064   2.038   6.378  0.6591  0.2955 -0.3105
  701SOL     OW 2569   0.270   3.307   5.638 -0.2960 -0.0293  0.6090
  701SOL    HW2 2570   0.202   3.371   5.614  0.3063  0.0548 -1.0059
  701SOL    HW3 2571   0.335   3.315   5.568 -0.0381 -2.1599  0.5613
  701SOL    MW4 2572   0.269   3.317   5.625 -0.1825 -0.2993  0.3896
  702SOL     OW 2573   6.057   3.587   1.095  0.2740 -0.1233  0.3158
  702SOL    HW2 2574   6.113   3.545   1.161 -0.4120 -1.3823  0.1317
  702SOL    HW3 2575   5.974   3.602   1.140  0.2157  0.1878  0.1047
  702SOL    MW4 2576   6.054   3.583   1.110  0.1758 -0.2484  0.2637
  703SOL     OW 2577   5.467   4.403   0.292  0.0020 -0.0464  0.4902
  703SOL    HW2 2578   5.436   4.399   0.383 -0.6965  1.3846  0.3538
  703SOL    HW3 2579   5.468   4.497   0.272 -2.7029 -0.3921 -1.9122
  703SOL    MW4 2580   5.463   4.415   0.302 -0.4470  0.0968  0.1553
  704SOL     OW 2581   1.100   2.125   2.870 -0.1214  0.5471  0.5491
  704SOL    HW2 2582   1.086   2.219   2.864  0.9498  0.6508 -1.2323
  704SOL    HW3 2583   1.060   2.090   2.790 -1.6522 -0.6966  1.8000
  704SOL    MW4 2584   1.093   2.132   2.859 -0.1821  0.3967  0.4791
  705SOL     OW 2585   1.773   4.702   1.877  0.2033 -0.5336 -0.3833
  705SOL    HW2 2586   1.775   4.732   1.787  0.6497  0.0606 -0.1843
  705SOL    HW3 2587   1.685   4.725   1.908  1.1729  2.5959  0.4032
  705SOL    MW4 2588   1.761   4.709   1.870  0.3901 -0.0423 -0.2533
  706SOL     OW 2589   1.540   5.436   1.795 -0.0035 -0.8661  0.3336
  706SOL    HW2 2590   1.501   5.437   1.707  0.7820  0.1081 -0.0227
  706SOL    HW3 2591   1.465   5.441   1.854 -0.4667  0.3598 -0.3236
  706SOL    MW4 2592   1.525   5.436   1.791  0.0390 -0.5758  0.1999
  707SOL     OW 2593   4.357   0.999   1.752  0.0524  0.1792  1.0230
  707SOL    HW2 2594   4.432   1.028   1.804  1.1927 -1.3794  0.3241
  707SOL    HW3 2595   4.319   0.928   1.804  0.3921 -0.4796  0.3952
  707SOL    MW4 2596   4.362   0.993   1.766  0.2477 -0.1134  0.8480
  708SOL     OW 2597   1.314   1.885   1.871 -0.4531 -0.5481  0.0422
  708SOL    HW2 2598   1.331   1.965   1.821  0.6588 -0.0478  1.1551
  708SOL    HW3 2599   1.325   1.814   1.807  1.5342  0.0371 -0.3424
  708SOL    MW4 2600   1.318   1.886   1.856 -0.0442 -0.4049  0.1383
  709SOL     OW 2601   6.294   1.715   1.444 -0.0681 -0.1054 -0.1551
  709SOL    HW2 2602   6.313   1.747   1.357 -1.5018  0.0097 -0.4552
  709SOL    HW3 2603   6.354   1.641   1.457  0.2581 -0.0227 -1.1687
  709SOL    MW4 2604   6.304   1.709   1.434 -0.2142 -0.0793 -0.3284
  710SOL     OW 2605   3.439   0.779   4.445  0.4933 -0.6690  0.3811
  710SOL    HW2 2606   3.380   0.750   4.515  0.4207  0.0500  0.6280
  710SOL    HW3 2607   3.395   0.752   4.364  0.0349 -0.5267  0.5768
  710SOL    MW4 2608   3.425   0.772   4.444  0.4232 -0.5553  0.4395
  711SOL     OW 2609   2.905   6.357   2.672 -0.0304 -0.3745  0.3531
  711SOL    HW2 2610   2.833   6.325   2.727  0.1670  0.7069  1.2643
  711SOL    HW3 2611   2.983   6.348   2.726  0.1990  0.4897  0.1878
  711SOL    MW4 2612   2.906   6.352   2.686  0.0259 -0.1178  0.4515
  712SOL     OW 2613   3.939   4.235   1.401  0.4552 -0.0898 -0.1114
  712SOL    HW2 2614   3.948   4.330   1.394 -1.2944  0.0323 -1.1805
  712SOL    HW3 2615   3.845   4.219   1.405  0.7113 -1.7854  0.1636
  712SOL    MW4 2616   3.928   4.245   1.401  0.2581 -0.2974 -0.2161
  713SOL     OW 2617   5.531   5.497   2.583 -0.1625  0.1103  0.1470
  713SOL    HW2 2618   5.577   5.581   2.592  1.7691 -0.8429 -0.3510
  713SOL    HW3 2619   5.443   5.521   2.554  0.4845  1.9352 -0.4594
  713SOL    MW4 2620   5.526   5.512   2.581  0.1777  0.2253  0.0013
  714SOL     OW 2621   0.367   4.087   2.466 -0.0700 -0.1619  0.7623
  714SOL    HW2 2622   0.314   4.076   2.386 -0.3298 -0.0887  0.9230
  714SOL    HW3 2623   0.450   4.123   2.434 -0.2438  0.0524  0.5430
  714SOL    MW4 2624   0.371   4.091   2.451 -0.1272 -0.1240  0.7546
  715SOL     OW 2625   2.836   4.882   1.774 -0.5636 -0.2265 -0.3904
  715SOL    HW2 2626   2.763   4.820   1.776  0.6424 -1.7413 -1.0234
  715SOL    HW3 2627   2.882   4.862   1.692  1.9405 -1.0308  1.0921
  715SOL    MW4 2628   2.833   4.871   1.764 -0.0741 -0.5325 -0.2783
  716SOL     OW 2629   3.613   1.954   4.357  0.3775 -0.4523 -0.2862
  716SOL    HW2 2630   3.697   1.973   4.315  0.5226 -0.2633  0.0951
  716SOL    HW3 2631   3.566   1.900   4.292  0.8761 -0.7404 -0.4124
  716SOL    MW4 2632   3.618   1.949   4.343  0.4625 -0.4654 -0.2526
  717SOL     OW 2633   1.036   0.488   1.787  0.8563  0.1704 -0.2024
  717SOL    HW2 2634   1.105   0.551   1.766  0.4197  0.0955 -2.1043
  717SOL    HW3 2635   0.961   0.516   1.733  0.7240 -2.0557 -1.2934
  717SOL    MW4 2636   1.035   0.500   1.777  0.7813 -0.1332 -0.5972
  718SOL     OW 2637   2.067   0.345   0.093 -0.5832  0.7216 -0.0436
  718SOL    HW2 2638   2.098   0.355   0.003  0.9971 -0.7518  0.2900
  718SOL    HW3 2639   1.983   0.391   0.095 -1.0474  0.0927 -2.4801
  718SOL    MW4 2640   2.060   0.352   0.082 -0.4360  0.4442 -0.3211
  719SOL     OW 2641   2.763   5.573   1.063  0.1838  0.0277  0.5213
  719SOL    HW2 2642   2.747   5.538   1.151  1.7960 -0.3793  0.7049
  719SOL    HW3 2643   2.740   5.665   1.069 -2.1308 -0.4950  0.6325
  719SOL    MW4 2644   2.758   5.580   1.076  0.0911 -0.0950  0.5602
  720SOL     OW 2645   5.166   3.374   3.753 -0.3068 -0.1410 -0.7345
  720SOL    HW2 2646   5.189   3.291   3.712  1.7031  0.0508 -0.1058
  720SOL    HW3 2647   5.189   3.363   3.845 -2.4394  0.2809 -0.0842
  720SOL    MW4 2648   5.172   3.362   3.759 -0.3230 -0.0600 -0.5658
  721SOL     OW 2649   6.176   5.828   0.884 -0.2427  0.1923 -0.5495
  721SOL    HW2 2650   6.146   5.764   0.948  0.7149 -0.5376 -0.8208
  721SOL    HW3 2651   6.187   5.778   0.803  2.4271  0.2393 -0.2964
  721SOL    MW4 2652   6.173   5.813   0.881  0.2359  0.1022 -0.5519
  722SOL     OW 2653   6.217   3.809   2.593  0.4963 -0.1907 -0.2017
  722SOL    HW2 2654   6.165   3.758   2.531 -0.1443 -0.8577  0.8600
  722SOL    HW3 2655   6.300   3.823   2.547 -0.0049 -0.5549 -1.2604
  722SOL    MW4 2656   6.221   3.804   2.578  0.3456 -0.3267 -0.2013
  723SOL     OW 2657   1.299   0.833   2.902  0.1534  0.3984 -0.5842
  723SOL    HW2 2658   1.376   0.840   2.847  0.3430  0.3796 -0.3258
  723SOL    HW3 2659   1.225   0.832   2.841  0.4105 -0.7986 -0.8969
  723SOL    MW4 2660   1.299   0.834   2.887  0.2124  0.2380 -0.5914
  724SOL     OW 2661   4.792   2.825   0.986 -0.2879  0.3572  0.5728
  724SOL    HW2 2662   4.707   2.781   0.989  0.5064 -1.4198 -1.0108
  724SOL    HW3 2663   4.854   2.759   1.016  0.6431  1.4489  1.1542
  724SOL    MW4 2664   4.789   2.811   0.991 -0.0603  0.2668  0.4406
  725SOL     OW 2665   3.428   4.157   5.921 -0.4650  0.1885 -0.4701
  725SOL    HW2 2666   3.384   4.214   5.984 -0.4650 -0.1541 -0.1574
  725SOL    HW3 2667   3.482   4.217   5.869 -2.1653  0.7846 -1.6369
  725SOL    MW4 2668   3.429   4.173   5.923 -0.6893  0.2220 -0.5828
  726SOL     OW 2669   2.291   5.676   5.030  0.2250  0.8231  0.5316
  726SOL    HW2 2670   2.225   5.736   5.066 -0.6601 -0.3932  1.0080
  726SOL    HW3 2671   2.361   5.733   5.000 -1.6860  2.3466 -1.4302
  726SOL    MW4 2672   2.291   5.692   5.031 -0.1439  0.8636  0.3356
  727SOL     OW 2673   2.246   2.664   3.541  0.3479 -0.0738 -0.2568
  727SOL    HW2 2674   2.226   2.754   3.517  2.2086  0.6845  0.7871
  727SOL    HW3 2675   2.250   2.665   3.637  1.2734 -1.0500 -0.2637
  727SOL    MW4 2676   2.244   2.676   3.551  0.7155 -0.1026 -0.1200
  728SOL     OW 2677   0.713   2.701   1.355  0.3681 -0.5631  0.2448
  728SOL    HW2 2678   0.671   2.616   1.367  0.9869 -0.8298  0.5589
  728SOL    HW3 2679   0.754   2.696   1.269  1.5259 -1.0834  0.8023
  728SOL    MW4 2680   0.712   2.689   1.345  0.6025 -0.6669  0.3598
  729SOL     OW 2681   2.303   4.428   3.488  0.5451 -0.7343 -0.2317
  729SOL    HW2 2682   2.255   4.364   3.539  0.4541  0.5294  1.3500
  729SOL    HW3 2683   2.393   4.396   3.486  0.2064 -1.6785 -0.8002
  729SOL    MW4 2684   2.309   4.416   3.494  0.4884 -0.6921 -0.0981
  730SOL     OW 2685   3.623   2.658   5.851 -0.6202  0.5650 -0.6434
  730SOL    HW2 2686   3.699   2.618   5.809 -0.2106  0.7532 -0.0905
  730SOL    HW3 2687   3.576   2.585   5.890 -0.4898  0.4970 -0.6120
  730SOL    MW4 2688   3.627   2.643   5.851 -0.5490  0.5808 -0.5663
  731SOL     OW 2689   2.769   2.610   3.444  0.3089  0.0831 -0.2643
  731SOL    HW2 2690   2.678   2.620   3.470  0.8257  2.1453  1.0002
  731SOL    HW3 2691   2.803   2.540   3.500 -0.1748  0.1738  0.1412
  731SOL    MW4 2692   2.762   2.602   3.455  0.3132  0.3671 -0.0440
  732SOL     OW 2693   5.724   1.415   3.859  0.2613 -0.2132  0.1928
  732SOL    HW2 2694   5.689   1.503   3.847 -0.5944 -0.6435 -0.5999
  732SOL    HW3 2695   5.800   1.427   3.916 -0.1678  0.9593  0.5448
  732SOL    MW4 2696   5.730   1.429   3.865  0.0918 -0.1153  0.1347
  733SOL     OW 2697   5.041   4.976   3.070 -0.1069 -0.0779  0.2210
  733SOL    HW2 2698   4.991   4.933   3.000 -0.8159  0.0588  0.6309
  733SOL    HW3 2699   5.129   4.986   3.034 -0.3064 -0.5601 -0.4227
  733SOL    MW4 2700   5.046   4.972   3.056 -0.2267 -0.1235  0.1902
  734SOL     OW 2701   1.191   0.815   3.175 -0.5406 -0.0268 -0.1561
  734SOL    HW2 2702   1.226   0.843   3.090 -0.2596  0.1714  0.0198
  734SOL    HW3 2703   1.263   0.830   3.236 -1.2504  1.3607  0.3947
  734SOL    MW4 2704   1.205   0.821   3.172 -0.5972  0.1824 -0.0602
  735SOL     OW 2705   3.465   1.708   0.794 -0.6367 -0.2650 -0.6176
  735SOL    HW2 2706   3.438   1.638   0.734 -0.9021  0.6113 -1.5523
  735SOL    HW3 2707   3.465   1.667   0.880 -0.6039 -1.4623 -1.1702
  735SOL    MW4 2708   3.461   1.694   0.798 -0.6674 -0.3074 -0.8138
  736SOL     OW 2709   1.117   5.785   0.184  0.2312 -0.4132  0.6804
  736SOL    HW2 2710   1.049   5.718   0.179  0.2710 -0.3596 -1.5489
  736SOL    HW3 2711   1.092   5.840   0.258 -1.8607 -0.7309  0.2615
  736SOL    MW4 2712   1.105   5.784   0.193 -0.0396 -0.4481  0.3310
  737SOL     OW 2713   3.356   4.584   0.598 -0.0765 -0.5309 -0.2494
  737SOL    HW2 2714   3.322   4.560   0.684 -1.0993  1.2302 -0.1036
  737SOL    HW3 2715   3.423   4.651   0.617 -0.0127 -0.4347 -0.7943
  737SOL    MW4 2716   3.361   4.590   0.612 -0.2030 -0.2858 -0.3020
  738SOL     OW 2717   0.211   2.010   1.784  0.2858 -0.3866  0.3303
  738SOL    HW2 2718   0.176   1.936   1.735  0.2570 -0.3553  0.3036
  738SOL    HW3 2719   0.223   1.977   1.873 -1.7035  0.1542  0.8621
  738SOL    MW4 2720   0.208   1.996   1.789  0.0195 -0.3111  0.3970
  739SOL     OW 2721   4.237   3.811   1.517 -0.2002  0.2160 -0.4902
  739SOL    HW2 2722   4.196   3.750   1.580 -0.2325  1.2371  0.5155
  739SOL    HW3 2723   4.178   3.886   1.515  0.7084  0.9463 -0.3935
  739SOL    MW4 2724   4.224   3.813   1.525 -0.0846  0.4471 -0.3447
  740SOL     OW 2725   4.023   3.928   0.231  0.5034  0.4250  0.2928
  740SOL    HW2 2726   4.051   4.004   0.282 -0.9457  0.6136  0.8456
  740SOL    HW3 2727   3.967   3.878   0.290 -2.3339  1.3327 -1.4415
  740SOL    MW4 2728   4.019   3.931   0.245 -0.0622  0.5696  0.1369
  741SOL     OW 2729   2.859   5.729   5.592 -0.1139 -0.2341 -0.0261
  741SOL    HW2 2730   2.799   5.654   5.596  1.8952 -1.9081  1.7914
  741SOL    HW3 2731   2.939   5.692   5.554  0.6978  1.1849  0.2596
  741SOL    MW4 2732   2.862   5.714   5.587  0.2583 -0.2677  0.2514
  742SOL     OW 2733   2.164   0.556   5.813  0.4399  0.3000 -0.4838
  742SOL    HW2 2734   2.175   0.479   5.757  1.0158  1.4255 -1.9821
  742SOL    HW3 2735   2.074   0.552   5.843  0.6170 -1.2508 -0.0554
  742SOL    MW4 2736   2.154   0.545   5.809  0.5392  0.2439 -0.6249
  743SOL     OW 2737   3.310   5.033   6.049  0.5049 -0.2446  0.1318
  743SOL    HW2 2738   3.219   5.036   6.021  0.6703 -0.6794 -0.4918
  743SOL    HW3 2739   3.340   4.946   6.022  1.1777  0.0008  0.0707
  743SOL    MW4 2740   3.302   5.022   6.042  0.6155 -0.2696  0.0415
  744SOL     OW 2741   1.988   1.883   0.740 -0.3050  0.0232  0.5993
  744SOL    HW2 2742   1.922   1.916   0.801 -0.7584 -0.6855  0.5112
  744SOL    HW3 2743   2.006   1.794   0.770  1.3963  0.5519  1.2497
  744SOL    MW4 2744   1.982   1.875   0.752 -0.1404 -0.0005  0.6735
  745SOL     OW 2745   0.616   2.782   2.294 -0.4661  0.5735  0.0415
  745SOL    HW2 2746   0.696   2.741   2.259 -1.3281 -0.6020 -0.6150
  745SOL    HW3 2747   0.628   2.779   2.389  0.4186  0.7284 -0.0560
  745SOL    MW4 2748   0.628   2.776   2.302 -0.4631  0.4388 -0.0580
  746SOL     OW 2749   3.818   3.758   3.292  0.1360  0.1039 -0.1322
  746SOL    HW2 2750   3.895   3.751   3.347 -0.7102  0.5503  1.1632
  746SOL    HW3 2751   3.821   3.681   3.236  0.3518 -1.0809  1.4456
  746SOL    MW4 2752   3.828   3.747   3.292  0.0528  0.0065  0.2469
  747SOL     OW 2753   3.300   2.371   3.099 -0.0864 -0.3569 -0.0068
  747SOL    HW2 2754   3.324   2.456   3.063 -1.0193 -0.8947 -2.0895
  747SOL    HW3 2755   3.247   2.391   3.176  2.5558  0.8521  1.6248
  747SOL    MW4 2756   3.296   2.385   3.104  0.1391 -0.2684 -0.0664
  748SOL     OW 2757   5.545   1.117   1.774  0.0184 -0.2193 -0.1765
  748SOL    HW2 2758   5.604   1.090   1.703  1.3700  0.1520  0.7762
  748SOL    HW3 2759   5.598   1.174   1.829 -1.1690 -0.0694  0.8545
  748SOL    MW4 2760   5.560   1.121   1.772  0.0400 -0.1505  0.0852
  749SOL     OW 2761   2.787   1.892   1.747  0.3633  0.5557 -0.1078
  749SOL    HW2 2762   2.795   1.903   1.653 -2.6499 -0.0433 -0.5200
  749SOL    HW3 2763   2.812   1.801   1.763 -1.0964  0.0163 -0.6906
  749SOL    MW4 2764   2.791   1.882   1.737 -0.2269  0.4055 -0.2391
  750SOL     OW 2765   0.347   0.421   4.248  0.2932 -0.3374  0.1793
  750SOL    HW2 2766   0.354   0.341   4.195 -0.4502 -0.7272  0.6561
  750SOL    HW3 2767   0.280   0.401   4.313 -0.9848  1.1801 -0.6030
  750SOL    MW4 2768   0.339   0.408   4.249  0.0265 -0.1886  0.1390
  751SOL     OW 2769   3.960   1.869   0.592  0.6470  0.8222 -0.1981
  751SOL    HW2 2770   3.971   1.823   0.509 -0.3970  0.4568 -0.1468
  751SOL    HW3 2771   3.870   1.850   0.618  1.0887  0.5685  1.2352
  751SOL    MW4 2772   3.949   1.860   0.585  0.5676  0.7405 -0.0022
  752SOL     OW 2773   1.415   5.092   3.028  0.4555 -0.2648  0.1820
  752SOL    HW2 2774   1.466   5.144   3.089  0.7355 -1.1792  0.7402
  752SOL    HW3 2775   1.420   5.140   2.945  0.0571  0.9962  0.8592
  752SOL    MW4 2776   1.422   5.105   3.025  0.4399 -0.2191  0.3450
  753SOL     OW 2777   4.900   1.504   4.478  0.2697  0.4914 -0.1441
  753SOL    HW2 2778   4.851   1.467   4.551  0.6222  1.3614  0.5460
  753SOL    HW3 2779   4.895   1.599   4.491 -0.7547  0.7432 -1.9632
  753SOL    MW4 2780   4.893   1.512   4.489  0.1810  0.6394 -0.2931
  754SOL     OW 2781   4.366   3.657   1.950  0.4836  0.4707  0.2981
  754SOL    HW2 2782   4.282   3.650   1.904  0.3336  0.3378  0.5877
  754SOL    HW3 2783   4.423   3.704   1.889  0.1999  0.5574  0.0977
  754SOL    MW4 2784   4.362   3.662   1.936  0.4264  0.4646  0.3098
  755SOL     OW 2785   0.172   1.153   0.650  0.2190 -0.1049 -0.1279
  755SOL    HW2 2786   0.094   1.147   0.705  1.2020 -2.6488  1.1630
  755SOL    HW3 2787   0.171   1.242   0.615 -2.6225  0.2835  0.7545
  755SOL    MW4 2788   0.162   1.164   0.653 -0.0262 -0.3893  0.1589
  756SOL     OW 2789   2.027   2.195   5.326 -0.1105  1.0988  0.1252
  756SOL    HW2 2790   2.086   2.269   5.316  0.0573  1.0591  0.7677
  756SOL    HW3 2791   2.024   2.154   5.239  1.9621  0.2311  0.4163
  756SOL    MW4 2792   2.034   2.199   5.313  0.1851  0.9790  0.2484
  757SOL     OW 2793   6.418   4.172   5.944 -0.4949  0.7235 -0.0768
  757SOL    HW2 2794   6.506   4.141   5.924 -0.2494  0.8327  0.7753
  757SOL    HW3 2795   6.371   4.167   5.861  0.1311  0.0556 -0.4033
  757SOL    MW4 2796   6.423   4.167   5.931 -0.3799  0.6498 -0.0075
  758SOL     OW 2797   4.858   3.746   4.794  0.4112  0.5979  0.3657
  758SOL    HW2 2798   4.849   3.796   4.875 -0.0417 -1.2495  1.5162
  758SOL    HW3 2799   4.932   3.687   4.810 -0.6057 -0.8210  0.0344
  758SOL    MW4 2800   4.867   3.744   4.807  0.2173  0.1670  0.4738
  759SOL     OW 2801   3.773   3.039   1.836  0.3070  0.6525  0.2577
  759SOL    HW2 2802   3.726   3.003   1.911 -1.4538  1.9239 -0.1733
  759SOL    HW3 2803   3.767   2.971   1.769  0.3983  0.1955  0.7136
  759SOL    MW4 2804   3.766   3.025   1.837  0.0867  0.7599  0.2610
  760SOL     OW 2805   6.402   4.946   0.716  0.1212  0.6836  0.3416
  760SOL    HW2 2806   6.436   5.034   0.731 -0.9269  1.0889  0.4511
  760SOL    HW3 2807   6.479   4.893   0.697  0.8866  1.3753  1.4464
  760SOL    MW4 2808   6.417   4.951   0.715  0.0839  0.8283  0.5018
  761SOL     OW 2809   2.632   4.555   0.150 -0.5658 -0.3113 -0.4686
  761SOL    HW2 2810   2.682   4.616   0.095  0.1105 -0.5787 -0.1589
  761SOL    HW3 2811   2.699   4.506   0.199 -1.1293 -0.7264 -0.1015
  761SOL    MW4 2812   2.647   4.556   0.149 -0.5509 -0.4014 -0.3793
  762SOL     OW 2813   2.341   2.417   0.724 -0.0112 -0.4596  0.2202
  762SOL    HW2 2814   2.429   2.428   0.688 -0.3767  0.3302 -0.4571
  762SOL    HW3 2815   2.337   2.325   0.750  0.7598 -0.6877 -0.4333
  762SOL    MW4 2816   2.352   2.407   0.723  0.0423 -0.3855  0.0446
  763SOL     OW 2817   5.391   5.442   3.762 -0.3122  0.4233  0.0794
  763SOL    HW2 2818   5.350   5.382   3.700  0.3551  1.2935 -1.2338
  763SOL    HW3 2819   5.465   5.393   3.798 -2.3672 -1.1523  2.4512
  763SOL    MW4 2820   5.395   5.428   3.759 -0.4953  0.3302  0.2190
  764SOL     OW 2821   3.113   2.719   0.214 -0.5315  0.7789 -0.4052
  764SOL    HW2 2822   3.188   2.664   0.191 -0.3961 -0.5733  2.6939
  764SOL    HW3 2823   3.037   2.662   0.204 -0.5841  0.5581  0.9887
  764SOL    MW4 2824   3.113   2.704   0.210 -0.5206  0.5713  0.1876
  765SOL     OW 2825   0.818   0.574   1.299  0.4775  0.2084 -0.4039
  765SOL    HW2 2826   0.794   0.493   1.344 -0.1317  1.0649  0.8739
  765SOL    HW3 2827   0.792   0.559   1.208 -0.0608 -0.8443 -0.0956
  765SOL    MW4 2828   0.812   0.561   1.293  0.3261  0.1825 -0.1946
  766SOL     OW 2829   5.188   3.055   2.479  0.3971  0.5003 -0.7033
  766SOL    HW2 2830   5.209   3.116   2.550  0.2286  1.3595 -1.3729
  766SOL    HW3 2831   5.263   3.062   2.419 -0.3979  1.3521 -1.6305
  766SOL    MW4 2832   5.201   3.064   2.480  0.2700  0.7260 -0.9140
  767SOL     OW 2833   5.393   0.091   0.172  0.1447  0.3497 -0.3907
  767SOL    HW2 2834   5.436   0.005   0.172 -0.3943  0.0746 -0.6828
  767SOL    HW3 2835   5.341   0.091   0.092 -0.6439  0.5516  0.1171
  767SOL    MW4 2836   5.392   0.080   0.161 -0.0305  0.3401 -0.3622
  768SOL     OW 2837   4.093   3.461   0.808  0.2973 -0.2363  0.0880
  768SOL    HW2 2838   4.159   3.473   0.740  1.1733  0.7086  1.0726
  768SOL    HW3 2839   4.036   3.391   0.774  1.5269 -0.7544 -0.9796
  768SOL    MW4 2840   4.094   3.453   0.794  0.5751 -0.1800  0.0771
  769SOL     OW 2841   5.401   0.158   2.594  0.1290  0.1810  0.3981
  769SOL    HW2 2842   5.418   0.154   2.688  2.5979  0.6879  0.0284
  769SOL    HW3 2843   5.485   0.136   2.553 -0.7706  0.4144 -1.6943
  769SOL    MW4 2844   5.414   0.155   2.601  0.3361  0.2786  0.0732
  770SOL     OW 2845   5.857   5.913   5.628 -0.1129  0.4141 -0.0600
  770SOL    HW2 2846   5.811   5.988   5.590 -0.5497  0.5748  0.7590
  770SOL    HW3 2847   5.923   5.889   5.563  0.8460  2.2666  0.1702
  770SOL    MW4 2848   5.859   5.920   5.614 -0.0440  0.6797  0.0784
  771SOL     OW 2849   4.846   1.184   3.728 -0.0671 -0.5533  0.4082
  771SOL    HW2 2850   4.830   1.262   3.675  0.3350 -1.4436 -1.0587
  771SOL    HW3 2851   4.760   1.159   3.761 -0.3539 -0.1126  0.0088
  771SOL    MW4 2852   4.833   1.191   3.726 -0.0519 -0.6126  0.1620
  772SOL     OW 2853   1.494   2.714   2.630 -0.4308  0.3323 -0.5978
  772SOL    HW2 2854   1.562   2.682   2.572  0.2904  1.8234 -0.6056
  772SOL    HW3 2855   1.533   2.709   2.718  0.0269  1.9392 -0.6795
  772SOL    MW4 2856   1.508   2.709   2.634 -0.2752  0.7410 -0.6096
  773SOL     OW 2857   1.101   1.246   4.630 -0.1634 -0.1115 -0.0230
  773SOL    HW2 2858   1.039   1.228   4.701 -1.2388  1.3640 -0.5455
  773SOL    HW3 2859   1.146   1.325   4.657  1.8417 -1.3633  0.5221
  773SOL    MW4 2860   1.099   1.254   4.643 -0.0407 -0.0820 -0.0200
  774SOL     OW 2861   2.273   1.932   3.764  0.3940 -0.2525 -0.1731
  774SOL    HW2 2862   2.347   1.884   3.727  1.0686  0.4720  0.2167
  774SOL    HW3 2863   2.285   2.022   3.734  1.3820  0.5399  2.3597
  774SOL    MW4 2864   2.284   1.937   3.755  0.6134 -0.0524  0.2125
  775SOL     OW 2865   5.936   4.160   4.504 -0.2640  0.2906 -0.1079
  775SOL    HW2 2866   5.898   4.130   4.422 -0.0160  1.2295 -0.5807
  775SOL    HW3 2867   6.019   4.201   4.478  0.9082 -1.3489  0.8452
  775SOL    MW4 2868   5.942   4.161   4.490 -0.0766  0.1982 -0.0446
  776SOL     OW 2869   3.860   2.052   2.249 -0.4836 -0.0657  0.0772
  776SOL    HW2 2870   3.863   2.147   2.237 -0.2645 -0.1434 -0.5336
  776SOL    HW3 2871   3.924   2.034   2.318 -1.5583  0.3744  1.2217
  776SOL    MW4 2872   3.869   2.062   2.256 -0.5965 -0.0179  0.1476
  777SOL     OW 2873   5.406   1.948   4.797 -0.6523  0.0979  0.2368
  777SOL    HW2 2874   5.473   1.956   4.865 -0.7726  1.5742  0.2062
  777SOL    HW3 2875   5.429   1.867   4.751  1.0075  0.4680  0.3478
  777SOL    MW4 2876   5.418   1.938   4.800 -0.4492  0.3415  0.2474
  778SOL     OW 2877   3.655   3.214   6.037 -0.2870 -0.3068 -0.0943
  778SOL    HW2 2878   3.607   3.163   5.971 -0.5940  0.0887 -0.1809
  778SOL    HW3 2879   3.746   3.185   6.027 -0.6460 -1.8730  0.8229
  778SOL    MW4 2880   3.661   3.203   6.027 -0.3749 -0.4613  0.0153
  779SOL     OW 2881   4.956   0.369   0.671 -0.7565 -0.2061  0.2241
  779SOL    HW2 2882   4.933   0.461   0.687 -0.9938 -0.0384 -0.9561
  779SOL    HW3 2883   5.008   0.344   0.746  0.5012  1.3233 -0.0799
  779SOL    MW4 2884   4.959   0.378   0.683 -0.6219  0.0178  0.0283
  780SOL     OW 2885   0.582   6.277   3.849  0.3131 -0.0265 -0.2593
  780SOL    HW2 2886   0.579   6.198   3.795  2.5156 -0.4644  0.1721
  780SOL    HW3 2887   0.618   6.345   3.792  3.5003 -0.7017  0.7414
  780SOL    MW4 2888   0.586   6.276   3.835  1.0242 -0.1733 -0.0703
  781SOL     OW 2889   1.713   1.701   1.904  0.1369  0.5217  0.4445
  781SOL    HW2 2890   1.667   1.735   1.981 -0.0119  0.3091  0.4496
  781SOL    HW3 2891   1.770   1.773   1.877 -0.8379  1.1045 -0.0925
  781SOL    MW4 2892   1.715   1.715   1.911 -0.0114  0.5706  0.3743
  782SOL     OW 2893   1.893   1.802   1.368 -0.0337  0.0286 -0.2783
  782SOL    HW2 2894   1.802   1.803   1.397  0.2489 -0.5691  0.6675
  782SOL    HW3 2895   1.944   1.821   1.446  0.6091  2.0018 -1.1289
  782SOL    MW4 2896   1.888   1.804   1.382  0.0884  0.2101 -0.2658
  783SOL     OW 2897   5.286   5.400   5.326  0.5293 -0.0617 -0.1889
  783SOL    HW2 2898   5.319   5.322   5.370  0.6687  0.4128  0.5649
  783SOL    HW3 2899   5.294   5.470   5.392 -2.3681  0.0096  0.2077
  783SOL    MW4 2900   5.292   5.399   5.341  0.1654  0.0103 -0.0371
  784SOL     OW 2901   4.660   5.760   2.504 -0.3684  0.3107  0.1672
  784SOL    HW2 2902   4.568   5.753   2.528 -0.3285 -0.4007  0.1494
  784SOL    HW3 2903   4.703   5.691   2.555  0.3068  1.2488  0.8974
  784SOL    MW4 2904   4.654   5.750   2.514 -0.2740  0.3406  0.2612
  785SOL     OW 2905   2.820   0.171   0.323 -0.4162 -0.4439  0.4134
  785SOL    HW2 2906   2.725   0.169   0.331 -0.7271 -2.2880 -2.4471
  785SOL    HW3 2907   2.838   0.249   0.269 -0.3970 -0.5434  0.2742
  785SOL    MW4 2908   2.810   0.181   0.317 -0.4547 -0.7003  0.0176
  786SOL     OW 2909   6.067   5.974   2.636 -0.0890 -0.1600 -0.0477
  786SOL    HW2 2910   6.099   6.064   2.635 -0.1049 -0.1534 -0.9348
  786SOL    HW3 2911   5.974   5.981   2.654  0.0306 -0.0456  0.5364
  786SOL    MW4 2912   6.059   5.987   2.638 -0.0754 -0.1440 -0.0877
  787SOL     OW 2913   1.150   4.829   5.004 -0.3707 -0.0458 -0.1200
  787SOL    HW2 2914   1.136   4.868   4.918 -0.9523  1.9502  0.8005
  787SOL    HW3 2915   1.064   4.796   5.030 -0.8182  1.5736  0.6461
  787SOL    MW4 2916   1.137   4.830   4.996 -0.5065  0.4312  0.1025
  788SOL     OW 2917   4.983   2.913   0.238  0.3837 -0.1652  0.2865
  788SOL    HW2 2918   4.920   2.944   0.303  0.1709 -2.2316  1.1304
  788SOL    HW3 2919   5.029   2.841   0.281  0.0116 -1.8349 -1.9103
  788SOL    MW4 2920   4.980   2.907   0.252  0.3065 -0.6581  0.1080
  789SOL     OW 2921   0.707   0.973   0.185  0.1936 -0.4099 -0.3937
  789SOL    HW2 2922   0.746   0.925   0.258 -1.0766  0.8417  1.1713
  789SOL    HW3 2923   0.777   1.031   0.155  0.0408  0.8435  1.4950
  789SOL    MW4 2924   0.721   0.974   0.191  0.0058 -0.0794  0.0620
  790SOL     OW 2925   0.628   4.587   0.464  0.2840 -0.1449  0.3945
  790SOL    HW2 2926   0.589   4.671   0.487 -0.0185 -0.6447  1.7811
  790SOL    HW3 2927   0.563   4.545   0.408  0.9666  1.0246 -1.3793
  790SOL    MW4 2928   0.615   4.593   0.459  0.3341 -0.0565  0.3434
  791SOL     OW 2929   3.133   6.129  -0.009  0.1087 -0.2940 -0.2180
  791SOL    HW2 2930   3.151   6.198   0.055 -0.2045 -0.2497 -0.1788
  791SOL    HW3 2931   3.177   6.051   0.027  0.8989  0.0036 -0.5167
  791SOL    MW4 2932   3.141   6.128   0.004  0.1717 -0.2489 -0.2523
  792SOL     OW 2933   3.978   2.622   0.740 -0.1703 -0.1676 -0.4590
  792SOL    HW2 2934   3.987   2.619   0.835  1.1587 -3.1065 -0.5893
  792SOL    HW3 2935   3.884   2.617   0.724 -0.3833  0.0456  0.6724
  792SOL    MW4 2936   3.967   2.621   0.750 -0.0230 -0.5272 -0.3269
  793SOL     OW 2937   1.639   1.512   0.757 -0.3066  0.2842 -0.2761
  793SOL    HW2 2938   1.571   1.513   0.690  0.2789  0.7389 -0.8813
  793SOL    HW3 2939   1.606   1.453   0.825 -0.7459 -0.4919 -1.1437
  793SOL    MW4 2940   1.626   1.504   0.757 -0.2873  0.2418 -0.4704
  794SOL     OW 2941   4.075   0.389   2.418 -0.2326  0.1045 -0.0144
  794SOL    HW2 2942   4.164   0.424   2.425  0.1508 -1.0567  1.1124
  794SOL    HW3 2943   4.082   0.317   2.355 -0.2516 -0.3505  0.4986
  794SOL    MW4 2944   4.087   0.384   2.410 -0.1845 -0.1087  0.2020
  795SOL     OW 2945   3.850   5.868   4.431 -0.0274 -0.2600  0.2843
  795SOL    HW2 2946   3.825   5.890   4.521 -0.8017 -1.3156  0.3398
  795SOL    HW3 2947   3.900   5.787   4.439  0.8049  0.1906 -0.1552
  795SOL    MW4 2948   3.853   5.860   4.444 -0.0198 -0.3398  0.2336
  796SOL     OW 2949   4.261   1.486   5.965 -0.2693  0.2816  0.5436
  796SOL    HW2 2950   4.202   1.532   6.024 -0.4282 -0.7914  1.2296
  796SOL    HW3 2951   4.218   1.403   5.946  1.3272 -0.8614  1.6608
  796SOL    MW4 2952   4.248   1.481   5.970 -0.0797 -0.0108  0.7815
  797SOL     OW 2953   0.661   3.002   6.002 -0.6786 -0.2049  0.3685
  797SOL    HW2 2954   0.569   2.996   6.029 -0.7426 -1.0304  0.0041
  797SOL    HW3 2955   0.699   3.068   6.060 -1.5658  0.3511  0.3399
  797SOL    MW4 2956   0.654   3.010   6.013 -0.8041 -0.2405  0.3167
  798SOL     OW 2957   4.800   6.420   2.374  0.1739  0.0394  0.3443
  798SOL    HW2 2958   4.724   6.450   2.324  0.6295  1.0256  0.2239
  798SOL    HW3 2959   4.824   6.337   2.334  0.3554  0.6804 -0.9074
  798SOL    MW4 2960   4.793   6.413   2.362  0.2579  0.2541  0.1633
  799SOL     OW 2961   1.992   5.785   4.917  0.0130 -0.1513  0.0512
  799SOL    HW2 2962   2.067   5.790   4.858  1.3878 -1.0175  1.6244
  799SOL    HW3 2963   2.026   5.814   5.001 -1.3011 -0.9840  0.8991
  799SOL    MW4 2964   2.007   5.789   4.920  0.0210 -0.3754  0.3706
  800SOL     OW 2965   0.675   5.530   3.626  0.2963 -0.1852 -0.3244
  800SOL    HW2 2966   0.770   5.533   3.618  0.4617 -0.4874  1.2145
  800SOL    HW3 2967   0.656   5.444   3.663 -0.4712  0.3042  0.4666
  800SOL    MW4 2968   0.685   5.519   3.630  0.2168 -0.1605 -0.0170
  801SOL     OW 2969   0.246   2.956   2.472 -0.2440 -0.1558 -0.0552
  801SOL    HW2 2970   0.322   2.967   2.415  1.6030 -2.6126  1.6755
  801SOL    HW3 2971   0.173   2.940   2.413  1.0469  0.0034 -1.7687
  801SOL    MW4 2972   0.246   2.955   2.457  0.1700 -0.4590 -0.0530
  802SOL     OW 2973   5.125   2.409   1.568 -0.6999 -0.3926  0.0843
  802SOL    HW2 2974   5.081   2.486   1.533 -0.3604  0.1567  0.8327
  802SOL    HW3 2975   5.064   2.337   1.553 -0.7540 -0.0981 -1.2010
  802SOL    MW4 2976   5.111   2.410   1.562 -0.6622 -0.2813  0.0134
  803SOL     OW 2977   2.857   0.043   2.173  0.2671  0.2427  0.3604
  803SOL    HW2 2978   2.931   0.047   2.113  0.1689  0.5773  0.2561
  803SOL    HW3 2979   2.846   0.134   2.204  1.1356 -0.1299  1.8803
  803SOL    MW4 2980   2.865   0.056   2.169  0.3688  0.2377  0.5472
  804SOL     OW 2981   5.411   3.951   5.784  0.8535  0.2541 -0.7547
  804SOL    HW2 2982   5.433   3.895   5.710  0.4863  0.0722 -0.7270
  804SOL    HW3 2983   5.320   3.978   5.768  0.8647  0.4365 -0.5150
  804SOL    MW4 2984   5.402   3.947   5.772  0.8066  0.2542 -0.7194
  805SOL     OW 2985   2.364   3.956   3.868  0.6080 -0.5859  0.6982
  805SOL    HW2 2986   2.438   4.017   3.861  1.3458 -1.5456 -0.3294
  805SOL    HW3 2987   2.374   3.898   3.792 -1.9743  0.0755 -0.2473
  805SOL    MW4 2988   2.375   3.956   3.857  0.3646 -0.6253  0.4379
  806SOL     OW 2989   4.683   1.364   3.001 -0.4155 -0.0139  0.2716
  806SOL    HW2 2990   4.748   1.432   2.982 -0.4857  0.1798  0.7146
  806SOL    HW3 2991   4.727   1.306   3.063 -0.0962 -0.7886 -0.6619
  806SOL    MW4 2992   4.698   1.366   3.007 -0.3826 -0.0906  0.2069
  807SOL     OW 2993   5.368   1.580   2.091 -0.1224 -0.2496  0.0645
  807SOL    HW2 2994   5.346   1.517   2.022  0.0610  1.2788 -1.4722
  807SOL    HW3 2995   5.354   1.665   2.050 -3.4102  0.8700  2.9795
  807SOL    MW4 2996   5.363   1.583   2.076 -0.5320  0.0998  0.2464
  808SOL     OW 2997   1.672   0.826   4.932 -0.0887 -0.0559  0.2693
  808SOL    HW2 2998   1.697   0.822   5.025  1.6840  0.8158 -0.1219
  808SOL    HW3 2999   1.740   0.881   4.892 -0.6019 -0.7504 -1.6249
  808SOL    MW4 3000   1.685   0.833   4.939  0.0774 -0.0325 -0.0323
  809SOL     OW 3001   4.820   0.480   2.423  0.4737 -0.1240  0.2990
  809SOL    HW2 3002   4.817   0.489   2.327  1.3137 -0.5038  0.2274
  809SOL    HW3 3003   4.732   0.505   2.452  0.7738  1.9650 -0.3916
  809SOL    MW4 3004   4.808   0.485   2.414  0.6241  0.1015  0.1985
  810SOL     OW 3005   2.101   0.822   1.476 -0.4797 -0.3441 -0.1716
  810SOL    HW2 3006   2.113   0.748   1.534 -1.5315  0.6335  1.3708
  810SOL    HW3 3007   2.180   0.875   1.488  0.2303 -1.1270 -1.2068
  810SOL    MW4 3008   2.113   0.819   1.485 -0.5248 -0.3184 -0.1047
  811SOL     OW 3009   2.165   2.428   5.292 -0.0687  0.4143  0.1807
  811SOL    HW2 3010   2.157   2.493   5.362  0.1593 -0.4150  0.9984
  811SOL    HW3 3011   2.186   2.479   5.214  1.4445  1.2125  1.0732
  811SOL    MW4 3012   2.166   2.443   5.291  0.1610  0.4102  0.4064
  812SOL     OW 3013   5.697   0.364   2.298  1.0207 -0.1242 -0.6044
  812SOL    HW2 3014   5.644   0.430   2.254 -0.0771  0.2027  1.0910
  812SOL    HW3 3015   5.655   0.281   2.277 -0.0207  0.1071  0.4858
  812SOL    MW4 3016   5.685   0.362   2.290  0.7384 -0.0506 -0.2369
  813SOL     OW 3017   0.776   4.435   1.348  0.0685  0.6060 -0.1758
  813SOL    HW2 3018   0.793   4.420   1.255  1.3276  0.1470  0.1077
  813SOL    HW3 3019   0.715   4.366   1.373  0.7432 -0.0841 -0.3835
  813SOL    MW4 3020   0.771   4.424   1.339  0.3236  0.4544 -0.1658
  814SOL     OW 3021   0.705   1.666   1.067  0.0337 -0.2831  0.1984
  814SOL    HW2 3022   0.665   1.589   1.108  0.4416  0.5063  2.2052
  814SOL    HW3 3023   0.779   1.688   1.125 -1.9802  3.5295  1.6693
  814SOL    MW4 3024   0.710   1.659   1.080 -0.1782  0.3241  0.6573
  815SOL     OW 3025   0.609   6.335   2.563 -0.0199  0.3475  0.3091
  815SOL    HW2 3026   0.555   6.285   2.502  0.9615 -2.2463  1.4238
  815SOL    HW3 3027   0.553   6.348   2.639 -0.3339  1.1611 -0.0482
  815SOL    MW4 3028   0.594   6.330   2.565  0.0681  0.1127  0.4090
  816SOL     OW 3029   3.470   2.468   5.965  0.4648  0.1544 -0.2045
  816SOL    HW2 3030   3.484   2.397   5.902  0.5558  0.8826 -1.0309
  816SOL    HW3 3031   3.385   2.506   5.941  0.2559  0.1083  0.4466
  816SOL    MW4 3032   3.461   2.464   5.953  0.4493  0.2444 -0.2277
  817SOL     OW 3033   4.049   5.480   2.023  0.1243  0.0433 -0.1264
  817SOL    HW2 3034   4.044   5.507   2.115 -0.3985 -1.0722  0.2044
  817SOL    HW3 3035   4.024   5.387   2.025  0.3864 -0.0678 -1.3643
  817SOL    MW4 3036   4.045   5.471   2.035  0.0899 -0.1185 -0.2461
  818SOL     OW 3037   0.270   2.095   3.877 -0.4470 -0.4840  0.4878
  818SOL    HW2 3038   0.310   2.182   3.869 -1.9583  0.2724  0.6739
  818SOL    HW3 3039   0.283   2.054   3.792 -0.1131  0.1145  0.2489
  818SOL    MW4 3040   0.277   2.101   3.865 -0.6024 -0.3052  0.4808
  819SOL     OW 3041   6.023   0.437   0.464  0.2415  0.4721 -0.0035
  819SOL    HW2 3042   6.097   0.484   0.427  1.1744 -1.4719 -0.7701
  819SOL    HW3 3043   5.969   0.412   0.389 -0.9978  1.4924  0.5081
  819SOL    MW4 3044   6.026   0.440   0.449  0.2010  0.3502 -0.0371
  820SOL     OW 3045   5.344   3.681   4.649  0.0095 -0.1994  0.4425
  820SOL    HW2 3046   5.352   3.596   4.606 -3.4561  0.2685 -1.5041
  820SOL    HW3 3047   5.365   3.664   4.741  0.4190 -2.8970 -0.0685
  820SOL    MW4 3048   5.348   3.667   4.656 -0.3937 -0.4936  0.1182
  821SOL     OW 3049   4.312   6.277   5.796 -0.1185 -0.0101 -0.2179
  821SOL    HW2 3050   4.340   6.230   5.874  1.6984 -0.2738 -0.9645
  821SOL    HW3 3051   4.368   6.354   5.792 -0.3634  0.1410 -1.1137
  821SOL    MW4 3052   4.323   6.281   5.805  0.0889 -0.0249 -0.4346
  822SOL     OW 3053   2.578   4.148   6.252 -0.0921 -0.6444 -0.5965
  822SOL    HW2 3054   2.638   4.212   6.290 -1.0123 -0.3473  0.4267
  822SOL    HW3 3055   2.497   4.197   6.238 -0.2068 -1.1087 -1.6818
  822SOL    MW4 3056   2.575   4.163   6.255 -0.2286 -0.6665 -0.6047
  823SOL     OW 3057   5.057   4.339   1.830 -0.1336 -0.0751 -0.2454
  823SOL    HW2 3058   5.039   4.356   1.737  2.8929  0.8171 -0.7819
  823SOL    HW3 3059   5.138   4.387   1.848 -1.4250  1.1408  3.3236
  823SOL    MW4 3060   5.065   4.348   1.820  0.0954  0.2030  0.1547
  824SOL     OW 3061   2.525   5.329   1.794 -0.2154  0.1478 -0.1762
  824SOL    HW2 3062   2.520   5.405   1.737 -2.0154 -0.9869 -1.6602
  824SOL    HW3 3063   2.542   5.364   1.881 -0.4830  2.1924 -0.9078
  824SOL    MW4 3064   2.526   5.343   1.798 -0.4882  0.2678 -0.4685
  825SOL     OW 3065   1.167   1.349   5.145  0.3354  0.4139 -0.1859
  825SOL    HW2 3066   1.136   1.276   5.092  1.8270  0.6348 -1.4477
  825SOL    HW3 3067   1.232   1.310   5.204  2.8171  0.9200 -2.3633
  825SOL    MW4 3068   1.172   1.334   5.145  0.8596  0.5099 -0.6397
  826SOL     OW 3069   4.765   0.563   3.558  0.3769  0.2145 -0.0575
  826SOL    HW2 3070   4.812   0.570   3.642 -0.4917 -0.3004  0.4774
  826SOL    HW3 3071   4.834   0.542   3.495  1.2135  1.6298  0.3307
  826SOL    MW4 3072   4.781   0.561   3.561  0.3727  0.3333  0.0643
  827SOL     OW 3073   0.067   5.901   6.382 -0.0556  0.1852 -0.3054
  827SOL    HW2 3074   0.007   5.974   6.396  0.7330  0.9688 -0.8917
  827SOL    HW3 3075   0.136   5.914   6.447 -0.2221 -0.4041  0.0005
  827SOL    MW4 3076   0.068   5.912   6.392  0.0265  0.2108 -0.3424
  828SOL     OW 3077   3.108   1.795   0.258 -0.4690  0.7199 -0.0629
  828SOL    HW2 3078   3.085   1.771   0.348  0.7612  0.4377  0.1832
  828SOL    HW3 3079   3.132   1.712   0.217  0.7257  1.0889 -0.1276
  828SOL    MW4 3080   3.108   1.781   0.265 -0.1491  0.7313 -0.0390
  829SOL     OW 3081   4.725   2.182   6.233  0.1390 -0.6506 -0.0148
  829SOL    HW2 3082   4.765   2.095   6.239  0.4176 -0.5094  0.1828
  829SOL    HW3 3083   4.691   2.187   6.144 -1.9948 -1.8922  0.6608
  829SOL    MW4 3084   4.726   2.171   6.222 -0.1057 -0.7958  0.1004
  830SOL     OW 3085   5.356   0.504   4.994 -0.5833 -0.0163  0.2672
  830SOL    HW2 3086   5.446   0.516   4.963 -0.7499 -1.3173 -0.8219
  830SOL    HW3 3087   5.323   0.593   5.008  0.6023  0.5042 -0.1417
  830SOL    MW4 3088   5.363   0.518   4.992 -0.4489 -0.1193  0.0695
  831SOL     OW 3089   4.532   3.487  -0.001  0.0079 -0.1110  0.3742
  831SOL    HW2 3090   4.491   3.570   0.025 -2.0168 -1.0261  0.3487
  831SOL    HW3 3091   4.507   3.476  -0.093 -1.3135 -1.5631  0.8584
  831SOL    MW4 3092   4.523   3.497  -0.010 -0.4336 -0.4233  0.4348
  832SOL     OW 3093   0.323   3.724   0.193  0.7075 -0.6096  0.1594
  832SOL    HW2 3094   0.244   3.686   0.231  1.0854 -2.8391 -1.0631
  832SOL    HW3 3095   0.296   3.755   0.107  0.8914 -0.1851  0.2512
  832SOL    MW4 3096   0.309   3.723   0.186  0.7817 -0.8478  0.0102
  833SOL     OW 3097   4.830   0.177   4.107 -0.3010  0.2619  0.0692
  833SOL    HW2 3098   4.741   0.208   4.094 -0.1615  0.1964 -1.1629
  833SOL    HW3 3099   4.884   0.255   4.101 -0.1881  0.1643 -0.1781
  833SOL    MW4 3100   4.826   0.191   4.105 -0.2677  0.2404 -0.1260
  834SOL     OW 3101   1.830   3.721   6.132 -0.0004  0.4718  0.9082
  834SOL    HW2 3102   1.782   3.765   6.062 -0.8105  0.4885  1.4548
  834SOL    HW3 3103   1.832   3.629   6.106 -0.8460  0.3749  1.1426
  834SOL    MW4 3104   1.824   3.715   6.120 -0.2189  0.4612  1.0113
  835SOL     OW 3105   5.641   4.056   3.193  0.2630  0.0497 -0.4013
  835SOL    HW2 3106   5.616   3.969   3.225 -0.4967  0.9299  1.5330
  835SOL    HW3 3107   5.672   4.103   3.270  0.6714  1.5221 -1.4030
  835SOL    MW4 3108   5.642   4.051   3.207  0.2167  0.3601 -0.2783
  836SOL     OW 3109   4.057   3.583   2.150  0.3996  0.2018  0.3567
  836SOL    HW2 3110   4.101   3.667   2.135 -0.1803  0.7130  1.3797
  836SOL    HW3 3111   3.970   3.608   2.180  0.9124 -0.7269  2.7942
  836SOL    MW4 3112   4.051   3.597   2.152  0.3908  0.1467  0.8133
  837SOL     OW 3113   5.518   0.894   3.754 -0.1636 -0.1973  0.2440
  837SOL    HW2 3114   5.577   0.948   3.807 -0.9880 -0.1203  1.1108
  837SOL    HW3 3115   5.453   0.955   3.720 -1.0152 -0.5971  1.1035
  837SOL    MW4 3116   5.517   0.909   3.756 -0.3848 -0.2399  0.4718
  838SOL     OW 3117   1.855   1.024   2.547  0.2516 -0.3528 -0.4953
  838SOL    HW2 3118   1.893   1.096   2.497  0.0179  0.5663  0.6043
  838SOL    HW3 3119   1.847   1.058   2.636 -0.9977 -1.3118 -0.2091
  838SOL    MW4 3120   1.859   1.038   2.552  0.0560 -0.3581 -0.3124
  839SOL     OW 3121   5.107   5.937   4.578  0.2288  0.6398  1.0929
  839SOL    HW2 3122   5.042   5.995   4.540  0.1049 -1.1091 -1.6471
  839SOL    HW3 3123   5.130   5.877   4.507  2.0471 -1.1871  3.0775
  839SOL    MW4 3124   5.102   5.937   4.564  0.4523  0.1680  0.9932
  840SOL     OW 3125   0.195   1.398   5.019  0.0737 -0.0234 -0.2517
  840SOL    HW2 3126   0.151   1.327   5.067 -0.6154  1.2157  1.0245
  840SOL    HW3 3127   0.178   1.476   5.071  0.7783  1.1067 -1.6474
  840SOL    MW4 3128   0.187   1.399   5.032  0.0758  0.2892 -0.2675
  841SOL     OW 3129   6.131   0.063   2.775  0.4607 -1.0820  0.3636
  841SOL    HW2 3130   6.176   0.116   2.709 -0.8726 -0.1983  0.1347
  841SOL    HW3 3131   6.193   0.059   2.848  0.8917  0.1608  0.0865
  841SOL    MW4 3132   6.145   0.070   2.776  0.3417 -0.8015  0.2968
  842SOL     OW 3133   1.291   1.228   0.833 -0.5672 -0.2402  0.2277
  842SOL    HW2 3134   1.378   1.257   0.861 -0.9042  1.1441 -0.0839
  842SOL    HW3 3135   1.244   1.309   0.814 -2.0817 -0.9516  0.8379
  842SOL    MW4 3136   1.297   1.243   0.834 -0.8115 -0.1514  0.2671
  843SOL     OW 3137   0.535   1.295   0.061  0.0705 -0.0589  0.1874
  843SOL    HW2 3138   0.618   1.281   0.106 -0.7270 -2.2135  1.1175
  843SOL    HW3 3139   0.487   1.213   0.073 -2.3095  1.2073 -0.0701
  843SOL    MW4 3140   0.540   1.283   0.068 -0.3488 -0.1761  0.2761
  844SOL     OW 3141   1.685   4.184   4.391  0.0918 -0.4922  0.1475
  844SOL    HW2 3142   1.702   4.262   4.443 -0.1710 -0.7566  0.6461
  844SOL    HW3 3143   1.589   4.175   4.393  0.1490 -1.1458  0.5967
  844SOL    MW4 3144   1.674   4.193   4.398  0.0647 -0.6133  0.2725
  845SOL     OW 3145   2.394   0.251   1.865 -0.6203  0.0084  0.1363
  845SOL    HW2 3146   2.370   0.171   1.819 -0.9444 -0.9659  1.9029
  845SOL    HW3 3147   2.489   0.246   1.875 -0.0062  1.8439 -3.1893
  845SOL    MW4 3148   2.403   0.240   1.860 -0.5820  0.1221 -0.0694
  846SOL     OW 3149   3.819   4.359   5.089 -0.1120  0.5587 -0.3072
  846SOL    HW2 3150   3.770   4.284   5.122  0.2961  0.3116 -0.2594
  846SOL    HW3 3151   3.818   4.350   4.994  3.5357 -1.9042 -0.3204
  846SOL    MW4 3152   3.813   4.348   5.081  0.4231  0.2012 -0.3026
  847SOL     OW 3153   0.555   4.026   6.098 -0.0890  0.3354 -0.5595
  847SOL    HW2 3154   0.638   4.041   6.143 -0.7227 -0.3073  0.8805
  847SOL    HW3 3155   0.550   3.931   6.087 -1.0368  0.2813  0.2052
  847SOL    MW4 3156   0.566   4.016   6.102 -0.2976  0.2434 -0.2686
  848SOL     OW 3157   3.480   5.412   1.227  0.4362  0.0598 -0.2247
  848SOL    HW2 3158   3.413   5.468   1.267  0.0266 -0.7288  0.2261
  848SOL    HW3 3159   3.506   5.459   1.148 -0.2560  0.6442 -0.1198
  848SOL    MW4 3160   3.474   5.426   1.222  0.2908  0.0328 -0.1514
  849SOL     OW 3161   0.189   3.350   5.308  0.2683 -0.5035  0.5141
  849SOL    HW2 3162   0.148   3.265   5.291  2.1933 -1.6859  1.4342
  849SOL    HW3 3163   0.246   3.365   5.233  0.6829 -0.5201  0.8222
  849SOL    MW4 3164   0.191   3.341   5.296  0.5770 -0.6617  0.6761
  850SOL     OW 3165   1.324   3.168   2.898 -0.0685 -0.1694  0.4683
  850SOL    HW2 3166   1.313   3.262   2.887 -1.2937 -0.4782 -1.3491
  850SOL    HW3 3167   1.341   3.157   2.992  2.3077  2.0058  0.4009
  850SOL    MW4 3168   1.325   3.179   2.909  0.0834  0.0769  0.2196
  851SOL     OW 3169   1.069   4.629   0.301 -0.2872  0.3977 -0.1900
  851SOL    HW2 3170   0.993   4.680   0.328  0.5030  0.7591  1.4624
  851SOL    HW3 3171   1.104   4.676   0.225 -0.6941  1.2153  0.1154
  851SOL    MW4 3172   1.064   4.642   0.294 -0.2366  0.5533  0.0683
  852SOL     OW 3173   1.061   0.753   0.149  0.7020  0.0509 -0.0269
  852SOL    HW2 3174   0.989   0.773   0.208 -0.1349  1.0385 -1.3305
  852SOL    HW3 3175   1.021   0.745   0.063  2.1086  0.3390 -0.7456
  852SOL    MW4 3176   1.046   0.755   0.146  0.7772  0.2192 -0.2937
  853SOL     OW 3177   0.907   6.115   4.689  0.1227 -0.5493 -0.1020
  853SOL    HW2 3178   1.001   6.130   4.681 -0.3032  1.9491 -1.0729
  853SOL    HW3 3179   0.897   6.079   4.778  1.8877 -0.0492  0.3451
  853SOL    MW4 3180   0.918   6.112   4.700  0.2994 -0.1537 -0.1711
  854SOL     OW 3181   4.985   5.274   2.917  0.5066  0.0003 -0.1355
  854SOL    HW2 3182   5.048   5.276   2.846 -0.1281 -1.3916 -0.7681
  854SOL    HW3 3183   4.992   5.186   2.954  1.0336  0.7690  1.7554
  854SOL    MW4 3184   4.994   5.262   2.913  0.4924 -0.0820  0.0305
  855SOL     OW 3185   6.283   6.386   5.173 -0.4559  0.1430 -0.4168
  855SOL    HW2 3186   6.250   6.316   5.229 -1.1157  0.1082 -0.8299
  855SOL    HW3 3187   6.314   6.341   5.094  0.4360  0.1944 -0.1072
  855SOL    MW4 3188   6.283   6.371   5.170 -0.4253  0.1452 -0.4304
  856SOL     OW 3189   2.960   5.205   3.203 -0.3080  0.5682 -0.8054
  856SOL    HW2 3190   2.983   5.278   3.261  0.0786  0.0257 -0.2652
  856SOL    HW3 3191   2.876   5.173   3.238  1.4222 -1.8203  1.5499
  856SOL    MW4 3192   2.952   5.211   3.216 -0.0287  0.1815 -0.4234
  857SOL     OW 3193   5.451   5.569   4.253 -0.4835  0.3786  0.4352
  857SOL    HW2 3194   5.455   5.640   4.316 -0.2907 -1.0438  2.1045
  857SOL    HW3 3195   5.358   5.546   4.248 -0.6168  1.0830 -0.5202
  857SOL    MW4 3196   5.439   5.575   4.260 -0.4756  0.2839  0.5294
  858SOL     OW 3197   3.734   5.799   0.632 -0.3114 -0.3135 -0.1767
  858SOL    HW2 3198   3.710   5.817   0.541 -0.2339 -1.6352 -0.4821
  858SOL    HW3 3199   3.653   5.812   0.681 -0.6821 -0.8268 -0.6320
  858SOL    MW4 3200   3.720   5.803   0.627 -0.3501 -0.5556 -0.2770
  859SOL     OW 3201   1.041   1.305   1.783  0.0791  0.4996  0.3720
  859SOL    HW2 3202   0.993   1.225   1.802 -0.5875  0.4520 -1.3384
  859SOL    HW3 3203   0.987   1.375   1.819  0.4184  0.2552  1.4176
  859SOL    MW4 3204   1.028   1.304   1.791  0.0359  0.4611  0.2843
  860SOL     OW 3205   2.718   3.405   5.325 -0.3764 -0.4689  0.2396
  860SOL    HW2 3206   2.684   3.429   5.411  1.3074 -0.3350  0.9189
  860SOL    HW3 3207   2.813   3.417   5.333 -0.1105 -1.1957 -1.4011
  860SOL    MW4 3208   2.726   3.410   5.338 -0.1192 -0.5471  0.1128
  861SOL     OW 3209   0.425   1.616   3.331  0.1718 -0.8037  0.4800
  861SOL    HW2 3210   0.420   1.651   3.242 -3.8804 -1.6629  0.1781
  861SOL    HW3 3211   0.334   1.610   3.359  1.2292 -1.9677  4.1678
  861SOL    MW4 3212   0.412   1.620   3.323 -0.2234 -1.0707  0.9267
  862SOL     OW 3213   3.239   4.343   4.298  0.1885 -0.2598 -0.0504
  862SOL    HW2 3214   3.228   4.376   4.209  0.0795 -2.8261 -1.0603
  862SOL    HW3 3215   3.150   4.340   4.333  0.2669  1.0986  0.3243
  862SOL    MW4 3216   3.226   4.347   4.291  0.1845 -0.4192 -0.1342
  863SOL     OW 3217   1.585   5.534   4.977  0.1100 -0.0566 -0.0480
  863SOL    HW2 3218   1.641   5.506   5.049  0.7603  2.0438  0.3151
  863SOL    HW3 3219   1.618   5.620   4.952 -2.2077  0.7464 -0.6146
  863SOL    MW4 3220   1.596   5.542   4.983 -0.1100  0.3265 -0.0748
  864SOL     OW 3221   3.994   5.825   2.190 -0.9118 -0.0834 -0.2126
  864SOL    HW2 3222   3.972   5.784   2.274 -1.1479 -0.5829 -0.5174
  864SOL    HW3 3223   3.940   5.904   2.186 -0.7448  0.0561  0.1961
  864SOL    MW4 3224   3.984   5.830   2.201 -0.9209 -0.1309 -0.1989
  865SOL     OW 3225   0.319   1.988   4.772  0.2875 -0.0426 -0.3543
  865SOL    HW2 3226   0.318   2.071   4.820  0.6594  0.2157 -0.7922
  865SOL    HW3 3227   0.411   1.973   4.750  0.0476  0.1847 -1.5698
  865SOL    MW4 3228   0.331   1.997   4.776  0.3049  0.0215 -0.5725
  866SOL     OW 3229   3.083   1.310   4.896  0.4208  0.5367 -0.4805
  866SOL    HW2 3230   3.144   1.237   4.883 -2.2087 -2.2011  1.1063
  866SOL    HW3 3231   3.043   1.323   4.810  0.5947 -0.2349 -0.6896
  866SOL    MW4 3232   3.086   1.302   4.883  0.0968  0.0736 -0.2987
  867SOL     OW 3233   4.644   4.095   4.675  0.2239  0.3528 -0.0759
  867SOL    HW2 3234   4.611   4.121   4.762  1.1336  1.2336  0.0183
  867SOL    HW3 3235   4.703   4.165   4.650  0.2562 -0.0820 -1.2610
  867SOL    MW4 3236   4.647   4.107   4.683  0.3482  0.4116 -0.2198
  868SOL     OW 3237   4.059   2.844   5.773 -0.5220 -0.1276  0.0129
  868SOL    HW2 3238   4.108   2.807   5.700 -0.3968  0.7414 -0.3477
  868SOL    HW3 3239   3.967   2.840   5.744 -0.5446 -0.4696  0.1214
  868SOL    MW4 3240   4.053   2.839   5.760 -0.5084 -0.0581 -0.0203
  869SOL     OW 3241   6.100   4.479   4.565 -0.5408  0.4190  0.3551
  869SOL    HW2 3242   6.045   4.496   4.489  0.7972  0.8995 -0.5571
  869SOL    HW3 3243   6.084   4.553   4.624 -1.6745 -0.0161  0.6110
  869SOL    MW4 3244   6.091   4.491   4.563 -0.5138  0.4250  0.2685
  870SOL     OW 3245   1.879   4.577   0.862  0.2309  0.2742 -0.3256
  870SOL    HW2 3246   1.874   4.637   0.937 -1.8538 -1.9607  1.5028
  870SOL    HW3 3247   1.804   4.601   0.807  2.0003  2.1987 -2.1023
  870SOL    MW4 3248   1.868   4.588   0.865  0.1893  0.2333 -0.3188
  871SOL     OW 3249   0.492   0.983   3.047 -0.4989  0.0318 -0.3187
  871SOL    HW2 3250   0.580   0.948   3.032  0.1706  1.5577 -0.1052
  871SOL    HW3 3251   0.477   1.041   2.973 -1.0519  0.2897 -0.0077
  871SOL    MW4 3252   0.502   0.986   3.035 -0.4835  0.2671 -0.2495
  872SOL     OW 3253   0.746   1.292   5.381  0.1439 -0.1875 -0.2899
  872SOL    HW2 3254   0.717   1.359   5.443 -0.5510 -0.1062 -0.6972
  872SOL    HW3 3255   0.796   1.340   5.315 -1.9902  0.2609 -1.6628
  872SOL    MW4 3256   0.749   1.307   5.380 -0.2294 -0.1176 -0.5248
  873SOL     OW 3257   1.460   1.144   1.159 -0.2515  0.6866 -0.5539
  873SOL    HW2 3258   1.538   1.107   1.120 -0.8830  1.2110 -2.4297
  873SOL    HW3 3259   1.394   1.075   1.153 -0.0297  0.3337  0.7864
  873SOL    MW4 3260   1.461   1.130   1.153 -0.3056  0.7092 -0.6246
  874SOL     OW 3261   6.452   4.875   3.439 -0.2489 -0.6109 -0.3740
  874SOL    HW2 3262   6.389   4.808   3.413 -0.2432  0.2327 -2.8330
  874SOL    HW3 3263   6.523   4.827   3.482 -0.7332 -2.0447 -1.1223
  874SOL    MW4 3264   6.453   4.860   3.441 -0.3120 -0.6888 -0.7972
  875SOL     OW 3265   2.258   1.867   2.999  0.0608  0.8342  0.5143
  875SOL    HW2 3266   2.181   1.875   2.943  1.7851  1.3955 -2.0048
  875SOL    HW3 3267   2.270   1.954   3.036 -0.3834  0.8021  0.7352
  875SOL    MW4 3268   2.250   1.879   2.996  0.2297  0.9040  0.2111
  876SOL     OW 3269   5.360   5.153   5.461  0.1541 -0.1748  0.4391
  876SOL    HW2 3270   5.453   5.151   5.484 -0.1313 -0.4962  1.6321
  876SOL    HW3 3271   5.349   5.083   5.397  1.0118  0.8646 -0.8990
  876SOL    MW4 3272   5.371   5.144   5.455  0.2296 -0.0800  0.4200
  877SOL     OW 3273   1.881   5.870   3.623  0.0654 -0.1011 -0.4275
  877SOL    HW2 3274   1.915   5.952   3.587 -1.2705  0.7088  0.1026
  877SOL    HW3 3275   1.870   5.886   3.716  3.3215 -2.1313  0.4797
  877SOL    MW4 3276   1.884   5.883   3.630  0.3187 -0.2621 -0.2378
  878SOL     OW 3277   3.142   1.559   5.089 -0.2785 -0.0001  0.1587
  878SOL    HW2 3278   3.120   1.468   5.071  1.1119 -0.3184 -0.0635
  878SOL    HW3 3279   3.163   1.596   5.003 -3.2691  1.2877 -0.1431
  878SOL    MW4 3280   3.142   1.552   5.075 -0.4896  0.1278  0.0895
  879SOL     OW 3281   4.397   1.573   1.431 -0.2842  0.0241 -0.3858
  879SOL    HW2 3282   4.429   1.577   1.521 -0.4206  2.4501 -0.3769
  879SOL    HW3 3283   4.397   1.480   1.410 -0.3541 -0.6404  2.1557
  879SOL    MW4 3284   4.401   1.561   1.440 -0.3114  0.2565 -0.0493
  880SOL     OW 3285   1.128   0.399   6.066  0.0494  0.0071  0.1193
  880SOL    HW2 3286   1.223   0.413   6.062 -0.0853  0.7700 -1.0727
  880SOL    HW3 3287   1.102   0.428   6.153  0.9268 -0.3773  0.5243
  880SOL    MW4 3288   1.137   0.404   6.077  0.1474  0.0570  0.0155
  881SOL     OW 3289   3.915   1.100   0.424 -0.2655  0.0472  0.3737
  881SOL    HW2 3290   4.001   1.129   0.391 -0.3185  0.6262  0.7394
  881SOL    HW3 3291   3.933   1.016   0.465  0.2083  0.3336  0.7795
  881SOL    MW4 3292   3.929   1.093   0.425 -0.2100  0.1614  0.4755
  882SOL     OW 3293   1.966   0.188   1.434 -0.1622  0.2508  0.0704
  882SOL    HW2 3294   1.919   0.197   1.517 -0.8245  1.6754 -0.4149
  882SOL    HW3 3295   2.050   0.231   1.450 -0.8566  1.8482 -0.3888
  882SOL    MW4 3296   1.970   0.195   1.447 -0.3412  0.6495 -0.0542
  883SOL     OW 3297   3.800   3.710   4.299 -0.2142 -0.0201  0.3416
  883SOL    HW2 3298   3.809   3.798   4.338  0.2118  0.0364  0.1294
  883SOL    HW3 3299   3.711   3.684   4.319 -0.2979  0.4021  0.5418
  883SOL    MW4 3300   3.790   3.718   4.307 -0.1690  0.0430  0.3400
  884SOL     OW 3301   1.922   4.732   1.121 -0.0078  0.8832  0.1542
  884SOL    HW2 3302   2.001   4.691   1.156 -1.2854  0.5071  2.8109
  884SOL    HW3 3303   1.931   4.825   1.143  0.1063  1.0069 -0.3952
  884SOL    MW4 3304   1.934   4.739   1.128 -0.1613  0.8499  0.4322
  885SOL     OW 3305   6.014   6.272   5.548 -0.0626  0.4406  0.1075
  885SOL    HW2 3306   6.051   6.357   5.572  0.7655 -0.3114  1.6739
  885SOL    HW3 3307   5.920   6.289   5.537  0.3356  1.8973 -1.4586
  885SOL    MW4 3308   6.006   6.285   5.550  0.0992  0.5336  0.1075
  886SOL     OW 3309   2.464   1.748   4.184 -0.0194 -0.3519 -0.0579
  886SOL    HW2 3310   2.518   1.681   4.226 -1.3068 -1.0857  0.4820
  886SOL    HW3 3311   2.494   1.830   4.222  1.4947 -0.6147 -0.6337
  886SOL    MW4 3312   2.475   1.750   4.195  0.0105 -0.4834 -0.0627
  887SOL     OW 3313   5.025   2.698   4.875 -0.4302  0.1593  0.2970
  887SOL    HW2 3314   4.966   2.640   4.922 -0.6486  0.6240  0.6024
  887SOL    HW3 3315   4.985   2.709   4.789  0.2293 -1.1017 -0.2060
  887SOL    MW4 3316   5.012   2.692   4.870 -0.3720  0.0543  0.2709
  888SOL     OW 3317   3.934   5.074   4.351 -0.6660 -0.2984  0.1467
  888SOL    HW2 3318   3.874   5.096   4.279  0.8448 -0.6352 -1.2782
  888SOL    HW3 3319   3.912   5.136   4.421 -1.9463  0.2744 -0.7332
  888SOL    MW4 3320   3.923   5.085   4.351 -0.6356 -0.2673 -0.1574
  889SOL     OW 3321   1.478   4.094   3.920  0.0187 -0.6712 -0.2211
  889SOL    HW2 3322   1.543   4.149   3.876 -0.0266 -1.0648 -0.7984
  889SOL    HW3 3323   1.405   4.152   3.938 -0.0300 -0.5373 -0.8319
  889SOL    MW4 3324   1.477   4.109   3.916  0.0063 -0.7055 -0.3778
  890SOL     OW 3325   0.626   0.452   4.320  0.6717 -0.1367 -0.4741
  890SOL    HW2 3326   0.643   0.539   4.283  1.8213 -0.1772 -0.0889
  890SOL    HW3 3327   0.530   0.445   4.321  0.5544  1.1100 -0.5351
  890SOL    MW4 3328   0.616   0.463   4.315  0.8079  0.0225 -0.4313
  891SOL     OW 3329   6.442   4.214   1.219  0.1315  0.0419 -0.1048
  891SOL    HW2 3330   6.490   4.175   1.292 -1.9787 -0.5298  1.0592
  891SOL    HW3 3331   6.365   4.254   1.259 -0.5359  0.6745 -1.9094
  891SOL    MW4 3332   6.438   4.214   1.234 -0.2350  0.0499 -0.1893
  892SOL     OW 3333   1.127   2.955   4.068  0.2228 -0.5881  0.0186
  892SOL    HW2 3334   1.035   2.976   4.052  0.5856 -0.6010 -2.4559
  892SOL    HW3 3335   1.138   2.867   4.031  1.5671  0.0878 -1.3067
  892SOL    MW4 3336   1.116   2.946   4.061  0.4480 -0.5006 -0.4827
  893SOL     OW 3337   3.398   3.563   4.956 -0.0588  0.4194  0.4593
  893SOL    HW2 3338   3.348   3.543   5.035  1.2247 -0.1612  1.1591
  893SOL    HW3 3339   3.485   3.528   4.974  0.5384  1.1998 -0.8094
  893SOL    MW4 3340   3.403   3.556   4.969  0.1893  0.4458  0.3842
  894SOL     OW 3341   4.304   5.885   2.924 -0.0279 -0.2538  0.2159
  894SOL    HW2 3342   4.333   5.944   2.854  0.3110 -0.7248 -0.0465
  894SOL    HW3 3343   4.276   5.944   2.994 -0.3959  0.2264 -0.3206
  894SOL    MW4 3344   4.304   5.901   2.924 -0.0317 -0.2526  0.1105
  895SOL     OW 3345   6.337   1.907   3.379 -0.5124 -0.2494  0.1213
  895SOL    HW2 3346   6.384   1.895   3.297  0.1099  1.3906  0.1942
  895SOL    HW3 3347   6.270   1.972   3.359 -0.3460  0.1795  0.9117
  895SOL    MW4 3348   6.334   1.914   3.366 -0.4084  0.0236  0.2352
  896SOL     OW 3349   1.286   6.065   1.164 -0.2201  0.0780  0.2418
  896SOL    HW2 3350   1.338   6.132   1.208  0.8677  0.3768 -1.3792
  896SOL    HW3 3351   1.195   6.086   1.185  0.2249  0.5561  1.7792
  896SOL    MW4 3352   1.281   6.077   1.172 -0.0179  0.1805  0.2307
  897SOL     OW 3353   2.171   5.737   1.561 -0.1022 -0.1664 -0.6207
  897SOL    HW2 3354   2.213   5.794   1.625 -0.2326 -0.9825  0.2104
  897SOL    HW3 3355   2.232   5.735   1.488  0.9868 -0.7626  0.2745
  897SOL    MW4 3356   2.185   5.744   1.560  0.0243 -0.3527 -0.3929
  898SOL     OW 3357   0.761   4.736   2.957 -0.0611  0.0491 -0.1810
  898SOL    HW2 3358   0.781   4.828   2.976  0.0246 -0.2333  1.1695
  898SOL    HW3 3359   0.816   4.714   2.882 -1.4668  1.6308 -1.7814
  898SOL    MW4 3360   0.771   4.746   2.950 -0.2353  0.2206 -0.2140
  899SOL     OW 3361   4.106   1.602   1.848 -0.2665 -0.2688  0.3662
  899SOL    HW2 3362   4.050   1.599   1.771  2.4658 -2.1196 -1.7181
  899SOL    HW3 3363   4.177   1.661   1.825  1.1685 -1.6682  0.9712
  899SOL    MW4 3364   4.108   1.609   1.835  0.2833 -0.6976  0.1710
  900SOL     OW 3365   0.712   3.140   3.113  0.2820 -0.1696 -0.0607
  900SOL    HW2 3366   0.626   3.152   3.072 -0.1824 -3.6841 -0.4522
  900SOL    HW3 3367   0.774   3.150   3.042  0.2241  2.0350  0.1524
  900SOL    MW4 3368   0.709   3.143   3.098  0.2131 -0.3424 -0.0842
  901SOL     OW 3369   2.824   6.368   4.229  0.3149  0.1773  0.2113
  901SOL    HW2 3370   2.764   6.442   4.224 -1.3483 -1.0840  0.3999
  901SOL    HW3 3371   2.873   6.381   4.311 -0.8943  0.4140  0.9125
  901SOL    MW4 3372   2.823   6.379   4.239 -0.0641  0.0421  0.3287
  902SOL     OW 3373   3.084   0.086   2.006 -0.4712  0.1393 -0.4599
  902SOL    HW2 3374   3.044   0.057   1.924  1.8555 -0.1564 -1.5465
  902SOL    HW3 3375   3.157   0.026   2.020  0.9393  1.9658  0.3005
  902SOL    MW4 3376   3.088   0.074   1.997  0.0219  0.3412 -0.5029
  903SOL     OW 3377   1.260   2.150   5.782 -0.2176 -0.2199  0.3523
  903SOL    HW2 3378   1.309   2.192   5.712 -1.5344  0.6790 -0.0620
  903SOL    HW3 3379   1.210   2.080   5.739  0.0734 -0.6111  0.6380
  903SOL    MW4 3380   1.260   2.146   5.767 -0.3529 -0.1529  0.3353
  904SOL     OW 3381   2.766   5.879   2.960  0.0929 -0.2377  0.3110
  904SOL    HW2 3382   2.683   5.925   2.944  0.6749  0.9625  0.6668
  904SOL    HW3 3383   2.785   5.894   3.052  0.4574 -0.9454  0.3576
  904SOL    MW4 3384   2.757   5.887   2.970  0.2178 -0.1727  0.3641
  905SOL     OW 3385   4.518   3.416   1.315 -0.0465 -0.3379  0.1032
  905SOL    HW2 3386   4.598   3.417   1.262  1.2033 -1.6680  1.8523
  905SOL    HW3 3387   4.447   3.414   1.251  1.2694  1.3908 -1.5134
  905SOL    MW4 3388   4.520   3.416   1.300  0.2920 -0.2853  0.1207
  906SOL     OW 3389   1.143   6.162   2.513 -0.2653  0.2407  0.3097
  906SOL    HW2 3390   1.169   6.252   2.495 -0.6123  0.4716  0.9389
  906SOL    HW3 3391   1.060   6.169   2.560  0.3533 -0.3442  1.5701
  906SOL    MW4 3392   1.136   6.175   2.517 -0.2295  0.1940  0.5590
  907SOL     OW 3393   4.126   3.040   1.412 -0.2185  0.9308 -0.3464
  907SOL    HW2 3394   4.062   3.111   1.405 -2.2385 -0.6803  0.6775
  907SOL    HW3 3395   4.151   3.039   1.504 -1.1335 -0.3737 -0.0733
  907SOL    MW4 3396   4.120   3.049   1.423 -0.6057  0.5461 -0.1753
  908SOL     OW 3397   1.335   2.791   3.715  0.7573 -0.2029  0.2056
  908SOL    HW2 3398   1.340   2.862   3.778  1.1082 -0.2195  0.1978
  908SOL    HW3 3399   1.247   2.799   3.676  0.3996 -0.4257  0.9603
  908SOL    MW4 3400   1.324   2.801   3.718  0.7564 -0.2345  0.3042
  909SOL     OW 3401   1.377   0.727   5.147  0.4183  0.1518 -0.1961
  909SOL    HW2 3402   1.384   0.638   5.181  2.4829 -0.1195 -1.1765
  909SOL    HW3 3403   1.440   0.778   5.198  2.1596  0.1434 -2.1732
  909SOL    MW4 3404   1.386   0.722   5.158  0.9204  0.1149 -0.5863
  910SOL     OW 3405   3.321   4.836   2.093  0.1519  0.1479  0.1483
  910SOL    HW2 3406   3.375   4.905   2.054  1.3050 -0.0253  1.3553
  910SOL    HW3 3407   3.260   4.811   2.024  1.8588  0.1123 -1.4339
  910SOL    MW4 3408   3.320   4.842   2.079  0.5293  0.1204  0.0988
  911SOL     OW 3409   0.242   4.877   3.278  0.5291 -0.2327 -0.0687
  911SOL    HW2 3410   0.165   4.869   3.334  0.7076 -0.6617  0.1155
  911SOL    HW3 3411   0.217   4.833   3.197  1.2609 -2.1460  0.6919
  911SOL    MW4 3412   0.228   4.870   3.275  0.6492 -0.5418  0.0560
  912SOL     OW 3413   5.455   4.722   5.017  0.2619  0.4969 -0.1545
  912SOL    HW2 3414   5.376   4.696   5.066  0.9099  0.0640  0.6909
  912SOL    HW3 3415   5.493   4.639   4.987 -0.3542  0.7774 -1.8021
  912SOL    MW4 3416   5.449   4.708   5.020  0.2661  0.4768 -0.2604
  913SOL     OW 3417   0.790   1.284   0.196  0.5104 -0.2937 -0.3678
  913SOL    HW2 3418   0.852   1.306   0.127  1.3004 -0.8882  0.1360
  913SOL    HW3 3419   0.814   1.340   0.270  0.3746 -0.4357 -0.2138
  913SOL    MW4 3420   0.801   1.294   0.197  0.5967 -0.3909 -0.2810
  914SOL     OW 3421   0.404   5.350   3.803 -0.1513  0.1816 -0.2648
  914SOL    HW2 3422   0.379   5.294   3.877  2.3837 -0.0875  0.4967
  914SOL    HW3 3423   0.454   5.291   3.745  0.6314  1.1107 -0.5602
  914SOL    MW4 3424   0.408   5.335   3.806  0.2864  0.2687 -0.2033
  915SOL     OW 3425   6.031   1.372   4.743 -0.1757  0.2596 -0.2721
  915SOL    HW2 3426   6.124   1.377   4.763 -0.6807 -1.8182  3.5953
  915SOL    HW3 3427   6.004   1.463   4.731  1.8435  1.1719  1.4090
  915SOL    MW4 3428   6.040   1.385   4.744  0.0241  0.1058  0.4600
  916SOL     OW 3429   4.162   3.980   3.217  0.4270 -0.7647 -0.1260
  916SOL    HW2 3430   4.203   3.961   3.133  0.4300  0.5377 -0.4300
  916SOL    HW3 3431   4.087   4.035   3.196 -0.0654 -1.1079  0.6536
  916SOL    MW4 3432   4.157   3.984   3.203  0.3624 -0.6381 -0.0633
  917SOL     OW 3433   3.040   3.564   4.728 -0.6019  0.1355  0.1125
  917SOL    HW2 3434   3.062   3.657   4.719 -0.2924  0.2154  1.3991
  917SOL    HW3 3435   3.101   3.519   4.671 -1.3963  0.7713 -1.2801
  917SOL    MW4 3436   3.051   3.570   4.720 -0.6658  0.2299  0.0985
  918SOL     OW 3437   2.408   4.396   0.036  0.3902 -1.0177  0.9469
  918SOL    HW2 3438   2.411   4.314   0.086  1.6579 -1.6031 -0.0248
  918SOL    HW3 3439   2.445   4.462   0.096  0.5742 -1.4218  1.2848
  918SOL    MW4 3440   2.413   4.394   0.051  0.5817 -1.1483  0.8633
  919SOL     OW 3441   2.076   1.806   1.598  0.6625  0.1473  0.2437
  919SOL    HW2 3442   2.147   1.865   1.575  1.8228 -1.1595  0.3804
  919SOL    HW3 3443   2.118   1.721   1.611 -0.7908 -0.4625  1.2275
  919SOL    MW4 3444   2.091   1.802   1.596  0.6238 -0.1056  0.3915
  920SOL     OW 3445   3.140   5.660   2.215 -0.0269 -0.3101 -0.3471
  920SOL    HW2 3446   3.099   5.721   2.154 -0.1805 -0.4354 -0.3697
  920SOL    HW3 3447   3.215   5.625   2.166  0.2821  0.1403 -0.1994
  920SOL    MW4 3448   3.145   5.664   2.200 -0.0064 -0.2672 -0.3306
  921SOL     OW 3449   5.186   0.371   3.150  0.5856  0.1486  0.4776
  921SOL    HW2 3450   5.211   0.284   3.117 -0.9731  0.2213 -1.0302
  921SOL    HW3 3451   5.234   0.380   3.232 -0.1942 -2.7039  1.3551
  921SOL    MW4 3452   5.196   0.360   3.156  0.2770 -0.2181  0.3944
  922SOL     OW 3453   4.746   2.456   5.401  0.3547 -0.6804  0.2822
  922SOL    HW2 3454   4.806   2.391   5.366  0.9387 -0.9466  1.6831
  922SOL    HW3 3455   4.790   2.489   5.480 -0.7972 -0.0021  0.6670
  922SOL    MW4 3456   4.759   2.452   5.407  0.2798 -0.6260  0.5178
  923SOL     OW 3457   2.664   1.231   0.324 -0.5894 -0.0493  0.4388
  923SOL    HW2 3458   2.569   1.243   0.316 -0.4281  0.5436 -1.0334
  923SOL    HW3 3459   2.699   1.273   0.246  0.8222 -1.1604  0.4361
  923SOL    MW4 3460   2.656   1.238   0.312 -0.3819 -0.1177  0.2442
  924SOL     OW 3461   6.403   3.933   6.092 -0.0032  0.2438  0.3194
  924SOL    HW2 3462   6.495   3.909   6.097  0.2967  1.2813 -0.1226
  924SOL    HW3 3463   6.400   4.008   6.033 -1.1516  0.1252  0.1997
  924SOL    MW4 3464   6.414   3.939   6.085 -0.1152  0.3650  0.2453
  925SOL     OW 3465   1.066   4.481   3.776  0.0342  0.0985  0.0118
  925SOL    HW2 3466   0.999   4.417   3.800 -0.4831  0.4606 -0.4435
  925SOL    HW3 3467   1.125   4.483   3.852  0.2755 -1.1887 -0.1193
  925SOL    MW4 3468   1.065   4.473   3.790 -0.0022 -0.0235 -0.0656
  926SOL     OW 3469   6.387   3.250   5.928  0.2071  0.9122  0.3422
  926SOL    HW2 3470   6.472   3.232   5.969  0.4121  0.3141 -0.3039
  926SOL    HW3 3471   6.356   3.163   5.901  0.0678  1.2774 -0.7079
  926SOL    MW4 3472   6.394   3.236   5.930  0.2157  0.8814  0.1184
  927SOL     OW 3473   6.048   3.031   3.224 -0.1872 -0.1398 -0.2611
  927SOL    HW2 3474   6.029   2.939   3.246 -0.8520  0.3304  1.2437
  927SOL    HW3 3475   6.143   3.038   3.233 -0.1181 -0.7105 -0.5079
  927SOL    MW4 3476   6.058   3.019   3.228 -0.2658 -0.1531 -0.0951
  928SOL     OW 3477   3.435   4.838   3.891 -0.2647  0.8179 -0.0329
  928SOL    HW2 3478   3.527   4.820   3.913 -0.4348 -0.4158 -0.2914
  928SOL    HW3 3479   3.440   4.910   3.827  0.5618  0.3577 -0.5093
  928SOL    MW4 3480   3.448   4.845   3.885 -0.1781  0.5944 -0.1299
  929SOL     OW 3481   3.188   4.138   5.007  0.1020  0.0427  0.6394
  929SOL    HW2 3482   3.203   4.048   5.037  0.4894 -0.2417 -0.3711
  929SOL    HW3 3483   3.264   4.187   5.040 -0.4949  0.1882  1.8653
  929SOL    MW4 3484   3.200   4.133   5.015  0.0744  0.0244  0.6678
  930SOL     OW 3485   6.209   4.772   4.368  0.6587  0.3759 -0.0805
  930SOL    HW2 3486   6.114   4.766   4.382  0.5942  0.8566 -0.2979
  930SOL    HW3 3487   6.240   4.682   4.381 -0.1443 -0.2816 -2.2409
  930SOL    MW4 3488   6.201   4.759   4.372  0.5442  0.3526 -0.3942
  931SOL     OW 3489   5.399   1.258   5.345 -0.1304 -0.1671  0.5442
  931SOL    HW2 3490   5.356   1.316   5.282 -0.6451 -1.7736 -0.6628
  931SOL    HW3 3491   5.441   1.191   5.290  2.6615  0.4567  1.7276
  931SOL    MW4 3492   5.399   1.257   5.329  0.1700 -0.2967  0.5411
  932SOL     OW 3493   2.705   5.273   3.946  0.1789  0.4413  0.4043
  932SOL    HW2 3494   2.785   5.326   3.946  1.7091 -1.7197  1.0775
  932SOL    HW3 3495   2.675   5.275   3.855 -0.3920  3.1810  0.5933
  932SOL    MW4 3496   2.712   5.280   3.934  0.3055  0.5176  0.5180
  933SOL     OW 3497   4.451   5.609   3.251  0.4304 -0.5266 -0.3145
  933SOL    HW2 3498   4.501   5.570   3.323  1.7927  0.4931 -0.6666
  933SOL    HW3 3499   4.470   5.702   3.257 -0.6453 -0.2408 -1.0963
  933SOL    MW4 3500   4.460   5.616   3.261  0.4682 -0.3544 -0.4641
  934SOL     OW 3501   4.992   6.302   4.261 -0.8780 -0.4978 -0.1424
  934SOL    HW2 3502   5.082   6.272   4.276 -1.1380 -0.4496  1.8226
  934SOL    HW3 3503   4.999   6.398   4.263 -0.7083 -0.4482 -1.9632
  934SOL    MW4 3504   5.005   6.311   4.263 -0.8899 -0.4849 -0.1234
  935SOL     OW 3505   3.604   5.004   3.199  0.1802  0.3752 -0.0350
  935SOL    HW2 3506   3.528   5.056   3.224  0.6652  0.5943  1.0492
  935SOL    HW3 3507   3.567   4.927   3.156 -0.7502 -0.1491  1.6187
  935SOL    MW4 3508   3.589   5.000   3.197  0.1215  0.3349  0.3263
  936SOL     OW 3509   0.817   5.712   5.061 -0.2528  0.2675 -0.3508
  936SOL    HW2 3510   0.881   5.748   5.123 -0.1205 -1.1219  0.3537
  936SOL    HW3 3511   0.734   5.714   5.108 -0.2124 -0.4858 -0.2387
  936SOL    MW4 3512   0.815   5.717   5.075 -0.2300 -0.0152 -0.2430
  937SOL     OW 3513   4.602   0.770   3.310  0.1326  0.2122 -0.4844
  937SOL    HW2 3514   4.581   0.805   3.397 -2.6014 -1.5558 -0.2982
  937SOL    HW3 3515   4.594   0.845   3.251  1.3725  1.2938  0.6503
  937SOL    MW4 3516   4.598   0.784   3.314 -0.0646  0.1216 -0.3101
  938SOL     OW 3517   0.801   4.973   4.719  0.2776  0.0182  0.4239
  938SOL    HW2 3518   0.792   5.064   4.747  1.4459 -0.0763  1.2219
  938SOL    HW3 3519   0.723   4.956   4.666 -0.1848  1.3377  0.6291
  938SOL    MW4 3520   0.790   4.983   4.716  0.3707  0.1798  0.5562
  939SOL     OW 3521   0.952   5.295   1.830 -0.4855  0.2122 -0.1377
  939SOL    HW2 3522   0.976   5.292   1.737  1.1451 -3.2704  0.2099
  939SOL    HW3 3523   0.861   5.265   1.831 -0.1115 -1.0506 -0.6110
  939SOL    MW4 3524   0.943   5.290   1.818 -0.2210 -0.4139 -0.1543
  940SOL     OW 3525   2.981   5.492   0.671  0.6804 -0.0502 -0.0856
  940SOL    HW2 3526   3.070   5.456   0.670  1.0281  0.6154  2.2225
  940SOL    HW3 3527   2.946   5.471   0.584  2.4849 -1.8142 -0.4625
  940SOL    MW4 3528   2.988   5.485   0.659  0.9644 -0.1951  0.1692
  941SOL     OW 3529   6.347   1.070   3.149 -0.1549  0.5506  0.1549
  941SOL    HW2 3530   6.428   1.024   3.172 -0.2011 -0.0014 -0.7653
  941SOL    HW3 3531   6.370   1.163   3.158  0.2962  0.3829  0.8241
  941SOL    MW4 3532   6.361   1.076   3.153 -0.1015  0.4556  0.1218
  942SOL     OW 3533   2.032   1.159   3.151  0.5374 -0.6364 -0.0389
  942SOL    HW2 3534   1.947   1.162   3.194  0.3986  1.3110 -0.3817
  942SOL    HW3 3535   2.091   1.121   3.216 -0.1838 -0.1257  0.9330
  942SOL    MW4 3536   2.028   1.154   3.165  0.4239 -0.3121  0.0441
  943SOL     OW 3537   3.706   5.944   5.827  0.4797  0.0442 -0.5488
  943SOL    HW2 3538   3.786   5.979   5.865  0.6633 -0.1322 -0.7687
  943SOL    HW3 3539   3.736   5.887   5.757  0.1702 -0.2384 -0.4547
  943SOL    MW4 3540   3.721   5.941   5.823  0.4631 -0.0164 -0.5654
  944SOL     OW 3541   3.165   6.146   3.850 -0.2966  0.7983  0.2009
  944SOL    HW2 3542   3.238   6.183   3.900  1.3620 -2.0525  0.1114
  944SOL    HW3 3543   3.093   6.140   3.913 -0.1094  2.5168  0.6286
  944SOL    MW4 3544   3.165   6.150   3.865 -0.0530  0.6489  0.2456
  945SOL     OW 3545   5.564   1.525   2.535 -0.4186 -0.3505  0.1495
  945SOL    HW2 3546   5.633   1.557   2.593  0.0648  1.3784 -1.2777
  945SOL    HW3 3547   5.498   1.487   2.593 -0.5944  2.5006  1.9593
  945SOL    MW4 3548   5.564   1.524   2.550 -0.3780  0.2538  0.1999
  946SOL     OW 3549   6.084   5.972   0.443 -0.0227  0.1957 -0.2503
  946SOL    HW2 3550   5.998   5.972   0.401 -0.0225  2.9048 -0.4083
  946SOL    HW3 3551   6.064   5.974   0.537 -0.1552  1.1800 -0.2929
  946SOL    MW4 3552   6.070   5.972   0.450 -0.0401  0.6830 -0.2768
  947SOL     OW 3553   1.267   1.405   1.589  0.2477 -0.2629  0.1893
  947SOL    HW2 3554   1.207   1.369   1.654 -0.9278  0.8401 -0.2401
  947SOL    HW3 3555   1.285   1.332   1.529 -0.6375 -0.6154  0.3501
  947SOL    MW4 3556   1.262   1.391   1.590 -0.0242 -0.1639  0.1539
  948SOL     OW 3557   4.086   3.050   4.194  0.3148  0.0032  0.7721
  948SOL    HW2 3558   4.094   3.140   4.224 -1.6075  0.1753  0.9095
  948SOL    HW3 3559   3.992   3.031   4.200  0.7522 -2.2786  1.5481
  948SOL    MW4 3560   4.074   3.059   4.199  0.1189 -0.2752  0.8926
  949SOL     OW 3561   4.513   0.490   3.261 -0.1429 -0.1441  0.0112
  949SOL    HW2 3562   4.464   0.458   3.337 -0.4833  0.6338  0.1326
  949SOL    HW3 3563   4.523   0.584   3.277  0.6117 -0.1313 -0.4517
  949SOL    MW4 3564   4.508   0.498   3.273 -0.0883 -0.0398 -0.0339
  950SOL     OW 3565   5.576   4.438   1.315  0.0200 -0.9112 -0.6386
  950SOL    HW2 3566   5.668   4.458   1.330 -0.1591 -1.5702  1.6762
  950SOL    HW3 3567   5.561   4.355   1.361 -1.4886 -1.4136 -1.9211
  950SOL    MW4 3568   5.586   4.430   1.323 -0.2027 -1.0644 -0.5024
  951SOL     OW 3569   1.682   3.603   3.819  0.1559 -0.2050  0.1966
  951SOL    HW2 3570   1.618   3.648   3.875 -1.9334 -3.7081  0.9943
  951SOL    HW3 3571   1.761   3.600   3.872 -0.4425  0.2932  1.1587
  951SOL    MW4 3572   1.684   3.608   3.834 -0.1987 -0.6015  0.4288
  952SOL     OW 3573   1.184   1.092   6.320  0.2146  0.5303 -0.1404
  952SOL    HW2 3574   1.140   1.087   6.235  0.8676  0.6456 -0.4903
  952SOL    HW3 3575   1.250   1.160   6.308  0.4225  0.4283  0.4126
  952SOL    MW4 3576   1.187   1.101   6.307  0.3282  0.5320 -0.1136
  953SOL     OW 3577   0.999   2.842   3.230 -0.4364  0.2255  0.6236
  953SOL    HW2 3578   0.922   2.893   3.255 -1.1191 -0.4147 -0.1046
  953SOL    HW3 3579   1.008   2.777   3.300 -1.1575 -0.3105  0.2364
  953SOL    MW4 3580   0.990   2.840   3.243 -0.6216  0.0703  0.4765
  954SOL     OW 3581   3.936   2.662   4.574  0.4303 -0.2885 -0.6008
  954SOL    HW2 3582   4.011   2.651   4.632  0.2213 -0.1467 -0.3002
  954SOL    HW3 3583   3.961   2.732   4.514 -0.3376  1.4109  0.9674
  954SOL    MW4 3584   3.949   2.670   4.574  0.3014 -0.0456 -0.3542
  955SOL     OW 3585   4.984   1.223   1.335 -0.0804  0.0779 -0.3760
  955SOL    HW2 3586   4.916   1.265   1.388  0.7259  0.6036  0.2668
  955SOL    HW3 3587   5.008   1.289   1.270 -0.7172 -0.3884 -1.1098
  955SOL    MW4 3588   4.978   1.237   1.333 -0.0580  0.0857 -0.3880
  956SOL     OW 3589   3.930   1.998   5.137  0.3525 -0.3657  0.2095
  956SOL    HW2 3590   3.853   2.053   5.147  0.1361 -0.9799  2.5183
  956SOL    HW3 3591   4.002   2.059   5.124 -0.4914  0.2063 -2.3056
  956SOL    MW4 3592   3.930   2.013   5.137  0.2126 -0.3713  0.1823
  957SOL     OW 3593   6.044   4.525   3.275  0.5044 -0.0904  0.0081
  957SOL    HW2 3594   6.047   4.450   3.216 -1.4222  0.0715 -0.3578
  957SOL    HW3 3595   5.966   4.574   3.248  0.7642  1.1312  1.3397
  957SOL    MW4 3596   6.034   4.522   3.263  0.2845  0.0922  0.1355
  958SOL     OW 3597   3.128   0.044   2.836  0.2265  0.1409 -0.1432
  958SOL    HW2 3598   3.113   0.059   2.929  2.4727  0.7557  0.1795
  958SOL    HW3 3599   3.192  -0.027   2.833  2.2783  1.8977 -1.0292
  958SOL    MW4 3600   3.134   0.037   2.848  0.7935  0.4538 -0.2175
  959SOL     OW 3601   6.296   5.120   1.657 -0.0733  0.1679  0.2882
  959SOL    HW2 3602   6.288   5.068   1.577 -0.3942  1.9314 -0.8822
  959SOL    HW3 3603   6.263   5.063   1.727  0.9099 -1.6739 -0.6986
  959SOL    MW4 3604   6.290   5.106   1.656  0.0141  0.1575  0.0036
  960SOL     OW 3605   1.719   4.583   6.270  0.3675  0.3570 -0.4575
  960SOL    HW2 3606   1.707   4.670   6.232 -1.0400 -0.2764 -1.5508
  960SOL    HW3 3607   1.792   4.545   6.221  0.7381  0.7669 -0.2340
  960SOL    MW4 3608   1.727   4.589   6.259  0.2307  0.3275 -0.5723
  961SOL     OW 3609   0.569   2.167   2.756 -0.4140 -0.6432 -0.5908
  961SOL    HW2 3610   0.491   2.119   2.782 -0.7040 -0.4019 -0.9894
  961SOL    HW3 3611   0.619   2.179   2.836 -0.8645 -0.6674 -0.3054
  961SOL    MW4 3612   0.566   2.162   2.770 -0.5117 -0.6146 -0.6057
  962SOL     OW 3613   4.920   1.580   2.951 -0.9080  0.1940 -0.2328
  962SOL    HW2 3614   4.961   1.586   3.037 -1.3903  1.0114 -0.0425
  962SOL    HW3 3615   4.917   1.671   2.920 -1.6033  0.0213 -0.6942
  962SOL    MW4 3616   4.925   1.593   2.958 -1.0634  0.2791 -0.2685
  963SOL     OW 3617   5.015   2.643   1.059 -0.1791  0.0551 -0.1073
  963SOL    HW2 3618   5.057   2.700   1.124 -0.0089 -0.0311 -0.1399
  963SOL    HW3 3619   5.042   2.555   1.084  0.1789  0.0504 -0.5065
  963SOL    MW4 3620   5.024   2.639   1.071 -0.1094  0.0431 -0.1643
  964SOL     OW 3621   3.895   0.786   4.870  0.6799 -0.0171 -0.3433
  964SOL    HW2 3622   3.909   0.879   4.854  3.3268  0.3536  3.1418
  964SOL    HW3 3623   3.951   0.742   4.805  0.5206  0.8068 -1.0605
  964SOL    MW4 3624   3.904   0.792   4.859  1.0081  0.1405  0.0219
  965SOL     OW 3625   6.359   1.148   2.027 -0.2495  0.1826  0.4834
  965SOL    HW2 3626   6.336   1.073   2.083  1.9386 -1.2634 -0.4128
  965SOL    HW3 3627   6.360   1.223   2.087 -1.4026 -0.6783  1.6461
  965SOL    MW4 3628   6.356   1.148   2.043 -0.1129 -0.1218  0.5185
  966SOL     OW 3629   6.022   2.274   2.903 -0.2723 -0.0318 -0.0038
  966SOL    HW2 3630   6.104   2.283   2.855 -1.2709  1.1350 -1.5655
  966SOL    HW3 3631   6.022   2.346   2.965 -0.8480  1.0048 -1.1730
  966SOL    MW4 3632   6.033   2.284   2.905 -0.4800  0.2589 -0.3642
  967SOL     OW 3633   4.310   1.811   2.717  0.3000 -0.7738 -0.0573
  967SOL    HW2 3634   4.339   1.764   2.794  3.5247  0.1861 -0.5321
  967SOL    HW3 3635   4.220   1.837   2.736  0.1265 -2.7873  2.2261
  967SOL    MW4 3636   4.302   1.809   2.729  0.7026 -0.9128  0.1813
  968SOL     OW 3637   2.205   0.828   5.113  0.2820  0.5435 -0.0870
  968SOL    HW2 3638   2.266   0.774   5.165  0.1743 -0.2447 -0.7637
  968SOL    HW3 3639   2.152   0.765   5.066 -1.6785  1.1980  1.1455
  968SOL    MW4 3640   2.206   0.813   5.114  0.0091  0.5258 -0.0136
  969SOL     OW 3641   4.244   4.841   2.001  0.0426  0.0755  0.2263
  969SOL    HW2 3642   4.326   4.810   2.038 -0.8343 -0.4338  1.8264
  969SOL    HW3 3643   4.269   4.913   1.943  1.6117 -0.1441  0.6044
  969SOL    MW4 3644   4.258   4.846   1.998  0.1339 -0.0207  0.4873
  970SOL     OW 3645   1.553   5.842   1.209 -0.3794 -0.4955  0.3251
  970SOL    HW2 3646   1.463   5.829   1.239 -0.9974  2.3892  0.0430
  970SOL    HW3 3647   1.600   5.875   1.286  0.0107 -0.4153  0.0578
  970SOL    MW4 3648   1.548   5.845   1.223 -0.4095 -0.1043  0.2526
  971SOL     OW 3649   3.805   0.096   3.671  0.1038  0.3229  0.3534
  971SOL    HW2 3650   3.770   0.134   3.591  0.8354  0.0340 -0.1191
  971SOL    HW3 3651   3.890   0.139   3.682  0.5102 -0.4639  0.3479
  971SOL    MW4 3652   3.812   0.107   3.662  0.2540  0.1810  0.2903
  972SOL     OW 3653   5.257   0.122   3.061  0.6639  0.0581  0.8448
  972SOL    HW2 3654   5.310   0.121   2.982  0.2629 -2.3166  0.5405
  972SOL    HW3 3655   5.320   0.110   3.132  0.7452 -1.0717  0.6057
  972SOL    MW4 3656   5.272   0.120   3.060  0.6217 -0.4043  0.7731
  973SOL     OW 3657   2.176   2.692   3.221  0.0334 -0.5628 -0.2842
  973SOL    HW2 3658   2.172   2.606   3.181  0.8446 -0.8693  0.2543
  973SOL    HW3 3659   2.139   2.679   3.309  0.1586 -0.3681 -0.2013
  973SOL    MW4 3660   2.171   2.679   3.228  0.1570 -0.5776 -0.2022
  974SOL     OW 3661   1.317   0.068   5.369  0.2901  0.1756 -0.2178
  974SOL    HW2 3662   1.360   0.143   5.328  0.7053 -0.6771 -1.4327
  974SOL    HW3 3663   1.371   0.049   5.446  0.3821  0.8961 -0.0938
  974SOL    MW4 3664   1.330   0.075   5.374  0.3570  0.1582 -0.3617
  975SOL     OW 3665   0.636   1.033   2.575 -0.0754 -0.6663 -0.2154
  975SOL    HW2 3666   0.653   0.957   2.630 -0.3872 -0.2720  0.4305
  975SOL    HW3 3667   0.695   1.101   2.607 -0.4948 -0.3320 -0.1434
  975SOL    MW4 3668   0.646   1.032   2.586 -0.1719 -0.5701 -0.1207
  976SOL     OW 3669   2.024   2.091   0.384  0.3562 -0.6803 -0.2799
  976SOL    HW2 3670   1.937   2.120   0.414  0.2719 -1.8478  0.6723
  976SOL    HW3 3671   2.071   2.068   0.465  1.2894 -0.7812 -0.8391
  976SOL    MW4 3672   2.018   2.092   0.399  0.4682 -0.8477 -0.2281
  977SOL     OW 3673   2.758   2.654   1.054 -0.3316 -0.0242 -0.4570
  977SOL    HW2 3674   2.679   2.680   1.006 -1.0273  0.3435  0.8348
  977SOL    HW3 3675   2.757   2.558   1.051 -0.7058 -0.0174 -0.6448
  977SOL    MW4 3676   2.747   2.644   1.047 -0.4728  0.0252 -0.3114
  978SOL     OW 3677   0.996   2.649   0.535  0.2508 -0.5195 -0.1967
  978SOL    HW2 3678   0.952   2.581   0.587 -0.7926  1.2266  1.3577
  978SOL    HW3 3679   0.998   2.725   0.593 -1.4842  1.7640 -2.8463
  978SOL    MW4 3680   0.990   2.650   0.550 -0.1158  0.0122 -0.3412
  979SOL     OW 3681   1.125   0.438   0.123 -0.5255 -1.0657  0.2722
  979SOL    HW2 3682   1.133   0.370   0.189 -0.7848 -0.4077  0.9922
  979SOL    HW3 3683   1.086   0.512   0.169  0.7157 -0.0595 -0.2287
  979SOL    MW4 3684   1.121   0.439   0.138 -0.3959 -0.8461  0.3011
  980SOL     OW 3685   3.798   2.023   3.684  0.1860 -0.1146 -0.0934
  980SOL    HW2 3686   3.816   1.966   3.609  0.4969 -0.4610  0.2398
  980SOL    HW3 3687   3.797   2.111   3.648  0.2864 -0.2861 -0.5143
  980SOL    MW4 3688   3.801   2.027   3.670  0.2403 -0.1829 -0.1050
  981SOL     OW 3689   3.709   4.649   2.932  0.4172  0.3871  0.1641
  981SOL    HW2 3690   3.659   4.567   2.927  0.4933  0.3735 -0.4858
  981SOL    HW3 3691   3.785   4.628   2.985  0.5119 -0.0058 -0.1220
  981SOL    MW4 3692   3.712   4.635   2.938  0.4397  0.3335  0.0406
  982SOL     OW 3693   0.739   4.426   4.868 -0.0152  0.0482 -0.0902
  982SOL    HW2 3694   0.794   4.357   4.904 -0.7815 -0.9401 -0.7712
  982SOL    HW3 3695   0.776   4.445   4.782  0.1051  0.3940  0.0337
  982SOL    MW4 3696   0.751   4.420   4.861 -0.1005 -0.0365 -0.1637
  983SOL     OW 3697   4.544   3.653   3.206 -0.2231 -0.8567 -0.0371
  983SOL    HW2 3698   4.489   3.660   3.284 -0.7120 -0.8179 -0.3816
  983SOL    HW3 3699   4.504   3.583   3.154 -2.6010  1.9577 -2.3565
  983SOL    MW4 3700   4.532   3.645   3.210 -0.6013 -0.4803 -0.3885
  984SOL     OW 3701   3.564   3.462   6.157  0.1679  0.1237 -0.0282
  984SOL    HW2 3702   3.625   3.531   6.132 -0.0583  0.4008  0.1828
  984SOL    HW3 3703   3.597   3.384   6.113  1.4879 -0.0374  1.1617
  984SOL    MW4 3704   3.577   3.461   6.148  0.3122  0.1390  0.1566
  985SOL     OW 3705   3.023   4.477   2.791  0.0006 -0.6163 -0.4132
  985SOL    HW2 3706   2.994   4.410   2.729  0.3450 -0.6638 -0.5265
  985SOL    HW3 3707   2.945   4.529   2.808 -0.0999 -0.5967 -0.8947
  985SOL    MW4 3708   3.009   4.475   2.785  0.0328 -0.6200 -0.4917
  986SOL     OW 3709   0.380   0.795   0.704 -0.3244  0.3549 -0.0524
  986SOL    HW2 3710   0.463   0.787   0.657 -1.5279 -2.3724 -2.0309
  986SOL    HW3 3711   0.391   0.741   0.783 -0.4080 -0.6453 -0.7046
  986SOL    MW4 3712   0.392   0.787   0.708 -0.4942 -0.1369 -0.3995
  987SOL     OW 3713   4.866   0.597   5.789 -0.2070 -0.8796  0.2571
  987SOL    HW2 3714   4.906   0.511   5.804 -1.2265 -1.3674  0.2497
  987SOL    HW3 3715   4.789   0.578   5.735 -0.7328 -0.0207  0.6906
  987SOL    MW4 3716   4.861   0.583   5.784 -0.4108 -0.8306  0.3133
  988SOL     OW 3717   4.269   4.209   1.053  0.1019 -0.2688  0.0977
  988SOL    HW2 3718   4.211   4.134   1.062  0.6403 -0.7700 -0.5400
  988SOL    HW3 3719   4.277   4.243   1.142 -2.5477  0.8983 -0.0381
  988SOL    MW4 3720   4.262   4.203   1.066 -0.1767 -0.1809 -0.0044
  989SOL     OW 3721   0.124   5.904   3.661  0.8691  0.3387 -0.1174
  989SOL    HW2 3722   0.119   5.974   3.596  1.8401  0.0688 -0.5042
  989SOL    HW3 3723   0.034   5.894   3.693  0.5548  1.1260 -0.7224
  989SOL    MW4 3724   0.111   5.912   3.657  0.9557  0.4070 -0.2482
  990SOL     OW 3725   5.427   0.041   1.079 -0.5558  0.0167  0.0673
  990SOL    HW2 3726   5.444  -0.026   1.145 -1.4494 -0.3917 -0.1112
  990SOL    HW3 3727   5.514   0.062   1.044 -0.0853  0.0737  1.1961
  990SOL    MW4 3728   5.441   0.035   1.083 -0.6116 -0.0296  0.1927
  991SOL     OW 3729   2.517   2.151   1.489  0.3525  0.3642 -0.2936
  991SOL    HW2 3730   2.594   2.197   1.521 -0.6757  1.4872  0.6949
  991SOL    HW3 3731   2.456   2.221   1.465 -2.2368 -0.2808  3.6064
  991SOL    MW4 3732   2.519   2.166   1.490 -0.1248  0.4273  0.3514
  992SOL     OW 3733   4.225   3.907   2.937  0.5713  0.1681  0.2209
  992SOL    HW2 3734   4.210   3.941   2.849  0.4123 -0.0428  0.1681
  992SOL    HW3 3735   4.320   3.910   2.948  0.5116  1.8373  0.6867
  992SOL    MW4 3736   4.236   3.912   2.927  0.5424  0.3605  0.2754
  993SOL     OW 3737   2.471   4.098   4.426 -0.6267  0.0277 -0.3738
  993SOL    HW2 3738   2.562   4.069   4.425 -0.2178  1.0943  1.5443
  993SOL    HW3 3739   2.419   4.018   4.421  0.4255 -0.6615 -0.2922
  993SOL    MW4 3740   2.476   4.084   4.425 -0.4339  0.0775 -0.1099
  994SOL     OW 3741   4.610   1.457   3.338 -0.0756 -0.1916  0.3364
  994SOL    HW2 3742   4.597   1.551   3.330 -0.4410 -0.3466 -1.2133
  994SOL    HW3 3743   4.526   1.418   3.315  0.4868 -0.9222 -0.6190
  994SOL    MW4 3744   4.597   1.464   3.334 -0.0496 -0.3085  0.0059
  995SOL     OW 3745   4.164   2.929   1.022  0.9550 -0.0426 -0.0374
  995SOL    HW2 3746   4.215   3.009   1.016  0.1014  0.4238 -1.9687
  995SOL    HW3 3747   4.180   2.897   1.111  1.1216  2.3867  0.8972
  995SOL    MW4 3748   4.173   2.935   1.033  0.8644  0.3395 -0.1689
  996SOL     OW 3749   2.518   5.218   2.724  0.9862  0.2514 -0.0200
  996SOL    HW2 3750   2.487   5.300   2.762  0.5075 -0.0426  0.2410
  996SOL    HW3 3751   2.580   5.183   2.788  2.4231  1.1938 -0.8740
  996SOL    MW4 3752   2.522   5.224   2.738  1.1126  0.3369 -0.0983
  997SOL     OW 3753   1.944   2.787   5.711  0.2697  0.3221  0.6679
  997SOL    HW2 3754   1.927   2.790   5.805 -1.3375  1.6735  0.3769
  997SOL    HW3 3755   1.953   2.694   5.690  0.8466  0.0212  2.1771
  997SOL    MW4 3756   1.943   2.775   5.720  0.1338  0.4607  0.8287
  998SOL     OW 3757   6.091   3.840   0.427 -0.0268 -0.5144  0.0048
  998SOL    HW2 3758   6.149   3.784   0.376 -0.3910 -0.8079 -0.0889
  998SOL    HW3 3759   6.113   3.820   0.518  1.3649  0.7696  0.0023
  998SOL    MW4 3760   6.101   3.830   0.432  0.1088 -0.3837 -0.0079
  999SOL     OW 3761   5.335   4.005   1.862  0.0853 -0.5230  0.1746
  999SOL    HW2 3762   5.241   4.000   1.843 -0.2005 -0.7270  1.5298
  999SOL    HW3 3763   5.376   3.952   1.794 -0.5298  1.4536 -1.8606
  999SOL    MW4 3764   5.328   3.997   1.851 -0.0336 -0.2891  0.0849
 1000SOL     OW 3765   1.047   3.080   2.257 -0.0768 -0.2758 -0.6824
 1000SOL    HW2 3766   1.105   3.070   2.332 -0.8440 -1.7492 -0.2514
 1000SOL    HW3 3767   1.101   3.055   2.182  0.1551 -0.6242 -0.4047
 1000SOL    MW4 3768   1.062   3.076   2.257 -0.1474 -0.5161 -0.5889
 1001SOL     OW 3769   2.356   4.304   4.850  0.0469 -1.1600 -0.9727
 1001SOL    HW2 3770   2.316   4.369   4.791 -1.5110 -1.4079 -0.2576
 1001SOL    HW3 3771   2.444   4.337   4.866 -0.8019  1.0359 -0.3389
 1001SOL    MW4 3772   2.362   4.317   4.844 -0.2707 -0.9030 -0.7948
 1002SOL     OW 3773   2.285   6.048   6.391 -0.0550 -0.0419 -0.1664
 1002SOL    HW2 3774   2.330   5.982   6.443  2.8996  0.1164 -2.2298
 1002SOL    HW3 3775   2.233   5.997   6.328 -1.0509 -0.2832  0.8338
 1002SOL    MW4 3776   2.284   6.032   6.389  0.2034 -0.0529 -0.3067
 1003SOL     OW 3777   3.704   4.529   3.381 -0.1549  0.2808 -0.0886
 1003SOL    HW2 3778   3.696   4.445   3.426  0.2795  0.7228  0.8597
 1003SOL    HW3 3779   3.619   4.543   3.341 -0.6499 -0.0290  0.8114
 1003SOL    MW4 3780   3.692   4.520   3.382 -0.1629  0.2982  0.1553
 1004SOL     OW 3781   1.708   5.988   1.407 -0.2777  0.1525 -0.2033
 1004SOL    HW2 3782   1.781   5.927   1.417 -0.5114  0.0233  0.8767
 1004SOL    HW3 3783   1.651   5.970   1.482 -0.9339  0.9167 -0.4959
 1004SOL    MW4 3784   1.710   5.978   1.418 -0.3951  0.2363 -0.0994
 1005SOL     OW 3785   1.420   0.700   6.057  0.0403 -0.5209  0.1087
 1005SOL    HW2 3786   1.356   0.717   5.988  0.6898 -0.3160 -0.4457
 1005SOL    HW3 3787   1.415   0.605   6.072 -1.1640 -0.3648  0.8408
 1005SOL    MW4 3788   1.411   0.690   6.050 -0.0329 -0.4732  0.1321
 1006SOL     OW 3789   3.896   3.555   0.980 -0.4193  0.2607 -0.0654
 1006SOL    HW2 3790   3.972   3.523   0.932 -1.0480  1.3791 -1.9296
 1006SOL    HW3 3791   3.866   3.480   1.031  0.9549 -0.6600 -0.5511
 1006SOL    MW4 3792   3.902   3.541   0.981 -0.3209  0.2868 -0.3754
 1007SOL     OW 3793   6.211   0.016   4.098 -0.5115 -0.3370  0.4451
 1007SOL    HW2 3794   6.167  -0.024   4.173 -0.3781 -0.1270  0.6332
 1007SOL    HW3 3795   6.288  -0.039   4.082 -1.7822 -1.8214 -1.0299
 1007SOL    MW4 3796   6.215   0.004   4.106 -0.6616 -0.5052  0.2753
 1008SOL     OW 3797   0.823   2.155   2.982  0.0650  0.1608 -0.3469
 1008SOL    HW2 3798   0.769   2.184   3.055  0.1949 -0.9878  0.2293
 1008SOL    HW3 3799   0.874   2.232   2.957  1.0096  0.2373  1.6787
 1008SOL    MW4 3800   0.823   2.169   2.988  0.2068  0.0194 -0.0037
 1009SOL     OW 3801   0.739   5.973   1.605 -0.4982 -0.2631  0.3582
 1009SOL    HW2 3802   0.715   5.901   1.664 -1.0017  0.2688  0.8085
 1009SOL    HW3 3803   0.711   5.942   1.519 -0.5182 -0.7024  0.5184
 1009SOL    MW4 3804   0.732   5.959   1.601 -0.5673 -0.2509  0.4388
 1010SOL     OW 3805   6.267   1.688   3.744 -0.5525 -0.3843  0.0851
 1010SOL    HW2 3806   6.257   1.593   3.749  2.0734 -0.7776 -0.6053
 1010SOL    HW3 3807   6.234   1.710   3.657 -1.2498 -0.6340  0.2781
 1010SOL    MW4 3808   6.261   1.678   3.733 -0.2980 -0.4691  0.0194
 1011SOL     OW 3809   4.149   0.244   4.062  0.0741 -0.4836 -0.2726
 1011SOL    HW2 3810   4.136   0.176   3.996 -2.1161 -0.5935  0.1868
 1011SOL    HW3 3811   4.068   0.244   4.112  0.2170  2.0910  0.0994
 1011SOL    MW4 3812   4.137   0.235   4.060 -0.1960 -0.1584 -0.1629
 1012SOL     OW 3813   1.359   5.959   3.582 -0.4187  0.3254 -0.0085
 1012SOL    HW2 3814   1.368   5.912   3.498 -0.0281  1.4648 -0.6258
 1012SOL    HW3 3815   1.418   5.912   3.641  0.3175  0.2904 -0.7401
 1012SOL    MW4 3816   1.368   5.946   3.578 -0.2700  0.4711 -0.1865
 1013SOL     OW 3817   4.048   5.188   1.708  0.5758 -0.1490 -0.3096
 1013SOL    HW2 3818   3.990   5.122   1.672  0.4641 -0.0660 -0.2835
 1013SOL    HW3 3819   4.007   5.271   1.684 -0.1732 -0.0929  1.0856
 1013SOL    MW4 3820   4.035   5.190   1.700  0.4622 -0.1306 -0.1220
 1014SOL     OW 3821   1.609   1.253   4.150 -0.0073  0.2383  0.6962
 1014SOL    HW2 3822   1.525   1.250   4.104  1.4744 -1.8229 -2.2072
 1014SOL    HW3 3823   1.655   1.326   4.109  0.6735 -0.5072  0.1020
 1014SOL    MW4 3824   1.604   1.262   4.138  0.2780 -0.1320  0.2347
 1015SOL     OW 3825   0.507   1.922   3.378  0.0142 -0.4915 -0.2561
 1015SOL    HW2 3826   0.573   1.878   3.432 -1.9253 -0.8601  1.9816
 1015SOL    HW3 3827   0.467   1.851   3.328  2.0792 -0.1006 -2.6611
 1015SOL    MW4 3828   0.511   1.907   3.379  0.0307 -0.4886 -0.2782
 1016SOL     OW 3829   5.045   0.851   3.040  0.2749 -0.4089 -0.1262
 1016SOL    HW2 3830   4.978   0.809   3.094 -1.4716  1.6754 -0.5419
 1016SOL    HW3 3831   5.048   0.941   3.072  0.8587  0.2725 -1.9936
 1016SOL    MW4 3832   5.036   0.857   3.052  0.1215 -0.0440 -0.4274
 1017SOL     OW 3833   6.025   0.303   0.984 -0.6173  0.8401  0.1454
 1017SOL    HW2 3834   6.099   0.287   0.925  0.5159 -0.5814  1.8391
 1017SOL    HW3 3835   5.951   0.318   0.926  0.6757  0.6598 -1.6261
 1017SOL    MW4 3836   6.025   0.303   0.969 -0.2972  0.6288  0.1352
 1018SOL     OW 3837   2.533   1.494   3.886 -0.3041  0.0174  0.6469
 1018SOL    HW2 3838   2.538   1.588   3.866  0.2176  0.0708  1.0184
 1018SOL    HW3 3839   2.441   1.480   3.910 -0.4264  0.3959  0.4106
 1018SOL    MW4 3840   2.521   1.505   3.887 -0.2514  0.0744  0.6647
 1019SOL     OW 3841   2.569   2.737   3.961  0.7389 -0.1555  0.2721
 1019SOL    HW2 3842   2.501   2.740   4.029  0.0200  0.7462 -0.4565
 1019SOL    HW3 3843   2.523   2.761   3.881  2.3238  2.7677  0.1166
 1019SOL    MW4 3844   2.554   2.741   3.960  0.8531  0.3492  0.1554
 1020SOL     OW 3845   2.068   1.703   3.150 -0.0658 -0.0471 -0.0908
 1020SOL    HW2 3846   2.071   1.621   3.101 -0.2520  0.3706 -0.8059
 1020SOL    HW3 3847   2.131   1.760   3.107 -0.5754  0.4834 -0.1421
 1020SOL    MW4 3848   2.076   1.699   3.138 -0.1576  0.0780 -0.1919
 1021SOL     OW 3849   0.607   2.112   3.638 -0.2726  0.4220 -0.3694
 1021SOL    HW2 3850   0.675   2.078   3.579  0.1593 -0.5539  0.6396
 1021SOL    HW3 3851   0.572   2.034   3.681 -1.3824  1.0101 -0.1804
 1021SOL    MW4 3852   0.612   2.097   3.636 -0.3620  0.3708 -0.2113
 1022SOL     OW 3853   3.922   6.371   0.177  0.2382 -0.0969 -0.1322
 1022SOL    HW2 3854   3.846   6.346   0.230  0.6176  0.0735  0.5038
 1022SOL    HW3 3855   3.994   6.320   0.213 -0.0028 -2.1712 -2.3269
 1022SOL    MW4 3856   3.921   6.361   0.189  0.2565 -0.3481 -0.3378
 1023SOL     OW 3857   3.871   4.082   0.076 -0.0028  0.0755  0.5459
 1023SOL    HW2 3858   3.914   4.021   0.135 -1.2811 -0.7439  0.6647
 1023SOL    HW3 3859   3.878   4.042  -0.010  0.0234  0.2459  0.4674
 1023SOL    MW4 3860   3.877   4.069   0.073 -0.1680 -0.0101  0.5512
 1024SOL     OW 3861   2.070   4.255   0.396  0.2856  0.4668 -0.3159
 1024SOL    HW2 3862   2.139   4.291   0.340  1.3167 -0.1915  0.4977
 1024SOL    HW3 3863   2.103   4.268   0.485 -0.9004  0.6439  0.1146
 1024SOL    MW4 3864   2.084   4.262   0.401  0.2652  0.4033 -0.1518
 1025SOL     OW 3865   3.877   4.651   3.860 -0.1420  0.4128  0.5021
 1025SOL    HW2 3866   3.881   4.730   3.807  0.5553  0.7402  1.0352
 1025SOL    HW3 3867   3.898   4.580   3.799  1.9394  0.9084  0.5890
 1025SOL    MW4 3868   3.880   4.652   3.845  0.2246  0.5214  0.5839
 1026SOL     OW 3869   3.224   4.559   4.468  0.2759 -0.0560  0.2533
 1026SOL    HW2 3870   3.251   4.533   4.556 -2.9931 -1.0524  1.1159
 1026SOL    HW3 3871   3.251   4.486   4.412 -0.6980 -1.1145  1.0993
 1026SOL    MW4 3872   3.231   4.546   4.472 -0.2839 -0.3271  0.4787
 1027SOL     OW 3873   4.566   0.026   2.217 -0.1957  0.1072 -0.7400
 1027SOL    HW2 3874   4.511   0.036   2.296  0.9032 -0.2434  0.0976
 1027SOL    HW3 3875   4.575   0.115   2.183 -1.9855  0.0776 -1.4169
 1027SOL    MW4 3876   4.560   0.039   2.223 -0.2869  0.0571 -0.7188
 1028SOL     OW 3877   0.091   2.554   5.527  0.3928  0.4927 -0.3996
 1028SOL    HW2 3878   0.181   2.521   5.527 -0.2865 -1.6278 -2.0122
 1028SOL    HW3 3879   0.084   2.602   5.444 -0.5535 -1.4030 -1.4865
 1028SOL    MW4 3880   0.102   2.556   5.516  0.1783 -0.0372 -0.7557
 1029SOL     OW 3881   3.643   2.830   6.280 -0.2701  0.7412  0.3605
 1029SOL    HW2 3882   3.680   2.764   6.339  0.5727  1.6763  0.9255
 1029SOL    HW3 3883   3.720   2.870   6.239 -0.8449  0.1457 -1.3703
 1029SOL    MW4 3884   3.658   2.827   6.283 -0.2347  0.7860  0.2067
 1030SOL     OW 3885   1.727   2.365   2.847  0.3032 -0.0817 -0.0199
 1030SOL    HW2 3886   1.672   2.324   2.914  0.7884  0.7918  0.9423
 1030SOL    HW3 3887   1.695   2.329   2.765 -0.6755 -0.7676  0.6362
 1030SOL    MW4 3888   1.716   2.355   2.845  0.2381 -0.0569  0.1936
 1031SOL     OW 3889   2.077   5.478   0.044  0.2521  0.4829  0.3505
 1031SOL    HW2 3890   2.078   5.450   0.135 -0.2725  0.1030  0.2429
 1031SOL    HW3 3891   1.986   5.468   0.017  0.9120 -2.6397 -1.1995
 1031SOL    MW4 3892   2.065   5.473   0.052  0.2700  0.0208  0.1318
 1032SOL     OW 3893   4.671   5.346   3.810  0.7094  0.5146 -0.5024
 1032SOL    HW2 3894   4.643   5.301   3.731  0.2323  0.7887 -0.4924
 1032SOL    HW3 3895   4.735   5.287   3.850  0.6972  0.2220 -0.9133
 1032SOL    MW4 3896   4.676   5.332   3.805  0.6449  0.5121 -0.5553
 1033SOL     OW 3897   5.526   0.356   1.364 -0.1007 -0.1901 -0.3753
 1033SOL    HW2 3898   5.598   0.419   1.367 -0.4225  0.2085 -0.7711
 1033SOL    HW3 3899   5.564   0.273   1.393  1.3516 -0.8039 -3.6332
 1033SOL    MW4 3900   5.540   0.353   1.368  0.0485 -0.2185 -0.8574
 1034SOL     OW 3901   4.382   0.526   3.811  0.0042  0.1242 -0.5192
 1034SOL    HW2 3902   4.315   0.582   3.851  0.8443  0.1948  0.8563
 1034SOL    HW3 3903   4.347   0.437   3.820 -0.1620  0.2090 -0.2964
 1034SOL    MW4 3904   4.369   0.522   3.818  0.0931  0.1447 -0.3083
 1035SOL     OW 3905   1.088   4.278   4.284 -0.3801  0.6968  0.4049
 1035SOL    HW2 3906   1.183   4.291   4.284 -0.3411  0.6013 -1.3187
 1035SOL    HW3 3907   1.078   4.183   4.278 -0.6059  0.6620  1.2173
 1035SOL    MW4 3908   1.100   4.267   4.284 -0.4048  0.6796  0.2847
 1036SOL     OW 3909   0.666   1.723   2.272 -0.4388  0.1468  0.0261
 1036SOL    HW2 3910   0.741   1.776   2.245 -1.8586  1.3772 -1.7699
 1036SOL    HW3 3911   0.644   1.672   2.194 -0.4042 -1.5237  1.0833
 1036SOL    MW4 3912   0.673   1.723   2.258 -0.6216  0.0888 -0.0714
 1037SOL     OW 3913   3.973   2.801   5.212 -0.3576  0.0013  0.1759
 1037SOL    HW2 3914   4.057   2.757   5.224 -0.3827 -0.2766 -0.6049
 1037SOL    HW3 3915   3.938   2.763   5.131 -1.4501 -0.2327  0.7455
 1037SOL    MW4 3916   3.980   2.790   5.203 -0.5050 -0.0662  0.1480
 1038SOL     OW 3917   4.455   4.427   0.124 -0.4380  0.6594  0.5777
 1038SOL    HW2 3918   4.384   4.422   0.059 -1.2244  1.2332  1.3612
 1038SOL    HW3 3919   4.424   4.491   0.188 -0.8338 -1.6450  2.8870
 1038SOL    MW4 3920   4.441   4.435   0.124 -0.5940  0.4311  0.9858
 1039SOL     OW 3921   4.996   0.786   0.456  0.8688 -0.4558 -0.6288
 1039SOL    HW2 3922   4.968   0.752   0.541  0.4558 -0.8659 -0.9221
 1039SOL    HW3 3923   4.955   0.728   0.392 -1.3369  1.5836 -1.2250
 1039SOL    MW4 3924   4.987   0.774   0.459  0.5233 -0.2408 -0.7462
 1040SOL     OW 3925   6.036   3.642   3.960 -0.4278  0.1319 -0.2103
 1040SOL    HW2 3926   5.950   3.622   3.923 -1.5310  1.1279  1.6621
 1040SOL    HW3 3927   6.069   3.557   3.992 -1.0090 -0.1444 -0.3370
 1040SOL    MW4 3928   6.029   3.628   3.960 -0.6500  0.2268  0.0200
 1041SOL     OW 3929   0.542   1.139   1.982  0.5243  0.1795  0.2430
 1041SOL    HW2 3930   0.548   1.050   1.948  2.2176  0.5775 -0.5909
 1041SOL    HW3 3931   0.616   1.146   2.043 -0.3196  0.6467  1.2495
 1041SOL    MW4 3932   0.552   1.128   1.986  0.6363  0.2936  0.2658
 1042SOL     OW 3933   0.311   3.358   2.765  0.6293 -0.7975 -0.4039
 1042SOL    HW2 3934   0.376   3.398   2.707 -0.9375 -0.3180 -1.8852
 1042SOL    HW3 3935   0.307   3.267   2.737  1.6273 -1.1755  0.6133
 1042SOL    MW4 3936   0.319   3.351   2.754  0.5542 -0.7841 -0.4652
 1043SOL     OW 3937   3.672   3.133   4.550  0.0130  0.3677 -0.2911
 1043SOL    HW2 3938   3.589   3.091   4.529 -1.3335  2.2917  0.8852
 1043SOL    HW3 3939   3.665   3.221   4.514  1.4305  0.6600  0.0788
 1043SOL    MW4 3940   3.660   3.139   4.543  0.0224  0.6601 -0.0871
 1044SOL     OW 3941   6.049   2.166   3.918 -1.0217  0.0496 -0.1644
 1044SOL    HW2 3942   6.125   2.217   3.892 -2.6169  1.8722 -1.6383
 1044SOL    HW3 3943   6.068   2.077   3.890  1.4328 -0.0420  1.5436
 1044SOL    MW4 3944   6.061   2.161   3.910 -0.9083  0.2780 -0.1335
 1045SOL     OW 3945   2.988   3.402   5.374  0.0073 -0.2502  0.4943
 1045SOL    HW2 3946   2.965   3.309   5.364 -1.9514  0.0323  1.8119
 1045SOL    HW3 3947   3.061   3.415   5.313 -0.7510 -2.2592 -0.9700
 1045SOL    MW4 3948   2.995   3.391   5.365 -0.3512 -0.4780  0.4749
 1046SOL     OW 3949   1.335   1.484   0.239 -0.0667 -0.1641 -0.1001
 1046SOL    HW2 3950   1.401   1.420   0.265  0.3293 -0.1160 -0.9658
 1046SOL    HW3 3951   1.291   1.444   0.164  0.7845  0.9401 -1.2344
 1046SOL    MW4 3952   1.338   1.470   0.232  0.0978 -0.0121 -0.3639
 1047SOL     OW 3953   0.300   1.281   1.272  0.2897 -0.1018 -0.3375
 1047SOL    HW2 3954   0.309   1.362   1.320  0.2051  0.1326 -0.7134
 1047SOL    HW3 3955   0.310   1.306   1.180 -2.3679 -0.0806 -0.6901
 1047SOL    MW4 3956   0.302   1.295   1.266 -0.0721 -0.0681 -0.4336
 1048SOL     OW 3957   5.727   4.370   2.219 -0.0885  0.1818 -0.5750
 1048SOL    HW2 3958   5.702   4.453   2.258 -0.7701 -0.9480  1.5015
 1048SOL    HW3 3959   5.645   4.323   2.206  0.2672 -0.1195 -1.9358
 1048SOL    MW4 3960   5.713   4.375   2.222 -0.1315 -0.0070 -0.4805
 1049SOL     OW 3961   1.996   5.429   4.576 -0.0480 -0.0832  0.0366
 1049SOL    HW2 3962   1.915   5.453   4.620  0.0299 -0.2470  0.2681
 1049SOL    HW3 3963   1.972   5.357   4.518 -0.2127  0.3293 -0.4118
 1049SOL    MW4 3964   1.982   5.423   4.574 -0.0595 -0.0504  0.0080
 1050SOL     OW 3965   2.112   3.388   3.968 -0.0066 -0.6372 -0.2692
 1050SOL    HW2 3966   2.071   3.348   4.045  0.3930 -2.0237 -0.7371
 1050SOL    HW3 3967   2.197   3.419   3.999 -1.4483  2.6441  0.8113
 1050SOL    MW4 3968   2.118   3.387   3.983 -0.1441 -0.3872 -0.1884
 1051SOL     OW 3969   5.939   2.824   3.585  0.4599  0.0398 -0.1740
 1051SOL    HW2 3970   5.916   2.780   3.667  1.0662  1.0787  0.5868
 1051SOL    HW3 3971   5.874   2.893   3.575 -0.0009 -0.4914 -0.9263
 1051SOL    MW4 3972   5.928   2.827   3.595  0.4791  0.1068 -0.1729
 1052SOL     OW 3973   4.116   1.085   4.647  0.3124 -0.1385 -0.1863
 1052SOL    HW2 3974   4.032   1.084   4.693 -0.5434 -1.0110 -1.6987
 1052SOL    HW3 3975   4.118   1.169   4.601  0.5055  0.1008  0.2560
 1052SOL    MW4 3976   4.106   1.096   4.647  0.2250 -0.2221 -0.3275
 1053SOL     OW 3977   1.530   1.319   4.929 -0.2024 -0.2077  0.3151
 1053SOL    HW2 3978   1.473   1.251   4.966  0.8195 -0.9990  0.4854
 1053SOL    HW3 3979   1.618   1.282   4.935  0.2218  0.5463 -0.9368
 1053SOL    MW4 3980   1.534   1.305   4.935 -0.0116 -0.2126  0.1724
 1054SOL     OW 3981   4.878   4.873   2.864 -0.5444  0.1608  0.1743
 1054SOL    HW2 3982   4.814   4.802   2.858  0.4465 -0.9249  1.7327
 1054SOL    HW3 3983   4.886   4.905   2.774 -0.8525 -1.8568 -0.6382
 1054SOL    MW4 3984   4.871   4.868   2.851 -0.4543 -0.2487  0.2728
 1055SOL     OW 3985   1.025   4.364   6.111  0.9673 -0.4290 -0.0017
 1055SOL    HW2 3986   0.972   4.441   6.135  0.3472 -1.2198  1.3162
 1055SOL    HW3 3987   1.007   4.351   6.018  2.8962  2.3652 -0.8789
 1055SOL    MW4 3988   1.015   4.373   6.102  1.1400 -0.1647  0.0564
 1056SOL     OW 3989   6.050   1.214   4.491  0.7726  0.6229 -0.2512
 1056SOL    HW2 3990   6.037   1.264   4.571  1.8602 -0.0244  0.3485
 1056SOL    HW3 3991   6.142   1.187   4.494  0.6649  0.0615 -1.4114
 1056SOL    MW4 3992   6.060   1.217   4.502  0.9019  0.4634 -0.3252
 1057SOL     OW 3993   3.145   4.410   0.318  0.4212 -0.3334 -0.2375
 1057SOL    HW2 3994   3.058   4.447   0.324  1.0897  1.2785  0.0224
 1057SOL    HW3 3995   3.160   4.369   0.403  0.7764  1.4437  0.5956
 1057SOL    MW4 3996   3.136   4.409   0.330  0.5562  0.1137 -0.0933
 1058SOL     OW 3997   5.326   2.396   2.964  0.0053 -0.0871  0.4815
 1058SOL    HW2 3998   5.345   2.302   2.968  0.6166 -0.0469 -0.7411
 1058SOL    HW3 3999   5.351   2.421   2.875 -2.9725  0.6381 -0.2446
 1058SOL    MW4 4000   5.332   2.387   2.953 -0.3070  0.0139  0.2244
 1059SOL     OW 4001   0.783   3.397   1.384  0.1050 -0.1008 -0.9659
 1059SOL    HW2 4002   0.707   3.432   1.431  0.3385  0.8558 -1.2751
 1059SOL    HW3 4003   0.798   3.459   1.314  1.4922  0.0071 -0.6057
 1059SOL    MW4 4004   0.775   3.410   1.381  0.3189  0.0397 -0.9592
 1060SOL     OW 4005   5.412   1.367   5.767 -0.1483  0.5541 -0.2598
 1060SOL    HW2 4006   5.442   1.380   5.857 -1.6515  0.1553  0.3338
 1060SOL    HW3 4007   5.388   1.275   5.764  0.2961  0.4663 -1.2134
 1060SOL    MW4 4008   5.413   1.357   5.779 -0.2880  0.4899 -0.3073
 1061SOL     OW 4009   1.739   6.158   6.078 -0.4969 -0.0887  0.8736
 1061SOL    HW2 4010   1.811   6.177   6.139  0.7347 -1.8100  0.0466
 1061SOL    HW3 4011   1.678   6.104   6.129  0.3090 -1.1542  0.7381
 1061SOL    MW4 4012   1.741   6.154   6.093 -0.2281 -0.4564  0.7466
 1062SOL     OW 4013   5.486   2.547   5.600 -0.1651  0.6490  0.1651
 1062SOL    HW2 4014   5.571   2.506   5.588 -0.2678  0.5320 -0.1960
 1062SOL    HW3 4015   5.478   2.607   5.526 -0.2999  0.8247  0.3216
 1062SOL    MW4 4016   5.496   2.550   5.588 -0.1965  0.6567  0.1381
 1063SOL     OW 4017   0.998   2.149   5.479  0.0980  1.0599 -0.0303
 1063SOL    HW2 4018   0.973   2.132   5.570 -0.6169  0.3268 -0.3479
 1063SOL    HW3 4019   0.915   2.168   5.435  0.2524 -0.0006 -0.8213
 1063SOL    MW4 4020   0.983   2.149   5.486  0.0241  0.8233 -0.1766
 1064SOL     OW 4021   2.487   3.576   3.305 -0.0574 -0.4688  0.5497
 1064SOL    HW2 4022   2.450   3.540   3.225  1.5975 -0.0217 -0.4804
 1064SOL    HW3 4023   2.420   3.635   3.339 -0.1628  0.6401 -1.4657
 1064SOL    MW4 4024   2.473   3.579   3.299  0.1471 -0.2635  0.1479
 1065SOL     OW 4025   0.531   2.971   5.741 -0.0275  0.1630 -0.1999
 1065SOL    HW2 4026   0.565   3.026   5.671 -0.8526  2.7202  1.2465
 1065SOL    HW3 4027   0.579   2.999   5.819 -2.0196  0.4715  1.0012
 1065SOL    MW4 4028   0.542   2.982   5.742 -0.3992  0.5411  0.1494
 1066SOL     OW 4029   3.792   0.167   0.057  0.5632  0.0955 -0.0691
 1066SOL    HW2 4030   3.830   0.090   0.100  1.8147  0.8886  0.3011
 1066SOL    HW3 4031   3.787   0.143  -0.035 -1.6713 -1.4419  0.3731
 1066SOL    MW4 4032   3.796   0.154   0.051  0.4335 -0.0027  0.0381
 1067SOL     OW 4033   4.107   4.669   0.457  0.2330  0.1455  0.0685
 1067SOL    HW2 4034   4.030   4.722   0.476 -1.1016 -1.2422 -1.1477
 1067SOL    HW3 4035   4.111   4.606   0.530 -0.8344 -0.8456 -0.6858
 1067SOL    MW4 4036   4.097   4.668   0.469 -0.0839 -0.1684 -0.1915
 1068SOL     OW 4037   0.440   4.871   6.302  0.2991  0.3143 -0.2637
 1068SOL    HW2 4038   0.413   4.783   6.330  1.0534  0.3989  0.7732
 1068SOL    HW3 4039   0.405   4.879   6.213  1.1324 -1.4438 -0.8085
 1068SOL    MW4 4040   0.432   4.860   6.294  0.5085  0.0935 -0.1988
 1069SOL     OW 4041   0.270   6.286   6.283 -0.0626 -0.2145 -0.1178
 1069SOL    HW2 4042   0.194   6.325   6.240 -0.1101 -1.3735 -1.1444
 1069SOL    HW3 4043   0.345   6.331   6.246 -0.1923  0.1957  0.1096
 1069SOL    MW4 4044   0.270   6.297   6.273 -0.0860 -0.3133 -0.2233
 1070SOL     OW 4045   0.794   1.545   3.481  0.2491  0.0500 -0.0588
 1070SOL    HW2 4046   0.811   1.469   3.426  1.2909 -1.1788  1.8491
 1070SOL    HW3 4047   0.829   1.522   3.567 -1.0216  1.9847  1.0873
 1070SOL    MW4 4048   0.801   1.532   3.485  0.2189  0.1431  0.3441
 1071SOL     OW 4049   1.400   3.522   0.469 -0.5479  0.0683 -0.1739
 1071SOL    HW2 4050   1.417   3.591   0.405  0.2062  0.2965  0.2616
 1071SOL    HW3 4051   1.406   3.441   0.418 -1.5277  0.3099 -0.7063
 1071SOL    MW4 4052   1.403   3.520   0.454 -0.5777  0.1303 -0.1867
 1072SOL     OW 4053   1.238   6.300   3.747 -0.9208 -0.1958 -0.3038
 1072SOL    HW2 4054   1.304   6.295   3.677 -1.5397  0.3583 -0.9430
 1072SOL    HW3 4055   1.217   6.393   3.753 -0.4097 -0.1551  1.0776
 1072SOL    MW4 4056   1.244   6.311   3.739 -0.9351 -0.1173 -0.2059
 1073SOL     OW 4057   3.230   6.290   2.386 -0.4072 -0.1017  0.4797
 1073SOL    HW2 4058   3.176   6.238   2.446  0.4671 -0.3291  1.0988
 1073SOL    HW3 4059   3.217   6.380   2.415 -0.1227 -0.1952  0.9204
 1073SOL    MW4 4060   3.221   6.295   2.398 -0.2543 -0.1440  0.6195
 1074SOL     OW 4061   1.393   3.522   0.748 -0.2052 -0.5270  0.0458
 1074SOL    HW2 4062   1.465   3.577   0.779 -2.1672  2.2394  0.0483
 1074SOL    HW3 4063   1.398   3.528   0.652 -0.2980 -0.5308  0.0407
 1074SOL    MW4 4064   1.403   3.530   0.739 -0.4763 -0.1625  0.0455
 1075SOL     OW 4065   4.610   3.940   6.358  0.5111 -0.0515 -0.1077
 1075SOL    HW2 4066   4.699   3.906   6.349  0.3220 -0.1723 -1.7898
 1075SOL    HW3 4067   4.567   3.878   6.417  0.6770 -1.7701 -1.7146
 1075SOL    MW4 4068   4.616   3.927   6.365  0.5080 -0.2942 -0.5416
 1076SOL     OW 4069   6.255   1.168   3.539  0.3122  0.5406  0.0661
 1076SOL    HW2 4070   6.204   1.135   3.613  1.7735 -0.1137  0.8440
 1076SOL    HW3 4071   6.190   1.201   3.477 -0.9942  0.3509  1.2814
 1076SOL    MW4 4072   6.240   1.168   3.541  0.3326  0.4292  0.3291
 1077SOL     OW 4073   5.005   0.467   3.454  0.3628 -0.1538 -0.2952
 1077SOL    HW2 4074   5.090   0.467   3.412 -0.4693  1.2990 -2.1211
 1077SOL    HW3 4075   5.023   0.441   3.545  2.5648 -0.9083 -0.8884
 1077SOL    MW4 4076   5.018   0.464   3.461  0.5435 -0.0617 -0.6144
 1078SOL     OW 4077   5.412   3.801   5.073  0.1105 -0.2103  1.0613
 1078SOL    HW2 4078   5.318   3.820   5.085  0.3483  0.4178  2.1069
 1078SOL    HW3 4079   5.434   3.747   5.149  0.3146 -1.4644  0.1237
 1078SOL    MW4 4080   5.402   3.797   5.085  0.1688 -0.2929  1.0756
 1079SOL     OW 4081   2.835   1.649   3.857  0.1875 -0.0092  0.3241
 1079SOL    HW2 4082   2.873   1.572   3.900 -1.5535 -0.8420  0.5076
 1079SOL    HW3 4083   2.792   1.614   3.779  0.0745  0.9131 -0.0388
 1079SOL    MW4 4084   2.834   1.634   3.853 -0.0571  0.0026  0.3004
 1080SOL     OW 4085   1.825   1.124   0.111  0.3979 -0.0952  0.3898
 1080SOL    HW2 4086   1.748   1.165   0.072  1.1102 -0.0236 -1.0079
 1080SOL    HW3 4087   1.870   1.196   0.157  0.1199  0.0538  0.4318
 1080SOL    MW4 4088   1.821   1.139   0.112  0.4552 -0.0661  0.2109
 1081SOL     OW 4089   2.805   3.623   5.155 -0.5203 -0.1180 -0.4008
 1081SOL    HW2 4090   2.755   3.547   5.184 -0.4486 -0.5294 -1.2938
 1081SOL    HW3 4091   2.878   3.585   5.106  1.0969  0.4411  1.4581
 1081SOL    MW4 4092   2.808   3.608   5.152 -0.2975 -0.0985 -0.2734
 1082SOL     OW 4093   4.368   3.453   2.791  0.0445  0.4751  0.2359
 1082SOL    HW2 4094   4.418   3.531   2.765  1.0085 -0.1481  0.1772
 1082SOL    HW3 4095   4.397   3.385   2.731 -1.9719  0.4287 -0.7678
 1082SOL    MW4 4096   4.379   3.455   2.779 -0.0944  0.3868  0.0958
 1083SOL     OW 4097   1.818   4.615   4.931 -0.3404  0.3954  0.3389
 1083SOL    HW2 4098   1.738   4.602   4.982  0.5480 -0.4740  1.5746
 1083SOL    HW3 4099   1.888   4.609   4.995  0.7811  0.0845 -0.8791
 1083SOL    MW4 4100   1.817   4.612   4.946 -0.0752  0.2397  0.3412
 1084SOL     OW 4101   5.883   2.458   2.349  0.0969 -0.9474 -0.3101
 1084SOL    HW2 4102   5.885   2.553   2.336 -0.6011 -0.7467  0.8801
 1084SOL    HW3 4103   5.904   2.445   2.442 -0.9657 -1.8601 -0.1642
 1084SOL    MW4 4104   5.886   2.469   2.360 -0.1354 -1.0413 -0.1338
 1085SOL     OW 4105   1.136   0.208   3.101  0.0584 -0.0468  0.6691
 1085SOL    HW2 4106   1.046   0.239   3.096  0.3296  0.6235 -0.2950
 1085SOL    HW3 4107   1.184   0.280   3.141  0.4051  0.1502 -0.0845
 1085SOL    MW4 4108   1.130   0.221   3.106  0.1399  0.0676  0.4425
 1086SOL     OW 4109   3.387   5.840   4.515  0.1941  0.0383 -0.3010
 1086SOL    HW2 4110   3.407   5.805   4.428 -0.3070 -1.4870  0.1675
 1086SOL    HW3 4111   3.462   5.814   4.569 -0.7264 -1.4133  0.3273
 1086SOL    MW4 4112   3.400   5.832   4.511  0.0065 -0.3545 -0.1563
 1087SOL     OW 4113   5.333   5.661   3.305  0.4310  0.0165 -0.5881
 1087SOL    HW2 4114   5.260   5.634   3.250 -0.2325  0.8303 -0.1199
 1087SOL    HW3 4115   5.325   5.756   3.313  0.7882 -0.0234  0.5171
 1087SOL    MW4 4116   5.322   5.670   3.299  0.3906  0.1186 -0.3805
 1088SOL     OW 4117   4.749   4.254   0.470  0.0211 -0.4972 -0.4596
 1088SOL    HW2 4118   4.777   4.319   0.535 -2.2939 -0.3433  0.4822
 1088SOL    HW3 4119   4.739   4.304   0.389  0.6461 -0.2026 -0.3611
 1088SOL    MW4 4120   4.752   4.269   0.468 -0.2019 -0.4380 -0.3223
 1089SOL     OW 4121   0.166   6.343   1.720 -0.1521 -0.4280 -0.7869
 1089SOL    HW2 4122   0.224   6.398   1.667  1.9815 -2.2340 -0.4846
 1089SOL    HW3 4123   0.097   6.315   1.659  0.6951 -0.2301 -1.8624
 1089SOL    MW4 4124   0.164   6.346   1.705  0.2412 -0.6401 -0.8889
 1090SOL     OW 4125   0.166   6.231   4.455 -0.0285  0.2719  0.0205
 1090SOL    HW2 4126   0.248   6.204   4.414 -0.0304  0.6349 -0.2230
 1090SOL    HW3 4127   0.108   6.155   4.446  0.2272  0.0697  0.0589
 1090SOL    MW4 4128   0.170   6.217   4.449  0.0050  0.2931 -0.0065
 1091SOL     OW 4129   0.389   6.270   4.058 -0.2584  0.5194  0.3680
 1091SOL    HW2 4130   0.438   6.271   4.141  0.1294  2.7015  0.1833
 1091SOL    HW3 4131   0.457   6.264   3.991 -0.4582  0.5237  0.1645
 1091SOL    MW4 4132   0.405   6.269   4.060 -0.2336  0.8079  0.3168
 1092SOL     OW 4133   3.136   5.300   4.593  0.1927 -0.0012  0.4904
 1092SOL    HW2 4134   3.064   5.334   4.646  1.2564  1.8199  0.8423
 1092SOL    HW3 4135   3.119   5.331   4.505 -0.7195 -1.6716  0.0377
 1092SOL    MW4 4136   3.125   5.308   4.589  0.2127  0.0187  0.4771
 1093SOL     OW 4137   6.364   1.787   5.346  0.0135 -0.2301  0.3218
 1093SOL    HW2 4138   6.278   1.771   5.385 -0.6134  1.0413 -0.4719
 1093SOL    HW3 4139   6.414   1.829   5.416 -0.0228 -0.9002  0.7618
 1093SOL    MW4 4140   6.359   1.790   5.360 -0.0740 -0.1508  0.2751
 1094SOL     OW 4141   4.889   5.783   5.264 -0.7840 -0.2848  0.1238
 1094SOL    HW2 4142   4.892   5.780   5.359  0.1119  1.0280  0.1597
 1094SOL    HW3 4143   4.949   5.714   5.235  0.6703  0.7583  0.5554
 1094SOL    MW4 4144   4.897   5.773   5.272 -0.4739  0.0261  0.1855
 1095SOL     OW 4145   4.727   5.060   1.970 -0.2791  0.5350  0.0963
 1095SOL    HW2 4146   4.736   5.155   1.975  0.9775  0.4618 -0.2922
 1095SOL    HW3 4147   4.714   5.042   1.877 -2.1510  0.4187  0.3452
 1095SOL    MW4 4148   4.726   5.070   1.958 -0.3603  0.5100  0.0778
 1096SOL     OW 4149   6.312   5.571   2.713 -0.2806  0.3134 -0.2645
 1096SOL    HW2 4150   6.356   5.640   2.665 -0.0969 -0.6841 -1.5980
 1096SOL    HW3 4151   6.257   5.528   2.648 -1.9828  0.4829  0.9820
 1096SOL    MW4 4152   6.310   5.574   2.698 -0.4810  0.2041 -0.2760
 1097SOL     OW 4153   3.684   2.991   2.503 -0.4278 -0.2571  0.1897
 1097SOL    HW2 4154   3.631   3.067   2.479 -1.1008 -0.6398  0.4415
 1097SOL    HW3 4155   3.692   2.942   2.422  1.1256  0.7287 -0.2973
 1097SOL    MW4 4156   3.678   2.995   2.489 -0.3116 -0.1775  0.1587
 1098SOL     OW 4157   4.153   3.808   2.428  0.0369 -0.1872  0.3642
 1098SOL    HW2 4158   4.161   3.800   2.333  1.7477 -1.3858  0.5599
 1098SOL    HW3 4159   4.075   3.757   2.450  0.5927 -1.3409 -0.2575
 1098SOL    MW4 4160   4.144   3.800   2.419  0.3360 -0.4976  0.3080
 1099SOL     OW 4161   1.488   0.653   1.913  0.0218  0.4096 -0.4397
 1099SOL    HW2 4162   1.432   0.608   1.977  1.6172 -2.2256 -0.7517
 1099SOL    HW3 4163   1.435   0.656   1.833 -0.5042 -0.0257 -0.1166
 1099SOL    MW4 4164   1.474   0.648   1.911  0.1629  0.0045 -0.4382
 1100SOL     OW 4165   6.135   2.545   5.802 -0.7630 -0.3590 -0.2832
 1100SOL    HW2 4166   6.190   2.509   5.733  0.2042 -0.0532  0.3015
 1100SOL    HW3 4167   6.060   2.487   5.806 -0.0386 -1.3369 -0.4848
 1100SOL    MW4 4168   6.133   2.533   5.793 -0.5398 -0.4476 -0.2327
 1101SOL     OW 4169   5.870   2.794   2.023  0.3961 -0.3192 -0.9914
 1101SOL    HW2 4170   5.895   2.813   1.932  1.4747 -0.7514 -0.8066
 1101SOL    HW3 4171   5.804   2.725   2.016  1.4981 -1.3816 -1.4329
 1101SOL    MW4 4172   5.865   2.787   2.010  0.6838 -0.5164 -1.0253
 1102SOL     OW 4173   5.612   2.070   4.345 -0.3770  0.8147 -0.8555
 1102SOL    HW2 4174   5.658   2.013   4.407  0.0431  0.9734 -1.0223
 1102SOL    HW3 4175   5.643   2.042   4.259 -2.7342 -1.0359 -1.1992
 1102SOL    MW4 4176   5.622   2.059   4.342 -0.6326  0.5915 -0.9229
 1103SOL     OW 4177   5.255   3.250   2.679 -0.4021  0.2268 -0.3246
 1103SOL    HW2 4178   5.272   3.324   2.620 -0.2559 -0.4270 -1.1092
 1103SOL    HW3 4179   5.341   3.215   2.699 -0.5398 -0.6380 -1.1493
 1103SOL    MW4 4180   5.269   3.255   2.674 -0.4010  0.0264 -0.5370
 1104SOL     OW 4181   5.167   2.324   3.796  0.0294  0.4171  0.3102
 1104SOL    HW2 4182   5.086   2.365   3.826  0.3478  1.8734 -0.7058
 1104SOL    HW3 4183   5.156   2.315   3.701  0.4273 -0.8758  0.3617
 1104SOL    MW4 4184   5.155   2.328   3.787  0.1239  0.4387  0.1829
 1105SOL     OW 4185   2.277   5.052   0.012 -0.4143  0.2086 -0.2071
 1105SOL    HW2 4186   2.339   5.033   0.083 -1.7221  0.3205  1.0251
 1105SOL    HW3 4187   2.293   5.144  -0.009  2.4222 -0.7031 -2.6226
 1105SOL    MW4 4188   2.287   5.062   0.019 -0.2126  0.1031 -0.3632
 1106SOL     OW 4189   6.035   2.834   1.230  0.3642 -0.0519 -0.3716
 1106SOL    HW2 4190   6.085   2.894   1.286  0.7315  0.4442 -1.2062
 1106SOL    HW3 4191   5.998   2.890   1.162 -0.4240 -0.5845 -0.3954
 1106SOL    MW4 4192   6.037   2.849   1.229  0.3087 -0.0567 -0.4849
 1107SOL     OW 4193   5.781   6.254   0.614 -0.1823  0.7984 -0.0187
 1107SOL    HW2 4194   5.715   6.321   0.627  0.5277  1.3416  0.9540
 1107SOL    HW3 4195   5.815   6.236   0.702  1.6664  1.2926 -0.5771
 1107SOL    MW4 4196   5.777   6.260   0.628  0.1553  0.9353  0.0359
 1108SOL     OW 4197   3.814   1.610   0.174  0.6406 -0.0545  0.0831
 1108SOL    HW2 4198   3.735   1.618   0.122  0.9681 -0.8468 -0.5557
 1108SOL    HW3 4199   3.876   1.564   0.118  0.9830 -0.9817  1.1821
 1108SOL    MW4 4200   3.812   1.605   0.160  0.7290 -0.2814  0.1438
 1109SOL     OW 4201   6.011   2.757   0.634 -0.5234  0.2142 -0.2290
 1109SOL    HW2 4202   5.987   2.845   0.606 -2.0592 -0.7677 -2.2136
 1109SOL    HW3 4203   5.970   2.699   0.570  1.0143 -1.9357  0.6186
 1109SOL    MW4 4204   6.003   2.761   0.622 -0.5231 -0.1990 -0.3790
 1110SOL     OW 4205   6.392   1.404   4.102 -0.3440  0.0378 -0.4004
 1110SOL    HW2 4206   6.425   1.418   4.190  1.3010  2.2014 -1.2529
 1110SOL    HW3 4207   6.299   1.428   4.106 -0.0298  1.1618  0.5295
 1110SOL    MW4 4208   6.384   1.409   4.114 -0.0855  0.4716 -0.3902
 1111SOL     OW 4209   2.375   1.239   5.340 -0.0984  0.1971  0.3532
 1111SOL    HW2 4210   2.420   1.323   5.354 -1.1238  0.9486 -0.6746
 1111SOL    HW3 4211   2.291   1.250   5.385 -0.9844  0.4250 -1.2948
 1111SOL    MW4 4212   2.370   1.252   5.348 -0.3506  0.3263  0.0001
 1112SOL     OW 4213   3.257   2.953   0.139  0.0207 -0.1444  0.3951
 1112SOL    HW2 4214   3.235   3.021   0.202  3.2483 -0.5638  2.1678
 1112SOL    HW3 4215   3.220   2.873   0.176  0.5819 -0.1475  0.9503
 1112SOL    MW4 4216   3.249   2.952   0.152  0.5206 -0.2002  0.7023
 1113SOL     OW 4217   3.963   3.445   4.082 -0.3786 -0.3917 -0.7234
 1113SOL    HW2 4218   3.900   3.379   4.108 -0.1041 -0.5926 -0.5638
 1113SOL    HW3 4219   3.990   3.487   4.163 -2.5931  1.8344 -1.0080
 1113SOL    MW4 4220   3.958   3.442   4.096 -0.6346 -0.1245 -0.7399
 1114SOL     OW 4221   4.291   5.915   1.112  0.1002 -0.9678 -0.9689
 1114SOL    HW2 4222   4.237   5.984   1.151  0.3519 -0.3152 -1.7379
 1114SOL    HW3 4223   4.236   5.837   1.114 -0.6902 -0.4337 -1.2874
 1114SOL    MW4 4224   4.277   5.914   1.117  0.0291 -0.8113 -1.1124
 1115SOL     OW 4225   5.542   2.922   4.456  0.1919 -0.1515  0.2917
 1115SOL    HW2 4226   5.533   3.010   4.495  1.4856 -0.1808  0.7065
 1115SOL    HW3 4227   5.621   2.887   4.496  0.1563 -1.1820 -0.5211
 1115SOL    MW4 4228   5.551   2.929   4.467  0.3579 -0.2913  0.2392
 1116SOL     OW 4229   3.506   3.985   5.219  0.2875  0.0835 -0.4260
 1116SOL    HW2 4230   3.547   4.054   5.271 -1.3262  0.7491  0.0067
 1116SOL    HW3 4231   3.526   4.008   5.128 -0.5909  1.3629 -0.3109
 1116SOL    MW4 4232   3.514   3.997   5.214 -0.0413  0.3401 -0.3537
 1117SOL     OW 4233   0.956   1.187   3.925  0.0527  0.0288  0.3032
 1117SOL    HW2 4234   0.863   1.211   3.930  0.0464 -0.1638  1.2895
 1117SOL    HW3 4235   0.996   1.230   4.000  1.2682  2.1546 -1.4674
 1117SOL    MW4 4236   0.949   1.196   3.936  0.2122  0.2839  0.1997
 1118SOL     OW 4237   3.628   0.948   3.680  0.1655  0.0127 -0.5560
 1118SOL    HW2 4238   3.684   0.896   3.623  0.7276  0.0847 -0.0791
 1118SOL    HW3 4239   3.606   1.025   3.628  2.0272  0.8817 -0.1275
 1118SOL    MW4 4240   3.632   0.951   3.666  0.4853  0.1369 -0.4365
 1119SOL     OW 4241   3.358   5.957   2.460 -0.5477 -0.2431 -0.4251
 1119SOL    HW2 4242   3.268   5.934   2.485 -1.0331  1.4332 -0.5469
 1119SOL    HW3 4243   3.402   5.973   2.543 -0.3878 -0.9459 -0.3707
 1119SOL    MW4 4244   3.352   5.956   2.474 -0.5906 -0.1146 -0.4340
 1120SOL     OW 4245   4.233   4.406   2.607  0.0906  0.3249 -0.5860
 1120SOL    HW2 4246   4.283   4.341   2.655  0.8555  1.0458 -0.3996
 1120SOL    HW3 4247   4.296   4.447   2.548 -0.6494  0.0419 -1.6116
 1120SOL    MW4 4248   4.248   4.403   2.605  0.0939  0.3826 -0.6967
 1121SOL     OW 4249   3.451   3.561   1.541  0.8561 -0.5106 -0.3468
 1121SOL    HW2 4250   3.506   3.599   1.473  1.9517 -0.9855  0.2479
 1121SOL    HW3 4251   3.403   3.490   1.497  0.9456 -0.2950 -0.7972
 1121SOL    MW4 4252   3.452   3.556   1.526  1.0125 -0.5448 -0.3278
 1122SOL     OW 4253   3.113   2.464   4.976 -0.6423  0.7179  0.3904
 1122SOL    HW2 4254   3.154   2.513   4.905 -0.4148  0.0026  0.0130
 1122SOL    HW3 4255   3.144   2.374   4.963  0.3355  0.7792  2.0904
 1122SOL    MW4 4256   3.123   2.458   4.965 -0.4833  0.6316  0.5649
 1123SOL     OW 4257   3.390   5.468   3.098 -0.2470  0.1019  1.0601
 1123SOL    HW2 4258   3.471   5.418   3.086 -0.7460 -0.9278  1.9067
 1123SOL    HW3 4259   3.344   5.459   3.014  0.1029 -0.0532  0.8828
 1123SOL    MW4 4260   3.394   5.460   3.085 -0.2667 -0.0544  1.1484
 1124SOL     OW 4261   5.123   4.581   3.932 -0.0126  0.2945  0.1710
 1124SOL    HW2 4262   5.205   4.578   3.883 -0.5459  0.2564 -0.7335
 1124SOL    HW3 4263   5.144   4.540   4.016  0.9554  0.5100  0.0439
 1124SOL    MW4 4264   5.137   4.575   3.937  0.0447  0.3179  0.0349
 1125SOL     OW 4265   1.754   0.790   5.186  0.0937 -0.2928  0.2361
 1125SOL    HW2 4266   1.684   0.771   5.248  1.2709  0.8807  1.9951
 1125SOL    HW3 4267   1.832   0.749   5.224  0.7841  0.1999 -0.6143
 1125SOL    MW4 4268   1.755   0.782   5.199  0.3401 -0.0730  0.3560
 1126SOL     OW 4269   2.936   2.652   5.043 -0.0218 -0.7095 -0.7645
 1126SOL    HW2 4270   2.951   2.679   5.134 -0.9003 -2.1290 -0.1661
 1126SOL    HW3 4271   3.003   2.586   5.027 -0.4613 -1.1390 -0.8351
 1126SOL    MW4 4272   2.947   2.647   5.053 -0.1957 -0.9535 -0.6949
 1127SOL     OW 4273   3.959   2.195   3.362  0.3539 -0.4446  0.1854
 1127SOL    HW2 4274   3.907   2.230   3.434  1.4923 -0.0089  0.8361
 1127SOL    HW3 4275   3.897   2.149   3.306 -0.5678 -0.7531  1.4261
 1127SOL    MW4 4276   3.944   2.193   3.364  0.3825 -0.4278  0.4349
 1128SOL     OW 4277   0.131   2.890   4.039  0.0422  0.5440 -0.3284
 1128SOL    HW2 4278   0.184   2.921   3.965  0.8677  2.2280  0.8976
 1128SOL    HW3 4279   0.191   2.841   4.094 -0.4284 -0.2060 -0.4777
 1128SOL    MW4 4280   0.146   2.888   4.036  0.0890  0.6672 -0.1864
 1129SOL     OW 4281   0.066   6.397   6.087  0.0528  0.3020 -0.2428
 1129SOL    HW2 4282   0.045   6.487   6.112  0.2461  0.5057 -0.7866
 1129SOL    HW3 4283  -0.015   6.349   6.100 -0.5766  0.9216 -1.6164
 1129SOL    MW4 4284   0.053   6.403   6.092 -0.0047  0.4106 -0.4958
 1130SOL     OW 4285   6.199   1.822   4.751  0.4902 -0.4087 -0.5938
 1130SOL    HW2 4286   6.127   1.884   4.740  0.0828 -0.5636  0.9603
 1130SOL    HW3 4287   6.277   1.871   4.723  0.0819  0.5676 -0.0807
 1130SOL    MW4 4288   6.200   1.837   4.746  0.3826 -0.3004 -0.3211
 1131SOL     OW 4289   5.196   0.034   0.898  0.7107 -0.8367 -0.5947
 1131SOL    HW2 4290   5.279   0.040   0.945 -0.1567 -0.4220  0.9586
 1131SOL    HW3 4291   5.201  -0.050   0.852  1.3132 -1.6447  0.8670
 1131SOL    MW4 4292   5.208   0.024   0.898  0.6758 -0.8886 -0.1969
 1132SOL     OW 4293   2.779   0.445   4.655 -0.5140 -0.2141  0.4098
 1132SOL    HW2 4294   2.833   0.406   4.722 -2.0941  1.7037  2.9910
 1132SOL    HW3 4295   2.828   0.523   4.627 -0.8136  0.2075  1.0189
 1132SOL    MW4 4296   2.792   0.450   4.660 -0.7620  0.0946  0.8307
 1133SOL     OW 4297   2.532   3.918   1.207  0.0135 -0.2246 -0.1891
 1133SOL    HW2 4298   2.486   3.869   1.139  1.6833 -2.5754  0.2583
 1133SOL    HW3 4299   2.535   3.858   1.282  0.4792  1.3151  1.0905
 1133SOL    MW4 4300   2.526   3.903   1.208  0.2953 -0.3316  0.0387
 1134SOL     OW 4301   0.788   4.720   2.114  0.2144 -0.0465 -0.2028
 1134SOL    HW2 4302   0.863   4.669   2.085  0.1610 -0.9059  1.1129
 1134SOL    HW3 4303   0.713   4.681   2.068 -0.0149 -2.0781  1.7326
 1134SOL    MW4 4304   0.788   4.708   2.104  0.1771 -0.4279  0.2262
 1135SOL     OW 4305   2.418   0.647   5.221 -0.5068 -0.2875 -0.0027
 1135SOL    HW2 4306   2.413   0.606   5.135 -1.4190 -1.9676  0.7908
 1135SOL    HW3 4307   2.508   0.680   5.228 -0.1740 -0.8978 -1.2424
 1135SOL    MW4 4308   2.429   0.646   5.211 -0.5833 -0.5897 -0.0616
 1136SOL     OW 4309   2.268   3.740   3.380 -0.2028  0.4007 -0.8247
 1136SOL    HW2 4310   2.229   3.762   3.464 -1.0076  0.4946 -1.2178
 1136SOL    HW3 4311   2.194   3.721   3.323  0.3656 -0.5181 -1.2781
 1136SOL    MW4 4312   2.253   3.740   3.383 -0.2340  0.2919 -0.9364
 1137SOL     OW 4313   4.302   2.898   4.038 -0.1650 -0.0213 -0.2904
 1137SOL    HW2 4314   4.281   2.807   4.019  2.0546 -0.7523  0.4917
 1137SOL    HW3 4315   4.229   2.929   4.091 -1.3305 -1.0698 -1.2184
 1137SOL    MW4 4316   4.289   2.890   4.042 -0.0259 -0.2561 -0.3096
 1138SOL     OW 4317   3.763   1.481   1.036 -0.1423  0.2450  0.8711
 1138SOL    HW2 4318   3.687   1.426   1.054  1.4052 -1.9173  1.1968
 1138SOL    HW3 4319   3.790   1.514   1.122  0.3262 -0.4748  1.0098
 1138SOL    MW4 4320   3.757   1.478   1.050  0.1237 -0.1352  0.9324
 1139SOL     OW 4321   3.940   1.700   2.581 -0.4584  0.1341  0.3485
 1139SOL    HW2 4322   3.950   1.699   2.676  1.6955 -0.8210  0.1719
 1139SOL    HW3 4323   3.960   1.610   2.554  1.2106  0.8990 -1.1543
 1139SOL    MW4 4324   3.944   1.688   2.590  0.0460  0.1090  0.1269
 1140SOL     OW 4325   4.141   5.930   0.340  0.3881  0.1688  0.6782
 1140SOL    HW2 4326   4.073   5.868   0.315 -2.3301  2.6189  1.5224
 1140SOL    HW3 4327   4.139   5.932   0.435  2.0034 -0.0213  0.7544
 1140SOL    MW4 4328   4.132   5.922   0.349  0.2426  0.4670  0.7996
 1141SOL     OW 4329   0.204   2.967   1.335  0.1487 -0.0044  0.3538
 1141SOL    HW2 4330   0.276   2.915   1.299 -0.4863  0.2975 -1.4353
 1141SOL    HW3 4331   0.183   3.030   1.266 -0.7576  0.9916  1.4972
 1141SOL    MW4 4332   0.211   2.969   1.321 -0.0547  0.1668  0.2686
 1142SOL     OW 4333   1.480   0.726   4.606  0.1363 -0.2604  0.1965
 1142SOL    HW2 4334   1.536   0.652   4.629  0.9314  1.1886  3.5990
 1142SOL    HW3 4335   1.524   0.768   4.533  1.3307 -1.4119  0.2080
 1142SOL    MW4 4336   1.493   0.722   4.600  0.3988 -0.2212  0.6469
 1143SOL     OW 4337   4.118   4.305   2.010 -0.3670  0.3913 -0.7775
 1143SOL    HW2 4338   4.158   4.280   1.927  1.0093  1.0670 -0.3513
 1143SOL    HW3 4339   4.072   4.386   1.991  0.0171  0.5907 -0.8748
 1143SOL    MW4 4340   4.117   4.312   1.997 -0.1347  0.5068 -0.7341
 1144SOL     OW 4341   2.377   5.398   4.203 -0.2817 -0.2019 -0.3958
 1144SOL    HW2 4342   2.387   5.452   4.282 -1.5974 -1.4252  0.6595
 1144SOL    HW3 4343   2.362   5.462   4.133  0.0189  0.8848  0.4909
 1144SOL    MW4 4344   2.376   5.414   4.204 -0.4156 -0.2199 -0.1396
 1145SOL     OW 4345   3.407   0.049   2.111  0.3307  0.4063 -0.1974
 1145SOL    HW2 4346   3.343  -0.021   2.104 -1.6280  1.9707  1.0728
 1145SOL    HW3 4347   3.431   0.069   2.021 -2.6363  1.1906 -0.9125
 1145SOL    MW4 4348   3.402   0.043   2.098 -0.3191  0.7162 -0.1241
 1146SOL     OW 4349   2.428   1.440   4.896 -0.0645 -0.3661  0.1264
 1146SOL    HW2 4350   2.434   1.359   4.946 -0.4794 -0.6677 -0.2982
 1146SOL    HW3 4351   2.334   1.454   4.884 -0.0090  0.3671  0.4945
 1146SOL    MW4 4352   2.417   1.431   4.901 -0.1119 -0.3092  0.1190
 1147SOL     OW 4353   5.252   4.311   5.424  0.1009 -0.1947 -0.1410
 1147SOL    HW2 4354   5.286   4.306   5.334 -2.5085  0.9858 -1.3233
 1147SOL    HW3 4355   5.245   4.220   5.452  2.9306 -0.5304 -0.2533
 1147SOL    MW4 4356   5.255   4.299   5.416  0.1300 -0.0832 -0.3118
 1148SOL     OW 4357   3.915   6.189   2.583 -0.3739  0.5285  0.6154
 1148SOL    HW2 4358   3.894   6.280   2.560  1.2957  0.6969 -0.4693
 1148SOL    HW3 4359   3.835   6.141   2.565 -0.6769  1.4864 -0.8288
 1148SOL    MW4 4360   3.902   6.195   2.578 -0.1936  0.6771  0.2817
 1149SOL     OW 4361   5.989   6.002   4.638 -0.4432 -0.0910  0.6797
 1149SOL    HW2 4362   6.051   5.936   4.668 -1.6075 -1.6682 -0.2494
 1149SOL    HW3 4363   6.031   6.043   4.563  0.3316  0.3234  1.3269
 1149SOL    MW4 4364   6.003   5.999   4.632 -0.4946 -0.2444  0.6425
 1150SOL     OW 4365   2.143   0.118   4.632  0.7647  0.7730  0.3660
 1150SOL    HW2 4366   2.122   0.094   4.541 -0.0836  0.3200  0.6596
 1150SOL    HW3 4367   2.233   0.150   4.629  1.2572 -0.5978 -0.4071
 1150SOL    MW4 4368   2.152   0.119   4.620  0.7178  0.5324  0.3027
 1151SOL     OW 4369   2.876   2.013   1.218 -0.0585  0.3080  0.5699
 1151SOL    HW2 4370   2.928   2.072   1.273 -0.2177  1.5187 -0.5390
 1151SOL    HW3 4371   2.878   2.053   1.131 -1.1589 -0.7135  0.0460
 1151SOL    MW4 4372   2.883   2.026   1.214 -0.2247  0.3329  0.3545
 1152SOL     OW 4373   0.847   0.187   2.615  0.0078 -0.4034  0.4575
 1152SOL    HW2 4374   0.769   0.228   2.578 -1.3643 -1.9585  1.4932
 1152SOL    HW3 4375   0.848   0.099   2.577  0.3993 -0.9142  1.5972
 1152SOL    MW4 4376   0.837   0.181   2.605 -0.1216 -0.6760  0.7445
 1153SOL     OW 4377   2.486   1.563   1.226  0.1488  0.4771 -0.1971
 1153SOL    HW2 4378   2.530   1.597   1.148 -0.8852  0.3058 -0.8826
 1153SOL    HW3 4379   2.394   1.555   1.199 -0.1942  0.2756  0.9993
 1153SOL    MW4 4380   2.480   1.567   1.212 -0.0329  0.4279 -0.1297
 1154SOL     OW 4381   6.296   0.541   0.361 -0.0185 -0.2817  0.0414
 1154SOL    HW2 4382   6.356   0.569   0.430  0.2782  0.6843 -0.5935
 1154SOL    HW3 4383   6.280   0.620   0.309 -0.3988 -0.9433 -0.8714
 1154SOL    MW4 4384   6.302   0.555   0.363 -0.0296 -0.2416 -0.1628
 1155SOL     OW 4385   4.353   1.989   6.312  0.2430 -0.2340  0.1655
 1155SOL    HW2 4386   4.408   2.042   6.370  0.5164 -0.5517  0.1949
 1155SOL    HW3 4387   4.264   2.016   6.334  0.3890  0.4573 -0.0494
 1155SOL    MW4 4388   4.349   2.000   6.322  0.2983 -0.1847  0.1411
 1156SOL     OW 4389   1.608   5.000   5.382 -0.1844  0.5593  0.1181
 1156SOL    HW2 4390   1.646   4.932   5.326  0.0530 -1.3479  2.4752
 1156SOL    HW3 4391   1.517   5.007   5.353 -0.4011 -1.2753  0.2641
 1156SOL    MW4 4392   1.601   4.992   5.370 -0.1817  0.0656  0.4483
 1157SOL     OW 4393   4.433   3.235   3.485 -0.1500  0.5455  0.2897
 1157SOL    HW2 4394   4.492   3.255   3.413  0.3103 -0.0086  0.5089
 1157SOL    HW3 4395   4.400   3.148   3.465  3.0246 -1.4212  2.6968
 1157SOL    MW4 4396   4.436   3.226   3.473  0.3296  0.2129  0.6362
 1158SOL     OW 4397   4.089   3.272   2.506 -0.3474  0.0073  0.4472
 1158SOL    HW2 4398   4.115   3.360   2.479 -1.6460  0.8534  1.8077
 1158SOL    HW3 4399   4.007   3.256   2.460  0.0867 -0.6981 -0.1192
 1158SOL    MW4 4400   4.082   3.281   2.496 -0.4614  0.0258  0.5520
 1159SOL     OW 4401   1.556   4.666   2.263 -0.0808  0.1771  0.1895
 1159SOL    HW2 4402   1.578   4.739   2.205  0.9405 -0.5834 -0.4327
 1159SOL    HW3 4403   1.531   4.595   2.203 -0.7399 -0.0877  0.7673
 1159SOL    MW4 4404   1.556   4.666   2.247 -0.0330  0.0418  0.1837
 1160SOL     OW 4405   1.274   3.971   4.310  0.2522 -0.2596  0.1454
 1160SOL    HW2 4406   1.179   3.981   4.318 -0.0796 -2.3441 -0.6904
 1160SOL    HW3 4407   1.295   3.890   4.356  1.5644 -0.0892 -0.0960
 1160SOL    MW4 4408   1.264   3.962   4.317  0.3815 -0.5121  0.0033
 1161SOL     OW 4409   5.803   4.410   0.659 -0.3176 -0.6163  0.1744
 1161SOL    HW2 4410   5.737   4.350   0.694  0.5747 -0.7719  1.6913
 1161SOL    HW3 4411   5.848   4.444   0.736  0.6181  0.3724 -0.7639
 1161SOL    MW4 4412   5.800   4.407   0.674 -0.0764 -0.5064  0.2507
 1162SOL     OW 4413   6.260   1.468   5.134 -0.5725 -0.5388  0.5734
 1162SOL    HW2 4414   6.190   1.437   5.192 -1.6728 -0.9579 -0.9306
 1162SOL    HW3 4415   6.220   1.539   5.083 -0.2076 -1.3798 -0.9448
 1162SOL    MW4 4416   6.245   1.474   5.135 -0.6695 -0.7050  0.1747
 1163SOL     OW 4417   0.781   3.116   2.199 -0.0736 -0.0611  0.0368
 1163SOL    HW2 4418   0.768   3.049   2.132  0.2093  0.5061 -0.6014
 1163SOL    HW3 4419   0.872   3.105   2.226 -0.9643 -2.2546  2.5395
 1163SOL    MW4 4420   0.791   3.106   2.193 -0.1538 -0.2757  0.2828
 1164SOL     OW 4421   2.955   1.848   5.027  0.3017  0.5595  0.3716
 1164SOL    HW2 4422   3.036   1.814   4.988 -0.7473 -0.9037 -0.6744
 1164SOL    HW3 4423   2.980   1.874   5.115  2.1889  1.4157 -0.3582
 1164SOL    MW4 4424   2.969   1.847   5.033  0.4123  0.4794  0.1373
 1165SOL     OW 4425   3.565   4.467   5.434 -0.3168  0.1148  0.8168
 1165SOL    HW2 4426   3.608   4.543   5.395  1.9365 -1.6609 -0.4078
 1165SOL    HW3 4427   3.637   4.416   5.472 -1.5530 -2.1170  0.2841
 1165SOL    MW4 4428   3.580   4.471   5.434 -0.1826 -0.4139  0.5850
 1166SOL     OW 4429   2.179   5.929   3.410 -0.0243 -0.0048  0.1437
 1166SOL    HW2 4430   2.244   5.939   3.479 -1.0456 -0.8870  1.2629
 1166SOL    HW3 4431   2.115   5.998   3.427 -0.5495 -0.5481  0.4085
 1166SOL    MW4 4432   2.179   5.939   3.421 -0.2283 -0.1929  0.3263
 1167SOL     OW 4433   3.298   4.300   3.254 -0.1873 -0.4943  0.0280
 1167SOL    HW2 4434   3.332   4.262   3.335 -1.4921  0.7135  1.1897
 1167SOL    HW3 4435   3.337   4.247   3.184  1.3262 -1.2805  1.4080
 1167SOL    MW4 4436   3.308   4.288   3.255 -0.1598 -0.4387  0.3634
 1168SOL     OW 4437   3.706   1.714   2.931 -0.4109 -0.2837 -0.0239
 1168SOL    HW2 4438   3.643   1.780   2.903 -1.4481 -1.4524 -0.5176
 1168SOL    HW3 4439   3.658   1.631   2.928  0.2844 -0.8660  2.3568
 1168SOL    MW4 4440   3.692   1.711   2.927 -0.4560 -0.5148  0.2250
 1169SOL     OW 4441   3.233   0.190   5.547  0.3137  0.0585  0.2881
 1169SOL    HW2 4442   3.298   0.128   5.513  1.1868  1.0973 -0.0272
 1169SOL    HW3 4443   3.158   0.180   5.489  0.9531  0.2283 -0.6012
 1169SOL    MW4 4444   3.232   0.181   5.535  0.5133  0.2180  0.1292
 1170SOL     OW 4445   6.101   2.047   3.333  0.0939  0.2700 -0.6905
 1170SOL    HW2 4446   6.080   1.959   3.303 -2.1628  0.1394  1.0192
 1170SOL    HW3 4447   6.026   2.101   3.307 -0.2718  0.8709  1.4017
 1170SOL    MW4 4448   6.088   2.043   3.326 -0.2521  0.3321 -0.1889
 1171SOL     OW 4449   3.048   5.852   0.188  0.4747  0.1834 -0.3615
 1171SOL    HW2 4450   3.140   5.872   0.206 -0.1112  2.7509  0.0578
 1171SOL    HW3 4451   3.006   5.937   0.177 -2.0779 -0.8688  0.5327
 1171SOL    MW4 4452   3.055   5.866   0.189  0.0606  0.3833 -0.1882
 1172SOL     OW 4453   4.301   0.887   3.213 -0.2040 -0.6374  0.1774
 1172SOL    HW2 4454   4.379   0.938   3.190 -1.1748  0.8664  0.0991
 1172SOL    HW3 4455   4.287   0.830   3.138  1.3005 -1.5630  0.5515
 1172SOL    MW4 4456   4.309   0.886   3.200 -0.1336 -0.5611  0.2165
 1173SOL     OW 4457   4.247   3.668   4.103  0.2830 -0.3307 -0.7836
 1173SOL    HW2 4458   4.319   3.605   4.092  0.9721  0.6390 -2.2600
 1173SOL    HW3 4459   4.195   3.634   4.175  1.2680 -1.9844 -0.8143
 1173SOL    MW4 4460   4.250   3.655   4.111  0.5039 -0.4209 -0.9825
 1174SOL     OW 4461   2.593   2.864   6.129 -0.0516  0.2999 -0.2966
 1174SOL    HW2 4462   2.645   2.872   6.048  1.5155 -0.7260  0.5489
 1174SOL    HW3 4463   2.652   2.894   6.198 -1.0155  0.2164  0.5834
 1174SOL    MW4 4464   2.608   2.869   6.127  0.0280  0.1535 -0.0690
 1175SOL     OW 4465   5.787   6.411   5.418 -0.2838 -0.1810  0.5479
 1175SOL    HW2 4466   5.815   6.495   5.381  0.0388 -0.8060 -0.6904
 1175SOL    HW3 4467   5.751   6.433   5.504 -2.0853  1.4959 -0.5543
 1175SOL    MW4 4468   5.786   6.425   5.424 -0.4789 -0.0422  0.2391
 1176SOL     OW 4469   2.145   1.283   5.850  0.1586 -0.2035  0.0177
 1176SOL    HW2 4470   2.199   1.287   5.771 -1.4748  1.8512 -1.0886
 1176SOL    HW3 4471   2.113   1.192   5.853  0.5259 -0.4026 -1.4910
 1176SOL    MW4 4472   2.148   1.271   5.840 -0.0084  0.0413 -0.3273
 1177SOL     OW 4473   2.975   2.651   1.503  0.8283 -0.1059  0.5167
 1177SOL    HW2 4474   2.896   2.656   1.449 -0.6920 -0.2517  2.5679
 1177SOL    HW3 4475   2.973   2.563   1.539  1.0398  0.3940  1.8096
 1177SOL    MW4 4476   2.964   2.640   1.501  0.6556 -0.0592  0.9579
 1178SOL     OW 4477   6.020   3.602   5.075 -0.0355  0.7740 -0.4183
 1178SOL    HW2 4478   6.047   3.621   4.986  0.4833  0.9255 -0.2321
 1178SOL    HW3 4479   5.928   3.628   5.079  0.3798  2.3124 -0.4456
 1178SOL    MW4 4480   6.011   3.608   5.064  0.0877  0.9969 -0.3973
 1179SOL     OW 4481   2.580   1.008   1.881 -0.0360 -0.6064  0.1279
 1179SOL    HW2 4482   2.667   1.017   1.842 -0.4295  1.0363 -0.4666
 1179SOL    HW3 4483   2.520   1.035   1.812 -1.0084 -1.5261  0.6029
 1179SOL    MW4 4484   2.584   1.013   1.867 -0.2162 -0.5110  0.1122
 1180SOL     OW 4485   2.419   5.267   2.337  0.4075  0.2413 -0.0334
 1180SOL    HW2 4486   2.404   5.217   2.257 -0.6528  0.1087  0.2298
 1180SOL    HW3 4487   2.369   5.220   2.404  0.7272  0.7330  0.5585
 1180SOL    MW4 4488   2.410   5.255   2.335  0.3098  0.2887  0.0794
 1181SOL     OW 4489   2.610   0.773   3.482 -0.1855 -0.1474  0.1465
 1181SOL    HW2 4490   2.537   0.799   3.538  0.2285  1.5162 -0.0496
 1181SOL    HW3 4491   2.688   0.795   3.532  0.2004 -0.6810 -0.2007
 1181SOL    MW4 4492   2.611   0.779   3.496 -0.0799  0.0017  0.0749
 1182SOL     OW 4493   3.451   2.370   2.005 -0.0067  0.1535 -0.5564
 1182SOL    HW2 4494   3.521   2.435   1.997 -1.2541  1.4580 -1.2910
 1182SOL    HW3 4495   3.496   2.288   2.027  1.6866  1.0622 -0.5282
 1182SOL    MW4 4496   3.466   2.367   2.006  0.0521  0.4455 -0.6496
 1183SOL     OW 4497   2.003   2.514   2.752 -0.3605  0.3148 -0.1484
 1183SOL    HW2 4498   2.027   2.597   2.711  1.7520 -0.0965  0.1101
 1183SOL    HW3 4499   1.959   2.465   2.682 -0.6037  1.2081 -0.6343
 1183SOL    MW4 4500   2.000   2.518   2.737 -0.1139  0.3784 -0.1784
 1184SOL     OW 4501   1.055   5.472   4.108  0.5959 -0.0492 -0.9931
 1184SOL    HW2 4502   1.104   5.401   4.068  0.9210 -0.8361  0.6995
 1184SOL    HW3 4503   0.979   5.430   4.148 -0.8080  0.9788 -2.4301
 1184SOL    MW4 4504   1.051   5.457   4.108  0.4536 -0.0174 -0.9594
 1185SOL     OW 4505   6.208   0.867   5.411  0.0147 -0.2251  0.2261
 1185SOL    HW2 4506   6.132   0.893   5.463  0.9296  1.0555  0.9884
 1185SOL    HW3 4507   6.198   0.914   5.329 -1.0670 -1.7000 -0.5296
 1185SOL    MW4 4508   6.197   0.877   5.407 -0.0073 -0.2508  0.2270
 1186SOL     OW 4509   0.847   1.248   2.880  0.1839  0.2354  0.5540
 1186SOL    HW2 4510   0.779   1.270   2.943  0.9995  1.1881  1.1284
 1186SOL    HW3 4511   0.923   1.226   2.934  0.7773  0.6705 -0.0872
 1186SOL    MW4 4512   0.848   1.248   2.896  0.3698  0.4185  0.5452
 1187SOL     OW 4513   2.416   0.455   3.476 -0.4014 -0.1246  0.2773
 1187SOL    HW2 4514   2.351   0.389   3.500 -0.4017  0.2420  1.3345
 1187SOL    HW3 4515   2.430   0.505   3.556 -0.1538  0.9511 -0.4157
 1187SOL    MW4 4516   2.409   0.453   3.490 -0.3687  0.0657  0.3254
 1188SOL     OW 4517   6.129   3.622   4.563  0.2156  0.0246  0.2854
 1188SOL    HW2 4518   6.127   3.548   4.501  3.7447 -0.4853  0.6258
 1188SOL    HW3 4519   6.159   3.696   4.511  1.2206  0.0788  0.9223
 1188SOL    MW4 4520   6.132   3.622   4.548  0.8138 -0.0355  0.4144
 1189SOL     OW 4521   1.282   3.639   3.459 -0.0423  0.1701 -0.0840
 1189SOL    HW2 4522   1.192   3.662   3.482  0.6666  1.6167  1.4989
 1189SOL    HW3 4523   1.292   3.548   3.489 -0.8047  0.1739  0.1990
 1189SOL    MW4 4524   1.271   3.630   3.466 -0.0493  0.3614  0.1622
 1190SOL     OW 4525   5.785   6.299   4.617 -0.0805 -0.0098  0.8102
 1190SOL    HW2 4526   5.722   6.343   4.675  0.8734 -0.2235  2.0529
 1190SOL    HW3 4527   5.834   6.241   4.675  0.3862 -0.8337 -0.3696
 1190SOL    MW4 4528   5.783   6.297   4.632  0.1070 -0.1467  0.8185
 1191SOL     OW 4529   0.337   1.238   3.956 -0.0620  0.4103 -0.1821
 1191SOL    HW2 4530   0.349   1.165   4.016 -1.6592  1.7747  1.9252
 1191SOL    HW3 4531   0.396   1.306   3.988  0.2467  0.6271 -1.1593
 1191SOL    MW4 4532   0.347   1.237   3.968 -0.2320  0.6190 -0.0330
 1192SOL     OW 4533   2.530   4.915   1.461  0.2532  0.0790 -0.0828
 1192SOL    HW2 4534   2.559   4.972   1.532 -0.1634 -0.3921  0.4751
 1192SOL    HW3 4535   2.438   4.899   1.479  0.4806 -1.1676  0.0663
 1192SOL    MW4 4536   2.522   4.920   1.473  0.2283 -0.1476  0.0105
 1193SOL     OW 4537   4.469   3.201   2.096 -0.2746  0.2471  0.3041
 1193SOL    HW2 4538   4.443   3.234   2.011 -0.5211  0.8841  0.6234
 1193SOL    HW3 4539   4.565   3.202   2.094 -0.2802  0.5803  0.1585
 1193SOL    MW4 4540   4.479   3.205   2.085 -0.3079  0.3751  0.3270
 1194SOL     OW 4541   2.984   0.188   5.409  0.5081 -0.4497 -0.1988
 1194SOL    HW2 4542   3.015   0.160   5.322  2.7416  1.3445 -0.0927
 1194SOL    HW3 4543   2.921   0.121   5.435 -0.7363 -0.7296 -3.4647
 1194SOL    MW4 4544   2.980   0.176   5.401  0.6386 -0.2499 -0.6157
 1195SOL     OW 4545   3.082   1.628   0.697 -0.3073 -0.8241 -0.6245
 1195SOL    HW2 4546   3.019   1.644   0.768 -0.4256  1.7467 -1.2059
 1195SOL    HW3 4547   3.028   1.618   0.619 -0.1064  1.7365 -1.1846
 1195SOL    MW4 4548   3.066   1.629   0.696 -0.2964 -0.1471 -0.7751
 1196SOL     OW 4549   1.449   0.985   4.739 -0.2381 -0.0787  0.3442
 1196SOL    HW2 4550   1.428   1.022   4.825 -0.2564 -0.3301  0.4494
 1196SOL    HW3 4551   1.371   1.000   4.686 -0.5336 -0.6446  0.6114
 1196SOL    MW4 4552   1.436   0.992   4.743 -0.2795 -0.1865  0.3934
 1197SOL     OW 4553   5.297   3.775   5.371 -0.3118  0.6333 -0.4294
 1197SOL    HW2 4554   5.287   3.867   5.396 -1.4974  1.3086 -3.1320
 1197SOL    HW3 4555   5.211   3.736   5.384 -0.1786  0.2504 -0.6668
 1197SOL    MW4 4556   5.285   3.782   5.376 -0.4507  0.6719 -0.8173
 1198SOL     OW 4557   5.590   5.243   0.055  0.7152 -0.0429  0.4339
 1198SOL    HW2 4558   5.542   5.323   0.074 -1.6662 -1.1806 -0.4234
 1198SOL    HW3 4559   5.653   5.268  -0.013 -2.5098  0.5030 -2.6826
 1198SOL    MW4 4560   5.592   5.257   0.048 -0.0245 -0.1210 -0.0904
 1199SOL     OW 4561   4.874   5.008   1.362  0.4184  0.5219 -0.0828
 1199SOL    HW2 4562   4.970   5.002   1.355  0.3368 -0.5333 -0.5218
 1199SOL    HW3 4563   4.859   5.088   1.412  1.5122  1.0407 -0.5355
 1199SOL    MW4 4564   4.885   5.018   1.367  0.5520  0.4511 -0.2004
 1200SOL     OW 4565   4.991   4.994   3.345 -0.1866 -0.1003  0.2859
 1200SOL    HW2 4566   5.017   5.010   3.254  2.5938 -1.0146  0.8115
 1200SOL    HW3 4567   5.051   4.926   3.375 -0.8902  0.3208  2.8815
 1200SOL    MW4 4568   5.003   4.987   3.337  0.0874 -0.1654  0.6977
 1201SOL     OW 4569   5.981   1.317   5.884  0.0058  0.4459  0.4063
 1201SOL    HW2 4570   6.022   1.378   5.944  1.3301 -0.1987  0.1909
 1201SOL    HW3 4571   6.052   1.261   5.854 -1.1431 -1.1333  0.5100
 1201SOL    MW4 4572   5.996   1.318   5.888  0.0290  0.1525  0.3916
 1202SOL     OW 4573   3.913   0.142   2.522  0.4541  0.0118 -0.0594
 1202SOL    HW2 4574   3.856   0.192   2.463 -0.9717 -1.5452 -0.0857
 1202SOL    HW3 4575   3.978   0.102   2.464  1.3923  1.4777 -0.0775
 1202SOL    MW4 4576   3.914   0.143   2.506  0.3898 -0.0002 -0.0653
 1203SOL     OW 4577   6.428   5.693   1.940 -0.5864  0.4582 -0.2317
 1203SOL    HW2 4578   6.446   5.736   2.024  1.8342  0.7865 -0.8699
 1203SOL    HW3 4579   6.413   5.601   1.964 -2.5974  0.9792  0.7888
 1203SOL    MW4 4580   6.428   5.686   1.954 -0.5323  0.5703 -0.1813
 1204SOL     OW 4581   4.203   3.522   2.386  0.2231 -0.1489 -0.0565
 1204SOL    HW2 4582   4.160   3.543   2.303 -1.3176 -1.1122  0.4611
 1204SOL    HW3 4583   4.228   3.606   2.423  0.9868  0.2973 -1.5111
 1204SOL    MW4 4584   4.201   3.536   2.380  0.1206 -0.2171 -0.1801
 1205SOL     OW 4585   5.476   5.272   4.346  0.0061  0.2800  0.2925
 1205SOL    HW2 4586   5.481   5.364   4.323  2.8842 -0.1954 -1.5290
 1205SOL    HW3 4587   5.393   5.242   4.308 -1.9574  2.3792  2.5623
 1205SOL    MW4 4588   5.466   5.280   4.338  0.1268  0.4943  0.3517
 1206SOL     OW 4589   5.732   3.563   4.748 -0.7573  0.0334 -0.0547
 1206SOL    HW2 4590   5.642   3.560   4.782 -0.6683  0.8696  0.2717
 1206SOL    HW3 4591   5.772   3.638   4.792  0.7325 -1.5166  1.3458
 1206SOL    MW4 4592   5.725   3.572   4.758 -0.5490 -0.0608  0.1732
 1207SOL     OW 4593   1.687   5.440   3.511  0.1449 -0.1545 -0.5567
 1207SOL    HW2 4594   1.625   5.368   3.504  0.7521 -1.0540  2.3176
 1207SOL    HW3 4595   1.772   5.398   3.516  0.6467  0.8515 -0.3723
 1207SOL    MW4 4596   1.690   5.425   3.510  0.2912 -0.1404 -0.1531
 1208SOL     OW 4597   5.900   1.278   6.204 -0.1202 -0.7152  0.2590
 1208SOL    HW2 4598   5.966   1.211   6.186  1.4748  0.7707  0.3338
 1208SOL    HW3 4599   5.838   1.270   6.132  1.3041 -0.7801 -1.0123
 1208SOL    MW4 4600   5.901   1.268   6.192  0.2782 -0.5277  0.1012
 1209SOL     OW 4601   4.561   0.105   1.473 -0.3768 -0.2586 -0.4118
 1209SOL    HW2 4602   4.567   0.115   1.568 -1.4012  1.5517 -0.5036
 1209SOL    HW3 4603   4.643   0.142   1.439 -1.1359  1.5365 -0.3519
 1209SOL    MW4 4604   4.573   0.111   1.481 -0.6121  0.2171 -0.4160
 1210SOL     OW 4605   4.598   5.541   1.946  0.2484 -0.6771 -0.5172
 1210SOL    HW2 4606   4.665   5.583   1.892 -0.6727 -0.3915 -1.4723
 1210SOL    HW3 4607   4.588   5.599   2.022 -1.2647  1.1119 -1.9935
 1210SOL    MW4 4608   4.606   5.554   1.949 -0.0727 -0.4034 -0.8380
 1211SOL     OW 4609   5.833   1.586   4.335  0.2830  0.1044 -0.2233
 1211SOL    HW2 4610   5.840   1.617   4.244  2.7168 -1.5998 -0.7195
 1211SOL    HW3 4611   5.852   1.663   4.388  0.1070  0.8309 -1.1854
 1211SOL    MW4 4612   5.836   1.600   4.330  0.5809 -0.0246 -0.4157
 1212SOL     OW 4613   2.008   5.984   5.351  0.6805  0.4695  0.0622
 1212SOL    HW2 4614   2.077   5.935   5.395 -0.3389  0.7153  2.0076
 1212SOL    HW3 4615   2.054   6.057   5.309  1.7533 -0.1321  0.1484
 1212SOL    MW4 4616   2.024   5.987   5.351  0.6875  0.4226  0.3302
 1213SOL     OW 4617   0.729   6.414   4.081 -0.1851  0.3473 -0.4794
 1213SOL    HW2 4618   0.824   6.410   4.069 -0.2005  0.0091 -0.4994
 1213SOL    HW3 4619   0.694   6.367   4.005 -0.3462 -0.0938 -0.1333
 1213SOL    MW4 4620   0.737   6.407   4.069 -0.2084  0.2445 -0.4363
 1214SOL     OW 4621   1.822   2.927   2.723  0.5278  0.2032  0.7943
 1214SOL    HW2 4622   1.744   2.917   2.778  1.2519  0.9199  1.9913
 1214SOL    HW3 4623   1.790   2.971   2.644 -0.6925 -1.6310  0.1960
 1214SOL    MW4 4624   1.807   2.932   2.720  0.4623  0.0558  0.8733
 1215SOL     OW 4625   0.668   2.002   5.979  0.5427  0.3139  0.1475
 1215SOL    HW2 4626   0.651   1.994   6.073  0.5766  1.5011  0.2726
 1215SOL    HW3 4627   0.587   2.038   5.943  1.0293  1.2761 -0.0314
 1215SOL    MW4 4628   0.655   2.005   5.987  0.6114  0.5975  0.1404
 1216SOL     OW 4629   3.735   4.592   4.486  0.2742  0.0140 -0.4964
 1216SOL    HW2 4630   3.693   4.530   4.546  1.5667 -0.4779 -0.0832
 1216SOL    HW3 4631   3.827   4.567   4.486  0.8499  2.0181 -0.2292
 1216SOL    MW4 4632   3.741   4.580   4.494  0.5207  0.2135 -0.4066
 1217SOL     OW 4633   4.060   3.752   0.531 -0.5707  0.6491  0.3247
 1217SOL    HW2 4634   3.973   3.788   0.513 -1.2629 -0.7000  0.8613
 1217SOL    HW3 4635   4.117   3.829   0.534 -1.9843  1.7283  1.3933
 1217SOL    MW4 4636   4.056   3.767   0.529 -0.8485  0.6135  0.5365
 1218SOL     OW 4637   3.603   5.354   0.247  0.0881 -0.0157  0.0376
 1218SOL    HW2 4638   3.698   5.361   0.235  0.1356  0.3913  0.6281
 1218SOL    HW3 4639   3.572   5.315   0.166  0.9117 -1.3824  0.3516
 1218SOL    MW4 4640   3.611   5.350   0.235  0.2030 -0.1423  0.1569
 1219SOL     OW 4641   1.016   3.653   3.005  0.7645 -0.2258 -0.2932
 1219SOL    HW2 4642   1.016   3.749   2.998  0.2622 -0.3022 -1.9140
 1219SOL    HW3 4643   0.935   3.632   3.051  0.7320  0.1231 -0.1916
 1219SOL    MW4 4644   1.005   3.663   3.010  0.6939 -0.1898 -0.4936
 1220SOL     OW 4645   4.553   1.741   4.449 -0.1950  0.4251  0.1893
 1220SOL    HW2 4646   4.643   1.746   4.480 -0.5414  0.6908  1.1894
 1220SOL    HW3 4647   4.522   1.832   4.450 -0.5993  0.2887  0.2413
 1220SOL    MW4 4648   4.561   1.754   4.453 -0.2940  0.4422  0.3281
 1221SOL     OW 4649   4.193   1.812   5.379  0.0070  0.0192  0.3941
 1221SOL    HW2 4650   4.156   1.738   5.330 -1.1085  1.7880 -1.6314
 1221SOL    HW3 4651   4.117   1.867   5.399  0.9558  1.3146  0.5455
 1221SOL    MW4 4652   4.178   1.810   5.375 -0.0150  0.4235  0.1469
 1222SOL     OW 4653   0.113   5.086   4.093 -0.2521 -0.1489 -0.1627
 1222SOL    HW2 4654   0.194   5.125   4.061 -0.2384 -0.6319 -0.7263
 1222SOL    HW3 4655   0.120   5.091   4.188  0.8522 -0.9925 -0.1719
 1222SOL    MW4 4656   0.125   5.092   4.101 -0.1046 -0.3240 -0.2383
 1223SOL     OW 4657   5.308   1.954   1.505 -0.1744 -0.1863  0.0400
 1223SOL    HW2 4658   5.326   2.044   1.530  0.5265 -0.6097  1.1638
 1223SOL    HW3 4659   5.234   1.959   1.444 -1.1742  1.0293  1.3019
 1223SOL    MW4 4660   5.300   1.966   1.500 -0.2138 -0.0818  0.3548
 1224SOL     OW 4661   0.943   1.488   5.220  0.1786  0.4179  0.7600
 1224SOL    HW2 4662   1.015   1.447   5.173 -0.1838  2.4499 -1.7944
 1224SOL    HW3 4663   0.975   1.576   5.241 -1.5946  1.5138 -0.7892
 1224SOL    MW4 4664   0.957   1.495   5.216 -0.1031  0.8306  0.2186
 1225SOL     OW 4665   1.620   5.926   1.671  0.3979  0.3401  0.0963
 1225SOL    HW2 4666   1.635   5.962   1.759  0.9255  0.1283  0.0971
 1225SOL    HW3 4667   1.634   5.832   1.681  0.5537  0.3282 -0.2335
 1225SOL    MW4 4668   1.624   5.919   1.684  0.4881  0.3106  0.0529
 1226SOL     OW 4669   1.205   4.715   4.603 -0.2201  0.2259  0.1200
 1226SOL    HW2 4670   1.226   4.679   4.517 -1.1754  2.5374 -1.1613
 1226SOL    HW3 4671   1.205   4.639   4.662  1.1108 -1.3088 -1.7721
 1226SOL    MW4 4672   1.208   4.700   4.600 -0.1706  0.3284 -0.2987
 1227SOL     OW 4673   2.531   1.756   1.428 -0.2859  0.2304 -0.0199
 1227SOL    HW2 4674   2.510   1.736   1.519 -0.6034  0.2084 -0.0968
 1227SOL    HW3 4675   2.498   1.680   1.379  1.7988 -0.7989  0.0557
 1227SOL    MW4 4676   2.524   1.743   1.433 -0.0528  0.0917 -0.0201
 1228SOL     OW 4677   0.281   4.272   0.422 -0.2843  0.3164 -0.2135
 1228SOL    HW2 4678   0.307   4.180   0.418  0.6279  0.5832 -0.7374
 1228SOL    HW3 4679   0.197   4.276   0.377 -0.8795 -0.4382  0.7881
 1228SOL    MW4 4680   0.274   4.260   0.416 -0.2425  0.2520 -0.1505
 1229SOL     OW 4681   4.196   1.940   4.764  0.6991  0.0820 -0.0820
 1229SOL    HW2 4682   4.158   1.889   4.836  0.6953 -0.4753 -0.4691
 1229SOL    HW3 4683   4.249   1.877   4.716  0.2731  0.3181 -0.8789
 1229SOL    MW4 4684   4.198   1.925   4.767  0.6424  0.0396 -0.2382
 1230SOL     OW 4685   3.224   2.563   5.904 -0.6433  0.0316 -0.3725
 1230SOL    HW2 4686   3.189   2.524   5.984  1.0444  0.2133  0.4869
 1230SOL    HW3 4687   3.185   2.511   5.833  0.0967 -2.0688  0.6691
 1230SOL    MW4 4688   3.214   2.551   5.905 -0.3230 -0.2216 -0.1217
 1231SOL     OW 4689   1.234   2.779   3.101 -0.3311 -0.6239 -0.2955
 1231SOL    HW2 4690   1.218   2.796   3.008 -0.0491 -2.6628 -0.7610
 1231SOL    HW3 4691   1.152   2.804   3.144 -1.2519 -1.6512 -1.3824
 1231SOL    MW4 4692   1.221   2.785   3.095 -0.4154 -1.0285 -0.5003
 1232SOL     OW 4693   5.977   4.935   5.312 -0.3740  0.1726 -0.5856
 1232SOL    HW2 4694   5.978   4.847   5.275 -1.1495  0.6226 -1.7266
 1232SOL    HW3 4695   5.930   4.988   5.248  0.4330  1.5182 -0.1127
 1232SOL    MW4 4696   5.971   4.931   5.299 -0.3699  0.4095 -0.6737
 1233SOL     OW 4697   5.965   4.786   0.530 -0.2334 -0.2270  0.3290
 1233SOL    HW2 4698   5.978   4.855   0.465  1.2377 -1.2380 -0.5327
 1233SOL    HW3 4699   5.887   4.739   0.501 -0.7132  0.4995  0.4143
 1233SOL    MW4 4700   5.957   4.789   0.517 -0.1026 -0.2646  0.2266
 1234SOL     OW 4701   5.184   4.977   1.143  0.7579 -0.5014 -0.0636
 1234SOL    HW2 4702   5.133   5.044   1.097  0.2597  0.3019  1.6004
 1234SOL    HW3 4703   5.265   4.970   1.092  0.0537  0.0461 -1.3021
 1234SOL    MW4 4704   5.188   4.985   1.130  0.5993 -0.3232 -0.0075
 1235SOL     OW 4705   6.397   1.610   1.741  0.0768  0.0098  0.7056
 1235SOL    HW2 4706   6.477   1.558   1.748  0.3035  0.2479 -0.0543
 1235SOL    HW3 4707   6.330   1.547   1.713  0.3891  0.1586 -0.3831
 1235SOL    MW4 4708   6.399   1.594   1.738  0.1479  0.0608  0.4617
 1236SOL     OW 4709   3.015   2.748   6.052  0.2870 -0.3786 -0.2284
 1236SOL    HW2 4710   3.084   2.791   6.001 -1.0509 -0.2869 -2.0508
 1236SOL    HW3 4711   3.005   2.803   6.130  0.5086  1.0569 -1.1805
 1236SOL    MW4 4712   3.023   2.761   6.056  0.1398 -0.1771 -0.5945
 1237SOL     OW 4713   6.020   5.494   0.461  0.6164 -0.1910  0.0462
 1237SOL    HW2 4714   5.962   5.548   0.408  1.4997  0.7872  0.0275
 1237SOL    HW3 4715   6.086   5.461   0.399  0.5580 -0.6192  0.2057
 1237SOL    MW4 4716   6.021   5.497   0.446  0.7252 -0.1184  0.0648
 1238SOL     OW 4717   1.385   4.900   4.524  0.0883 -0.3754 -0.0388
 1238SOL    HW2 4718   1.328   4.833   4.562 -0.3163 -0.8711 -1.4700
 1238SOL    HW3 4719   1.326   4.973   4.506  0.7232  0.9344  2.6420
 1238SOL    MW4 4720   1.370   4.901   4.526  0.1187 -0.2680  0.1261
 1239SOL     OW 4721   0.854   2.054   5.729  1.0083 -0.0019  0.9915
 1239SOL    HW2 4722   0.817   2.081   5.813  0.8331 -1.2325  1.3270
 1239SOL    HW3 4723   0.937   2.012   5.751  0.8892 -0.4721  0.5653
 1239SOL    MW4 4724   0.860   2.052   5.743  0.9694 -0.2263  0.9796
 1240SOL     OW 4725   2.431   0.607   0.790  0.3011 -0.2703 -0.1725
 1240SOL    HW2 4726   2.503   0.623   0.728 -0.4663  0.4192 -0.9187
 1240SOL    HW3 4727   2.459   0.651   0.870  0.6963  0.0443 -0.4733
 1240SOL    MW4 4728   2.444   0.615   0.792  0.2520 -0.1378 -0.3106
 1241SOL     OW 4729   2.511   2.870   5.124  0.2384  0.7899  0.1431
 1241SOL    HW2 4730   2.484   2.962   5.118  0.4864  0.8343 -0.2990
 1241SOL    HW3 4731   2.591   2.865   5.072 -1.4949 -0.3762 -2.6264
 1241SOL    MW4 4732   2.518   2.882   5.116  0.0425  0.6419 -0.2806
 1242SOL     OW 4733   2.892   2.594   2.412  0.5786 -0.6672  0.5068
 1242SOL    HW2 4734   2.885   2.568   2.503 -1.4743  1.4860  1.0606
 1242SOL    HW3 4735   2.915   2.687   2.415  0.6629 -0.5958 -1.1609
 1242SOL    MW4 4736   2.894   2.603   2.424  0.3189 -0.3737  0.3599
 1243SOL     OW 4737   0.185   2.508   2.319  0.0890 -0.4892 -0.2358
 1243SOL    HW2 4738   0.222   2.583   2.367  0.5438 -0.5941 -0.4170
 1243SOL    HW3 4739   0.253   2.484   2.256 -1.2318  0.9098 -2.3535
 1243SOL    MW4 4740   0.199   2.515   2.317 -0.0253 -0.3185 -0.5391
 1244SOL     OW 4741   0.999   5.823   5.275 -0.0366 -0.1906 -0.5142
 1244SOL    HW2 4742   1.072   5.870   5.315 -0.8861  1.6992 -1.0640
 1244SOL    HW3 4743   0.938   5.808   5.347 -0.0850  0.2166 -0.4679
 1244SOL    MW4 4744   1.001   5.827   5.290 -0.1551  0.1124 -0.5806
 1245SOL     OW 4745   0.632   4.641   3.814  0.3727 -0.3803  0.1022
 1245SOL    HW2 4746   0.700   4.614   3.753 -0.0266  1.0406 -1.0213
 1245SOL    HW3 4747   0.672   4.710   3.866  0.0295 -0.0525 -0.0624
 1245SOL    MW4 4748   0.646   4.646   3.813  0.2748 -0.1496 -0.0678
 1246SOL     OW 4749   0.854   1.133   6.247  0.3767  0.0844  0.4250
 1246SOL    HW2 4750   0.891   1.208   6.292 -0.6137  1.2863 -0.6664
 1246SOL    HW3 4751   0.766   1.162   6.221 -0.6075 -1.9781  1.2678
 1246SOL    MW4 4752   0.847   1.147   6.249  0.1161 -0.0291  0.3922
 1247SOL     OW 4753   2.675   1.386   4.119  0.1471  0.0259  0.5776
 1247SOL    HW2 4754   2.639   1.419   4.037 -0.6844 -1.1946  0.4297
 1247SOL    HW3 4755   2.766   1.415   4.119 -0.6491  2.7598  0.7383
 1247SOL    MW4 4756   2.683   1.394   4.108 -0.0676  0.2256  0.5793
 1248SOL     OW 4757   5.035   0.180   3.345 -0.3410  0.2768 -0.9757
 1248SOL    HW2 4758   4.991   0.261   3.372  1.0517  0.9351 -0.6302
 1248SOL    HW3 4759   4.981   0.148   3.272 -1.0391  1.3859 -0.9753
 1248SOL    MW4 4760   5.022   0.186   3.339 -0.2493  0.5100 -0.9301
 1249SOL     OW 4761   1.784   4.589   2.416 -0.0302 -0.0167 -0.0439
 1249SOL    HW2 4762   1.750   4.580   2.505  0.2327  1.2839  0.2083
 1249SOL    HW3 4763   1.706   4.605   2.363 -0.3068 -1.8173 -0.2389
 1249SOL    MW4 4764   1.769   4.590   2.421 -0.0320 -0.0827 -0.0364
 1250SOL     OW 4765   5.898   3.875   4.553 -0.3855  0.4010 -0.3715
 1250SOL    HW2 4766   5.969   3.855   4.492  0.1402 -0.8862  0.6228
 1250SOL    HW3 4767   5.877   3.967   4.536  1.5900  0.8578 -0.6151
 1250SOL    MW4 4768   5.904   3.884   4.543 -0.0555  0.2914 -0.2724
 1251SOL     OW 4769   3.627   3.028   5.416  0.1651 -0.0787  0.6306
 1251SOL    HW2 4770   3.671   3.076   5.486  2.7562 -3.3221  1.4906
 1251SOL    HW3 4771   3.536   3.022   5.445  0.0366  2.9214  1.1283
 1251SOL    MW4 4772   3.621   3.033   5.429  0.4900 -0.1108  0.8097
 1252SOL     OW 4773   3.111   1.573   4.352 -0.5759  0.0019  0.1727
 1252SOL    HW2 4774   3.137   1.481   4.355  0.0372  0.1836  1.6506
 1252SOL    HW3 4775   3.141   1.604   4.267  1.9324 -0.4396  0.8112
 1252SOL    MW4 4776   3.118   1.565   4.341 -0.1641 -0.0324  0.4519
 1253SOL     OW 4777   0.266   1.870   5.302 -0.5701 -0.1338  0.5816
 1253SOL    HW2 4778   0.289   1.782   5.332  0.3896  0.0602  0.4545
 1253SOL    HW3 4779   0.208   1.905   5.370  0.6890 -0.1058  1.6797
 1253SOL    MW4 4780   0.261   1.863   5.315 -0.2774 -0.1045  0.7097
 1254SOL     OW 4781   3.657   1.320   5.108  0.1946 -0.2552 -0.1641
 1254SOL    HW2 4782   3.643   1.384   5.038  1.0485 -0.8610 -0.9085
 1254SOL    HW3 4783   3.750   1.328   5.128  0.2189 -0.9826  0.0194
 1254SOL    MW4 4784   3.667   1.330   5.101  0.3104 -0.4311 -0.2381
 1255SOL     OW 4785   1.153   0.553   3.049 -0.2301 -0.3434  0.1698
 1255SOL    HW2 4786   1.150   0.639   3.091  1.3591 -0.3323  0.3095
 1255SOL    HW3 4787   1.061   0.532   3.033 -0.6763  1.2080  0.4694
 1255SOL    MW4 4788   1.140   0.562   3.053 -0.0793 -0.1372  0.2278
 1256SOL     OW 4789   4.937   0.216   2.291  0.1366  0.3266  0.0377
 1256SOL    HW2 4790   4.896   0.287   2.341 -0.3195 -0.4964  0.8492
 1256SOL    HW3 4791   4.896   0.136   2.323 -0.1454 -0.2490 -1.6276
 1256SOL    MW4 4792   4.926   0.215   2.302  0.0393  0.1421 -0.0749
 1257SOL     OW 4793   0.122   4.594   6.093  0.0997  0.0606 -0.3992
 1257SOL    HW2 4794   0.080   4.646   6.025 -0.8818  0.9024  0.7914
 1257SOL    HW3 4795   0.067   4.516   6.103  0.2596 -0.0770 -0.5864
 1257SOL    MW4 4796   0.109   4.591   6.086 -0.0087  0.1535 -0.2668
 1258SOL     OW 4797   6.442   5.788   2.570  0.0161  0.3742 -0.2179
 1258SOL    HW2 4798   6.422   5.861   2.628  0.3028  0.6716 -0.4883
 1258SOL    HW3 4799   6.393   5.807   2.490 -1.0199 -0.4406  0.1970
 1258SOL    MW4 4800   6.433   5.800   2.567 -0.0827  0.3059 -0.1988
 1259SOL     OW 4801   0.675   3.778   2.501 -0.4939  0.4037  0.2650
 1259SOL    HW2 4802   0.704   3.762   2.590 -1.7999  1.6166  0.9445
 1259SOL    HW3 4803   0.690   3.695   2.455  2.1700  0.3920  1.0134
 1259SOL    MW4 4804   0.680   3.765   2.506 -0.3147  0.5622  0.4534
 1260SOL     OW 4805   2.886   2.746   3.231  0.2371  0.0364  0.5127
 1260SOL    HW2 4806   2.838   2.697   3.298  0.0717 -0.1745  0.2374
 1260SOL    HW3 4807   2.915   2.825   3.277  0.6767 -0.4019  1.0148
 1260SOL    MW4 4808   2.884   2.750   3.246  0.2733 -0.0492  0.5426
 1261SOL     OW 4809   5.736   3.281   5.415  0.0088  0.1150 -0.1176
 1261SOL    HW2 4810   5.795   3.347   5.380  0.3374 -0.1863 -0.1413
 1261SOL    HW3 4811   5.655   3.328   5.434 -0.1253  0.3063 -1.1437
 1261SOL    MW4 4812   5.733   3.296   5.413  0.0345  0.1005 -0.2561
 1262SOL     OW 4813   5.931   2.449   6.286  0.1976 -0.5836 -0.7342
 1262SOL    HW2 4814   5.942   2.541   6.260 -1.1099 -0.5453 -1.2188
 1262SOL    HW3 4815   5.895   2.453   6.374 -0.7870 -0.5890 -1.1196
 1262SOL    MW4 4816   5.928   2.462   6.294 -0.1048 -0.5793 -0.8490
 1263SOL     OW 4817   0.524   4.969   4.187 -0.0296 -0.0767  0.1547
 1263SOL    HW2 4818   0.591   4.913   4.148 -0.0364  0.4728 -0.6740
 1263SOL    HW3 4819   0.570   5.016   4.257 -0.2061 -1.6355  1.3547
 1263SOL    MW4 4820   0.539   4.968   4.191 -0.0538 -0.2099  0.2037
 1264SOL     OW 4821   4.647   5.900   1.672 -0.4415  0.1406 -0.1040
 1264SOL    HW2 4822   4.705   5.944   1.733 -1.1922  2.1002 -0.7340
 1264SOL    HW3 4823   4.571   5.875   1.725 -0.1688 -0.0643  0.1890
 1264SOL    MW4 4824   4.645   5.902   1.687 -0.5046  0.3721 -0.1485
 1265SOL     OW 4825   5.411   2.002   2.756 -0.5597 -0.0788  0.4567
 1265SOL    HW2 4826   5.496   2.041   2.733 -1.4061  1.0278 -0.9599
 1265SOL    HW3 4827   5.414   1.914   2.718  0.3726 -0.4663  1.3998
 1265SOL    MW4 4828   5.423   1.996   2.748 -0.5484  0.0161  0.3942
 1266SOL     OW 4829   0.303   0.811   3.902 -0.2166 -0.9605 -0.2546
 1266SOL    HW2 4830   0.226   0.867   3.914  0.5416  0.3179 -1.1185
 1266SOL    HW3 4831   0.284   0.733   3.953 -0.4080  0.9380  2.8300
 1266SOL    MW4 4832   0.290   0.808   3.910 -0.1418 -0.5413  0.0384
 1267SOL     OW 4833   3.320   5.028   6.317  0.3825 -0.0528 -0.1422
 1267SOL    HW2 4834   3.332   5.027   6.222 -1.9546 -1.2916 -0.5003
 1267SOL    HW3 4835   3.252   4.963   6.333  2.0627 -1.2980  2.6159
 1267SOL    MW4 4836   3.313   5.019   6.306  0.2958 -0.3805  0.1745
 1268SOL     OW 4837   5.139   3.938   3.003  0.0987  0.2703  0.1360
 1268SOL    HW2 4838   5.085   3.995   3.058 -0.0592 -0.1317  0.4037
 1268SOL    HW3 4839   5.204   3.996   2.964 -1.0066  0.9001 -0.8253
 1268SOL    MW4 4840   5.140   3.953   3.005 -0.0680  0.3004  0.0445
 1269SOL     OW 4841   0.254   0.484   0.843  0.9266 -0.4681 -0.5215
 1269SOL    HW2 4842   0.310   0.526   0.908  0.0220  1.5283 -0.9571
 1269SOL    HW3 4843   0.306   0.483   0.763  0.4012  1.4199 -0.9349
 1269SOL    MW4 4844   0.268   0.490   0.841  0.7379  0.0444 -0.6335
 1270SOL     OW 4845   0.042   2.373   1.070 -0.1998  0.0940 -0.2931
 1270SOL    HW2 4846   0.129   2.360   1.107 -0.0819  0.1337 -0.5539
 1270SOL    HW3 4847  -0.015   2.382   1.146  0.1211  0.7030 -0.1155
 1270SOL    MW4 4848   0.046   2.373   1.085 -0.1419  0.1796 -0.3041
 1271SOL     OW 4849   0.775   2.114   0.150  0.6765 -0.2778 -0.3859
 1271SOL    HW2 4850   0.763   2.024   0.120  0.8470 -0.6466  0.6226
 1271SOL    HW3 4851   0.783   2.107   0.245 -0.2520  0.8914 -0.1931
 1271SOL    MW4 4852   0.774   2.101   0.159  0.5765 -0.1722 -0.2274
 1272SOL     OW 4853   0.084   6.236   3.812 -0.3656 -0.1613  0.8937
 1272SOL    HW2 4854   0.004   6.214   3.766  0.6235 -1.0997 -0.4412
 1272SOL    HW3 4855   0.135   6.286   3.749  0.9197 -1.2664  1.0170
 1272SOL    MW4 4856   0.080   6.240   3.798 -0.0656 -0.4309  0.7339
 1273SOL     OW 4857   5.137   1.631   2.261  0.6380 -0.1121  0.4079
 1273SOL    HW2 4858   5.221   1.653   2.223  0.0365  0.4733 -0.6231
 1273SOL    HW3 4859   5.108   1.553   2.214  0.1073  0.3416 -0.0432
 1273SOL    MW4 4860   5.144   1.624   2.250  0.4886  0.0250  0.2124
 1274SOL     OW 4861   4.808   0.492   2.123  0.0851  0.3297 -0.0340
 1274SOL    HW2 4862   4.858   0.574   2.127 -1.0146  1.1144 -1.3558
 1274SOL    HW3 4863   4.749   0.504   2.049 -0.8992 -1.2303  0.4550
 1274SOL    MW4 4864   4.807   0.504   2.114 -0.1899  0.2274 -0.1439
 1275SOL     OW 4865   1.628   4.748   5.875  0.4973  0.2809 -0.1330
 1275SOL    HW2 4866   1.673   4.812   5.819  1.5664 -1.1591 -0.9971
 1275SOL    HW3 4867   1.679   4.668   5.865 -2.5101 -1.6564 -1.5812
 1275SOL    MW4 4868   1.641   4.746   5.866  0.2415 -0.1647 -0.4381
 1276SOL     OW 4869   2.817   0.675   0.864 -0.8010  0.5735 -0.4103
 1276SOL    HW2 4870   2.791   0.699   0.953 -2.4615 -2.1506 -0.0202
 1276SOL    HW3 4871   2.779   0.743   0.808 -0.9166  1.5892  0.8582
 1276SOL    MW4 4872   2.808   0.687   0.868 -1.0354  0.3481 -0.1914
 1277SOL     OW 4873   1.383   5.077   4.944  0.4363  0.6221 -0.1770
 1277SOL    HW2 4874   1.317   5.104   4.880 -0.2068 -0.1894  0.1339
 1277SOL    HW3 4875   1.339   5.013   5.000  1.4865  0.0595  0.0393
 1277SOL    MW4 4876   1.368   5.072   4.943  0.4900  0.4408 -0.1074
 1278SOL     OW 4877   4.267   1.259   1.666 -0.3877  0.1958 -0.2396
 1278SOL    HW2 4878   4.292   1.168   1.683  1.0005  0.4305 -0.9194
 1278SOL    HW3 4879   4.276   1.303   1.751 -0.1927 -0.1105 -0.1006
 1278SOL    MW4 4880   4.272   1.253   1.679 -0.1788  0.1863 -0.3110
 1279SOL     OW 4881   5.515   6.240   0.238  0.4854  0.3228 -0.4286
 1279SOL    HW2 4882   5.495   6.164   0.183  1.2575 -1.8038  2.0113
 1279SOL    HW3 4883   5.526   6.203   0.326 -0.8465  3.5303  1.2445
 1279SOL    MW4 4884   5.514   6.225   0.242  0.4115  0.4654  0.1141
 1280SOL     OW 4885   2.736   5.445   0.824 -0.6324 -0.0915 -0.5169
 1280SOL    HW2 4886   2.753   5.484   0.910 -0.6069 -0.8676 -0.1602
 1280SOL    HW3 4887   2.796   5.490   0.765  0.7474 -0.8799  0.2247
 1280SOL    MW4 4888   2.746   5.456   0.828 -0.4470 -0.2979 -0.3720
 1281SOL     OW 4889   3.558   5.298   3.873 -0.1130 -0.0828 -0.4222
 1281SOL    HW2 4890   3.594   5.211   3.857  0.1397 -0.3441  1.4303
 1281SOL    HW3 4891   3.633   5.351   3.899 -0.4122  0.4586 -0.6438
 1281SOL    MW4 4892   3.573   5.294   3.874 -0.1191 -0.0459 -0.2071
 1282SOL     OW 4893   2.358   4.828   1.757 -0.7550  0.0100 -0.1639
 1282SOL    HW2 4894   2.407   4.909   1.772 -3.5940  1.7450  0.5886
 1282SOL    HW3 4895   2.308   4.845   1.677  0.4543 -2.0565 -1.4460
 1282SOL    MW4 4896   2.358   4.841   1.748 -0.9700 -0.0337 -0.2338
 1283SOL     OW 4897   2.938   1.513   5.960  0.0605  0.2058 -0.4646
 1283SOL    HW2 4898   2.952   1.456   5.884  0.4518  0.3824 -0.5282
 1283SOL    HW3 4899   3.008   1.578   5.954 -1.0768  1.4244 -1.0680
 1283SOL    MW4 4900   2.949   1.514   5.949 -0.0379  0.3899 -0.5526
 1284SOL     OW 4901   1.742   0.336   5.723  0.4560  0.9324  0.5157
 1284SOL    HW2 4902   1.661   0.362   5.767 -0.2468  1.2487 -0.9339
 1284SOL    HW3 4903   1.747   0.241   5.735 -0.5026  0.8143  0.0109
 1284SOL    MW4 4904   1.732   0.327   5.731  0.2368  0.9585  0.2579
 1285SOL     OW 4905   5.423   5.126   2.279  0.8596  0.4449  0.2867
 1285SOL    HW2 4906   5.390   5.049   2.231  0.9374  0.0057  0.9244
 1285SOL    HW3 4907   5.510   5.099   2.310  1.5856  1.3786 -0.8675
 1285SOL    MW4 4908   5.430   5.112   2.277  0.9657  0.5102  0.2186
 1286SOL     OW 4909   4.523   5.454   5.100  0.3386 -0.4503 -0.4581
 1286SOL    HW2 4910   4.556   5.376   5.054  0.6813 -0.8568  0.4440
 1286SOL    HW3 4911   4.598   5.513   5.103  0.4293 -0.5816 -0.0947
 1286SOL    MW4 4912   4.538   5.451   5.094  0.3958 -0.5212 -0.2911
 1287SOL     OW 4913   5.118   4.390   3.137  0.3317  0.2483  0.5738
 1287SOL    HW2 4914   5.209   4.360   3.145  0.3103 -0.0937 -0.2733
 1287SOL    HW3 4915   5.091   4.359   3.050 -0.8500 -0.3626  1.1277
 1287SOL    MW4 4916   5.126   4.382   3.126  0.1730  0.1226  0.5351
 1288SOL     OW 4917   1.238   5.436   4.735 -0.0664 -0.4130  0.2896
 1288SOL    HW2 4918   1.172   5.496   4.701  0.4786 -0.2906 -0.5803
 1288SOL    HW3 4919   1.189   5.356   4.756 -0.6450  0.0199  0.6034
 1288SOL    MW4 4920   1.223   5.433   4.733 -0.0708 -0.3397  0.2162
 1289SOL     OW 4921   0.128   3.428   3.157 -0.5271 -0.1514 -0.0888
 1289SOL    HW2 4922   0.139   3.516   3.192  0.0340 -0.3228  0.1713
 1289SOL    HW3 4923   0.199   3.377   3.196 -1.6922 -1.0687  0.9059
 1289SOL    MW4 4924   0.139   3.433   3.167 -0.6068 -0.2951  0.0767
 1290SOL     OW 4925   4.134   4.011   4.394 -0.4103  0.2241 -0.2476
 1290SOL    HW2 4926   4.151   4.095   4.350 -0.4415  0.8132  0.8333
 1290SOL    HW3 4927   4.179   3.946   4.340 -0.5163  0.9088 -1.1886
 1290SOL    MW4 4928   4.142   4.014   4.381 -0.4284  0.3922 -0.2291
 1291SOL     OW 4929   5.868   5.059   5.083 -0.5344  0.6283 -0.0400
 1291SOL    HW2 4930   5.863   5.149   5.054 -0.8127  0.8426  0.6483
 1291SOL    HW3 4931   5.777   5.030   5.088 -0.4095 -0.0556 -1.3347
 1291SOL    MW4 4932   5.855   5.067   5.080 -0.5547  0.5664 -0.1200
 1292SOL     OW 4933   1.517   4.593   0.138 -0.0209 -0.5801  0.3101
 1292SOL    HW2 4934   1.612   4.603   0.141 -0.0594 -0.2026  0.4074
 1292SOL    HW3 4935   1.485   4.656   0.203 -0.4170  0.5268 -0.9013
 1292SOL    MW4 4936   1.525   4.603   0.147 -0.0782 -0.3842  0.1631
 1293SOL     OW 4937   3.948   1.961   3.959  0.5586 -0.5907 -0.0175
 1293SOL    HW2 4938   4.012   1.894   3.984 -0.1581 -1.4984 -0.5578
 1293SOL    HW3 4939   3.920   1.936   3.871  0.1604  0.3402 -0.1694
 1293SOL    MW4 4940   3.953   1.949   3.950  0.4115 -0.5876 -0.1089
 1294SOL     OW 4941   6.200   4.683   1.845  0.0873 -0.0554  0.1676
 1294SOL    HW2 4942   6.223   4.601   1.890  0.9010  0.5254  0.8466
 1294SOL    HW3 4943   6.135   4.724   1.902  1.0420  0.6320  0.8082
 1294SOL    MW4 4944   6.195   4.678   1.859  0.3206  0.1119  0.3417
 1295SOL     OW 4945   5.678   0.163   0.968 -0.2816 -0.3709  0.3821
 1295SOL    HW2 4946   5.664   0.141   0.876 -0.8033 -1.3282  0.6698
 1295SOL    HW3 4947   5.770   0.141   0.984  0.4427  1.8382 -0.4255
 1295SOL    MW4 4948   5.688   0.157   0.958 -0.2549 -0.2057  0.3135
 1296SOL     OW 4949   0.063   3.403   3.641  0.2724  0.2537  0.0777
 1296SOL    HW2 4950   0.010   3.391   3.562  3.2470 -0.3105 -2.0068
 1296SOL    HW3 4951   0.055   3.321   3.689 -0.6709  0.1786 -0.2018
 1296SOL    MW4 4952   0.055   3.391   3.637  0.5404  0.1693 -0.2342
 1297SOL     OW 4953   5.347   4.754   6.221 -0.5508  0.1485 -0.0687
 1297SOL    HW2 4954   5.330   4.778   6.130  1.4114  0.3377 -0.4252
 1297SOL    HW3 4955   5.321   4.832   6.272 -2.1721 -0.1540 -0.3563
 1297SOL    MW4 4956   5.341   4.768   6.216 -0.5058  0.1335 -0.1537
 1298SOL     OW 4957   6.347   4.561   2.734  0.3187  0.1930  0.3858
 1298SOL    HW2 4958   6.270   4.573   2.789  0.4502 -1.5481  1.0156
 1298SOL    HW3 4959   6.342   4.631   2.669 -0.9959  0.9839  1.3065
 1298SOL    MW4 4960   6.337   4.572   2.733  0.1626  0.0677  0.5903
 1299SOL     OW 4961   5.116   1.832   1.913  0.2058 -0.2959  0.0644
 1299SOL    HW2 4962   5.094   1.876   1.996 -0.4543 -2.2534  1.0157
 1299SOL    HW3 4963   5.211   1.837   1.908  0.2149  0.3697  0.6416
 1299SOL    MW4 4964   5.125   1.838   1.924  0.1199 -0.4664  0.2661
 1300SOL     OW 4965   0.130   2.420   3.100 -0.5107 -0.1856 -0.0062
 1300SOL    HW2 4966   0.150   2.428   3.193  0.4068  2.0329 -0.3223
 1300SOL    HW3 4967   0.042   2.383   3.097 -1.0431  0.8385  1.7811
 1300SOL    MW4 4968   0.121   2.416   3.112 -0.4599  0.2422  0.1879
 1301SOL     OW 4969   6.413   0.158   2.337 -0.4626 -0.6255 -0.4692
 1301SOL    HW2 4970   6.402   0.180   2.430 -0.3428  1.6054 -0.9281
 1301SOL    HW3 4971   6.493   0.204   2.311  1.0945 -3.4926 -1.0716
 1301SOL    MW4 4972   6.422   0.167   2.346 -0.2414 -0.7094 -0.6093
 1302SOL     OW 4973   0.910   3.989   0.682 -1.2333  0.2312 -0.3072
 1302SOL    HW2 4974   0.919   3.918   0.617 -0.9067  0.2934 -0.3351
 1302SOL    HW3 4975   0.882   3.944   0.762  1.5561 -0.3836  0.4626
 1302SOL    MW4 4976   0.908   3.974   0.684 -0.8221  0.1583 -0.2093
 1303SOL     OW 4977   4.766   0.183   1.930  0.3203 -0.5042 -0.2210
 1303SOL    HW2 4978   4.850   0.145   1.955  0.0375 -0.8215  0.2779
 1303SOL    HW3 4979   4.726   0.209   2.013 -0.1330 -0.4839 -0.4432
 1303SOL    MW4 4980   4.771   0.181   1.944  0.2232 -0.5434 -0.1845
 1304SOL     OW 4981   0.579   3.853   4.867  0.7391 -0.3308  0.6397
 1304SOL    HW2 4982   0.484   3.842   4.864  0.8641 -1.2839 -1.4354
 1304SOL    HW3 4983   0.592   3.948   4.864 -0.1479 -0.2194 -0.7580
 1304SOL    MW4 4984   0.568   3.864   4.866  0.6386 -0.4418  0.1815
 1305SOL     OW 4985   3.604   1.607   6.412  0.1026  0.4815 -0.5318
 1305SOL    HW2 4986   3.580   1.695   6.441 -0.0531  0.2549  0.0471
 1305SOL    HW3 4987   3.541   1.587   6.343  0.3835  0.9709 -0.9407
 1305SOL    MW4 4988   3.592   1.616   6.407  0.1191  0.5162 -0.5094
 1306SOL     OW 4989   1.665   3.337   5.484 -0.4796 -0.5607 -0.5309
 1306SOL    HW2 4990   1.685   3.295   5.400  2.3512 -0.8398  0.1834
 1306SOL    HW3 4991   1.633   3.266   5.540 -0.4263 -0.7795 -0.7783
 1306SOL    MW4 4992   1.663   3.322   5.480 -0.0991 -0.6264 -0.4693
 1307SOL     OW 4993   5.243   1.345   4.001 -0.1895  0.0118  0.2069
 1307SOL    HW2 4994   5.196   1.262   3.997  1.6586 -1.1820  1.8058
 1307SOL    HW3 4995   5.335   1.321   4.006  0.3352  1.9999  2.7777
 1307SOL    MW4 4996   5.249   1.331   4.001  0.1235  0.1166  0.7570
 1308SOL     OW 4997   4.985   4.086   3.180 -0.0816 -0.3521 -0.2303
 1308SOL    HW2 4998   4.941   4.168   3.160  2.3941  0.6259 -2.3100
 1308SOL    HW3 4999   4.916   4.019   3.173 -1.8289  1.3628 -0.0756
 1308SOL    MW4 5000   4.970   4.088   3.176  0.0145  0.0032 -0.4843
 1309SOL     OW 5001   0.584   6.183   5.981 -0.1701  0.5762 -0.9360
 1309SOL    HW2 5002   0.672   6.146   5.978 -0.3103  0.2827 -1.6968
 1309SOL    HW3 5003   0.579   6.240   5.904 -0.8436  0.1137 -1.2457
 1309SOL    MW4 5004   0.595   6.186   5.971 -0.2775  0.4764 -1.0772
 1310SOL     OW 5005   6.466   4.141   2.775 -0.3606  0.1298  0.0994
 1310SOL    HW2 5006   6.481   4.210   2.840  2.6304  0.0709 -0.3678
 1310SOL    HW3 5007   6.436   4.188   2.697  1.5112  0.9707 -0.1687
 1310SOL    MW4 5008   6.464   4.157   2.773  0.2810  0.2330  0.0023
 1311SOL     OW 5009   1.236   1.309   2.280  0.1345  0.2971 -0.0930
 1311SOL    HW2 5010   1.154   1.328   2.327 -0.3349 -1.8349  0.0729
 1311SOL    HW3 5011   1.217   1.330   2.189  0.0153  1.5043  0.1898
 1311SOL    MW4 5012   1.223   1.314   2.274  0.0568  0.1751 -0.0338
 1312SOL     OW 5013   5.361   0.920   4.871 -0.1636  0.2195  0.1237
 1312SOL    HW2 5014   5.455   0.906   4.858  0.0998 -0.3077  2.2285
 1312SOL    HW3 5015   5.321   0.878   4.795  1.2296 -1.5336  0.2685
 1312SOL    MW4 5016   5.368   0.912   4.859  0.0550 -0.0813  0.4205
 1313SOL     OW 5017   3.687   6.186   0.845  0.0201  0.9190 -0.7540
 1313SOL    HW2 5018   3.603   6.227   0.824 -0.5561  1.2120  1.8081
 1313SOL    HW3 5019   3.752   6.253   0.824 -0.4818  1.1511 -1.5939
 1313SOL    MW4 5020   3.685   6.200   0.840 -0.1221  0.9883 -0.5268
 1314SOL     OW 5021   3.605   2.382   2.548  0.0439 -0.2458 -0.4274
 1314SOL    HW2 5022   3.614   2.448   2.617  2.3929 -0.7671 -0.1560
 1314SOL    HW3 5023   3.514   2.353   2.555 -0.2750  0.9761  1.2720
 1314SOL    MW4 5024   3.594   2.387   2.558  0.3118 -0.1534 -0.1673
 1315SOL     OW 5025   1.019   0.524   0.501 -0.0845  0.0208  0.1080
 1315SOL    HW2 5026   1.080   0.598   0.501  0.2311 -0.2251 -0.6473
 1315SOL    HW3 5027   0.993   0.514   0.593 -0.1279  1.0560  0.2265
 1315SOL    MW4 5028   1.023   0.532   0.513 -0.0486  0.1250  0.0240
 1316SOL     OW 5029   5.530   6.364   1.330 -0.3135  0.1938  0.3588
 1316SOL    HW2 5030   5.585   6.285   1.324 -1.1554 -0.4790  1.2302
 1316SOL    HW3 5031   5.499   6.365   1.420  0.2906  1.9637  0.5874
 1316SOL    MW4 5032   5.533   6.354   1.341 -0.3448  0.3385  0.5039
 1317SOL     OW 5033   1.684   2.300   4.253  0.4805 -0.0875 -0.0984
 1317SOL    HW2 5034   1.651   2.335   4.170  0.4359 -1.7668 -0.8504
 1317SOL    HW3 5035   1.770   2.264   4.230 -0.3295 -2.2799  0.0875
 1317SOL    MW4 5036   1.691   2.300   4.239  0.3678 -0.5983 -0.1731
 1318SOL     OW 5037   1.167   6.404   2.085 -0.1436 -0.6637  0.0099
 1318SOL    HW2 5038   1.132   6.488   2.113  2.5001  0.7289 -0.5139
 1318SOL    HW3 5039   1.135   6.394   1.995 -0.6168 -0.3053  0.1333
 1318SOL    MW4 5040   1.158   6.414   2.077  0.1428 -0.4327 -0.0429
 1319SOL     OW 5041   5.127   2.117   0.991 -0.0045 -0.2064  0.0130
 1319SOL    HW2 5042   5.147   2.096   0.900  1.2782 -0.3093  0.2919
 1319SOL    HW3 5043   5.188   2.062   1.041 -0.8013 -0.2710  0.9370
 1319SOL    MW4 5044   5.138   2.107   0.986  0.0596 -0.2285  0.1717
 1320SOL     OW 5045   6.284   4.686   3.663  0.1936 -0.1007  0.0593
 1320SOL    HW2 5046   6.356   4.646   3.712 -0.7496 -0.4666  1.1994
 1320SOL    HW3 5047   6.291   4.650   3.575  0.5513 -1.2563  0.5417
 1320SOL    MW4 5048   6.294   4.676   3.658  0.1163 -0.3014  0.2734
 1321SOL     OW 5049   3.376   1.801   5.057  0.8031  0.0400 -0.1424
 1321SOL    HW2 5050   3.438   1.873   5.047 -0.0684  1.5276  3.4603
 1321SOL    HW3 5051   3.353   1.802   5.150 -1.8952 -2.7400 -0.6091
 1321SOL    MW4 5052   3.381   1.810   5.068  0.3321 -0.1305  0.2714
 1322SOL     OW 5053   2.404   0.777   0.075 -0.1388  0.0635  0.3207
 1322SOL    HW2 5054   2.466   0.850   0.073  0.0730 -0.1092  0.5552
 1322SOL    HW3 5055   2.458   0.699   0.065 -0.3094 -0.0932  0.6139
 1322SOL    MW4 5056   2.419   0.777   0.074 -0.1334  0.0200  0.3903
 1323SOL     OW 5057   5.244   4.606   1.945 -0.1764  0.0952  0.3572
 1323SOL    HW2 5058   5.177   4.606   2.014 -0.2243 -0.1842  0.3119
 1323SOL    HW3 5059   5.315   4.658   1.981 -1.0058  1.6479 -0.1740
 1323SOL    MW4 5060   5.244   4.612   1.959 -0.2921  0.2632  0.2812
 1324SOL     OW 5061   1.961   4.455   4.732 -0.0730 -0.3528 -0.0212
 1324SOL    HW2 5062   1.930   4.526   4.788  0.9876  0.1622 -0.0714
 1324SOL    HW3 5063   1.886   4.434   4.675 -0.6677  0.1250  0.5827
 1324SOL    MW4 5064   1.947   4.461   4.732 -0.0116 -0.2218  0.0518
 1325SOL     OW 5065   4.056   2.208   5.901  0.6849  0.6964 -0.1282
 1325SOL    HW2 5066   4.032   2.291   5.944 -1.0782  1.2322 -1.9439
 1325SOL    HW3 5067   4.081   2.234   5.813 -1.5116 -0.7939 -1.2701
 1325SOL    MW4 5068   4.056   2.223   5.895  0.1625  0.5704 -0.5184
 1326SOL     OW 5069   0.430   2.428   0.542 -0.1770  0.6208 -0.7773
 1326SOL    HW2 5070   0.440   2.454   0.451  0.9273  0.2927 -0.7588
 1326SOL    HW3 5071   0.492   2.356   0.554  1.8750  2.5394  0.9755
 1326SOL    MW4 5072   0.439   2.422   0.532  0.2395  0.8307 -0.5436
 1327SOL     OW 5073   4.750   5.079   4.254  0.1993 -0.6673 -0.7845
 1327SOL    HW2 5074   4.821   5.062   4.317 -0.8292  0.4247  0.7508
 1327SOL    HW3 5075   4.768   5.167   4.222 -0.3322 -0.4697 -0.5446
 1327SOL    MW4 5076   4.762   5.089   4.258 -0.0065 -0.4971 -0.5503
 1328SOL     OW 5077   2.110   1.115   1.920  0.5911 -0.4842 -0.1274
 1328SOL    HW2 5078   2.156   1.037   1.888  4.2731  1.0421  0.9345
 1328SOL    HW3 5079   2.137   1.122   2.012 -2.7324  0.0376  0.9498
 1328SOL    MW4 5080   2.119   1.106   1.928  0.6384 -0.2140  0.1548
 1329SOL     OW 5081   3.984   5.697   0.230  0.5989 -0.3040 -0.0190
 1329SOL    HW2 5082   3.922   5.683   0.159  0.7301  1.2959 -0.4844
 1329SOL    HW3 5083   4.069   5.704   0.187  0.6481  0.9495  0.2257
 1329SOL    MW4 5084   3.987   5.696   0.215  0.6227  0.0724 -0.0482
 1330SOL     OW 5085   5.826   0.040   6.392  0.8921  0.3829 -0.0498
 1330SOL    HW2 5086   5.886   0.083   6.453  0.0726  0.5758  0.6417
 1330SOL    HW3 5087   5.808  -0.045   6.432  0.5726  0.3959 -0.1647
 1330SOL    MW4 5088   5.831   0.034   6.406  0.7418  0.4101  0.0263
 1331SOL     OW 5089   1.634   5.434   0.732  0.0121 -0.2962  0.1117
 1331SOL    HW2 5090   1.654   5.368   0.666 -1.2514  1.0090 -1.6518
 1331SOL    HW3 5091   1.713   5.488   0.736  0.5665 -1.1220  0.6277
 1331SOL    MW4 5092   1.647   5.433   0.724 -0.0814 -0.2330 -0.0529
 1332SOL     OW 5093   1.944   0.277   3.032 -0.1677 -0.0512 -0.1172
 1332SOL    HW2 5094   1.902   0.340   2.974  0.4442 -0.1420 -0.6763
 1332SOL    HW3 5095   1.873   0.242   3.086 -0.6893  0.2919 -0.5714
 1332SOL    MW4 5096   1.929   0.281   3.032 -0.1558 -0.0179 -0.2509
 1333SOL     OW 5097   1.492   3.011   0.349 -0.4861  0.6083  0.1901
 1333SOL    HW2 5098   1.463   3.011   0.440  1.1925 -0.5199  0.7742
 1333SOL    HW3 5099   1.429   2.955   0.304 -2.4301  2.6481  0.2079
 1333SOL    MW4 5100   1.480   3.004   0.355 -0.5211  0.7286  0.2695
 1334SOL     OW 5101   2.842   3.357   0.963 -0.0147  0.4028 -0.3522
 1334SOL    HW2 5102   2.890   3.300   1.023 -0.0963 -0.6617 -1.2626
 1334SOL    HW3 5103   2.906   3.424   0.938  0.5913 -0.2131 -0.5030
 1334SOL    MW4 5104   2.857   3.358   0.968  0.0545  0.1811 -0.4922
 1335SOL     OW 5105   4.316   0.980   5.874 -0.4860 -0.2829  0.2281
 1335SOL    HW2 5106   4.357   0.920   5.937  0.2632  1.4746  1.4841
 1335SOL    HW3 5107   4.389   1.030   5.837 -1.1580  0.3607 -0.2452
 1335SOL    MW4 5108   4.331   0.979   5.877 -0.4758  0.0339  0.3314
 1336SOL     OW 5109   4.679   2.456   2.945  0.2293 -0.3820 -0.1173
 1336SOL    HW2 5110   4.618   2.404   2.998  2.8866  0.3656  4.1715
 1336SOL    HW3 5111   4.756   2.400   2.935  1.1435  0.8182 -0.0183
 1336SOL    MW4 5112   4.681   2.442   2.951  0.7005 -0.1250  0.4616
 1337SOL     OW 5113   4.049   5.283   4.778 -0.6624 -0.1162  0.2443
 1337SOL    HW2 5114   3.985   5.265   4.709 -1.2532  3.0942 -0.1907
 1337SOL    HW3 5115   4.002   5.267   4.859 -2.1434  2.1611 -0.0652
 1337SOL    MW4 5116   4.034   5.278   4.779 -0.9357  0.6078  0.1461
 1338SOL     OW 5117   2.034   0.377   3.526  0.1858  0.1782  0.8017
 1338SOL    HW2 5118   2.062   0.463   3.554  0.8100  0.2321  0.0571
 1338SOL    HW3 5119   2.030   0.383   3.430  0.2776 -0.6212  0.7364
 1338SOL    MW4 5120   2.037   0.389   3.517  0.2803  0.0798  0.6949
 1339SOL     OW 5121   3.870   1.236   0.144  0.5510 -0.2500 -0.2944
 1339SOL    HW2 5122   3.785   1.278   0.159  0.2726 -0.9502  0.1330
 1339SOL    HW3 5123   3.929   1.309   0.123 -0.2911  0.1738 -1.2405
 1339SOL    MW4 5124   3.867   1.252   0.144  0.4032 -0.2865 -0.3628
 1340SOL     OW 5125   1.667   4.637   1.462 -0.0920  0.7010  0.1066
 1340SOL    HW2 5126   1.714   4.559   1.492  0.4370  0.6930 -0.7281
 1340SOL    HW3 5127   1.654   4.623   1.369 -2.4283  0.3725  0.4243
 1340SOL    MW4 5128   1.672   4.625   1.454 -0.3304  0.6566  0.0384
 1341SOL     OW 5129   5.727   5.515   4.135 -0.0277  0.0093 -0.0553
 1341SOL    HW2 5130   5.648   5.571   4.132  0.0905  0.1507 -1.3787
 1341SOL    HW3 5131   5.799   5.577   4.143  0.1314  0.1215 -1.9240
 1341SOL    MW4 5132   5.726   5.531   4.136  0.0089  0.0428 -0.4764
 1342SOL     OW 5133   6.361   0.073   4.645  0.0022 -0.2351 -0.0068
 1342SOL    HW2 5134   6.349   0.050   4.553  1.0836  0.9550 -0.4682
 1342SOL    HW3 5135   6.351   0.168   4.648  2.1675  0.0133  0.7134
 1342SOL    MW4 5136   6.358   0.083   4.633  0.4306 -0.0453  0.0273
 1343SOL     OW 5137   6.317   5.970   1.582  0.5596  0.3404  0.6273
 1343SOL    HW2 5138   6.346   6.061   1.586 -1.7665  1.1149  2.4604
 1343SOL    HW3 5139   6.228   5.975   1.548  0.9127 -1.4371 -0.6446
 1343SOL    MW4 5140   6.309   5.983   1.578  0.2993  0.2081  0.7013
 1344SOL     OW 5141   1.834   1.929   4.278 -0.2788  0.0187 -0.4239
 1344SOL    HW2 5142   1.926   1.909   4.258  0.0142  0.2764  0.6033
 1344SOL    HW3 5143   1.833   1.943   4.373 -1.4711 -0.4521 -0.3536
 1344SOL    MW4 5144   1.846   1.928   4.288 -0.3975 -0.0094 -0.2791
 1345SOL     OW 5145   6.115   3.461   3.209 -0.3128 -0.0169  0.1630
 1345SOL    HW2 5146   6.112   3.417   3.125 -1.1320 -4.6794  2.3143
 1345SOL    HW3 5147   6.024   3.462   3.239  0.1035  0.4953  1.4814
 1345SOL    MW4 5148   6.103   3.455   3.202 -0.3660 -0.5645  0.6208
 1346SOL     OW 5149   2.874   1.876   0.829  0.0770  0.3398 -0.3717
 1346SOL    HW2 5150   2.959   1.890   0.869 -0.8597 -1.1770  2.4395
 1346SOL    HW3 5151   2.857   1.782   0.841 -1.6264  0.4467 -1.6087
 1346SOL    MW4 5152   2.883   1.865   0.836 -0.2713  0.1537 -0.1640
 1347SOL     OW 5153   3.425   1.502   1.688 -0.0038  0.1923  0.2072
 1347SOL    HW2 5154   3.335   1.472   1.693 -0.3023  1.0861  0.2432
 1347SOL    HW3 5155   3.466   1.467   1.767 -0.6186  0.7477  0.7857
 1347SOL    MW4 5156   3.419   1.493   1.699 -0.1243  0.3835  0.2883
 1348SOL     OW 5157   0.773   0.265   4.192 -0.3520  0.4283  0.5446
 1348SOL    HW2 5158   0.703   0.315   4.232 -0.6795 -0.3274  0.9475
 1348SOL    HW3 5159   0.728   0.189   4.153  0.0845  0.6007 -0.3322
 1348SOL    MW4 5160   0.758   0.261   4.192 -0.3376  0.3514  0.4821
 1349SOL     OW 5161   3.630   2.113   0.113 -0.4629 -0.6045  0.1589
 1349SOL    HW2 5162   3.581   2.143   0.037 -0.9141 -1.2527  0.1791
 1349SOL    HW3 5163   3.694   2.182   0.130 -0.4479 -0.3983 -0.7207
 1349SOL    MW4 5164   3.632   2.126   0.105 -0.5204 -0.6628  0.0455
 1350SOL     OW 5165   2.854   1.354   5.044 -0.3594  0.1156 -0.0309
 1350SOL    HW2 5166   2.772   1.309   5.021 -1.6535  1.9595  0.7356
 1350SOL    HW3 5167   2.915   1.328   4.976 -1.5152 -1.4767 -0.5310
 1350SOL    MW4 5168   2.851   1.345   5.032 -0.6826  0.1488  0.0042
 1351SOL     OW 5169   2.269   6.201   0.604  0.0538 -0.0740 -0.2910
 1351SOL    HW2 5170   2.291   6.124   0.551 -0.7988 -0.5804  0.0587
 1351SOL    HW3 5171   2.285   6.173   0.694  1.9184  0.9249 -0.2717
 1351SOL    MW4 5172   2.274   6.187   0.609  0.1873 -0.0090 -0.2423
 1352SOL     OW 5173   0.317   2.369   5.589 -0.3641  0.1201 -0.0739
 1352SOL    HW2 5174   0.294   2.276   5.585  1.0696 -0.3486  1.5639
 1352SOL    HW3 5175   0.404   2.374   5.551 -1.7521  1.4251 -3.4817
 1352SOL    MW4 5176   0.325   2.357   5.583 -0.3580  0.2304 -0.3074
 1353SOL     OW 5177   2.369   0.404   4.458 -0.5395  0.1860  0.7563
 1353SOL    HW2 5178   2.384   0.346   4.533 -3.6395  1.2469  2.3941
 1353SOL    HW3 5179   2.277   0.389   4.434 -0.4589  1.9930 -0.9655
 1353SOL    MW4 5180   2.359   0.394   4.465 -0.9379  0.5644  0.7452
 1354SOL     OW 5181   2.087   0.266   6.204 -0.4018 -0.2735 -0.1372
 1354SOL    HW2 5182   2.149   0.310   6.146 -1.3024 -0.0375 -0.9353
 1354SOL    HW3 5183   2.137   0.193   6.242  0.2194 -0.3772 -1.1337
 1354SOL    MW4 5184   2.102   0.262   6.202 -0.4386 -0.2561 -0.3740
 1355SOL     OW 5185   4.570   3.162   5.497 -0.4104  0.2547 -0.5843
 1355SOL    HW2 5186   4.488   3.159   5.546  0.9937 -0.6630  1.9076
 1355SOL    HW3 5187   4.610   3.245   5.522 -0.5533  0.7311 -1.8396
 1355SOL    MW4 5188   4.564   3.172   5.507 -0.2440  0.1965 -0.4211
 1356SOL     OW 5189   2.250   0.354   1.050 -0.1740  0.4324  0.1056
 1356SOL    HW2 5190   2.285   0.378   0.964 -0.6041 -1.6344 -0.7092
 1356SOL    HW3 5191   2.185   0.286   1.031  0.3520 -0.7025  2.1290
 1356SOL    MW4 5192   2.246   0.348   1.036 -0.1614  0.0100  0.2650
 1357SOL     OW 5193   1.525   0.703   1.321 -0.4423 -0.1590  0.5904
 1357SOL    HW2 5194   1.497   0.703   1.229 -0.8460 -2.6666  0.6437
 1357SOL    HW3 5195   1.621   0.699   1.317 -0.4780 -0.7521  0.2625
 1357SOL    MW4 5196   1.534   0.703   1.308 -0.5003 -0.5681  0.5542
 1358SOL     OW 5197   3.748   5.498   6.259  0.2571 -0.2595 -0.0280
 1358SOL    HW2 5198   3.790   5.414   6.278  1.4655  0.2824 -0.2342
 1358SOL    HW3 5199   3.751   5.545   6.342  0.4810 -0.0384 -0.1613
 1358SOL    MW4 5200   3.754   5.493   6.273  0.4461 -0.1589 -0.0728
 1359SOL     OW 5201   4.422   6.255   4.212 -0.1330 -0.3411  0.2148
 1359SOL    HW2 5202   4.362   6.313   4.258 -0.2061 -2.3401  2.9521
 1359SOL    HW3 5203   4.372   6.222   4.137 -0.8614  1.3173 -0.0585
 1359SOL    MW4 5204   4.407   6.258   4.208 -0.2387 -0.3861  0.5399
 1360SOL     OW 5205   5.986   0.186   0.131 -0.0839  0.5154 -0.4476
 1360SOL    HW2 5206   6.038   0.125   0.183 -0.6211  0.7053  0.3213
 1360SOL    HW3 5207   6.047   0.220   0.066  0.5731  0.2077 -0.0022
 1360SOL    MW4 5208   6.001   0.182   0.129 -0.0681  0.4999 -0.2874
 1361SOL     OW 5209   3.007   1.320   5.720 -0.1336 -0.6516  0.3433
 1361SOL    HW2 5210   3.088   1.270   5.728 -0.3080 -1.2232 -1.1869
 1361SOL    HW3 5211   3.030   1.392   5.661 -0.0956  0.6715  1.9008
 1361SOL    MW4 5212   3.021   1.323   5.714 -0.1516 -0.5524  0.3469
 1362SOL     OW 5213   5.167   5.416   0.321 -0.4593  0.0632  0.0130
 1362SOL    HW2 5214   5.111   5.371   0.384 -1.4327  1.2303  0.0075
 1362SOL    HW3 5215   5.199   5.347   0.263  1.9612 -1.4145  2.7859
 1362SOL    MW4 5216   5.164   5.401   0.322 -0.2684  0.0222  0.3781
 1363SOL     OW 5217   1.205   1.973   6.307  0.4059  0.3333 -0.3644
 1363SOL    HW2 5218   1.244   2.054   6.341  0.2190  0.1684  0.2635
 1363SOL    HW3 5219   1.158   2.000   6.228  1.3982  0.6119 -0.8639
 1363SOL    MW4 5220   1.204   1.987   6.301  0.5121  0.3483 -0.3474
 1364SOL     OW 5221   5.892   1.903   6.210  0.1189 -0.5204 -0.2020
 1364SOL    HW2 5222   5.878   1.856   6.293 -1.9919  0.9941  0.3971
 1364SOL    HW3 5223   5.981   1.937   6.217 -0.1358 -0.1034  1.6797
 1364SOL    MW4 5224   5.902   1.901   6.222 -0.1932 -0.2655  0.1253
 1365SOL     OW 5225   1.486   3.042   4.751  0.1607  0.4211  0.0269
 1365SOL    HW2 5226   1.559   3.008   4.698  0.0103 -0.8493  0.5950
 1365SOL    HW3 5227   1.447   2.964   4.791 -0.1624  1.2755  1.4528
 1365SOL    MW4 5228   1.491   3.027   4.749  0.0982  0.3662  0.2900
 1366SOL     OW 5229   5.562   5.668   1.329  0.3390  0.0992  0.1169
 1366SOL    HW2 5230   5.596   5.739   1.384 -2.3493  1.5935  0.0015
 1366SOL    HW3 5231   5.582   5.588   1.378  2.0091  1.0096  1.0376
 1366SOL    MW4 5232   5.569   5.667   1.343  0.2047  0.4165  0.2232
 1367SOL     OW 5233   4.188   2.074   0.203  1.0049  0.2897  0.0750
 1367SOL    HW2 5234   4.156   2.087   0.292 -0.5757 -0.4003 -0.3502
 1367SOL    HW3 5235   4.249   2.001   0.210  0.4239 -0.1637  0.5192
 1367SOL    MW4 5236   4.192   2.066   0.216  0.7197  0.1389  0.0775
 1368SOL     OW 5237   0.515   2.874   2.756 -0.0065  0.6769  0.2934
 1368SOL    HW2 5238   0.551   2.846   2.840 -0.1493  0.2120  0.2056
 1368SOL    HW3 5239   0.584   2.852   2.692 -0.0935  0.5811  0.2318
 1368SOL    MW4 5240   0.529   2.867   2.758 -0.0368  0.6029  0.2737
 1369SOL     OW 5241   0.759   4.480   5.285  0.6282  0.0376  0.1538
 1369SOL    HW2 5242   0.807   4.417   5.338  0.2367  0.5581  1.1698
 1369SOL    HW3 5243   0.827   4.526   5.235  1.1756  0.4645  1.2364
 1369SOL    MW4 5244   0.774   4.478   5.286  0.6488  0.1626  0.4307
 1370SOL     OW 5245   2.309   0.923   2.236  0.5757  0.1616 -0.1503
 1370SOL    HW2 5246   2.335   0.938   2.327  0.7803  1.2430 -0.3672
 1370SOL    HW3 5247   2.391   0.929   2.186  0.1059  3.0381 -0.7748
 1370SOL    MW4 5248   2.323   0.926   2.241  0.5407  0.6838 -0.2613
 1371SOL     OW 5249   2.418   5.694   0.318  0.5409 -0.1901  0.0778
 1371SOL    HW2 5250   2.489   5.686   0.381 -0.5158 -0.3441  1.2781
 1371SOL    HW3 5251   2.338   5.690   0.370 -0.3550  0.8390 -1.1301
 1371SOL    MW4 5252   2.417   5.693   0.333  0.2833 -0.0747  0.0768
 1372SOL     OW 5253   2.593   5.212   4.189  0.3096  0.3570  0.5417
 1372SOL    HW2 5254   2.508   5.256   4.188  0.1298  0.0037 -0.5146
 1372SOL    HW3 5255   2.635   5.238   4.107  0.7147 -0.4357  0.4874
 1372SOL    MW4 5256   2.587   5.222   4.178  0.3393  0.2058  0.3952
 1373SOL     OW 5257   2.094   3.821   3.590  0.0322 -0.0214 -0.4368
 1373SOL    HW2 5258   2.082   3.895   3.649  0.8184  0.3955 -0.7804
 1373SOL    HW3 5259   2.087   3.744   3.647  0.1686  0.3533  0.0950
 1373SOL    MW4 5260   2.092   3.821   3.605  0.1539  0.0831 -0.4120
 1374SOL     OW 5261   5.669   0.005   3.417 -0.1946  0.2416  0.3666
 1374SOL    HW2 5262   5.752  -0.024   3.377 -1.9190 -2.8507 -1.3630
 1374SOL    HW3 5263   5.685  -0.002   3.511  1.4375 -0.5904  0.0750
 1374SOL    MW4 5264   5.682   0.000   3.424 -0.2068 -0.2761  0.0999
 1375SOL     OW 5265   3.842   5.031   3.017  0.1663 -0.1618 -0.1145
 1375SOL    HW2 5266   3.777   5.026   3.087  1.0606  0.3310  0.7771
 1375SOL    HW3 5267   3.861   5.124   3.008  1.5432 -0.3671  0.4161
 1375SOL    MW4 5268   3.836   5.042   3.025  0.4659 -0.1239  0.0731
 1376SOL     OW 5269   4.473   6.260   1.186  0.3611 -0.0359 -0.4323
 1376SOL    HW2 5270   4.473   6.165   1.175 -0.7527 -0.0513 -0.3825
 1376SOL    HW3 5271   4.406   6.277   1.253  2.3559  0.5919  1.5554
 1376SOL    MW4 5272   4.464   6.250   1.194  0.4773  0.0449 -0.1635
 1377SOL     OW 5273   5.148   1.252   0.943 -0.1752 -0.3803  0.3992
 1377SOL    HW2 5274   5.083   1.282   1.006  0.6628  0.0766  1.0749
 1377SOL    HW3 5275   5.116   1.283   0.859 -1.6711 -1.5871  0.4751
 1377SOL    MW4 5276   5.135   1.260   0.940 -0.2620 -0.4792  0.4984
 1378SOL     OW 5277   0.055   0.105   1.266  0.0507  0.1052  0.4005
 1378SOL    HW2 5278   0.040   0.017   1.301 -1.1912 -0.4128 -1.3075
 1378SOL    HW3 5279  -0.010   0.115   1.196  0.7915  2.0210 -0.0895
 1378SOL    MW4 5280   0.044   0.095   1.261 -0.0154  0.2896  0.1105
 1379SOL     OW 5281   3.174   3.818   0.838  0.4512  0.4806 -0.0524
 1379SOL    HW2 5282   3.254   3.777   0.806  0.1805  0.1638 -0.3285
 1379SOL    HW3 5283   3.133   3.856   0.761  0.1855  0.3823  0.0360
 1379SOL    MW4 5284   3.179   3.817   0.824  0.3805  0.4259 -0.0772
 1380SOL     OW 5285   0.984   3.406   3.506 -0.1043 -0.0591  0.4084
 1380SOL    HW2 5286   0.893   3.387   3.482  0.2472 -1.1496 -0.1088
 1380SOL    HW3 5287   0.978   3.485   3.560 -1.2812  0.3479 -0.2668
 1380SOL    MW4 5288   0.971   3.414   3.510 -0.2132 -0.1493  0.2511
 1381SOL     OW 5289   5.208   0.240   0.334  0.9423  0.4160 -0.2623
 1381SOL    HW2 5290   5.173   0.322   0.368  0.2810  0.0057  0.0789
 1381SOL    HW3 5291   5.296   0.262   0.304  1.0882  1.0682  0.5849
 1381SOL    MW4 5292   5.215   0.254   0.335  0.8743  0.4479 -0.1055
 1382SOL     OW 5293   2.467   4.869   1.102 -0.0941  0.6897  0.2422
 1382SOL    HW2 5294   2.480   4.788   1.053 -0.5921  1.0844 -0.5516
 1382SOL    HW3 5295   2.546   4.921   1.085 -1.4672  2.0736 -2.6195
 1382SOL    MW4 5296   2.479   4.865   1.094 -0.3410  0.9243 -0.2401
 1383SOL     OW 5297   0.915   3.598   3.901  0.4866 -0.4137 -0.6784
 1383SOL    HW2 5298   0.954   3.679   3.934 -0.1956 -0.8233  1.3110
 1383SOL    HW3 5299   0.821   3.613   3.909  0.3493 -1.7532  0.8099
 1383SOL    MW4 5300   0.908   3.611   3.907  0.3785 -0.6445 -0.2195
 1384SOL     OW 5301   0.839   5.448   4.983  0.0104 -0.3453 -0.7579
 1384SOL    HW2 5302   0.910   5.398   5.024  0.1255  0.5771  0.2235
 1384SOL    HW3 5303   0.850   5.537   5.017 -0.3716  0.2954 -2.2143
 1384SOL    MW4 5304   0.850   5.453   4.993 -0.0248 -0.1391 -0.8206
 1385SOL     OW 5305   6.363   5.281   5.882  0.0750 -0.5594 -0.3391
 1385SOL    HW2 5306   6.404   5.326   5.956 -0.0283 -0.0281 -0.6015
 1385SOL    HW3 5307   6.305   5.347   5.843  1.5645 -0.1987 -2.0708
 1385SOL    MW4 5308   6.361   5.296   5.887  0.2579 -0.4417 -0.6022
 1386SOL     OW 5309   5.216   3.651   0.185 -0.0266  0.1859 -0.4370
 1386SOL    HW2 5310   5.141   3.682   0.236 -0.5085  0.6790 -1.4174
 1386SOL    HW3 5311   5.179   3.588   0.124  0.4078  0.1859 -0.7063
 1386SOL    MW4 5312   5.201   3.647   0.184 -0.0328  0.2510 -0.6019
 1387SOL     OW 5313   6.064   4.502   2.485 -0.2006  0.1525 -0.9208
 1387SOL    HW2 5314   6.151   4.527   2.457  0.9224 -1.3923  0.9158
 1387SOL    HW3 5315   6.033   4.576   2.537 -0.0495  0.7473 -1.6588
 1387SOL    MW4 5316   6.071   4.515   2.488 -0.0325  0.0271 -0.7758
 1388SOL     OW 5317   5.643   4.126   0.007  0.0626  0.2873  0.4434
 1388SOL    HW2 5318   5.561   4.165   0.036 -0.3600 -0.1794 -0.1113
 1388SOL    HW3 5319   5.621   4.036  -0.015  0.6374  0.2763 -0.1238
 1388SOL    MW4 5320   5.629   4.119   0.008  0.0827  0.2243  0.2954
 1389SOL     OW 5321   3.109   1.978   3.428  0.2002 -0.0757 -0.2788
 1389SOL    HW2 5322   3.039   2.001   3.367 -1.2217  0.1460  1.3430
 1389SOL    HW3 5323   3.141   2.062   3.460  0.3951 -0.2066 -0.1269
 1389SOL    MW4 5324   3.104   1.992   3.424  0.0383 -0.0637 -0.0448
 1390SOL     OW 5325   3.073   2.416   3.269  0.1951 -0.0044  0.3220
 1390SOL    HW2 5326   3.081   2.509   3.288 -0.4664 -0.1372  1.3376
 1390SOL    HW3 5327   3.121   2.373   3.340  1.9911 -0.4313 -1.0583
 1390SOL    MW4 5328   3.081   2.423   3.281  0.3447 -0.0783  0.2739
 1391SOL     OW 5329   3.321   4.484   1.990  0.0492  0.5001 -0.4903
 1391SOL    HW2 5330   3.344   4.574   1.969  0.6752  0.4136 -0.1890
 1391SOL    HW3 5331   3.259   4.490   2.062 -0.6708  0.7230 -1.1118
 1391SOL    MW4 5332   3.316   4.496   1.996  0.0368  0.5181 -0.5325
 1392SOL     OW 5333   5.434   3.364   3.381  0.3735 -0.8254 -0.0750
 1392SOL    HW2 5334   5.507   3.419   3.409 -2.3745  2.5981  1.0632
 1392SOL    HW3 5335   5.407   3.317   3.460  0.4914 -1.0146 -0.1475
 1392SOL    MW4 5336   5.440   3.365   3.395  0.0265 -0.3987  0.0656
 1393SOL     OW 5337   3.384   4.689   1.732 -0.7966  0.5570 -0.6301
 1393SOL    HW2 5338   3.435   4.770   1.731 -1.4431  0.9902 -0.0144
 1393SOL    HW3 5339   3.377   4.663   1.640 -0.0381  0.8490 -0.7753
 1393SOL    MW4 5340   3.389   4.696   1.720 -0.7818  0.6527 -0.5680
 1394SOL     OW 5341   0.504   4.114   2.088  0.0479  0.3662  0.2269
 1394SOL    HW2 5342   0.424   4.081   2.047 -0.0474  0.7841  0.0733
 1394SOL    HW3 5343   0.509   4.068   2.172 -0.2657  0.2198  0.1659
 1394SOL    MW4 5344   0.494   4.103   2.094 -0.0061  0.4020  0.1986
 1395SOL     OW 5345   4.533   1.332   2.380 -0.0994  0.1654  0.2614
 1395SOL    HW2 5346   4.521   1.359   2.471  1.4279  0.9999  0.2301
 1395SOL    HW3 5347   4.619   1.364   2.356 -0.9086  0.9142 -1.8383
 1395SOL    MW4 5348   4.543   1.339   2.389 -0.0046  0.3743 -0.0198
 1396SOL     OW 5349   3.610   1.376   0.208  0.0541  0.5957 -0.7952
 1396SOL    HW2 5350   3.634   1.462   0.241  1.3057  0.3502 -1.0020
 1396SOL    HW3 5351   3.514   1.376   0.207  0.0109  1.4473  0.5826
 1396SOL    MW4 5352   3.600   1.387   0.212  0.2136  0.6757 -0.6407
 1397SOL     OW 5353   0.274   0.277   4.583 -0.5384  0.5960  0.3601
 1397SOL    HW2 5354   0.269   0.184   4.606  1.6734 -0.0471 -1.4066
 1397SOL    HW3 5355   0.197   0.293   4.529 -0.3938 -0.4976 -0.1960
 1397SOL    MW4 5356   0.263   0.267   4.579 -0.2275  0.3668  0.0536
 1398SOL     OW 5357   1.488   3.430   5.705  0.2673  1.3400  0.5145
 1398SOL    HW2 5358   1.459   3.366   5.641  2.1682 -0.6145  1.5000
 1398SOL    HW3 5359   1.512   3.507   5.653 -2.8524  1.6833 -0.6212
 1398SOL    MW4 5360   1.487   3.432   5.690  0.1065  1.1274  0.4947
 1399SOL     OW 5361   3.997   3.641   0.135 -0.5372  0.5432 -0.1578
 1399SOL    HW2 5362   4.034   3.729   0.142 -0.6807  0.9518 -3.0995
 1399SOL    HW3 5363   3.916   3.653   0.086 -1.3996 -1.0675  0.8163
 1399SOL    MW4 5364   3.991   3.654   0.129 -0.6699  0.3846 -0.4174
 1400SOL     OW 5365   1.914   5.011   4.486  0.3588 -0.1321 -0.6782
 1400SOL    HW2 5366   1.930   5.049   4.573  0.9959 -0.6168 -0.5742
 1400SOL    HW3 5367   1.860   4.934   4.503 -2.5951  1.7066 -1.0634
 1400SOL    MW4 5368   1.909   5.006   4.500  0.0531  0.0465 -0.7153
 1401SOL     OW 5369   4.655   5.769   4.529  0.0629 -0.1789 -0.9420
 1401SOL    HW2 5370   4.575   5.722   4.504 -1.1124  0.1377  1.7904
 1401SOL    HW3 5371   4.657   5.845   4.471 -0.6257 -1.1038 -2.2393
 1401SOL    MW4 5372   4.645   5.773   4.518 -0.1830 -0.2592 -0.7527
 1402SOL     OW 5373   2.575   6.099   5.243 -0.1448 -0.2558  0.5345
 1402SOL    HW2 5374   2.644   6.131   5.184 -2.2497 -0.4657 -2.2302
 1402SOL    HW3 5375   2.607   6.121   5.331  2.4002  1.6440 -0.7315
 1402SOL    MW4 5376   2.589   6.106   5.247 -0.0868 -0.0328  0.0027
 1403SOL     OW 5377   5.002   0.391   4.129  0.3754  0.1228 -0.2458
 1403SOL    HW2 5378   5.039   0.405   4.217 -1.6455  0.6095  0.5866
 1403SOL    HW3 5379   5.069   0.341   4.083  0.6437 -2.0357  2.2687
 1403SOL    MW4 5380   5.016   0.386   4.135  0.1442 -0.0977  0.1958
 1404SOL     OW 5381   5.150   2.980   4.780 -0.0250 -0.0923 -0.0079
 1404SOL    HW2 5382   5.056   2.992   4.770 -0.0731 -1.1170 -0.9726
 1404SOL    HW3 5383   5.183   2.971   4.691  0.7810 -1.1470  0.3675
 1404SOL    MW4 5384   5.142   2.981   4.767  0.0750 -0.3666 -0.0856
 1405SOL     OW 5385   4.423   2.605   5.578  0.0043  0.0715 -0.0226
 1405SOL    HW2 5386   4.507   2.649   5.594  0.1288  0.0786 -0.6572
 1405SOL    HW3 5387   4.435   2.562   5.493 -0.8696  0.6700 -0.4648
 1405SOL    MW4 5388   4.436   2.605   5.569 -0.0946  0.1514 -0.1647
 1406SOL     OW 5389   4.950   1.241   2.567  0.0048 -0.8233 -0.1000
 1406SOL    HW2 5390   4.912   1.325   2.539  0.2643 -0.7974 -0.3754
 1406SOL    HW3 5391   5.043   1.250   2.548  0.2683 -0.6300  1.1969
 1406SOL    MW4 5392   4.957   1.254   2.561  0.0738 -0.7943  0.0348
 1407SOL     OW 5393   4.594   0.051   1.059 -0.2769 -0.0178  0.2575
 1407SOL    HW2 5394   4.541  -0.023   1.091 -0.1151 -0.3760 -0.2902
 1407SOL    HW3 5395   4.532   0.123   1.050 -0.9854 -0.8192 -1.7324
 1407SOL    MW4 5396   4.579   0.051   1.062 -0.3491 -0.1708 -0.0773
 1408SOL     OW 5397   1.927   3.168   5.396  0.1006 -0.4247 -0.2444
 1408SOL    HW2 5398   1.939   3.261   5.376  0.0319 -0.3029  0.2510
 1408SOL    HW3 5399   1.907   3.167   5.490  1.0456 -1.0132 -0.0315
 1408SOL    MW4 5400   1.926   3.180   5.406  0.2162 -0.4863 -0.1510
 1409SOL     OW 5401   2.027   0.382   2.235  0.2164  0.3346 -0.2746
 1409SOL    HW2 5402   1.954   0.417   2.185 -1.2242 -0.6373  1.0622
 1409SOL    HW3 5403   2.075   0.327   2.173 -1.2056 -0.3965 -0.7795
 1409SOL    MW4 5404   2.024   0.379   2.220 -0.1613  0.1099 -0.1648
 1410SOL     OW 5405   3.487   3.786   0.844  0.2300  0.6874 -0.1034
 1410SOL    HW2 5406   3.496   3.707   0.791 -1.2749  0.9561 -0.8134
 1410SOL    HW3 5407   3.574   3.800   0.881  0.1896 -2.3143  1.4917
 1410SOL    MW4 5408   3.500   3.777   0.842  0.0261  0.3268  0.0134
 1411SOL     OW 5409   1.614   1.283   2.836  0.8889  0.8759  0.2746
 1411SOL    HW2 5410   1.596   1.225   2.762  3.3608  0.9273 -0.4363
 1411SOL    HW3 5411   1.671   1.351   2.800  0.3395  2.1739  1.7483
 1411SOL    MW4 5412   1.619   1.284   2.821  1.1426  1.0539  0.3753
 1412SOL     OW 5413   5.973   2.166   5.958 -0.4371  0.0439  0.1347
 1412SOL    HW2 5414   5.888   2.200   5.985 -0.3689 -0.1307  0.5767
 1412SOL    HW3 5415   5.957   2.074   5.940 -0.3574  0.0291  0.1409
 1412SOL    MW4 5416   5.960   2.158   5.959 -0.4176  0.0189  0.1938
 1413SOL     OW 5417   0.825   5.176   5.970  0.4817 -0.2499  0.2994
 1413SOL    HW2 5418   0.836   5.270   5.989  1.8649 -0.2547 -0.3485
 1413SOL    HW3 5419   0.835   5.170   5.875  1.5433 -1.1822  0.4508
 1413SOL    MW4 5420   0.828   5.188   5.960  0.8043 -0.3736  0.2339
 1414SOL     OW 5421   6.044   1.039   6.241  0.1051 -0.5513  0.3463
 1414SOL    HW2 5422   6.001   0.956   6.266 -0.4131  0.0513  1.5696
 1414SOL    HW3 5423   6.087   1.068   6.322 -1.9990  1.7265  0.7778
 1414SOL    MW4 5424   6.044   1.032   6.255 -0.2408 -0.1713  0.5646
 1415SOL     OW 5425   4.547   5.357   4.510  0.3070  0.3201  0.0850
 1415SOL    HW2 5426   4.639   5.345   4.489  0.2828 -0.2242  0.2797
 1415SOL    HW3 5427   4.547   5.410   4.589  0.6287 -3.2420  2.7045
 1415SOL    MW4 5428   4.559   5.363   4.517  0.3462 -0.2217  0.4563
 1416SOL     OW 5429   0.692   0.028   1.429  0.7187 -0.1484  0.5253
 1416SOL    HW2 5430   0.634   0.073   1.368  0.8227  0.5226  0.9059
 1416SOL    HW3 5431   0.636   0.007   1.504  0.5459 -1.1428  0.1266
 1416SOL    MW4 5432   0.677   0.031   1.431  0.7096 -0.1911  0.5229
 1417SOL     OW 5433   3.913   6.007   1.002  0.1769 -0.0176  0.2768
 1417SOL    HW2 5434   3.835   6.060   0.985 -0.1858 -0.7435 -0.3680
 1417SOL    HW3 5435   3.958   6.004   0.918  0.6577  0.0074  0.5345
 1417SOL    MW4 5436   3.908   6.014   0.988  0.1925 -0.1101  0.2257
 1418SOL     OW 5437   5.212   0.252   5.078  0.9096 -0.4365 -0.0403
 1418SOL    HW2 5438   5.275   0.308   5.031  0.8934 -0.3891 -0.0059
 1418SOL    HW3 5439   5.133   0.306   5.085  1.2541 -0.0528  0.9639
 1418SOL    MW4 5440   5.210   0.267   5.072  0.9529 -0.3796  0.0967
 1419SOL     OW 5441   4.443   2.631   5.119  0.3743  0.2240 -1.0229
 1419SOL    HW2 5442   4.363   2.637   5.066  0.3729  1.4312 -0.9160
 1419SOL    HW3 5443   4.493   2.709   5.096  0.6953  0.4164  0.2403
 1419SOL    MW4 5444   4.439   2.642   5.109  0.4165  0.4087 -0.8421
 1420SOL     OW 5445   6.370   0.419   2.100  0.4595  0.2865  0.3051
 1420SOL    HW2 5446   6.315   0.354   2.056 -0.3821 -1.2140  3.2769
 1420SOL    HW3 5447   6.411   0.468   2.029 -0.0782 -2.4723 -2.1072
 1420SOL    MW4 5448   6.368   0.417   2.085  0.2775 -0.2755  0.3789
 1421SOL     OW 5449   4.823   1.213   4.795  0.6786 -0.1371  0.3686
 1421SOL    HW2 5450   4.792   1.276   4.730 -0.2818  0.2691  1.1956
 1421SOL    HW3 5451   4.844   1.135   4.744  0.3602  0.3122 -0.4762
 1421SOL    MW4 5452   4.822   1.211   4.780  0.5099 -0.0242  0.3662
 1422SOL     OW 5453   0.425   0.864   3.330  0.0838 -0.6037  0.6364
 1422SOL    HW2 5454   0.464   0.916   3.259 -0.1399 -0.2443  0.7707
 1422SOL    HW3 5455   0.442   0.773   3.306 -0.3120 -0.4997 -0.0625
 1422SOL    MW4 5456   0.433   0.859   3.318  0.0020 -0.5426  0.5619
 1423SOL     OW 5457   3.475   4.698   6.210 -0.6517 -0.2441 -0.0094
 1423SOL    HW2 5458   3.424   4.644   6.271 -0.0801  0.1382  0.8162
 1423SOL    HW3 5459   3.413   4.719   6.140 -0.9462 -1.8000 -0.2587
 1423SOL    MW4 5460   3.460   4.694   6.209 -0.6151 -0.3989  0.0667
 1424SOL     OW 5461   0.348   4.117   2.823  0.7753 -0.0739  0.4769
 1424SOL    HW2 5462   0.416   4.057   2.795 -0.1890 -1.1730  0.3961
 1424SOL    HW3 5463   0.293   4.130   2.745  1.5728  1.7950  0.1882
 1424SOL    MW4 5464   0.349   4.111   2.809  0.7533  0.0277  0.4281
 1425SOL     OW 5465   1.981   4.465   1.362 -0.0754 -0.0649  0.0832
 1425SOL    HW2 5466   1.989   4.410   1.440 -1.7745  2.0204  1.8479
 1425SOL    HW3 5467   2.018   4.550   1.388 -0.0662  0.4903 -1.6187
 1425SOL    MW4 5468   1.987   4.469   1.376 -0.2984  0.2835  0.0915
 1426SOL     OW 5469   4.861   0.011   0.247 -0.6711  0.1386  0.2487
 1426SOL    HW2 5470   4.932   0.041   0.191  1.6395 -3.9027  0.6229
 1426SOL    HW3 5471   4.885   0.040   0.335 -0.0805 -0.1863  0.1993
 1426SOL    MW4 5472   4.873   0.019   0.251 -0.2883 -0.4375  0.2916
 1427SOL     OW 5473   3.636   2.229   4.092 -0.1722  0.1113 -0.2890
 1427SOL    HW2 5474   3.706   2.285   4.060 -0.3833  2.2664  2.5589
 1427SOL    HW3 5475   3.610   2.269   4.175 -2.7565 -2.3107  0.2257
 1427SOL    MW4 5476   3.642   2.242   4.099 -0.5410  0.0761  0.1546
 1428SOL     OW 5477   3.318   5.639   0.093 -0.4096  0.2336  0.3081
 1428SOL    HW2 5478   3.229   5.609   0.075 -0.2391 -0.5147  0.6543
 1428SOL    HW3 5479   3.372   5.595   0.027 -0.4058  1.4309 -0.5048
 1428SOL    MW4 5480   3.314   5.629   0.082 -0.3866  0.2928  0.2465
 1429SOL     OW 5481   4.316   1.309   4.308  0.1209  0.1262 -0.6178
 1429SOL    HW2 5482   4.379   1.277   4.372 -1.5249  0.5200  1.3014
 1429SOL    HW3 5483   4.304   1.236   4.247  1.7936 -0.2305 -0.5553
 1429SOL    MW4 5484   4.323   1.295   4.309  0.1244  0.1311 -0.3564
 1430SOL     OW 5485   1.756   2.309   1.619  0.1667  1.0462  0.1671
 1430SOL    HW2 5486   1.779   2.228   1.573 -0.8701  0.3228  0.8694
 1430SOL    HW3 5487   1.721   2.366   1.551 -0.2754  0.4242 -0.1335
 1430SOL    MW4 5488   1.754   2.306   1.604 -0.0284  0.8687  0.2201
 1431SOL     OW 5489   2.179   3.092   1.961  0.2196 -0.1769  0.6225
 1431SOL    HW2 5490   2.104   3.048   2.002  0.4393  0.4201  1.6735
 1431SOL    HW3 5491   2.216   3.025   1.903 -2.3199  0.0947 -1.5707
 1431SOL    MW4 5492   2.174   3.077   1.959 -0.0865 -0.0623  0.4718
 1432SOL     OW 5493   1.251   2.424   0.599 -0.2648  0.0056  0.4883
 1432SOL    HW2 5494   1.336   2.391   0.570 -0.6469 -1.0519  0.5540
 1432SOL    HW3 5495   1.219   2.478   0.526  0.7694  1.0084  0.7435
 1432SOL    MW4 5496   1.258   2.427   0.586 -0.1788 -0.0016  0.5306
 1433SOL     OW 5497   4.852   2.020   1.324  0.1898  0.2787 -0.5884
 1433SOL    HW2 5498   4.819   2.062   1.245 -1.0058  0.3843 -0.0531
 1433SOL    HW3 5499   4.878   2.093   1.381  0.7530  0.2106 -0.7518
 1433SOL    MW4 5500   4.851   2.035   1.321  0.1063  0.2837 -0.5393
 1434SOL     OW 5501   3.257   3.939   2.918 -0.6434  0.3700  0.5083
 1434SOL    HW2 5502   3.186   3.908   2.975 -0.2601  0.0579  0.8257
 1434SOL    HW3 5503   3.231   3.912   2.830 -0.4845 -0.5804  0.7354
 1434SOL    MW4 5504   3.244   3.931   2.914 -0.5719  0.2034  0.5802
 1435SOL     OW 5505   0.061   2.902   3.548  0.2069 -0.3594 -0.2636
 1435SOL    HW2 5506   0.030   2.983   3.588 -1.0627 -1.3802  0.9271
 1435SOL    HW3 5507  -0.009   2.875   3.489  0.8670 -0.2998 -1.0835
 1435SOL    MW4 5508   0.048   2.909   3.546  0.1265 -0.4862 -0.2147
 1436SOL     OW 5509   2.675   3.658   1.921 -0.4308 -0.2587  0.0783
 1436SOL    HW2 5510   2.688   3.563   1.910 -0.5604 -0.1038 -1.5250
 1436SOL    HW3 5511   2.720   3.678   2.003  0.1218 -1.6100  0.1335
 1436SOL    MW4 5512   2.683   3.648   1.931 -0.3750 -0.4166 -0.1259
 1437SOL     OW 5513   4.238   2.792   2.936 -0.3037 -0.0752 -0.5590
 1437SOL    HW2 5514   4.212   2.706   2.968 -0.1561  0.3790  0.8464
 1437SOL    HW3 5515   4.250   2.845   3.015  0.1999  1.0690 -1.3657
 1437SOL    MW4 5516   4.236   2.788   2.950 -0.2178  0.1357 -0.4800
 1438SOL     OW 5517   0.428   3.124   0.988 -0.0745 -0.3816 -0.1859
 1438SOL    HW2 5518   0.457   3.215   0.983 -0.2656 -0.3690 -1.1257
 1438SOL    HW3 5519   0.473   3.089   1.065 -0.1290  0.5473  0.2783
 1438SOL    MW4 5520   0.438   3.131   0.998 -0.1069 -0.2574 -0.2486
 1439SOL     OW 5521   5.244   2.534   2.282 -0.3056 -0.0164 -0.6098
 1439SOL    HW2 5522   5.164   2.577   2.254 -1.4805 -1.1207  0.9006
 1439SOL    HW3 5523   5.289   2.600   2.336 -0.2642  0.5491 -1.3227
 1439SOL    MW4 5524   5.240   2.548   2.286 -0.4551 -0.0875 -0.5046
 1440SOL     OW 5525   2.696   3.290   4.014 -0.5572 -0.2447  0.3970
 1440SOL    HW2 5526   2.780   3.262   3.978 -0.1127  0.3463  0.9693
 1440SOL    HW3 5527   2.687   3.381   3.988 -1.6094 -0.6433 -0.7247
 1440SOL    MW4 5528   2.706   3.298   4.006 -0.6374 -0.2193  0.3245
 1441SOL     OW 5529   1.459   3.954   5.318 -0.3360  0.0446 -0.4988
 1441SOL    HW2 5530   1.416   3.869   5.330 -0.4560  0.2339  0.4904
 1441SOL    HW3 5531   1.488   3.953   5.227  1.3584 -1.8764 -0.0211
 1441SOL    MW4 5532   1.458   3.942   5.307 -0.1283 -0.1839 -0.3053
 1442SOL     OW 5533   0.977   5.601   3.631  0.3298  0.0441  0.5141
 1442SOL    HW2 5534   0.970   5.693   3.606 -1.0632  0.1188  1.0964
 1442SOL    HW3 5535   0.982   5.603   3.727  0.9326 -0.4669  0.5010
 1442SOL    MW4 5536   0.977   5.614   3.640  0.2255 -0.0135  0.5892
 1443SOL     OW 5537   3.971   2.218   5.365 -0.2464 -0.1414  0.1684
 1443SOL    HW2 5538   4.038   2.264   5.316 -1.8162  0.7877 -1.2188
 1443SOL    HW3 5539   4.001   2.127   5.367  1.6769  0.4698  0.7882
 1443SOL    MW4 5540   3.984   2.212   5.359 -0.1998  0.0618  0.0672
 1444SOL     OW 5541   5.089   5.551   4.953  0.3894 -0.0138 -0.1465
 1444SOL    HW2 5542   5.079   5.636   4.911 -1.7890 -0.0713  0.1232
 1444SOL    HW3 5543   5.123   5.494   4.884 -1.3313  0.3276 -1.3464
 1444SOL    MW4 5544   5.092   5.555   4.938 -0.1250  0.0237 -0.2692
 1445SOL     OW 5545   5.241   3.641   1.280  0.7560 -0.1541 -0.5405
 1445SOL    HW2 5546   5.319   3.624   1.227  2.1505 -1.6142  1.7959
 1445SOL    HW3 5547   5.251   3.584   1.356 -0.3955  2.7652  2.0167
 1445SOL    MW4 5548   5.253   3.631   1.283  0.7881  0.0384  0.1052
 1446SOL     OW 5549   4.824   3.198   1.663 -0.2853 -0.0486  0.2053
 1446SOL    HW2 5550   4.832   3.207   1.568  1.3184  2.3017  0.4712
 1446SOL    HW3 5551   4.740   3.240   1.684 -0.5470 -0.3920 -0.1381
 1446SOL    MW4 5552   4.814   3.205   1.653 -0.1083  0.2162  0.1951
 1447SOL     OW 5553   6.144   1.512   4.134  0.3005  0.0524 -0.0386
 1447SOL    HW2 5554   6.123   1.605   4.130  0.3637  0.1708  1.6515
 1447SOL    HW3 5555   6.145   1.491   4.227  0.9402 -1.4966 -0.3503
 1447SOL    MW4 5556   6.142   1.521   4.146  0.3932 -0.1363  0.1433
 1448SOL     OW 5557   3.142   2.775   1.156 -0.3336  0.4368 -0.1292
 1448SOL    HW2 5558   3.195   2.774   1.236  0.8222  0.0903 -0.8691
 1448SOL    HW3 5559   3.206   2.785   1.086 -1.0395 -1.8855 -1.2069
 1448SOL    MW4 5560   3.158   2.776   1.158 -0.2742  0.0847 -0.3690
 1449SOL     OW 5561   3.378   1.123   2.359 -0.4063  0.1148 -0.0381
 1449SOL    HW2 5562   3.340   1.056   2.416  0.3133 -0.4085 -0.1560
 1449SOL    HW3 5563   3.349   1.099   2.271 -1.1095  0.6371  0.0471
 1449SOL    MW4 5564   3.369   1.111   2.355 -0.4041  0.1146 -0.0424
 1450SOL     OW 5565   2.520   2.341   4.024  0.7084  0.5125 -0.7090
 1450SOL    HW2 5566   2.563   2.375   4.102  0.1665 -0.1122 -0.1327
 1450SOL    HW3 5567   2.482   2.258   4.051  0.8808  0.0779 -1.7538
 1450SOL    MW4 5568   2.520   2.335   4.038  0.6596  0.3727 -0.7708
 1451SOL     OW 5569   4.536   1.720   3.294 -0.1764  0.2151  0.0050
 1451SOL    HW2 5570   4.504   1.784   3.230  0.1707  1.3839  0.9690
 1451SOL    HW3 5571   4.493   1.743   3.376 -1.9372 -2.3153 -0.0789
 1451SOL    MW4 5572   4.526   1.731   3.296 -0.3630  0.0355  0.1211
 1452SOL     OW 5573   2.274   2.853   1.839  0.1577 -0.3763 -0.4201
 1452SOL    HW2 5574   2.233   2.776   1.799 -1.6237 -0.4857  1.4405
 1452SOL    HW3 5575   2.367   2.843   1.820 -0.2236 -2.0978 -1.6476
 1452SOL    MW4 5576   2.281   2.841   1.831 -0.1277 -0.6178 -0.3365
 1453SOL     OW 5577   0.134   6.385   0.918  1.2268  0.2740 -0.1887
 1453SOL    HW2 5578   0.181   6.411   0.838  0.7538 -0.6644 -0.7911
 1453SOL    HW3 5579   0.165   6.296   0.935 -0.0129 -0.2092 -0.3639
 1453SOL    MW4 5580   0.145   6.377   0.909  1.0008  0.0864 -0.2913
 1454SOL     OW 5581   4.351   2.847   4.448 -0.4752  0.5833  0.1538
 1454SOL    HW2 5582   4.401   2.885   4.376 -0.1993  1.1006  0.6178
 1454SOL    HW3 5583   4.380   2.894   4.526  0.4981 -1.1316  0.8889
 1454SOL    MW4 5584   4.361   2.858   4.449 -0.3104  0.4253  0.3120
 1455SOL     OW 5585   5.764   2.904   3.042 -0.2290 -0.2780  0.1570
 1455SOL    HW2 5586   5.764   2.992   3.005 -0.0138  0.4954  1.8845
 1455SOL    HW3 5587   5.745   2.846   2.968 -1.0471  1.2662 -0.8868
 1455SOL    MW4 5588   5.762   2.908   3.027 -0.3086  0.0278  0.2472
 1456SOL     OW 5589   4.747   3.855   3.177 -0.0382 -0.0851 -0.3027
 1456SOL    HW2 5590   4.706   3.939   3.195 -0.5139 -0.1236 -1.1544
 1456SOL    HW3 5591   4.681   3.790   3.201 -0.8161 -0.1298 -2.3894
 1456SOL    MW4 5592   4.733   3.858   3.183 -0.2036 -0.0960 -0.6904
 1457SOL     OW 5593   3.944   0.867   1.544 -0.5804 -0.0200  0.0509
 1457SOL    HW2 5594   3.974   0.943   1.494 -0.6755 -0.6493 -0.9899
 1457SOL    HW3 5595   4.013   0.801   1.530 -1.5922 -0.9032 -0.9761
 1457SOL    MW4 5596   3.957   0.868   1.536 -0.7264 -0.2195 -0.2219
 1458SOL     OW 5597   1.143   5.912   4.132 -0.2355 -0.3971 -0.3112
 1458SOL    HW2 5598   1.120   5.920   4.224  0.6852  0.9384 -0.1746
 1458SOL    HW3 5599   1.160   5.818   4.120 -0.6812 -0.6374  0.7809
 1458SOL    MW4 5600   1.142   5.901   4.142 -0.1728 -0.2526 -0.1491
 1459SOL     OW 5601   1.854   3.604   4.040 -0.0330 -0.1472  0.4956
 1459SOL    HW2 5602   1.934   3.600   4.092 -1.0764  0.9302  2.2855
 1459SOL    HW3 5603   1.792   3.653   4.094 -1.7255 -0.4092 -1.0871
 1459SOL    MW4 5604   1.856   3.610   4.054 -0.3940 -0.0396  0.5229
 1460SOL     OW 5605   3.809   5.110   0.548  0.3377  0.3030  0.4858
 1460SOL    HW2 5606   3.836   5.199   0.528 -0.8278  0.6137  0.2325
 1460SOL    HW3 5607   3.821   5.102   0.642  1.5999  0.3043  0.3531
 1460SOL    MW4 5608   3.814   5.120   0.558  0.3505  0.3442  0.4349
 1461SOL     OW 5609   4.263   5.492   0.829 -0.3409 -0.3576 -0.2884
 1461SOL    HW2 5610   4.292   5.431   0.896  0.1617 -2.0756 -1.9618
 1461SOL    HW3 5611   4.324   5.565   0.834 -0.5697 -0.2375  1.3465
 1461SOL    MW4 5612   4.275   5.493   0.838 -0.3048 -0.5685 -0.2935
 1462SOL     OW 5613   0.206   6.013   3.163 -0.5075 -0.1222 -0.1202
 1462SOL    HW2 5614   0.253   5.995   3.081 -2.9636 -1.2352 -1.3928
 1462SOL    HW3 5615   0.262   5.976   3.231 -0.0454 -2.5001 -1.6599
 1462SOL    MW4 5616   0.220   6.005   3.161 -0.7706 -0.5828 -0.4913
 1463SOL     OW 5617   3.940   4.922   2.376  0.3634  1.0393  0.0034
 1463SOL    HW2 5618   3.981   4.964   2.452  1.6759  0.4756 -0.3658
 1463SOL    HW3 5619   3.977   4.968   2.300  1.5813 -0.4895 -0.3936
 1463SOL    MW4 5620   3.950   4.933   2.376  0.6973  0.7632 -0.0976
 1464SOL     OW 5621   1.036   6.393   1.397 -0.5793 -0.3868 -0.6665
 1464SOL    HW2 5622   1.001   6.335   1.330 -1.8991 -1.1006  0.5662
 1464SOL    HW3 5623   0.982   6.375   1.474 -1.9925  3.4511 -0.5527
 1464SOL    MW4 5624   1.024   6.383   1.399 -0.9399  0.0254 -0.4889
 1465SOL     OW 5625   0.714   0.387   2.251  0.5437 -0.0209 -0.4733
 1465SOL    HW2 5626   0.708   0.299   2.214 -0.2034 -0.1904  0.0309
 1465SOL    HW3 5627   0.780   0.430   2.198  0.1493 -0.5411 -1.4206
 1465SOL    MW4 5628   0.722   0.381   2.239  0.3931 -0.1119 -0.5317
 1466SOL     OW 5629   1.871   5.877   1.011 -0.0184 -0.6949  0.2865
 1466SOL    HW2 5630   1.811   5.950   0.997 -0.0034 -0.7037  0.1699
 1466SOL    HW3 5631   1.927   5.905   1.083  0.8465 -0.0414 -0.6188
 1466SOL    MW4 5632   1.870   5.890   1.018  0.0977 -0.6098  0.1516
 1467SOL     OW 5633   2.481   1.445   3.357  0.1293  0.4569 -0.2124
 1467SOL    HW2 5634   2.534   1.520   3.383  0.9909 -0.0205 -0.5618
 1467SOL    HW3 5635   2.457   1.402   3.439 -0.2872  1.0518 -0.0188
 1467SOL    MW4 5636   2.485   1.449   3.371  0.1880  0.4724 -0.2329
 1468SOL     OW 5637   0.455   0.473   1.202  0.8578 -0.1995  0.0698
 1468SOL    HW2 5638   0.383   0.426   1.160  1.9280 -2.4145  0.5977
 1468SOL    HW3 5639   0.411   0.540   1.256 -0.6440  0.4919 -1.8954
 1468SOL    MW4 5640   0.439   0.476   1.204  0.8008 -0.4006 -0.1198
 1469SOL     OW 5641   6.033   1.387   0.442 -0.1962  0.2395 -0.0641
 1469SOL    HW2 5642   6.084   1.441   0.502  0.7088  3.8457 -3.6348
 1469SOL    HW3 5643   5.964   1.445   0.409 -0.1183 -1.1327 -3.0296
 1469SOL    MW4 5644   6.031   1.402   0.445 -0.0665  0.5343 -0.9265
 1470SOL     OW 5645   4.841   2.734   5.916  0.2721  0.1684  0.3553
 1470SOL    HW2 5646   4.924   2.698   5.885  0.7939  2.0658 -0.5493
 1470SOL    HW3 5647   4.864   2.811   5.966 -0.8593 -0.4052  1.8357
 1470SOL    MW4 5648   4.855   2.739   5.918  0.1917  0.3431  0.4312
 1471SOL     OW 5649   4.726   3.400   5.282  0.1168  0.0577  0.8442
 1471SOL    HW2 5650   4.726   3.385   5.376 -1.2768 -1.4427  0.6455
 1471SOL    HW3 5651   4.733   3.495   5.272  1.4071  0.1616  2.4072
 1471SOL    MW4 5652   4.727   3.410   5.293  0.1031 -0.1266  1.0242
 1472SOL     OW 5653   6.426   3.705   1.313 -1.0465 -0.2843  0.0246
 1472SOL    HW2 5654   6.367   3.767   1.355  1.9636  1.5194  1.9782
 1472SOL    HW3 5655   6.478   3.669   1.385  1.6641 -0.1136 -1.7093
 1472SOL    MW4 5656   6.425   3.708   1.328 -0.2917 -0.0238  0.0536
 1473SOL     OW 5657   1.388   0.888   0.750  0.8157 -0.5435  0.1400
 1473SOL    HW2 5658   1.388   0.964   0.693 -0.9019 -1.1940 -0.8234
 1473SOL    HW3 5659   1.316   0.904   0.811  2.8366  0.3093  2.4537
 1473SOL    MW4 5660   1.378   0.900   0.751  0.8557 -0.5168  0.3181
 1474SOL     OW 5661   0.992   0.346   4.959  0.5256 -0.0762  0.4502
 1474SOL    HW2 5662   0.921   0.304   4.910  0.5714 -0.3567  0.6258
 1474SOL    HW3 5663   1.060   0.362   4.893 -0.0175  0.9328  0.1126
 1474SOL    MW4 5664   0.991   0.343   4.944  0.4600  0.0199  0.4288
 1475SOL     OW 5665   5.358   2.335   0.834  0.6566 -0.2537  0.4680
 1475SOL    HW2 5666   5.432   2.278   0.810  0.5696 -1.1468  2.2003
 1475SOL    HW3 5667   5.332   2.305   0.921 -2.2501 -0.4624 -0.3944
 1475SOL    MW4 5668   5.364   2.324   0.842  0.2616 -0.3991  0.5828
 1476SOL     OW 5669   3.352   2.800   4.959 -0.3290 -0.1507  0.7081
 1476SOL    HW2 5670   3.264   2.831   4.941 -0.4368 -1.2909 -0.9190
 1476SOL    HW3 5671   3.355   2.712   4.922  1.0114 -0.7652  2.1430
 1476SOL    MW4 5672   3.341   2.792   4.952 -0.1664 -0.3822  0.6827
 1477SOL     OW 5673   5.228   0.970   2.441  0.0053  0.4867 -0.2764
 1477SOL    HW2 5674   5.217   1.065   2.451 -0.2261  0.2466  2.5471
 1477SOL    HW3 5675   5.293   0.947   2.507 -0.1715 -1.3651 -0.7156
 1477SOL    MW4 5676   5.235   0.980   2.451 -0.0486  0.2107  0.0382
 1478SOL     OW 5677   6.050   0.427   1.425 -0.2230 -0.0042  0.5864
 1478SOL    HW2 5678   6.088   0.339   1.425 -2.0619 -0.8699 -0.0147
 1478SOL    HW3 5679   6.116   0.482   1.383  0.5960 -1.2985  0.1057
 1478SOL    MW4 5680   6.064   0.422   1.419 -0.3575 -0.2892  0.4436
 1479SOL     OW 5681   2.712   6.256   2.854 -0.0422  0.5311  0.3580
 1479SOL    HW2 5682   2.760   6.235   2.935 -2.2186  0.4826  1.7179
 1479SOL    HW3 5683   2.668   6.175   2.831  0.4676  0.5843 -0.8579
 1479SOL    MW4 5684   2.713   6.242   2.862 -0.2621  0.5317  0.3770
 1480SOL     OW 5685   6.189   4.588   5.109 -0.5842 -0.3727  0.8059
 1480SOL    HW2 5686   6.148   4.604   5.024  0.4058  2.1494  0.7175
 1480SOL    HW3 5687   6.180   4.494   5.123  0.8426 -1.2242 -2.9361
 1480SOL    MW4 5688   6.182   4.578   5.100 -0.2653 -0.1523  0.3006
 1481SOL     OW 5689   5.236   5.308   6.300  0.1881  0.3573 -0.4864
 1481SOL    HW2 5690   5.224   5.277   6.390  0.0763  1.6284 -0.0352
 1481SOL    HW3 5691   5.148   5.334   6.272  0.5418  2.1204 -0.1010
 1481SOL    MW4 5692   5.223   5.308   6.308  0.2200  0.7576 -0.3760
 1482SOL     OW 5693   1.746   1.781   2.321  0.3798 -0.2233  0.3841
 1482SOL    HW2 5694   1.741   1.864   2.369 -0.1907 -0.2560  0.3863
 1482SOL    HW3 5695   1.839   1.758   2.324  0.2679 -0.6613  2.2419
 1482SOL    MW4 5696   1.758   1.789   2.328  0.2898 -0.2854  0.6295
 1483SOL     OW 5697   3.870   5.131   3.398 -0.0778 -0.2108  0.6853
 1483SOL    HW2 5698   3.805   5.067   3.426 -1.5376  1.5429  1.4847
 1483SOL    HW3 5699   3.919   5.086   3.328 -3.0252 -1.1378 -0.9513
 1483SOL    MW4 5700   3.868   5.116   3.392 -0.6593 -0.1017  0.5748
 1484SOL     OW 5701   4.198   4.304   1.723 -0.0391 -0.7555  0.2033
 1484SOL    HW2 5702   4.255   4.380   1.734 -0.9993  0.4526 -2.3550
 1484SOL    HW3 5703   4.109   4.340   1.728 -0.5148 -1.6614 -1.1679
 1484SOL    MW4 5704   4.194   4.319   1.725 -0.2286 -0.7156 -0.3151
 1485SOL     OW 5705   1.312   5.772   5.657 -0.1179  0.1206  0.0379
 1485SOL    HW2 5706   1.314   5.848   5.715 -0.5702  0.9665 -1.0150
 1485SOL    HW3 5707   1.292   5.698   5.714 -1.0183  0.9998  0.8991
 1485SOL    MW4 5708   1.310   5.772   5.672 -0.2964  0.3482  0.0126
 1486SOL     OW 5709   2.828   5.601   1.717 -0.1817  0.6674  0.0983
 1486SOL    HW2 5710   2.851   5.682   1.672 -1.7418  0.9156 -0.2909
 1486SOL    HW3 5711   2.792   5.630   1.801  0.1542  0.3248  0.3651
 1486SOL    MW4 5712   2.826   5.616   1.722 -0.3432  0.6550  0.0822
 1487SOL     OW 5713   2.290   4.907   3.302 -0.3954 -0.4123 -0.0123
 1487SOL    HW2 5714   2.259   4.973   3.239  0.0771 -0.9779 -0.8495
 1487SOL    HW3 5715   2.218   4.897   3.363 -0.8980  0.0860 -0.5106
 1487SOL    MW4 5716   2.277   4.915   3.302 -0.3994 -0.4212 -0.1885
 1488SOL     OW 5717   5.365   0.519   1.536 -0.7042  0.3148  0.2053
 1488SOL    HW2 5718   5.322   0.465   1.603 -0.7813  0.7742  0.5302
 1488SOL    HW3 5719   5.417   0.457   1.485 -1.0074 -0.1080  0.4042
 1488SOL    MW4 5720   5.366   0.503   1.538 -0.7544  0.3196  0.2744
 1489SOL     OW 5721   1.078   0.029   5.794 -0.3490  0.1283  0.2257
 1489SOL    HW2 5722   1.172   0.046   5.797 -0.1508 -0.6311 -1.0135
 1489SOL    HW3 5723   1.042   0.100   5.742 -0.5632  0.7727  1.2363
 1489SOL    MW4 5724   1.086   0.040   5.788 -0.3511  0.1131  0.1955
 1490SOL     OW 5725   6.144   2.289   6.195 -0.2584 -0.4704  0.2984
 1490SOL    HW2 5726   6.081   2.281   6.123  1.1668  3.3847 -1.6377
 1490SOL    HW3 5727   6.094   2.330   6.266 -0.6928 -0.3942 -0.0438
 1490SOL    MW4 5728   6.129   2.293   6.195 -0.1277  0.0483 -0.0022
 1491SOL     OW 5729   3.293   0.558   5.974  0.0588 -0.3441  0.3636
 1491SOL    HW2 5730   3.286   0.473   6.018  0.3761 -0.2079  0.6833
 1491SOL    HW3 5731   3.263   0.621   6.039  2.4577  0.0782  1.1606
 1491SOL    MW4 5732   3.288   0.555   5.988  0.4171 -0.2704  0.5109
 1492SOL     OW 5733   5.542   6.329   6.185  0.3065  0.0752 -0.6756
 1492SOL    HW2 5734   5.532   6.378   6.103  2.0729 -0.5238 -1.3134
 1492SOL    HW3 5735   5.636   6.333   6.203  0.0378 -0.3759  0.9775
 1492SOL    MW4 5736   5.553   6.336   6.176  0.5041 -0.0633 -0.5416
 1493SOL     OW 5737   0.742   2.873   3.621 -0.1220 -0.3975 -0.3757
 1493SOL    HW2 5738   0.808   2.852   3.686 -0.3713  1.7454  0.6624
 1493SOL    HW3 5739   0.659   2.867   3.669 -0.3143  1.0932 -0.4789
 1493SOL    MW4 5740   0.740   2.870   3.636 -0.1803  0.0819 -0.2523
 1494SOL     OW 5741   6.344   3.052   1.591 -0.4401 -0.2094 -0.0016
 1494SOL    HW2 5742   6.438   3.067   1.591 -0.5495  0.6366  1.4617
 1494SOL    HW3 5743   6.313   3.091   1.673 -2.3448  1.4815 -1.3911
 1494SOL    MW4 5744   6.352   3.059   1.602 -0.7058  0.1253  0.0081
 1495SOL     OW 5745   4.208   3.585   6.358 -1.0392  0.2549  0.1129
 1495SOL    HW2 5746   4.134   3.579   6.418 -1.2858  0.5163 -0.1547
 1495SOL    HW3 5747   4.249   3.499   6.360 -1.3148  0.1277  0.3139
 1495SOL    MW4 5748   4.204   3.573   6.366 -1.1081  0.2726  0.1041
 1496SOL     OW 5749   3.106   5.853   4.111  0.0163 -0.1662 -0.1126
 1496SOL    HW2 5750   3.117   5.800   4.032 -0.7448  0.2627 -0.5189
 1496SOL    HW3 5751   3.014   5.840   4.136  0.5694 -1.2853  1.4300
 1496SOL    MW4 5752   3.095   5.844   4.104 -0.0111 -0.2573  0.0373
 1497SOL     OW 5753   3.301   2.622   2.936 -0.5093  0.9840  0.1358
 1497SOL    HW2 5754   3.210   2.644   2.958 -0.1234  1.5182  1.3283
 1497SOL    HW3 5755   3.351   2.699   2.964  0.3887  0.4038  0.1650
 1497SOL    MW4 5756   3.295   2.635   2.943 -0.3399  0.9780  0.2970
 1498SOL     OW 5757   0.604   2.650   4.015  0.0553 -0.2040 -0.2027
 1498SOL    HW2 5758   0.670   2.623   4.079 -0.5114  0.9284  0.8893
 1498SOL    HW3 5759   0.540   2.578   4.015 -0.9940  0.6314  2.0477
 1498SOL    MW4 5760   0.604   2.637   4.023 -0.1579  0.0556  0.2383
 1499SOL     OW 5761   2.031   4.533   3.432 -0.3117  0.0277  0.4535
 1499SOL    HW2 5762   2.023   4.444   3.398  1.5540  0.4926 -1.3764
 1499SOL    HW3 5763   2.122   4.540   3.460 -0.4388  1.3541  0.6212
 1499SOL    MW4 5764   2.042   4.522   3.432 -0.0823  0.2641  0.2342
 1500SOL     OW 5765   6.268   2.792   2.037 -0.1229 -0.3433 -0.2855
 1500SOL    HW2 5766   6.246   2.765   1.948 -0.0576  0.5450 -0.5791
 1500SOL    HW3 5767   6.351   2.747   2.056  0.6080  0.5630 -1.2104
 1500SOL    MW4 5768   6.276   2.782   2.028 -0.0178 -0.1065 -0.4463
 1501SOL     OW 5769   0.879   2.274   3.667  0.6278 -0.2979  0.0882
 1501SOL    HW2 5770   0.812   2.207   3.675  0.1525  0.0218 -1.0854
 1501SOL    HW3 5771   0.845   2.348   3.718 -0.5494  0.3236 -1.5038
 1501SOL    MW4 5772   0.866   2.275   3.675  0.4098 -0.1737 -0.2767
 1502SOL     OW 5773   2.336   1.456   3.083  0.1838 -0.8531  0.3992
 1502SOL    HW2 5774   2.401   1.442   3.152  0.2742 -1.2417  0.2352
 1502SOL    HW3 5775   2.373   1.526   3.029  0.0430 -0.4396  0.8251
 1502SOL    MW4 5776   2.350   1.463   3.085  0.1772 -0.8498  0.4337
 1503SOL     OW 5777   4.860   5.844   0.372 -0.0779 -0.4343 -0.9864
 1503SOL    HW2 5778   4.818   5.803   0.296 -1.0682 -1.6829  0.1886
 1503SOL    HW3 5779   4.799   5.830   0.444  1.1226  0.1621  0.1878
 1503SOL    MW4 5780   4.846   5.836   0.372 -0.0502 -0.5204 -0.6765
 1504SOL     OW 5781   3.867   4.567   2.727 -0.4389  0.1474 -0.4388
 1504SOL    HW2 5782   3.957   4.583   2.755 -0.5024  1.5013 -0.9396
 1504SOL    HW3 5783   3.813   4.596   2.800 -0.4871 -1.1564  0.0793
 1504SOL    MW4 5784   3.872   4.573   2.740 -0.4537  0.1540 -0.4365
 1505SOL     OW 5785   1.699   1.232   3.676  0.2731  0.1267 -0.4271
 1505SOL    HW2 5786   1.627   1.190   3.628 -0.2097  1.9151 -1.3286
 1505SOL    HW3 5787   1.742   1.287   3.611  0.7276  1.2368  0.7810
 1505SOL    MW4 5788   1.695   1.234   3.661  0.2694  0.5091 -0.3866
 1506SOL     OW 5789   0.646   5.456   1.784  0.0040  0.3128  0.0868
 1506SOL    HW2 5790   0.628   5.367   1.754 -1.7647  1.0915 -1.3184
 1506SOL    HW3 5791   0.707   5.491   1.719  0.4452  0.2494  0.4601
 1506SOL    MW4 5792   0.652   5.449   1.771 -0.1711  0.4072 -0.0494
 1507SOL     OW 5793   2.292   3.388   5.547  0.1194  0.1136 -0.0243
 1507SOL    HW2 5794   2.358   3.453   5.569 -2.3482  3.6362 -1.9605
 1507SOL    HW3 5795   2.250   3.367   5.631  0.1912  2.0550  0.5431
 1507SOL    MW4 5796   2.295   3.393   5.561 -0.1967  0.8345 -0.2049
 1508SOL     OW 5797   4.627   6.402   3.804  0.2545  0.2026  0.1498
 1508SOL    HW2 5798   4.679   6.339   3.856  0.2151  0.8184  0.9544
 1508SOL    HW3 5799   4.608   6.355   3.723  1.1311 -0.4416  0.2928
 1508SOL    MW4 5800   4.632   6.387   3.800  0.3650  0.1989  0.2748
 1509SOL     OW 5801   0.565   2.071   2.052  0.1121 -0.3365 -0.3539
 1509SOL    HW2 5802   0.636   2.010   2.030 -0.1068 -0.4835 -0.6720
 1509SOL    HW3 5803   0.571   2.140   1.986 -1.3003 -1.4019 -1.6686
 1509SOL    MW4 5804   0.575   2.072   2.040 -0.1032 -0.4965 -0.5694
 1510SOL     OW 5805   0.764   0.571   4.934 -0.2470  0.3658  0.1823
 1510SOL    HW2 5806   0.773   0.641   4.999 -1.7040  2.0193 -1.2835
 1510SOL    HW3 5807   0.839   0.514   4.950  1.0956  2.3272  1.3727
 1510SOL    MW4 5808   0.776   0.573   4.945 -0.2621  0.8427  0.1460
 1511SOL     OW 5809   4.882   0.474   1.265 -0.9526  0.0831 -0.1808
 1511SOL    HW2 5810   4.894   0.569   1.263 -2.2805  0.2714 -1.5334
 1511SOL    HW3 5811   4.830   0.458   1.343  2.5037 -0.0708  2.3125
 1511SOL    MW4 5812   4.877   0.485   1.275 -0.6718  0.0877 -0.0303
 1512SOL     OW 5813   6.414   5.277   1.280  0.0208  0.0561 -0.2708
 1512SOL    HW2 5814   6.450   5.289   1.193  0.8510 -0.1031  0.0395
 1512SOL    HW3 5815   6.357   5.352   1.294 -0.2025  0.0249 -0.9862
 1512SOL    MW4 5816   6.411   5.288   1.271  0.1009  0.0310 -0.3242
 1513SOL     OW 5817   3.326   1.203   6.045 -0.2004  0.1971  0.4461
 1513SOL    HW2 5818   3.408   1.230   6.003 -0.1932  1.8387  1.4145
 1513SOL    HW3 5819   3.339   1.111   6.066  0.7863  0.0207 -0.8078
 1513SOL    MW4 5820   3.339   1.195   6.042 -0.0692  0.3904  0.4084
 1514SOL     OW 5821   1.815   4.697   3.502 -0.7706  0.5604 -0.0935
 1514SOL    HW2 5822   1.753   4.624   3.496 -1.1459  1.0101 -2.8416
 1514SOL    HW3 5823   1.893   4.666   3.457 -0.8219  1.7190 -1.0053
 1514SOL    MW4 5824   1.817   4.683   3.495 -0.8269  0.7726 -0.5764
 1515SOL     OW 5825   4.031   0.362   3.661  0.5327 -0.2366  0.0616
 1515SOL    HW2 5826   4.018   0.401   3.747 -0.8164 -1.1749  0.3185
 1515SOL    HW3 5827   4.075   0.279   3.679 -0.7139 -0.9351 -0.0302
 1515SOL    MW4 5828   4.035   0.356   3.675  0.1903 -0.4526  0.0834
 1516SOL     OW 5829   5.351   2.612   0.293 -0.3299 -0.3267 -0.0498
 1516SOL    HW2 5830   5.346   2.587   0.200  2.1672  0.3107 -0.4425
 1516SOL    HW3 5831   5.389   2.535   0.336  0.0527 -0.0421  0.1302
 1516SOL    MW4 5832   5.356   2.598   0.286  0.0500 -0.2050 -0.0778
 1517SOL     OW 5833   2.287   2.836   2.666 -0.0451  0.5678 -0.2418
 1517SOL    HW2 5834   2.338   2.801   2.592  2.5115  0.3288  1.5105
 1517SOL    HW3 5835   2.274   2.928   2.644  1.8038  0.8177 -0.4698
 1517SOL    MW4 5836   2.292   2.843   2.653  0.5361  0.5692 -0.0407
 1518SOL     OW 5837   2.165   0.675   3.851  0.0480 -0.1713  0.2104
 1518SOL    HW2 5838   2.239   0.616   3.839  0.5772  0.5202 -0.0233
 1518SOL    HW3 5839   2.200   0.747   3.904 -0.8157 -0.4853  1.2566
 1518SOL    MW4 5840   2.179   0.677   3.857  0.0039 -0.1215  0.3176
 1519SOL     OW 5841   4.528   0.776   5.775 -0.3277  0.5299 -0.3693
 1519SOL    HW2 5842   4.504   0.752   5.864  2.3675 -2.7979 -0.3384
 1519SOL    HW3 5843   4.562   0.866   5.782 -0.8128  0.5815  1.8019
 1519SOL    MW4 5844   4.529   0.785   5.787 -0.0361  0.0977 -0.0788
 1520SOL     OW 5845   0.364   5.650   4.679  0.0693  0.3433  0.1394
 1520SOL    HW2 5846   0.269   5.638   4.669  0.0103  1.6390 -1.2941
 1520SOL    HW3 5847   0.403   5.575   4.634 -0.2353 -0.7294  1.5848
 1520SOL    MW4 5848   0.356   5.639   4.672  0.0213  0.3727  0.1410
 1521SOL     OW 5849   2.110   0.952   0.319 -0.1731 -0.9009 -0.8646
 1521SOL    HW2 5850   2.102   0.984   0.230  0.5747  1.4884 -0.1510
 1521SOL    HW3 5851   2.022   0.924   0.343 -0.7340 -0.0109 -1.8081
 1521SOL    MW4 5852   2.097   0.953   0.311 -0.1484 -0.4682 -0.8949
 1522SOL     OW 5853   4.769   5.639   1.751 -0.1051  0.3136  0.3797
 1522SOL    HW2 5854   4.724   5.713   1.711  1.3489  0.8279 -0.3644
 1522SOL    HW3 5855   4.860   5.646   1.721  0.1846 -1.4867  0.6914
 1522SOL    MW4 5856   4.775   5.650   1.742  0.1249  0.1439  0.3227
 1523SOL     OW 5857   5.479   0.756   1.812 -0.4397  0.6582 -0.2371
 1523SOL    HW2 5858   5.509   0.769   1.722 -0.5525  1.3317 -0.1800
 1523SOL    HW3 5859   5.530   0.819   1.864 -1.4628  1.3560 -0.0460
 1523SOL    MW4 5860   5.490   0.766   1.807 -0.5895  0.8391 -0.2043
 1524SOL     OW 5861   2.405   3.452   3.677  0.0978  0.0002 -0.2985
 1524SOL    HW2 5862   2.441   3.371   3.715  0.2261 -0.1282 -0.6889
 1524SOL    HW3 5863   2.363   3.423   3.596 -3.4866 -0.3754  1.5070
 1524SOL    MW4 5864   2.404   3.437   3.671 -0.3582 -0.0663 -0.1118
 1525SOL     OW 5865   1.263   2.482   2.826 -0.3363 -0.2997  0.0273
 1525SOL    HW2 5866   1.179   2.445   2.852 -0.0652 -0.1518  1.1461
 1525SOL    HW3 5867   1.321   2.468   2.900  0.1787  1.0429 -0.0758
 1525SOL    MW4 5868   1.259   2.475   2.839 -0.2326 -0.1030  0.1613
 1526SOL     OW 5869   4.578   5.191   6.195  0.2873  0.0398 -0.2600
 1526SOL    HW2 5870   4.656   5.170   6.143 -0.9873 -1.1779 -1.7735
 1526SOL    HW3 5871   4.535   5.261   6.147 -1.1120 -1.3613 -1.1135
 1526SOL    MW4 5872   4.583   5.198   6.182 -0.0655 -0.3057 -0.5723
 1527SOL     OW 5873   6.128   2.727   0.008  0.1582  0.5897 -0.1287
 1527SOL    HW2 5874   6.074   2.713  -0.070  1.3134  0.0264 -0.8524
 1527SOL    HW3 5875   6.182   2.803  -0.013 -1.2880  2.0602  1.1447
 1527SOL    MW4 5876   6.128   2.735  -0.005  0.1198  0.7094 -0.0562
 1528SOL     OW 5877   0.341   5.394   4.928 -0.1249 -0.0997 -0.5582
 1528SOL    HW2 5878   0.408   5.461   4.913  1.6472 -1.7616 -0.4585
 1528SOL    HW3 5879   0.261   5.431   4.889  1.3147  1.0848 -2.5723
 1528SOL    MW4 5880   0.339   5.408   4.921  0.2989 -0.1627 -0.8108
 1529SOL     OW 5881   2.176   5.580   5.368  0.3337  0.1962 -0.3978
 1529SOL    HW2 5882   2.266   5.557   5.344  0.5630  1.0442 -0.3920
 1529SOL    HW3 5883   2.154   5.520   5.438  0.4236 -0.8968 -1.2823
 1529SOL    MW4 5884   2.185   5.569   5.374  0.3758  0.1639 -0.5138
 1530SOL     OW 5885   6.306   4.994   4.512 -0.0618 -0.5917  0.1214
 1530SOL    HW2 5886   6.257   4.935   4.455 -0.3370 -1.0080  0.7662
 1530SOL    HW3 5887   6.321   4.943   4.592 -1.2525  0.5504  1.1359
 1530SOL    MW4 5888   6.302   4.979   4.515 -0.2552 -0.4959  0.3403
 1531SOL     OW 5889   5.438   5.008   4.201 -0.1524 -0.1358  0.7308
 1531SOL    HW2 5890   5.522   5.052   4.212  0.1094  0.0113 -1.4482
 1531SOL    HW3 5891   5.448   4.924   4.247  1.2171 -0.1554  0.4328
 1531SOL    MW4 5892   5.450   5.003   4.208  0.0628 -0.1189  0.4040
 1532SOL     OW 5893   2.756   3.985   2.039 -0.6787 -0.6886  0.0377
 1532SOL    HW2 5894   2.692   4.003   1.971 -1.8331  0.4687  1.3652
 1532SOL    HW3 5895   2.705   3.941   2.108  0.8180 -3.5556 -0.5346
 1532SOL    MW4 5896   2.741   3.981   2.039 -0.6336 -0.9142  0.1373
 1533SOL     OW 5897   6.033   2.063   1.025  0.2855  0.3094  0.2061
 1533SOL    HW2 5898   6.028   2.123   1.099 -0.2742 -0.5263  0.8682
 1533SOL    HW3 5899   5.952   2.012   1.030  0.6764 -0.3980 -0.4277
 1533SOL    MW4 5900   6.021   2.064   1.035  0.2632  0.1058  0.2098
 1534SOL     OW 5901   1.735   3.140   3.111 -0.0726  0.1267 -0.4734
 1534SOL    HW2 5902   1.657   3.085   3.106 -0.5778  0.8505 -0.8139
 1534SOL    HW3 5903   1.742   3.164   3.203  1.0604 -1.7557 -0.0264
 1534SOL    MW4 5904   1.725   3.136   3.122  0.0102 -0.0262 -0.4594
 1535SOL     OW 5905   2.704   3.624   1.597  0.2670  0.1573 -0.7902
 1535SOL    HW2 5906   2.752   3.623   1.514 -1.3064 -1.2862 -1.7628
 1535SOL    HW3 5907   2.743   3.554   1.649  0.4098  0.1928 -0.8503
 1535SOL    MW4 5908   2.715   3.615   1.593  0.0782 -0.0285 -0.9264
 1536SOL     OW 5909   1.791   2.879   3.409  0.3354  0.3180  0.2548
 1536SOL    HW2 5910   1.720   2.825   3.445  0.1980  0.0048 -0.4528
 1536SOL    HW3 5911   1.795   2.853   3.317  1.3771  0.3346  0.2891
 1536SOL    MW4 5912   1.782   2.868   3.401  0.4547  0.2789  0.1659
 1537SOL     OW 5913   3.185   4.865   1.219 -0.0499  0.5304 -0.7007
 1537SOL    HW2 5914   3.264   4.912   1.244 -1.0318  0.5989  2.7217
 1537SOL    HW3 5915   3.204   4.773   1.236 -0.2289  0.3714 -1.3174
 1537SOL    MW4 5916   3.198   4.859   1.224 -0.2031  0.5184 -0.3305
 1538SOL     OW 5917   1.154   6.216   4.668 -0.2073  0.0704 -0.8755
 1538SOL    HW2 5918   1.236   6.179   4.700  0.1103  0.7808 -0.8385
 1538SOL    HW3 5919   1.128   6.278   4.736 -1.9928 -1.7875  0.2346
 1538SOL    MW4 5920   1.161   6.220   4.681 -0.4010 -0.0810 -0.7241
 1539SOL     OW 5921   3.893   5.830   3.006  0.1526 -0.3774 -0.1945
 1539SOL    HW2 5922   3.979   5.834   3.047 -0.6430  1.7859  1.4606
 1539SOL    HW3 5923   3.838   5.785   3.070 -0.6286  1.0987  0.2112
 1539SOL    MW4 5924   3.897   5.825   3.020 -0.0555  0.1028  0.0774
 1540SOL     OW 5925   3.148   2.095   5.645 -0.0452  0.3410 -0.2837
 1540SOL    HW2 5926   3.233   2.053   5.629 -0.2364  0.3107 -1.2239
 1540SOL    HW3 5927   3.099   2.030   5.695  0.7558  0.6666  0.9938
 1540SOL    MW4 5928   3.153   2.081   5.650  0.0353  0.3800 -0.2392
 1541SOL     OW 5929   4.461   4.405   3.683 -0.3360 -0.2239  0.8884
 1541SOL    HW2 5930   4.407   4.471   3.727 -0.2673  0.8246 -0.5309
 1541SOL    HW3 5931   4.551   4.434   3.700 -0.3185  0.5737 -0.4615
 1541SOL    MW4 5932   4.466   4.418   3.691 -0.3246  0.0196  0.5230
 1542SOL     OW 5933   3.023   5.464   4.314  0.0921  0.2715  0.2064
 1542SOL    HW2 5934   2.976   5.385   4.288  0.6744 -0.0970  0.2646
 1542SOL    HW3 5935   2.974   5.535   4.273  0.3276 -0.2165 -0.9590
 1542SOL    MW4 5936   3.010   5.463   4.305  0.2000  0.1585  0.0603
 1543SOL     OW 5937   0.930   4.154   1.084 -0.6484 -0.3885  0.3007
 1543SOL    HW2 5938   0.898   4.072   1.122 -0.7966 -1.2723 -1.5842
 1543SOL    HW3 5939   0.860   4.181   1.024 -0.4301  0.9168  0.6045
 1543SOL    MW4 5940   0.916   4.147   1.081 -0.6391 -0.3329  0.0921
 1544SOL     OW 5941   2.727   5.719   5.916  0.0909 -0.0721  0.0165
 1544SOL    HW2 5942   2.716   5.624   5.916  0.8927 -0.1796  0.9673
 1544SOL    HW3 5943   2.819   5.734   5.895  0.6052  0.3570  2.2613
 1544SOL    MW4 5944   2.737   5.709   5.913  0.2645 -0.0297  0.4382
 1545SOL     OW 5945   4.876   3.614   1.307  0.8058 -0.7044 -0.6448
 1545SOL    HW2 5946   4.922   3.685   1.261  0.6332 -1.3826 -1.8987
 1545SOL    HW3 5947   4.795   3.655   1.338  1.5437  0.1145  0.2843
 1545SOL    MW4 5948   4.872   3.629   1.305  0.8804 -0.6859 -0.6877
 1546SOL     OW 5949   1.116   0.802   5.484  0.1644 -0.7343 -0.1211
 1546SOL    HW2 5950   1.193   0.858   5.496  1.4652 -2.9319  3.3117
 1546SOL    HW3 5951   1.053   0.834   5.548  0.7607 -2.7166  1.5722
 1546SOL    MW4 5952   1.118   0.814   5.494  0.4147 -1.2858  0.5552
 1547SOL     OW 5953   5.452   0.426   2.542  0.4014  0.1805  0.3920
 1547SOL    HW2 5954   5.434   0.332   2.547  0.0353  0.2986  1.7046
 1547SOL    HW3 5955   5.370   0.467   2.570  1.1655  0.8391  1.7691
 1547SOL    MW4 5956   5.439   0.419   2.546  0.4539  0.2830  0.7469
 1548SOL     OW 5957   5.067   1.610   6.267 -0.2201  0.2517 -0.2812
 1548SOL    HW2 5958   5.059   1.696   6.307 -1.3137 -0.1075  0.3247
 1548SOL    HW3 5959   5.161   1.596   6.257 -0.0001  1.1301  0.4518
 1548SOL    MW4 5960   5.078   1.620   6.271 -0.3354  0.3202 -0.1045
 1549SOL     OW 5961   3.928   5.698   2.430 -0.5657 -0.3316  0.5088
 1549SOL    HW2 5962   3.839   5.672   2.451 -0.4037 -0.3615  1.1762
 1549SOL    HW3 5963   3.956   5.752   2.503 -0.4887  0.7858 -0.3149
 1549SOL    MW4 5964   3.920   5.702   2.442 -0.5342 -0.1881  0.4882
 1550SOL     OW 5965   5.830   0.400   0.242 -0.1151  0.1434 -0.4642
 1550SOL    HW2 5966   5.743   0.361   0.247 -0.1518  0.3059  0.2078
 1550SOL    HW3 5967   5.880   0.339   0.188 -0.9635  0.6621 -1.8888
 1550SOL    MW4 5968   5.825   0.387   0.235 -0.2319  0.2333 -0.5635
 1551SOL     OW 5969   3.655   3.343   3.027  0.0734  0.2922  0.6484
 1551SOL    HW2 5970   3.609   3.268   2.989 -0.3203  0.8380  0.0394
 1551SOL    HW3 5971   3.604   3.363   3.106  0.2564 -0.1532  0.8877
 1551SOL    MW4 5972   3.642   3.335   3.033  0.0456  0.3055  0.5996
 1552SOL     OW 5973   6.376   1.051   0.858  0.0343 -0.4613 -0.5612
 1552SOL    HW2 5974   6.320   1.126   0.874 -0.3085 -0.9460  0.5504
 1552SOL    HW3 5975   6.325   0.975   0.886  0.6548 -1.0507 -0.9675
 1552SOL    MW4 5976   6.362   1.051   0.863  0.0709 -0.6030 -0.4682
 1553SOL     OW 5977   3.683   2.220   5.459 -0.0666  0.5495  0.0351
 1553SOL    HW2 5978   3.773   2.228   5.429  0.4296 -2.8805  0.2961
 1553SOL    HW3 5979   3.690   2.210   5.554 -0.4692 -1.7994 -0.1333
 1553SOL    MW4 5980   3.696   2.220   5.468 -0.0542 -0.2129  0.0473
 1554SOL     OW 5981   1.509   5.979   5.815 -0.3144 -0.2698 -0.5839
 1554SOL    HW2 5982   1.581   5.916   5.816  0.5293  0.5338 -3.0265
 1554SOL    HW3 5983   1.552   6.064   5.814 -1.4035  0.3284  0.5717
 1554SOL    MW4 5984   1.524   5.982   5.815 -0.3468 -0.0849 -0.7537
 1555SOL     OW 5985   1.446   6.300   2.971  0.5150 -0.3502  0.1323
 1555SOL    HW2 5986   1.466   6.206   2.977  1.6491 -0.1218  0.0361
 1555SOL    HW3 5987   1.492   6.339   3.045 -0.2891  0.0907  0.4078
 1555SOL    MW4 5988   1.455   6.293   2.981  0.5585 -0.2619  0.1560
 1556SOL     OW 5989   5.520   6.107   2.026 -0.0335  0.0578  0.1616
 1556SOL    HW2 5990   5.594   6.150   1.985 -1.4342  0.9728 -1.5138
 1556SOL    HW3 5991   5.510   6.151   2.110  1.0095  0.2239  0.2105
 1556SOL    MW4 5992   5.528   6.118   2.032 -0.0807  0.2004 -0.0530
 1557SOL     OW 5993   1.865   3.739   4.779 -0.3838  0.5363  0.2016
 1557SOL    HW2 5994   1.858   3.691   4.696  0.6976 -0.0583  0.4393
 1557SOL    HW3 5995   1.803   3.695   4.838  0.4943 -0.4927  0.3771
 1557SOL    MW4 5996   1.856   3.727   4.776 -0.1252  0.3221  0.2561
 1558SOL     OW 5997   2.112   3.674   4.195 -0.2410 -0.0581  0.0289
 1558SOL    HW2 5998   2.156   3.592   4.216 -1.2347 -0.5420  0.2868
 1558SOL    HW3 5999   2.147   3.699   4.109  1.1341  0.0117  0.5934
 1558SOL    MW4 6000   2.123   3.667   4.186 -0.1907 -0.1127  0.1374
 1559SOL     OW 6001   5.737   5.309   2.546 -0.4013 -0.1144 -0.3382
 1559SOL    HW2 6002   5.760   5.277   2.634 -2.9995 -1.5515 -0.0842
 1559SOL    HW3 6003   5.670   5.375   2.560  0.7704  1.3437 -1.2079
 1559SOL    MW4 6004   5.731   5.313   2.559 -0.5895 -0.1116 -0.4194
 1560SOL     OW 6005   6.314   1.649   3.058  0.6734 -0.6364 -0.5447
 1560SOL    HW2 6006   6.378   1.606   3.002  1.5160  0.0589 -0.1383
 1560SOL    HW3 6007   6.250   1.581   3.079 -0.0616 -0.7929 -2.8729
 1560SOL    MW4 6008   6.314   1.635   3.053  0.6876 -0.5653 -0.7983
 1561SOL     OW 6009   6.379   3.992   2.037  0.7595 -0.1385  0.6967
 1561SOL    HW2 6010   6.444   3.946   1.984 -0.3658 -0.3276 -0.5719
 1561SOL    HW3 6011   6.385   3.953   2.124  1.7582 -0.7133  0.3775
 1561SOL    MW4 6012   6.388   3.981   2.042  0.7428 -0.2393  0.4872
 1562SOL     OW 6013   1.351   3.628   6.138  0.2126 -0.1279 -0.2939
 1562SOL    HW2 6014   1.261   3.651   6.160  0.2855  0.0969 -0.2314
 1562SOL    HW3 6015   1.382   3.699   6.082  0.9605  0.7758  1.2030
 1562SOL    MW4 6016   1.343   3.640   6.134  0.3209  0.0210 -0.0882
 1563SOL     OW 6017   2.451   3.097   3.002  0.8343  0.6541 -0.4537
 1563SOL    HW2 6018   2.443   3.134   2.914  0.0309 -0.6061 -0.9424
 1563SOL    HW3 6019   2.525   3.036   2.996  0.7505  0.5313 -0.2711
 1563SOL    MW4 6020   2.460   3.094   2.990  0.7172  0.4716 -0.4941
 1564SOL     OW 6021   5.385   1.246   1.374  0.4206  0.3937 -0.0595
 1564SOL    HW2 6022   5.326   1.219   1.304  1.0343  0.5743 -0.6570
 1564SOL    HW3 6023   5.379   1.175   1.439  0.0256  0.1097 -0.3991
 1564SOL    MW4 6024   5.376   1.233   1.374  0.4495  0.3800 -0.1831
 1565SOL     OW 6025   2.135   3.421   4.715  0.1237 -0.0954  0.0246
 1565SOL    HW2 6026   2.165   3.336   4.748 -1.1386 -0.2917  0.7398
 1565SOL    HW3 6027   2.040   3.415   4.717  0.0014  0.5893 -1.9143
 1565SOL    MW4 6028   2.127   3.409   4.719 -0.0590 -0.0310 -0.1368
 1566SOL     OW 6029   3.545   0.171   0.684  0.0104 -0.1482  0.1745
 1566SOL    HW2 6030   3.615   0.139   0.628 -0.8479  0.5760 -1.3846
 1566SOL    HW3 6031   3.468   0.172   0.628 -1.2868 -0.9313  1.8375
 1566SOL    MW4 6032   3.544   0.167   0.669 -0.2740 -0.1559  0.1882
 1567SOL     OW 6033   4.036   3.056   5.210  0.8692 -0.4884 -0.1391
 1567SOL    HW2 6034   3.991   2.971   5.215  0.8739 -0.5540 -1.0482
 1567SOL    HW3 6035   3.969   3.116   5.178  1.3491 -0.5328 -1.2596
 1567SOL    MW4 6036   4.021   3.053   5.207  0.9332 -0.5029 -0.4069
 1568SOL     OW 6037   3.053   4.905   2.496  0.1699  0.1912 -0.2396
 1568SOL    HW2 6038   3.091   4.923   2.410  0.1122  0.5210 -0.1972
 1568SOL    HW3 6039   3.068   4.811   2.510 -2.2904 -0.5129 -1.8263
 1568SOL    MW4 6040   3.060   4.895   2.487 -0.1623  0.1418 -0.4434
 1569SOL     OW 6041   2.431   0.560   3.734  0.0548  0.2306  0.9206
 1569SOL    HW2 6042   2.520   0.547   3.766  0.3649  0.6557  0.2499
 1569SOL    HW3 6043   2.426   0.653   3.712  0.2320 -0.2391 -1.3163
 1569SOL    MW4 6044   2.442   0.570   3.735  0.1191  0.2247  0.5370
 1570SOL     OW 6045   2.329   1.228   5.066 -0.3810  0.2674 -0.1331
 1570SOL    HW2 6046   2.241   1.191   5.054 -0.3538  0.5504 -1.3382
 1570SOL    HW3 6047   2.336   1.243   5.161 -2.0507  1.2628 -0.1247
 1570SOL    MW4 6048   2.318   1.225   5.077 -0.5977  0.4361 -0.2910
 1571SOL     OW 6049   3.217   2.247   3.476 -0.8840  0.3218 -0.2335
 1571SOL    HW2 6050   3.154   2.259   3.547 -0.1752  0.6888  0.3514
 1571SOL    HW3 6051   3.293   2.207   3.519  0.0158  1.6407 -0.5377
 1571SOL    MW4 6052   3.219   2.243   3.491 -0.6718  0.5442 -0.1965
 1572SOL     OW 6053   4.751   4.952   1.709 -0.0051 -0.2848 -0.3439
 1572SOL    HW2 6054   4.701   4.896   1.649  0.6645 -1.3855  0.0961
 1572SOL    HW3 6055   4.834   4.966   1.666  0.2842 -0.6483  0.0834
 1572SOL    MW4 6056   4.755   4.946   1.696  0.1214 -0.4780 -0.2295
 1573SOL     OW 6057   4.272   0.779   2.454 -0.3272 -0.0116  0.0238
 1573SOL    HW2 6058   4.320   0.862   2.452  2.6297 -1.5960  0.7781
 1573SOL    HW3 6059   4.255   0.763   2.547 -0.3020 -0.5818 -0.0667
 1573SOL    MW4 6060   4.276   0.788   2.466  0.0663 -0.2959  0.1114
 1574SOL     OW 6061   2.394   0.999   0.734 -0.0156  0.2347 -0.1218
 1574SOL    HW2 6062   2.440   1.082   0.747  0.4594 -0.0438  0.0302
 1574SOL    HW3 6063   2.373   0.998   0.641 -2.6044  1.8179  0.3449
 1574SOL    MW4 6064   2.397   1.010   0.724 -0.2945  0.4068 -0.0402
 1575SOL     OW 6065   4.219   1.974   5.739  0.0299 -0.0707  0.2420
 1575SOL    HW2 6066   4.211   2.040   5.808  0.9104 -1.0691  1.3410
 1575SOL    HW3 6067   4.312   1.971   5.719 -0.3578  1.1798 -2.0319
 1575SOL    MW4 6068   4.230   1.982   5.746  0.0949 -0.0374  0.0869
 1576SOL     OW 6069   2.521   1.007   5.276 -0.0969  0.4344  0.0722
 1576SOL    HW2 6070   2.485   0.971   5.196 -0.2434 -0.5886  0.5876
 1576SOL    HW3 6071   2.475   1.091   5.288 -2.7403 -1.0316  0.9711
 1576SOL    MW4 6072   2.510   1.014   5.267 -0.4650  0.1060  0.2588
 1577SOL     OW 6073   0.525   3.556   2.335 -0.3860 -0.3418 -0.3150
 1577SOL    HW2 6074   0.534   3.606   2.254 -2.0503 -0.8866 -0.8737
 1577SOL    HW3 6075   0.454   3.495   2.317  0.4669 -1.7547  0.9316
 1577SOL    MW4 6076   0.517   3.555   2.322 -0.4931 -0.6001 -0.2242
 1578SOL     OW 6077   4.813   4.461   1.901  0.1989 -0.1116  0.4593
 1578SOL    HW2 6078   4.897   4.417   1.913 -0.0357 -0.2967  1.5547
 1578SOL    HW3 6079   4.832   4.554   1.913  0.6884  0.1299 -1.8179
 1578SOL    MW4 6080   4.826   4.467   1.904  0.2325 -0.1041  0.3034
 1579SOL     OW 6081   3.079   0.022   0.559  1.0318 -0.7594  0.5707
 1579SOL    HW2 6082   3.055  -0.006   0.471  3.3474 -1.6213  0.1415
 1579SOL    HW3 6083   3.049   0.113   0.565 -1.6107 -1.5027 -0.0466
 1579SOL    MW4 6084   3.072   0.030   0.548  0.9886 -0.9712  0.4326
 1580SOL     OW 6085   6.004   3.948   1.260  0.1231 -0.2352 -0.0886
 1580SOL    HW2 6086   5.996   4.043   1.251  0.1252 -0.0336  1.6411
 1580SOL    HW3 6087   6.055   3.920   1.184 -1.3604  0.8952 -1.5836
 1580SOL    MW4 6088   6.009   3.957   1.249 -0.0724 -0.0595 -0.0576
 1581SOL     OW 6089   2.615   2.825   2.752  0.1767  0.2477 -0.1388
 1581SOL    HW2 6090   2.705   2.840   2.783  0.2368  1.0803 -0.6963
 1581SOL    HW3 6091   2.568   2.794   2.830  0.7463  0.6231  0.3651
 1581SOL    MW4 6092   2.621   2.823   2.767  0.2598  0.4071 -0.1459
 1582SOL     OW 6093   6.210   1.386   1.696  0.0907  0.1348  0.2718
 1582SOL    HW2 6094   6.187   1.368   1.605 -0.6649  1.9555  0.0542
 1582SOL    HW3 6095   6.130   1.368   1.745  0.5312 -0.9586  0.6167
 1582SOL    MW4 6096   6.196   1.381   1.690  0.0491  0.2307  0.2886
 1583SOL     OW 6097   6.065   4.990   2.646 -0.0331 -0.3411  0.0554
 1583SOL    HW2 6098   6.026   5.075   2.628 -1.9721 -1.1947  0.0478
 1583SOL    HW3 6099   6.069   4.985   2.742  1.5044  0.3364  0.0604
 1583SOL    MW4 6100   6.061   5.001   2.656 -0.0860 -0.3644  0.0551
 1584SOL     OW 6101   3.023   2.586   4.167  0.3798 -0.2781  0.1551
 1584SOL    HW2 6102   3.034   2.491   4.169  1.2108 -0.3562 -2.7027
 1584SOL    HW3 6103   2.952   2.600   4.104  1.2451  0.9869 -0.5962
 1584SOL    MW4 6104   3.015   2.575   4.159  0.6036 -0.1215 -0.3211
 1585SOL     OW 6105   4.445   6.053   1.494 -0.5887  0.2434  0.3921
 1585SOL    HW2 6106   4.466   5.967   1.460 -0.6930  0.2597  0.2843
 1585SOL    HW3 6107   4.527   6.086   1.532 -0.0010  0.9732 -1.4187
 1585SOL    MW4 6108   4.458   6.046   1.495 -0.5249  0.3418  0.1390
 1586SOL     OW 6109   4.100   3.453   2.850 -0.2206 -0.1204  0.1088
 1586SOL    HW2 6110   4.054   3.375   2.819 -2.0437  0.4714  1.2194
 1586SOL    HW3 6111   4.191   3.438   2.824 -0.9830 -1.3311 -2.1870
 1586SOL    MW4 6112   4.106   3.441   2.842 -0.5617 -0.2021 -0.0476
 1587SOL     OW 6113   3.223   2.618   3.946  0.9290 -0.1238  0.9625
 1587SOL    HW2 6114   3.233   2.535   3.899 -1.4340 -0.0819  0.2747
 1587SOL    HW3 6115   3.159   2.598   4.015  0.2977  1.1191  0.7652
 1587SOL    MW4 6116   3.216   2.604   3.949  0.5340  0.0457  0.8457
 1588SOL     OW 6117   3.937   3.939   5.477  0.3572 -0.4989 -0.0593
 1588SOL    HW2 6118   4.022   3.983   5.481 -0.2875  0.8514 -0.5163
 1588SOL    HW3 6119   3.897   3.974   5.398 -0.5288 -1.3110  0.0255
 1588SOL    MW4 6120   3.943   3.950   5.467  0.1552 -0.4279 -0.1084
 1589SOL     OW 6121   3.821   2.987   4.225 -0.3994 -0.1531 -0.0328
 1589SOL    HW2 6122   3.808   3.082   4.233  0.9510 -0.0011  0.6288
 1589SOL    HW3 6123   3.757   2.949   4.285 -0.2089  0.3963  0.5298
 1589SOL    MW4 6124   3.810   2.994   4.234 -0.1961 -0.0606  0.1287
 1590SOL     OW 6125   2.496   4.652   0.927 -0.3484 -0.9395  0.1256
 1590SOL    HW2 6126   2.426   4.594   0.897 -0.7903  0.1680 -1.0621
 1590SOL    HW3 6127   2.547   4.670   0.848 -0.4136  0.5250  0.4007
 1590SOL    MW4 6128   2.493   4.647   0.913 -0.4153 -0.6002  0.0052
 1591SOL     OW 6129   3.720   4.741   2.040  0.5627 -0.6864 -0.6526
 1591SOL    HW2 6130   3.664   4.784   2.104 -0.9803 -3.1058 -0.2283
 1591SOL    HW3 6131   3.801   4.724   2.087  1.1866  1.5919 -0.8228
 1591SOL    MW4 6132   3.723   4.744   2.055  0.4414 -0.7050 -0.6190
 1592SOL     OW 6133   5.390   1.019   3.304  0.4279 -0.0696 -0.6828
 1592SOL    HW2 6134   5.402   1.111   3.326  1.6359 -0.3371 -0.1539
 1592SOL    HW3 6135   5.479   0.985   3.296 -0.0045 -1.2988 -0.4165
 1592SOL    MW4 6136   5.403   1.027   3.306  0.5303 -0.2670 -0.5779
 1593SOL     OW 6137   4.274   2.710   0.837 -0.1529 -0.1046  0.4030
 1593SOL    HW2 6138   4.261   2.619   0.864  2.1643 -0.1926  1.4218
 1593SOL    HW3 6139   4.232   2.762   0.907 -0.1895 -0.3747  0.5842
 1593SOL    MW4 6140   4.266   2.705   0.850  0.1480 -0.1519  0.5613
 1594SOL     OW 6141   1.969   4.902   6.200  0.8986  0.6304  0.3192
 1594SOL    HW2 6142   1.908   4.901   6.273 -1.0641 -1.3865 -1.2252
 1594SOL    HW3 6143   2.023   4.824   6.212  0.0995 -0.0992 -0.7184
 1594SOL    MW4 6144   1.968   4.892   6.211  0.5342  0.2680 -0.0215
 1595SOL     OW 6145   2.130   5.598   1.281  0.4545 -0.1924 -0.1859
 1595SOL    HW2 6146   2.204   5.616   1.224  0.5129 -1.7826 -0.6522
 1595SOL    HW3 6147   2.164   5.538   1.347 -0.6457 -1.8817 -1.0725
 1595SOL    MW4 6148   2.144   5.593   1.283  0.3170 -0.6251 -0.3644
 1596SOL     OW 6149   5.192   4.403   4.140 -0.0487 -0.1084 -0.4489
 1596SOL    HW2 6150   5.264   4.340   4.132  1.2108  1.1130  0.8580
 1596SOL    HW3 6151   5.171   4.405   4.233 -1.8816 -0.4805 -0.7957
 1596SOL    MW4 6152   5.198   4.395   4.151 -0.1244  0.0036 -0.3223
 1597SOL     OW 6153   0.415   1.133   4.214  0.0629 -0.1967  0.4397
 1597SOL    HW2 6154   0.390   1.223   4.235 -0.5085 -0.3414  0.4018
 1597SOL    HW3 6155   0.361   1.079   4.271 -0.9037 -0.5639 -0.7819
 1597SOL    MW4 6156   0.405   1.138   4.224 -0.1400 -0.2643  0.2736
 1598SOL     OW 6157   1.455   2.491   1.260 -0.0493 -0.0063  0.2086
 1598SOL    HW2 6158   1.378   2.498   1.317  0.1654 -1.2104  0.6587
 1598SOL    HW3 6159   1.436   2.417   1.202  1.1794 -0.9421  0.9704
 1598SOL    MW4 6160   1.442   2.482   1.260  0.1411 -0.2886  0.3685
 1599SOL     OW 6161   5.116   5.975   0.833 -0.8286 -0.1319  0.1226
 1599SOL    HW2 6162   5.160   5.902   0.790 -1.5878  0.0918 -1.0969
 1599SOL    HW3 6163   5.144   5.970   0.924 -0.0661 -1.3247 -0.1545
 1599SOL    MW4 6164   5.125   5.964   0.839 -0.8281 -0.2598 -0.0749
 1600SOL     OW 6165   0.496   0.189   4.808  0.7620 -0.9698 -0.4241
 1600SOL    HW2 6166   0.485   0.146   4.893 -1.9737 -0.6820 -0.5450
 1600SOL    HW3 6167   0.520   0.119   4.748  1.0449 -1.4643  0.2481
 1600SOL    MW4 6168   0.498   0.174   4.811  0.4384 -0.9971 -0.3514
 1601SOL     OW 6169   6.055   1.441   2.059 -0.2809  0.3694  0.0775
 1601SOL    HW2 6170   6.022   1.397   1.980  0.6998 -0.7006  0.2436
 1601SOL    HW3 6171   6.110   1.512   2.025 -0.3227  0.2704 -0.1992
 1601SOL    MW4 6172   6.058   1.445   2.044 -0.1570  0.2151  0.0629
 1602SOL     OW 6173   0.139   2.001   2.095  0.6201  0.0599  0.3409
 1602SOL    HW2 6174   0.155   1.923   2.148  0.5873  1.6216  2.8062
 1602SOL    HW3 6175   0.044   2.004   2.084  0.5110  0.3153  1.2362
 1602SOL    MW4 6176   0.129   1.991   2.100  0.6014  0.2996  0.7843
 1603SOL     OW 6177   5.539   1.266   1.147  0.0135 -0.1988 -0.0740
 1603SOL    HW2 6178   5.477   1.333   1.117 -0.3784  0.1167  1.3759
 1603SOL    HW3 6179   5.509   1.243   1.235  0.0373 -2.4271 -0.5766
 1603SOL    MW4 6180   5.527   1.272   1.154 -0.0351 -0.4512  0.0510
 1604SOL     OW 6181   3.207   5.377   5.365 -0.3740 -0.2581 -0.0527
 1604SOL    HW2 6182   3.170   5.301   5.408 -1.4830  0.6249  0.6162
 1604SOL    HW3 6183   3.158   5.384   5.282 -1.0894  0.3615  0.4042
 1604SOL    MW4 6184   3.195   5.368   5.360 -0.6147 -0.0598  0.0959
 1605SOL     OW 6185   1.844   5.098   3.304 -0.2942 -0.9671 -0.4486
 1605SOL    HW2 6186   1.787   5.066   3.375 -1.2409  1.7429  0.1191
 1605SOL    HW3 6187   1.926   5.119   3.348 -0.7189  0.2526 -0.2057
 1605SOL    MW4 6188   1.847   5.097   3.319 -0.4751 -0.4486 -0.3417
 1606SOL     OW 6189   0.336   0.493   0.568  0.4158 -0.1013  0.3003
 1606SOL    HW2 6190   0.272   0.559   0.545 -0.6732 -0.8191  1.1450
 1606SOL    HW3 6191   0.407   0.503   0.504 -0.7931  0.3401 -1.0008
 1606SOL    MW4 6192   0.337   0.503   0.557  0.1126 -0.1378  0.2401
 1607SOL     OW 6193   3.729   1.401   3.021  0.2837  0.0054  0.0950
 1607SOL    HW2 6194   3.697   1.334   3.081  0.8436  0.2804  0.7150
 1607SOL    HW3 6195   3.661   1.407   2.954 -0.1776 -0.5746  0.4941
 1607SOL    MW4 6196   3.715   1.393   3.020  0.2967 -0.0348  0.2295
 1608SOL     OW 6197   4.486   4.805   2.944  0.1875 -0.2302 -0.0232
 1608SOL    HW2 6198   4.520   4.874   3.002 -0.6763 -1.4392  2.0216
 1608SOL    HW3 6199   4.559   4.744   2.935  0.2820 -0.1068 -0.1030
 1608SOL    MW4 6200   4.500   4.806   2.951  0.0860 -0.3735  0.2360
 1609SOL     OW 6201   2.716   0.800   2.679  0.0851 -0.1601  0.9717
 1609SOL    HW2 6202   2.670   0.734   2.627  0.6849  0.0581  0.1383
 1609SOL    HW3 6203   2.668   0.881   2.663  1.1140  0.2105 -0.4484
 1609SOL    MW4 6204   2.704   0.802   2.670  0.3000 -0.0824  0.6743
 1610SOL     OW 6205   0.127   2.190   0.196 -0.3234 -0.1396 -0.6295
 1610SOL    HW2 6206   0.192   2.156   0.258 -0.8529 -0.9800 -0.5223
 1610SOL    HW3 6207   0.119   2.283   0.218 -1.3544 -0.6543  1.3544
 1610SOL    MW4 6208   0.135   2.198   0.207 -0.5293 -0.3184 -0.3536
 1611SOL     OW 6209   0.647   4.088   3.431  0.2495 -0.5800  0.0830
 1611SOL    HW2 6210   0.595   4.056   3.357  0.9584  0.1028 -0.7332
 1611SOL    HW3 6211   0.730   4.116   3.392  0.4197  0.3375  1.0466
 1611SOL    MW4 6212   0.651   4.087   3.416  0.3655 -0.3689  0.1024
 1612SOL     OW 6213   0.422   1.728   5.846  0.0034 -0.1670 -0.0728
 1612SOL    HW2 6214   0.516   1.740   5.860  0.1066  1.8239 -1.9756
 1612SOL    HW3 6215   0.396   1.800   5.789 -2.5145 -1.2159 -0.4135
 1612SOL    MW4 6216   0.431   1.739   5.840 -0.3152 -0.0427 -0.3688
 1613SOL     OW 6217   0.770   4.914   3.609 -0.5322 -0.3526  0.4797
 1613SOL    HW2 6218   0.729   4.896   3.524  0.7853 -1.6428  0.0611
 1613SOL    HW3 6219   0.800   4.828   3.639  1.2753  0.4122  1.0265
 1613SOL    MW4 6220   0.769   4.900   3.602 -0.1199 -0.4220  0.4966
 1614SOL     OW 6221   1.765   3.211   0.096 -0.0533  0.1053  0.2546
 1614SOL    HW2 6222   1.820   3.200   0.018  2.1846 -2.3653  1.9894
 1614SOL    HW3 6223   1.690   3.154   0.080  0.6432 -0.7984  0.0414
 1614SOL    MW4 6224   1.763   3.202   0.083  0.3338 -0.3399  0.4553
 1615SOL     OW 6225   3.127   5.791   2.481  0.2389 -0.0044  0.0888
 1615SOL    HW2 6226   3.107   5.722   2.545 -1.5965  0.8068  0.4625
 1615SOL    HW3 6227   3.160   5.744   2.405 -0.3165 -1.2582  0.5874
 1615SOL    MW4 6228   3.129   5.776   2.479 -0.0766 -0.0628  0.2039
 1616SOL     OW 6229   3.421   4.240   0.386 -0.3859 -0.8210 -0.1009
 1616SOL    HW2 6230   3.365   4.269   0.458 -0.1249  0.1557 -0.2884
 1616SOL    HW3 6231   3.459   4.320   0.351 -0.5254 -1.2818 -1.3426
 1616SOL    MW4 6232   3.419   4.254   0.391 -0.3699 -0.7530 -0.2894
 1617SOL     OW 6233   5.042   5.731   3.441  0.1191 -0.9268  0.1314
 1617SOL    HW2 6234   4.975   5.729   3.372  1.2980  0.0130 -1.1036
 1617SOL    HW3 6235   5.083   5.645   3.437  0.0101 -0.9665 -0.1689
 1617SOL    MW4 6236   5.039   5.719   3.431  0.2602 -0.8080 -0.0712
 1618SOL     OW 6237   2.978   4.824   5.912 -0.1202 -0.1847  0.2624
 1618SOL    HW2 6238   3.004   4.775   5.835  1.9403  0.6701  0.3225
 1618SOL    HW3 6239   2.890   4.855   5.893  0.7995  1.1664 -2.4125
 1618SOL    MW4 6240   2.970   4.822   5.900  0.2730  0.1063 -0.0826
 1619SOL     OW 6241   4.815   4.791   3.748 -0.3479  0.2840 -0.2108
 1619SOL    HW2 6242   4.900   4.831   3.729  0.1308 -0.3985  0.4422
 1619SOL    HW3 6243   4.768   4.857   3.799  0.4375  0.0383  0.8687
 1619SOL    MW4 6244   4.820   4.805   3.752 -0.1811  0.1615  0.0178
 1620SOL     OW 6245   0.165   1.800   1.632 -0.0455  0.0955 -0.0358
 1620SOL    HW2 6246   0.087   1.744   1.632  0.4152 -0.5600  0.3267
 1620SOL    HW3 6247   0.181   1.819   1.539 -0.1970 -0.3939 -0.1659
 1620SOL    MW4 6248   0.157   1.795   1.620 -0.0047 -0.0556 -0.0051
 1621SOL     OW 6249   3.129   6.135   4.593  0.3288 -0.7366  0.0226
 1621SOL    HW2 6250   3.081   6.090   4.524  1.0125 -1.1188 -0.2142
 1621SOL    HW3 6251   3.221   6.126   4.569  0.5066  0.7384 -0.0003
 1621SOL    MW4 6252   3.135   6.128   4.581  0.4425 -0.5924 -0.0117
 1622SOL     OW 6253   5.757   0.490   1.408  0.0473 -0.5336 -0.1396
 1622SOL    HW2 6254   5.764   0.576   1.449 -1.6636 -1.1298  1.5193
 1622SOL    HW3 6255   5.842   0.449   1.423  1.3096  1.2029 -1.9523
 1622SOL    MW4 6256   5.769   0.496   1.415 -0.0119 -0.3832 -0.1599
 1623SOL     OW 6257   0.272   1.672   2.479  0.0399  0.2129  0.1213
 1623SOL    HW2 6258   0.335   1.706   2.416  1.3410 -0.8351  0.8108
 1623SOL    HW3 6259   0.282   1.577   2.475  1.6868  0.1287  3.3250
 1623SOL    MW4 6260   0.281   1.664   2.470  0.4288  0.0635  0.6350
 1624SOL     OW 6261   4.132   3.610   6.092 -0.0251  0.7872 -0.3516
 1624SOL    HW2 6262   4.167   3.633   6.178  0.5053 -0.8276 -0.1173
 1624SOL    HW3 6263   4.127   3.694   6.045 -1.2376  1.8331  1.5508
 1624SOL    MW4 6264   4.136   3.624   6.097 -0.1151  0.7122 -0.0697
 1625SOL     OW 6265   1.371   3.775   1.601 -0.0473  0.1815  0.4899
 1625SOL    HW2 6266   1.390   3.729   1.520 -1.3493 -2.3810  1.4973
 1625SOL    HW3 6267   1.283   3.744   1.626 -0.6713  2.6764  1.7029
 1625SOL    MW4 6268   1.362   3.765   1.594 -0.3014  0.1726  0.7828
 1626SOL     OW 6269   3.079   4.316   3.079 -0.2890 -0.2960  0.0760
 1626SOL    HW2 6270   3.125   4.357   3.006 -0.3554  4.1044  2.1744
 1626SOL    HW3 6271   3.146   4.304   3.147 -1.0551  0.6601  1.0582
 1626SOL    MW4 6272   3.094   4.320   3.079 -0.3988  0.4107  0.4824
 1627SOL     OW 6273   4.235   1.353   1.258 -0.5280  0.0246  0.1634
 1627SOL    HW2 6274   4.193   1.280   1.212  0.4161 -0.9463  0.7832
 1627SOL    HW3 6275   4.316   1.315   1.294 -0.4870  1.1347  1.3148
 1627SOL    MW4 6276   4.240   1.338   1.257 -0.3980  0.0430  0.3971
 1628SOL     OW 6277   4.725   1.530   1.809 -0.1644 -0.3947 -0.3490
 1628SOL    HW2 6278   4.780   1.602   1.778  1.9660 -1.9236 -0.3558
 1628SOL    HW3 6279   4.635   1.560   1.794  0.6420  1.9852 -0.8956
 1628SOL    MW4 6280   4.721   1.543   1.803  0.2231 -0.2824 -0.4220
 1629SOL     OW 6281   0.241   1.356   2.099  0.2122  0.1302  0.1756
 1629SOL    HW2 6282   0.146   1.369   2.099 -0.2960 -2.8808  1.2782
 1629SOL    HW3 6283   0.274   1.420   2.162 -1.3742 -0.2197  1.4167
 1629SOL    MW4 6284   0.233   1.366   2.107 -0.0641 -0.3133  0.4848
 1630SOL     OW 6285   0.682   3.877   3.837  0.3619 -0.7734  0.4828
 1630SOL    HW2 6286   0.648   3.794   3.871 -2.5989  0.6902  1.5027
 1630SOL    HW3 6287   0.666   3.873   3.743  0.1674 -1.3475  0.5375
 1630SOL    MW4 6288   0.675   3.866   3.829 -0.0544 -0.6561  0.6246
 1631SOL     OW 6289   1.497   3.881   0.821  0.5624  0.7473  0.3826
 1631SOL    HW2 6290   1.537   3.968   0.828  0.7807  0.6496  0.3560
 1631SOL    HW3 6291   1.421   3.885   0.879  1.2523  0.5687  1.3376
 1631SOL    MW4 6292   1.492   3.893   0.830  0.6822  0.7109  0.5051
 1632SOL     OW 6293   6.380   6.211   3.003 -0.0251 -0.0949  0.7204
 1632SOL    HW2 6294   6.468   6.214   2.966  0.0552 -0.9701  0.8213
 1632SOL    HW3 6295   6.389   6.250   3.090  0.4560 -1.0095  1.0862
 1632SOL    MW4 6296   6.392   6.217   3.010  0.0489 -0.3310  0.7820
 1633SOL     OW 6297   5.034   4.908   5.749 -0.4209 -0.2256 -0.0210
 1633SOL    HW2 6298   4.960   4.870   5.798 -0.1042  1.1517  1.6188
 1633SOL    HW3 6299   5.002   4.992   5.718  0.3442  0.2348  0.4090
 1633SOL    MW4 6300   5.020   4.914   5.751 -0.2782  0.0169  0.2521
 1634SOL     OW 6301   4.435   1.567   3.716 -0.2632 -0.1752 -0.2561
 1634SOL    HW2 6302   4.398   1.494   3.668  0.8225  0.1112 -1.5667
 1634SOL    HW3 6303   4.524   1.540   3.738 -0.4871 -0.0028  0.9684
 1634SOL    MW4 6304   4.442   1.554   3.713 -0.1495 -0.1146 -0.2674
 1635SOL     OW 6305   3.368   1.151   1.372  0.3266 -0.7647 -0.0680
 1635SOL    HW2 6306   3.410   1.236   1.357  0.2005 -0.6934 -0.0132
 1635SOL    HW3 6307   3.318   1.135   1.292  0.0173 -0.5938  0.0870
 1635SOL    MW4 6308   3.367   1.161   1.359  0.2691 -0.7327 -0.0403
 1636SOL     OW 6309   2.576   3.324   3.384 -0.2476  0.2480 -0.5203
 1636SOL    HW2 6310   2.646   3.320   3.449  0.6212  0.1221 -1.4315
 1636SOL    HW3 6311   2.537   3.410   3.396  1.6861  1.3497 -1.5914
 1636SOL    MW4 6312   2.580   3.335   3.394  0.1221  0.3768 -0.7819
 1637SOL     OW 6313   1.477   4.433   2.136  0.0995 -0.4772 -0.0579
 1637SOL    HW2 6314   1.407   4.406   2.196  0.6705 -1.8220  0.0482
 1637SOL    HW3 6315   1.434   4.439   2.051 -0.2370 -0.9316  0.0726
 1637SOL    MW4 6316   1.462   4.430   2.133  0.1304 -0.7146 -0.0267
 1638SOL     OW 6317   5.582   5.913   0.240  0.1851  0.1711  0.6010
 1638SOL    HW2 6318   5.558   5.872   0.157  1.3496  1.3622 -0.3682
 1638SOL    HW3 6319   5.504   5.903   0.295 -1.1121  0.5096 -1.0964
 1638SOL    MW4 6320   5.568   5.906   0.237  0.1676  0.3729  0.2492
 1639SOL     OW 6321   3.866   2.527   5.726  0.2335 -0.0127 -0.0967
 1639SOL    HW2 6322   3.948   2.575   5.716  0.3372  0.3753  2.1915
 1639SOL    HW3 6323   3.834   2.515   5.636  1.6870  1.7132 -0.8932
 1639SOL    MW4 6324   3.872   2.531   5.713  0.4389  0.2662  0.1001
 1640SOL     OW 6325   1.610   5.072   2.671  0.2774  0.3031  0.2591
 1640SOL    HW2 6326   1.676   5.113   2.615  0.6026 -0.0936  0.3481
 1640SOL    HW3 6327   1.549   5.032   2.609  1.1957 -1.0209  0.1719
 1640SOL    MW4 6328   1.610   5.072   2.655  0.4415  0.0761  0.2593
 1641SOL     OW 6329   3.590   4.404   2.969 -0.5690 -0.2647 -0.4406
 1641SOL    HW2 6330   3.494   4.406   2.975 -0.7788 -2.2143 -2.2042
 1641SOL    HW3 6331   3.617   4.354   3.046 -0.8661  0.9788  0.5071
 1641SOL    MW4 6332   3.581   4.398   2.980 -0.6359 -0.3578 -0.5483
 1642SOL     OW 6333   4.614   3.704   1.385  0.0905  0.0156  0.6140
 1642SOL    HW2 6334   4.578   3.636   1.327  2.0350  0.3124 -1.0274
 1642SOL    HW3 6335   4.578   3.786   1.351  1.7583  0.2572 -0.6751
 1642SOL    MW4 6336   4.604   3.706   1.373  0.5671  0.0867  0.2274
 1643SOL     OW 6337   0.859   2.799   1.723  0.1791  0.0362 -0.3798
 1643SOL    HW2 6338   0.889   2.880   1.681 -3.1951  1.0387 -1.1880
 1643SOL    HW3 6339   0.765   2.813   1.739 -0.0388 -2.8098  1.7214
 1643SOL    MW4 6340   0.850   2.811   1.719 -0.2948 -0.2071 -0.2092
 1644SOL     OW 6341   4.263   2.722   1.206 -0.0326  0.6066 -0.3822
 1644SOL    HW2 6342   4.303   2.664   1.141  0.6125 -0.0241  0.5472
 1644SOL    HW3 6343   4.309   2.701   1.288 -1.6497  0.5188  0.5303
 1644SOL    MW4 6344   4.275   2.712   1.208 -0.1608  0.5118 -0.1391
 1645SOL     OW 6345   4.094   3.033   0.263  0.1397  0.1970  0.6635
 1645SOL    HW2 6346   4.017   2.985   0.233  0.8898 -0.6930  0.0916
 1645SOL    HW3 6347   4.082   3.122   0.228 -0.6779  0.1079  0.6947
 1645SOL    MW4 6348   4.083   3.039   0.254  0.1308  0.0678  0.5922
 1646SOL     OW 6349   5.962   4.858   4.899  0.0179 -0.2325  0.0868
 1646SOL    HW2 6350   5.916   4.913   4.962  0.8829 -1.1783  1.6049
 1646SOL    HW3 6351   5.999   4.919   4.836 -2.4227  0.6233 -0.6193
 1646SOL    MW4 6352   5.961   4.873   4.899 -0.1900 -0.2444  0.1939
 1647SOL     OW 6353   0.605   0.763   3.670  0.1145 -0.2022  0.1957
 1647SOL    HW2 6354   0.525   0.748   3.620  0.6682 -0.8711 -0.5092
 1647SOL    HW3 6355   0.668   0.792   3.605  0.3442  0.7218  0.8141
 1647SOL    MW4 6356   0.603   0.765   3.655  0.2179 -0.1685  0.1843
 1648SOL     OW 6357   4.915   4.453   3.359  0.3212 -0.5209 -0.2727
 1648SOL    HW2 6358   4.963   4.410   3.288 -1.0316  1.0327 -2.2465
 1648SOL    HW3 6359   4.833   4.480   3.318 -0.7116  0.0302  2.0569
 1648SOL    MW4 6360   4.910   4.451   3.344  0.0064 -0.2432 -0.2258
 1649SOL     OW 6361   2.935   5.385   4.789 -0.0497 -0.0582 -0.5313
 1649SOL    HW2 6362   2.874   5.437   4.737 -1.6196  0.2452  1.4963
 1649SOL    HW3 6363   2.889   5.303   4.806  0.3835 -0.1055  0.4768
 1649SOL    MW4 6364   2.921   5.381   4.784 -0.1997 -0.0244 -0.1308
 1650SOL     OW 6365   0.243   1.610   0.947 -0.3066 -0.0906 -0.1632
 1650SOL    HW2 6366   0.314   1.562   0.989 -0.6717  0.6274  1.3597
 1650SOL    HW3 6367   0.277   1.698   0.935 -0.8171  0.1730  0.2774
 1650SOL    MW4 6368   0.257   1.615   0.951 -0.4222  0.0389  0.0959
 1651SOL     OW 6369   1.916   3.303   5.823  0.1211 -0.4911  0.2114
 1651SOL    HW2 6370   1.837   3.302   5.877 -0.5040 -1.3211 -0.6819
 1651SOL    HW3 6371   1.914   3.220   5.776  1.5163 -0.5106  0.1385
 1651SOL    MW4 6372   1.905   3.292   5.824  0.2227 -0.6032  0.0839
 1652SOL     OW 6373   4.902   6.394   1.605  0.2842  0.0292 -0.2141
 1652SOL    HW2 6374   4.815   6.354   1.603  0.6010 -0.8794  1.7021
 1652SOL    HW3 6375   4.940   6.364   1.687  2.3713  0.5213 -0.9377
 1652SOL    MW4 6376   4.896   6.385   1.615  0.6014 -0.0258 -0.0568
 1653SOL     OW 6377   0.562   1.908   1.110 -0.0551 -0.4751  0.1194
 1653SOL    HW2 6378   0.508   1.891   1.187 -2.2693 -1.3117 -1.5177
 1653SOL    HW3 6379   0.590   1.821   1.081 -2.9344 -0.7046 -2.4465
 1653SOL    MW4 6380   0.558   1.894   1.116 -0.7271 -0.6158 -0.4352
 1654SOL     OW 6381   5.714   3.607   2.081 -0.8846 -0.0940 -0.0797
 1654SOL    HW2 6382   5.680   3.580   1.995 -2.6460  0.1945  0.4911
 1654SOL    HW3 6383   5.710   3.702   2.079 -1.0311 -0.0892  0.3608
 1654SOL    MW4 6384   5.709   3.616   2.069 -1.1363 -0.0553  0.0537
 1655SOL     OW 6385   5.150   4.556   0.327  0.1095 -1.1425  0.4079
 1655SOL    HW2 6386   5.229   4.533   0.376 -0.5080 -3.8282  0.2871
 1655SOL    HW3 6387   5.154   4.503   0.248 -1.1691 -0.3178 -0.2356
 1655SOL    MW4 6388   5.161   4.546   0.323 -0.1407 -1.3880  0.3071
 1656SOL     OW 6389   0.451   1.665   0.226 -0.1022 -0.1143 -0.2793
 1656SOL    HW2 6390   0.383   1.732   0.223  0.6950  0.6746 -1.6546
 1656SOL    HW3 6391   0.528   1.710   0.261  0.3504 -0.3634 -0.9231
 1656SOL    MW4 6392   0.452   1.680   0.230  0.0627 -0.0431 -0.5457
 1657SOL     OW 6393   5.643   1.176   4.606  0.1507 -0.1716 -0.3528
 1657SOL    HW2 6394   5.602   1.259   4.584 -0.9550 -0.4718  0.4659
 1657SOL    HW3 6395   5.576   1.110   4.586  0.1873 -0.6765  1.0695
 1657SOL    MW4 6396   5.629   1.178   4.601  0.0097 -0.2778 -0.0572
 1658SOL     OW 6397   2.142   1.208   0.032 -0.3086 -1.0437 -0.3322
 1658SOL    HW2 6398   2.127   1.113   0.034  0.9556 -1.2544  1.5024
 1658SOL    HW3 6399   2.233   1.218   0.060  0.0040  0.6608 -1.7905
 1658SOL    MW4 6400   2.152   1.197   0.036 -0.1006 -0.8466 -0.2825
 1659SOL     OW 6401   2.608   5.933   6.080 -0.3674 -0.0293 -0.1757
 1659SOL    HW2 6402   2.656   5.869   6.028  0.3879  0.4889 -0.1272
 1659SOL    HW3 6403   2.527   5.948   6.031  0.5685  0.8626 -1.4943
 1659SOL    MW4 6404   2.603   5.926   6.067 -0.1443  0.1567 -0.3433
 1660SOL     OW 6405   5.604   0.105   2.182  0.0763  0.1748  0.3650
 1660SOL    HW2 6406   5.623   0.057   2.102 -0.3522  1.3823 -0.4827
 1660SOL    HW3 6407   5.519   0.146   2.167 -0.5049 -0.4031  1.8434
 1660SOL    MW4 6408   5.595   0.104   2.169 -0.0569  0.2578  0.4482
 1661SOL     OW 6409   1.248   5.657   4.203  0.1353  0.1117 -0.3683
 1661SOL    HW2 6410   1.214   5.658   4.292  0.7642 -0.4858 -0.1086
 1661SOL    HW3 6411   1.197   5.589   4.158  0.0669  0.1579 -0.3608
 1661SOL    MW4 6412   1.237   5.648   4.209  0.2093  0.0389 -0.3331
 1662SOL     OW 6413   6.200   5.368   3.710 -0.7568  0.0112  0.4158
 1662SOL    HW2 6414   6.257   5.314   3.764 -0.8365 -0.3790  0.1128
 1662SOL    HW3 6415   6.199   5.325   3.624  0.5852  1.4420 -0.3673
 1662SOL    MW4 6416   6.207   5.356   3.706 -0.5902  0.1485  0.2725
 1663SOL     OW 6417   5.759   5.776   2.123 -0.0973 -0.2270 -0.1347
 1663SOL    HW2 6418   5.699   5.774   2.048 -0.9544 -1.4564  0.5550
 1663SOL    HW3 6419   5.723   5.712   2.185  0.7560  0.5278  1.2043
 1663SOL    MW4 6420   5.746   5.768   2.122 -0.0978 -0.2896  0.1329
 1664SOL     OW 6421   5.548   2.011   5.864  0.3246 -0.7298 -0.2197
 1664SOL    HW2 6422   5.597   1.942   5.819  0.7636 -1.4076  1.2493
 1664SOL    HW3 6423   5.581   2.010   5.954  0.1797  1.2691 -0.0985
 1664SOL    MW4 6424   5.558   2.002   5.870  0.3634 -0.5555 -0.0099
 1665SOL     OW 6425   1.407   1.079   5.007  0.2335  0.7521 -0.1772
 1665SOL    HW2 6426   1.312   1.089   5.002 -0.0743 -2.0939 -3.2805
 1665SOL    HW3 6427   1.423   1.041   5.094 -1.5932  0.2538 -0.0248
 1665SOL    MW4 6428   1.397   1.075   5.018 -0.0481  0.3108 -0.5665
 1666SOL     OW 6429   3.278   5.493   4.386 -0.0495  0.0535 -0.6063
 1666SOL    HW2 6430   3.348   5.489   4.321  0.5646 -0.2486  0.0657
 1666SOL    HW3 6431   3.197   5.489   4.334  0.4275  0.1354 -1.3686
 1666SOL    MW4 6432   3.277   5.492   4.370  0.0945  0.0244 -0.6182
 1667SOL     OW 6433   5.470   4.695   5.780  0.0374 -0.4487 -0.1601
 1667SOL    HW2 6434   5.526   4.768   5.756 -0.0995 -0.3866 -0.2954
 1667SOL    HW3 6435   5.435   4.663   5.697  0.4594 -0.9621 -0.1393
 1667SOL    MW4 6436   5.473   4.700   5.766  0.0750 -0.5082 -0.1752
 1668SOL     OW 6437   1.150   4.131   5.002  0.1822 -0.1079  0.2694
 1668SOL    HW2 6438   1.164   4.112   5.094 -0.3031 -0.1283  0.3419
 1668SOL    HW3 6439   1.166   4.048   4.957 -0.3010 -0.2761  0.4106
 1668SOL    MW4 6440   1.154   4.118   5.008  0.0544 -0.1328  0.2976
 1669SOL     OW 6441   1.230   0.603   4.489  0.2857  0.3625  0.0860
 1669SOL    HW2 6442   1.229   0.517   4.446 -0.0413 -0.2867  1.3345
 1669SOL    HW3 6443   1.320   0.615   4.518  0.4879  0.7656 -0.6654
 1669SOL    MW4 6444   1.241   0.593   4.487  0.2692  0.3300  0.1516
 1670SOL     OW 6445   5.333   4.371   0.540 -0.2321  0.4053  0.0288
 1670SOL    HW2 6446   5.245   4.334   0.534 -0.3249  0.4914  0.8336
 1670SOL    HW3 6447   5.350   4.379   0.633  0.0639  1.7524 -0.1151
 1670SOL    MW4 6448   5.323   4.367   0.551 -0.2053  0.5944  0.1160
 1671SOL     OW 6449   4.002   4.524   4.461  0.0892  0.1186  0.1890
 1671SOL    HW2 6450   4.040   4.454   4.407  3.0081  0.7905  1.1872
 1671SOL    HW3 6451   4.071   4.547   4.522 -0.8330  3.7394  0.0786
 1671SOL    MW4 6452   4.016   4.518   4.462  0.3527  0.6850  0.3061
 1672SOL     OW 6453   6.243   3.643   5.820  0.0279  0.0058  0.5063
 1672SOL    HW2 6454   6.207   3.709   5.761  0.9269 -0.2036 -0.3042
 1672SOL    HW3 6455   6.240   3.562   5.769  2.3544  0.1220  0.0731
 1672SOL    MW4 6456   6.238   3.641   5.805  0.4535 -0.0065  0.3422
 1673SOL     OW 6457   4.307   3.733   3.833  0.8738 -0.2422  0.3832
 1673SOL    HW2 6458   4.295   3.748   3.927 -0.3347 -0.3881  0.2704
 1673SOL    HW3 6459   4.352   3.648   3.827 -0.4313 -0.9892  0.8106
 1673SOL    MW4 6460   4.312   3.724   3.844  0.5422 -0.3600  0.4247
 1674SOL     OW 6461   3.630   0.719   4.770  0.1647 -0.2511 -0.0673
 1674SOL    HW2 6462   3.660   0.679   4.689 -0.2426 -1.0835  0.1824
 1674SOL    HW3 6463   3.710   0.748   4.814  0.5453 -1.5288  0.1245
 1674SOL    MW4 6464   3.644   0.718   4.765  0.1612 -0.5295 -0.0091
 1675SOL     OW 6465   0.814   1.898   1.966 -0.1707  0.0196 -0.0130
 1675SOL    HW2 6466   0.745   1.832   1.979 -0.5788  0.3661 -0.3715
 1675SOL    HW3 6467   0.859   1.902   2.051  0.4829 -1.4019 -0.2580
 1675SOL    MW4 6468   0.811   1.890   1.979 -0.1383 -0.1223 -0.0926
 1676SOL     OW 6469   1.035   3.682   2.223 -0.2170 -0.6172 -0.4721
 1676SOL    HW2 6470   1.053   3.592   2.251 -0.3320 -0.5694 -0.2433
 1676SOL    HW3 6471   1.020   3.730   2.304 -4.2263 -1.2365 -0.5984
 1676SOL    MW4 6472   1.035   3.676   2.237 -0.7611 -0.6926 -0.4586
 1677SOL     OW 6473   3.537   2.742   3.532 -0.8318 -0.0559 -0.0442
 1677SOL    HW2 6474   3.472   2.812   3.537 -1.5973 -0.8403  1.4161
 1677SOL    HW3 6475   3.498   2.677   3.474 -0.8153  0.0110 -0.1308
 1677SOL    MW4 6476   3.523   2.743   3.525 -0.9306 -0.1506  0.1370
 1678SOL     OW 6477   4.011   2.686   1.562 -0.0911  0.3507  0.0197
 1678SOL    HW2 6478   4.010   2.719   1.472 -0.2215  1.3485  0.3686
 1678SOL    HW3 6479   3.999   2.592   1.554 -1.5477  0.5923 -0.9536
 1678SOL    MW4 6480   4.009   2.678   1.549 -0.3005  0.5142 -0.0627
 1679SOL     OW 6481   4.415   1.452   3.038  0.3805 -0.0516  0.1421
 1679SOL    HW2 6482   4.507   1.430   3.024  0.7611  0.8803  1.0388
 1679SOL    HW3 6483   4.387   1.395   3.110  0.1314 -0.6077 -0.3835
 1679SOL    MW4 6484   4.423   1.442   3.045  0.3978 -0.0020  0.1911
 1680SOL     OW 6485   3.309   2.772   1.371  0.6627  0.6719 -0.0815
 1680SOL    HW2 6486   3.337   2.715   1.443  2.6726  0.8976 -0.6161
 1680SOL    HW3 6487   3.337   2.859   1.397  0.0371  0.9968 -0.4684
 1680SOL    MW4 6488   3.317   2.776   1.384  0.8453  0.7445 -0.2030
 1681SOL     OW 6489   1.101   3.531   4.494 -0.2953  0.1183  0.1897
 1681SOL    HW2 6490   1.105   3.436   4.503 -0.8876  0.1043  0.3508
 1681SOL    HW3 6491   1.078   3.563   4.581 -2.6798  0.2152 -0.3970
 1681SOL    MW4 6492   1.098   3.523   4.507 -0.6880  0.1292  0.1335
 1682SOL     OW 6493   0.674   2.953   0.033 -0.0233 -0.3297  0.4799
 1682SOL    HW2 6494   0.640   2.950   0.123 -0.6226 -1.3411  0.2360
 1682SOL    HW3 6495   0.599   2.981  -0.020  0.0510 -0.6845  0.1797
 1682SOL    MW4 6496   0.660   2.956   0.038 -0.0925 -0.5100  0.4081
 1683SOL     OW 6497   2.518   0.620   1.289 -0.4393  0.0929 -0.1941
 1683SOL    HW2 6498   2.557   0.576   1.214  1.3003  0.2707  0.5427
 1683SOL    HW3 6499   2.559   0.578   1.365 -0.8368  1.0916  0.5987
 1683SOL    MW4 6500   2.528   0.608   1.289 -0.2623  0.2481  0.0077
 1684SOL     OW 6501   0.058   1.207   1.569 -0.2608  0.0309 -0.0445
 1684SOL    HW2 6502  -0.020   1.196   1.624 -0.0242  0.2315  0.3368
 1684SOL    HW3 6503   0.039   1.286   1.517  0.0654  0.6246  0.7148
 1684SOL    MW4 6504   0.045   1.216   1.569 -0.1865  0.1357  0.1060
 1685SOL     OW 6505   0.725   5.806   3.738 -0.0713  0.3628 -0.3174
 1685SOL    HW2 6506   0.696   5.718   3.713  2.0670 -0.2303 -0.9693
 1685SOL    HW3 6507   0.779   5.834   3.665 -0.8375  2.3214 -0.1814
 1685SOL    MW4 6508   0.728   5.798   3.725  0.1097  0.5430 -0.3855
 1686SOL     OW 6509   0.294   2.782   5.589 -0.0156  0.4686 -0.4422
 1686SOL    HW2 6510   0.281   2.863   5.541  1.9194  1.6229  0.8193
 1686SOL    HW3 6511   0.208   2.761   5.625 -0.4442  2.3692 -0.2332
 1686SOL    MW4 6512   0.281   2.790   5.588  0.1832  0.8717 -0.2482
 1687SOL     OW 6513   1.706   5.775   2.821  0.1533  0.3831  0.5035
 1687SOL    HW2 6514   1.729   5.683   2.812 -1.5252 -0.0247  0.0741
 1687SOL    HW3 6515   1.661   5.781   2.905 -0.0873  0.7304  0.3555
 1687SOL    MW4 6516   1.703   5.764   2.831 -0.0999  0.3751  0.4273
 1688SOL     OW 6517   3.289   5.105   2.621  0.4228 -0.1867  0.8356
 1688SOL    HW2 6518   3.280   5.148   2.706  0.8057  0.1027  0.7370
 1688SOL    HW3 6519   3.218   5.042   2.618 -0.0751  0.3569  1.0400
 1688SOL    MW4 6520   3.279   5.102   2.632  0.4077 -0.0768  0.8496
 1689SOL     OW 6521   0.101   0.692   2.834  0.0101 -0.0729  0.0897
 1689SOL    HW2 6522   0.169   0.632   2.865  0.5519 -0.3735 -1.5451
 1689SOL    HW3 6523   0.086   0.666   2.743 -1.0356  1.1318 -0.1142
 1689SOL    MW4 6524   0.108   0.681   2.826 -0.0564  0.0464 -0.1529
 1690SOL     OW 6525   1.290   1.800   4.784  0.0128  0.2197  0.0732
 1690SOL    HW2 6526   1.381   1.822   4.804  0.0855 -0.8212  0.9623
 1690SOL    HW3 6527   1.279   1.711   4.817 -1.7829  0.9002  1.4432
 1690SOL    MW4 6528   1.301   1.792   4.791 -0.2145  0.1721  0.3713
 1691SOL     OW 6529   1.079   1.454   5.462 -0.1795  0.0854 -0.7021
 1691SOL    HW2 6530   1.011   1.486   5.521 -0.4739  0.9714 -1.4944
 1691SOL    HW3 6531   1.037   1.450   5.376  0.7856  0.7444 -1.2265
 1691SOL    MW4 6532   1.065   1.458   5.458 -0.0910  0.2893 -0.8758
 1692SOL     OW 6533   0.907   0.910   5.651  0.7916  0.2535 -0.1902
 1692SOL    HW2 6534   0.860   0.987   5.621  0.5449  0.0415 -0.3480
 1692SOL    HW3 6535   0.868   0.837   5.603 -1.6478 -0.5415  2.6867
 1692SOL    MW4 6536   0.896   0.910   5.641  0.4372  0.1206  0.1686
 1693SOL     OW 6537   6.244   2.993   3.857 -0.4644 -0.3793 -0.0982
 1693SOL    HW2 6538   6.175   3.023   3.915 -0.1518 -0.2560  0.2119
 1693SOL    HW3 6539   6.208   3.004   3.769 -0.1902  1.3777 -0.0250
 1693SOL    MW4 6540   6.230   2.999   3.853 -0.3870 -0.1312 -0.0476
 1694SOL     OW 6541   2.500   5.772   3.763  0.2340  0.2145  0.2300
 1694SOL    HW2 6542   2.525   5.695   3.711 -1.9799 -1.2292  1.1939
 1694SOL    HW3 6543   2.452   5.828   3.701  1.1655  0.4862 -0.2698
 1694SOL    MW4 6544   2.497   5.769   3.748  0.0648  0.0599  0.2912
 1695SOL     OW 6545   0.303   0.919   1.640 -0.0858  0.2625 -0.3899
 1695SOL    HW2 6546   0.246   0.843   1.625  1.4424 -1.5204  2.1333
 1695SOL    HW3 6547   0.251   0.978   1.694 -0.4633 -0.0982 -0.3537
 1695SOL    MW4 6548   0.288   0.917   1.645  0.0660 -0.0203 -0.0522
 1696SOL     OW 6549   3.978   0.382   2.013 -0.0917 -0.3378  0.2508
 1696SOL    HW2 6550   3.941   0.411   1.930  0.9784  0.8615  0.1631
 1696SOL    HW3 6551   3.946   0.445   2.077  0.7061 -0.0649  0.3961
 1696SOL    MW4 6552   3.969   0.394   2.011  0.1547 -0.1435  0.2584
 1697SOL     OW 6553   4.080   5.240   3.543 -0.1718 -0.5290  0.1168
 1697SOL    HW2 6554   4.018   5.179   3.502  0.5632 -0.8094 -0.5995
 1697SOL    HW3 6555   4.141   5.262   3.473  1.6957 -1.7473  1.3011
 1697SOL    MW4 6556   4.080   5.235   3.528  0.1716 -0.7267  0.1785
 1698SOL     OW 6557   2.870   0.681   5.838 -0.1968  0.5631 -0.2999
 1698SOL    HW2 6558   2.870   0.777   5.842  1.5134  0.5902  0.0524
 1698SOL    HW3 6559   2.802   0.660   5.774 -1.7123  1.9140  0.7764
 1698SOL    MW4 6560   2.861   0.691   5.830 -0.1711  0.7449 -0.1114
 1699SOL     OW 6561   4.099   4.764   0.080 -0.5619  0.0406 -0.2292
 1699SOL    HW2 6562   4.070   4.822   0.150  1.1069  1.2229 -0.4714
 1699SOL    HW3 6563   4.038   4.780   0.009  0.6611  2.6233 -0.8051
 1699SOL    MW4 6564   4.087   4.774   0.080 -0.1804  0.5373 -0.3371
 1700SOL     OW 6565   3.539   2.535   3.726 -0.0830 -0.2816 -0.0969
 1700SOL    HW2 6566   3.542   2.620   3.683  1.3458 -1.0664 -1.6722
 1700SOL    HW3 6567   3.568   2.552   3.815  1.3713  0.7321 -0.7257
 1700SOL    MW4 6568   3.543   2.548   3.732  0.2974 -0.2514 -0.3877
 1701SOL     OW 6569   1.878   3.940   5.209 -0.0568  0.0501  0.0024
 1701SOL    HW2 6570   1.916   4.023   5.240  0.3147 -0.2057  0.2391
 1701SOL    HW3 6571   1.929   3.872   5.253 -3.0849 -0.3633  3.3078
 1701SOL    MW4 6572   1.890   3.942   5.219 -0.4073 -0.0382  0.4697
 1702SOL     OW 6573   3.134   4.656   2.585 -0.6166  0.6337  0.1479
 1702SOL    HW2 6574   3.223   4.675   2.614 -0.8243  0.8176  0.6766
 1702SOL    HW3 6575   3.113   4.572   2.626 -0.2872  0.0325 -0.8811
 1702SOL    MW4 6576   3.143   4.648   2.595 -0.6006  0.5786  0.0819
 1703SOL     OW 6577   6.029   4.111   0.391 -0.5038 -0.0006  0.0784
 1703SOL    HW2 6578   6.054   4.019   0.380 -1.1670 -0.2248  0.3965
 1703SOL    HW3 6579   5.990   4.115   0.478 -1.2155  0.4216 -0.2546
 1703SOL    MW4 6580   6.027   4.099   0.401 -0.6852  0.0255  0.0764
 1704SOL     OW 6581   5.912   1.845   4.446  0.1293  0.8001  0.1395
 1704SOL    HW2 6582   5.958   1.812   4.523 -0.4089  1.9425  0.9729
 1704SOL    HW3 6583   5.828   1.875   4.479 -0.5949  0.2459 -1.1008
 1704SOL    MW4 6584   5.907   1.844   4.460 -0.0372  0.8777  0.0858
 1705SOL     OW 6585   3.648   0.666   3.745 -0.2057 -0.2247  0.0521
 1705SOL    HW2 6586   3.721   0.724   3.768 -0.8791 -0.1310  2.1369
 1705SOL    HW3 6587   3.665   0.586   3.794 -0.6004 -0.8757 -0.8514
 1705SOL    MW4 6588   3.660   0.663   3.754 -0.3467 -0.2982  0.2079
 1706SOL     OW 6589   4.372   2.524   5.904  0.3421 -0.0574  0.0617
 1706SOL    HW2 6590   4.362   2.617   5.923 -0.3811 -0.5350  2.3205
 1706SOL    HW3 6591   4.319   2.509   5.826 -0.0315  1.2870  0.0322
 1706SOL    MW4 6592   4.364   2.534   5.896  0.1974  0.0569  0.3558
 1707SOL     OW 6593   6.059   2.193   4.500 -0.7085  0.4425  0.1228
 1707SOL    HW2 6594   6.047   2.120   4.560  0.5356 -0.3269 -0.5301
 1707SOL    HW3 6595   5.976   2.241   4.504 -1.9934 -1.6337 -0.2927
 1707SOL    MW4 6596   6.047   2.190   4.508 -0.7139  0.0671 -0.0182
 1708SOL     OW 6597   5.492   5.379   6.202  0.0353 -0.0049  0.0384
 1708SOL    HW2 6598   5.528   5.291   6.193 -0.6873 -0.2141 -1.0346
 1708SOL    HW3 6599   5.402   5.365   6.231 -0.2529  0.3429 -0.6680
 1708SOL    MW4 6600   5.485   5.366   6.204 -0.0980  0.0134 -0.1964
 1709SOL     OW 6601   0.563   5.558   4.898  0.1101  0.0556  0.0776
 1709SOL    HW2 6602   0.651   5.535   4.929  1.5808  2.1610 -2.1664
 1709SOL    HW3 6603   0.540   5.636   4.948 -0.5190 -0.4564  0.6180
 1709SOL    MW4 6604   0.572   5.565   4.909  0.2211  0.2658 -0.1471
 1710SOL     OW 6605   5.056   1.842   4.310  0.6769 -0.5962 -0.0362
 1710SOL    HW2 6606   5.064   1.937   4.305  3.1150 -0.8166 -1.5810
 1710SOL    HW3 6607   5.135   1.813   4.356 -1.0765 -1.8053  2.4472
 1710SOL    MW4 6608   5.067   1.850   4.315  0.7672 -0.7848  0.0876
 1711SOL     OW 6609   1.634   5.786   0.647 -0.5315  0.0564 -0.1325
 1711SOL    HW2 6610   1.594   5.758   0.564 -1.4375 -2.1592  0.9614
 1711SOL    HW3 6611   1.568   5.765   0.713 -0.1075  2.4221  1.1287
 1711SOL    MW4 6612   1.620   5.780   0.645 -0.5951  0.0762  0.1782
 1712SOL     OW 6613   3.220   2.342   0.780  0.1139  0.6705 -0.0114
 1712SOL    HW2 6614   3.257   2.316   0.864  1.1696 -0.1160 -0.6924
 1712SOL    HW3 6615   3.172   2.422   0.799  0.6895  0.7441  1.2624
 1712SOL    MW4 6616   3.219   2.349   0.794  0.3292  0.5765  0.0668
 1713SOL     OW 6617   5.373   3.799   0.537 -0.2209  0.0721 -0.4792
 1713SOL    HW2 6618   5.429   3.820   0.612  1.7117 -1.1673 -1.4989
 1713SOL    HW3 6619   5.359   3.705   0.542 -0.0935 -0.0244 -1.6384
 1713SOL    MW4 6620   5.379   3.790   0.547  0.0509 -0.1042 -0.7666
 1714SOL     OW 6621   2.652   2.379   2.664 -0.3920 -0.1975  0.7871
 1714SOL    HW2 6622   2.600   2.327   2.604  0.5242 -0.4680  0.1957
 1714SOL    HW3 6623   2.609   2.370   2.749 -2.2270  0.9129  0.0200
 1714SOL    MW4 6624   2.640   2.371   2.668 -0.5133 -0.0867  0.6079
 1715SOL     OW 6625   2.053   2.533   1.218 -0.7586 -0.3540 -0.3946
 1715SOL    HW2 6626   2.076   2.441   1.204 -1.5393 -0.3955 -1.4923
 1715SOL    HW3 6627   2.083   2.578   1.139  0.8167  0.5916  0.6684
 1715SOL    MW4 6628   2.060   2.527   1.206 -0.6538 -0.2347 -0.3992
 1716SOL     OW 6629   3.063   3.136   1.802 -0.0001 -0.1785  0.0550
 1716SOL    HW2 6630   3.086   3.044   1.817  0.2785 -0.1036  0.0835
 1716SOL    HW3 6631   2.983   3.132   1.749  0.0614 -0.4363 -0.0202
 1716SOL    MW4 6632   3.055   3.123   1.797  0.0448 -0.2027  0.0489
 1717SOL     OW 6633   4.550   1.932   4.115  0.2190  0.2501  0.0325
 1717SOL    HW2 6634   4.552   1.840   4.139 -0.1650  0.0375 -0.6890
 1717SOL    HW3 6635   4.614   1.974   4.172 -0.3321 -0.2851  1.0735
 1717SOL    MW4 6636   4.559   1.926   4.125  0.0956  0.1515  0.0747
 1718SOL     OW 6637   3.005   0.567   2.319 -0.0564  0.0727  0.0090
 1718SOL    HW2 6638   3.090   0.540   2.284  0.0762 -1.4787  1.4120
 1718SOL    HW3 6639   3.014   0.558   2.414 -1.7635 -0.0505  0.1893
 1718SOL    MW4 6640   3.018   0.562   2.327 -0.2641 -0.1482  0.2179
 1719SOL     OW 6641   5.098   0.432   4.435  0.1127  0.0991 -0.2918
 1719SOL    HW2 6642   5.127   0.453   4.524 -0.2888 -0.4871 -0.0200
 1719SOL    HW3 6643   5.093   0.337   4.433 -1.3531  0.1565 -0.4672
 1719SOL    MW4 6644   5.101   0.422   4.446 -0.1337  0.0293 -0.2791
 1720SOL     OW 6645   5.137   6.411   4.989 -0.0359 -0.1219 -0.4098
 1720SOL    HW2 6646   5.154   6.500   5.017  2.0615 -0.9599  1.2162
 1720SOL    HW3 6647   5.045   6.395   5.012 -0.5489  1.6870 -1.0763
 1720SOL    MW4 6648   5.127   6.420   4.996  0.1731  0.0062 -0.2832
 1721SOL     OW 6649   5.664   5.545   0.842 -0.7258 -0.1606  0.6077
 1721SOL    HW2 6650   5.698   5.606   0.908 -0.0213 -1.0914  1.1371
 1721SOL    HW3 6651   5.690   5.459   0.875 -0.4568 -0.6500 -0.8427
 1721SOL    MW4 6652   5.672   5.542   0.855 -0.5974 -0.3480  0.4862
 1722SOL     OW 6653   4.120   1.133   5.017 -0.6369 -0.3302 -0.1290
 1722SOL    HW2 6654   4.186   1.193   4.983 -0.6028 -0.4542 -0.2791
 1722SOL    HW3 6655   4.167   1.050   5.029 -0.4935 -0.1399  0.7727
 1722SOL    MW4 6656   4.135   1.130   5.014 -0.6135 -0.3215 -0.0298
 1723SOL     OW 6657   6.445   5.734   2.980 -0.2924  0.5236 -0.5938
 1723SOL    HW2 6658   6.404   5.798   3.038  1.5888  2.1798 -0.9737
 1723SOL    HW3 6659   6.381   5.722   2.909 -1.1825  1.0362  0.1001
 1723SOL    MW4 6660   6.431   5.741   2.978 -0.1616  0.8097 -0.5524
 1724SOL     OW 6661   5.012   3.770   2.815  0.1301 -0.1286 -0.7304
 1724SOL    HW2 6662   5.011   3.813   2.729 -1.2825  0.2780 -0.5249
 1724SOL    HW3 6663   5.050   3.835   2.874 -0.8378  0.3885 -0.6595
 1724SOL    MW4 6664   5.017   3.784   2.811 -0.1840 -0.0068 -0.6939
 1725SOL     OW 6665   4.350   1.019   4.774  0.0919  0.0824  0.3196
 1725SOL    HW2 6666   4.269   1.022   4.724 -0.4503  1.3456  1.2192
 1725SOL    HW3 6667   4.348   1.098   4.828  1.4891 -0.3313  1.0311
 1725SOL    MW4 6668   4.339   1.030   4.775  0.2047  0.1945  0.5322
 1726SOL     OW 6669   4.665   3.868   2.095  0.3076 -0.0751  0.0519
 1726SOL    HW2 6670   4.614   3.795   2.131 -0.1122  1.1392  2.0540
 1726SOL    HW3 6671   4.690   3.920   2.172  1.8074  1.1247 -1.1944
 1726SOL    MW4 6672   4.661   3.865   2.110  0.4501  0.2434  0.1516
 1727SOL     OW 6673   4.492   1.871   5.956 -0.5110 -0.2168 -0.2600
 1727SOL    HW2 6674   4.469   1.792   6.004  0.5627 -1.2460 -1.3496
 1727SOL    HW3 6675   4.588   1.869   5.951 -0.5289  0.5330 -1.2837
 1727SOL    MW4 6676   4.502   1.860   5.961 -0.3717 -0.2537 -0.5388
 1728SOL     OW 6677   5.863   6.125   3.127  0.3015  0.8245 -0.0995
 1728SOL    HW2 6678   5.910   6.148   3.048  0.1076 -0.0438 -0.4730
 1728SOL    HW3 6679   5.772   6.149   3.109 -0.5125 -2.7713 -1.6572
 1728SOL    MW4 6680   5.857   6.132   3.114  0.1685  0.2355 -0.3543
 1729SOL     OW 6681   6.254   1.087   6.064 -0.0294  0.3180  0.1949
 1729SOL    HW2 6682   6.187   1.071   6.131  0.8406  0.6040  1.1657
 1729SOL    HW3 6683   6.292   1.001   6.046 -0.5255  0.1841 -0.2181
 1729SOL    MW4 6684   6.250   1.073   6.071  0.0199  0.3381  0.2685
 1730SOL     OW 6685   2.040   5.498   6.053  0.2225  0.4408  0.6814
 1730SOL    HW2 6686   2.089   5.419   6.077 -0.7089 -0.3138  0.1901
 1730SOL    HW3 6687   2.064   5.514   5.962  0.6252  0.8894  0.8672
 1730SOL    MW4 6688   2.050   5.490   6.044  0.1528  0.4004  0.6411
 1731SOL     OW 6689   3.128   2.300   0.243  0.0483  0.1481 -0.2036
 1731SOL    HW2 6690   3.125   2.371   0.179  0.2958  0.1359 -0.2306
 1731SOL    HW3 6691   3.220   2.295   0.269 -0.2006  0.7324  0.8203
 1731SOL    MW4 6692   3.140   2.308   0.238  0.0481  0.2236 -0.0720
 1732SOL     OW 6693   6.401   0.669   3.839  0.1127  0.4667 -0.3036
 1732SOL    HW2 6694   6.354   0.720   3.773  2.8410  1.0212 -1.9892
 1732SOL    HW3 6695   6.401   0.580   3.805  1.0672  0.6539 -0.8263
 1732SOL    MW4 6696   6.395   0.664   3.826  0.5986  0.5646 -0.5950
 1733SOL     OW 6697   3.957   5.920   4.035 -0.2371  0.3060  0.0170
 1733SOL    HW2 6698   3.971   6.006   3.997  1.6623  0.0714  0.0511
 1733SOL    HW3 6699   3.957   5.860   3.960  0.0797  0.1910  0.1040
 1733SOL    MW4 6700   3.959   5.923   4.020  0.0553  0.2599  0.0330
 1734SOL     OW 6701   0.805   3.556   0.885  0.1975 -0.3823 -0.2663
 1734SOL    HW2 6702   0.769   3.632   0.840  0.2213 -0.8775 -1.1428
 1734SOL    HW3 6703   0.897   3.554   0.860  0.3614 -0.3055  0.3132
 1734SOL    MW4 6704   0.812   3.566   0.876  0.2223 -0.4375 -0.3054
 1735SOL     OW 6705   3.134   2.495   6.164 -0.6737  0.3691  0.0526
 1735SOL    HW2 6706   3.085   2.576   6.175 -0.8491  0.1764  0.7292
 1735SOL    HW3 6707   3.072   2.426   6.188 -0.2305  0.0945  0.4356
 1735SOL    MW4 6708   3.119   2.497   6.169 -0.6383  0.3075  0.1924
 1736SOL     OW 6709   0.485   5.743   5.486  0.4126 -0.4370  0.5495
 1736SOL    HW2 6710   0.529   5.700   5.559  0.2566 -0.9248  0.3568
 1736SOL    HW3 6711   0.424   5.804   5.527 -0.2067 -1.2423  0.8378
 1736SOL    MW4 6712   0.483   5.746   5.501  0.3103 -0.6076  0.5621
 1737SOL     OW 6713   4.024   3.684   2.968  1.0503 -0.1635  0.2221
 1737SOL    HW2 6714   4.051   3.602   2.926 -1.2783 -0.1456 -1.4948
 1737SOL    HW3 6715   4.090   3.747   2.941  0.5830 -0.5605 -2.0526
 1737SOL    MW4 6716   4.037   3.681   2.959  0.6814 -0.2135 -0.3045
 1738SOL     OW 6717   1.129   3.322   4.775  0.2484 -0.4495  0.0564
 1738SOL    HW2 6718   1.198   3.375   4.738  0.2520  0.7608  1.7000
 1738SOL    HW3 6719   1.144   3.234   4.739  1.3113  0.2528 -1.2905
 1738SOL    MW4 6720   1.140   3.317   4.766  0.3891 -0.1972  0.0956
 1739SOL     OW 6721   4.479   5.670   0.885 -0.0085  0.4450 -0.0724
 1739SOL    HW2 6722   4.476   5.756   0.842  1.3420  1.1145  1.0981
 1739SOL    HW3 6723   4.485   5.690   0.978  0.1759 -0.9256  0.2247
 1739SOL    MW4 6724   4.480   5.684   0.891  0.1940  0.3525  0.1213
 1740SOL     OW 6725   6.287   0.663   5.595 -0.7549 -0.4024 -0.0070
 1740SOL    HW2 6726   6.207   0.610   5.585 -0.7887 -0.4386  0.4461
 1740SOL    HW3 6727   6.267   0.744   5.548  0.1358 -1.6490 -2.7126
 1740SOL    MW4 6728   6.274   0.666   5.587 -0.6418 -0.5716 -0.3042
 1741SOL     OW 6729   6.236   2.966   1.349  0.6523  0.0517 -0.3574
 1741SOL    HW2 6730   6.298   2.997   1.415  1.5613 -0.9833 -0.6998
 1741SOL    HW3 6731   6.249   3.024   1.274  0.1300  0.7781  0.1085
 1741SOL    MW4 6732   6.246   2.978   1.348  0.7033  0.0110 -0.3411
 1742SOL     OW 6733   6.237   2.103   5.857 -0.0947 -0.2795 -0.4514
 1742SOL    HW2 6734   6.142   2.116   5.849 -0.0852  0.7485  0.9174
 1742SOL    HW3 6735   6.250   2.013   5.827 -1.6845 -0.8890  0.5181
 1742SOL    MW4 6736   6.226   2.093   5.852 -0.3032 -0.2243 -0.1429
 1743SOL     OW 6737   1.472   5.518   3.039 -0.6774  0.0785 -0.1409
 1743SOL    HW2 6738   1.443   5.562   2.959  0.9387 -1.5892 -1.7463
 1743SOL    HW3 6739   1.567   5.512   3.030 -0.3673  0.4118  2.2536
 1743SOL    MW4 6740   1.481   5.523   3.027 -0.4233 -0.0975 -0.0368
 1744SOL     OW 6741   1.452   5.709   2.588 -0.4788 -0.2657  0.1074
 1744SOL    HW2 6742   1.410   5.623   2.592  1.0157 -1.0217  0.1369
 1744SOL    HW3 6743   1.380   5.770   2.568 -1.7975 -1.3145  1.4320
 1744SOL    MW4 6744   1.437   5.706   2.586 -0.4556 -0.5038  0.2861
 1745SOL     OW 6745   3.677   4.032   1.659 -0.2572 -0.5071 -0.0473
 1745SOL    HW2 6746   3.605   4.083   1.622 -0.1154  0.2161  0.6516
 1745SOL    HW3 6747   3.638   3.984   1.732  0.0812  0.3731  0.7344
 1745SOL    MW4 6748   3.662   4.032   1.663 -0.1939 -0.2955  0.1480
 1746SOL     OW 6749   2.936   6.168   4.046  0.1990 -0.0392 -0.1302
 1746SOL    HW2 6750   2.887   6.220   4.109  0.2991 -0.0147 -0.0718
 1746SOL    HW3 6751   2.907   6.078   4.061  0.4888 -0.0820  0.2004
 1746SOL    MW4 6752   2.926   6.163   4.056  0.2504 -0.0416 -0.0788
 1747SOL     OW 6753   0.677   5.269   0.577  0.5195 -0.0986  0.1287
 1747SOL    HW2 6754   0.745   5.229   0.630 -0.1718 -1.7255 -0.1378
 1747SOL    HW3 6755   0.605   5.206   0.580  0.4810 -0.3181 -2.7900
 1747SOL    MW4 6756   0.676   5.255   0.584  0.4232 -0.3422 -0.2915
 1748SOL     OW 6757   4.625   3.002   1.479 -0.2437 -0.3743  0.0491
 1748SOL    HW2 6758   4.623   2.973   1.388 -1.4887 -0.8652  0.2165
 1748SOL    HW3 6759   4.654   3.093   1.475 -0.3102 -0.3853 -0.8376
 1748SOL    MW4 6760   4.629   3.010   1.467 -0.4167 -0.4406 -0.0458
 1749SOL     OW 6761   3.292   3.206   5.098  0.5890 -0.0514 -0.0598
 1749SOL    HW2 6762   3.241   3.132   5.131 -0.9064  0.6839 -0.6316
 1749SOL    HW3 6763   3.374   3.202   5.147 -0.7977 -0.0711  2.4318
 1749SOL    MW4 6764   3.296   3.196   5.109  0.2088  0.0430  0.1935
 1750SOL     OW 6765   5.904   0.338   2.118 -0.0773 -0.2416 -0.5643
 1750SOL    HW2 6766   5.842   0.360   2.188  0.0135 -0.0982 -0.5286
 1750SOL    HW3 6767   5.937   0.423   2.087  2.1247 -0.3281  1.2257
 1750SOL    MW4 6768   5.900   0.352   2.123  0.2252 -0.2341 -0.3235
 1751SOL     OW 6769   4.852   1.480   2.496 -0.5800  0.5706 -0.3066
 1751SOL    HW2 6770   4.787   1.490   2.565  0.3816 -1.9739  1.1064
 1751SOL    HW3 6771   4.933   1.513   2.534 -0.4656  1.1719 -1.0467
 1751SOL    MW4 6772   4.854   1.485   2.510 -0.4380  0.3142 -0.2178
 1752SOL     OW 6773   4.644   5.596   0.505 -0.1359 -0.2005  0.7718
 1752SOL    HW2 6774   4.651   5.508   0.468  1.9345  0.1259  0.2655
 1752SOL    HW3 6775   4.550   5.610   0.517 -0.4758 -2.8311  1.7926
 1752SOL    MW4 6776   4.632   5.586   0.502  0.0924 -0.5045  0.8397
 1753SOL     OW 6777   0.860   6.073   6.102 -0.6908  0.9960 -0.0196
 1753SOL    HW2 6778   0.912   5.993   6.091 -2.1401 -0.2751  1.6040
 1753SOL    HW3 6779   0.925   6.142   6.116  0.5960 -0.0299 -0.6949
 1753SOL    MW4 6780   0.876   6.071   6.103 -0.7122  0.6929  0.1055
 1754SOL     OW 6781   5.525   1.614   4.703  0.2817 -0.1756 -0.8898
 1754SOL    HW2 6782   5.506   1.618   4.797 -0.4962 -2.2511 -0.9049
 1754SOL    HW3 6783   5.612   1.653   4.694  0.2125  0.3813  0.6287
 1754SOL    MW4 6784   5.534   1.620   4.714  0.1700 -0.3760 -0.6915
 1755SOL     OW 6785   4.772   2.912   3.547 -0.4687  0.0539  0.7593
 1755SOL    HW2 6786   4.797   2.951   3.463  1.8626 -1.4639  0.6595
 1755SOL    HW3 6787   4.679   2.892   3.537 -0.7690  1.8856 -0.6251
 1755SOL    MW4 6788   4.763   2.914   3.534 -0.2007  0.0954  0.5635
 1756SOL     OW 6789   3.743   4.686   5.387  0.0730 -0.4065 -0.4366
 1756SOL    HW2 6790   3.754   4.709   5.479 -0.4613 -1.6246 -0.0545
 1756SOL    HW3 6791   3.697   4.761   5.350 -0.8333 -0.4282  0.5804
 1756SOL    MW4 6792   3.738   4.699   5.394 -0.1170 -0.5701 -0.2520
 1757SOL     OW 6793   6.019   0.138   1.970  0.3553 -0.0068  0.1286
 1757SOL    HW2 6794   5.963   0.063   1.990 -1.4706  0.7213 -1.9195
 1757SOL    HW3 6795   5.985   0.209   2.025 -0.6010  0.3631 -0.9157
 1757SOL    MW4 6796   6.007   0.138   1.980 -0.0118  0.1381 -0.2794
 1758SOL     OW 6797   4.899   2.038   5.296  0.3965 -0.0531  0.2904
 1758SOL    HW2 6798   4.916   2.132   5.305  0.6454 -0.2456  2.1856
 1758SOL    HW3 6799   4.984   1.997   5.310  0.1877 -0.5888  0.0151
 1758SOL    MW4 6800   4.913   2.045   5.299  0.4018 -0.1492  0.5041
 1759SOL     OW 6801   1.534   1.472   2.144 -0.5340  0.2170  0.3819
 1759SOL    HW2 6802   1.601   1.456   2.210  0.1399 -0.0768 -0.3547
 1759SOL    HW3 6803   1.569   1.434   2.064 -1.5688  0.0838 -0.0338
 1759SOL    MW4 6804   1.547   1.465   2.142 -0.5817  0.1607  0.2299
 1760SOL     OW 6805   4.458   2.013   1.348  0.1037 -0.7791 -0.0594
 1760SOL    HW2 6806   4.490   1.966   1.425  0.4068 -0.5901 -0.0696
 1760SOL    HW3 6807   4.504   2.096   1.350 -0.1036 -0.6579 -0.2882
 1760SOL    MW4 6808   4.468   2.018   1.358  0.1163 -0.7382 -0.0909
 1761SOL     OW 6809   4.337   0.783   4.417  0.2365 -0.3035 -0.0309
 1761SOL    HW2 6810   4.376   0.698   4.440  1.8746 -0.2859 -2.4075
 1761SOL    HW3 6811   4.402   0.847   4.443 -0.4008  0.1507  0.4836
 1761SOL    MW4 6812   4.351   0.780   4.424  0.3686 -0.2413 -0.2766
 1762SOL     OW 6813   0.593   1.953   6.240 -1.0410 -1.0012  0.3109
 1762SOL    HW2 6814   0.654   1.936   6.312  0.1899  1.7291  0.0371
 1762SOL    HW3 6815   0.560   2.041   6.257 -1.6911 -0.7973 -1.7719
 1762SOL    MW4 6816   0.597   1.962   6.252 -0.9644 -0.6141 -0.0000
 1763SOL     OW 6817   5.782   1.352   5.111  0.2050  0.7852  0.3469
 1763SOL    HW2 6818   5.718   1.376   5.178  1.2272 -0.3303  1.7955
 1763SOL    HW3 6819   5.734   1.294   5.051 -0.4543  0.9604  0.6977
 1763SOL    MW4 6820   5.768   1.347   5.112  0.2529  0.6611  0.5843
 1764SOL     OW 6821   2.842   3.323   1.279  0.4709 -0.6021  0.0389
 1764SOL    HW2 6822   2.765   3.364   1.318 -0.0983 -0.6580 -0.9950
 1764SOL    HW3 6823   2.897   3.397   1.251 -0.6754 -0.4795 -2.0634
 1764SOL    MW4 6824   2.839   3.338   1.281  0.2446 -0.5933 -0.3749
 1765SOL     OW 6825   5.910   4.133   3.611  0.0696 -0.0471 -0.4242
 1765SOL    HW2 6826   5.961   4.214   3.617 -0.8322  0.4320  1.8710
 1765SOL    HW3 6827   5.857   4.143   3.532 -0.6052  2.0009  0.2357
 1765SOL    MW4 6828   5.910   4.145   3.601 -0.1384  0.2863 -0.0343
 1766SOL     OW 6829   4.017   0.864   0.139  0.1161  0.0350 -0.4570
 1766SOL    HW2 6830   4.011   0.935   0.074  1.8014  0.1096 -0.5651
 1766SOL    HW3 6831   4.039   0.908   0.221  2.1924 -0.3865 -0.7247
 1766SOL    MW4 6832   4.019   0.879   0.141  0.6124 -0.0108 -0.5066
 1767SOL     OW 6833   3.189   4.283   2.456  0.4224  0.3933  0.5377
 1767SOL    HW2 6834   3.209   4.370   2.423  0.3084  0.5069  0.7674
 1767SOL    HW3 6835   3.216   4.224   2.385 -1.6861  0.7378 -0.6771
 1767SOL    MW4 6836   3.195   4.286   2.442  0.1292  0.4537  0.4077
 1768SOL     OW 6837   2.639   1.992   0.685 -0.3402  0.0367 -0.4320
 1768SOL    HW2 6838   2.566   2.007   0.745 -1.1447 -1.7729 -0.9246
 1768SOL    HW3 6839   2.704   1.946   0.738 -0.4032 -0.1750 -0.5392
 1768SOL    MW4 6840   2.638   1.988   0.700 -0.4547 -0.2300 -0.5111
 1769SOL     OW 6841   5.593   4.943   5.118  0.5120  0.2254  0.7627
 1769SOL    HW2 6842   5.594   4.899   5.203 -0.1046  1.6381  1.5317
 1769SOL    HW3 6843   5.556   4.879   5.057 -0.2102 -0.3672  1.8093
 1769SOL    MW4 6844   5.589   4.929   5.121  0.3354  0.3336  1.0022
 1770SOL     OW 6845   3.558   5.342   4.275  0.0182  0.5178  0.1773
 1770SOL    HW2 6846   3.516   5.413   4.227  0.6820  1.1000  0.4344
 1770SOL    HW3 6847   3.620   5.386   4.334 -1.2998 -0.1184  2.1312
 1770SOL    MW4 6848   3.561   5.357   4.277 -0.0681  0.5107  0.4691
 1771SOL     OW 6849   6.215   4.806   2.173 -0.5667 -0.1395  0.6515
 1771SOL    HW2 6850   6.287   4.814   2.110  0.9988 -1.3485  2.1659
 1771SOL    HW3 6851   6.136   4.809   2.120  0.6755 -2.2203 -1.5489
 1771SOL    MW4 6852   6.214   4.807   2.158 -0.1962 -0.5736  0.5610
 1772SOL     OW 6853   3.152   2.207   2.949 -0.2343  0.0426  0.0447
 1772SOL    HW2 6854   3.181   2.269   3.016 -0.8954  0.1158  0.2720
 1772SOL    HW3 6855   3.066   2.240   2.922  0.2741  0.3741 -1.2911
 1772SOL    MW4 6856   3.145   2.220   2.954 -0.2545  0.0960 -0.1015
 1773SOL     OW 6857   0.929   5.666   0.645 -0.6647 -0.0112 -0.0768
 1773SOL    HW2 6858   0.915   5.597   0.710  1.1184 -0.0878  0.2844
 1773SOL    HW3 6859   0.880   5.741   0.678  0.6873  0.1502  1.7462
 1773SOL    MW4 6860   0.921   5.667   0.658 -0.2511  0.0000  0.2114
 1774SOL     OW 6861   5.576   6.169   3.951  0.3023  0.1037  0.1404
 1774SOL    HW2 6862   5.643   6.112   3.915  0.7263  1.1167 -0.7487
 1774SOL    HW3 6863   5.624   6.234   4.001 -0.0840  0.2711  0.2986
 1774SOL    MW4 6864   5.591   6.170   3.953  0.3073  0.2594  0.0440
 1775SOL     OW 6865   1.241   2.789   1.810 -0.0517  0.3898  0.5465
 1775SOL    HW2 6866   1.300   2.810   1.882 -0.0928 -2.0644  1.3698
 1775SOL    HW3 6867   1.159   2.763   1.853  0.1641 -1.8536 -0.2888
 1775SOL    MW4 6868   1.238   2.789   1.825 -0.0286 -0.2300  0.5449
 1776SOL     OW 6869   3.577   4.308   5.710 -0.3159 -0.4199 -0.2293
 1776SOL    HW2 6870   3.646   4.373   5.722 -0.5045 -0.3773  0.6768
 1776SOL    HW3 6871   3.623   4.229   5.682 -0.1066  0.1482 -1.5660
 1776SOL    MW4 6872   3.592   4.306   5.707 -0.3132 -0.3393 -0.2861
 1777SOL     OW 6873   5.790   4.401   4.457 -0.5189 -0.1467  0.0608
 1777SOL    HW2 6874   5.843   4.323   4.442  0.7490  0.8209 -0.7728
 1777SOL    HW3 6875   5.791   4.413   4.552  0.8862 -0.1162  0.0706
 1777SOL    MW4 6876   5.797   4.393   4.468 -0.1663 -0.0150 -0.0479
 1778SOL     OW 6877   1.426   4.555   3.618 -0.0442  0.3230  0.1746
 1778SOL    HW2 6878   1.498   4.534   3.678  0.5337  1.0866 -0.2468
 1778SOL    HW3 6879   1.367   4.479   3.625  1.2194 -0.7201 -0.1229
 1778SOL    MW4 6880   1.428   4.542   3.627  0.1988  0.2861  0.0797
 1779SOL     OW 6881   0.431   3.637   5.350  0.7485  0.4534 -0.2025
 1779SOL    HW2 6882   0.501   3.575   5.368  1.4188  1.4532  0.8120
 1779SOL    HW3 6883   0.475   3.710   5.306  0.4985  1.3878  1.0474
 1779SOL    MW4 6884   0.446   3.639   5.346  0.8039  0.7086  0.0963
 1780SOL     OW 6885   5.769   6.359   1.654  0.0281 -0.4056 -0.6107
 1780SOL    HW2 6886   5.716   6.280   1.643  0.2919 -0.9596  1.6258
 1780SOL    HW3 6887   5.735   6.420   1.589 -2.8409 -1.0089  0.1863
 1780SOL    MW4 6888   5.757   6.357   1.644 -0.3157 -0.5583 -0.2105
 1781SOL     OW 6889   4.938   5.370   5.972  0.4705  0.3355 -0.2772
 1781SOL    HW2 6890   4.893   5.286   5.964  2.4714 -0.6995 -1.3529
 1781SOL    HW3 6891   4.939   5.388   6.066 -2.9947  0.9545 -0.2290
 1781SOL    MW4 6892   4.932   5.362   5.984  0.2773  0.2806 -0.4127
 1782SOL     OW 6893   3.077   6.144   2.581 -0.2471 -0.0819 -0.3076
 1782SOL    HW2 6894   3.017   6.218   2.571 -0.8104 -0.3651  0.7981
 1782SOL    HW3 6895   3.023   6.066   2.570  0.4016 -0.3687 -1.7888
 1782SOL    MW4 6896   3.062   6.143   2.578 -0.2358 -0.1571 -0.3571
 1783SOL     OW 6897   3.595   0.645   0.925 -0.5456 -0.0506  0.1198
 1783SOL    HW2 6898   3.525   0.709   0.937  0.6326  1.5285 -0.8700
 1783SOL    HW3 6899   3.561   0.583   0.861 -1.5661 -0.2059  0.7932
 1783SOL    MW4 6900   3.581   0.645   0.918 -0.5248  0.1373  0.0781
 1784SOL     OW 6901   5.173   3.543   2.831  0.4402 -0.2063 -0.4970
 1784SOL    HW2 6902   5.256   3.567   2.789 -0.2841 -0.5758 -2.2246
 1784SOL    HW3 6903   5.120   3.622   2.826  1.7329  1.1595  3.6581
 1784SOL    MW4 6904   5.177   3.556   2.825  0.5152 -0.0749 -0.1767
 1785SOL     OW 6905   6.378   5.054   3.130 -0.0718  0.6159 -0.0759
 1785SOL    HW2 6906   6.423   5.075   3.213  0.9109 -1.1910 -0.1046
 1785SOL    HW3 6907   6.329   4.974   3.149 -1.4653  1.2931 -0.7132
 1785SOL    MW4 6908   6.377   5.046   3.144 -0.1260  0.4668 -0.1638
 1786SOL     OW 6909   4.091   4.053   1.556  0.0502  0.4434 -0.2393
 1786SOL    HW2 6910   4.026   4.105   1.509  0.0220 -0.6491 -1.4525
 1786SOL    HW3 6911   4.126   4.113   1.622 -1.9094  1.1627  0.2084
 1786SOL    MW4 6912   4.087   4.068   1.559 -0.2121  0.3941 -0.3403
 1787SOL     OW 6913   2.064   2.240   1.224  0.3778  0.3405  0.2139
 1787SOL    HW2 6914   1.974   2.205   1.223 -0.1946  1.7354  0.4662
 1787SOL    HW3 6915   2.097   2.219   1.312 -0.7406  2.2374  1.1550
 1787SOL    MW4 6916   2.056   2.232   1.236  0.1547  0.7748  0.3714
 1788SOL     OW 6917   1.399   0.420   6.074 -0.6376 -0.2697 -0.0515
 1788SOL    HW2 6918   1.414   0.343   6.128  2.1495  0.1506 -0.0628
 1788SOL    HW3 6919   1.419   0.391   5.985 -0.4751  0.2457 -0.1855
 1788SOL    MW4 6920   1.404   0.406   6.069 -0.2484 -0.1462 -0.0707
 1789SOL     OW 6921   3.809   4.566   1.134  0.7052 -0.2174 -0.3673
 1789SOL    HW2 6922   3.873   4.577   1.204 -0.4905  0.0212  0.7215
 1789SOL    HW3 6923   3.819   4.475   1.107  0.7404 -0.5053  0.5716
 1789SOL    MW4 6924   3.819   4.556   1.140  0.5521 -0.2239 -0.0997
 1790SOL     OW 6925   0.567   6.404   0.117 -0.1715  0.6108 -0.6194
 1790SOL    HW2 6926   0.565   6.421   0.211 -1.0826  3.1780 -1.0244
 1790SOL    HW3 6927   0.510   6.329   0.105  0.6975 -0.3535  0.9504
 1790SOL    MW4 6928   0.559   6.397   0.128 -0.1770  0.8222 -0.4657
 1791SOL     OW 6929   1.948   0.219   2.456 -0.0858  1.0146 -0.0553
 1791SOL    HW2 6930   1.979   0.254   2.372 -2.1784  0.3259 -1.1990
 1791SOL    HW3 6931   1.884   0.151   2.431  0.9828 -0.9117  2.0870
 1791SOL    MW4 6932   1.944   0.214   2.441 -0.2209  0.6696  0.0765
 1792SOL     OW 6933   4.174   0.999   6.132 -0.3700 -0.1366  0.5249
 1792SOL    HW2 6934   4.082   0.973   6.123 -0.1491 -0.9012  0.4139
 1792SOL    HW3 6935   4.196   1.039   6.047 -0.3325 -0.8181  0.2094
 1792SOL    MW4 6936   4.165   1.001   6.119 -0.3359 -0.3274  0.4686
 1793SOL     OW 6937   3.915   1.173   4.319  0.6004  0.3806 -0.0208
 1793SOL    HW2 6938   3.823   1.153   4.301  0.0708  0.9427  1.8217
 1793SOL    HW3 6939   3.964   1.107   4.271 -0.8390 -1.1611  0.5449
 1793SOL    MW4 6940   3.909   1.162   4.311  0.3406  0.2513  0.2969
 1794SOL     OW 6941   4.731   4.525   0.598 -0.2520  0.1725  0.4822
 1794SOL    HW2 6942   4.644   4.565   0.596 -0.3313 -0.0083  0.3330
 1794SOL    HW3 6943   4.774   4.567   0.672 -0.0503  1.1166 -0.1562
 1794SOL    MW4 6944   4.725   4.536   0.608 -0.2358  0.2732  0.3783
 1795SOL     OW 6945   2.517   5.394   6.369 -0.1011 -0.3221  0.0839
 1795SOL    HW2 6946   2.537   5.431   6.455  1.2725 -1.0362  0.0962
 1795SOL    HW3 6947   2.552   5.458   6.307  1.3384 -1.0523  0.0997
 1795SOL    MW4 6948   2.525   5.407   6.372  0.2701 -0.5127  0.0876
 1796SOL     OW 6949   3.506   5.291   0.722  0.1595  0.4579 -0.4824
 1796SOL    HW2 6950   3.578   5.331   0.771 -0.0615  1.7805 -1.2055
 1796SOL    HW3 6951   3.549   5.250   0.647  0.2607  0.3718 -0.3786
 1796SOL    MW4 6952   3.521   5.291   0.719  0.1437  0.6211 -0.5641
 1797SOL     OW 6953   5.646   3.686   2.915  0.0762  0.3334  0.4207
 1797SOL    HW2 6954   5.731   3.641   2.910 -2.2572 -4.4531 -1.8833
 1797SOL    HW3 6955   5.603   3.647   2.991 -0.6206  1.7977  0.8146
 1797SOL    MW4 6956   5.652   3.675   2.925 -0.3236 -0.1049  0.1687
 1798SOL     OW 6957   5.587   1.984   2.013  0.1411 -0.0324 -0.6683
 1798SOL    HW2 6958   5.560   2.070   1.981  1.3296  0.5289 -0.2255
 1798SOL    HW3 6959   5.668   1.965   1.965  1.7499  0.6440  1.6017
 1798SOL    MW4 6960   5.594   1.993   2.002  0.5101  0.1309 -0.3104
 1799SOL     OW 6961   3.283   1.276   3.453  0.5041 -0.0468 -0.3329
 1799SOL    HW2 6962   3.251   1.186   3.454 -0.2927  0.2140  1.1144
 1799SOL    HW3 6963   3.212   1.326   3.495  1.2432  1.1315 -0.4584
 1799SOL    MW4 6964   3.269   1.271   3.459  0.4965  0.1430 -0.1585
 1800SOL     OW 6965   4.141   0.621   0.038  0.3291 -0.3753 -0.7856
 1800SOL    HW2 6966   4.114   0.707   0.070 -2.7421 -0.7311 -2.0939
 1800SOL    HW3 6967   4.163   0.635  -0.054  1.1747 -0.7770 -0.6566
 1800SOL    MW4 6968   4.141   0.634   0.030  0.0355 -0.4752 -0.9412
 1801SOL     OW 6969   1.317   5.003   5.365 -0.4753  0.2276 -0.8244
 1801SOL    HW2 6970   1.293   4.950   5.441 -0.6110  0.5798 -0.6194
 1801SOL    HW3 6971   1.341   5.088   5.401  1.8626 -0.3113 -0.9293
 1801SOL    MW4 6972   1.317   5.007   5.380 -0.1847  0.2030 -0.8112
 1802SOL     OW 6973   2.876   1.245   3.600  0.5019 -0.8182 -0.2955
 1802SOL    HW2 6974   2.885   1.182   3.672 -0.4214  2.2458  2.7788
 1802SOL    HW3 6975   2.788   1.232   3.566  0.3073 -1.1940  0.3439
 1802SOL    MW4 6976   2.866   1.235   3.605  0.3544 -0.4636  0.1945
 1803SOL     OW 6977   0.580   4.865   4.579 -0.4466 -0.4697  0.4510
 1803SOL    HW2 6978   0.545   4.781   4.551 -1.1896 -0.1845  0.4949
 1803SOL    HW3 6979   0.527   4.890   4.654  0.9415 -0.8045  1.5932
 1803SOL    MW4 6980   0.569   4.857   4.585 -0.3615 -0.4762  0.6075
 1804SOL     OW 6981   5.612   4.413   1.033 -0.0625  0.0516  0.2897
 1804SOL    HW2 6982   5.628   4.319   1.035 -0.1125 -0.0618 -1.8421
 1804SOL    HW3 6983   5.580   4.434   1.120  3.0748 -1.2831  1.9379
 1804SOL    MW4 6984   5.610   4.404   1.045  0.3448 -0.1395  0.2259
 1805SOL     OW 6985   1.750   4.509   5.872 -0.3736 -0.0614  0.1159
 1805SOL    HW2 6986   1.682   4.445   5.896 -2.1597  1.4354 -0.6708
 1805SOL    HW3 6987   1.799   4.466   5.802 -0.8769 -0.9704  0.3043
 1805SOL    MW4 6988   1.747   4.495   5.866 -0.6756  0.0162  0.0370
 1806SOL     OW 6989   4.003   3.706   4.594 -0.0896 -0.2285 -0.2507
 1806SOL    HW2 6990   4.089   3.727   4.557  1.2624 -1.5126  1.9262
 1806SOL    HW3 6991   4.000   3.756   4.676  0.0650 -2.6521  1.3262
 1806SOL    MW4 6992   4.014   3.716   4.600  0.1092 -0.7177  0.2446
 1807SOL     OW 6993   4.924   6.176   0.974  0.1292 -0.1066 -0.9520
 1807SOL    HW2 6994   4.931   6.219   0.888 -0.1393  0.2347 -0.8039
 1807SOL    HW3 6995   5.012   6.144   0.991  0.3575  0.4588 -1.0295
 1807SOL    MW4 6996   4.937   6.178   0.965  0.1239  0.0130 -0.9427
 1808SOL     OW 6997   3.035   0.364   5.765 -0.0416 -0.0785 -0.2605
 1808SOL    HW2 6998   2.952   0.318   5.751  0.0767  0.1853 -2.1427
 1808SOL    HW3 6999   3.071   0.375   5.677 -0.6083  4.5673 -0.1661
 1808SOL    MW4 7000   3.029   0.360   5.751 -0.1008  0.5693 -0.4964
 1809SOL     OW 7001   1.993   3.799   1.959  0.1701 -0.1812  0.1103
 1809SOL    HW2 7002   2.015   3.754   2.040  0.1204 -0.8123 -0.2187
 1809SOL    HW3 7003   2.062   3.773   1.898 -0.2137 -0.3246 -0.2659
 1809SOL    MW4 7004   2.005   3.789   1.961  0.1129 -0.2834  0.0172
 1810SOL     OW 7005   0.760   3.461   2.891  1.0121 -0.1089 -0.0214
 1810SOL    HW2 7006   0.809   3.382   2.866 -0.2448 -1.3536  1.2737
 1810SOL    HW3 7007   0.779   3.473   2.984 -0.5333 -0.1945  0.3300
 1810SOL    MW4 7008   0.769   3.452   2.900  0.6424 -0.2844  0.1958
 1811SOL     OW 7009   1.297   2.191   2.317 -0.3737  0.4394 -0.2647
 1811SOL    HW2 7010   1.392   2.207   2.318 -0.2262 -0.1297  2.3609
 1811SOL    HW3 7011   1.284   2.130   2.244  0.7207  3.0181 -2.8134
 1811SOL    MW4 7012   1.308   2.185   2.307 -0.2098  0.7045 -0.2546
 1812SOL     OW 7013   1.731   1.171   5.818  0.5991 -0.3218  0.3644
 1812SOL    HW2 7014   1.720   1.077   5.836 -1.4807 -0.2163 -0.1298
 1812SOL    HW3 7015   1.699   1.214   5.897 -0.4279 -0.0140 -0.2049
 1812SOL    MW4 7016   1.725   1.164   5.831  0.1892 -0.2673  0.2241
 1813SOL     OW 7017   1.121   1.494   3.031  0.2384 -0.3156  0.0215
 1813SOL    HW2 7018   1.084   1.412   3.065 -0.2247  0.3514  1.1646
 1813SOL    HW3 7019   1.086   1.501   2.943 -1.0813 -0.5088  0.5162
 1813SOL    MW4 7020   1.112   1.484   3.024  0.0032 -0.2531  0.2376
 1814SOL     OW 7021   2.447   2.446   3.791 -0.5520  0.6765 -0.3096
 1814SOL    HW2 7022   2.477   2.424   3.879 -2.3783  1.8797  0.6670
 1814SOL    HW3 7023   2.380   2.381   3.772  0.1350  0.1544 -1.0279
 1814SOL    MW4 7024   2.442   2.434   3.800 -0.7023  0.7664 -0.2755
 1815SOL     OW 7025   3.377   5.992   4.105  0.2426  0.3880 -0.0433
 1815SOL    HW2 7026   3.287   5.962   4.104  0.6430 -0.8809 -1.3714
 1815SOL    HW3 7027   3.377   6.067   4.165 -1.3766 -0.4693  1.0893
 1815SOL    MW4 7028   3.365   5.998   4.113  0.0818  0.1075 -0.0691
 1816SOL     OW 7029   4.056   2.974   3.370  0.1486  0.1024 -0.0584
 1816SOL    HW2 7030   3.987   3.037   3.387 -0.6015 -0.5868 -0.4519
 1816SOL    HW3 7031   4.083   2.990   3.279 -0.6095 -0.6523 -0.4302
 1816SOL    MW4 7032   4.051   2.984   3.360 -0.0504 -0.0881 -0.1594
 1817SOL     OW 7033   4.494   0.978   4.547 -0.5612  0.6475  0.1735
 1817SOL    HW2 7034   4.583   0.944   4.548 -1.1912 -1.1524 -1.0231
 1817SOL    HW3 7035   4.470   0.985   4.639  0.5162  0.3379  0.4933
 1817SOL    MW4 7036   4.503   0.975   4.559 -0.5022  0.3692  0.0578
 1818SOL     OW 7037   5.885   3.194   3.391  0.2770 -0.3590  0.2275
 1818SOL    HW2 7038   5.944   3.149   3.330 -1.0885 -2.2018  0.1896
 1818SOL    HW3 7039   5.924   3.178   3.477  0.6637 -0.2062  0.0861
 1818SOL    MW4 7040   5.898   3.186   3.394  0.1478 -0.5819  0.2039
 1819SOL     OW 7041   3.579   0.557   6.078  0.0035  0.4938  0.2272
 1819SOL    HW2 7042   3.485   0.560   6.060  0.1407  2.6794 -0.4052
 1819SOL    HW3 7043   3.617   0.623   6.020  1.9615 -0.3770  0.4245
 1819SOL    MW4 7044   3.572   0.566   6.068  0.2799  0.6672  0.1698
 1820SOL     OW 7045   1.575   0.308   0.312 -0.7322 -0.0236  0.4659
 1820SOL    HW2 7046   1.507   0.313   0.380 -0.0705  1.4848  1.0500
 1820SOL    HW3 7047   1.653   0.279   0.359  0.4635  3.6167  1.0447
 1820SOL    MW4 7048   1.576   0.305   0.328 -0.4871  0.6557  0.6193
 1821SOL     OW 7049   0.738   5.993   3.432  0.1531  0.1047  0.0397
 1821SOL    HW2 7050   0.730   5.931   3.360 -0.1530 -1.5465  1.4465
 1821SOL    HW3 7051   0.831   5.991   3.455 -0.0276 -0.6681  0.7624
 1821SOL    MW4 7052   0.749   5.985   3.426  0.0889 -0.2151  0.3207
 1822SOL     OW 7053   3.592   6.228   1.571  0.0516  0.0566  0.0293
 1822SOL    HW2 7054   3.593   6.143   1.527  0.9117 -0.7589  1.5363
 1822SOL    HW3 7055   3.681   6.239   1.604 -0.1242  1.4226  0.1127
 1822SOL    MW4 7056   3.604   6.219   1.569  0.1419  0.1292  0.2391
 1823SOL     OW 7057   6.149   1.266   1.413 -0.8048  0.6196  0.0883
 1823SOL    HW2 7058   6.176   1.204   1.346 -0.6318  1.4179 -0.6081
 1823SOL    HW3 7059   6.062   1.236   1.440 -1.2541  0.7554 -1.1201
 1823SOL    MW4 7060   6.141   1.254   1.408 -0.8413  0.7428 -0.1630
 1824SOL     OW 7061   2.788   2.094   4.130  0.5367 -0.1484 -0.2196
 1824SOL    HW2 7062   2.703   2.103   4.173  0.1890 -0.9299 -0.7104
 1824SOL    HW3 7063   2.795   2.001   4.110  1.2478 -0.0008 -0.7091
 1824SOL    MW4 7064   2.778   2.083   4.133  0.5847 -0.2320 -0.3489
 1825SOL     OW 7065   2.311   3.993   6.367  0.3056 -0.7330 -0.0305
 1825SOL    HW2 7066   2.317   4.046   6.288 -1.0402  2.1516  1.6236
 1825SOL    HW3 7067   2.372   4.035   6.428  0.7365 -2.4150  0.7445
 1825SOL    MW4 7068   2.320   4.005   6.365  0.1849 -0.5743  0.2900
 1826SOL     OW 7069   6.390   3.665   1.944  0.0797 -0.0829  0.1456
 1826SOL    HW2 7070   6.444   3.717   1.885 -1.2355  1.0803 -0.0976
 1826SOL    HW3 7071   6.347   3.602   1.887  1.4096 -1.2587  0.3915
 1826SOL    MW4 7072   6.391   3.664   1.929  0.0817 -0.0846  0.1459
 1827SOL     OW 7073   2.656   2.764   6.407 -0.1071  0.2539 -0.6409
 1827SOL    HW2 7074   2.600   2.693   6.376  0.5347 -1.3953  1.6868
 1827SOL    HW3 7075   2.745   2.736   6.386  0.1200  0.6278 -0.2074
 1827SOL    MW4 7076   2.660   2.751   6.400  0.0076  0.0857 -0.2766
 1828SOL     OW 7077   0.145   0.833   0.246  0.4207 -0.1470  0.4966
 1828SOL    HW2 7078   0.112   0.922   0.253  1.7332  0.3982  0.1763
 1828SOL    HW3 7079   0.161   0.820   0.153  0.2480 -0.7193  0.5392
 1828SOL    MW4 7080   0.143   0.843   0.235  0.5711 -0.1506  0.4600
 1829SOL     OW 7081   1.492   2.379   6.036  0.1815 -0.3317 -0.3590
 1829SOL    HW2 7082   1.418   2.320   6.050  0.4452  0.0209  4.0279
 1829SOL    HW3 7083   1.554   2.328   5.985 -0.7362 -2.8852  0.8919
 1829SOL    MW4 7084   1.490   2.365   6.031  0.0952 -0.6221  0.3849
 1830SOL     OW 7085   5.233   4.104   3.767  0.6505 -0.0622 -0.4009
 1830SOL    HW2 7086   5.179   4.183   3.760 -1.3396 -1.2098  0.9375
 1830SOL    HW3 7087   5.200   4.060   3.845  1.8407 -2.1405 -1.0056
 1830SOL    MW4 7088   5.222   4.109   3.776  0.5449 -0.4878 -0.3041
 1831SOL     OW 7089   3.479   3.046   6.160  0.6241 -0.2331 -0.0281
 1831SOL    HW2 7090   3.496   2.959   6.125 -1.3481 -0.1106 -1.4221
 1831SOL    HW3 7091   3.554   3.099   6.131  1.7710 -1.3968  0.7218
 1831SOL    MW4 7092   3.491   3.042   6.152  0.5152 -0.3705 -0.1131
 1832SOL     OW 7093   3.594   0.691   6.377 -0.0788  0.7665 -0.1464
 1832SOL    HW2 7094   3.543   0.770   6.395  0.7518  1.2066  0.3573
 1832SOL    HW3 7095   3.555   0.654   6.297 -0.5927  1.5782 -0.2778
 1832SOL    MW4 7096   3.582   0.696   6.369 -0.0370  0.9316 -0.0973
 1833SOL     OW 7097   6.300   4.330   5.525  0.0933 -0.0230 -0.0587
 1833SOL    HW2 7098   6.362   4.390   5.566 -0.0124  0.2988 -0.3631
 1833SOL    HW3 7099   6.348   4.289   5.453  0.7109 -1.6248  1.2051
 1833SOL    MW4 7100   6.314   4.332   5.521  0.1608 -0.1919  0.0679
 1834SOL     OW 7101   1.449   3.286   0.299  0.6418 -0.0140  0.3543
 1834SOL    HW2 7102   1.490   3.304   0.215 -0.1599 -1.3102 -0.3533
 1834SOL    HW3 7103   1.482   3.200   0.325  0.3485  0.0628  1.0262
 1834SOL    MW4 7104   1.459   3.277   0.291  0.4973 -0.1749  0.3496
 1835SOL     OW 7105   3.836   4.577   1.619  0.2081 -0.3931  0.1948
 1835SOL    HW2 7106   3.778   4.595   1.546  1.3970  0.4674 -0.5726
 1835SOL    HW3 7107   3.854   4.663   1.657  1.5753 -0.5401 -0.0707
 1835SOL    MW4 7108   3.831   4.591   1.615  0.5453 -0.2989  0.0585
 1836SOL     OW 7109   3.696   5.263   5.345 -0.2366  0.3415 -0.1554
 1836SOL    HW2 7110   3.672   5.241   5.255 -0.4098 -0.0043 -0.0259
 1836SOL    HW3 7111   3.631   5.328   5.372 -1.3823 -0.9828  0.3768
 1836SOL    MW4 7112   3.684   5.269   5.337 -0.4106  0.1211 -0.0681
 1837SOL     OW 7113   5.222   1.106   5.517  0.0074 -0.1706 -0.6374
 1837SOL    HW2 7114   5.230   1.021   5.473  1.5689 -0.2484 -0.2885
 1837SOL    HW3 7115   5.265   1.167   5.457 -0.2964  0.2119 -0.4649
 1837SOL    MW4 7116   5.229   1.103   5.503  0.1733 -0.1304 -0.5686
 1838SOL     OW 7117   6.023   4.961   0.321 -0.1910  0.2594 -0.0700
 1838SOL    HW2 7118   6.105   4.986   0.365 -0.9908  1.7024  0.6569
 1838SOL    HW3 7119   6.050   4.896   0.257  1.7822  1.7544 -0.8595
 1838SOL    MW4 7120   6.038   4.956   0.319 -0.0362  0.6470 -0.0782
 1839SOL     OW 7121   4.093   2.653   2.647  0.4450 -0.0751 -0.2883
 1839SOL    HW2 7122   4.184   2.642   2.674  0.4440  0.1796 -0.1756
 1839SOL    HW3 7123   4.076   2.579   2.589  0.2291 -1.0226  0.9559
 1839SOL    MW4 7124   4.103   2.642   2.643  0.4164 -0.1665 -0.1093
 1840SOL     OW 7125   3.732   1.162   1.256  0.1622  0.3443 -0.1602
 1840SOL    HW2 7126   3.679   1.241   1.253 -0.5859 -0.1197  0.5231
 1840SOL    HW3 7127   3.768   1.154   1.168 -0.2896  1.0782 -0.4210
 1840SOL    MW4 7128   3.730   1.172   1.244  0.0039  0.3799 -0.1044
 1841SOL     OW 7129   6.358   5.427   3.346  0.1618  0.5014 -0.7472
 1841SOL    HW2 7130   6.334   5.478   3.423  1.6091 -0.5285  0.4566
 1841SOL    HW3 7131   6.395   5.346   3.382  1.3704  0.2175 -2.5050
 1841SOL    MW4 7132   6.360   5.423   3.361  0.5122  0.3281 -0.8203
 1842SOL     OW 7133   0.361   3.303   3.236 -0.3770  0.4104  0.0927
 1842SOL    HW2 7134   0.312   3.227   3.266 -3.3056  1.6798 -1.0870
 1842SOL    HW3 7135   0.383   3.283   3.145 -0.2490  0.5589  0.0892
 1842SOL    MW4 7136   0.358   3.290   3.228 -0.7465  0.5975 -0.0634
 1843SOL     OW 7137   2.722   4.973   0.456  0.4739 -0.0210  0.1588
 1843SOL    HW2 7138   2.762   4.889   0.435 -1.4248 -0.5038 -1.9209
 1843SOL    HW3 7139   2.686   4.962   0.544  1.1742 -0.9983  0.3374
 1843SOL    MW4 7140   2.723   4.961   0.465  0.3158 -0.2136 -0.0920
 1844SOL     OW 7141   5.911   3.821   3.389  0.3599 -0.1537 -0.3312
 1844SOL    HW2 7142   5.966   3.898   3.402 -0.1163  0.2238 -0.5195
 1844SOL    HW3 7143   5.926   3.796   3.298 -0.8627  0.8286 -0.8374
 1844SOL    MW4 7144   5.920   3.828   3.378  0.1358  0.0257 -0.4228
 1845SOL     OW 7145   3.141   0.214   4.012 -0.3467  0.2146 -0.1601
 1845SOL    HW2 7146   3.150   0.157   3.936 -0.3202 -1.4794  1.0342
 1845SOL    HW3 7147   3.051   0.245   4.009 -0.2873  0.3295 -0.9676
 1845SOL    MW4 7148   3.131   0.210   4.002 -0.3354  0.0063 -0.1091
 1846SOL     OW 7149   0.787   0.941   5.950 -0.1763  0.4395 -0.5881
 1846SOL    HW2 7150   0.731   0.998   5.898 -1.7803 -1.1968 -0.7573
 1846SOL    HW3 7151   0.799   0.863   5.895  1.4285  0.3220 -0.1169
 1846SOL    MW4 7152   0.781   0.938   5.936 -0.1762  0.2081 -0.5482
 1847SOL     OW 7153   5.204   4.314   2.714 -0.4093 -0.3119 -0.4677
 1847SOL    HW2 7154   5.127   4.330   2.769 -0.7775  0.3656 -1.1578
 1847SOL    HW3 7155   5.199   4.221   2.693 -1.1181 -0.2498 -0.6005
 1847SOL    MW4 7156   5.193   4.304   2.719 -0.5514 -0.2143 -0.5762
 1848SOL     OW 7157   0.932   6.160   0.591  0.0588 -0.4174  0.2428
 1848SOL    HW2 7158   0.999   6.192   0.653 -1.1275  1.5038  0.6282
 1848SOL    HW3 7159   0.980   6.101   0.533  1.4784 -1.3525  2.2345
 1848SOL    MW4 7160   0.947   6.157   0.592  0.0896 -0.2873  0.5564
 1849SOL     OW 7161   4.085   1.951   2.465 -0.2988 -0.9297  0.3131
 1849SOL    HW2 7162   4.052   1.872   2.506 -0.7322 -0.5408  0.7305
 1849SOL    HW3 7163   4.128   1.921   2.385  1.3863 -1.7973  1.4975
 1849SOL    MW4 7164   4.086   1.937   2.460 -0.1337 -0.9929  0.5245
 1850SOL     OW 7165   0.092   3.976   5.270  0.6108 -0.5103  0.3194
 1850SOL    HW2 7166  -0.000   3.951   5.269  0.9376 -1.7849  0.6352
 1850SOL    HW3 7167   0.127   3.936   5.350  1.2918  0.5499  0.5790
 1850SOL    MW4 7168   0.084   3.968   5.281  0.7438 -0.5386  0.3953
 1851SOL     OW 7169   1.331   4.025   3.641  0.0604  0.0514 -0.0262
 1851SOL    HW2 7170   1.411   4.043   3.691  0.4138  1.0594 -0.9041
 1851SOL    HW3 7171   1.297   3.944   3.678  2.3223 -1.2741 -0.6233
 1851SOL    MW4 7172   1.337   4.017   3.653  0.4055  0.0095 -0.2208
 1852SOL     OW 7173   0.454   0.669   0.962  0.0719 -0.0131 -0.3905
 1852SOL    HW2 7174   0.436   0.639   1.051  0.3597  0.1165 -0.2858
 1852SOL    HW3 7175   0.527   0.731   0.972  0.2888 -0.2083 -0.7461
 1852SOL    MW4 7176   0.462   0.673   0.975  0.1385 -0.0217 -0.4236
 1853SOL     OW 7177   2.655   2.353   1.793  0.1024  0.5069 -0.0468
 1853SOL    HW2 7178   2.698   2.338   1.877  0.3021 -3.7841 -0.6618
 1853SOL    HW3 7179   2.563   2.335   1.809 -0.2631  1.9365 -0.3617
 1853SOL    MW4 7180   2.648   2.349   1.806  0.0805  0.1293 -0.1695
 1854SOL     OW 7181   4.916   0.748   3.279  0.4159  0.1044  0.1603
 1854SOL    HW2 7182   4.927   0.657   3.253  0.0490 -0.1177  0.7692
 1854SOL    HW3 7183   4.822   0.759   3.291  0.6517 -0.7632  4.6224
 1854SOL    MW4 7184   4.905   0.737   3.277  0.3986 -0.0394  0.8294
 1855SOL     OW 7185   5.571   5.167   0.959  0.3557 -0.1559  0.1295
 1855SOL    HW2 7186   5.509   5.224   1.004 -1.3547 -1.6919 -0.1846
 1855SOL    HW3 7187   5.544   5.170   0.867  0.5719 -1.0665  0.0300
 1855SOL    MW4 7188   5.559   5.175   0.952  0.1585 -0.4787  0.0750
 1856SOL     OW 7189   0.522   3.286   0.307 -0.0967  0.5857  0.1898
 1856SOL    HW2 7190   0.576   3.332   0.371  1.3802  2.0924 -1.9698
 1856SOL    HW3 7191   0.530   3.338   0.227 -0.3378 -2.1240 -1.7534
 1856SOL    MW4 7192   0.530   3.299   0.305  0.0663  0.4270 -0.3515
 1857SOL     OW 7193   4.323   3.837   5.813 -0.1700 -0.2278  0.6976
 1857SOL    HW2 7194   4.412   3.802   5.820  0.3812  0.9812  0.0726
 1857SOL    HW3 7195   4.294   3.810   5.725 -0.1190  0.0269  0.6010
 1857SOL    MW4 7196   4.331   3.828   5.802 -0.0905 -0.0347  0.6024
 1858SOL     OW 7197   0.240   3.764   2.205 -1.0230  0.0064  0.1082
 1858SOL    HW2 7198   0.270   3.748   2.295  1.0735  1.7450 -0.2047
 1858SOL    HW3 7199   0.153   3.723   2.202 -0.7742 -0.9363  2.6196
 1858SOL    MW4 7200   0.232   3.756   2.217 -0.7136  0.1114  0.3982
 1859SOL     OW 7201   3.474   1.657   3.688  0.5531 -0.4275  0.1025
 1859SOL    HW2 7202   3.447   1.731   3.634 -0.1645 -0.5330  0.2959
 1859SOL    HW3 7203   3.539   1.694   3.748  0.5006 -0.0496 -0.0671
 1859SOL    MW4 7204   3.479   1.672   3.689  0.4515 -0.3916  0.1057
 1860SOL     OW 7205   2.386   5.000   4.590  0.1596  0.7019  0.3367
 1860SOL    HW2 7206   2.324   4.963   4.653  0.6376 -0.9468 -0.1113
 1860SOL    HW3 7207   2.417   4.925   4.541 -0.9546  2.0152 -2.5916
 1860SOL    MW4 7208   2.382   4.986   4.592  0.0757  0.6577 -0.1088
 1861SOL     OW 7209   1.525   1.520   5.789 -0.2576  0.4042  1.0320
 1861SOL    HW2 7210   1.526   1.432   5.753  1.2847  0.7629  0.1103
 1861SOL    HW3 7211   1.577   1.572   5.728  0.2139  1.5998  2.3764
 1861SOL    MW4 7212   1.532   1.515   5.776  0.0081  0.6093  1.0877
 1862SOL     OW 7213   1.735   5.760   5.323 -0.4242 -0.4968 -1.0681
 1862SOL    HW2 7214   1.727   5.838   5.268  0.2588  1.0329  0.8453
 1862SOL    HW3 7215   1.646   5.741   5.351 -0.6133 -0.4999 -1.6619
 1862SOL    MW4 7216   1.723   5.768   5.320 -0.3590 -0.2954 -0.8940
 1863SOL     OW 7217   3.914   2.203   4.434  0.8397 -0.5334 -0.1907
 1863SOL    HW2 7218   3.961   2.130   4.474 -2.0198 -2.2648  0.2854
 1863SOL    HW3 7219   3.894   2.173   4.345 -0.5979 -0.5284  0.0978
 1863SOL    MW4 7220   3.917   2.190   4.428  0.2728 -0.7612 -0.0898
 1864SOL     OW 7221   2.703   5.702   1.957 -0.2288 -0.3907  0.1886
 1864SOL    HW2 7222   2.727   5.754   2.034  0.8148 -0.7926  0.1519
 1864SOL    HW3 7223   2.659   5.625   1.993 -0.8378  0.0036  0.3029
 1864SOL    MW4 7224   2.700   5.699   1.972 -0.1715 -0.3917  0.1989
 1865SOL     OW 7225   6.150   5.475   2.451  0.4817 -0.5881  0.1965
 1865SOL    HW2 7226   6.120   5.386   2.469  0.7068 -0.5667  0.6985
 1865SOL    HW3 7227   6.109   5.498   2.368 -1.1144 -0.4526  0.9782
 1865SOL    MW4 7228   6.141   5.466   2.442  0.3008 -0.5674  0.3659
 1866SOL     OW 7229   5.058   6.391   5.747  0.1297  0.4621  0.5338
 1866SOL    HW2 7230   5.001   6.314   5.743 -2.8756  2.5623 -0.9149
 1866SOL    HW3 7231   5.059   6.415   5.840 -0.8021 -0.0049  0.6781
 1866SOL    MW4 7232   5.050   6.384   5.759 -0.3898  0.6776  0.3617
 1867SOL     OW 7233   4.319   1.586   4.287 -0.3325 -0.1271  0.1799
 1867SOL    HW2 7234   4.269   1.613   4.365  0.6148 -0.0608  0.7813
 1867SOL    HW3 7235   4.317   1.491   4.288 -1.6312 -0.1345 -0.5980
 1867SOL    MW4 7236   4.312   1.577   4.297 -0.3789 -0.1193  0.1566
 1868SOL     OW 7237   1.942   1.034   5.532  0.1270 -0.5644  0.3760
 1868SOL    HW2 7238   2.015   1.002   5.479 -0.0229 -0.8809  0.3554
 1868SOL    HW3 7239   1.980   1.054   5.617  0.0764 -1.6160  0.6629
 1868SOL    MW4 7240   1.956   1.033   5.536  0.1005 -0.7449  0.4112
 1869SOL     OW 7241   1.154   3.591   1.672 -0.3114  0.0303 -0.4253
 1869SOL    HW2 7242   1.131   3.573   1.764 -0.1212  0.2877 -0.3259
 1869SOL    HW3 7243   1.072   3.618   1.632 -0.4570 -0.3711 -0.4055
 1869SOL    MW4 7244   1.140   3.592   1.679 -0.3055  0.0113 -0.4096
 1870SOL     OW 7245   0.042   1.725   2.644 -0.3112 -0.3429 -0.6489
 1870SOL    HW2 7246   0.115   1.703   2.586 -0.1496  0.7949 -0.9092
 1870SOL    HW3 7247  -0.005   1.795   2.597 -0.7049 -0.0441  0.1740
 1870SOL    MW4 7248   0.046   1.732   2.630 -0.3418 -0.1533 -0.5747
 1871SOL     OW 7249   4.735   4.311   6.085  0.0612  0.0991 -0.3093
 1871SOL    HW2 7250   4.807   4.282   6.140 -0.6076 -0.5043  0.2740
 1871SOL    HW3 7251   4.677   4.359   6.144 -0.2326  0.1839 -0.6624
 1871SOL    MW4 7252   4.737   4.313   6.100 -0.0658  0.0307 -0.2789
 1872SOL     OW 7253   6.344   6.182   1.012  0.1153  0.1930  0.1567
 1872SOL    HW2 7254   6.354   6.148   0.924 -1.5704  0.4662 -0.1890
 1872SOL    HW3 7255   6.312   6.272   1.000 -1.1113 -0.0951  1.0098
 1872SOL    MW4 7256   6.341   6.190   0.999 -0.2690  0.1911  0.2237
 1873SOL     OW 7257   0.069   0.409   0.192 -0.3697 -1.0057  0.4484
 1873SOL    HW2 7258  -0.002   0.453   0.239  0.2285 -0.7830  1.1669
 1873SOL    HW3 7259   0.098   0.474   0.128 -0.1686 -0.7215  0.8193
 1873SOL    MW4 7260   0.063   0.424   0.190 -0.2642 -0.9388  0.5921
 1874SOL     OW 7261   1.824   5.755   2.123  0.1699 -0.0141  0.0719
 1874SOL    HW2 7262   1.764   5.823   2.153  0.8160  0.9678 -0.7771
 1874SOL    HW3 7263   1.876   5.797   2.054  0.8480 -1.2598 -0.2168
 1874SOL    MW4 7264   1.823   5.770   2.118  0.3446 -0.0489 -0.0782
 1875SOL     OW 7265   2.230   4.043   5.783  0.1510  0.3259 -0.6328
 1875SOL    HW2 7266   2.159   4.054   5.720 -1.6338 -1.6776  0.8885
 1875SOL    HW3 7267   2.287   3.977   5.743  0.2309  0.6706 -1.0979
 1875SOL    MW4 7268   2.228   4.036   5.769 -0.0740  0.1070 -0.4935
 1876SOL     OW 7269   1.236   2.182   4.587 -0.3472 -0.2431 -0.0555
 1876SOL    HW2 7270   1.146   2.159   4.562 -0.3205  1.4594 -2.0341
 1876SOL    HW3 7271   1.282   2.193   4.503  1.8773 -1.5866  0.9106
 1876SOL    MW4 7272   1.230   2.181   4.573 -0.0502 -0.1957 -0.1891
 1877SOL     OW 7273   1.033   5.953   0.409  0.1324 -0.4493  0.5695
 1877SOL    HW2 7274   1.114   6.004   0.399  0.3999 -1.2273 -1.8227
 1877SOL    HW3 7275   0.969   5.998   0.354  0.1661 -2.1483 -0.9873
 1877SOL    MW4 7276   1.035   5.966   0.400  0.1722 -0.7761  0.0485
 1878SOL     OW 7277   1.975   5.545   0.928 -0.4670  0.6097  0.7576
 1878SOL    HW2 7278   2.060   5.588   0.932  1.5094 -2.8981  0.9438
 1878SOL    HW3 7279   1.935   5.578   0.847  2.2537  0.5030 -0.7447
 1878SOL    MW4 7280   1.981   5.555   0.918  0.1527  0.1328  0.5839
 1879SOL     OW 7281   1.508   5.287   0.965 -0.1279  0.1769  0.2478
 1879SOL    HW2 7282   1.553   5.351   0.909  0.6193 -0.2843  0.3142
 1879SOL    HW3 7283   1.565   5.277   1.041 -1.4002  1.2186  1.3879
 1879SOL    MW4 7284   1.522   5.294   0.967 -0.1972  0.2535  0.4070
 1880SOL     OW 7285   6.018   3.677   0.659  0.3016  0.7296  0.0606
 1880SOL    HW2 7286   6.086   3.612   0.673 -0.0577  0.3024 -0.1414
 1880SOL    HW3 7287   5.938   3.625   0.645 -0.4583  1.2215  2.1625
 1880SOL    MW4 7288   6.016   3.661   0.659  0.1539  0.7381  0.3112
 1881SOL     OW 7289   1.005   1.323   2.480 -0.2119  0.0312  0.1940
 1881SOL    HW2 7290   1.059   1.299   2.555 -1.3747 -1.5963  0.5574
 1881SOL    HW3 7291   0.915   1.318   2.512 -0.7703 -1.2647 -1.4239
 1881SOL    MW4 7292   1.000   1.320   2.494 -0.4390 -0.3545  0.0285
 1882SOL     OW 7293   1.550   2.134   3.830  0.1647 -0.8918 -0.1474
 1882SOL    HW2 7294   1.544   2.096   3.742 -0.0175 -1.8298  0.2604
 1882SOL    HW3 7295   1.591   2.220   3.816  0.5018 -1.1910 -1.1016
 1882SOL    MW4 7296   1.555   2.140   3.816  0.1852 -1.0550 -0.2195
 1883SOL     OW 7297   5.191   2.562   4.475 -0.1873 -0.3160 -0.4006
 1883SOL    HW2 7298   5.200   2.558   4.571 -1.7132  1.2390 -0.1414
 1883SOL    HW3 7299   5.200   2.655   4.454  1.9245 -0.7991 -2.0402
 1883SOL    MW4 7300   5.194   2.574   4.485 -0.1100 -0.1746 -0.5828
 1884SOL     OW 7301   5.386   2.090   5.110 -0.0589  0.0907 -0.5941
 1884SOL    HW2 7302   5.302   2.095   5.065  1.1240 -1.6779 -3.3152
 1884SOL    HW3 7303   5.392   1.999   5.138 -0.1549  0.8477  2.0954
 1884SOL    MW4 7304   5.376   2.078   5.108  0.0845 -0.0428 -0.5983
 1885SOL     OW 7305   5.770   4.746   0.834  0.6919 -0.1574 -0.3091
 1885SOL    HW2 7306   5.686   4.712   0.864  0.5732 -0.0837 -0.5617
 1885SOL    HW3 7307   5.835   4.692   0.881  0.5078 -0.2085 -0.1092
 1885SOL    MW4 7308   5.768   4.734   0.845  0.6520 -0.1544 -0.3160
 1886SOL     OW 7309   3.962   0.466   2.669 -0.6883 -0.0754 -0.2007
 1886SOL    HW2 7310   4.006   0.545   2.698  1.1912 -0.7083 -1.1716
 1886SOL    HW3 7311   4.007   0.441   2.588 -2.9692 -0.6904 -1.3740
 1886SOL    MW4 7312   3.973   0.473   2.662 -0.7413 -0.2400 -0.4836
 1887SOL     OW 7313   6.285   1.902   2.512  0.0644  0.2083 -0.1627
 1887SOL    HW2 7314   6.216   1.847   2.475 -0.2429  1.4067 -1.4635
 1887SOL    HW3 7315   6.241   1.959   2.575  0.0554  0.2313 -0.1899
 1887SOL    MW4 7316   6.270   1.902   2.515  0.0226  0.3694 -0.3379
 1888SOL     OW 7317   5.147   5.672   1.285 -0.0416  0.1047  0.0146
 1888SOL    HW2 7318   5.220   5.699   1.229  0.3621  0.8091  0.8532
 1888SOL    HW3 7319   5.110   5.596   1.241  1.2984 -0.3672 -0.3379
 1888SOL    MW4 7320   5.152   5.666   1.272  0.1885  0.1354  0.0788
 1889SOL     OW 7321   4.177   2.556   3.062 -0.6040  0.1436  0.1566
 1889SOL    HW2 7322   4.191   2.468   3.028 -1.1798 -0.1719  0.7053
 1889SOL    HW3 7323   4.086   2.556   3.092  0.6353 -0.6720  4.7130
 1889SOL    MW4 7324   4.167   2.544   3.062 -0.5164 -0.0056  0.8301
 1890SOL     OW 7325   6.398   0.253   6.207 -0.0188 -0.3686  0.1683
 1890SOL    HW2 7326   6.307   0.246   6.235 -0.1626 -0.3178 -0.2756
 1890SOL    HW3 7327   6.392   0.277   6.114  0.4466 -0.2551  0.1699
 1890SOL    MW4 7328   6.385   0.255   6.198  0.0236 -0.3469  0.1100
 1891SOL     OW 7329   1.703   3.984   5.420 -0.7270  0.2510 -0.3239
 1891SOL    HW2 7330   1.620   3.949   5.388 -0.1441 -0.8954 -0.6360
 1891SOL    HW3 7331   1.764   3.974   5.347  0.0582 -0.3057  0.3880
 1891SOL    MW4 7332   1.700   3.978   5.406 -0.5465  0.0263 -0.2711
 1892SOL     OW 7333   1.893   5.937   5.995  0.0356 -0.1420 -0.5172
 1892SOL    HW2 7334   1.847   6.021   6.002  0.8532  0.2569  0.2887
 1892SOL    HW3 7335   1.962   5.942   6.061  0.0054 -1.5163 -0.3481
 1892SOL    MW4 7336   1.896   5.949   6.004  0.1395 -0.2707 -0.3886
 1893SOL     OW 7337   1.207   1.437   6.025  0.0747 -0.4822  0.1921
 1893SOL    HW2 7338   1.126   1.387   6.015 -1.0008  0.9316  1.2783
 1893SOL    HW3 7339   1.219   1.481   5.941 -1.4485  0.8548  0.6197
 1893SOL    MW4 7340   1.198   1.436   6.013 -0.2682 -0.1193  0.3918
 1894SOL     OW 7341   1.295   0.204   1.539 -0.3063  0.5448 -0.4316
 1894SOL    HW2 7342   1.266   0.191   1.630  0.2116  1.6618 -0.0919
 1894SOL    HW3 7343   1.215   0.192   1.487 -0.5313 -0.5109  0.1181
 1894SOL    MW4 7344   1.280   0.201   1.544 -0.2677  0.5529 -0.3143
 1895SOL     OW 7345   4.461   2.894   6.302 -0.0058  0.5460 -0.1854
 1895SOL    HW2 7346   4.505   2.854   6.227 -1.2889 -1.0760 -0.1391
 1895SOL    HW3 7347   4.517   2.968   6.326  0.5165  1.0315 -2.6314
 1895SOL    MW4 7348   4.474   2.899   6.295 -0.1062  0.3961 -0.5020
 1896SOL     OW 7349   3.814   5.033   5.452  0.6763  0.1229 -0.0339
 1896SOL    HW2 7350   3.811   4.948   5.407  0.5544  0.3360 -0.4368
 1896SOL    HW3 7351   3.741   5.083   5.414 -0.1632 -0.0967  1.2516
 1896SOL    MW4 7352   3.804   5.028   5.441  0.5494  0.1220  0.0826
 1897SOL     OW 7353   0.827   2.408   0.308 -0.1762 -0.0312 -0.3631
 1897SOL    HW2 7354   0.918   2.435   0.313  0.5118 -2.0547 -1.0588
 1897SOL    HW3 7355   0.777   2.488   0.323  1.6651  0.7456  2.1139
 1897SOL    MW4 7356   0.832   2.422   0.311  0.1575 -0.1957 -0.1281
 1898SOL     OW 7357   2.229   2.109   6.377 -0.4737  0.3745 -0.2054
 1898SOL    HW2 7358   2.291   2.175   6.410 -1.2857  1.6005 -1.0631
 1898SOL    HW3 7359   2.187   2.151   6.302  1.2850 -2.2677 -2.9082
 1898SOL    MW4 7360   2.232   2.124   6.372 -0.3488  0.1876 -0.6752
 1899SOL     OW 7361   3.534   1.462   2.832  0.0062  0.0966  0.1872
 1899SOL    HW2 7362   3.466   1.502   2.888 -1.0895 -0.5564 -0.6334
 1899SOL    HW3 7363   3.530   1.512   2.751  1.8553  1.2810  0.7726
 1899SOL    MW4 7364   3.524   1.474   2.829  0.1056  0.1667  0.1561
 1900SOL     OW 7365   1.115   4.297   0.201  0.0494  0.0418 -0.3786
 1900SOL    HW2 7366   1.149   4.386   0.214 -1.6727  0.8813 -1.2573
 1900SOL    HW3 7367   1.189   4.240   0.222  0.9152  1.6278  1.1864
 1900SOL    MW4 7368   1.129   4.301   0.205 -0.0636  0.3618 -0.2881
 1901SOL     OW 7369   2.512   2.636   5.767 -0.6361 -0.4575  0.4254
 1901SOL    HW2 7370   2.532   2.561   5.711  1.5402  0.5641 -0.3040
 1901SOL    HW3 7371   2.567   2.707   5.732 -1.8948  1.2209  1.6675
 1901SOL    MW4 7372   2.522   2.636   5.755 -0.5150 -0.1013  0.4930
 1902SOL     OW 7373   3.796   3.152   5.611  0.1393  0.2681  0.4050
 1902SOL    HW2 7374   3.793   3.074   5.666 -0.3597  1.1636  1.7018
 1902SOL    HW3 7375   3.744   3.217   5.659  0.8667  1.5182 -0.4480
 1902SOL    MW4 7376   3.788   3.150   5.625  0.1694  0.5512  0.4635
 1903SOL     OW 7377   4.595   0.099   3.377 -0.6165 -0.0769  0.3413
 1903SOL    HW2 7378   4.582   0.087   3.283  0.8914 -1.2580  0.2408
 1903SOL    HW3 7379   4.639   0.184   3.385 -2.2958  0.8481  0.1606
 1903SOL    MW4 7380   4.599   0.109   3.366 -0.6391 -0.1106  0.3042
 1904SOL     OW 7381   2.210   2.613   0.118  0.3421 -0.1212  0.0718
 1904SOL    HW2 7382   2.188   2.670   0.192  0.0115  1.6808 -1.3314
 1904SOL    HW3 7383   2.172   2.528   0.140 -2.7666  1.2411  0.4953
 1904SOL    MW4 7384   2.202   2.610   0.131 -0.1117  0.2963 -0.0575
 1905SOL     OW 7385   5.616   3.772   1.818 -0.3751 -0.1235  0.1221
 1905SOL    HW2 7386   5.616   3.829   1.741 -0.7231 -2.2669 -1.5793
 1905SOL    HW3 7387   5.525   3.743   1.825 -0.2888 -0.1686  1.2127
 1905SOL    MW4 7388   5.604   3.776   1.808 -0.4096 -0.4122  0.0415
 1906SOL     OW 7389   0.296   0.932   1.199 -0.2533  0.3606 -0.4078
 1906SOL    HW2 7390   0.381   0.924   1.157  0.8943  2.2059  1.3922
 1906SOL    HW3 7391   0.258   1.012   1.162 -1.3221 -0.5211 -1.3044
 1906SOL    MW4 7392   0.302   0.941   1.188 -0.2429  0.4877 -0.2886
 1907SOL     OW 7393   2.806   4.950   4.827 -0.6747  0.5229 -0.0337
 1907SOL    HW2 7394   2.783   4.857   4.832  0.7344  0.2045  1.0383
 1907SOL    HW3 7395   2.856   4.958   4.746 -0.6064  0.3102 -0.0131
 1907SOL    MW4 7396   2.809   4.939   4.817 -0.4797  0.4529  0.1105
 1908SOL     OW 7397   3.716   2.005   1.833 -0.2780 -0.4878  0.1447
 1908SOL    HW2 7398   3.765   1.982   1.912 -1.1498  0.8433  1.1152
 1908SOL    HW3 7399   3.761   1.959   1.762  0.5970 -1.6171  1.3931
 1908SOL    MW4 7400   3.728   1.996   1.834 -0.2776 -0.4612  0.4374
 1909SOL     OW 7401   4.016   3.813   4.042 -0.0478 -0.4290 -0.4033
 1909SOL    HW2 7402   4.096   3.763   4.061 -0.8750 -1.5910  0.1298
 1909SOL    HW3 7403   3.957   3.750   4.003 -1.8405 -0.4197  2.0400
 1909SOL    MW4 7404   4.019   3.798   4.039 -0.3935 -0.5811 -0.0106
 1910SOL     OW 7405   2.101   2.249   4.406  0.0412 -0.1198  0.5854
 1910SOL    HW2 7406   2.076   2.229   4.496  0.5570 -0.4922  0.6511
 1910SOL    HW3 7407   2.151   2.331   4.413  1.9935 -1.2707  0.9548
 1910SOL    MW4 7408   2.105   2.257   4.419  0.3668 -0.3207  0.6428
 1911SOL     OW 7409   3.015   4.724   4.475 -0.4214  0.5857 -0.6234
 1911SOL    HW2 7410   2.943   4.670   4.506 -0.2370  1.8523  2.4176
 1911SOL    HW3 7411   3.091   4.667   4.477 -0.3854  0.6229  1.7176
 1911SOL    MW4 7412   3.016   4.710   4.479 -0.3923  0.7577  0.0867
 1912SOL     OW 7413   2.811   2.150   0.955 -0.1687 -0.4736  0.3496
 1912SOL    HW2 7414   2.738   2.096   0.924  0.9375 -1.8712  0.0325
 1912SOL    HW3 7415   2.846   2.192   0.876  0.3325 -1.0698  0.2436
 1912SOL    MW4 7416   2.806   2.148   0.940  0.0434 -0.7367  0.2938
 1913SOL     OW 7417   5.392   3.856   0.256  0.3466  0.1163 -0.2683
 1913SOL    HW2 7418   5.351   3.782   0.212 -1.2871  2.5400 -3.1769
 1913SOL    HW3 7419   5.373   3.842   0.349 -3.1589 -1.2664 -1.0321
 1913SOL    MW4 7420   5.384   3.844   0.263 -0.3315  0.2536 -0.7529
 1914SOL     OW 7421   0.608   1.269   1.751  0.4958 -0.4055  0.1113
 1914SOL    HW2 7422   0.572   1.227   1.829 -1.3224 -1.5014 -1.2576
 1914SOL    HW3 7423   0.649   1.198   1.702  0.0019 -0.0718 -0.8120
 1914SOL    MW4 7424   0.609   1.254   1.755  0.1908 -0.5061 -0.1911
 1915SOL     OW 7425   0.820   0.536   2.879  0.4317 -0.6189  0.2859
 1915SOL    HW2 7426   0.877   0.540   2.802 -0.6027  1.6788 -0.4343
 1915SOL    HW3 7427   0.743   0.487   2.851  0.1424  0.0500 -0.1042
 1915SOL    MW4 7428   0.818   0.530   2.865  0.2570 -0.2275  0.1394
 1916SOL     OW 7429   5.485   0.864   2.596 -0.5994 -0.1498  0.2609
 1916SOL    HW2 7430   5.537   0.784   2.599 -0.1056  0.1773  0.7865
 1916SOL    HW3 7431   5.449   0.872   2.685 -1.9876 -0.6433 -0.2259
 1916SOL    MW4 7432   5.487   0.854   2.608 -0.7174 -0.1717  0.2660
 1917SOL     OW 7433   3.059   4.610   1.552 -0.2785  0.1233  0.0966
 1917SOL    HW2 7434   3.070   4.557   1.631  1.3862  1.9170  1.1588
 1917SOL    HW3 7435   3.055   4.547   1.480  1.9044 -1.4852  1.2718
 1917SOL    MW4 7436   3.060   4.595   1.553  0.2292  0.1478  0.3918
 1918SOL     OW 7437   0.705   1.753   5.840 -0.0874 -0.1048 -0.4388
 1918SOL    HW2 7438   0.718   1.781   5.749 -0.0807  1.0239 -0.0928
 1918SOL    HW3 7439   0.719   1.831   5.892  0.7818 -0.9258  0.6143
 1918SOL    MW4 7440   0.709   1.767   5.835  0.0281 -0.0642 -0.2542
 1919SOL     OW 7441   5.627   0.236   6.363 -0.1446  0.5273 -0.3802
 1919SOL    HW2 7442   5.692   0.170   6.384 -0.6003  0.3871  0.6442
 1919SOL    HW3 7443   5.546   0.187   6.348 -0.0660  0.7097 -1.4974
 1919SOL    MW4 7444   5.625   0.221   6.364 -0.1944  0.5329 -0.3925
 1920SOL     OW 7445   3.950   0.525   5.843  0.2278 -0.2725  0.2820
 1920SOL    HW2 7446   4.034   0.565   5.869  0.7060 -0.8750 -0.3083
 1920SOL    HW3 7447   3.889   0.599   5.840  0.6101  0.1056  1.2214
 1920SOL    MW4 7448   3.953   0.540   5.846  0.3413 -0.3021  0.3280
 1921SOL     OW 7449   1.821   0.455   0.105 -0.2172 -0.0432  0.2565
 1921SOL    HW2 7450   1.768   0.475   0.182  1.5490 -0.0420  1.5272
 1921SOL    HW3 7451   1.766   0.481   0.031 -2.1600 -0.4990  1.4603
 1921SOL    MW4 7452   1.807   0.461   0.105 -0.2405 -0.1032  0.5830
 1922SOL     OW 7453   5.037   2.295   3.531  0.3810 -0.4572  0.1248
 1922SOL    HW2 7454   5.005   2.385   3.533 -0.4114 -0.7306  1.4567
 1922SOL    HW3 7455   5.077   2.285   3.445  0.7511  1.2490  0.0718
 1922SOL    MW4 7456   5.038   2.306   3.520  0.3253 -0.2682  0.2935
 1923SOL     OW 7457   3.919   1.350   5.207  0.0806  0.6639  0.0432
 1923SOL    HW2 7458   3.965   1.273   5.243 -1.6792 -0.4804 -0.0499
 1923SOL    HW3 7459   3.902   1.405   5.283  0.6666  0.6086  0.2252
 1923SOL    MW4 7460   3.923   1.347   5.221 -0.0743  0.5056  0.0549
 1924SOL     OW 7461   4.059   0.900   4.453  0.1542  0.1563  0.1968
 1924SOL    HW2 7462   4.104   0.961   4.512  2.8744 -0.4214 -1.1372
 1924SOL    HW3 7463   4.103   0.817   4.465 -0.0190 -0.2754 -1.7597
 1924SOL    MW4 7464   4.070   0.897   4.462  0.4902  0.0231 -0.2374
 1925SOL     OW 7465   5.810   0.520   1.139  0.3237  0.8588 -0.1037
 1925SOL    HW2 7466   5.731   0.478   1.104  0.3925 -0.5032  1.2928
 1925SOL    HW3 7467   5.796   0.522   1.234  1.9634  0.5856  0.1663
 1925SOL    MW4 7468   5.798   0.515   1.147  0.5491  0.6430  0.1162
 1926SOL     OW 7469   2.109   1.003   0.845 -0.1880  0.3665 -0.4880
 1926SOL    HW2 7470   2.193   0.993   0.800 -0.2853  0.3450 -0.6658
 1926SOL    HW3 7471   2.045   0.972   0.782 -0.2963  0.0161 -0.2068
 1926SOL    MW4 7472   2.112   0.998   0.831 -0.2151  0.3174 -0.4743
 1927SOL     OW 7473   2.153   0.924   3.653 -0.0786 -0.1163 -0.2055
 1927SOL    HW2 7474   2.059   0.940   3.649 -0.3476 -0.3136  2.9008
 1927SOL    HW3 7475   2.161   0.829   3.660  0.4246 -0.1508 -1.0681
 1927SOL    MW4 7476   2.142   0.913   3.653 -0.0477 -0.1469  0.0905
 1928SOL     OW 7477   4.794   5.233   0.666 -0.3487 -0.3971 -0.1316
 1928SOL    HW2 7478   4.810   5.325   0.687  0.6426 -0.5660 -0.0591
 1928SOL    HW3 7479   4.701   5.227   0.647 -0.5161  0.5214  0.3864
 1928SOL    MW4 7480   4.784   5.244   0.666 -0.2400 -0.2982 -0.0537
 1929SOL     OW 7481   5.939   2.351   1.629  0.1109  0.2559 -0.0599
 1929SOL    HW2 7482   6.021   2.372   1.586 -0.6904  0.9115 -1.3253
 1929SOL    HW3 7483   5.876   2.339   1.557 -0.9728  0.1038  0.8800
 1929SOL    MW4 7484   5.941   2.352   1.614 -0.1378  0.3223 -0.1028
 1930SOL     OW 7485   2.445   4.381   3.766  0.0105 -0.1960  0.4200
 1930SOL    HW2 7486   2.453   4.406   3.858 -2.3364 -0.0260  0.6401
 1930SOL    HW3 7487   2.359   4.340   3.759  0.2131 -0.3933 -1.6610
 1930SOL    MW4 7488   2.435   4.379   3.777 -0.2724 -0.1996  0.1744
 1931SOL     OW 7489   5.264   5.995   4.097  0.0778  0.0034  0.3334
 1931SOL    HW2 7490   5.191   5.966   4.043  1.0640 -2.2252  0.1032
 1931SOL    HW3 7491   5.313   6.056   4.041 -0.6525  0.2050 -0.0994
 1931SOL    MW4 7492   5.261   6.000   4.082  0.1115 -0.2640  0.2460
 1932SOL     OW 7493   4.274   3.662   0.721 -0.4977 -0.3243 -0.5425
 1932SOL    HW2 7494   4.335   3.601   0.680  0.0277 -0.0127 -0.2423
 1932SOL    HW3 7495   4.213   3.686   0.651  0.7511  0.6772 -1.3385
 1932SOL    MW4 7496   4.274   3.657   0.706 -0.2636 -0.1511 -0.6079
 1933SOL     OW 7497   4.754   5.466   4.862  0.2453 -0.2538 -0.1014
 1933SOL    HW2 7498   4.788   5.381   4.889  1.7417  0.1247 -0.7079
 1933SOL    HW3 7499   4.762   5.521   4.940  2.1265  0.1285 -0.5185
 1933SOL    MW4 7500   4.759   5.462   4.876  0.6909 -0.1534 -0.2364
 1934SOL     OW 7501   2.482   3.449   5.806  0.4625 -0.0757  0.1996
 1934SOL    HW2 7502   2.482   3.375   5.866 -2.2446 -0.5552 -0.2246
 1934SOL    HW3 7503   2.529   3.518   5.851  1.2830 -1.4253  1.4717
 1934SOL    MW4 7504   2.488   3.448   5.820  0.2136 -0.3170  0.3115
 1935SOL     OW 7505   6.145   5.217   0.928 -0.4375  0.1879 -0.2037
 1935SOL    HW2 7506   6.086   5.231   1.003 -1.8467  0.7646 -1.3631
 1935SOL    HW3 7507   6.162   5.123   0.928 -0.3445  0.1983  0.8921
 1935SOL    MW4 7508   6.139   5.206   0.938 -0.6112  0.2653 -0.2121
 1936SOL     OW 7509   3.901   5.607   1.039  0.1226  0.1187 -0.4326
 1936SOL    HW2 7510   3.982   5.629   1.086  0.4909  0.1793 -1.0806
 1936SOL    HW3 7511   3.925   5.612   0.947 -0.7592  0.6304 -0.6455
 1936SOL    MW4 7512   3.915   5.611   1.033  0.0549  0.1942 -0.5462
 1937SOL     OW 7513   0.152   5.134   3.757  0.2295 -0.0886 -0.1082
 1937SOL    HW2 7514   0.172   5.167   3.669  0.4476  0.6605  0.2130
 1937SOL    HW3 7515   0.230   5.085   3.783 -0.5218 -1.8412 -1.0282
 1937SOL    MW4 7516   0.165   5.132   3.749  0.1592 -0.2210 -0.1872
 1938SOL     OW 7517   1.308   5.952   4.764 -0.0368  0.3083  0.0674
 1938SOL    HW2 7518   1.293   5.914   4.677 -1.6337  2.6029 -0.7493
 1938SOL    HW3 7519   1.403   5.967   4.767  0.1355 -0.4515 -0.9778
 1938SOL    MW4 7520   1.319   5.949   4.753 -0.2248  0.5108 -0.1782
 1939SOL     OW 7521   3.676   0.447   4.890 -0.1644  0.1306 -0.1077
 1939SOL    HW2 7522   3.696   0.503   4.815 -0.5738 -2.3230 -2.1746
 1939SOL    HW3 7523   3.584   0.466   4.910 -0.6698 -0.6044 -1.5776
 1939SOL    MW4 7524   3.667   0.457   4.883 -0.2851 -0.2901 -0.5743
 1940SOL     OW 7525   2.259   3.134   3.614 -0.6188  0.0153  0.1244
 1940SOL    HW2 7526   2.247   3.216   3.565 -1.7037 -0.6321 -0.7309
 1940SOL    HW3 7527   2.203   3.145   3.692 -1.1960 -0.1159 -0.2627
 1940SOL    MW4 7528   2.250   3.147   3.618 -0.8381 -0.0874 -0.0395
 1941SOL     OW 7529   0.451   3.565   2.602  0.0607 -0.7066 -0.0069
 1941SOL    HW2 7530   0.366   3.604   2.581  0.6261  0.0842 -0.8804
 1941SOL    HW3 7531   0.495   3.556   2.518  1.6610  0.8460  0.5994
 1941SOL    MW4 7532   0.446   3.569   2.588  0.3464 -0.3974 -0.0421
 1942SOL     OW 7533   1.230   5.878   2.569  0.0397 -0.2991  0.2036
 1942SOL    HW2 7534   1.144   5.858   2.606  0.3769  0.0161  1.1913
 1942SOL    HW3 7535   1.237   5.973   2.574  0.0451 -0.2409 -0.8037
 1942SOL    MW4 7536   1.220   5.888   2.574  0.0849 -0.2498  0.2010
 1943SOL     OW 7537   2.212   4.907   1.226 -0.8766 -0.0737 -0.5345
 1943SOL    HW2 7538   2.300   4.903   1.189 -0.6883 -0.0354 -0.0972
 1943SOL    HW3 7539   2.224   4.887   1.319 -1.5115 -1.6119 -0.7429
 1943SOL    MW4 7540   2.225   4.904   1.233 -0.9355 -0.2716 -0.5043
 1944SOL     OW 7541   1.139   4.213   0.926 -0.3188 -0.2189  0.1049
 1944SOL    HW2 7542   1.097   4.242   0.845 -0.9228 -0.4260  0.3377
 1944SOL    HW3 7543   1.067   4.204   0.989  0.0698 -0.6249  0.5019
 1944SOL    MW4 7544   1.124   4.216   0.924 -0.3472 -0.2998  0.1880
 1945SOL     OW 7545   2.027   3.383   2.593  0.1277 -0.3202  0.4999
 1945SOL    HW2 7546   1.968   3.444   2.548 -0.9480 -1.2644  0.5874
 1945SOL    HW3 7547   2.097   3.367   2.530 -0.2743 -0.0189 -0.0356
 1945SOL    MW4 7548   2.028   3.389   2.579 -0.0673 -0.4050  0.4408
 1946SOL     OW 7549   6.239   3.595   5.265 -0.6027  0.2618  0.6128
 1946SOL    HW2 7550   6.254   3.510   5.307  0.2624  0.0719 -0.0351
 1946SOL    HW3 7551   6.166   3.579   5.206  0.1955 -0.3329 -0.2543
 1946SOL    MW4 7552   6.232   3.581   5.263 -0.3832  0.1583  0.4129
 1947SOL     OW 7553   0.193   0.015   4.631 -0.4960 -0.6708 -0.0550
 1947SOL    HW2 7554   0.107   0.038   4.667 -0.3414  0.4042 -0.3454
 1947SOL    HW3 7555   0.175  -0.059   4.573 -0.9863 -1.4366  1.0293
 1947SOL    MW4 7556   0.179   0.008   4.628 -0.5403 -0.6300  0.0497
 1948SOL     OW 7557   4.954   2.612   3.521 -0.0762 -0.5179  0.1811
 1948SOL    HW2 7558   4.863   2.594   3.497  0.6172 -2.3493 -1.3451
 1948SOL    HW3 7559   4.949   2.640   3.612 -2.4103  2.1439 -0.6092
 1948SOL    MW4 7560   4.941   2.613   3.530 -0.2926 -0.4084 -0.1246
 1949SOL     OW 7561   1.682   6.113   0.971  0.0990  0.5578 -0.2154
 1949SOL    HW2 7562   1.691   6.158   1.055  2.3320  1.7860 -1.0327
 1949SOL    HW3 7563   1.604   6.058   0.981  0.4402  0.4665  2.7322
 1949SOL    MW4 7564   1.673   6.112   0.983  0.4386  0.7078  0.0657
 1950SOL     OW 7565   3.235   0.919   2.893  0.1787  0.6959 -0.7247
 1950SOL    HW2 7566   3.309   0.980   2.890  0.7006  0.0890 -0.4468
 1950SOL    HW3 7567   3.210   0.917   2.985 -1.0228  1.8675 -0.9946
 1950SOL    MW4 7568   3.241   0.927   2.905  0.0891  0.7704 -0.7236
 1951SOL     OW 7569   2.152   0.730   2.940  0.0680  1.2138 -0.3792
 1951SOL    HW2 7570   2.183   0.777   2.862 -0.4107  0.9975 -0.7024
 1951SOL    HW3 7571   2.073   0.776   2.966 -0.2653  0.7431 -0.5499
 1951SOL    MW4 7572   2.146   0.742   2.933 -0.0391  1.1232 -0.4443
 1952SOL     OW 7573   4.606   6.204   0.328  0.0907  0.9388 -0.5008
 1952SOL    HW2 7574   4.605   6.234   0.237 -0.5033  1.9943 -0.1641
 1952SOL    HW3 7575   4.593   6.284   0.380 -0.2349  0.2691  0.4783
 1952SOL    MW4 7576   4.604   6.219   0.323 -0.0306  0.9897 -0.3272
 1953SOL     OW 7577   1.527   3.316   1.590  0.5335 -0.7199  0.5464
 1953SOL    HW2 7578   1.517   3.246   1.525 -1.0465  0.2203 -0.3018
 1953SOL    HW3 7579   1.441   3.322   1.631  0.0932  1.7461 -0.5321
 1953SOL    MW4 7580   1.514   3.307   1.587  0.2670 -0.2705  0.2922
 1954SOL     OW 7581   0.732   2.292   1.601 -0.9317 -0.2075 -0.1698
 1954SOL    HW2 7582   0.789   2.215   1.596 -2.1595 -1.3065  1.4046
 1954SOL    HW3 7583   0.792   2.366   1.607  0.3267 -1.2471  0.6797
 1954SOL    MW4 7584   0.747   2.292   1.601 -0.9277 -0.4896  0.1500
 1955SOL     OW 7585   0.041   5.837   5.850  0.1805 -0.3006  0.0769
 1955SOL    HW2 7586   0.076   5.842   5.939  0.9966  1.0694 -0.2883
 1955SOL    HW3 7587  -0.022   5.766   5.854  0.6916 -0.7289  1.5794
 1955SOL    MW4 7588   0.037   5.829   5.863  0.3556 -0.1764  0.2269
 1956SOL     OW 7589   4.407   1.495   0.833  0.0456  0.0251 -0.1875
 1956SOL    HW2 7590   4.467   1.559   0.795 -0.2802  0.9274  0.7630
 1956SOL    HW3 7591   4.381   1.533   0.917  0.0961 -1.5073  0.5642
 1956SOL    MW4 7592   4.412   1.509   0.839  0.0093 -0.0580  0.0371
 1957SOL     OW 7593   3.147   1.517   2.003  0.6300 -0.5808 -0.0079
 1957SOL    HW2 7594   3.063   1.499   2.045  1.3209 -0.4305  1.4943
 1957SOL    HW3 7595   3.134   1.489   1.912 -0.8206 -1.1989  0.3496
 1957SOL    MW4 7596   3.134   1.511   1.996  0.5298 -0.6425  0.2375
 1958SOL     OW 7597   1.638   0.510   6.325 -0.2892  0.0295  0.1959
 1958SOL    HW2 7598   1.549   0.530   6.355  0.2064  0.5903  1.3510
 1958SOL    HW3 7599   1.657   0.578   6.260 -1.1330 -0.8099 -0.9656
 1958SOL    MW4 7600   1.629   0.522   6.321 -0.3352 -0.0072  0.1951
 1959SOL     OW 7601   1.344   1.180   1.415 -0.3220  0.6087  0.2700
 1959SOL    HW2 7602   1.394   1.176   1.333 -0.8090  1.4227 -0.0887
 1959SOL    HW3 7603   1.383   1.113   1.471 -0.0894 -0.0942 -0.6942
 1959SOL    MW4 7604   1.356   1.171   1.411 -0.3556  0.6234  0.0955
 1960SOL     OW 7605   2.145   4.139   3.286  0.2053 -0.7787  0.7665
 1960SOL    HW2 7606   2.183   4.217   3.244  1.8258 -3.0826 -2.4751
 1960SOL    HW3 7607   2.217   4.101   3.336  0.6008 -2.1364 -0.7630
 1960SOL    MW4 7608   2.160   4.145   3.287  0.4713 -1.2618  0.1370
 1961SOL     OW 7609   3.787   0.047   2.758  0.2371 -0.3115 -0.3920
 1961SOL    HW2 7610   3.830   0.088   2.833  1.7459 -0.1741 -1.2850
 1961SOL    HW3 7611   3.828   0.087   2.681 -0.8504 -0.8638 -1.2963
 1961SOL    MW4 7612   3.798   0.057   2.758  0.2927 -0.3662 -0.6292
 1962SOL     OW 7613   0.120   0.319   0.465 -0.3298  0.0727  0.2234
 1962SOL    HW2 7614   0.119   0.329   0.370 -2.0424  0.1060  0.1992
 1962SOL    HW3 7615   0.208   0.344   0.492  0.4317 -0.7285 -1.4207
 1962SOL    MW4 7616   0.131   0.324   0.456 -0.4553 -0.0286  0.0033
 1963SOL     OW 7617   6.444   2.229   4.166 -0.3123 -0.2134 -0.7183
 1963SOL    HW2 7618   6.439   2.185   4.081 -2.9149  0.3411 -0.9133
 1963SOL    HW3 7619   6.446   2.322   4.144 -0.1922 -0.0870 -0.1756
 1963SOL    MW4 7620   6.444   2.235   4.152 -0.6398 -0.1236 -0.6725
 1964SOL     OW 7621   2.757   0.246   3.167  0.4936 -0.7319  0.5570
 1964SOL    HW2 7622   2.674   0.203   3.150 -0.1701  0.6711  0.1144
 1964SOL    HW3 7623   2.737   0.314   3.231 -0.0732  3.4359 -3.4942
 1964SOL    MW4 7624   2.744   0.249   3.173  0.3312  0.0031 -0.0359
 1965SOL     OW 7625   4.474   4.177   0.512 -0.4985 -0.0048  0.0543
 1965SOL    HW2 7626   4.561   4.212   0.529 -0.8686  0.0087  2.2408
 1965SOL    HW3 7627   4.437   4.160   0.599 -2.3787 -0.7634 -0.8204
 1965SOL    MW4 7628   4.480   4.180   0.526 -0.7954 -0.1031  0.2274
 1966SOL     OW 7629   4.442   5.978   3.595  0.1526  0.3024  0.2190
 1966SOL    HW2 7630   4.520   6.027   3.572 -0.9066  1.0309 -2.0618
 1966SOL    HW3 7631   4.388   5.979   3.516 -1.3319 -1.8231  1.0990
 1966SOL    MW4 7632   4.445   5.985   3.582 -0.1830  0.1181  0.0342
 1967SOL     OW 7633   1.189   1.483   0.684 -0.5411 -0.4331 -0.5856
 1967SOL    HW2 7634   1.137   1.557   0.715 -0.5330 -0.3986 -0.6534
 1967SOL    HW3 7635   1.156   1.466   0.596 -2.2632 -2.0964  0.3046
 1967SOL    MW4 7636   1.178   1.491   0.677 -0.7672 -0.6480 -0.4771
 1968SOL     OW 7637   6.335   2.120   2.314 -0.2163 -0.1150 -0.3391
 1968SOL    HW2 7638   6.308   2.074   2.234 -1.3166 -0.2877  0.1126
 1968SOL    HW3 7639   6.313   2.060   2.385  0.5357  0.1356  0.1145
 1968SOL    MW4 7640   6.328   2.106   2.312 -0.2623 -0.1047 -0.2197
 1969SOL     OW 7641   1.719   4.637   2.719  0.1541  0.6028 -0.0374
 1969SOL    HW2 7642   1.663   4.706   2.754 -0.5470  0.5049 -0.9271
 1969SOL    HW3 7643   1.773   4.610   2.793  1.2772  2.9069  0.0649
 1969SOL    MW4 7644   1.719   4.643   2.734  0.2098  0.8939 -0.1413
 1970SOL     OW 7645   4.120   0.436   4.482 -0.0261  0.3983 -0.4534
 1970SOL    HW2 7646   4.055   0.369   4.502  0.5024 -0.0117 -0.0468
 1970SOL    HW3 7647   4.094   0.471   4.397  0.7507 -1.6820 -1.6164
 1970SOL    MW4 7648   4.108   0.432   4.473  0.1461  0.0697 -0.5532
 1971SOL     OW 7649   5.291   0.375   5.635 -0.6123  0.0113  0.4339
 1971SOL    HW2 7650   5.367   0.324   5.608  0.2017  1.5844 -0.3553
 1971SOL    HW3 7651   5.304   0.389   5.729  0.3600  0.6901  0.2112
 1971SOL    MW4 7652   5.303   0.371   5.644 -0.3766  0.3084  0.3004
 1972SOL     OW 7653   6.332   3.118   3.205  0.3562  0.1614  0.1586
 1972SOL    HW2 7654   6.332   3.174   3.283  0.8509 -0.6112  0.7356
 1972SOL    HW3 7655   6.336   3.179   3.131  0.9417  0.8864  0.7692
 1972SOL    MW4 7656   6.333   3.133   3.206  0.4987  0.1551  0.3153
 1973SOL     OW 7657   2.280   5.368   4.549  0.2622  0.1834 -0.6505
 1973SOL    HW2 7658   2.266   5.296   4.486 -0.9737  0.1162 -0.3312
 1973SOL    HW3 7659   2.193   5.407   4.559  0.5582  0.5656  0.5687
 1973SOL    MW4 7660   2.266   5.363   4.542  0.1382  0.2250 -0.4475
 1974SOL     OW 7661   3.297   5.489   2.835 -0.2184 -0.1432  0.2501
 1974SOL    HW2 7662   3.223   5.539   2.800  0.7869  2.0551  1.0644
 1974SOL    HW3 7663   3.358   5.482   2.761 -1.3047 -2.2626 -0.5232
 1974SOL    MW4 7664   3.295   5.495   2.821 -0.2291 -0.1328  0.2555
 1975SOL     OW 7665   3.339   1.235   3.041 -0.5104 -0.4411  0.2898
 1975SOL    HW2 7666   3.331   1.207   2.950  0.5322 -2.8331  0.8636
 1975SOL    HW3 7667   3.273   1.185   3.088 -0.1500 -0.2242  1.0417
 1975SOL    MW4 7668   3.330   1.225   3.035 -0.3253 -0.7281  0.4647
 1976SOL     OW 7669   4.533   4.402   4.776 -0.1869 -0.4265  0.0743
 1976SOL    HW2 7670   4.477   4.365   4.707  0.0688 -0.7037  0.0105
 1976SOL    HW3 7671   4.561   4.326   4.826  0.0937 -0.2837  0.1346
 1976SOL    MW4 7672   4.529   4.387   4.773 -0.1161 -0.4442  0.0739
 1977SOL     OW 7673   2.047   2.356   0.204 -0.1972  0.0057  0.3999
 1977SOL    HW2 7674   2.076   2.381   0.292  0.3547 -2.8449  1.1086
 1977SOL    HW3 7675   1.972   2.299   0.219 -0.5045  0.0138 -1.0347
 1977SOL    MW4 7676   2.041   2.352   0.218 -0.1649 -0.3693  0.3041
 1978SOL     OW 7677   2.953   3.853   0.546  0.3968  0.0464 -0.5825
 1978SOL    HW2 7678   2.967   3.840   0.452  1.2412 -1.5657 -0.2675
 1978SOL    HW3 7679   2.859   3.843   0.558  0.5696 -3.0013 -0.8774
 1978SOL    MW4 7680   2.943   3.850   0.535  0.5310 -0.5684 -0.5798
 1979SOL     OW 7681   1.874   4.371   2.219 -0.0749 -0.3169  0.0866
 1979SOL    HW2 7682   1.827   4.429   2.278 -3.3492 -0.3182 -2.2161
 1979SOL    HW3 7683   1.863   4.284   2.256  1.0713  0.0143  1.2749
 1979SOL    MW4 7684   1.866   4.367   2.231 -0.3557 -0.2734 -0.0604
 1980SOL     OW 7685   1.931   1.570   2.005  0.1289 -0.0810  0.3866
 1980SOL    HW2 7686   1.850   1.608   1.973 -0.2247  1.3856  2.7969
 1980SOL    HW3 7687   1.986   1.645   2.028  1.3506 -1.0431  0.7365
 1980SOL    MW4 7688   1.928   1.585   2.004  0.2434 -0.0144  0.7508
 1981SOL     OW 7689   3.945   5.400   2.760 -0.2059  0.7517  0.2051
 1981SOL    HW2 7690   3.905   5.487   2.753 -1.2517  0.1928 -1.5104
 1981SOL    HW3 7691   3.937   5.363   2.672  0.5668 -0.9446  0.7984
 1981SOL    MW4 7692   3.939   5.407   2.747 -0.2419  0.4542  0.0571
 1982SOL     OW 7693   4.310   3.388   1.128  0.0831 -0.1793  0.1418
 1982SOL    HW2 7694   4.334   3.463   1.074  0.6122 -0.6223 -0.2486
 1982SOL    HW3 7695   4.216   3.399   1.144 -0.5436 -1.0518 -2.4980
 1982SOL    MW4 7696   4.301   3.400   1.123  0.0702 -0.3528 -0.2580
 1983SOL     OW 7697   2.971   4.930   3.045 -0.5311  0.0895 -0.2824
 1983SOL    HW2 7698   3.021   5.011   3.049  2.4455 -1.6166 -0.2288
 1983SOL    HW3 7699   2.949   4.911   3.136  0.4521 -0.1185 -0.0806
 1983SOL    MW4 7700   2.975   4.938   3.057 -0.0087 -0.1630 -0.2487
 1984SOL     OW 7701   2.014   3.202   1.772 -0.1755 -0.0821  0.2405
 1984SOL    HW2 7702   2.060   3.168   1.849 -1.9472 -1.4341  0.7479
 1984SOL    HW3 7703   1.957   3.131   1.744 -1.4891  1.3090 -0.7728
 1984SOL    MW4 7704   2.013   3.189   1.778 -0.5826 -0.0769  0.1737
 1985SOL     OW 7705   2.311   3.863   4.475  0.2719  0.5835  0.3175
 1985SOL    HW2 7706   2.226   3.872   4.433  1.2596  1.5453 -1.5813
 1985SOL    HW3 7707   2.352   3.788   4.432  1.0326  1.1653 -0.0039
 1985SOL    MW4 7708   2.305   3.855   4.464  0.5026  0.7872  0.0246
 1986SOL     OW 7709   1.068   6.201   0.827 -0.0521 -0.2856  0.1046
 1986SOL    HW2 7710   1.027   6.233   0.907 -0.3719  0.3409 -0.3009
 1986SOL    HW3 7711   1.075   6.106   0.840  1.1352 -0.0595  1.4235
 1986SOL    MW4 7712   1.064   6.192   0.839  0.0624 -0.1731  0.2251
 1987SOL     OW 7713   3.155   5.347   1.274  0.4947 -0.8365  0.4916
 1987SOL    HW2 7714   3.135   5.440   1.290 -2.2920 -1.0857 -0.9539
 1987SOL    HW3 7715   3.159   5.309   1.362 -0.1039  0.3427  1.0633
 1987SOL    MW4 7716   3.153   5.354   1.288  0.0480 -0.7138  0.3763
 1988SOL     OW 7717   0.050   3.341   4.209 -0.1358 -0.4041 -0.2465
 1988SOL    HW2 7718  -0.002   3.412   4.172 -1.2475 -0.9901  0.1679
 1988SOL    HW3 7719  -0.009   3.266   4.211  0.7203 -1.0850  0.2406
 1988SOL    MW4 7720   0.036   3.341   4.204 -0.1695 -0.5713 -0.1275
 1989SOL     OW 7721   4.348   0.950   5.317 -0.1248  0.3102  0.6878
 1989SOL    HW2 7722   4.423   0.891   5.324 -0.8267 -0.5568  1.1198
 1989SOL    HW3 7723   4.360   1.012   5.389  0.6149  0.7077  0.2388
 1989SOL    MW4 7724   4.360   0.950   5.328 -0.1198  0.2483  0.6856
 1990SOL     OW 7725   4.453   1.065   2.432 -0.0328 -0.4743  0.2705
 1990SOL    HW2 7726   4.497   1.139   2.391 -0.9856  0.1345  0.3212
 1990SOL    HW3 7727   4.461   1.081   2.526  0.1275 -0.6535  0.2871
 1990SOL    MW4 7728   4.460   1.077   2.439 -0.1374 -0.4176  0.2794
 1991SOL     OW 7729   5.635   2.685   5.803  0.1809 -0.3561  0.1553
 1991SOL    HW2 7730   5.620   2.779   5.809 -0.1544 -0.4306  0.6110
 1991SOL    HW3 7731   5.602   2.660   5.717  1.3029  0.1180 -0.4303
 1991SOL    MW4 7732   5.628   2.694   5.793  0.2847 -0.3034  0.1381
 1992SOL     OW 7733   1.244   0.986   2.572 -0.2137  0.0274  0.7054
 1992SOL    HW2 7734   1.338   0.975   2.582  0.2138  1.7192 -0.8725
 1992SOL    HW3 7735   1.227   1.077   2.596 -1.2124  0.1491 -0.3557
 1992SOL    MW4 7736   1.254   0.997   2.577 -0.2891  0.2667  0.3572
 1993SOL     OW 7737   2.189   4.279   3.709  0.5303 -0.6619  0.1343
 1993SOL    HW2 7738   2.138   4.346   3.755  0.9176 -0.2722 -0.0006
 1993SOL    HW3 7739   2.137   4.199   3.718 -1.0867  0.1241 -1.6532
 1993SOL    MW4 7740   2.175   4.277   3.716  0.3681 -0.5068 -0.1194
 1994SOL     OW 7741   5.979   3.282   2.055  0.5616  0.2629 -0.1963
 1994SOL    HW2 7742   5.941   3.222   2.120  0.5830 -1.8119 -1.9537
 1994SOL    HW3 7743   5.970   3.369   2.093 -0.5606 -0.7473  2.0048
 1994SOL    MW4 7744   5.973   3.285   2.068  0.4163 -0.1442 -0.1378
 1995SOL     OW 7745   5.730   4.539   3.997  0.1045  0.1896  0.0869
 1995SOL    HW2 7746   5.747   4.621   4.043  1.0169 -0.6146  1.2388
 1995SOL    HW3 7747   5.652   4.504   4.039  0.9232 -0.5332  1.0348
 1995SOL    MW4 7748   5.722   4.546   4.008  0.3329 -0.0119  0.3639
 1996SOL     OW 7749   0.478   3.156   4.952 -0.1294 -0.1633 -0.0600
 1996SOL    HW2 7750   0.565   3.117   4.937 -1.0571 -2.9018  1.0360
 1996SOL    HW3 7751   0.420   3.107   4.894 -1.2874 -0.0009  0.9261
 1996SOL    MW4 7752   0.482   3.144   4.943 -0.4046 -0.5032  0.2147
 1997SOL     OW 7753   0.565   6.420   0.399  0.3908  0.4318  0.2788
 1997SOL    HW2 7754   0.558   6.429   0.494 -0.3441 -2.1870  0.5488
 1997SOL    HW3 7755   0.644   6.367   0.385 -0.8760 -1.4055 -0.3281
 1997SOL    MW4 7756   0.575   6.414   0.410  0.1267 -0.1561  0.2344
 1998SOL     OW 7757   3.326   3.325   2.225  0.2718  0.0203 -0.3127
 1998SOL    HW2 7758   3.302   3.239   2.259  0.4411  0.2055  0.2903
 1998SOL    HW3 7759   3.280   3.332   2.142  0.9954 -1.0305 -0.8137
 1998SOL    MW4 7760   3.316   3.315   2.219  0.3896 -0.0939 -0.2993
 1999SOL     OW 7761   4.654   4.340   1.421  0.4702  0.0705 -0.2235
 1999SOL    HW2 7762   4.614   4.282   1.485  1.3382  0.7799  1.0277
 1999SOL    HW3 7763   4.739   4.301   1.403  0.4111  0.1139 -0.6002
 1999SOL    MW4 7764   4.660   4.328   1.427  0.5769  0.1698 -0.1081
 2000SOL     OW 7765   2.214   4.750   2.321  0.1100  0.1000 -0.1929
 2000SOL    HW2 7766   2.170   4.665   2.315 -1.6206  1.0177 -0.9562
 2000SOL    HW3 7767   2.148   4.810   2.354  0.9280  1.4346 -0.8732
 2000SOL    MW4 7768   2.200   4.746   2.324 -0.0104  0.3972 -0.3834
 2001SOL     OW 7769   4.769   0.117   4.367  0.2000  0.4553 -0.5069
 2001SOL    HW2 7770   4.723   0.174   4.428  1.0679  0.5988  0.0165
 2001SOL    HW3 7771   4.783   0.171   4.289 -1.8273 -0.0337 -1.2898
 2001SOL    MW4 7772   4.765   0.132   4.364  0.0470  0.4097 -0.5411
 2002SOL     OW 7773   6.443   5.055   0.298  0.0352  0.2018  0.3640
 2002SOL    HW2 7774   6.425   5.004   0.220 -2.7283  0.1731  0.9133
 2002SOL    HW3 7775   6.362   5.049   0.350  0.4078  3.2362  1.5021
 2002SOL    MW4 7776   6.430   5.048   0.295 -0.2802  0.5983  0.5867
 2003SOL     OW 7777   2.841   4.779   0.966 -0.5146 -0.4894 -0.1547
 2003SOL    HW2 7778   2.915   4.742   0.917 -0.3200 -1.6806  0.9782
 2003SOL    HW3 7779   2.817   4.710   1.028 -1.9821  0.2479  0.1227
 2003SOL    MW4 7780   2.848   4.765   0.968 -0.6825 -0.5493  0.0313
 2004SOL     OW 7781   2.502   0.875   5.538  0.2622 -0.4308 -0.6252
 2004SOL    HW2 7782   2.500   0.931   5.461 -0.4806 -1.3218 -1.2861
 2004SOL    HW3 7783   2.450   0.921   5.603 -0.9143 -0.6383 -1.3879
 2004SOL    MW4 7784   2.495   0.888   5.536  0.0090 -0.5757 -0.8131
 2005SOL     OW 7785   3.501   2.808   2.212 -0.1122 -0.1415 -0.2052
 2005SOL    HW2 7786   3.493   2.772   2.124 -0.3778  0.4317 -0.4138
 2005SOL    HW3 7787   3.584   2.772   2.245 -0.3834 -0.9759 -0.3925
 2005SOL    MW4 7788   3.511   2.798   2.205 -0.1830 -0.1760 -0.2574
 2006SOL     OW 7789   5.613   4.893   3.471  0.0097 -0.0974 -0.0502
 2006SOL    HW2 7790   5.700   4.857   3.486 -0.4194 -1.6088 -0.9220
 2006SOL    HW3 7791   5.628   4.974   3.422  0.9803  0.6288  1.3865
 2006SOL    MW4 7792   5.626   4.899   3.466  0.0811 -0.2010  0.0243
 2007SOL     OW 7793   5.218   4.974   0.742  0.2160 -0.4048  0.0128
 2007SOL    HW2 7794   5.271   4.973   0.822  0.1578  0.4378  0.0699
 2007SOL    HW3 7795   5.128   4.982   0.774  0.2322  0.4916 -0.1413
 2007SOL    MW4 7796   5.214   4.975   0.757  0.2104 -0.1754  0.0000
 2008SOL     OW 7797   6.020   2.454   1.979  0.4698 -0.3376  0.1583
 2008SOL    HW2 7798   5.998   2.519   1.912 -0.2831  1.0267  1.6707
 2008SOL    HW3 7799   5.936   2.414   2.001  0.7076 -0.7377  0.3482
 2008SOL    MW4 7800   6.006   2.457   1.973  0.4019 -0.2104  0.3829
 2009SOL     OW 7801   2.096   4.501   2.310 -0.5915  0.2136  0.3539
 2009SOL    HW2 7802   2.012   4.476   2.272 -0.8050  2.5918 -0.9422
 2009SOL    HW3 7803   2.161   4.477   2.244 -0.4938  0.4063  0.3791
 2009SOL    MW4 7804   2.093   4.494   2.297 -0.6067  0.5528  0.1862
 2010SOL     OW 7805   0.241   4.244   0.980 -0.2230  0.5571  0.0494
 2010SOL    HW2 7806   0.231   4.289   1.063  1.0472 -0.6748  0.9067
 2010SOL    HW3 7807   0.185   4.167   0.987  1.5327 -0.7222  0.6834
 2010SOL    MW4 7808   0.232   4.240   0.992  0.1762  0.2258  0.2462
 2011SOL     OW 7809   6.256   3.051   2.450  0.2107  0.4170 -0.3784
 2011SOL    HW2 7810   6.195   3.124   2.465  1.1353  0.7414  2.3956
 2011SOL    HW3 7811   6.210   2.994   2.389 -1.4387  2.2644 -0.9872
 2011SOL    MW4 7812   6.242   3.053   2.444  0.1151  0.7035 -0.0927
 2012SOL     OW 7813   0.227   2.725   6.044  0.5932 -0.4935  0.2519
 2012SOL    HW2 7814   0.260   2.638   6.024 -0.7390 -1.6411  2.6250
 2012SOL    HW3 7815   0.166   2.745   5.973  0.3175 -1.8365  0.0869
 2012SOL    MW4 7816   0.223   2.716   6.032  0.3811 -0.8221  0.5433
 2013SOL     OW 7817   5.526   4.413   5.052  0.3929 -0.0691 -0.2221
 2013SOL    HW2 7818   5.583   4.363   4.993  1.1713  2.3263 -1.6849
 2013SOL    HW3 7819   5.573   4.413   5.136 -0.2374 -2.6982  0.2110
 2013SOL    MW4 7820   5.540   4.406   5.055  0.4124 -0.0999 -0.3579
 2014SOL     OW 7821   4.194   4.477   5.579  0.0337  0.2538 -0.1652
 2014SOL    HW2 7822   4.160   4.388   5.590 -0.3932  0.4371 -0.0052
 2014SOL    HW3 7823   4.254   4.488   5.653  0.0748  0.1082 -0.1746
 2014SOL    MW4 7824   4.198   4.466   5.590 -0.0172  0.2588 -0.1453
 2015SOL     OW 7825   5.334   1.559   3.857  0.1050  0.1846  0.0416
 2015SOL    HW2 7826   5.298   1.482   3.902 -0.2537  0.0161 -0.5292
 2015SOL    HW3 7827   5.332   1.628   3.924 -1.3224  0.1935  0.0261
 2015SOL    MW4 7828   5.329   1.558   3.872 -0.1306  0.1636 -0.0358
 2016SOL     OW 7829   2.410   3.141   4.128 -0.0698  0.1624  0.0904
 2016SOL    HW2 7830   2.458   3.180   4.054 -1.3654 -0.7129 -1.2659
 2016SOL    HW3 7831   2.478   3.103   4.183  0.8287 -1.8566 -2.2579
 2016SOL    MW4 7832   2.425   3.141   4.125 -0.1222 -0.2194 -0.3984
 2017SOL     OW 7833   0.117   3.325   0.826  0.2132  0.5078 -0.0029
 2017SOL    HW2 7834   0.156   3.344   0.741 -1.2576  0.3161 -0.7500
 2017SOL    HW3 7835   0.042   3.269   0.807 -0.9025  1.4855  1.2848
 2017SOL    MW4 7836   0.112   3.320   0.812 -0.1281  0.6115  0.0684
 2018SOL     OW 7837   4.871   3.019   5.069 -0.6171  0.0265 -0.2831
 2018SOL    HW2 7838   4.965   3.033   5.084 -0.6913 -0.3431  0.6251
 2018SOL    HW3 7839   4.840   2.980   5.151 -1.2930 -1.1929 -1.1025
 2018SOL    MW4 7840   4.879   3.016   5.082 -0.7161 -0.1832 -0.2714
 2019SOL     OW 7841   6.147   2.592   2.186  0.3202  0.5262  0.6268
 2019SOL    HW2 7842   6.090   2.558   2.118 -1.2281  0.4235  1.9155
 2019SOL    HW3 7843   6.199   2.660   2.143  0.9355 -1.0010 -1.1375
 2019SOL    MW4 7844   6.146   2.597   2.171  0.1971  0.3112  0.5640
 2020SOL     OW 7845   1.635   5.101   4.408  0.4249  0.2195  0.5555
 2020SOL    HW2 7846   1.625   5.121   4.501  1.5597  1.7543  0.3943
 2020SOL    HW3 7847   1.592   5.175   4.363 -0.0363 -0.4578 -0.1476
 2020SOL    MW4 7848   1.628   5.114   4.414  0.5138  0.3327  0.4415
 2021SOL     OW 7849   0.342   1.877   0.641  0.0713  0.0152 -0.4290
 2021SOL    HW2 7850   0.297   1.947   0.593 -0.1920 -1.2334 -2.1460
 2021SOL    HW3 7851   0.363   1.914   0.726 -0.1852  2.1133 -1.2304
 2021SOL    MW4 7852   0.339   1.891   0.646  0.0027  0.1272 -0.7613
 2022SOL     OW 7853   0.926   0.091   3.759 -0.4048  0.0085 -0.4206
 2022SOL    HW2 7854   0.834   0.084   3.735 -0.0219 -0.8490 -1.7012
 2022SOL    HW3 7855   0.941   0.185   3.767 -1.0663  0.2293 -1.5170
 2022SOL    MW4 7856   0.916   0.103   3.757 -0.4416 -0.0755 -0.7342
 2023SOL     OW 7857   0.771   2.969   3.332 -0.2271 -0.6574 -0.2932
 2023SOL    HW2 7858   0.699   2.930   3.380 -0.2606 -0.6811 -0.3627
 2023SOL    HW3 7859   0.730   3.010   3.256 -0.4758  1.3124  0.8252
 2023SOL    MW4 7860   0.756   2.970   3.328 -0.2643 -0.4006 -0.1548
 2024SOL     OW 7861   5.532   2.528   1.068 -0.0801  0.4685  0.2323
 2024SOL    HW2 7862   5.506   2.566   0.985  2.3433 -0.1000 -0.8720
 2024SOL    HW3 7863   5.596   2.589   1.104  0.0933 -0.0777  0.8880
 2024SOL    MW4 7864   5.537   2.541   1.062  0.2625  0.3214  0.1731
 2025SOL     OW 7865   1.478   5.789   4.095 -0.0391 -0.1624 -0.1240
 2025SOL    HW2 7866   1.552   5.728   4.099  1.2777  1.2557 -1.4837
 2025SOL    HW3 7867   1.401   5.735   4.111  1.2041 -1.8797  0.2905
 2025SOL    MW4 7868   1.477   5.774   4.098  0.2987 -0.2019 -0.2487
 2026SOL     OW 7869   5.751   2.188   3.578  0.0019  0.6343  0.0605
 2026SOL    HW2 7870   5.719   2.175   3.489 -2.9809  1.0936  0.9555
 2026SOL    HW3 7871   5.791   2.104   3.602  0.8148  0.5003 -1.6526
 2026SOL    MW4 7872   5.752   2.176   3.570 -0.2844  0.6772 -0.0474
 2027SOL     OW 7873   4.683   1.441   3.808 -0.0789  0.0443  0.0188
 2027SOL    HW2 7874   4.648   1.354   3.788  0.7032  0.0687 -1.6983
 2027SOL    HW3 7875   4.747   1.426   3.878 -0.3014 -0.6940  0.0684
 2027SOL    MW4 7876   4.687   1.428   3.815 -0.0051 -0.0499 -0.2012
 2028SOL     OW 7877   4.078   0.635   4.711 -0.2558 -0.2956  0.2124
 2028SOL    HW2 7878   4.105   0.573   4.643  1.2090 -1.0936  1.4656
 2028SOL    HW3 7879   4.159   0.671   4.745 -1.0717  2.8969 -0.8829
 2028SOL    MW4 7880   4.092   0.631   4.706 -0.1702  0.0203  0.2332
 2029SOL     OW 7881   4.592   2.115   2.902  0.0401  0.4553  0.6390
 2029SOL    HW2 7882   4.567   2.142   2.814 -0.2204 -0.8740  0.2887
 2029SOL    HW3 7883   4.602   2.197   2.950 -0.8143  1.1633 -0.3526
 2029SOL    MW4 7884   4.590   2.129   2.897 -0.1070  0.3733  0.4619
 2030SOL     OW 7885   0.944   6.168   4.273 -0.1698 -0.1860  0.3130
 2030SOL    HW2 7886   0.926   6.157   4.180 -0.0713 -2.3341  0.4921
 2030SOL    HW3 7887   1.023   6.222   4.277 -0.0360 -0.2874 -0.8412
 2030SOL    MW4 7888   0.952   6.174   4.262 -0.1391 -0.4828  0.1844
 2031SOL     OW 7889   0.765   5.483   3.040 -0.3214  0.1419  0.6559
 2031SOL    HW2 7890   0.678   5.444   3.052 -0.3497 -0.0951 -0.2256
 2031SOL    HW3 7891   0.825   5.411   3.059 -0.3360  0.1039  0.5587
 2031SOL    MW4 7892   0.761   5.468   3.044 -0.3271  0.1056  0.5267
 2032SOL     OW 7893   1.826   4.998   2.162 -0.0030 -0.0710 -0.2753
 2032SOL    HW2 7894   1.740   4.964   2.138 -0.7904  0.7174  1.3005
 2032SOL    HW3 7895   1.861   4.934   2.224  0.3570 -0.1493 -0.5529
 2032SOL    MW4 7896   1.819   4.985   2.167 -0.0594  0.0227 -0.1040
 2033SOL     OW 7897   4.507   3.656   2.186 -0.7705  0.6732  0.0615
 2033SOL    HW2 7898   4.455   3.648   2.106  0.9866 -0.3660 -1.0452
 2033SOL    HW3 7899   4.577   3.591   2.176 -0.3481  0.6959  2.3387
 2033SOL    MW4 7900   4.509   3.647   2.174 -0.4829  0.5391  0.2159
 2034SOL     OW 7901   5.168   6.176   6.359  0.4566  1.1204 -0.3290
 2034SOL    HW2 7902   5.186   6.175   6.265  0.8772 -1.3965 -0.3006
 2034SOL    HW3 7903   5.106   6.104   6.372  1.3083  0.6559  1.4471
 2034SOL    MW4 7904   5.162   6.166   6.348  0.6244  0.7270 -0.0909
 2035SOL     OW 7905   5.912   4.226   1.140 -0.2680 -0.0090 -0.3995
 2035SOL    HW2 7906   5.975   4.221   1.067 -1.5210  0.1329 -1.5310
 2035SOL    HW3 7907   5.828   4.203   1.100 -1.4855  2.6979  0.3423
 2035SOL    MW4 7908   5.909   4.223   1.125 -0.5940  0.3669 -0.4509
 2036SOL     OW 7909   2.051   0.508   2.838 -0.0843  0.5664  0.2505
 2036SOL    HW2 7910   2.078   0.590   2.880  1.3248  0.7090 -0.8300
 2036SOL    HW3 7911   2.126   0.450   2.847 -0.3555  0.0472 -0.6228
 2036SOL    MW4 7912   2.064   0.511   2.844  0.0659  0.5167 -0.0073
 2037SOL     OW 7913   4.878   2.024   2.943 -0.4439 -0.2544  0.6377
 2037SOL    HW2 7914   4.865   2.015   3.038  0.6179  1.2731  0.9766
 2037SOL    HW3 7915   4.790   2.039   2.908 -0.6970  0.7408  1.6127
 2037SOL    MW4 7916   4.865   2.025   2.951 -0.3372  0.0785  0.8111
 2038SOL     OW 7917   3.994   0.545   4.228  0.4557  0.5971 -0.0225
 2038SOL    HW2 7918   3.965   0.459   4.200  1.3770  1.4280 -4.1109
 2038SOL    HW3 7919   3.917   0.601   4.218  0.2894  0.5862  1.0694
 2038SOL    MW4 7920   3.980   0.541   4.223  0.5553  0.7053 -0.4178
 2039SOL     OW 7921   2.670   5.636   3.374 -0.0402 -0.1735  0.2312
 2039SOL    HW2 7922   2.626   5.560   3.336 -0.3799  0.7418 -1.2423
 2039SOL    HW3 7923   2.735   5.662   3.309 -1.4614  2.1802 -0.3377
 2039SOL    MW4 7924   2.673   5.629   3.361 -0.2725  0.2578 -0.0383
 2040SOL     OW 7925   0.291   0.737   4.288 -0.1818 -0.4197  0.0411
 2040SOL    HW2 7926   0.300   0.693   4.373 -2.3786 -1.0338  0.0079
 2040SOL    HW3 7927   0.266   0.827   4.311  0.2564 -0.3006  0.0548
 2040SOL    MW4 7928   0.289   0.743   4.302 -0.4139 -0.4850  0.0385
 2041SOL     OW 7929   2.973   4.759   4.211 -0.2430 -0.1832 -0.1265
 2041SOL    HW2 7930   2.999   4.754   4.303  1.8793 -1.4428 -0.7303
 2041SOL    HW3 7931   2.963   4.853   4.194  0.6628  0.1518  1.0507
 2041SOL    MW4 7932   2.975   4.771   4.221  0.1565 -0.3052 -0.0508
 2042SOL     OW 7933   1.436   1.712   3.610 -0.0852 -0.0011  0.0591
 2042SOL    HW2 7934   1.369   1.739   3.673 -0.2365 -0.0133 -0.0969
 2042SOL    HW3 7935   1.485   1.644   3.655 -1.0584 -0.9820 -0.3375
 2042SOL    MW4 7936   1.434   1.707   3.624 -0.2336 -0.1321 -0.0138
 2043SOL     OW 7937   1.065   4.250   2.896  0.2707 -0.4165 -0.4320
 2043SOL    HW2 7938   0.993   4.188   2.891  0.1618 -0.4704  1.2977
 2043SOL    HW3 7939   1.023   4.335   2.913  0.5955 -0.4848  0.8109
 2043SOL    MW4 7940   1.050   4.253   2.898  0.2992 -0.4326 -0.0398
 2044SOL     OW 7941   2.103   3.989   2.398 -0.2084 -0.6674  0.6465
 2044SOL    HW2 7942   2.168   4.032   2.454 -0.4862 -0.9850  1.2246
 2044SOL    HW3 7943   2.124   4.019   2.310 -0.9269  1.4000  1.1053
 2044SOL    MW4 7944   2.114   3.999   2.394 -0.3399 -0.4365  0.7833
 2045SOL     OW 7945   1.736   1.855   5.960 -0.2712  0.1118 -0.1066
 2045SOL    HW2 7946   1.650   1.898   5.958  0.3658  1.4151 -0.6717
 2045SOL    HW3 7947   1.777   1.887   6.040  0.4454  1.0806 -0.8387
 2045SOL    MW4 7948   1.730   1.865   5.970 -0.0926  0.4116 -0.2777
 2046SOL     OW 7949   5.862   0.947   4.649 -0.3586  0.0842  0.0653
 2046SOL    HW2 7950   5.830   1.029   4.612  0.9302  0.5702 -0.0329
 2046SOL    HW3 7951   5.955   0.963   4.664  0.2049 -1.7655 -1.1268
 2046SOL    MW4 7952   5.870   0.960   4.646 -0.1142 -0.0957 -0.1050
 2047SOL     OW 7953   0.382   5.011   1.831 -0.1442  0.2445 -0.1930
 2047SOL    HW2 7954   0.387   4.952   1.906  1.3758  0.9225  0.2901
 2047SOL    HW3 7955   0.413   4.958   1.757 -1.2935 -0.3169 -0.2806
 2047SOL    MW4 7956   0.387   4.996   1.831 -0.0953  0.2599 -0.1408
 2048SOL     OW 7957   6.006   0.090   4.542 -0.3466 -0.0626  0.3960
 2048SOL    HW2 7958   5.958   0.166   4.511 -1.5275 -1.3243 -0.9973
 2048SOL    HW3 7959   5.939   0.033   4.581  0.4367 -0.6135  0.9841
 2048SOL    MW4 7960   5.991   0.092   4.543 -0.3991 -0.3017  0.2898
 2049SOL     OW 7961   5.271   1.297   4.601  0.1226  0.0571 -0.5814
 2049SOL    HW2 7962   5.241   1.250   4.523  1.0712 -1.7694  0.1128
 2049SOL    HW3 7963   5.229   1.253   4.674 -1.5157  2.3502 -0.0306
 2049SOL    MW4 7964   5.261   1.285   4.600  0.0316  0.1187 -0.4172
 2050SOL     OW 7965   0.815   2.027   3.472 -0.8797 -0.2029 -0.1571
 2050SOL    HW2 7966   0.828   1.938   3.441  1.2598  0.2897 -0.8321
 2050SOL    HW3 7967   0.860   2.082   3.408  0.0917  1.1621  1.5943
 2050SOL    MW4 7968   0.822   2.023   3.460 -0.4693  0.0422 -0.0151
 2051SOL     OW 7969   5.736   5.139   4.722 -0.0516  0.3753 -0.2953
 2051SOL    HW2 7970   5.692   5.126   4.638  0.2520 -1.2739 -0.2305
 2051SOL    HW3 7971   5.673   5.189   4.774 -1.3720 -0.8848 -0.6205
 2051SOL    MW4 7972   5.722   5.144   4.718 -0.1857 -0.0085 -0.3296
 2052SOL     OW 7973   4.593   6.255   1.818  0.1490 -0.2186  0.0221
 2052SOL    HW2 7974   4.497   6.259   1.821  0.2104  1.5050  1.5212
 2052SOL    HW3 7975   4.614   6.255   1.725 -1.3156 -1.7210 -0.3525
 2052SOL    MW4 7976   4.583   6.256   1.806 -0.0361 -0.1894  0.1705
 2053SOL     OW 7977   4.860   4.713   4.061  0.1278 -0.4583  0.0930
 2053SOL    HW2 7978   4.853   4.800   4.021 -0.4439 -0.3944  0.3221
 2053SOL    HW3 7979   4.913   4.663   4.000 -2.2378 -0.9200 -1.7305
 2053SOL    MW4 7980   4.866   4.718   4.048 -0.2598 -0.5108 -0.1174
 2054SOL     OW 7981   4.746   4.057   5.699  0.4482 -0.2159  0.3305
 2054SOL    HW2 7982   4.683   4.085   5.766  1.6505  1.6173  0.7719
 2054SOL    HW3 7983   4.832   4.076   5.737  1.1741  0.5072 -1.5424
 2054SOL    MW4 7984   4.749   4.064   5.713  0.7026  0.1214  0.1416
 2055SOL     OW 7985   2.052   5.615   2.883  0.0616  0.4767  0.4201
 2055SOL    HW2 7986   2.002   5.564   2.819 -0.3560  0.1303  1.0104
 2055SOL    HW3 7987   2.126   5.650   2.834 -1.4781  2.1516 -0.8343
 2055SOL    MW4 7988   2.055   5.613   2.868 -0.1966  0.6519  0.3325
 2056SOL     OW 7989   5.009   4.700   5.286  0.0946 -0.0749 -0.4166
 2056SOL    HW2 7990   4.926   4.748   5.284  0.2656  0.2981  0.7526
 2056SOL    HW3 7991   5.042   4.713   5.375  2.1165  0.9608 -1.2603
 2056SOL    MW4 7992   5.002   4.708   5.298  0.3839  0.1109 -0.3737
 2057SOL     OW 7993   4.973   4.207   4.125  0.1313 -0.0439  0.0272
 2057SOL    HW2 7994   4.916   4.210   4.048 -1.7164  0.6978  1.3480
 2057SOL    HW3 7995   5.030   4.283   4.114 -1.7231  1.5052  0.4781
 2057SOL    MW4 7996   4.973   4.218   4.113 -0.3571  0.2583  0.2609
 2058SOL     OW 7997   4.486   4.523   3.423 -0.2349  0.1451 -0.1950
 2058SOL    HW2 7998   4.504   4.615   3.441 -2.2808  0.9387 -1.7379
 2058SOL    HW3 7999   4.460   4.486   3.507 -1.3360  1.5329  0.1219
 2058SOL    MW4 8000   4.485   4.530   3.436 -0.6501  0.4329 -0.3568
 2059SOL     OW 8001   5.047   1.649   4.095 -0.0411  0.1715  0.0418
 2059SOL    HW2 8002   5.140   1.652   4.071 -0.0740 -2.1812 -0.6679
 2059SOL    HW3 8003   5.043   1.692   4.180  1.7577  0.0414  0.2404
 2059SOL    MW4 8004   5.059   1.655   4.103  0.1918 -0.1561 -0.0256
 2060SOL     OW 8005   1.034   1.572   2.131 -0.0248 -0.4221  0.0706
 2060SOL    HW2 8006   1.124   1.586   2.102 -0.4494  0.9474 -0.6678
 2060SOL    HW3 8007   1.030   1.615   2.217  0.1453 -0.8921  0.3157
 2060SOL    MW4 8008   1.045   1.580   2.139 -0.0584 -0.3034  0.0055
 2061SOL     OW 8009   2.372   5.323   3.021  0.8398  0.4760 -0.3205
 2061SOL    HW2 8010   2.393   5.347   2.931  1.4373 -0.5559 -0.4786
 2061SOL    HW3 8011   2.438   5.367   3.074  0.7615  0.7255 -0.4325
 2061SOL    MW4 8012   2.384   5.332   3.016  0.9083  0.3728 -0.3562
 2062SOL     OW 8013   1.657   4.826   5.149  0.0032 -0.0540  0.6011
 2062SOL    HW2 8014   1.662   4.917   5.119  0.1986 -0.3212 -0.2023
 2062SOL    HW3 8015   1.565   4.804   5.143  0.1116 -0.2801 -0.3591
 2062SOL    MW4 8016   1.646   4.835   5.145  0.0433 -0.1191  0.3684
 2063SOL     OW 8017   0.601   5.858   1.391 -0.2323  0.4839 -0.5192
 2063SOL    HW2 8018   0.536   5.924   1.368 -1.5860 -0.6942 -0.2026
 2063SOL    HW3 8019   0.566   5.815   1.469  0.7399 -0.4355 -0.5619
 2063SOL    MW4 8020   0.588   5.861   1.398 -0.2826  0.2071 -0.4831
 2064SOL     OW 8021   4.651   3.625   4.983  0.5683 -0.0441  0.1271
 2064SOL    HW2 8022   4.653   3.535   4.950  0.8269  0.0170 -0.0296
 2064SOL    HW3 8023   4.707   3.673   4.923 -3.6169  1.3699 -3.1808
 2064SOL    MW4 8024   4.658   3.619   4.971  0.0503  0.1505 -0.3300
 2065SOL     OW 8025   5.320   2.550   1.749  0.3582  0.7749 -0.4910
 2065SOL    HW2 8026   5.228   2.547   1.721  0.4442 -1.7888 -0.7054
 2065SOL    HW3 8027   5.317   2.533   1.843  0.6037  0.8789 -0.4642
 2065SOL    MW4 8028   5.307   2.548   1.758  0.4020  0.4504 -0.5158
 2066SOL     OW 8029   5.311   3.176   1.876  0.4434 -0.4411 -0.0280
 2066SOL    HW2 8030   5.267   3.132   1.949  2.5881 -3.2246 -0.2470
 2066SOL    HW3 8031   5.286   3.125   1.799  1.8520 -0.4189 -0.5227
 2066SOL    MW4 8032   5.301   3.163   1.875  0.9122 -0.8054 -0.1222
 2067SOL     OW 8033   3.766   4.465   0.777  0.0802  0.4147  0.2006
 2067SOL    HW2 8034   3.804   4.415   0.704 -1.2754 -0.1788 -0.1511
 2067SOL    HW3 8035   3.800   4.422   0.856  0.4737  0.1719 -0.0980
 2067SOL    MW4 8036   3.775   4.453   0.778 -0.0467  0.3044  0.1148
 2068SOL     OW 8037   1.668   3.026   5.381 -0.1668  0.4645  0.1651
 2068SOL    HW2 8038   1.750   3.068   5.356  0.1030  0.1944  0.5788
 2068SOL    HW3 8039   1.695   2.946   5.426 -0.6349  0.9624  1.3642
 2068SOL    MW4 8040   1.682   3.021   5.384 -0.1929  0.4946  0.3779
 2069SOL     OW 8041   5.362   6.207   3.787 -0.0561 -0.3042  0.2022
 2069SOL    HW2 8042   5.444   6.190   3.832  0.0816 -2.1858 -0.6546
 2069SOL    HW3 8043   5.380   6.190   3.695 -1.4959 -1.2728  0.0522
 2069SOL    MW4 8044   5.375   6.202   3.781 -0.2279 -0.6803  0.0693
 2070SOL     OW 8045   2.855   4.435   0.299  0.8134  0.5156  0.3098
 2070SOL    HW2 8046   2.880   4.391   0.218 -3.7571 -0.5024 -0.8383
 2070SOL    HW3 8047   2.852   4.366   0.365  2.3434  0.9342  0.8644
 2070SOL    MW4 8048   2.858   4.420   0.297  0.4122  0.4365  0.2315
 2071SOL     OW 8049   0.273   5.333   2.157  0.2271 -0.3712  0.1076
 2071SOL    HW2 8050   0.326   5.386   2.097  2.1361 -2.2267  0.0410
 2071SOL    HW3 8051   0.308   5.245   2.148  1.3575 -0.6135  4.6841
 2071SOL    MW4 8052   0.284   5.328   2.148  0.6281 -0.6479  0.7026
 2072SOL     OW 8053   0.517   2.293   5.387 -0.2766  0.6022  0.0946
 2072SOL    HW2 8054   0.511   2.332   5.300 -1.7727 -0.1426 -0.1549
 2072SOL    HW3 8055   0.609   2.267   5.395  0.2069  1.9536 -0.6752
 2072SOL    MW4 8056   0.529   2.295   5.376 -0.4102  0.6823 -0.0399
 2073SOL     OW 8057   0.473   4.409   3.108 -0.5111 -0.1172  0.1262
 2073SOL    HW2 8058   0.471   4.488   3.054  0.1056 -0.4965 -0.4663
 2073SOL    HW3 8059   0.562   4.375   3.098 -0.8133 -0.9730  0.2495
 2073SOL    MW4 8060   0.485   4.415   3.100 -0.4696 -0.2802  0.0643
 2074SOL     OW 8061   2.796   0.975   1.671  0.2310  0.2610  0.2638
 2074SOL    HW2 8062   2.889   0.982   1.692  0.8450 -0.7393 -1.8104
 2074SOL    HW3 8063   2.786   0.886   1.638 -1.7006  0.0201  1.3608
 2074SOL    MW4 8064   2.807   0.964   1.669  0.0572  0.0972  0.1349
 2075SOL     OW 8065   3.820   3.966   1.388 -0.2277  0.0676 -0.2569
 2075SOL    HW2 8066   3.746   3.945   1.331 -1.0947  0.8737  0.5247
 2075SOL    HW3 8067   3.783   3.965   1.477  0.5166  1.1787  0.0929
 2075SOL    MW4 8068   3.806   3.963   1.392 -0.2439  0.3205 -0.1077
 2076SOL     OW 8069   1.222   6.294   0.544  0.2757  0.2990 -0.0642
 2076SOL    HW2 8070   1.258   6.380   0.522  0.0793  0.2602 -0.5663
 2076SOL    HW3 8071   1.273   6.265   0.620  0.0321  1.0576  0.4014
 2076SOL    MW4 8072   1.233   6.302   0.551  0.2176  0.3940 -0.0690
 2077SOL     OW 8073   3.670   0.279   1.037 -0.0322  0.3369 -0.5425
 2077SOL    HW2 8074   3.580   0.312   1.033 -0.2982  0.2213  2.4176
 2077SOL    HW3 8075   3.724   0.357   1.029 -0.4135  0.5259 -1.3499
 2077SOL    MW4 8076   3.665   0.294   1.035 -0.1176  0.3466 -0.2585
 2078SOL     OW 8077   3.225   5.915   3.592 -0.3635  0.3392  0.1930
 2078SOL    HW2 8078   3.212   6.010   3.594 -3.3512  0.0753 -1.2233
 2078SOL    HW3 8079   3.223   5.892   3.499 -0.0994 -1.1488  0.5287
 2078SOL    MW4 8080   3.223   5.924   3.580 -0.7228  0.1081  0.0504
 2079SOL     OW 8081   0.079   1.365   4.368 -0.0681 -0.6629 -0.4906
 2079SOL    HW2 8082   0.174   1.360   4.381 -0.3781 -1.0911  2.1059
 2079SOL    HW3 8083   0.057   1.456   4.386 -0.3956 -1.0636  1.3053
 2079SOL    MW4 8084   0.089   1.376   4.372 -0.1522 -0.7722  0.0889
 2080SOL     OW 8085   2.941   2.518   1.818 -0.6536  0.0864  0.4407
 2080SOL    HW2 8086   2.877   2.455   1.852 -1.0912  0.9631  1.2528
 2080SOL    HW3 8087   2.965   2.572   1.893  0.1692  0.5176 -0.1166
 2080SOL    MW4 8088   2.935   2.516   1.832 -0.6028  0.2590  0.4743
 2081SOL     OW 8089   4.010   2.694   0.154 -0.5717  0.4374 -0.3801
 2081SOL    HW2 8090   4.103   2.684   0.172 -0.3642  1.1117 -1.0464
 2081SOL    HW3 8091   4.001   2.783   0.119 -1.3229  0.0417 -1.2295
 2081SOL    MW4 8092   4.021   2.705   0.152 -0.6435  0.4742 -0.5801
 2082SOL     OW 8093   0.511   1.413   4.096 -0.4683  0.0448 -0.0331
 2082SOL    HW2 8094   0.523   1.433   4.189  0.4477  3.9801 -0.8110
 2082SOL    HW3 8095   0.577   1.346   4.077  0.8663  0.7754  1.7291
 2082SOL    MW4 8096   0.522   1.407   4.106 -0.1713  0.6604  0.0968
 2083SOL     OW 8097   5.652   4.889   0.333  0.2283 -0.3886  0.0107
 2083SOL    HW2 8098   5.641   4.984   0.331  0.1135 -0.3427  1.6388
 2083SOL    HW3 8099   5.725   4.872   0.273  0.2058  0.7025 -0.3607
 2083SOL    MW4 8100   5.660   4.899   0.325  0.2102 -0.2386  0.1765
 2084SOL     OW 8101   4.982   4.654   4.591  0.1588 -0.0481  0.4623
 2084SOL    HW2 8102   4.945   4.680   4.507 -0.2923  2.4007  1.3182
 2084SOL    HW3 8103   5.077   4.666   4.580  0.1808 -0.5302  0.0823
 2084SOL    MW4 8104   4.990   4.659   4.579  0.1022  0.2114  0.5250
 2085SOL     OW 8105   0.895   2.374   4.156  0.0390 -0.7095  0.1951
 2085SOL    HW2 8106   0.815   2.360   4.104 -0.5308 -0.3441  0.9585
 2085SOL    HW3 8107   0.965   2.343   4.099 -0.5051  0.2055 -1.0232
 2085SOL    MW4 8108   0.893   2.368   4.142 -0.1080 -0.5406  0.1351
 2086SOL     OW 8109   3.485   1.632   1.063  0.3359 -0.1612  0.6224
 2086SOL    HW2 8110   3.451   1.717   1.091  0.7163  0.2565 -0.1435
 2086SOL    HW3 8111   3.427   1.568   1.105  1.1910  0.3876  2.7641
 2086SOL    MW4 8112   3.473   1.635   1.072  0.4989 -0.0337  0.8039
 2087SOL     OW 8113   0.466   0.278   1.639  0.0427 -0.1561 -0.7034
 2087SOL    HW2 8114   0.408   0.239   1.572 -0.4103  0.2748 -0.5682
 2087SOL    HW3 8115   0.454   0.372   1.628  1.1476 -0.0453 -1.0357
 2087SOL    MW4 8116   0.457   0.285   1.629  0.1287 -0.0846 -0.7294
 2088SOL     OW 8117   3.869   4.099   3.525 -0.6708  0.6925  0.0236
 2088SOL    HW2 8118   3.873   4.080   3.619 -1.3120 -1.9069 -0.4115
 2088SOL    HW3 8119   3.940   4.162   3.510  2.0852 -1.8193  1.6310
 2088SOL    MW4 8120   3.879   4.105   3.535 -0.3918  0.0182  0.1782
 2089SOL     OW 8121   2.769   3.051   2.272 -0.9495 -0.0064  0.2297
 2089SOL    HW2 8122   2.769   2.986   2.343 -1.3158 -0.2145  0.0365
 2089SOL    HW3 8123   2.768   3.000   2.192  3.1403  0.0694 -0.0790
 2089SOL    MW4 8124   2.769   3.036   2.271 -0.4582 -0.0238  0.1635
 2090SOL     OW 8125   0.803   2.646   2.133  0.0174 -0.2582  0.4302
 2090SOL    HW2 8126   0.883   2.674   2.089 -0.1828 -1.7255 -0.9763
 2090SOL    HW3 8127   0.740   2.632   2.062 -0.4327 -2.3738  1.1510
 2090SOL    MW4 8128   0.805   2.647   2.118 -0.0684 -0.7309  0.3397
 2091SOL     OW 8129   0.256   2.110   6.396 -0.1850 -0.2800 -0.7768
 2091SOL    HW2 8130   0.330   2.170   6.387  0.2907 -0.9737 -1.5585
 2091SOL    HW3 8131   0.215   2.136   6.479  0.8921  0.1482 -0.3630
 2091SOL    MW4 8132   0.260   2.122   6.406  0.0199 -0.3151 -0.8253
 2092SOL     OW 8133   6.280   3.430   2.610  0.5545  0.3667  0.6646
 2092SOL    HW2 8134   6.364   3.460   2.645  0.1238 -0.1625  2.2486
 2092SOL    HW3 8135   6.260   3.352   2.661 -0.1639 -0.4253 -0.7732
 2092SOL    MW4 8136   6.289   3.424   2.621  0.4029  0.1923  0.6839
 2093SOL     OW 8137   3.107   6.333   0.819  0.0913  0.2846 -0.1074
 2093SOL    HW2 8138   3.102   6.366   0.729 -1.2824 -0.0495 -0.1749
 2093SOL    HW3 8139   3.131   6.241   0.809  0.7767  0.4485 -0.0705
 2093SOL    MW4 8140   3.110   6.325   0.806  0.0005  0.2621 -0.1114
 2094SOL     OW 8141   3.124   6.093   3.363 -0.0375  0.5065 -0.3359
 2094SOL    HW2 8142   3.072   6.166   3.329  0.2415  1.1300  0.5320
 2094SOL    HW3 8143   3.080   6.014   3.330  0.9678  1.0360 -3.2427
 2094SOL    MW4 8144   3.112   6.092   3.354  0.1319  0.6586 -0.6049
 2095SOL     OW 8145   0.064   1.856   3.130  0.0156  0.0988 -0.3401
 2095SOL    HW2 8146  -0.003   1.792   3.107  0.9366 -1.8485  2.0312
 2095SOL    HW3 8147   0.147   1.815   3.105  0.5380  1.1032 -0.3298
 2095SOL    MW4 8148   0.066   1.842   3.123  0.2060 -0.0256 -0.0259
 2096SOL     OW 8149   6.452   3.542   2.197  0.3621 -1.2106  0.3737
 2096SOL    HW2 8150   6.427   3.601   2.125  1.6741 -1.5151 -0.3592
 2096SOL    HW3 8151   6.369   3.515   2.236 -0.5656 -2.7744 -2.4123
 2096SOL    MW4 8152   6.438   3.547   2.193  0.4128 -1.4571 -0.0906
 2097SOL     OW 8153   0.719   3.790   5.482  0.0911 -0.2361  0.5504
 2097SOL    HW2 8154   0.795   3.825   5.530 -0.7968  2.1465  0.3444
 2097SOL    HW3 8155   0.644   3.807   5.540 -0.5446 -0.7295 -0.1090
 2097SOL    MW4 8156   0.719   3.797   5.496 -0.1099  0.0131  0.4362
 2098SOL     OW 8157   0.780   0.755   5.137 -0.5851 -0.0026 -0.1933
 2098SOL    HW2 8158   0.772   0.850   5.124 -1.4952 -0.2456 -1.5696
 2098SOL    HW3 8159   0.698   0.731   5.180 -1.0059 -0.3804 -1.1967
 2098SOL    MW4 8160   0.768   0.764   5.141 -0.7607 -0.0845 -0.5073
 2099SOL     OW 8161   1.678   3.943   2.979 -1.2171 -0.2069 -0.3410
 2099SOL    HW2 8162   1.584   3.930   2.982 -1.3811  0.0305 -2.6500
 2099SOL    HW3 8163   1.692   4.029   3.019 -2.1942  0.4973 -1.4494
 2099SOL    MW4 8164   1.668   3.953   2.985 -1.3677 -0.0826 -0.7919
 2100SOL     OW 8165   1.415   1.659   6.006  0.0408 -0.2109 -0.1175
 2100SOL    HW2 8166   1.383   1.741   5.968  1.8242  0.6518  0.1107
 2100SOL    HW3 8167   1.449   1.609   5.932  1.6801  0.6004  0.0330
 2100SOL    MW4 8168   1.415   1.663   5.991  0.4924  0.0099 -0.0675
 2101SOL     OW 8169   1.483   5.451   6.176 -0.3134  0.3525 -0.5635
 2101SOL    HW2 8170   1.447   5.470   6.263  0.6018 -1.6714  0.3235
 2101SOL    HW3 8171   1.571   5.490   6.178  0.0382 -0.4396 -0.2368
 2101SOL    MW4 8172   1.490   5.459   6.188 -0.1463 -0.0190 -0.4034
 2102SOL     OW 8173   5.607   6.171   2.918 -0.2880  0.0025 -0.0313
 2102SOL    HW2 8174   5.519   6.143   2.893  0.1549 -0.1049 -1.6162
 2102SOL    HW3 8175   5.614   6.260   2.885  0.2232 -0.0226  0.0017
 2102SOL    MW4 8176   5.597   6.179   2.910 -0.1621 -0.0150 -0.2361
 2103SOL     OW 8177   2.009   4.790   5.932 -0.2817  0.2278  0.3115
 2103SOL    HW2 8178   2.062   4.867   5.910 -1.3638  0.2552 -2.6069
 2103SOL    HW3 8179   1.976   4.809   6.020  0.5116  2.5064  0.2031
 2103SOL    MW4 8180   2.012   4.803   5.940 -0.3198  0.5321 -0.0879
 2104SOL     OW 8181   5.392   4.483   2.559  0.1472 -0.1411  0.3488
 2104SOL    HW2 8182   5.343   4.562   2.583 -1.4554 -0.5803 -1.2039
 2104SOL    HW3 8183   5.344   4.412   2.601  1.3653 -0.3626  1.4308
 2104SOL    MW4 8184   5.379   4.484   2.568  0.0964 -0.2283  0.2867
 2105SOL     OW 8185   1.024   1.337   4.138 -0.6266 -0.2050 -0.3352
 2105SOL    HW2 8186   1.024   1.430   4.161  0.5959  0.0868 -1.3630
 2105SOL    HW3 8187   1.104   1.303   4.178  0.5044 -0.1087 -2.3672
 2105SOL    MW4 8188   1.035   1.345   4.146 -0.3161 -0.1538 -0.7389
 2106SOL     OW 8189   3.674   2.501   2.298  0.8079  0.2869 -0.1534
 2106SOL    HW2 8190   3.662   2.448   2.377  1.1003 -0.9502 -0.9021
 2106SOL    HW3 8191   3.590   2.496   2.252  1.2443 -0.7051 -0.8905
 2106SOL    MW4 8192   3.662   2.493   2.302  0.9040 -0.0072 -0.3495
 2107SOL     OW 8193   5.316   2.091   2.135  0.4935 -0.0572 -0.3373
 2107SOL    HW2 8194   5.286   2.002   2.155  1.4470 -0.3512 -0.1575
 2107SOL    HW3 8195   5.272   2.146   2.200  0.4613 -0.4919  0.0164
 2107SOL    MW4 8196   5.306   2.086   2.146  0.6150 -0.1533 -0.2669
 2108SOL     OW 8197   5.672   1.517   3.225  0.8695  0.0504  0.1380
 2108SOL    HW2 8198   5.632   1.586   3.278  0.2517  1.3113 -1.8548
 2108SOL    HW3 8199   5.717   1.461   3.288 -1.5835  0.2269  2.2218
 2108SOL    MW4 8200   5.673   1.518   3.240  0.4644  0.2401  0.1500
 2109SOL     OW 8201   4.941   3.995   3.596 -0.0827  0.0142 -0.1240
 2109SOL    HW2 8202   4.906   3.992   3.686 -1.8896 -0.9191 -0.7957
 2109SOL    HW3 8203   4.880   4.051   3.549  1.9696  2.1621 -0.3993
 2109SOL    MW4 8204   4.928   4.002   3.602 -0.0503  0.1745 -0.2489
 2110SOL     OW 8205   0.714   4.533   4.183 -0.6373  0.0022  0.1074
 2110SOL    HW2 8206   0.708   4.483   4.265  1.0977  0.1185  0.3567
 2110SOL    HW3 8207   0.721   4.466   4.115 -0.9713 -0.0959  0.1671
 2110SOL    MW4 8208   0.714   4.517   4.185 -0.4525  0.0046  0.1482
 2111SOL     OW 8209   3.529   4.772   3.086  0.1627 -0.0096  0.1951
 2111SOL    HW2 8210   3.590   4.733   3.024 -0.3973  1.6360 -1.5025
 2111SOL    HW3 8211   3.498   4.699   3.139  1.5625 -1.2956 -0.6739
 2111SOL    MW4 8212   3.533   4.757   3.085  0.2735  0.0378 -0.1435
 2112SOL     OW 8213   6.142   0.213   6.318 -0.4367 -0.0262 -0.0204
 2112SOL    HW2 8214   6.134   0.156   6.241 -1.7736 -1.0286  0.8180
 2112SOL    HW3 8215   6.093   0.292   6.294  0.8959  0.5517 -0.9532
 2112SOL    MW4 8216   6.134   0.216   6.305 -0.4373 -0.0822 -0.0328
 2113SOL     OW 8217   1.553   4.449   3.872 -0.0241  0.3726 -0.2782
 2113SOL    HW2 8218   1.567   4.368   3.823 -0.6435  0.5359 -0.7285
 2113SOL    HW3 8219   1.639   4.491   3.872  0.0662  0.2023 -0.9145
 2113SOL    MW4 8220   1.566   4.444   3.866 -0.0939  0.3717 -0.4216
 2114SOL     OW 8221   4.541   2.709   0.962  0.1399  0.2274  0.2424
 2114SOL    HW2 8222   4.450   2.724   0.937  0.1977 -1.6000 -1.3689
 2114SOL    HW3 8223   4.536   2.641   1.030  0.2846 -0.4039 -0.3571
 2114SOL    MW4 8224   4.529   2.702   0.968  0.1667 -0.0970 -0.0493
 2115SOL     OW 8225   0.885   0.185   3.443  0.4099  0.6124 -0.4874
 2115SOL    HW2 8226   0.837   0.166   3.363 -1.0351  0.8600  0.2894
 2115SOL    HW3 8227   0.929   0.103   3.466  1.1256  0.6392 -1.7050
 2115SOL    MW4 8228   0.884   0.172   3.436  0.3137  0.6486 -0.5456
 2116SOL     OW 8229   0.412   0.361   0.286  0.2024  0.1210  0.2056
 2116SOL    HW2 8230   0.441   0.319   0.205  0.3116  1.1485 -0.3087
 2116SOL    HW3 8231   0.351   0.429   0.257  1.0480  1.2032  0.8742
 2116SOL    MW4 8232   0.408   0.365   0.272  0.3284  0.3993  0.2259
 2117SOL     OW 8233   3.870   3.695   0.743  0.0587 -0.5471  0.6291
 2117SOL    HW2 8234   3.892   3.625   0.804  1.4462 -0.4335  0.2934
 2117SOL    HW3 8235   3.931   3.684   0.670  1.7079  2.1027  1.4326
 2117SOL    MW4 8236   3.881   3.685   0.742  0.4594 -0.1825  0.6908
 2118SOL     OW 8237   0.982   4.884   4.089 -0.3273 -0.0334  0.9527
 2118SOL    HW2 8238   1.011   4.902   4.178  1.8991 -1.9871  0.7483
 2118SOL    HW3 8239   1.054   4.915   4.034 -0.0824 -1.9445  0.1262
 2118SOL    MW4 8240   0.995   4.890   4.093 -0.0012 -0.5433  0.8167
 2119SOL     OW 8241   6.204   5.674   3.972 -0.3452  0.0608 -0.3490
 2119SOL    HW2 8242   6.149   5.638   3.902 -0.0446  1.9350 -1.6005
 2119SOL    HW3 8243   6.142   5.694   4.042 -0.9630  0.2025 -0.9277
 2119SOL    MW4 8244   6.188   5.672   3.972 -0.3871  0.3268 -0.5905
 2120SOL     OW 8245   1.144   1.001   0.893 -0.1647  0.5581  0.1192
 2120SOL    HW2 8246   1.056   1.006   0.856  0.1474  1.3988 -0.5484
 2120SOL    HW3 8247   1.174   1.092   0.896  0.9258  0.2311 -0.2576
 2120SOL    MW4 8248   1.136   1.014   0.889  0.0204  0.6258 -0.0186
 2121SOL     OW 8249   1.536   3.065   3.885  0.0929  0.1511  0.6802
 2121SOL    HW2 8250   1.583   3.136   3.928  0.0261  1.8877 -1.9215
 2121SOL    HW3 8251   1.604   3.011   3.845  0.0729  1.5846 -1.4535
 2121SOL    MW4 8252   1.551   3.067   3.885  0.0815  0.5693  0.0554
 2122SOL     OW 8253   6.028   4.664   4.062  0.0732  0.7293 -0.5629
 2122SOL    HW2 8254   6.114   4.623   4.053 -0.4328 -0.4287 -0.3369
 2122SOL    HW3 8255   6.047   4.755   4.085  1.2626 -0.0449  1.9380
 2122SOL    MW4 8256   6.042   4.671   4.064  0.1634  0.4744 -0.2031
 2123SOL     OW 8257   3.199   0.747   1.697 -0.1098  0.5728 -0.3446
 2123SOL    HW2 8258   3.146   0.825   1.711  1.4385  1.8308 -1.1998
 2123SOL    HW3 8259   3.281   0.780   1.658  0.3066 -1.5361 -1.3906
 2123SOL    MW4 8260   3.203   0.762   1.694  0.1495  0.4605 -0.5954
 2124SOL     OW 8261   6.208   4.975   1.877  0.9590  0.9366 -0.7472
 2124SOL    HW2 8262   6.139   5.041   1.889  0.8025  0.5538  0.6625
 2124SOL    HW3 8263   6.262   4.983   1.956  0.7600 -0.8027 -0.3982
 2124SOL    MW4 8264   6.206   4.985   1.889  0.9121  0.6566 -0.5151
 2125SOL     OW 8265   2.191   5.472   0.632  0.0092 -0.0868 -0.4057
 2125SOL    HW2 8266   2.117   5.412   0.640  1.3603 -1.6416  1.3976
 2125SOL    HW3 8267   2.268   5.415   0.637  1.3621  1.7602  1.2371
 2125SOL    MW4 8268   2.192   5.456   0.634  0.3660 -0.0483  0.0489
 2126SOL     OW 8269   1.373   2.212   3.441  0.1765 -0.1125  0.6151
 2126SOL    HW2 8270   1.455   2.229   3.395 -0.2995 -0.6266 -0.4436
 2126SOL    HW3 8271   1.353   2.121   3.422 -0.4170 -0.1212  1.2390
 2126SOL    MW4 8272   1.381   2.203   3.433  0.0354 -0.1815  0.5578
 2127SOL     OW 8273   1.667   6.005   1.928 -0.0277 -0.0710  0.3097
 2127SOL    HW2 8274   1.621   6.087   1.942  0.0729  0.3743 -1.6962
 2127SOL    HW3 8275   1.759   6.027   1.940  0.0150  0.1588 -0.4390
 2127SOL    MW4 8276   1.673   6.018   1.932 -0.0088  0.0181 -0.0537
 2128SOL     OW 8277   2.964   5.855   3.697 -0.0677  0.3372  0.0185
 2128SOL    HW2 8278   2.921   5.938   3.717  0.2636  0.3688  0.6225
 2128SOL    HW3 8279   3.057   5.877   3.689  0.0295  0.0176  0.2306
 2128SOL    MW4 8280   2.971   5.869   3.699 -0.0112  0.2992  0.1261
 2129SOL     OW 8281   2.648   6.199   3.490  0.0707  0.5869  0.0679
 2129SOL    HW2 8282   2.679   6.268   3.432 -1.2384  1.5417  0.4492
 2129SOL    HW3 8283   2.634   6.123   3.432 -0.7817  1.3856 -0.8171
 2129SOL    MW4 8284   2.650   6.198   3.474 -0.2145  0.8182  0.0015
 2130SOL     OW 8285   1.463   4.013   1.193  0.1330  0.5434 -0.1679
 2130SOL    HW2 8286   1.437   4.052   1.276  0.4004 -0.1873  0.2733
 2130SOL    HW3 8287   1.557   4.027   1.188 -0.1444  2.3312 -1.3066
 2130SOL    MW4 8288   1.472   4.020   1.203  0.1317  0.6829 -0.2599
 2131SOL     OW 8289   6.042   3.995   5.417  0.1868  0.0155 -0.3958
 2131SOL    HW2 8290   6.113   3.976   5.356  0.3353  0.7064 -0.4414
 2131SOL    HW3 8291   6.032   4.090   5.414 -2.6480 -0.2173 -2.5598
 2131SOL    MW4 8292   6.050   4.005   5.409 -0.1676  0.0759 -0.6874
 2132SOL     OW 8293   6.231   4.245   4.649 -0.3510 -0.1643  0.1537
 2132SOL    HW2 8294   6.176   4.315   4.612 -2.3493 -1.8217 -0.1776
 2132SOL    HW3 8295   6.280   4.211   4.574 -0.5532 -0.1682  0.0244
 2132SOL    MW4 8296   6.230   4.250   4.634 -0.6414 -0.3835  0.0929
 2133SOL     OW 8297   2.437   0.963   5.023  0.3670  0.3769  0.0431
 2133SOL    HW2 8298   2.368   0.906   5.058  1.5470 -1.7908 -1.0091
 2133SOL    HW3 8299   2.396   1.050   5.020 -2.3893 -0.8339 -0.7085
 2133SOL    MW4 8300   2.422   0.967   5.027  0.1590 -0.0689 -0.1949
 2134SOL     OW 8301   1.149   3.924   5.956  0.0502  0.0027 -0.2312
 2134SOL    HW2 8302   1.128   4.003   5.908 -0.0927 -0.9832 -1.8590
 2134SOL    HW3 8303   1.239   3.936   5.984 -0.5471  1.5362  1.2770
 2134SOL    MW4 8304   1.158   3.936   5.953 -0.0474  0.0749 -0.2470
 2135SOL     OW 8305   1.957   5.478   4.891  0.0671 -0.5691  0.0812
 2135SOL    HW2 8306   2.000   5.469   4.976  1.5992 -0.3033 -0.6177
 2135SOL    HW3 8307   1.941   5.572   4.882 -2.5745 -0.8269  1.1719
 2135SOL    MW4 8308   1.961   5.489   4.901 -0.0793 -0.5680  0.1329
 2136SOL     OW 8309   5.820   0.306   4.820 -0.2023  0.1487 -0.2903
 2136SOL    HW2 8310   5.897   0.360   4.802 -1.3150  1.6343 -0.8080
 2136SOL    HW3 8311   5.855   0.225   4.857  1.4889  1.6541  1.6138
 2136SOL    MW4 8312   5.835   0.303   4.822 -0.1260  0.5434 -0.1074
 2137SOL     OW 8313   0.097   3.056   2.001  0.2440 -1.1193  0.3455
 2137SOL    HW2 8314   0.166   3.078   1.938 -0.2380  0.9375  0.4512
 2137SOL    HW3 8315   0.016   3.078   1.955 -0.0853  3.2649  2.4580
 2137SOL    MW4 8316   0.095   3.062   1.986  0.1370 -0.2695  0.6381
 2138SOL     OW 8317   0.862   4.238   0.080  0.1943  0.2735  0.2676
 2138SOL    HW2 8318   0.943   4.279   0.112 -0.1360  1.2949 -0.1556
 2138SOL    HW3 8319   0.797   4.308   0.083 -0.2459 -0.0414 -1.0743
 2138SOL    MW4 8320   0.864   4.253   0.084  0.0927  0.3667  0.0347
 2139SOL     OW 8321   5.836   3.088   0.176  0.9950  0.1583 -0.1520
 2139SOL    HW2 8322   5.881   3.015   0.218 -1.2097 -1.6198 -0.6865
 2139SOL    HW3 8323   5.852   3.075   0.082  2.9507  2.0832 -0.1638
 2139SOL    MW4 8324   5.844   3.076   0.169  0.9621  0.1777 -0.2241
 2140SOL     OW 8325   5.088   2.040   3.957 -0.3889 -0.2490  0.0187
 2140SOL    HW2 8326   5.009   2.005   3.998  1.2196  0.5312  4.3087
 2140SOL    HW3 8327   5.073   2.134   3.952 -0.4645 -0.3077 -1.1112
 2140SOL    MW4 8328   5.076   2.048   3.962 -0.1866 -0.1538  0.4356
 2141SOL     OW 8329   6.366   0.307   4.096 -0.6248  0.5224 -0.2592
 2141SOL    HW2 8330   6.334   0.374   4.157 -0.4622  0.9477 -0.6360
 2141SOL    HW3 8331   6.331   0.225   4.131 -0.5015  0.7529  0.4301
 2141SOL    MW4 8332   6.357   0.305   4.109 -0.5871  0.6089 -0.2180
 2142SOL     OW 8333   1.085   1.062   5.856  0.1725  0.1809 -0.2797
 2142SOL    HW2 8334   1.154   1.116   5.818 -0.6985  2.8989  1.6460
 2142SOL    HW3 8335   1.023   1.049   5.785  2.0961 -1.4675 -1.7598
 2142SOL    MW4 8336   1.086   1.068   5.842  0.3114  0.3220 -0.2209
 2143SOL     OW 8337   0.663   0.715   1.486  0.1657  0.0793  0.1807
 2143SOL    HW2 8338   0.653   0.796   1.436  0.1604 -0.1168 -0.1416
 2143SOL    HW3 8339   0.709   0.656   1.426 -0.5133 -0.4116  0.1336
 2143SOL    MW4 8340   0.668   0.718   1.472  0.0754 -0.0113  0.1320
 2144SOL     OW 8341   0.114   5.528   4.864  0.4842  0.0912 -0.1725
 2144SOL    HW2 8342   0.062   5.451   4.843  3.6308 -2.0239 -0.8405
 2144SOL    HW3 8343   0.107   5.584   4.787 -1.7612  0.5517  0.2884
 2144SOL    MW4 8344   0.106   5.525   4.851  0.6031 -0.1271 -0.1998
 2145SOL     OW 8345   4.096   2.077   1.073 -0.0872  0.3138 -0.0867
 2145SOL    HW2 8346   4.140   2.118   0.999  1.1491 -0.8867 -0.0611
 2145SOL    HW3 8347   4.144   2.108   1.150  0.5339 -0.7159 -0.0333
 2145SOL    MW4 8348   4.108   2.086   1.073  0.1579  0.0196 -0.0763
 2146SOL     OW 8349   2.659   2.535   5.014  0.1981  0.4955  0.0624
 2146SOL    HW2 8350   2.659   2.467   5.082 -0.9989  0.3506 -0.0653
 2146SOL    HW3 8351   2.747   2.571   5.017  0.1811  0.4977  1.7145
 2146SOL    MW4 8352   2.671   2.530   5.024  0.0379  0.4767  0.2635
 2147SOL     OW 8353   4.989   3.228   0.282 -0.4622 -0.2337  0.8680
 2147SOL    HW2 8354   4.959   3.318   0.273 -1.3074 -0.2654  2.8610
 2147SOL    HW3 8355   5.076   3.235   0.323  0.7753 -0.2825 -1.5591
 2147SOL    MW4 8356   4.997   3.241   0.286 -0.4104 -0.2443  0.8107
 2148SOL     OW 8357   3.574   1.660   5.593 -0.1358  0.3742  0.2417
 2148SOL    HW2 8358   3.615   1.584   5.552  2.7683  0.7560  2.1460
 2148SOL    HW3 8359   3.498   1.625   5.640  0.0569 -1.0011 -0.4451
 2148SOL    MW4 8360   3.569   1.646   5.594  0.2728  0.2431  0.4024
 2149SOL     OW 8361   3.208   0.763   4.878  0.0948  0.0912  0.2385
 2149SOL    HW2 8362   3.282   0.703   4.880  1.2567  1.4116 -0.7655
 2149SOL    HW3 8363   3.162   0.743   4.796 -0.7386 -0.7739  0.8937
 2149SOL    MW4 8364   3.212   0.753   4.867  0.1381  0.1513  0.1925
 2150SOL     OW 8365   4.631   0.833   6.276 -0.1203 -0.1073  0.4788
 2150SOL    HW2 8366   4.670   0.902   6.222  0.4079 -0.9732 -0.2784
 2150SOL    HW3 8367   4.689   0.758   6.265 -0.6344 -0.6542  1.3580
 2150SOL    MW4 8368   4.644   0.832   6.267 -0.1184 -0.2937  0.4949
 2151SOL     OW 8369   6.129   5.307   5.479 -0.4619  0.1105 -0.0995
 2151SOL    HW2 8370   6.198   5.244   5.458 -1.1566 -0.2151 -1.5860
 2151SOL    HW3 8371   6.134   5.372   5.409 -4.2309 -2.1244 -2.8561
 2151SOL    MW4 8372   6.138   5.307   5.467 -1.0508 -0.2273 -0.6593
 2152SOL     OW 8373   2.688   3.847   0.558  0.0058  0.0832 -0.3965
 2152SOL    HW2 8374   2.656   3.757   0.547 -0.5296  0.4030 -1.6929
 2152SOL    HW3 8375   2.669   3.868   0.649 -0.7716 -0.7860 -0.3362
 2152SOL    MW4 8376   2.681   3.837   0.569 -0.1674  0.0107 -0.5596
 2153SOL     OW 8377   3.837   0.495   0.967  0.0763  0.1827 -0.4961
 2153SOL    HW2 8378   3.854   0.470   0.876 -0.8078 -0.8893 -0.3811
 2153SOL    HW3 8379   3.771   0.563   0.961 -0.7079 -0.5699 -0.6341
 2153SOL    MW4 8380   3.830   0.501   0.954 -0.1438 -0.0581 -0.4991
 2154SOL     OW 8381   3.901   3.087   0.983 -0.5071 -0.0448  0.2971
 2154SOL    HW2 8382   3.967   3.019   0.968 -0.6473 -0.1009 -0.0732
 2154SOL    HW3 8383   3.842   3.050   1.048  0.5151  0.4755  1.5713
 2154SOL    MW4 8384   3.902   3.073   0.989 -0.3907  0.0165  0.4164
 2155SOL     OW 8385   3.854   4.209   4.479 -1.0041 -0.1237 -0.1575
 2155SOL    HW2 8386   3.935   4.227   4.430 -0.1468 -1.1571  0.8342
 2155SOL    HW3 8387   3.879   4.216   4.571 -2.0594 -0.4196  0.1645
 2155SOL    MW4 8388   3.868   4.212   4.484 -1.0302 -0.2991  0.0158
 2156SOL     OW 8389   1.118   0.270   2.581 -0.4885 -0.2052 -0.0381
 2156SOL    HW2 8390   1.148   0.303   2.666 -0.3038 -1.0428  0.2277
 2156SOL    HW3 8391   1.023   0.258   2.592 -0.4572 -0.3600  0.0710
 2156SOL    MW4 8392   1.109   0.273   2.594 -0.4600 -0.3361  0.0114
 2157SOL     OW 8393   0.151   2.355   3.598 -0.1133 -0.5861  0.5300
 2157SOL    HW2 8394   0.246   2.345   3.603  0.0442 -0.1499 -0.9927
 2157SOL    HW3 8395   0.124   2.295   3.528 -0.4807  1.6180 -1.3557
 2157SOL    MW4 8396   0.160   2.346   3.589 -0.1410 -0.2377  0.0803
 2158SOL     OW 8397   4.387   4.827   3.749 -0.0417  0.1016  0.3389
 2158SOL    HW2 8398   4.428   4.793   3.669 -0.7783 -2.3475  0.9071
 2158SOL    HW3 8399   4.334   4.901   3.719  0.2638 -0.3024 -1.3296
 2158SOL    MW4 8400   4.385   4.832   3.735 -0.0986 -0.2748  0.1937
 2159SOL     OW 8401   2.257   4.225   1.708 -0.5599 -0.0140  0.2215
 2159SOL    HW2 8402   2.319   4.239   1.636 -0.3379  0.6655  0.5395
 2159SOL    HW3 8403   2.171   4.236   1.668 -0.4289  0.6719  0.1243
 2159SOL    MW4 8404   2.254   4.228   1.693 -0.5133  0.1661  0.2506
 2160SOL     OW 8405   4.138   1.560   3.358  0.0035 -0.2431 -0.3680
 2160SOL    HW2 8406   4.047   1.535   3.345  0.3065 -1.5654 -0.1077
 2160SOL    HW3 8407   4.140   1.596   3.447 -0.7046  2.1267 -1.2521
 2160SOL    MW4 8408   4.126   1.561   3.368 -0.0500 -0.1049 -0.4503
 2161SOL     OW 8409   3.935   0.972   2.521 -0.0157  0.0225 -0.0046
 2161SOL    HW2 8410   3.877   0.898   2.535 -1.8144  1.7883  2.5361
 2161SOL    HW3 8411   3.917   0.999   2.431 -2.1576 -0.3161  0.2682
 2161SOL    MW4 8412   3.925   0.966   2.511 -0.5356  0.2108  0.3666
 2162SOL     OW 8413   4.880   6.154   0.244 -0.1435  0.3180 -0.5591
 2162SOL    HW2 8414   4.895   6.248   0.232  0.2915  0.5063  1.1803
 2162SOL    HW3 8415   4.793   6.148   0.285 -0.1408 -0.0284 -0.5978
 2162SOL    MW4 8416   4.870   6.166   0.248 -0.0858  0.2971 -0.3347
 2163SOL     OW 8417   1.631   0.181   4.913  0.1771 -0.3148  0.7693
 2163SOL    HW2 8418   1.700   0.154   4.973  1.0053 -0.0966 -0.0595
 2163SOL    HW3 8419   1.551   0.181   4.966  1.0919  1.2227  2.2102
 2163SOL    MW4 8420   1.629   0.177   4.928  0.4070 -0.0832  0.8501
 2164SOL     OW 8421   2.651   0.501   0.639 -0.2796  0.3490 -0.4168
 2164SOL    HW2 8422   2.705   0.502   0.718 -1.0251  0.1040  0.1057
 2164SOL    HW3 8423   2.704   0.548   0.574  1.2235 -1.1668 -0.3668
 2164SOL    MW4 8424   2.665   0.507   0.641 -0.1796  0.1167 -0.3413
 2165SOL     OW 8425   1.924   6.108   5.726 -0.3042 -0.2817  0.4943
 2165SOL    HW2 8426   2.004   6.137   5.770 -0.6703 -0.7180  1.4689
 2165SOL    HW3 8427   1.935   6.013   5.717 -0.8566 -0.3899  0.9444
 2165SOL    MW4 8428   1.936   6.099   5.731 -0.4254 -0.3535  0.6823
 2166SOL     OW 8429   5.112   4.057   4.681 -0.7283  0.3341  0.5958
 2166SOL    HW2 8430   5.195   4.044   4.635 -0.1731  0.4442  1.5401
 2166SOL    HW3 8431   5.058   3.983   4.654  0.1233 -0.4277  0.9110
 2166SOL    MW4 8432   5.116   4.045   4.672 -0.5427  0.2481  0.7619
 2167SOL     OW 8433   5.269   3.416   1.450  0.0016 -0.0601 -0.2306
 2167SOL    HW2 8434   5.174   3.428   1.458  0.1134  2.6116 -1.6324
 2167SOL    HW3 8435   5.279   3.330   1.409 -1.7408 -0.8184  0.8553
 2167SOL    MW4 8436   5.258   3.406   1.446 -0.2136  0.1923 -0.2723
 2168SOL     OW 8437   4.436   2.606   4.328 -0.5205  0.1073 -0.3492
 2168SOL    HW2 8438   4.376   2.532   4.338 -0.4531  0.1521  0.4389
 2168SOL    HW3 8439   4.406   2.670   4.392  0.4019  0.1070  0.0955
 2168SOL    MW4 8440   4.424   2.605   4.338 -0.3899  0.1132 -0.1865
 2169SOL     OW 8441   4.227   1.780   1.471 -0.6047 -0.1133  0.7861
 2169SOL    HW2 8442   4.175   1.800   1.393 -2.0868 -2.6876  1.0082
 2169SOL    HW3 8443   4.273   1.700   1.450 -0.2043 -0.2826  2.1804
 2169SOL    MW4 8444   4.226   1.772   1.458 -0.7474 -0.4753  0.9994
 2170SOL     OW 8445   3.425   4.292   5.085  0.2037 -0.1024  0.0950
 2170SOL    HW2 8446   3.414   4.265   5.176  0.4862 -1.7946 -0.3366
 2170SOL    HW3 8447   3.423   4.388   5.088 -0.0016 -0.1268  1.8407
 2170SOL    MW4 8448   3.423   4.301   5.097  0.2139 -0.3289  0.2684
 2171SOL     OW 8449   4.752   3.654   4.545  0.7370 -0.3456  0.0786
 2171SOL    HW2 8450   4.762   3.675   4.637  0.6686  1.6377 -0.3387
 2171SOL    HW3 8451   4.691   3.580   4.544  0.1417  0.0943  1.5670
 2171SOL    MW4 8452   4.745   3.647   4.557  0.6495 -0.0259  0.2199
 2172SOL     OW 8453   3.775   2.819   1.650  0.1470 -0.3698 -0.1011
 2172SOL    HW2 8454   3.781   2.866   1.567 -0.2555 -1.5925 -0.8561
 2172SOL    HW3 8455   3.842   2.751   1.644  0.3361 -0.2702  0.7232
 2172SOL    MW4 8456   3.785   2.816   1.638  0.1188 -0.5180 -0.0920
 2173SOL     OW 8457   1.426   6.001   4.321 -0.1255 -0.6557 -0.5096
 2173SOL    HW2 8458   1.462   5.945   4.253  2.2759 -2.0311  1.7021
 2173SOL    HW3 8459   1.399   5.940   4.390 -0.2601  0.7627  0.7326
 2173SOL    MW4 8460   1.427   5.986   4.321  0.1736 -0.6500 -0.0539
 2174SOL     OW 8461   5.903   1.950   0.490  0.2933 -0.7024  0.0309
 2174SOL    HW2 8462   5.981   2.000   0.465  0.4430 -1.2536 -0.6358
 2174SOL    HW3 8463   5.858   1.933   0.408 -1.1049  0.5093  0.5205
 2174SOL    MW4 8464   5.908   1.954   0.476  0.1286 -0.6153  0.0075
 2175SOL     OW 8465   1.084   4.486   5.112 -0.0260  0.0731 -0.1145
 2175SOL    HW2 8466   1.038   4.570   5.110  0.7970  0.6168  1.5222
 2175SOL    HW3 8467   1.030   4.427   5.060 -0.8752  1.4944 -0.8914
 2175SOL    MW4 8468   1.071   4.489   5.105 -0.0295  0.3323 -0.0011
 2176SOL     OW 8469   3.739   0.593   2.911 -0.0333  0.1219 -0.4718
 2176SOL    HW2 8470   3.704   0.593   3.000  0.8610  2.1623 -0.0630
 2176SOL    HW3 8471   3.667   0.626   2.857 -0.5085 -0.9268 -0.5070
 2176SOL    MW4 8472   3.725   0.597   2.916  0.0220  0.2528 -0.4225
 2177SOL     OW 8473   6.153   1.476   4.409 -0.1181 -0.2728  0.1322
 2177SOL    HW2 8474   6.242   1.482   4.445 -0.3411  0.4519  0.5790
 2177SOL    HW3 8475   6.128   1.385   4.424  0.5909 -0.5076 -0.0903
 2177SOL    MW4 8476   6.161   1.465   4.416 -0.0540 -0.2081  0.1618
 2178SOL     OW 8477   6.178   1.813   2.832 -0.4712  0.3067 -0.3888
 2178SOL    HW2 8478   6.231   1.784   2.906 -0.2142 -0.9223 -1.0249
 2178SOL    HW3 8479   6.224   1.889   2.797 -0.6036  0.8990  0.7074
 2178SOL    MW4 8480   6.191   1.819   2.837 -0.4547  0.2227 -0.3281
 2179SOL     OW 8481   6.083   1.738   1.792 -0.0568 -0.0032 -0.1627
 2179SOL    HW2 8482   5.999   1.723   1.836 -0.2032 -0.1356 -0.4883
 2179SOL    HW3 8483   6.146   1.691   1.847 -0.7371 -3.8046 -2.2282
 2179SOL    MW4 8484   6.080   1.729   1.805 -0.1659 -0.5222 -0.4782
 2180SOL     OW 8485   3.166   2.176   4.972  0.3204 -0.5660  0.1426
 2180SOL    HW2 8486   3.164   2.169   5.067  1.4638  1.1173  0.3270
 2180SOL    HW3 8487   3.254   2.148   4.947  1.2785  2.3261 -0.0334
 2180SOL    MW4 8488   3.177   2.171   4.981  0.5977  0.0377  0.1437
 2181SOL     OW 8489   0.521   3.529   1.522 -0.3546 -0.3200  0.7534
 2181SOL    HW2 8490   0.569   3.609   1.542  1.5128 -1.1903  0.0559
 2181SOL    HW3 8491   0.502   3.490   1.607  1.4122 -0.5866  1.0816
 2181SOL    MW4 8492   0.525   3.534   1.536  0.1249 -0.4700  0.7047
 2182SOL     OW 8493   0.997   3.371   5.618  0.1508  0.2599 -0.1021
 2182SOL    HW2 8494   0.937   3.431   5.573 -1.2329 -0.7417  0.3397
 2182SOL    HW3 8495   0.958   3.285   5.607  1.8567 -0.5225 -0.3094
 2182SOL    MW4 8496   0.984   3.368   5.611  0.1933  0.0245 -0.0711
 2183SOL     OW 8497   3.464   5.402   5.451  0.5461  0.4702  0.4833
 2183SOL    HW2 8498   3.373   5.382   5.431  0.7132 -1.4943  1.4685
 2183SOL    HW3 8499   3.474   5.379   5.543  1.9438  1.0524  0.4996
 2183SOL    MW4 8500   3.453   5.396   5.461  0.7526  0.2878  0.6154
 2184SOL     OW 8501   1.682   1.087   1.388 -0.1406  0.0183  0.3848
 2184SOL    HW2 8502   1.700   1.180   1.403 -2.5001  0.6000 -0.0872
 2184SOL    HW3 8503   1.655   1.082   1.297  0.0854 -1.1800  0.3658
 2184SOL    MW4 8504   1.681   1.099   1.378 -0.4221 -0.0630  0.3200
 2185SOL     OW 8505   0.984   4.008   4.341 -0.0648  0.0549  0.3975
 2185SOL    HW2 8506   0.939   3.937   4.293  1.7538 -0.1576 -1.0907
 2185SOL    HW3 8507   0.981   3.980   4.433 -0.9586 -1.0533  0.0545
 2185SOL    MW4 8508   0.978   3.995   4.347  0.0572 -0.1194  0.1559
 2186SOL     OW 8509   5.827   2.132   5.590  0.0088 -0.0114 -0.0961
 2186SOL    HW2 8510   5.868   2.150   5.505 -1.6576  2.5668 -0.4757
 2186SOL    HW3 8511   5.742   2.094   5.568  0.3423 -1.1692  0.5280
 2186SOL    MW4 8512   5.821   2.129   5.576 -0.1671  0.1760 -0.0639
 2187SOL     OW 8513   5.354   4.981   3.762  0.1651  0.6937  0.3981
 2187SOL    HW2 8514   5.292   4.921   3.805  0.4894  0.2712  0.2844
 2187SOL    HW3 8515   5.440   4.949   3.788  0.3679  3.0755  3.0473
 2187SOL    MW4 8516   5.357   4.969   3.771  0.2347  0.9522  0.7327
 2188SOL     OW 8517   2.857   5.644   3.169  0.5170 -0.2795  0.3322
 2188SOL    HW2 8518   2.942   5.642   3.126  0.0655  0.2325 -0.5995
 2188SOL    HW3 8519   2.794   5.634   3.098 -0.2698  1.3699  0.7543
 2188SOL    MW4 8520   2.860   5.642   3.154  0.3537  0.0056  0.2650
 2189SOL     OW 8521   1.479   1.974   0.463 -0.1086 -0.8054 -0.2737
 2189SOL    HW2 8522   1.398   1.947   0.506  0.9857 -2.8696  0.6504
 2189SOL    HW3 8523   1.530   1.893   0.454  2.0831  0.4868 -0.2795
 2189SOL    MW4 8524   1.475   1.960   0.468  0.3249 -0.9072 -0.1525
 2190SOL     OW 8525   5.382   5.753   1.128  0.3072 -0.2806  0.1608
 2190SOL    HW2 8526   5.385   5.689   1.057 -0.8475 -2.2313  1.7688
 2190SOL    HW3 8527   5.453   5.727   1.187  0.8628  0.9442  0.0761
 2190SOL    MW4 8528   5.392   5.741   1.126  0.2282 -0.3763  0.3618
 2191SOL     OW 8529   3.276   5.766   5.740 -0.0763 -0.0343 -0.9127
 2191SOL    HW2 8530   3.326   5.709   5.799  0.1860  0.8820 -0.2238
 2191SOL    HW3 8531   3.185   5.736   5.749 -0.0029 -0.0753 -0.2137
 2191SOL    MW4 8532   3.270   5.755   5.749 -0.0320  0.0812 -0.7296
 2192SOL     OW 8533   5.843   3.621   3.765  0.0250  1.0908 -0.1021
 2192SOL    HW2 8534   5.884   3.596   3.682  0.2185 -1.2295  0.6109
 2192SOL    HW3 8535   5.861   3.715   3.773  1.0179  1.1371 -2.1051
 2192SOL    MW4 8536   5.851   3.630   3.755  0.1816  0.7908 -0.2723
 2193SOL     OW 8537   0.769   1.566   0.826  0.4667 -0.6054 -0.0182
 2193SOL    HW2 8538   0.746   1.612   0.906  1.2312 -1.0024  0.4481
 2193SOL    HW3 8539   0.714   1.605   0.758  1.3223  1.2406  0.2885
 2193SOL    MW4 8540   0.759   1.577   0.827  0.6805 -0.4142  0.0838
 2194SOL     OW 8541   4.931   0.476   0.022  0.0799 -0.0257 -0.2396
 2194SOL    HW2 8542   5.023   0.482  -0.002 -0.0705  2.6624 -0.5406
 2194SOL    HW3 8543   4.926   0.514   0.109 -0.7970  0.4542 -0.4794
 2194SOL    MW4 8544   4.942   0.482   0.030 -0.0557  0.3923 -0.3110
 2195SOL     OW 8545   0.687   2.293   0.561 -0.0940  0.3294  0.1264
 2195SOL    HW2 8546   0.752   2.341   0.613 -0.4013  2.5367 -1.4322
 2195SOL    HW3 8547   0.709   2.313   0.470 -0.5908 -2.1069 -0.6139
 2195SOL    MW4 8548   0.699   2.302   0.556 -0.2001  0.2992 -0.1769
 2196SOL     OW 8549   5.963   0.571   4.530 -0.1190 -0.2805 -0.4302
 2196SOL    HW2 8550   6.058   0.571   4.529 -0.0771 -0.4704  0.9836
 2196SOL    HW3 8551   5.938   0.616   4.450  1.2181  2.4772  0.5586
 2196SOL    MW4 8552   5.972   0.577   4.520  0.0630  0.0583 -0.1132
 2197SOL     OW 8553   3.098   1.136   2.224 -0.2601  0.0786 -0.3997
 2197SOL    HW2 8554   3.112   1.044   2.246  1.5208  0.1428 -1.1473
 2197SOL    HW3 8555   3.011   1.155   2.258 -0.8456 -1.9871 -0.5976
 2197SOL    MW4 8556   3.088   1.127   2.232 -0.1024 -0.1855 -0.5245
 2198SOL     OW 8557   1.779   0.458   2.867 -0.2884  0.2072 -0.4642
 2198SOL    HW2 8558   1.868   0.483   2.841 -0.6744  1.2651 -0.7956
 2198SOL    HW3 8559   1.760   0.381   2.813 -0.3423  1.2157 -1.9227
 2198SOL    MW4 8560   1.789   0.451   2.856 -0.3464  0.4798 -0.7003
 2199SOL     OW 8561   4.051   6.417   4.619  0.0635  0.6181 -0.2170
 2199SOL    HW2 8562   4.094   6.337   4.590  0.5976  0.4421  0.9934
 2199SOL    HW3 8563   4.064   6.418   4.714  1.1730  2.7520 -0.3150
 2199SOL    MW4 8564   4.059   6.406   4.628  0.2804  0.8764 -0.0702
 2200SOL     OW 8565   1.277   3.061   6.415 -0.0779 -0.2711  0.4466
 2200SOL    HW2 8566   1.194   3.032   6.378 -0.4559  1.7295 -0.4451
 2200SOL    HW3 8567   1.253   3.106   6.496  0.0463  0.6968 -0.0342
 2200SOL    MW4 8568   1.263   3.063   6.420 -0.1114  0.1206  0.2655
 2201SOL     OW 8569   1.054   1.816   0.064  0.0890 -0.6025  0.1023
 2201SOL    HW2 8570   1.025   1.750  -0.000 -1.7296  0.7912 -0.6136
 2201SOL    HW3 8571   1.109   1.876   0.014  0.9489 -1.0153  0.5298
 2201SOL    MW4 8572   1.057   1.815   0.049 -0.0375 -0.4731  0.0643
 2202SOL     OW 8573   5.320   0.852   3.111 -0.3971 -0.0232  0.2071
 2202SOL    HW2 8574   5.228   0.869   3.088 -0.2433  1.0525  0.3649
 2202SOL    HW3 8575   5.339   0.914   3.181  0.2761 -0.6767  0.6162
 2202SOL    MW4 8576   5.310   0.862   3.117 -0.2880  0.0325  0.2819
 2203SOL     OW 8577   3.192   1.794   1.974  0.3789 -0.6027  0.0900
 2203SOL    HW2 8578   3.277   1.826   1.946  0.5930  0.3142  1.6465
 2203SOL    HW3 8579   3.206   1.703   1.997  0.8183 -0.5859 -0.1142
 2203SOL    MW4 8580   3.205   1.786   1.973  0.4651 -0.4795  0.2684
 2204SOL     OW 8581   5.186   3.473   3.306  0.8615  0.2650 -0.4003
 2204SOL    HW2 8582   5.269   3.429   3.289  0.8537  0.3025 -0.5446
 2204SOL    HW3 8583   5.135   3.460   3.225 -0.1153 -1.6073  0.4449
 2204SOL    MW4 8584   5.190   3.466   3.293  0.7316  0.0229 -0.3078
 2205SOL     OW 8585   3.163   3.227   0.849  0.4400  0.6210 -0.0541
 2205SOL    HW2 8586   3.082   3.193   0.812 -0.1207 -0.4642  2.0221
 2205SOL    HW3 8587   3.232   3.182   0.800 -0.2598 -0.6925  0.1269
 2205SOL    MW4 8588   3.162   3.217   0.837  0.2737  0.3045  0.2437
 2206SOL     OW 8589   0.262   2.296   0.753 -0.1873 -0.3987 -0.2743
 2206SOL    HW2 8590   0.189   2.257   0.801 -0.7344 -1.5199 -1.9234
 2206SOL    HW3 8591   0.234   2.385   0.734 -0.3805 -0.2673  0.6092
 2206SOL    MW4 8592   0.248   2.302   0.757 -0.2850 -0.5293 -0.3753
 2207SOL     OW 8593   3.995   5.929   5.438 -0.4056 -0.0822 -0.0264
 2207SOL    HW2 8594   4.061   5.863   5.459  0.3384  0.7732  0.3891
 2207SOL    HW3 8595   3.984   5.924   5.343  1.2099  0.6236 -0.2785
 2207SOL    MW4 8596   4.002   5.920   5.429 -0.0943  0.1238 -0.0048
 2208SOL     OW 8597   4.683   1.692   5.798  0.3374 -0.3347 -0.4130
 2208SOL    HW2 8598   4.740   1.694   5.874 -1.1073 -2.3400  0.8260
 2208SOL    HW3 8599   4.730   1.741   5.731  1.0881  2.7287  2.0900
 2208SOL    MW4 8600   4.697   1.699   5.799  0.2458 -0.1951  0.0807
 2209SOL     OW 8601   5.288   4.299   5.143  0.2569 -0.2013 -0.3889
 2209SOL    HW2 8602   5.212   4.348   5.113 -0.8112 -2.3386 -1.3418
 2209SOL    HW3 8603   5.363   4.341   5.099 -0.2926  1.9169  0.5526
 2209SOL    MW4 8604   5.288   4.311   5.134  0.0435 -0.2038 -0.3904
 2210SOL     OW 8605   4.292   0.206   4.859  0.2937 -0.2284 -0.1816
 2210SOL    HW2 8606   4.221   0.270   4.856 -0.9094 -1.4010  1.2899
 2210SOL    HW3 8607   4.299   0.173   4.769 -4.0939 -3.1548  0.2431
 2210SOL    MW4 8608   4.284   0.210   4.846 -0.4439 -0.7692  0.0686
 2211SOL     OW 8609   1.428   0.692   4.139  0.4760 -0.6306  0.3443
 2211SOL    HW2 8610   1.460   0.730   4.057 -1.3954  0.0019 -0.1481
 2211SOL    HW3 8611   1.354   0.638   4.113 -1.4073  1.0964  1.7272
 2211SOL    MW4 8612   1.422   0.690   4.125 -0.0194 -0.3193  0.4618
 2212SOL     OW 8613   1.110   3.507   0.525 -0.0968  0.3618 -0.4448
 2212SOL    HW2 8614   1.074   3.593   0.545  1.6779  0.8807  0.7209
 2212SOL    HW3 8615   1.205   3.522   0.517  0.5156 -1.7826  1.7695
 2212SOL    MW4 8616   1.118   3.520   0.526  0.2181  0.1473  0.0011
 2213SOL     OW 8617   2.607   1.650   3.473  0.5475 -0.6403  0.2298
 2213SOL    HW2 8618   2.682   1.706   3.454  1.8368 -1.6629  1.9689
 2213SOL    HW3 8619   2.640   1.586   3.536 -2.2796  0.0684  2.6589
 2213SOL    MW4 8620   2.621   1.649   3.478  0.3446 -0.6817  0.7798
 2214SOL     OW 8621   5.850   2.949   1.770 -0.2299 -0.3785  0.1536
 2214SOL    HW2 8622   5.764   2.991   1.764  0.4878  1.0850 -0.3507
 2214SOL    HW3 8623   5.877   2.938   1.679  2.1538  3.6533  0.1503
 2214SOL    MW4 8624   5.842   2.953   1.757  0.1793  0.3466  0.0866
 2215SOL     OW 8625   1.590   6.376   3.176 -0.1814 -0.7207 -0.1494
 2215SOL    HW2 8626   1.657   6.308   3.171  0.1994 -0.4688  1.0672
 2215SOL    HW3 8627   1.514   6.331   3.213 -0.5089 -0.8718 -0.9858
 2215SOL    MW4 8628   1.589   6.361   3.181 -0.1744 -0.7074 -0.0992
 2216SOL     OW 8629   6.034   5.232   2.477 -0.3439 -0.4724  0.1899
 2216SOL    HW2 8630   5.941   5.247   2.461  0.3012  1.6423 -2.1181
 2216SOL    HW3 8631   6.058   5.162   2.417 -0.3463 -0.7661  0.5261
 2216SOL    MW4 8632   6.025   5.224   2.467 -0.2591 -0.2322 -0.0703
 2217SOL     OW 8633   3.643   3.724   3.513  0.0438  0.2387 -0.0649
 2217SOL    HW2 8634   3.684   3.758   3.592 -0.4342 -1.5391  1.0078
 2217SOL    HW3 8635   3.703   3.746   3.442  0.9999  0.9357  0.9444
 2217SOL    MW4 8636   3.656   3.731   3.514  0.1069  0.0961  0.2098
 2218SOL     OW 8637   2.235   2.993   1.202  0.4942 -0.4339 -0.1366
 2218SOL    HW2 8638   2.293   3.063   1.173 -1.7145  1.3508 -0.5194
 2218SOL    HW3 8639   2.204   2.952   1.121 -1.4354  0.9648 -0.1786
 2218SOL    MW4 8640   2.239   2.997   1.187 -0.0518 -0.0139 -0.1927
 2219SOL     OW 8641   0.671   0.078   5.527  0.4544  0.0191 -0.3575
 2219SOL    HW2 8642   0.644   0.160   5.569  1.5129 -0.1740  0.7552
 2219SOL    HW3 8643   0.645   0.010   5.589 -2.1596 -0.7301 -2.1037
 2219SOL    MW4 8644   0.664   0.080   5.540  0.2492 -0.1052 -0.4411
 2220SOL     OW 8645   6.337   3.348   3.356 -0.0215 -0.0229  0.1077
 2220SOL    HW2 8646   6.404   3.383   3.297 -0.0259 -0.0786  0.0690
 2220SOL    HW3 8647   6.254   3.376   3.316 -0.0066  2.1559  1.4460
 2220SOL    MW4 8648   6.334   3.356   3.343 -0.0201  0.2572  0.2792
 2221SOL     OW 8649   1.793   4.619   3.038 -0.0302 -0.5037  0.0282
 2221SOL    HW2 8650   1.786   4.698   3.092  0.6054  0.8568 -1.7576
 2221SOL    HW3 8651   1.703   4.588   3.028 -0.1105 -1.1318  2.2582
 2221SOL    MW4 8652   1.780   4.625   3.044  0.0431 -0.4071  0.0868
 2222SOL     OW 8653   3.347   5.461   4.721 -0.2372  0.7104 -0.1561
 2222SOL    HW2 8654   3.304   5.540   4.688 -0.9079  0.6163  0.4657
 2222SOL    HW3 8655   3.286   5.390   4.699 -0.3462  0.5606  0.6047
 2222SOL    MW4 8656   3.333   5.462   4.714 -0.3401  0.6782  0.0263
 2223SOL     OW 8657   1.377   0.153   5.024 -0.0682 -0.4103 -0.4399
 2223SOL    HW2 8658   1.305   0.175   5.082 -0.2578 -0.2479 -0.7344
 2223SOL    HW3 8659   1.338   0.150   4.937  0.3726  0.1395 -0.6615
 2223SOL    MW4 8660   1.362   0.155   5.020 -0.0351 -0.3164 -0.5080
 2224SOL     OW 8661   6.281   3.452   1.793 -0.3583 -0.1208  0.6699
 2224SOL    HW2 8662   6.313   3.469   1.704  0.4806  0.2250  1.0301
 2224SOL    HW3 8663   6.288   3.358   1.804  0.5499 -0.0493  0.7397
 2224SOL    MW4 8664   6.286   3.442   1.783 -0.1278 -0.0657  0.7266
 2225SOL     OW 8665   5.319   3.209   4.832  0.2116 -0.1643 -0.3464
 2225SOL    HW2 8666   5.282   3.292   4.861  0.4674 -0.6139  1.3882
 2225SOL    HW3 8667   5.244   3.153   4.817  0.0866 -0.2105  0.4139
 2225SOL    MW4 8668   5.304   3.213   4.834  0.2288 -0.2297 -0.0172
 2226SOL     OW 8669   1.366   2.438   4.857 -0.3109 -0.3457  0.0214
 2226SOL    HW2 8670   1.451   2.459   4.817 -1.0874 -0.9065 -2.0761
 2226SOL    HW3 8671   1.366   2.342   4.862 -1.8326 -0.5873 -2.6352
 2226SOL    MW4 8672   1.377   2.428   4.852 -0.6141 -0.4516 -0.6058
 2227SOL     OW 8673   1.494   4.784   3.281 -0.1259  0.5867 -0.2539
 2227SOL    HW2 8674   1.516   4.691   3.292 -0.7278  0.6516  1.9212
 2227SOL    HW3 8675   1.427   4.785   3.213 -0.0435 -0.5498 -0.3698
 2227SOL    MW4 8676   1.488   4.772   3.273 -0.1944  0.4453  0.0178
 2228SOL     OW 8677   2.050   4.743   2.977 -0.0758  0.2813 -0.4694
 2228SOL    HW2 8678   2.022   4.655   3.001  1.9223 -0.5930 -1.1144
 2228SOL    HW3 8679   2.105   4.771   3.050  0.0630  0.5968 -0.6915
 2228SOL    MW4 8680   2.054   4.735   2.990  0.2062  0.2076 -0.5838
 2229SOL     OW 8681   1.142   0.218   5.154 -0.0735 -0.0333 -0.7503
 2229SOL    HW2 8682   1.074   0.245   5.093 -0.6533  2.4382  0.8164
 2229SOL    HW3 8683   1.099   0.153   5.210 -0.0195 -1.1098 -1.9173
 2229SOL    MW4 8684   1.127   0.213   5.154 -0.1429  0.1508 -0.6975
 2230SOL     OW 8685   0.590   5.142   3.135 -0.1045  0.5768  0.0154
 2230SOL    HW2 8686   0.497   5.158   3.153 -0.5064 -1.0265 -0.4913
 2230SOL    HW3 8687   0.636   5.212   3.181 -1.4383  0.1884  2.0579
 2230SOL    MW4 8688   0.584   5.153   3.143 -0.3335  0.3140  0.2180
 2231SOL     OW 8689   2.850   6.082   2.252 -0.7253 -0.1867 -0.4342
 2231SOL    HW2 8690   2.812   6.125   2.329 -2.6077 -0.5303 -1.1081
 2231SOL    HW3 8691   2.803   6.120   2.178  0.9842  0.0629 -1.4209
 2231SOL    MW4 8692   2.839   6.092   2.253 -0.7481 -0.1991 -0.6533
 2232SOL     OW 8693   5.451   3.113   3.872  0.2980 -0.3579  0.8928
 2232SOL    HW2 8694   5.546   3.114   3.870  0.2998 -0.8886 -0.9609
 2232SOL    HW3 8695   5.428   3.020   3.861 -0.4290 -0.1364  0.4752
 2232SOL    MW4 8696   5.460   3.101   3.871  0.2024 -0.3987  0.5931
 2233SOL     OW 8697   5.449   0.186   4.510  0.2678  0.1595  0.4769
 2233SOL    HW2 8698   5.511   0.137   4.565 -1.4408 -0.1172  2.2789
 2233SOL    HW3 8699   5.379   0.210   4.570 -1.2439  0.7023 -1.4270
 2233SOL    MW4 8700   5.448   0.183   4.525 -0.1571  0.1946  0.4634
 2234SOL     OW 8701   0.579   2.838   0.482 -0.6114 -0.1521 -0.7916
 2234SOL    HW2 8702   0.643   2.888   0.533 -0.0646 -0.1738 -1.4307
 2234SOL    HW3 8703   0.568   2.889   0.402 -2.2177  0.4043 -0.2433
 2234SOL    MW4 8704   0.586   2.851   0.478 -0.7512 -0.0816 -0.8036
 2235SOL     OW 8705   2.440   2.584   5.187  0.5752  0.3932 -0.1789
 2235SOL    HW2 8706   2.488   2.602   5.106  0.2475  1.0130 -0.2383
 2235SOL    HW3 8707   2.459   2.658   5.243 -0.9233  1.0448 -0.4878
 2235SOL    MW4 8708   2.449   2.596   5.183  0.3343  0.5609 -0.2275
 2236SOL     OW 8709   1.629   4.658   1.208 -0.4203  0.6715 -0.0353
 2236SOL    HW2 8710   1.544   4.701   1.208  0.2012  1.9467 -0.3618
 2236SOL    HW3 8711   1.689   4.723   1.172  0.2157 -1.1816 -2.6409
 2236SOL    MW4 8712   1.626   4.672   1.203 -0.2544  0.5953 -0.4221
 2237SOL     OW 8713   0.835   4.715   2.383  0.2540 -0.2905  0.3170
 2237SOL    HW2 8714   0.747   4.679   2.397  0.7583 -2.1587 -1.0067
 2237SOL    HW3 8715   0.833   4.748   2.293  0.5379  0.8557  0.7189
 2237SOL    MW4 8716   0.823   4.715   2.373  0.3580 -0.3858  0.1954
 2238SOL     OW 8717   1.056   4.890   3.089 -0.2830  0.4911 -0.2645
 2238SOL    HW2 8718   1.068   4.985   3.094 -1.5239  0.8721 -2.9559
 2238SOL    HW3 8719   0.976   4.874   3.138 -0.3199  0.8916 -0.1870
 2238SOL    MW4 8720   1.047   4.901   3.096 -0.4516  0.5942 -0.6094
 2239SOL     OW 8721   5.650   3.820   6.414  0.4354 -0.3941 -0.1077
 2239SOL    HW2 8722   5.730   3.773   6.437 -0.6325 -1.7260  1.0636
 2239SOL    HW3 8723   5.587   3.751   6.392 -0.5886  0.5923 -0.4018
 2239SOL    MW4 8724   5.652   3.805   6.414  0.1594 -0.4397  0.0080
 2240SOL     OW 8725   5.949   2.360   5.768  0.1763  0.0411  0.0211
 2240SOL    HW2 8726   5.934   2.309   5.688  0.5038 -0.0781  0.0331
 2240SOL    HW3 8727   5.966   2.294   5.835  2.1536  0.1850 -0.2850
 2240SOL    MW4 8728   5.949   2.345   5.766  0.4804  0.0444 -0.0177
 2241SOL     OW 8729   5.696   6.355   4.141 -0.3901 -0.6081 -0.6839
 2241SOL    HW2 8730   5.747   6.434   4.124 -0.0213 -0.2249  1.8147
 2241SOL    HW3 8731   5.619   6.387   4.189 -1.7753 -1.4702 -2.2339
 2241SOL    MW4 8732   5.692   6.370   4.146 -0.5242 -0.6712 -0.5587
 2242SOL     OW 8733   5.645   1.558   2.024 -0.5023 -0.2748 -0.3682
 2242SOL    HW2 8734   5.555   1.583   2.046 -0.4342  0.7069 -1.1573
 2242SOL    HW3 8735   5.697   1.589   2.098 -0.7167 -0.1561 -0.2664
 2242SOL    MW4 8736   5.640   1.565   2.037 -0.5216 -0.1296 -0.4589
 2243SOL     OW 8737   4.962   0.886   0.759 -0.0481 -0.1003  0.3806
 2243SOL    HW2 8738   5.033   0.854   0.814  1.9864  3.3735  0.0991
 2243SOL    HW3 8739   4.911   0.944   0.817 -0.2063  0.5495 -0.3836
 2243SOL    MW4 8740   4.965   0.890   0.774  0.1994  0.4438  0.2426
 2244SOL     OW 8741   0.253   5.920   0.154 -0.7171  0.0323 -0.1673
 2244SOL    HW2 8742   0.212   5.929   0.240  1.0068  1.9408  0.5262
 2244SOL    HW3 8743   0.311   5.844   0.163 -1.7765 -0.8134 -0.2244
 2244SOL    MW4 8744   0.255   5.911   0.166 -0.6294  0.1725 -0.0834
 2245SOL     OW 8745   2.896   1.077   0.678 -0.2881  0.1179  0.2734
 2245SOL    HW2 8746   2.978   1.072   0.727 -0.2330  4.3211  1.0237
 2245SOL    HW3 8747   2.923   1.080   0.586  0.3229  0.4683  0.4601
 2245SOL    MW4 8748   2.910   1.077   0.672 -0.2002  0.7187  0.3970
 2246SOL     OW 8749   6.264   0.284   0.803 -0.0145  0.0491  0.1025
 2246SOL    HW2 8750   6.223   0.238   0.729  2.9585 -3.0820  0.1830
 2246SOL    HW3 8751   6.321   0.349   0.762  0.0635 -0.2561 -0.2774
 2246SOL    MW4 8752   6.266   0.286   0.788  0.3880 -0.4043  0.0630
 2247SOL     OW 8753   3.562   0.588   5.382  0.6152  0.1222 -0.1127
 2247SOL    HW2 8754   3.554   0.673   5.426  2.8029 -1.1916  3.2340
 2247SOL    HW3 8755   3.619   0.604   5.307  0.3793  1.7194  0.0188
 2247SOL    MW4 8756   3.568   0.601   5.378  0.8727  0.1596  0.3462
 2248SOL     OW 8757   0.209   1.417   0.748 -0.1548 -0.0607 -0.1625
 2248SOL    HW2 8758   0.282   1.430   0.688  1.2455 -1.5895  1.0876
 2248SOL    HW3 8759   0.232   1.469   0.825 -0.7198 -0.0141 -0.0225
 2248SOL    MW4 8760   0.222   1.426   0.750 -0.0446 -0.2563  0.0209
 2249SOL     OW 8761   1.020   0.974   0.563 -0.6659 -0.5919  0.1925
 2249SOL    HW2 8762   0.979   0.988   0.648 -0.8678 -0.2005  0.0323
 2249SOL    HW3 8763   1.090   0.911   0.580 -0.7570 -0.5752  0.6316
 2249SOL    MW4 8764   1.024   0.968   0.577 -0.7046 -0.5381  0.2293
 2250SOL     OW 8765   4.463   0.658   3.573  0.3410 -0.0479 -0.2052
 2250SOL    HW2 8766   4.557   0.641   3.569  0.6933  1.7775 -0.4896
 2250SOL    HW3 8767   4.442   0.659   3.667  0.8778  0.7760 -0.0810
 2250SOL    MW4 8768   4.473   0.656   3.585  0.4583  0.3016 -0.2264
 2251SOL     OW 8769   5.515   0.727   4.426  0.0861 -0.3691 -0.2449
 2251SOL    HW2 8770   5.463   0.651   4.400  0.0446  0.0981 -1.6077
 2251SOL    HW3 8771   5.578   0.693   4.489 -0.7799 -1.2695  0.1561
 2251SOL    MW4 8772   5.517   0.712   4.431 -0.0337 -0.4263 -0.3718
 2252SOL     OW 8773   4.424   5.289   2.451  0.2282 -0.3473 -0.2212
 2252SOL    HW2 8774   4.397   5.379   2.470  1.2510  0.4711 -2.3361
 2252SOL    HW3 8775   4.444   5.289   2.358  2.7427 -2.0873  0.2014
 2252SOL    MW4 8776   4.423   5.301   2.442  0.6949 -0.4689 -0.4445
 2253SOL     OW 8777   5.633   5.647   5.546 -0.1282 -0.2300  0.6373
 2253SOL    HW2 8778   5.709   5.603   5.508 -1.0292  0.2918 -1.9387
 2253SOL    HW3 8779   5.662   5.738   5.558 -0.1358 -0.1906  0.3445
 2253SOL    MW4 8780   5.647   5.653   5.543 -0.2481 -0.1560  0.2588
 2254SOL     OW 8781   2.543   0.770   1.006 -0.0718 -0.2896  0.3375
 2254SOL    HW2 8782   2.611   0.764   1.074  0.4850 -1.7435 -0.2999
 2254SOL    HW3 8783   2.586   0.817   0.934 -0.1603 -0.0870  0.4174
 2254SOL    MW4 8784   2.558   0.775   1.005 -0.0100 -0.4547  0.2640
 2255SOL     OW 8785   4.811   1.895   0.567 -0.5916 -0.5922 -0.2008
 2255SOL    HW2 8786   4.894   1.847   0.569  1.2763  2.3373  0.0075
 2255SOL    HW3 8787   4.786   1.896   0.475  1.8673  1.7699 -0.9858
 2255SOL    MW4 8788   4.819   1.889   0.555 -0.0207  0.1060 -0.2769
 2256SOL     OW 8789   3.967   5.231   1.972  0.1249  0.6238 -0.6952
 2256SOL    HW2 8790   4.004   5.231   1.883  0.7295  0.8118 -0.4479
 2256SOL    HW3 8791   4.008   5.156   2.015 -0.9732 -0.1116 -0.8898
 2256SOL    MW4 8792   3.978   5.221   1.966  0.0598  0.5516 -0.6883
 2257SOL     OW 8793   4.437   1.276   1.452  0.2006 -0.2048  0.3381
 2257SOL    HW2 8794   4.485   1.194   1.462 -2.4259 -1.9681 -0.3715
 2257SOL    HW3 8795   4.391   1.288   1.535 -0.4487 -0.2222 -0.0046
 2257SOL    MW4 8796   4.437   1.266   1.464 -0.2316 -0.4398  0.1993
 2258SOL     OW 8797   2.412   0.676   2.354 -0.0597 -0.3973 -0.0271
 2258SOL    HW2 8798   2.373   0.742   2.298 -0.5358 -1.4271 -0.9311
 2258SOL    HW3 8799   2.340   0.620   2.380 -0.3691  1.3394  3.6260
 2258SOL    MW4 8800   2.398   0.678   2.350 -0.1633 -0.3041  0.3356
 2259SOL     OW 8801   2.525   5.641   3.002  0.1210  0.3854 -0.0927
 2259SOL    HW2 8802   2.473   5.674   3.075  0.0404  1.9694 -0.8353
 2259SOL    HW3 8803   2.560   5.719   2.960 -1.6616 -0.2972 -3.1422
 2259SOL    MW4 8804   2.523   5.655   3.006 -0.1248  0.5043 -0.5930
 2260SOL     OW 8805   4.771   6.308   3.062 -0.1964  0.5176 -0.1404
 2260SOL    HW2 8806   4.818   6.385   3.030 -0.7744  1.5349  1.3732
 2260SOL    HW3 8807   4.818   6.282   3.141 -0.9281  0.2595  0.2123
 2260SOL    MW4 8808   4.784   6.315   3.068 -0.3692  0.6178  0.1058
 2261SOL     OW 8809   1.008   6.048   1.618  0.1374 -0.5046 -0.1084
 2261SOL    HW2 8810   1.006   6.064   1.713 -1.4385 -2.3612  0.2354
 2261SOL    HW3 8811   0.917   6.030   1.595  0.6469 -1.1422 -1.7899
 2261SOL    MW4 8812   0.996   6.048   1.628 -0.0033 -0.8337 -0.2849
 2262SOL     OW 8813   1.221   5.518   3.209  0.5664  0.6125 -0.0389
 2262SOL    HW2 8814   1.153   5.510   3.143  0.2029  0.8509  0.3007
 2262SOL    HW3 8815   1.303   5.521   3.160  0.2645  1.3780 -0.5079
 2262SOL    MW4 8816   1.223   5.517   3.194  0.4786  0.7450 -0.0559
 2263SOL     OW 8817   5.306   1.388   3.194 -0.4566  0.3465 -0.7142
 2263SOL    HW2 8818   5.365   1.367   3.266  1.1611 -0.0005 -2.0772
 2263SOL    HW3 8819   5.218   1.386   3.233  0.4094  0.9426  1.3950
 2263SOL    MW4 8820   5.302   1.385   3.209 -0.1289  0.3794 -0.6158
 2264SOL     OW 8821   0.235   2.978   2.976 -0.7654  0.3904  0.0960
 2264SOL    HW2 8822   0.149   2.996   2.938 -0.6303  1.3280  0.2067
 2264SOL    HW3 8823   0.225   2.998   3.069 -0.0960  1.7810 -0.1082
 2264SOL    MW4 8824   0.223   2.983   2.983 -0.6592  0.6976  0.0837
 2265SOL     OW 8825   4.207   2.012   4.283  0.3528 -0.2470 -0.1037
 2265SOL    HW2 8826   4.210   1.930   4.233  1.2458 -2.4123  3.1577
 2265SOL    HW3 8827   4.136   1.999   4.346  1.4754  0.8246  1.4653
 2265SOL    MW4 8828   4.198   2.000   4.285  0.6188 -0.3913  0.5336
 2266SOL     OW 8829   6.447   5.333   4.514  0.6160  0.1064  0.3356
 2266SOL    HW2 8830   6.354   5.337   4.538  0.6072 -0.4146  0.3950
 2266SOL    HW3 8831   6.446   5.327   4.418  0.6632  2.7006  0.0879
 2266SOL    MW4 8832   6.434   5.333   4.504  0.6211  0.3800  0.3108
 2267SOL     OW 8833   0.919   0.401   3.775  0.1760 -0.4539  0.1532
 2267SOL    HW2 8834   0.995   0.438   3.731 -0.3464  0.9092  0.3702
 2267SOL    HW3 8835   0.910   0.451   3.856 -2.2496  0.9810 -0.8935
 2267SOL    MW4 8836   0.928   0.412   3.780 -0.2129 -0.0848  0.0437
 2268SOL     OW 8837   3.551   1.459   5.321  0.6660  0.6357 -0.0923
 2268SOL    HW2 8838   3.572   1.429   5.232  0.4163  1.3017 -0.3803
 2268SOL    HW3 8839   3.473   1.513   5.310  0.4852  0.5195  0.5724
 2268SOL    MW4 8840   3.543   1.462   5.308  0.6092  0.7083 -0.0426
 2269SOL     OW 8841   0.101   2.005   2.893 -0.0083 -0.4252 -0.7408
 2269SOL    HW2 8842   0.072   1.949   2.965  1.8972  0.9641  1.2646
 2269SOL    HW3 8843   0.065   2.091   2.914  1.4096  0.2284 -0.8268
 2269SOL    MW4 8844   0.093   2.009   2.905  0.4301 -0.1557 -0.4876
 2270SOL     OW 8845   1.919   4.480   6.082  0.0832  0.6119 -0.1712
 2270SOL    HW2 8846   1.988   4.420   6.054 -2.3777 -3.3244  1.3865
 2270SOL    HW3 8847   1.872   4.500   6.001  0.5988 -0.1129 -0.6704
 2270SOL    MW4 8848   1.922   4.475   6.067 -0.1735 -0.0031 -0.0315
 2271SOL     OW 8849   5.660   1.131   4.161  0.2396 -0.2018  0.1899
 2271SOL    HW2 8850   5.678   1.041   4.188 -0.2436 -0.4421 -0.2636
 2271SOL    HW3 8851   5.716   1.185   4.216  1.2170 -0.8363 -0.1562
 2271SOL    MW4 8852   5.670   1.126   4.172  0.3048 -0.3172  0.0844
 2272SOL     OW 8853   6.206   1.727   0.388 -0.4627 -0.0411 -0.2098
 2272SOL    HW2 8854   6.191   1.821   0.390  1.2794  0.2725 -0.1912
 2272SOL    HW3 8855   6.169   1.694   0.470  3.3280  1.4253  2.3397
 2272SOL    MW4 8856   6.199   1.735   0.399  0.2673  0.1937  0.1290
 2273SOL     OW 8857   4.704   0.912   0.113 -0.2650  0.5845  0.0654
 2273SOL    HW2 8858   4.666   0.894   0.027 -1.0654  0.1909  0.4862
 2273SOL    HW3 8859   4.742   1.000   0.105  2.9461 -0.7937 -1.7683
 2273SOL    MW4 8860   4.704   0.921   0.101  0.0531  0.3507 -0.1210
 2274SOL     OW 8861   2.799   0.459   5.171  0.0387 -0.0749 -0.5463
 2274SOL    HW2 8862   2.801   0.466   5.267 -0.9510  1.1360 -0.5939
 2274SOL    HW3 8863   2.881   0.498   5.142  0.8802 -1.4976 -0.1585
 2274SOL    MW4 8864   2.810   0.465   5.180  0.0192 -0.1029 -0.5014
 2275SOL     OW 8865   0.446   4.029   5.298  0.1528 -0.3367 -0.2372
 2275SOL    HW2 8866   0.501   3.958   5.264  0.6035 -0.5725  0.9341
 2275SOL    HW3 8867   0.448   4.017   5.393 -1.7343 -0.1938 -0.1459
 2275SOL    MW4 8868   0.453   4.018   5.306 -0.0367 -0.3490 -0.0706
 2276SOL     OW 8869   3.095   2.144   5.370  0.3861 -0.0546 -0.1100
 2276SOL    HW2 8870   3.083   2.152   5.465 -1.0218 -0.9618 -0.1820
 2276SOL    HW3 8871   3.063   2.227   5.335  0.3299  0.0451  0.1760
 2276SOL    MW4 8872   3.089   2.156   5.378  0.1929 -0.1611 -0.0818
 2277SOL     OW 8873   6.333   1.847   5.066  0.4988 -0.6210 -0.1681
 2277SOL    HW2 8874   6.256   1.793   5.049  0.0409 -0.0441  0.0625
 2277SOL    HW3 8875   6.352   1.832   5.159  1.3742 -1.6608 -0.4853
 2277SOL    MW4 8876   6.326   1.838   5.076  0.5539 -0.6820 -0.1795
 2278SOL     OW 8877   2.757   5.284   6.196  0.1868  0.1142 -0.2777
 2278SOL    HW2 8878   2.850   5.262   6.196 -0.0493 -0.9505  0.6945
 2278SOL    HW3 8879   2.730   5.279   6.287 -0.8198  0.5036 -0.5325
 2278SOL    MW4 8880   2.765   5.281   6.208  0.0229  0.0251 -0.1831
 2279SOL     OW 8881   4.597   5.978   1.142  0.4624  0.3255 -0.1197
 2279SOL    HW2 8882   4.654   5.970   1.065 -0.0722  0.6901 -0.5608
 2279SOL    HW3 8883   4.654   6.013   1.210  0.9377  0.0255 -0.3555
 2279SOL    MW4 8884   4.612   5.981   1.141  0.4546  0.3340 -0.2090
 2280SOL     OW 8885   0.785   0.325   1.445  0.5507  0.0942 -0.0260
 2280SOL    HW2 8886   0.730   0.257   1.406 -1.1921  1.5035 -0.1603
 2280SOL    HW3 8887   0.797   0.296   1.536  2.0961 -1.6861 -0.7465
 2280SOL    MW4 8888   0.779   0.312   1.452  0.5247  0.0453 -0.1388
 2281SOL     OW 8889   4.299   0.372   5.343 -0.3357  0.1469 -0.3015
 2281SOL    HW2 8890   4.225   0.392   5.286 -0.8016 -0.5952  0.0204
 2281SOL    HW3 8891   4.301   0.442   5.408 -0.5133  0.3740 -0.5422
 2281SOL    MW4 8892   4.290   0.384   5.344 -0.4206  0.0789 -0.2908
 2282SOL     OW 8893   4.612   2.810   2.182  0.0912  0.4290 -0.4769
 2282SOL    HW2 8894   4.679   2.804   2.114  0.4355 -0.3498 -0.0879
 2282SOL    HW3 8895   4.658   2.843   2.259  0.0082  0.0166 -0.2454
 2282SOL    MW4 8896   4.627   2.813   2.183  0.1257  0.2719 -0.3950
 2283SOL     OW 8897   0.909   6.328   1.640  0.7760 -0.4364  0.1359
 2283SOL    HW2 8898   0.917   6.421   1.664  0.3039 -1.1147  3.3942
 2283SOL    HW3 8899   0.814   6.313   1.636  0.7286 -0.2077 -3.5789
 2283SOL    MW4 8900   0.897   6.338   1.643  0.7075 -0.4957  0.0756
 2284SOL     OW 8901   1.170   5.199   5.955 -0.1289  0.3709 -0.4338
 2284SOL    HW2 8902   1.263   5.206   5.974  0.0047  1.6918 -1.3614
 2284SOL    HW3 8903   1.162   5.122   5.898  0.3423  0.0601 -0.0796
 2284SOL    MW4 8904   1.181   5.190   5.950 -0.0491  0.5042 -0.5095
 2285SOL     OW 8905   2.856   1.139   2.350  0.2816 -0.1438  0.7668
 2285SOL    HW2 8906   2.765   1.151   2.323 -0.6648  0.2875  3.8454
 2285SOL    HW3 8907   2.864   1.046   2.368  0.8656 -0.4001 -0.6366
 2285SOL    MW4 8908   2.845   1.128   2.349  0.2338 -0.1207  0.9879
 2286SOL     OW 8909   5.518   1.405   4.525 -0.2886 -0.0754  0.4040
 2286SOL    HW2 8910   5.434   1.364   4.543  0.3152 -1.3799  0.3765
 2286SOL    HW3 8911   5.516   1.487   4.575 -0.8437 -0.9693  1.9114
 2286SOL    MW4 8912   5.507   1.410   4.534 -0.2822 -0.3654  0.5993
 2287SOL     OW 8913   4.417   5.639   4.488  0.4843 -0.0134 -0.0473
 2287SOL    HW2 8914   4.383   5.662   4.402  1.7138 -1.5483 -0.9863
 2287SOL    HW3 8915   4.380   5.553   4.507 -0.3330  0.6011  1.3079
 2287SOL    MW4 8916   4.408   5.631   4.479  0.5387 -0.1348  0.0076
 2288SOL     OW 8917   4.612   4.596   4.093 -0.5560 -0.1187 -0.0856
 2288SOL    HW2 8918   4.622   4.508   4.056 -0.1707  0.1464 -0.6233
 2288SOL    HW3 8919   4.698   4.637   4.080 -0.4101  0.0020  1.0688
 2288SOL    MW4 8920   4.625   4.590   4.087 -0.4859 -0.0678 -0.0042
 2289SOL     OW 8921   0.654   1.396   3.044 -0.1159 -0.0821  0.1472
 2289SOL    HW2 8922   0.612   1.367   3.125  2.0621  0.0030  1.3817
 2289SOL    HW3 8923   0.691   1.482   3.065 -0.1393  0.2804 -1.1813
 2289SOL    MW4 8924   0.653   1.403   3.057  0.1684 -0.0231  0.1348
 2290SOL     OW 8925   1.413   0.063   0.454  0.0801 -0.1840  0.2561
 2290SOL    HW2 8926   1.484   0.012   0.493  0.1505  0.3750  0.8809
 2290SOL    HW3 8927   1.413   0.145   0.503  0.4962  0.7554 -1.2260
 2290SOL    MW4 8928   1.422   0.067   0.465  0.1443  0.0137  0.1430
 2291SOL     OW 8929   1.691   1.922   3.955  0.2167  0.0467 -0.3092
 2291SOL    HW2 8930   1.782   1.937   3.929  0.4485 -0.3242  0.2794
 2291SOL    HW3 8931   1.644   2.000   3.925  1.2697  1.6813  2.0505
 2291SOL    MW4 8932   1.697   1.934   3.948  0.3862  0.2134  0.0798
 2292SOL     OW 8933   3.822   1.774   5.286  0.1800  0.0278  0.3332
 2292SOL    HW2 8934   3.874   1.847   5.253  1.8367 -0.2620  2.0966
 2292SOL    HW3 8935   3.799   1.724   5.208  2.3461  0.3372 -0.5757
 2292SOL    MW4 8936   3.826   1.777   5.271  0.6844  0.0304  0.4460
 2293SOL     OW 8937   2.741   6.279   5.107  0.1141 -0.0814  0.2189
 2293SOL    HW2 8938   2.817   6.255   5.160  1.6829  1.0406 -1.4313
 2293SOL    HW3 8939   2.775   6.295   5.020 -2.0882  0.1389 -0.6836
 2293SOL    MW4 8940   2.755   6.278   5.103  0.0305  0.0957 -0.1179
 2294SOL     OW 8941   3.739   1.285   3.417  0.3025  0.3086 -0.9354
 2294SOL    HW2 8942   3.690   1.274   3.336 -0.7097  0.1893 -0.3251
 2294SOL    HW3 8943   3.720   1.375   3.444 -0.1800  0.0258 -0.3172
 2294SOL    MW4 8944   3.730   1.296   3.410  0.1053  0.2555 -0.7733
 2295SOL     OW 8945   2.300   6.334   1.448 -0.5291  0.2699  0.5939
 2295SOL    HW2 8946   2.292   6.402   1.381  1.8385  1.3565  1.3278
 2295SOL    HW3 8947   2.321   6.255   1.399  0.0702  0.8078 -0.0302
 2295SOL    MW4 8948   2.302   6.333   1.432 -0.1377  0.4842  0.6083
 2296SOL     OW 8949   3.664   4.846   2.630  0.1746  0.5258  0.2136
 2296SOL    HW2 8950   3.630   4.895   2.555 -0.2536  0.5477  0.4150
 2296SOL    HW3 8951   3.741   4.800   2.597 -0.5995 -0.2839 -0.5281
 2296SOL    MW4 8952   3.669   4.846   2.616  0.0160  0.4219  0.1423
 2297SOL     OW 8953   2.047   2.114   5.063 -0.3850 -0.0257  0.2244
 2297SOL    HW2 8954   1.998   2.185   5.020 -1.4887 -0.5923  0.5041
 2297SOL    HW3 8955   1.998   2.035   5.041  0.3825 -0.6127  0.5803
 2297SOL    MW4 8956   2.034   2.113   5.054 -0.4294 -0.1779  0.3082
 2298SOL     OW 8957   4.618   5.813   5.560  0.3465 -0.5135  0.2469
 2298SOL    HW2 8958   4.566   5.824   5.480 -0.2834 -0.3532  0.6687
 2298SOL    HW3 8959   4.555   5.784   5.626  0.6481  0.3342  0.9409
 2298SOL    MW4 8960   4.603   5.811   5.558  0.3032 -0.3805  0.3941
 2299SOL     OW 8961   1.411   2.996   1.696  0.2687 -0.5235  0.1717
 2299SOL    HW2 8962   1.324   2.961   1.716  0.1260 -0.3900 -0.2143
 2299SOL    HW3 8963   1.431   3.053   1.770  0.4117 -1.2371  0.7041
 2299SOL    MW4 8964   1.402   2.999   1.708  0.2687 -0.6000  0.1910
 2300SOL     OW 8965   1.001   2.772   5.064  0.3809  0.2520 -0.0671
 2300SOL    HW2 8966   1.029   2.856   5.027  0.1642  0.0950 -0.6111
 2300SOL    HW3 8967   1.083   2.728   5.088  0.5737  0.1289 -0.8986
 2300SOL    MW4 8968   1.016   2.777   5.062  0.3777  0.2151 -0.2486
 2301SOL     OW 8969   3.936   3.190   5.987 -0.6581 -0.1554 -0.1843
 2301SOL    HW2 8970   4.002   3.156   5.926 -0.5688  1.2524 -0.9030
 2301SOL    HW3 8971   3.986   3.247   6.045 -1.0709  0.0400 -0.0266
 2301SOL    MW4 8972   3.952   3.193   5.986 -0.7008  0.0561 -0.2583
 2302SOL     OW 8973   4.895   3.165   0.014  0.1677 -0.5811 -0.5222
 2302SOL    HW2 8974   4.952   3.193  -0.057  1.3496 -1.8295 -0.1092
 2302SOL    HW3 8975   4.946   3.183   0.094 -1.5232  1.7611  0.1679
 2302SOL    MW4 8976   4.910   3.171   0.015  0.1005 -0.4368 -0.3767
 2303SOL     OW 8977   5.670   2.422   4.609  0.0717 -0.7891 -0.7642
 2303SOL    HW2 8978   5.617   2.475   4.668  0.3189 -0.0767 -1.1663
 2303SOL    HW3 8979   5.608   2.364   4.567 -0.1183 -1.2601  0.1404
 2303SOL    MW4 8980   5.655   2.422   4.611  0.0792 -0.7573 -0.6979
 2304SOL     OW 8981   1.438   4.937   0.757 -0.0293  0.2256  0.2225
 2304SOL    HW2 8982   1.357   4.918   0.804 -0.7412 -1.2696 -1.4843
 2304SOL    HW3 8983   1.496   4.864   0.779  0.3548  0.5600  0.3299
 2304SOL    MW4 8984   1.435   4.925   0.766 -0.0726  0.0725  0.0115
 2305SOL     OW 8985   3.118   4.120   6.164  0.0218  0.6259 -0.5030
 2305SOL    HW2 8986   3.037   4.108   6.214  0.5420 -0.4010  0.1551
 2305SOL    HW3 8987   3.126   4.039   6.113  0.5499  0.7834 -0.6737
 2305SOL    MW4 8988   3.108   4.107   6.164  0.1601  0.5112 -0.4387
 2306SOL     OW 8989   2.044   6.151   4.823 -0.8107 -0.1797 -0.6145
 2306SOL    HW2 8990   2.054   6.058   4.800 -1.6669 -0.2804 -0.6140
 2306SOL    HW3 8991   1.988   6.151   4.900  0.1354  0.2906  0.0837
 2306SOL    MW4 8992   2.038   6.139   4.830 -0.7988 -0.1310 -0.5223
 2307SOL     OW 8993   2.662   5.941   3.885  0.8188 -0.1785  0.4864
 2307SOL    HW2 8994   2.599   6.001   3.924  1.3451  1.4870 -1.0955
 2307SOL    HW3 8995   2.609   5.879   3.835  0.3754  0.4107  0.2274
 2307SOL    MW4 8996   2.647   5.940   3.884  0.8297  0.1190  0.2435
 2308SOL     OW 8997   1.047   4.849   5.605  0.3628  0.6185  0.3610
 2308SOL    HW2 8998   0.955   4.867   5.621 -0.5630 -2.0675 -1.3003
 2308SOL    HW3 8999   1.092   4.880   5.684 -1.9524  1.7989  1.2993
 2308SOL    MW4 9000   1.041   4.856   5.618 -0.0648  0.4198  0.2656
 2309SOL     OW 9001   6.302   3.174   1.886 -0.3243  0.2309 -0.1315
 2309SOL    HW2 9002   6.212   3.157   1.858 -0.2018  0.7769 -0.9038
 2309SOL    HW3 9003   6.292   3.211   1.975 -0.9699  1.4336 -0.6656
 2309SOL    MW4 9004   6.289   3.177   1.894 -0.3934  0.4616 -0.3038
 2310SOL     OW 9005   2.080   2.476   3.043  0.2369 -0.0190  0.2304
 2310SOL    HW2 9006   2.073   2.476   2.947  0.0954  1.9705  0.2043
 2310SOL    HW3 9007   1.998   2.516   3.073  0.6941  0.2569  1.1373
 2310SOL    MW4 9008   2.068   2.482   3.034  0.2785  0.2799  0.3466
 2311SOL     OW 9009   4.198   3.808   1.239 -0.2625  0.4433 -0.1692
 2311SOL    HW2 9010   4.215   3.803   1.333  2.5225 -1.6952 -0.6452
 2311SOL    HW3 9011   4.152   3.726   1.219  1.3851 -0.3273 -0.9736
 2311SOL    MW4 9012   4.194   3.797   1.249  0.3223  0.0595 -0.3382
 2312SOL     OW 9013   3.639   5.651   3.944 -0.0783  0.1826  0.1236
 2312SOL    HW2 9014   3.640   5.735   3.899  0.1203 -0.7599 -1.7303
 2312SOL    HW3 9015   3.707   5.659   4.010  2.1021  0.5022 -2.0095
 2312SOL    MW4 9016   3.648   5.663   3.947  0.2355  0.1004 -0.4024
 2313SOL     OW 9017   1.966   3.752   0.382 -0.2285 -0.0285 -0.4620
 2313SOL    HW2 9018   1.960   3.847   0.377 -0.2684  0.0464  0.7442
 2313SOL    HW3 9019   1.879   3.722   0.354 -0.8309  0.3810  0.8791
 2313SOL    MW4 9020   1.954   3.760   0.378 -0.3132  0.0354 -0.1259
 2314SOL     OW 9021   5.848   4.841   2.553 -0.0442 -0.5324  0.5108
 2314SOL    HW2 9022   5.866   4.801   2.468  1.1487 -2.6035  1.6601
 2314SOL    HW3 9023   5.925   4.894   2.571 -1.1678  1.6209 -0.5232
 2314SOL    MW4 9024   5.860   4.843   2.544 -0.0351 -0.5216  0.5260
 2315SOL     OW 9025   3.816   1.429   4.523 -0.0052 -0.5958  0.7344
 2315SOL    HW2 9026   3.844   1.521   4.520  1.9444 -1.1423 -1.6734
 2315SOL    HW3 9027   3.734   1.427   4.474  0.7636 -0.3031 -0.6262
 2315SOL    MW4 9028   3.809   1.441   4.516  0.3534 -0.6293  0.2372
 2316SOL     OW 9029   5.444   5.446   0.170  0.0543 -0.7796  0.1909
 2316SOL    HW2 9030   5.498   5.500   0.228 -0.5287 -0.3911  0.3748
 2316SOL    HW3 9031   5.417   5.505   0.101 -1.9146 -0.3779  1.2313
 2316SOL    MW4 9032   5.447   5.461   0.169 -0.2824 -0.6753  0.3525
 2317SOL     OW 9033   2.707   5.494   5.653 -0.0488 -0.1317 -0.2216
 2317SOL    HW2 9034   2.631   5.445   5.622  0.7797 -0.3263 -2.0790
 2317SOL    HW3 9035   2.720   5.464   5.743 -0.8516 -1.7134 -0.6056
 2317SOL    MW4 9036   2.699   5.484   5.661 -0.0454 -0.3661 -0.5173
 2318SOL     OW 9037   4.953   1.034   5.656  0.3332  0.5145  0.2606
 2318SOL    HW2 9038   5.031   1.084   5.631  0.5791  0.9553  1.8183
 2318SOL    HW3 9039   4.890   1.101   5.683 -0.2692  0.1034 -0.1087
 2318SOL    MW4 9040   4.955   1.050   5.656  0.2862  0.5184  0.4174
 2319SOL     OW 9041   5.256   4.945   3.487 -0.0038 -0.2752  0.1777
 2319SOL    HW2 9042   5.281   4.853   3.490 -2.3004 -0.9403  0.6634
 2319SOL    HW3 9043   5.297   4.984   3.565  1.6268 -0.6593 -0.4488
 2319SOL    MW4 9044   5.265   4.938   3.498 -0.0917 -0.4136  0.1592
 2320SOL     OW 9045   0.352   4.959   6.058 -0.7855 -0.1656  0.9237
 2320SOL    HW2 9046   0.274   5.013   6.050 -0.4198  0.2793  0.2501
 2320SOL    HW3 9047   0.351   4.903   5.980 -0.0315  0.3900  0.5037
 2320SOL    MW4 9048   0.342   4.959   6.047 -0.6378 -0.0336  0.7794
 2321SOL     OW 9049   5.587   1.460   0.285 -0.1808  0.2814 -0.1822
 2321SOL    HW2 9050   5.674   1.422   0.271  0.2494  1.5664 -1.2653
 2321SOL    HW3 9051   5.534   1.425   0.214 -0.0182  0.9781 -0.6579
 2321SOL    MW4 9052   5.592   1.451   0.274 -0.1026  0.5429 -0.3879
 2322SOL     OW 9053   3.360   4.890   2.886  0.2329 -0.2170  0.3504
 2322SOL    HW2 9054   3.412   4.854   2.958  1.3200 -0.2547 -0.4313
 2322SOL    HW3 9055   3.393   4.979   2.873 -2.0701  0.9630  1.9034
 2322SOL    MW4 9056   3.371   4.897   2.893  0.0725 -0.0663  0.4521
 2323SOL     OW 9057   5.063   2.625   5.783 -0.1057  0.3301  0.0191
 2323SOL    HW2 9058   5.097   2.536   5.787 -0.4447  0.2077  0.3051
 2323SOL    HW3 9059   5.138   2.679   5.760  0.2486  0.0501  0.4975
 2323SOL    MW4 9060   5.077   2.621   5.780 -0.1037  0.2770  0.1199
 2324SOL     OW 9061   1.041   4.159   6.311  0.4773  0.1144 -0.0269
 2324SOL    HW2 9062   1.028   4.233   6.251 -0.0816 -0.4864 -0.6681
 2324SOL    HW3 9063   0.998   4.186   6.392 -1.9344 -0.4498 -1.0276
 2324SOL    MW4 9064   1.033   4.173   6.314  0.0854 -0.0393 -0.2436
 2325SOL     OW 9065   6.234   2.663   1.324 -0.1565  0.1033  0.1070
 2325SOL    HW2 9066   6.171   2.718   1.278 -0.4482 -0.1899  0.1535
 2325SOL    HW3 9067   6.313   2.667   1.270  0.1547  1.3614  0.6180
 2325SOL    MW4 9068   6.236   2.671   1.311 -0.1539  0.2306  0.1806
 2326SOL     OW 9069   2.830   5.141   5.380 -0.6526  0.3856  0.0498
 2326SOL    HW2 9070   2.774   5.100   5.314 -1.3209  1.1040  0.1544
 2326SOL    HW3 9071   2.807   5.234   5.376  0.6222  0.7186  0.0143
 2326SOL    MW4 9072   2.820   5.148   5.370 -0.5726  0.5243  0.0589
 2327SOL     OW 9073   0.988   1.176   1.191  0.5820 -0.4856 -0.7197
 2327SOL    HW2 9074   0.954   1.214   1.271  3.5506  1.2633 -0.1378
 2327SOL    HW3 9075   1.032   1.096   1.219  2.0737  0.3959 -0.4495
 2327SOL    MW4 9076   0.989   1.170   1.205  1.1705 -0.1386 -0.6072
 2328SOL     OW 9077   5.406   2.714   1.330 -0.1428 -0.1161 -0.1409
 2328SOL    HW2 9078   5.477   2.676   1.382  0.7210  0.1446 -1.0875
 2328SOL    HW3 9079   5.445   2.728   1.243 -1.0968  0.8656 -0.4316
 2328SOL    MW4 9080   5.421   2.711   1.325 -0.1547  0.0478 -0.3042
 2329SOL     OW 9081   1.032   0.952   5.259  0.0938 -0.0574 -0.1236
 2329SOL    HW2 9082   0.947   0.986   5.288  0.1102  0.3110 -0.4866
 2329SOL    HW3 9083   1.060   0.894   5.329  0.1566  0.8483  0.6329
 2329SOL    MW4 9084   1.025   0.949   5.272  0.1043  0.1107 -0.0717
 2330SOL     OW 9085   2.491   5.464   4.736  0.1683  0.0736 -0.0445
 2330SOL    HW2 9086   2.408   5.506   4.756 -0.3647 -1.4340  1.0952
 2330SOL    HW3 9087   2.466   5.385   4.686  0.9030 -0.3811  0.2889
 2330SOL    MW4 9088   2.476   5.459   4.732  0.1949 -0.1853  0.1499
 2331SOL     OW 9089   0.986   2.015   4.596 -0.1062  0.1512 -0.0090
 2331SOL    HW2 9090   0.983   1.971   4.511  0.2897  0.4272 -0.1713
 2331SOL    HW3 9091   0.955   2.103   4.579  2.4841  1.0792 -0.4587
 2331SOL    MW4 9092   0.982   2.020   4.583  0.2878  0.3100 -0.0898
 2332SOL     OW 9093   2.595   0.063   3.647  0.7105  0.1719 -0.7023
 2332SOL    HW2 9094   2.617   0.138   3.702 -0.8910  0.5988 -0.6221
 2332SOL    HW3 9095   2.668   0.002   3.660  2.0394  1.6838 -0.7684
 2332SOL    MW4 9096   2.608   0.065   3.656  0.6745  0.4277 -0.7005
 2333SOL     OW 9097   0.350   4.930   0.908  0.2165 -0.0099 -0.0410
 2333SOL    HW2 9098   0.434   4.922   0.953 -0.2232 -0.4417  0.7361
 2333SOL    HW3 9099   0.362   4.881   0.826 -0.1701 -2.6986  1.3957
 2333SOL    MW4 9100   0.363   4.922   0.903  0.1075 -0.4216  0.2511
 2334SOL     OW 9101   1.704   5.239   1.174  0.1171  0.4731 -0.5570
 2334SOL    HW2 9102   1.759   5.316   1.184  1.4766 -0.4827 -0.4369
 2334SOL    HW3 9103   1.765   5.166   1.173 -1.1188 -0.5865 -1.0040
 2334SOL    MW4 9104   1.719   5.240   1.175  0.1334  0.2072 -0.6002
 2335SOL     OW 9105   2.963   6.135   4.828 -0.0535 -0.0585 -0.2155
 2335SOL    HW2 9106   3.025   6.133   4.755 -1.2949  0.6725 -1.3494
 2335SOL    HW3 9107   2.935   6.044   4.839 -1.7879  0.1009 -2.4638
 2335SOL    MW4 9108   2.967   6.123   4.820 -0.4461  0.0590 -0.6617
 2336SOL     OW 9109   4.959   3.902   2.570  0.2558  0.7953 -0.1145
 2336SOL    HW2 9110   4.913   3.977   2.608 -0.8114 -0.0099  0.2715
 2336SOL    HW3 9111   4.889   3.840   2.549  1.2126 -0.8909  1.3812
 2336SOL    MW4 9112   4.943   3.903   2.573  0.2412  0.4666  0.1338
 2337SOL     OW 9113   5.323   0.449   2.910  0.5831 -0.2576 -0.1665
 2337SOL    HW2 9114   5.251   0.451   2.973  0.4689  0.3123 -0.3164
 2337SOL    HW3 9115   5.282   0.423   2.827  0.8666 -1.8706  0.1576
 2337SOL    MW4 9116   5.308   0.446   2.907  0.6054 -0.3952 -0.1435
 2338SOL     OW 9117   1.149   1.571   3.824  0.2434  0.0361  0.1759
 2338SOL    HW2 9118   1.133   1.625   3.746 -0.0610 -0.7339 -0.3129
 2338SOL    HW3 9119   1.113   1.622   3.896 -2.6247 -0.7039 -0.6142
 2338SOL    MW4 9120   1.142   1.585   3.823 -0.1752 -0.1631  0.0071
 2339SOL     OW 9121   4.542   6.206   0.862  0.3146 -0.2594  0.7150
 2339SOL    HW2 9122   4.600   6.257   0.805  1.7107 -1.7018  0.7638
 2339SOL    HW3 9123   4.483   6.271   0.900 -0.6843  0.7968 -2.3050
 2339SOL    MW4 9124   4.542   6.222   0.859  0.3670 -0.3104  0.3230
 2340SOL     OW 9125   2.826   3.345   5.861  0.3902  0.3170  0.3668
 2340SOL    HW2 9126   2.897   3.317   5.919  0.4509  2.3045  1.3319
 2340SOL    HW3 9127   2.801   3.432   5.894 -2.7377 -0.4321  0.2942
 2340SOL    MW4 9128   2.832   3.353   5.873 -0.0144  0.4804  0.4846
 2341SOL     OW 9129   6.095   1.668   2.426  0.2268 -0.1369  0.0836
 2341SOL    HW2 9130   6.024   1.623   2.381  0.4118 -1.7144  1.2514
 2341SOL    HW3 9131   6.062   1.681   2.515  0.8246  0.5484  0.2134
 2341SOL    MW4 9132   6.081   1.664   2.432  0.3301 -0.2546  0.2548
 2342SOL     OW 9133   1.754   2.519   6.028 -0.1284  0.2854  0.0685
 2342SOL    HW2 9134   1.759   2.461   6.104  0.1121 -1.5174 -1.2706
 2342SOL    HW3 9135   1.662   2.547   6.025 -0.1185  0.4479  1.0497
 2342SOL    MW4 9136   1.743   2.515   6.038 -0.0954  0.0690  0.0213
 2343SOL     OW 9137   4.777   4.431  -0.002  0.0202  0.1666  0.4352
 2343SOL    HW2 9138   4.765   4.392   0.085  1.4242  0.9892  1.0377
 2343SOL    HW3 9139   4.690   4.427  -0.042 -0.2680 -1.9274  1.1366
 2343SOL    MW4 9140   4.764   4.426   0.004  0.1674 -0.0011  0.6072
 2344SOL     OW 9141   5.761   1.128  -0.005  0.1529  0.3619 -0.0866
 2344SOL    HW2 9142   5.815   1.049   0.005  0.4233  0.6563  0.8697
 2344SOL    HW3 9143   5.808   1.182  -0.068  0.2118 -0.0272 -0.3802
 2344SOL    MW4 9144   5.774   1.124  -0.012  0.1963  0.3494  0.0008
 2345SOL     OW 9145   3.634   1.266   2.389 -0.0147 -0.2936 -0.2673
 2345SOL    HW2 9146   3.601   1.290   2.475  0.4242 -0.9841  0.1117
 2345SOL    HW3 9147   3.570   1.203   2.355  1.2937 -2.3457  0.8597
 2345SOL    MW4 9148   3.621   1.261   2.396  0.2158 -0.6554 -0.0686
 2346SOL     OW 9149   6.366   3.031   2.910 -0.0208  0.1070  0.0172
 2346SOL    HW2 9150   6.366   3.125   2.928  0.0264  0.0399  0.3880
 2346SOL    HW3 9151   6.323   2.993   2.986  0.0244 -0.1772 -0.0999
 2346SOL    MW4 9152   6.361   3.038   2.922 -0.0086  0.0606  0.0507
 2347SOL     OW 9153   6.190   0.198   1.418 -0.6402 -0.1282  0.0736
 2347SOL    HW2 9154   6.178   0.107   1.444 -0.5736 -0.7408 -1.8988
 2347SOL    HW3 9155   6.276   0.222   1.453 -0.5113 -0.9236  0.3094
 2347SOL    MW4 9156   6.200   0.189   1.426 -0.6144 -0.3139 -0.1555
 2348SOL     OW 9157   3.563   2.126   6.097  0.3306 -0.2112  0.2075
 2348SOL    HW2 9158   3.616   2.199   6.129  0.9707 -0.6975  0.2684
 2348SOL    HW3 9159   3.473   2.159   6.099  0.7775  1.2183 -1.5364
 2348SOL    MW4 9160   3.558   2.140   6.102  0.4740 -0.0867 -0.0145
 2349SOL     OW 9161   2.815   4.353   3.598  0.0695  0.4163  0.2375
 2349SOL    HW2 9162   2.719   4.350   3.597  0.0806 -1.3099 -0.9642
 2349SOL    HW3 9163   2.837   4.444   3.579 -1.3323  0.5921 -0.6794
 2349SOL    MW4 9164   2.805   4.364   3.596 -0.1140  0.2117 -0.0420
 2350SOL     OW 9165   1.596   5.981   4.810  0.4064 -0.4174  0.5263
 2350SOL    HW2 9166   1.646   6.020   4.738  0.5168 -0.2902  0.6698
 2350SOL    HW3 9167   1.575   6.055   4.866  1.2460 -0.6635  1.1828
 2350SOL    MW4 9168   1.600   5.996   4.808  0.5318 -0.4331  0.6318
 2351SOL     OW 9169   0.200   5.259   1.441  0.3668 -0.1035  0.1842
 2351SOL    HW2 9170   0.182   5.220   1.526  1.4275  1.5350  1.2248
 2351SOL    HW3 9171   0.117   5.252   1.393 -0.1873 -1.2475  1.2529
 2351SOL    MW4 9172   0.187   5.253   1.446  0.4336 -0.0383  0.4625
 2352SOL     OW 9173   2.454   0.192   5.113  0.1267  0.2056 -0.3206
 2352SOL    HW2 9174   2.533   0.151   5.148  1.0244  2.6122  0.6291
 2352SOL    HW3 9175   2.388   0.179   5.181 -0.3268 -1.5949 -1.0164
 2352SOL    MW4 9176   2.456   0.185   5.126  0.1853  0.2856 -0.2871
 2353SOL     OW 9177   2.050   2.063   1.940 -0.6706  0.4191  0.7652
 2353SOL    HW2 9178   1.972   2.043   1.888  0.3781 -0.8764 -0.3818
 2353SOL    HW3 9179   2.076   1.979   1.978 -1.6173  1.3840  3.8232
 2353SOL    MW4 9180   2.043   2.049   1.938 -0.6571  0.3755  1.0173
 2354SOL     OW 9181   3.383   0.914   1.541  0.1178 -0.1899 -0.5155
 2354SOL    HW2 9182   3.470   0.906   1.502  0.2556  1.9300 -0.7355
 2354SOL    HW3 9183   3.331   0.960   1.475 -0.4738  0.7271  0.5541
 2354SOL    MW4 9184   3.388   0.919   1.527  0.0580  0.2108 -0.4034
 2355SOL     OW 9185   4.065   6.404   1.898  0.0196 -0.3723 -0.4198
 2355SOL    HW2 9186   4.083   6.451   1.816  0.0902 -1.1473 -0.8643
 2355SOL    HW3 9187   4.121   6.447   1.963  1.7561 -1.2077 -1.2825
 2355SOL    MW4 9188   4.075   6.416   1.896  0.2580 -0.5848 -0.5922
 2356SOL     OW 9189   2.289   3.786   0.596  0.3222 -0.2119  0.0545
 2356SOL    HW2 9190   2.375   3.745   0.606  1.4010  1.3259 -2.1846
 2356SOL    HW3 9191   2.259   3.757   0.510 -0.2676  1.2461 -0.2449
 2356SOL    MW4 9192   2.297   3.777   0.586  0.3867  0.1834 -0.2804
 2357SOL     OW 9193   1.747   4.015   1.172 -0.5386 -0.3444  0.4020
 2357SOL    HW2 9194   1.798   3.935   1.156 -0.3611 -0.1691  0.0997
 2357SOL    HW3 9195   1.756   4.066   1.092 -0.0813  0.2941  0.8568
 2357SOL    MW4 9196   1.755   4.011   1.160 -0.4548 -0.2370  0.4221
 2358SOL     OW 9197   1.103   2.439   0.260 -0.1512 -0.5109  0.4117
 2358SOL    HW2 9198   1.192   2.407   0.245 -0.5592 -1.7081  0.4684
 2358SOL    HW3 9199   1.112   2.534   0.263  1.3915 -0.6482  1.9904
 2358SOL    MW4 9200   1.116   2.447   0.259 -0.0015 -0.6869  0.6275
 2359SOL     OW 9201   4.379   0.268   0.686  0.4875 -0.3453 -0.2533
 2359SOL    HW2 9202   4.366   0.332   0.756 -0.1414 -2.5244  1.7676
 2359SOL    HW3 9203   4.459   0.220   0.712  0.9553 -0.4115 -1.7087
 2359SOL    MW4 9204   4.388   0.270   0.699  0.4662 -0.6416 -0.1787
 2360SOL     OW 9205   5.350   0.639   0.255 -0.5775 -0.1007  0.1263
 2360SOL    HW2 9206   5.333   0.649   0.348  1.4688 -1.1554  0.6762
 2360SOL    HW3 9207   5.318   0.551   0.234 -1.2213  0.2114 -0.2343
 2360SOL    MW4 9208   5.343   0.629   0.264 -0.3924 -0.1987  0.1513
 2361SOL     OW 9209   5.836   4.345   5.705  0.0270  0.5190 -0.1590
 2361SOL    HW2 9210   5.790   4.423   5.734 -1.2951 -0.9564  1.9240
 2361SOL    HW3 9211   5.778   4.272   5.726  1.7365 -1.1607 -0.8811
 2361SOL    MW4 9212   5.822   4.346   5.711  0.0781  0.1027  0.0205
 2362SOL     OW 9213   5.432   0.643   3.264 -0.2471  0.3762 -0.5130
 2362SOL    HW2 9214   5.430   0.682   3.352 -0.4797  1.6234 -1.0460
 2362SOL    HW3 9215   5.379   0.702   3.211 -2.7844 -2.0291 -0.8550
 2362SOL    MW4 9216   5.425   0.656   3.269 -0.6126  0.2234 -0.6285
 2363SOL     OW 9217   1.212   4.831   0.882  0.1885  0.0425 -0.2528
 2363SOL    HW2 9218   1.157   4.792   0.814 -0.1975 -0.6287  0.4457
 2363SOL    HW3 9219   1.269   4.760   0.911  0.0154  0.1914  0.4739
 2363SOL    MW4 9220   1.212   4.816   0.876  0.1148 -0.0264 -0.0648
 2364SOL     OW 9221   1.776   1.682   3.104 -0.0969 -0.0862 -0.1236
 2364SOL    HW2 9222   1.863   1.706   3.135 -0.5941  0.9606  0.5163
 2364SOL    HW3 9223   1.765   1.590   3.131  0.3973  0.0974  0.7485
 2364SOL    MW4 9224   1.786   1.673   3.112 -0.0973  0.0761  0.0759
 2365SOL     OW 9225   4.693   1.350   0.491  0.3258  0.1021 -0.2617
 2365SOL    HW2 9226   4.779   1.314   0.471 -0.4345 -0.4795 -2.8544
 2365SOL    HW3 9227   4.692   1.436   0.448  0.2751  1.0047  1.4568
 2365SOL    MW4 9228   4.704   1.357   0.483  0.2188  0.1445 -0.3771
 2366SOL     OW 9229   1.538   4.382   3.038  0.2959 -0.1236  0.0644
 2366SOL    HW2 9230   1.598   4.374   2.965 -0.8457  0.1356 -0.9313
 2366SOL    HW3 9231   1.452   4.393   2.998 -0.5003 -0.9577  1.4336
 2366SOL    MW4 9232   1.534   4.382   3.023  0.0402 -0.1994  0.1137
 2367SOL     OW 9233   0.788   1.282   2.617  0.1007  0.2944 -0.2457
 2367SOL    HW2 9234   0.813   1.291   2.709  1.6766  1.1488 -0.7242
 2367SOL    HW3 9235   0.739   1.362   2.598 -0.0477  0.2137 -0.2018
 2367SOL    MW4 9236   0.785   1.294   2.627  0.2890  0.3965 -0.3030
 2368SOL     OW 9237   5.650   2.635   5.244  0.4794 -0.1507  0.0672
 2368SOL    HW2 9238   5.716   2.705   5.238  0.9181 -0.6171 -0.6719
 2368SOL    HW3 9239   5.590   2.665   5.312  0.9007  0.7496  0.0577
 2368SOL    MW4 9240   5.651   2.648   5.252  0.5929 -0.0935 -0.0315
 2369SOL     OW 9241   1.856   0.505   4.288  0.5242  0.5300 -0.1172
 2369SOL    HW2 9242   1.764   0.508   4.261  0.9117 -0.2331 -1.6150
 2369SOL    HW3 9243   1.900   0.567   4.230  0.8900  1.2954  0.9565
 2369SOL    MW4 9244   1.850   0.513   4.277  0.6236  0.5303 -0.1732
 2370SOL     OW 9245   0.787   6.330   6.386  0.0616 -0.4010 -0.5586
 2370SOL    HW2 9246   0.732   6.361   6.458  1.4436  0.9300 -0.0167
 2370SOL    HW3 9247   0.779   6.235   6.388 -0.8063 -0.3242  0.6247
 2370SOL    MW4 9248   0.779   6.322   6.396  0.1294 -0.2152 -0.3310
 2371SOL     OW 9249   0.255   6.220   0.333 -0.2138 -0.2153 -0.3028
 2371SOL    HW2 9250   0.207   6.269   0.266 -0.6796  2.0941  1.6001
 2371SOL    HW3 9251   0.347   6.227   0.307 -0.4925 -0.7386 -1.5189
 2371SOL    MW4 9252   0.260   6.227   0.321 -0.3120  0.0204 -0.2122
 2372SOL     OW 9253   2.183   6.299   2.236  0.1418 -0.3121  0.1604
 2372SOL    HW2 9254   2.128   6.324   2.161 -0.3619 -0.6663  0.4106
 2372SOL    HW3 9255   2.127   6.312   2.312  0.7203  0.2451  0.5014
 2372SOL    MW4 9256   2.169   6.304   2.236  0.1517 -0.2853  0.2384
 2373SOL     OW 9257   1.431   5.558   3.881 -0.0638 -0.5806  0.3268
 2373SOL    HW2 9258   1.518   5.589   3.906  0.7408 -1.3642 -1.3838
 2373SOL    HW3 9259   1.385   5.636   3.853  0.3009 -0.2544  0.6222
 2373SOL    MW4 9260   1.437   5.572   3.881  0.0905 -0.6410  0.1401
 2374SOL     OW 9261   1.741   0.030   0.560  0.3826 -0.0176  0.2592
 2374SOL    HW2 9262   1.726   0.121   0.584  3.0905  1.1769 -2.0417
 2374SOL    HW3 9263   1.747  -0.016   0.643 -0.5274  1.9633  1.5046
 2374SOL    MW4 9264   1.740   0.036   0.574  0.6198  0.4013  0.1199
 2375SOL     OW 9265   0.429   6.398   2.788  0.0011 -0.0321 -0.0145
 2375SOL    HW2 9266   0.383   6.476   2.757  0.7077  0.2358 -0.4365
 2375SOL    HW3 9267   0.481   6.429   2.863 -0.1354 -0.2202  0.1586
 2375SOL    MW4 9268   0.430   6.412   2.794  0.0763 -0.0216 -0.0473
 2376SOL     OW 9269   2.371   0.436   1.663  0.2520  0.1153 -0.2326
 2376SOL    HW2 9270   2.322   0.395   1.592 -0.7965  0.3024  0.3668
 2376SOL    HW3 9271   2.389   0.364   1.724  3.3600 -0.6190 -1.7798
 2376SOL    MW4 9272   2.367   0.421   1.661  0.5237  0.0431 -0.3576
 2377SOL     OW 9273   1.161   4.818   6.051 -0.4012 -0.0389 -0.7239
 2377SOL    HW2 9274   1.200   4.742   6.008 -1.4058 -0.7508 -0.4262
 2377SOL    HW3 9275   1.068   4.795   6.058 -0.1042 -0.7004  3.2523
 2377SOL    MW4 9276   1.154   4.805   6.046 -0.4945 -0.2201 -0.1600
 2378SOL     OW 9277   5.984   0.941   5.577  0.0458  0.0100  0.2234
 2378SOL    HW2 9278   6.058   0.936   5.638 -0.6691 -0.2904  1.0886
 2378SOL    HW3 9279   5.989   1.030   5.541  0.5008  0.1834  0.6982
 2378SOL    MW4 9280   5.995   0.952   5.580  0.0115 -0.0068  0.4002
 2379SOL     OW 9281   4.627   3.195   4.470  0.2355 -0.3571 -0.0764
 2379SOL    HW2 9282   4.698   3.206   4.533  0.1573 -1.1728  0.1604
 2379SOL    HW3 9283   4.669   3.158   4.392  0.0148 -1.1917  0.1970
 2379SOL    MW4 9284   4.642   3.192   4.468  0.1960 -0.5748 -0.0091
 2380SOL     OW 9285   5.166   2.796   3.357  0.2074  0.0727 -0.1745
 2380SOL    HW2 9286   5.207   2.874   3.395 -0.1356 -0.3366  1.0816
 2380SOL    HW3 9287   5.097   2.773   3.419 -1.0165 -0.0727 -1.5365
 2380SOL    MW4 9288   5.162   2.804   3.370  0.0007 -0.0005 -0.1885
 2381SOL     OW 9289   2.395   1.167   2.888 -0.3535 -0.3434 -0.2063
 2381SOL    HW2 9290   2.388   1.257   2.855  0.5541  0.6003  1.9445
 2381SOL    HW3 9291   2.463   1.127   2.834  1.0981  1.1402  0.4204
 2381SOL    MW4 9292   2.403   1.174   2.876 -0.0422 -0.0231  0.1601
 2382SOL     OW 9293   3.310   4.333   5.592 -0.3548 -0.2813 -0.0889
 2382SOL    HW2 9294   3.403   4.344   5.612 -0.4936 -0.0693  0.4644
 2382SOL    HW3 9295   3.294   4.239   5.602  0.7635 -1.1558 -4.5170
 2382SOL    MW4 9296   3.320   4.322   5.596 -0.2256 -0.3687 -0.6002
 2383SOL     OW 9297   4.400   1.732   6.208  0.1338 -0.1344  0.1689
 2383SOL    HW2 9298   4.325   1.684   6.243  1.2358  0.1475  3.2586
 2383SOL    HW3 9299   4.398   1.816   6.255  1.9691  0.1344 -0.1711
 2383SOL    MW4 9300   4.390   1.737   6.219  0.5214 -0.0618  0.5317
 2384SOL     OW 9301   1.949   2.867   2.378  0.3130 -0.2320  0.7040
 2384SOL    HW2 9302   1.968   2.835   2.466 -1.8368  0.2902  1.4245
 2384SOL    HW3 9303   1.862   2.908   2.385  0.5281  0.7594 -1.4260
 2384SOL    MW4 9304   1.940   2.868   2.390  0.0578 -0.0323  0.5180
 2385SOL     OW 9305   1.501   1.930   4.167  1.0543  0.3072 -0.0424
 2385SOL    HW2 9306   1.516   1.894   4.255 -0.9848 -2.1694 -0.5707
 2385SOL    HW3 9307   1.587   1.929   4.126  1.6150 -1.0942  1.0817
 2385SOL    MW4 9308   1.514   1.925   4.173  0.8592 -0.2044  0.0362
 2386SOL     OW 9309   2.468   4.207   2.954  0.3026 -0.2191 -0.3399
 2386SOL    HW2 9310   2.515   4.124   2.942  1.3859  0.4260 -0.6930
 2386SOL    HW3 9311   2.494   4.237   3.041  2.1370  1.0862 -1.2729
 2386SOL    MW4 9312   2.477   4.200   2.964  0.6875  0.0383 -0.5096
 2387SOL     OW 9313   5.284   4.710   4.254  0.0787  0.5399  0.3377
 2387SOL    HW2 9314   5.342   4.643   4.218 -2.4587 -1.5909 -0.0550
 2387SOL    HW3 9315   5.271   4.685   4.345 -0.9355  0.4151  0.1741
 2387SOL    MW4 9316   5.290   4.698   4.261 -0.3899  0.2423  0.2643
 2388SOL     OW 9317   3.174   3.877   6.053  0.2567 -0.8177  0.3732
 2388SOL    HW2 9318   3.089   3.849   6.087 -1.3150  1.0825 -1.7307
 2388SOL    HW3 9319   3.167   3.868   5.958  1.2906  2.0536 -0.0850
 2388SOL    MW4 9320   3.162   3.872   6.045  0.1857 -0.1881  0.0351
 2389SOL     OW 9321   2.777   0.268   5.666  0.1885  1.1550 -0.3619
 2389SOL    HW2 9322   2.787   0.319   5.585 -1.7531  1.7714 -0.2603
 2389SOL    HW3 9323   2.759   0.179   5.636  0.3294  1.1994 -0.5839
 2389SOL    MW4 9324   2.776   0.263   5.651 -0.0491  1.2422 -0.3778
 2390SOL     OW 9325   5.110   1.936   3.635  0.5328  0.1470 -0.2578
 2390SOL    HW2 9326   5.024   1.968   3.609 -0.2957 -3.0678 -1.9796
 2390SOL    HW3 9327   5.112   1.944   3.730 -1.7810  0.0336 -0.1630
 2390SOL    MW4 9328   5.099   1.942   3.644  0.1182 -0.2922 -0.4725
 2391SOL     OW 9329   2.330   6.116   5.527  0.2334 -0.4529  0.5434
 2391SOL    HW2 9330   2.419   6.085   5.510 -0.1277 -1.3974  0.2793
 2391SOL    HW3 9331   2.295   6.054   5.592 -0.3938 -0.4011  0.2633
 2391SOL    MW4 9332   2.337   6.104   5.533  0.1030 -0.5707  0.4716
 2392SOL     OW 9333   6.142   4.883   6.059  0.5800  0.0420 -0.0127
 2392SOL    HW2 9334   6.075   4.836   6.010  0.3401 -0.6032  0.9020
 2392SOL    HW3 9335   6.225   4.851   6.023  0.4227  0.7162 -1.0285
 2392SOL    MW4 9336   6.144   4.872   6.048  0.5276  0.0458 -0.0260
 2393SOL     OW 9337   4.769   3.472   3.102  0.2066 -0.6046  0.7561
 2393SOL    HW2 9338   4.761   3.547   3.043 -1.4839  0.0755  1.7687
 2393SOL    HW3 9339   4.770   3.510   3.190  1.2884 -1.6725  1.2402
 2393SOL    MW4 9340   4.768   3.487   3.106  0.1263 -0.6557  0.9535
 2394SOL     OW 9341   5.470   3.710   4.288 -0.1075 -0.5230  0.1933
 2394SOL    HW2 9342   5.549   3.749   4.326 -0.1555 -0.3443  0.1120
 2394SOL    HW3 9343   5.399   3.741   4.345 -0.2421  0.1666 -0.3374
 2394SOL    MW4 9344   5.471   3.719   4.301 -0.1316 -0.4084  0.1126
 2395SOL     OW 9345   0.264   5.854   2.439 -0.4957  0.2253 -0.2844
 2395SOL    HW2 9346   0.280   5.759   2.442  0.2326  0.3440 -0.3161
 2395SOL    HW3 9347   0.180   5.865   2.483 -1.2969 -0.5887 -1.5607
 2395SOL    MW4 9348   0.255   5.843   2.446 -0.5053  0.1336 -0.4570
 2396SOL     OW 9349   4.402   1.853   0.507 -0.0030 -0.0384 -0.0980
 2396SOL    HW2 9350   4.352   1.837   0.587 -0.5320  0.4181 -0.3290
 2396SOL    HW3 9351   4.477   1.794   0.514  0.2921  0.4326  1.0306
 2396SOL    MW4 9352   4.405   1.843   0.519 -0.0338  0.0840  0.0204
 2397SOL     OW 9353   0.267   3.344   0.394  0.8427  0.5270 -0.2600
 2397SOL    HW2 9354   0.356   3.325   0.362  0.6362 -0.0020 -0.5351
 2397SOL    HW3 9355   0.236   3.260   0.427  0.5667  0.7894  0.1523
 2397SOL    MW4 9356   0.275   3.331   0.394  0.7790  0.4918 -0.2419
 2398SOL     OW 9357   5.021   5.834   1.924  0.3015  0.0775  0.3297
 2398SOL    HW2 9358   5.104   5.879   1.944 -0.0470  0.6965  0.4111
 2398SOL    HW3 9359   4.991   5.800   2.009  1.7006 -2.3420 -0.0528
 2398SOL    MW4 9360   5.028   5.836   1.938  0.4401 -0.1600  0.2899
 2399SOL     OW 9361   4.653   0.491   4.912 -0.3215  0.1659  0.0314
 2399SOL    HW2 9362   4.598   0.424   4.952 -1.3543  0.0333 -1.5290
 2399SOL    HW3 9363   4.729   0.444   4.879  0.5710  0.2855  1.8059
 2399SOL    MW4 9364   4.656   0.476   4.913 -0.3400  0.1642  0.0597
 2400SOL     OW 9365   2.399   3.190   1.077 -0.3289 -0.1599 -0.2751
 2400SOL    HW2 9366   2.452   3.228   1.148  0.4091  0.0094 -0.9067
 2400SOL    HW3 9367   2.454   3.197   0.999 -0.0425 -2.7088 -0.4101
 2400SOL    MW4 9368   2.413   3.196   1.076 -0.1937 -0.4738 -0.3762
 2401SOL     OW 9369   0.616   1.192   4.886 -0.1798  0.1761  0.8247
 2401SOL    HW2 9370   0.624   1.104   4.922 -1.4703  0.5488  2.1086
 2401SOL    HW3 9371   0.579   1.244   4.957 -2.2356  1.0890 -0.7874
 2401SOL    MW4 9372   0.612   1.187   4.900 -0.6213  0.3457  0.7814
 2402SOL     OW 9373   4.805   4.307   4.577  0.1740  0.0559 -0.2214
 2402SOL    HW2 9374   4.737   4.358   4.533  0.7468  1.9632  0.9974
 2402SOL    HW3 9375   4.859   4.273   4.506 -1.7419 -1.1476 -1.1988
 2402SOL    MW4 9376   4.803   4.309   4.562 -0.0032  0.1488 -0.1895
 2403SOL     OW 9377   1.001   1.005   3.684 -0.3032 -0.1253 -0.0946
 2403SOL    HW2 9378   0.994   1.058   3.764 -0.5354 -0.7583  0.3114
 2403SOL    HW3 9379   1.052   0.929   3.710  0.7149  0.2756 -0.8781
 2403SOL    MW4 9380   1.007   1.002   3.698 -0.1995 -0.1559 -0.1444
 2404SOL     OW 9381   4.332   5.661   6.120 -0.5996  0.0408  0.3067
 2404SOL    HW2 9382   4.362   5.572   6.138  0.4319  0.5415  1.1983
 2404SOL    HW3 9383   4.263   5.651   6.055 -1.8042 -1.5453  1.7696
 2404SOL    MW4 9384   4.327   5.648   6.114 -0.6224 -0.1024  0.6174
 2405SOL     OW 9385   5.043   0.343   3.689 -0.4221  0.5247 -0.2156
 2405SOL    HW2 9386   5.010   0.256   3.665 -0.1022  0.8875 -2.1136
 2405SOL    HW3 9387   5.063   0.336   3.782  0.3011 -1.6823 -0.4774
 2405SOL    MW4 9388   5.042   0.330   3.698 -0.2845  0.2814 -0.5006
 2406SOL     OW 9389   2.342   4.811   5.243 -0.2544 -0.2957 -0.2444
 2406SOL    HW2 9390   2.260   4.815   5.195 -0.0216  0.0040 -0.6169
 2406SOL    HW3 9391   2.341   4.889   5.298 -0.5869 -0.7109  0.3557
 2406SOL    MW4 9392   2.331   4.822   5.244 -0.2675 -0.3109 -0.2143
 2407SOL     OW 9393   1.642   3.275   2.655 -0.4710  0.4590  0.6375
 2407SOL    HW2 9394   1.702   3.272   2.730 -0.0750 -2.5183  0.3261
 2407SOL    HW3 9395   1.562   3.232   2.687 -0.2486 -0.9808 -0.5981
 2407SOL    MW4 9396   1.639   3.269   2.669 -0.3894 -0.1238  0.4334
 2408SOL     OW 9397   0.779   6.321   4.547 -0.1987 -0.1511 -0.3107
 2408SOL    HW2 9398   0.738   6.286   4.468 -3.1186 -1.3610  1.5855
 2408SOL    HW3 9399   0.803   6.244   4.599  1.9648  0.6008 -0.0569
 2408SOL    MW4 9400   0.777   6.307   4.544 -0.2985 -0.2115 -0.0270
 2409SOL     OW 9401   5.052   1.438   1.755  0.4751  0.1939 -0.5125
 2409SOL    HW2 9402   5.128   1.439   1.812 -0.8886  0.7717  1.3865
 2409SOL    HW3 9403   5.067   1.511   1.695  0.5318  1.6018  1.1402
 2409SOL    MW4 9404   5.064   1.448   1.754  0.3026  0.4559 -0.0439
 2410SOL     OW 9405   5.449   3.592   4.874  0.0361 -0.1012  0.3108
 2410SOL    HW2 9406   5.367   3.542   4.870 -0.5698  0.9390 -0.6816
 2410SOL    HW3 9407   5.436   3.652   4.948  0.5197 -0.9623  1.1119
 2410SOL    MW4 9408   5.436   3.593   4.883  0.0199 -0.0776  0.2855
 2411SOL     OW 9409   0.926   3.193   4.243 -0.3319  0.8432  0.2001
 2411SOL    HW2 9410   0.947   3.234   4.159  1.2836  1.8914  1.0540
 2411SOL    HW3 9411   1.007   3.150   4.270 -1.8339 -2.7628 -0.4585
 2411SOL    MW4 9412   0.940   3.193   4.236 -0.3169  0.5058  0.2258
 2412SOL     OW 9413   4.895   0.111   3.052 -0.4632  0.0931  0.0590
 2412SOL    HW2 9414   4.986   0.088   3.075 -0.5391  0.1150  0.3882
 2412SOL    HW3 9415   4.904   0.179   2.985 -0.2275  0.5559  0.5467
 2412SOL    MW4 9416   4.908   0.117   3.046 -0.4422  0.1571  0.1668
 2413SOL     OW 9417   4.433   4.529   1.957  0.4612  0.1973  0.4211
 2413SOL    HW2 9418   4.389   4.506   2.039 -0.0864 -1.1468 -0.2206
 2413SOL    HW3 9419   4.487   4.453   1.936  1.0159  0.7459 -0.1986
 2413SOL    MW4 9420   4.434   4.516   1.965  0.4622  0.0924  0.2546
 2414SOL     OW 9421   1.377   5.158   3.974  0.1384 -0.2127  0.2643
 2414SOL    HW2 9422   1.297   5.112   4.002 -0.1484 -0.3281 -0.7049
 2414SOL    HW3 9423   1.374   5.155   3.879  1.1782  0.0157  0.2135
 2414SOL    MW4 9424   1.366   5.151   3.965  0.2377 -0.1978  0.1297
 2415SOL     OW 9425   5.069   0.148   4.407 -0.6194  0.5657 -0.9526
 2415SOL    HW2 9426   4.981   0.145   4.446 -1.0502 -2.3421 -1.9128
 2415SOL    HW3 9427   5.114   0.072   4.444  2.2092  2.9492  0.8769
 2415SOL    MW4 9428   5.063   0.137   4.417 -0.3031  0.4965 -0.8379
 2416SOL     OW 9429   5.625   3.598   4.039 -0.1502 -0.3455  0.5168
 2416SOL    HW2 9430   5.570   3.610   4.116 -0.9050 -0.8796  0.0634
 2416SOL    HW3 9431   5.571   3.549   3.977 -0.1341  1.3720 -0.9572
 2416SOL    MW4 9432   5.611   3.593   4.041 -0.2476 -0.1893  0.2625
 2417SOL     OW 9433   2.870   0.562   4.058  0.5615  0.2168  0.0890
 2417SOL    HW2 9434   2.935   0.609   4.005 -0.2642  1.1133 -0.1546
 2417SOL    HW3 9435   2.871   0.606   4.143 -0.8250  1.2797 -0.4073
 2417SOL    MW4 9436   2.879   0.574   4.062  0.2696  0.4753 -0.0086
 2418SOL     OW 9437   4.907   1.797   5.644 -0.2056 -0.3156  0.2232
 2418SOL    HW2 9438   4.916   1.892   5.640 -0.8087 -0.3025 -1.3101
 2418SOL    HW3 9439   4.993   1.766   5.673  0.0284  0.6781  0.6385
 2418SOL    MW4 9440   4.919   1.806   5.648 -0.2543 -0.1827  0.0757
 2419SOL     OW 9441   3.325   3.133   1.260 -0.4991  0.0072  0.0437
 2419SOL    HW2 9442   3.317   3.217   1.215 -0.4387 -0.7234 -1.3541
 2419SOL    HW3 9443   3.408   3.140   1.307 -0.3145  0.5837 -0.3558
 2419SOL    MW4 9444   3.335   3.145   1.261 -0.4668 -0.0131 -0.1935
 2420SOL     OW 9445   1.049   0.025   5.353  0.6451  0.1714  0.2311
 2420SOL    HW2 9446   1.144   0.021   5.361  0.6667 -1.7124 -0.3048
 2420SOL    HW3 9447   1.019   0.054   5.438  1.7131  1.2074  0.2751
 2420SOL    MW4 9448   1.058   0.028   5.365  0.7888  0.0596  0.1662
 2421SOL     OW 9449   0.093   4.074   0.584  0.4428 -0.2552  0.2932
 2421SOL    HW2 9450   0.183   4.067   0.554  1.1954  0.6837  2.1757
 2421SOL    HW3 9451   0.072   4.168   0.578  0.0213 -0.2940  0.9453
 2421SOL    MW4 9452   0.102   4.086   0.580  0.4865 -0.1364  0.6276
 2422SOL     OW 9453   2.380   3.788   0.994 -0.3943  0.3084  0.0955
 2422SOL    HW2 9454   2.302   3.836   1.021  0.0055  1.4390 -0.6752
 2422SOL    HW3 9455   2.418   3.842   0.925  1.6265  0.2950  1.1304
 2422SOL    MW4 9456   2.374   3.801   0.988 -0.0749  0.4558  0.1304
 2423SOL     OW 9457   2.161   3.518   0.808  0.2416 -0.3359  0.2575
 2423SOL    HW2 9458   2.103   3.589   0.782 -2.0845 -1.8671  0.9206
 2423SOL    HW3 9459   2.133   3.495   0.897  2.9717 -0.1507  1.2786
 2423SOL    MW4 9460   2.150   3.524   0.817  0.2949 -0.5135  0.4797
 2424SOL     OW 9461   1.993   2.613   3.441 -0.0726 -0.5363  0.1070
 2424SOL    HW2 9462   1.968   2.551   3.509 -2.7081 -1.0883 -1.2263
 2424SOL    HW3 9463   2.002   2.696   3.487  0.7466 -1.3326  1.4801
 2424SOL    MW4 9464   1.991   2.616   3.456 -0.3122 -0.7142  0.1123
 2425SOL     OW 9465   2.768   1.203   2.612 -0.2575  0.4173  0.4664
 2425SOL    HW2 9466   2.747   1.296   2.618  0.9352  0.6559  1.4280
 2425SOL    HW3 9467   2.783   1.187   2.519  1.2697  1.6245  0.4614
 2425SOL    MW4 9468   2.767   1.213   2.601  0.1014  0.6081  0.5926
 2426SOL     OW 9469   3.912   0.453   0.105 -0.1080 -0.0291 -0.6205
 2426SOL    HW2 9470   3.989   0.482   0.058  1.3887  0.1595  1.7870
 2426SOL    HW3 9471   3.911   0.358   0.094  0.8475 -0.1016 -0.1878
 2426SOL    MW4 9472   3.922   0.444   0.098  0.2155 -0.0138 -0.2458
 2427SOL     OW 9473   4.729   3.780   4.170  0.7519 -0.0806 -0.2028
 2427SOL    HW2 9474   4.662   3.814   4.229  2.4186  0.0233  1.7243
 2427SOL    HW3 9475   4.812   3.795   4.216  2.0655 -0.7915 -2.2045
 2427SOL    MW4 9476   4.731   3.786   4.184  1.1451 -0.1607 -0.2126
 2428SOL     OW 9477   3.842   2.674   2.825 -0.0132 -0.0076  0.2190
 2428SOL    HW2 9478   3.929   2.678   2.786  0.9752  1.9535  2.3750
 2428SOL    HW3 9479   3.799   2.755   2.797 -0.9653 -0.7019 -0.3838
 2428SOL    MW4 9480   3.848   2.685   2.816 -0.0084  0.1595  0.4240
 2429SOL     OW 9481   2.783   3.116   1.723  0.1522 -0.2900 -0.0367
 2429SOL    HW2 9482   2.689   3.128   1.710 -0.3223 -1.6627  1.6927
 2429SOL    HW3 9483   2.809   3.051   1.658 -0.2344 -0.4077 -0.0728
 2429SOL    MW4 9484   2.774   3.109   1.713  0.0386 -0.4866  0.1867
 2430SOL     OW 9485   5.505   4.615   2.073  0.0450  0.5676 -0.1850
 2430SOL    HW2 9486   5.473   4.526   2.089  1.4708 -0.2311 -1.5940
 2430SOL    HW3 9487   5.534   4.645   2.159 -0.7520 -0.1785  0.3723
 2430SOL    MW4 9488   5.504   4.607   2.087  0.1279  0.3638 -0.2974
 2431SOL     OW 9489   3.288   2.416   3.788  0.2132 -0.0197  0.3481
 2431SOL    HW2 9490   3.304   2.322   3.801  2.1121  0.4207  1.5062
 2431SOL    HW3 9491   3.371   2.450   3.753 -1.2658  0.8253 -2.7009
 2431SOL    MW4 9492   3.301   2.408   3.785  0.2686  0.1499  0.0987
 2432SOL     OW 9493   6.113   5.820   5.532  0.0886 -0.1163  0.2846
 2432SOL    HW2 9494   6.141   5.829   5.623 -0.1004  0.6942  0.2757
 2432SOL    HW3 9495   6.170   5.879   5.483 -0.8149  0.6398  0.1061
 2432SOL    MW4 9496   6.124   5.829   5.538 -0.0555  0.0904  0.2599
 2433SOL     OW 9497   3.883   4.418   3.716 -0.6068 -0.2423 -0.0783
 2433SOL    HW2 9498   3.946   4.346   3.722  0.3486  0.5230 -0.6715
 2433SOL    HW3 9499   3.810   4.382   3.664 -1.2034 -1.4862  1.5410
 2433SOL    MW4 9500   3.881   4.404   3.710 -0.5594 -0.3055  0.0571
 2434SOL     OW 9501   5.246   3.042   1.654 -0.5293  0.3396  0.1734
 2434SOL    HW2 9502   5.158   3.003   1.649 -1.4015  2.3522 -2.6327
 2434SOL    HW3 9503   5.304   2.968   1.670 -2.4766 -1.4914 -0.7622
 2434SOL    MW4 9504   5.242   3.027   1.655 -0.9013  0.3635 -0.3203
 2435SOL     OW 9505   5.909   3.201   1.160 -0.3516  0.4044  0.4306
 2435SOL    HW2 9506   5.933   3.239   1.244  1.6917  1.4033 -0.5159
 2435SOL    HW3 9507   5.945   3.262   1.095 -0.4990 -1.1082 -1.1451
 2435SOL    MW4 9508   5.917   3.214   1.163 -0.1015  0.3367  0.0978
 2436SOL     OW 9509   1.440   3.367   1.054  0.3459  0.0553 -0.0146
 2436SOL    HW2 9510   1.483   3.356   1.138 -0.2687 -0.3344  0.2562
 2436SOL    HW3 9511   1.501   3.420   1.002  0.0073  1.7594  1.2314
 2436SOL    MW4 9512   1.454   3.373   1.058  0.2201  0.2287  0.1855
 2437SOL     OW 9513   1.762   4.414   1.575 -0.2507  0.4344 -0.6003
 2437SOL    HW2 9514   1.810   4.337   1.544 -0.9124  0.2398 -1.1485
 2437SOL    HW3 9515   1.695   4.379   1.634 -0.6954  0.5753 -1.0241
 2437SOL    MW4 9516   1.760   4.400   1.579 -0.3966  0.4273 -0.7286
 2438SOL     OW 9517   2.849   5.480   0.182  0.0991 -0.1892  0.2270
 2438SOL    HW2 9518   2.921   5.506   0.124 -0.1297 -0.2701 -0.0953
 2438SOL    HW3 9519   2.800   5.416   0.131 -2.3189  2.4520 -1.0363
 2438SOL    MW4 9520   2.852   5.475   0.168 -0.2501  0.1486  0.0178
 2439SOL     OW 9521   3.543   0.345   6.332 -0.3593 -0.4473 -0.6305
 2439SOL    HW2 9522   3.628   0.384   6.313 -0.5573 -0.3515 -1.3741
 2439SOL    HW3 9523   3.550   0.313   6.422 -0.5850  2.3544  0.4837
 2439SOL    MW4 9524   3.555   0.346   6.341 -0.4152 -0.0650 -0.5816
 2440SOL     OW 9525   6.200   3.443   0.650 -0.1088 -0.7357  0.8037
 2440SOL    HW2 9526   6.235   3.381   0.714  2.0287 -0.6554 -0.1738
 2440SOL    HW3 9527   6.185   3.391   0.572  0.4777 -0.2651  0.3669
 2440SOL    MW4 9528   6.203   3.428   0.648  0.2506 -0.6630  0.6171
 2441SOL     OW 9529   0.196   4.880   4.827  0.0622 -0.0099  0.1783
 2441SOL    HW2 9530   0.104   4.886   4.801 -0.1574  0.8520  1.0722
 2441SOL    HW3 9531   0.217   4.787   4.819  0.0201  0.1561 -2.9421
 2441SOL    MW4 9532   0.187   4.868   4.823  0.0276  0.1257 -0.1154
 2442SOL     OW 9533   5.692   1.293   1.927  0.2791 -0.0931  0.6811
 2442SOL    HW2 9534   5.686   1.387   1.944  1.3576  0.5630 -2.0824
 2442SOL    HW3 9535   5.737   1.258   2.004  0.4800  1.7541  1.4652
 2442SOL    MW4 9536   5.697   1.301   1.939  0.4479  0.2372  0.4200
 2443SOL     OW 9537   2.597   4.824   4.487 -0.1057  0.2747  0.3281
 2443SOL    HW2 9538   2.631   4.805   4.574  0.1173 -0.3200  0.1154
 2443SOL    HW3 9539   2.561   4.740   4.457 -3.7735  1.2639  1.4150
 2443SOL    MW4 9540   2.597   4.810   4.494 -0.5602  0.3268  0.4434
 2444SOL     OW 9541   1.572   5.986   3.329  0.4479  0.0217 -0.4907
 2444SOL    HW2 9542   1.574   5.952   3.418  2.1069 -0.1813 -0.5747
 2444SOL    HW3 9543   1.650   6.042   3.323  0.7953 -0.5720 -2.0325
 2444SOL    MW4 9544   1.583   5.989   3.340  0.7127 -0.0834 -0.7052
 2445SOL     OW 9545   0.316   0.819   6.171  0.0034 -0.2297 -0.0150
 2445SOL    HW2 9546   0.286   0.729   6.159  0.8493 -0.5010 -0.1191
 2445SOL    HW3 9547   0.407   0.819   6.144  0.9147 -0.0124  2.7100
 2445SOL    MW4 9548   0.324   0.807   6.166  0.2352 -0.2368  0.3308
 2446SOL     OW 9549   2.733   6.399   3.334 -0.5856 -0.5915 -0.8118
 2446SOL    HW2 9550   2.792   6.445   3.394 -0.0356 -0.7174 -1.2531
 2446SOL    HW3 9551   2.652   6.449   3.339 -0.1068  0.2312 -1.0175
 2446SOL    MW4 9552   2.730   6.411   3.343 -0.4499 -0.4996 -0.8972
 2447SOL     OW 9553   4.978   3.068   1.041 -0.2875 -0.0628 -0.3394
 2447SOL    HW2 9554   4.908   3.002   1.043 -0.4142  0.0149  2.7976
 2447SOL    HW3 9555   5.020   3.062   1.127  3.7645 -0.1947 -2.0951
 2447SOL    MW4 9556   4.974   3.059   1.053  0.2304 -0.0700 -0.1571
 2448SOL     OW 9557   5.873   4.015   1.794 -0.0501  0.4035 -0.3817
 2448SOL    HW2 9558   5.838   3.989   1.708 -1.6141  1.1795 -0.0142
 2448SOL    HW3 9559   5.961   4.047   1.775 -0.2752  0.3290 -1.6612
 2448SOL    MW4 9560   5.880   4.016   1.780 -0.2861  0.4960 -0.5021
 2449SOL     OW 9561   4.734   5.602   4.041  0.4835 -0.1578  0.5527
 2449SOL    HW2 9562   4.732   5.672   3.976  1.5820 -0.0392  0.6275
 2449SOL    HW3 9563   4.760   5.524   3.991 -0.2652 -0.4139  0.5566
 2449SOL    MW4 9564   4.737   5.601   4.026  0.5296 -0.1759  0.5631
 2450SOL     OW 9565   2.107   1.317   5.437  0.1214  0.5757 -0.7742
 2450SOL    HW2 9566   2.042   1.290   5.502  2.4195 -0.7203  1.1488
 2450SOL    HW3 9567   2.131   1.406   5.462  2.0449 -0.3953  1.2613
 2450SOL    MW4 9568   2.102   1.325   5.449  0.6784  0.2766 -0.2519
 2451SOL     OW 9569   3.014   4.222   4.036  0.2110  0.2509  0.4402
 2451SOL    HW2 9570   3.070   4.154   4.073  0.9656 -0.2655 -1.5580
 2451SOL    HW3 9571   2.930   4.178   4.021  0.0010  0.3805  1.1509
 2451SOL    MW4 9572   3.010   4.207   4.039  0.2829  0.1999  0.2703
 2452SOL     OW 9573   0.106   5.601   3.236  0.7096 -0.2581 -0.0182
 2452SOL    HW2 9574   0.044   5.540   3.276 -0.0042  0.6714  0.3438
 2452SOL    HW3 9575   0.056   5.642   3.165  1.6229 -1.0881 -1.1874
 2452SOL    MW4 9576   0.091   5.598   3.232  0.7359 -0.2450 -0.1247
 2453SOL     OW 9577   4.817   4.182   5.033 -0.3161  0.2141  0.3026
 2453SOL    HW2 9578   4.864   4.223   4.960 -0.0869 -0.0894  0.2765
 2453SOL    HW3 9579   4.787   4.256   5.086 -1.7167  0.5125 -0.8367
 2453SOL    MW4 9580   4.819   4.197   5.030 -0.4707  0.2134  0.1488
 2454SOL     OW 9581   5.974   0.974   4.220  0.1147 -0.1695 -0.0599
 2454SOL    HW2 9582   6.013   0.967   4.133 -1.4198 -1.3451 -0.7111
 2454SOL    HW3 9583   5.995   1.063   4.249 -0.6397  0.8189 -2.3216
 2454SOL    MW4 9584   5.982   0.985   4.212 -0.1873 -0.1942 -0.4442
 2455SOL     OW 9585   5.677   4.275   2.601 -0.2570  0.6670 -0.2066
 2455SOL    HW2 9586   5.634   4.351   2.562  0.9967  0.7046 -1.5799
 2455SOL    HW3 9587   5.758   4.309   2.639  0.4239  0.0066 -1.0276
 2455SOL    MW4 9588   5.682   4.289   2.601 -0.0018  0.5848 -0.4961
 2456SOL     OW 9589   5.929   2.474   3.088  0.0275 -0.3571  0.1933
 2456SOL    HW2 9590   5.838   2.504   3.078 -0.4505 -0.9783  2.2433
 2456SOL    HW3 9591   5.978   2.554   3.106 -0.4276 -0.2075  0.8202
 2456SOL    MW4 9592   5.923   2.489   3.089 -0.0956 -0.4193  0.5465
 2457SOL     OW 9593   6.145   3.850   1.037  0.5740 -0.0632 -0.2454
 2457SOL    HW2 9594   6.119   3.761   1.060  0.4954 -0.1096 -0.5139
 2457SOL    HW3 9595   6.077   3.881   0.978  1.3697 -0.3673 -1.3451
 2457SOL    MW4 9596   6.133   3.842   1.032  0.6686 -0.1095 -0.4259
 2458SOL     OW 9597   4.659   5.572   1.379 -0.4291 -0.0970  0.0804
 2458SOL    HW2 9598   4.575   5.578   1.426 -0.3686  0.0648  0.1693
 2458SOL    HW3 9599   4.705   5.652   1.404 -0.7409  0.4051 -0.9095
 2458SOL    MW4 9600   4.654   5.584   1.389 -0.4623 -0.0094 -0.0385
 2459SOL     OW 9601   5.247   3.867   4.373  0.4559 -0.8027  0.3402
 2459SOL    HW2 9602   5.279   3.957   4.380  0.9082 -0.9550  0.2453
 2459SOL    HW3 9603   5.194   3.854   4.451  0.0582 -0.3197  0.1535
 2459SOL    MW4 9604   5.244   3.877   4.384  0.4631 -0.7590  0.3031
 2460SOL     OW 9605   0.191   0.366   1.419 -0.8001  0.3418  0.4389
 2460SOL    HW2 9606   0.204   0.341   1.328  0.5749 -1.0044  0.9499
 2460SOL    HW3 9607   0.120   0.430   1.417 -0.2245  0.9920 -1.6580
 2460SOL    MW4 9608   0.183   0.371   1.407 -0.5427  0.2500  0.2296
 2461SOL     OW 9609   3.660   4.119   5.011 -0.1231  0.0437 -0.2094
 2461SOL    HW2 9610   3.666   4.094   4.919 -0.6536  1.9687 -0.8310
 2461SOL    HW3 9611   3.594   4.189   5.011 -0.0881  0.1027  1.6273
 2461SOL    MW4 9612   3.652   4.125   4.999 -0.1884  0.3055 -0.0491
 2462SOL     OW 9613   1.981   1.922   6.110  0.8679  0.3933 -0.6694
 2462SOL    HW2 9614   2.070   1.932   6.144  0.8285  0.2487 -0.5205
 2462SOL    HW3 9615   1.927   1.972   6.170  0.1654 -3.4352  2.2912
 2462SOL    MW4 9616   1.986   1.930   6.122  0.7700 -0.1309 -0.2592
 2463SOL     OW 9617   6.182   1.090   1.190 -0.4985  0.3322  0.2164
 2463SOL    HW2 9618   6.261   1.138   1.163 -1.9217  1.5726 -2.0172
 2463SOL    HW3 9619   6.214   1.025   1.253  2.0426  1.8942  0.6856
 2463SOL    MW4 9620   6.197   1.088   1.195 -0.3510  0.7019 -0.0164
 2464SOL     OW 9621   0.610   1.101   5.801 -0.1805  0.0631 -0.3213
 2464SOL    HW2 9622   0.576   1.103   5.711 -0.5589 -0.8814 -0.2084
 2464SOL    HW3 9623   0.539   1.135   5.854 -0.5938 -0.9225 -0.2080
 2464SOL    MW4 9624   0.596   1.105   5.796 -0.2849 -0.1915 -0.2914
 2465SOL     OW 9625   1.257   4.347   3.620  0.5308  0.7524 -0.1893
 2465SOL    HW2 9626   1.312   4.283   3.667  1.0821  1.3871  0.0451
 2465SOL    HW3 9627   1.189   4.371   3.684  0.0677  0.0983 -0.4202
 2465SOL    MW4 9628   1.255   4.342   3.635  0.5425  0.7499 -0.1888
 2466SOL     OW 9629   4.059   4.940   5.049  0.4132  0.3043  0.3614
 2466SOL    HW2 9630   4.135   4.975   5.002  0.0837 -0.6838 -0.9770
 2466SOL    HW3 9631   4.062   4.982   5.135  1.1125  2.1057 -0.5036
 2466SOL    MW4 9632   4.069   4.950   5.054  0.4620  0.4116  0.0707
 2467SOL     OW 9633   3.065   6.363   6.220  0.1184  0.3490 -0.3353
 2467SOL    HW2 9634   3.073   6.285   6.276 -2.0544  0.1956 -0.1494
 2467SOL    HW3 9635   3.056   6.436   6.281  0.7711  0.5967 -0.5194
 2467SOL    MW4 9636   3.065   6.362   6.235 -0.0821  0.3615 -0.3351
 2468SOL     OW 9637   2.829   4.015   5.989 -0.6305 -0.3044 -0.5016
 2468SOL    HW2 9638   2.856   4.021   5.897 -0.6536 -0.8493 -0.5473
 2468SOL    HW3 9639   2.871   3.935   6.021 -0.6623 -0.1426 -0.0516
 2468SOL    MW4 9640   2.838   4.005   5.981 -0.6377 -0.3550 -0.4483
 2469SOL     OW 9641   0.824   0.945   4.716 -0.0308 -0.0403  0.3359
 2469SOL    HW2 9642   0.745   0.953   4.662  1.1346  1.6792 -1.2123
 2469SOL    HW3 9643   0.876   0.878   4.673 -0.3724 -0.8046  1.0704
 2469SOL    MW4 9644   0.820   0.938   4.703  0.0779  0.0857  0.2285
 2470SOL     OW 9645   4.628   2.730   1.792  0.3516  0.3899 -0.6265
 2470SOL    HW2 9646   4.691   2.760   1.858  3.0087  2.3829 -3.7413
 2470SOL    HW3 9647   4.655   2.641   1.773 -0.2443 -0.0950  0.6573
 2470SOL    MW4 9648   4.640   2.722   1.798  0.6235  0.5888 -0.8681
 2471SOL     OW 9649   0.244   0.708   2.087 -0.6883 -0.2329  0.2426
 2471SOL    HW2 9650   0.250   0.733   2.179 -0.0433 -0.7767  0.3578
 2471SOL    HW3 9651   0.324   0.743   2.047 -0.6157 -0.6206  0.0442
 2471SOL    MW4 9652   0.256   0.716   2.093 -0.5936 -0.3558  0.2316
 2472SOL     OW 9653   1.683   5.984   2.574 -0.1159  0.8286  0.1649
 2472SOL    HW2 9654   1.626   6.059   2.590  0.5685  1.1398  1.2178
 2472SOL    HW3 9655   1.658   5.920   2.641 -0.0153  0.5067 -0.1024
 2472SOL    MW4 9656   1.672   5.986   2.585 -0.0123  0.8272  0.2686
 2473SOL     OW 9657   4.293   6.382   3.252  0.2678  0.7129  0.0304
 2473SOL    HW2 9658   4.364   6.403   3.192  0.7346 -0.0218  0.3051
 2473SOL    HW3 9659   4.252   6.466   3.272  0.5072  1.0374 -0.8112
 2473SOL    MW4 9660   4.297   6.396   3.247  0.3610  0.6588 -0.0444
 2474SOL     OW 9661   5.095   0.703   0.927 -0.4186  0.2358 -0.5453
 2474SOL    HW2 9662   5.072   0.631   0.986  1.2533 -1.1871 -1.5442
 2474SOL    HW3 9663   5.151   0.760   0.980 -2.0920  1.0835  0.3809
 2474SOL    MW4 9664   5.099   0.701   0.942 -0.4188  0.1599 -0.5549
 2475SOL     OW 9665   5.939   3.705   4.212  0.6582  0.6766  0.2416
 2475SOL    HW2 9666   5.979   3.684   4.128  2.2556  0.7483  0.9632
 2475SOL    HW3 9667   5.911   3.620   4.246  2.0248  0.3545  0.6204
 2475SOL    MW4 9668   5.940   3.691   4.205  1.0493  0.6435  0.3868
 2476SOL     OW 9669   4.401   4.637   4.347  0.6832 -0.0957 -0.5335
 2476SOL    HW2 9670   4.386   4.565   4.286  1.3985 -0.6174 -0.1075
 2476SOL    HW3 9671   4.363   4.713   4.303  0.8173 -0.5334 -1.4425
 2476SOL    MW4 9672   4.394   4.638   4.333  0.7953 -0.2223 -0.5973
 2477SOL     OW 9673   0.173   2.528   3.363 -0.2871 -0.0373  0.3177
 2477SOL    HW2 9674   0.193   2.494   3.451 -0.4092 -0.4174  0.1999
 2477SOL    HW3 9675   0.077   2.522   3.357 -0.5154  2.0689  1.0067
 2477SOL    MW4 9676   0.163   2.523   3.374 -0.3333  0.1905  0.3931
 2478SOL     OW 9677   5.590   2.088   2.292  0.2543 -0.1059  0.2721
 2478SOL    HW2 9678   5.584   2.074   2.197  0.1266 -1.3992  0.4492
 2478SOL    HW3 9679   5.542   2.169   2.307 -1.1336 -0.7172 -0.5984
 2478SOL    MW4 9680   5.583   2.097   2.281  0.0544 -0.3572  0.1806
 2479SOL     OW 9681   5.528   4.723   1.284 -0.0755 -0.0052  0.0753
 2479SOL    HW2 9682   5.613   4.726   1.240 -1.5223 -0.2982 -3.0029
 2479SOL    HW3 9683   5.522   4.634   1.319  0.4363 -0.3279 -0.6337
 2479SOL    MW4 9684   5.539   4.712   1.283 -0.1989 -0.0865 -0.4244
 2480SOL     OW 9685   1.196   1.042   2.158  0.7667  0.0008 -0.5059
 2480SOL    HW2 9686   1.218   1.119   2.210 -0.1152 -1.2780  1.9201
 2480SOL    HW3 9687   1.124   1.000   2.206  1.2135 -2.3300 -1.7268
 2480SOL    MW4 9688   1.189   1.047   2.171  0.7093 -0.4754 -0.3469
 2481SOL     OW 9689   0.897   2.783   3.834 -0.0980  0.2674 -0.0450
 2481SOL    HW2 9690   0.871   2.836   3.910  0.8011  0.6570  0.0072
 2481SOL    HW3 9691   0.881   2.693   3.862  1.9500  0.2657  1.3507
 2481SOL    MW4 9692   0.892   2.778   3.848  0.2908  0.3185  0.1460
 2482SOL     OW 9693   0.390   6.086   4.377  0.3275  0.3046 -0.2044
 2482SOL    HW2 9694   0.474   6.133   4.380  0.6573 -0.3004  0.2418
 2482SOL    HW3 9695   0.371   6.067   4.469 -0.3100  0.4515 -0.3044
 2482SOL    MW4 9696   0.399   6.090   4.390  0.2869  0.2442 -0.1587
 2483SOL     OW 9697   5.344   0.306   1.175 -0.2968 -0.1019  0.0886
 2483SOL    HW2 9698   5.402   0.335   1.246 -0.7575  0.4342  0.2520
 2483SOL    HW3 9699   5.377   0.219   1.152 -0.0449 -0.2229  0.8584
 2483SOL    MW4 9700   5.356   0.299   1.182 -0.3243 -0.0472  0.2117
 2484SOL     OW 9701   1.017   2.217   0.095 -0.1177  0.1277  0.6333
 2484SOL    HW2 9702   0.925   2.192   0.095 -0.7885  1.8320 -3.0167
 2484SOL    HW3 9703   1.021   2.292   0.155 -0.7334 -0.8680  1.9612
 2484SOL    MW4 9704   1.006   2.224   0.103 -0.2874  0.2212  0.3269
 2485SOL     OW 9705   0.227   5.185   2.739 -0.6901 -0.4943 -0.2180
 2485SOL    HW2 9706   0.157   5.249   2.753  0.0491 -0.0576  1.7649
 2485SOL    HW3 9707   0.238   5.142   2.824  1.2434 -0.7516 -0.5606
 2485SOL    MW4 9708   0.219   5.188   2.752 -0.3375 -0.4706 -0.0016
 2486SOL     OW 9709   0.840   2.452   0.729 -0.2996 -0.5201  0.1173
 2486SOL    HW2 9710   0.807   2.528   0.778  0.1002  0.5153 -1.1545
 2486SOL    HW3 9711   0.893   2.404   0.793  0.4432  0.9555  0.6566
 2486SOL    MW4 9712   0.843   2.456   0.744 -0.1489 -0.1888  0.0206
 2487SOL     OW 9713   1.738   4.005   4.843  0.1657 -0.0757  0.1542
 2487SOL    HW2 9714   1.786   3.927   4.813 -0.2637 -0.1341 -0.4028
 2487SOL    HW3 9715   1.805   4.073   4.849  0.8265 -0.8238  2.0662
 2487SOL    MW4 9716   1.754   4.004   4.840  0.1962 -0.1821  0.3330
 2488SOL     OW 9717   1.562   5.808   3.076  0.3432  0.3371 -0.0665
 2488SOL    HW2 9718   1.582   5.835   3.166  0.5757 -1.8624  0.6031
 2488SOL    HW3 9719   1.491   5.744   3.085  1.3788 -1.0593 -1.2548
 2488SOL    MW4 9720   1.555   5.803   3.089  0.5105 -0.1373 -0.1349
 2489SOL     OW 9721   3.236   5.446   1.885  0.1795  0.0292 -0.3190
 2489SOL    HW2 9722   3.291   5.370   1.866 -0.0511 -0.7863  1.9697
 2489SOL    HW3 9723   3.152   5.409   1.912 -0.2790  1.1271 -0.1755
 2489SOL    MW4 9724   3.233   5.431   1.886  0.0886  0.0665  0.0019
 2490SOL     OW 9725   5.750   3.337   3.677  0.0918 -0.1733  0.2814
 2490SOL    HW2 9726   5.672   3.304   3.632  1.9191 -2.6951 -1.2752
 2490SOL    HW3 9727   5.716   3.399   3.742 -3.2085 -1.4814 -0.0278
 2490SOL    MW4 9728   5.735   3.341   3.680 -0.1026 -0.6786  0.0353
 2491SOL     OW 9729   6.342   2.457   6.403  0.9544 -0.5008 -0.3413
 2491SOL    HW2 9730   6.253   2.457   6.439 -0.0722  0.1824 -2.7099
 2491SOL    HW3 9731   6.348   2.374   6.355  1.2870 -0.1477 -0.9142
 2491SOL    MW4 9732   6.331   2.446   6.402  0.8628 -0.3641 -0.7294
 2492SOL     OW 9733   4.458   4.634   0.707 -0.1719 -0.3088 -0.1248
 2492SOL    HW2 9734   4.453   4.594   0.794  2.1401 -2.9114 -1.0308
 2492SOL    HW3 9735   4.421   4.567   0.648 -2.0344  1.5437 -1.1773
 2492SOL    MW4 9736   4.452   4.620   0.711 -0.1126 -0.4078 -0.3832
 2493SOL     OW 9737   4.497   4.456   2.983 -0.7484 -0.2729  0.0076
 2493SOL    HW2 9738   4.543   4.503   2.914  0.9418 -3.4828 -1.2969
 2493SOL    HW3 9739   4.543   4.480   3.064 -0.7433  1.1775 -0.4118
 2493SOL    MW4 9740   4.509   4.465   2.985 -0.5247 -0.5051 -0.2198
 2494SOL     OW 9741   5.726   3.337   4.019 -0.5410  0.4753  0.1483
 2494SOL    HW2 9742   5.643   3.296   4.042  0.2289 -0.1159  2.1113
 2494SOL    HW3 9743   5.722   3.423   4.060  0.9285 -0.6613  2.9524
 2494SOL    MW4 9744   5.715   3.343   4.028 -0.2455  0.2473  0.7772
 2495SOL     OW 9745   5.124   0.903   5.943  0.2618  0.0670 -0.1639
 2495SOL    HW2 9746   5.039   0.906   5.900  0.3019  0.2986 -0.2273
 2495SOL    HW3 9747   5.133   0.989   5.984  0.8191  0.3302 -0.8351
 2495SOL    MW4 9748   5.114   0.915   5.943  0.3406  0.1323 -0.2608
 2496SOL     OW 9749   5.082   1.351   2.917 -0.3666 -0.0350  0.9773
 2496SOL    HW2 9750   5.056   1.443   2.909 -0.3962  0.0101  1.5680
 2496SOL    HW3 9751   5.177   1.352   2.910 -0.1029  0.3639  3.5236
 2496SOL    MW4 9752   5.091   1.364   2.915 -0.3357  0.0236  1.3912
 2497SOL     OW 9753   1.678   0.124   5.471 -0.1759 -0.2735 -0.3883
 2497SOL    HW2 9754   1.748   0.061   5.454  1.3504  0.8360  1.4169
 2497SOL    HW3 9755   1.718   0.191   5.526 -2.0014  1.7881 -1.3864
 2497SOL    MW4 9756   1.692   0.124   5.476 -0.2154  0.1449 -0.2818
 2498SOL     OW 9757   0.474   5.844   4.917 -0.2924  0.1918 -0.6005
 2498SOL    HW2 9758   0.381   5.834   4.898 -0.2449 -0.3383 -0.5833
 2498SOL    HW3 9759   0.477   5.902   4.993 -0.7314 -1.3411  0.6511
 2498SOL    MW4 9760   0.462   5.850   4.925 -0.3440 -0.0804 -0.4331
 2499SOL     OW 9761   1.387   5.511   5.298  0.1836  0.8990 -0.0589
 2499SOL    HW2 9762   1.426   5.454   5.231 -0.4356  0.5998 -0.1711
 2499SOL    HW3 9763   1.316   5.556   5.252 -0.4751  0.4302  0.4834
 2499SOL    MW4 9764   1.383   5.509   5.283  0.0150  0.7977 -0.0021
 2500SOL     OW 9765   4.567   4.151   5.915  0.3942 -0.1445  0.3315
 2500SOL    HW2 9766   4.622   4.217   5.957  1.2286 -0.3269 -0.4347
 2500SOL    HW3 9767   4.514   4.116   5.986  1.0490  0.2599  1.0433
 2500SOL    MW4 9768   4.568   4.155   5.930  0.5907 -0.1152  0.3243
 2501SOL     OW 9769   3.115   1.689   3.279  0.0995 -0.1139 -0.3265
 2501SOL    HW2 9770   3.133   1.767   3.226 -1.5041  1.0217  0.7261
 2501SOL    HW3 9771   3.148   1.616   3.226 -0.1957  1.0971 -2.2634
 2501SOL    MW4 9772   3.122   1.689   3.265 -0.1510  0.1957 -0.4431
 2502SOL     OW 9773   1.237   4.221   3.972  0.0571 -0.0823 -0.5475
 2502SOL    HW2 9774   1.211   4.309   4.000 -1.1993  0.1007 -2.1592
 2502SOL    HW3 9775   1.155   4.173   3.965  0.7599 -1.5690  0.7392
 2502SOL    MW4 9776   1.223   4.226   3.975 -0.0159 -0.2543 -0.5904
 2503SOL     OW 9777   4.982   4.819   6.159  0.1408 -0.2024  0.5300
 2503SOL    HW2 9778   4.977   4.778   6.246 -3.0489  0.3588  0.7470
 2503SOL    HW3 9779   5.035   4.897   6.172  0.1670 -0.4146  1.8634
 2503SOL    MW4 9780   4.988   4.824   6.172 -0.2766 -0.1564  0.7346
 2504SOL     OW 9781   3.520   4.819   0.937 -0.2219 -0.3014  0.0464
 2504SOL    HW2 9782   3.566   4.861   1.009  0.6358  0.4638 -0.9258
 2504SOL    HW3 9783   3.440   4.870   0.926 -0.3749 -0.4480  0.4888
 2504SOL    MW4 9784   3.516   4.831   0.945 -0.1289 -0.2198 -0.0235
 2505SOL     OW 9785   6.351   0.211   2.618 -0.1781  0.3839  0.3420
 2505SOL    HW2 9786   6.279   0.273   2.616  0.1308  0.8381  1.8989
 2505SOL    HW3 9787   6.383   0.214   2.709  0.3429 -1.4712  0.2611
 2505SOL    MW4 9788   6.346   0.220   2.630 -0.0686  0.1991  0.5368
 2506SOL     OW 9789   3.928   0.931   1.808  0.0973 -0.1903  0.3536
 2506SOL    HW2 9790   3.934   0.846   1.851 -0.0843 -0.4051 -0.0436
 2506SOL    HW3 9791   3.947   0.913   1.716 -1.9682 -0.1457 -0.1154
 2506SOL    MW4 9792   3.932   0.918   1.801 -0.1992 -0.2128  0.2393
 2507SOL     OW 9793   3.273   6.401   1.020  0.2320 -0.2253  0.1417
 2507SOL    HW2 9794   3.233   6.338   1.080  0.3416 -2.5295 -2.0106
 2507SOL    HW3 9795   3.224   6.389   0.938  1.2744  1.4254 -0.7688
 2507SOL    MW4 9796   3.261   6.391   1.017  0.3840 -0.3115 -0.2624
 2508SOL     OW 9797   6.373   3.556   4.064 -0.0222 -0.3403 -0.5774
 2508SOL    HW2 9798   6.434   3.582   3.996  0.7116 -1.1580 -0.2518
 2508SOL    HW3 9799   6.298   3.518   4.017 -0.3577  0.7843 -0.9813
 2508SOL    MW4 9800   6.371   3.555   4.049  0.0304 -0.2998 -0.5877
 2509SOL     OW 9801   3.250   5.569   6.151  0.2839 -0.3289 -0.1133
 2509SOL    HW2 9802   3.279   5.591   6.063 -0.4695  1.6692  0.0994
 2509SOL    HW3 9803   3.324   5.522   6.190  0.3329 -1.9694 -2.0344
 2509SOL    MW4 9804   3.264   5.565   6.145  0.1910 -0.2817 -0.3387
 2510SOL     OW 9805   3.391   2.514   4.437  0.3127  0.3528 -0.5974
 2510SOL    HW2 9806   3.430   2.585   4.488 -0.3991  0.1101  0.3223
 2510SOL    HW3 9807   3.345   2.558   4.366 -0.3676  0.8476  0.1293
 2510SOL    MW4 9808   3.391   2.529   4.435  0.1291  0.3861 -0.3802
 2511SOL     OW 9809   6.088   1.264   3.322 -0.0343  0.1897 -0.2690
 2511SOL    HW2 9810   5.994   1.276   3.308 -0.2789  0.8311  1.6837
 2511SOL    HW3 9811   6.128   1.298   3.241 -1.4434  0.2162 -0.9886
 2511SOL    MW4 9812   6.081   1.270   3.309 -0.2525  0.2779 -0.1063
 2512SOL     OW 9813   6.235   2.632   3.614 -0.1785  0.0255  0.0288
 2512SOL    HW2 9814   6.179   2.676   3.678 -0.9190  1.6310 -1.6600
 2512SOL    HW3 9815   6.306   2.594   3.667 -1.3048  0.4055  1.8881
 2512SOL    MW4 9816   6.237   2.633   3.630 -0.4248  0.2875  0.0513
 2513SOL     OW 9817   1.916   2.200   4.176 -0.1230 -0.1235  0.1866
 2513SOL    HW2 9818   1.885   2.112   4.199 -2.0640  0.6315  0.6512
 2513SOL    HW3 9819   1.983   2.220   4.241 -0.1684 -0.9845  0.5157
 2513SOL    MW4 9820   1.921   2.191   4.187 -0.3850 -0.1375  0.2913
 2514SOL     OW 9821   0.636   5.266   1.220  0.1975  0.6991 -0.0100
 2514SOL    HW2 9822   0.600   5.354   1.225  1.0540  1.1903 -1.5318
 2514SOL    HW3 9823   0.591   5.217   1.288 -2.3606  1.5881 -0.9371
 2514SOL    MW4 9824   0.625   5.271   1.229 -0.0270  0.8812 -0.3331
 2515SOL     OW 9825   5.699   1.336   5.602 -0.3288  0.0724  0.1231
 2515SOL    HW2 9826   5.625   1.349   5.662 -2.6815 -1.0111 -2.3335
 2515SOL    HW3 9827   5.672   1.379   5.521  0.0166 -3.3926 -2.0525
 2515SOL    MW4 9828   5.685   1.343   5.599 -0.5936 -0.5277 -0.4881
 2516SOL     OW 9829   4.865   2.092   3.591  0.1628 -0.2192 -0.8047
 2516SOL    HW2 9830   4.813   2.079   3.512 -1.5595  4.4588 -0.7637
 2516SOL    HW3 9831   4.936   2.151   3.564  0.2249  0.5485  0.8837
 2516SOL    MW4 9832   4.868   2.099   3.577 -0.0562  0.4993 -0.5766
 2517SOL     OW 9833   0.611   5.609   5.697 -0.4373  0.0128 -0.7807
 2517SOL    HW2 9834   0.593   5.662   5.774 -0.6497 -0.2391 -0.6549
 2517SOL    HW3 9835   0.706   5.609   5.688 -0.2931 -1.3166  0.4420
 2517SOL    MW4 9836   0.621   5.616   5.706 -0.4463 -0.1958 -0.6028
 2518SOL     OW 9837   3.793   1.974   4.773 -0.2740 -0.9333  0.0854
 2518SOL    HW2 9838   3.854   1.902   4.789  0.7265 -0.7732 -2.4896
 2518SOL    HW3 9839   3.844   2.053   4.790 -0.3168 -0.8071 -0.3658
 2518SOL    MW4 9840   3.808   1.975   4.777 -0.1477 -0.8955 -0.3139
 2519SOL     OW 9841   1.415   3.807   6.322 -0.2509 -0.3541 -0.1149
 2519SOL    HW2 9842   1.377   3.887   6.285  0.0000 -0.0685  0.2445
 2519SOL    HW3 9843   1.372   3.736   6.274 -0.5009 -0.0056 -0.4111
 2519SOL    MW4 9844   1.404   3.808   6.311 -0.2508 -0.2705 -0.1066
 2520SOL     OW 9845   1.818   4.815   1.622  0.1262 -0.4705 -0.5212
 2520SOL    HW2 9846   1.753   4.786   1.558  1.6458 -0.1071 -2.2762
 2520SOL    HW3 9847   1.828   4.909   1.606 -1.5805  0.3016  2.2472
 2520SOL    MW4 9848   1.811   4.823   1.612  0.1015 -0.3207 -0.3875
 2521SOL     OW 9849   6.156   3.601   0.260  0.3440  0.2606  0.1119
 2521SOL    HW2 9850   6.189   3.522   0.302  0.3638  0.9394  1.4363
 2521SOL    HW3 9851   6.119   3.571   0.177 -1.0906 -1.3906  1.2778
 2521SOL    MW4 9852   6.155   3.587   0.254  0.1574  0.1323  0.4405
 2522SOL     OW 9853   2.086   6.149   4.309 -0.2863 -0.5437 -0.7103
 2522SOL    HW2 9854   2.056   6.207   4.379  0.5225  0.8844 -1.4913
 2522SOL    HW3 9855   2.151   6.092   4.351  0.1201  0.2319 -0.2686
 2522SOL    MW4 9856   2.091   6.149   4.324 -0.1260 -0.2530 -0.7551
 2523SOL     OW 9857   1.293   4.453   2.339  0.0145  0.3752 -0.0201
 2523SOL    HW2 9858   1.320   4.366   2.371  0.3718  1.0969  1.7932
 2523SOL    HW3 9859   1.210   4.437   2.295 -0.0081 -0.8790  0.4148
 2523SOL    MW4 9860   1.286   4.439   2.338  0.0586  0.3049  0.2765
 2524SOL     OW 9861   1.259   3.059   3.847  0.1428 -0.5813  0.1169
 2524SOL    HW2 9862   1.236   3.032   3.936 -0.4096 -0.5041  0.0018
 2524SOL    HW3 9863   1.352   3.084   3.853 -0.0619  0.0642  0.8309
 2524SOL    MW4 9864   1.268   3.059   3.859  0.0429 -0.4859  0.1959
 2525SOL     OW 9865   1.791   0.816   1.338  0.2522  0.3458 -0.1344
 2525SOL    HW2 9866   1.739   0.893   1.361  0.3448  0.2723  0.3267
 2525SOL    HW3 9867   1.842   0.797   1.417  0.6025  0.1140 -0.4148
 2525SOL    MW4 9868   1.791   0.824   1.351  0.3106  0.3055 -0.1106
 2526SOL     OW 9869   2.599   0.423   1.098 -0.3775 -0.5017 -0.0262
 2526SOL    HW2 9870   2.537   0.401   1.029 -1.1166 -0.7909  0.7044
 2526SOL    HW3 9871   2.625   0.338   1.134  0.7792 -0.4082 -0.5924
 2526SOL    MW4 9872   2.594   0.408   1.094 -0.3224 -0.5275 -0.0045
 2527SOL     OW 9873   4.731   3.799   1.688 -0.0729 -0.8400 -0.4142
 2527SOL    HW2 9874   4.734   3.724   1.747  3.5338  0.1655  0.9675
 2527SOL    HW3 9875   4.822   3.811   1.659 -0.8452  1.7812 -2.1557
 2527SOL    MW4 9876   4.744   3.791   1.692  0.3011 -0.3615 -0.4617
 2528SOL     OW 9877   6.334   4.717   5.386 -0.2922  0.0017  0.3391
 2528SOL    HW2 9878   6.295   4.797   5.353 -0.4737 -1.1308 -2.4677
 2528SOL    HW3 9879   6.425   4.721   5.357 -0.2907 -0.7845  0.2196
 2528SOL    MW4 9880   6.341   4.728   5.378 -0.3159 -0.2514 -0.0470
 2529SOL     OW 9881   1.532   2.617   1.572 -0.2078 -0.4789  0.2462
 2529SOL    HW2 9882   1.482   2.676   1.515 -1.8892 -1.1905  0.9197
 2529SOL    HW3 9883   1.612   2.600   1.524 -0.6133  0.6921 -0.9074
 2529SOL    MW4 9884   1.536   2.623   1.558 -0.4831 -0.4183  0.1829
 2530SOL     OW 9885   2.410   0.178   4.640  0.2345 -0.2490 -0.3943
 2530SOL    HW2 9886   2.453   0.117   4.581  2.0320 -0.8299  1.3877
 2530SOL    HW3 9887   2.475   0.195   4.709 -1.0344  1.9107  0.3828
 2530SOL    MW4 9888   2.424   0.172   4.642  0.3042 -0.0407 -0.0567
 2531SOL     OW 9889   5.622   5.693   0.600  0.8182 -0.1922 -0.8353
 2531SOL    HW2 9890   5.636   5.617   0.657 -0.5727  0.5762  0.6434
 2531SOL    HW3 9891   5.697   5.750   0.616  1.0454 -0.5297 -0.6949
 2531SOL    MW4 9892   5.634   5.690   0.610  0.6647 -0.1354 -0.6217
 2532SOL     OW 9893   0.495   4.236   4.149  0.4403  0.1843 -0.7486
 2532SOL    HW2 9894   0.474   4.324   4.120 -0.5384 -0.5293 -2.3820
 2532SOL    HW3 9895   0.419   4.208   4.199  0.2786 -0.0871 -1.1340
 2532SOL    MW4 9896   0.482   4.244   4.152  0.2898  0.0544 -1.0150
 2533SOL     OW 9897   4.671   4.292   4.182 -0.2608  0.0840  0.2702
 2533SOL    HW2 9898   4.764   4.272   4.180 -0.0661  1.0059 -0.8930
 2533SOL    HW3 9899   4.631   4.218   4.227  0.9471 -0.6401  0.1800
 2533SOL    MW4 9900   4.678   4.280   4.188 -0.0757  0.1101  0.1049
 2534SOL     OW 9901   2.026   0.064   5.632 -0.2612  0.5955 -0.2859
 2534SOL    HW2 9902   2.117   0.037   5.642  0.0860  0.5211 -2.9470
 2534SOL    HW3 9903   1.997   0.086   5.721  2.0689 -0.1935  0.7315
 2534SOL    MW4 9904   2.034   0.064   5.645  0.0920  0.4816 -0.5028
 2535SOL     OW 9905   4.685   3.474   2.671 -0.1021  0.6090  0.2206
 2535SOL    HW2 9906   4.635   3.461   2.752  0.2183 -0.6232  0.2416
 2535SOL    HW3 9907   4.658   3.401   2.615 -0.0087  1.2220 -0.6279
 2535SOL    MW4 9908   4.675   3.463   2.674 -0.0475  0.5273  0.1114
 2536SOL     OW 9909   6.034   0.546   4.133  0.1077 -0.2508 -0.1046
 2536SOL    HW2 9910   6.058   0.598   4.056 -0.3411  0.4729  0.2359
 2536SOL    HW3 9911   5.991   0.608   4.191  1.9585 -0.3894  1.4982
 2536SOL    MW4 9912   6.031   0.561   4.130  0.2927 -0.1736  0.1518
 2537SOL     OW 9913   1.412   5.241   2.789 -0.2903 -0.1271  0.5479
 2537SOL    HW2 9914   1.402   5.311   2.725  0.2417 -0.6813 -0.1534
 2537SOL    HW3 9915   1.468   5.176   2.746 -0.1331 -0.6281  1.4747
 2537SOL    MW4 9916   1.418   5.242   2.775 -0.1994 -0.2663  0.5776
 2538SOL     OW 9917   4.670   3.059   3.914  0.0693 -0.0732  0.2693
 2538SOL    HW2 9918   4.605   3.099   3.856 -0.4271  1.1549  1.6053
 2538SOL    HW3 9919   4.686   3.125   3.981  3.3969  0.0270 -0.4756
 2538SOL    MW4 9920   4.664   3.073   3.915  0.4428  0.1021  0.3473
 2539SOL     OW 9921   2.874   4.427   6.210 -0.2057 -0.3271  0.4855
 2539SOL    HW2 9922   2.838   4.395   6.127  1.1044  1.2691 -0.7635
 2539SOL    HW3 9923   2.945   4.486   6.184  1.2755 -0.9704  2.7801
 2539SOL    MW4 9924   2.878   4.431   6.196  0.1626 -0.2014  0.6235
 2540SOL     OW 9925   1.349   2.291   0.278 -0.0224  0.0438 -0.0356
 2540SOL    HW2 9926   1.378   2.275   0.368  0.9011  1.0917 -0.1285
 2540SOL    HW3 9927   1.347   2.204   0.238  1.6167 -0.2353  0.4107
 2540SOL    MW4 9928   1.352   2.277   0.285  0.3157  0.1452  0.0110
 2541SOL     OW 9929   1.266   6.139   6.331  0.1164 -0.5167  0.5892
 2541SOL    HW2 9930   1.222   6.055   6.317  1.0638 -1.0333  0.6466
 2541SOL    HW3 9931   1.358   6.116   6.345  1.1247  0.7254 -2.9304
 2541SOL    MW4 9932   1.272   6.124   6.331  0.3744 -0.4210  0.1324
 2542SOL     OW 9933   6.327   1.645   2.242  0.1535 -0.2526  0.5945
 2542SOL    HW2 9934   6.387   1.719   2.252  0.0699 -0.1075  0.0471
 2542SOL    HW3 9935   6.254   1.666   2.301 -0.3154  0.5687 -0.2519
 2542SOL    MW4 9936   6.325   1.658   2.251  0.0806 -0.1251  0.4106
 2543SOL     OW 9937   2.721   4.185   4.105 -0.4468  0.0106  0.0883
 2543SOL    HW2 9938   2.721   4.114   4.168  0.9161  0.0035  0.0967
 2543SOL    HW3 9939   2.733   4.264   4.157 -0.8701  0.1529 -0.0245
 2543SOL    MW4 9940   2.723   4.186   4.120 -0.3229  0.0284  0.0745
 2544SOL     OW 9941   6.405   1.366   2.203  0.3688 -0.3008  0.1069
 2544SOL    HW2 9942   6.419   1.327   2.289 -1.5570  0.8901  1.0349
 2544SOL    HW3 9943   6.352   1.444   2.220  2.4161  1.7081 -1.8514
 2544SOL    MW4 9944   6.400   1.371   2.216  0.3848  0.1214 -0.0290
 2545SOL     OW 9945   4.870   2.493   5.639 -0.4537  0.0370 -0.6359
 2545SOL    HW2 9946   4.920   2.551   5.697  1.3353 -1.0163 -1.0530
 2545SOL    HW3 9947   4.790   2.475   5.687  0.1692  0.6609  0.6976
 2545SOL    MW4 9948   4.866   2.498   5.653 -0.1355 -0.0196 -0.5150
 2546SOL     OW 9949   5.239   0.961   3.705 -0.1439 -0.3458  0.5940
 2546SOL    HW2 9950   5.231   1.054   3.685 -0.4813 -0.0986  1.8027
 2546SOL    HW3 9951   5.222   0.917   3.622 -5.4348  0.4655  0.9175
 2546SOL    MW4 9952   5.236   0.967   3.692 -0.8865 -0.2061  0.7962
 2547SOL     OW 9953   0.599   0.018   3.020  0.1413  0.3621  0.1969
 2547SOL    HW2 9954   0.567  -0.062   3.061  0.0825  0.6342  0.6899
 2547SOL    HW3 9955   0.665  -0.011   2.958 -1.6072 -0.2940 -1.4364
 2547SOL    MW4 9956   0.603   0.004   3.017 -0.0971  0.3114  0.0465
 2548SOL     OW 9957   0.819   4.990   2.628  0.2202  0.1063 -0.2908
 2548SOL    HW2 9958   0.895   4.947   2.589  0.6981  0.9109 -0.2752
 2548SOL    HW3 9959   0.856   5.047   2.696 -0.5361 -0.6931  0.8274
 2548SOL    MW4 9960   0.834   4.992   2.632  0.1835  0.1070 -0.1412
 2549SOL     OW 9961   2.748   0.952   6.323  0.4492  0.1326 -0.2752
 2549SOL    HW2 9962   2.720   0.876   6.273  0.6768  0.1251 -0.3933
 2549SOL    HW3 9963   2.759   1.022   6.258 -0.7172  0.5521 -0.0464
 2549SOL    MW4 9964   2.746   0.952   6.308  0.3254  0.1870 -0.2606
 2550SOL     OW 9965   5.339   3.161   0.753 -0.3417  0.5381  0.0099
 2550SOL    HW2 9966   5.321   3.253   0.733 -1.1110  0.6524  1.1499
 2550SOL    HW3 9967   5.306   3.148   0.842 -0.1658 -0.8212 -0.0932
 2550SOL    MW4 9968   5.332   3.171   0.762 -0.4200  0.3738  0.1467
 2551SOL     OW 9969   4.056   1.105   5.590  0.1663 -0.2607  0.5971
 2551SOL    HW2 9970   4.011   1.187   5.607  0.9770 -0.0924  2.0607
 2551SOL    HW3 9971   4.052   1.095   5.495  1.4768  2.3262  0.1622
 2551SOL    MW4 9972   4.050   1.114   5.580  0.4462  0.1028  0.7328
 2552SOL     OW 9973   3.392   0.116   3.787  0.2356  0.1863 -0.5301
 2552SOL    HW2 9974   3.380   0.208   3.762  0.1484 -0.0422 -1.3814
 2552SOL    HW3 9975   3.420   0.073   3.706  1.5859 -0.3052  0.1686
 2552SOL    MW4 9976   3.394   0.123   3.773  0.4023  0.0913 -0.5502
 2553SOL     OW 9977   1.432   0.763   3.316  0.3919 -0.0604 -0.4830
 2553SOL    HW2 9978   1.485   0.692   3.354  0.6087 -0.3476 -1.2962
 2553SOL    HW3 9979   1.462   0.769   3.225 -0.0351  0.6884 -0.5808
 2553SOL    MW4 9980   1.443   0.754   3.309  0.3642  0.0005 -0.6032
 2554SOL     OW 9981   6.210   2.417   1.186 -0.3845 -0.1652 -0.2169
 2554SOL    HW2 9982   6.208   2.442   1.094 -1.8171 -2.2092 -0.7834
 2554SOL    HW3 9983   6.212   2.501   1.233 -3.1187  1.0489 -2.0391
 2554SOL    MW4 9984   6.210   2.432   1.180 -0.9343 -0.2747 -0.5320
 2555SOL     OW 9985   4.092   5.031   2.151 -0.1819  0.3603 -0.2207
 2555SOL    HW2 9986   4.156   5.057   2.217 -1.1237  1.2291  0.3937
 2555SOL    HW3 9987   4.138   4.968   2.096  1.0243  0.5695  0.5073
 2555SOL    MW4 9988   4.106   5.026   2.153 -0.1470  0.5025 -0.0436
 2556SOL     OW 9989   1.948   2.872   3.113  0.0764  0.1129 -0.1699
 2556SOL    HW2 9990   2.012   2.802   3.123  0.4679  0.4394 -0.3528
 2556SOL    HW3 9991   2.000   2.952   3.118 -0.5070  0.4340  1.2169
 2556SOL    MW4 9992   1.963   2.873   3.115  0.0511  0.1983 -0.0111
 2557SOL     OW 9993   5.329   5.844   5.820 -0.1660  0.0709 -0.1824
 2557SOL    HW2 9994   5.287   5.930   5.822 -0.1776  0.1515 -2.1676
 2557SOL    HW3 9995   5.256   5.782   5.818 -0.1612 -0.0460  1.4942
 2557SOL    MW4 9996   5.314   5.847   5.820 -0.1669  0.0661 -0.2231
 2558SOL     OW 9997   1.214   0.715   4.820 -0.1987 -0.4985  0.0488
 2558SOL    HW2 9998   1.158   0.749   4.751 -0.0453  0.5156  0.3976
 2558SOL    HW3 9999   1.160   0.718   4.899  0.1954  0.0920  0.3086
 2558SOL    MW410000   1.200   0.720   4.821 -0.1265 -0.2868  0.1291
 2559SOL     OW10001   4.756   3.978   2.334 -0.3283  0.2328  0.6658
 2559SOL    HW210002   4.664   4.000   2.347 -0.4580  1.9029 -2.2915
 2559SOL    HW310003   4.802   4.062   2.335  0.8853 -0.4025  0.2833
 2559SOL    MW410004   4.750   3.992   2.335 -0.1853  0.3693  0.2252
 2560SOL     OW10005   3.782   2.623   6.410  0.3184  0.2130  0.4096
 2560SOL    HW210006   3.759   2.647   6.500 -0.8196  1.2977 -0.1398
 2560SOL    HW310007   3.877   2.622   6.409  0.3998 -2.0121  2.1623
 2560SOL    MW410008   3.791   2.626   6.422  0.1790  0.0626  0.5684
 2561SOL     OW10009   3.576   3.938   3.175  0.3673  0.2945 -0.2573
 2561SOL    HW210010   3.529   3.943   3.258 -0.0020 -1.4396 -0.3352
 2561SOL    HW310011   3.664   3.907   3.199  0.5337  0.6087 -0.4426
 2561SOL    MW410012   3.582   3.935   3.189  0.3405  0.1071 -0.2920
 2562SOL     OW10013   3.740   4.070   5.687  0.0109 -0.7082  0.7547
 2562SOL    HW210014   3.779   4.092   5.771 -0.5108 -0.9170  1.0541
 2562SOL    HW310015   3.814   4.048   5.631  0.2775 -2.1832  1.6248
 2562SOL    MW410016   3.755   4.070   5.690 -0.0228 -0.9304  0.9090
 2563SOL     OW10017   2.110   0.441   1.880 -0.3880 -0.0287 -0.1030
 2563SOL    HW210018   2.171   0.373   1.852  0.6680  0.2458  1.3716
 2563SOL    HW310019   2.033   0.393   1.912  0.7319 -0.6497  1.8390
 2563SOL    MW410020   2.108   0.426   1.881 -0.1009 -0.0744  0.3478
 2564SOL     OW10021   2.725   5.214   4.866  0.3654 -0.5185 -0.0815
 2564SOL    HW210022   2.665   5.241   4.796  1.4728  1.7476 -0.2500
 2564SOL    HW310023   2.740   5.121   4.850 -1.1393 -0.5618 -1.5199
 2564SOL    MW410024   2.719   5.205   4.854  0.3130 -0.2253 -0.2935
 2565SOL     OW10025   3.030   4.393   0.995  0.7196  0.4105  0.2652
 2565SOL    HW210026   3.025   4.306   0.956  0.6741  0.9176 -0.9289
 2565SOL    HW310027   3.051   4.378   1.087 -0.3429 -0.8932  0.3243
 2565SOL    MW410028   3.032   4.380   1.002  0.5734  0.3054  0.1154
 2566SOL     OW10029   4.531   4.111   4.346  0.8422 -0.4469 -0.0482
 2566SOL    HW210030   4.510   4.176   4.413  0.0721  0.4780 -1.1365
 2566SOL    HW310031   4.594   4.052   4.387  2.9650  2.0007  0.4563
 2566SOL    MW410032   4.536   4.112   4.360  1.0207 -0.0019 -0.1252
 2567SOL     OW10033   5.936   6.427   1.049 -0.1563 -0.1165  0.0546
 2567SOL    HW210034   6.019   6.450   1.007  1.1027  0.7054  2.8260
 2567SOL    HW310035   5.938   6.471   1.133 -2.8771 -1.1298  0.7449
 2567SOL    MW410036   5.947   6.436   1.054 -0.3492 -0.1417  0.5113
 2568SOL     OW10037   6.453   1.305   2.893  0.0702  0.2500  0.1631
 2568SOL    HW210038   6.370   1.297   2.846 -1.0656 -1.4630  2.2556
 2568SOL    HW310039   6.470   1.399   2.896 -1.7376  0.6252 -0.4203
 2568SOL    MW410040   6.444   1.317   2.887 -0.3182  0.0735  0.3622
 2569SOL     OW10041   5.641   3.121   1.146  0.5001  0.2870 -0.4914
 2569SOL    HW210042   5.736   3.124   1.137  0.4191  0.5734 -1.4528
 2569SOL    HW310043   5.608   3.153   1.061 -0.4494  1.1671  0.1760
 2569SOL    MW410044   5.649   3.126   1.133  0.3641  0.4409 -0.5302
 2570SOL     OW10045   5.413   0.582   5.478 -0.0644  0.6389  0.5198
 2570SOL    HW210046   5.478   0.612   5.541  1.2803  0.1899 -0.5919
 2570SOL    HW310047   5.368   0.510   5.522  4.1626 -3.1064 -0.5285
 2570SOL    MW410048   5.415   0.576   5.492  0.6707  0.0855  0.2348
 2571SOL     OW10049   0.920   5.108   1.412  0.3410 -0.1771  0.2220
 2571SOL    HW210050   0.999   5.054   1.415  0.7205  0.2509 -1.0064
 2571SOL    HW310051   0.921   5.145   1.323 -0.1806  1.4037  0.8417
 2571SOL    MW410052   0.931   5.106   1.400  0.3222  0.0879  0.1417
 2572SOL     OW10053   1.023   3.984   2.686 -0.1999 -0.0393 -0.9040
 2572SOL    HW210054   1.072   4.061   2.658  0.4913  0.2646  1.0152
 2572SOL    HW310055   0.957   4.018   2.747  0.3402 -0.9929  0.2452
 2572SOL    MW410056   1.020   3.999   2.690 -0.0374 -0.1250 -0.4992
 2573SOL     OW10057   0.736   2.790   4.805 -0.2778  0.4295 -0.0009
 2573SOL    HW210058   0.697   2.823   4.886  2.7458  2.6856  0.6804
 2573SOL    HW310059   0.683   2.829   4.736 -1.1737  0.8161  0.8770
 2573SOL    MW410060   0.724   2.799   4.807  0.0029  0.7782  0.2048
 2574SOL     OW10061   6.451   4.514   4.999  0.1276  0.4309 -0.2542
 2574SOL    HW210062   6.381   4.528   5.061  0.0325  1.0193 -0.4899
 2574SOL    HW310063   6.488   4.429   5.023 -0.8103  0.0083 -0.2725
 2574SOL    MW410064   6.447   4.505   5.010 -0.0087  0.4527 -0.2877
 2575SOL     OW10065   5.213   0.288   2.406 -0.2412  0.5012 -0.1392
 2575SOL    HW210066   5.208   0.382   2.385  2.0220  0.8245  0.5098
 2575SOL    HW310067   5.122   0.258   2.402 -0.9084  2.4558 -1.5176
 2575SOL    MW410068   5.200   0.297   2.402 -0.0306  0.8017 -0.2354
 2576SOL     OW10069   2.634   5.274   3.674 -0.0340 -0.6292  0.1783
 2576SOL    HW210070   2.568   5.340   3.652  1.1708  0.4502 -0.3220
 2576SOL    HW310071   2.718   5.319   3.662  0.8289 -2.2659 -0.2147
 2576SOL    MW410072   2.637   5.289   3.669  0.2388 -0.7027  0.0604
 2577SOL     OW10073   5.271   3.147   1.410 -0.2270 -0.7130  0.5916
 2577SOL    HW210074   5.342   3.089   1.382  0.2009  0.0600  0.0382
 2577SOL    HW310075   5.264   3.133   1.505 -0.3190 -1.8558  0.4363
 2577SOL    MW410076   5.279   3.137   1.419 -0.1827 -0.7618  0.4981
 2578SOL     OW10077   0.605   0.974   2.282 -0.2695 -0.4007  0.4679
 2578SOL    HW210078   0.615   0.888   2.242  0.7689 -0.5222  0.9349
 2578SOL    HW310079   0.644   0.964   2.369 -0.4540  0.4452  0.6570
 2578SOL    MW410080   0.612   0.962   2.289 -0.1568 -0.3052  0.5544
 2579SOL     OW10081   1.919   3.810   2.919 -0.3706  0.4897  0.0834
 2579SOL    HW210082   1.984   3.879   2.905 -0.6186  0.7715  0.2979
 2579SOL    HW310083   1.836   3.857   2.931 -0.2137  0.2832  2.3570
 2579SOL    MW410084   1.916   3.825   2.918 -0.3826  0.4996  0.4116
 2580SOL     OW10085   0.461   5.778   1.952  0.2306 -0.9009 -0.3624
 2580SOL    HW210086   0.551   5.784   1.918  0.1238  1.4618 -0.4245
 2580SOL    HW310087   0.472   5.756   2.044  0.9885  0.3653 -0.1133
 2580SOL    MW410088   0.474   5.776   1.959  0.3165 -0.4221 -0.3378
 2581SOL     OW10089   0.789   1.325   4.289  0.7819  0.1791 -0.5233
 2581SOL    HW210090   0.869   1.329   4.235  0.0102  1.6773 -1.6270
 2581SOL    HW310091   0.753   1.238   4.271  0.1057  0.9176 -3.1613
 2581SOL    MW410092   0.795   1.314   4.280  0.5909  0.4742 -1.0170
 2582SOL     OW10093   3.707   0.596   4.553  0.3645  0.2541 -0.4032
 2582SOL    HW210094   3.648   0.544   4.498 -0.3953  0.6452  0.0215
 2582SOL    HW310095   3.749   0.658   4.493  1.8682 -1.3279 -1.0517
 2582SOL    MW410096   3.705   0.598   4.538  0.4627  0.0969 -0.4327
 2583SOL     OW10097   6.257   2.702   4.517  0.1949  0.2843  0.0562
 2583SOL    HW210098   6.173   2.663   4.491  1.6131 -3.5209  0.5614
 2583SOL    HW310099   6.303   2.716   4.435 -0.7796  2.2875 -0.2173
 2583SOL    MW410100   6.252   2.698   4.503  0.2535  0.0465  0.0867
 2584SOL     OW10101   6.018   5.999   1.568  0.4132 -0.8525 -0.7351
 2584SOL    HW210102   5.990   6.036   1.484  1.0608 -0.7551 -0.9080
 2584SOL    HW310103   6.011   6.073   1.629  0.1463 -0.8694 -0.7410
 2584SOL    MW410104   6.013   6.014   1.565  0.4634 -0.8418 -0.7587
 2585SOL     OW10105   2.536   1.942   0.963 -0.0868  0.6486 -0.0067
 2585SOL    HW210106   2.447   1.913   0.984  0.0133 -0.1853 -0.6927
 2585SOL    HW310107   2.567   1.984   1.043 -0.6690 -0.1108  0.6334
 2585SOL    MW410108   2.528   1.944   0.976 -0.1504  0.4384 -0.0127
 2586SOL     OW10109   1.437   1.019   5.744  0.3389 -0.1286 -0.1854
 2586SOL    HW210110   1.524   0.981   5.757 -0.4292 -1.6410  0.9106
 2586SOL    HW310111   1.377   0.952   5.776 -1.2337  0.9773 -0.6904
 2586SOL    MW410112   1.440   1.005   5.750  0.0301 -0.1823 -0.1074
 2587SOL     OW10113   2.793   5.624   3.705 -0.1764  0.2862  0.1625
 2587SOL    HW210114   2.863   5.688   3.699 -0.3017  0.3542 -0.7117
 2587SOL    HW310115   2.770   5.605   3.614  0.1015 -1.2665  0.3985
 2587SOL    MW410116   2.799   5.630   3.693 -0.1563  0.0903  0.0783
 2588SOL     OW10117   4.413   4.180   0.791  0.4285  0.2310  0.0730
 2588SOL    HW210118   4.505   4.198   0.812  0.1851 -0.2083  1.7315
 2588SOL    HW310119   4.366   4.202   0.872 -0.8920  0.1708 -0.6549
 2588SOL    MW410120   4.419   4.185   0.805  0.2222  0.1651  0.1958
 2589SOL     OW10121   5.612   2.310   4.099  0.3031  0.1384 -0.4818
 2589SOL    HW210122   5.615   2.277   4.189  0.1186  0.7923 -0.2344
 2589SOL    HW310123   5.521   2.300   4.073  0.2637  0.3702 -0.4360
 2589SOL    MW410124   5.601   2.304   4.108  0.2735  0.2553 -0.4432
 2590SOL     OW10125   3.338   5.750   3.769  0.3289  0.2001  0.2981
 2590SOL    HW210126   3.386   5.805   3.831  2.5968 -0.7760 -0.4954
 2590SOL    HW310127   3.300   5.812   3.707  1.5168  0.9929  0.3241
 2590SOL    MW410128   3.340   5.766   3.769  0.7849  0.1759  0.1968
 2591SOL     OW10129   2.782   5.589   1.364  0.1992  0.3010  0.1113
 2591SOL    HW210130   2.717   5.657   1.379 -0.9299 -0.5670 -0.6749
 2591SOL    HW310131   2.749   5.513   1.411 -0.2894 -0.6503 -1.6631
 2591SOL    MW410132   2.769   5.588   1.372 -0.0142  0.0610 -0.2265
 2592SOL     OW10133   1.167   1.880   0.311 -0.6238  0.1053 -0.1672
 2592SOL    HW210134   1.243   1.926   0.276 -0.6559  0.0668 -0.2899
 2592SOL    HW310135   1.119   1.851   0.233 -0.6486 -0.0594 -0.0916
 2592SOL    MW410136   1.171   1.882   0.296 -0.6313  0.0785 -0.1734
 2593SOL     OW10137   4.972   5.370   6.241  0.2310 -0.4663 -0.1132
 2593SOL    HW210138   4.962   5.433   6.312  1.8328  0.3613 -0.5706
 2593SOL    HW310139   4.919   5.295   6.267 -1.3556  0.8727  0.6639
 2593SOL    MW410140   4.963   5.368   6.253  0.2330 -0.1805 -0.0710
 2594SOL     OW10141   2.298   1.952   1.517 -0.2522 -0.0284  0.6693
 2594SOL    HW210142   2.341   1.906   1.444 -0.8410  0.4913 -0.0248
 2594SOL    HW310143   2.365   2.012   1.550  0.5895 -1.4897  1.7130
 2594SOL    MW410144   2.312   1.954   1.511 -0.2188 -0.1526  0.7154
 2595SOL     OW10145   5.786   6.268   0.184 -0.5250 -0.7289  0.5401
 2595SOL    HW210146   5.821   6.298   0.267 -1.0109 -1.5458  1.0557
 2595SOL    HW310147   5.691   6.265   0.197 -0.8527  1.4102 -0.8101
 2595SOL    MW410148   5.778   6.271   0.196 -0.6324 -0.5544  0.4300
 2596SOL     OW10149   5.768   0.299   1.860 -0.2048 -0.5538  0.1972
 2596SOL    HW210150   5.804   0.303   1.949  3.1852  1.6959 -1.0523
 2596SOL    HW310151   5.689   0.353   1.864 -0.2640 -0.7080  1.8756
 2596SOL    MW410152   5.762   0.307   1.872  0.2346 -0.2773  0.2538
 2597SOL     OW10153   2.424   0.636   1.876 -0.3081  0.2322 -0.4274
 2597SOL    HW210154   2.390   0.582   1.805 -0.6311 -0.1712  0.0269
 2597SOL    HW310155   2.362   0.708   1.883 -1.6260 -0.9653  0.9852
 2597SOL    MW410156   2.411   0.638   1.867 -0.5246  0.0210 -0.1811
 2598SOL     OW10157   5.156   5.003   1.438 -0.6343 -0.3025 -0.5615
 2598SOL    HW210158   5.181   5.082   1.485 -0.0958 -0.7382 -0.0946
 2598SOL    HW310159   5.200   5.010   1.353  0.1803 -0.5197 -0.1764
 2598SOL    MW410160   5.165   5.014   1.433 -0.4557 -0.3887 -0.4491
 2599SOL     OW10161   3.057   0.142   1.710 -0.1930 -0.2882  0.3611
 2599SOL    HW210162   2.963   0.125   1.705 -0.2335 -0.4832  1.5733
 2599SOL    HW310163   3.097   0.065   1.669 -0.5440 -0.6312  0.6504
 2599SOL    MW410164   3.050   0.129   1.704 -0.2447 -0.3592  0.5592
 2600SOL     OW10165   5.528   1.603   4.326 -0.4050  0.1728  0.2618
 2600SOL    HW210166   5.473   1.528   4.348  0.9650 -0.6830  0.8556
 2600SOL    HW310167   5.618   1.570   4.329  0.1356  1.1301 -2.1911
 2600SOL    MW410168   5.533   1.589   4.329 -0.1529  0.1862  0.0165
 2601SOL     OW10169   5.041   3.462   2.549  0.6484  0.0607 -0.1480
 2601SOL    HW210170   5.131   3.454   2.518  0.6977  2.6189 -0.9499
 2601SOL    HW310171   4.997   3.513   2.481 -0.8975  0.5005  1.1128
 2601SOL    MW410172   5.047   3.468   2.536  0.4510  0.4563 -0.0874
 2602SOL     OW10173   1.927   6.275   4.127 -0.4648 -0.3450 -0.3377
 2602SOL    HW210174   1.978   6.232   4.195 -1.6939 -1.3393 -0.0056
 2602SOL    HW310175   1.878   6.343   4.173 -2.0080 -1.6195 -0.0021
 2602SOL    MW410176   1.927   6.278   4.142 -0.8306 -0.6444 -0.2496
 2603SOL     OW10177   1.739   1.068   5.312 -0.1146  0.0135 -0.2775
 2603SOL    HW210178   1.790   1.054   5.392  0.3264  2.2639 -0.0793
 2603SOL    HW310179   1.726   0.981   5.276 -0.9529 -1.1805  2.6047
 2603SOL    MW410180   1.744   1.055   5.318 -0.1670  0.1529  0.1289
 2604SOL     OW10181   1.848   5.084   5.213 -0.2648  0.2876 -0.0510
 2604SOL    HW210182   1.808   5.072   5.126 -2.1624 -1.2632  0.9465
 2604SOL    HW310183   1.798   5.155   5.252 -0.5124 -0.0978  0.3439
 2604SOL    MW410184   1.836   5.091   5.206 -0.5478  0.0321  0.1327
 2605SOL     OW10185   6.174   6.110   5.711  0.5239 -0.2417  0.2389
 2605SOL    HW210186   6.126   6.181   5.667  0.8290 -0.3037 -0.1982
 2605SOL    HW310187   6.111   6.072   5.771 -0.0157 -0.4067 -0.4266
 2605SOL    MW410188   6.160   6.115   5.713  0.4930 -0.2716  0.0934
 2606SOL     OW10189   1.083   3.042   2.764  0.0275 -0.6528 -0.0273
 2606SOL    HW210190   1.142   3.114   2.786 -0.7155 -0.1722  0.4455
 2606SOL    HW310191   1.102   2.975   2.829 -2.0759  0.7153  2.1568
 2606SOL    MW410192   1.094   3.043   2.775 -0.3481 -0.4089  0.3233
 2607SOL     OW10193   5.831   2.754   1.518 -0.3194 -0.2287  0.1820
 2607SOL    HW210194   5.891   2.802   1.461 -1.1405  1.1423  0.4265
 2607SOL    HW310195   5.778   2.701   1.458  0.3749 -0.5873 -0.1230
 2607SOL    MW410196   5.832   2.754   1.502 -0.3362 -0.0951  0.1740
 2608SOL     OW10197   4.230   3.024   6.201  0.3889 -0.1790 -0.0612
 2608SOL    HW210198   4.286   2.975   6.261 -2.5394 -0.4383  2.7073
 2608SOL    HW310199   4.197   2.959   6.140  1.6826 -0.3145 -0.6599
 2608SOL    MW410200   4.233   3.009   6.201  0.1732 -0.2311  0.2251
 2609SOL     OW10201   0.289   5.995   1.958  0.4972  0.2201 -0.5736
 2609SOL    HW210202   0.337   5.919   1.926 -1.3716 -1.5034  0.5397
 2609SOL    HW310203   0.311   6.000   2.051  0.5800  1.0475 -0.6312
 2609SOL    MW410204   0.298   5.986   1.966  0.2616  0.1019 -0.4343
 2610SOL     OW10205   2.803   0.790   5.471 -0.5701  0.2555  0.4129
 2610SOL    HW210206   2.791   0.767   5.378 -0.0371  1.6239 -0.0175
 2610SOL    HW310207   2.753   0.871   5.483 -0.3096  0.3070  1.2213
 2610SOL    MW410208   2.795   0.798   5.460 -0.4654  0.4428  0.4628
 2611SOL     OW10209   2.375   3.884   2.012 -0.0754 -0.3005 -0.4254
 2611SOL    HW210210   2.333   3.798   2.005 -2.9984  0.5738  3.1880
 2611SOL    HW310211   2.455   3.868   2.061 -0.6866 -1.0076  0.3758
 2611SOL    MW410212   2.380   3.871   2.018 -0.5417 -0.2785  0.1570
 2612SOL     OW10213   6.097   2.277   2.207  0.3393  0.1522 -0.2580
 2612SOL    HW210214   6.172   2.299   2.152  0.0478  2.4529  0.1810
 2612SOL    HW310215   6.063   2.361   2.237 -2.9553 -0.7276 -1.1011
 2612SOL    MW410216   6.102   2.291   2.204 -0.1338  0.3396 -0.3113
 2613SOL     OW10217   6.127   0.299   5.285 -0.5645 -0.3813 -0.2763
 2613SOL    HW210218   6.214   0.289   5.246 -0.9600 -0.1279 -1.2646
 2613SOL    HW310219   6.111   0.394   5.283 -1.7646 -0.5484 -2.2492
 2613SOL    MW410220   6.137   0.311   5.279 -0.7750 -0.3699 -0.6670
 2614SOL     OW10221   3.520   3.696   4.206  0.8090  0.1106  0.3042
 2614SOL    HW210222   3.494   3.784   4.179 -0.6328  0.5768  2.9212
 2614SOL    HW310223   3.483   3.639   4.138  0.5984  1.3966 -0.7139
 2614SOL    MW410224   3.512   3.700   4.193  0.5909  0.3418  0.5152
 2615SOL     OW10225   1.717   3.252   3.986 -0.0001  0.4602 -0.6246
 2615SOL    HW210226   1.678   3.340   3.982  1.5075  1.1377 -1.4949
 2615SOL    HW310227   1.767   3.245   3.905  1.4693 -0.4347  0.3194
 2615SOL    MW410228   1.718   3.263   3.975  0.3927  0.4315 -0.6148
 2616SOL     OW10229   4.397   0.048   5.434 -0.1777  0.0104  0.4351
 2616SOL    HW210230   4.369   0.095   5.356 -2.6914  0.9094  1.7824
 2616SOL    HW310231   4.324  -0.009   5.456  1.0768 -1.3378  1.3343
 2616SOL    MW410232   4.384   0.047   5.427 -0.3438 -0.0489  0.7315
 2617SOL     OW10233   2.434   3.566   0.784 -0.4553  0.4938 -0.6155
 2617SOL    HW210234   2.342   3.567   0.811 -1.0469 -0.4381 -2.4560
 2617SOL    HW310235   2.481   3.533   0.861 -1.8283 -0.3136 -0.0926
 2617SOL    MW410236   2.428   3.562   0.798 -0.7145  0.2643 -0.7893
 2618SOL     OW10237   0.451   0.187   4.141  0.1113 -0.4877 -0.8740
 2618SOL    HW210238   0.360   0.159   4.130 -0.3503  0.9332 -0.7853
 2618SOL    HW310239   0.470   0.170   4.233  0.3726 -1.9764 -1.1763
 2618SOL    MW410240   0.442   0.181   4.151  0.0849 -0.4966 -0.9022
 2619SOL     OW10241   6.152   6.184   5.324 -0.2798 -0.2017  0.3070
 2619SOL    HW210242   6.201   6.105   5.347 -1.4134 -1.5799 -1.5965
 2619SOL    HW310243   6.108   6.209   5.405  0.3978 -1.3194  1.0553
 2619SOL    MW410244   6.152   6.177   5.338 -0.3400 -0.5310  0.1546
 2620SOL     OW10245   1.627   0.087   6.029 -0.0549  0.0720  0.5379
 2620SOL    HW210246   1.681   0.091   6.109 -0.7321  0.1228  1.0017
 2620SOL    HW310247   1.548   0.040   6.056 -0.4689  0.4444 -0.0068
 2620SOL    MW410248   1.624   0.081   6.043 -0.1989  0.1278  0.5272
 2621SOL     OW10249   0.768   2.978   0.632 -0.0888  0.4908 -0.4283
 2621SOL    HW210250   0.712   2.952   0.706  0.5684  0.9286  0.2323
 2621SOL    HW310251   0.855   2.945   0.655  0.5129  2.2055 -0.1238
 2621SOL    MW410252   0.772   2.970   0.645  0.0773  0.7748 -0.3009
 2622SOL     OW10253   6.180   0.870   5.752 -0.0181  0.2191 -0.4147
 2622SOL    HW210254   6.124   0.856   5.828  1.0999  0.7225  0.5411
 2622SOL    HW310255   6.215   0.784   5.731  0.0960  0.1629 -0.0008
 2622SOL    MW410256   6.177   0.857   5.759  0.1445  0.2781 -0.2340
 2623SOL     OW10257   3.986   3.200   0.713  0.4635  0.7674 -0.0554
 2623SOL    HW210258   4.029   3.119   0.685 -1.2906 -0.6621  1.0956
 2623SOL    HW310259   3.944   3.177   0.796 -0.7101  2.6499 -0.0651
 2623SOL    MW410260   3.986   3.186   0.720  0.0772  0.8272  0.0952
 2624SOL     OW10261   2.648   2.191   2.261 -0.0779 -0.4121 -0.6812
 2624SOL    HW210262   2.734   2.233   2.260  0.4482 -1.4521 -1.4580
 2624SOL    HW310263   2.661   2.111   2.311 -1.0109  0.2044  0.5842
 2624SOL    MW410264   2.661   2.186   2.267 -0.1316 -0.4680 -0.6168
 2625SOL     OW10265   0.897   4.533   5.744  0.1866  0.0922 -0.8490
 2625SOL    HW210266   0.981   4.563   5.709  0.4695  0.1037 -0.1853
 2625SOL    HW310267   0.913   4.441   5.767 -0.0582  0.0223 -0.9585
 2625SOL    MW410268   0.910   4.525   5.742  0.1916  0.0845 -0.7759
 2626SOL     OW10269   1.619   1.265   1.987 -0.2151 -0.2715  0.0661
 2626SOL    HW210270   1.564   1.188   1.974  0.5497 -0.9611  0.7705
 2626SOL    HW310271   1.678   1.266   1.911 -1.1545  0.4500 -0.6724
 2626SOL    MW410272   1.620   1.255   1.975 -0.2381 -0.2673  0.0616
 2627SOL     OW10273   1.006   4.243   0.696  0.4475  0.0244 -0.4263
 2627SOL    HW210274   0.968   4.156   0.698 -0.9793  0.6439  0.3099
 2627SOL    HW310275   1.082   4.234   0.637  0.0087 -1.5608 -0.8003
 2627SOL    MW410276   1.011   4.230   0.688  0.2013 -0.1030 -0.3785
 2628SOL     OW10277   5.330   2.099   3.549 -0.4284 -0.0184 -0.0524
 2628SOL    HW210278   5.269   2.026   3.540  1.4055 -1.4330 -2.0964
 2628SOL    HW310279   5.323   2.146   3.465 -0.7377  1.5001  0.7895
 2628SOL    MW410280   5.321   2.096   3.536 -0.2272 -0.0047 -0.2110
 2629SOL     OW10281   4.645   0.558   5.634 -0.1612 -0.7769 -0.1128
 2629SOL    HW210282   4.681   0.619   5.569  0.7330  0.4359  1.4766
 2629SOL    HW310283   4.592   0.613   5.691 -0.6192 -1.7719  0.4392
 2629SOL    MW410284   4.643   0.573   5.633 -0.1037 -0.7481  0.1697
 2630SOL     OW10285   2.437   1.122   5.977  1.0915 -0.0367 -0.0763
 2630SOL    HW210286   2.460   1.032   5.998  1.6325  0.1153  0.0062
 2630SOL    HW310287   2.363   1.115   5.916  1.3518 -0.5429 -0.3418
 2630SOL    MW410288   2.431   1.109   5.971  1.1972 -0.0834 -0.1004
 2631SOL     OW10289   1.794   1.343   1.353 -0.1160  0.3316  0.0798
 2631SOL    HW210290   1.824   1.365   1.441 -0.1958  1.6407 -0.2087
 2631SOL    HW310291   1.872   1.307   1.309  0.2096  0.7321  0.3254
 2631SOL    MW410292   1.808   1.341   1.359 -0.0836  0.5572  0.0741
 2632SOL     OW10293   3.859   3.448   5.848 -0.4136 -0.4901  0.7085
 2632SOL    HW210294   3.878   3.360   5.882  0.2800 -0.1473  1.2178
 2632SOL    HW310295   3.938   3.473   5.802 -0.3001  0.2039  1.2683
 2632SOL    MW410296   3.872   3.439   5.847 -0.3071 -0.3533  0.8496
 2633SOL     OW10297   1.802   2.892   3.850  0.1507 -0.2555 -0.0089
 2633SOL    HW210298   1.850   2.883   3.768  2.1377 -2.2687  1.2448
 2633SOL    HW310299   1.734   2.824   3.845  1.5495 -1.7778  0.7518
 2633SOL    MW410300   1.799   2.882   3.839  0.5974 -0.7220  0.2569
 2634SOL     OW10301   5.104   1.579   2.536  0.3627  0.0118  0.2520
 2634SOL    HW210302   5.078   1.668   2.560  0.3498  0.0413  0.1333
 2634SOL    HW310303   5.096   1.578   2.440 -1.2191 -0.6061  0.3529
 2634SOL    MW410304   5.099   1.591   2.526  0.1523 -0.0658  0.2497
 2635SOL     OW10305   0.464   6.129   0.141 -0.0979  0.2317 -0.1044
 2635SOL    HW210306   0.528   6.097   0.204  1.5812 -0.6953 -2.1220
 2635SOL    HW310307   0.387   6.074   0.155  0.3201 -0.0977  0.9844
 2635SOL    MW410308   0.462   6.117   0.151  0.1788  0.0659 -0.2269
 2636SOL     OW10309   2.692   2.716   2.084 -0.4311 -0.1376  0.1521
 2636SOL    HW210310   2.703   2.751   1.996 -3.0242 -1.1756 -0.6687
 2636SOL    HW310311   2.637   2.780   2.130 -0.1088 -0.1916  0.6259
 2636SOL    MW410312   2.686   2.729   2.079 -0.7307 -0.2817  0.1063
 2637SOL     OW10313   1.097   4.903   3.480 -0.2043 -0.1496 -0.4887
 2637SOL    HW210314   1.080   4.988   3.519  3.3630  0.1027  0.9215
 2637SOL    HW310315   1.101   4.843   3.554  3.3035 -0.2999 -0.6409
 2637SOL    MW410316   1.095   4.906   3.495  0.7291 -0.1362 -0.3227
 2638SOL     OW10317   2.742   4.996   5.878 -0.5458  0.1543  0.1247
 2638SOL    HW210318   2.707   5.020   5.963 -2.5612 -0.2098 -0.5454
 2638SOL    HW310319   2.694   4.917   5.854  0.0294  0.2126 -1.3188
 2638SOL    MW410320   2.731   4.989   5.886 -0.7358  0.1139 -0.1541
 2639SOL     OW10321   0.269   5.512   1.563 -0.3277  0.2519  0.1262
 2639SOL    HW210322   0.201   5.566   1.604 -0.0794  0.3671  0.3893
 2639SOL    HW310323   0.222   5.434   1.533 -1.4113  2.0125 -3.3541
 2639SOL    MW410324   0.254   5.509   1.564 -0.4379  0.4994 -0.2983
 2640SOL     OW10325   6.165   6.001   4.150 -0.3141  0.3791 -0.7726
 2640SOL    HW210326   6.258   5.986   4.131 -0.3593 -2.6451  0.7124
 2640SOL    HW310327   6.120   5.975   4.070  0.0053 -2.6641 -0.1112
 2640SOL    MW410328   6.172   5.995   4.137 -0.2779 -0.4214 -0.4894
 2641SOL     OW10329   2.718   3.038   1.229 -0.5198 -0.6399 -0.4567
 2641SOL    HW210330   2.794   2.987   1.201 -0.2626 -0.7858  0.4833
 2641SOL    HW310331   2.749   3.128   1.230  0.1332 -0.8422  1.4172
 2641SOL    MW410332   2.732   3.043   1.226 -0.3997 -0.6858 -0.0854
 2642SOL     OW10333   0.492   5.978   5.165  0.3976  0.1609  0.4500
 2642SOL    HW210334   0.546   6.056   5.171 -1.4477  1.4496  1.0654
 2642SOL    HW310335   0.402   6.010   5.163 -0.4345 -1.9436  0.8311
 2642SOL    MW410336   0.487   5.992   5.166  0.0443  0.0532  0.5815
 2643SOL     OW10337   5.726   3.863   0.967 -0.5944  0.1417 -0.4147
 2643SOL    HW210338   5.805   3.867   0.913 -1.2081  1.9632 -1.2839
 2643SOL    HW310339   5.718   3.952   1.003  0.1296 -1.1035  3.3031
 2643SOL    MW410340   5.736   3.876   0.965 -0.5799  0.2178 -0.0389
 2644SOL     OW10341   4.375   4.757   5.194 -0.6852  0.2683 -0.3561
 2644SOL    HW210342   4.389   4.700   5.118 -0.6598 -0.7317  0.3784
 2644SOL    HW310343   4.377   4.698   5.269 -2.1412  1.0222  0.3288
 2644SOL    MW410344   4.377   4.742   5.194 -0.8739  0.2358 -0.1688
 2645SOL     OW10345   1.101   5.789   3.330 -0.1350  0.1677  0.1045
 2645SOL    HW210346   1.043   5.759   3.261 -0.8842 -0.2894  0.9243
 2645SOL    HW310347   1.185   5.746   3.312  0.2372  1.4856 -1.5717
 2645SOL    MW410348   1.105   5.780   3.319 -0.1848  0.2813 -0.0085
 2646SOL     OW10349   4.164   4.276   2.375 -0.5131  0.0329  0.5835
 2646SOL    HW210350   4.166   4.315   2.462 -0.7399  1.4370 -0.0183
 2646SOL    HW310351   4.096   4.324   2.329  0.4205  0.1353 -0.7478
 2646SOL    MW410352   4.155   4.288   2.380 -0.4198  0.2317  0.3285
 2647SOL     OW10353   2.218   5.391   1.463  0.5865 -0.0745 -0.4783
 2647SOL    HW210354   2.276   5.316   1.469 -0.5519 -0.9386  0.2617
 2647SOL    HW310355   2.179   5.397   1.551 -0.2853  0.5874 -0.8999
 2647SOL    MW410356   2.220   5.382   1.476  0.3213 -0.1012 -0.4363
 2648SOL     OW10357   4.239   3.025   3.788  0.0664  0.0176  0.2913
 2648SOL    HW210358   4.285   2.965   3.847 -1.0831 -0.0217  1.1889
 2648SOL    HW310359   4.184   3.078   3.846 -0.3284  0.6758 -0.6593
 2648SOL    MW410360   4.238   3.024   3.803 -0.1373  0.0993  0.2843
 2649SOL     OW10361   5.116   4.406   0.061 -0.5502  0.1715  0.6666
 2649SOL    HW210362   5.099   4.330   0.117  1.4121 -1.7096 -1.0704
 2649SOL    HW310363   5.194   4.382   0.012 -1.1380  2.4353 -1.5930
 2649SOL    MW410364   5.124   4.393   0.062 -0.3688  0.2220  0.1393
 2650SOL     OW10365   2.292   1.849   1.030  0.2873 -0.4324 -0.2394
 2650SOL    HW210366   2.209   1.825   1.071  0.5633 -0.9461  0.0268
 2650SOL    HW310367   2.284   1.817   0.940  0.1128 -0.2832 -0.2783
 2650SOL    MW410368   2.280   1.841   1.024  0.3007 -0.4805 -0.2094
 2651SOL     OW10369   1.235   5.815   3.841  0.2273 -0.1134 -0.0212
 2651SOL    HW210370   1.247   5.891   3.898 -2.9398  0.0669  0.5655
 2651SOL    HW310371   1.196   5.850   3.761  1.6698 -0.7889 -1.0845
 2651SOL    MW410372   1.231   5.829   3.838 -0.0003 -0.1787 -0.0840
 2652SOL     OW10373   6.406   4.291   2.119  0.1305 -0.3650  0.0647
 2652SOL    HW210374   6.459   4.323   2.046  0.4238  0.3149  0.5643
 2652SOL    HW310375   6.378   4.204   2.092 -0.1706  0.0598 -1.0684
 2652SOL    MW410376   6.409   4.284   2.106  0.1295 -0.2193 -0.0189
 2653SOL     OW10377   4.845   2.546   4.326  0.0340  0.3580 -0.2992
 2653SOL    HW210378   4.886   2.633   4.327  2.0396 -0.5009 -1.9474
 2653SOL    HW310379   4.775   2.554   4.261 -0.0143  0.8148 -0.1995
 2653SOL    MW410380   4.841   2.559   4.317  0.2922  0.3050 -0.5035
 2654SOL     OW10381   3.497   4.143   3.956  0.3738  0.3993 -0.5879
 2654SOL    HW210382   3.430   4.195   3.911 -2.2126 -1.2411  1.1018
 2654SOL    HW310383   3.566   4.206   3.977 -1.6565  2.7316 -0.4523
 2654SOL    MW410384   3.497   4.158   3.953 -0.2353  0.4906 -0.3470
 2655SOL     OW10385   3.331   2.746   6.246  0.0086 -0.1738  0.0391
 2655SOL    HW210386   3.255   2.803   6.261 -0.1945 -0.7264  1.2660
 2655SOL    HW310387   3.363   2.771   6.159 -1.4229  0.2410 -0.4025
 2655SOL    MW410388   3.325   2.757   6.237 -0.2071 -0.1920  0.1427
 2656SOL     OW10389   1.685   6.189   2.178 -0.7644  0.0500 -0.0709
 2656SOL    HW210390   1.633   6.256   2.223 -1.7337 -0.1886 -0.7946
 2656SOL    HW310391   1.748   6.238   2.126 -0.4687  0.3558  0.5681
 2656SOL    MW410392   1.687   6.204   2.177 -0.8533  0.0589 -0.0821
 2657SOL     OW10393   0.692   6.094   1.955  0.1047  0.2538  0.2034
 2657SOL    HW210394   0.643   6.176   1.957  1.0172  0.8911 -1.6272
 2657SOL    HW310395   0.778   6.118   1.922 -0.1128 -1.6464 -2.0267
 2657SOL    MW410396   0.697   6.108   1.951  0.1964  0.0872 -0.3324
 2658SOL     OW10397   0.778   1.021   5.346 -0.0292 -0.4928  0.3361
 2658SOL    HW210398   0.752   1.107   5.380 -0.3916 -0.5093  0.1080
 2658SOL    HW310399   0.696   0.981   5.318  0.2058 -0.6929 -0.0690
 2658SOL    MW410400   0.764   1.027   5.347 -0.0460 -0.5214  0.2525
 2659SOL     OW10401   6.419   1.241   5.192 -0.4637 -0.2363  0.3193
 2659SOL    HW210402   6.447   1.270   5.279 -0.9896  0.3772  0.2926
 2659SOL    HW310403   6.363   1.312   5.160 -2.0325 -1.4056  0.3737
 2659SOL    MW410404   6.415   1.254   5.199 -0.7401 -0.3096  0.3229
 2660SOL     OW10405   2.565   4.085   5.932  0.1361  1.2108  0.0520
 2660SOL    HW210406   2.583   4.090   5.838  0.1592  1.2968  0.0611
 2660SOL    HW310407   2.650   4.068   5.973  0.0268  0.5414  0.0063
 2660SOL    MW410408   2.578   4.083   5.925  0.1247  1.1338  0.0472
 2661SOL     OW10409   0.053   3.644   3.387 -0.3334 -0.1564 -0.2274
 2661SOL    HW210410   0.003   3.589   3.448 -1.2312  0.1671 -0.6421
 2661SOL    HW310411  -0.014   3.687   3.334  0.3807  0.7512 -0.4228
 2661SOL    MW410412   0.037   3.642   3.388 -0.3576  0.0060 -0.3079
 2662SOL     OW10413   1.306   5.047   1.247 -0.4861 -0.0292 -0.2531
 2662SOL    HW210414   1.240   5.030   1.313 -0.0854  0.3678  0.2636
 2662SOL    HW310415   1.377   5.091   1.295  1.0207 -2.1892 -0.3927
 2662SOL    MW410416   1.307   5.051   1.262 -0.2344 -0.2618 -0.2033
 2663SOL     OW10417   6.120   5.960   3.512 -0.0047 -0.1006 -0.1621
 2663SOL    HW210418   6.186   5.891   3.517  0.2107  0.0191 -1.1641
 2663SOL    HW310419   6.113   5.981   3.419  0.5330  1.8107  0.1830
 2663SOL    MW410420   6.128   5.954   3.500  0.0946  0.1674 -0.2488
 2664SOL     OW10421   5.474   5.194   2.896  0.3082 -0.2996  0.1353
 2664SOL    HW210422   5.516   5.112   2.869  0.0912  0.1759 -1.8032
 2664SOL    HW310423   5.532   5.230   2.963  0.1410 -2.2483  1.4215
 2664SOL    MW410424   5.487   5.188   2.901  0.2575 -0.4940  0.0492
 2665SOL     OW10425   6.037   5.007   3.708  0.0464 -0.3746 -0.6191
 2665SOL    HW210426   6.012   4.922   3.743 -0.2823  0.3802  1.0549
 2665SOL    HW310427   6.132   5.009   3.716 -0.0267 -0.1823  0.3642
 2665SOL    MW410428   6.046   4.996   3.714 -0.0066 -0.2496 -0.2685
 2666SOL     OW10429   3.173   5.353   4.081  1.0410  0.5257 -1.0608
 2666SOL    HW210430   3.148   5.398   4.161  1.1152 -0.0201 -0.7272
 2666SOL    HW310431   3.244   5.294   4.107  0.8972  0.1588 -1.4734
 2666SOL    MW410432   3.179   5.351   4.095  1.0318  0.4053 -1.0712
 2667SOL     OW10433   2.263   1.288   4.176 -0.1141  0.1575  0.1579
 2667SOL    HW210434   2.186   1.232   4.167 -0.3777  0.6286 -0.6108
 2667SOL    HW310435   2.239   1.352   4.242 -0.4812  0.4548 -0.2583
 2667SOL    MW410436   2.250   1.289   4.183 -0.1973  0.2589  0.0016
 2668SOL     OW10437   2.184   6.369   3.456 -0.1877 -0.4661 -0.1725
 2668SOL    HW210438   2.196   6.371   3.361  1.0333 -1.6403 -0.0617
 2668SOL    HW310439   2.173   6.461   3.480 -1.1071 -0.1986 -1.5023
 2668SOL    MW410440   2.184   6.382   3.446 -0.1479 -0.5858 -0.3334
 2669SOL     OW10441   5.683   4.613   0.508 -0.5095 -0.2313 -0.2891
 2669SOL    HW210442   5.712   4.581   0.423  0.6121 -0.3452  0.1108
 2669SOL    HW310443   5.724   4.554   0.571  0.6019  1.2111  0.4110
 2669SOL    MW410444   5.692   4.601   0.505 -0.2149 -0.0560 -0.1440
 2670SOL     OW10445   3.152   4.747   1.837  0.5539  0.7546  0.6439
 2670SOL    HW210446   3.235   4.727   1.793 -0.1172  0.9410 -0.7576
 2670SOL    HW310447   3.113   4.816   1.784 -0.3353  0.9396  1.5068
 2670SOL    MW410448   3.158   4.754   1.824  0.3480  0.8036  0.5729
 2671SOL     OW10449   3.016   1.373   4.648  0.4487  0.3031  0.2910
 2671SOL    HW210450   3.073   1.450   4.657 -0.5039  0.9889  0.5246
 2671SOL    HW310451   2.934   1.408   4.613  0.0222 -0.6186  0.3549
 2671SOL    MW410452   3.013   1.388   4.645  0.2668  0.2720  0.3303
 2672SOL     OW10453   5.789   0.178   0.520 -0.1049  0.4965 -0.0372
 2672SOL    HW210454   5.724   0.145   0.581 -0.4651 -0.1312 -0.7459
 2672SOL    HW310455   5.738   0.219   0.450  0.2542  0.0821 -0.5521
 2672SOL    MW410456   5.774   0.179   0.519 -0.1051  0.3590 -0.1986
 2673SOL     OW10457   5.302   0.250   3.643 -0.3053 -0.0029  0.0881
 2673SOL    HW210458   5.294   0.168   3.593  0.0640 -0.1173  0.2121
 2673SOL    HW310459   5.212   0.275   3.662 -0.4122 -1.5382  1.9296
 2673SOL    MW410460   5.289   0.242   3.639 -0.2707 -0.2206  0.3474
 2674SOL     OW10461   4.173   2.536   5.685  0.0589 -0.1679 -0.2937
 2674SOL    HW210462   4.153   2.459   5.632 -2.0109 -0.5631  0.9699
 2674SOL    HW310463   4.251   2.574   5.643  0.4003 -2.2241 -1.6743
 2674SOL    MW410464   4.181   2.531   5.673 -0.1691 -0.4913 -0.3091
 2675SOL     OW10465   4.206   4.929   5.945  0.1218  0.3565  0.2782
 2675SOL    HW210466   4.179   4.995   6.009 -2.2418 -0.0001 -0.2755
 2675SOL    HW310467   4.213   4.848   5.997 -1.3218  0.1694  0.2360
 2675SOL    MW410468   4.203   4.927   5.960 -0.3805  0.2848  0.1996
 2676SOL     OW10469   3.518   2.966   0.066 -0.0189 -0.4349 -0.2496
 2676SOL    HW210470   3.535   2.918  -0.015 -0.8555 -1.4922  0.1724
 2676SOL    HW310471   3.425   2.951   0.084  0.4201 -1.2912  1.5616
 2676SOL    MW410472   3.508   2.958   0.057 -0.0714 -0.6874  0.0450
 2677SOL     OW10473   5.721   3.935   1.278  0.2671  0.6485  0.6453
 2677SOL    HW210474   5.680   3.901   1.198 -0.8773 -1.8789  2.1508
 2677SOL    HW310475   5.815   3.921   1.266 -0.0168 -1.2413  0.3153
 2677SOL    MW410476   5.728   3.928   1.266  0.0786  0.0657  0.8004
 2678SOL     OW10477   1.135   2.375   4.026  0.0072  0.5808 -0.4806
 2678SOL    HW210478   1.227   2.349   4.031 -0.1626 -0.8602 -2.9767
 2678SOL    HW310479   1.137   2.459   3.980  0.0891  0.7383 -0.1918
 2678SOL    MW410480   1.148   2.382   4.020 -0.0044  0.4115 -0.7718
 2679SOL     OW10481   1.822   5.770   5.586  0.3031  0.0090 -0.2815
 2679SOL    HW210482   1.814   5.787   5.492 -0.7526 -1.3522 -0.4758
 2679SOL    HW310483   1.739   5.727   5.610  0.8264 -0.2874  1.1282
 2679SOL    MW410484   1.810   5.767   5.577  0.2328 -0.2097 -0.1211
 2680SOL     OW10485   0.054   0.821   3.495 -0.2084 -0.1369 -0.6045
 2680SOL    HW210486   0.134   0.825   3.547 -1.7894  0.6425  1.9075
 2680SOL    HW310487   0.073   0.875   3.418  1.4610  0.5793  0.2584
 2680SOL    MW410488   0.067   0.829   3.492 -0.1967  0.0604 -0.1592
 2681SOL     OW10489   2.386   3.796   3.054 -0.1671  0.5969  0.4476
 2681SOL    HW210490   2.311   3.842   3.092  0.5350  0.2350  2.3963
 2681SOL    HW310491   2.456   3.808   3.118  0.8430 -0.7886 -0.3571
 2681SOL    MW410492   2.385   3.804   3.067  0.0588  0.3664  0.5985
 2682SOL     OW10493   5.546   5.219   1.966  0.2176  0.0797  0.1891
 2682SOL    HW210494   5.523   5.217   2.059 -1.0319 -1.0134 -0.0983
 2682SOL    HW310495   5.482   5.278   1.927 -1.5708 -2.1128 -0.4493
 2682SOL    MW410496   5.534   5.226   1.973 -0.1832 -0.3538  0.0669
 2683SOL     OW10497   1.947   5.371   3.569  0.4512 -0.1132 -0.4241
 2683SOL    HW210498   1.987   5.293   3.531 -1.3624 -0.1021 -2.5555
 2683SOL    HW310499   1.991   5.444   3.526 -0.1919 -0.0522 -0.9884
 2683SOL    MW410500   1.958   5.370   3.559  0.1271 -0.1037 -0.7798
 2684SOL     OW10501   5.905   1.896   5.912 -0.6157 -0.6035  0.1176
 2684SOL    HW210502   5.974   1.834   5.889 -0.4121 -0.4457  0.3049
 2684SOL    HW310503   5.901   1.894   6.007  1.1078  1.4978  0.3215
 2684SOL    MW410504   5.913   1.888   5.921 -0.3614 -0.3055  0.1692
 2685SOL     OW10505   5.854   5.295   0.694  0.3429 -0.0236  0.1651
 2685SOL    HW210506   5.805   5.327   0.618  0.0575  0.4198  0.5338
 2685SOL    HW310507   5.869   5.202   0.676  1.7909  0.4386 -1.2606
 2685SOL    MW410508   5.850   5.287   0.682  0.4963  0.0959  0.0257
 2686SOL     OW10509   0.311   5.171   3.218 -0.6486  0.4044 -0.1107
 2686SOL    HW210510   0.275   5.250   3.178 -2.7587 -0.2646  0.3294
 2686SOL    HW310511   0.262   5.100   3.178  1.4108 -0.7392 -0.7022
 2686SOL    MW410512   0.300   5.172   3.208 -0.6553  0.1653 -0.1307
 2687SOL     OW10513   4.516   4.302   1.140  0.7400 -0.2654 -0.4637
 2687SOL    HW210514   4.546   4.295   1.231 -0.4241  1.8392  0.1476
 2687SOL    HW310515   4.491   4.213   1.116  0.3261 -0.7394  1.5493
 2687SOL    MW410516   4.517   4.290   1.149  0.5318 -0.0503 -0.1174
 2688SOL     OW10517   5.129   2.391   1.116 -0.2839 -0.2096  0.1925
 2688SOL    HW210518   5.114   2.296   1.121 -0.4354 -0.1985 -0.0387
 2688SOL    HW310519   5.207   2.405   1.169  0.2660 -0.5917 -0.4978
 2688SOL    MW410520   5.137   2.380   1.124 -0.2313 -0.2585  0.0709
 2689SOL     OW10521   4.722   3.377   0.766  0.1060  0.0636 -0.1738
 2689SOL    HW210522   4.672   3.295   0.759 -1.3318  0.9742 -1.1242
 2689SOL    HW310523   4.753   3.393   0.677  1.2123  0.0684  0.2068
 2689SOL    MW410524   4.719   3.368   0.754  0.0623  0.1844 -0.2490
 2690SOL     OW10525   0.747   5.535   0.485  0.3963 -1.4447 -0.6071
 2690SOL    HW210526   0.721   5.465   0.545  0.5813 -1.3354 -0.4007
 2690SOL    HW310527   0.808   5.589   0.535 -0.0212 -0.9284 -0.6492
 2690SOL    MW410528   0.751   5.533   0.499  0.3656 -1.3621 -0.5854
 2691SOL     OW10529   0.441   6.073   2.586  0.5542  0.0955 -0.0780
 2691SOL    HW210530   0.354   6.111   2.597 -1.0057 -3.3266  0.8485
 2691SOL    HW310531   0.488   6.097   2.666  0.3312  1.5882 -0.3757
 2691SOL    MW410532   0.436   6.081   2.598  0.3190 -0.1591  0.0049
 2692SOL     OW10533   3.402   0.916   0.041 -0.0257 -0.1328 -0.5710
 2692SOL    HW210534   3.478   0.965   0.009  0.2294  0.0430  0.2797
 2692SOL    HW310535   3.409   0.920   0.137  0.4438 -2.4506 -0.4278
 2692SOL    MW410536   3.413   0.923   0.050  0.0699 -0.4154 -0.4399
 2693SOL     OW10537   6.227   0.932   1.403 -0.3753 -0.6375 -0.2113
 2693SOL    HW210538   6.315   0.971   1.406  0.3238 -2.1849  1.1531
 2693SOL    HW310539   6.190   0.952   1.489 -1.6639  0.5834 -1.0161
 2693SOL    MW410540   6.234   0.940   1.415 -0.4531 -0.6806 -0.1375
 2694SOL     OW10541   2.562   1.831   1.908  0.3766 -0.4225 -0.6360
 2694SOL    HW210542   2.500   1.803   1.840 -0.3237 -0.7411  0.1205
 2694SOL    HW310543   2.638   1.863   1.859  0.2418 -1.4504 -1.5695
 2694SOL    MW410544   2.564   1.831   1.892  0.2664 -0.6002 -0.6594
 2695SOL     OW10545   2.347   0.437   3.208  0.4297  0.8988 -0.0307
 2695SOL    HW210546   2.384   0.355   3.176 -0.1058  0.5543  0.2191
 2695SOL    HW310547   2.388   0.450   3.293 -0.2100  0.3647  0.3789
 2695SOL    MW410548   2.357   0.428   3.215  0.2746  0.7829  0.0563
 2696SOL     OW10549   0.723   3.208   3.932 -0.0469  0.1056  0.0919
 2696SOL    HW210550   0.804   3.259   3.937  0.4843 -0.7388  0.2117
 2696SOL    HW310551   0.703   3.204   3.838  0.2265  0.0300  0.0376
 2696SOL    MW410552   0.731   3.214   3.920  0.0593 -0.0158  0.1006
 2697SOL     OW10553   6.007   5.292   3.871  0.0270 -0.6862  0.2500
 2697SOL    HW210554   6.058   5.260   3.946  0.5209 -1.7552 -0.5051
 2697SOL    HW310555   6.073   5.309   3.804 -0.4673 -0.3894 -0.1662
 2697SOL    MW410556   6.023   5.290   3.872  0.0270 -0.7881  0.0955
 2698SOL     OW10557   3.164   1.673   2.551 -0.0174 -0.2644  0.0265
 2698SOL    HW210558   3.211   1.756   2.547  1.7746 -1.2804 -1.4402
 2698SOL    HW310559   3.213   1.614   2.494 -0.9997 -2.4666  1.3021
 2698SOL    MW410560   3.177   1.676   2.543  0.0895 -0.6890  0.0013
 2699SOL     OW10561   1.646   5.118   3.991  0.5081  0.4006  0.5911
 2699SOL    HW210562   1.551   5.118   3.992  0.4920  1.3616 -0.2753
 2699SOL    HW310563   1.671   5.060   4.063 -0.7230  0.1740  0.8425
 2699SOL    MW410564   1.637   5.110   4.000  0.3435  0.4975  0.5100
 2700SOL     OW10565   3.124   4.912   5.172  0.2682  0.6427 -0.1308
 2700SOL    HW210566   3.187   4.847   5.203 -0.1822  0.2729  0.0110
 2700SOL    HW310567   3.115   4.973   5.245 -1.5934 -0.8048  0.9372
 2700SOL    MW410568   3.131   4.912   5.186 -0.0368  0.4029  0.0288
 2701SOL     OW10569   0.118   2.687   3.069  0.2157 -0.0990  0.0677
 2701SOL    HW210570   0.137   2.594   3.077  0.9383  0.0401 -0.0128
 2701SOL    HW310571   0.171   2.729   3.137  0.9842  0.3868 -0.8145
 2701SOL    MW410572   0.127   2.680   3.079  0.4124 -0.0165 -0.0593
 2702SOL     OW10573   5.770   5.716   3.065  0.1645  0.7118  0.1790
 2702SOL    HW210574   5.794   5.680   2.980 -0.6618 -0.1581  0.2970
 2702SOL    HW310575   5.853   5.737   3.108  0.6109  0.2622 -0.4624
 2702SOL    MW410576   5.784   5.714   3.060  0.1143  0.5377  0.1100
 2703SOL     OW10577   0.143   3.771   2.836 -0.4048 -0.3731  0.5160
 2703SOL    HW210578   0.231   3.808   2.829 -0.7932  0.5187  0.2850
 2703SOL    HW310579   0.152   3.681   2.802  0.2210  0.0175 -0.3849
 2703SOL    MW410580   0.156   3.764   2.830 -0.3735 -0.2039  0.3666
 2704SOL     OW10581   4.189   5.335   6.247 -0.5995 -0.2678 -0.0956
 2704SOL    HW210582   4.269   5.381   6.273 -0.5445 -1.1326  1.3765
 2704SOL    HW310583   4.121   5.372   6.304 -0.8557 -0.9073  0.0189
 2704SOL    MW410584   4.191   5.346   6.258 -0.6261 -0.4662  0.1137
 2705SOL     OW10585   2.532   5.423   3.247  0.4055  0.2740  0.6013
 2705SOL    HW210586   2.450   5.385   3.278 -0.5961  0.0884 -2.0549
 2705SOL    HW310587   2.592   5.349   3.243  0.7185  0.3761  2.3677
 2705SOL    MW410588   2.529   5.408   3.251  0.3146  0.2629  0.4839
 2706SOL     OW10589   3.957   3.244   2.732 -0.5321  0.1883 -0.0187
 2706SOL    HW210590   4.008   3.246   2.651 -0.7581  0.2163 -0.1606
 2706SOL    HW310591   3.969   3.156   2.767 -0.7502  0.0515 -0.2856
 2706SOL    MW410592   3.965   3.233   2.726 -0.5907  0.1740 -0.0727
 2707SOL     OW10593   0.872   4.879   6.012 -0.0871 -0.0133 -0.0246
 2707SOL    HW210594   0.820   4.890   6.091 -0.4159 -2.3667  0.1790
 2707SOL    HW310595   0.873   4.965   5.970  0.2528  1.3329  2.5882
 2707SOL    MW410596   0.865   4.891   6.017 -0.0857 -0.1462  0.3470
 2708SOL     OW10597   4.650   2.092   5.693 -0.0706 -0.0044 -0.1085
 2708SOL    HW210598   4.591   2.016   5.689  0.1528 -0.1230 -1.8911
 2708SOL    HW310599   4.653   2.115   5.786 -0.3422 -2.0314  0.4572
 2708SOL    MW410600   4.643   2.085   5.705 -0.0769 -0.2875 -0.2690
 2709SOL     OW10601   3.853   0.571   2.250  0.3663  0.6348  0.6108
 2709SOL    HW210602   3.780   0.610   2.202 -0.6040 -0.4098  1.1873
 2709SOL    HW310603   3.816   0.493   2.291  2.3181 -1.2390 -0.9038
 2709SOL    MW410604   3.838   0.566   2.249  0.4958  0.2497  0.4870
 2710SOL     OW10605   2.528   5.976   2.910 -0.1656  0.6327 -0.1617
 2710SOL    HW210606   2.442   5.978   2.954 -0.3449 -0.8721 -0.4018
 2710SOL    HW310607   2.507   5.991   2.818  0.0270  1.9454 -0.0155
 2710SOL    MW410608   2.514   5.978   2.904 -0.1638  0.6073 -0.1741
 2711SOL     OW10609   0.241   3.775   4.286 -0.2772 -0.0100 -0.0159
 2711SOL    HW210610   0.311   3.813   4.338 -0.1384  0.9992 -0.9010
 2711SOL    HW310611   0.264   3.682   4.280  0.8519  0.2588 -0.0745
 2711SOL    MW410612   0.253   3.768   4.292 -0.1099  0.1586 -0.1404
 2712SOL     OW10613   2.739   0.576   0.242 -0.0063 -0.0363  0.1541
 2712SOL    HW210614   2.766   0.632   0.315  0.4891 -0.9799  0.7207
 2712SOL    HW310615   2.675   0.516   0.279  0.3570 -0.6201 -0.1498
 2712SOL    MW410616   2.734   0.576   0.256  0.1070 -0.2378  0.1888
 2713SOL     OW10617   2.231   5.969   2.558  0.2066  0.0447 -0.5704
 2713SOL    HW210618   2.239   5.983   2.464  1.6059 -1.2205 -0.6693
 2713SOL    HW310619   2.155   6.021   2.584 -0.3737  0.1764 -2.4411
 2713SOL    MW410620   2.222   5.978   2.549  0.3147 -0.1048 -0.8302
 2714SOL     OW10621   3.374   4.190   3.496 -0.0389  0.1245  0.5727
 2714SOL    HW210622   3.385   4.095   3.487  1.5388  0.4274 -1.6921
 2714SOL    HW310623   3.344   4.202   3.586 -1.5911 -2.5853  0.5319
 2714SOL    MW410624   3.372   4.179   3.507 -0.0355 -0.1930  0.2685
 2715SOL     OW10625   0.970   3.326   3.973  0.0376 -0.5785  0.2925
 2715SOL    HW210626   0.994   3.302   3.884  3.5614 -0.2395  1.0244
 2715SOL    HW310627   0.948   3.419   3.967 -0.3960 -0.7094 -0.2865
 2715SOL    MW410628   0.970   3.335   3.960  0.4453 -0.5510  0.3127
 2716SOL     OW10629   0.486   2.015   5.443 -0.0411 -0.3138 -0.0362
 2716SOL    HW210630   0.420   1.978   5.385 -0.1733  1.6881 -1.2385
 2716SOL    HW310631   0.488   2.108   5.422  3.1913 -0.2669 -0.0768
 2716SOL    MW410632   0.478   2.023   5.433  0.3679 -0.0435 -0.2002
 2717SOL     OW10633   4.842   3.066   3.314 -0.3547 -0.2525 -0.0579
 2717SOL    HW210634   4.935   3.083   3.297 -0.0476 -2.3577 -0.7445
 2717SOL    HW310635   4.807   3.036   3.230 -1.5395 -0.0400  0.3396
 2717SOL    MW410636   4.849   3.065   3.301 -0.4705 -0.5022 -0.0960
 2718SOL     OW10637   4.662   2.150   0.270  0.0037 -0.2651  0.3037
 2718SOL    HW210638   4.611   2.156   0.351  0.1579  0.2352  0.3671
 2718SOL    HW310639   4.728   2.219   0.278 -1.1451  1.0626 -1.0513
 2718SOL    MW410640   4.664   2.160   0.281 -0.1275 -0.0239  0.1333
 2719SOL     OW10641   5.213   0.111   1.340 -0.1123  0.4101  0.1647
 2719SOL    HW210642   5.267   0.185   1.312  2.0449 -0.1052  2.5851
 2719SOL    HW310643   5.164   0.145   1.415 -1.1480  0.0873 -0.3453
 2719SOL    MW410644   5.213   0.125   1.347  0.0356  0.2995  0.4167
 2720SOL     OW10645   4.321   2.313   0.640 -0.2017  0.0678 -0.2944
 2720SOL    HW210646   4.384   2.379   0.669 -0.4727  0.7212 -1.1585
 2720SOL    HW310647   4.364   2.270   0.566 -0.6577  0.3381 -0.7216
 2720SOL    MW410648   4.335   2.316   0.634 -0.2976  0.1897 -0.4647
 2721SOL     OW10649   4.950   3.688   3.279  0.4285 -0.2506  0.3884
 2721SOL    HW210650   5.013   3.669   3.210 -0.8735  0.5036 -1.0606
 2721SOL    HW310651   4.889   3.750   3.240 -0.9430 -0.5741  1.8889
 2721SOL    MW410652   4.950   3.693   3.265  0.0758 -0.1938  0.3952
 2722SOL     OW10653   1.174   5.318   0.163 -0.2089 -0.1081  0.6543
 2722SOL    HW210654   1.241   5.278   0.218  0.5404  0.2830  0.0488
 2722SOL    HW310655   1.122   5.244   0.132  1.7507 -0.8071 -1.2331
 2722SOL    MW410656   1.176   5.303   0.166  0.1485 -0.1487  0.3254
 2723SOL     OW10657   5.630   4.747   4.393  0.3217  0.1566  0.5539
 2723SOL    HW210658   5.698   4.722   4.456 -1.0859 -2.0815  1.2929
 2723SOL    HW310659   5.569   4.800   4.443  0.5090  0.5271  0.3935
 2723SOL    MW410660   5.631   4.751   4.408  0.1607 -0.0898  0.6303
 2724SOL     OW10661   2.065   5.978   1.437 -0.2321 -0.0237 -0.5100
 2724SOL    HW210662   2.057   5.982   1.341  0.5800 -0.7834 -0.6237
 2724SOL    HW310663   2.042   5.889   1.460 -2.4358  0.6862  0.2518
 2724SOL    MW410664   2.061   5.967   1.427 -0.4157 -0.0302 -0.4245
 2725SOL     OW10665   5.002   4.752   1.127  0.3639  0.0480  0.1217
 2725SOL    HW210666   4.936   4.787   1.067 -0.3678 -1.3456  0.0641
 2725SOL    HW310667   5.066   4.822   1.136 -1.3536  1.6241  0.5565
 2725SOL    MW410668   5.002   4.765   1.120  0.0408  0.0721  0.1715
 2726SOL     OW10669   5.229   4.684   0.751 -0.0158  0.1773 -0.2875
 2726SOL    HW210670   5.231   4.780   0.755 -0.5917  0.3526 -2.4383
 2726SOL    HW310671   5.297   4.662   0.687  0.1254 -0.8563  0.2057
 2726SOL    MW410672   5.238   4.694   0.743 -0.0732  0.0641 -0.5062
 2727SOL     OW10673   4.953   1.636   0.520 -0.7611  0.0530  0.2776
 2727SOL    HW210674   5.039   1.600   0.544 -1.2964 -1.1317  0.4694
 2727SOL    HW310675   4.947   1.622   0.426 -0.5835  0.5211  0.1911
 2727SOL    MW410676   4.964   1.629   0.511 -0.8083 -0.0416  0.2915
 2728SOL     OW10677   2.232   1.133   4.757  0.4399  0.2124  0.0221
 2728SOL    HW210678   2.219   1.223   4.787 -1.2240 -0.1789  0.5950
 2728SOL    HW310679   2.204   1.133   4.666 -1.9945 -0.1728  0.6768
 2728SOL    MW410680   2.226   1.145   4.749 -0.1008  0.1100  0.1841
 2729SOL     OW10681   5.765   3.546   1.798  0.5586  0.0160  0.4874
 2729SOL    HW210682   5.711   3.624   1.808 -0.7621 -1.1253  3.5221
 2729SOL    HW310683   5.703   3.475   1.781  1.5420 -0.6903 -0.2808
 2729SOL    MW410684   5.750   3.547   1.797  0.5141 -0.2278  0.7864
 2730SOL     OW10685   4.812   6.229   6.237 -0.0898  0.1888  0.2431
 2730SOL    HW210686   4.870   6.305   6.242  0.0981  0.1589 -1.0158
 2730SOL    HW310687   4.846   6.168   6.302  2.3550 -0.5013 -1.5491
 2730SOL    MW410688   4.824   6.231   6.246  0.2576  0.0938 -0.1595
 2731SOL     OW10689   5.838   0.674   0.391  0.0735 -0.1896  0.2006
 2731SOL    HW210690   5.851   0.580   0.385 -1.7230 -0.4907  0.5610
 2731SOL    HW310691   5.817   0.689   0.483 -0.5883  0.4319 -0.0455
 2731SOL    MW410692   5.837   0.664   0.403 -0.2508 -0.1474  0.2157
 2732SOL     OW10693   1.014   5.409   0.403  0.0186  0.0092 -0.2802
 2732SOL    HW210694   1.063   5.365   0.334 -0.0271 -2.7916  1.2904
 2732SOL    HW310695   0.923   5.380   0.389  0.0309 -0.7026  0.9556
 2732SOL    MW410696   1.008   5.399   0.392  0.0142 -0.4543  0.0901
 2733SOL     OW10697   2.216   5.123   4.403  0.2347  0.5334  0.3904
 2733SOL    HW210698   2.122   5.107   4.401 -0.1933  2.6634 -1.6657
 2733SOL    HW310699   2.252   5.050   4.453 -2.2825 -1.4616 -0.5025
 2733SOL    MW410700   2.208   5.111   4.409 -0.1539  0.5512  0.0013
 2734SOL     OW10701   4.805   1.265   5.761  0.0520  0.3397 -0.1488
 2734SOL    HW210702   4.729   1.323   5.755 -0.3312  0.1471  2.1463
 2734SOL    HW310703   4.857   1.302   5.832  0.1490 -1.7280  0.9091
 2734SOL    MW410704   4.802   1.278   5.770  0.0142  0.0415  0.2936
 2735SOL     OW10705   3.505   0.989   4.800  0.0786 -0.7496 -0.4971
 2735SOL    HW210706   3.542   1.013   4.885 -1.9234 -1.6525  0.7114
 2735SOL    HW310707   3.522   0.895   4.792 -2.6620 -1.4352  0.5853
 2735SOL    MW410708   3.512   0.979   4.810 -0.5471 -0.9591 -0.1948
 2736SOL     OW10709   5.841   3.144   4.229 -0.1812 -0.3698  0.2479
 2736SOL    HW210710   5.777   3.092   4.180 -0.4709  0.0304  0.2005
 2736SOL    HW310711   5.867   3.087   4.302  0.3343 -1.0148 -0.4138
 2736SOL    MW410712   5.836   3.129   4.232 -0.1514 -0.4021  0.1544
 2737SOL     OW10713   5.836   6.335   2.554 -0.0925 -0.2569  0.0128
 2737SOL    HW210714   5.833   6.289   2.470 -0.0191  0.6925 -0.5255
 2737SOL    HW310715   5.913   6.392   2.547  0.0536 -0.3397  0.8193
 2737SOL    MW410716   5.846   6.336   2.542 -0.0636 -0.1426  0.0482
 2738SOL     OW10717   6.409   3.768   0.947 -0.0962  0.4238  0.1690
 2738SOL    HW210718   6.434   3.683   0.984  0.5100 -0.8515 -2.8705
 2738SOL    HW310719   6.316   3.777   0.968 -0.1073 -0.8626  0.7617
 2738SOL    MW410720   6.400   3.758   0.955 -0.0177  0.0858 -0.1538
 2739SOL     OW10721   2.894   0.365   0.113  0.4163  0.3919  0.3615
 2739SOL    HW210722   2.852   0.440   0.155  0.4963 -0.1658  1.4868
 2739SOL    HW310723   2.926   0.399   0.029  1.0338  1.7910  1.1246
 2739SOL    MW410724   2.893   0.380   0.108  0.5084  0.5029  0.6107
 2740SOL     OW10725   5.376   1.823   5.199 -0.4743  0.1369  0.4523
 2740SOL    HW210726   5.398   1.743   5.151  2.9674 -0.2819  2.3526
 2740SOL    HW310727   5.301   1.799   5.253 -0.4381 -1.3560 -0.1035
 2740SOL    MW410728   5.369   1.809   5.200 -0.0154 -0.1154  0.6297
 2741SOL     OW10729   2.870   3.198   2.031 -0.0659 -0.1990  0.4601
 2741SOL    HW210730   2.920   3.188   1.949 -0.0871  3.9502 -0.2925
 2741SOL    HW310731   2.937   3.208   2.099  0.0006 -0.7382  0.4767
 2741SOL    MW410732   2.885   3.198   2.029 -0.0599  0.2773  0.3630
 2742SOL     OW10733   2.146   1.404   4.808  0.5509  0.1001 -0.1882
 2742SOL    HW210734   2.108   1.441   4.887 -2.7536 -1.2550 -0.9945
 2742SOL    HW310735   2.107   1.454   4.736  0.7806 -0.9278 -1.0615
 2742SOL    MW410736   2.136   1.415   4.809  0.1452 -0.2143 -0.4098
 2743SOL     OW10737   5.806   4.663   1.476 -0.6060 -0.0396 -0.0845
 2743SOL    HW210738   5.781   4.747   1.516  0.0631 -0.3415  0.9954
 2743SOL    HW310739   5.746   4.600   1.513 -0.4855 -0.2019 -0.1646
 2743SOL    MW410740   5.795   4.666   1.486 -0.5018 -0.1008  0.0474
 2744SOL     OW10741   0.688   2.973   1.440  0.5042  0.2778  0.0863
 2744SOL    HW210742   0.620   3.002   1.380  1.7824  1.1617 -0.9918
 2744SOL    HW310743   0.696   2.879   1.423  0.1289  0.3224 -0.3669
 2744SOL    MW410744   0.680   2.964   1.430  0.6234  0.4003 -0.1157
 2745SOL     OW10745   1.428   4.562   6.307 -0.1003  0.3612  0.0568
 2745SOL    HW210746   1.515   4.554   6.267 -0.1490 -0.4958  0.0928
 2745SOL    HW310747   1.445   4.599   6.393  0.4075 -1.1335  0.6295
 2745SOL    MW410748   1.442   4.566   6.313 -0.0397  0.0510  0.1371
 2746SOL     OW10749   4.683   4.423   5.378  0.4085  0.1469  0.4852
 2746SOL    HW210750   4.697   4.481   5.453  0.4503  0.1400  0.4832
 2746SOL    HW310751   4.754   4.445   5.318  0.9561 -0.5267  0.8700
 2746SOL    MW410752   4.694   4.434   5.380  0.4863  0.0571  0.5357
 2747SOL     OW10753   2.488   1.362   6.369 -0.2910 -0.0677 -0.0866
 2747SOL    HW210754   2.495   1.454   6.395  0.4017 -0.3311  0.7299
 2747SOL    HW310755   2.454   1.364   6.280  1.0275  1.0289 -0.5868
 2747SOL    MW410756   2.484   1.375   6.361 -0.0256  0.0423 -0.0448
 2748SOL     OW10757   0.080   1.975   1.034 -0.3727 -0.3158  0.0492
 2748SOL    HW210758   0.071   2.051   0.976  2.8134  1.9971  2.2999
 2748SOL    HW310759  -0.001   1.925   1.019 -2.0009  2.6949 -2.5996
 2748SOL    MW410760   0.068   1.978   1.024 -0.1672  0.3866 -0.0033
 2749SOL     OW10761   2.908   3.088   4.440 -0.4031 -0.3377  0.1685
 2749SOL    HW210762   2.831   3.142   4.419 -0.8852 -1.2436 -0.4522
 2749SOL    HW310763   2.911   3.088   4.536  0.0500  1.3878  0.1804
 2749SOL    MW410764   2.898   3.095   4.450 -0.4069 -0.2295  0.0882
 2750SOL     OW10765   5.570   0.572   6.107 -0.2943 -0.4738  0.3161
 2750SOL    HW210766   5.558   0.592   6.200  1.0596 -1.6043  0.7726
 2750SOL    HW310767   5.568   0.657   6.063  0.8926  0.2775  1.6243
 2750SOL    MW410768   5.568   0.586   6.113  0.0409 -0.5238  0.5489
 2751SOL     OW10769   4.925   4.622   0.788 -0.1777  0.7901 -0.5717
 2751SOL    HW210770   5.018   4.604   0.802  0.0883 -0.4586 -3.4087
 2751SOL    HW310771   4.920   4.718   0.783  1.2429  0.8205 -1.9406
 2751SOL    MW410772   4.937   4.632   0.789  0.0448  0.6294 -1.1266
 2752SOL     OW10773   2.227   3.293   0.595  0.2989  0.1139  0.5499
 2752SOL    HW210774   2.280   3.334   0.527  0.3012  0.4093  0.7314
 2752SOL    HW310775   2.202   3.364   0.653  1.6996 -0.3679  1.8135
 2752SOL    MW410776   2.231   3.308   0.594  0.4840  0.0893  0.7405
 2753SOL     OW10777   4.138   0.804   5.535  0.0414 -0.5119 -0.2876
 2753SOL    HW210778   4.104   0.853   5.610 -0.7674 -0.0221 -0.9570
 2753SOL    HW310779   4.199   0.864   5.492 -1.9862  0.5268 -1.9149
 2753SOL    MW410780   4.141   0.818   5.539 -0.3328 -0.3102 -0.5907
 2754SOL     OW10781   3.023   4.223   5.475  0.8201 -0.0361 -0.6598
 2754SOL    HW210782   2.948   4.200   5.420  0.2314 -2.0182  0.8354
 2754SOL    HW310783   3.020   4.318   5.482 -0.3781  0.0817 -2.2088
 2754SOL    MW410784   3.013   4.232   5.469  0.5843 -0.2821 -0.6669
 2755SOL     OW10785   6.054   2.178   1.835  0.3810 -0.3663  0.2649
 2755SOL    HW210786   6.036   2.232   1.913  0.8767  0.0373  0.1128
 2755SOL    HW310787   6.041   2.238   1.762 -0.4806 -0.8590  0.0118
 2755SOL    MW410788   6.050   2.193   1.836  0.3328 -0.3781  0.2114
 2756SOL     OW10789   5.088   6.321   3.178 -0.3465  0.0502 -0.2947
 2756SOL    HW210790   5.151   6.387   3.206 -1.6833  1.6132 -0.8266
 2756SOL    HW310791   5.124   6.238   3.209  0.8278  1.1418  1.3882
 2756SOL    MW410792   5.101   6.319   3.185 -0.3680  0.4005 -0.1428
 2757SOL     OW10793   3.718   5.953   2.824  0.2547  0.3578 -0.3799
 2757SOL    HW210794   3.741   5.897   2.898  1.0223  2.1356  0.7694
 2757SOL    HW310795   3.790   5.940   2.762 -0.6517 -1.5398 -1.1181
 2757SOL    MW410796   3.731   5.944   2.825  0.2364  0.3420 -0.3256
 2758SOL     OW10797   0.846   3.292   4.761  0.0947 -0.0895 -0.1022
 2758SOL    HW210798   0.808   3.281   4.673  0.5995  0.0165 -0.3360
 2758SOL    HW310799   0.940   3.299   4.746  0.1441  0.3825  0.4102
 2758SOL    MW410800   0.853   3.291   4.747  0.1679 -0.0132 -0.0654
 2759SOL     OW10801   5.392   2.815   1.767  0.0888 -0.3874  0.7181
 2759SOL    HW210802   5.358   2.728   1.743 -1.1727 -0.4272  2.4412
 2759SOL    HW310803   5.475   2.823   1.719 -0.9892 -1.4810 -1.4329
 2759SOL    MW410804   5.399   2.804   1.758 -0.2198 -0.5370  0.6616
 2760SOL     OW10805   6.000   2.076   2.351 -0.0445 -0.7048 -0.4083
 2760SOL    HW210806   6.031   2.154   2.305 -0.7997 -1.1525 -1.7382
 2760SOL    HW310807   5.981   2.013   2.282 -0.1403 -1.8239  0.6011
 2760SOL    MW410808   6.001   2.078   2.336 -0.1568 -0.9115 -0.4506
 2761SOL     OW10809   4.061   3.256   3.296  0.3705 -0.2585  0.0066
 2761SOL    HW210810   4.043   3.266   3.389  0.0911  0.0036 -0.0724
 2761SOL    HW310811   4.087   3.344   3.267 -0.9596  0.0041 -0.4591
 2761SOL    MW410812   4.062   3.269   3.305  0.1581 -0.1892 -0.0652
 2762SOL     OW10813   5.763   5.676   2.591 -0.5351 -0.1125  0.6320
 2762SOL    HW210814   5.797   5.616   2.524 -0.6557 -0.6055  1.0082
 2762SOL    HW310815   5.814   5.656   2.669 -1.1168 -0.2729  0.9730
 2762SOL    MW410816   5.775   5.665   2.592 -0.6278 -0.1987  0.7266
 2763SOL     OW10817   1.935   1.060   1.567 -0.1342  0.1775 -0.2067
 2763SOL    HW210818   1.846   1.053   1.531 -1.3228 -0.2941  2.5655
 2763SOL    HW310819   1.967   0.970   1.567 -0.4960  0.0410  0.6921
 2763SOL    MW410820   1.928   1.047   1.562 -0.3388  0.0973  0.2776
 2764SOL     OW10821   5.784   1.952   1.086 -0.6459 -0.2979  0.3514
 2764SOL    HW210822   5.812   1.865   1.114 -0.5338 -0.9113 -1.4994
 2764SOL    HW310823   5.736   1.936   1.005 -2.5935  1.1636  1.1422
 2764SOL    MW410824   5.781   1.939   1.079 -0.8881 -0.1860  0.2115
 2765SOL     OW10825   1.868   3.300   3.736 -0.5023  0.5583 -0.2937
 2765SOL    HW210826   1.934   3.238   3.768 -0.1858  1.5345  1.0325
 2765SOL    HW310827   1.807   3.246   3.686 -1.1435 -1.1458  2.1635
 2765SOL    MW410828   1.869   3.284   3.733 -0.5452  0.4623  0.2055
 2766SOL     OW10829   0.667   1.803   0.321  0.4012  0.2841  0.0915
 2766SOL    HW210830   0.668   1.890   0.361  1.5645 -0.1991  1.1903
 2766SOL    HW310831   0.723   1.750   0.378 -0.2655 -1.1876 -0.5698
 2766SOL    MW410832   0.675   1.808   0.334  0.4667  0.0262  0.1492
 2767SOL     OW10833   5.084   1.837   5.442 -0.0264 -0.8975  0.2612
 2767SOL    HW210834   5.025   1.833   5.517 -0.6912 -1.4875 -0.2671
 2767SOL    HW310835   5.161   1.884   5.473 -1.6113  1.7725  0.4132
 2767SOL    MW410836   5.086   1.843   5.456 -0.3233 -0.6231  0.2115
 2768SOL     OW10837   4.784   4.893   5.329 -0.0703  0.0526 -0.2805
 2768SOL    HW210838   4.854   4.957   5.317  0.2480 -0.6722 -2.9436
 2768SOL    HW310839   4.750   4.910   5.417  2.7235  1.1091  0.6907
 2768SOL    MW410840   4.788   4.904   5.339  0.3403  0.0963 -0.5037
 2769SOL     OW10841   4.612   0.396   6.107 -0.1783  0.4869  0.2048
 2769SOL    HW210842   4.656   0.472   6.145  3.0072 -2.4300  3.0375
 2769SOL    HW310843   4.544   0.374   6.171  0.2646 -0.1806  0.4536
 2769SOL    MW410844   4.609   0.403   6.121  0.3004  0.0140  0.6113
 2770SOL     OW10845   6.354   4.291   0.660  0.3797 -0.2710 -0.0807
 2770SOL    HW210846   6.281   4.330   0.611 -0.5019 -1.1106  0.5087
 2770SOL    HW310847   6.407   4.365   0.688 -0.1890  0.3554 -0.6308
 2770SOL    MW410848   6.351   4.306   0.657  0.1883 -0.2991 -0.0755
 2771SOL     OW10849   5.747   1.260   3.375  0.1481 -0.2434  0.6602
 2771SOL    HW210850   5.777   1.190   3.317  1.4651  2.0108 -1.5962
 2771SOL    HW310851   5.780   1.236   3.461  1.6186 -1.8001 -0.2753
 2771SOL    MW410852   5.755   1.247   3.378  0.5159 -0.1514  0.2391
 2772SOL     OW10853   1.505   0.783   3.622  0.8944  0.6013  0.3916
 2772SOL    HW210854   1.414   0.756   3.618  1.6837 -2.4069 -0.1721
 2772SOL    HW310855   1.551   0.719   3.566  3.1296  3.1495 -0.9289
 2772SOL    MW410856   1.499   0.771   3.614  1.2934  0.5406  0.1430
 2773SOL     OW10857   2.161   0.992   3.320  0.1409 -0.7082  0.7992
 2773SOL    HW210858   2.123   1.010   3.406 -1.5626  1.4705 -0.3107
 2773SOL    HW310859   2.244   1.039   3.320 -0.5379  0.5367  0.7888
 2773SOL    MW410860   2.167   1.001   3.331 -0.1734 -0.2565  0.6514
 2774SOL     OW10861   2.365   5.888   1.133 -0.3177  0.0181 -0.0677
 2774SOL    HW210862   2.427   5.924   1.069 -1.9137  0.2991 -1.5159
 2774SOL    HW310863   2.383   5.794   1.133  0.2578  0.1213 -0.2951
 2774SOL    MW410864   2.376   5.881   1.124 -0.4524  0.0688 -0.2887
 2775SOL     OW10865   0.299   4.075   3.687 -0.0283  0.1207  0.7055
 2775SOL    HW210866   0.235   4.014   3.725  0.5566  0.1580  1.7786
 2775SOL    HW310867   0.355   4.100   3.760  0.7451  0.6956 -0.0622
 2775SOL    MW410868   0.298   4.070   3.701  0.1509  0.2015  0.7458
 2776SOL     OW10869   0.986   2.453   3.176  0.5419 -0.2405 -0.2979
 2776SOL    HW210870   0.921   2.478   3.241 -1.2574 -1.4802 -1.5382
 2776SOL    HW310871   1.064   2.504   3.199 -1.1125  1.9838  0.7035
 2776SOL    MW410872   0.988   2.463   3.188  0.0863 -0.1106 -0.3294
 2777SOL     OW10873   2.167   0.370   4.936  0.3083 -0.5383 -0.1245
 2777SOL    HW210874   2.124   0.386   4.852  2.3229  0.3655 -1.0472
 2777SOL    HW310875   2.155   0.276   4.952 -0.5662 -0.6109 -1.1318
 2777SOL    MW410876   2.159   0.360   4.927  0.4587 -0.4286 -0.3791
 2778SOL     OW10877   2.536   4.321   2.055  0.3153 -0.3834 -0.0843
 2778SOL    HW210878   2.527   4.268   1.976  0.1716  2.1643 -1.9074
 2778SOL    HW310879   2.453   4.369   2.061  1.6492  2.1689 -0.5810
 2778SOL    MW410880   2.524   4.320   2.045  0.4724  0.2894 -0.3904
 2779SOL     OW10881   4.364   4.900   3.303 -0.1750 -0.4408  0.9291
 2779SOL    HW210882   4.317   4.855   3.233 -2.1181  0.8109  1.3357
 2779SOL    HW310883   4.438   4.942   3.259 -0.3236 -1.1642 -0.0435
 2779SOL    MW410884   4.367   4.900   3.288 -0.4509 -0.3711  0.8544
 2780SOL     OW10885   0.958   3.914   0.291  0.5493  0.2108  0.3387
 2780SOL    HW210886   0.884   3.940   0.236  0.0911 -0.4838  0.6100
 2780SOL    HW310887   1.034   3.955   0.249  0.0931  0.4368 -0.2928
 2780SOL    MW410888   0.958   3.923   0.278  0.4286  0.1490  0.2912
 2781SOL     OW10889   3.863   5.030   0.806 -0.6410 -0.6743 -0.6643
 2781SOL    HW210890   3.834   5.072   0.888  1.4177 -1.1426  0.3662
 2781SOL    HW310891   3.840   4.938   0.818 -1.0283 -0.6151 -0.9490
 2781SOL    MW410892   3.856   5.023   0.819 -0.4205 -0.7283 -0.5659
 2782SOL     OW10893   0.369   4.022   0.522 -0.1048  0.0704 -0.0172
 2782SOL    HW210894   0.390   3.946   0.468  0.3009  2.2891 -3.2998
 2782SOL    HW310895   0.453   4.053   0.554 -0.1648 -0.2511  0.4629
 2782SOL    MW410896   0.383   4.016   0.519 -0.0592  0.3207 -0.3869
 2783SOL     OW10897   6.117   4.623   4.839  0.0602 -0.2354  0.1875
 2783SOL    HW210898   6.068   4.702   4.861 -0.3788 -1.1487  2.8747
 2783SOL    HW310899   6.204   4.655   4.814 -1.0360  1.2281 -2.1001
 2783SOL    MW410900   6.122   4.637   4.839 -0.1424 -0.1628  0.2402
 2784SOL     OW10901   0.597   1.728   1.973 -0.3920  0.1690 -0.2303
 2784SOL    HW210902   0.621   1.661   1.908 -1.2541 -1.4242  1.0156
 2784SOL    HW310903   0.515   1.765   1.939 -0.7948 -0.5957 -0.1280
 2784SOL    MW410904   0.589   1.724   1.960 -0.5589 -0.1421 -0.0525
 2785SOL     OW10905   0.558   2.594   1.981 -0.5365  0.1710 -0.9849
 2785SOL    HW210906   0.478   2.625   1.939 -1.4928  0.3958  0.9294
 2785SOL    HW310907   0.532   2.569   2.069  1.7987  1.8927  0.3199
 2785SOL    MW410908   0.544   2.595   1.987 -0.3546  0.4278 -0.5602
 2786SOL     OW10909   2.768   4.161   5.337 -0.1322 -0.0575  0.1867
 2786SOL    HW210910   2.690   4.111   5.313 -0.0106  0.2739 -0.9372
 2786SOL    HW310911   2.737   4.250   5.353 -0.3440 -0.4434  2.1595
 2786SOL    MW410912   2.754   4.166   5.336 -0.1441 -0.0647  0.2987
 2787SOL     OW10913   6.165   1.197   0.019  0.3763  0.0721 -0.1043
 2787SOL    HW210914   6.258   1.187  -0.001  0.2970 -0.0257 -0.4353
 2787SOL    HW310915   6.156   1.290   0.040  0.0159  0.8488 -3.1383
 2787SOL    MW410916   6.176   1.208   0.019  0.3183  0.1617 -0.5482
 2788SOL     OW10917   5.395   5.040   0.541 -0.2853 -0.0278  0.1141
 2788SOL    HW210918   5.329   5.015   0.605 -1.2509 -0.9055 -1.1685
 2788SOL    HW310919   5.476   4.999   0.573 -0.7828 -0.5855  0.6886
 2788SOL    MW410920   5.397   5.031   0.554 -0.4783 -0.2172  0.0207
 2789SOL     OW10921   1.452   3.695   1.356  0.0780 -0.4433 -0.2353
 2789SOL    HW210922   1.491   3.608   1.364 -0.2544 -0.5901 -0.1987
 2789SOL    HW310923   1.388   3.686   1.285 -1.6408 -0.8437  1.2917
 2789SOL    MW410924   1.449   3.682   1.347 -0.1926 -0.5155 -0.0290
 2790SOL     OW10925   3.902   0.430   0.692  0.1665  0.1723 -0.4373
 2790SOL    HW210926   3.905   0.445   0.597  2.0068 -3.2618 -1.1013
 2790SOL    HW310927   3.992   0.444   0.721 -0.6812  2.7492  1.2056
 2790SOL    MW410928   3.915   0.433   0.683  0.2974  0.0592 -0.3081
 2791SOL     OW10929   1.905   4.448   5.621  0.0693  0.2173 -0.5506
 2791SOL    HW210930   1.963   4.403   5.683 -2.4394 -0.3734  1.5636
 2791SOL    HW310931   1.912   4.540   5.644 -0.3675  0.0655  0.2449
 2791SOL    MW410932   1.914   4.454   5.632 -0.3193  0.1193 -0.1667
 2792SOL     OW10933   5.447   3.569   1.570 -0.2903 -0.0979  0.2298
 2792SOL    HW210934   5.426   3.543   1.660  0.2404 -0.2671  0.3055
 2792SOL    HW310935   5.389   3.514   1.516 -2.4867  1.7669  0.5082
 2792SOL    MW410936   5.436   3.558   1.574 -0.5101  0.1258  0.2765
 2793SOL     OW10937   3.352   1.002   2.104 -0.2827 -0.0846  0.1101
 2793SOL    HW210938   3.318   0.913   2.112 -1.4561  0.3384 -0.0891
 2793SOL    HW310939   3.446   0.993   2.123 -0.6155 -1.1586  1.4021
 2793SOL    MW410940   3.360   0.989   2.108 -0.4814 -0.1705  0.2543
 2794SOL     OW10941   6.123   3.432   4.358 -0.8721 -0.2643 -0.0821
 2794SOL    HW210942   6.169   3.348   4.365 -0.5390 -0.0882 -0.1501
 2794SOL    HW310943   6.030   3.409   4.367 -0.8088 -0.6823 -0.4953
 2794SOL    MW410944   6.117   3.418   4.360 -0.8198 -0.2962 -0.1456
 2795SOL     OW10945   6.072   1.228   2.296 -0.1496 -0.1291 -0.1762
 2795SOL    HW210946   6.084   1.294   2.228  0.7624 -0.7964 -0.6745
 2795SOL    HW310947   6.133   1.158   2.274 -1.5534 -1.4640 -0.0325
 2795SOL    MW410948   6.081   1.228   2.284 -0.2144 -0.3933 -0.2229
 2796SOL     OW10949   6.425   2.101   3.922  0.1254  0.1030  0.3725
 2796SOL    HW210950   6.401   2.012   3.949 -1.2342  0.1568 -0.5552
 2796SOL    HW310951   6.519   2.097   3.905  0.3566 -0.7960  1.6718
 2796SOL    MW410952   6.434   2.089   3.924 -0.0235 -0.0085  0.4215
 2797SOL     OW10953   1.079   0.929   1.327 -0.2487  0.6016 -0.0028
 2797SOL    HW210954   1.172   0.947   1.313 -0.1239  0.6302  0.8493
 2797SOL    HW310955   1.068   0.838   1.298  0.5075 -0.1355  1.8941
 2797SOL    MW410956   1.090   0.919   1.321 -0.1325  0.5081  0.3599
 2798SOL     OW10957   1.286   0.928   1.118  0.4777 -0.1174 -0.3601
 2798SOL    HW210958   1.234   0.957   1.043  0.6409 -0.1526 -0.4891
 2798SOL    HW310959   1.316   0.840   1.094 -0.0152 -0.3971  0.0300
 2798SOL    MW410960   1.283   0.920   1.105  0.4342 -0.1589 -0.3257
 2799SOL     OW10961   2.798   1.838   2.235 -0.2617  0.6774 -0.4311
 2799SOL    HW210962   2.890   1.818   2.247 -0.7520 -2.6442 -1.1017
 2799SOL    HW310963   2.792   1.872   2.146  0.2318  0.1780 -0.6575
 2799SOL    MW410964   2.809   1.840   2.225 -0.2613  0.1733 -0.5494
 2800SOL     OW10965   4.911   3.320   2.764 -0.3386 -0.3025 -0.1248
 2800SOL    HW210966   4.939   3.375   2.691  1.0028  0.2441  0.7573
 2800SOL    HW310967   4.821   3.347   2.781  0.3029  1.7378  0.3448
 2800SOL    MW410968   4.903   3.331   2.756 -0.0770  0.0388  0.0535
 2801SOL     OW10969   1.478   3.748   3.953  0.3749  0.1301  0.5334
 2801SOL    HW210970   1.493   3.841   3.966  1.7482  0.1287 -0.7159
 2801SOL    HW310971   1.412   3.724   4.018 -0.5544  2.1143  0.3746
 2801SOL    MW410972   1.472   3.757   3.963  0.4335  0.3917  0.3476
 2802SOL     OW10973   2.950   1.031   0.367  0.5927  0.2923 -0.3543
 2802SOL    HW210974   2.914   1.023   0.279  2.4208 -0.3124 -1.0888
 2802SOL    HW310975   2.971   0.941   0.393 -0.5272  0.3823  1.0054
 2802SOL    MW410976   2.948   1.018   0.359  0.6862  0.2244 -0.2718
 2803SOL     OW10977   2.113   2.889   5.181 -0.2833 -0.6668 -0.1866
 2803SOL    HW210978   2.064   2.971   5.179  1.0836  0.1847 -2.5916
 2803SOL    HW310979   2.205   2.915   5.189  0.0662 -2.0699  0.7780
 2803SOL    MW410980   2.119   2.903   5.182 -0.0568 -0.7396 -0.3766
 2804SOL     OW10981   2.106   5.932   6.201  0.1085 -0.3148 -0.3754
 2804SOL    HW210982   2.097   5.859   6.263  1.8958  0.0420  0.3712
 2804SOL    HW310983   2.167   5.901   6.135 -0.5476 -0.1267 -1.0801
 2804SOL    MW410984   2.113   5.919   6.201  0.2577 -0.2429 -0.3699
 2805SOL     OW10985   4.656   2.850   4.701  0.3463 -0.0216 -0.5601
 2805SOL    HW210986   4.604   2.772   4.684 -0.2308  0.1036  0.5291
 2805SOL    HW310987   4.608   2.921   4.658 -0.0079 -0.0187 -0.1646
 2805SOL    MW410988   4.643   2.849   4.693  0.2234 -0.0047 -0.3642
 2806SOL     OW10989   4.226   0.130   6.400 -0.8356 -0.7102  0.4685
 2806SOL    HW210990   4.213   0.051   6.347  0.0769 -0.0605 -0.7707
 2806SOL    HW310991   4.156   0.189   6.373 -1.3190 -0.9489  1.1577
 2806SOL    MW410992   4.215   0.127   6.390 -0.7790 -0.6559  0.3959
 2807SOL     OW10993   1.024   4.696   0.734  0.6637 -0.7627  0.4406
 2807SOL    HW210994   0.964   4.752   0.684  1.2554  0.8320  1.4427
 2807SOL    HW310995   1.085   4.661   0.669  0.6360  0.2344 -0.1415
 2807SOL    MW410996   1.024   4.699   0.719  0.7381 -0.4207  0.4960
 2808SOL     OW10997   6.244   0.536   4.547 -0.5234  0.0906  0.1927
 2808SOL    HW210998   6.282   0.462   4.593 -0.0692 -0.6657 -1.3138
 2808SOL    HW310999   6.281   0.530   4.458 -0.1658  2.3305  0.1261
 2808SOL    MW411000   6.254   0.526   4.541 -0.4163  0.2863 -0.0148
 2809SOL     OW11001   3.438   0.401   5.193  0.6723 -0.0794  0.3894
 2809SOL    HW211002   3.348   0.432   5.180  0.6870 -0.1271  0.1748
 2809SOL    HW311003   3.479   0.470   5.245  1.2205  1.1653 -1.5902
 2809SOL    MW411004   3.432   0.414   5.198  0.7466  0.0785  0.0999
 2810SOL     OW11005   1.747   1.949   3.380  0.1981 -0.0755  0.3169
 2810SOL    HW211006   1.772   1.975   3.292  2.1444 -1.2538  0.4664
 2810SOL    HW311007   1.696   1.869   3.368  1.4325 -0.8780  0.2909
 2810SOL    MW411008   1.743   1.942   3.367  0.6178 -0.3368  0.3332
 2811SOL     OW11009   1.627   2.627   2.867 -0.0961 -0.6415  0.2868
 2811SOL    HW211010   1.548   2.595   2.911 -0.3704  0.8104  0.8969
 2811SOL    HW311011   1.681   2.549   2.857 -0.9472 -1.3960  1.2577
 2811SOL    MW411012   1.624   2.612   2.872 -0.2446 -0.5495  0.4954
 2812SOL     OW11013   0.296   5.934   1.593 -1.0515 -0.4259 -0.2531
 2812SOL    HW211014   0.340   6.005   1.639 -1.1697 -0.4696 -0.0700
 2812SOL    HW311015   0.362   5.865   1.587 -1.3962 -0.8810  0.9338
 2812SOL    MW411016   0.310   5.934   1.598 -1.1125 -0.4917 -0.0723
 2813SOL     OW11017   4.013   6.379   5.154  0.2775  0.6120 -0.2013
 2813SOL    HW211018   4.070   6.401   5.081  1.7523  0.0278  0.7205
 2813SOL    HW311019   4.051   6.425   5.229  0.2678 -0.7421  0.6739
 2813SOL    MW411020   4.026   6.388   5.154  0.4708  0.3563  0.0358
 2814SOL     OW11021   0.687   1.695   3.100  0.2380 -0.1353  0.3046
 2814SOL    HW211022   0.676   1.779   3.145 -1.6735 -0.2784  0.1713
 2814SOL    HW311023   0.782   1.687   3.088  0.5357  1.5177  1.2201
 2814SOL    MW411024   0.698   1.705   3.105  0.0251  0.0639  0.4078
 2815SOL     OW11025   6.355   2.753   1.572  0.2426 -0.2094  0.2162
 2815SOL    HW211026   6.336   2.743   1.478  0.7507  1.7166 -0.1423
 2815SOL    HW311027   6.326   2.842   1.592  0.6421 -0.4060  1.7726
 2815SOL    MW411028   6.349   2.764   1.562  0.3624  0.0188  0.3743
 2816SOL     OW11029   2.548   6.022   0.279  0.2456 -0.3814  0.6228
 2816SOL    HW211030   2.510   5.966   0.211 -1.1076  0.9166  0.2605
 2816SOL    HW311031   2.477   6.037   0.340  1.2835 -1.0320  2.0531
 2816SOL    MW411032   2.534   6.016   0.278  0.2040 -0.2959  0.7637
 2817SOL     OW11033   3.184   0.367   0.693  0.1683  0.5008 -1.0328
 2817SOL    HW211034   3.130   0.444   0.711  2.2978  1.8430 -0.0385
 2817SOL    HW311035   3.207   0.377   0.600  0.7874  1.3135 -0.8015
 2817SOL    MW411036   3.180   0.379   0.683  0.5310  0.7851 -0.8711
 2818SOL     OW11037   4.158   4.122   6.121 -0.0303  0.3354 -0.2101
 2818SOL    HW211038   4.185   4.179   6.049  3.7765 -1.8904 -0.8233
 2818SOL    HW311039   4.150   4.035   6.081  2.2190 -0.9765  1.8870
 2818SOL    MW411040   4.161   4.118   6.106  0.7687 -0.1313 -0.0143
 2819SOL     OW11041   1.196   3.081   2.021  0.1653 -0.8991  0.1311
 2819SOL    HW211042   1.161   3.103   1.935  1.8837 -1.2197 -0.6766
 2819SOL    HW311043   1.209   3.166   2.064  0.8751 -0.6378 -0.5798
 2819SOL    MW411044   1.193   3.095   2.015  0.4857 -0.9069 -0.0692
 2820SOL     OW11045   5.342   0.504   5.942  0.3505  0.1774  0.0179
 2820SOL    HW211046   5.404   0.525   6.012 -1.9928  1.8431  1.7802
 2820SOL    HW311047   5.341   0.582   5.887  1.4626 -0.7556 -1.3865
 2820SOL    MW411048   5.350   0.517   5.944  0.1881  0.2740  0.0651
 2821SOL     OW11049   2.439   4.453   4.019 -0.7161 -0.0764 -0.5154
 2821SOL    HW211050   2.384   4.531   4.033  1.1365  0.9451  1.6097
 2821SOL    HW311051   2.451   4.415   4.106  0.5635 -1.2344 -1.1526
 2821SOL    MW411052   2.433   4.458   4.032 -0.3028 -0.0944 -0.3191
 2822SOL     OW11053   0.142   4.485   0.699  0.1599  0.0408 -0.2962
 2822SOL    HW211054   0.123   4.526   0.783  0.0941 -0.7861  0.0945
 2822SOL    HW311055   0.215   4.426   0.717 -0.6982 -1.1130 -0.5276
 2822SOL    MW411056   0.149   4.483   0.712  0.0380 -0.2205 -0.2752
 2823SOL     OW11057   6.319   0.694   4.926  0.1800  0.1261 -0.0225
 2823SOL    HW211058   6.379   0.767   4.939  2.0412 -1.2023 -0.8252
 2823SOL    HW311059   6.350   0.626   4.986 -2.3099  0.3188  1.7011
 2823SOL    MW411060   6.331   0.695   4.936  0.0970 -0.0237  0.0990
 2824SOL     OW11061   4.374   5.871   4.004  0.1151  0.4306 -0.3716
 2824SOL    HW211062   4.376   5.966   4.004  1.2964  0.4260 -1.2058
 2824SOL    HW311063   4.401   5.846   3.916 -0.7743 -0.6782 -0.3581
 2824SOL    MW411064   4.378   5.880   3.993  0.1536  0.2837 -0.4799
 2825SOL     OW11065   5.722   5.962   3.818 -0.3047  0.2136 -0.1338
 2825SOL    HW211066   5.805   5.927   3.850  0.8644  1.6608 -1.4249
 2825SOL    HW311067   5.719   5.938   3.726 -0.3870  1.7434 -0.5655
 2825SOL    MW411068   5.733   5.954   3.810 -0.1613  0.6064 -0.3611
 2826SOL     OW11069   5.461   1.364   0.052  0.1914 -0.4326 -0.0034
 2826SOL    HW211070   5.466   1.270   0.036  1.1663 -0.4230  0.2318
 2826SOL    HW311071   5.367   1.383   0.048  0.1366 -0.8313 -3.4243
 2826SOL    MW411072   5.449   1.354   0.049  0.3128 -0.4839 -0.4237
 2827SOL     OW11073   4.123   6.420   4.897 -0.2642  0.0551  0.4569
 2827SOL    HW211074   4.189   6.351   4.897 -0.8830 -0.5483  0.2949
 2827SOL    HW311075   4.172   6.500   4.877  0.1086 -0.6999 -2.0141
 2827SOL    MW411076   4.138   6.422   4.895 -0.2966 -0.1242  0.1095
 2828SOL     OW11077   4.624   4.927   0.769  0.4359 -0.5184 -0.5580
 2828SOL    HW211078   4.600   5.019   0.762  1.3693 -0.2305 -0.0393
 2828SOL    HW311079   4.658   4.904   0.683 -0.8288 -0.6902 -1.0286
 2828SOL    MW411080   4.625   4.936   0.757  0.3922 -0.5031 -0.5517
 2829SOL     OW11081   6.259   0.022   3.546  0.4730  0.2721 -0.8884
 2829SOL    HW211082   6.169   0.053   3.536  0.2193 -0.6338 -1.5522
 2829SOL    HW311083   6.310   0.101   3.566 -0.7108  0.6052  1.1882
 2829SOL    MW411084   6.254   0.036   3.548  0.2833  0.1966 -0.7020
 2830SOL     OW11085   3.095   3.164   4.250 -0.1599 -0.4274  0.1121
 2830SOL    HW211086   3.014   3.142   4.296 -1.0217  0.3154 -1.0059
 2830SOL    HW311087   3.106   3.258   4.263  1.9469 -0.9000  2.4214
 2830SOL    MW411088   3.086   3.174   4.258  0.0044 -0.3917  0.2693
 2831SOL     OW11089   1.786   0.920   0.839  0.1472  0.4909 -0.5910
 2831SOL    HW211090   1.717   0.856   0.825 -0.2327  0.5617  0.7808
 2831SOL    HW311091   1.833   0.923   0.756 -1.9225  0.9818 -1.8032
 2831SOL    MW411092   1.783   0.912   0.826 -0.1760  0.5650 -0.5699
 2832SOL     OW11093   1.231   5.272   3.358  0.0288 -0.5657 -0.2114
 2832SOL    HW211094   1.249   5.344   3.297 -1.0611  0.7423  0.9432
 2832SOL    HW311095   1.314   5.259   3.403  0.1844  0.1514 -0.2660
 2832SOL    MW411096   1.245   5.280   3.356 -0.0945 -0.2985 -0.0663
 2833SOL     OW11097   4.010   0.424   1.197  0.0614  1.0428  0.1353
 2833SOL    HW211098   4.041   0.347   1.150 -1.3045 -1.4961  3.0522
 2833SOL    HW311099   3.965   0.476   1.130  0.4336 -1.0168 -1.8527
 2833SOL    MW411100   4.008   0.421   1.182 -0.0697  0.4361  0.2579
 2834SOL     OW11101   1.948   3.257   4.168 -0.4197 -0.0467 -0.4927
 2834SOL    HW211102   1.869   3.233   4.120 -0.3625 -1.0322 -0.0976
 2834SOL    HW311103   1.968   3.181   4.222 -0.0408  0.7628  0.5268
 2834SOL    MW411104   1.940   3.244   4.169 -0.3622 -0.0699 -0.3060
 2835SOL     OW11105   6.178   3.329   0.389  0.1162  0.4091 -0.5351
 2835SOL    HW211106   6.099   3.318   0.336  0.1750  0.9344 -0.7377
 2835SOL    HW311107   6.239   3.263   0.356 -0.1900  0.0897 -0.4668
 2835SOL    MW411108   6.175   3.319   0.377  0.0835  0.4362 -0.5528
 2836SOL     OW11109   1.923   0.824   3.107 -0.3813  0.1294  0.1242
 2836SOL    HW211110   1.942   0.916   3.128 -0.1516  0.3358 -0.8858
 2836SOL    HW311111   1.845   0.828   3.052 -0.2373 -0.2550 -0.1121
 2836SOL    MW411112   1.915   0.837   3.102 -0.3320  0.1059 -0.0402
 2837SOL     OW11113   2.799   2.941   1.955 -0.4383 -0.4514  0.0784
 2837SOL    HW211114   2.815   3.026   1.995  0.4258 -0.0079 -1.1331
 2837SOL    HW311115   2.780   2.962   1.863  0.2921 -1.5808 -0.3498
 2837SOL    MW411116   2.799   2.955   1.948 -0.2279 -0.5419 -0.1379
 2838SOL     OW11117   1.402   2.302   4.063 -0.3548 -0.0937  0.3916
 2838SOL    HW211118   1.456   2.237   4.017 -1.0659  0.0502 -0.6768
 2838SOL    HW311119   1.357   2.251   4.131 -1.4878 -0.9193 -0.9079
 2838SOL    MW411120   1.403   2.286   4.066 -0.5981 -0.1836  0.0792
 2839SOL     OW11121   4.932   2.590   1.424 -0.0056  0.1928 -0.3113
 2839SOL    HW211122   4.892   2.591   1.337 -1.0802 -0.9774  0.1411
 2839SOL    HW311123   4.875   2.645   1.477 -0.3172 -0.4548  0.0376
 2839SOL    MW411124   4.919   2.598   1.420 -0.1885 -0.0470 -0.2056
 2840SOL     OW11125   0.671   5.231   2.645  0.2309  0.1061 -0.6516
 2840SOL    HW211126   0.612   5.182   2.704 -0.2905 -1.0432 -2.0583
 2840SOL    HW311127   0.723   5.163   2.602  3.3671  1.1298  1.2305
 2840SOL    MW411128   0.670   5.215   2.647  0.5759  0.0895 -0.5889
 2841SOL     OW11129   5.476   0.962   4.538 -0.0462 -0.5658  0.0923
 2841SOL    HW211130   5.487   0.875   4.500 -0.4153 -1.9430  2.8846
 2841SOL    HW311131   5.396   0.956   4.591 -0.8284  1.9037 -0.6460
 2841SOL    MW411132   5.467   0.950   4.540 -0.1981 -0.4217  0.3633
 2842SOL     OW11133   5.865   3.443   0.706 -0.6898  0.4142 -0.3545
 2842SOL    HW211134   5.880   3.381   0.635 -1.1400 -0.1780  0.0552
 2842SOL    HW311135   5.937   3.427   0.767 -0.8326  0.2441 -0.2254
 2842SOL    MW411136   5.876   3.433   0.705 -0.7681  0.3136 -0.2834
 2843SOL     OW11137   1.228   3.436   1.313 -0.0875  0.3443 -0.2913
 2843SOL    HW211138   1.221   3.344   1.338  0.7512  0.7410  1.5508
 2843SOL    HW311139   1.202   3.438   1.221  1.7812 -2.0311 -0.9736
 2843SOL    MW411140   1.223   3.424   1.304  0.2697  0.0832 -0.1383
 2844SOL     OW11141   0.939   3.858   2.460  0.3159  0.4960  0.1578
 2844SOL    HW211142   0.844   3.846   2.459  0.3882 -0.2152  0.8904
 2844SOL    HW311143   0.956   3.908   2.540  0.5382  0.8837 -0.1250
 2844SOL    MW411144   0.929   3.863   2.471  0.3547  0.4533  0.2171
 2845SOL     OW11145   2.686   5.924   6.365  0.0906 -0.5203  0.0709
 2845SOL    HW211146   2.744   5.999   6.381  1.7750 -1.9731  1.3208
 2845SOL    HW311147   2.641   5.944   6.284  1.5241  1.2304 -0.3512
 2845SOL    MW411148   2.688   5.936   6.357  0.5019 -0.4810  0.1801
 2846SOL     OW11149   5.509   1.334   4.972 -0.0606 -0.2110  0.0352
 2846SOL    HW211150   5.431   1.284   4.996 -0.6314  0.8153  0.3857
 2846SOL    HW311151   5.551   1.282   4.903 -1.0658 -0.7759 -0.1705
 2846SOL    MW411152   5.504   1.321   4.966 -0.2685 -0.1501  0.0543
 2847SOL     OW11153   1.845   1.205   1.790 -0.4803 -0.3126 -0.0802
 2847SOL    HW211154   1.910   1.262   1.832 -0.8207  0.0702 -0.0685
 2847SOL    HW311155   1.890   1.168   1.715 -0.9584  1.8139 -1.4858
 2847SOL    MW411156   1.859   1.208   1.786 -0.5883  0.0185 -0.2641
 2848SOL     OW11157   5.208   1.249   2.418  0.0609  0.8195 -0.0445
 2848SOL    HW211158   5.180   1.225   2.330  0.6442 -1.6178  0.3672
 2848SOL    HW311159   5.282   1.308   2.405 -0.0376  0.7017 -1.1830
 2848SOL    MW411160   5.214   1.254   2.405  0.1249  0.4824 -0.1404
 2849SOL     OW11161   5.763   4.624   2.001  0.3683  0.0091 -0.1176
 2849SOL    HW211162   5.676   4.603   2.035  0.5669 -1.0052 -0.1976
 2849SOL    HW311163   5.821   4.562   2.045  1.0071  0.4725 -0.3007
 2849SOL    MW411164   5.759   4.613   2.011  0.4788 -0.0636 -0.1524
 2850SOL     OW11165   3.145   6.329   1.565  0.1405 -0.1424  0.2186
 2850SOL    HW211166   3.110   6.275   1.635  3.1012 -0.7985  1.3329
 2850SOL    HW311167   3.079   6.324   1.496 -0.1373 -4.6615  0.5056
 2850SOL    MW411168   3.132   6.321   1.565  0.4945 -0.8252  0.4035
 2851SOL     OW11169   2.886   5.498   3.942 -0.2792 -0.1391 -0.0107
 2851SOL    HW211170   2.849   5.515   3.855 -0.1488 -2.9842 -0.7518
 2851SOL    HW311171   2.980   5.512   3.931 -0.2471 -0.6134 -0.4021
 2851SOL    MW411172   2.894   5.502   3.929 -0.2578 -0.5770 -0.1601
 2852SOL     OW11173   2.767   6.014   3.262  0.4182  0.1403 -0.6068
 2852SOL    HW211174   2.825   5.943   3.290  0.6982 -0.8259 -3.3528
 2852SOL    HW311175   2.679   5.979   3.273  0.5227 -0.2171 -0.9023
 2852SOL    MW411176   2.763   6.000   3.267  0.4690 -0.0344 -1.0081
 2853SOL     OW11177   4.071   1.779   5.887  0.7055  0.2062  0.3229
 2853SOL    HW211178   4.133   1.838   5.845 -0.1989  1.2203  0.3527
 2853SOL    HW311179   3.985   1.819   5.870  0.1935 -0.2610  1.6665
 2853SOL    MW411180   4.068   1.792   5.879  0.5187  0.2784  0.5041
 2854SOL     OW11181   1.585   0.849   0.223  0.2963  0.2886 -0.2621
 2854SOL    HW211182   1.580   0.893   0.138  0.8423 -1.2971 -1.1618
 2854SOL    HW311183   1.564   0.757   0.203 -4.2932  0.5829  2.0349
 2854SOL    MW411184   1.582   0.842   0.209 -0.2372  0.1182 -0.0778
 2855SOL     OW11185   5.507   0.742   1.526  0.1822 -0.2273 -0.0347
 2855SOL    HW211186   5.463   0.780   1.450 -1.8072  1.3016  1.7487
 2855SOL    HW311187   5.461   0.659   1.541  0.1762 -0.2451 -0.1462
 2855SOL    MW411188   5.495   0.736   1.518 -0.0811 -0.0279  0.1859
 2856SOL     OW11189   1.579   3.644   5.547  0.7475  0.5823  0.0016
 2856SOL    HW211190   1.652   3.691   5.588  0.8245  2.1483 -1.7732
 2856SOL    HW311191   1.501   3.689   5.578  0.4975 -0.8619  1.6087
 2856SOL    MW411192   1.578   3.656   5.556  0.7246  0.5984 -0.0206
 2857SOL     OW11193   0.435   2.654   0.995  0.3032  0.4900  0.0985
 2857SOL    HW211194   0.403   2.733   0.953  0.0662  0.2900 -0.0997
 2857SOL    HW311195   0.446   2.679   1.087  2.0602  1.2965 -0.2975
 2857SOL    MW411196   0.432   2.668   1.002  0.5037  0.5700  0.0201
 2858SOL     OW11197   0.363   1.044   0.814  0.1326 -0.2045 -0.1214
 2858SOL    HW211198   0.301   1.090   0.757  1.0993  0.2774 -0.8013
 2858SOL    HW311199   0.372   0.957   0.776 -1.5731 -0.9758  1.0741
 2858SOL    MW411200   0.356   1.039   0.802  0.0351 -0.2426 -0.0534
 2859SOL     OW11201   3.880   1.165   2.810 -0.0270 -0.2021 -0.0568
 2859SOL    HW211202   3.796   1.194   2.775  1.5379  1.9335 -2.3755
 2859SOL    HW311203   3.932   1.142   2.733  1.4105 -1.9941  1.3408
 2859SOL    MW411204   3.876   1.166   2.795  0.3691 -0.1568 -0.1783
 2860SOL     OW11205   5.846   4.409   1.334  0.3405 -0.2049 -0.2013
 2860SOL    HW211206   5.881   4.370   1.415 -0.1080 -2.1555 -0.8915
 2860SOL    HW311207   5.866   4.345   1.266 -1.8624  0.0199 -1.1314
 2860SOL    MW411208   5.853   4.396   1.336 -0.0093 -0.4326 -0.4151
 2861SOL     OW11209   0.219   0.098   3.009  0.0512  0.9602  0.2343
 2861SOL    HW211210   0.175   0.093   3.094 -1.5860 -0.3495 -0.6182
 2861SOL    HW311211   0.292   0.158   3.023  1.2757 -0.9543  3.1766
 2861SOL    MW411212   0.223   0.105   3.022 -0.0033  0.5348  0.5100
 2862SOL     OW11213   3.884   4.797   0.532  0.4009  0.6552  0.0498
 2862SOL    HW211214   3.864   4.812   0.625  0.0673  0.8776 -0.0585
 2862SOL    HW311215   3.887   4.884   0.493  0.4415  0.5560 -0.1717
 2862SOL    MW411216   3.882   4.810   0.539  0.3622  0.6715  0.0063
 2863SOL     OW11217   1.864   2.238   0.756 -0.5009 -0.3538 -0.3233
 2863SOL    HW211218   1.828   2.162   0.802  0.4418 -0.6760 -0.1080
 2863SOL    HW311219   1.857   2.310   0.819  1.1407 -0.8746  0.5134
 2863SOL    MW411220   1.858   2.237   0.770 -0.1599 -0.4650 -0.1845
 2864SOL     OW11221   4.613   4.150   5.355  0.0619  0.2808  0.1629
 2864SOL    HW211222   4.620   4.246   5.357  1.3555  0.3661 -2.6423
 2864SOL    HW311223   4.703   4.120   5.341 -0.1856 -1.4619  1.8447
 2864SOL    MW411224   4.626   4.159   5.353  0.1999  0.0621  0.0147
 2865SOL     OW11225   0.862   0.843   0.383  0.2678  0.3893  0.4996
 2865SOL    HW211226   0.918   0.885   0.448  0.7132 -0.5349  0.7154
 2865SOL    HW311227   0.785   0.815   0.432 -0.3900  1.6151  0.2125
 2865SOL    MW411228   0.859   0.845   0.398  0.2398  0.4291  0.4902
 2866SOL     OW11229   5.275   2.610   3.871 -0.4625  0.5689 -0.2925
 2866SOL    HW211230   5.262   2.535   3.813  0.1813  1.1541 -1.2270
 2866SOL    HW311231   5.314   2.573   3.950 -2.4983 -0.4130  0.3184
 2866SOL    MW411232   5.279   2.595   3.874 -0.6462  0.5166 -0.3352
 2867SOL     OW11233   4.811   6.334   1.207  0.1157  0.2328 -0.0959
 2867SOL    HW211234   4.844   6.268   1.148 -0.5823 -0.9821  0.8226
 2867SOL    HW311235   4.736   6.372   1.161 -0.3054 -0.5675 -0.0916
 2867SOL    MW411236   4.805   6.331   1.193 -0.0320 -0.0331  0.0259
 2868SOL     OW11237   5.835   3.694   0.417 -0.0337 -0.2724 -0.1528
 2868SOL    HW211238   5.787   3.775   0.398  0.2448 -0.2877 -0.9545
 2868SOL    HW311239   5.917   3.724   0.457  0.7207 -0.0518 -1.7805
 2868SOL    MW411240   5.839   3.709   0.420  0.1025 -0.2453 -0.4734
 2869SOL     OW11241   3.859   0.203   1.691  0.2396  0.1377 -0.0874
 2869SOL    HW211242   3.785   0.197   1.631  0.7812 -1.3317 -0.6486
 2869SOL    HW311243   3.826   0.165   1.773 -0.2721  1.4687  0.3424
 2869SOL    MW411244   3.845   0.197   1.694  0.2435  0.1194 -0.1047
 2870SOL     OW11245   3.697   5.546   0.538 -0.2882 -0.5748  0.3191
 2870SOL    HW211246   3.707   5.631   0.581 -1.0903 -0.3195  0.0218
 2870SOL    HW311247   3.607   5.547   0.505 -0.1898 -1.4049  0.0168
 2870SOL    MW411248   3.686   5.557   0.540 -0.3811 -0.6507  0.2400
 2871SOL     OW11249   5.074   1.209   1.603  0.3647 -0.0677 -0.6287
 2871SOL    HW211250   5.075   1.296   1.645  0.4856  0.7532 -2.2648
 2871SOL    HW311251   5.077   1.228   1.510  0.4928 -1.8627 -1.0114
 2871SOL    MW411252   5.075   1.223   1.597  0.3975 -0.1962 -0.8951
 2872SOL     OW11253   2.940   2.211   4.312  0.3403  0.5495 -0.4153
 2872SOL    HW211254   2.904   2.167   4.236  1.6032  0.0177 -0.7283
 2872SOL    HW311255   2.953   2.141   4.377  2.7071  0.3036 -1.0457
 2872SOL    MW411256   2.937   2.196   4.311  0.8192  0.4469 -0.5398
 2873SOL     OW11257   4.627   3.118   6.392 -0.4619  0.5645 -0.1812
 2873SOL    HW211258   4.575   3.139   6.469 -0.5837 -0.5958  0.0661
 2873SOL    HW311259   4.718   3.136   6.418 -0.5451  0.6061  0.0764
 2873SOL    MW411260   4.632   3.124   6.405 -0.4889  0.4169 -0.1146
 2874SOL     OW11261   6.052   0.074   2.468 -0.4947  0.0462  0.4121
 2874SOL    HW211262   6.049   0.156   2.419 -0.1189 -0.7410 -1.0047
 2874SOL    HW311263   6.085   0.010   2.405 -0.9207 -1.2296  1.4295
 2874SOL    MW411264   6.056   0.076   2.453 -0.5013 -0.2260  0.3594
 2875SOL     OW11265   2.081   5.209   5.276  0.2906 -0.0056 -0.3994
 2875SOL    HW211266   2.011   5.154   5.241  0.5810  0.1422 -1.2355
 2875SOL    HW311267   2.058   5.298   5.247  0.2626  0.1976  0.2323
 2875SOL    MW411268   2.069   5.214   5.268  0.3252  0.0407 -0.4264
 2876SOL     OW11269   3.210   0.503   3.318 -0.1398 -0.3915 -0.5837
 2876SOL    HW211270   3.238   0.591   3.293 -0.8933  0.2911  0.8208
 2876SOL    HW311271   3.207   0.454   3.236 -1.1453  1.3169 -1.6223
 2876SOL    MW411272   3.213   0.508   3.304 -0.3719 -0.0760 -0.5354
 2877SOL     OW11273   6.397   4.803   5.641 -0.2284  0.4501 -0.8563
 2877SOL    HW211274   6.323   4.846   5.683 -0.3073  0.9462 -1.4827
 2877SOL    HW311275   6.367   4.786   5.551  0.4412  0.7210 -1.1377
 2877SOL    MW411276   6.383   4.806   5.635 -0.1504  0.5513 -0.9761
 2878SOL     OW11277   2.371   1.605   4.664  0.0820 -0.4498  0.0828
 2878SOL    HW211278   2.345   1.515   4.642  0.4140 -0.3579 -0.7324
 2878SOL    HW311279   2.342   1.657   4.589  1.3580 -0.1340 -0.2018
 2878SOL    MW411280   2.363   1.600   4.651  0.2941 -0.3960 -0.0623
 2879SOL     OW11281   4.017   3.963   1.816 -0.0308  0.1685  0.1896
 2879SOL    HW211282   4.016   3.979   1.722  0.0811  0.2881  0.2089
 2879SOL    HW311283   4.108   3.974   1.841 -0.1394  0.5982  0.3936
 2879SOL    MW411284   4.029   3.966   1.807 -0.0303  0.2410  0.2190
 2880SOL     OW11285   1.386   5.748   3.395 -0.2127  0.3605  0.1040
 2880SOL    HW211286   1.480   5.735   3.389 -0.3424 -1.3156  0.9470
 2880SOL    HW311287   1.353   5.667   3.434 -2.2371  0.1079 -1.9210
 2880SOL    MW411288   1.394   5.736   3.400 -0.4969  0.1060 -0.0519
 2881SOL     OW11289   2.893   4.239   2.113 -0.5203  0.2930 -0.0847
 2881SOL    HW211290   2.820   4.177   2.100 -0.6450  0.0461  1.5743
 2881SOL    HW311291   2.935   4.210   2.194  0.0039  1.8238  0.2258
 2881SOL    MW411292   2.889   4.227   2.122 -0.4676  0.4624  0.1752
 2882SOL     OW11293   4.642   3.293   2.931  0.3821  0.2022 -0.0226
 2882SOL    HW211294   4.555   3.259   2.951  0.2332  0.0637 -0.8875
 2882SOL    HW311295   4.662   3.352   3.003  0.3803 -1.2194  1.1990
 2882SOL    MW411296   4.633   3.296   2.943  0.3622 -0.0036  0.0245
 2883SOL     OW11297   4.882   4.169   1.387 -0.2521 -0.0705 -0.7060
 2883SOL    HW211298   4.805   4.112   1.379 -0.5338  0.2435 -0.2880
 2883SOL    HW311299   4.918   4.173   1.299 -1.4166  0.7460 -1.1700
 2883SOL    MW411300   4.877   4.162   1.375 -0.4429  0.0787 -0.7120
 2884SOL     OW11301   1.824   3.296   2.893  0.7742 -0.8513 -0.1133
 2884SOL    HW211302   1.880   3.364   2.930  0.2696 -0.4245 -0.1184
 2884SOL    HW311303   1.798   3.243   2.968 -2.5667  1.6605  0.7819
 2884SOL    MW411304   1.828   3.298   2.908  0.2669 -0.4636  0.0041
 2885SOL     OW11305   3.009   0.128   3.071 -0.2809  0.5442 -0.0847
 2885SOL    HW211306   3.016   0.069   3.146 -0.6734  1.4336  0.6607
 2885SOL    HW311307   2.916   0.147   3.062 -0.2285  0.5542 -0.7203
 2885SOL    MW411308   2.998   0.123   3.079 -0.3258  0.6629 -0.0702
 2886SOL     OW11309   4.759   3.049   5.329 -0.5501 -0.2793 -0.1500
 2886SOL    HW211310   4.848   3.062   5.362  0.1560 -1.0163 -1.6407
 2886SOL    HW311311   4.702   3.087   5.395  0.9183  1.0464  0.3957
 2886SOL    MW411312   4.763   3.055   5.342 -0.2632 -0.2016 -0.2747
 2887SOL     OW11313   4.464   2.500   0.400 -0.0174 -1.0548 -0.1978
 2887SOL    HW211314   4.434   2.429   0.343  0.1587 -0.9417 -0.4322
 2887SOL    HW311315   4.557   2.509   0.380 -0.2710 -0.0122 -0.9814
 2887SOL    MW411316   4.472   2.491   0.389 -0.0276 -0.9023 -0.3321
 2888SOL     OW11317   1.109   5.883   6.349  0.5732 -0.4666 -0.1761
 2888SOL    HW211318   1.114   5.875   6.444  1.9361 -1.3511 -0.2982
 2888SOL    HW311319   1.032   5.832   6.324  0.3336 -0.4047  0.4294
 2888SOL    MW411320   1.100   5.875   6.358  0.7214 -0.5751 -0.1123
 2889SOL     OW11321   1.341   4.585   5.349 -0.0740  0.7323  0.6692
 2889SOL    HW211322   1.408   4.591   5.418 -0.3234 -0.0501  0.9865
 2889SOL    HW311323   1.382   4.627   5.273  1.0056 -0.2399  0.6901
 2889SOL    MW411324   1.355   4.592   5.348  0.0355  0.5008  0.7138
 2890SOL     OW11325   6.046   1.493   1.300 -0.3958  0.5169  0.0127
 2890SOL    HW211326   6.034   1.544   1.380  0.9770  0.9210 -0.0060
 2890SOL    HW311327   6.065   1.404   1.330 -2.1186  0.1423  0.0622
 2890SOL    MW411328   6.047   1.488   1.315 -0.4420  0.5208  0.0168
 2891SOL     OW11329   2.852   5.231   4.286  0.0424 -0.4211  0.1788
 2891SOL    HW211330   2.770   5.207   4.244 -0.9486  0.5796  1.4821
 2891SOL    HW311331   2.848   5.192   4.373  0.2383  0.8992  0.8033
 2891SOL    MW411332   2.841   5.223   4.292 -0.0625 -0.1149  0.4332
 2892SOL     OW11333   1.374   2.887   2.055 -0.1727  0.2050  0.3413
 2892SOL    HW211334   1.399   2.867   2.145  0.6939 -0.5027 -0.0462
 2892SOL    HW311335   1.326   2.969   2.061 -1.2613 -0.4917  1.6129
 2892SOL    MW411336   1.371   2.895   2.067 -0.2020  0.0197  0.4579
 2893SOL     OW11337   5.999   1.750   3.245 -0.4822  0.1907 -0.3706
 2893SOL    HW211338   5.992   1.695   3.167  0.6371 -1.1424  0.4404
 2893SOL    HW311339   5.916   1.736   3.291 -0.2155 -0.8011 -0.1822
 2893SOL    MW411340   5.987   1.741   3.241 -0.2993 -0.1160 -0.2387
 2894SOL     OW11341   4.225   2.142   1.331  0.8942  0.1149 -0.2208
 2894SOL    HW211342   4.183   2.137   1.416 -0.5983 -0.0628 -0.9386
 2894SOL    HW311343   4.298   2.081   1.336  0.5151 -0.2676  0.7623
 2894SOL    MW411344   4.229   2.134   1.343  0.6472  0.0410 -0.1858
 2895SOL     OW11345   2.244   4.594   5.417  0.4349  0.7237 -0.6083
 2895SOL    HW211346   2.296   4.644   5.355 -0.3254  0.0315 -1.8584
 2895SOL    HW311347   2.280   4.505   5.413  0.0445  0.5541 -0.4674
 2895SOL    MW411348   2.255   4.589   5.408  0.2831  0.6100 -0.7547
 2896SOL     OW11349   4.204   4.612   2.352  0.0532  0.3023 -0.5104
 2896SOL    HW211350   4.255   4.575   2.280 -0.4190 -0.7720 -0.3075
 2896SOL    HW311351   4.128   4.653   2.310 -0.3473 -0.5321 -0.6206
 2896SOL    MW411352   4.201   4.612   2.337 -0.0619  0.0505 -0.4982
 2897SOL     OW11353   3.890   5.214   6.272  0.0426 -0.7603  0.1660
 2897SOL    HW211354   3.809   5.171   6.243 -0.7467  0.6703  0.1557
 2897SOL    HW311355   3.898   5.190   6.365 -1.2695  0.3120  0.5980
 2897SOL    MW411356   3.880   5.205   6.281 -0.2347 -0.4301  0.2216
 2898SOL     OW11357   2.732   2.982   3.990  0.2800 -0.1145  0.1437
 2898SOL    HW211358   2.708   3.015   4.076  0.4313 -0.3140  0.2644
 2898SOL    HW311359   2.679   2.903   3.979 -0.2471  0.2803 -0.2375
 2898SOL    MW411360   2.722   2.976   4.000  0.2304 -0.0887  0.1094
 2899SOL     OW11361   5.246   0.713   0.517 -0.5746  0.0237 -0.4061
 2899SOL    HW211362   5.308   0.779   0.550  1.2579 -1.7574 -0.0360
 2899SOL    HW311363   5.168   0.762   0.494  0.3792  2.1927  0.6935
 2899SOL    MW411364   5.244   0.728   0.519 -0.2070  0.0749 -0.2122
 2900SOL     OW11365   0.129   1.107   0.235 -0.0875  0.2408 -1.1509
 2900SOL    HW211366   0.106   1.199   0.226 -0.2013  0.0650 -3.1358
 2900SOL    HW311367   0.213   1.098   0.190  0.6878 -0.3722  0.3253
 2900SOL    MW411368   0.137   1.118   0.228 -0.0002  0.1367 -1.2180
 2901SOL     OW11369   1.720   0.077   5.772 -0.4443 -0.7115  0.6227
 2901SOL    HW211370   1.681   0.081   5.859 -2.6836 -3.2418 -0.1284
 2901SOL    HW311371   1.719  -0.016   5.750  1.2213 -0.2820 -1.6501
 2901SOL    MW411372   1.715   0.065   5.781 -0.5200 -0.9887  0.2238
 2902SOL     OW11373   6.305   0.566   3.068  0.1588 -0.5160 -0.7495
 2902SOL    HW211374   6.399   0.545   3.068  0.7784  1.7755  1.5009
 2902SOL    HW311375   6.299   0.651   3.025 -0.2043  1.3470  2.6792
 2902SOL    MW411376   6.317   0.574   3.062  0.1926  0.0321 -0.0002
 2903SOL     OW11377   1.210   3.078   2.484 -0.2259  0.1180  0.8497
 2903SOL    HW211378   1.147   3.046   2.549  0.4908  1.3816  2.2296
 2903SOL    HW311379   1.224   3.169   2.508  0.8917  0.3190 -0.4576
 2903SOL    MW411380   1.203   3.086   2.496  0.0161  0.3112  0.8593
 2904SOL     OW11381   3.697   1.816   1.067  0.4898 -0.2330  0.2082
 2904SOL    HW211382   3.649   1.734   1.053  0.5998 -0.3381  0.4478
 2904SOL    HW311383   3.747   1.827   0.986 -1.2760  0.8043 -0.8100
 2904SOL    MW411384   3.697   1.806   1.054  0.2714 -0.1100  0.1055
 2905SOL     OW11385   2.871   2.760   0.487  0.2025 -0.2841  0.3473
 2905SOL    HW211386   2.925   2.835   0.460 -0.3332  0.2189  0.6535
 2905SOL    HW311387   2.785   2.778   0.450  0.5589 -1.7918 -1.3608
 2905SOL    MW411388   2.867   2.772   0.478  0.1789 -0.4167  0.1624
 2906SOL     OW11389   2.485   2.483   6.351  0.2935  0.0677 -0.1060
 2906SOL    HW211390   2.458   2.409   6.406 -1.1559  1.7750  1.6070
 2906SOL    HW311391   2.407   2.504   6.299  0.2584  1.1829  0.3733
 2906SOL    MW411392   2.471   2.476   6.352  0.0976  0.4401  0.1832
 2907SOL     OW11393   2.973   6.232   5.742 -0.4441  0.2535 -0.0291
 2907SOL    HW211394   3.053   6.282   5.756  0.3428 -0.4745 -1.6858
 2907SOL    HW311395   2.904   6.285   5.782  0.8975  0.6737  1.8715
 2907SOL    MW411396   2.974   6.245   5.749 -0.1633  0.2129  0.0031
 2908SOL     OW11397   2.910   1.868   3.691  0.2405  0.7064  0.6709
 2908SOL    HW211398   2.945   1.803   3.629 -1.4405  0.6354 -0.2687
 2908SOL    HW311399   2.883   1.815   3.767  2.4799  0.8148  1.6376
 2908SOL    MW411400   2.911   1.852   3.693  0.3142  0.7114  0.6745
 2909SOL     OW11401   0.511   2.862   3.821  0.1867  0.5465  0.6224
 2909SOL    HW211402   0.560   2.799   3.875  0.9433  1.1136  0.6155
 2909SOL    HW311403   0.432   2.814   3.794  0.7704 -0.4193  0.5734
 2909SOL    MW411404   0.507   2.847   3.825  0.3635  0.4939  0.6151
 2910SOL     OW11405   3.019   4.933   4.631  0.1860 -0.2023 -0.6257
 2910SOL    HW211406   3.103   4.976   4.641 -0.2504  0.5902 -0.2448
 2910SOL    HW311407   3.038   4.853   4.582  1.3494 -0.6832  0.5510
 2910SOL    MW411408   3.032   4.928   4.626  0.2819 -0.1612 -0.4202
 2911SOL     OW11409   1.606   2.494   4.046 -0.0497 -0.0193 -0.5682
 2911SOL    HW211410   1.596   2.586   4.070  1.0348 -0.5003  1.9487
 2911SOL    HW311411   1.517   2.458   4.053 -0.4802  0.7635 -1.5583
 2911SOL    MW411412   1.593   2.501   4.050  0.0366  0.0205 -0.3668
 2912SOL     OW11413   2.895   4.118   4.489 -0.1011  0.1230  0.4126
 2912SOL    HW211414   2.846   4.114   4.571 -1.4355 -0.4952 -0.3825
 2912SOL    HW311415   2.969   4.059   4.502 -1.3782 -1.5255  0.5075
 2912SOL    MW411416   2.898   4.110   4.501 -0.4457 -0.1760  0.3202
 2913SOL     OW11417   0.901   0.181   0.503  0.0579  0.1552  0.0253
 2913SOL    HW211418   0.875   0.098   0.464 -0.4412  0.2881  0.0662
 2913SOL    HW311419   0.925   0.158   0.593 -0.3251  0.0901  0.1138
 2913SOL    MW411420   0.901   0.167   0.510 -0.0585  0.1642  0.0424
 2914SOL     OW11421   6.020   6.359   4.324 -0.5405 -0.1041  0.0575
 2914SOL    HW211422   5.944   6.302   4.311  0.1079 -1.2731  1.1682
 2914SOL    HW311423   6.006   6.397   4.411 -0.2519  0.3122 -0.0758
 2914SOL    MW411424   6.008   6.356   4.334 -0.4169 -0.2034  0.1865
 2915SOL     OW11425   2.399   2.072   4.036  0.0988  0.1597  0.2755
 2915SOL    HW211426   2.387   2.024   3.955  0.1909 -0.5767  0.6840
 2915SOL    HW311427   2.326   2.133   4.039 -0.8365 -0.9240  0.4108
 2915SOL    MW411428   2.388   2.073   4.026 -0.0125 -0.0804  0.3473
 2916SOL     OW11429   4.760   4.045   1.876  0.1586  0.0772  0.2497
 2916SOL    HW211430   4.798   4.001   1.800  0.6585  1.0028 -0.0551
 2916SOL    HW311431   4.713   3.976   1.923  0.0983 -0.5698 -0.7325
 2916SOL    MW411432   4.759   4.030   1.872  0.2166  0.1139  0.0799
 2917SOL     OW11433   2.073   1.390   0.496 -0.2385 -0.1273  0.4535
 2917SOL    HW211434   1.989   1.416   0.533 -0.9462 -0.9559 -0.5059
 2917SOL    HW311435   2.055   1.377   0.403  0.0742 -3.5999  0.7154
 2917SOL    MW411436   2.060   1.391   0.489 -0.2907 -0.6948  0.3615
 2918SOL     OW11437   0.459   0.823   0.082  0.4426 -0.3673 -0.1419
 2918SOL    HW211438   0.525   0.782   0.025  0.6963 -2.0747  1.2634
 2918SOL    HW311439   0.509   0.851   0.159 -0.4964 -2.4220  1.3159
 2918SOL    MW411440   0.475   0.821   0.085  0.3522 -0.8636  0.2359
 2919SOL     OW11441   4.036   4.234   5.649  0.0750 -0.0121  0.2485
 2919SOL    HW211442   3.969   4.280   5.598 -0.0545  0.9566  1.2561
 2919SOL    HW311443   4.086   4.186   5.584 -0.9278  0.1041 -0.6444
 2919SOL    MW411444   4.034   4.234   5.634 -0.0744  0.1311  0.2636
 2920SOL     OW11445   1.098   2.168   0.694 -0.1439 -0.2961 -0.2554
 2920SOL    HW211446   1.133   2.250   0.660  0.4271 -0.8514 -1.0251
 2920SOL    HW311447   1.061   2.191   0.779  0.5112  0.6476 -0.2190
 2920SOL    MW411448   1.098   2.182   0.701  0.0179 -0.2449 -0.3522
 2921SOL     OW11449   0.602   3.206   1.678 -0.1745 -0.0852 -0.2470
 2921SOL    HW211450   0.582   3.117   1.649  0.4620 -0.7596  1.2628
 2921SOL    HW311451   0.686   3.225   1.637 -1.4251  0.8208 -2.5559
 2921SOL    MW411452   0.611   3.196   1.669 -0.2555 -0.0546 -0.3525
 2922SOL     OW11453   2.159   5.747   0.002  0.3884 -0.0128  0.0477
 2922SOL    HW211454   2.253   5.762  -0.012  0.1434  0.0719 -1.7148
 2922SOL    HW311455   2.150   5.652   0.003  0.4068 -0.0260 -0.5593
 2922SOL    MW411456   2.170   5.736  -0.000  0.3585 -0.0034 -0.2649
 2923SOL     OW11457   6.443   0.202   2.870 -0.4395  0.3639  0.3442
 2923SOL    HW211458   6.522   0.148   2.877 -1.2561 -0.6590  2.3606
 2923SOL    HW311459   6.467   0.284   2.915  0.4909  1.4518 -1.9250
 2923SOL    MW411460   6.457   0.206   2.877 -0.4245  0.3724  0.3108
 2924SOL     OW11461   4.223   0.867   5.078  0.2050 -0.2767  0.5098
 2924SOL    HW211462   4.261   0.907   5.156  0.9552 -0.1396  0.0817
 2924SOL    HW311463   4.237   0.773   5.090 -2.7818 -0.6364  2.1751
 2924SOL    MW411464   4.230   0.860   5.090 -0.0901 -0.3061  0.6730
 2925SOL     OW11465   0.891   3.811   5.071 -0.1845 -0.0551  0.1595
 2925SOL    HW211466   0.952   3.835   5.141  0.4016 -0.7770 -0.0760
 2925SOL    HW311467   0.941   3.749   5.017 -1.0931 -0.5586 -0.1199
 2925SOL    MW411468   0.906   3.806   5.073 -0.2271 -0.2168  0.0915
 2926SOL     OW11469   2.745   4.526   4.944  0.1350 -0.0604  0.6847
 2926SOL    HW211470   2.707   4.441   4.920 -1.3278  0.5138  0.8573
 2926SOL    HW311471   2.834   4.506   4.972  0.8266 -1.2078 -1.9717
 2926SOL    MW411472   2.752   4.512   4.944  0.0333 -0.1360  0.3570
 2927SOL     OW11473   3.477   4.921   5.591 -0.0697  0.4086  0.2550
 2927SOL    HW211474   3.459   4.981   5.520  1.5575 -1.3434 -1.7951
 2927SOL    HW311475   3.516   4.975   5.660  1.5396  1.7379 -1.5916
 2927SOL    MW411476   3.480   4.936   5.591  0.3573  0.3528 -0.2592
 2928SOL     OW11477   4.580   4.289   1.870 -0.4217  0.4927 -0.6967
 2928SOL    HW211478   4.592   4.201   1.905 -0.9610  0.6703 -0.0234
 2928SOL    HW311479   4.668   4.321   1.854 -0.1670  0.3054  0.2840
 2928SOL    MW411480   4.593   4.282   1.872 -0.4593  0.4914 -0.4785
 2929SOL     OW11481   6.104   6.112   4.405  0.3126 -0.2799 -0.5436
 2929SOL    HW211482   6.115   6.074   4.318  1.6677  0.9820 -0.9568
 2929SOL    HW311483   6.071   6.200   4.390 -1.7429 -0.8415  0.3610
 2929SOL    MW411484   6.101   6.118   4.392  0.2202 -0.1875 -0.4788
 2930SOL     OW11485   0.683   5.803   3.236 -0.1340 -0.2123 -0.3706
 2930SOL    HW211486   0.764   5.761   3.208 -0.1502 -1.6199  1.5075
 2930SOL    HW311487   0.636   5.735   3.284 -2.1450  0.7634 -0.8366
 2930SOL    MW411488   0.688   5.788   3.238 -0.4014 -0.2693 -0.1843
 2931SOL     OW11489   2.620   4.362   4.580 -0.3673 -0.4160 -0.0095
 2931SOL    HW211490   2.628   4.275   4.617 -0.6722  0.1637  1.4931
 2931SOL    HW311491   2.704   4.404   4.598 -0.7892  0.1273  0.7530
 2931SOL    MW411492   2.632   4.356   4.587 -0.4632 -0.2678  0.2894
 2932SOL     OW11493   2.953   6.395   4.927  0.1435 -0.0612  0.4490
 2932SOL    HW211494   2.950   6.315   4.875  1.5475  0.4429 -0.4578
 2932SOL    HW311495   2.866   6.433   4.917  0.4422  0.1870 -1.8691
 2932SOL    MW411496   2.941   6.389   4.919  0.3682  0.0381  0.0235
 2933SOL     OW11497   5.624   2.983   4.121 -0.1593  0.3776  0.2163
 2933SOL    HW211498   5.647   2.912   4.180  0.9764  1.0519  0.6184
 2933SOL    HW311499   5.676   2.966   4.042  0.1559  0.7764  0.3341
 2933SOL    MW411500   5.634   2.971   4.118  0.0321  0.5192  0.2849
 2934SOL     OW11501   1.662   1.953   5.088  0.9806  0.6440  0.2094
 2934SOL    HW211502   1.672   1.978   5.180  0.6881 -0.4422  0.5603
 2934SOL    HW311503   1.743   1.907   5.067  1.8813  2.5558 -0.6813
 2934SOL    MW411504   1.674   1.950   5.097  1.0608  0.7529  0.1382
 2935SOL     OW11505   1.587   1.971   3.621 -0.5307 -0.0408  0.0087
 2935SOL    HW211506   1.546   1.885   3.635  1.7433 -1.2742 -0.4425
 2935SOL    HW311507   1.605   1.974   3.527  0.5081  0.4053  0.2137
 2935SOL    MW411508   1.584   1.960   3.610 -0.0936 -0.1447 -0.0238
 2936SOL     OW11509   4.024   0.233   2.776 -0.1890  0.1519 -0.4344
 2936SOL    HW211510   3.988   0.321   2.775  2.7274  1.4983 -2.3696
 2936SOL    HW311511   4.010   0.200   2.687  2.4561  0.4719 -1.0566
 2936SOL    MW411512   4.017   0.240   2.764  0.5448  0.3718 -0.7718
 2937SOL     OW11513   3.806   1.510   5.427 -0.2162  0.2939  0.7244
 2937SOL    HW211514   3.727   1.485   5.381  0.5604 -0.2719 -0.3457
 2937SOL    HW311515   3.828   1.596   5.392 -0.4655  0.5470  1.1786
 2937SOL    MW411516   3.799   1.518   5.416 -0.1466  0.2527  0.6432
 2938SOL     OW11517   5.342   0.819   1.023 -0.6496  0.2808 -0.1085
 2938SOL    HW211518   5.363   0.746   0.964  0.0555  0.2143  0.2164
 2938SOL    HW311519   5.362   0.897   0.971  0.7728  0.2206  0.2963
 2938SOL    MW411520   5.347   0.820   1.008 -0.3689  0.2641 -0.0123
 2939SOL     OW11521   0.248   2.556   3.929 -0.1501  0.1953  0.9877
 2939SOL    HW211522   0.188   2.556   4.004  0.2522 -0.7061  1.3190
 2939SOL    HW311523   0.310   2.486   3.948  0.9669  1.0567  0.6014
 2939SOL    MW411524   0.248   2.546   3.941  0.0503  0.1900  0.9804
 2940SOL     OW11525   2.264   3.092   1.605 -0.6361 -0.1940  0.0090
 2940SOL    HW211526   2.335   3.124   1.661 -0.4243 -1.0822  0.2671
 2940SOL    HW311527   2.186   3.100   1.658 -0.4295 -1.0727  0.4635
 2940SOL    MW411528   2.263   3.098   1.619 -0.5809 -0.4272  0.1030
 2941SOL     OW11529   2.908   3.499   4.472 -0.0024  0.0107 -0.5790
 2941SOL    HW211530   2.866   3.582   4.451 -1.8304 -0.6355  0.2913
 2941SOL    HW311531   2.905   3.493   4.567  1.5941 -0.3360 -0.5211
 2941SOL    MW411532   2.902   3.509   4.482 -0.0329 -0.1203 -0.4565
 2942SOL     OW11533   5.706   1.346   2.377 -0.0959  0.5482  0.4050
 2942SOL    HW211534   5.645   1.393   2.434 -1.4888 -1.7719  0.9618
 2942SOL    HW311535   5.721   1.263   2.421 -0.8060 -1.1406 -2.2621
 2942SOL    MW411536   5.700   1.342   2.390 -0.3734  0.0192  0.1266
 2943SOL     OW11537   1.208   4.664   1.391  0.6924 -0.8137  0.2913
 2943SOL    HW211538   1.245   4.575   1.388  0.0923 -1.2097  2.3389
 2943SOL    HW311539   1.144   4.666   1.320 -1.4471 -3.1368  1.9788
 2943SOL    MW411540   1.204   4.652   1.382  0.3309 -1.1724  0.7841
 2944SOL     OW11541   5.758   3.057   2.557 -0.0256 -0.2353  0.2273
 2944SOL    HW211542   5.817   3.032   2.628  0.6555  0.3827 -0.1128
 2944SOL    HW311543   5.725   2.974   2.523  0.5989 -0.5862  0.4640
 2944SOL    MW411544   5.761   3.043   2.562  0.1467 -0.2000  0.2136
 2945SOL     OW11545   5.776   3.157   2.954  0.2305  0.0920 -0.2556
 2945SOL    HW211546   5.860   3.187   2.990 -0.8725  0.3664  2.2653
 2945SOL    HW311547   5.743   3.232   2.904  1.2744  0.1259 -0.9180
 2945SOL    MW411548   5.783   3.171   2.952  0.2227  0.1327 -0.0104
 2946SOL     OW11549   4.901   3.301   3.828  0.1456  0.0516 -0.0684
 2946SOL    HW211550   4.855   3.253   3.759 -0.3435 -2.3606  1.8049
 2946SOL    HW311551   4.991   3.306   3.797  0.1783 -1.9794 -0.4741
 2946SOL    MW411552   4.907   3.295   3.815  0.0854 -0.5347  0.1252
 2947SOL     OW11553   5.860   5.993   5.307 -0.2720  0.2221  0.1038
 2947SOL    HW211554   5.915   5.928   5.264 -0.6019  1.3363 -2.1332
 2947SOL    HW311555   5.894   6.077   5.277 -0.9926  1.0467  1.4945
 2947SOL    MW411556   5.871   5.995   5.298 -0.4106  0.4779 -0.0079
 2948SOL     OW11557   0.760   4.073   4.575  0.1630  0.3638  0.5857
 2948SOL    HW211558   0.773   4.042   4.664 -0.1077  1.8527  1.1701
 2948SOL    HW311559   0.668   4.100   4.572  0.2766  0.7162 -0.0157
 2948SOL    MW411560   0.750   4.072   4.586  0.1423  0.6068  0.5835
 2949SOL     OW11561   1.762   2.069   6.203 -0.2950 -0.3253 -0.5497
 2949SOL    HW211562   1.780   2.161   6.190  4.8889 -1.1141 -0.9390
 2949SOL    HW311563   1.742   2.061   6.296  1.3956  0.9994 -0.0392
 2949SOL    MW411564   1.762   2.080   6.214  0.6120 -0.2546 -0.5337
 2950SOL     OW11565   0.781   0.227   4.815 -0.1546  0.4938 -0.6053
 2950SOL    HW211566   0.687   0.242   4.822  0.1542  2.2614  0.3070
 2950SOL    HW311567   0.795   0.200   4.724 -1.6031 -0.5183 -0.5672
 2950SOL    MW411568   0.770   0.225   4.804 -0.3050  0.5935 -0.4799
 2951SOL     OW11569   1.431   1.702   2.786 -0.2248 -0.1951  0.1841
 2951SOL    HW211570   1.494   1.772   2.769  0.2863 -1.3676 -4.0152
 2951SOL    HW311571   1.351   1.730   2.742 -0.4969 -1.5163 -0.2156
 2951SOL    MW411572   1.429   1.715   2.778 -0.1933 -0.5241 -0.4227
 2952SOL     OW11573   2.719   3.988   4.306 -0.7040  0.5400 -0.2744
 2952SOL    HW211574   2.780   4.022   4.373 -2.1706  1.7452  0.5145
 2952SOL    HW311575   2.748   3.898   4.291  1.7191  1.2803 -0.4789
 2952SOL    MW411576   2.731   3.981   4.313 -0.5778  0.7967 -0.1973
 2953SOL     OW11577   0.144   5.142   1.678 -0.0952  0.2753  0.3764
 2953SOL    HW211578   0.169   5.122   1.768 -0.3466 -0.8296  0.2151
 2953SOL    HW311579   0.049   5.127   1.676 -0.2090  1.0019  0.1058
 2953SOL    MW411580   0.135   5.137   1.690 -0.1434  0.2253  0.3194
 2954SOL     OW11581   5.987   3.077   6.327  0.2759  0.8269 -0.0258
 2954SOL    HW211582   5.980   3.166   6.363 -1.2742  0.6696  0.1476
 2954SOL    HW311583   6.067   3.042   6.365  1.3968  2.4515 -0.8040
 2954SOL    MW411584   5.996   3.084   6.337  0.2193  1.0205 -0.1056
 2955SOL     OW11585   3.629   0.882   6.037 -0.4578 -0.7918  0.3818
 2955SOL    HW211586   3.633   0.909   5.945  1.3185 -1.3188  0.2632
 2955SOL    HW311587   3.721   0.872   6.062 -0.9440 -1.4477  1.9852
 2955SOL    MW411588   3.642   0.885   6.028 -0.2876 -0.9479  0.5777
 2956SOL     OW11589   5.661   3.749   4.482  0.2390  0.1305  0.1162
 2956SOL    HW211590   5.666   3.668   4.532  0.1694  0.4353  0.6221
 2956SOL    HW311591   5.746   3.791   4.494  0.7427 -0.4661 -1.1857
 2956SOL    MW411592   5.673   3.744   4.490  0.2963  0.0920  0.0112
 2957SOL     OW11593   4.041   2.602   2.242 -0.4557 -0.2633  0.2795
 2957SOL    HW211594   4.033   2.537   2.312 -1.2139  0.2386  0.6654
 2957SOL    HW311595   4.099   2.669   2.278 -0.9915  0.0858  0.5045
 2957SOL    MW411596   4.048   2.602   2.256 -0.6264 -0.1510  0.3601
 2958SOL     OW11597   0.988   6.078   1.950  0.2859  0.4858  0.2271
 2958SOL    HW211598   1.027   5.990   1.949 -0.2450  0.1250 -3.5137
 2958SOL    HW311599   0.972   6.096   2.042  0.9813 -3.0945  1.2003
 2958SOL    MW411600   0.991   6.069   1.962  0.3076 -0.0342 -0.1381
 2959SOL     OW11601   2.264   2.428   2.721 -0.1265  0.0669  0.0815
 2959SOL    HW211602   2.178   2.468   2.734  0.0881  0.5999 -0.1013
 2959SOL    HW311603   2.268   2.409   2.627 -0.3228 -0.6156  0.2078
 2959SOL    MW411604   2.253   2.431   2.710 -0.1241  0.0472  0.0741
 2960SOL     OW11605   1.580   2.570   0.901  0.3642  0.5067  0.2297
 2960SOL    HW211606   1.598   2.626   0.826 -1.4357  1.0396  0.1510
 2960SOL    HW311607   1.516   2.506   0.869  3.8540 -3.1458 -0.3361
 2960SOL    MW411608   1.574   2.569   0.887  0.5872  0.0951  0.1447
 2961SOL     OW11609   3.143   2.874   1.890 -0.3123  0.0405  0.2071
 2961SOL    HW211610   3.120   2.856   1.799 -1.2915  2.4320 -0.1090
 2961SOL    HW311611   3.090   2.813   1.941 -0.7377 -0.4525 -0.7896
 2961SOL    MW411612   3.133   2.864   1.884 -0.4976  0.2910  0.0339
 2962SOL     OW11613   3.869   3.947   4.395 -0.1511 -0.1183 -0.5237
 2962SOL    HW211614   3.834   4.027   4.434 -0.8051 -0.2142 -0.8922
 2962SOL    HW311615   3.959   3.969   4.371 -0.6380  0.8488 -1.5700
 2962SOL    MW411616   3.876   3.960   4.397 -0.3016 -0.0033 -0.7103
 2963SOL     OW11617   0.832   5.106   4.002  0.1103 -0.8177 -0.1148
 2963SOL    HW211618   0.880   5.032   4.038  0.5126 -0.7083 -0.4216
 2963SOL    HW311619   0.754   5.068   3.963  0.1300 -1.0362  0.0598
 2963SOL    MW411620   0.828   5.091   4.002  0.1660 -0.8321 -0.1322
 2964SOL     OW11621   1.714   1.636   3.917  0.3601  0.1032  0.7645
 2964SOL    HW211622   1.651   1.586   3.865 -0.6711  1.0280  1.0944
 2964SOL    HW311623   1.691   1.727   3.902  0.5510  0.4084  2.2217
 2964SOL    MW411624   1.703   1.641   3.908  0.2493  0.2655  1.0003
 2965SOL     OW11625   2.049   6.353   2.755  0.2279 -0.2917  0.2213
 2965SOL    HW211626   2.114   6.421   2.770 -0.5372  0.1984  1.4866
 2965SOL    HW311627   2.089   6.273   2.789  0.7503 -0.2896 -0.3819
 2965SOL    MW411628   2.063   6.352   2.761  0.1958 -0.2268  0.3087
 2966SOL     OW11629   0.708   4.788   4.061  0.0178  0.4594 -0.3204
 2966SOL    HW211630   0.722   4.706   4.109 -0.4215  0.3622 -0.3528
 2966SOL    HW311631   0.793   4.831   4.061  0.4074 -0.2765 -0.8092
 2966SOL    MW411632   0.721   4.783   4.067  0.0113  0.3495 -0.3892
 2967SOL     OW11633   0.158   5.330   5.598  0.5229 -0.3398  0.0834
 2967SOL    HW211634   0.090   5.269   5.572  0.0341 -0.1659  0.8984
 2967SOL    HW311635   0.238   5.296   5.558 -0.1808 -0.0154 -1.6965
 2967SOL    MW411636   0.160   5.318   5.590  0.3655 -0.2740 -0.0439
 2968SOL     OW11637   5.419   4.697   0.532  0.2262  0.0488  0.4352
 2968SOL    HW211638   5.409   4.721   0.440  0.9706 -0.6355  0.1704
 2968SOL    HW311639   5.509   4.666   0.540  0.2746  0.3841  1.4647
 2968SOL    MW411640   5.430   4.696   0.521  0.3308  0.0028  0.5361
 2969SOL     OW11641   5.864   3.805   3.095  0.0357 -0.7136 -0.2468
 2969SOL    HW211642   5.916   3.734   3.059 -0.2209 -1.1684  0.2675
 2969SOL    HW311643   5.872   3.876   3.031  0.6298 -1.0578 -0.5582
 2969SOL    MW411644   5.872   3.805   3.082  0.0802 -0.8190 -0.2200
 2970SOL     OW11645   0.175   2.315   1.341  0.1773 -0.0492  0.6863
 2970SOL    HW211646   0.254   2.264   1.358 -0.3457 -0.7792  0.9998
 2970SOL    HW311647   0.133   2.324   1.426  0.0960  0.6314  0.5777
 2970SOL    MW411648   0.180   2.309   1.354  0.0976 -0.0557  0.7134
 2971SOL     OW11649   3.414   6.261   0.394 -0.1936 -0.0191 -0.4678
 2971SOL    HW211650   3.434   6.225   0.481 -0.4019  0.8045 -0.0641
 2971SOL    HW311651   3.499   6.275   0.353 -0.0873 -0.2265 -0.3190
 2971SOL    MW411652   3.428   6.258   0.400 -0.2070  0.0622 -0.3949
 2972SOL     OW11653   3.570   3.422   1.151  0.3764  0.5387 -0.1192
 2972SOL    HW211654   3.561   3.428   1.056  0.3376  0.4082 -0.1235
 2972SOL    HW311655   3.658   3.386   1.164  0.7632  1.4728 -0.0853
 2972SOL    MW411656   3.581   3.418   1.140  0.4223  0.6447 -0.1153
 2973SOL     OW11657   6.112   0.707   3.929 -0.3295  0.1904 -0.1064
 2973SOL    HW211658   6.039   0.736   3.874  1.5978  2.7779 -1.5244
 2973SOL    HW311659   6.168   0.657   3.871 -0.3937 -0.8291  0.6851
 2973SOL    MW411660   6.110   0.705   3.914 -0.0837  0.3973 -0.1891
 2974SOL     OW11661   2.949   0.992   4.602 -0.3655  0.6213  0.6059
 2974SOL    HW211662   3.043   0.997   4.588 -0.4989  0.6274 -0.3913
 2974SOL    HW311663   2.937   1.009   4.695  0.5100  2.1061  0.4838
 2974SOL    MW411664   2.960   0.995   4.612 -0.2676  0.8180  0.4582
 2975SOL     OW11665   3.671   3.747   0.184  0.1756 -0.1532  0.3639
 2975SOL    HW211666   3.615   3.823   0.203  0.4688 -0.0351  0.7717
 2975SOL    HW311667   3.637   3.712   0.102 -1.2634 -0.7922  1.1860
 2975SOL    MW411668   3.659   3.753   0.176  0.0244 -0.2219  0.5262
 2976SOL     OW11669   2.584   3.607   0.542 -0.1434  0.3156  0.0843
 2976SOL    HW211670   2.529   3.591   0.618 -1.1426  1.8100 -0.2716
 2976SOL    HW311671   2.649   3.537   0.543 -0.4822 -0.0128  1.9836
 2976SOL    MW411672   2.586   3.596   0.552 -0.3199  0.4694  0.2879
 2977SOL     OW11673   2.926   6.227   5.300 -0.1914  0.5897 -0.1386
 2977SOL    HW211674   2.926   6.173   5.379 -0.5040  0.7258 -0.0438
 2977SOL    HW311675   3.015   6.220   5.267 -0.0171  0.6529  0.3102
 2977SOL    MW411676   2.937   6.219   5.306 -0.2096  0.6160 -0.0669
 2978SOL     OW11677   4.133   4.570   2.832  0.1963  0.4097 -0.3987
 2978SOL    HW211678   4.175   4.510   2.771  2.1447 -1.1941  2.2624
 2978SOL    HW311679   4.179   4.653   2.821  1.1886 -0.1394 -0.4712
 2978SOL    MW411680   4.145   4.573   2.823  0.5843  0.1257 -0.0572
 2979SOL     OW11681   6.083   2.642   3.864  0.5675 -0.0619 -0.3352
 2979SOL    HW211682   6.100   2.548   3.866  0.4610 -0.1019 -0.8933
 2979SOL    HW311683   6.150   2.680   3.920  0.3845 -0.4994  0.1933
 2979SOL    MW411684   6.094   2.635   3.871  0.5293 -0.1249 -0.3391
 2980SOL     OW11685   4.576   0.698   1.541  0.2401 -0.0671 -0.1086
 2980SOL    HW211686   4.596   0.776   1.489  1.8990  0.0878  0.6767
 2980SOL    HW311687   4.592   0.726   1.631 -0.9504 -0.8081  0.3443
 2980SOL    MW411688   4.581   0.712   1.546  0.3019 -0.1444  0.0548
 2981SOL     OW11689   2.148   3.061   6.341  0.1081  0.3770  0.5002
 2981SOL    HW211690   2.170   3.056   6.434  0.3816 -0.3404  0.3988
 2981SOL    HW311691   2.078   2.998   6.329  0.2277  0.3063  0.1712
 2981SOL    MW411692   2.142   3.052   6.352  0.1600  0.2730  0.4434
 2982SOL     OW11693   1.210   4.929   3.881  0.4295  0.0951  0.0719
 2982SOL    HW211694   1.211   4.843   3.839 -2.4124 -0.5269  1.1009
 2982SOL    HW311695   1.239   4.989   3.812 -1.3290 -1.2340 -1.9509
 2982SOL    MW411696   1.214   4.925   3.866 -0.1775 -0.1623 -0.0592
 2983SOL     OW11697   6.248   3.717   3.248  0.0419  0.1421 -0.0187
 2983SOL    HW211698   6.255   3.754   3.160 -1.4276  0.7598  0.1014
 2983SOL    HW311699   6.235   3.623   3.233  1.3403  0.0079 -0.3990
 2983SOL    MW411700   6.247   3.709   3.234  0.0193  0.2059 -0.0530
 2984SOL     OW11701   5.512   2.427   3.705  0.0112 -0.2515 -0.4717
 2984SOL    HW211702   5.578   2.476   3.754 -0.1110  0.4921 -1.0292
 2984SOL    HW311703   5.524   2.336   3.732 -0.9998  0.2710  2.0369
 2984SOL    MW411704   5.522   2.421   3.715 -0.1383 -0.0845 -0.2143
 2985SOL     OW11705   2.573   0.606   4.835  0.5325 -0.4674  0.1297
 2985SOL    HW211706   2.622   0.545   4.780  2.5921 -1.4666  2.8120
 2985SOL    HW311707   2.497   0.556   4.865 -0.3755 -0.0518 -1.4218
 2985SOL    MW411708   2.570   0.591   4.832  0.6845 -0.5444  0.2789
 2986SOL     OW11709   2.464   3.576   1.173  0.0173 -0.0009 -0.3633
 2986SOL    HW211710   2.462   3.628   1.253  0.0780 -0.4995 -0.0379
 2986SOL    HW311711   2.400   3.618   1.116 -2.4738 -1.5178  1.1233
 2986SOL    MW411712   2.455   3.588   1.176 -0.3034 -0.2668 -0.1242
 2987SOL     OW11713   2.684   0.407   3.383  0.5034 -0.3381  0.1887
 2987SOL    HW211714   2.682   0.487   3.330  0.9179 -0.4660 -0.0242
 2987SOL    HW311715   2.597   0.403   3.424  0.7722  0.6713  0.8768
 2987SOL    MW411716   2.672   0.417   3.381  0.5936 -0.2218  0.2514
 2988SOL     OW11717   2.621   1.403   5.681  0.2293  0.5533  0.1163
 2988SOL    HW211718   2.624   1.402   5.586  2.3525 -2.1538  0.0687
 2988SOL    HW311719   2.655   1.489   5.705  1.6061  0.5618 -1.6201
 2988SOL    MW411720   2.626   1.414   5.672  0.6911  0.1973 -0.1190
 2989SOL     OW11721   5.089   5.235   0.967  0.1486  0.5782 -0.1880
 2989SOL    HW211722   5.003   5.199   0.948  0.7068 -0.0664 -1.6966
 2989SOL    HW311723   5.114   5.280   0.886  1.4284  0.3197  0.0409
 2989SOL    MW411724   5.081   5.236   0.954  0.3911  0.4591 -0.3568
 2990SOL     OW11725   2.046   2.256   3.532  0.3836  0.2609 -0.0262
 2990SOL    HW211726   1.976   2.306   3.573 -1.1925 -1.0991 -0.9285
 2990SOL    HW311727   2.015   2.165   3.536  3.5966 -0.9155  2.5882
 2990SOL    MW411728   2.033   2.250   3.538  0.5996 -0.0738  0.1997
 2991SOL     OW11729   3.722   4.641   5.102  0.3118 -0.2069  0.3765
 2991SOL    HW211730   3.746   4.553   5.072  0.6741 -0.3979  1.1920
 2991SOL    HW311731   3.744   4.641   5.195  0.3725  0.7715  0.3703
 2991SOL    MW411732   3.728   4.629   5.111  0.3676 -0.1031  0.4833
 2992SOL     OW11733   0.116   3.928   2.618  0.0388  0.3125  0.0300
 2992SOL    HW211734   0.105   3.855   2.679 -1.9370 -0.1278 -0.7820
 2992SOL    HW311735   0.103   4.006   2.673 -0.2883 -0.0224  0.4374
 2992SOL    MW411736   0.113   3.929   2.634 -0.2651  0.2102 -0.0233
 2993SOL     OW11737   3.254   2.943   4.358  0.1536 -0.4757 -0.7207
 2993SOL    HW211738   3.178   2.990   4.324  1.5592  0.9604 -1.9909
 2993SOL    HW311739   3.254   2.860   4.309 -0.1981 -0.1850 -1.2234
 2993SOL    MW411740   3.244   2.938   4.347  0.2926 -0.2479 -0.9546
 2994SOL     OW11741   6.317   3.398   5.666  0.2619 -0.5178  0.3763
 2994SOL    HW211742   6.344   3.379   5.577  1.8095  0.0959  0.6934
 2994SOL    HW311743   6.347   3.323   5.717  0.9195 -0.0843  0.6423
 2994SOL    MW411744   6.324   3.386   5.661  0.5528 -0.3796  0.4532
 2995SOL     OW11745   2.706   5.244   2.941  0.0648  0.0790  0.5915
 2995SOL    HW211746   2.732   5.223   3.030  1.0760  1.6919  0.7153
 2995SOL    HW311747   2.740   5.332   2.926 -0.7146  0.1296 -1.1410
 2995SOL    MW411748   2.714   5.253   2.951  0.0954  0.2985  0.3792
 2996SOL     OW11749   1.525   2.330   6.313 -0.0974 -0.1455  0.2440
 2996SOL    HW211750   1.443   2.298   6.349  0.4276 -2.6967 -0.6540
 2996SOL    HW311751   1.506   2.347   6.220  0.4634 -1.1395 -0.0640
 2996SOL    MW411752   1.512   2.328   6.305  0.0458 -0.6132  0.0849
 2997SOL     OW11753   3.202   3.330   1.943  0.0103  0.2439 -0.1669
 2997SOL    HW211754   3.137   3.390   1.980  1.1638  1.2388  0.3367
 2997SOL    HW311755   3.151   3.259   1.905 -1.2813 -0.4392  2.6314
 2997SOL    MW411756   3.187   3.329   1.943 -0.0079  0.2851  0.2687
 2998SOL     OW11757   4.721   4.108   0.159  0.6538  0.3355  0.1351
 2998SOL    HW211758   4.713   4.054   0.080 -0.6234  1.1237 -0.3072
 2998SOL    HW311759   4.635   4.103   0.200  1.4635 -0.4884  1.7851
 2998SOL    MW411760   4.709   4.101   0.154  0.5921  0.3308  0.2945
 2999SOL     OW11761   1.063   4.632   2.073  0.0034  0.2204  0.2654
 2999SOL    HW211762   1.089   4.665   2.159  2.2623 -1.5724  0.3598
 2999SOL    HW311763   1.035   4.542   2.089  1.0906 -0.3568 -0.9306
 2999SOL    MW411764   1.062   4.625   2.086  0.4449 -0.0923  0.1201
 3000SOL     OW11765   0.379   4.656   1.218 -1.2889 -0.1663  0.0588
 3000SOL    HW211766   0.393   4.626   1.308  1.2005  0.4121 -0.0557
 3000SOL    HW311767   0.303   4.607   1.188 -1.3226 -1.4375  1.9974
 3000SOL    MW411768   0.371   4.646   1.226 -0.9649 -0.2577  0.2995
 3001SOL     OW11769   6.450   0.987   5.495 -0.6042  0.5261 -0.0342
 3001SOL    HW211770   6.450   1.083   5.490 -1.7919  0.6861  1.8808
 3001SOL    HW311771   6.359   0.962   5.476 -0.8364 -0.0066  1.5803
 3001SOL    MW411772   6.438   0.997   5.492 -0.7915  0.4769  0.4315
 3002SOL     OW11773   0.689   4.176   5.915  0.1738  0.0242  0.0910
 3002SOL    HW211774   0.676   4.266   5.943  0.1580  0.5976 -1.6809
 3002SOL    HW311775   0.633   4.124   5.974 -0.3878  1.2169  0.6406
 3002SOL    MW411776   0.680   4.181   5.927  0.0976  0.2572 -0.0703
 3003SOL     OW11777   2.501   3.863   4.693 -0.2000  0.4711  0.0966
 3003SOL    HW211778   2.447   3.868   4.614 -1.7809  0.7368  1.1336
 3003SOL    HW311779   2.448   3.905   4.761  1.7627  1.6445  0.9798
 3003SOL    MW411780   2.487   3.869   4.692 -0.1496  0.6610  0.3499
 3004SOL     OW11781   5.517   0.971   0.339  0.0533 -0.3854  0.3661
 3004SOL    HW211782   5.603   1.008   0.360  0.1821 -0.4984  0.0332
 3004SOL    HW311783   5.536   0.890   0.293 -0.2287 -0.9925  1.2988
 3004SOL    MW411784   5.531   0.965   0.336  0.0331 -0.4804  0.4452
 3005SOL     OW11785   4.120   2.112   0.464 -0.0418 -0.7749 -0.2507
 3005SOL    HW211786   4.055   2.065   0.518  0.0463 -1.0636 -0.3920
 3005SOL    HW311787   4.139   2.192   0.513 -0.3678 -0.7770 -0.1174
 3005SOL    MW411788   4.114   2.116   0.478 -0.0732 -0.8132 -0.2518
 3006SOL     OW11789   2.781   4.376   1.753 -0.6990  0.0402  0.2996
 3006SOL    HW211790   2.803   4.427   1.831  1.9490 -0.2789 -0.1446
 3006SOL    HW311791   2.789   4.439   1.681 -0.3103 -0.3192  0.0270
 3006SOL    MW411792   2.785   4.391   1.754 -0.2984 -0.0493  0.2050
 3007SOL     OW11793   4.318   3.747   4.514  0.0258  0.1548  0.4469
 3007SOL    HW211794   4.293   3.654   4.506 -1.2578  0.5795 -1.1599
 3007SOL    HW311795   4.335   3.775   4.424 -1.7855  2.0058  0.5991
 3007SOL    MW411796   4.317   3.738   4.501 -0.3825  0.4551  0.2550
 3008SOL     OW11797   1.512   1.312   4.481 -0.1652  0.3447  0.2487
 3008SOL    HW211798   1.547   1.366   4.410  0.7785 -1.3250 -0.6383
 3008SOL    HW311799   1.431   1.355   4.508  1.0082  2.6861  0.2505
 3008SOL    MW411800   1.506   1.325   4.475  0.1141  0.4333  0.1319
 3009SOL     OW11801   2.731   1.833   5.497 -0.3071  0.4818 -0.6559
 3009SOL    HW211802   2.765   1.869   5.415 -1.1268  1.0255 -0.7657
 3009SOL    HW311803   2.699   1.909   5.545  0.6448  0.2273  0.4075
 3009SOL    MW411804   2.731   1.848   5.492 -0.2897  0.5200 -0.5300
 3010SOL     OW11805   4.368   1.871   0.234  0.2754 -0.0111 -0.0300
 3010SOL    HW211806   4.297   1.811   0.213  0.0709  0.1221  0.2746
 3010SOL    HW311807   4.384   1.857   0.328  0.3223  0.3083  0.0094
 3010SOL    MW411808   4.361   1.861   0.244  0.2546  0.0486  0.0154
 3011SOL     OW11809   2.811   5.906   4.117 -0.0164  0.2564 -0.8325
 3011SOL    HW211810   2.761   5.901   4.035 -0.7559 -0.3032 -0.3661
 3011SOL    HW311811   2.763   5.970   4.170 -2.2913 -2.6748  0.9198
 3011SOL    MW411812   2.798   5.914   4.113 -0.4141 -0.2042 -0.5397
 3012SOL     OW11813   6.062   1.158   3.814  0.0446 -0.2889 -0.7570
 3012SOL    HW211814   6.000   1.205   3.870 -1.3754 -0.4677 -2.1117
 3012SOL    HW311815   6.112   1.103   3.874  0.6960  1.7407  0.6902
 3012SOL    MW411816   6.061   1.157   3.829 -0.0568 -0.0447 -0.7448
 3013SOL     OW11817   3.959   0.447   0.391 -0.2813  0.6025 -0.1967
 3013SOL    HW211818   3.957   0.352   0.402 -1.6001  0.5442 -0.7783
 3013SOL    HW311819   3.959   0.460   0.296  0.5408  1.1856 -0.1244
 3013SOL    MW411820   3.959   0.436   0.380 -0.3468  0.6717 -0.2639
 3014SOL     OW11821   4.458   2.552   1.958 -0.1375 -0.0252  0.4192
 3014SOL    HW211822   4.498   2.623   1.907 -1.6755  0.0823 -0.6910
 3014SOL    HW311823   4.529   2.522   2.015  0.8360  1.7460  0.2373
 3014SOL    MW411824   4.473   2.558   1.959 -0.2120  0.2227  0.2487
 3015SOL     OW11825   2.204   4.611   1.181  0.0547 -0.6368 -0.1425
 3015SOL    HW211826   2.260   4.587   1.254  2.2812 -1.9344 -2.1287
 3015SOL    HW311827   2.213   4.706   1.174  1.1299 -0.6970  0.2685
 3015SOL    MW411828   2.213   4.620   1.190  0.4903 -0.8160 -0.3504
 3016SOL     OW11829   2.452   2.189   2.554  0.0326  0.0817  0.5718
 3016SOL    HW211830   2.410   2.143   2.627 -0.4306 -1.5360 -0.6393
 3016SOL    HW311831   2.509   2.123   2.515  0.7930  1.1296 -0.1079
 3016SOL    MW411832   2.454   2.174   2.559  0.0718  0.0065  0.3224
 3017SOL     OW11833   3.651   4.227   5.286 -0.2808 -0.3648  0.0641
 3017SOL    HW211834   3.724   4.225   5.348  0.4440  2.2295 -0.5823
 3017SOL    HW311835   3.582   4.273   5.333 -1.1109 -1.7261  0.2280
 3017SOL    MW411836   3.652   4.233   5.301 -0.2947 -0.2021  0.0004
 3018SOL     OW11837   0.471   5.757   0.116  0.2452  0.0216 -0.3129
 3018SOL    HW211838   0.438   5.684   0.065  0.3396  0.7740 -1.4899
 3018SOL    HW311839   0.520   5.810   0.053  1.4196  0.3315  0.8213
 3018SOL    MW411840   0.473   5.755   0.101  0.4126  0.1618 -0.3186
 3019SOL     OW11841   1.746   4.603   4.190 -0.3629  0.0814  0.6130
 3019SOL    HW211842   1.725   4.675   4.131  0.4468 -0.5465 -0.4782
 3019SOL    HW311843   1.712   4.525   4.146 -1.3173 -0.2229  1.8213
 3019SOL    MW411844   1.739   4.602   4.176 -0.3820 -0.0416  0.6284
 3020SOL     OW11845   2.195   4.083   4.146 -0.7011  0.0041  0.1718
 3020SOL    HW211846   2.254   4.134   4.202  1.0346 -1.7923  0.1206
 3020SOL    HW311847   2.167   4.010   4.201  0.5673 -1.4747 -1.0297
 3020SOL    MW411848   2.199   4.080   4.160 -0.3048 -0.4280  0.0065
 3021SOL     OW11849   2.130   0.658   3.544 -0.8075  0.5558  0.0080
 3021SOL    HW211850   2.209   0.661   3.489 -1.4561  0.1417 -0.9647
 3021SOL    HW311851   2.059   0.683   3.485 -1.5495 -0.1481  0.5877
 3021SOL    MW411852   2.131   0.661   3.529 -0.9910  0.4083 -0.0439
 3022SOL     OW11853   0.254   3.911   3.399 -0.7425 -0.0753 -0.3670
 3022SOL    HW211854   0.177   3.857   3.380 -0.4559 -1.4341  1.8942
 3022SOL    HW311855   0.218   3.992   3.434 -1.1653 -0.0971 -0.7494
 3022SOL    MW411856   0.239   3.914   3.401 -0.7605 -0.2575 -0.1191
 3023SOL     OW11857   0.971   5.921   2.980 -0.3883 -0.2780  0.2881
 3023SOL    HW211858   1.050   5.975   2.972 -0.0189 -0.6653  1.2024
 3023SOL    HW311859   0.899   5.984   2.978 -0.0578  0.0971 -0.3357
 3023SOL    MW411860   0.972   5.937   2.979 -0.2960 -0.2796  0.3264
 3024SOL     OW11861   2.574   4.938   4.119  0.0498 -0.2755  0.1069
 3024SOL    HW211862   2.601   4.947   4.028  2.1444  1.0705  0.7919
 3024SOL    HW311863   2.575   5.027   4.154  1.2051 -0.9232  1.8995
 3024SOL    MW411864   2.578   4.951   4.112  0.4786 -0.1834  0.4338
 3025SOL     OW11865   5.777   0.741   2.314  0.5384 -0.0865 -0.3101
 3025SOL    HW211866   5.728   0.823   2.313  0.1620 -0.3095 -1.0094
 3025SOL    HW311867   5.773   0.710   2.223  1.0992 -0.6250 -0.1558
 3025SOL    MW411868   5.770   0.747   2.302  0.5627 -0.1870 -0.3820
 3026SOL     OW11869   1.921   1.631   3.522  0.1629 -0.1953  0.5365
 3026SOL    HW211870   1.990   1.676   3.474  0.0505 -0.0016  0.5568
 3026SOL    HW311871   1.948   1.637   3.614  1.1006 -1.7779  0.4075
 3026SOL    MW411872   1.934   1.638   3.528  0.2718 -0.3785  0.5221
 3027SOL     OW11873   1.345   2.386   0.871  0.0758 -0.1011  0.1724
 3027SOL    HW211874   1.323   2.414   0.782 -0.3624 -1.5155 -0.1943
 3027SOL    HW311875   1.321   2.293   0.873  0.9861 -0.3316  1.4676
 3027SOL    MW411876   1.339   2.378   0.860  0.1381 -0.3181  0.2949
 3028SOL     OW11877   6.285   5.337   6.410 -0.3489 -0.9245 -0.3846
 3028SOL    HW211878   6.221   5.377   6.351 -0.7072 -1.1504 -0.1505
 3028SOL    HW311879   6.347   5.408   6.429 -2.1021  0.1543  1.6550
 3028SOL    MW411880   6.285   5.352   6.404 -0.6275 -0.8120 -0.0846
 3029SOL     OW11881   2.340   1.654   2.001 -0.1336  0.2921 -0.0956
 3029SOL    HW211882   2.424   1.689   1.973  1.1197 -2.4874 -0.1725
 3029SOL    HW311883   2.350   1.636   2.094 -1.2553  1.4478  0.2764
 3029SOL    MW411884   2.352   1.656   2.010 -0.1162  0.0779 -0.0567
 3030SOL     OW11885   4.257   0.793   1.935  0.2835  0.5197  0.0928
 3030SOL    HW211886   4.269   0.699   1.921  0.2387  0.3808  0.9285
 3030SOL    HW311887   4.162   0.804   1.939  0.2962  0.5539  0.2944
 3030SOL    MW411888   4.246   0.782   1.934  0.2793  0.5059  0.2297
 3031SOL     OW11889   4.908   4.483   2.499  0.0195 -0.0430 -0.3197
 3031SOL    HW211890   4.987   4.443   2.461  0.8379  1.8146 -0.7062
 3031SOL    HW311891   4.912   4.575   2.471  0.1828  1.2840  3.4206
 3031SOL    MW411892   4.919   4.490   2.490  0.1491  0.3772  0.1228
 3032SOL     OW11893   0.712   2.644   5.690  0.1521  0.0287  0.2949
 3032SOL    HW211894   0.708   2.562   5.641 -1.2567 -0.0329  0.4719
 3032SOL    HW311895   0.624   2.655   5.726  0.4824  1.3218  0.7694
 3032SOL    MW411896   0.700   2.635   5.689  0.0098  0.1912  0.3809
 3033SOL     OW11897   2.287   4.595   0.235 -0.3033  0.4329  0.2289
 3033SOL    HW211898   2.357   4.658   0.248 -0.0758  0.1066  0.6054
 3033SOL    HW311899   2.210   4.635   0.275 -0.6727  1.3861 -1.3500
 3033SOL    MW411900   2.286   4.608   0.242 -0.3220  0.5156  0.0703
 3034SOL     OW11901   4.440   4.862   0.190 -0.1136 -0.1265 -0.0244
 3034SOL    HW211902   4.413   4.947   0.225  0.2386 -0.5333  1.3054
 3034SOL    HW311903   4.512   4.883   0.130  0.6585  0.4502  1.0633
 3034SOL    MW411904   4.446   4.876   0.186  0.0347 -0.1041  0.2945
 3035SOL     OW11905   1.290   2.258   1.914 -0.1057  0.2374 -0.0437
 3035SOL    HW211906   1.371   2.308   1.926 -0.2550  0.0554  2.1119
 3035SOL    HW311907   1.221   2.324   1.915 -0.0981  0.2495 -0.2621
 3035SOL    MW411908   1.292   2.273   1.915 -0.1244  0.2149  0.2119
 3036SOL     OW11909   6.214   4.700   1.554 -0.4910  0.3129 -0.7847
 3036SOL    HW211910   6.173   4.785   1.540 -1.7971 -0.0442  0.6128
 3036SOL    HW311911   6.246   4.703   1.644  1.9282  0.2720 -1.5597
 3036SOL    MW411912   6.213   4.712   1.564 -0.3442  0.2604 -0.7026
 3037SOL     OW11913   3.681   4.218   4.250 -0.3510  0.0965  0.6708
 3037SOL    HW211914   3.732   4.222   4.331  0.0934  0.9802  0.3595
 3037SOL    HW311915   3.661   4.309   4.230 -2.0450 -0.2364  0.7569
 3037SOL    MW411916   3.685   4.230   4.258 -0.5159  0.1692  0.6411
 3038SOL     OW11917   6.439   2.523   3.786  0.2177  0.1722  0.2915
 3038SOL    HW211918   6.452   2.458   3.717 -3.1448  0.6069 -0.9494
 3038SOL    HW311919   6.524   2.531   3.828  1.5851 -2.5495 -1.6656
 3038SOL    MW411920   6.452   2.516   3.783 -0.0455 -0.1296 -0.1305
 3039SOL     OW11921   4.038   6.303   3.057  0.6378  0.4896  0.0663
 3039SOL    HW211922   4.047   6.247   3.134  1.0442 -0.0025 -0.3343
 3039SOL    HW311923   3.979   6.255   2.999  0.1726  0.9513  0.1453
 3039SOL    MW411924   4.032   6.290   3.060  0.6300  0.4856  0.0239
 3040SOL     OW11925   0.633   3.109   5.520  0.2409  0.5778  0.3982
 3040SOL    HW211926   0.614   3.051   5.446 -0.6374 -0.0547  1.0973
 3040SOL    HW311927   0.584   3.189   5.501  1.7302  1.2775 -0.7407
 3040SOL    MW411928   0.624   3.112   5.507  0.3215  0.5866  0.3402
 3041SOL     OW11929   3.899   1.549   1.299  0.1549 -0.3486  0.2062
 3041SOL    HW211930   3.973   1.597   1.262  0.1634 -0.2768  0.3141
 3041SOL    HW311931   3.832   1.616   1.313 -0.4423 -0.6318 -1.1617
 3041SOL    MW411932   3.900   1.564   1.296  0.0773 -0.3765  0.0400
 3042SOL     OW11933   1.171   1.223   2.701  0.5331 -0.1571  0.1289
 3042SOL    HW211934   1.236   1.292   2.689  1.7292 -1.2583  0.0336
 3042SOL    HW311935   1.177   1.200   2.794 -0.1172  0.0890  0.2416
 3042SOL    MW411936   1.180   1.229   2.712  0.6051 -0.2699  0.1312
 3043SOL     OW11937   0.068   6.110   3.479 -0.3191  0.2094  0.5604
 3043SOL    HW211938   0.009   6.162   3.534 -0.0798  0.0391  0.9744
 3043SOL    HW311939   0.031   6.118   3.391 -0.9927  0.0585  0.8248
 3043SOL    MW411940   0.055   6.118   3.475 -0.3764  0.1670  0.6499
 3044SOL     OW11941   3.656   3.008   2.118  0.6899  0.6833  0.0307
 3044SOL    HW211942   3.615   3.090   2.143  1.8824  1.0935  0.7067
 3044SOL    HW311943   3.601   2.940   2.158  0.0399  1.1610 -0.0348
 3044SOL    MW411944   3.643   3.010   2.127  0.7614  0.8004  0.1112
 3045SOL     OW11945   3.916   2.629   4.962  0.1804  0.4496  0.1921
 3045SOL    HW211946   4.010   2.648   4.958  0.1159  0.9655  0.8602
 3045SOL    HW311947   3.876   2.694   4.904  0.4650 -1.8071 -2.7187
 3045SOL    MW411948   3.923   2.640   4.954  0.2094  0.2199 -0.1038
 3046SOL     OW11949   3.443   0.579   2.509  0.5168 -0.1741 -0.2358
 3046SOL    HW211950   3.508   0.523   2.551  1.0205  0.4555 -0.1654
 3046SOL    HW311951   3.377   0.594   2.578  1.3227  0.8243  0.3566
 3046SOL    MW411952   3.443   0.574   2.524  0.6896  0.0407 -0.1484
 3047SOL     OW11953   5.705   5.522   5.169  0.1054 -0.4053  0.4183
 3047SOL    HW211954   5.694   5.614   5.191 -1.0829 -0.8892  2.0386
 3047SOL    HW311955   5.623   5.499   5.124 -0.1257 -0.9436  1.0990
 3047SOL    MW411956   5.692   5.531   5.166 -0.0818 -0.5402  0.7219
 3048SOL     OW11957   1.853   0.871   0.283 -0.1444  0.5641  0.3888
 3048SOL    HW211958   1.758   0.864   0.274 -0.3571  1.8020  1.4683
 3048SOL    HW311959   1.878   0.935   0.216  0.2693 -1.3660 -1.4212
 3048SOL    MW411960   1.844   0.878   0.273 -0.1179  0.4728  0.2924
 3049SOL     OW11961   0.145   2.706   5.290  0.0046  0.2711 -0.2785
 3049SOL    HW211962   0.205   2.634   5.269 -1.7947 -0.9989 -1.3366
 3049SOL    HW311963   0.202   2.783   5.297  1.9264 -1.1107  0.3034
 3049SOL    MW411964   0.161   2.706   5.288  0.0207 -0.0788 -0.3414
 3050SOL     OW11965   0.970   3.869   5.622  0.6252  0.0762 -0.2912
 3050SOL    HW211966   0.903   3.902   5.682  0.5708  0.5469 -0.5984
 3050SOL    HW311967   1.024   3.811   5.674 -0.2599 -0.6136 -0.1326
 3050SOL    MW411968   0.968   3.866   5.636  0.5013  0.0473 -0.3108
 3051SOL     OW11969   1.641   2.792   6.314 -0.7201 -0.2506 -0.2394
 3051SOL    HW211970   1.647   2.721   6.377 -2.0538 -0.7762 -0.6663
 3051SOL    HW311971   1.684   2.759   6.235 -1.1078 -0.4922 -0.3521
 3051SOL    MW411972   1.647   2.779   6.312 -0.9472 -0.3518 -0.3106
 3052SOL     OW11973   3.443   2.813   6.004 -0.3410  0.3565 -0.3501
 3052SOL    HW211974   3.485   2.743   5.955 -0.9430 -1.2625  1.3197
 3052SOL    HW311975   3.363   2.833   5.955 -1.2980 -1.7134  0.2458
 3052SOL    MW411976   3.438   2.806   5.991 -0.5467 -0.1302 -0.0512
 3053SOL     OW11977   1.018   2.059   6.097  0.2533 -0.4608 -0.7392
 3053SOL    HW211978   0.987   2.120   6.164 -0.2069 -0.3609 -1.0390
 3053SOL    HW311979   0.938   2.017   6.065  0.3570  0.1795 -1.9031
 3053SOL    MW411980   1.004   2.061   6.102  0.2062 -0.3631 -0.9323
 3054SOL     OW11981   0.364   0.022   5.382 -0.1872 -0.0066 -0.0133
 3054SOL    HW211982   0.316  -0.049   5.340 -0.8712 -0.4233  1.4067
 3054SOL    HW311983   0.456   0.006   5.361 -0.3887 -0.9820 -0.1892
 3054SOL    MW411984   0.370   0.011   5.374 -0.3040 -0.1903  0.1509
 3055SOL     OW11985   0.752   4.500   6.277  0.3461 -0.3263 -0.3748
 3055SOL    HW211986   0.723   4.472   6.190  0.3086 -1.8727  0.1091
 3055SOL    HW311987   0.705   4.442   6.337  1.2156 -0.0156  0.6202
 3055SOL    MW411988   0.742   4.489   6.273  0.4559 -0.4893 -0.1796
 3056SOL     OW11989   1.752   0.046   2.031  0.4956 -0.9756 -0.2580
 3056SOL    HW211990   1.673   0.075   2.078  1.5055  0.7023  0.5108
 3056SOL    HW311991   1.719  -0.002   1.955 -1.2314 -1.6524  0.8564
 3056SOL    MW411992   1.737   0.043   2.027  0.4009 -0.8435 -0.0095
 3057SOL     OW11993   0.099   2.367   1.609  0.0989 -0.1035  0.9270
 3057SOL    HW211994   0.033   2.339   1.673  0.2828  1.4170  1.8358
 3057SOL    HW311995   0.178   2.318   1.634 -0.0412 -0.1005  1.3870
 3057SOL    MW411996   0.101   2.357   1.621  0.1047  0.0975  1.1076
 3058SOL     OW11997   2.149   5.880   2.150  0.7983 -0.0402  0.0674
 3058SOL    HW211998   2.187   5.944   2.211 -0.9902 -0.1510  1.4009
 3058SOL    HW311999   2.089   5.932   2.096 -0.1396 -0.4471  0.6903
 3058SOL    MW412000   2.146   5.895   2.151  0.4386 -0.1085  0.3255
 3059SOL     OW12001   6.265   4.969   5.289  0.0032  0.4140  0.2732
 3059SOL    HW212002   6.170   4.979   5.290  0.0297  1.0990 -1.0309
 3059SOL    HW312003   6.298   5.053   5.319  0.2276 -0.3997  2.4717
 3059SOL    MW412004   6.257   4.981   5.293  0.0363  0.3970  0.3912
 3060SOL     OW12005   1.619   4.339   0.269  0.3866 -0.1065 -0.0769
 3060SOL    HW212006   1.696   4.376   0.312  0.1846  0.0709  0.1416
 3060SOL    HW312007   1.585   4.410   0.214 -0.9002  0.6113  1.5262
 3060SOL    MW412008   1.625   4.354   0.268  0.1902  0.0116  0.1634
 3061SOL     OW12009   5.979   0.632   0.088  0.1678  1.0344  0.1802
 3061SOL    HW212010   5.920   0.605   0.158  1.2025 -2.3260 -0.0930
 3061SOL    HW312011   6.051   0.677   0.133 -1.1416  2.6794  0.7631
 3061SOL    MW412012   5.980   0.635   0.103  0.1316  0.8081  0.2211
 3062SOL     OW12013   0.661   1.322   0.890 -0.2716  0.2112 -0.4063
 3062SOL    HW212014   0.712   1.403   0.896 -0.8854  0.5832 -0.0634
 3062SOL    HW312015   0.693   1.268   0.962 -0.7321  0.6745  0.1697
 3062SOL    MW412016   0.672   1.326   0.901 -0.4134  0.3214 -0.2851
 3063SOL     OW12017   3.507   5.003   1.944 -0.0457  0.2042  0.2886
 3063SOL    HW212018   3.545   4.951   1.874 -2.1696 -0.6146 -0.3303
 3063SOL    HW312019   3.579   5.057   1.976  1.3941 -0.6754 -1.3340
 3063SOL    MW412020   3.521   5.004   1.939 -0.1360 -0.0199 -0.0071
 3064SOL     OW12021   1.091   5.884   4.937  0.0932 -0.2473  1.0023
 3064SOL    HW212022   1.111   5.941   5.010 -0.4057  1.2357  0.0262
 3064SOL    HW312023   1.167   5.893   4.878 -0.4639  0.2708  0.3484
 3064SOL    MW412024   1.104   5.892   4.939 -0.0461  0.0167  0.7873
 3065SOL     OW12025   6.420   4.451   3.224 -0.4090  0.3064 -0.0246
 3065SOL    HW212026   6.452   4.456   3.134 -0.0796  0.5101  0.0992
 3065SOL    HW312027   6.500   4.444   3.277 -0.6395 -1.0978  0.1759
 3065SOL    MW412028   6.435   4.451   3.219 -0.3960  0.1480  0.0182
 3066SOL     OW12029   0.422   5.622   3.885 -0.4479  0.3365  0.2571
 3066SOL    HW212030   0.370   5.629   3.966  0.6109 -0.0504  0.9883
 3066SOL    HW312031   0.406   5.533   3.854  0.2052  0.0231  0.7941
 3066SOL    MW412032   0.413   5.611   3.892 -0.2220  0.2441  0.4245
 3067SOL     OW12033   0.566   2.928   5.336 -0.5008  0.0375 -0.0456
 3067SOL    HW212034   0.606   2.921   5.249  1.6931 -0.0368  0.9101
 3067SOL    HW312035   0.546   2.837   5.360  1.8488 -0.3439  0.7626
 3067SOL    MW412036   0.568   2.915   5.328  0.0987 -0.0226  0.1872
 3068SOL     OW12037   5.662   2.570   2.527  0.1058  0.0034 -0.1069
 3068SOL    HW212038   5.664   2.652   2.477 -0.9831 -0.2193 -0.5563
 3068SOL    HW312039   5.752   2.556   2.555  0.4533  0.9335 -0.7216
 3068SOL    MW412040   5.674   2.579   2.524  0.0080  0.0968 -0.2473
 3069SOL     OW12041   0.821   3.730   3.346  0.0710 -0.3730  0.2009
 3069SOL    HW212042   0.752   3.775   3.396  3.2675  2.1163  2.8269
 3069SOL    HW312043   0.825   3.777   3.263  0.7899  1.7977  1.3919
 3069SOL    MW412044   0.812   3.742   3.342  0.5876  0.2418  0.7045
 3070SOL     OW12045   5.339   1.714   4.099  0.3355  0.4588  0.3222
 3070SOL    HW212046   5.406   1.677   4.157 -0.8941 -0.4209  1.2390
 3070SOL    HW312047   5.363   1.806   4.089  0.9659  0.4559  1.6721
 3070SOL    MW412048   5.351   1.721   4.105  0.2564  0.3424  0.6213
 3071SOL     OW12049   3.252   2.426   6.410 -0.7352 -0.1072 -0.0451
 3071SOL    HW212050   3.313   2.486   6.453 -0.0767  0.6175 -1.9205
 3071SOL    HW312051   3.224   2.472   6.331 -4.4438 -0.0106  1.1030
 3071SOL    MW412052   3.256   2.440   6.406 -1.1377  0.0011 -0.1411
 3072SOL     OW12053   2.491   3.187   1.742  0.5422  0.0703  0.3316
 3072SOL    HW212054   2.533   3.242   1.809 -0.0343  1.2708 -0.2534
 3072SOL    HW312055   2.511   3.098   1.768 -0.2264  0.4657  2.4911
 3072SOL    MW412056   2.499   3.183   1.755  0.3647  0.2808  0.5394
 3073SOL     OW12057   0.460   4.630   4.472  0.0319  0.5051  0.3130
 3073SOL    HW212058   0.388   4.606   4.529 -0.9674  0.1678 -1.0372
 3073SOL    HW312059   0.423   4.695   4.412  0.7752  0.1977 -0.5123
 3073SOL    MW412060   0.446   4.635   4.472 -0.0019  0.4200  0.0260
 3074SOL     OW12061   0.162   3.891   1.187 -0.3372 -0.2927  0.1459
 3074SOL    HW212062   0.187   3.949   1.259  1.4542 -1.7534  0.7440
 3074SOL    HW312063   0.109   3.823   1.228 -0.5766 -0.3185 -0.1975
 3074SOL    MW412064   0.158   3.890   1.202 -0.1324 -0.4889  0.1795
 3075SOL     OW12065   2.861   0.979   1.216 -0.1796  0.6306  0.3516
 3075SOL    HW212066   2.792   1.019   1.269 -1.1876 -1.0326  0.3459
 3075SOL    HW312067   2.841   1.007   1.126  0.8865  2.5265  0.6393
 3075SOL    MW412068   2.850   0.988   1.211 -0.1719  0.6613  0.3888
 3076SOL     OW12069   2.875   2.342   1.275 -0.3177 -0.5221  0.0180
 3076SOL    HW212070   2.811   2.328   1.205  0.0287  0.4340 -0.5129
 3076SOL    HW312071   2.824   2.378   1.347 -0.7012 -1.6449  0.3316
 3076SOL    MW412072   2.860   2.345   1.275 -0.3226 -0.5441 -0.0106
 3077SOL     OW12073   0.605   3.487   0.519  0.2493  0.5247  0.3387
 3077SOL    HW212074   0.681   3.445   0.559 -0.4121  0.7373  1.8930
 3077SOL    HW312075   0.636   3.573   0.492  0.7127  0.3775  0.4029
 3077SOL    MW412076   0.619   3.493   0.521  0.2232  0.5333  0.5523
 3078SOL     OW12077   0.902   2.830   2.973  0.3984  0.2907  0.3037
 3078SOL    HW212078   0.954   2.834   3.054  0.6657 -2.3195  0.3425
 3078SOL    HW312079   0.956   2.780   2.912 -2.1872 -3.1892  0.5739
 3078SOL    MW412080   0.916   2.824   2.976  0.0925 -0.5128  0.3445
 3079SOL     OW12081   1.287   2.175   6.060  0.1789  0.5107  0.2094
 3079SOL    HW212082   1.203   2.144   6.094 -0.3207  1.7204  0.1389
 3079SOL    HW312083   1.277   2.174   5.965  0.2263  0.6828  0.2011
 3079SOL    MW412084   1.274   2.171   6.052  0.1192  0.6930  0.1990
 3080SOL     OW12085   0.428   1.877   1.342 -0.3944 -0.5232  0.0621
 3080SOL    HW212086   0.337   1.847   1.332 -0.0824 -1.5246  0.1435
 3080SOL    HW312087   0.419   1.968   1.373 -1.4374 -1.4668  2.9174
 3080SOL    MW412088   0.415   1.885   1.345 -0.4909 -0.7799  0.4496
 3081SOL     OW12089   2.887   5.141   5.673  0.8907  0.4608 -0.0084
 3081SOL    HW212090   2.855   5.110   5.588 -0.5764  0.5801  0.4686
 3081SOL    HW312091   2.838   5.089   5.737  0.5413  1.7070  0.7721
 3081SOL    MW412092   2.876   5.130   5.670  0.6510  0.6410  0.1575
 3082SOL     OW12093   2.927   2.390   2.595  0.3536 -0.7479  0.6342
 3082SOL    HW212094   2.990   2.332   2.637  0.3298 -0.2927  1.3036
 3082SOL    HW312095   2.841   2.361   2.627  0.4293  0.5610  2.1320
 3082SOL    MW412096   2.924   2.379   2.605  0.3604 -0.5152  0.9201
 3083SOL     OW12097   3.384   1.862   5.311 -0.0204 -0.1449  0.1287
 3083SOL    HW212098   3.469   1.878   5.352  0.4732 -0.2478 -0.8176
 3083SOL    HW312099   3.352   1.949   5.288 -0.1829 -0.1057  0.4904
 3083SOL    MW412100   3.391   1.876   5.313  0.0233 -0.1533  0.0516
 3084SOL     OW12101   5.876   2.556   1.154  0.1184 -0.1124  0.0405
 3084SOL    HW212102   5.926   2.631   1.187  0.4831 -0.7400  0.9385
 3084SOL    HW312103   5.803   2.596   1.107  1.1916  0.8230 -0.9067
 3084SOL    MW412104   5.873   2.571   1.152  0.3081 -0.0718  0.0340
 3085SOL     OW12105   0.382   0.047   2.147  0.4441  0.0834 -0.1917
 3085SOL    HW212106   0.302   0.079   2.104 -0.7920 -1.1851  1.0452
 3085SOL    HW312107   0.396   0.107   2.220 -0.6476 -0.9100  0.8648
 3085SOL    MW412108   0.373   0.059   2.151  0.1370 -0.2150  0.1109
 3086SOL     OW12109   3.598   3.663   1.338 -0.0443  1.0598  0.4993
 3086SOL    HW212110   3.567   3.607   1.267  2.4224  0.7397 -0.4403
 3086SOL    HW312111   3.555   3.747   1.323 -0.8352  0.5172 -0.3996
 3086SOL    MW412112   3.588   3.667   1.326  0.1768  0.9460  0.2567
 3087SOL     OW12113   5.071   3.608   4.044 -0.4657 -0.7410  0.9928
 3087SOL    HW212114   5.041   3.644   4.127 -0.7236  0.8144  0.2581
 3087SOL    HW312115   5.153   3.654   4.026 -0.1309 -1.4556  0.6244
 3087SOL    MW412116   5.078   3.619   4.053 -0.4555 -0.6301  0.8473
 3088SOL     OW12117   0.253   3.992   5.744  0.4832 -0.1105  0.2858
 3088SOL    HW212118   0.251   4.088   5.753  2.1343  0.1315 -1.3687
 3088SOL    HW312119   0.192   3.973   5.673  0.8652 -0.1827 -0.0261
 3088SOL    MW412120   0.245   4.002   5.736  0.7514 -0.0881  0.0263
 3089SOL     OW12121   2.682   6.364   4.819 -0.8528  0.6855 -0.1347
 3089SOL    HW212122   2.679   6.298   4.750  1.4721 -0.7900  1.0453
 3089SOL    HW312123   2.597   6.356   4.863 -1.1693 -0.5187 -0.9111
 3089SOL    MW412124   2.671   6.354   4.816 -0.5878  0.3320 -0.0814
 3090SOL     OW12125   4.314   0.912   0.032  0.2256 -0.1712 -0.5178
 3090SOL    HW212126   4.281   0.918  -0.057 -2.9104  1.7032  0.6188
 3090SOL    HW312127   4.242   0.874   0.082  1.6334 -0.4953  1.3774
 3090SOL    MW412128   4.300   0.908   0.027 -0.0024  0.0333 -0.1178
 3091SOL     OW12129   3.340   1.230   4.184 -0.1160 -0.1875  0.0202
 3091SOL    HW212130   3.285   1.266   4.254 -0.1146 -0.5932  0.2280
 3091SOL    HW312131   3.429   1.230   4.221  0.3037  1.8658 -0.8234
 3091SOL    MW412132   3.345   1.235   4.199 -0.0605  0.0299 -0.0637
 3092SOL     OW12133   6.077   5.012   2.958 -0.4975  0.1446 -0.0415
 3092SOL    HW212134   5.982   5.013   2.953 -0.4518 -0.4268 -2.8878
 3092SOL    HW312135   6.105   5.092   2.913  0.3679 -0.3867 -0.4835
 3092SOL    MW412136   6.068   5.023   2.951 -0.3773 -0.0009 -0.4753
 3093SOL     OW12137   3.698   0.992   0.214  0.4574  0.2350  0.1233
 3093SOL    HW212138   3.692   1.012   0.121  2.9321 -0.0426 -0.1551
 3093SOL    HW312139   3.764   1.052   0.247  1.2904 -1.2246  1.2000
 3093SOL    MW412140   3.706   1.002   0.206  0.8938  0.0058  0.2286
 3094SOL     OW12141   1.558   2.328   1.842  0.3215 -0.4360  0.4346
 3094SOL    HW212142   1.560   2.423   1.846  0.5733 -0.4856  1.9003
 3094SOL    HW312143   1.610   2.306   1.765  0.2066  0.6013  0.0495
 3094SOL    MW412144   1.565   2.337   1.832  0.3395 -0.3057  0.5772
 3095SOL     OW12145   0.646   0.245   0.916  0.1872 -0.3311  0.0894
 3095SOL    HW212146   0.675   0.260   0.826 -0.0641 -2.1689 -0.3402
 3095SOL    HW312147   0.550   0.247   0.911  0.1672  0.7688  0.5694
 3095SOL    MW412148   0.637   0.248   0.904  0.1514 -0.4284  0.0961
 3096SOL     OW12149   3.595   6.179   2.009 -0.3763 -0.1446  0.7763
 3096SOL    HW212150   3.658   6.250   2.017  0.3857 -0.8190  0.9152
 3096SOL    HW312151   3.552   6.177   2.095 -1.9897  1.5627  0.0694
 3096SOL    MW412152   3.598   6.188   2.022 -0.4886 -0.0083  0.7013
 3097SOL     OW12153   4.073   1.361   2.157  0.4081 -0.3462  0.2214
 3097SOL    HW212154   4.115   1.280   2.187 -1.0496 -0.7825  1.1614
 3097SOL    HW312155   4.124   1.430   2.199 -0.2387 -0.8918  2.0170
 3097SOL    MW412156   4.086   1.359   2.166  0.1304 -0.4757  0.5824
 3098SOL     OW12157   4.820   1.176   0.130 -0.2760  0.2975  0.0908
 3098SOL    HW212158   4.851   1.213   0.212 -1.8695  1.1759  0.3323
 3098SOL    HW312159   4.851   1.237   0.063  1.5940 -0.7624 -0.0899
 3098SOL    MW412160   4.828   1.189   0.132 -0.2395  0.2736  0.0988
 3099SOL     OW12161   3.001   4.405   5.012  0.4628 -0.1242 -0.3159
 3099SOL    HW212162   3.003   4.436   5.102 -0.1165 -1.6258  0.2417
 3099SOL    HW312163   3.036   4.315   5.017  0.7954 -0.0892 -1.6454
 3099SOL    MW412164   3.006   4.397   5.025  0.4303 -0.3177 -0.4178
 3100SOL     OW12165   2.332   2.831   5.546  0.3080 -0.5695 -0.4144
 3100SOL    HW212166   2.369   2.838   5.634 -1.3516  0.2438  0.2757
 3100SOL    HW312167   2.307   2.921   5.524  0.0869 -0.8672 -1.4345
 3100SOL    MW412168   2.333   2.844   5.555  0.0599 -0.5015 -0.4579
 3101SOL     OW12169   2.644   0.725   6.198  0.6546  0.2419  0.3277
 3101SOL    HW212170   2.729   0.689   6.174  1.7063  1.5379  1.8189
 3101SOL    HW312171   2.624   0.685   6.283  0.2515  0.6533  0.4343
 3101SOL    MW412172   2.652   0.715   6.206  0.7401  0.4672  0.5385
 3102SOL     OW12173   4.131   3.402   3.741 -0.0871  0.1341  0.4691
 3102SOL    HW212174   4.158   3.357   3.821  2.0050  0.2818 -0.0832
 3102SOL    HW312175   4.073   3.472   3.771 -0.5600 -0.7460  1.6816
 3102SOL    MW412176   4.127   3.405   3.756  0.1266  0.0375  0.5562
 3103SOL     OW12177   1.677   4.580   5.388 -0.1021 -0.0414  0.3309
 3103SOL    HW212178   1.733   4.508   5.417 -3.1286 -1.6507  2.7611
 3103SOL    HW312179   1.663   4.563   5.295  0.4213 -1.7886  0.5264
 3103SOL    MW412180   1.682   4.568   5.380 -0.4324 -0.4843  0.6774
 3104SOL     OW12181   0.225   2.795   3.339  0.6057 -0.2647 -0.1265
 3104SOL    HW212182   0.207   2.701   3.339  2.4802 -0.6637 -0.1162
 3104SOL    HW312183   0.169   2.831   3.408 -0.8851 -1.1847 -0.8059
 3104SOL    MW412184   0.215   2.788   3.348  0.6563 -0.4387 -0.2148
 3105SOL     OW12185   1.635   0.176   3.889  0.1365  0.4384  0.1473
 3105SOL    HW212186   1.612   0.114   3.959  1.7881 -1.4022 -0.8415
 3105SOL    HW312187   1.700   0.233   3.929 -0.1432  0.4608  0.5802
 3105SOL    MW412188   1.641   0.175   3.904  0.3175  0.1985  0.0740
 3106SOL     OW12189   3.194   4.601   3.636 -0.0628  0.5492 -0.1804
 3106SOL    HW212190   3.101   4.620   3.647  0.2057  2.1740 -0.4966
 3106SOL    HW312191   3.231   4.610   3.724  0.1930  2.3842 -0.4488
 3106SOL    MW412192   3.187   4.605   3.649  0.0064  1.0057 -0.2575
 3107SOL     OW12193   3.401   0.848   0.614 -0.4357  0.2009 -0.5566
 3107SOL    HW212194   3.471   0.783   0.610 -0.5720 -0.4796  3.7726
 3107SOL    HW312195   3.445   0.931   0.632 -0.5805  0.2355 -0.3514
 3107SOL    MW412196   3.416   0.851   0.616 -0.4728  0.1157  0.0417
 3108SOL     OW12197   1.574   4.384   4.138  0.4529 -0.7080 -0.0393
 3108SOL    HW212198   1.544   4.391   4.047  1.4959  0.8272 -0.2967
 3108SOL    HW312199   1.619   4.300   4.142  2.1942  0.0915 -1.5264
 3108SOL    MW412200   1.576   4.374   4.126  0.8202 -0.4000 -0.2695
 3109SOL     OW12201   4.167   0.671   3.927  0.1970 -0.1448 -0.2761
 3109SOL    HW212202   4.201   0.746   3.878  1.0378 -1.1361 -1.2619
 3109SOL    HW312203   4.211   0.675   4.012  0.8222  0.0431 -0.6075
 3109SOL    MW412204   4.177   0.681   3.932  0.3904 -0.2508 -0.4499
 3110SOL     OW12205   4.508   1.202   5.194  0.3451  0.2408  0.6891
 3110SOL    HW212206   4.585   1.184   5.139 -2.1568 -0.6384 -2.9058
 3110SOL    HW312207   4.480   1.115   5.224 -0.3518  0.3254  0.2951
 3110SOL    MW412208   4.514   1.188   5.191 -0.0769  0.1359  0.1629
 3111SOL     OW12209   2.866   4.616   3.646 -0.4024  0.0762 -0.3297
 3111SOL    HW212210   2.810   4.664   3.585 -0.0802  0.2413 -0.4994
 3111SOL    HW312211   2.818   4.618   3.729 -1.5154 -1.3572 -0.8906
 3111SOL    MW412212   2.852   4.622   3.649 -0.5067 -0.0912 -0.4261
 3112SOL     OW12213   4.701   6.036   2.387 -0.0252  0.0993 -0.2415
 3112SOL    HW212214   4.611   6.059   2.411  0.3689  0.8970  0.5414
 3112SOL    HW312215   4.707   5.942   2.406 -0.0456  0.4717  1.9474
 3112SOL    MW412216   4.690   6.027   2.393  0.0241  0.2537  0.1506
 3113SOL     OW12217   0.331   1.151   5.686  0.1141  0.1406  0.4201
 3113SOL    HW212218   0.347   1.213   5.758  0.6864  0.7865 -0.2480
 3113SOL    HW312219   0.270   1.087   5.723  1.0030  0.0133  1.7316
 3113SOL    MW412220   0.325   1.151   5.701  0.3069  0.2090  0.5050
 3114SOL     OW12221   6.398   4.788   5.959 -0.1698 -0.6212 -0.2211
 3114SOL    HW212222   6.434   4.866   6.000  0.2829 -0.5560 -0.7408
 3114SOL    HW312223   6.437   4.785   5.872  1.5837 -2.6306  0.5469
 3114SOL    MW412224   6.408   4.798   5.953  0.1213 -0.8777 -0.1883
 3115SOL     OW12225   1.539   4.111   0.411  0.2475 -0.0679 -0.5354
 3115SOL    HW212226   1.581   4.189   0.375  0.1660  0.2867  0.1256
 3115SOL    HW312227   1.609   4.047   0.418 -0.0195 -0.6999 -2.7977
 3115SOL    MW412228   1.554   4.113   0.408  0.2015 -0.1045 -0.7466
 3116SOL     OW12229   1.976   5.771   1.871  0.5781  0.2719  0.1899
 3116SOL    HW212230   2.065   5.736   1.874  1.4191  2.1419 -0.9680
 3116SOL    HW312231   1.981   5.843   1.807 -1.7521  0.4650  0.1513
 3116SOL    MW412232   1.989   5.776   1.863  0.3816  0.5441  0.0320
 3117SOL     OW12233   6.216   1.166   5.813 -0.0290 -0.0928 -0.1825
 3117SOL    HW212234   6.239   1.151   5.905  0.7424 -0.0757 -0.3694
 3117SOL    HW312235   6.210   1.078   5.775 -1.1087 -0.1366  0.0550
 3117SOL    MW412236   6.218   1.153   5.820 -0.0697 -0.0963 -0.1758
 3118SOL     OW12237   1.455   2.558   1.951 -0.5100  0.1775  0.0663
 3118SOL    HW212238   1.485   2.641   1.914 -0.8752 -0.5435 -1.9455
 3118SOL    HW312239   1.364   2.575   1.975 -0.5256  0.4132 -0.1506
 3118SOL    MW412240   1.447   2.571   1.949 -0.5602  0.1135 -0.2278
 3119SOL     OW12241   0.221   0.023   2.464  0.1343  0.2113  0.5341
 3119SOL    HW212242   0.133   0.058   2.449  0.2609 -0.2508 -1.7488
 3119SOL    HW312243   0.207  -0.054   2.520 -1.4283 -1.7052 -2.2295
 3119SOL    MW412244   0.208   0.017   2.469 -0.0552 -0.1025 -0.1317
 3120SOL     OW12245   1.167   0.535   3.757  0.4911 -0.0802 -0.0113
 3120SOL    HW212246   1.174   0.542   3.662  1.0272 -0.9906 -0.0474
 3120SOL    HW312247   1.249   0.494   3.785 -0.6207 -2.0070  0.5964
 3120SOL    MW412248   1.179   0.531   3.748  0.4152 -0.4545  0.0641
 3121SOL     OW12249   0.937   0.168   1.103 -0.0349 -0.4882 -0.5631
 3121SOL    HW212250   0.992   0.218   1.162  1.3351 -1.0845 -1.2980
 3121SOL    HW312251   0.915   0.229   1.033  0.4876 -0.5239 -0.7571
 3121SOL    MW412252   0.941   0.183   1.102  0.2148 -0.5716 -0.6857
 3122SOL     OW12253   3.035   1.146   2.698  0.5096  0.0744 -0.9990
 3122SOL    HW212254   3.042   1.054   2.672  1.0837 -0.3012  0.3561
 3122SOL    HW312255   2.943   1.169   2.684  0.2866 -0.8162 -1.0162
 3122SOL    MW412256   3.024   1.137   2.693  0.5559 -0.0927 -0.8225
 3123SOL     OW12257   4.007   4.480   0.155  0.5295 -0.2570  0.0923
 3123SOL    HW212258   4.061   4.557   0.140  2.0065 -1.2898 -0.1074
 3123SOL    HW312259   3.949   4.475   0.079  2.2410 -0.7884 -1.2411
 3123SOL    MW412260   4.007   4.489   0.143  0.9502 -0.4634 -0.1099
 3124SOL     OW12261   2.089   2.400   0.624  0.3972  0.0183 -0.0436
 3124SOL    HW212262   2.057   2.312   0.640 -1.1762 -0.0350 -2.8680
 3124SOL    HW312263   2.171   2.405   0.673 -0.5631 -2.2065  1.9667
 3124SOL    MW412264   2.096   2.389   0.633  0.0629 -0.2823 -0.1510
 3125SOL     OW12265   4.141   4.405   0.907  0.0178 -0.0014  0.6588
 3125SOL    HW212266   4.211   4.469   0.899 -0.3098  0.3606  0.6778
 3125SOL    HW312267   4.179   4.334   0.959  0.1592  0.4930  1.2357
 3125SOL    MW412268   4.155   4.404   0.913 -0.0067  0.1116  0.7375
 3126SOL     OW12269   2.451   4.214   2.488  0.5228 -0.2301 -0.3373
 3126SOL    HW212270   2.412   4.300   2.503  0.8671  0.4220 -2.7092
 3126SOL    HW312271   2.398   4.154   2.540 -1.9694  0.9952 -1.2995
 3126SOL    MW412272   2.439   4.217   2.497  0.2394  0.0176 -0.7772
 3127SOL     OW12273   2.169   4.206   2.851 -0.4060  0.0032 -0.2733
 3127SOL    HW212274   2.101   4.144   2.822  1.0484 -0.8114 -2.1754
 3127SOL    HW312275   2.216   4.160   2.920 -2.3662  1.0021  1.8832
 3127SOL    MW412276   2.166   4.192   2.856 -0.4728  0.0275 -0.2397
 3128SOL     OW12277   5.161   6.391   3.818  0.1723 -0.7609 -0.2869
 3128SOL    HW212278   5.220   6.316   3.814  0.6240 -0.8024  3.4472
 3128SOL    HW312279   5.089   6.362   3.874 -1.6893  0.3946 -1.9594
 3128SOL    MW412280   5.159   6.377   3.825 -0.0137 -0.6139 -0.0149
 3129SOL     OW12281   1.917   4.817   2.734 -0.0626  0.2258 -0.1870
 3129SOL    HW212282   1.960   4.792   2.815 -2.4846  0.7333  1.3403
 3129SOL    HW312283   1.845   4.755   2.724 -0.5630  0.9402 -1.2555
 3129SOL    MW412284   1.913   4.806   2.743 -0.4482  0.3870 -0.1265
 3130SOL     OW12285   0.304   4.620   5.441 -0.0639  0.4620 -0.1436
 3130SOL    HW212286   0.367   4.683   5.475 -0.4046  1.4773 -1.3390
 3130SOL    HW312287   0.355   4.566   5.381  0.5600 -1.3932  1.9257
 3130SOL    MW412288   0.319   4.621   5.438 -0.0266  0.3512 -0.0283
 3131SOL     OW12289   5.445   5.763   2.388  0.2086 -0.0299  0.7125
 3131SOL    HW212290   5.503   5.690   2.366 -0.0087 -0.8860  2.8015
 3131SOL    HW312291   5.501   5.823   2.439 -0.1127  0.3370  0.6388
 3131SOL    MW412292   5.460   5.761   2.392  0.1375 -0.0944  0.9784
 3132SOL     OW12293   4.984   2.806   0.744  0.2251 -0.3816  0.0309
 3132SOL    HW212294   4.935   2.809   0.827 -1.0273  1.3920 -0.7203
 3132SOL    HW312295   4.934   2.746   0.689 -0.5487  0.6166 -0.3768
 3132SOL    MW412296   4.971   2.798   0.748 -0.0422 -0.0159 -0.1220
 3133SOL     OW12297   0.465   3.154   3.002 -0.2383  0.9011 -0.2285
 3133SOL    HW212298   0.399   3.085   2.996  0.0852  0.5840 -0.1870
 3133SOL    HW312299   0.495   3.166   2.912  1.4414 -0.7387  0.0272
 3133SOL    MW412300   0.460   3.146   2.989  0.0260  0.6429 -0.1893
 3134SOL     OW12301   1.174   4.998   2.699 -0.4548 -0.1621 -0.0797
 3134SOL    HW212302   1.124   4.952   2.631  0.1842 -0.0886 -0.6140
 3134SOL    HW312303   1.218   5.069   2.652  0.3450 -0.3783  0.3256
 3134SOL    MW412304   1.173   5.001   2.684 -0.2650 -0.1809 -0.0967
 3135SOL     OW12305   1.078   3.597   4.997 -0.0481 -0.6597  0.5858
 3135SOL    HW212306   1.078   3.604   4.901 -0.4818 -2.4810  0.4311
 3135SOL    HW312307   1.170   3.612   5.021 -0.1053  0.8491  0.0127
 3135SOL    MW412308   1.090   3.600   4.987 -0.1128 -0.7010  0.4897
 3136SOL     OW12309   4.239   1.150   2.234  0.1504 -0.6347  0.9126
 3136SOL    HW212310   4.256   1.127   2.326 -0.2775 -2.6378  0.5428
 3136SOL    HW312311   4.302   1.096   2.185 -0.0872 -0.0882 -0.0038
 3136SOL    MW412312   4.250   1.140   2.240  0.0626 -0.8269  0.7429
 3137SOL     OW12313   4.966   1.417   1.121 -0.4696 -0.6325 -0.0864
 3137SOL    HW212314   5.021   1.492   1.142  0.1922 -1.1630  0.1055
 3137SOL    HW312315   4.901   1.452   1.059 -0.7829  0.3112  0.7567
 3137SOL    MW412316   4.964   1.431   1.115 -0.4236 -0.5780  0.0502
 3138SOL     OW12317   4.884   3.885   6.385  0.1785 -0.6398 -0.7032
 3138SOL    HW212318   4.949   3.826   6.347  1.6764  0.1126  0.5697
 3138SOL    HW312319   4.925   3.971   6.382 -1.9849  0.4350 -2.5810
 3138SOL    MW412320   4.898   3.888   6.379  0.0907 -0.3987 -0.7830
 3139SOL     OW12321   3.356   5.129   0.914 -0.0147 -0.4315 -0.2084
 3139SOL    HW212322   3.416   5.164   0.848  0.3550 -0.3436  0.1749
 3139SOL    HW312323   3.302   5.204   0.939 -0.5843 -0.6022 -0.8594
 3139SOL    MW412324   3.357   5.143   0.908 -0.0411 -0.4424 -0.2437
 3140SOL     OW12325   2.600   0.604  -0.001 -0.7627 -0.0668  0.2080
 3140SOL    HW212326   2.560   0.518   0.014 -0.3096 -0.7646 -2.0838
 3140SOL    HW312327   2.653   0.620   0.077 -1.3722 -1.5523  0.9726
 3140SOL    MW412328   2.602   0.595   0.011 -0.7833 -0.3549  0.0065
 3141SOL     OW12329   3.585   6.199   1.109  0.3768 -0.5736  0.2518
 3141SOL    HW212330   3.653   6.184   1.174  0.4637  2.3658  0.9795
 3141SOL    HW312331   3.633   6.205   1.026  0.7678 -0.3228  0.4933
 3141SOL    MW412332   3.600   6.198   1.107  0.4398 -0.1526  0.3797
 3142SOL     OW12333   4.051   4.295   4.054 -0.5434  0.0332  0.0491
 3142SOL    HW212334   4.021   4.386   4.052  0.9652  0.5577  0.1815
 3142SOL    HW312335   3.971   4.244   4.046 -1.2682  1.3716 -2.5054
 3142SOL    MW412336   4.036   4.300   4.052 -0.4400  0.2790 -0.2705
 3143SOL     OW12337   3.861   4.645   4.795  0.0163 -0.5780  0.3598
 3143SOL    HW212338   3.919   4.660   4.869  0.8118 -0.8170 -0.1926
 3143SOL    HW312339   3.783   4.698   4.813  0.1505 -0.7296  1.4075
 3143SOL    MW412340   3.858   4.654   4.807  0.1389 -0.6295  0.4252
 3144SOL     OW12341   5.530   0.650   0.578 -0.2450 -0.2335  0.6511
 3144SOL    HW212342   5.521   0.744   0.596  0.2256  0.7969 -3.5098
 3144SOL    HW312343   5.588   0.618   0.647 -0.2507  2.5439  2.0925
 3144SOL    MW412344   5.537   0.658   0.589 -0.1836  0.2689  0.2923
 3145SOL     OW12345   1.980   1.642   3.793  0.0100  0.0570 -0.1284
 3145SOL    HW212346   1.897   1.680   3.820  0.6305  2.8380 -1.6767
 3145SOL    HW312347   2.041   1.665   3.864 -0.3993 -1.6776  0.8395
 3145SOL    MW412348   1.977   1.650   3.806  0.0379  0.1951 -0.2050
 3146SOL     OW12349   5.386   3.628   1.837 -0.1284 -0.7330 -0.4321
 3146SOL    HW212350   5.303   3.674   1.848  0.1914 -0.2882  0.1813
 3146SOL    HW312351   5.384   3.560   1.904  0.8141  0.4965  0.9075
 3146SOL    MW412352   5.375   3.625   1.847  0.0382 -0.5121 -0.1745
 3147SOL     OW12353   0.784   1.662   4.651  0.6906  0.1317 -0.2847
 3147SOL    HW212354   0.814   1.590   4.596  1.3802  0.2670 -0.0912
 3147SOL    HW312355   0.706   1.628   4.695  0.2590 -0.0559 -1.1665
 3147SOL    MW412356   0.778   1.648   4.649  0.7247  0.1248 -0.3755
 3148SOL     OW12357   4.570   2.024   2.395 -0.1033 -0.1306 -0.5792
 3148SOL    HW212358   4.584   2.085   2.324  0.6265 -1.8189 -1.9566
 3148SOL    HW312359   4.579   1.937   2.355  1.5670 -1.1569  1.7805
 3148SOL    MW412360   4.573   2.021   2.381  0.2134 -0.4888 -0.4496
 3149SOL     OW12361   5.668   0.927   1.309 -0.0962 -0.2508 -0.3757
 3149SOL    HW212362   5.718   0.850   1.333 -0.5000 -0.3147  0.2953
 3149SOL    HW312363   5.580   0.894   1.289 -0.0478 -0.0654 -0.9220
 3149SOL    MW412364   5.663   0.913   1.309 -0.1431 -0.2348 -0.3593
 3150SOL     OW12365   1.404   1.086   4.357  0.2519 -0.1431 -0.2461
 3150SOL    HW212366   1.339   1.069   4.425 -0.0778  2.8260  0.2936
 3150SOL    HW312367   1.455   1.160   4.389  3.5077 -1.8319 -1.0060
 3150SOL    MW412368   1.402   1.093   4.370  0.6379  0.0258 -0.2752
 3151SOL     OW12369   0.240   6.054   3.956 -0.7442  0.1115  0.3504
 3151SOL    HW212370   0.261   6.141   3.988 -0.2293 -0.1070  0.6168
 3151SOL    HW312371   0.188   6.069   3.877  2.6883  0.6979 -1.9583
 3151SOL    MW412372   0.236   6.067   3.950 -0.2234  0.1600  0.0810
 3152SOL     OW12373   5.687   1.702   1.611  0.3379  0.1038 -0.3920
 3152SOL    HW212374   5.696   1.728   1.519  1.4984 -0.0262 -0.3269
 3152SOL    HW312375   5.699   1.607   1.610  1.9693  0.2756  0.0667
 3152SOL    MW412376   5.690   1.693   1.599  0.7062  0.1093 -0.3229
 3153SOL     OW12377   4.806   1.774   3.410  0.1495  0.7587  0.0522
 3153SOL    HW212378   4.727   1.743   3.367  0.2228  1.5949 -0.7159
 3153SOL    HW312379   4.844   1.836   3.348  2.6557 -1.2905 -0.6489
 3153SOL    MW412380   4.801   1.778   3.396  0.4898  0.5987 -0.1416
 3154SOL     OW12381   5.537   2.616   4.066  0.1456  0.1275  0.3280
 3154SOL    HW212382   5.460   2.666   4.091 -0.2659 -0.9512  1.3122
 3154SOL    HW312383   5.543   2.547   4.132  1.2818 -0.4998 -0.4010
 3154SOL    MW412384   5.528   2.613   4.078  0.2412 -0.0976  0.3616
 3155SOL     OW12385   5.604   3.361   4.918 -0.2926 -0.2523  0.3659
 3155SOL    HW212386   5.555   3.279   4.906  0.3468 -0.3675 -1.9004
 3155SOL    HW312387   5.537   3.429   4.920 -0.7148 -0.6438 -0.1198
 3155SOL    MW412388   5.589   3.359   4.916 -0.2639 -0.3191  0.0028
 3156SOL     OW12389   2.878   1.064   0.099 -0.5470 -0.3154 -0.0542
 3156SOL    HW212390   2.845   1.002   0.034 -2.4638  2.9927 -2.5266
 3156SOL    HW312391   2.973   1.060   0.090 -0.7289 -0.5060 -2.6150
 3156SOL    MW412392   2.886   1.055   0.090 -0.8239  0.0959 -0.7183
 3157SOL     OW12393   6.130   5.349   4.353 -0.2519 -0.0985  0.1927
 3157SOL    HW212394   6.143   5.291   4.278 -0.0457  1.5359 -1.1084
 3157SOL    HW312395   6.036   5.369   4.352 -0.5491 -1.2913  1.3610
 3157SOL    MW412396   6.119   5.344   4.343 -0.2639 -0.0402  0.1751
 3158SOL     OW12397   3.772   5.532   3.093  0.1038  0.0790  0.6853
 3158SOL    HW212398   3.862   5.504   3.107 -0.2033 -1.4864 -0.3049
 3158SOL    HW312399   3.731   5.527   3.180  0.5907 -0.6166  0.8758
 3158SOL    MW412400   3.778   5.528   3.106  0.1275 -0.2193  0.5798
 3159SOL     OW12401   3.514   0.479   0.429 -0.9022 -0.0552  0.2776
 3159SOL    HW212402   3.562   0.515   0.504 -1.0839 -0.6882  0.7117
 3159SOL    HW312403   3.577   0.480   0.357  0.4506 -2.6999  1.3085
 3159SOL    MW412404   3.529   0.484   0.430 -0.7477 -0.4877  0.4709
 3160SOL     OW12405   5.105   2.287   4.121  0.0550  0.7464 -0.0155
 3160SOL    HW212406   5.114   2.253   4.210 -0.7135  1.1591  0.2344
 3160SOL    HW312407   5.193   2.280   4.083  0.0629 -0.8793  0.2379
 3160SOL    MW412408   5.118   2.282   4.128 -0.0454  0.5864  0.0509
 3161SOL     OW12409   4.886   4.605   0.351  0.0217  0.4131 -1.1291
 3161SOL    HW212410   4.976   4.578   0.334  0.6032  2.4318 -1.5086
 3161SOL    HW312411   4.880   4.607   0.446  0.7643  1.3727 -1.0858
 3161SOL    MW412412   4.897   4.602   0.361  0.1964  0.8060 -1.1735
 3162SOL     OW12413   3.157   2.400   5.250 -0.0911  0.0440 -0.2840
 3162SOL    HW212414   3.252   2.396   5.247 -0.0659  0.6750 -0.3856
 3162SOL    HW312415   3.132   2.446   5.170 -0.4797 -0.0676 -0.2292
 3162SOL    MW412416   3.166   2.405   5.239 -0.1391  0.1125 -0.2902
 3163SOL     OW12417   0.168   2.018   2.595  0.2485 -0.5327 -0.0008
 3163SOL    HW212418   0.251   1.974   2.580  1.3249  1.4455 -0.2562
 3163SOL    HW312419   0.141   1.991   2.683  1.2513 -1.0519  0.1540
 3163SOL    MW412420   0.175   2.009   2.604  0.5228 -0.3402 -0.0141
 3164SOL     OW12421   4.276   6.268   1.390 -0.6807 -0.1626 -0.3665
 3164SOL    HW212422   4.349   6.207   1.405 -1.0301 -0.9886 -1.7809
 3164SOL    HW312423   4.228   6.229   1.317 -1.1431  1.6263 -1.0598
 3164SOL    MW412424   4.280   6.255   1.382 -0.7878 -0.0356 -0.6446
 3165SOL     OW12425   3.437   2.099   3.546  0.2017  0.2535 -0.2383
 3165SOL    HW212426   3.401   2.080   3.633 -0.4992 -2.8859 -1.1002
 3165SOL    HW312427   3.436   2.015   3.500  2.7373  1.2985 -2.5287
 3165SOL    MW412428   3.432   2.086   3.552  0.4438 -0.0228 -0.6542
 3166SOL     OW12429   4.954   4.122   4.383 -0.3326 -0.5966 -0.0307
 3166SOL    HW212430   4.888   4.053   4.392 -0.5921 -0.2749  0.6537
 3166SOL    HW312431   4.963   4.135   4.289  2.4604 -4.1330 -0.4782
 3166SOL    MW412432   4.946   4.115   4.372  0.0017 -1.0208  0.0005
 3167SOL     OW12433   5.578   2.260   4.997  0.2876  0.4487  0.3002
 3167SOL    HW212434   5.523   2.190   5.031  0.6036  0.2443  0.3932
 3167SOL    HW312435   5.606   2.309   5.075 -1.1359  1.5946  0.1432
 3167SOL    MW412436   5.574   2.257   5.012  0.1415  0.5729  0.2917
 3168SOL     OW12437   3.913   1.092   4.860  0.2290 -0.2426 -0.0758
 3168SOL    HW212438   3.977   1.100   4.931 -1.3246 -0.0075  1.3529
 3168SOL    HW312439   3.831   1.070   4.904 -0.6975 -0.4873 -1.8503
 3168SOL    MW412440   3.911   1.091   4.875 -0.0982 -0.2439 -0.1214
 3169SOL     OW12441   3.342   0.076   0.507 -0.7209 -0.0165 -0.5234
 3169SOL    HW212442   3.374  -0.008   0.475  0.6278 -0.0802  0.8944
 3169SOL    HW312443   3.251   0.058   0.534 -0.1420 -1.2846  0.6914
 3169SOL    MW412444   3.334   0.062   0.506 -0.4666 -0.1922 -0.1761
 3170SOL     OW12445   3.744   1.611   5.968  0.0365  0.0415  0.3335
 3170SOL    HW212446   3.652   1.637   5.960 -0.1626 -0.7708 -0.1603
 3170SOL    HW312447   3.751   1.532   5.913  1.6298  1.5748 -1.8288
 3170SOL    MW412448   3.733   1.604   5.959  0.2204  0.1366 -0.0170
 3171SOL     OW12449   0.899   3.360   6.407 -0.7675 -0.0990  0.4070
 3171SOL    HW212450   0.920   3.267   6.417 -0.7812  0.0450  2.2533
 3171SOL    HW312451   0.976   3.398   6.364 -0.4840 -0.8577  0.2348
 3171SOL    MW412452   0.912   3.353   6.403 -0.7319 -0.1801  0.6279
 3172SOL     OW12453   4.284   5.308   5.076  0.6044  0.1852 -0.4559
 3172SOL    HW212454   4.321   5.284   5.161  0.1647 -0.5333 -0.4544
 3172SOL    HW312455   4.357   5.346   5.028  0.7787  0.9118  0.3614
 3172SOL    MW412456   4.298   5.310   5.081  0.5694  0.1863 -0.3479
 3173SOL     OW12457   2.047   6.111   3.144  0.8212  0.1336 -0.0998
 3173SOL    HW212458   2.049   6.096   3.050  0.7743 -0.7666  0.0327
 3173SOL    HW312459   2.102   6.188   3.157  1.1092  0.0613 -0.8276
 3173SOL    MW412460   2.055   6.119   3.133  0.8530  0.0053 -0.1783
 3174SOL     OW12461   6.036   0.342   2.365 -0.2609 -0.1402 -0.4059
 3174SOL    HW212462   5.999   0.337   2.277 -2.0082  1.8584  0.1388
 3174SOL    HW312463   5.961   0.356   2.422  1.0881  1.8863  1.0175
 3174SOL    MW412464   6.021   0.343   2.361 -0.3134  0.3909 -0.1462
 3175SOL     OW12465   5.443   4.887   2.539 -0.1335 -0.5834  0.2015
 3175SOL    HW212466   5.400   4.862   2.458  0.1266  0.7529 -0.3759
 3175SOL    HW312467   5.523   4.931   2.511 -0.1529  0.1029  1.1735
 3175SOL    MW412468   5.448   4.889   2.525 -0.1017 -0.3165  0.2535
 3176SOL     OW12469   4.393   4.985   0.924  0.0884  0.6443  0.1200
 3176SOL    HW212470   4.323   4.993   0.859  0.7865  2.3166 -0.4804
 3176SOL    HW312471   4.471   4.968   0.871  0.4736  0.8741  0.6151
 3176SOL    MW412472   4.394   4.984   0.908  0.2313  0.8952  0.1061
 3177SOL     OW12473   4.484   1.766   4.929 -0.3581  0.3854 -0.0075
 3177SOL    HW212474   4.418   1.833   4.950  0.8945  1.8240 -0.4701
 3177SOL    HW312475   4.565   1.816   4.917  0.8679 -1.3470  0.7225
 3177SOL    MW412476   4.486   1.782   4.931 -0.0311  0.3466  0.0278
 3178SOL     OW12477   2.351   2.308   4.764 -0.3487 -0.7871 -0.4183
 3178SOL    HW212478   2.438   2.270   4.749 -0.6773 -0.9281 -2.2427
 3178SOL    HW312479   2.323   2.272   4.848  1.2919 -0.8405  0.1329
 3178SOL    MW412480   2.359   2.298   4.773 -0.1756 -0.8128 -0.5863
 3179SOL     OW12481   1.860   6.273   0.403 -0.4537 -0.6644  0.4033
 3179SOL    HW212482   1.829   6.348   0.453 -0.1709 -0.0954 -0.2771
 3179SOL    HW312483   1.780   6.227   0.378 -0.6051 -0.8863  1.2551
 3179SOL    MW412484   1.845   6.276   0.407 -0.4364 -0.6186  0.4259
 3180SOL     OW12485   4.929   4.338   0.887 -0.3496 -0.0451  0.1862
 3180SOL    HW212486   4.914   4.409   0.825 -1.6342 -0.0581  0.4550
 3180SOL    HW312487   4.882   4.365   0.966  2.1808  0.5271  1.6192
 3180SOL    MW412488   4.921   4.351   0.889 -0.1853  0.0287  0.4107
 3181SOL     OW12489   1.726   1.071   1.090  0.1584  0.1057 -0.4400
 3181SOL    HW212490   1.723   1.017   1.012  0.1616  0.2672 -0.5529
 3181SOL    HW312491   1.806   1.045   1.135  1.4992  1.7337 -1.7455
 3181SOL    MW412492   1.736   1.061   1.086  0.3357  0.3418 -0.6271
 3182SOL     OW12493   2.088   5.455   3.881  0.1906  0.3262 -0.0670
 3182SOL    HW212494   2.005   5.410   3.869  1.0532 -0.9488 -1.7262
 3182SOL    HW312495   2.077   5.539   3.838 -0.3175  0.2693 -0.0478
 3182SOL    MW412496   2.076   5.460   3.874  0.2374  0.1505 -0.2834
 3183SOL     OW12497   6.268   3.139   1.136 -1.0195 -0.1030 -0.0575
 3183SOL    HW212498   6.336   3.202   1.158 -0.4752 -1.2189  1.6511
 3183SOL    HW312499   6.186   3.190   1.140 -0.4768  0.8149 -0.2532
 3183SOL    MW412500   6.266   3.154   1.140 -0.8761 -0.1291  0.1421
 3184SOL     OW12501   3.475   1.833   0.116  0.7621  0.3293  0.2500
 3184SOL    HW212502   3.503   1.874   0.034  0.5662 -0.6521 -0.3267
 3184SOL    HW312503   3.408   1.892   0.151  2.2775  1.8281  0.7867
 3184SOL    MW412504   3.470   1.846   0.110  0.9362  0.3976  0.2447
 3185SOL     OW12505   0.636   5.516   4.248  0.4253  0.3743 -0.0495
 3185SOL    HW212506   0.644   5.527   4.153 -1.5574 -0.8900 -0.4269
 3185SOL    HW312507   0.721   5.482   4.275  0.7215 -0.1339 -1.5281
 3185SOL    MW412508   0.648   5.513   4.239  0.2028  0.1404 -0.2944
 3186SOL     OW12509   3.437   4.594   5.030 -0.2675  0.0220 -0.0711
 3186SOL    HW212510   3.392   4.648   5.095 -0.2633 -0.1517  0.0788
 3186SOL    HW312511   3.530   4.610   5.046 -0.1914 -1.5131  1.2895
 3186SOL    MW412512   3.444   4.603   5.041 -0.2569 -0.2034  0.1282
 3187SOL     OW12513   4.560   2.225   4.300  0.4062  0.6043  0.3228
 3187SOL    HW212514   4.604   2.212   4.216  1.3718  0.6769  0.7988
 3187SOL    HW312515   4.539   2.136   4.330  1.0524  0.5030  0.5017
 3187SOL    MW412516   4.563   2.211   4.293  0.6189  0.6005  0.4092
 3188SOL     OW12517   5.876   4.743   5.609 -0.5620 -0.1674  0.3296
 3188SOL    HW212518   5.937   4.816   5.614 -0.7231 -0.0769  1.0544
 3188SOL    HW312519   5.931   4.665   5.607 -0.4015 -0.1298  1.7734
 3188SOL    MW412520   5.891   4.742   5.610 -0.5621 -0.1505  0.6157
 3189SOL     OW12521   4.844   0.635   0.714  0.0967 -0.1348 -0.0653
 3189SOL    HW212522   4.774   0.603   0.771 -4.9066  0.2826 -5.1113
 3189SOL    HW312523   4.860   0.724   0.745 -2.5303  0.1628  0.6774
 3189SOL    MW412524   4.837   0.643   0.726 -0.9100 -0.0405 -0.6331
 3190SOL     OW12525   6.169   0.005   0.263  0.0321 -0.5053  0.4988
 3190SOL    HW212526   6.245   0.032   0.314 -0.5309  2.1116  0.0709
 3190SOL    HW312527   6.104  -0.022   0.329 -0.0545  1.1270  1.1256
 3190SOL    MW412528   6.170   0.005   0.278 -0.0536  0.0553  0.5250
 3191SOL     OW12529   6.088   0.490   5.831 -0.0290 -0.6120  0.7934
 3191SOL    HW212530   6.034   0.542   5.771  1.5069 -1.2610 -1.2554
 3191SOL    HW312531   6.094   0.543   5.910 -1.0548  0.8993 -0.0940
 3191SOL    MW412532   6.082   0.504   5.833  0.0383 -0.4983  0.4060
 3192SOL     OW12533   2.982   6.373   0.294 -0.5719 -0.5465  0.5769
 3192SOL    HW212534   2.909   6.434   0.290 -0.7448 -0.7567  0.5206
 3192SOL    HW312535   2.942   6.288   0.316 -0.1992 -0.3825  1.9885
 3192SOL    MW412536   2.967   6.370   0.297 -0.5455 -0.5526  0.7557
 3193SOL     OW12537   4.568   0.574   2.564  0.6257  0.0539  0.6266
 3193SOL    HW212538   4.573   0.669   2.566  0.2829  0.0700  1.9493
 3193SOL    HW312539   4.503   0.554   2.497 -0.7109  0.8401  1.6458
 3193SOL    MW412540   4.560   0.584   2.556  0.4041  0.1598  0.9356
 3194SOL     OW12541   2.825   2.483   2.979 -0.1577 -0.1169  0.1539
 3194SOL    HW212542   2.747   2.538   2.989 -0.1019 -0.0009 -0.0441
 3194SOL    HW312543   2.898   2.543   2.992 -0.0958 -0.1265 -0.1467
 3194SOL    MW412544   2.824   2.498   2.982 -0.1422 -0.1029  0.0881
 3195SOL     OW12545   3.867   4.228   2.520 -0.0076 -0.0218  0.2032
 3195SOL    HW212546   3.877   4.230   2.615 -0.7325 -0.6120  0.3034
 3195SOL    HW312547   3.952   4.198   2.488 -0.0224 -0.6409  0.7243
 3195SOL    MW412548   3.880   4.224   2.528 -0.1052 -0.1814  0.2852
 3196SOL     OW12549   3.775   2.259   1.704 -0.0052  0.3864  0.6894
 3196SOL    HW212550   3.721   2.271   1.626  2.2370 -0.5177 -1.1390
 3196SOL    HW312551   3.750   2.173   1.738 -1.3766  1.0187  1.3276
 3196SOL    MW412552   3.765   2.249   1.698  0.1097  0.3506  0.5324
 3197SOL     OW12553   5.369   5.621   6.410 -0.0525  0.0001 -0.4531
 3197SOL    HW212554   5.457   5.616   6.372  0.4633 -2.0005  0.8016
 3197SOL    HW312555   5.310   5.609   6.336  0.8091 -0.4026 -1.1002
 3197SOL    MW412556   5.373   5.619   6.395  0.1292 -0.3170 -0.3729
 3198SOL     OW12557   5.039   5.393   3.764  0.5119  0.3585  0.3267
 3198SOL    HW212558   4.973   5.434   3.708  1.6642  1.3599 -0.3206
 3198SOL    HW312559   5.070   5.463   3.820  0.5895 -0.2603  1.0769
 3198SOL    MW412560   5.034   5.407   3.764  0.6742  0.4090  0.3403
 3199SOL     OW12561   2.854   5.833   1.585 -0.2565 -0.5193  0.1885
 3199SOL    HW212562   2.760   5.850   1.575 -0.2062 -0.0351  0.5414
 3199SOL    HW312563   2.895   5.880   1.513 -0.1109  0.9760  1.2044
 3199SOL    MW412564   2.847   5.842   1.574 -0.2306 -0.2582  0.3691
 3200SOL     OW12565   5.438   3.592   6.338  0.0624 -0.2257  0.4753
 3200SOL    HW212566   5.357   3.544   6.323 -0.8108  0.7353  1.8415
 3200SOL    HW312567   5.477   3.602   6.251 -2.6168  1.5880 -0.6660
 3200SOL    MW412568   5.432   3.587   6.325 -0.4063  0.1404  0.5050
 3201SOL     OW12569   2.176   0.823   5.730  0.3712  0.1499 -0.2179
 3201SOL    HW212570   2.168   0.800   5.638 -1.3969 -0.3251  0.0200
 3201SOL    HW312571   2.162   0.740   5.776 -0.7015  0.7118  0.5160
 3201SOL    MW412572   2.173   0.809   5.724 -0.0036  0.1614 -0.0897
 3202SOL     OW12573   0.995   4.069   4.000  0.0271  0.4818 -0.2152
 3202SOL    HW212574   0.975   4.050   3.908  1.3643 -1.1513 -0.2269
 3202SOL    HW312575   0.911   4.092   4.039 -1.4068 -3.0379 -0.9012
 3202SOL    MW412576   0.981   4.070   3.993  0.0143 -0.1980 -0.3073
 3203SOL     OW12577   0.277   2.573   1.905 -0.4167 -0.5526  0.1777
 3203SOL    HW212578   0.248   2.588   1.815  0.5529  0.0438 -0.0472
 3203SOL    HW312579   0.284   2.478   1.912 -1.4460 -0.6651 -0.0535
 3203SOL    MW412580   0.274   2.563   1.894 -0.4246 -0.4887  0.1175
 3204SOL     OW12581   5.152   0.265   3.950  0.4349  0.2084  0.4733
 3204SOL    HW212582   5.234   0.259   3.999 -0.2708 -2.0580  1.5212
 3204SOL    HW312583   5.132   0.175   3.926 -1.0695  0.8709 -0.9711
 3204SOL    MW412584   5.160   0.252   3.953  0.1433 -0.0032  0.4210
 3205SOL     OW12585   0.526   2.291   0.212 -0.2999 -0.4056 -1.2630
 3205SOL    HW212586   0.615   2.256   0.206  0.4570  1.3783 -1.3411
 3205SOL    HW312587   0.472   2.218   0.241  1.6559 -0.9174  1.4868
 3205SOL    MW412588   0.531   2.277   0.215  0.0580 -0.2378 -0.9105
 3206SOL     OW12589   2.315   4.687   3.163  0.3149  0.4918 -0.2784
 3206SOL    HW212590   2.320   4.772   3.208  1.4685 -0.2521  1.0958
 3206SOL    HW312591   2.384   4.692   3.096  0.4436  0.6194 -0.1397
 3206SOL    MW412592   2.325   4.699   3.160  0.4841  0.4105 -0.0788
 3207SOL     OW12593   5.447   4.894   4.554 -0.0920 -0.0197  0.4560
 3207SOL    HW212594   5.368   4.945   4.535 -0.5810 -0.5125  1.1228
 3207SOL    HW312595   5.519   4.949   4.522 -0.6476  0.7874  0.5581
 3207SOL    MW412596   5.446   4.908   4.547 -0.2299  0.0218  0.5574
 3208SOL     OW12597   2.667   2.528   0.244  0.2922  0.0003  0.6481
 3208SOL    HW212598   2.613   2.473   0.186 -0.1358  1.6834 -0.6600
 3208SOL    HW312599   2.710   2.466   0.303 -0.9603 -1.6306 -0.0504
 3208SOL    MW412600   2.665   2.513   0.244  0.0705  0.0072  0.3834
 3209SOL     OW12601   1.555   0.288   1.656 -0.2423  0.4442 -0.3677
 3209SOL    HW212602   1.516   0.265   1.740 -1.4833  3.0376 -0.1155
 3209SOL    HW312603   1.492   0.257   1.591  1.4959 -3.0780 -0.5868
 3209SOL    MW412604   1.541   0.281   1.659 -0.1767  0.3217 -0.3633
 3210SOL     OW12605   1.705   5.425   0.266 -0.1421  0.0223  0.4244
 3210SOL    HW212606   1.665   5.357   0.211 -0.1791 -0.2520  0.7918
 3210SOL    HW312607   1.631   5.472   0.304 -0.3232  3.0037 -3.0310
 3210SOL    MW412608   1.690   5.422   0.264 -0.1709  0.3795  0.0170
 3211SOL     OW12609   4.326   1.305   5.617  0.1434  0.2622 -0.0131
 3211SOL    HW212610   4.256   1.288   5.681  0.1844  1.6706  0.4307
 3211SOL    HW312611   4.392   1.353   5.666  2.0780 -2.1302 -0.0873
 3211SOL    MW412612   4.325   1.309   5.632  0.4041  0.1324  0.0357
 3212SOL     OW12613   1.351   4.648   5.905 -0.1038 -0.0956  0.5843
 3212SOL    HW212614   1.434   4.696   5.904  0.0618 -0.2745  2.5053
 3212SOL    HW312615   1.371   4.566   5.950 -1.1571 -0.4728  0.3835
 3212SOL    MW412616   1.365   4.644   5.911 -0.2209 -0.1689  0.8113
 3213SOL     OW12617   4.120   1.586   5.230 -0.0513  0.1322  0.4817
 3213SOL    HW212618   4.167   1.503   5.222 -1.3476 -0.5261 -0.5735
 3213SOL    HW312619   4.085   1.603   5.142  0.7340  2.1588  0.4809
 3213SOL    MW412620   4.122   1.578   5.217 -0.1187  0.3127  0.3424
 3214SOL     OW12621   5.219   2.750   5.093 -0.1955  0.2656  0.4273
 3214SOL    HW212622   5.177   2.741   5.008  1.0363  2.1319 -0.4666
 3214SOL    HW312623   5.313   2.743   5.074  0.0940  0.3791  1.6976
 3214SOL    MW412624   5.226   2.748   5.079  0.0052  0.5268  0.4770
 3215SOL     OW12625   1.649   1.548   6.153  0.3333 -0.2974  0.0014
 3215SOL    HW212626   1.734   1.588   6.171  0.4479 -0.2227 -0.6754
 3215SOL    HW312627   1.589   1.623   6.150  0.4096 -0.2515 -0.4618
 3215SOL    MW412628   1.652   1.563   6.155  0.3585 -0.2815 -0.1490
 3216SOL     OW12629   1.963   5.760   3.371  0.9477 -0.5660  0.7448
 3216SOL    HW212630   2.020   5.829   3.337 -0.0624  0.0192  0.1703
 3216SOL    HW312631   1.954   5.779   3.464  0.6182  0.1557  0.5809
 3216SOL    MW412632   1.969   5.772   3.379  0.7709 -0.3935  0.6474
 3217SOL     OW12633   2.515   3.939   2.856  0.5926 -0.1151 -0.1202
 3217SOL    HW212634   2.472   3.951   2.771 -0.0020  1.4300  0.3561
 3217SOL    HW312635   2.452   3.889   2.908  0.7765 -0.6894 -0.4408
 3217SOL    MW412636   2.501   3.934   2.852  0.5384  0.0129 -0.0996
 3218SOL     OW12637   2.802   6.109   3.694  0.9115 -0.5946 -0.3221
 3218SOL    HW212638   2.748   6.136   3.619  1.4780 -1.7319 -1.1579
 3218SOL    HW312639   2.741   6.064   3.753  0.5112  0.1058 -0.1858
 3218SOL    MW412640   2.787   6.107   3.692  0.9335 -0.6522 -0.4144
 3219SOL     OW12641   0.530   3.038   1.219  0.3245 -0.0589  0.1652
 3219SOL    HW212642   0.615   3.037   1.176  0.7825 -0.5534  1.0514
 3219SOL    HW312643   0.508   2.946   1.232  0.1342  0.0768  0.8524
 3219SOL    MW412644   0.538   3.026   1.215  0.3598 -0.1062  0.3728
 3220SOL     OW12645   1.992   1.392   3.865 -0.6521  0.3501 -0.0235
 3220SOL    HW212646   1.975   1.478   3.825 -0.2865  0.4138 -0.0453
 3220SOL    HW312647   2.035   1.342   3.797 -0.0138  0.4632  0.2901
 3220SOL    MW412648   1.995   1.397   3.851 -0.5196  0.3734  0.0150
 3221SOL     OW12649   4.240   5.956   6.392 -0.0737 -0.0170  0.0952
 3221SOL    HW212650   4.149   5.970   6.419  0.5160 -0.1154  2.3532
 3221SOL    HW312651   4.285   6.036   6.418  0.4541  0.1695 -1.3162
 3221SOL    MW412652   4.234   5.969   6.399  0.0738 -0.0054  0.2069
 3222SOL     OW12653   4.856   3.450   0.524 -0.1212 -0.0624 -0.5157
 3222SOL    HW212654   4.799   3.394   0.470 -0.0562 -0.0899 -0.5555
 3222SOL    HW312655   4.808   3.533   0.531 -1.4085 -0.9213  1.6196
 3222SOL    MW412656   4.842   3.454   0.518 -0.2824 -0.1794 -0.2393
 3223SOL     OW12657   1.749   4.157   4.118 -0.0246 -0.2917 -0.7908
 3223SOL    HW212658   1.731   4.149   4.212  0.6043  1.0066 -0.5427
 3223SOL    HW312659   1.732   4.070   4.083 -1.2768 -0.5387  0.3517
 3223SOL    MW412660   1.745   4.145   4.126 -0.1068 -0.1530 -0.6073
 3224SOL     OW12661   1.347   0.542   6.393 -0.2881 -0.3491  0.0525
 3224SOL    HW212662   1.328   0.633   6.368 -0.5996 -0.2614  0.5835
 3224SOL    HW312663   1.264   0.509   6.427 -0.1134 -0.7579  0.0850
 3224SOL    MW412664   1.334   0.550   6.394 -0.3061 -0.3915  0.1269
 3225SOL     OW12665   6.075   1.989   5.614  0.5488  0.5884  0.0452
 3225SOL    HW212666   5.984   2.012   5.634  0.1101  0.5931 -1.7467
 3225SOL    HW312667   6.108   2.063   5.563  1.0417 -0.1025 -0.6666
 3225SOL    MW412668   6.067   2.002   5.610  0.5560  0.4979 -0.2851
 3226SOL     OW12669   0.547   0.588   3.899  0.0302 -0.2691  0.0941
 3226SOL    HW212670   0.556   0.629   3.812  0.3282 -3.2211 -1.3745
 3226SOL    HW312671   0.605   0.639   3.955 -2.2139  3.5038 -0.6370
 3226SOL    MW412672   0.555   0.600   3.895 -0.2265 -0.1608 -0.1961
 3227SOL     OW12673   6.446   3.630   1.590 -0.1931  0.3402  0.2650
 3227SOL    HW212674   6.491   3.602   1.669  0.7009 -0.6713 -0.5658
 3227SOL    HW312675   6.403   3.712   1.614  0.1734  0.1218  1.7420
 3227SOL    MW412676   6.446   3.638   1.604 -0.0268  0.1779  0.3503
 3228SOL     OW12677   2.494   4.725   2.950  0.1205  0.7804  0.0579
 3228SOL    HW212678   2.573   4.780   2.952 -0.0720  1.2478 -2.3177
 3228SOL    HW312679   2.524   4.643   2.912  0.0440 -0.1683  1.9729
 3228SOL    MW412680   2.509   4.722   2.945  0.0850  0.7169 -0.0029
 3229SOL     OW12681   4.963   6.125   2.923  0.0649  0.3482  0.2541
 3229SOL    HW212682   5.034   6.190   2.919  0.7256 -0.3028  1.0251
 3229SOL    HW312683   4.891   6.171   2.966  0.3231  0.7555  0.2590
 3229SOL    MW412684   4.963   6.140   2.929  0.1862  0.3160  0.3565
 3230SOL     OW12685   4.136   0.399   3.165 -0.1711  0.0693 -0.2190
 3230SOL    HW212686   4.157   0.365   3.251  1.4339  0.9303 -0.2359
 3230SOL    HW312687   4.181   0.341   3.104 -0.8745 -0.2252 -0.4739
 3230SOL    MW412688   4.145   0.387   3.168 -0.0521  0.1440 -0.2549
 3231SOL     OW12689   6.159   6.382   4.815  0.4451  0.7814  0.7126
 3231SOL    HW212690   6.079   6.431   4.836  0.7933  1.4866  0.4136
 3231SOL    HW312691   6.202   6.434   4.747  1.0030  0.2438  0.6488
 3231SOL    MW412692   6.154   6.396   4.809  0.5646  0.8035  0.6647
 3232SOL     OW12693   0.323   3.809   2.472  0.3159 -0.1171 -0.2805
 3232SOL    HW212694   0.246   3.847   2.514 -0.6010  0.5610 -2.4624
 3232SOL    HW312695   0.379   3.885   2.451  0.6447 -0.4167 -0.5043
 3232SOL    MW412696   0.320   3.824   2.475  0.2383 -0.0671 -0.5979
 3233SOL     OW12697   2.202   1.561   1.624 -0.1719  0.3671  0.6541
 3233SOL    HW212698   2.246   1.493   1.572 -0.6326  0.8623 -0.4178
 3233SOL    HW312699   2.168   1.515   1.701 -0.7463 -0.6876 -0.2058
 3233SOL    MW412700   2.203   1.546   1.627 -0.3085  0.2932  0.3992
 3234SOL     OW12701   4.629   5.013   2.558  0.4641  0.4464 -0.2959
 3234SOL    HW212702   4.600   5.022   2.467 -0.7397 -1.1916 -0.1111
 3234SOL    HW312703   4.549   5.024   2.610  0.5766 -1.6324  0.3871
 3234SOL    MW412704   4.614   5.016   2.553  0.3201 -0.0440 -0.1814
 3235SOL     OW12705   5.671   4.773   6.328  0.0082 -0.3645 -0.1608
 3235SOL    HW212706   5.697   4.806   6.413 -1.0714 -2.1430  0.9314
 3235SOL    HW312707   5.589   4.819   6.307 -0.7289 -1.2420  0.6833
 3235SOL    MW412708   5.663   4.783   6.336 -0.2315 -0.7149  0.0947
 3236SOL     OW12709   4.011   5.605   0.789 -0.2734  0.3536  0.9889
 3236SOL    HW212710   4.024   5.699   0.778  1.1441 -0.0905 -2.5085
 3236SOL    HW312711   4.094   5.574   0.827  0.4614  0.2277 -0.6327
 3236SOL    MW412712   4.024   5.613   0.793  0.0106  0.2784  0.3135
 3237SOL     OW12713   3.293   3.334   1.500  0.3233 -0.0059  0.1553
 3237SOL    HW212714   3.337   3.253   1.525 -0.8978 -0.5461  0.6215
 3237SOL    HW312715   3.200   3.316   1.514  0.1180  2.0361  1.9750
 3237SOL    MW412716   3.286   3.321   1.505  0.1351  0.1923  0.4569
 3238SOL     OW12717   2.985   0.596   2.609 -0.5414 -0.3242  0.5773
 3238SOL    HW212718   2.978   0.690   2.593 -1.7741 -0.2335  1.4861
 3238SOL    HW312719   3.043   0.588   2.684  0.8081 -0.4182 -0.4264
 3238SOL    MW412720   2.992   0.607   2.617 -0.5260 -0.3246  0.5648
 3239SOL     OW12721   3.538   0.722   2.780 -0.2260  0.0749 -0.0056
 3239SOL    HW212722   3.455   0.676   2.767 -1.1525  1.4437  0.8398
 3239SOL    HW312723   3.577   0.726   2.692 -0.5188 -1.5206 -0.2384
 3239SOL    MW412724   3.532   0.716   2.767 -0.3869  0.0450  0.0753
 3240SOL     OW12725   5.904   4.628   6.221 -0.0036 -0.1432  0.2626
 3240SOL    HW212726   5.846   4.696   6.254 -0.3845 -0.5969  0.5457
 3240SOL    HW312727   5.883   4.551   6.274  0.6689 -0.3849  0.1875
 3240SOL    MW412728   5.893   4.627   6.232  0.0349 -0.2350  0.2900
 3241SOL     OW12729   5.456   6.189   4.846 -0.2953  0.1452  0.5463
 3241SOL    HW212730   5.425   6.169   4.934 -1.5737  0.3673  0.1571
 3241SOL    HW312731   5.537   6.137   4.837 -0.5455 -0.4512  1.5752
 3241SOL    MW412732   5.463   6.179   4.856 -0.4970  0.0958  0.6307
 3242SOL     OW12733   6.258   5.721   0.371  0.2997  0.1615 -0.3518
 3242SOL    HW212734   6.326   5.657   0.392  0.0855 -0.2729 -0.9598
 3242SOL    HW312735   6.178   5.670   0.363  0.4091  0.2351 -2.4796
 3242SOL    MW412736   6.256   5.706   0.373  0.2859  0.1139 -0.7127
 3243SOL     OW12737   2.516   4.649   3.364  0.2640  0.4418  0.0296
 3243SOL    HW212738   2.455   4.629   3.293  0.8313  1.6716 -0.8420
 3243SOL    HW312739   2.586   4.585   3.353 -1.1665 -1.5007  1.5233
 3243SOL    MW412740   2.517   4.638   3.353  0.1501  0.3477  0.1117
 3244SOL     OW12741   3.997   3.289   1.421  0.1139  0.4967  0.1287
 3244SOL    HW212742   4.056   3.362   1.439  0.0952  0.0172  2.3178
 3244SOL    HW312743   3.950   3.275   1.503 -1.5984 -0.4542 -0.9647
 3244SOL    MW412744   3.999   3.297   1.434 -0.1145  0.3080  0.2733
 3245SOL     OW12745   3.840   4.737   0.809 -0.0253 -1.1954 -0.6792
 3245SOL    HW212746   3.836   4.751   0.903  1.1464 -0.5593 -0.7111
 3245SOL    HW312747   3.814   4.646   0.797 -3.8159 -0.3782 -0.0950
 3245SOL    MW412748   3.836   4.727   0.820 -0.3708 -1.0036 -0.6063
 3246SOL     OW12749   3.443   4.198   0.026  0.2129 -0.2876  0.0161
 3246SOL    HW212750   3.531   4.223   0.055 -0.1183  0.0357  0.7591
 3246SOL    HW312751   3.446   4.102   0.022  0.8777 -0.2369 -0.8821
 3246SOL    MW412752   3.455   4.188   0.030  0.2569 -0.2383 -0.0044
 3247SOL     OW12753   0.135   3.560   0.340  0.5326  0.2320 -0.0047
 3247SOL    HW212754   0.182   3.480   0.362  0.0493  0.1209  0.6420
 3247SOL    HW312755   0.065   3.566   0.405 -0.7496  0.0508 -1.3108
 3247SOL    MW412756   0.132   3.550   0.351  0.2996  0.1934 -0.0917
 3248SOL     OW12757   0.161   0.918   3.239 -0.0920  0.3543 -0.3055
 3248SOL    HW212758   0.236   0.911   3.299  0.1944  0.3619 -0.6604
 3248SOL    HW312759   0.179   0.853   3.171 -0.3847  0.3931 -0.4212
 3248SOL    MW412760   0.173   0.908   3.238 -0.0928  0.3604 -0.3676
 3249SOL     OW12761   4.539   1.482   4.890 -0.2951 -0.1584  0.7772
 3249SOL    HW212762   4.600   1.480   4.964  1.2049  0.4344 -0.3853
 3249SOL    HW312763   4.504   1.571   4.889  2.2868  0.9815 -1.1379
 3249SOL    MW412764   4.543   1.493   4.899  0.2434  0.0702  0.3712
 3250SOL     OW12765   6.030   6.041   6.382 -0.6188  0.5239 -0.1410
 3250SOL    HW212766   5.951   6.082   6.346 -0.9129 -0.2131 -0.3513
 3250SOL    HW312767   6.006   6.017   6.472 -0.9690 -0.5637 -0.5059
 3250SOL    MW412768   6.016   6.043   6.389 -0.7038  0.2831 -0.2169
 3251SOL     OW12769   4.401   3.573   0.966  0.0908 -0.4400  0.6596
 3251SOL    HW212770   4.490   3.546   0.945 -0.7449 -2.4238 -0.6608
 3251SOL    HW312771   4.362   3.594   0.881 -0.4048  1.5664  1.3210
 3251SOL    MW412772   4.407   3.572   0.952 -0.0849 -0.4371  0.5727
 3252SOL     OW12773   3.290   2.730   2.679  0.3341  0.1570  0.3503
 3252SOL    HW212774   3.356   2.678   2.634  1.3064  1.0667  0.6842
 3252SOL    HW312775   3.297   2.703   2.771  0.9392  0.9513  0.5472
 3252SOL    MW412776   3.299   2.720   2.685  0.5423  0.3818  0.4203
 3253SOL     OW12777   6.445   4.974   2.075  0.5421  0.0493  0.1541
 3253SOL    HW212778   6.455   4.999   2.167  0.8748  2.0653 -0.3964
 3253SOL    HW312779   6.455   5.056   2.026 -3.1808 -0.2613 -1.4788
 3253SOL    MW412780   6.448   4.988   2.081  0.0948  0.2743 -0.1340
 3254SOL     OW12781   0.228   1.719   6.060 -0.3913  0.0286  0.2897
 3254SOL    HW212782   0.287   1.749   5.991  0.9380 -3.2287 -0.1600
 3254SOL    HW312783   0.169   1.659   6.016 -1.7900  0.5236  1.4194
 3254SOL    MW412784   0.228   1.715   6.045 -0.4004 -0.3359  0.3794
 3255SOL     OW12785   3.249   6.182   2.784  0.0276 -0.2364  0.1450
 3255SOL    HW212786   3.201   6.181   2.867  0.4970 -5.0183  0.6455
 3255SOL    HW312787   3.182   6.165   2.718  0.3019 -2.3893  0.3427
 3255SOL    MW412788   3.234   6.179   2.786  0.1257 -1.1513  0.2371
 3256SOL     OW12789   6.159   3.991   1.856 -0.2740  0.0098  0.1213
 3256SOL    HW212790   6.134   3.899   1.846 -1.7198 -0.1625  3.6691
 3256SOL    HW312791   6.228   3.989   1.923  0.1600  1.4693 -0.2487
 3256SOL    MW412792   6.165   3.979   1.864 -0.4075  0.1797  0.5406
 3257SOL     OW12793   4.580   0.405   5.369  0.0292 -0.1109 -0.3349
 3257SOL    HW212794   4.572   0.495   5.399  0.1532 -1.1686  3.4196
 3257SOL    HW312795   4.491   0.380   5.345 -0.2176  0.6754 -0.2725
 3257SOL    MW412796   4.568   0.413   5.370  0.0130 -0.1467  0.1687
 3258SOL     OW12797   1.215   1.534   5.759  0.1792 -0.0470 -0.0231
 3258SOL    HW212798   1.288   1.566   5.706  1.0317 -2.9046 -0.7271
 3258SOL    HW312799   1.139   1.541   5.701  0.6174 -0.6434 -0.6851
 3258SOL    MW412800   1.214   1.539   5.744  0.3495 -0.5027 -0.2033
 3259SOL     OW12801   3.891   0.613   3.246 -0.1354  0.6738 -0.0712
 3259SOL    HW212802   3.917   0.600   3.337 -1.6213 -2.7848  0.0139
 3259SOL    HW312803   3.973   0.630   3.199  1.1481 -0.9293  1.4480
 3259SOL    MW412804   3.905   0.614   3.252 -0.1621  0.0060  0.1405
 3260SOL     OW12805   3.848   0.200   0.842 -0.2309 -0.4022  0.3017
 3260SOL    HW212806   3.865   0.266   0.775 -0.1644  0.0341  0.7426
 3260SOL    HW312807   3.780   0.238   0.897  0.1599 -0.4802  0.8537
 3260SOL    MW412808   3.841   0.214   0.841 -0.1705 -0.3549  0.4327
 3261SOL     OW12809   4.602   2.821   5.008  0.2020  0.4718  0.3137
 3261SOL    HW212810   4.681   2.816   5.062 -0.8531 -0.1510  1.8561
 3261SOL    HW312811   4.635   2.842   4.920  1.9503  1.6732  1.1958
 3261SOL    MW412812   4.617   2.823   5.003  0.2935  0.5481  0.6336
 3262SOL     OW12813   2.310   4.673   6.117  0.1957  0.3149 -0.0136
 3262SOL    HW212814   2.314   4.765   6.143 -1.0002  0.5677 -0.6733
 3262SOL    HW312815   2.323   4.674   6.022 -0.7427 -0.1077 -0.1488
 3262SOL    MW412816   2.313   4.685   6.108 -0.0859  0.2925 -0.1185
 3263SOL     OW12817   3.106   5.625   3.049 -0.5046 -0.6495 -0.0186
 3263SOL    HW212818   3.128   5.687   2.980  1.3255 -0.6485  0.5203
 3263SOL    HW312819   3.178   5.632   3.112 -0.5911 -2.8056  0.4006
 3263SOL    MW412820   3.118   5.634   3.048 -0.2746 -0.9339  0.1078
 3264SOL     OW12821   5.586   2.251   1.677  0.4711  1.2195 -0.3474
 3264SOL    HW212822   5.634   2.174   1.646 -0.3924  1.3919 -2.3295
 3264SOL    HW312823   5.578   2.239   1.771 -0.7483 -1.8088 -0.7288
 3264SOL    MW412824   5.591   2.239   1.685  0.1963  0.8427 -0.6592
 3265SOL     OW12825   3.464   0.568   2.229  0.1945 -0.3127 -0.2344
 3265SOL    HW212826   3.440   0.577   2.321  1.8967  1.0190  0.1103
 3265SOL    HW312827   3.454   0.474   2.212  2.6039 -1.1396  2.1447
 3265SOL    MW412828   3.459   0.556   2.239  0.7370 -0.2461  0.1249
 3266SOL     OW12829   5.817   4.706   4.587 -0.1600  0.1709  0.1795
 3266SOL    HW212830   5.764   4.755   4.649 -0.5320  1.6773 -1.2600
 3266SOL    HW312831   5.879   4.770   4.552  0.3108 -0.7250 -0.6925
 3266SOL    MW412832   5.818   4.721   4.590 -0.1470  0.2515 -0.1255
 3267SOL     OW12833   4.545   1.187   3.785 -0.5668 -0.1138 -0.6491
 3267SOL    HW212834   4.540   1.091   3.779  3.0256 -0.4144 -0.8740
 3267SOL    HW312835   4.512   1.207   3.873  1.8943 -2.0684  0.8813
 3267SOL    MW412836   4.540   1.177   3.796  0.2319 -0.4113 -0.4769
 3268SOL     OW12837   5.443   4.376   2.893 -0.7293 -0.2619 -0.0357
 3268SOL    HW212838   5.478   4.373   2.805  0.2015 -0.4011  0.3270
 3268SOL    HW312839   5.394   4.293   2.902  1.5552 -1.6336  0.5147
 3268SOL    MW412840   5.441   4.364   2.883 -0.3051 -0.4612  0.0848
 3269SOL     OW12841   5.754   1.123   0.414  0.1050  0.1285 -0.0777
 3269SOL    HW212842   5.826   1.060   0.420 -0.0877 -0.1405 -0.5240
 3269SOL    HW312843   5.771   1.185   0.484  0.6892 -0.0205 -0.0800
 3269SOL    MW412844   5.766   1.123   0.424  0.1567  0.0733 -0.1369
 3270SOL     OW12845   5.135   1.663   1.087 -0.4674 -0.5376 -0.0296
 3270SOL    HW212846   5.217   1.685   1.042 -1.4086  0.2346 -1.4285
 3270SOL    HW312847   5.066   1.699   1.031 -1.7385 -0.2290  1.6507
 3270SOL    MW412848   5.137   1.671   1.074 -0.7593 -0.3950  0.0075
 3271SOL     OW12849   3.533   4.811   0.662 -0.4782  0.1341 -0.0170
 3271SOL    HW212850   3.547   4.817   0.756 -1.2902 -0.0445  0.1228
 3271SOL    HW312851   3.464   4.874   0.643 -0.0461  0.4558 -0.5613
 3271SOL    MW412852   3.526   4.820   0.672 -0.5283  0.1530 -0.0704
 3272SOL     OW12853   2.460   1.662   1.680  0.0150  0.7203  0.3695
 3272SOL    HW212854   2.494   1.592   1.734 -0.1222  3.6926  4.8041
 3272SOL    HW312855   2.370   1.635   1.659  0.0440 -0.5300  1.7369
 3272SOL    MW412856   2.452   1.649   1.684  0.0007  0.9475  1.1350
 3273SOL     OW12857   1.750   0.180   3.189  0.8029  0.4594  0.3911
 3273SOL    HW212858   1.678   0.241   3.172  1.1807  0.4464 -1.4891
 3273SOL    HW312859   1.712   0.094   3.176  1.1686  0.4591 -0.8249
 3273SOL    MW412860   1.736   0.177   3.185  0.9010  0.4577 -0.0174
 3274SOL     OW12861   4.213   0.092   0.251 -0.5319  0.3263  0.5810
 3274SOL    HW212862   4.214   0.082   0.155 -0.0045 -1.2217  0.7262
 3274SOL    HW312863   4.295   0.138   0.270  1.5043 -2.9895  0.5711
 3274SOL    MW412864   4.224   0.097   0.241 -0.1936 -0.3154  0.5988
 3275SOL     OW12865   5.170   5.020   5.110  0.6867 -0.3022  0.1541
 3275SOL    HW212866   5.226   4.973   5.172  0.3058  1.0511  1.5844
 3275SOL    HW312867   5.098   5.053   5.164  0.6882  1.4759 -0.8731
 3275SOL    MW412868   5.168   5.018   5.126  0.6366  0.1109  0.2073
 3276SOL     OW12869   6.364   2.210   2.961 -0.1091  0.2525 -0.0226
 3276SOL    HW212870   6.350   2.295   2.920  1.8118  0.7726  0.2938
 3276SOL    HW312871   6.312   2.212   3.041 -0.0833  1.1413 -0.0167
 3276SOL    MW412872   6.355   2.221   2.966  0.1477  0.4384  0.0199
 3277SOL     OW12873   0.215   5.150   4.626 -0.3003 -0.5890 -0.3215
 3277SOL    HW212874   0.248   5.158   4.716  0.3000 -1.5197 -0.4472
 3277SOL    HW312875   0.149   5.219   4.619 -1.6453 -1.6315  1.4117
 3277SOL    MW412876   0.211   5.160   4.637 -0.3985 -0.8493 -0.1094
 3278SOL     OW12877   3.352   1.828   3.483  0.1077 -0.0186  1.0066
 3278SOL    HW212878   3.382   1.764   3.418 -0.4260  0.5330  0.2052
 3278SOL    HW312879   3.263   1.849   3.457  0.0344  0.5392  1.6771
 3278SOL    MW412880   3.344   1.822   3.471  0.0276  0.1278  0.9893
 3279SOL     OW12881   6.156   2.472   4.137 -0.4164  0.1662  0.2801
 3279SOL    HW212882   6.181   2.396   4.188 -0.0225  1.1713  1.6513
 3279SOL    HW312883   6.069   2.496   4.169 -0.2132  0.7421  0.4285
 3279SOL    MW412884   6.148   2.465   4.148 -0.3376  0.3748  0.4806
 3280SOL     OW12885   4.133   0.694   3.064 -0.2268  0.2128 -0.1195
 3280SOL    HW212886   4.141   0.600   3.082  0.9892  0.4701  0.8501
 3280SOL    HW312887   4.073   0.700   2.990 -1.7630 -1.2177  0.9432
 3280SOL    MW412888   4.126   0.683   3.057 -0.2690  0.0580  0.1487
 3281SOL     OW12889   2.044   3.236   0.357 -0.1439 -0.1964  0.5334
 3281SOL    HW212890   2.100   3.234   0.435  1.1567  0.3969 -0.3571
 3281SOL    HW312891   2.088   3.178   0.295  0.6190  1.8123 -0.8921
 3281SOL    MW412892   2.057   3.228   0.359  0.1284  0.1469  0.2279
 3282SOL     OW12893   3.189   6.154   5.173  0.8698  0.2168 -0.2583
 3282SOL    HW212894   3.232   6.202   5.102  0.8127  0.9771  0.2122
 3282SOL    HW312895   3.166   6.070   5.134  0.8516  0.6202 -1.1408
 3282SOL    MW412896   3.192   6.150   5.159  0.8599  0.3703 -0.3126
 3283SOL     OW12897   2.259   0.238   3.545 -0.1488  0.4483  0.0405
 3283SOL    HW212898   2.269   0.243   3.640 -0.4193  0.4095  0.0708
 3283SOL    HW312899   2.176   0.282   3.527 -0.4991 -0.2520 -0.0979
 3283SOL    MW412900   2.249   0.245   3.555 -0.2307  0.3508  0.0263
 3284SOL     OW12901   2.207   2.504   6.268 -0.7856 -0.3387 -0.0033
 3284SOL    HW212902   2.187   2.549   6.350  2.2564 -0.1920  0.7910
 3284SOL    HW312903   2.205   2.572   6.201 -1.0100  0.0005  0.3465
 3284SOL    MW412904   2.204   2.519   6.270 -0.4139 -0.2746  0.1476
 3285SOL     OW12905   1.085   0.841   2.723  0.9293  0.8523  0.4174
 3285SOL    HW212906   0.999   0.881   2.734  0.1587 -0.3759 -0.7062
 3285SOL    HW312907   1.130   0.897   2.659  0.4353  0.7665 -0.0131
 3285SOL    MW412908   1.080   0.854   2.716  0.7624  0.6790  0.2124
 3286SOL     OW12909   0.319   4.822   4.299  0.7121 -0.6026 -0.0469
 3286SOL    HW212910   0.256   4.884   4.336  1.3931  0.3454 -0.4593
 3286SOL    HW312911   0.380   4.876   4.249  0.1539 -1.7566 -2.1284
 3286SOL    MW412912   0.318   4.837   4.297  0.7283 -0.6298 -0.3760
 3287SOL     OW12913   4.670   2.463   5.855 -0.0450 -0.3278 -0.6741
 3287SOL    HW212914   4.575   2.474   5.859 -0.0706 -0.1013 -1.6381
 3287SOL    HW312915   4.702   2.496   5.939 -0.8353 -0.6585 -0.2329
 3287SOL    MW412916   4.662   2.468   5.867 -0.1527 -0.3415 -0.7430
 3288SOL     OW12917   4.396   0.596   0.427  0.1092 -0.5381 -0.3101
 3288SOL    HW212918   4.306   0.586   0.458  0.1578 -1.1342 -0.3584
 3288SOL    HW312919   4.391   0.669   0.365  0.0523  0.8152  1.2202
 3288SOL    MW412920   4.383   0.605   0.423  0.1081 -0.4382 -0.1146
 3289SOL     OW12921   3.096   1.545   5.517  0.1155 -0.1600 -0.1529
 3289SOL    HW212922   3.168   1.570   5.459  0.7284 -0.7903  0.3192
 3289SOL    HW312923   3.018   1.552   5.463  0.7640 -1.5947 -1.3353
 3289SOL    MW412924   3.095   1.550   5.502  0.2819 -0.4325 -0.2466
 3290SOL     OW12925   1.895   0.401   0.706  0.4132  0.2282 -0.4755
 3290SOL    HW212926   1.876   0.440   0.621  0.3444 -1.2621 -1.1725
 3290SOL    HW312927   1.972   0.449   0.737  1.3265 -0.1506 -2.0380
 3290SOL    MW412928   1.903   0.412   0.699  0.5247 -0.0184 -0.7736
 3291SOL     OW12929   5.789   6.177   4.340  0.1181  0.8121  0.0827
 3291SOL    HW212930   5.753   6.232   4.271 -1.3100 -0.3957 -0.2066
 3291SOL    HW312931   5.768   6.223   4.421 -3.6165 -0.5073  0.0418
 3291SOL    MW412932   5.781   6.190   4.342 -0.5631  0.4786  0.0392
 3292SOL     OW12933   0.941   4.290   5.868  0.6306 -0.1076  0.0111
 3292SOL    HW212934   0.999   4.220   5.837  0.3430  0.3603 -1.6599
 3292SOL    HW312935   0.858   4.246   5.887  1.2015 -0.6216  1.5309
 3292SOL    MW412936   0.938   4.275   5.867  0.6680 -0.1137 -0.0089
 3293SOL     OW12937   1.394   4.779   1.224  0.3935 -0.3753 -0.0958
 3293SOL    HW212938   1.353   4.756   1.307  1.8245  0.2915  0.8284
 3293SOL    HW312939   1.367   4.869   1.208  0.1281 -0.4988 -0.3725
 3293SOL    MW412940   1.385   4.787   1.233  0.5473 -0.3036 -0.0104
 3294SOL     OW12941   1.303   3.716   5.296 -0.4483 -0.0255  0.0858
 3294SOL    HW212942   1.225   3.675   5.332 -0.1938 -0.6247 -0.0396
 3294SOL    HW312943   1.369   3.647   5.296 -0.1625  0.2380 -0.6115
 3294SOL    MW412944   1.301   3.702   5.301 -0.3770 -0.0698 -0.0227
 3295SOL     OW12945   5.465   2.270   5.770  0.3640 -0.6233 -0.0011
 3295SOL    HW212946   5.535   2.334   5.776 -0.0805 -0.0034 -1.2293
 3295SOL    HW312947   5.497   2.195   5.821  0.7450  0.6650  1.7769
 3295SOL    MW412948   5.478   2.268   5.778  0.3556 -0.3715  0.0714
 3296SOL     OW12949   4.782   5.540   3.600  0.3669  0.3602  0.4817
 3296SOL    HW212950   4.736   5.497   3.673 -0.1958 -0.1168 -0.1451
 3296SOL    HW312951   4.813   5.468   3.545  1.8028  0.6729  0.8264
 3296SOL    MW412952   4.780   5.525   3.603  0.4821  0.3385  0.4445
 3297SOL     OW12953   3.692   5.190   2.053 -0.2692 -0.3724  0.2706
 3297SOL    HW212954   3.783   5.163   2.040 -0.5291 -0.4242 -1.7318
 3297SOL    HW312955   3.695   5.244   2.132  1.2152 -1.6030  1.1267
 3297SOL    MW412956   3.704   5.194   2.062 -0.1076 -0.5416  0.1194
 3298SOL     OW12957   5.879   3.914   3.766  0.1595 -0.0482  0.5734
 3298SOL    HW212958   5.963   3.890   3.804  0.4329  1.9024  1.3050
 3298SOL    HW312959   5.899   3.988   3.708 -1.0348  0.3675  0.6644
 3298SOL    MW412960   5.892   3.921   3.763  0.0380  0.2640  0.6819
 3299SOL     OW12961   1.907   5.930   4.289 -0.1602 -0.0736 -0.0564
 3299SOL    HW212962   1.925   5.891   4.374  0.1921  2.0624  0.9029
 3299SOL    HW312963   1.978   5.993   4.275 -0.2964 -0.2572 -1.8657
 3299SOL    MW412964   1.919   5.933   4.298 -0.1317  0.1840 -0.1685
 3300SOL     OW12965   0.724   0.147   2.117  0.0237 -0.7026  0.0725
 3300SOL    HW212966   0.688   0.139   2.029  0.5736  0.1126 -0.2408
 3300SOL    HW312967   0.760   0.061   2.137  0.3917 -0.7343 -0.7218
 3300SOL    MW412968   0.724   0.135   2.108  0.1448 -0.5992 -0.0736
 3301SOL     OW12969   3.859   5.758   1.903  0.3437  0.6362 -0.1601
 3301SOL    HW212970   3.795   5.828   1.916 -1.0970 -0.5624 -0.5377
 3301SOL    HW312971   3.921   5.767   1.976 -0.1191  1.9649  0.0801
 3301SOL    MW412972   3.859   5.768   1.914  0.0926  0.6534 -0.1782
 3302SOL     OW12973   2.013   4.269   4.071 -0.2001 -0.0383  0.2161
 3302SOL    HW212974   2.081   4.204   4.084 -0.1531  0.0545  0.4532
 3302SOL    HW312975   1.935   4.231   4.112  0.3426  0.9486  2.3596
 3302SOL    MW412976   2.012   4.256   4.078 -0.1223  0.1041  0.5302
 3303SOL     OW12977   5.802   2.256   2.098  0.1254 -0.0631 -0.4057
 3303SOL    HW212978   5.853   2.191   2.145  1.1979  1.2049  0.2649
 3303SOL    HW312979   5.739   2.288   2.162 -0.8605 -0.8926 -0.9331
 3303SOL    MW412980   5.801   2.252   2.112  0.1369 -0.0053 -0.3868
 3304SOL     OW12981   5.887   1.938   3.635 -0.2307  0.1588  0.1804
 3304SOL    HW212982   5.982   1.932   3.645 -0.0066  0.6143 -1.4144
 3304SOL    HW312983   5.864   1.872   3.569 -0.5302  2.1482 -1.8532
 3304SOL    MW412984   5.896   1.929   3.628 -0.2407  0.4814 -0.2983
 3305SOL     OW12985   5.746   4.471   3.469  0.1833 -0.0676 -0.0145
 3305SOL    HW212986   5.660   4.484   3.430  0.0472  0.3864  0.4135
 3305SOL    HW312987   5.727   4.445   3.560  0.4830 -1.4733 -0.3310
 3305SOL    MW412988   5.732   4.469   3.476  0.2049 -0.1931  0.0002
 3306SOL     OW12989   3.520   1.185   3.558 -0.3160  0.3124  0.2738
 3306SOL    HW212990   3.589   1.217   3.500 -0.4580  0.1929  0.0350
 3306SOL    HW312991   3.439   1.213   3.516 -0.6063 -2.6192 -1.4165
 3306SOL    MW412992   3.518   1.193   3.545 -0.3731 -0.0902  0.0193
 3307SOL     OW12993   5.077   4.412   5.024  0.3037  0.2061 -0.9721
 3307SOL    HW212994   5.069   4.383   4.933 -1.2205  1.2232 -1.1964
 3307SOL    HW312995   5.105   4.503   5.019 -0.6644  0.5470 -0.4633
 3307SOL    MW412996   5.080   4.420   5.012 -0.0251  0.3853 -0.9346
 3308SOL     OW12997   0.390   1.024   5.203  0.0566  0.1742  0.0488
 3308SOL    HW212998   0.317   1.056   5.149  0.9624  0.8534 -0.8110
 3308SOL    HW312999   0.347   0.976   5.274 -1.1891 -0.8589 -1.3192
 3308SOL    MW413000   0.374   1.022   5.205  0.0118  0.1275 -0.2451
 3309SOL     OW13001   1.379   5.948   0.511 -0.3426 -0.6475  0.6551
 3309SOL    HW213002   1.334   5.986   0.436 -0.1245 -1.0723  0.3056
 3309SOL    HW313003   1.311   5.901   0.559 -0.1441 -1.9263 -0.2837
 3309SOL    MW413004   1.364   5.947   0.507 -0.2876 -0.8723  0.4851
 3310SOL     OW13005   3.977   6.019   4.899 -0.0265 -0.0570 -0.4694
 3310SOL    HW213006   3.952   5.970   4.977  1.1500 -0.8941 -0.5886
 3310SOL    HW313007   4.055   6.067   4.925  0.7673 -0.8497 -1.2753
 3310SOL    MW413008   3.984   6.019   4.912  0.2334 -0.2720 -0.5915
 3311SOL     OW13009   3.017   2.516   0.559 -0.2826  0.1628 -0.3309
 3311SOL    HW213010   3.107   2.541   0.539 -0.1058 -0.0384  0.2005
 3311SOL    HW313011   2.966   2.596   0.545  0.1412  0.5839  0.4471
 3311SOL    MW413012   3.022   2.530   0.554 -0.2034  0.1918 -0.1581
 3312SOL     OW13013   4.742   0.000   5.720  0.4570 -0.1774  0.0995
 3312SOL    HW213014   4.789   0.057   5.659  0.0757  1.0079  0.8802
 3312SOL    HW313015   4.788   0.011   5.803 -0.2487 -0.1986  0.5015
 3312SOL    MW413016   4.754   0.009   5.723  0.3136 -0.0238  0.2556
 3313SOL     OW13017   2.176   5.027   5.952  0.0617  0.3462 -0.5055
 3313SOL    HW213018   2.244   5.064   5.896 -0.6771  2.5519 -0.0425
 3313SOL    HW313019   2.224   4.984   6.023  0.9751  0.5210 -1.0036
 3313SOL    MW413020   2.191   5.026   5.954  0.0847  0.6603 -0.5101
 3314SOL     OW13021   5.122   4.860   3.884  0.4767 -0.1426  0.2018
 3314SOL    HW213022   5.152   4.769   3.891 -0.6318 -0.5068  0.4330
 3314SOL    HW313023   5.113   4.889   3.975 -0.8717 -0.3979  0.1701
 3314SOL    MW413024   5.125   4.852   3.897  0.1525 -0.2243  0.2281
 3315SOL     OW13025   3.464   2.763   4.577 -0.1396 -0.1063 -0.5580
 3315SOL    HW213026   3.481   2.842   4.627  0.9628  1.4042 -3.1082
 3315SOL    HW313027   3.543   2.709   4.589 -0.2243 -0.1220 -0.0634
 3315SOL    MW413028   3.477   2.766   4.585 -0.0053  0.0909 -0.8292
 3316SOL     OW13029   5.992   5.804   5.095 -0.0073  0.1964  0.0218
 3316SOL    HW213030   5.991   5.739   5.025 -1.2204  1.3890 -1.1289
 3316SOL    HW313031   5.991   5.753   5.175 -0.0635 -1.2045 -0.8371
 3316SOL    MW413032   5.992   5.789   5.096 -0.1747  0.1689 -0.2433
 3317SOL     OW13033   0.511   0.767   4.845  0.4221  0.2283 -0.4903
 3317SOL    HW213034   0.506   0.818   4.765  2.9431  1.4480  0.0272
 3317SOL    HW313035   0.596   0.722   4.840 -0.9832 -2.7256 -0.1806
 3317SOL    MW413036   0.522   0.768   4.834  0.5693 -0.0005 -0.3811
 3318SOL     OW13037   1.615   3.555   2.696 -0.0082  0.3605 -0.3777
 3318SOL    HW213038   1.627   3.460   2.699 -0.3770  0.3203  0.1700
 3318SOL    HW313039   1.597   3.579   2.787  1.9940  1.2316 -0.1691
 3318SOL    MW413040   1.614   3.546   2.709  0.2073  0.4701 -0.2779
 3319SOL     OW13041   1.199   4.723   2.317 -0.2825  0.7020  0.1319
 3319SOL    HW213042   1.148   4.728   2.398  1.1820  0.2263  1.1250
 3319SOL    HW313043   1.250   4.643   2.326 -0.4579  0.3732 -1.5125
 3319SOL    MW413044   1.199   4.714   2.329 -0.1124  0.5958  0.0460
 3320SOL     OW13045   4.575   2.227   2.220  0.3752  0.1023 -0.5315
 3320SOL    HW213046   4.483   2.218   2.197  0.7135 -1.6834 -1.3505
 3320SOL    HW313047   4.594   2.320   2.206 -1.5082  0.7244  0.6163
 3320SOL    MW413048   4.565   2.238   2.215  0.1713 -0.0512 -0.4881
 3321SOL     OW13049   3.580   4.878   1.702 -0.8551  0.1387 -0.4487
 3321SOL    HW213050   3.588   4.935   1.626 -0.5459 -1.4861 -1.7153
 3321SOL    HW313051   3.667   4.837   1.710 -1.0707 -0.1708  0.4058
 3321SOL    MW413052   3.593   4.880   1.693 -0.8427 -0.1165 -0.5031
 3322SOL     OW13053   0.463   0.405   6.262 -0.2736  0.4600  0.3420
 3322SOL    HW213054   0.481   0.362   6.345 -0.0178  0.3132  0.2119
 3322SOL    HW313055   0.459   0.333   6.199 -0.1789  0.5991  0.1777
 3322SOL    MW413056   0.465   0.390   6.264 -0.2273  0.4590  0.3031
 3323SOL     OW13057   2.306   3.278   6.124  0.1295 -0.0075 -0.1066
 3323SOL    HW213058   2.230   3.221   6.126  0.4699 -0.4719 -0.2438
 3323SOL    HW313059   2.284   3.349   6.184 -0.1329 -0.4914  0.3762
 3323SOL    MW413060   2.293   3.280   6.132  0.1398 -0.1327 -0.0610
 3324SOL     OW13061   0.739   2.069   0.422  0.6096 -0.2847  0.8193
 3324SOL    HW213062   0.809   2.043   0.482 -0.1448  0.7801  2.2394
 3324SOL    HW313063   0.685   2.128   0.474 -0.4640  0.1512 -0.7418
 3324SOL    MW413064   0.741   2.073   0.437  0.3684 -0.0867  0.8007
 3325SOL     OW13065   0.868   0.852   1.077  0.3964  0.1270  0.0134
 3325SOL    HW213066   0.834   0.797   1.007 -2.3494 -0.8511  1.9309
 3325SOL    HW313067   0.943   0.804   1.111  0.6072 -0.3031 -1.0251
 3325SOL    MW413068   0.874   0.839   1.073  0.0619 -0.0588  0.1294
 3326SOL     OW13069   3.119   3.415   3.766 -0.0286 -0.0580 -0.3359
 3326SOL    HW213070   3.101   3.323   3.744 -1.1776 -0.3559  1.6180
 3326SOL    HW313071   3.198   3.436   3.716  0.3509 -2.1390 -0.7331
 3326SOL    MW413072   3.127   3.405   3.756 -0.1301 -0.3719 -0.1305
 3327SOL     OW13073   1.628   6.148   4.031  0.1081  0.1020 -0.2346
 3327SOL    HW213074   1.534   6.129   4.026  0.1792 -0.1032 -0.9330
 3327SOL    HW313075   1.645   6.161   4.124 -0.5807 -0.0269 -0.0837
 3327SOL    MW413076   1.618   6.147   4.043  0.0266  0.0579 -0.3068
 3328SOL     OW13077   4.119   4.676   3.548  0.0468 -0.4494  0.0147
 3328SOL    HW213078   4.024   4.683   3.556 -0.2485 -2.0326 -1.4785
 3328SOL    HW313079   4.133   4.641   3.460  1.9593 -1.1383  0.5456
 3328SOL    MW413080   4.108   4.672   3.537  0.2601 -0.7492 -0.1123
 3329SOL     OW13081   6.326   4.216   0.075  0.0726 -0.0361 -0.2489
 3329SOL    HW213082   6.395   4.253   0.021  0.6895  0.0543  0.5839
 3329SOL    HW313083   6.333   4.121   0.062  0.2991 -0.0217 -0.2247
 3329SOL    MW413084   6.336   4.208   0.066  0.1839 -0.0222 -0.1358
 3330SOL     OW13085   5.772   3.144   5.896  0.0722  0.1958 -0.7217
 3330SOL    HW213086   5.857   3.139   5.940 -0.5026 -0.4238  0.3438
 3330SOL    HW313087   5.715   3.086   5.946 -0.5156 -0.9042 -2.5377
 3330SOL    MW413088   5.776   3.136   5.908 -0.0812 -0.0311 -0.8207
 3331SOL     OW13089   3.398   6.035   1.005  0.6472 -0.2344 -0.0377
 3331SOL    HW213090   3.394   5.967   1.072 -0.5410  0.6849  0.8624
 3331SOL    HW313091   3.456   6.102   1.041  2.6295 -1.1572 -1.3457
 3331SOL    MW413092   3.405   6.035   1.019  0.7520 -0.2349 -0.0915
 3332SOL     OW13093   3.317   1.518   5.708 -0.4533  0.0506 -0.6069
 3332SOL    HW213094   3.232   1.520   5.663 -0.9885 -2.5516  0.1222
 3332SOL    HW313095   3.359   1.439   5.675  0.9481  0.3571  0.3769
 3332SOL    MW413096   3.311   1.508   5.698 -0.3390 -0.2522 -0.3809
 3333SOL     OW13097   3.551   5.212   5.093  0.0612  0.2306 -0.7369
 3333SOL    HW213098   3.577   5.235   5.004  0.0257  0.2182 -0.7504
 3333SOL    HW313099   3.489   5.140   5.082  0.4911 -0.1520 -0.6747
 3333SOL    MW413100   3.546   5.205   5.080  0.1132  0.1785 -0.7305
 3334SOL     OW13101   1.968   0.704   5.320  0.3112 -1.1056 -0.4906
 3334SOL    HW213102   2.017   0.653   5.255  1.5859 -2.3477  1.3476
 3334SOL    HW313103   1.926   0.639   5.375  0.7653 -0.1696  1.0368
 3334SOL    MW413104   1.969   0.689   5.319  0.5393 -1.1460 -0.0465
 3335SOL     OW13105   4.504   3.854   2.988 -0.1692  0.6499  0.2654
 3335SOL    HW213106   4.502   3.786   2.920 -1.5407  1.6286 -0.7199
 3335SOL    HW313107   4.507   3.805   3.070 -1.0292 -0.6153 -0.4232
 3335SOL    MW413108   4.504   3.839   2.990 -0.4636  0.6121  0.0446
 3336SOL     OW13109   5.147   5.027   6.101 -0.0025  0.1440 -0.3334
 3336SOL    HW213110   5.173   4.949   6.052  1.8060  0.3924  0.1408
 3336SOL    HW313111   5.210   5.094   6.075 -1.0855  1.2554 -0.1944
 3336SOL    MW413112   5.159   5.026   6.091  0.0932  0.3234 -0.2525
 3337SOL     OW13113   0.648   4.180   2.507 -0.1045  0.8653 -0.3876
 3337SOL    HW213114   0.717   4.245   2.501 -0.5003  1.2920 -0.3456
 3337SOL    HW313115   0.660   4.124   2.430 -0.7060  1.9088 -1.2574
 3337SOL    MW413116   0.659   4.181   2.496 -0.2360  1.0593 -0.4969
 3338SOL     OW13117   5.177   6.094   3.297 -0.4136  0.0864  0.1280
 3338SOL    HW213118   5.105   6.035   3.279 -1.1282  0.0905  2.6943
 3338SOL    HW313119   5.252   6.037   3.313 -0.1250  0.0448 -1.2711
 3338SOL    MW413120   5.178   6.079   3.297 -0.4698  0.0815  0.2820
 3339SOL     OW13121   3.683   2.714   0.220  0.1542  0.2727 -0.3945
 3339SOL    HW213122   3.760   2.718   0.275  0.9524 -0.5271 -1.4086
 3339SOL    HW313123   3.671   2.803   0.187  0.4781  0.4525 -0.0275
 3339SOL    MW413124   3.691   2.726   0.223  0.3022  0.1909 -0.4799
 3340SOL     OW13125   2.012   1.078   4.128 -0.6989 -0.1704 -0.2497
 3340SOL    HW213126   2.050   0.990   4.129 -0.3052 -0.0154  0.9767
 3340SOL    HW313127   1.931   1.070   4.178  0.1125  0.4518  1.2380
 3340SOL    MW413128   2.007   1.065   4.135 -0.5399 -0.0679  0.1084
 3341SOL     OW13129   1.702   1.334   5.267 -0.0523 -0.5734  0.3077
 3341SOL    HW213130   1.737   1.248   5.290  1.2919  0.1766  1.2375
 3341SOL    HW313131   1.745   1.356   5.184  0.5529 -0.2820  0.6958
 3341SOL    MW413132   1.712   1.326   5.259  0.2049 -0.4360  0.4816
 3342SOL     OW13133   2.406   3.615   2.621 -0.1329 -0.5918  0.2581
 3342SOL    HW213134   2.321   3.647   2.651 -0.6408  0.0444 -1.7268
 3342SOL    HW313135   2.440   3.685   2.565  2.3136 -0.2601  1.9821
 3342SOL    MW413136   2.399   3.629   2.618  0.1229 -0.4641  0.2237
 3343SOL     OW13137   6.192   3.562   2.871  0.5130 -0.2566  0.5324
 3343SOL    HW213138   6.188   3.559   2.775  0.3718  0.5639  0.5097
 3343SOL    HW313139   6.224   3.650   2.891  0.8500 -0.5309  1.2354
 3343SOL    MW413140   6.196   3.573   2.861  0.5388 -0.1845  0.6221
 3344SOL     OW13141   6.401   4.533   4.740 -0.1051  0.3440  0.2966
 3344SOL    HW213142   6.425   4.522   4.832  1.4185 -0.2451 -0.1457
 3344SOL    HW313143   6.339   4.462   4.723  0.4003 -0.1824  0.6094
 3344SOL    MW413144   6.396   4.523   4.750  0.1626  0.1968  0.2795
 3345SOL     OW13145   6.442   6.095   5.741 -0.9028  0.2456  0.2833
 3345SOL    HW213146   6.453   6.017   5.795  1.3882  1.2247  1.3693
 3345SOL    HW313147   6.347   6.107   5.736 -1.2649 -1.3862  1.8674
 3345SOL    MW413148   6.431   6.086   5.748 -0.6483  0.1595  0.6356
 3346SOL     OW13149   3.459   2.226   2.902  0.0772  0.2383  0.2931
 3346SOL    HW213150   3.386   2.251   2.959  0.5044 -0.1317  1.0181
 3346SOL    HW313151   3.526   2.292   2.917  0.2759  0.0180  0.3859
 3346SOL    MW413152   3.458   2.238   2.912  0.1597  0.1604  0.4010
 3347SOL     OW13153   1.830   3.329   1.275 -0.2065  0.3603  0.2001
 3347SOL    HW213154   1.829   3.337   1.180 -0.3656 -0.8979  0.0859
 3347SOL    HW313155   1.905   3.381   1.303 -0.7584  1.5928 -0.5124
 3347SOL    MW413156   1.840   3.337   1.266 -0.3003  0.3569  0.0910
 3348SOL     OW13157   4.224   5.559   3.406 -0.6642  0.1281  0.0111
 3348SOL    HW213158   4.246   5.582   3.497  0.6058  1.1872 -0.5321
 3348SOL    HW313159   4.297   5.591   3.355 -1.4896 -0.2210 -1.4454
 3348SOL    MW413160   4.236   5.566   3.411 -0.6055  0.2218 -0.2527
 3349SOL     OW13161   0.329   5.425   0.385  0.2752 -0.0899 -0.0217
 3349SOL    HW213162   0.403   5.410   0.327 -0.6348  2.5592 -2.0425
 3349SOL    HW313163   0.254   5.390   0.338 -0.0278 -1.3775  1.3338
 3349SOL    MW413164   0.329   5.418   0.371  0.1152  0.0898 -0.1095
 3350SOL     OW13165   4.222   2.960   5.008 -0.0046 -0.1358  0.0570
 3350SOL    HW213166   4.301   3.007   5.031  1.0040 -1.5381 -0.3942
 3350SOL    HW313167   4.156   2.990   5.071  0.5584  1.8499 -0.2463
 3350SOL    MW413168   4.223   2.970   5.019  0.2027 -0.0589 -0.0425
 3351SOL     OW13169   6.356   3.042   5.549  0.5576  0.5649 -0.5245
 3351SOL    HW213170   6.377   3.043   5.642  1.8727 -0.4287 -0.7955
 3351SOL    HW313171   6.260   3.050   5.546  0.2643 -1.6582  1.0037
 3351SOL    MW413172   6.346   3.043   5.561  0.6924  0.1405 -0.3586
 3352SOL     OW13173   3.610   3.100   3.751 -0.7684  0.3783  0.5044
 3352SOL    HW213174   3.563   3.035   3.699 -0.7118  1.1780 -0.5607
 3352SOL    HW313175   3.702   3.089   3.727 -0.7670  0.8948  0.2616
 3352SOL    MW413176   3.616   3.090   3.741 -0.7608  0.5519  0.3318
 3353SOL     OW13177   3.290   0.355   4.874  0.1526  0.2716 -0.0504
 3353SOL    HW213178   3.352   0.423   4.899 -0.5438  0.6443  0.7477
 3353SOL    HW313179   3.267   0.375   4.783  2.6650 -1.0385 -1.0521
 3353SOL    MW413180   3.295   0.367   4.865  0.3922  0.1479 -0.0772
 3354SOL     OW13181   3.422   0.210   5.876 -0.0174 -0.6980 -0.3434
 3354SOL    HW213182   3.465   0.267   5.812 -1.1820 -1.0251 -1.4539
 3354SOL    HW313183   3.329   0.222   5.860 -0.3064 -1.7383  0.4630
 3354SOL    MW413184   3.416   0.220   5.866 -0.2092 -0.8784 -0.3835
 3355SOL     OW13185   2.038   0.839   2.080 -0.1587  0.1193 -0.4676
 3355SOL    HW213186   2.129   0.855   2.106  0.2925 -0.4493 -1.6361
 3355SOL    HW313187   1.987   0.887   2.145  1.0012  1.6790 -0.6271
 3355SOL    MW413188   2.044   0.848   2.092  0.0539  0.2501 -0.6428
 3356SOL     OW13189   4.464   0.274   6.322 -0.0356 -0.1590 -0.1967
 3356SOL    HW213190   4.450   0.354   6.373 -2.0866 -0.2246 -0.6062
 3356SOL    HW313191   4.394   0.215   6.348  0.1985 -1.0441 -1.4574
 3356SOL    MW413192   4.453   0.277   6.332 -0.2753 -0.2844 -0.4171
 3357SOL     OW13193   3.592   2.573   2.738 -0.2910  0.2656 -0.4370
 3357SOL    HW213194   3.675   2.592   2.781 -1.1338 -0.6105  1.7477
 3357SOL    HW313195   3.581   2.643   2.674  1.1333  1.5851  0.6936
 3357SOL    MW413196   3.601   2.585   2.735 -0.2143  0.3241  0.0004
 3358SOL     OW13197   0.650   5.314   4.539 -0.9032  0.5793 -0.5798
 3358SOL    HW213198   0.592   5.291   4.612  1.3750 -0.4060  1.0269
 3358SOL    HW313199   0.705   5.384   4.574  0.2391  0.0778 -1.3101
 3358SOL    MW413200   0.650   5.320   4.554 -0.4519  0.3832 -0.4642
 3359SOL     OW13201   5.766   2.382   0.820  0.5131  0.0823 -0.2191
 3359SOL    HW213202   5.691   2.429   0.855 -0.0832 -1.4181  0.6004
 3359SOL    HW313203   5.748   2.375   0.726  1.1224  2.3229 -0.5734
 3359SOL    MW413204   5.754   2.387   0.812  0.5148  0.1799 -0.1577
 3360SOL     OW13205   1.541   1.579   2.441  0.2521  0.1969 -0.7998
 3360SOL    HW213206   1.458   1.622   2.419  0.3224 -0.7593 -3.1810
 3360SOL    HW313207   1.608   1.645   2.421  0.2172 -0.0975 -1.9346
 3360SOL    MW413208   1.539   1.594   2.436  0.2568  0.0319 -1.2637
 3361SOL     OW13209   3.340   2.133   3.805  0.6041 -0.0536 -0.4461
 3361SOL    HW213210   3.385   2.102   3.883 -0.1212 -0.0028  0.0003
 3361SOL    HW313211   3.260   2.081   3.801  1.3187 -1.1443 -2.0159
 3361SOL    MW413212   3.336   2.122   3.814  0.6027 -0.1908 -0.5943
 3362SOL     OW13213   2.213   2.284   5.879 -0.3329  0.2826  0.9419
 3362SOL    HW213214   2.221   2.376   5.856  0.3291  0.6299  2.4348
 3362SOL    HW313215   2.301   2.248   5.867  0.0397  0.4759  2.7714
 3362SOL    MW413216   2.225   2.291   5.874 -0.1964  0.3539  1.3803
 3363SOL     OW13217   1.354   2.801   0.239 -0.2245  0.3329  0.1089
 3363SOL    HW213218   1.362   2.776   0.147  1.8295 -1.6345  0.7299
 3363SOL    HW313219   1.260   2.795   0.258 -0.4284 -1.7254 -1.2376
 3363SOL    MW413220   1.343   2.797   0.230  0.0196 -0.1983  0.0132
 3364SOL     OW13221   3.149   0.452   4.209  0.1533  0.3970  0.2633
 3364SOL    HW213222   3.129   0.378   4.152  1.0317 -0.6928  1.3316
 3364SOL    HW313223   3.166   0.413   4.295  1.0026  1.8040  0.7674
 3364SOL    MW413224   3.149   0.437   4.213  0.3812  0.4388  0.4707
 3365SOL     OW13225   0.311   3.633   1.363 -0.2077  0.1829  0.4689
 3365SOL    HW213226   0.390   3.588   1.392  0.2427  0.9455  0.4310
 3365SOL    HW313227   0.328   3.658   1.272 -0.5290  0.2683  0.4284
 3365SOL    MW413228   0.323   3.630   1.355 -0.1906  0.2948  0.4586
 3366SOL     OW13229   1.281   3.334   2.126 -1.1941  0.5101 -0.0000
 3366SOL    HW213230   1.347   3.342   2.195 -1.0080 -1.7639  0.1454
 3366SOL    HW313231   1.302   3.404   2.065  1.2331 -0.0030  0.1511
 3366SOL    MW413232   1.292   3.344   2.127 -0.8493  0.1424  0.0391
 3367SOL     OW13233   5.945   4.307   5.168 -0.0623  0.2422  0.0851
 3367SOL    HW213234   6.023   4.268   5.128 -1.0187 -0.8380 -0.7962
 3367SOL    HW313235   5.970   4.323   5.259  0.7364 -1.4880  0.2101
 3367SOL    MW413236   5.959   4.304   5.175 -0.0831 -0.1286 -0.0147
 3368SOL     OW13237   0.961   0.120   6.030  0.1884  0.1711  0.0050
 3368SOL    HW213238   1.005   0.203   6.049  0.3286  0.4173 -1.2731
 3368SOL    HW313239   1.005   0.088   5.951 -0.2341 -0.8495  0.1787
 3368SOL    MW413240   0.973   0.127   6.022  0.1511  0.0690 -0.1407
 3369SOL     OW13241   2.276   6.366   5.650  0.1736  0.8759  0.1295
 3369SOL    HW213242   2.298   6.288   5.598 -1.0390  0.6391 -0.0626
 3369SOL    HW313243   2.359   6.392   5.689  0.7326 -0.1370 -0.3178
 3369SOL    MW413244   2.290   6.359   5.648  0.0874  0.7110  0.0452
 3370SOL     OW13245   2.216   3.846   5.422 -0.0353 -0.1402  0.3725
 3370SOL    HW213246   2.274   3.845   5.346 -0.4461  1.1992  0.0227
 3370SOL    HW313247   2.140   3.794   5.395 -0.0428  0.0718 -0.0113
 3370SOL    MW413248   2.214   3.839   5.409 -0.0905  0.0645  0.2757
 3371SOL     OW13249   1.897   4.256   3.346  0.0868  0.0142 -0.2779
 3371SOL    HW213250   1.982   4.218   3.326 -0.6204 -1.1289 -1.3031
 3371SOL    HW313251   1.855   4.267   3.260 -0.3125  1.7779  0.1081
 3371SOL    MW413252   1.902   4.253   3.332 -0.0592  0.0961 -0.3622
 3372SOL     OW13253   1.987   3.475   0.020 -0.9566  0.1784  0.4044
 3372SOL    HW213254   2.063   3.473   0.079 -1.5850  2.3296  1.3922
 3372SOL    HW313255   1.964   3.567   0.014 -0.7743  0.1486 -3.5079
 3372SOL    MW413256   1.994   3.487   0.027 -1.0155  0.4583  0.0185
 3373SOL     OW13257   4.283   0.218   4.509  0.5682  0.2659 -0.7429
 3373SOL    HW213258   4.263   0.166   4.431 -1.3891 -0.6171  0.2582
 3373SOL    HW313259   4.239   0.302   4.494 -0.6692 -0.2559 -0.2358
 3373SOL    MW413260   4.275   0.222   4.497  0.1467  0.0806 -0.5439
 3374SOL     OW13261   5.652   4.454   3.743  0.4072  0.2578  0.1491
 3374SOL    HW213262   5.692   4.493   3.821  0.2946 -0.5506  0.6267
 3374SOL    HW313263   5.660   4.360   3.757  0.7526  0.0969 -1.0150
 3374SOL    MW413264   5.658   4.447   3.755  0.4379  0.1299  0.0585
 3375SOL     OW13265   1.508   6.017   5.406 -0.6501 -0.1580  0.3677
 3375SOL    HW213266   1.454   6.029   5.484 -1.0364  0.4757  0.0167
 3375SOL    HW313267   1.597   6.040   5.434 -0.8129  0.2167  0.5783
 3375SOL    MW413268   1.513   6.021   5.420 -0.7225 -0.0250  0.3492
 3376SOL     OW13269   0.598   2.990   4.607  0.3005  0.5282  0.0757
 3376SOL    HW213270   0.574   2.959   4.520 -3.1599  1.2761  0.6204
 3376SOL    HW313271   0.601   3.085   4.599  3.0287  0.5148  0.1677
 3376SOL    MW413272   0.595   2.998   4.594  0.2039  0.6251  0.1597
 3377SOL     OW13273   2.167   6.213   5.284  0.1390 -0.4820 -0.5253
 3377SOL    HW213274   2.102   6.274   5.318  0.3373 -0.9177  0.6773
 3377SOL    HW313275   2.222   6.192   5.359  0.4584 -1.6544 -1.0629
 3377SOL    MW413276   2.166   6.218   5.298  0.2073 -0.6942 -0.4376
 3378SOL     OW13277   2.563   1.928   5.026  0.1540  0.2036  0.2668
 3378SOL    HW213278   2.558   1.923   4.931 -0.6111  0.2470  0.3022
 3378SOL    HW313279   2.536   1.841   5.057  0.4612  0.1678  0.4471
 3378SOL    MW413280   2.559   1.916   5.018  0.0936  0.2046  0.2953
 3379SOL     OW13281   5.439   5.597   4.617  0.1729 -0.2060 -0.0801
 3379SOL    HW213282   5.407   5.629   4.701  0.4330 -0.8776  0.2816
 3379SOL    HW313283   5.365   5.547   4.581  0.4131 -0.8048  0.2388
 3379SOL    MW413284   5.425   5.594   4.623  0.2389 -0.3736  0.0097
 3380SOL     OW13285   4.621   5.050   0.418  0.1427  0.2510  0.3602
 3380SOL    HW213286   4.633   5.135   0.376  1.8393 -0.3660 -0.5123
 3380SOL    HW313287   4.710   5.022   0.441 -0.2363 -1.8165 -0.4985
 3380SOL    MW413288   4.634   5.057   0.415  0.3165 -0.1032  0.1318
 3381SOL     OW13289   5.063   4.545   6.034 -0.4534 -0.3402 -0.2455
 3381SOL    HW213290   4.989   4.530   5.976 -0.9937 -1.3992  0.6770
 3381SOL    HW313291   5.041   4.627   6.079  0.3322  0.9151 -2.0139
 3381SOL    MW413292   5.051   4.554   6.032 -0.4210 -0.3143 -0.3571
 3382SOL     OW13293   0.780   5.830   5.467  0.0291  0.0323  0.3670
 3382SOL    HW213294   0.765   5.925   5.468  1.5929  0.2964  1.4194
 3382SOL    HW313295   0.703   5.795   5.422  0.1390  1.9003 -1.4545
 3382SOL    MW413296   0.768   5.838   5.461  0.2499  0.3136  0.2655
 3383SOL     OW13297   5.089   1.635   1.552  0.2961  0.0187 -0.2642
 3383SOL    HW213298   5.165   1.597   1.509 -0.6932 -4.0902  1.1615
 3383SOL    HW313299   5.022   1.639   1.484  0.4534 -0.8345 -0.4815
 3383SOL    MW413300   5.090   1.630   1.537  0.1863 -0.6360 -0.1047
 3384SOL     OW13301   4.454   3.028   5.142 -0.3065 -0.2884 -0.9834
 3384SOL    HW213302   4.504   3.108   5.126  0.4467 -0.5513 -0.0942
 3384SOL    HW313303   4.498   2.962   5.088 -1.1204 -0.0447 -1.9560
 3384SOL    MW413304   4.467   3.030   5.133 -0.3145 -0.2909 -0.9944
 3385SOL     OW13305   5.857   3.439   4.289 -0.3096 -0.1096  0.1047
 3385SOL    HW213306   5.854   3.353   4.248 -0.8855 -1.0041  1.8939
 3385SOL    HW313307   5.787   3.437   4.354  0.4056  1.2774  0.9682
 3385SOL    MW413308   5.848   3.428   4.292 -0.2913 -0.0446  0.4547
 3386SOL     OW13309   1.518   3.281   6.174 -0.5227 -0.2225 -0.1188
 3386SOL    HW213310   1.505   3.328   6.257 -1.1334  0.4375 -0.5739
 3386SOL    HW313311   1.459   3.324   6.113  0.0101 -0.6289 -0.9360
 3386SOL    MW413312   1.508   3.293   6.177 -0.5330 -0.1890 -0.2866
 3387SOL     OW13313   5.348   1.892   6.286  0.8915  0.2341  0.1602
 3387SOL    HW213314   5.380   1.981   6.302  0.0954  0.2213  2.1086
 3387SOL    HW313315   5.255   1.896   6.306  0.3117 -0.5169 -2.1179
 3387SOL    MW413316   5.340   1.904   6.291  0.7100  0.1333  0.1167
 3388SOL     OW13317   3.500   2.293   5.768 -0.1944  0.2254  0.3380
 3388SOL    HW213318   3.453   2.349   5.706  1.5796  0.2564 -1.0378
 3388SOL    HW313319   3.592   2.305   5.747  0.3662 -1.1503  1.8101
 3388SOL    MW413320   3.506   2.302   5.757  0.1136  0.0480  0.3507
 3389SOL     OW13321   1.085   3.189   1.758 -0.1172 -0.1370 -0.5580
 3389SOL    HW213322   1.019   3.255   1.741  1.0510  0.9205 -1.1791
 3389SOL    HW313323   1.077   3.128   1.684 -0.1381  0.2188 -0.8540
 3389SOL    MW413324   1.075   3.189   1.746  0.0341  0.0495 -0.6790
 3390SOL     OW13325   6.277   1.507   4.734 -0.0153  0.4642  0.1521
 3390SOL    HW213326   6.323   1.560   4.799  1.0981  0.5156 -0.6656
 3390SOL    HW313327   6.312   1.535   4.650  0.2020 -1.1824 -0.3373
 3390SOL    MW413328   6.287   1.518   4.731  0.1603  0.2537 -0.0204
 3391SOL     OW13329   3.530   5.930   3.864  0.3001  0.2860  0.3427
 3391SOL    HW213330   3.563   6.013   3.827 -0.7899  0.6361  0.0962
 3391SOL    HW313331   3.500   5.954   3.952  0.0401  0.1434  0.2929
 3391SOL    MW413332   3.531   5.944   3.871  0.1220  0.3134  0.3036
 3392SOL     OW13333   2.451   5.567   3.577 -0.1418  0.2511  0.4590
 3392SOL    HW213334   2.519   5.554   3.511 -0.1971  4.0511 -0.6317
 3392SOL    HW313335   2.390   5.495   3.563  0.4043  0.2682 -3.0472
 3392SOL    MW413336   2.452   5.556   3.566 -0.0770  0.7547 -0.1475
 3393SOL     OW13337   0.613   0.359   5.072  0.3916  0.2502  0.2801
 3393SOL    HW213338   0.634   0.439   5.023 -2.1881  1.3694  0.7982
 3393SOL    HW313339   0.696   0.329   5.106  1.5146  2.5637 -0.1924
 3393SOL    MW413340   0.626   0.366   5.070  0.1994  0.7031  0.2861
 3394SOL     OW13341   3.504   3.935   5.575 -0.2310  0.4241  0.1073
 3394SOL    HW213342   3.590   3.962   5.606 -0.3300  2.1674 -1.0397
 3394SOL    HW313343   3.520   3.852   5.529  0.9317  1.0093 -0.5712
 3394SOL    MW413344   3.518   3.927   5.573 -0.0907  0.7313 -0.1336
 3395SOL     OW13345   3.509   5.637   3.549 -0.0779  0.4473 -0.0746
 3395SOL    HW213346   3.453   5.650   3.625  1.0568 -2.0363  1.3232
 3395SOL    HW313347   3.591   5.681   3.571  0.4185 -0.6734  0.4157
 3395SOL    MW413348   3.512   5.644   3.562  0.1373 -0.0283  0.1745
 3396SOL     OW13349   0.865   4.397   1.704 -0.2070 -0.7861 -0.2543
 3396SOL    HW213350   0.885   4.479   1.659 -0.4978 -0.7967 -0.4034
 3396SOL    HW313351   0.950   4.368   1.739 -0.4565  0.6835  1.6987
 3396SOL    MW413352   0.879   4.404   1.703 -0.2783 -0.5936 -0.0163
 3397SOL     OW13353   1.008   0.233   4.345  0.2226  0.2358 -0.2738
 3397SOL    HW213354   1.024   0.139   4.337 -0.7933  0.0130  0.1293
 3397SOL    HW313355   0.933   0.250   4.287  0.3694  0.7884 -0.3089
 3397SOL    MW413356   1.000   0.223   4.336  0.1079  0.2793 -0.2253
 3398SOL     OW13357   1.325   3.549   1.925 -0.1403  0.6370  0.3673
 3398SOL    HW213358   1.303   3.484   1.858 -0.7101  1.7474 -0.5582
 3398SOL    HW313359   1.406   3.589   1.895  0.0520  0.5718  0.7823
 3398SOL    MW413360   1.333   3.546   1.913 -0.1901  0.7749  0.2999
 3399SOL     OW13361   1.105   4.272   1.794 -0.4175 -0.5078  0.3875
 3399SOL    HW213362   1.078   4.184   1.821  0.3040 -0.6824  0.5514
 3399SOL    HW313363   1.173   4.258   1.729 -0.1278 -0.0751  0.5887
 3399SOL    MW413364   1.110   4.259   1.789 -0.2841 -0.4737  0.4357
 3400SOL     OW13365   1.886   1.429   4.362  0.0506 -0.0221 -0.4559
 3400SOL    HW213366   1.867   1.416   4.269  0.2720 -0.5731 -0.4243
 3400SOL    HW313367   1.899   1.341   4.397  0.4272  0.2117  0.0008
 3400SOL    MW413368   1.885   1.416   4.354  0.1295 -0.0640 -0.3915
 3401SOL     OW13369   5.003   1.852   4.767 -0.2623  0.2437  0.4455
 3401SOL    HW213370   4.967   1.768   4.795  0.6729  0.6765  3.2058
 3401SOL    HW313371   5.064   1.876   4.836  1.0052  2.2659 -1.2690
 3401SOL    MW413372   5.006   1.844   4.780  0.0283  0.5676  0.5835
 3402SOL     OW13373   0.764   0.761   4.446  0.0824 -0.1587 -0.1485
 3402SOL    HW213374   0.699   0.783   4.379 -0.6236  0.5407  0.7336
 3402SOL    HW313375   0.718   0.700   4.504 -0.4067  1.5840  1.4078
 3402SOL    MW413376   0.749   0.756   4.445 -0.0753  0.1635  0.1732
 3403SOL     OW13377   4.874   1.995   3.219  0.3718 -0.3929  0.2876
 3403SOL    HW213378   4.943   2.060   3.232 -1.6568  2.2198 -0.8568
 3403SOL    HW313379   4.794   2.040   3.247 -0.9114 -3.3714  1.8639
 3403SOL    MW413380   4.872   2.010   3.225 -0.0651 -0.4411  0.3446
 3404SOL     OW13381   0.926   3.040   4.531  0.3529  0.0376 -0.8899
 3404SOL    HW213382   0.830   3.048   4.530  0.2156 -1.1744 -0.1703
 3404SOL    HW313383   0.947   3.012   4.620  1.2564 -0.8221 -1.3439
 3404SOL    MW413384   0.916   3.037   4.543  0.4540 -0.2358 -0.8549
 3405SOL     OW13385   3.062   0.969   1.698 -0.3085 -0.2494 -0.5449
 3405SOL    HW213386   3.092   1.040   1.642  0.6135 -0.3810 -0.2352
 3405SOL    HW313387   3.043   1.011   1.782 -1.2950 -0.1203 -0.8191
 3405SOL    MW413388   3.063   0.984   1.702 -0.3170 -0.2498 -0.5402
 3406SOL     OW13389   1.457   5.491   1.302 -0.2629  0.6681 -0.1414
 3406SOL    HW213390   1.541   5.522   1.335 -1.1081  1.3175  1.5225
 3406SOL    HW313391   1.452   5.400   1.331 -0.2490  0.7137  0.0044
 3406SOL    MW413392   1.468   5.483   1.310 -0.3726  0.7598  0.0974
 3407SOL     OW13393   4.872   4.136   2.711 -0.0013 -0.5954 -0.2668
 3407SOL    HW213394   4.834   4.097   2.790  0.1204  0.8558  0.5471
 3407SOL    HW313395   4.799   4.178   2.666  0.0688 -0.7092 -0.4884
 3407SOL    MW413396   4.858   4.136   2.716  0.0240 -0.4190 -0.1887
 3408SOL     OW13397   4.388   2.126   4.714 -0.8935 -0.0047 -0.5367
 3408SOL    HW213398   4.331   2.057   4.747 -0.4237  0.1103  0.5393
 3408SOL    HW313399   4.449   2.144   4.785 -0.5257  0.9954 -1.0776
 3408SOL    MW413400   4.389   2.119   4.728 -0.7830  0.1424 -0.4661
 3409SOL     OW13401   5.812   6.220   2.315 -0.2115 -0.3141  0.2613
 3409SOL    HW213402   5.836   6.259   2.232 -1.5785 -1.1520 -0.5574
 3409SOL    HW313403   5.840   6.129   2.308  0.2184 -0.2523  0.9755
 3409SOL    MW413404   5.819   6.213   2.303 -0.3352 -0.4165  0.2475
 3410SOL     OW13405   4.474   1.529   0.085  0.0357  0.0559  0.2892
 3410SOL    HW213406   4.518   1.457   0.040  1.9250  2.1800 -1.4442
 3410SOL    HW313407   4.517   1.608   0.054 -3.6430  2.2205  0.0636
 3410SOL    MW413408   4.485   1.530   0.075 -0.2004  0.6218  0.0307
 3411SOL     OW13409   1.421   4.711   4.016  0.0164  0.5366 -0.0002
 3411SOL    HW213410   1.507   4.690   4.052  0.0437 -1.3096 -1.0441
 3411SOL    HW313411   1.440   4.756   3.933 -0.0233  0.4459 -0.0590
 3411SOL    MW413412   1.435   4.714   4.010  0.0148  0.2811 -0.1457
 3412SOL     OW13413   4.903   4.204   6.309 -0.7819 -0.1359  0.3237
 3412SOL    HW213414   4.884   4.265   6.379  0.3473  0.4349  0.1479
 3412SOL    HW313415   4.999   4.201   6.304 -0.8280  0.0584 -1.3592
 3412SOL    MW413416   4.913   4.211   6.317 -0.6390 -0.0349  0.0784
 3413SOL     OW13417   5.156   5.909   0.169  0.5456  0.0162 -0.5295
 3413SOL    HW213418   5.164   5.817   0.194  0.3067 -0.1118 -0.9313
 3413SOL    HW313419   5.246   5.935   0.147  0.5228 -0.2913 -1.0109
 3413SOL    MW413420   5.169   5.900   0.170  0.5111 -0.0413 -0.6460
 3414SOL     OW13421   3.018   4.633   3.968 -0.1595  0.1782 -0.6672
 3414SOL    HW213422   3.068   4.707   3.932  2.6775 -0.5616  1.4194
 3414SOL    HW313423   3.006   4.655   4.060  2.5381 -2.6364  0.5458
 3414SOL    MW413424   3.023   4.646   3.975  0.5707 -0.2907 -0.2319
 3415SOL     OW13425   3.486   6.085   2.239 -0.3273 -0.4054 -0.1567
 3415SOL    HW213426   3.428   6.046   2.173 -0.1832 -0.4413 -0.2620
 3415SOL    HW313427   3.444   6.063   2.322 -1.5450  1.2814 -0.2814
 3415SOL    MW413428   3.473   6.077   2.241 -0.4689 -0.1876 -0.1870
 3416SOL     OW13429   1.165   2.481   1.375  0.3492 -0.3125  0.2344
 3416SOL    HW213430   1.202   2.403   1.416 -0.2991 -0.9820 -0.4535
 3416SOL    HW313431   1.078   2.455   1.345  0.6974  0.2405 -1.3308
 3416SOL    MW413432   1.159   2.467   1.377  0.3096 -0.3279 -0.0629
 3417SOL     OW13433   6.141   3.795   2.138  0.5350  0.3672 -0.2687
 3417SOL    HW213434   6.143   3.715   2.085  0.3174 -0.5879  1.1019
 3417SOL    HW313435   6.230   3.801   2.175  0.8909  1.3991 -1.2482
 3417SOL    MW413436   6.153   3.785   2.136  0.5532  0.3774 -0.2171
 3418SOL     OW13437   2.615   1.962   2.411  0.5074 -0.5010  0.1189
 3418SOL    HW213438   2.538   1.907   2.429 -0.4967  0.6864 -0.4262
 3418SOL    HW313439   2.675   1.903   2.364 -0.7635 -1.0149 -0.9468
 3418SOL    MW413440   2.612   1.947   2.407  0.2073 -0.4122 -0.0936
 3419SOL     OW13441   0.357   1.097   6.222  0.4288 -0.0092  0.1480
 3419SOL    HW213442   0.350   1.007   6.191 -1.3547 -1.2521  3.5964
 3419SOL    HW313443   0.295   1.146   6.168 -0.4562 -1.4016 -0.1362
 3419SOL    MW413444   0.348   1.092   6.211  0.0767 -0.3569  0.5654
 3420SOL     OW13445   4.067   2.888   4.412 -0.0190 -0.8724  0.1846
 3420SOL    HW213446   4.148   2.871   4.460  0.0064  0.3992  0.6039
 3420SOL    HW313447   4.093   2.942   4.337 -0.6558  0.8392  1.1434
 3420SOL    MW413448   4.081   2.893   4.408 -0.0997 -0.4788  0.3664
 3421SOL     OW13449   1.443   2.605   5.381  0.1015  0.3952 -0.2134
 3421SOL    HW213450   1.408   2.519   5.358  0.3214  0.4778 -0.8746
 3421SOL    HW313451   1.419   2.617   5.473 -1.7101  0.5165 -0.6659
 3421SOL    MW413452   1.436   2.595   5.391 -0.1085  0.4221 -0.3603
 3422SOL     OW13453   4.920   3.349   6.178 -0.7197  0.4343  0.0492
 3422SOL    HW213454   4.841   3.296   6.182  0.0765 -0.7424  1.2192
 3422SOL    HW313455   4.950   3.343   6.088 -1.0640 -0.4918 -0.0048
 3422SOL    MW413456   4.914   3.342   6.167 -0.6601  0.1568  0.1965
 3423SOL     OW13457   4.381   5.839   2.280 -0.0793 -0.7337 -0.3034
 3423SOL    HW213458   4.406   5.931   2.291  1.5810 -1.4005  2.3355
 3423SOL    HW313459   4.453   5.800   2.231  0.7878 -1.2032  1.2645
 3423SOL    MW413460   4.393   5.846   2.275  0.2541 -0.8836  0.2516
 3424SOL     OW13461   2.484   5.277   0.919 -0.2565 -0.4261  0.2612
 3424SOL    HW213462   2.540   5.220   0.971 -0.1622 -1.4170 -0.8910
 3424SOL    HW313463   2.424   5.317   0.983  0.2339 -1.1501  1.1927
 3424SOL    MW413464   2.483   5.275   0.934 -0.1794 -0.6523  0.2321
 3425SOL     OW13465   6.194   1.564   0.620  0.2809 -0.1656  0.0094
 3425SOL    HW213466   6.262   1.499   0.636  0.5555 -0.1323 -0.9216
 3425SOL    HW313467   6.156   1.581   0.706 -0.5456 -2.3563  0.1393
 3425SOL    MW413468   6.198   1.558   0.633  0.2081 -0.4502 -0.0963
 3426SOL     OW13469   3.007   2.915   4.051 -0.1174 -0.5700  0.1877
 3426SOL    HW213470   2.941   2.955   3.996  1.4936  0.7021 -0.9064
 3426SOL    HW313471   3.076   2.888   3.991  2.1674  1.7613  1.5616
 3426SOL    MW413472   3.008   2.917   4.036  0.3966 -0.0946  0.2246
 3427SOL     OW13473   4.952   1.142   6.240  0.2349 -0.2102  0.2260
 3427SOL    HW213474   4.930   1.228   6.276 -0.3450 -0.8389  1.4324
 3427SOL    HW313475   5.001   1.099   6.310  1.1446 -0.6245 -0.6349
 3427SOL    MW413476   4.956   1.148   6.254  0.2784 -0.3478  0.2716
 3428SOL     OW13477   2.842   3.649   1.347 -0.1410  0.2382 -0.0796
 3428SOL    HW213478   2.791   3.646   1.266 -0.1574  0.5630 -0.0856
 3428SOL    HW313479   2.932   3.629   1.320 -0.4278 -1.3924  0.0919
 3428SOL    MW413480   2.847   3.646   1.333 -0.1810  0.0659 -0.0578
 3429SOL     OW13481   0.066   2.628   2.101  0.1943 -0.5379  0.1175
 3429SOL    HW213482   0.127   2.603   2.032  0.7767 -0.6878  0.6836
 3429SOL    HW313483   0.099   2.586   2.180 -0.8387 -0.9096  0.3735
 3429SOL    MW413484   0.078   2.619   2.102  0.1348 -0.6067  0.2260
 3430SOL     OW13485   0.073   4.060   3.097  0.2450 -0.1451  0.2114
 3430SOL    HW213486   0.106   3.972   3.116  1.0963 -0.5504 -2.6964
 3430SOL    HW313487   0.151   4.112   3.078 -0.3917  0.6529 -0.3059
 3430SOL    MW413488   0.087   4.056   3.097  0.2733 -0.0933 -0.2405
 3431SOL     OW13489   4.462   0.525   2.989 -0.1304 -0.2886  0.0457
 3431SOL    HW213490   4.410   0.458   2.944 -1.0435  0.6752 -0.3635
 3431SOL    HW313491   4.472   0.491   3.078  0.3132 -1.4484 -0.4171
 3431SOL    MW413492   4.457   0.511   2.995 -0.1924 -0.3145 -0.0693
 3432SOL     OW13493   0.423   2.992   2.256 -0.2397  0.2899  0.3891
 3432SOL    HW213494   0.462   3.073   2.289 -1.9663  1.4623 -0.2757
 3432SOL    HW313495   0.489   2.925   2.273  2.0125  2.0974 -0.5741
 3432SOL    MW413496   0.437   2.994   2.263 -0.1704  0.6831  0.1743
 3433SOL     OW13497   0.245   4.967   5.080 -0.3134  0.2423  0.2276
 3433SOL    HW213498   0.207   4.930   5.000 -0.4579  2.0758 -0.5964
 3433SOL    HW313499   0.211   4.911   5.150 -0.3034 -1.3167 -0.9414
 3433SOL    MW413500   0.235   4.954   5.079 -0.3311  0.2785 -0.0353
 3434SOL     OW13501   3.475   2.188   3.260  0.1714  0.0577  0.1571
 3434SOL    HW213502   3.434   2.187   3.346  2.0914  0.2339  1.1439
 3434SOL    HW313503   3.436   2.264   3.216  0.0007  0.6923  1.3462
 3434SOL    MW413504   3.465   2.198   3.266  0.4022  0.1647  0.4442
 3435SOL     OW13505   4.406   5.600   1.489  0.5434 -0.2195 -0.1253
 3435SOL    HW213506   4.371   5.676   1.441  0.0859 -0.3499 -0.0068
 3435SOL    HW313507   4.399   5.625   1.581 -0.9375 -0.9372 -0.0049
 3435SOL    MW413508   4.400   5.613   1.495  0.2876 -0.3314 -0.0938
 3436SOL     OW13509   4.721   3.462   3.403 -0.1779 -0.4629 -0.4049
 3436SOL    HW213510   4.671   3.530   3.448 -0.4501 -1.0493  0.1902
 3436SOL    HW313511   4.811   3.473   3.433  0.1338  0.7837 -1.7017
 3436SOL    MW413512   4.726   3.472   3.413 -0.1727 -0.3758 -0.4974
 3437SOL     OW13513   5.977   6.202   3.564 -0.3635  0.0159 -0.3089
 3437SOL    HW213514   5.994   6.114   3.531 -1.6136  0.1614 -1.4032
 3437SOL    HW313515   5.953   6.253   3.486 -0.1299  1.2107  0.3715
 3437SOL    MW413516   5.976   6.197   3.549 -0.4976  0.1928 -0.3635
 3438SOL     OW13517   0.763   3.375   4.368  0.4342 -0.2612 -0.3548
 3438SOL    HW213518   0.838   3.321   4.345 -0.1779 -1.1678 -0.2578
 3438SOL    HW313519   0.701   3.362   4.296 -0.9809 -2.1438  1.0957
 3438SOL    MW413520   0.765   3.366   4.356  0.1667 -0.6292 -0.1506
 3439SOL     OW13521   3.540   6.143   6.322 -0.9243  0.1854  0.3342
 3439SOL    HW213522   3.474   6.074   6.333  0.3717 -0.7578  2.7955
 3439SOL    HW313523   3.509   6.215   6.376  0.3512 -0.5555  2.1506
 3439SOL    MW413524   3.527   6.143   6.330 -0.5850 -0.0368  0.8986
 3440SOL     OW13525   2.487   6.313   1.978 -0.3522 -0.3166 -0.2937
 3440SOL    HW213526   2.556   6.247   1.977 -1.8300 -1.9384 -0.5453
 3440SOL    HW313527   2.503   6.364   2.057 -0.3197 -2.2855  1.0314
 3440SOL    MW413528   2.498   6.311   1.988 -0.5429 -0.7903 -0.1520
 3441SOL     OW13529   5.259   5.234   3.624  0.4427  0.4794 -0.1214
 3441SOL    HW213530   5.266   5.151   3.670  2.1953  0.5984 -0.0876
 3441SOL    HW313531   5.184   5.278   3.664 -0.2315 -0.8904  0.1521
 3441SOL    MW413532   5.250   5.229   3.635  0.5850  0.3144 -0.0808
 3442SOL     OW13533   6.117   3.907   3.950 -0.2264  0.1160  0.5644
 3442SOL    HW213534   6.132   3.945   4.037 -1.4035  0.3186  0.7079
 3442SOL    HW313535   6.108   3.813   3.967 -2.7723  0.3626  1.0738
 3442SOL    MW413536   6.118   3.899   3.964 -0.7176  0.1753  0.6506
 3443SOL     OW13537   1.865   3.022   6.115  0.0429 -0.2956  0.1079
 3443SOL    HW213538   1.809   3.084   6.069  1.3419  2.0880  1.5667
 3443SOL    HW313539   1.854   3.043   6.208  1.3630 -1.5385  0.5942
 3443SOL    MW413540   1.856   3.033   6.121  0.3885 -0.1451  0.3645
 3444SOL     OW13541   0.195   0.407   1.141 -0.0997 -0.1313 -0.5472
 3444SOL    HW213542   0.167   0.495   1.117  0.8368 -0.5693 -3.6675
 3444SOL    HW313543   0.132   0.349   1.097 -1.9857 -1.1972  3.1022
 3444SOL    MW413544   0.183   0.411   1.132 -0.2250 -0.3297 -0.4774
 3445SOL     OW13545   0.992   3.349   2.622 -0.7092  0.0632  0.2649
 3445SOL    HW213546   0.944   3.300   2.688  0.8657  0.4482  1.7773
 3445SOL    HW313547   1.011   3.433   2.664 -1.7650  1.2986 -1.6006
 3445SOL    MW413548   0.988   3.353   2.636 -0.6407  0.2770  0.2183
 3446SOL     OW13549   5.769   2.772   4.585  0.2407  0.0041  0.3017
 3446SOL    HW213550   5.772   2.846   4.645 -3.7328  0.6754 -0.0359
 3446SOL    HW313551   5.706   2.712   4.626  1.1175 -1.8040 -0.8920
 3446SOL    MW413552   5.761   2.774   4.599 -0.1679 -0.1459  0.0997
 3447SOL     OW13553   6.011   5.005   5.575 -0.1835  0.7037 -0.1185
 3447SOL    HW213554   6.012   4.994   5.480 -0.6081  2.3572 -0.3631
 3447SOL    HW313555   5.947   5.075   5.589 -0.8307 -0.1661  1.4738
 3447SOL    MW413556   6.003   5.013   5.564 -0.3249  0.8071  0.0593
 3448SOL     OW13557   0.393   4.217   3.465 -0.3842 -1.0316  0.0957
 3448SOL    HW213558   0.356   4.176   3.543 -1.5053 -1.2439 -0.5298
 3448SOL    HW313559   0.474   4.167   3.448 -0.2112 -1.0799  1.0188
 3448SOL    MW413560   0.399   4.205   3.473 -0.5093 -1.0659  0.1349
 3449SOL     OW13561   2.053   0.775   4.191 -0.1492 -0.3387  0.9757
 3449SOL    HW213562   2.058   0.777   4.286 -0.7461 -0.7772  1.0212
 3449SOL    HW313563   2.114   0.706   4.165 -0.0470 -0.2741  1.0440
 3449SOL    MW413564   2.061   0.766   4.200 -0.2145 -0.3880  0.9907
 3450SOL     OW13565   3.634   3.444   5.069  0.2124  0.5541  0.3724
 3450SOL    HW213566   3.627   3.391   4.990 -0.1665  1.5175 -0.2647
 3450SOL    HW313567   3.589   3.392   5.136 -1.5243  0.7065 -0.5872
 3450SOL    MW413568   3.627   3.430   5.067 -0.0667  0.7013  0.1617
 3451SOL     OW13569   4.163   1.282   0.752 -0.0712  0.3101 -0.2694
 3451SOL    HW213570   4.247   1.239   0.769 -0.6831 -0.6411  0.4862
 3451SOL    HW313571   4.131   1.309   0.838 -0.6060  0.5311 -0.5279
 3451SOL    MW413572   4.170   1.280   0.766 -0.2225  0.2137 -0.2038
 3452SOL     OW13573   4.109   4.455   0.647  0.2384  0.1586  0.4049
 3452SOL    HW213574   4.197   4.436   0.614  0.6264 -0.0715  1.5498
 3452SOL    HW313575   4.111   4.430   0.739 -1.2329 -0.4885  0.2863
 3452SOL    MW413576   4.121   4.449   0.654  0.0955  0.0428  0.5403
 3453SOL     OW13577   2.821   0.867   2.424  0.1032  0.1266  0.9124
 3453SOL    HW213578   2.773   0.805   2.369 -2.0474  1.6869  0.9066
 3453SOL    HW313579   2.821   0.827   2.511 -0.4187 -0.3226  0.7107
 3453SOL    MW413580   2.815   0.854   2.429 -0.2494  0.2732  0.8850
 3454SOL     OW13581   2.915   4.341   0.037 -0.0839  0.0133  0.4868
 3454SOL    HW213582   2.911   4.358  -0.057 -1.3351 -1.3020  0.2718
 3454SOL    HW313583   2.982   4.273   0.046 -0.6973 -0.6027  0.4214
 3454SOL    MW413584   2.923   4.334   0.026 -0.3299 -0.2415  0.4498
 3455SOL     OW13585   5.727   0.694   4.615 -0.1169  0.1886 -0.4085
 3455SOL    HW213586   5.771   0.779   4.609  0.4398 -0.0907 -0.3900
 3455SOL    HW313587   5.799   0.630   4.616 -0.5438 -0.4319 -2.6464
 3455SOL    MW413588   5.743   0.697   4.614 -0.0997  0.0699 -0.7013
 3456SOL     OW13589   3.328   0.308   6.139  0.4934 -0.0261 -0.0050
 3456SOL    HW213590   3.358   0.284   6.052  0.0881  0.9945 -0.4452
 3456SOL    HW313591   3.403   0.294   6.196  0.3472 -2.0585 -0.2563
 3456SOL    MW413592   3.342   0.303   6.135  0.4206 -0.1596 -0.0962
 3457SOL     OW13593   2.213   2.471   5.011  0.3248  0.2430 -0.3545
 3457SOL    HW213594   2.273   2.540   5.039  0.0833  0.7680 -1.1112
 3457SOL    HW313595   2.266   2.391   5.013  0.5552  0.4017  0.7171
 3457SOL    MW413596   2.228   2.469   5.015  0.3234  0.3332 -0.3129
 3458SOL     OW13597   3.413   2.012   0.499  0.1900  0.1279  0.2411
 3458SOL    HW213598   3.491   2.022   0.554  1.1694 -0.3206 -1.0119
 3458SOL    HW313599   3.413   1.919   0.475  0.5234  0.5666 -1.5370
 3458SOL    MW413600   3.423   2.001   0.503  0.3632  0.1266 -0.1588
 3459SOL     OW13601   2.429   0.465   5.558 -0.1968  0.3735 -0.0130
 3459SOL    HW213602   2.374   0.541   5.544 -0.1008  0.2037 -1.4287
 3459SOL    HW313603   2.370   0.398   5.592 -0.8604  0.2178 -1.4309
 3459SOL    MW413604   2.414   0.466   5.561 -0.2717  0.3306 -0.3868
 3460SOL     OW13605   0.693   2.096   5.084 -0.0569  0.0332 -0.4949
 3460SOL    HW213606   0.639   2.025   5.050  0.8552 -0.0258 -1.9151
 3460SOL    HW313607   0.769   2.098   5.026  1.3511  0.2771  1.2678
 3460SOL    MW413608   0.696   2.087   5.072  0.2492  0.0576 -0.4497
 3461SOL     OW13609   4.226   6.268   2.822 -0.1914 -0.4834 -0.1083
 3461SOL    HW213610   4.169   6.303   2.892  1.1614  0.7993  0.4103
 3461SOL    HW313611   4.234   6.340   2.760  3.3723  0.6630  1.4078
 3461SOL    MW413612   4.219   6.282   2.823  0.4573 -0.1629  0.1602
 3462SOL     OW13613   4.964   5.589   0.004  0.2180  0.0611  0.2972
 3462SOL    HW213614   5.049   5.606   0.046 -0.4402 -0.6661  2.0241
 3462SOL    HW313615   4.903   5.647   0.050 -0.5677 -0.9406  0.5451
 3462SOL    MW413616   4.967   5.599   0.016  0.0275 -0.1670  0.5578
 3463SOL     OW13617   3.155   1.899   1.720 -0.1845 -0.2847 -0.0346
 3463SOL    HW213618   3.226   1.859   1.671  0.2536  1.2437 -0.7265
 3463SOL    HW313619   3.169   1.872   1.810  1.0232 -0.3750 -0.2345
 3463SOL    MW413620   3.166   1.890   1.725  0.0326 -0.0950 -0.1522
 3464SOL     OW13621   1.351   4.280   3.348  0.4554 -0.2755  0.1458
 3464SOL    HW213622   1.285   4.288   3.279  1.7198  0.3533 -1.0543
 3464SOL    HW313623   1.304   4.299   3.429 -0.5688  1.6168 -0.8104
 3464SOL    MW413624   1.336   4.284   3.349  0.4871  0.0571 -0.1387
 3465SOL     OW13625   0.494   6.257   3.196  0.1630  0.4388  0.2649
 3465SOL    HW213626   0.548   6.290   3.268  0.4094  1.2719 -0.3013
 3465SOL    HW313627   0.404   6.273   3.225  0.2580  0.6647  0.4391
 3465SOL    MW413628   0.489   6.263   3.210  0.2081  0.5786  0.2131
 3466SOL     OW13629   2.646   4.961   2.044 -0.0961  0.0790  0.1949
 3466SOL    HW213630   2.562   4.916   2.058  0.0532 -0.9228 -1.6856
 3466SOL    HW313631   2.697   4.942   2.123 -1.6678  0.8353  1.4433
 3466SOL    MW413632   2.641   4.952   2.056 -0.2838  0.0466  0.1115
 3467SOL     OW13633   2.964   2.694   2.030 -0.0195  0.1532 -0.0960
 3467SOL    HW213634   3.011   2.647   2.099  0.9825  0.5144 -0.5137
 3467SOL    HW313635   2.884   2.725   2.072  0.8049  0.8075  1.0502
 3467SOL    MW413636   2.960   2.692   2.045  0.2215  0.2872  0.0001
 3468SOL     OW13637   1.806   1.395   2.216  0.2748 -0.3168  0.0394
 3468SOL    HW213638   1.794   1.366   2.125  0.3542  0.5884 -0.2705
 3468SOL    HW313639   1.860   1.473   2.209  0.2939 -0.2510  0.8773
 3468SOL    MW413640   1.811   1.401   2.203  0.2878 -0.1887  0.1091
 3469SOL     OW13641   4.621   2.523   1.486  0.0587 -0.6188 -0.1930
 3469SOL    HW213642   4.662   2.542   1.401  0.6035 -2.2636 -0.3382
 3469SOL    HW313643   4.535   2.563   1.481 -0.5004 -1.8898 -2.1290
 3469SOL    MW413644   4.615   2.531   1.474  0.0568 -1.0035 -0.4676
 3470SOL     OW13645   1.699   5.283   5.378 -0.6758  0.0531 -0.1758
 3470SOL    HW213646   1.630   5.217   5.378 -0.2785 -0.3677  0.1587
 3470SOL    HW313647   1.746   5.269   5.461 -0.2718  0.4187 -0.3358
 3470SOL    MW413648   1.696   5.273   5.389 -0.5701  0.0458 -0.1528
 3471SOL     OW13649   0.231   2.207   6.016 -0.1103  0.0829  0.3134
 3471SOL    HW213650   0.311   2.167   5.982 -0.4590 -1.4761  1.2485
 3471SOL    HW313651   0.170   2.206   5.942  0.2022 -0.2134  0.0600
 3471SOL    MW413652   0.234   2.202   6.001 -0.1150 -0.1619  0.4034
 3472SOL     OW13653   6.171   2.456   1.509 -0.5007  0.2690 -0.1634
 3472SOL    HW213654   6.222   2.375   1.501 -0.9725  0.0346 -0.8528
 3472SOL    HW313655   6.206   2.513   1.440 -0.4532  0.5024  0.0529
 3472SOL    MW413656   6.183   2.453   1.499 -0.5567  0.2689 -0.2259
 3473SOL     OW13657   3.690   2.886   0.824 -0.0500  0.3457  0.1927
 3473SOL    HW213658   3.729   2.887   0.737 -1.7904  0.3420 -0.6239
 3473SOL    HW313659   3.663   2.976   0.840 -0.7408  0.1365  0.2411
 3473SOL    MW413660   3.691   2.898   0.815 -0.3708  0.3176  0.0914
 3474SOL     OW13661   3.061   5.864   5.384 -0.1005 -0.2486  0.7109
 3474SOL    HW213662   3.101   5.782   5.413 -2.1894 -1.4039  0.5060
 3474SOL    HW313663   3.103   5.883   5.300  0.9470 -0.6712  1.1197
 3474SOL    MW413664   3.072   5.856   5.377 -0.2379 -0.4568  0.7378
 3475SOL     OW13665   2.292   3.816   1.543 -0.0083  0.0167 -0.3342
 3475SOL    HW213666   2.229   3.747   1.521 -1.8945  1.4638  0.2676
 3475SOL    HW313667   2.258   3.854   1.623  2.5780 -0.1874  0.9686
 3475SOL    MW413668   2.279   3.812   1.551  0.0841  0.1807 -0.0829
 3476SOL     OW13669   1.692   6.328   1.815  0.2462  0.3942  0.1751
 3476SOL    HW213670   1.735   6.294   1.737  0.8193  2.3043 -0.4049
 3476SOL    HW313671   1.620   6.267   1.831  1.4310 -1.2716 -0.5177
 3476SOL    MW413672   1.688   6.316   1.807  0.4781  0.4264  0.0072
 3477SOL     OW13673   3.520   4.634   5.810 -0.6909  0.1820 -0.0384
 3477SOL    HW213674   3.524   4.544   5.845 -0.8135  0.3577  0.4375
 3477SOL    HW313675   3.580   4.633   5.736  0.7701  0.2028  1.1091
 3477SOL    MW413676   3.528   4.622   5.805 -0.5143  0.2080  0.1758
 3478SOL     OW13677   0.246   0.893   2.358  0.4461 -0.4382  0.2622
 3478SOL    HW213678   0.289   0.951   2.421 -0.5131  0.9327 -0.2930
 3478SOL    HW313679   0.291   0.911   2.275 -0.8134  0.6551 -0.2194
 3478SOL    MW413680   0.258   0.903   2.356  0.1534 -0.1131  0.1254
 3479SOL     OW13681   5.152   2.986   0.547  0.1641  0.5414  0.1171
 3479SOL    HW213682   5.090   2.999   0.619 -0.8190 -0.8751 -0.4289
 3479SOL    HW313683   5.116   3.038   0.475  0.8382  1.5041  0.4680
 3479SOL    MW413684   5.139   2.994   0.547  0.1233  0.4816  0.0914
 3480SOL     OW13685   1.038   5.398   5.823 -0.2206  0.0409  0.0572
 3480SOL    HW213686   1.118   5.450   5.811  0.7824 -0.6926  2.7454
 3480SOL    HW313687   1.067   5.321   5.872 -2.3507 -1.0326 -0.2522
 3480SOL    MW413688   1.053   5.395   5.828 -0.3693 -0.1975  0.3711
 3481SOL     OW13689   2.377   2.738   4.911  0.4777 -0.0640 -0.0814
 3481SOL    HW213690   2.437   2.707   4.843  1.2446  2.6491 -0.7419
 3481SOL    HW313691   2.434   2.768   4.982 -0.2178 -0.0347  0.4747
 3481SOL    MW413692   2.392   2.738   4.912  0.4871  0.2978 -0.0952
 3482SOL     OW13693   4.406   3.224   4.883 -0.4863 -0.0554 -0.4501
 3482SOL    HW213694   4.374   3.253   4.969 -0.9031 -2.3850  0.2450
 3482SOL    HW313695   4.459   3.297   4.852 -0.0957  0.7755  1.9243
 3482SOL    MW413696   4.409   3.237   4.890 -0.4898 -0.2531 -0.0451
 3483SOL     OW13697   3.533   0.205   2.775 -0.3134 -0.0415 -0.4677
 3483SOL    HW213698   3.504   0.181   2.687 -1.5997 -1.9795  0.4040
 3483SOL    HW313699   3.615   0.157   2.788 -2.0756 -3.1138  0.6831
 3483SOL    MW413700   3.540   0.195   2.765 -0.7156 -0.7026 -0.2008
 3484SOL     OW13701   3.540   2.689   1.730 -0.3517 -0.2355 -0.7745
 3484SOL    HW213702   3.505   2.768   1.771  0.9026 -0.3997  0.7100
 3484SOL    HW313703   3.608   2.722   1.670  1.4668 -0.2078  1.1954
 3484SOL    MW413704   3.545   2.704   1.727  0.0537 -0.2535 -0.3187
 3485SOL     OW13705   2.842   1.073   5.605  0.1643  0.0901  0.8144
 3485SOL    HW213706   2.890   1.144   5.649 -1.3032  1.4030  0.3838
 3485SOL    HW313707   2.814   1.111   5.522  1.0224 -1.6583 -0.3337
 3485SOL    MW413708   2.845   1.087   5.600  0.0839  0.0326  0.6061
 3486SOL     OW13709   1.041   2.888   1.149  1.0094 -0.8434  0.1659
 3486SOL    HW213710   1.082   2.974   1.151 -2.1402  0.9315 -2.7362
 3486SOL    HW313711   1.078   2.842   1.225  2.8536  2.9994  1.8302
 3486SOL    MW413712   1.051   2.893   1.160  0.8372 -0.1022  0.0026
 3487SOL     OW13713   4.761   5.333   5.640 -0.2628  0.0275  0.3302
 3487SOL    HW213714   4.716   5.353   5.558  0.2386 -1.9016 -0.4621
 3487SOL    HW313715   4.798   5.417   5.668 -1.1089  0.8814 -0.9840
 3487SOL    MW413716   4.760   5.347   5.633 -0.3083 -0.1144  0.0523
 3488SOL     OW13717   1.934   2.257   3.915 -0.4249 -0.1092 -0.1835
 3488SOL    HW213718   1.932   2.167   3.884  0.7217 -0.0903 -0.3383
 3488SOL    HW313719   1.928   2.251   4.010  2.5877 -0.5493  0.0584
 3488SOL    MW413720   1.933   2.244   3.923  0.1239 -0.1647 -0.1720
 3489SOL     OW13721   4.437   3.948   5.424 -0.7323 -0.1309 -0.0082
 3489SOL    HW213722   4.480   4.033   5.419 -1.2051  0.0502 -1.5481
 3489SOL    HW313723   4.408   3.930   5.334  0.7053 -2.6072 -0.0855
 3489SOL    MW413724   4.439   3.957   5.411 -0.6050 -0.4337 -0.2216
 3490SOL     OW13725   3.476   5.512   6.314  0.1681  0.0226  0.0491
 3490SOL    HW213726   3.556   5.526   6.263  0.0660 -0.6530 -0.3048
 3490SOL    HW313727   3.485   5.423   6.349 -0.2216  0.1124  0.3858
 3490SOL    MW413728   3.488   5.502   6.312  0.1032 -0.0547  0.0468
 3491SOL     OW13729   0.326   2.238   1.680  0.0354 -0.0292 -0.1651
 3491SOL    HW213730   0.285   2.153   1.698 -0.4844  0.2601  0.0500
 3491SOL    HW313731   0.394   2.245   1.747  0.8786 -0.7962 -0.9230
 3491SOL    MW413732   0.329   2.228   1.692  0.0780 -0.0922 -0.2367
 3492SOL     OW13733   3.972   4.545   1.357 -0.4711  0.4178  0.0151
 3492SOL    HW213734   3.938   4.572   1.443  1.0512  0.6685  0.5663
 3492SOL    HW313735   4.067   4.545   1.368 -0.2931 -2.7196 -0.7098
 3492SOL    MW413736   3.980   4.549   1.370 -0.2468  0.0369 -0.0078
 3493SOL     OW13737   5.251   4.571   1.461  0.0925 -0.0463  0.3133
 3493SOL    HW213738   5.208   4.530   1.536 -1.6150 -0.7050 -0.9652
 3493SOL    HW313739   5.181   4.614   1.413  1.3348  1.3777 -0.2990
 3493SOL    MW413740   5.236   4.571   1.465  0.0311  0.0546  0.0638
 3494SOL     OW13741   6.080   4.236   3.902  0.1025  0.6086 -0.1999
 3494SOL    HW213742   6.111   4.145   3.907  0.6531  0.8078  0.0698
 3494SOL    HW313743   6.146   4.281   3.850  0.7647  1.2402  1.1459
 3494SOL    MW413744   6.092   4.230   3.896  0.2625  0.7182  0.0132
 3495SOL     OW13745   5.573   2.814   3.259  0.1039  0.5011  0.3682
 3495SOL    HW213746   5.544   2.747   3.197 -1.5294  1.7077 -0.2497
 3495SOL    HW313747   5.628   2.873   3.207 -0.5984  1.0606  0.2424
 3495SOL    MW413748   5.577   2.813   3.244 -0.2042  0.7341  0.2701
 3496SOL     OW13749   5.031   2.398   0.832  0.3907 -0.1181 -0.0678
 3496SOL    HW213750   5.067   2.483   0.808  0.6112 -0.0601  0.4626
 3496SOL    HW313751   5.075   2.375   0.913  0.6825 -0.9574 -0.4505
 3496SOL    MW413752   5.041   2.406   0.839  0.4583 -0.2212 -0.0483
 3497SOL     OW13753   0.049   5.837   2.176 -0.2438 -0.3402 -0.0764
 3497SOL    HW213754  -0.007   5.797   2.243  0.1904 -0.7226  0.0639
 3497SOL    HW313755   0.138   5.812   2.202 -0.0178  0.1800 -0.3522
 3497SOL    MW413756   0.054   5.828   2.189 -0.1567 -0.3221 -0.0943
 3498SOL     OW13757   4.014   2.873   2.484 -0.2722 -0.1327  0.2425
 3498SOL    HW213758   4.024   2.805   2.551 -1.0846  0.6977  1.2289
 3498SOL    HW313759   3.921   2.871   2.461 -0.0128 -0.3862 -0.8674
 3498SOL    MW413760   4.003   2.864   2.490 -0.3452 -0.0566  0.2262
 3499SOL     OW13761   2.075   2.729   5.404 -0.1993 -0.7455  0.1299
 3499SOL    HW213762   2.152   2.728   5.460  0.7827  1.1639 -1.0701
 3499SOL    HW313763   2.105   2.769   5.323 -2.3894 -0.2067 -0.4849
 3499SOL    MW413764   2.089   2.735   5.401 -0.3587 -0.4225 -0.1095
 3500SOL     OW13765   1.399   3.451   4.647 -0.5778 -0.2799 -0.2303
 3500SOL    HW213766   1.388   3.428   4.554 -0.7937  2.3963 -0.9450
 3500SOL    HW313767   1.414   3.546   4.647  5.4660 -0.7673  1.9935
 3500SOL    MW413768   1.400   3.460   4.634  0.1911  0.0089 -0.0312
 3501SOL     OW13769   4.067   0.144   5.343 -0.3661 -0.1745 -0.2329
 3501SOL    HW213770   4.011   0.102   5.408  0.5543 -2.0431 -0.5509
 3501SOL    HW313771   4.015   0.216   5.308 -2.1565 -1.1914  0.2083
 3501SOL    MW413772   4.053   0.148   5.347 -0.4809 -0.5552 -0.2167
 3502SOL     OW13773   0.712   2.878   2.566 -0.5164 -0.3060  0.3366
 3502SOL    HW213774   0.806   2.859   2.573 -0.5182 -0.8268 -0.7939
 3502SOL    HW313775   0.705   2.971   2.588  0.4246  0.0124 -0.6283
 3502SOL    MW413776   0.724   2.888   2.570 -0.3925 -0.3327  0.0601
 3503SOL     OW13777   5.862   4.185   2.990 -0.1431 -0.5650  0.2579
 3503SOL    HW213778   5.818   4.161   3.072 -1.5124  0.0795 -0.2573
 3503SOL    HW313779   5.875   4.102   2.944 -1.7684 -0.7128 -0.0097
 3503SOL    MW413780   5.858   4.171   2.995 -0.5382 -0.4995  0.1546
 3504SOL     OW13781   3.779   6.198   5.220  0.9980 -0.0134 -0.6721
 3504SOL    HW213782   3.702   6.230   5.173 -0.0264  0.5445  1.2830
 3504SOL    HW313783   3.845   6.266   5.206 -0.2876  1.7169  1.1699
 3504SOL    MW413784   3.778   6.212   5.212  0.6932  0.2885 -0.1711
 3505SOL     OW13785   4.729   1.290   0.776  0.2256  0.1749  0.4322
 3505SOL    HW213786   4.708   1.304   0.684 -0.3223  0.7544  0.6359
 3505SOL    HW313787   4.730   1.378   0.814 -0.7979 -0.1316  1.2270
 3505SOL    MW413788   4.726   1.303   0.769  0.0183  0.2109  0.5639
 3506SOL     OW13789   2.486   1.623   0.401 -0.1155  0.0418  0.7685
 3506SOL    HW213790   2.504   1.588   0.489  0.5450 -0.6495  0.3675
 3506SOL    HW313791   2.563   1.675   0.380  0.2233 -0.6920  0.1571
 3506SOL    MW413792   2.498   1.625   0.410  0.0163 -0.1463  0.6349
 3507SOL     OW13793   2.126   3.954   6.022 -0.7483  0.3711  0.4571
 3507SOL    HW213794   2.169   3.872   6.048  2.2869  2.2633  1.9133
 3507SOL    HW313795   2.156   3.969   5.932 -1.0439  0.0687  0.3052
 3507SOL    MW413796   2.135   3.945   6.014 -0.3868  0.5808  0.6292
 3508SOL     OW13797   3.661   4.924   3.454 -0.0215  0.6233 -0.0995
 3508SOL    HW213798   3.646   4.910   3.360  0.7255  0.2593 -0.1711
 3508SOL    HW313799   3.573   4.927   3.492 -0.3193  0.1391 -0.7247
 3508SOL    MW413800   3.648   4.922   3.447  0.0377  0.5114 -0.1914
 3509SOL     OW13801   2.745   2.712   1.746  0.2618 -0.2002  0.0502
 3509SOL    HW213802   2.819   2.654   1.764  2.3788  2.2307 -0.2979
 3509SOL    HW313803   2.755   2.737   1.654  0.6587  2.2481  0.6836
 3509SOL    MW413804   2.756   2.707   1.736  0.5935  0.4436  0.0879
 3510SOL     OW13805   3.792   1.195   6.176 -0.3851  0.0534 -0.1734
 3510SOL    HW213806   3.715   1.219   6.124  0.8073  0.0473 -2.0501
 3510SOL    HW313807   3.826   1.279   6.209 -1.0880  0.0681  0.5490
 3510SOL    MW413808   3.786   1.209   6.173 -0.3205  0.0545 -0.3257
 3511SOL     OW13809   2.696   0.280   3.786 -0.3363 -0.9531 -0.3751
 3511SOL    HW213810   2.752   0.318   3.718 -1.4248 -1.6737 -1.7224
 3511SOL    HW313811   2.751   0.279   3.864  1.3182 -1.0389 -1.4844
 3511SOL    MW413812   2.711   0.284   3.787 -0.2616 -1.0595 -0.6992
 3512SOL     OW13813   4.766   3.832   0.289 -0.3289  0.1816  0.1088
 3512SOL    HW213814   4.783   3.917   0.248 -0.2471  0.9609  1.6975
 3512SOL    HW313815   4.696   3.848   0.351  0.2355 -0.7318  1.0141
 3512SOL    MW413816   4.759   3.845   0.292 -0.2437  0.1639  0.4379
 3513SOL     OW13817   4.570   5.174   4.972  0.0388  0.3683 -0.1235
 3513SOL    HW213818   4.566   5.124   5.053  1.1292 -0.4303 -0.5395
 3513SOL    HW313819   4.596   5.111   4.906  0.2842  1.2431 -0.8838
 3513SOL    MW413820   4.573   5.159   4.974  0.2150  0.3783 -0.2787
 3514SOL     OW13821   2.532   0.343  -0.008  0.2630 -0.0536  0.2880
 3514SOL    HW213822   2.483   0.346  -0.090  1.6717  1.8942 -0.5633
 3514SOL    HW313823   2.614   0.298  -0.030 -0.0359 -1.0238  1.0731
 3514SOL    MW413824   2.536   0.338  -0.021  0.4094  0.0754  0.2793
 3515SOL     OW13825   5.139   4.117   1.498 -0.4062  0.1177  0.4657
 3515SOL    HW213826   5.050   4.115   1.462 -1.3023  1.0369  2.4522
 3515SOL    HW313827   5.178   4.034   1.472 -1.5467  0.0352 -1.1255
 3515SOL    MW413828   5.132   4.106   1.490 -0.6749  0.2281  0.5179
 3516SOL     OW13829   4.626   5.241   1.171  0.3995  0.0051  0.1894
 3516SOL    HW213830   4.690   5.283   1.229 -0.4231  0.3493  0.8624
 3516SOL    HW313831   4.576   5.183   1.228 -0.8565  0.8503 -0.0287
 3516SOL    MW413832   4.628   5.239   1.186  0.1253  0.1620  0.2494
 3517SOL     OW13833   2.906   2.885   1.078 -0.1221  0.1384  0.1543
 3517SOL    HW213834   2.856   2.805   1.092 -0.7967  0.7101  1.1589
 3517SOL    HW313835   2.990   2.870   1.121 -0.0219 -0.2323 -0.1634
 3517SOL    MW413836   2.910   2.872   1.086 -0.1979  0.1649  0.2449
 3518SOL     OW13837   2.855   0.427   5.441 -0.6130 -0.5687  0.0892
 3518SOL    HW213838   2.921   0.493   5.463 -0.4915  0.2201 -2.3433
 3518SOL    HW313839   2.906   0.353   5.407 -0.5446 -3.0827  4.8778
 3518SOL    MW413840   2.871   0.426   5.439 -0.5880 -0.7963  0.4000
 3519SOL     OW13841   1.573   6.360   4.662  0.1124  0.0833 -0.2524
 3519SOL    HW213842   1.503   6.407   4.617 -0.7376 -2.0402 -1.2858
 3519SOL    HW313843   1.653   6.406   4.636 -0.6150  0.6562 -1.6119
 3519SOL    MW413844   1.574   6.372   4.653 -0.0957 -0.1213 -0.5681
 3520SOL     OW13845   4.013   5.558   4.766  0.3061  0.2921 -0.1752
 3520SOL    HW213846   4.084   5.596   4.818  0.6050  0.4866 -0.7220
 3520SOL    HW313847   4.036   5.466   4.756  0.0178  0.1507  0.4175
 3520SOL    MW413848   4.025   5.551   4.772  0.3075  0.2991 -0.1691
 3521SOL     OW13849   2.423   1.953   2.736 -0.0541  0.1596 -0.7049
 3521SOL    HW213850   2.368   1.920   2.807  0.3666 -0.6412 -0.7436
 3521SOL    HW313851   2.459   1.875   2.695  3.8336  0.5666  1.4036
 3521SOL    MW413852   2.421   1.939   2.740  0.5143  0.1077 -0.4318
 3522SOL     OW13853   5.171   6.036   5.163 -0.3831 -0.2612  0.3252
 3522SOL    HW213854   5.091   6.006   5.119  1.2619 -1.2173 -2.2648
 3522SOL    HW313855   5.225   5.958   5.170  1.1763  0.7401 -0.0434
 3522SOL    MW413856   5.168   6.022   5.158  0.0397 -0.2552 -0.0651
 3523SOL     OW13857   4.765   1.740   6.052  0.1400 -0.2555 -0.3280
 3523SOL    HW213858   4.727   1.659   6.086 -0.6228  0.1845 -0.1019
 3523SOL    HW313859   4.754   1.803   6.123  0.8699  0.0095 -0.4441
 3523SOL    MW413860   4.759   1.738   6.066  0.1356 -0.1625 -0.3135
 3524SOL     OW13861   5.977   3.200   3.960 -0.5623  0.1647  0.3510
 3524SOL    HW213862   5.898   3.250   3.983 -1.5419 -1.8410  1.6560
 3524SOL    HW313863   5.995   3.224   3.869 -2.8674  0.4748 -0.0921
 3524SOL    MW413864   5.969   3.210   3.951 -0.9957 -0.0590  0.4647
 3525SOL     OW13865   4.247   5.966   4.485  0.1217 -0.2233 -0.6301
 3525SOL    HW213866   4.246   5.899   4.554 -0.2538 -0.2844 -0.6883
 3525SOL    HW313867   4.205   5.923   4.410 -0.7357  0.2823 -0.4603
 3525SOL    MW413868   4.241   5.952   4.484 -0.0409 -0.1646 -0.6153
 3526SOL     OW13869   2.610   2.511   0.675 -0.3981 -0.5397  0.2584
 3526SOL    HW213870   2.615   2.582   0.739  1.9000 -1.3859  1.1557
 3526SOL    HW313871   2.577   2.552   0.595  0.2949  1.4120  0.9190
 3526SOL    MW413872   2.606   2.526   0.673 -0.0034 -0.3938  0.4639
 3527SOL     OW13873   0.793   1.075   1.609  0.0150  0.5151 -0.0546
 3527SOL    HW213874   0.748   1.052   1.528 -0.2437  0.1294  0.1946
 3527SOL    HW313875   0.879   1.032   1.602  0.8596  2.2831 -1.0882
 3527SOL    MW413876   0.799   1.066   1.597  0.0923  0.6975 -0.1581
 3528SOL     OW13877   5.225   5.392   5.642 -0.6222  0.0833 -0.6534
 3528SOL    HW213878   5.320   5.386   5.630 -0.6742 -0.1679 -0.9435
 3528SOL    HW313879   5.206   5.485   5.634 -0.3170  0.2091  0.0270
 3528SOL    MW413880   5.235   5.403   5.639 -0.5888  0.0668 -0.6019
 3529SOL     OW13881   1.017   4.734   2.839  0.0773  0.1521 -0.0284
 3529SOL    HW213882   1.083   4.674   2.874  0.2222  1.1721  1.5453
 3529SOL    HW313883   1.047   4.820   2.867 -0.9416  0.8164 -0.9279
 3529SOL    MW413884   1.030   4.737   2.847 -0.0380  0.3743  0.0606
 3530SOL     OW13885   5.564   1.595   6.370  0.1030 -0.0376 -0.6479
 3530SOL    HW213886   5.542   1.503   6.384  0.2696  0.2248  1.6639
 3530SOL    HW313887   5.484   1.634   6.335 -1.4576 -0.2311  2.4099
 3530SOL    MW413888   5.551   1.588   6.367 -0.0809 -0.0285  0.0605
 3531SOL     OW13889   1.658   2.951   2.338 -0.4449  0.1369 -0.5090
 3531SOL    HW213890   1.611   2.984   2.415 -0.3371 -0.1747 -0.3064
 3531SOL    HW313891   1.658   3.024   2.276  0.2180  0.6760  0.1181
 3531SOL    MW413892   1.652   2.965   2.340 -0.3432  0.1669 -0.3995
 3532SOL     OW13893   4.611   4.880   4.379  0.6727 -0.5775 -0.1824
 3532SOL    HW213894   4.637   4.966   4.346 -2.8168  0.7800  0.2220
 3532SOL    HW313895   4.590   4.829   4.301 -0.2255  0.0382 -0.3602
 3532SOL    MW413896   4.612   4.885   4.365  0.0938 -0.3172 -0.1525
 3533SOL     OW13897   3.368   5.206   1.830  0.1057  0.2374  0.3502
 3533SOL    HW213898   3.410   5.124   1.858 -0.6642 -0.1728  0.3258
 3533SOL    HW313899   3.299   5.179   1.770 -1.9295  0.6381  2.3413
 3533SOL    MW413900   3.364   5.191   1.826 -0.2644  0.2361  0.6097
 3534SOL     OW13901   1.456   2.798   4.889 -0.6208 -0.1423  0.2688
 3534SOL    HW213902   1.468   2.746   4.969 -0.7085 -1.1942 -0.3850
 3534SOL    HW313903   1.543   2.805   4.852 -0.9933 -2.6708 -1.3439
 3534SOL    MW413904   1.469   2.792   4.895 -0.6815 -0.6147 -0.0303
 3535SOL     OW13905   1.858   0.657   3.705  0.0432 -0.0134  0.0784
 3535SOL    HW213906   1.862   0.667   3.800  2.9753  1.6065 -0.0869
 3535SOL    HW313907   1.949   0.639   3.679 -0.6337 -0.1999 -2.4577
 3535SOL    MW413908   1.870   0.656   3.714  0.3408  0.1757 -0.2780
 3536SOL     OW13909   4.342   5.431   1.158 -0.5277 -0.2726  0.9968
 3536SOL    HW213910   4.293   5.362   1.113 -1.1685  0.1387  1.0454
 3536SOL    HW313911   4.353   5.398   1.247  1.4775 -1.4608  0.3642
 3536SOL    MW413912   4.337   5.418   1.164 -0.3477 -0.3751  0.9198
 3537SOL     OW13913   2.938   4.974   1.346 -0.1168 -0.3806 -0.7319
 3537SOL    HW213914   2.976   4.972   1.258  2.8881 -3.3251  0.4589
 3537SOL    HW313915   2.865   4.912   1.341 -0.0526 -0.4295 -1.1380
 3537SOL    MW413916   2.933   4.966   1.334  0.2881 -0.7756 -0.6283
 3538SOL     OW13917   5.878   1.254   1.475 -0.3487 -0.7571 -0.1165
 3538SOL    HW213918   5.820   1.324   1.506 -0.3364 -1.0412  0.5641
 3538SOL    HW313919   5.851   1.239   1.385  0.2805  0.7835 -0.6015
 3538SOL    MW413920   5.867   1.261   1.467 -0.2640 -0.5913 -0.0907
 3539SOL     OW13921   5.725   0.544   5.248  0.4884  0.1754  0.0129
 3539SOL    HW213922   5.712   0.451   5.262  1.3814  0.2087  1.1695
 3539SOL    HW313923   5.637   0.577   5.225  0.0391 -0.8181  0.2532
 3539SOL    MW413924   5.711   0.536   5.247  0.5469  0.0487  0.1972
 3540SOL     OW13925   1.834   0.535   0.395 -0.1218  0.2941 -0.0677
 3540SOL    HW213926   1.755   0.567   0.440  0.2222  0.1195  0.6855
 3540SOL    HW313927   1.902   0.598   0.419 -0.2015  0.8856 -1.3601
 3540SOL    MW413928   1.832   0.547   0.404 -0.0869  0.3491 -0.1388
 3541SOL     OW13929   1.614   1.823   0.767  0.3141 -0.2715  0.1678
 3541SOL    HW213930   1.637   1.731   0.776  0.8892 -0.1792 -0.3260
 3541SOL    HW313931   1.651   1.849   0.683 -0.6694  0.1641 -0.1518
 3541SOL    MW413932   1.622   1.814   0.758  0.2602 -0.2019  0.0604
 3542SOL     OW13933   0.397   4.831   2.035  0.3273  0.1698  0.2916
 3542SOL    HW213934   0.461   4.763   2.014 -0.6556 -0.2449 -1.4911
 3542SOL    HW313935   0.314   4.784   2.042  0.0874  0.7713  2.1455
 3542SOL    MW413936   0.395   4.815   2.033  0.1660  0.1944  0.3010
 3543SOL     OW13937   2.625   6.304   1.446 -0.3563 -0.4106  0.4632
 3543SOL    HW213938   2.557   6.372   1.447 -0.4350 -0.4738 -0.1140
 3543SOL    HW313939   2.578   6.224   1.470 -0.3351 -0.3205  0.8018
 3543SOL    MW413940   2.610   6.302   1.449 -0.3639 -0.4071  0.4317
 3544SOL     OW13941   0.861   5.136   5.683 -0.6165 -0.1690 -0.2707
 3544SOL    HW213942   0.830   5.060   5.633 -0.4560  0.8455 -1.9973
 3544SOL    HW313943   0.941   5.163   5.638 -0.6684  1.0156  0.3195
 3544SOL    MW413944   0.867   5.129   5.670 -0.6022  0.1212 -0.4206
 3545SOL     OW13945   0.759   3.121   4.966  0.2916 -0.0571  0.2156
 3545SOL    HW213946   0.790   3.181   4.898  0.4449  1.3507  1.4715
 3545SOL    HW313947   0.800   3.153   5.047 -2.3976  0.3843  1.5306
 3545SOL    MW413948   0.768   3.133   4.968 -0.0430  0.1868  0.5548
 3546SOL     OW13949   6.047   1.650   0.863 -0.0014  0.3225 -0.1242
 3546SOL    HW213950   6.007   1.710   0.800 -0.2280  0.8761  0.5408
 3546SOL    HW313951   5.998   1.569   0.854 -0.4027  0.5799 -0.2551
 3546SOL    MW413952   6.035   1.647   0.853 -0.0842  0.4295 -0.0537
 3547SOL     OW13953   5.249   2.865   2.185  0.0561 -0.1668 -0.2984
 3547SOL    HW213954   5.324   2.834   2.134  0.2035 -0.1661 -0.0840
 3547SOL    HW313955   5.279   2.862   2.276 -1.1144 -2.8467  0.0965
 3547SOL    MW413956   5.263   2.860   2.190 -0.0789 -0.5203 -0.2180
 3548SOL     OW13957   6.336   5.995   5.110 -0.3377  0.4417  0.5251
 3548SOL    HW213958   6.278   6.053   5.060 -1.4959  0.5895  1.9625
 3548SOL    HW313959   6.344   5.916   5.055 -0.0601  1.2969 -0.7086
 3548SOL    MW413960   6.329   5.992   5.096 -0.4539  0.5740  0.5519
 3549SOL     OW13961   4.515   5.412   4.218  0.0736 -0.3205 -0.2934
 3549SOL    HW213962   4.486   5.361   4.142  1.3350 -0.6529 -0.5920
 3549SOL    HW313963   4.482   5.363   4.294 -2.6816  0.9315 -0.5794
 3549SOL    MW413964   4.507   5.399   4.218 -0.1235 -0.1992 -0.3705
 3550SOL     OW13965   3.609   3.534   0.409  0.0702 -0.1013 -0.5335
 3550SOL    HW213966   3.648   3.457   0.450  0.9285  0.9043  0.5854
 3550SOL    HW313967   3.678   3.569   0.353  0.8624  1.6864  1.4521
 3550SOL    MW413968   3.623   3.528   0.407  0.2880  0.2672 -0.1239
 3551SOL     OW13969   0.489   1.754   4.473 -0.2539  0.1239  0.6677
 3551SOL    HW213970   0.550   1.827   4.464 -0.6745  0.9487  3.6050
 3551SOL    HW313971   0.541   1.676   4.452  0.5507  1.1041 -1.2228
 3551SOL    MW413972   0.504   1.753   4.469 -0.2033  0.3621  0.8058
 3552SOL     OW13973   3.647   5.394   3.628 -0.0832 -0.2941  0.9798
 3552SOL    HW213974   3.596   5.470   3.599 -1.8178 -1.6691  0.2580
 3552SOL    HW313975   3.614   5.375   3.716 -1.7061 -1.8231  0.1153
 3552SOL    MW413976   3.636   5.402   3.636 -0.5262 -0.6773  0.7705
 3553SOL     OW13977   4.187   0.205   2.071 -0.1066  1.1767 -0.4392
 3553SOL    HW213978   4.255   0.201   2.003 -0.9336  0.5505 -1.2519
 3553SOL    HW313979   4.127   0.273   2.039 -0.1530  1.3479  0.0088
 3553SOL    MW413980   4.188   0.214   2.058 -0.2218  1.1166 -0.4873
 3554SOL     OW13981   0.770   1.333   5.814 -0.1045 -0.2200  0.9573
 3554SOL    HW213982   0.803   1.329   5.904 -0.0334 -1.6025  0.8930
 3554SOL    HW313983   0.708   1.260   5.808 -1.5450  0.9786  0.4255
 3554SOL    MW413984   0.766   1.323   5.825 -0.2852 -0.2442  0.8787
 3555SOL     OW13985   3.776   2.804   2.319  0.2311 -0.2881  0.5257
 3555SOL    HW213986   3.805   2.715   2.299  2.1884  0.2853  0.5931
 3555SOL    HW313987   3.826   2.860   2.259 -0.3811  0.8252  1.0172
 3555SOL    MW413988   3.786   2.800   2.308  0.4086 -0.0656  0.5994
 3556SOL     OW13989   0.063   0.096   3.240  0.0371  0.0140 -0.2326
 3556SOL    HW213990   0.069   0.003   3.261  0.2443  0.1189  0.1693
 3556SOL    HW313991  -0.030   0.112   3.225  0.0156 -0.2818 -0.4141
 3556SOL    MW413992   0.052   0.086   3.240  0.0616 -0.0112 -0.2035
 3557SOL     OW13993   2.300   0.358   5.345  0.0298 -0.5238 -0.0435
 3557SOL    HW213994   2.335   0.273   5.374 -0.0917  0.0237  1.8068
 3557SOL    HW313995   2.360   0.423   5.380  1.1743  0.1644 -2.9908
 3557SOL    MW413996   2.312   0.355   5.353  0.1648 -0.3607 -0.1882
 3558SOL     OW13997   3.449   0.615   3.542  0.2446 -0.5737  0.1245
 3558SOL    HW213998   3.466   0.672   3.466 -1.0508  0.2078  0.3813
 3558SOL    HW313999   3.532   0.613   3.589  0.7165 -0.0433 -0.6510
 3558SOL    MW414000   3.462   0.622   3.538  0.1360 -0.4006  0.0560
 3559SOL     OW14001   0.043   1.530   5.867  0.7933  0.2592 -0.2216
 3559SOL    HW214002   0.071   1.594   5.801  0.1040 -0.4116 -1.1857
 3559SOL    HW314003   0.061   1.445   5.827 -0.3156 -0.1668  0.1488
 3559SOL    MW414004   0.049   1.528   5.853  0.5560  0.1145 -0.2999
 3560SOL     OW14005   1.787   2.009   0.902 -0.9419  0.1059 -0.1786
 3560SOL    HW214006   1.812   1.997   0.993 -1.9649  1.3929  0.2917
 3560SOL    HW314007   1.732   1.933   0.882  0.9743 -1.2967 -0.4033
 3560SOL    MW414008   1.783   1.997   0.911 -0.8240  0.0907 -0.1462
 3561SOL     OW14009   6.344   5.387   1.792  0.2596  0.2864  0.1621
 3561SOL    HW214010   6.349   5.455   1.725 -1.9123  0.2722 -0.1053
 3561SOL    HW314011   6.274   5.329   1.762 -0.7821  0.2704  2.3990
 3561SOL    MW414012   6.335   5.388   1.779 -0.1644  0.2824  0.4220
 3562SOL     OW14013   3.237   0.793   3.622 -0.1278 -0.2729  0.7150
 3562SOL    HW214014   3.301   0.728   3.592  0.2897  0.8637 -1.0177
 3562SOL    HW314015   3.274   0.827   3.703  0.3820 -1.1466  0.8594
 3562SOL    MW414016   3.251   0.789   3.629 -0.0054 -0.2382  0.5054
 3563SOL     OW14017   5.147   4.013   5.717  0.3566  0.0047  0.5965
 3563SOL    HW214018   5.098   3.935   5.692  0.0544  0.1148  0.8375
 3563SOL    HW314019   5.080   4.080   5.731  0.6689  0.6103 -0.6455
 3563SOL    MW414020   5.132   4.012   5.715  0.3579  0.0992  0.4644
 3564SOL     OW14021   6.172   5.176   5.048  0.0081 -0.8528  0.0072
 3564SOL    HW214022   6.120   5.122   4.988 -1.0105  0.0257  0.0838
 3564SOL    HW314023   6.122   5.257   5.058  0.7619 -0.4969  1.1032
 3564SOL    MW414024   6.159   5.180   5.041 -0.0268 -0.6900  0.1619
 3565SOL     OW14025   5.046   5.939   1.295 -0.0685  0.2810 -0.0601
 3565SOL    HW214026   5.087   5.854   1.309 -0.7316 -0.1887 -0.9120
 3565SOL    HW314027   5.090   5.997   1.358 -0.1404 -0.8363  1.0575
 3565SOL    MW414028   5.057   5.936   1.305 -0.1655  0.0716 -0.0251
 3566SOL     OW14029   5.689   4.943   0.619 -0.3985  0.1399  0.3679
 3566SOL    HW214030   5.693   4.904   0.532 -0.6698  1.1659 -0.1085
 3566SOL    HW314031   5.696   4.868   0.678 -1.9847 -0.7888 -0.5340
 3566SOL    MW414032   5.690   4.928   0.615 -0.6436  0.1527  0.1860
 3567SOL     OW14033   0.877   5.752   4.196  0.1120  0.3792  0.5853
 3567SOL    HW214034   0.788   5.738   4.162  0.0177 -0.6543  1.2244
 3567SOL    HW314035   0.927   5.781   4.120 -0.7135  0.7406  0.1617
 3567SOL    MW414036   0.872   5.754   4.181 -0.0094  0.2905  0.6137
 3568SOL     OW14037   4.853   0.348   1.693  0.4965 -0.4821 -0.4624
 3568SOL    HW214038   4.839   0.311   1.780  1.8352 -0.0029 -0.0069
 3568SOL    HW314039   4.895   0.432   1.709 -1.3161  0.6737 -1.5263
 3568SOL    MW414040   4.857   0.354   1.707  0.4340 -0.2664 -0.5427
 3569SOL     OW14041   1.737   4.374   4.580 -0.8731  0.4881 -0.2408
 3569SOL    HW214042   1.690   4.347   4.659 -0.0932 -1.4885 -0.3910
 3569SOL    HW314043   1.692   4.454   4.552 -4.0473 -1.1190 -0.2666
 3569SOL    MW414044   1.725   4.381   4.587 -1.1890  0.0153 -0.2640
 3570SOL     OW14045   4.912   0.108   5.349  0.0665 -0.2586  0.8560
 3570SOL    HW214046   4.971   0.143   5.416 -0.5066  0.2994  1.0882
 3570SOL    HW314047   4.825   0.117   5.388 -0.0703 -2.5609  1.1841
 3570SOL    MW414048   4.908   0.114   5.363 -0.0272 -0.4888  0.9300
 3571SOL     OW14049   0.961   1.788   1.177 -0.2411  0.6277  0.3415
 3571SOL    HW214050   1.052   1.760   1.170 -0.6224 -0.2403 -3.4688
 3571SOL    HW314051   0.961   1.851   1.249  3.2919  0.4289  0.6973
 3571SOL    MW414052   0.973   1.793   1.186  0.1748  0.4869 -0.1143
 3572SOL     OW14053   4.546   0.252   4.102  0.1973  0.1949  0.2999
 3572SOL    HW214054   4.476   0.293   4.153  0.4802 -0.2876  1.0969
 3572SOL    HW314055   4.503   0.180   4.056 -0.5055  1.8570 -1.8407
 3572SOL    MW414056   4.531   0.248   4.103  0.1419  0.3505  0.1227
 3573SOL     OW14057   4.987   5.791   2.206 -0.0177  0.2565  0.1067
 3573SOL    HW214058   4.925   5.721   2.225  0.6661 -0.6256 -0.7915
 3573SOL    HW314059   5.045   5.793   2.282 -0.7232  0.6363  0.6477
 3573SOL    MW414060   4.987   5.782   2.218 -0.0205  0.1902  0.0596
 3574SOL     OW14061   2.421   2.352   2.253  0.2868  0.0742 -0.0270
 3574SOL    HW214062   2.499   2.298   2.263  0.5009  0.5413  1.0137
 3574SOL    HW314063   2.359   2.298   2.204  1.1486 -0.4143 -0.5975
 3574SOL    MW414064   2.423   2.338   2.248  0.4287  0.0714  0.0351
 3575SOL     OW14065   0.971   1.692   1.645 -0.0345  0.4153  0.2581
 3575SOL    HW214066   0.952   1.621   1.706  1.3475  1.1932  1.6704
 3575SOL    HW314067   0.897   1.752   1.655  0.7602  1.1676  2.2220
 3575SOL    MW414068   0.959   1.690   1.655  0.2527  0.6172  0.7035
 3576SOL     OW14069   2.897   1.221   4.398  0.3806  0.4956 -0.1959
 3576SOL    HW214070   2.866   1.188   4.313 -0.6414  2.3728 -0.5975
 3576SOL    HW314071   2.902   1.143   4.453 -0.1723 -0.5884 -1.6116
 3576SOL    MW414072   2.894   1.206   4.394  0.1728  0.6003 -0.4357
 3577SOL     OW14073   2.547   6.057   0.997  0.1674  0.4308  0.0048
 3577SOL    HW214074   2.507   6.141   1.020 -0.5756  0.3197 -0.8289
 3577SOL    HW314075   2.587   6.071   0.911  0.4500  0.0600  0.0717
 3577SOL    MW414076   2.547   6.070   0.989  0.1066  0.3672 -0.0964
 3578SOL     OW14077   0.404   4.266   1.430  0.1303 -0.3155  0.0192
 3578SOL    HW214078   0.445   4.310   1.504 -0.2088  0.3005 -0.1543
 3578SOL    HW314079   0.475   4.249   1.369  0.4765 -1.1415  0.6232
 3578SOL    MW414080   0.419   4.270   1.432  0.1312 -0.3432  0.0760
 3579SOL     OW14081   5.936   3.336   0.233  0.0497 -0.2368 -0.2597
 3579SOL    HW214082   5.934   3.367   0.143  0.2204 -0.4772 -0.3453
 3579SOL    HW314083   5.911   3.244   0.228 -1.5850  0.1610  0.1198
 3579SOL    MW414084   5.933   3.328   0.221 -0.1434 -0.2160 -0.2209
 3580SOL     OW14085   6.085   6.106   5.043  0.6052 -0.2274  0.8255
 3580SOL    HW214086   6.058   6.015   5.028  1.3267 -0.4339  0.7714
 3580SOL    HW314087   6.094   6.113   5.138  0.1874 -0.1020  0.8598
 3580SOL    MW414088   6.082   6.095   5.053  0.6452 -0.2381  0.8229
 3581SOL     OW14089   2.687   5.971   1.245  0.3836 -0.2925 -0.4208
 3581SOL    HW214090   2.639   6.047   1.210  0.6716 -1.1443 -2.9177
 3581SOL    HW314091   2.759   5.959   1.183  0.4065 -2.5156 -0.0234
 3581SOL    MW414092   2.690   5.980   1.232  0.4246 -0.6982 -0.6978
 3582SOL     OW14093   0.861   3.370   1.669 -0.1938 -0.1906  0.2543
 3582SOL    HW214094   0.857   3.406   1.581  0.2261  0.5794  0.5454
 3582SOL    HW314095   0.854   3.446   1.727  0.2845 -0.6152  0.8808
 3582SOL    MW414096   0.859   3.385   1.665 -0.0753 -0.1450  0.3753
 3583SOL     OW14097   3.311   0.555   6.324 -0.1430 -0.0200  0.1331
 3583SOL    HW214098   3.362   0.477   6.302 -0.9894 -0.4993 -0.1651
 3583SOL    HW314099   3.323   0.565   6.419  1.0635  0.2906 -0.0331
 3583SOL    MW414100   3.319   0.546   6.334 -0.0955 -0.0422  0.0718
 3584SOL     OW14101   2.035   6.290   0.704  0.8498  0.3496 -0.1975
 3584SOL    HW214102   2.062   6.382   0.700  0.0259  0.7291  1.9003
 3584SOL    HW314103   2.109   6.242   0.666  1.1095  1.8645 -1.7635
 3584SOL    MW414104   2.049   6.296   0.698  0.7753  0.5995 -0.1273
 3585SOL     OW14105   1.641   4.577   0.499  0.1245 -0.2838 -0.3686
 3585SOL    HW214106   1.606   4.508   0.555  0.1847  0.1032  0.1526
 3585SOL    HW314107   1.721   4.540   0.462  0.7472 -0.1171  0.7622
 3585SOL    MW414108   1.647   4.563   0.501  0.2146 -0.2107 -0.1506
 3586SOL     OW14109   1.593   4.690   0.746  0.3250  0.4522 -0.1461
 3586SOL    HW214110   1.558   4.607   0.777  1.4733 -0.1052 -0.2701
 3586SOL    HW314111   1.614   4.674   0.654  0.1495  1.0133 -0.2853
 3586SOL    MW414112   1.591   4.677   0.738  0.4534  0.4527 -0.1808
 3587SOL     OW14113   3.937   0.242   4.512 -0.3425 -0.7084  0.0887
 3587SOL    HW214114   3.888   0.261   4.592 -0.6566 -1.7707  0.1541
 3587SOL    HW314115   3.989   0.165   4.533  3.1068  1.5794  0.7547
 3587SOL    MW414116   3.937   0.234   4.525  0.0712 -0.5467  0.1852
 3588SOL     OW14117   4.153   1.807   3.215 -0.0278  0.3827  0.3925
 3588SOL    HW214118   4.154   1.744   3.287  0.0514 -1.0401 -0.8050
 3588SOL    HW314119   4.075   1.785   3.164  0.1489  1.0824 -0.2018
 3588SOL    MW414120   4.143   1.796   3.218  0.0060  0.2873  0.1561
 3589SOL     OW14121   2.615   3.140   5.316 -0.6734  0.0700 -0.0221
 3589SOL    HW214122   2.541   3.150   5.256 -0.4386  0.5009 -0.2471
 3589SOL    HW314123   2.661   3.224   5.311  1.3414 -1.0255 -1.9220
 3589SOL    MW414124   2.611   3.152   5.307 -0.3766 -0.0177 -0.3025
 3590SOL     OW14125   5.497   4.656   0.898  0.0487  0.2375 -0.3091
 3590SOL    HW214126   5.406   4.660   0.867 -0.2231 -1.7949  0.0719
 3590SOL    HW314127   5.502   4.574   0.947  1.6255  1.2202  1.3050
 3590SOL    MW414128   5.485   4.646   0.900  0.2209  0.0990 -0.0459
 3591SOL     OW14129   1.790   0.551   4.972 -0.2205 -0.6745 -0.0024
 3591SOL    HW214130   1.731   0.615   5.012 -1.2592 -1.6787  0.1204
 3591SOL    HW314131   1.876   0.593   4.975 -0.6780  0.2422  1.1283
 3591SOL    MW414132   1.794   0.565   4.978 -0.4179 -0.6861  0.1630
 3592SOL     OW14133   4.402   5.176   5.316 -0.0961  0.0197 -0.5612
 3592SOL    HW214134   4.397   5.152   5.408  0.1416  0.8669 -0.3156
 3592SOL    HW314135   4.434   5.098   5.272 -1.4579 -0.8286 -0.1221
 3592SOL    MW414136   4.405   5.163   5.322 -0.2445  0.0196 -0.4709
 3593SOL     OW14137   1.416   3.373   4.384 -0.4988 -0.0235 -0.1820
 3593SOL    HW214138   1.441   3.289   4.346  0.7454  0.6767 -0.9726
 3593SOL    HW314139   1.484   3.434   4.355 -0.9271  1.0916  1.0561
 3593SOL    MW414140   1.428   3.370   4.375 -0.3911  0.2160 -0.1229
 3594SOL     OW14141   3.244   4.896   0.926  0.1750  0.4218 -0.1966
 3594SOL    HW214142   3.263   4.989   0.915  3.6189 -0.0378  0.7780
 3594SOL    HW314143   3.227   4.886   1.020  2.6651 -0.2529  0.2502
 3594SOL    MW414144   3.244   4.907   0.937  0.9579  0.2722 -0.0090
 3595SOL     OW14145   6.411   1.605   4.476 -0.3574 -0.2104 -0.0727
 3595SOL    HW214146   6.366   1.687   4.455  0.5743 -0.0676 -1.7466
 3595SOL    HW314147   6.501   1.632   4.497  0.4006 -0.8740 -2.2256
 3595SOL    MW414148   6.417   1.620   4.476 -0.1345 -0.2791 -0.5776
 3596SOL     OW14149   3.907   1.068   3.424 -0.3328 -0.4932 -0.7831
 3596SOL    HW214150   3.839   1.135   3.430 -2.2007 -2.3626  0.5998
 3596SOL    HW314151   3.958   1.078   3.504  1.0051  0.7869 -1.7327
 3596SOL    MW414152   3.905   1.078   3.435 -0.4027 -0.5709 -0.7259
 3597SOL     OW14153   6.118   6.343   0.667 -0.0964 -0.2073 -0.1483
 3597SOL    HW214154   6.201   6.315   0.627  2.1182  2.8078  1.8947
 3597SOL    HW314155   6.088   6.414   0.611 -1.4744 -1.3300 -0.9195
 3597SOL    MW414156   6.125   6.348   0.654  0.0139  0.0424  0.0195
 3598SOL     OW14157   0.991   4.982   4.347  0.2201  0.5698  0.1033
 3598SOL    HW214158   1.053   5.022   4.408  0.3268 -0.6556  0.8131
 3598SOL    HW314159   0.905   5.008   4.380  0.2315 -1.0663  1.5096
 3598SOL    MW414160   0.988   4.991   4.359  0.2357  0.1923  0.3825
 3599SOL     OW14161   2.554   1.801   4.756  0.2277 -0.1586 -0.1829
 3599SOL    HW214162   2.633   1.757   4.789 -0.9152 -1.4376  0.9815
 3599SOL    HW314163   2.492   1.730   4.741 -1.1073  0.9119  0.0608
 3599SOL    MW414164   2.557   1.786   4.758 -0.0992 -0.1861  0.0029
 3600SOL     OW14165   2.669   2.076   2.756  0.8583  0.3920 -0.1358
 3600SOL    HW214166   2.577   2.052   2.750  0.5949  1.2774  0.1548
 3600SOL    HW314167   2.692   2.063   2.848  0.3670  2.3413  0.3136
 3600SOL    MW414168   2.660   2.071   2.768  0.7587  0.7660 -0.0381
 3601SOL     OW14169   0.357   5.542   6.089 -0.7727 -0.3576  0.1217
 3601SOL    HW214170   0.431   5.482   6.093 -0.0986  0.4473  0.0470
 3601SOL    HW314171   0.346   5.561   5.995  0.2860  1.1371  0.2652
 3601SOL    MW414172   0.365   5.536   6.077 -0.5441 -0.0542  0.1307
 3602SOL     OW14173   4.989   5.085   5.316  0.0268  0.0524  0.0463
 3602SOL    HW214174   5.015   5.095   5.408 -2.9170 -3.0753  1.4377
 3602SOL    HW314175   4.932   5.160   5.299  0.2885  0.4520  0.8782
 3602SOL    MW414176   4.985   5.097   5.326 -0.3271 -0.3075  0.3397
 3603SOL     OW14177   1.915   0.047   1.193  0.5701  0.7433  0.1807
 3603SOL    HW214178   1.929   0.103   1.269  0.4881  0.2486  0.5629
 3603SOL    HW314179   1.877  -0.033   1.228  4.2160 -1.1750  0.1855
 3603SOL    MW414180   1.912   0.044   1.207  1.0403  0.4249  0.2317
 3604SOL     OW14181   0.213   3.866   0.772  0.5905 -0.1979  0.2982
 3604SOL    HW214182   0.166   3.929   0.716  1.1210 -0.7329 -0.7683
 3604SOL    HW314183   0.147   3.838   0.836 -0.1998  0.0121 -0.3965
 3604SOL    MW414184   0.198   3.871   0.773  0.5562 -0.2407  0.0658
 3605SOL     OW14185   4.732   1.996   1.802  0.4443 -0.5775  0.1762
 3605SOL    HW214186   4.680   1.965   1.877 -0.0219 -0.7461 -0.2069
 3605SOL    HW314187   4.800   1.930   1.791  0.2378 -0.7931  0.1733
 3605SOL    MW414188   4.734   1.983   1.811  0.3555 -0.6282  0.1253
 3606SOL     OW14189   4.090   0.043   3.600 -0.3078  0.3504 -0.2649
 3606SOL    HW214190   4.045   0.029   3.517 -1.7318  0.0393  0.5218
 3606SOL    HW314191   4.178   0.069   3.575  0.8150 -4.1272 -1.9275
 3606SOL    MW414192   4.095   0.045   3.586 -0.3475 -0.2814 -0.3805
 3607SOL     OW14193   5.485   2.290   4.458  0.1247  0.6149 -0.0875
 3607SOL    HW214194   5.429   2.236   4.513  1.8937 -2.2481 -0.8631
 3607SOL    HW314195   5.536   2.227   4.406  2.2577  3.0545 -1.2060
 3607SOL    MW414196   5.484   2.275   4.459  0.6395  0.5591 -0.3374
 3608SOL     OW14197   6.390   0.681   0.865  0.1861  0.1700 -0.0890
 3608SOL    HW214198   6.403   0.601   0.815  0.4945  0.0088  0.2463
 3608SOL    HW314199   6.327   0.656   0.933  0.3505  0.1879  0.0705
 3608SOL    MW414200   6.383   0.667   0.867  0.2485  0.1511 -0.0238
 3609SOL     OW14201   2.284   0.887   4.005 -0.0466  0.1547  0.4779
 3609SOL    HW214202   2.284   0.875   4.100  0.5827 -0.2554  0.4330
 3609SOL    HW314203   2.318   0.976   3.992 -0.0148  0.1652  0.6295
 3609SOL    MW414204   2.289   0.897   4.016  0.0407  0.1020  0.4920
 3610SOL     OW14205   1.542   1.762   3.249  0.1105  0.0534 -0.2864
 3610SOL    HW214206   1.470   1.699   3.241  0.4525 -0.6026  1.4755
 3610SOL    HW314207   1.613   1.724   3.198 -0.2473 -0.1033 -0.6763
 3610SOL    MW414208   1.542   1.749   3.241  0.1084 -0.0539 -0.1054
 3611SOL     OW14209   3.233   2.922   3.137 -0.2041  0.3968 -0.1179
 3611SOL    HW214210   3.183   2.981   3.080  0.5862  1.0425 -0.1656
 3611SOL    HW314211   3.314   2.905   3.088 -1.0310 -1.9589 -0.7837
 3611SOL    MW414212   3.237   2.928   3.123 -0.2090  0.1712 -0.2120
 3612SOL     OW14213   5.134   3.749   1.866  0.2628 -0.1372  0.2783
 3612SOL    HW214214   5.087   3.831   1.856 -1.7347 -1.4267 -1.9764
 3612SOL    HW314215   5.092   3.706   1.941  1.0872  0.7129  1.2476
 3612SOL    MW414216   5.122   3.754   1.874  0.1080 -0.1952  0.1087
 3613SOL     OW14217   4.899   2.332   3.939 -0.2909 -0.0841 -0.7364
 3613SOL    HW214218   4.958   2.300   4.007  0.4637 -0.4957 -1.5657
 3613SOL    HW314219   4.821   2.277   3.946 -1.7552  2.0779  2.0611
 3613SOL    MW414220   4.897   2.321   3.949 -0.3845  0.1469 -0.4767
 3614SOL     OW14221   1.060   4.743   1.130 -0.3526 -0.6679  0.0307
 3614SOL    HW214222   1.020   4.660   1.103 -0.1168 -0.5186 -0.8034
 3614SOL    HW314223   1.118   4.767   1.057 -1.7391  1.1275 -0.5557
 3614SOL    MW414224   1.063   4.735   1.117 -0.5044 -0.4113 -0.1567
 3615SOL     OW14225   2.031   1.316   1.198  0.4458 -0.0608  0.3159
 3615SOL    HW214226   1.963   1.309   1.131 -0.1665  0.8867  0.8144
 3615SOL    HW314227   2.079   1.234   1.192  0.2973 -0.0663 -1.1654
 3615SOL    MW414228   2.028   1.305   1.188  0.3454  0.0635  0.1863
 3616SOL     OW14229   5.668   5.459   1.542 -0.8282 -0.4752  0.0056
 3616SOL    HW214230   5.582   5.418   1.529 -0.0589 -2.3124  0.5140
 3616SOL    HW314231   5.700   5.423   1.624  0.1105  0.8078  0.2272
 3616SOL    MW414232   5.661   5.449   1.551 -0.6029 -0.5483  0.1019
 3617SOL     OW14233   1.128   2.742   2.811 -0.0902 -0.7136 -0.8128
 3617SOL    HW214234   1.172   2.657   2.813  1.7127  0.1335 -1.8766
 3617SOL    HW314235   1.104   2.755   2.719  1.3516  0.6970 -1.0355
 3617SOL    MW414236   1.131   2.732   2.799  0.3379 -0.4157 -0.9826
 3618SOL     OW14237   6.427   1.287   5.477  0.1439  0.7900 -0.0340
 3618SOL    HW214238   6.341   1.319   5.505  0.3587  0.0833  1.5108
 3618SOL    HW314239   6.485   1.363   5.488 -0.0574  0.9372  0.0273
 3618SOL    MW414240   6.423   1.301   5.482  0.1457  0.7162  0.1779
 3619SOL     OW14241   2.859   0.282   4.004 -0.2965 -0.1313  0.2351
 3619SOL    HW214242   2.851   0.371   4.037  0.2108 -0.5424  1.5254
 3619SOL    HW314243   2.792   0.232   4.051  0.0519 -0.6097  0.2408
 3619SOL    MW414244   2.849   0.287   4.015 -0.1836 -0.2487  0.4061
 3620SOL     OW14245   2.120   5.543   3.390  0.0978 -0.4285 -0.8613
 3620SOL    HW214246   2.138   5.512   3.301  0.1365 -1.1169 -0.6262
 3620SOL    HW314247   2.065   5.620   3.378  0.7713 -0.0290 -1.5042
 3620SOL    MW414248   2.115   5.549   3.376  0.1917 -0.4666 -0.9151
 3621SOL     OW14249   0.296   4.199   3.067  0.5193 -0.4033  0.0437
 3621SOL    HW214250   0.315   4.170   2.978 -0.1380  0.1038 -0.2762
 3621SOL    HW314251   0.337   4.286   3.073 -0.4414  0.0825 -0.1803
 3621SOL    MW414252   0.304   4.207   3.056  0.3058 -0.2723 -0.0280
 3622SOL     OW14253   5.260   4.763   5.963  0.7458  0.6939  0.0471
 3622SOL    HW214254   5.314   4.781   5.886  0.6220  0.5065 -0.0831
 3622SOL    HW314255   5.224   4.676   5.948  1.5574  0.2154  0.8045
 3622SOL    MW414256   5.262   4.754   5.951  0.8366  0.6060  0.1299
 3623SOL     OW14257   3.982   1.250   3.851 -0.0953  0.5367  0.4567
 3623SOL    HW214258   4.006   1.300   3.774 -0.7784  1.0601  0.5772
 3623SOL    HW314259   3.898   1.209   3.829 -0.5439  1.0959  1.0954
 3623SOL    MW414260   3.974   1.251   3.838 -0.2446  0.6795  0.5568
 3624SOL     OW14261   2.791   0.437   2.199  0.1489  0.1000 -0.0797
 3624SOL    HW214262   2.863   0.486   2.239 -0.4310  1.4569 -0.6071
 3624SOL    HW314263   2.758   0.381   2.268  0.9144  0.3968  0.5328
 3624SOL    MW414264   2.796   0.436   2.213  0.1734  0.3182 -0.0685
 3625SOL     OW14265   4.412   4.535   0.969  0.1639  0.0519 -0.0188
 3625SOL    HW214266   4.434   4.454   1.015  1.7843  0.2246 -0.4560
 3625SOL    HW314267   4.344   4.575   1.023 -1.5670 -2.1626 -0.4178
 3625SOL    MW414268   4.406   4.530   0.982  0.1493 -0.2175 -0.1291
 3626SOL     OW14269   6.362   5.211   2.246  0.4078 -0.1786 -0.2132
 3626SOL    HW214270   6.425   5.173   2.307  0.9886 -0.0322 -0.7174
 3626SOL    HW314271   6.287   5.151   2.248  1.3285 -1.3956 -1.0456
 3626SOL    MW414272   6.360   5.198   2.254  0.6059 -0.3199 -0.3896
 3627SOL     OW14273   0.263   3.776   4.906  0.2496  0.2894 -0.1562
 3627SOL    HW214274   0.223   3.712   4.965 -1.4459 -0.4627 -2.0006
 3627SOL    HW314275   0.213   3.856   4.920  0.1023  0.2227 -0.3034
 3627SOL    MW414276   0.251   3.778   4.916  0.0065  0.1814 -0.4190
 3628SOL     OW14277   5.083   1.912   2.203  0.2738  0.1182  0.3839
 3628SOL    HW214278   5.071   1.821   2.232 -3.5030  0.5833  0.7600
 3628SOL    HW314279   5.100   1.961   2.284 -0.1497  0.0755  0.4982
 3628SOL    MW414280   5.084   1.906   2.218 -0.2804  0.1739  0.4486
 3629SOL     OW14281   3.684   1.240   2.031 -0.3006 -0.3186 -0.0390
 3629SOL    HW214282   3.668   1.162   1.980  1.2810 -0.0213 -1.0507
 3629SOL    HW314283   3.603   1.291   2.025 -0.3531 -0.5802 -1.7387
 3629SOL    MW414284   3.672   1.237   2.024 -0.0988 -0.3139 -0.3968
 3630SOL     OW14285   5.593   3.339   2.823 -0.2990  0.0912 -0.0872
 3630SOL    HW214286   5.539   3.414   2.801  0.7384  0.4365 -1.6201
 3630SOL    HW314287   5.553   3.266   2.776  1.0364  0.5361 -2.0647
 3630SOL    MW414288   5.581   3.339   2.814  0.0141  0.1955 -0.5503
 3631SOL     OW14289   3.349   4.251   6.179  0.0804 -0.2758 -0.0357
 3631SOL    HW214290   3.264   4.206   6.181  0.7055 -1.5518 -0.7143
 3631SOL    HW314291   3.391   4.225   6.262 -1.0125  2.1368  1.3720
 3631SOL    MW414292   3.343   4.241   6.190  0.0187 -0.1259  0.0605
 3632SOL     OW14293   2.342   2.865   1.431 -0.2203 -0.4719 -0.6086
 3632SOL    HW214294   2.305   2.934   1.486 -0.6638 -1.0380 -0.1753
 3632SOL    HW314295   2.346   2.903   1.343 -0.1928  0.1945 -0.3250
 3632SOL    MW414296   2.338   2.879   1.427 -0.2752 -0.4587 -0.5140
 3633SOL     OW14297   6.070   0.180   5.826 -0.3736 -0.0681  0.5060
 3633SOL    HW214298   6.096   0.159   5.736 -1.3946 -0.2301  0.2341
 3633SOL    HW314299   6.032   0.268   5.820  0.4386  0.3154  0.9578
 3633SOL    MW414300   6.068   0.189   5.813 -0.4012 -0.0389  0.5298
 3634SOL     OW14301   3.218   5.153   3.109  0.3858  0.3697  0.2768
 3634SOL    HW214302   3.136   5.175   3.154  0.3468 -1.4718  1.1983
 3634SOL    HW314303   3.287   5.179   3.171  0.3837 -0.6576  0.7304
 3634SOL    MW414304   3.216   5.160   3.123  0.3804 -0.0088  0.4583
 3635SOL     OW14305   5.249   1.083   1.191 -0.3209 -0.2826  0.1403
 3635SOL    HW214306   5.154   1.081   1.190 -0.3594  0.3176  1.2025
 3635SOL    HW314307   5.275   1.067   1.100 -1.4362 -0.1398 -0.2086
 3635SOL    MW414308   5.240   1.081   1.179 -0.4731 -0.1845  0.2344
 3636SOL     OW14309   5.872   5.094   6.165  0.1593  0.9121 -0.1687
 3636SOL    HW214310   5.951   5.120   6.118  1.5341 -1.5576  0.5882
 3636SOL    HW314311   5.808   5.075   6.097  1.4043 -0.4781 -0.9990
 3636SOL    MW414312   5.874   5.095   6.150  0.5049  0.4028 -0.1784
 3637SOL     OW14313   1.341   1.817   0.832 -0.6626  0.1978  0.4344
 3637SOL    HW214314   1.298   1.836   0.748  0.6321 -0.9664 -0.5419
 3637SOL    HW314315   1.428   1.855   0.823  0.6345 -2.6420 -0.0799
 3637SOL    MW414316   1.347   1.824   0.820 -0.3206 -0.3304  0.2378
 3638SOL     OW14317   0.879   5.210   1.148  0.8357  0.0190  0.0500
 3638SOL    HW214318   0.785   5.218   1.157  1.0081 -0.0309  2.6086
 3638SOL    HW314319   0.892   5.181   1.058 -1.6784 -1.3287  0.0259
 3638SOL    MW414320   0.869   5.207   1.138  0.5267 -0.1654  0.3844
 3639SOL     OW14321   3.101   6.202   3.013  0.0325 -0.2964 -0.3369
 3639SOL    HW214322   3.028   6.225   3.070  2.5194  1.4268  2.4526
 3639SOL    HW314323   3.136   6.121   3.049 -0.1448 -0.8622 -1.3772
 3639SOL    MW414324   3.096   6.195   3.025  0.3372 -0.1437 -0.1061
 3640SOL     OW14325   5.892   5.716   0.269 -0.1322  0.3877  0.3451
 3640SOL    HW214326   5.951   5.689   0.198  0.0881 -0.4973  0.8516
 3640SOL    HW314327   5.885   5.811   0.259  1.8500  0.6008  0.6023
 3640SOL    MW414328   5.899   5.725   0.258  0.1584  0.2991  0.4459
 3641SOL     OW14329   3.195   2.708   3.315 -0.6921  0.2012 -0.3459
 3641SOL    HW214330   3.285   2.681   3.334 -0.0480  1.7909 -0.9388
 3641SOL    HW314331   3.203   2.767   3.240 -2.2654  0.1781 -0.5663
 3641SOL    MW414332   3.208   2.712   3.308 -0.8147  0.4079 -0.4532
 3642SOL     OW14333   4.483   6.015   2.745  0.0485 -0.0210 -1.0647
 3642SOL    HW214334   4.501   6.109   2.751 -1.0204  0.1369  0.0272
 3642SOL    HW314335   4.518   5.978   2.827  1.1016 -0.7195 -1.7898
 3642SOL    MW414336   4.490   6.022   2.757  0.0464 -0.0923 -1.0163
 3643SOL     OW14337   5.972   5.548   0.769  0.0717  0.3862  0.0525
 3643SOL    HW214338   5.948   5.456   0.761 -2.0705  0.8774  0.1167
 3643SOL    HW314339   5.999   5.574   0.681 -0.0157 -0.1243 -0.1266
 3643SOL    MW414340   5.972   5.540   0.756 -0.2224  0.3836  0.0373
 3644SOL     OW14341   2.178   1.916   5.281 -0.2793  0.0360 -0.1134
 3644SOL    HW214342   2.097   1.968   5.286  0.4504  1.1381  0.6797
 3644SOL    HW314343   2.222   1.932   5.364  0.4131 -1.1445 -0.2433
 3644SOL    MW414344   2.173   1.925   5.292 -0.0917  0.0256 -0.0259
 3645SOL     OW14345   1.029   3.852   3.488 -0.1308  0.2495  0.1397
 3645SOL    HW214346   0.969   3.839   3.415  0.3306 -0.1604 -0.1756
 3645SOL    HW314347   1.072   3.935   3.470 -0.6063  0.5517  0.3740
 3645SOL    MW414348   1.027   3.861   3.476 -0.1327  0.2353  0.1290
 3646SOL     OW14349   1.125   1.084   5.024 -0.0731 -0.0511 -0.3250
 3646SOL    HW214350   1.083   1.054   5.104 -0.4076  0.2864 -0.3712
 3646SOL    HW314351   1.053   1.101   4.963 -0.1414  3.1796  0.4771
 3646SOL    MW414352   1.110   1.082   5.026 -0.1262  0.4197 -0.2253
 3647SOL     OW14353   1.852   2.100   1.459 -0.2411  0.4003  0.3543
 3647SOL    HW214354   1.946   2.113   1.447 -0.5796  2.2599 -0.7856
 3647SOL    HW314355   1.815   2.116   1.372 -1.6272 -0.1710  0.8168
 3647SOL    MW414356   1.860   2.104   1.446 -0.4686  0.5703  0.2649
 3648SOL     OW14357   1.166   2.761   1.372 -0.4487 -0.3749  0.0910
 3648SOL    HW214358   1.152   2.667   1.383  0.4743 -0.6688 -1.0957
 3648SOL    HW314359   1.258   2.769   1.348  0.0229  1.0239  2.1070
 3648SOL    MW414360   1.176   2.750   1.371 -0.2647 -0.2291  0.2004
 3649SOL     OW14361   1.525   4.294   4.732 -0.3856  0.1333  0.3088
 3649SOL    HW214362   1.450   4.276   4.676  1.1925 -1.2673 -1.4298
 3649SOL    HW314363   1.509   4.242   4.811 -0.2939 -1.8068 -0.9007
 3649SOL    MW414364   1.513   4.285   4.735 -0.1653 -0.3075 -0.0802
 3650SOL     OW14365   1.156   4.983   1.457 -0.1251  0.3925  0.0797
 3650SOL    HW214366   1.206   5.024   1.528  2.2610  0.2673 -1.4470
 3650SOL    HW314367   1.174   4.890   1.466 -0.4750  0.2948 -0.2196
 3650SOL    MW414368   1.165   4.976   1.468  0.1435  0.3631 -0.1612
 3651SOL     OW14369   5.997   5.363   1.152  0.4075 -0.1686 -0.2814
 3651SOL    HW214370   5.932   5.348   1.083  0.8141 -0.0893 -0.6816
 3651SOL    HW314371   5.946   5.397   1.225 -0.0522 -0.4223 -0.4800
 3651SOL    MW414372   5.982   5.365   1.152  0.4005 -0.1916 -0.3604
 3652SOL     OW14373   4.394   3.287   4.229 -0.5177  0.1126 -0.3012
 3652SOL    HW214374   4.394   3.361   4.169  2.6051  0.2286 -0.3560
 3652SOL    HW314375   4.323   3.306   4.291 -0.2463  2.8426 -0.6957
 3652SOL    MW414376   4.385   3.300   4.230 -0.0698  0.4881 -0.3605
 3653SOL     OW14377   4.000   0.438   3.919 -0.4213  0.1656  0.4051
 3653SOL    HW214378   4.060   0.373   3.956  1.4250  0.0402 -2.4747
 3653SOL    HW314379   4.051   0.518   3.913 -0.5449  0.1569 -1.7842
 3653SOL    MW414380   4.015   0.440   3.923 -0.1940  0.1479 -0.2637
 3654SOL     OW14381   5.596   1.901   3.839 -0.3710  0.0759 -0.0910
 3654SOL    HW214382   5.687   1.919   3.865 -0.4905  1.6455 -0.6562
 3654SOL    HW314383   5.575   1.971   3.777 -2.2062  0.1737  0.5826
 3654SOL    MW414384   5.605   1.913   3.834 -0.6289  0.2959 -0.0767
 3655SOL     OW14385   5.067   1.401   3.325 -0.0897 -0.1151 -0.2544
 3655SOL    HW214386   5.036   1.397   3.416 -1.7611 -1.0614 -0.8063
 3655SOL    HW314387   5.033   1.484   3.292  0.7461  0.3536  0.0536
 3655SOL    MW414388   5.058   1.411   3.333 -0.2000 -0.1781 -0.2866
 3656SOL     OW14389   2.483   1.091   4.664 -0.3030  0.4921  0.5893
 3656SOL    HW214390   2.510   0.999   4.659  1.8134  1.0458  1.0910
 3656SOL    HW314391   2.405   1.089   4.721 -0.3419 -0.9856  0.5345
 3656SOL    MW414392   2.476   1.079   4.671 -0.0289  0.3702  0.6483
 3657SOL     OW14393   4.416   0.125   6.046  0.1825 -0.2147 -0.6306
 3657SOL    HW214394   4.480   0.100   6.114 -0.3769  1.2006  0.4588
 3657SOL    HW314395   4.457   0.097   5.964  2.0273  0.2701  0.0657
 3657SOL    MW414396   4.430   0.118   6.044  0.3521  0.0360 -0.3950
 3658SOL     OW14397   6.464   1.702   4.821  0.2361 -0.2247 -1.3091
 3658SOL    HW214398   6.546   1.678   4.863 -0.9565 -1.5901  0.3939
 3658SOL    HW314399   6.430   1.775   4.873 -0.6266 -1.0760 -0.6348
 3658SOL    MW414400   6.470   1.708   4.833 -0.0351 -0.5172 -0.9954
 3659SOL     OW14401   1.971   0.023   3.732 -0.2537  0.2763 -0.1564
 3659SOL    HW214402   2.050  -0.031   3.742  1.1361  2.1330 -0.6537
 3659SOL    HW314403   1.910  -0.012   3.797  0.4215 -2.1109 -0.7001
 3659SOL    MW414404   1.973   0.011   3.742  0.0188  0.2063 -0.2937
 3660SOL     OW14405   1.571   4.866   2.055  0.4715  0.0172  0.4261
 3660SOL    HW214406   1.517   4.816   1.994 -0.7876  1.9302 -0.1222
 3660SOL    HW314407   1.511   4.932   2.090  2.0454  1.1161  1.1134
 3660SOL    MW414408   1.556   4.868   2.051  0.5130  0.4146  0.4445
 3661SOL     OW14409   6.203   4.723   6.285 -0.1100 -0.0652 -0.2947
 3661SOL    HW214410   6.136   4.655   6.280 -0.3068  0.2107 -2.0447
 3661SOL    HW314411   6.185   4.780   6.210  1.6031  0.4667 -0.3484
 3661SOL    MW414412   6.192   4.722   6.274  0.0901  0.0414 -0.5327
 3662SOL     OW14413   2.327   1.245   1.164  0.1806 -0.7628  0.0743
 3662SOL    HW214414   2.324   1.149   1.165 -0.9575 -0.7677 -0.8620
 3662SOL    HW314415   2.324   1.270   1.256 -0.7417 -1.6245  0.2997
 3662SOL    MW414416   2.326   1.236   1.176 -0.0913 -0.8771 -0.0195
 3663SOL     OW14417   0.238   3.072   0.517  0.0451  0.1442  0.5679
 3663SOL    HW214418   0.295   3.093   0.591  2.4975 -0.6658 -0.9457
 3663SOL    HW314419   0.235   2.976   0.516 -0.8988  0.1717  0.2833
 3663SOL    MW414420   0.245   3.062   0.527  0.2441  0.0410  0.3306
 3664SOL     OW14421   5.625   4.964   2.804  0.0300 -0.0789 -0.3274
 3664SOL    HW214422   5.691   4.908   2.843 -0.7067  0.0373  1.1387
 3664SOL    HW314423   5.561   4.904   2.766 -0.4651 -0.2536  0.7465
 3664SOL    MW414424   5.625   4.949   2.804 -0.1325 -0.0866  0.0078
 3665SOL     OW14425   3.679   5.319   3.351  0.1124  0.2250  0.0199
 3665SOL    HW214426   3.759   5.266   3.354  0.4259  0.5657 -1.4991
 3665SOL    HW314427   3.653   5.327   3.443  1.2151 -0.7973  0.4606
 3665SOL    MW414428   3.686   5.313   3.363  0.2993  0.1351 -0.1223
 3666SOL     OW14429   3.786   2.629   1.338 -0.7815 -0.3808 -0.2848
 3666SOL    HW214430   3.838   2.699   1.297  0.2746 -1.3205 -0.5802
 3666SOL    HW314431   3.712   2.618   1.279  0.1365 -0.9302 -1.3708
 3666SOL    MW414432   3.783   2.637   1.325 -0.5210 -0.5772 -0.4671
 3667SOL     OW14433   6.456   0.709   4.692  0.1757  0.2592 -0.2272
 3667SOL    HW214434   6.407   0.658   4.627  0.8940 -1.2950  0.4181
 3667SOL    HW314435   6.406   0.698   4.773 -0.0251  1.1470 -0.2233
 3667SOL    MW414436   6.443   0.701   4.694  0.2440  0.1713 -0.1415
 3668SOL     OW14437   1.044   5.263   3.856 -0.3429  0.1283 -0.1094
 3668SOL    HW214438   1.022   5.191   3.796  0.5347 -1.1319  1.0128
 3668SOL    HW314439   1.126   5.298   3.820 -1.1477  1.0743 -1.0694
 3668SOL    MW414440   1.052   5.258   3.843 -0.3333  0.0868 -0.0880
 3669SOL     OW14441   3.634   6.424   6.030 -0.1750  0.2654 -0.2658
 3669SOL    HW214442   3.621   6.450   5.939 -1.1748  3.7257  0.7226
 3669SOL    HW314443   3.545   6.423   6.067  0.2867 -0.3246  0.8739
 3669SOL    MW414444   3.620   6.427   6.023 -0.2460  0.6441  0.0150
 3670SOL     OW14445   2.319   5.956   3.637  0.3110  0.0434 -0.2468
 3670SOL    HW214446   2.246   5.985   3.691 -0.2042 -0.6330 -0.5725
 3670SOL    HW314447   2.378   6.031   3.634  1.1187 -0.3802  2.5251
 3670SOL    MW414448   2.317   5.970   3.644  0.3496 -0.1018  0.0760
 3671SOL     OW14449   1.527   1.075   3.032 -0.4718  0.7120 -0.0668
 3671SOL    HW214450   1.571   1.133   2.970  1.2337  1.1481  1.4923
 3671SOL    HW314451   1.485   1.134   3.095 -1.3347  0.2697 -0.2175
 3671SOL    MW414452   1.527   1.090   3.032 -0.3607  0.7112  0.1190
 3672SOL     OW14453   2.309   2.191   4.997 -0.5412  0.5872 -0.0614
 3672SOL    HW214454   2.228   2.145   4.975 -0.4008  0.6472 -0.7383
 3672SOL    HW314455   2.345   2.144   5.072 -2.0786  1.5895  1.3680
 3672SOL    MW414456   2.303   2.179   5.004 -0.7255  0.7273  0.0379
 3673SOL     OW14457   4.374   1.733   4.664  0.2884  0.1038  0.4258
 3673SOL    HW214458   4.427   1.733   4.744  1.6895  1.7422 -0.4467
 3673SOL    HW314459   4.438   1.725   4.593 -0.6006  2.1057 -0.6647
 3673SOL    MW414460   4.390   1.732   4.665  0.3559  0.5841  0.1668
 3674SOL     OW14461   4.475   2.638   0.636  0.2200 -0.2907  0.4406
 3674SOL    HW214462   4.390   2.670   0.666 -0.7239 -1.7201 -0.6290
 3674SOL    HW314463   4.457   2.591   0.555  1.9538 -1.0981  0.4667
 3674SOL    MW414464   4.462   2.636   0.630  0.3242 -0.5858  0.3029
 3675SOL     OW14465   2.823   0.440   1.328 -0.4660  0.0279 -0.5556
 3675SOL    HW214466   2.887   0.386   1.375 -1.9718 -1.3188  0.0375
 3675SOL    HW314467   2.759   0.466   1.394 -0.7006  1.1299 -1.1815
 3675SOL    MW414468   2.823   0.436   1.343 -0.6956 -0.0044 -0.5599
 3676SOL     OW14469   3.680   4.500   4.228 -0.3485  0.1146 -0.1975
 3676SOL    HW214470   3.679   4.539   4.315  0.9886 -0.3555  0.0426
 3676SOL    HW314471   3.711   4.570   4.171 -2.0844  0.7120 -0.4814
 3676SOL    MW414472   3.684   4.514   4.232 -0.4011  0.1314 -0.2033
 3677SOL     OW14473   2.975   3.671   2.908 -0.6045  0.3742  0.2954
 3677SOL    HW214474   3.008   3.743   2.962 -0.3752 -0.7112  1.6851
 3677SOL    HW314475   3.037   3.665   2.835  0.8351  0.0303  1.4882
 3677SOL    MW414476   2.988   3.680   2.906 -0.3843  0.1856  0.6362
 3678SOL     OW14477   0.565   5.705   5.193  0.0266  0.3532 -0.1277
 3678SOL    HW214478   0.540   5.659   5.274  1.2457 -0.6431 -0.2911
 3678SOL    HW314479   0.522   5.791   5.200 -2.8927 -0.9915 -0.1267
 3678SOL    MW414480   0.556   5.711   5.205 -0.1977  0.0443 -0.1492
 3679SOL     OW14481   1.106   1.993   3.118 -0.1426 -0.5659 -0.2582
 3679SOL    HW214482   1.104   2.031   3.030  0.0055 -0.0663 -0.0515
 3679SOL    HW314483   1.062   2.058   3.172 -1.1799 -1.3420 -0.1357
 3679SOL    MW414484   1.100   2.007   3.113 -0.2599 -0.6024 -0.2148
 3680SOL     OW14485   2.572   3.430   0.029  0.0718  0.0871  0.4848
 3680SOL    HW214486   2.541   3.504   0.080  1.9643  0.0184  1.8322
 3680SOL    HW314487   2.665   3.447   0.015  0.1462 -1.1362 -0.8151
 3680SOL    MW414488   2.580   3.442   0.034  0.3313 -0.0834  0.4911
 3681SOL     OW14489   0.489   1.379   5.073  0.2447  0.5909 -0.0039
 3681SOL    HW214490   0.399   1.363   5.044  0.5100  0.5180 -0.8180
 3681SOL    HW314491   0.492   1.345   5.163 -0.5013  0.4684 -0.0211
 3681SOL    MW414492   0.477   1.372   5.081  0.1813  0.5651 -0.1135
 3682SOL     OW14493   2.248   4.885   1.496 -0.0498 -0.4790  0.6906
 3682SOL    HW214494   2.209   4.972   1.492  0.5021 -0.2231  0.6845
 3682SOL    HW314495   2.174   4.825   1.497 -0.4241 -0.0304  0.1028
 3682SOL    MW414496   2.233   4.889   1.496 -0.0264 -0.3860  0.6123
 3683SOL     OW14497   1.420   1.092   0.259  0.1688  0.2053 -0.2895
 3683SOL    HW214498   1.339   1.060   0.220  0.1244  1.4468 -1.2649
 3683SOL    HW314499   1.467   1.013   0.285 -1.5626 -0.5430  0.7860
 3683SOL    MW414500   1.415   1.077   0.258 -0.0655  0.2704 -0.2763
 3684SOL     OW14501   4.421   3.119   5.756 -0.2276 -0.2030 -0.1124
 3684SOL    HW214502   4.334   3.150   5.730 -0.4410 -1.8825 -1.5759
 3684SOL    HW314503   4.414   3.024   5.756  1.4033 -0.3594  0.5632
 3684SOL    MW414504   4.409   3.111   5.753 -0.0406 -0.4452 -0.2163
 3685SOL     OW14505   3.839   5.644   4.144  0.2904 -0.0942  0.5364
 3685SOL    HW214506   3.926   5.610   4.163  1.1921  2.3672  1.2103
 3685SOL    HW314507   3.816   5.696   4.221 -1.8257 -0.6952  0.3883
 3685SOL    MW414508   3.847   5.647   4.157  0.1302  0.1512  0.6058
 3686SOL     OW14509   1.153   4.519   3.012 -0.0107  0.2966 -0.3646
 3686SOL    HW214510   1.068   4.534   3.054  0.2920  0.8855  0.0452
 3686SOL    HW314511   1.208   4.592   3.041  1.1659 -0.9834  0.7261
 3686SOL    MW414512   1.149   4.531   3.021  0.1845  0.2055 -0.1666
 3687SOL     OW14513   0.041   4.245   5.310  0.1306 -0.2822 -0.2304
 3687SOL    HW214514   0.086   4.281   5.233  0.6326  1.7376  0.9457
 3687SOL    HW314515   0.084   4.161   5.325 -0.7446 -1.2973 -2.7867
 3687SOL    MW414516   0.053   4.239   5.302  0.0814 -0.1496 -0.4125
 3688SOL     OW14517   0.460   0.259   3.020  0.0697 -0.7810 -0.1598
 3688SOL    HW214518   0.528   0.193   3.004 -0.1679 -0.9840 -0.3462
 3688SOL    HW314519   0.488   0.335   2.970 -0.5123 -1.3090 -1.3172
 3688SOL    MW414520   0.473   0.260   3.011 -0.0384 -0.8774 -0.3371
 3689SOL     OW14521   0.949   0.453   4.047  0.0937 -0.1786 -0.3588
 3689SOL    HW214522   0.904   0.379   4.087 -2.5632  0.3939 -2.0041
 3689SOL    HW314523   0.942   0.523   4.112 -0.4233 -0.4430 -0.1242
 3689SOL    MW414524   0.942   0.453   4.061 -0.3250 -0.1380 -0.5449
 3690SOL     OW14525   1.616   0.485   4.165  0.4080  0.3964 -0.0370
 3690SOL    HW214526   1.542   0.543   4.145  0.6934  0.9929  0.5891
 3690SOL    HW314527   1.578   0.417   4.220  0.1163  0.1131 -0.5831
 3690SOL    MW414528   1.601   0.484   4.170  0.4072  0.4378 -0.0264
 3691SOL     OW14529   3.916   2.196   0.751 -0.1477 -0.5677 -0.3558
 3691SOL    HW214530   3.866   2.158   0.679  1.2127 -1.1212 -1.0501
 3691SOL    HW314531   3.944   2.281   0.718 -1.3327  0.1437  0.3719
 3691SOL    MW414532   3.913   2.202   0.738 -0.1246 -0.5469 -0.3514
 3692SOL     OW14533   3.484   3.405   0.895  0.5333  0.0092 -0.3996
 3692SOL    HW214534   3.399   3.418   0.853 -1.4146 -0.8960  2.9196
 3692SOL    HW314535   3.543   3.461   0.845 -1.7540  0.0746 -3.3709
 3692SOL    MW414536   3.480   3.414   0.883 -0.0255 -0.1016 -0.3537
 3693SOL     OW14537   3.389   0.036   1.658 -0.9570  0.2313  0.6393
 3693SOL    HW214538   3.319  -0.001   1.603  0.1656 -0.6932 -0.2150
 3693SOL    HW314539   3.412  -0.035   1.717 -0.9842  0.6640  1.1781
 3693SOL    MW414540   3.383   0.022   1.658 -0.8124  0.1664  0.5977
 3694SOL     OW14541   0.403   1.979   2.850 -0.2662 -0.3377  0.7394
 3694SOL    HW214542   0.312   1.978   2.878 -0.4232  0.2505  0.2791
 3694SOL    HW314543   0.430   1.887   2.853 -1.2860 -0.7032 -0.4196
 3694SOL    MW414544   0.394   1.967   2.854 -0.4214 -0.3083  0.5258
 3695SOL     OW14545   5.006   3.777   1.612 -0.3385  0.2775  0.5480
 3695SOL    HW214546   5.057   3.822   1.545  0.8176 -1.2848  0.3294
 3695SOL    HW314547   5.071   3.736   1.669 -1.3203 -1.1920  0.6718
 3695SOL    MW414548   5.021   3.777   1.611 -0.3155 -0.1225  0.5355
 3696SOL     OW14549   0.107   0.008   1.989 -0.0221  0.2951  0.2830
 3696SOL    HW214550   0.145  -0.041   1.916 -0.2105 -2.3959  1.8939
 3696SOL    HW314551   0.048   0.071   1.947  4.5000  3.4818 -2.2645
 3696SOL    MW414552   0.104   0.010   1.974  0.5497  0.3605  0.1594
 3697SOL     OW14553   0.146   0.676   1.075  0.4521  0.4250 -0.6641
 3697SOL    HW214554   0.098   0.718   1.003 -1.4751 -0.2052  0.1789
 3697SOL    HW314555   0.177   0.749   1.129 -1.4929  0.8715 -0.0693
 3697SOL    MW414556   0.143   0.691   1.073 -0.0588  0.4008 -0.4744
 3698SOL     OW14557   1.782   5.276   2.086  0.7704 -0.1570  0.2250
 3698SOL    HW214558   1.728   5.253   2.011  1.5471 -0.8436 -0.1372
 3698SOL    HW314559   1.812   5.191   2.121 -1.5930 -0.0681  2.8639
 3698SOL    MW414560   1.779   5.261   2.081  0.5610 -0.2358  0.5254
 3699SOL     OW14561   4.487   3.583   1.611  0.1290 -0.0831  0.6612
 3699SOL    HW214562   4.407   3.544   1.575 -0.0585 -0.2975  1.2953
 3699SOL    HW314563   4.523   3.635   1.539 -1.3006  1.1214  0.7674
 3699SOL    MW414564   4.481   3.585   1.596 -0.0844  0.0475  0.7589
 3700SOL     OW14565   4.449   0.504   0.069  0.1881 -0.0353  0.1377
 3700SOL    HW214566   4.354   0.501   0.057  0.2155  2.4265 -1.1452
 3700SOL    HW314567   4.464   0.579   0.126  1.4286  0.2200 -0.4997
 3700SOL    MW414568   4.438   0.513   0.075  0.3554  0.3232 -0.1157
 3701SOL     OW14569   2.719   5.840   0.973 -0.3529 -0.0430  0.0666
 3701SOL    HW214570   2.664   5.911   1.005  1.3972  2.0804 -1.3259
 3701SOL    HW314571   2.672   5.807   0.896 -1.4628 -0.8506  1.0597
 3701SOL    MW414572   2.705   5.845   0.967 -0.2685  0.1306  0.0139
 3702SOL     OW14573   5.121   0.760   4.249  0.5737 -0.3533 -0.1307
 3702SOL    HW214574   5.185   0.691   4.267  0.2131 -0.8166 -0.6155
 3702SOL    HW314575   5.168   0.821   4.192  1.1114  0.1617  0.8354
 3702SOL    MW414576   5.136   0.759   4.244  0.5971 -0.3465 -0.0672
 3703SOL     OW14577   5.242   5.551   1.569  0.4686  0.1266  0.1896
 3703SOL    HW214578   5.204   5.581   1.486 -0.1097  0.3176  0.5128
 3703SOL    HW314579   5.167   5.547   1.629  0.4630 -2.1044  0.1403
 3703SOL    MW414580   5.227   5.554   1.566  0.3916 -0.1425  0.2258
 3704SOL     OW14581   5.863   1.769   0.699  0.6255 -0.4147  0.4989
 3704SOL    HW214582   5.887   1.837   0.637  1.2505 -1.5819 -0.5804
 3704SOL    HW314583   5.768   1.760   0.691  0.7636 -0.9142 -0.6830
 3704SOL    MW414584   5.854   1.777   0.690  0.7262 -0.6346  0.2005
 3705SOL     OW14585   4.872   5.649   4.644  0.3522  0.0449  0.3861
 3705SOL    HW214586   4.807   5.699   4.596  0.2288 -0.2807  0.2078
 3705SOL    HW314587   4.820   5.593   4.703  0.4518 -0.4686 -0.0067
 3705SOL    MW414588   4.856   5.648   4.646  0.3490 -0.0658  0.3108
 3706SOL     OW14589   0.882   3.206   5.224  0.4783  0.2141  0.4264
 3706SOL    HW214590   0.925   3.133   5.268  0.3757  0.5131  1.0331
 3706SOL    HW314591   0.952   3.252   5.179  0.8964  0.9767  1.7982
 3706SOL    MW414592   0.897   3.202   5.224  0.5200  0.3542  0.6875
 3707SOL     OW14593   0.556   4.985   5.216 -0.0508 -0.3303  0.3541
 3707SOL    HW214594   0.476   5.029   5.187  0.8531  2.0059  1.1348
 3707SOL    HW314595   0.577   4.925   5.145 -1.2182  0.7556 -0.9731
 3707SOL    MW414596   0.549   4.983   5.203 -0.0855  0.1212  0.2820
 3708SOL     OW14597   0.515   2.326   5.101 -0.0801  0.4636  0.0100
 3708SOL    HW214598   0.448   2.274   5.056 -0.1595 -2.1103  2.7203
 3708SOL    HW314599   0.588   2.265   5.112  1.0418  1.9003  0.7543
 3708SOL    MW414600   0.516   2.311   5.097  0.0574  0.3136  0.4658
 3709SOL     OW14601   0.888   4.283   5.426 -0.1290  1.1934  0.1953
 3709SOL    HW214602   0.972   4.312   5.462  0.2137  0.1964  0.2304
 3709SOL    HW314603   0.847   4.235   5.498 -0.7322  1.6491  0.1673
 3709SOL    MW414604   0.894   4.281   5.441 -0.1634  1.1220  0.1963
 3710SOL     OW14605   5.212   5.625   6.145  0.3836  0.3470  0.1316
 3710SOL    HW214606   5.118   5.642   6.134  0.5921  1.6915  0.2136
 3710SOL    HW314607   5.230   5.550   6.088 -0.3656  1.2821 -1.4115
 3710SOL    MW414608   5.202   5.617   6.136  0.3123  0.6478 -0.0612
 3711SOL     OW14609   2.854   4.744   0.084 -0.3421  0.5494 -0.1072
 3711SOL    HW214610   2.886   4.762   0.172 -1.5594 -0.7249  0.6366
 3711SOL    HW314611   2.798   4.818   0.063  1.6483  1.9486 -0.7381
 3711SOL    MW414612   2.851   4.756   0.093 -0.2401  0.5659 -0.0923
 3712SOL     OW14613   4.923   2.774   6.388  0.1567  0.8227  0.3350
 3712SOL    HW214614   4.859   2.704   6.405  0.8375  0.2141  0.4776
 3712SOL    HW314615   4.924   2.826   6.468 -0.3361  0.9896  0.2386
 3712SOL    MW414616   4.914   2.771   6.401  0.1815  0.7644  0.3411
 3713SOL     OW14617   2.413   2.535   2.036  0.8021  0.8474 -0.1615
 3713SOL    HW214618   2.412   2.494   2.123  0.5497  2.8839  0.8394
 3713SOL    HW314619   2.374   2.621   2.049 -2.0281  0.1496 -2.9028
 3713SOL    MW414620   2.408   2.541   2.049  0.3954  1.0240 -0.3911
 3714SOL     OW14621   4.033   5.525   6.393  0.3115 -0.0014  0.1073
 3714SOL    HW214622   3.974   5.569   6.332  0.0397  0.9244  1.0277
 3714SOL    HW314623   4.093   5.593   6.422 -0.2396 -0.1642  1.7007
 3714SOL    MW414624   4.033   5.540   6.388  0.2029  0.0993  0.4389
 3715SOL     OW14625   6.297   4.792   2.590  0.2398 -0.2310 -0.0926
 3715SOL    HW214626   6.341   4.872   2.619 -1.3362  0.6746 -0.0871
 3715SOL    HW314627   6.213   4.822   2.556 -0.4600 -1.9136  0.0572
 3715SOL    MW414628   6.292   4.807   2.589 -0.0605 -0.3335 -0.0721
 3716SOL     OW14629   0.383   3.110   2.675 -0.2462  0.4463  0.3122
 3716SOL    HW214630   0.420   3.026   2.705 -0.9795 -0.2220 -0.6118
 3716SOL    HW314631   0.322   3.086   2.606  1.2013  1.9128 -1.5936
 3716SOL    MW414632   0.380   3.096   2.670 -0.1520  0.5516 -0.0611
 3717SOL     OW14633   1.419   2.538   3.800  0.5855  0.1924 -0.0995
 3717SOL    HW214634   1.389   2.456   3.760 -0.3198  0.0204  0.8785
 3717SOL    HW314635   1.381   2.607   3.746 -1.7881 -0.0191  1.1800
 3717SOL    MW414636   1.410   2.536   3.787  0.1529  0.1418  0.1984
 3718SOL     OW14637   1.220   3.048   4.304 -0.3590 -1.0488  0.1483
 3718SOL    HW214638   1.199   3.000   4.224 -2.2126 -0.6818  0.3802
 3718SOL    HW314639   1.208   2.984   4.374 -1.2703 -0.7037  0.3234
 3718SOL    MW414640   1.216   3.033   4.302 -0.7238 -0.9549  0.2020
 3719SOL     OW14641   6.455   5.142   3.399  0.1166 -0.5051 -0.9048
 3719SOL    HW214642   6.448   5.050   3.422 -1.5839  0.3935  2.8750
 3719SOL    HW314643   6.541   5.169   3.430 -0.1983 -0.3830 -0.1331
 3719SOL    MW414644   6.465   5.133   3.406 -0.1493 -0.3704 -0.3042
 3720SOL     OW14645   2.042   1.531   5.983  0.2984 -0.1251 -0.5762
 3720SOL    HW214646   1.953   1.536   5.948  0.3541 -0.5070 -0.7771
 3720SOL    HW314647   2.072   1.443   5.962  0.2170 -0.4887  0.7297
 3720SOL    MW414648   2.035   1.520   5.976  0.2950 -0.2234 -0.4304
 3721SOL     OW14649   0.557   0.738   4.272  0.0285  0.4252  0.6560
 3721SOL    HW214650   0.586   0.761   4.183 -0.2058  1.3047  0.7908
 3721SOL    HW314651   0.462   0.747   4.269 -0.1304 -1.0209  0.6066
 3721SOL    MW414652   0.549   0.742   4.260 -0.0234  0.3504  0.6673
 3722SOL     OW14653   5.846   0.160   4.061  0.1942 -0.1481 -0.7681
 3722SOL    HW214654   5.892   0.118   3.988 -0.2042 -2.3797  0.2100
 3722SOL    HW314655   5.914   0.178   4.125 -0.0563 -2.4505  0.2166
 3722SOL    MW414656   5.861   0.157   4.060  0.1086 -0.7463 -0.5091
 3723SOL     OW14657   1.577   2.327   5.508 -0.6262  0.1181 -0.2330
 3723SOL    HW214658   1.603   2.285   5.590  0.3193  0.9161 -0.1052
 3723SOL    HW314659   1.507   2.387   5.533  1.5623  2.4915  0.5614
 3723SOL    MW414660   1.571   2.329   5.522 -0.2127  0.5365 -0.1113
 3724SOL     OW14661   2.864   3.853   5.311  0.2065 -0.5821 -0.1118
 3724SOL    HW214662   2.881   3.912   5.238 -1.4976  1.0959  0.7651
 3724SOL    HW314663   2.841   3.770   5.270 -0.2799  0.2005 -1.4589
 3724SOL    MW414664   2.864   3.850   5.296 -0.0825 -0.2574 -0.1739
 3725SOL     OW14665   2.845   4.522   3.143  0.4047  0.6832 -0.1986
 3725SOL    HW214666   2.926   4.471   3.146 -0.3109 -0.4572  1.7371
 3725SOL    HW314667   2.827   4.532   3.050 -0.0412 -3.8002 -0.8269
 3725SOL    MW414668   2.853   4.517   3.131  0.2515 -0.0588 -0.0261
 3726SOL     OW14669   3.486   5.865   3.344 -0.4185 -0.1900  0.2912
 3726SOL    HW214670   3.527   5.843   3.260 -0.1787 -0.3102  0.4391
 3726SOL    HW314671   3.517   5.797   3.404 -2.7819 -1.7667 -0.1488
 3726SOL    MW414672   3.496   5.853   3.341 -0.6987 -0.4139  0.2527
 3727SOL     OW14673   4.917   6.101   4.434 -0.1167  0.4436 -0.3419
 3727SOL    HW214674   4.825   6.077   4.422 -0.5845  1.3191  1.1939
 3727SOL    HW314675   4.929   6.178   4.378 -0.7606  1.2080  0.5248
 3727SOL    MW414676   4.907   6.108   4.425 -0.2634  0.6600 -0.0249
 3728SOL     OW14677   2.100   3.596   1.764  0.2484 -0.0765  0.1807
 3728SOL    HW214678   2.030   3.537   1.791 -2.1460  2.3741 -0.1772
 3728SOL    HW314679   2.123   3.568   1.676 -2.1564  0.4984 -0.7164
 3728SOL    MW414680   2.094   3.585   1.756 -0.3848  0.3227  0.0152
 3729SOL     OW14681   1.529   6.235   2.618  0.0688  0.3955 -0.0287
 3729SOL    HW214682   1.596   6.283   2.667  0.3214  2.2826 -2.0685
 3729SOL    HW314683   1.523   6.281   2.534 -0.5476 -2.4405 -1.6917
 3729SOL    MW414684   1.537   6.247   2.613  0.0208  0.2703 -0.5172
 3730SOL     OW14685   0.446   1.437   0.572 -0.1374 -0.1077  0.0225
 3730SOL    HW214686   0.411   1.413   0.485 -2.2807 -2.8360  1.4603
 3730SOL    HW314687   0.525   1.383   0.581  0.6734  0.9491 -0.5879
 3730SOL    MW414688   0.452   1.427   0.561 -0.3132 -0.3282  0.1317
 3731SOL     OW14689   3.790   0.839   4.475 -0.5735 -0.4298 -0.1231
 3731SOL    HW214690   3.730   0.913   4.481  0.6400  0.4675  2.3340
 3731SOL    HW314691   3.876   0.876   4.495  0.0022 -2.5600  1.7598
 3731SOL    MW414692   3.794   0.854   4.478 -0.3374 -0.5924  0.4495
 3732SOL     OW14693   3.186   4.195   0.142 -0.2533  0.1780 -0.9212
 3732SOL    HW214694   3.193   4.269   0.202  1.0882 -1.6159  1.2966
 3732SOL    HW314695   3.269   4.196   0.094  0.7495 -1.0775  0.6864
 3732SOL    MW414696   3.198   4.205   0.144  0.0560 -0.2243 -0.4165
 3733SOL     OW14697   1.484   2.956   3.221  0.1967 -0.5950 -0.7973
 3733SOL    HW214698   1.540   2.883   3.195 -0.3530 -0.4596 -2.4878
 3733SOL    HW314699   1.395   2.927   3.198 -0.3391 -0.3818  0.8624
 3733SOL    MW414700   1.479   2.942   3.215  0.0535 -0.5490 -0.8014
 3734SOL     OW14701   5.426   6.165   3.507 -0.4511 -0.8050  0.1365
 3734SOL    HW214702   5.334   6.190   3.497 -0.4965 -1.0236 -0.0197
 3734SOL    HW314703   5.475   6.245   3.490 -0.6086 -0.7254  0.0569
 3734SOL    MW414704   5.420   6.179   3.503 -0.4779 -0.8233  0.1054
 3735SOL     OW14705   6.161   5.284   4.612 -0.0841  0.6494  0.0721
 3735SOL    HW214706   6.083   5.320   4.652 -0.2329  0.2296  0.1668
 3735SOL    HW314707   6.145   5.288   4.518 -0.2160  0.5758  0.0915
 3735SOL    MW414708   6.149   5.289   4.605 -0.1211  0.5843  0.0871
 3736SOL     OW14709   1.001   2.633   4.745  0.5206 -0.2313  0.0374
 3736SOL    HW214710   0.934   2.702   4.747  0.1358 -0.5383 -1.2676
 3736SOL    HW314711   0.982   2.578   4.821 -0.3290  0.0374  0.0278
 3736SOL    MW414712   0.989   2.635   4.755  0.3577 -0.2364 -0.1360
 3737SOL     OW14713   2.198   2.957   4.025 -0.5092  0.2398 -0.6768
 3737SOL    HW214714   2.220   2.870   4.059 -0.2868  0.1710 -0.9880
 3737SOL    HW314715   2.259   3.016   4.069 -1.4315  0.4045  0.4195
 3737SOL    MW414716   2.209   2.953   4.035 -0.6016  0.2524 -0.5732
 3738SOL     OW14717   1.507   0.529   4.816 -0.1646 -0.1545 -1.1514
 3738SOL    HW214718   1.439   0.464   4.831  1.2753 -1.3003  0.7770
 3738SOL    HW314719   1.589   0.484   4.834  0.8757  2.3589  1.1330
 3738SOL    MW414720   1.509   0.515   4.820  0.1626  0.0259 -0.5956
 3739SOL     OW14721   2.275   4.073   0.633 -0.2064 -0.2098 -0.4728
 3739SOL    HW214722   2.288   4.121   0.715 -1.7403 -0.9550  0.2502
 3739SOL    HW314723   2.297   3.982   0.655 -1.6096 -0.5999 -0.5692
 3739SOL    MW414724   2.280   4.067   0.647 -0.5939 -0.3596 -0.3901
 3740SOL     OW14725   6.079   6.153   2.969 -0.0168 -0.0562  0.1585
 3740SOL    HW214726   6.165   6.191   2.950 -1.0184  2.1650 -0.2758
 3740SOL    HW314727   6.084   6.063   2.936  2.3547 -0.2288  0.8303
 3740SOL    MW414728   6.091   6.146   2.962  0.1639  0.2141  0.1898
 3741SOL     OW14729   4.101   4.056   2.700  0.2127 -0.4154  0.1736
 3741SOL    HW214730   4.040   4.115   2.744 -0.9690 -0.2857 -1.5352
 3741SOL    HW314731   4.046   3.988   2.662  0.9942  0.0165 -1.8989
 3741SOL    MW414732   4.086   4.055   2.701  0.1599 -0.3413 -0.3253
 3742SOL     OW14733   1.734   1.063   4.698 -0.1147  0.2990  0.0053
 3742SOL    HW214734   1.639   1.060   4.702 -0.6132  2.7885 -3.8727
 3742SOL    HW314735   1.757   0.999   4.631  0.9736 -0.3041  0.9326
 3742SOL    MW414736   1.725   1.054   4.689 -0.0369  0.5479 -0.3840
 3743SOL     OW14737   2.211   3.433   0.232  0.1522 -0.0990 -0.3641
 3743SOL    HW214738   2.164   3.371   0.288  0.9682 -0.1094  0.3280
 3743SOL    HW314739   2.225   3.510   0.288  0.5226  0.0951 -0.7140
 3743SOL    MW414740   2.207   3.435   0.247  0.3087 -0.0747 -0.3190
 3744SOL     OW14741   2.908   6.077   5.511  0.3961 -0.2191  0.6133
 3744SOL    HW214742   2.923   6.124   5.593  1.4070  0.3154  0.1339
 3744SOL    HW314743   2.984   6.020   5.501 -0.9258 -2.2381  1.3306
 3744SOL    MW414744   2.920   6.075   5.520  0.3551 -0.4149  0.6446
 3745SOL     OW14745   3.038   2.952   0.403  0.4386 -0.3718 -0.2338
 3745SOL    HW214746   3.027   2.903   0.321  0.8143  0.3475 -0.7224
 3745SOL    HW314747   3.121   2.919   0.439  0.0447 -1.0215  0.1009
 3745SOL    MW414748   3.048   2.941   0.397  0.4362 -0.3626 -0.2541
 3746SOL     OW14749   2.670   2.598   5.390 -0.0026  0.4073  0.3284
 3746SOL    HW214750   2.668   2.530   5.323  0.7856  1.0507 -0.3546
 3746SOL    HW314751   2.623   2.559   5.464 -2.8119  0.4545 -1.2930
 3746SOL    MW414752   2.663   2.584   5.391 -0.2693  0.4984  0.0243
 3747SOL     OW14753   1.960   0.717   0.068  0.0399 -0.1053  0.0401
 3747SOL    HW214754   1.916   0.635   0.047 -1.7285  1.2896 -2.1192
 3747SOL    HW314755   1.903   0.760   0.132 -0.3819  0.5533 -0.7689
 3747SOL    MW414756   1.947   0.712   0.074 -0.2491  0.1656 -0.3515
 3748SOL     OW14757   4.428   0.279   2.584 -0.0368  0.2014 -0.0461
 3748SOL    HW214758   4.413   0.349   2.520  1.3211 -0.8320 -1.5686
 3748SOL    HW314759   4.509   0.304   2.629  0.4778 -0.3902 -0.6263
 3748SOL    MW414760   4.437   0.291   2.581  0.2103 -0.0130 -0.3235
 3749SOL     OW14761   6.054   4.349   3.523 -0.1194  0.2248  0.4693
 3749SOL    HW214762   6.041   4.428   3.471  0.5331  0.6394  0.9236
 3749SOL    HW314763   6.059   4.278   3.458  1.5243  0.8302 -0.1198
 3749SOL    MW414764   6.053   4.350   3.508  0.1835  0.3594  0.4515
 3750SOL     OW14765   3.924   0.793   3.821  0.3267 -0.2761  0.4018
 3750SOL    HW214766   3.970   0.826   3.744 -0.3008 -0.2673  0.0298
 3750SOL    HW314767   3.989   0.738   3.865  0.4999 -0.7867 -0.4626
 3750SOL    MW414768   3.939   0.790   3.817  0.2667 -0.3423  0.2386
 3751SOL     OW14769   6.405   6.056   2.740  0.3021  0.0843 -0.4713
 3751SOL    HW214770   6.400   6.043   2.835  0.1853  0.7230 -0.3841
 3751SOL    HW314771   6.315   6.079   2.714  0.5780  1.1168 -0.5422
 3751SOL    MW414772   6.392   6.057   2.749  0.3231  0.3048 -0.4691
 3752SOL     OW14773   0.166   2.620   1.662 -0.0060 -0.4926  0.4217
 3752SOL    HW214774   0.103   2.685   1.631 -1.4377 -0.8897  2.2887
 3752SOL    HW314775   0.130   2.536   1.635  1.3282 -0.6088 -1.1175
 3752SOL    MW414776   0.153   2.618   1.655 -0.0189 -0.5603  0.4649
 3753SOL     OW14777   1.141   2.124   3.882  0.5849 -0.2308 -0.2036
 3753SOL    HW214778   1.054   2.101   3.848  0.8703  0.4418 -1.4386
 3753SOL    HW314779   1.134   2.217   3.905  1.3906  0.2411 -1.7507
 3753SOL    MW414780   1.128   2.133   3.881  0.7289 -0.0798 -0.5707
 3754SOL     OW14781   0.069   0.170   0.042  0.0513  0.3859 -0.4791
 3754SOL    HW214782   0.036   0.242   0.096 -1.9414 -1.0727  0.3927
 3754SOL    HW314783   0.009   0.166  -0.032 -1.6141 -1.9864  0.8600
 3754SOL    MW414784   0.056   0.179   0.040 -0.4313 -0.1195 -0.1874
 3755SOL     OW14785   6.438   6.240   1.280 -0.1065 -0.5172  0.0835
 3755SOL    HW214786   6.479   6.166   1.325  1.5934  0.2529 -0.1268
 3755SOL    HW314787   6.435   6.213   1.188 -0.5160 -0.7618  0.1662
 3755SOL    MW414788   6.443   6.226   1.274  0.0637 -0.4479  0.0666
 3756SOL     OW14789   2.384   1.034   0.462 -0.2794 -0.0392 -0.2984
 3756SOL    HW214790   2.306   1.012   0.412 -0.4537 -0.4497  0.1519
 3756SOL    HW314791   2.376   1.129   0.477 -1.0281 -0.1932  0.3169
 3756SOL    MW414792   2.373   1.044   0.457 -0.4012 -0.1137 -0.1578
 3757SOL     OW14793   3.766   6.224   4.873 -0.6272  0.2477 -0.4521
 3757SOL    HW214794   3.683   6.179   4.856  0.7602 -3.3720  1.1709
 3757SOL    HW314795   3.829   6.153   4.890  2.6308  2.8080 -0.7023
 3757SOL    MW414796   3.764   6.208   4.873 -0.0143  0.1079 -0.2710
 3758SOL     OW14797   6.461   2.048   4.775 -0.1645 -0.4343  0.8439
 3758SOL    HW214798   6.546   2.014   4.801  1.3157  1.8384 -0.7328
 3758SOL    HW314799   6.466   2.057   4.680 -1.0187  2.4905  0.9740
 3758SOL    MW414800   6.473   2.044   4.766 -0.0819  0.2514  0.6530
 3759SOL     OW14801   2.302   3.544   3.055 -0.2530 -0.4412 -0.1314
 3759SOL    HW214802   2.245   3.540   2.978 -1.0118  1.9916  0.2438
 3759SOL    HW314803   2.332   3.634   3.059  1.5742 -1.0439  1.1939
 3759SOL    MW414804   2.299   3.555   3.045 -0.1120 -0.1997  0.0930
 3760SOL     OW14805   1.309   6.293   1.499  0.0348 -0.1519 -0.3004
 3760SOL    HW214806   1.297   6.200   1.522 -0.5476 -0.3555 -1.3988
 3760SOL    HW314807   1.221   6.325   1.482  0.3112  0.4118 -0.6907
 3760SOL    MW414808   1.296   6.285   1.500 -0.0056 -0.1044 -0.4969
 3761SOL     OW14809   1.502   2.231   5.136 -0.0760  0.1821  0.0696
 3761SOL    HW214810   1.552   2.198   5.211 -2.0024  1.0396  1.8241
 3761SOL    HW314811   1.451   2.155   5.106  1.0656 -0.2911 -0.7423
 3761SOL    MW414812   1.502   2.216   5.142 -0.1795  0.2328  0.1940
 3762SOL     OW14813   4.039   4.941   0.288 -0.4449  0.1318  0.0571
 3762SOL    HW214814   4.021   5.025   0.244 -1.7517 -0.0004  0.3031
 3762SOL    HW314815   4.114   4.960   0.344 -0.5043  1.0559 -0.1474
 3762SOL    MW414816   4.047   4.955   0.289 -0.6251  0.2363  0.0626
 3763SOL     OW14817   5.679   1.208   2.740 -0.1652 -0.0394  0.6746
 3763SOL    HW214818   5.731   1.287   2.755  1.7509 -1.4151  1.5748
 3763SOL    HW314819   5.666   1.170   2.827 -4.0502  0.9847  0.7142
 3763SOL    MW414820   5.684   1.214   2.753 -0.4250 -0.0858  0.7986
 3764SOL     OW14821   4.723   0.199   0.069 -0.2221 -0.2794  0.3506
 3764SOL    HW214822   4.730   0.127   0.131 -2.6140  0.9163  2.1886
 3764SOL    HW314823   4.638   0.187   0.027  0.6064 -0.0783 -1.4881
 3764SOL    MW414824   4.713   0.188   0.072 -0.4283 -0.0951  0.3505
 3765SOL     OW14825   2.766   0.023   5.487  0.0727 -0.4838  0.7033
 3765SOL    HW214826   2.742   0.068   5.406  0.3946  0.6399  1.2103
 3765SOL    HW314827   2.813  -0.055   5.459  0.9071  0.3158 -0.1846
 3765SOL    MW414828   2.769   0.018   5.473  0.2253 -0.2300  0.6530
 3766SOL     OW14829   0.777   4.857   1.395 -0.3706 -0.2371  0.0482
 3766SOL    HW214830   0.773   4.850   1.300 -0.0222 -0.1210  0.0244
 3766SOL    HW314831   0.808   4.947   1.411 -1.0075 -0.0531  0.2782
 3766SOL    MW414832   0.781   4.868   1.385 -0.4086 -0.1975  0.0754
 3767SOL     OW14833   1.932   6.028   0.573  0.5531  0.2283  0.0513
 3767SOL    HW214834   1.838   6.010   0.568  0.6903 -0.7644  0.6394
 3767SOL    HW314835   1.939   6.123   0.572 -0.3185  0.3336 -2.2944
 3767SOL    MW414836   1.921   6.038   0.572  0.4562  0.1112 -0.1806
 3768SOL     OW14837   5.023   5.890   2.745  0.1618  0.7009  0.0422
 3768SOL    HW214838   4.985   5.937   2.819 -1.3793  0.1973 -0.3896
 3768SOL    HW314839   5.039   5.957   2.679  0.7154  1.0220  0.4945
 3768SOL    MW414840   5.020   5.905   2.746  0.0315  0.6768  0.0449
 3769SOL     OW14841   2.381   1.214   0.165 -0.1514  0.1063 -0.1102
 3769SOL    HW214842   2.429   1.132   0.180  1.3258  1.1331  1.0567
 3769SOL    HW314843   2.430   1.257   0.095 -0.3880  0.3877 -0.1034
 3769SOL    MW414844   2.394   1.209   0.158  0.0123  0.2789  0.0447
 3770SOL     OW14845   1.368   5.710   2.868 -0.2793 -0.1690 -0.1253
 3770SOL    HW214846   1.342   5.801   2.884 -1.4545 -0.4264 -0.4419
 3770SOL    HW314847   1.415   5.713   2.785 -0.0647  0.1868  0.0055
 3770SOL    MW414848   1.371   5.722   2.859 -0.4060 -0.1560 -0.1498
 3771SOL     OW14849   0.705   5.053   4.392  0.0125  0.1667  0.2945
 3771SOL    HW214850   0.660   4.988   4.446  0.9213  0.1026  0.9959
 3771SOL    HW314851   0.687   5.136   4.435  1.1989  0.0588  1.0645
 3771SOL    MW414852   0.697   5.055   4.405  0.2890  0.1440  0.4886
 3772SOL     OW14853   3.695   2.087   0.594 -0.1975  0.5648  0.0410
 3772SOL    HW214854   3.712   2.053   0.506 -0.9719  0.9312 -0.2611
 3772SOL    HW314855   3.704   2.182   0.585 -0.0273  0.5872  0.4200
 3772SOL    MW414856   3.699   2.095   0.581 -0.2772  0.6161  0.0512
 3773SOL     OW14857   0.572   1.586   4.814  0.0733 -0.0781 -0.1387
 3773SOL    HW214858   0.644   1.596   4.876 -0.1447 -1.1509  0.3069
 3773SOL    HW314859   0.576   1.494   4.787 -0.6095  0.0631 -0.7628
 3773SOL    MW414860   0.582   1.575   4.819 -0.0456 -0.2010 -0.1622
 3774SOL     OW14861   3.041   3.542   0.954 -0.0115  0.2184 -0.1019
 3774SOL    HW214862   3.072   3.581   1.037 -0.8939 -0.1478  0.4100
 3774SOL    HW314863   3.121   3.523   0.906  0.5676 -0.4871  1.0926
 3774SOL    MW414864   3.056   3.545   0.959 -0.0515  0.0770  0.1232
 3775SOL     OW14865   6.063   5.485   5.934  0.1141  0.6183  0.6177
 3775SOL    HW214866   6.104   5.467   5.849 -0.1178 -0.3121  0.6925
 3775SOL    HW314867   5.969   5.479   5.918  0.0509  0.9735  0.8327
 3775SOL    MW414868   6.056   5.482   5.921  0.0752  0.5424  0.6559
 3776SOL     OW14869   0.377   5.173   4.015  0.6521 -0.1179  0.0902
 3776SOL    HW214870   0.404   5.081   4.025  0.9565 -0.0069  0.3363
 3776SOL    HW314871   0.428   5.219   4.082  1.7786  0.4849 -1.1433
 3776SOL    MW414872   0.387   5.167   4.025  0.8409 -0.0237 -0.0400
 3777SOL     OW14873   2.234   1.082   1.513 -0.0770  0.2721 -0.1692
 3777SOL    HW214874   2.141   1.082   1.532  0.1246 -2.0638  1.1511
 3777SOL    HW314875   2.277   1.097   1.597  0.7637  1.9500 -0.8580
 3777SOL    MW414876   2.227   1.084   1.526  0.0605  0.1853 -0.0859
 3778SOL     OW14877   1.107   1.186   0.418  0.1038  0.1986 -0.0430
 3778SOL    HW214878   1.129   1.149   0.332  0.2746  0.8689 -0.2990
 3778SOL    HW314879   1.081   1.111   0.471  1.0833 -0.3644 -0.3334
 3778SOL    MW414880   1.106   1.171   0.413  0.2555  0.2127 -0.1151
 3779SOL     OW14881   0.205   0.240   3.983  0.3715 -0.4368  0.1298
 3779SOL    HW214882   0.258   0.320   3.975  0.7832 -0.6267  0.8749
 3779SOL    HW314883   0.126   0.267   4.030 -0.1482 -0.1808 -0.8672
 3779SOL    MW414884   0.202   0.254   3.988  0.3572 -0.4281  0.0965
 3780SOL     OW14885   4.308   3.834   5.199  0.5348  0.1462 -0.1900
 3780SOL    HW214886   4.215   3.810   5.199  0.0346  1.8411 -1.7041
 3780SOL    HW314887   4.340   3.807   5.113  0.5741  2.3568 -0.9491
 3780SOL    MW414888   4.300   3.828   5.188  0.4740  0.6615 -0.4900
 3781SOL     OW14889   4.378   3.881   4.278  0.5870 -0.1094  0.3071
 3781SOL    HW214890   4.349   3.905   4.190 -2.2907  1.6239  1.5847
 3781SOL    HW314891   4.421   3.960   4.311 -1.1209  0.4059  1.4555
 3781SOL    MW414892   4.380   3.895   4.270 -0.0180  0.1873  0.6272
 3782SOL     OW14893   4.252   2.361   6.087 -0.5738 -0.1697 -0.3258
 3782SOL    HW214894   4.280   2.273   6.060  0.0284  0.1653 -0.8142
 3782SOL    HW314895   4.297   2.420   6.027 -1.2645  0.4601 -0.2363
 3782SOL    MW414896   4.262   2.357   6.075 -0.5854 -0.0424 -0.3785
 3783SOL     OW14897   2.195   4.709   3.667 -0.3119  0.2644  1.0838
 3783SOL    HW214898   2.205   4.710   3.762  1.0117  0.3752  0.9568
 3783SOL    HW314899   2.273   4.664   3.635 -1.7911 -1.7959  0.1478
 3783SOL    MW414900   2.206   4.703   3.675 -0.3324  0.0072  0.9436
 3784SOL     OW14901   6.059   5.096   1.256 -0.1112  0.5438  0.4956
 3784SOL    HW214902   6.044   5.180   1.213  0.0502  1.0870  1.4681
 3784SOL    HW314903   6.001   5.035   1.211  0.9351  0.7947 -1.3175
 3784SOL    MW414904   6.049   5.099   1.244  0.0482  0.6486  0.3847
 3785SOL     OW14905   2.087   4.326   1.124  0.1619  0.4153 -0.2244
 3785SOL    HW214906   2.142   4.367   1.057 -0.4950  0.9416 -0.4480
 3785SOL    HW314907   2.056   4.398   1.177 -0.4174  0.1382 -0.1781
 3785SOL    MW414908   2.091   4.341   1.122 -0.0012  0.4482 -0.2478
 3786SOL     OW14909   5.161   3.456   6.310 -0.3217 -0.1385  0.1496
 3786SOL    HW214910   5.085   3.422   6.263 -0.4633  1.7645 -1.0890
 3786SOL    HW314911   5.138   3.546   6.331  0.1620 -0.5935  3.0617
 3786SOL    MW414912   5.148   3.463   6.307 -0.2766  0.0525  0.3704
 3787SOL     OW14913   2.990   2.263   3.952 -0.2228  0.5379  0.1219
 3787SOL    HW214914   2.963   2.172   3.966  3.9700 -0.7999  1.2257
 3787SOL    HW314915   3.025   2.264   3.863  1.5189  0.4589  0.7719
 3787SOL    MW414916   2.991   2.251   3.942  0.5602  0.3509  0.3533
 3788SOL     OW14917   3.730   0.474   3.921 -0.2478 -0.4492  0.3989
 3788SOL    HW214918   3.697   0.390   3.889  1.7708 -0.5843 -1.6859
 3788SOL    HW314919   3.826   0.465   3.917  0.0571  1.2109  2.2621
 3788SOL    MW414920   3.738   0.462   3.916  0.0587 -0.2480  0.3697
 3789SOL     OW14921   3.186   0.311   2.237  0.2021  0.1138 -0.3585
 3789SOL    HW214922   3.281   0.294   2.243  0.3741  0.9985 -0.5242
 3789SOL    HW314923   3.159   0.265   2.158  0.5130 -0.0618 -0.3665
 3789SOL    MW414924   3.195   0.302   2.228  0.2658  0.2073 -0.3814
 3790SOL     OW14925   1.343   6.021   1.568 -0.2025 -0.0881 -0.2201
 3790SOL    HW214926   1.435   5.998   1.581  0.6859  2.3679 -1.3951
 3790SOL    HW314927   1.321   5.985   1.482  0.0803  0.3789 -0.4953
 3790SOL    MW414928   1.352   6.014   1.558 -0.0480  0.2975 -0.4115
 3791SOL     OW14929   1.813   5.158   5.625 -0.0052  0.5970 -0.5164
 3791SOL    HW214930   1.874   5.178   5.696  0.0694  1.5917 -0.8574
 3791SOL    HW314931   1.776   5.073   5.650  1.5516 -0.0690 -0.3407
 3791SOL    MW414932   1.816   5.149   5.638  0.2100  0.6404 -0.5382
 3792SOL     OW14933   4.915   0.082   4.679  0.9180 -0.3134 -0.0115
 3792SOL    HW214934   4.845   0.017   4.668 -0.0890  0.4745  1.4025
 3792SOL    HW314935   4.992   0.031   4.702 -0.0689 -1.0243  2.0036
 3792SOL    MW414936   4.916   0.067   4.681  0.6549 -0.3033  0.4409
 3793SOL     OW14937   0.865   4.192   1.532 -0.4961  0.0032  0.0233
 3793SOL    HW214938   0.916   4.216   1.455 -2.5942 -0.3922 -1.5913
 3793SOL    HW314939   0.856   4.273   1.581 -0.8286  0.7531 -1.2276
 3793SOL    MW414940   0.871   4.206   1.528 -0.8168  0.0499 -0.3547
 3794SOL     OW14941   3.341   0.565   0.175  0.1341  0.2360  0.0185
 3794SOL    HW214942   3.332   0.470   0.163  0.9323  0.2382 -0.7280
 3794SOL    HW314943   3.412   0.575   0.238  1.2441  0.3385 -1.1967
 3794SOL    MW414944   3.349   0.554   0.182  0.3858  0.2498 -0.2404
 3795SOL     OW14945   2.375   0.296   3.807 -0.3576  0.0918  0.8889
 3795SOL    HW214946   2.457   0.250   3.828 -0.9507 -0.8587  1.2129
 3795SOL    HW314947   2.403   0.382   3.775  0.9127 -1.0625 -1.3941
 3795SOL    MW414948   2.390   0.301   3.805 -0.2682 -0.1859  0.6304
 3796SOL     OW14949   2.488   3.822   6.060 -0.1834 -0.5760  0.0759
 3796SOL    HW214950   2.526   3.822   6.148  2.1286  0.8633 -0.8269
 3796SOL    HW314951   2.499   3.912   6.029 -0.2092 -1.2305 -1.9817
 3796SOL    MW414952   2.494   3.834   6.067  0.1183 -0.4725 -0.3147
 3797SOL     OW14953   5.097   1.036   4.755 -0.2978  0.0238  0.2551
 3797SOL    HW214954   5.036   1.056   4.683  1.6307  2.1229 -0.9487
 3797SOL    HW314955   5.057   0.962   4.800 -0.9107 -2.5852 -3.9422
 3797SOL    MW414956   5.083   1.029   4.751 -0.1242 -0.0435 -0.4575
 3798SOL     OW14957   5.894   1.829   1.450  0.1041 -0.3820  0.2871
 3798SOL    HW214958   5.961   1.770   1.486  0.6760 -0.5707 -1.0335
 3798SOL    HW314959   5.942   1.907   1.423 -0.2870 -0.2793 -0.1271
 3798SOL    MW414960   5.909   1.831   1.451  0.1280 -0.3933  0.0582
 3799SOL     OW14961   3.459   2.861   3.029 -0.3085  0.3594 -0.8431
 3799SOL    HW214962   3.488   2.929   2.968 -0.5061  0.8864 -0.3619
 3799SOL    HW314963   3.540   2.830   3.070 -0.2429  0.5130 -0.8557
 3799SOL    MW414964   3.474   2.866   3.026 -0.3259  0.4492 -0.7813
 3800SOL     OW14965   1.583   0.585   2.981  0.2834 -0.1812  0.0942
 3800SOL    HW214966   1.660   0.541   2.946 -0.0994  1.2278 -2.9128
 3800SOL    HW314967   1.618   0.658   3.031  0.8616 -1.8418  2.2347
 3800SOL    MW414968   1.598   0.589   2.983  0.3092 -0.2144 -0.0201
 3801SOL     OW14969   2.740   4.605   3.905  1.1025  0.1232 -0.3698
 3801SOL    HW214970   2.826   4.597   3.948  1.7591 -1.2428 -1.8464
 3801SOL    HW314971   2.683   4.545   3.952  1.1742  0.3912  0.0662
 3801SOL    MW414972   2.744   4.596   3.917  1.1986 -0.0217 -0.5071
 3802SOL     OW14973   0.088   4.879   0.989 -0.7783 -0.1919 -0.0014
 3802SOL    HW214974   0.056   4.965   0.961  1.2562  0.5087 -0.3494
 3802SOL    HW314975   0.180   4.878   0.963 -0.8938 -2.7491 -0.5833
 3802SOL    MW414976   0.096   4.890   0.981 -0.5251 -0.4369 -0.1241
 3803SOL     OW14977   2.185   6.275   1.109 -0.0730  0.3705 -0.2561
 3803SOL    HW214978   2.160   6.347   1.052  2.2697  1.1088 -0.4606
 3803SOL    HW314979   2.211   6.205   1.049 -0.0182  0.2263 -0.0658
 3803SOL    MW414980   2.185   6.275   1.093  0.2433  0.4489 -0.2580
 3804SOL     OW14981   4.814   2.808   2.001 -0.6139 -0.4570  0.0138
 3804SOL    HW214982   4.866   2.883   1.973 -0.8068 -0.4087 -0.2064
 3804SOL    HW314983   4.876   2.755   2.052 -0.5202 -0.0714  0.3104
 3804SOL    MW414984   4.829   2.811   2.004 -0.6270 -0.3998  0.0239
 3805SOL     OW14985   4.556   4.634   2.315  0.4188 -0.5304 -0.0402
 3805SOL    HW214986   4.629   4.607   2.260  1.0420 -0.0550  0.5438
 3805SOL    HW314987   4.596   4.665   2.396 -0.0514  3.1156 -0.9778
 3805SOL    MW414988   4.571   4.635   2.318  0.4390  0.0134 -0.0868
 3806SOL     OW14989   6.329   3.331   3.004  0.8277  1.0824  0.0173
 3806SOL    HW214990   6.415   3.367   3.025  0.7731  1.5778 -0.5868
 3806SOL    HW314991   6.287   3.398   2.951  0.1070  0.7960  0.2097
 3806SOL    MW414992   6.335   3.345   3.000  0.7254  1.1100 -0.0370
 3807SOL     OW14993   5.829   5.507   5.412 -0.2770 -0.2120  0.0229
 3807SOL    HW214994   5.778   5.524   5.333  0.0049  0.1199 -0.0885
 3807SOL    HW314995   5.824   5.412   5.423 -0.2742 -0.2673 -0.4238
 3807SOL    MW414996   5.821   5.496   5.403 -0.2394 -0.1755 -0.0507
 3808SOL     OW14997   4.363   0.500   1.576 -0.1434 -0.6016  0.0251
 3808SOL    HW214998   4.365   0.419   1.526 -1.1205  0.0028 -1.0198
 3808SOL    HW314999   4.415   0.562   1.525  0.8355 -0.6158  0.9549
 3808SOL    MW415000   4.370   0.498   1.563 -0.1431 -0.5237  0.0099
 3809SOL     OW15001   1.997   2.556   3.769  0.3064  0.0955 -0.6683
 3809SOL    HW215002   1.993   2.641   3.727  1.3152  0.6247  0.2477
 3809SOL    HW315003   2.082   2.555   3.813 -0.1289 -0.9590  0.2018
 3809SOL    MW415004   2.007   2.567   3.769  0.3820  0.0262 -0.4326
 3810SOL     OW15005   5.670   2.103   2.712 -0.1360 -0.7445 -0.4013
 3810SOL    HW215006   5.697   2.049   2.787  0.9819  0.7168  0.2936
 3810SOL    HW315007   5.701   2.054   2.635  0.1592 -1.4707  0.1622
 3810SOL    MW415008   5.678   2.089   2.712  0.0505 -0.6475 -0.2353
 3811SOL     OW15009   2.078   3.918   4.340  0.0079 -0.0537 -0.4116
 3811SOL    HW215010   2.057   3.836   4.296  0.8175 -0.3143 -0.3450
 3811SOL    HW315011   1.998   3.943   4.386  0.1813 -1.6356  0.8564
 3811SOL    MW415012   2.065   3.910   4.341  0.1376 -0.2968 -0.2355
 3812SOL     OW15013   2.156   1.200   3.692  0.5668  0.6395 -0.0342
 3812SOL    HW215014   2.162   1.106   3.677  4.3725  0.8998 -1.2439
 3812SOL    HW315015   2.117   1.234   3.611  1.7550  0.2869 -0.7795
 3812SOL    MW415016   2.151   1.192   3.679  1.2257  0.6273 -0.2922
 3813SOL     OW15017   0.464   3.741   6.102 -0.5195 -0.3531 -0.1356
 3813SOL    HW215018   0.385   3.791   6.081 -0.3240  0.4812  1.0054
 3813SOL    HW315019   0.463   3.734   6.197  0.4953 -0.8320 -0.1473
 3813SOL    MW415020   0.454   3.747   6.112 -0.3598 -0.3062  0.0134
 3814SOL     OW15021   2.538   4.073   3.606 -0.8626  0.1410  0.2757
 3814SOL    HW215022   2.556   4.110   3.692  2.3720  2.9256 -1.3382
 3814SOL    HW315023   2.606   4.006   3.595 -1.8432 -0.8583  0.2084
 3814SOL    MW415024   2.550   4.069   3.616 -0.5652  0.3766  0.0539
 3815SOL     OW15025   0.090   5.485   0.052  0.5777 -0.6069  0.3984
 3815SOL    HW215026   0.182   5.506   0.035  0.8590  0.1621  2.5179
 3815SOL    HW315027   0.046   5.570   0.052 -0.3329 -1.0397 -1.4287
 3815SOL    MW415028   0.097   5.499   0.050  0.4947 -0.5625  0.4370
 3816SOL     OW15029   0.497   0.729   1.777 -0.2137 -0.1530 -0.5890
 3816SOL    HW215030   0.426   0.771   1.729 -0.4584  0.0287 -0.0602
 3816SOL    HW315031   0.556   0.801   1.801 -0.4837 -0.1436  0.0575
 3816SOL    MW415032   0.496   0.744   1.773 -0.2816 -0.1278 -0.4340
 3817SOL     OW15033   0.216   2.108   0.566  0.7488 -0.5168  0.5985
 3817SOL    HW215034   0.134   2.131   0.522  0.2945 -0.5766  1.3849
 3817SOL    HW315035   0.237   2.185   0.619  0.6307 -0.8993  1.2137
 3817SOL    MW415036   0.208   2.121   0.567  0.6733 -0.5752  0.7834
 3818SOL     OW15037   1.717   4.780   3.963 -0.1828  0.5128  0.6954
 3818SOL    HW215038   1.757   4.708   3.913 -1.7785 -0.7164  1.1095
 3818SOL    HW315039   1.661   4.825   3.900  2.2460  2.7283 -0.0953
 3818SOL    MW415040   1.715   4.776   3.948 -0.0729  0.6429  0.6457
 3819SOL     OW15041   2.241   5.724   2.727  0.0683  0.3386  0.0803
 3819SOL    HW215042   2.213   5.780   2.655 -1.2603 -0.1808  0.1665
 3819SOL    HW315043   2.336   5.727   2.724  0.0314  0.6995 -1.3943
 3819SOL    MW415044   2.250   5.732   2.717 -0.1119  0.3177 -0.1029
 3820SOL     OW15045   0.857   3.190   2.844 -0.4967  0.9182 -0.0856
 3820SOL    HW215046   0.781   3.159   2.794 -1.0039 -0.3122  1.3751
 3820SOL    HW315047   0.926   3.127   2.825  0.5886  2.6169 -2.2581
 3820SOL    MW415048   0.856   3.178   2.835 -0.4204  0.9800 -0.1795
 3821SOL     OW15049   4.165   5.631   5.858 -0.0939  0.0334  0.2549
 3821SOL    HW215050   4.112   5.567   5.906  1.5403 -1.0542  0.6759
 3821SOL    HW315051   4.198   5.583   5.782 -0.0060  0.8117 -0.2128
 3821SOL    MW415052   4.162   5.617   5.854  0.1333 -0.0074  0.2488
 3822SOL     OW15053   3.667   2.109   5.137 -0.0213 -0.1225 -0.5129
 3822SOL    HW215054   3.636   2.046   5.203  0.0169  0.7337  0.3514
 3822SOL    HW315055   3.621   2.086   5.057 -0.6162 -0.7382  0.0026
 3822SOL    MW415056   3.657   2.098   5.136 -0.0948 -0.0908 -0.3309
 3823SOL     OW15057   4.348   5.828   1.373  0.2685 -0.2172  0.1257
 3823SOL    HW215058   4.350   5.856   1.281 -1.5262 -3.1926 -0.9863
 3823SOL    HW315059   4.255   5.824   1.394  0.6613  0.9376  2.3334
 3823SOL    MW415060   4.336   5.831   1.364  0.0835 -0.4574  0.2703
 3824SOL     OW15061   5.008   1.657   3.226  0.2249 -0.5694  0.2590
 3824SOL    HW215062   5.095   1.695   3.240  0.0682 -0.5134  1.1284
 3824SOL    HW315063   4.958   1.680   3.305 -0.4494 -0.9707 -0.0369
 3824SOL    MW415064   5.013   1.665   3.238  0.1152 -0.6150  0.3347
 3825SOL     OW15065   2.641   3.319   1.937  0.1577  0.5230  0.0522
 3825SOL    HW215066   2.585   3.337   2.013 -0.1587 -1.9112  0.4721
 3825SOL    HW315067   2.716   3.271   1.973  1.8606  2.4739 -0.7187
 3825SOL    MW415068   2.643   3.315   1.952  0.3406  0.4592  0.0059
 3826SOL     OW15069   4.663   5.220   2.932  0.0688  0.3134 -0.4306
 3826SOL    HW215070   4.584   5.191   2.886  1.3592 -3.0086 -0.8304
 3826SOL    HW315071   4.729   5.230   2.864  1.2836 -2.0361  0.2843
 3826SOL    MW415072   4.661   5.218   2.917  0.3994 -0.4349 -0.3890
 3827SOL     OW15073   2.001   4.887   3.974  0.2391 -0.2140  0.7022
 3827SOL    HW215074   1.914   4.866   3.938  0.6198 -0.2918 -0.1864
 3827SOL    HW315075   1.982   4.922   4.061 -0.6671 -0.5431  0.6543
 3827SOL    MW415076   1.987   4.889   3.981  0.1698 -0.2677  0.5787
 3828SOL     OW15077   4.228   3.509   4.852  0.0926  0.0007  0.0578
 3828SOL    HW215078   4.200   3.477   4.938  0.8877 -0.2027  0.2534
 3828SOL    HW315079   4.285   3.583   4.871 -1.4799  1.3755 -0.3901
 3828SOL    MW415080   4.232   3.514   4.866 -0.0099  0.1553  0.0245
 3829SOL     OW15081   2.663   5.113   5.135  0.4907 -0.1375  0.0360
 3829SOL    HW215082   2.675   5.157   5.051  1.2298 -2.2441 -1.0281
 3829SOL    HW315083   2.582   5.151   5.170 -0.8604 -0.4748 -2.4816
 3829SOL    MW415084   2.654   5.124   5.129  0.4099 -0.4599 -0.4366
 3830SOL     OW15085   0.173   0.294   5.820  0.7280  0.5034  0.0452
 3830SOL    HW215086   0.151   0.359   5.754  0.8217  0.2995 -0.1851
 3830SOL    HW315087   0.088   0.260   5.849  0.7288 -0.4758 -1.0322
 3830SOL    MW415088   0.159   0.298   5.815  0.7405  0.3473 -0.1273
 3831SOL     OW15089   1.158   5.140   3.112  0.3005  0.8699  0.2960
 3831SOL    HW215090   1.246   5.123   3.076  0.3013 -0.0633  0.6899
 3831SOL    HW315091   1.174   5.174   3.200  0.2765 -0.2376  0.7464
 3831SOL    MW415092   1.172   5.142   3.119  0.2975  0.6007  0.4074
 3832SOL     OW15093   2.869   1.539   0.148  0.4016 -0.0277 -0.2795
 3832SOL    HW215094   2.830   1.451   0.145  0.5562 -0.0689 -2.6165
 3832SOL    HW315095   2.963   1.524   0.148  0.4583  0.1613  0.9517
 3832SOL    MW415096   2.876   1.525   0.148  0.4294 -0.0082 -0.4254
 3833SOL     OW15097   6.259   3.472   1.254 -0.0903 -0.1870 -0.8376
 3833SOL    HW215098   6.294   3.557   1.283  1.1387 -1.0140  0.2359
 3833SOL    HW315099   6.336   3.422   1.229 -0.8079 -0.9871 -1.5100
 3833SOL    MW415100   6.274   3.477   1.255 -0.0228 -0.4017 -0.7847
 3834SOL     OW15101   3.784   3.826   2.938  0.2503  0.2757  0.2478
 3834SOL    HW215102   3.876   3.801   2.948  0.6104  1.3733 -0.0921
 3834SOL    HW315103   3.744   3.755   2.888  1.1478  0.2496 -0.4589
 3834SOL    MW415104   3.791   3.814   2.933  0.4162  0.4171  0.1097
 3835SOL     OW15105   2.068   0.774   6.077 -0.7087  0.1650  0.5121
 3835SOL    HW215106   2.033   0.860   6.051 -0.2125  0.1703 -0.1739
 3835SOL    HW315107   2.126   0.793   6.150 -2.0656  0.1655  1.6338
 3835SOL    MW415108   2.071   0.788   6.083 -0.8223  0.1658  0.5696
 3836SOL     OW15109   1.072   2.458   5.576 -0.8369 -0.3700 -0.0291
 3836SOL    HW215110   1.146   2.403   5.550 -1.4736 -0.0602 -2.8262
 3836SOL    HW315111   1.093   2.485   5.665  2.1112 -0.8195 -0.4628
 3836SOL    MW415112   1.085   2.454   5.584 -0.5319 -0.3884 -0.4554
 3837SOL     OW15113   2.648   2.846   5.650  0.1654  0.3363  0.6527
 3837SOL    HW215114   2.580   2.912   5.662 -0.0312  0.0236  1.3298
 3837SOL    HW315115   2.677   2.856   5.560 -0.0047  1.2139  0.6920
 3837SOL    MW415116   2.643   2.856   5.640  0.1170  0.4108  0.7472
 3838SOL     OW15117   2.520   3.123   5.586 -0.5408 -0.2603 -0.1462
 3838SOL    HW215118   2.547   3.132   5.495  1.0068  1.2088  0.3886
 3838SOL    HW315119   2.471   3.202   5.605 -0.3579 -0.2779  0.4398
 3838SOL    MW415120   2.517   3.134   5.577 -0.3125 -0.0688  0.0017
 3839SOL     OW15121   5.898   1.694   1.090  0.1790 -0.1117  0.0349
 3839SOL    HW215122   5.958   1.708   1.017 -0.3842  2.0389 -0.0580
 3839SOL    HW315123   5.954   1.665   1.162  1.0236 -0.1405 -0.6254
 3839SOL    MW415124   5.913   1.692   1.090  0.2161  0.1683 -0.0645
 3840SOL     OW15125   3.591   4.138   1.021 -0.2767  0.1650  0.5670
 3840SOL    HW215126   3.596   4.233   1.010  1.2116  0.0783  0.2889
 3840SOL    HW315127   3.636   4.103   0.944 -0.8763 -0.7766  0.6266
 3840SOL    MW415128   3.597   4.146   1.009 -0.1595  0.0293  0.5382
 3841SOL     OW15129   2.638   4.256   4.967  0.9074  0.4491 -0.0313
 3841SOL    HW215130   2.624   4.187   4.901  0.3439  0.0999  0.4447
 3841SOL    HW315131   2.626   4.212   5.051  3.3616  0.4701  0.4129
 3841SOL    MW415132   2.635   4.241   4.969  1.1569  0.4058  0.0901
 3842SOL     OW15133   4.477   1.086   5.526  0.5019  0.3137  0.3795
 3842SOL    HW215134   4.416   1.157   5.544  0.1606 -0.2658  1.6599
 3842SOL    HW315135   4.557   1.130   5.497 -0.3511  1.1029 -0.8913
 3842SOL    MW415136   4.479   1.101   5.525  0.3443  0.3414  0.3808
 3843SOL     OW15137   2.100   3.419   1.064  0.1492  0.2500 -0.0791
 3843SOL    HW215138   2.017   3.375   1.046  0.5250 -0.0529 -1.1965
 3843SOL    HW315139   2.133   3.376   1.143 -0.5219  0.0349  0.0923
 3843SOL    MW415140   2.093   3.407   1.072  0.1102  0.1817 -0.2039
 3844SOL     OW15141   2.984   5.771   5.839 -0.3649  0.3271 -0.5704
 3844SOL    HW215142   2.975   5.858   5.877  0.1449 -0.6653  2.0581
 3844SOL    HW315143   2.949   5.779   5.751  1.3838  3.6194 -1.1059
 3844SOL    MW415144   2.979   5.784   5.833 -0.0669  0.6305 -0.2943
 3845SOL     OW15145   5.436   0.724   2.891  0.0539  0.0839  0.1364
 3845SOL    HW215146   5.380   0.647   2.878  0.1382  0.1251 -0.5213
 3845SOL    HW315147   5.399   0.768   2.967 -0.0912 -0.5228  0.4286
 3845SOL    MW415148   5.423   0.720   2.899  0.0459  0.0093  0.0881
 3846SOL     OW15149   4.075   4.291   3.389  0.2346  0.1668  0.3894
 3846SOL    HW215150   4.059   4.261   3.299 -1.1626  1.6058  0.1202
 3846SOL    HW315151   4.119   4.375   3.378  1.4045 -0.3341  1.0929
 3846SOL    MW415152   4.079   4.298   3.376  0.2046  0.2906  0.4467
 3847SOL     OW15153   4.762   2.657   3.183  0.3942  0.1211  0.2320
 3847SOL    HW215154   4.755   2.628   3.274  0.9728 -0.5782  0.0595
 3847SOL    HW315155   4.706   2.597   3.134 -1.1721  1.4445  0.2960
 3847SOL    MW415156   4.753   2.645   3.189  0.2639  0.2034  0.2177
 3848SOL     OW15157   2.904   5.208   2.733 -0.3964 -0.0562  0.1248
 3848SOL    HW215158   2.841   5.219   2.804 -0.8331  1.1888 -0.4210
 3848SOL    HW315159   2.988   5.236   2.771 -0.1236 -1.7563  0.8633
 3848SOL    MW415160   2.907   5.213   2.748 -0.4180 -0.1162  0.1503
 3849SOL     OW15161   4.097   6.156   0.616 -0.2652 -0.4168 -0.1910
 3849SOL    HW215162   4.160   6.225   0.595 -1.8721  0.9559 -0.7164
 3849SOL    HW315163   4.028   6.165   0.550 -1.2078 -1.6047  0.5856
 3849SOL    MW415164   4.096   6.167   0.605 -0.6016 -0.3924 -0.1579
 3850SOL     OW15165   5.268   0.659   2.579  0.1804 -0.4274  0.0072
 3850SOL    HW215166   5.350   0.707   2.571  0.2273 -0.5381 -0.1881
 3850SOL    HW315167   5.221   0.702   2.650 -0.7406  1.3117 -1.5728
 3850SOL    MW415168   5.273   0.671   2.587  0.0651 -0.2126 -0.2270
 3851SOL     OW15169   0.455   3.987   5.570 -0.0157 -0.3959 -0.1240
 3851SOL    HW215170   0.386   4.002   5.635 -0.5382 -1.8746 -0.3043
 3851SOL    HW315171   0.529   4.039   5.602 -1.0003  0.7494  0.3844
 3851SOL    MW415172   0.456   3.996   5.583 -0.2146 -0.4399 -0.0807
 3852SOL     OW15173   1.643   3.117   0.949 -0.0911  0.1450 -0.3523
 3852SOL    HW215174   1.593   3.170   0.887  1.1377  0.2908 -1.2750
 3852SOL    HW315175   1.580   3.054   0.984 -1.1740  1.0952 -0.5542
 3852SOL    MW415176   1.628   3.115   0.945 -0.0719  0.2896 -0.5007
 3853SOL     OW15177   1.351   4.292   2.846  0.4668  0.1591 -0.2446
 3853SOL    HW215178   1.264   4.304   2.885 -0.3697  1.0795 -2.2412
 3853SOL    HW315179   1.363   4.198   2.843  0.2970  0.0389  1.5656
 3853SOL    MW415180   1.341   4.281   2.851  0.3340  0.2647 -0.2692
 3854SOL     OW15181   1.317   5.116   3.700 -0.2776  0.5528  0.1873
 3854SOL    HW215182   1.347   5.085   3.614 -2.2747 -0.2445 -0.2834
 3854SOL    HW315183   1.289   5.206   3.685 -1.9464 -0.0315 -0.3728
 3854SOL    MW415184   1.318   5.124   3.686 -0.7613  0.3705  0.0513
 3855SOL     OW15185   4.605   3.108   1.050 -0.5685 -0.1681  0.3088
 3855SOL    HW215186   4.642   3.102   0.962 -0.6251 -2.0071  0.3634
 3855SOL    HW315187   4.510   3.114   1.035 -0.4917  1.1982  0.2391
 3855SOL    MW415188   4.597   3.108   1.036 -0.5658 -0.2305  0.3068
 3856SOL     OW15189   5.834   0.781   3.813  0.5296  0.8083 -0.2942
 3856SOL    HW215190   5.809   0.791   3.721 -0.0731 -0.4942 -0.2982
 3856SOL    HW315191   5.764   0.729   3.851  1.4067  0.2395  0.5995
 3856SOL    MW415192   5.822   0.775   3.806  0.5658  0.5614 -0.1768
 3857SOL     OW15193   3.852   3.323   1.140  0.0607 -0.2340 -0.1927
 3857SOL    HW215194   3.914   3.301   1.209 -0.8650 -1.8832  0.1754
 3857SOL    HW315195   3.858   3.250   1.078 -1.9438 -0.8067  0.1999
 3857SOL    MW415196   3.861   3.310   1.141 -0.3259 -0.5271 -0.0923
 3858SOL     OW15197   1.811   0.057   4.547 -0.1170 -0.0570  0.1076
 3858SOL    HW215198   1.789   0.075   4.455 -0.9399 -1.3254  0.0256
 3858SOL    HW315199   1.873  -0.016   4.543  0.5689  0.4830  0.5422
 3858SOL    MW415200   1.816   0.050   4.534 -0.1351 -0.1531  0.1541
 3859SOL     OW15201   2.826   1.999   1.998  0.7805  0.3821 -0.4385
 3859SOL    HW215202   2.823   1.981   1.904  1.3201  1.0591 -0.5930
 3859SOL    HW315203   2.816   2.094   2.005 -1.5831  0.1647  0.3306
 3859SOL    MW415204   2.824   2.009   1.987  0.5398  0.4427 -0.3574
 3860SOL     OW15205   0.753   3.691   4.742  0.2821  0.3783 -0.1143
 3860SOL    HW215206   0.693   3.757   4.778 -0.1055  0.7209 -1.3438
 3860SOL    HW315207   0.745   3.617   4.801 -0.3373  0.9199  0.5046
 3860SOL    MW415208   0.744   3.690   4.754  0.1492  0.4950 -0.1949
 3861SOL     OW15209   0.823   4.028   2.133  0.4781  0.3130 -0.3011
 3861SOL    HW215210   0.798   4.086   2.062 -0.6959 -0.7097 -0.7574
 3861SOL    HW315211   0.915   4.049   2.150  1.1212 -0.1193 -2.8482
 3861SOL    MW415212   0.832   4.038   2.126  0.4080  0.1211 -0.6973
 3862SOL     OW15213   1.202   1.273   5.700  0.5139 -0.7870 -0.0212
 3862SOL    HW215214   1.116   1.272   5.658  1.1598 -2.4108 -1.4270
 3862SOL    HW315215   1.216   1.365   5.724 -1.3573 -0.4048 -0.2869
 3862SOL    MW415216   1.193   1.285   5.698  0.3522 -0.9508 -0.2417
 3863SOL     OW15217   5.405   6.030   1.326 -0.5070 -0.4670 -0.3760
 3863SOL    HW215218   5.404   5.941   1.290 -1.3395 -0.7145  0.2395
 3863SOL    HW315219   5.359   6.023   1.409  0.4780  0.3114  0.2523
 3863SOL    MW415220   5.399   6.017   1.332 -0.4868 -0.3969 -0.2119
 3864SOL     OW15221   1.609   2.295   2.594  0.7191 -0.4740 -0.3728
 3864SOL    HW215222   1.568   2.232   2.535  1.8250 -3.9045  2.2408
 3864SOL    HW315223   1.536   2.340   2.636 -0.2992 -2.7395  0.4093
 3864SOL    MW415224   1.594   2.293   2.592  0.7307 -1.2255  0.0752
 3865SOL     OW15225   3.122   3.996   1.663 -0.1395 -0.1553  0.2568
 3865SOL    HW215226   3.054   3.956   1.716  0.3459 -2.1447 -0.5199
 3865SOL    HW315227   3.166   3.922   1.620  1.4738  1.1629 -0.4988
 3865SOL    MW415228   3.119   3.981   1.664  0.1374 -0.2438  0.0546
 3866SOL     OW15229   0.828   4.853   0.608 -0.1263  0.4370  0.0854
 3866SOL    HW215230   0.833   4.943   0.640 -0.7113  0.0329  1.4332
 3866SOL    HW315231   0.851   4.858   0.516 -0.8906  2.0760 -0.0501
 3866SOL    MW415232   0.832   4.865   0.600 -0.3043  0.5999  0.2453
 3867SOL     OW15233   0.848   3.992   4.837  0.8234  0.4351 -0.1208
 3867SOL    HW215234   0.861   4.085   4.857 -2.1464  0.8052  0.5741
 3867SOL    HW315235   0.863   3.947   4.921 -0.9720  0.7313  0.4012
 3867SOL    MW415236   0.851   3.998   4.851  0.1947  0.5230  0.0397
 3868SOL     OW15237   5.308   3.760   4.063 -0.3026  0.6468  0.4795
 3868SOL    HW215238   5.291   3.853   4.049 -2.5936  0.6702  2.7445
 3868SOL    HW315239   5.379   3.758   4.128 -0.2705  0.7981  0.4504
 3868SOL    MW415240   5.315   3.772   4.070 -0.6006  0.6699  0.7745
 3869SOL     OW15241   0.061   2.198   5.808  0.3855  0.5164 -0.5954
 3869SOL    HW215242  -0.025   2.171   5.840  0.3765  1.8649  0.6025
 3869SOL    HW315243   0.069   2.156   5.722 -1.4797  0.4083 -0.7440
 3869SOL    MW415244   0.051   2.189   5.801  0.1382  0.6800 -0.4569
 3870SOL     OW15245   2.244   3.487   4.392  0.4713  0.0321  0.0383
 3870SOL    HW215246   2.263   3.395   4.410 -0.8240 -0.1181  0.7880
 3870SOL    HW315247   2.168   3.507   4.447 -0.1883  1.1407 -1.2096
 3870SOL    MW415248   2.236   3.478   4.402  0.2134  0.1585 -0.0275
 3871SOL     OW15249   2.265   0.384   0.323  0.2566  0.0217  0.1319
 3871SOL    HW215250   2.225   0.337   0.250 -1.0541 -0.9662  1.4061
 3871SOL    HW315251   2.233   0.474   0.315  1.6812  0.4316 -1.5538
 3871SOL    MW415252   2.255   0.390   0.312  0.2716 -0.0545  0.0776
 3872SOL     OW15253   0.758   2.423   0.018  0.1161  0.7396 -0.3122
 3872SOL    HW215254   0.681   2.478   0.004 -3.1345 -2.7825  1.8913
 3872SOL    HW315255   0.764   2.414   0.113  2.7540  0.1212 -0.4641
 3872SOL    MW415256   0.749   2.429   0.029  0.0352  0.1933 -0.0415
 3873SOL     OW15257   2.999   2.741   5.313 -0.4841  0.1096 -0.0486
 3873SOL    HW215258   3.051   2.812   5.274 -0.0827 -1.2389 -2.1113
 3873SOL    HW315259   2.913   2.780   5.327  0.0390  1.3287 -0.0343
 3873SOL    MW415260   2.995   2.756   5.310 -0.3621  0.0925 -0.3188
 3874SOL     OW15261   3.548   1.912   5.888 -0.1481 -0.7376 -0.3881
 3874SOL    HW215262   3.502   1.945   5.811  0.2331  0.0200 -0.2979
 3874SOL    HW315263   3.536   1.980   5.954 -0.7074 -1.5029  0.3265
 3874SOL    MW415264   3.540   1.925   5.887 -0.1716 -0.7386 -0.2819
 3875SOL     OW15265   1.897   3.972   3.470 -0.2467  0.4177 -0.0423
 3875SOL    HW215266   1.942   4.054   3.446  0.5612 -0.1211 -0.3999
 3875SOL    HW315267   1.967   3.914   3.499 -0.7942 -0.2338 -0.0147
 3875SOL    MW415268   1.912   3.975   3.471 -0.2123  0.2606 -0.0858
 3876SOL     OW15269   6.129   2.275   5.557 -0.0844  0.0274 -0.7868
 3876SOL    HW215270   6.206   2.322   5.587 -0.6514  0.7121 -0.3751
 3876SOL    HW315271   6.131   2.285   5.462  0.4059 -0.0891 -0.7937
 3876SOL    MW415272   6.139   2.282   5.548 -0.0945  0.1024 -0.7334
 3877SOL     OW15273   0.237   6.404   3.526  0.0863 -0.3972 -0.0677
 3877SOL    HW215274   0.321   6.424   3.484  1.4732 -3.5571  0.9418
 3877SOL    HW315275   0.250   6.428   3.618 -1.1114  1.5472 -0.3480
 3877SOL    MW415276   0.250   6.410   3.533  0.1112 -0.5576  0.0285
 3878SOL     OW15277   5.982   1.160   2.870 -0.8982 -0.3024  0.4687
 3878SOL    HW215278   5.936   1.085   2.832  0.4982 -1.4684  1.0059
 3878SOL    HW315279   5.957   1.233   2.813  0.4099 -1.8014 -2.2436
 3878SOL    MW415280   5.972   1.160   2.857 -0.5414 -0.6540  0.1817
 3879SOL     OW15281   4.092   1.687   1.157 -0.2192 -0.2816  0.5906
 3879SOL    HW215282   4.059   1.723   1.075  0.0340  0.7826  0.9375
 3879SOL    HW315283   4.177   1.650   1.135 -1.1796 -2.1818 -0.1107
 3879SOL    MW415284   4.099   1.687   1.143 -0.3125 -0.3919  0.5438
 3880SOL     OW15285   1.503   6.066   0.012 -0.1148  0.3597  0.8788
 3880SOL    HW215286   1.568   6.041  -0.054  0.2548  0.2372  1.2886
 3880SOL    HW315287   1.543   6.137   0.060  0.2955 -0.6188  2.0273
 3880SOL    MW415288   1.517   6.072   0.009 -0.0119  0.2144  1.0844
 3881SOL     OW15289   3.786   4.501   5.704 -0.6656 -0.2927 -0.0121
 3881SOL    HW215290   3.808   4.594   5.697  0.5413 -0.5683 -0.1825
 3881SOL    HW315291   3.830   4.472   5.785  2.1439 -1.4944 -1.8083
 3881SOL    MW415292   3.795   4.510   5.714 -0.1357 -0.4876 -0.2716
 3882SOL     OW15293   0.978   2.766   2.576 -0.2610 -0.1792  0.2934
 3882SOL    HW215294   0.965   2.672   2.583  1.8353 -0.4625  1.0363
 3882SOL    HW315295   1.029   2.778   2.496 -0.6103  0.3627  0.1377
 3882SOL    MW415296   0.983   2.755   2.566 -0.0305 -0.1451  0.3708
 3883SOL     OW15297   4.856   2.037   2.492  0.0757  0.2333  0.3671
 3883SOL    HW215298   4.762   2.046   2.477 -0.0659 -0.5891  0.6802
 3883SOL    HW315299   4.892   2.125   2.478 -0.5642  0.3016 -0.9605
 3883SOL    MW415300   4.848   2.050   2.489 -0.0274  0.1338  0.2332
 3884SOL     OW15301   0.499   4.751   2.292 -0.0250 -0.1980 -0.3504
 3884SOL    HW215302   0.555   4.816   2.334 -1.0967  0.1327  0.6418
 3884SOL    HW315303   0.465   4.795   2.214 -0.6498  0.4168  0.2513
 3884SOL    MW415304   0.502   4.765   2.287 -0.2488 -0.0732 -0.1401
 3885SOL     OW15305   5.388   1.253   6.178  0.3069  0.1006  0.2332
 3885SOL    HW215306   5.321   1.286   6.238 -0.1929 -0.6905  0.1151
 3885SOL    HW315307   5.444   1.329   6.161 -1.8361  1.3946 -1.4470
 3885SOL    MW415308   5.387   1.267   6.184 -0.0418  0.1669 -0.0041
 3886SOL     OW15309   3.018   0.220   0.903  0.0434  0.0699 -0.9159
 3886SOL    HW215310   3.067   0.258   0.830 -2.1088  0.6561 -2.1274
 3886SOL    HW315311   2.983   0.295   0.951  1.0429 -0.3251  0.4992
 3886SOL    MW415312   3.020   0.235   0.899 -0.1087  0.0951 -0.8890
 3887SOL     OW15313   5.177   3.660   3.081 -0.8703  0.0018  0.1975
 3887SOL    HW215314   5.176   3.755   3.068  1.6948  0.3248  1.5577
 3887SOL    HW315315   5.164   3.623   2.994  1.0974  1.6877 -0.8975
 3887SOL    MW415316   5.175   3.668   3.068 -0.2723  0.2669  0.2325
 3888SOL     OW15317   5.034   3.316   5.931  0.0333 -0.2724 -0.3556
 3888SOL    HW215318   4.963   3.279   5.878  0.1272 -1.1371  0.1159
 3888SOL    HW315319   5.085   3.241   5.960 -0.3026  0.1244  1.3787
 3888SOL    MW415320   5.031   3.301   5.928  0.0014 -0.3342 -0.0646
 3889SOL     OW15321   4.315   5.198   4.712  0.0737  0.0667  0.1735
 3889SOL    HW215322   4.234   5.228   4.753  0.5531  1.4086  0.1791
 3889SOL    HW315323   4.357   5.144   4.778  1.3642  3.0640  2.0140
 3889SOL    MW415324   4.310   5.195   4.726  0.3072  0.6392  0.4171
 3890SOL     OW15325   3.390   6.158   4.590  0.0496  0.2597  0.0951
 3890SOL    HW215326   3.405   6.070   4.555  0.2494  0.4179 -0.2218
 3890SOL    HW315327   3.403   6.149   4.684 -0.9475 -0.2748  0.1943
 3890SOL    MW415328   3.394   6.145   4.598 -0.0556  0.2100  0.0663
 3891SOL     OW15329   5.583   2.540   0.604 -0.2629 -0.6736  0.2531
 3891SOL    HW215330   5.538   2.480   0.545 -0.9013  1.8350 -1.9943
 3891SOL    HW315331   5.666   2.560   0.560 -0.4895  0.7963  0.4538
 3891SOL    MW415332   5.588   2.535   0.591 -0.3770 -0.1487 -0.0169
 3892SOL     OW15333   4.698   4.785   1.269  0.3071  0.2923 -0.3912
 3892SOL    HW215334   4.758   4.858   1.285 -0.1520  1.1001 -2.0805
 3892SOL    HW315335   4.695   4.777   1.173 -2.7737  0.7764 -0.4426
 3892SOL    MW415336   4.705   4.794   1.258 -0.1600  0.4628 -0.6208
 3893SOL     OW15337   5.573   3.148   0.462 -0.4796 -0.2749  0.3380
 3893SOL    HW215338   5.572   3.173   0.370 -0.7470 -0.1197  0.3821
 3893SOL    HW315339   5.637   3.076   0.467  1.3059  1.2360  0.4308
 3893SOL    MW415340   5.582   3.142   0.451 -0.2793 -0.0551  0.3561
 3894SOL     OW15341   2.756   2.767   4.664  0.0340 -0.2300  0.8131
 3894SOL    HW215342   2.819   2.737   4.598  1.7019  2.1326  1.2051
 3894SOL    HW315343   2.702   2.832   4.618 -0.6970 -0.6533  1.0543
 3894SOL    MW415344   2.757   2.772   4.649  0.1576  0.0259  0.8966
 3895SOL     OW15345   3.431   6.338   0.806 -0.4604  0.7519  0.1069
 3895SOL    HW215346   3.482   6.418   0.789  0.2329  0.6975  1.7737
 3895SOL    HW315347   3.387   6.354   0.889 -0.3681 -0.5556  0.4373
 3895SOL    MW415348   3.432   6.351   0.814 -0.3567  0.5722  0.3704
 3896SOL     OW15349   2.695   5.185   3.288 -0.1045 -0.1886  0.0643
 3896SOL    HW215350   2.708   5.193   3.382  3.0093 -1.3667 -0.1348
 3896SOL    HW315351   2.633   5.112   3.278  1.8458 -2.1380  1.2644
 3896SOL    MW415352   2.689   5.176   3.299  0.5636 -0.6013  0.1964
 3897SOL     OW15353   1.806   4.759   4.494  0.3757 -0.2506 -0.6946
 3897SOL    HW215354   1.891   4.743   4.453 -0.4820  0.3737 -2.8444
 3897SOL    HW315355   1.744   4.704   4.445 -0.9365  1.6647 -1.3084
 3897SOL    MW415356   1.809   4.750   4.482  0.0894  0.0845 -1.0592
 3898SOL     OW15357   2.704   5.615   2.259 -0.0211 -0.2470  0.2809
 3898SOL    HW215358   2.747   5.663   2.329  0.4045 -2.8225  1.8809
 3898SOL    HW315359   2.611   5.618   2.282  0.0563 -0.5986  0.6428
 3898SOL    MW415360   2.697   5.622   2.271  0.0453 -0.6332  0.5397
 3899SOL     OW15361   4.284   5.102   3.759 -0.2920 -0.0265 -0.3180
 3899SOL    HW215362   4.231   5.139   3.829 -3.0218 -2.2644 -1.0290
 3899SOL    HW315363   4.224   5.093   3.685  1.7081 -0.5914 -1.9847
 3899SOL    MW415364   4.269   5.106   3.758 -0.3883 -0.3963 -0.6317
 3900SOL     OW15365   5.169   0.327   0.837  0.3088  0.7701 -0.4574
 3900SOL    HW215366   5.158   0.236   0.864 -1.4547  0.5373 -1.7072
 3900SOL    HW315367   5.155   0.379   0.917 -0.5680 -0.0121 -0.0845
 3900SOL    MW415368   5.165   0.322   0.851 -0.0396  0.6362 -0.5731
 3901SOL     OW15369   0.856   6.048   0.230 -0.0964 -0.3499  0.0543
 3901SOL    HW215370   0.772   6.012   0.256 -0.8738  1.4043  0.1123
 3901SOL    HW315371   0.856   6.043   0.134 -1.1692  1.4696 -0.0759
 3901SOL    MW415372   0.845   6.042   0.220 -0.3405  0.1216  0.0448
 3902SOL     OW15373   2.245   1.890   6.205 -0.3501  0.0072 -0.3247
 3902SOL    HW215374   2.260   1.955   6.273  1.2633  0.6060 -1.2087
 3902SOL    HW315375   2.218   1.811   6.253 -0.5614  0.7961  0.8885
 3902SOL    MW415376   2.243   1.888   6.220 -0.1651  0.1903 -0.2813
 3903SOL     OW15377   4.824   1.679   5.083  0.4777 -0.4220  0.2038
 3903SOL    HW215378   4.773   1.748   5.124 -0.4631 -0.4840 -0.8284
 3903SOL    HW315379   4.777   1.598   5.103 -0.3916 -0.3863 -1.5405
 3903SOL    MW415380   4.811   1.677   5.091  0.2389 -0.4254 -0.1625
 3904SOL     OW15381   0.282   4.748   2.848  0.2046  0.7282  0.1156
 3904SOL    HW215382   0.320   4.789   2.770 -0.5645 -1.9623 -1.8238
 3904SOL    HW315383   0.357   4.716   2.898  0.6630 -0.0259 -1.0273
 3904SOL    MW415384   0.297   4.749   2.844  0.1636  0.2738 -0.2911
 3905SOL     OW15385   4.864   1.865   4.055 -0.6578  0.0203  0.6479
 3905SOL    HW215386   4.803   1.853   3.983 -1.3409 -3.1219  1.5867
 3905SOL    HW315387   4.924   1.791   4.049  0.9827  1.1727  1.7403
 3905SOL    MW415388   4.864   1.853   4.045 -0.5314 -0.2423  0.9159
 3906SOL     OW15389   4.418   0.792   2.933 -0.2104  0.8955  0.1325
 3906SOL    HW215390   4.441   0.703   2.959  0.5665  1.6536  2.2548
 3906SOL    HW315391   4.348   0.781   2.869  1.2206 -1.2733 -1.1979
 3906SOL    MW415392   4.412   0.779   2.928  0.0809  0.7094  0.2370
 3907SOL     OW15393   0.595   1.228   6.131  0.0595 -0.4813 -0.0498
 3907SOL    HW215394   0.524   1.179   6.174 -0.9515 -0.4750 -1.6457
 3907SOL    HW315395   0.552   1.276   6.061  1.6735 -0.6301 -1.1888
 3907SOL    MW415396   0.580   1.228   6.128  0.1391 -0.5001 -0.4106
 3908SOL     OW15397   4.638   2.533   4.131 -0.1320 -0.1548  0.1350
 3908SOL    HW215398   4.639   2.624   4.102 -0.0576 -0.0141  0.5697
 3908SOL    HW315399   4.574   2.531   4.202  1.7551  0.1515  1.9545
 3908SOL    MW415400   4.630   2.544   4.136  0.1268 -0.0958  0.4324
 3909SOL     OW15401   2.261   1.474   3.973 -0.1766  0.0490 -0.4283
 3909SOL    HW215402   2.181   1.438   3.935  0.1614 -1.7718  0.4893
 3909SOL    HW315403   2.276   1.421   4.051  0.4314  2.1480  0.9677
 3909SOL    MW415404   2.252   1.462   3.978 -0.0518  0.0857 -0.1230
 3910SOL     OW15405   4.639   0.245   3.655  0.2917  0.1986  0.2086
 3910SOL    HW215406   4.656   0.292   3.737  1.3409  0.8092 -0.3386
 3910SOL    HW315407   4.609   0.159   3.683 -0.7993  0.8733  1.2328
 3910SOL    MW415408   4.637   0.240   3.670  0.2862  0.3682  0.2715
 3911SOL     OW15409   5.870   5.230   5.826 -0.2772  0.3050 -0.0323
 3911SOL    HW215410   5.944   5.224   5.887 -1.7273  3.4382  2.2781
 3911SOL    HW315411   5.803   5.173   5.865 -0.3203  0.2632 -0.1668
 3911SOL    MW415412   5.871   5.221   5.839 -0.4742  0.7128  0.2548
 3912SOL     OW15413   0.069   0.299   4.381 -0.4228  0.2165 -0.1074
 3912SOL    HW215414  -0.022   0.282   4.406 -0.5594  0.6962 -0.2609
 3912SOL    HW315415   0.089   0.231   4.317  0.1880 -1.5289  1.8230
 3912SOL    MW415416   0.060   0.288   4.376 -0.3602  0.0495  0.1271
 3913SOL     OW15417   5.113   0.797   2.758  0.0980  0.1834  0.5884
 3913SOL    HW215418   5.046   0.741   2.719  1.1394 -2.3230  2.1720
 3913SOL    HW315419   5.079   0.816   2.846 -0.1666  1.9809  0.1319
 3913SOL    MW415420   5.099   0.792   2.765  0.2005  0.0899  0.7371
 3914SOL     OW15421   4.070   0.166   1.047 -0.6496 -0.0430  0.3436
 3914SOL    HW215422   4.021   0.200   0.972  0.1310  1.4770  0.4861
 3914SOL    HW315423   4.160   0.196   1.033 -0.2376 -0.8234  1.2398
 3914SOL    MW415424   4.075   0.175   1.035 -0.4923  0.0546  0.4806
 3915SOL     OW15425   1.786   4.611   0.119  0.0592  0.3496  0.3478
 3915SOL    HW215426   1.767   4.608   0.025 -0.1517 -3.4946  0.3609
 3915SOL    HW315427   1.875   4.577   0.127 -0.6915 -1.4793  1.6211
 3915SOL    MW415428   1.796   4.606   0.108 -0.0677 -0.3989  0.5176
 3916SOL     OW15429   2.918   2.400   4.665 -0.4537 -0.3131 -0.1767
 3916SOL    HW215430   2.858   2.445   4.606 -1.5186 -0.8053  0.5153
 3916SOL    HW315431   3.000   2.395   4.616 -0.3208  2.2045 -0.3596
 3916SOL    MW415432   2.921   2.405   4.651 -0.5766 -0.0459 -0.1095
 3917SOL     OW15433   3.407   5.923   2.736 -0.0642 -0.0053  0.2156
 3917SOL    HW215434   3.496   5.898   2.761  0.2700 -0.1219 -1.0568
 3917SOL    HW315435   3.397   6.012   2.772  0.9065  0.3764 -0.4112
 3917SOL    MW415436   3.418   5.932   2.744  0.1079  0.0297 -0.0350
 3918SOL     OW15437   2.520   4.467   5.775  0.4110 -0.3179  0.1740
 3918SOL    HW215438   2.568   4.449   5.855  0.0304  0.4182  0.5802
 3918SOL    HW315439   2.468   4.545   5.795  0.7945  0.2666 -0.9923
 3918SOL    MW415440   2.519   4.475   5.788  0.4114 -0.1437  0.0737
 3919SOL     OW15441   1.186   3.073   0.557 -0.5707 -0.3867  0.3046
 3919SOL    HW215442   1.180   3.067   0.462  0.5526 -0.2565  0.2138
 3919SOL    HW315443   1.274   3.042   0.578 -1.1546 -1.3733  1.3964
 3919SOL    MW415444   1.197   3.068   0.548 -0.4995 -0.4997  0.4367
 3920SOL     OW15445   1.459   2.792   1.343  0.1905  0.3923 -0.1982
 3920SOL    HW215446   1.471   2.887   1.344  2.7461  0.1673  1.8326
 3920SOL    HW315447   1.518   2.761   1.275  0.2862  0.1931 -0.0248
 3920SOL    MW415448   1.468   2.801   1.334  0.5403  0.3363  0.0926
 3921SOL     OW15449   3.921   4.258   2.785  0.5958  0.0125 -0.5868
 3921SOL    HW215450   3.855   4.211   2.836 -0.2687  0.4583 -1.2805
 3921SOL    HW315451   3.892   4.349   2.787  2.2020  0.5396  0.6549
 3921SOL    MW415452   3.908   4.264   2.792  0.6936  0.1408 -0.5145
 3922SOL     OW15453   2.586   3.379   2.627 -0.2747 -0.0642  0.3527
 3922SOL    HW215454   2.572   3.320   2.552 -0.0245 -1.9394  1.7026
 3922SOL    HW315455   2.533   3.456   2.607 -0.9920 -0.9304 -1.2979
 3922SOL    MW415456   2.577   3.381   2.614 -0.3363 -0.4259  0.3130
 3923SOL     OW15457   2.130   2.005   2.303 -0.9169 -0.2478 -0.3486
 3923SOL    HW215458   2.173   2.060   2.239 -2.1129  0.8585 -0.2502
 3923SOL    HW315459   2.109   2.064   2.376  0.4106 -1.4674  1.0966
 3923SOL    MW415460   2.133   2.020   2.304 -0.8996 -0.2628 -0.1450
 3924SOL     OW15461   5.832   4.512   0.251  0.4710 -0.5598 -0.2770
 3924SOL    HW215462   5.925   4.510   0.274  1.1311 -0.9631 -2.6667
 3924SOL    HW315463   5.803   4.422   0.262  0.5352 -0.5637 -0.1369
 3924SOL    MW415464   5.840   4.500   0.255  0.5666 -0.6135 -0.5738
 3925SOL     OW15465   3.371   5.296   6.070 -0.0114  0.3172  0.0193
 3925SOL    HW215466   3.324   5.319   6.150 -0.7302 -0.3141 -0.2124
 3925SOL    HW315467   3.379   5.200   6.073  0.9831  0.3799 -0.1079
 3925SOL    MW415468   3.366   5.286   6.081  0.0250  0.2422 -0.0281
 3926SOL     OW15469   1.708   1.284   6.086 -0.1767  0.6975 -0.0040
 3926SOL    HW215470   1.749   1.237   6.158 -2.6106 -0.6125  0.6407
 3926SOL    HW315471   1.680   1.367   6.124 -0.3855  0.5086  0.2602
 3926SOL    MW415472   1.710   1.289   6.100 -0.5254  0.4998  0.1159
 3927SOL     OW15473   1.270   0.408   3.252  0.3874  0.1336 -0.5045
 3927SOL    HW215474   1.228   0.458   3.182 -0.1904  1.2811  0.6191
 3927SOL    HW315475   1.357   0.389   3.219  0.3383  1.1850 -1.3034
 3927SOL    MW415476   1.276   0.412   3.239  0.3047  0.4237 -0.4617
 3928SOL     OW15477   1.692   2.780   3.091 -0.0490  0.7603 -0.2124
 3928SOL    HW215478   1.655   2.742   3.012 -0.4907  0.5853  0.0740
 3928SOL    HW315479   1.776   2.816   3.064 -0.2176  0.7362 -0.7665
 3928SOL    MW415480   1.698   2.780   3.077 -0.1295  0.7340 -0.2477
 3929SOL     OW15481   5.980   3.447   1.652 -0.0463 -0.1970  0.0212
 3929SOL    HW215482   5.991   3.362   1.694 -0.2607 -0.2139  0.0454
 3929SOL    HW315483   5.896   3.479   1.685  0.2020  0.1805  0.2858
 3929SOL    MW415484   5.970   3.440   1.662 -0.0419 -0.1494  0.0593
 3930SOL     OW15485   3.868   5.504   5.027  0.6712  0.2349  0.1436
 3930SOL    HW215486   3.885   5.542   4.940 -3.5260 -1.3907 -1.6689
 3930SOL    HW315487   3.875   5.410   5.013 -2.6038 -0.2161  0.6911
 3930SOL    MW415488   3.871   5.497   5.013 -0.3147 -0.0391 -0.0233
 3931SOL     OW15489   4.225   5.288   0.637 -0.1288  0.3795  0.3098
 3931SOL    HW215490   4.189   5.209   0.676 -0.0526  0.5196  0.6633
 3931SOL    HW315491   4.231   5.350   0.709 -1.5169  1.1854 -0.2129
 3931SOL    MW415492   4.221   5.286   0.651 -0.3019  0.5043  0.2875
 3932SOL     OW15493   4.017   5.127   2.587 -0.2987 -0.3555 -0.2321
 3932SOL    HW215494   3.984   5.181   2.515 -1.1935 -1.8204 -0.9781
 3932SOL    HW315495   3.939   5.107   2.639  0.2298  0.1062  0.7658
 3932SOL    MW415496   4.002   5.131   2.584 -0.3470 -0.4879 -0.1989
 3933SOL     OW15497   0.151   1.375   0.466  0.4722 -0.2352  0.1996
 3933SOL    HW215498   0.214   1.381   0.394  1.0732 -0.9062  0.6545
 3933SOL    HW315499   0.149   1.463   0.504  0.9499 -0.1497  0.0279
 3933SOL    MW415500   0.159   1.387   0.461  0.6145 -0.3125  0.2369
 3934SOL     OW15501   0.703   3.420   5.250 -0.3333 -0.4217 -0.0930
 3934SOL    HW215502   0.751   3.337   5.256  0.1471 -0.3118 -1.8955
 3934SOL    HW315503   0.711   3.446   5.158 -0.5737  1.5806  0.4122
 3934SOL    MW415504   0.710   3.412   5.239 -0.3017 -0.1430 -0.2642
 3935SOL     OW15505   2.196   1.679   5.812  0.1847 -0.4038 -0.5673
 3935SOL    HW215506   2.160   1.611   5.870  0.4030 -1.1713 -1.3091
 3935SOL    HW315507   2.290   1.675   5.826  0.0717  1.7583  1.5396
 3935SOL    MW415508   2.203   1.669   5.822  0.1986 -0.2198 -0.3872
 3936SOL     OW15509   0.863   0.009   0.768 -0.3141  0.3626 -0.2741
 3936SOL    HW215510   0.810   0.019   0.848  0.2276 -1.0250  0.2906
 3936SOL    HW315511   0.878  -0.085   0.761 -0.1952  0.4770 -1.9322
 3936SOL    MW415512   0.858  -0.002   0.778 -0.2270  0.1946 -0.4184
 3937SOL     OW15513   5.510   1.277   3.979  0.1567  0.1571  0.0534
 3937SOL    HW215514   5.555   1.229   4.049 -0.6070  1.5932  1.6056
 3937SOL    HW315515   5.580   1.319   3.930  0.6078  1.6269  1.8793
 3937SOL    MW415516   5.525   1.276   3.982  0.1154  0.5405  0.4991
 3938SOL     OW15517   6.044   6.038   0.720 -0.1465  0.0508 -0.0161
 3938SOL    HW215518   6.036   6.126   0.758  3.1321  0.6048 -0.3295
 3938SOL    HW315519   6.092   5.988   0.785  1.5000 -0.3135 -1.4344
 3938SOL    MW415520   6.049   6.043   0.733  0.5033  0.0758 -0.2445
 3939SOL     OW15521   5.647   0.915   3.270 -0.3625  0.1742  0.3429
 3939SOL    HW215522   5.661   0.868   3.188  2.5483  0.4662  0.5510
 3939SOL    HW315523   5.698   0.866   3.334 -1.9535  0.4007  1.8464
 3939SOL    MW415524   5.656   0.902   3.268 -0.1884  0.2426  0.5687
 3940SOL     OW15525   4.274   4.810   0.610  0.1225  0.1276 -0.3046
 3940SOL    HW215526   4.212   4.751   0.566  0.8544 -0.8015 -0.1122
 3940SOL    HW315527   4.339   4.752   0.649  0.3573  1.0263  0.6770
 3940SOL    MW415528   4.274   4.794   0.609  0.2500  0.1236 -0.1497
 3941SOL     OW15529   5.883   2.167   5.321  0.8266  0.2693  0.8647
 3941SOL    HW215530   5.942   2.153   5.247 -0.5473 -0.9219 -0.0519
 3941SOL    HW315531   5.816   2.227   5.287  0.6753  0.4290  1.4313
 3941SOL    MW415532   5.882   2.173   5.307  0.6254  0.1332  0.8185
 3942SOL     OW15533   5.414   5.868   0.476  0.1070 -0.2065  0.0969
 3942SOL    HW215534   5.428   5.958   0.506 -0.0345 -0.7404  1.8681
 3942SOL    HW315535   5.488   5.819   0.511  0.5895 -0.6880 -1.4812
 3942SOL    MW415536   5.425   5.873   0.484  0.1520 -0.3405  0.1224
 3943SOL     OW15537   5.041   2.762   3.752  0.3316 -0.2755 -0.3276
 3943SOL    HW215538   5.045   2.709   3.832  0.3897  0.1962 -0.0077
 3943SOL    HW315539   5.129   2.798   3.743  1.0518 -2.2942 -2.0039
 3943SOL    MW415540   5.053   2.760   3.762  0.4343 -0.4796 -0.5066
 3944SOL     OW15541   3.308   3.871   0.453 -0.2625  0.0331  0.1266
 3944SOL    HW215542   3.327   3.898   0.543  1.2573 -0.7036  0.0727
 3944SOL    HW315543   3.388   3.893   0.405 -0.2825 -1.3742 -0.6071
 3944SOL    MW415544   3.321   3.877   0.459 -0.0646 -0.2498  0.0227
 3945SOL     OW15545   4.372   5.501   6.385  0.1245 -0.1379  0.3638
 3945SOL    HW215546   4.320   5.579   6.404 -2.3682 -1.2206 -1.5875
 3945SOL    HW315547   4.370   5.450   6.466  0.5760  1.0858  1.1880
 3945SOL    MW415548   4.365   5.505   6.398 -0.1448 -0.1193  0.2151
 3946SOL     OW15549   3.780   4.103   0.825  0.0366  0.1005 -0.3266
 3946SOL    HW215550   3.849   4.045   0.856 -0.7028 -0.3701  0.4712
 3946SOL    HW315551   3.817   4.146   0.748  0.6773 -1.2720 -0.8047
 3946SOL    MW415552   3.794   4.101   0.819  0.0235 -0.1427 -0.2844
 3947SOL     OW15553   3.877   1.886   2.010 -0.0731 -0.5140 -0.0904
 3947SOL    HW215554   3.952   1.933   1.973 -0.9552  0.6544 -0.4405
 3947SOL    HW315555   3.861   1.929   2.094  0.9654 -2.1628  1.0051
 3947SOL    MW415556   3.885   1.898   2.016 -0.0524 -0.5774  0.0079
 3948SOL     OW15557   4.298   5.066   4.948  0.6578 -0.2089  0.1182
 3948SOL    HW215558   4.380   5.031   4.984  1.3030 -0.8344 -1.8083
 3948SOL    HW315559   4.289   5.153   4.987  2.1362 -0.2129  0.5250
 3948SOL    MW415560   4.308   5.073   4.958  0.9380 -0.2920 -0.0823
 3949SOL     OW15561   0.123   1.160   3.463 -0.1638  0.1676  0.4620
 3949SOL    HW215562   0.031   1.163   3.490 -0.1503 -2.8002  1.1824
 3949SOL    HW315563   0.171   1.153   3.546  0.8432  2.3645  0.1374
 3949SOL    MW415564   0.117   1.159   3.478 -0.0291  0.0659  0.5142
 3950SOL     OW15565   2.408   2.986   5.855 -0.1505 -0.2008  0.0009
 3950SOL    HW215566   2.464   3.063   5.871 -2.5114  1.5951  0.2018
 3950SOL    HW315567   2.391   2.951   5.943  2.7387 -2.4859 -0.1970
 3950SOL    MW415568   2.413   2.992   5.869 -0.0808 -0.2654  0.0013
 3951SOL     OW15569   4.471   3.442   6.145 -0.4414  0.2303  0.0077
 3951SOL    HW215570   4.392   3.394   6.125 -0.6498  0.7498 -0.4458
 3951SOL    HW315571   4.450   3.533   6.125 -0.3640  0.6614  1.7386
 3951SOL    MW415572   4.458   3.448   6.140 -0.4587  0.3557  0.1762
 3952SOL     OW15573   1.333   1.906   5.538  0.6438 -0.6353  0.4528
 3952SOL    HW215574   1.345   1.813   5.516 -0.6976 -0.7173 -0.0393
 3952SOL    HW315575   1.384   1.953   5.473  0.8405 -1.0206  0.3262
 3952SOL    MW415576   1.341   1.900   5.526  0.4928 -0.6970  0.3712
 3953SOL     OW15577   5.664   1.752   5.863  0.6769  0.2377  0.0854
 3953SOL    HW215578   5.749   1.793   5.878  0.8712 -0.9654  2.7660
 3953SOL    HW315579   5.628   1.737   5.950 -2.0803  0.1905 -0.9461
 3953SOL    MW415580   5.670   1.756   5.876  0.3388  0.0727  0.3030
 3954SOL     OW15581   5.451   3.898   1.631 -0.1803 -0.4581 -0.4179
 3954SOL    HW215582   5.482   3.987   1.615 -1.0512 -0.3511 -1.6275
 3954SOL    HW315583   5.505   3.843   1.574  0.9975 -0.8488  1.0101
 3954SOL    MW415584   5.462   3.902   1.621 -0.1398 -0.4955 -0.3891
 3955SOL     OW15585   3.125   3.866   5.768  0.1866 -0.1910  0.1868
 3955SOL    HW215586   3.164   3.951   5.747  0.1676 -0.0812  0.5876
 3955SOL    HW315587   3.152   3.809   5.696 -0.3309  0.3095 -0.4244
 3955SOL    MW415588   3.134   3.869   5.755  0.1158 -0.1105  0.1590
 3956SOL     OW15589   1.148   0.222   1.807  0.3589  0.3326 -0.3152
 3956SOL    HW215590   1.136   0.316   1.792 -0.0448  0.4603  0.7314
 3956SOL    HW315591   1.124   0.209   1.899  2.1113 -0.5073  0.0754
 3956SOL    MW415592   1.143   0.233   1.817  0.5368  0.2386 -0.1256
 3957SOL     OW15593   3.368   3.029   4.101 -0.5048  0.2912 -0.0042
 3957SOL    HW215594   3.300   3.033   4.168 -1.7825  1.9171 -1.3275
 3957SOL    HW315595   3.444   2.991   4.146 -1.6221  0.3903  2.0631
 3957SOL    MW415596   3.369   3.025   4.115 -0.8208  0.5188  0.0940
 3958SOL     OW15597   4.607   0.304   2.161  0.2236 -0.1340 -0.4140
 3958SOL    HW215598   4.669   0.377   2.162 -1.7227  1.5852 -0.5767
 3958SOL    HW315599   4.533   0.335   2.109 -1.5663 -1.4724  1.1974
 3958SOL    MW415600   4.606   0.318   2.154 -0.2693 -0.0838 -0.2228
 3959SOL     OW15601   0.464   2.672   5.396  0.1177 -0.7747  0.2404
 3959SOL    HW215602   0.396   2.708   5.452  0.0818 -1.2681  0.5231
 3959SOL    HW315603   0.417   2.634   5.322  0.1430 -0.4005  0.0318
 3959SOL    MW415604   0.449   2.671   5.394  0.1163 -0.7904  0.2502
 3960SOL     OW15605   5.661   2.827   2.412  0.4580  0.1108 -0.4794
 3960SOL    HW215606   5.736   2.807   2.356  0.5239  0.8441 -0.6628
 3960SOL    HW315607   5.610   2.890   2.361  0.6196  0.9330  0.3557
 3960SOL    MW415608   5.665   2.832   2.398  0.4880  0.3160 -0.3934
 3961SOL     OW15609   2.155   1.642   0.432 -0.2409  0.1261  0.0629
 3961SOL    HW215610   2.234   1.624   0.381  1.2835  0.7505  2.1120
 3961SOL    HW315611   2.126   1.555   0.461 -0.9123 -0.2012 -1.4481
 3961SOL    MW415612   2.161   1.628   0.429 -0.1284  0.1653  0.1339
 3962SOL     OW15613   3.313   1.576   5.319  0.7023  0.5314 -0.1099
 3962SOL    HW215614   3.332   1.669   5.330 -0.8814  0.8929 -0.1503
 3962SOL    HW315615   3.251   1.574   5.246  0.6566 -0.5475 -0.0477
 3962SOL    MW415616   3.308   1.588   5.311  0.4873  0.4367 -0.1071
 3963SOL     OW15617   6.371   3.860   1.699 -0.2401 -0.1549  0.3213
 3963SOL    HW215618   6.425   3.921   1.649 -0.8190 -0.4804 -0.7233
 3963SOL    HW315619   6.303   3.915   1.738 -0.2293 -0.0083  0.1351
 3963SOL    MW415620   6.369   3.876   1.698 -0.3150 -0.1785  0.1589
 3964SOL     OW15621   6.005   5.959   5.858  0.0218  0.6286 -0.2018
 3964SOL    HW215622   5.945   5.960   5.784 -0.8036 -0.1414  0.4311
 3964SOL    HW315623   5.952   5.929   5.932  1.5186 -1.7183  0.0381
 3964SOL    MW415624   5.990   5.955   5.858  0.1104  0.2174 -0.0867
 3965SOL     OW15625   6.344   3.911   2.292 -0.1438 -0.0265 -0.1687
 3965SOL    HW215626   6.430   3.937   2.324 -0.1684  0.1216 -0.2203
 3965SOL    HW315627   6.288   3.987   2.310 -0.1838  0.0128 -0.4573
 3965SOL    MW415628   6.348   3.924   2.298 -0.1523 -0.0017 -0.2136
 3966SOL     OW15629   2.764   1.069   0.950 -0.4204  0.0385 -0.0487
 3966SOL    HW215630   2.842   1.049   0.898  0.6721 -0.8563  1.8508
 3966SOL    HW315631   2.716   1.132   0.897  2.2345  1.6682 -0.7012
 3966SOL    MW415632   2.768   1.074   0.936  0.0740  0.1354  0.1159
 3967SOL     OW15633   5.915   4.009   0.131 -0.0678  0.3033 -0.3578
 3967SOL    HW215634   5.925   4.035   0.040  0.7451  0.1983 -0.3057
 3967SOL    HW315635   5.927   3.914   0.131  1.0661  0.4295 -0.0022
 3967SOL    MW415636   5.918   4.000   0.119  0.1891  0.3061 -0.3040
 3968SOL     OW15637   2.691   4.622   6.278  0.0725  0.0331  0.0985
 3968SOL    HW215638   2.755   4.551   6.283 -1.1903 -1.2474 -0.7713
 3968SOL    HW315639   2.610   4.578   6.250 -0.7753  1.8225 -0.3816
 3968SOL    MW415640   2.689   4.607   6.275 -0.2060  0.1002 -0.0796
 3969SOL     OW15641   2.347   3.121   5.204  0.0637 -0.1848  0.3290
 3969SOL    HW215642   2.306   3.139   5.289  0.5811 -0.8522  0.7298
 3969SOL    HW315643   2.357   3.208   5.164 -2.1529 -0.0288 -0.0005
 3969SOL    MW415644   2.343   3.135   5.210 -0.1605 -0.2523  0.3384
 3970SOL     OW15645   6.397   4.141   4.457 -0.0122 -0.4683  0.0317
 3970SOL    HW215646   6.423   4.131   4.366  0.0353 -1.3967  0.1428
 3970SOL    HW315647   6.435   4.066   4.502  0.3906  0.2430  0.9210
 3970SOL    MW415648   6.405   4.130   4.451  0.0472 -0.4970  0.1637
 3971SOL     OW15649   2.809   2.272   5.620  0.5367  0.3969 -0.5304
 3971SOL    HW215650   2.814   2.287   5.714 -0.9033  1.5316 -0.6053
 3971SOL    HW315651   2.832   2.356   5.581  2.1627 -0.3403 -1.2494
 3971SOL    MW415652   2.813   2.285   5.627  0.5612  0.4493 -0.6351
 3972SOL     OW15653   3.982   1.835   4.936  0.2212  0.2775  0.4233
 3972SOL    HW215654   3.959   1.894   5.008  0.8097 -1.4571  2.1388
 3972SOL    HW315655   3.950   1.749   4.964 -0.0958 -0.3657 -1.7084
 3972SOL    MW415656   3.975   1.831   4.949  0.2570 -0.0362  0.3684
 3973SOL     OW15657   5.234   5.403   0.777 -0.3348 -0.6758  0.0138
 3973SOL    HW215658   5.297   5.350   0.729 -0.9612 -1.3321 -0.1052
 3973SOL    HW315659   5.209   5.472   0.715  0.8949  0.1189  0.3598
 3973SOL    MW415660   5.239   5.405   0.762 -0.2552 -0.6575  0.0437
 3974SOL     OW15661   6.360   1.997   1.868 -0.3947 -0.1131  0.3182
 3974SOL    HW215662   6.322   1.966   1.786 -0.6731 -2.3145  1.2251
 3974SOL    HW315663   6.453   2.010   1.848 -0.5507 -0.1678 -0.4611
 3974SOL    MW415664   6.367   1.995   1.855 -0.4520 -0.4107  0.3350
 3975SOL     OW15665   2.190   1.542   1.238  0.3080 -0.9513  0.1019
 3975SOL    HW215666   2.140   1.465   1.213 -1.2547  0.4284 -1.2321
 3975SOL    HW315667   2.221   1.523   1.327 -0.6997 -2.7585  0.1091
 3975SOL    MW415668   2.188   1.530   1.247 -0.0312 -1.0077 -0.0732
 3976SOL     OW15669   1.316   5.494   6.414  0.2982  0.6743  0.0061
 3976SOL    HW215670   1.327   5.568   6.472 -0.4725  0.7345  0.0884
 3976SOL    HW315671   1.290   5.422   6.471 -1.2189  0.9222 -0.3272
 3976SOL    MW415672   1.314   5.494   6.429 -0.0036  0.7150 -0.0270
 3977SOL     OW15673   5.840   5.742   3.485 -0.1722 -0.3835  0.3942
 3977SOL    HW215674   5.759   5.790   3.503 -1.1128 -1.3443 -1.0832
 3977SOL    HW315675   5.863   5.768   3.396  1.2408 -0.0226  0.8513
 3977SOL    MW415676   5.832   5.752   3.475 -0.1099 -0.4626  0.2596
 3978SOL     OW15677   0.088   4.600   3.808 -0.1370  0.3042 -0.0848
 3978SOL    HW215678   0.137   4.521   3.787 -1.3389 -0.7731  1.0018
 3978SOL    HW315679   0.140   4.644   3.875  1.0237  0.9727 -1.3903
 3978SOL    MW415680   0.101   4.596   3.814 -0.1425  0.2503 -0.1137
 3979SOL     OW15681   5.868   1.118   3.112  0.3119  0.0609  0.6171
 3979SOL    HW215682   5.913   1.149   3.034 -0.8257  2.2891  0.7548
 3979SOL    HW315683   5.930   1.058   3.154  1.9139  0.7219 -0.7019
 3979SOL    MW415684   5.882   1.114   3.107  0.3732  0.4421  0.4612
 3980SOL     OW15685   1.305   2.314   3.684  0.1687  0.2652  0.0549
 3980SOL    HW215686   1.364   2.296   3.610 -1.1005 -0.1876 -0.8961
 3980SOL    HW315687   1.279   2.227   3.715  0.1514  0.4615  0.5912
 3980SOL    MW415688   1.309   2.300   3.678 -0.0010  0.2314  0.0002
 3981SOL     OW15689   1.012   1.683   0.761  0.0191 -0.5164  0.2660
 3981SOL    HW215690   0.933   1.638   0.790 -0.2563 -0.0684  0.2225
 3981SOL    HW315691   0.981   1.766   0.724  0.5749  0.0948  1.1208
 3981SOL    MW415692   0.997   1.688   0.760  0.0561 -0.3767  0.3731
 3982SOL     OW15693   2.757   3.341   3.605  0.7841 -0.0043  0.2545
 3982SOL    HW215694   2.773   3.250   3.631  1.2605 -0.1867 -0.5985
 3982SOL    HW315695   2.698   3.376   3.671 -1.1954 -1.5990 -0.5859
 3982SOL    MW415696   2.752   3.334   3.617  0.5858 -0.2388  0.0310
 3983SOL     OW15697   5.358   3.829   0.909  0.0258 -0.0844  0.3176
 3983SOL    HW215698   5.281   3.835   0.853  0.4060  0.3555 -0.1720
 3983SOL    HW315699   5.432   3.825   0.848  0.2774 -3.9220  0.6123
 3983SOL    MW415700   5.358   3.829   0.893  0.1091 -0.5327  0.2919
 3984SOL     OW15701   6.112   0.611   6.091  0.2206 -0.8318 -0.4600
 3984SOL    HW215702   6.080   0.550   6.157  1.9161 -1.6684 -0.3764
 3984SOL    HW315703   6.174   0.667   6.137 -0.5161  0.2931 -0.7843
 3984SOL    MW415704   6.116   0.610   6.106  0.3471 -0.7938 -0.4918
 3985SOL     OW15705   4.318   4.411   2.182  0.1398 -0.2319  0.0647
 3985SOL    HW215706   4.311   4.366   2.266  2.1546  0.7874  0.8607
 3985SOL    HW315707   4.244   4.379   2.131 -0.2257 -2.1008  1.6484
 3985SOL    MW415708   4.308   4.401   2.186  0.3574 -0.3440  0.3786
 3986SOL     OW15709   3.415   3.707   2.007 -0.3532  0.5744 -0.1514
 3986SOL    HW215710   3.376   3.729   2.091 -1.9042 -0.6365 -0.5088
 3986SOL    HW315711   3.478   3.638   2.027 -0.2992  0.6865  0.0717
 3986SOL    MW415712   3.418   3.701   2.021 -0.5507  0.4294 -0.1691
 3987SOL     OW15713   3.884   3.158   3.103 -0.1579  0.4011  0.0446
 3987SOL    HW215714   3.834   3.221   3.050  2.6433  1.5493 -1.4323
 3987SOL    HW315715   3.934   3.212   3.163  0.9030 -0.5256  0.0225
 3987SOL    MW415716   3.884   3.174   3.104  0.3517  0.4303 -0.1532
 3988SOL     OW15717   3.095   3.977   0.294  0.1359 -0.0095 -0.5611
 3988SOL    HW215718   3.098   4.065   0.255 -0.0760 -0.4631 -1.6371
 3988SOL    HW315719   3.156   3.982   0.368 -0.9413  1.4566  0.2878
 3988SOL    MW415720   3.104   3.990   0.298 -0.0342  0.1241 -0.5911
 3989SOL     OW15721   5.728   0.284   3.612  0.2089 -0.0053 -0.6950
 3989SOL    HW215722   5.665   0.356   3.618  0.1122 -0.2406  2.4435
 3989SOL    HW315723   5.682   0.217   3.560 -0.0913  1.7162 -2.7729
 3989SOL    MW415724   5.713   0.285   3.606  0.1565  0.1908 -0.5551
 3990SOL     OW15725   2.921   1.750   0.486  0.3478 -0.3824 -0.0838
 3990SOL    HW215726   2.914   1.832   0.535  3.8022  0.8185 -1.3267
 3990SOL    HW315727   2.846   1.751   0.427 -1.7298  0.0011  2.3516
 3990SOL    MW415728   2.910   1.761   0.485  0.5294 -0.1734  0.0736
 3991SOL     OW15729   3.830   1.511   0.760 -0.0065  0.5466  0.0280
 3991SOL    HW215730   3.848   1.505   0.854  1.2565  1.2899 -0.1306
 3991SOL    HW315731   3.839   1.422   0.727 -0.1452  0.3360  0.5655
 3991SOL    MW415732   3.834   1.499   0.768  0.1419  0.6169  0.0780
 3992SOL     OW15733   0.654   4.426   6.027  0.0010 -0.5094  0.4658
 3992SOL    HW215734   0.565   4.460   6.020  0.1931  0.0181  0.5798
 3992SOL    HW315735   0.710   4.500   6.005  0.4167 -0.8128  0.4952
 3992SOL    MW415736   0.650   4.440   6.023  0.0812 -0.4799  0.4847
 3993SOL     OW15737   2.745   3.437   3.185  0.0310 -0.0551  0.2452
 3993SOL    HW215738   2.688   3.389   3.245 -2.2123  1.0911 -0.8600
 3993SOL    HW315739   2.692   3.452   3.107  1.9122  0.9426 -0.9315
 3993SOL    MW415740   2.730   3.433   3.182 -0.0167  0.2277 -0.0559
 3994SOL     OW15741   0.673   0.912   1.894 -0.3085  0.5382 -0.2296
 3994SOL    HW215742   0.751   0.932   1.842 -1.2641 -0.9035 -2.4010
 3994SOL    HW315743   0.706   0.861   1.968  0.8421  0.0314 -1.0586
 3994SOL    MW415744   0.687   0.908   1.897 -0.2828  0.2812 -0.6255
 3995SOL     OW15745   3.723   0.716   5.782 -0.3163  0.1171 -0.2359
 3995SOL    HW215746   3.703   0.623   5.784  2.4887 -0.5647  0.3463
 3995SOL    HW315747   3.788   0.725   5.712 -3.6291  2.4654 -3.3584
 3995SOL    MW415748   3.729   0.705   5.773 -0.3833  0.3370 -0.5711
 3996SOL     OW15749   2.859   1.760   2.700  0.2860 -0.2011 -0.4314
 3996SOL    HW215750   2.879   1.847   2.665 -0.2640 -0.2034 -0.7532
 3996SOL    HW315751   2.900   1.759   2.786  0.2754  0.3881 -0.4175
 3996SOL    MW415752   2.867   1.771   2.707  0.2120 -0.1236 -0.4720
 3997SOL     OW15753   2.679   0.849   4.948 -0.0231 -0.1104 -0.0131
 3997SOL    HW215754   2.594   0.889   4.965 -0.7482 -1.5163 -0.2169
 3997SOL    HW315755   2.659   0.768   4.902  1.2940 -1.3264  1.4427
 3997SOL    MW415756   2.665   0.844   4.944  0.0550 -0.4563  0.1521
 3998SOL     OW15757   6.282   5.643   6.166 -0.3452 -0.5394 -0.2795
 3998SOL    HW215758   6.211   5.585   6.194  0.4805 -1.2600  0.4006
 3998SOL    HW315759   6.264   5.660   6.074 -0.5887 -1.9355 -0.5156
 3998SOL    MW415760   6.270   5.637   6.158 -0.2684 -0.8187 -0.2209
 3999SOL     OW15761   2.952   4.254   2.605 -0.1077  0.4423  0.3875
 3999SOL    HW215762   2.886   4.287   2.543 -0.4049  0.4810  0.7198
 3999SOL    HW315763   3.035   4.261   2.558 -0.0570  2.2902  0.6833
 3999SOL    MW415764   2.954   4.259   2.590 -0.1402  0.6912  0.4703
 4000SOL     OW15765   0.409   3.674   0.791  0.0188  0.3948 -0.4812
 4000SOL    HW215766   0.345   3.740   0.762  0.4836  0.2892 -1.7621
 4000SOL    HW315767   0.378   3.592   0.753  0.6627  0.2571 -0.7046
 4000SOL    MW415768   0.396   3.672   0.782  0.1651  0.3627 -0.6796
 4001SOL     OW15769   3.215   1.002   4.546  0.3286 -0.1928 -0.1542
 4001SOL    HW215770   3.222   0.909   4.569  1.0615 -0.4063 -1.1510
 4001SOL    HW315771   3.283   1.045   4.598  1.4153 -0.5463 -1.2340
 4001SOL    MW415772   3.225   0.995   4.556  0.5687 -0.2676 -0.4282
 4002SOL     OW15773   5.937   2.380   3.519  0.2446  0.0384  0.0651
 4002SOL    HW215774   6.022   2.347   3.549 -0.6146 -0.9767  1.5774
 4002SOL    HW315775   5.875   2.314   3.549 -1.2422  1.4922  0.3222
 4002SOL    MW415776   5.940   2.367   3.527 -0.0649  0.0963  0.2986
 4003SOL     OW15777   1.101   5.816   1.972  0.1289  0.5240 -0.1172
 4003SOL    HW215778   1.108   5.857   2.059  1.0710 -0.5870  0.3563
 4003SOL    HW315779   1.170   5.858   1.921  0.5238  0.1710  0.1133
 4003SOL    MW415780   1.111   5.827   1.977  0.3053  0.3308 -0.0243
 4004SOL     OW15781   1.003   1.378   3.679 -0.4679  0.3034 -0.0078
 4004SOL    HW215782   0.987   1.309   3.743 -0.1811 -0.4789 -0.7654
 4004SOL    HW315783   1.052   1.445   3.728  0.7876 -0.8018  0.3141
 4004SOL    MW415784   1.008   1.378   3.694 -0.2644  0.0544 -0.0653
 4005SOL     OW15785   3.233   1.015   3.440  0.1595 -0.0658  0.2767
 4005SOL    HW215786   3.247   0.928   3.478  0.5871 -0.0021  0.2744
 4005SOL    HW315787   3.138   1.027   3.441 -0.1984 -1.7698 -2.4799
 4005SOL    MW415788   3.222   1.005   3.445  0.1687 -0.2822 -0.0873
 4006SOL     OW15789   4.107   4.995   5.320 -0.2269 -0.2463 -0.3766
 4006SOL    HW215790   4.192   5.037   5.307 -0.3544 -0.1011 -0.7711
 4006SOL    HW315791   4.049   5.067   5.343 -0.2726 -0.3250 -0.2465
 4006SOL    MW415792   4.110   5.010   5.321 -0.2498 -0.2375 -0.4115
 4007SOL     OW15793   0.733   2.585   5.343  0.2915  0.5031 -0.2459
 4007SOL    HW215794   0.809   2.642   5.356  0.0039  0.4440  1.9798
 4007SOL    HW315795   0.662   2.627   5.391 -0.0613 -1.4369  1.0557
 4007SOL    MW415796   0.734   2.598   5.351  0.2070  0.2393  0.2195
 4008SOL     OW15797   2.866   5.979   1.892  0.4298  0.0758  0.2365
 4008SOL    HW215798   2.792   5.959   1.835  0.0892  2.5947 -0.2860
 4008SOL    HW315799   2.942   5.981   1.834  0.2687  1.4384  0.0524
 4008SOL    MW415800   2.867   5.976   1.877  0.3636  0.5879  0.1433
 4009SOL     OW15801   4.000   2.682   3.359 -0.5519 -0.2979 -0.2971
 4009SOL    HW215802   3.932   2.688   3.426 -1.6796  1.2692 -1.5085
 4009SOL    HW315803   4.032   2.772   3.349  1.7936 -1.0171  0.3042
 4009SOL    MW415804   3.995   2.695   3.366 -0.3913 -0.1860 -0.3776
 4010SOL     OW15805   3.637   5.863   5.140  0.1163  0.1518  0.1951
 4010SOL    HW215806   3.588   5.878   5.221 -1.7810 -0.3275 -0.8289
 4010SOL    HW315807   3.665   5.772   5.145 -1.3231 -0.3405 -0.3484
 4010SOL    MW415808   3.635   5.853   5.152 -0.3239  0.0236 -0.0117
 4011SOL     OW15809   4.686   1.623   1.160 -0.1612  0.2267  0.1357
 4011SOL    HW215810   4.662   1.540   1.201  1.1813 -0.3176 -0.1400
 4011SOL    HW315811   4.732   1.671   1.229 -4.2509  2.4952  1.6325
 4011SOL    MW415812   4.689   1.618   1.175 -0.5237  0.4542  0.2968
 4012SOL     OW15813   4.093   3.903   3.713  0.5134  0.1015  0.1035
 4012SOL    HW215814   4.159   3.846   3.752  0.1479  1.2358  2.5639
 4012SOL    HW315815   4.143   3.962   3.656  1.1425 -1.2431 -0.7869
 4012SOL    MW415816   4.109   3.904   3.711  0.5482  0.0738  0.3106
 4013SOL     OW15817   3.983   5.622   4.456  0.1781 -0.1792 -0.0891
 4013SOL    HW215818   4.054   5.621   4.392 -0.0189 -0.6474 -0.3077
 4013SOL    HW315819   4.027   5.616   4.540  0.4835  1.2610 -0.1269
 4013SOL    MW415820   3.998   5.621   4.458  0.1924 -0.0510 -0.1230
 4014SOL     OW15821   1.451   6.167   0.699 -0.0809  0.5913 -0.1148
 4014SOL    HW215822   1.450   6.091   0.640 -1.7916  0.4745  0.0127
 4014SOL    HW315823   1.456   6.129   0.787  1.0793  0.7167 -0.1153
 4014SOL    MW415824   1.451   6.152   0.703 -0.1536  0.5924 -0.0980
 4015SOL     OW15825   4.224   5.797   0.645  0.1345  0.1818 -0.4375
 4015SOL    HW215826   4.135   5.830   0.655 -0.3128 -1.5685  2.8049
 4015SOL    HW315827   4.279   5.863   0.687  0.2559  0.7851 -1.5368
 4015SOL    MW415828   4.220   5.810   0.652  0.0915  0.0305 -0.1547
 4016SOL     OW15829   1.442   1.509   0.563  0.2505 -0.1803 -0.0866
 4016SOL    HW215830   1.448   1.596   0.522 -2.0290 -0.8866 -2.1833
 4016SOL    HW315831   1.364   1.515   0.619  0.5795 -0.6395  0.4323
 4016SOL    MW415832   1.432   1.522   0.565 -0.0069 -0.3340 -0.2947
 4017SOL     OW15833   2.739   1.411   2.952  0.3288 -0.0049  0.6446
 4017SOL    HW215834   2.763   1.479   3.014  1.0212  0.0905  0.2787
 4017SOL    HW315835   2.822   1.374   2.922  0.0039 -0.2001 -0.0599
 4017SOL    MW415836   2.753   1.415   2.956  0.3773 -0.0181  0.5034
 4018SOL     OW15837   0.655   0.101   1.826  0.2672 -0.6661 -0.2511
 4018SOL    HW215838   0.587   0.039   1.852  0.8390 -3.0977 -3.8496
 4018SOL    HW315839   0.608   0.170   1.779 -0.1118  0.3874  1.5873
 4018SOL    MW415840   0.640   0.101   1.823  0.2926 -0.8479 -0.4833
 4019SOL     OW15841   0.433   4.565   3.601 -0.8583 -0.0036  0.4841
 4019SOL    HW215842   0.479   4.533   3.523 -1.0397 -0.3977  0.5359
 4019SOL    HW315843   0.503   4.587   3.663 -0.7099  0.4017  0.1798
 4019SOL    MW415844   0.448   4.564   3.599 -0.8627 -0.0021  0.4508
 4020SOL     OW15845   2.019   6.419   5.354 -0.5674  0.5144 -0.2499
 4020SOL    HW215846   1.937   6.384   5.320 -0.4846 -0.6655  0.6659
 4020SOL    HW315847   1.995   6.459   5.437 -0.7307  3.1446 -1.4848
 4020SOL    MW415848   2.005   6.420   5.360 -0.5780  0.7057 -0.2920
 4021SOL     OW15849   3.584   6.110   3.170  0.0923  0.0267  0.1180
 4021SOL    HW215850   3.580   6.195   3.127 -1.4588  0.2850  0.7143
 4021SOL    HW315851   3.528   6.119   3.247  0.1796 -1.4296  0.3845
 4021SOL    MW415852   3.576   6.123   3.174 -0.1008 -0.1313  0.2318
 4022SOL     OW15853   1.710   5.417   2.330 -0.4363  0.0645  0.2463
 4022SOL    HW215854   1.758   5.391   2.251 -0.2418  1.8671 -0.2842
 4022SOL    HW315855   1.747   5.363   2.399 -1.3853 -2.3815 -1.0457
 4022SOL    MW415856   1.722   5.407   2.328 -0.5358 -0.0204  0.0058
 4023SOL     OW15857   4.061   0.891   3.608  0.3403 -0.4692  0.3604
 4023SOL    HW215858   4.127   0.935   3.662 -1.1545  1.5465  0.6201
 4023SOL    HW315859   4.108   0.868   3.528  1.9655 -1.3125  1.4911
 4023SOL    MW415860   4.076   0.893   3.605  0.3575 -0.3146  0.5438
 4024SOL     OW15861   4.128   0.118   1.675 -0.6257  0.2481 -0.6431
 4024SOL    HW215862   4.047   0.167   1.661 -1.9953 -1.3677  1.0665
 4024SOL    HW315863   4.142   0.071   1.593 -0.9015  1.2381 -1.2739
 4024SOL    MW415864   4.119   0.119   1.663 -0.8428  0.1655 -0.5008
 4025SOL     OW15865   4.605   5.325   0.315  0.5336  0.3130  0.2393
 4025SOL    HW215866   4.519   5.358   0.288 -0.9335 -2.8301  0.5911
 4025SOL    HW315867   4.662   5.342   0.240 -0.9839  0.4690 -0.9302
 4025SOL    MW415868   4.601   5.332   0.302  0.1398 -0.0811  0.1314
 4026SOL     OW15869   5.022   2.391   2.619 -0.2724  0.1779  0.1598
 4026SOL    HW215870   4.964   2.365   2.690 -1.8276  0.1175 -1.0743
 4026SOL    HW315871   4.981   2.355   2.540  1.0849  0.7304 -0.8438
 4026SOL    MW415872   5.009   2.383   2.618 -0.2985  0.2428 -0.1355
 4027SOL     OW15873   0.355   5.280   6.408 -0.4127  0.2217 -0.2848
 4027SOL    HW215874   0.449   5.264   6.397 -0.0908  0.7540  1.3363
 4027SOL    HW315875   0.320   5.196   6.440 -0.2645  0.3407  0.2037
 4027SOL    MW415876   0.363   5.267   6.411 -0.3507  0.3076 -0.0064
 4028SOL     OW15877   4.598   4.045   1.051  0.0304  0.7633 -0.0232
 4028SOL    HW215878   4.574   3.954   1.036  0.9444  0.2583  1.4515
 4028SOL    HW315879   4.685   4.055   1.012  0.0961  0.8986  0.1537
 4028SOL    MW415880   4.606   4.035   1.044  0.1597  0.7145  0.1947
 4029SOL     OW15881   0.162   3.470   1.773  0.2252 -0.0524 -0.6024
 4029SOL    HW215882   0.256   3.478   1.756  0.1959 -0.0093 -0.7494
 4029SOL    HW315883   0.157   3.427   1.858  0.3796  2.8061  0.9486
 4029SOL    MW415884   0.174   3.465   1.782  0.2417  0.3305 -0.4172
 4030SOL     OW15885   0.999   5.818   6.009 -0.2912 -0.2722  0.2359
 4030SOL    HW215886   0.990   5.834   5.915 -0.9255 -3.6891 -0.4148
 4030SOL    HW315887   1.094   5.813   6.023 -0.1774 -1.9953 -0.7811
 4030SOL    MW415888   1.010   5.819   5.998 -0.3599 -0.9503  0.0159
 4031SOL     OW15889   0.406   2.677   0.669  0.0241  0.0479  0.4315
 4031SOL    HW215890   0.389   2.589   0.637 -0.4526 -0.2647  1.4780
 4031SOL    HW315891   0.477   2.710   0.615 -0.7025 -0.4640 -0.8656
 4031SOL    MW415892   0.413   2.670   0.658 -0.1347 -0.0609  0.3985
 4032SOL     OW15893   3.724   4.242   6.144  0.4692 -0.1636  0.3423
 4032SOL    HW215894   3.697   4.156   6.176  0.8976 -0.1748  0.6797
 4032SOL    HW315895   3.804   4.262   6.192  0.2842  0.5017  0.3922
 4032SOL    MW415896   3.731   4.233   6.154  0.5013 -0.0773  0.3934
 4033SOL     OW15897   2.323   5.159   5.762  0.5303 -0.2400 -0.6016
 4033SOL    HW215898   2.268   5.221   5.714 -0.8253 -0.7904  0.1517
 4033SOL    HW315899   2.344   5.091   5.698  1.1017  0.4322 -1.1367
 4033SOL    MW415900   2.318   5.158   5.748  0.4269 -0.2239 -0.5728
 4034SOL     OW15901   5.391   5.941   3.306 -0.3943 -0.3500 -0.3556
 4034SOL    HW215902   5.433   5.992   3.376 -1.6227  1.1816 -0.6819
 4034SOL    HW315903   5.457   5.934   3.238 -0.4054  1.4595 -0.5974
 4034SOL    MW415904   5.405   5.947   3.307 -0.5579  0.0908 -0.4306
 4035SOL     OW15905   5.157   6.374   4.700 -0.4727  0.2425 -0.3782
 4035SOL    HW215906   5.182   6.379   4.792 -0.2157  2.1528 -0.5075
 4035SOL    HW315907   5.194   6.290   4.670 -2.5172 -1.5647  1.7538
 4035SOL    MW415908   5.165   6.363   4.708 -0.7085  0.2561 -0.1140
 4036SOL     OW15909   2.157   5.473   1.898  0.4368 -0.0575 -0.0918
 4036SOL    HW215910   2.179   5.380   1.886 -0.6846 -0.3025 -0.3252
 4036SOL    HW315911   2.083   5.473   1.958  0.2476  0.6711 -0.3134
 4036SOL    MW415912   2.150   5.461   1.904  0.2639  0.0063 -0.1518
 4037SOL     OW15913   1.215   5.132   4.488  0.3511  0.3146  0.3174
 4037SOL    HW215914   1.287   5.190   4.462  0.0044 -0.1256 -1.8670
 4037SOL    HW315915   1.149   5.191   4.525  1.0148  0.9851  0.4643
 4037SOL    MW415916   1.216   5.148   4.489  0.3929  0.3450  0.0486
 4038SOL     OW15917   0.087   5.477   6.082  0.0258 -0.2462  0.5162
 4038SOL    HW215918   0.170   5.524   6.074 -0.0162 -0.2173  0.2585
 4038SOL    HW315919   0.027   5.539   6.122  0.0387 -0.1603  0.4019
 4038SOL    MW415920   0.090   5.491   6.086  0.0220 -0.2310  0.4671
 4039SOL     OW15921   6.404   4.781   1.250 -0.4189 -0.3605 -0.1720
 4039SOL    HW215922   6.455   4.823   1.181  2.7556 -0.4596  1.9016
 4039SOL    HW315923   6.370   4.854   1.302 -0.9947 -0.3059 -0.6228
 4039SOL    MW415924   6.407   4.796   1.247 -0.0761 -0.3663  0.0421
 4040SOL     OW15925   6.121   0.408   2.932  0.5886  0.0535  0.3714
 4040SOL    HW215926   6.042   0.381   2.977  1.4425 -1.6024  0.9612
 4040SOL    HW315927   6.177   0.444   3.000  1.5417 -1.6644  0.5567
 4040SOL    MW415928   6.118   0.409   2.947  0.8270 -0.3916  0.4737
 4041SOL     OW15929   4.764   5.129   6.010  0.1224 -0.2382 -0.7679
 4041SOL    HW215930   4.751   5.040   6.044 -0.2309 -0.2650 -0.9691
 4041SOL    HW315931   4.709   5.133   5.932 -1.1197  0.6699  0.1152
 4041SOL    MW415932   4.755   5.118   6.004 -0.0881 -0.1220 -0.6779
 4042SOL     OW15933   1.477   3.138   4.220 -0.0515 -0.3263 -0.0740
 4042SOL    HW215934   1.392   3.100   4.242 -0.4339  0.4143 -0.2465
 4042SOL    HW315935   1.538   3.064   4.222 -0.6975 -0.8593  0.0542
 4042SOL    MW415936   1.474   3.123   4.223 -0.1872 -0.2989 -0.0798
 4043SOL     OW15937   3.728   5.033   0.276 -0.1889  0.2371  0.3076
 4043SOL    HW215938   3.661   4.968   0.298  2.4508 -2.2718  1.5939
 4043SOL    HW315939   3.768   5.056   0.360  0.3377  1.9783 -0.3687
 4043SOL    MW415940   3.724   5.028   0.290  0.2288  0.1358  0.3881
 4044SOL     OW15941   0.261   2.728   2.792 -0.3956 -0.0235 -0.2759
 4044SOL    HW215942   0.214   2.750   2.872  0.4475 -1.9497  0.8289
 4044SOL    HW315943   0.340   2.782   2.795 -1.0114  0.9231 -0.5524
 4044SOL    MW415944   0.265   2.738   2.803 -0.3656 -0.1527 -0.1666
 4045SOL     OW15945   2.751   2.856   5.384 -0.3299  0.4218  0.4552
 4045SOL    HW215946   2.720   2.765   5.383 -0.2443  0.3861 -0.9347
 4045SOL    HW315947   2.680   2.906   5.344 -0.8631  1.1780  2.2285
 4045SOL    MW415948   2.738   2.850   5.379 -0.3890  0.5169  0.5058
 4046SOL     OW15949   5.568   3.481   0.646 -0.2322  0.1892 -0.4216
 4046SOL    HW215950   5.654   3.447   0.671 -1.1531 -1.1542  1.1012
 4046SOL    HW315951   5.572   3.486   0.550  1.1699 -0.9011 -0.4673
 4046SOL    MW415952   5.580   3.477   0.636 -0.1687 -0.1319 -0.2267
 4047SOL     OW15953   1.782   0.007   2.368 -0.5606 -0.2103  0.5198
 4047SOL    HW215954   1.710  -0.055   2.353  0.2305 -0.7810 -1.2484
 4047SOL    HW315955   1.855  -0.048   2.397  0.2569 -0.2374 -1.4167
 4047SOL    MW415956   1.782  -0.009   2.370 -0.3483 -0.2892  0.0310
 4048SOL     OW15957   5.775   2.305   6.114  0.1442  0.1206  0.2070
 4048SOL    HW215958   5.827   2.371   6.162  1.4057 -0.4077 -0.3749
 4048SOL    HW315959   5.738   2.354   6.040  0.4968  0.3423  0.1696
 4048SOL    MW415960   5.777   2.320   6.110  0.3572  0.0801  0.1253
 4049SOL     OW15961   6.251   2.239   3.206 -0.0122  0.0556  0.2983
 4049SOL    HW215962   6.322   2.220   3.267 -1.2274  0.6315  1.9919
 4049SOL    HW315963   6.183   2.175   3.227 -0.1025 -0.3563 -1.1472
 4049SOL    MW415964   6.251   2.228   3.217 -0.1845  0.0772  0.3310
 4050SOL     OW15965   1.115   5.653   1.296 -0.9573 -0.0530  0.5360
 4050SOL    HW215966   1.122   5.665   1.201 -1.0799  0.1780  0.5555
 4050SOL    HW315967   1.132   5.560   1.309  1.4866  0.3149  0.5103
 4050SOL    MW415968   1.118   5.642   1.285 -0.6510  0.0260  0.5352
 4051SOL     OW15969   4.470   3.734   6.141  0.3122 -0.0105 -0.3095
 4051SOL    HW215970   4.501   3.755   6.229  0.4248  1.5063 -0.6919
 4051SOL    HW315971   4.509   3.801   6.085 -0.4963 -0.4093 -1.3841
 4051SOL    MW415972   4.479   3.745   6.145  0.2204  0.1370 -0.5017
 4052SOL     OW15973   4.191   1.231   5.881 -0.4216 -0.0545 -0.0440
 4052SOL    HW215974   4.097   1.220   5.891 -0.1801 -0.5400  1.9822
 4052SOL    HW315975   4.225   1.142   5.877  0.0615  0.0959  0.5695
 4052SOL    MW415976   4.183   1.218   5.882 -0.3260 -0.0987  0.3043
 4053SOL     OW15977   0.591   4.166   4.844 -0.0183 -0.0698 -0.0556
 4053SOL    HW215978   0.517   4.155   4.784  0.7011 -1.3023 -0.7605
 4053SOL    HW315979   0.613   4.259   4.839 -0.7452  0.0673 -0.7738
 4053SOL    MW415980   0.584   4.177   4.835 -0.0193 -0.2144 -0.2434
 4054SOL     OW15981   1.811   5.449  -0.002  0.4543 -0.6014  0.1468
 4054SOL    HW215982   1.795   5.429   0.091 -1.9581 -0.6592 -0.2236
 4054SOL    HW315983   1.787   5.368  -0.048 -2.5085  0.6989 -0.8046
 4054SOL    MW415984   1.806   5.435   0.005 -0.2549 -0.4374 -0.0276
 4055SOL     OW15985   2.460   6.381   2.942 -0.0963  0.1178 -0.1118
 4055SOL    HW215986   2.549   6.346   2.934 -0.5295 -0.5775 -2.6103
 4055SOL    HW315987   2.439   6.413   2.855 -2.3028  0.3023  0.4391
 4055SOL    MW415988   2.469   6.381   2.929 -0.4446  0.0504 -0.3688
 4056SOL     OW15989   2.338   5.331   1.170 -0.7199 -0.4632 -0.0512
 4056SOL    HW215990   2.390   5.273   1.225 -1.5038 -1.1777 -0.0326
 4056SOL    HW315991   2.263   5.277   1.143  0.4271 -0.7000 -3.1470
 4056SOL    MW415992   2.335   5.316   1.173 -0.6720 -0.5887 -0.4572
 4057SOL     OW15993   3.451   3.142   3.277 -0.4884 -0.4430 -0.1747
 4057SOL    HW215994   3.397   3.134   3.198 -0.4594 -0.6168 -0.1772
 4057SOL    HW315995   3.388   3.144   3.349 -0.6483  1.7722 -0.3104
 4057SOL    MW415996   3.435   3.141   3.276 -0.5056 -0.1737 -0.1930
 4058SOL     OW15997   5.971   1.194   0.995 -0.2460 -0.3568  0.8501
 4058SOL    HW215998   5.933   1.141   0.925 -0.3191  1.1170 -0.2779
 4058SOL    HW315999   5.921   1.170   1.073 -2.5742  0.4368 -0.2861
 4058SOL    MW416000   5.960   1.184   0.996 -0.5628 -0.0576  0.5513
 4059SOL     OW16001   4.716   4.933   5.596 -0.2709 -0.0246 -0.2792
 4059SOL    HW216002   4.659   5.003   5.627  0.1542 -0.0367  0.5413
 4059SOL    HW316003   4.767   4.907   5.672 -0.2143 -1.0301 -0.6371
 4059SOL    MW416004   4.715   4.939   5.610 -0.2073 -0.1589 -0.2182
 4060SOL     OW16005   6.277   6.179   3.643 -0.3975 -0.6785 -1.0332
 4060SOL    HW216006   6.271   6.274   3.630  0.1254 -0.3295  0.9844
 4060SOL    HW316007   6.191   6.146   3.618 -0.4469  0.2416 -2.2010
 4060SOL    MW416008   6.265   6.188   3.638 -0.3350 -0.5110 -0.9211
 4061SOL     OW16009   5.479   3.188   3.605 -0.0332 -0.4125  0.0203
 4061SOL    HW216010   5.469   3.157   3.695 -0.4500 -1.9472 -0.5208
 4061SOL    HW316011   5.545   3.131   3.567 -1.0525 -0.8801 -1.1095
 4061SOL    MW416012   5.486   3.176   3.612 -0.2227 -0.6767 -0.2001
 4062SOL     OW16013   6.249   2.984   6.402 -0.0571 -0.3205  0.4304
 4062SOL    HW216014   6.298   2.994   6.320  1.1539 -0.7769  1.0790
 4062SOL    HW316015   6.263   3.067   6.448 -0.7799 -0.0445  0.1610
 4062SOL    MW416016   6.257   2.996   6.397  0.0073 -0.3443  0.4804
 4063SOL     OW16017   5.530   6.212   2.281 -0.5525  0.4999 -0.3839
 4063SOL    HW216018   5.624   6.214   2.298 -0.7667 -1.2851  1.3654
 4063SOL    HW316019   5.513   6.294   2.235  2.2504 -0.3406 -3.2365
 4063SOL    MW416020   5.540   6.223   2.277 -0.2110  0.1535 -0.5294
 4064SOL     OW16021   5.887   2.534   4.192  0.6576 -0.1103 -0.1822
 4064SOL    HW216022   5.847   2.620   4.202 -0.5575 -0.5136 -1.2545
 4064SOL    HW316023   5.854   2.502   4.108  1.7495 -1.2782 -0.1946
 4064SOL    MW416024   5.878   2.541   4.182  0.6414 -0.3176 -0.3253
 4065SOL     OW16025   4.970   4.624   6.362 -0.6509 -0.7757 -0.3052
 4065SOL    HW216026   4.889   4.574   6.349 -0.7407 -0.7092  0.0085
 4065SOL    HW316027   5.033   4.559   6.394 -1.4873 -0.2226  2.7867
 4065SOL    MW416028   4.968   4.609   6.364 -0.7731 -0.6940  0.1441
 4066SOL     OW16029   0.620   4.342   1.103  0.4079 -0.8161 -0.2071
 4066SOL    HW216030   0.635   4.435   1.085 -2.8461 -0.4335 -1.7545
 4066SOL    HW316031   0.615   4.301   1.016 -3.4978 -1.2890  0.0517
 4066SOL    MW416032   0.621   4.349   1.089 -0.5367 -0.8280 -0.3771
 4067SOL     OW16033   4.353   3.107   0.135  0.5205  0.3755 -0.1772
 4067SOL    HW216034   4.362   3.190   0.183  0.9052 -0.3448  1.0544
 4067SOL    HW316035   4.269   3.071   0.165  0.4866  0.1902 -0.4944
 4067SOL    MW416036   4.343   3.113   0.145  0.5668  0.2560 -0.0565
 4068SOL     OW16037   1.590   2.930   5.136 -0.0654 -0.0395 -0.1327
 4068SOL    HW216038   1.577   2.836   5.150 -0.0566 -0.0356 -0.0991
 4068SOL    HW316039   1.628   2.961   5.218 -2.2509  0.4223  0.7736
 4068SOL    MW416040   1.593   2.921   5.149 -0.3526  0.0220 -0.0086
 4069SOL     OW16041   2.575   5.894   1.784  0.3385  0.7114  0.1203
 4069SOL    HW216042   2.611   5.829   1.844 -1.3411 -0.7947 -0.3889
 4069SOL    HW316043   2.489   5.915   1.821 -0.0575  0.9641 -0.9154
 4069SOL    MW416044   2.568   5.888   1.797  0.0647  0.5460 -0.0835
 4070SOL     OW16045   2.176   5.831   4.724  0.0147 -0.3271 -0.2775
 4070SOL    HW216046   2.257   5.856   4.680  1.4358 -4.0226 -0.1164
 4070SOL    HW316047   2.186   5.737   4.741 -3.6120 -0.5877  1.3073
 4070SOL    MW416048   2.188   5.822   4.721 -0.2763 -0.8491 -0.0471
 4071SOL     OW16049   4.995   0.743   4.589  0.0962 -0.7140  0.1249
 4071SOL    HW216050   5.015   0.780   4.503  0.2827  1.2818  0.9619
 4071SOL    HW316051   4.929   0.676   4.572  0.9935 -1.1806 -1.6846
 4071SOL    MW416052   4.989   0.739   4.576  0.2392 -0.5123 -0.0034
 4072SOL     OW16053   3.130   1.044   0.853  0.2765 -0.1964 -0.1140
 4072SOL    HW216054   3.184   0.969   0.877  1.6610 -0.3221 -3.1878
 4072SOL    HW316055   3.188   1.099   0.800 -2.0575  0.5745 -2.0583
 4072SOL    MW416056   3.145   1.041   0.849  0.1512 -0.1112 -0.7761
 4073SOL     OW16057   0.744   4.317   0.544 -0.1531 -0.0670 -0.1055
 4073SOL    HW216058   0.840   4.314   0.550 -0.1302  0.2361 -0.2965
 4073SOL    HW316059   0.725   4.404   0.509 -0.4931 -0.1732 -0.1887
 4073SOL    MW416060   0.754   4.328   0.540 -0.1949 -0.0410 -0.1417
 4074SOL     OW16061   0.299   1.379   3.140 -0.4837  0.1460 -0.4060
 4074SOL    HW216062   0.297   1.328   3.060 -1.0171 -0.6683  0.1128
 4074SOL    HW316063   0.371   1.343   3.191 -0.8985 -0.1426 -0.0137
 4074SOL    MW416064   0.308   1.368   3.137 -0.6088  0.0005 -0.2858
 4075SOL     OW16065   1.669   5.686   3.384 -0.4224  0.3075  0.0609
 4075SOL    HW216066   1.669   5.594   3.408 -1.8037 -0.1761 -1.5824
 4075SOL    HW316067   1.761   5.704   3.361 -0.4082 -1.1797 -1.2777
 4075SOL    MW416068   1.681   5.676   3.384 -0.6027  0.0475 -0.3325
 4076SOL     OW16069   5.337   4.445   1.725  0.2220  0.2022  0.4507
 4076SOL    HW216070   5.310   4.505   1.795  1.0579  0.2668  0.7254
 4076SOL    HW316071   5.377   4.371   1.771  0.0096 -0.1531  0.0711
 4076SOL    MW416072   5.338   4.443   1.741  0.3043  0.1639  0.4368
 4077SOL     OW16073   3.376   4.792   5.954  0.1205  0.1294  0.3304
 4077SOL    HW216074   3.302   4.750   5.911 -1.2587  1.0796  1.7103
 4077SOL    HW316075   3.453   4.756   5.909 -1.1945  0.7627 -2.6383
 4077SOL    MW416076   3.377   4.781   5.942 -0.2349  0.3383  0.1208
 4078SOL     OW16077   6.245   1.518   1.095  0.0324 -0.1972  0.7738
 4078SOL    HW216078   6.200   1.583   1.043  1.9536  0.2693 -0.4176
 4078SOL    HW316079   6.196   1.515   1.178 -0.9576  1.6784  0.3101
 4078SOL    MW416080   6.233   1.526   1.099  0.1552  0.1118  0.5554
 4079SOL     OW16081   0.564   0.664   5.289  0.5499 -0.4936 -0.0270
 4079SOL    HW216082   0.485   0.649   5.236 -1.0306  0.3111  1.9474
 4079SOL    HW316083   0.595   0.577   5.312  0.6522 -0.8349 -1.3587
 4079SOL    MW416084   0.557   0.651   5.285  0.3548 -0.4325  0.0578
 4080SOL     OW16085   2.021   5.469   5.163  0.2082  0.0801 -0.5578
 4080SOL    HW216086   2.063   5.515   5.236 -0.3318 -0.9754  0.4353
 4080SOL    HW316087   1.927   5.485   5.175  0.0478 -0.8689 -0.4781
 4080SOL    MW416088   2.014   5.477   5.174  0.1158 -0.1844 -0.4163
 4081SOL     OW16089   0.911   6.356   2.194 -0.4359 -0.5448 -0.1670
 4081SOL    HW216090   0.896   6.262   2.203  0.8154 -0.6917  0.6628
 4081SOL    HW316091   1.004   6.364   2.171 -0.3157  0.5092  0.5731
 4081SOL    MW416092   0.921   6.345   2.192 -0.2550 -0.4251  0.0402
 4082SOL     OW16093   3.443   0.917   0.319  0.0964  0.6766 -0.1333
 4082SOL    HW216094   3.447   0.876   0.405  1.3691 -2.1207 -1.4100
 4082SOL    HW316095   3.528   0.960   0.309  0.2165  0.4130 -0.2529
 4082SOL    MW416096   3.454   0.917   0.329  0.2802  0.2728 -0.3175
 4083SOL     OW16097   4.099   2.469   6.280  0.7371  0.1523 -0.1350
 4083SOL    HW216098   4.167   2.500   6.340  0.6720 -0.9357  0.5124
 4083SOL    HW316099   4.147   2.419   6.214  0.8873  1.8758 -1.4033
 4083SOL    MW416100   4.114   2.467   6.279  0.7483  0.2361 -0.2169
 4084SOL     OW16101   0.693   3.763   0.729  0.1775 -0.1694  0.4261
 4084SOL    HW216102   0.690   3.740   0.636 -0.2555  4.3683 -0.9347
 4084SOL    HW316103   0.605   3.742   0.761  0.5118 -2.3503  0.1056
 4084SOL    MW416104   0.681   3.757   0.721  0.1645  0.1415  0.2042
 4085SOL     OW16105   5.099   4.766   0.487 -0.0167  0.1073 -0.2865
 4085SOL    HW216106   5.134   4.751   0.575  1.3234  0.6114 -0.7188
 4085SOL    HW316107   5.134   4.695   0.434 -1.1170 -0.4033 -0.3663
 4085SOL    MW416108   5.108   4.755   0.492  0.0150  0.1064 -0.3541
 4086SOL     OW16109   6.358   3.758   0.154  0.1539 -0.0989  0.0427
 4086SOL    HW216110   6.283   3.704   0.177 -0.7785  0.8706 -0.6157
 4086SOL    HW316111   6.377   3.808   0.234 -2.1425  2.1779 -0.6886
 4086SOL    MW416112   6.351   3.758   0.168 -0.2721  0.3294 -0.1406
 4087SOL     OW16113   0.416   5.341   2.865 -0.5225  0.3219  0.1409
 4087SOL    HW216114   0.344   5.312   2.809 -1.7750  0.1544  1.7697
 4087SOL    HW316115   0.449   5.420   2.823 -1.8231  0.5362 -0.5056
 4087SOL    MW416116   0.411   5.347   2.852 -0.8593  0.3281  0.2705
 4088SOL     OW16117   4.472   5.291   3.977  0.2094 -0.2039  0.6177
 4088SOL    HW216118   4.499   5.202   4.002 -1.4522 -1.3179 -1.1884
 4088SOL    HW316119   4.544   5.322   3.922  0.7417 -0.4792  1.1387
 4088SOL    MW416120   4.485   5.283   3.973  0.0604 -0.3872  0.4481
 4089SOL     OW16121   2.168   1.783   2.609 -0.0930  0.2359 -0.0397
 4089SOL    HW216122   2.222   1.717   2.653  1.5800  0.9082 -0.9864
 4089SOL    HW316123   2.103   1.809   2.674 -0.0400 -1.4662  0.7446
 4089SOL    MW416124   2.167   1.777   2.623  0.1347  0.1000 -0.0612
 4090SOL     OW16125   3.187   1.748   4.882  0.3350  0.7094 -0.0072
 4090SOL    HW216126   3.262   1.765   4.939 -0.3794  1.3954  0.7501
 4090SOL    HW316127   3.200   1.805   4.806  1.4308 -0.4059 -0.6901
 4090SOL    MW416128   3.198   1.757   4.880  0.3853  0.6528  0.0026
 4091SOL     OW16129   2.839   1.781   4.105  0.5001  0.0690 -0.1001
 4091SOL    HW216130   2.934   1.793   4.097  0.4698 -0.9636 -2.5295
 4091SOL    HW316131   2.812   1.743   4.022 -1.9418 -0.5084  0.8846
 4091SOL    MW416132   2.848   1.778   4.093  0.1739 -0.1434 -0.2907
 4092SOL     OW16133   5.107   0.566   2.309  0.1760  0.3255 -0.8303
 4092SOL    HW216134   5.049   0.591   2.381 -1.4760 -3.3361 -0.6810
 4092SOL    HW316135   5.069   0.611   2.233 -2.3195 -1.0759 -0.5307
 4092SOL    MW416136   5.094   0.575   2.308 -0.3712 -0.3425 -0.7711
 4093SOL     OW16137   2.110   5.587   5.769  0.1252  0.1832 -0.1423
 4093SOL    HW216138   2.205   5.580   5.769  0.0556 -0.9720 -0.5550
 4093SOL    HW316139   2.093   5.680   5.783  1.3383  0.6462 -1.4906
 4093SOL    MW416140   2.120   5.598   5.771  0.2760  0.0918 -0.3746
 4094SOL     OW16141   4.828   3.185   5.785  0.6768 -0.2424  0.1226
 4094SOL    HW216142   4.771   3.137   5.845  1.9506  0.5686  2.0815
 4094SOL    HW316143   4.770   3.214   5.715 -0.9699 -0.9240  1.1459
 4094SOL    MW416144   4.813   3.183   5.784  0.6276 -0.2253  0.5160
 4095SOL     OW16145   5.125   5.010   1.899 -0.0762 -0.4669  0.2479
 4095SOL    HW216146   5.111   5.104   1.907 -1.7633 -0.7059  0.5836
 4095SOL    HW316147   5.079   4.986   1.819 -0.2405 -1.0878  0.5193
 4095SOL    MW416148   5.117   5.019   1.890 -0.3205 -0.5803  0.3280
 4096SOL     OW16149   1.955   3.797   1.325  0.6264 -0.2109 -0.4479
 4096SOL    HW216150   1.874   3.811   1.374  2.6015 -1.2746  3.5719
 4096SOL    HW316151   2.010   3.871   1.348  2.4162 -1.8734  1.0162
 4096SOL    MW416152   1.951   3.808   1.335  1.1231 -0.5706  0.2756
 4097SOL     OW16153   5.285   0.354   0.047  0.0282 -0.0091 -0.0674
 4097SOL    HW216154   5.268   0.411  -0.029 -2.3681 -2.4961 -1.5760
 4097SOL    HW316155   5.359   0.300   0.020  0.0350  0.0007 -0.0689
 4097SOL    MW416156   5.293   0.354   0.033 -0.2871 -0.3359 -0.2666
 4098SOL     OW16157   0.370   1.383   4.416 -0.2048  0.6315 -0.6026
 4098SOL    HW216158   0.441   1.346   4.470 -1.8869 -1.9658 -0.0144
 4098SOL    HW316159   0.339   1.458   4.466 -0.4738 -0.6031  1.1753
 4098SOL    MW416160   0.376   1.388   4.430 -0.4622  0.1260 -0.2904
 4099SOL     OW16161   2.310   5.876   6.007 -0.1934 -0.2385 -0.4958
 4099SOL    HW216162   2.321   5.782   5.993  0.4408  0.1539 -3.0556
 4099SOL    HW316163   2.276   5.909   5.924 -0.2838  1.8231  0.3149
 4099SOL    MW416164   2.307   5.868   5.994 -0.1216  0.0853 -0.7266
 4100SOL     OW16165   6.467   2.198   3.388  0.5782  0.0724 -0.1828
 4100SOL    HW216166   6.509   2.149   3.318 -0.3972 -1.9279  0.5551
 4100SOL    HW316167   6.426   2.132   3.443 -1.6948  1.7605  0.3312
 4100SOL    MW416168   6.467   2.183   3.386  0.1496  0.0312 -0.0176
 4101SOL     OW16169   6.041   1.193   5.036 -0.4752 -0.1716  0.2540
 4101SOL    HW216170   6.033   1.224   4.946  1.2443 -0.2505  0.0503
 4101SOL    HW316171   5.970   1.238   5.083 -0.5517  0.9239 -0.8554
 4101SOL    MW416172   6.030   1.203   5.031 -0.2584 -0.0375  0.0808
 4102SOL     OW16173   4.807   0.568   4.034  0.3009 -0.3100  0.1580
 4102SOL    HW216174   4.759   0.508   3.977 -0.3516  0.8414 -0.5433
 4102SOL    HW316175   4.884   0.519   4.062  0.0207 -1.2991 -0.7723
 4102SOL    MW416176   4.811   0.554   4.030  0.1778 -0.2886 -0.0573
 4103SOL     OW16177   1.689   2.944   4.516  0.6341 -0.3881  0.0444
 4103SOL    HW216178   1.758   3.009   4.526  0.2184  0.2632 -1.1053
 4103SOL    HW316179   1.677   2.936   4.421 -0.4028 -0.9891  0.2083
 4103SOL    MW416180   1.697   2.951   4.505  0.4425 -0.3815 -0.0857
 4104SOL     OW16181   2.922   5.345   1.690  0.5611 -0.0636 -0.0597
 4104SOL    HW216182   2.931   5.324   1.783 -0.1213  0.9790  0.2562
 4104SOL    HW316183   2.907   5.439   1.687 -0.3817 -0.2238 -1.1583
 4104SOL    MW416184   2.921   5.355   1.702  0.3467  0.0528 -0.1630
 4105SOL     OW16185   0.837   2.966   4.034  0.5225 -0.0803  0.2242
 4105SOL    HW216186   0.797   3.029   3.975  0.4283  0.2271  0.6156
 4105SOL    HW316187   0.784   2.968   4.113  0.4935 -0.6813  0.2295
 4105SOL    MW416188   0.825   2.974   4.037  0.5063 -0.1191  0.2765
 4106SOL     OW16189   0.363   0.359   5.391 -0.1264 -0.0141 -0.1482
 4106SOL    HW216190   0.453   0.390   5.396 -0.2016  0.0296  1.8117
 4106SOL    HW316191   0.342   0.358   5.298  0.7377  3.3201 -0.4878
 4106SOL    MW416192   0.372   0.363   5.380 -0.0223  0.4315  0.0656
 4107SOL     OW16193   0.054   3.162   3.790  0.0705 -0.3488  0.0390
 4107SOL    HW216194   0.001   3.103   3.845 -0.8418  1.2820  0.9723
 4107SOL    HW316195   0.145   3.145   3.817 -0.2822 -0.4171  1.2240
 4107SOL    MW416196   0.059   3.152   3.801 -0.0964 -0.1426  0.3185
 4108SOL     OW16197   2.663   4.713   4.756 -0.5733 -0.3455  0.3442
 4108SOL    HW216198   2.575   4.746   4.773  0.3556  1.4293  2.1416
 4108SOL    HW316199   2.678   4.648   4.825  0.4471  1.3340  1.7849
 4108SOL    MW416200   2.654   4.708   4.768 -0.3161  0.1103  0.7714
 4109SOL     OW16201   1.043   5.069   0.158  0.1443  0.8542 -0.0140
 4109SOL    HW216202   0.948   5.071   0.150  0.1934  0.7338 -0.7441
 4109SOL    HW316203   1.071   5.000   0.098  0.6730  0.6514  0.4534
 4109SOL    MW416204   1.034   5.061   0.149  0.2205  0.8116 -0.0486
 4110SOL     OW16205   3.973   0.733   2.856  0.1119  0.0023  0.0303
 4110SOL    HW216206   3.893   0.683   2.866  0.4002 -0.3665  0.5544
 4110SOL    HW316207   3.958   0.813   2.907  0.5771 -0.6847  1.3087
 4110SOL    MW416208   3.961   0.737   2.864  0.2113 -0.1370  0.2681
 4111SOL     OW16209   1.025   0.623   2.392 -0.3474  0.3413  0.1951
 4111SOL    HW216210   1.113   0.585   2.391 -0.7614 -0.7191  1.6337
 4111SOL    HW316211   0.985   0.594   2.310  0.9722  1.7431 -1.0133
 4111SOL    MW416212   1.032   0.614   2.381 -0.2279  0.3864  0.2255
 4112SOL     OW16213   0.436   3.412   4.734 -0.6073  0.1485 -0.2028
 4112SOL    HW216214   0.436   3.343   4.801 -1.1601  0.6929  0.3685
 4112SOL    HW316215   0.462   3.491   4.781  1.0855  0.1394 -1.0806
 4112SOL    MW416216   0.439   3.413   4.749 -0.4569  0.2191 -0.2432
 4113SOL     OW16217   1.393   5.042   2.212  0.4808 -0.2160  0.1970
 4113SOL    HW216218   1.419   5.116   2.267  0.9161  0.3416 -0.7272
 4113SOL    HW316219   1.304   5.063   2.184  0.3408 -0.3940  0.5007
 4113SOL    MW416220   1.385   5.055   2.215  0.5198 -0.1659  0.1151
 4114SOL     OW16221   0.480   2.902   3.224 -0.0046 -0.6858 -0.2738
 4114SOL    HW216222   0.501   2.959   3.297  1.0348 -0.1443 -0.9767
 4114SOL    HW316223   0.391   2.872   3.242 -0.5795  1.1439  0.1078
 4114SOL    MW416224   0.471   2.905   3.236  0.0567 -0.3729 -0.3162
 4115SOL     OW16225   1.146   2.674   4.019 -0.1497 -0.0167 -0.1535
 4115SOL    HW216226   1.206   2.705   3.952 -0.6298  0.4433 -0.3832
 4115SOL    HW316227   1.202   2.643   4.089  0.3796 -1.0626 -1.0053
 4115SOL    MW416228   1.161   2.674   4.019 -0.1432 -0.0940 -0.2962
 4116SOL     OW16229   5.286   0.756   2.244  0.0431 -0.0729  0.1632
 4116SOL    HW216230   5.240   0.686   2.290 -1.3018  0.5525 -0.1687
 4116SOL    HW316231   5.262   0.835   2.292  0.1846  0.3593 -0.4703
 4116SOL    MW416232   5.277   0.757   2.257 -0.1157  0.0667  0.0359
 4117SOL     OW16233   5.477   5.798   4.442  0.1344  0.2223  0.6099
 4117SOL    HW216234   5.381   5.804   4.441  0.1632  0.6946 -0.1504
 4117SOL    HW316235   5.496   5.740   4.515 -0.7405  0.0378  0.7085
 4117SOL    MW416236   5.467   5.791   4.452  0.0228  0.2603  0.5226
 4118SOL     OW16237   0.532   3.561   4.995 -0.0242 -0.0711  0.2529
 4118SOL    HW216238   0.538   3.654   5.013  0.1205 -0.1105  0.4120
 4118SOL    HW316239   0.623   3.530   4.998 -0.1259 -0.3271  0.8144
 4118SOL    MW416240   0.545   3.569   4.998 -0.0185 -0.1101  0.3480
 4119SOL     OW16241   0.780   4.893   5.559 -0.3747 -0.0165  0.4603
 4119SOL    HW216242   0.738   4.807   5.556 -1.8433  0.6919 -1.1663
 4119SOL    HW316243   0.800   4.912   5.467  0.3069  1.2051  0.8501
 4119SOL    MW416244   0.777   4.884   5.546 -0.4785  0.2382  0.2971
 4120SOL     OW16245   1.789   3.381   0.313  0.0022 -0.3060  0.2832
 4120SOL    HW216246   1.884   3.376   0.320  0.0889 -0.2461 -0.7123
 4120SOL    HW316247   1.769   3.337   0.230 -0.8385 -0.3108  0.4777
 4120SOL    MW416248   1.799   3.374   0.303 -0.0973 -0.2987  0.1775
 4121SOL     OW16249   1.247   5.221   1.040 -0.6209 -0.3778  0.1715
 4121SOL    HW216250   1.334   5.219   0.999 -1.3104 -1.1889 -1.3129
 4121SOL    HW316251   1.255   5.162   1.116 -0.0331 -0.9460 -0.3176
 4121SOL    MW416252   1.260   5.213   1.045 -0.6343 -0.5598 -0.0889
 4122SOL     OW16253   2.693   4.594   1.141  0.1269 -0.5135 -0.5144
 4122SOL    HW216254   2.608   4.592   1.099  0.4609 -0.4341 -1.2041
 4122SOL    HW316255   2.691   4.522   1.204 -0.4143 -0.5582 -0.5824
 4122SOL    MW416256   2.682   4.584   1.144  0.0996 -0.5089 -0.6144
 4123SOL     OW16257   0.556   5.819   2.957 -0.4978 -0.1245  0.4303
 4123SOL    HW216258   0.562   5.784   3.046  0.9495 -0.0166  0.4044
 4123SOL    HW316259   0.530   5.745   2.903 -0.6804 -0.3575  0.8349
 4123SOL    MW416260   0.553   5.805   2.962 -0.3309 -0.1410  0.4803
 4124SOL     OW16261   3.184   1.754   1.319  0.2561 -0.3250 -0.4210
 4124SOL    HW216262   3.228   1.758   1.404  0.9747 -1.1708 -0.7347
 4124SOL    HW316263   3.091   1.746   1.339  0.4302 -0.6057  0.2795
 4124SOL    MW416264   3.178   1.754   1.333  0.3739 -0.4736 -0.3700
 4125SOL     OW16265   2.573   1.940   6.365  0.1555 -0.2269 -0.1110
 4125SOL    HW216266   2.503   1.931   6.430 -0.2236  0.8521 -0.3485
 4125SOL    HW316267   2.647   1.893   6.402  0.0197  0.5665  1.2064
 4125SOL    MW416268   2.573   1.932   6.378  0.0876  0.0201  0.0314
 4126SOL     OW16269   0.051   2.799   4.358 -0.0074  0.9421  0.6379
 4126SOL    HW216270   0.056   2.889   4.326 -2.3758  1.2652  1.0096
 4126SOL    HW316271   0.093   2.802   4.444  2.5994  0.9700 -0.5227
 4126SOL    MW416272   0.057   2.811   4.365  0.0241  0.9884  0.5338
 4127SOL     OW16273   1.719   3.807   1.463 -0.0812 -0.2179 -0.2508
 4127SOL    HW216274   1.734   3.751   1.539 -2.7509 -0.5096  0.1545
 4127SOL    HW316275   1.659   3.757   1.408 -1.6808  1.7692 -0.3957
 4127SOL    MW416276   1.713   3.793   1.466 -0.6444  0.0058 -0.2164
 4128SOL     OW16277   3.242   4.094   2.236  0.1601  0.4192 -0.4540
 4128SOL    HW216278   3.200   4.037   2.172 -1.0811  1.5275 -0.6647
 4128SOL    HW316279   3.306   4.144   2.184 -0.3985  0.8677 -0.7196
 4128SOL    MW416280   3.245   4.093   2.220 -0.0773  0.6246 -0.5169
 4129SOL     OW16281   4.780   1.189   5.060 -0.7621 -0.4150  0.1317
 4129SOL    HW216282   4.813   1.219   4.975  1.6539  0.9029  1.4134
 4129SOL    HW316283   4.854   1.203   5.120 -2.0561 -2.2055  2.2773
 4129SOL    MW416284   4.794   1.195   5.057 -0.6141 -0.4774  0.5839
 4130SOL     OW16285   3.273   1.189   5.758  1.1044  0.0934  0.1970
 4130SOL    HW216286   3.289   1.212   5.849 -0.3926  0.4758  0.3970
 4130SOL    HW316287   3.221   1.108   5.762  0.9111  0.1854 -0.2969
 4130SOL    MW416288   3.268   1.181   5.770  0.8814  0.1560  0.1582
 4131SOL     OW16289   3.269   6.054   1.436 -0.3570 -0.4596  0.1927
 4131SOL    HW216290   3.349   6.006   1.459 -0.0454  0.3038  0.7555
 4131SOL    HW316291   3.275   6.135   1.487 -1.3356 -0.2504 -0.0151
 4131SOL    MW416292   3.281   6.058   1.446 -0.4450 -0.3313  0.2395
 4132SOL     OW16293   1.547   0.252  -0.001 -0.5557 -0.4119 -0.4547
 4132SOL    HW216294   1.548   0.271   0.093 -1.2632  0.8595 -0.6750
 4132SOL    HW316295   1.609   0.314  -0.039 -1.8402  0.5741 -1.0417
 4132SOL    MW416296   1.555   0.263   0.006 -0.8186 -0.1141 -0.5612
 4133SOL     OW16297   5.946   0.739   2.532  0.4638  0.3327 -0.2348
 4133SOL    HW216298   6.009   0.667   2.535 -0.3439 -0.3552  0.8717
 4133SOL    HW316299   5.892   0.721   2.455 -2.5152 -2.7508  2.2676
 4133SOL    MW416300   5.947   0.727   2.522 -0.0358 -0.1649  0.2414
 4134SOL     OW16301   5.249   4.675   4.535 -0.1657  0.2680  0.5356
 4134SOL    HW216302   5.303   4.744   4.572 -0.7213  1.3299 -0.5423
 4134SOL    HW316303   5.285   4.594   4.571  1.3838  1.0146  0.7515
 4134SOL    MW416304   5.261   4.673   4.544 -0.0346  0.5066  0.4218
 4135SOL     OW16305   6.454   3.101   5.303  0.1046  0.1636  0.2947
 4135SOL    HW216306   6.415   3.076   5.386 -0.1152  2.1861  0.8377
 4135SOL    HW316307   6.386   3.084   5.238  0.3029 -1.4884  0.4832
 4135SOL    MW416308   6.440   3.095   5.305  0.1018  0.2125  0.3912
 4136SOL     OW16309   1.652   4.321   0.585 -0.4005 -0.0537  0.3378
 4136SOL    HW216310   1.618   4.234   0.562  0.7340 -0.5054  0.3288
 4136SOL    HW316311   1.727   4.303   0.642  0.3333  0.8945 -0.3070
 4136SOL    MW416312   1.657   4.307   0.589 -0.1540  0.0118  0.2515
 4137SOL     OW16313   3.856   3.697   6.334 -0.6988 -0.1030 -0.3275
 4137SOL    HW216314   3.867   3.792   6.333 -3.3177  0.3192  1.4100
 4137SOL    HW316315   3.870   3.670   6.244  2.5130  1.5241 -0.4819
 4137SOL    MW416316   3.859   3.706   6.322 -0.6206  0.1674 -0.1186
 4138SOL     OW16317   1.037   0.249   1.349 -0.0676  0.1667  0.1419
 4138SOL    HW216318   0.951   0.277   1.379 -1.2007  0.3745 -2.9296
 4138SOL    HW316319   1.033   0.153   1.349 -0.7040  0.1753 -0.8812
 4138SOL    MW416320   1.025   0.240   1.353 -0.3011  0.1953 -0.3984
 4139SOL     OW16321   1.628   1.874   2.091  0.0902  0.1450  0.0871
 4139SOL    HW216322   1.695   1.850   2.155 -0.7666  1.0377  1.3633
 4139SOL    HW316323   1.628   1.970   2.092  0.5348  0.2166 -1.7982
 4139SOL    MW416324   1.637   1.883   2.099  0.0358  0.2722  0.0067
 4140SOL     OW16325   2.159   0.227   2.056  0.2210 -0.4144 -0.3829
 4140SOL    HW216326   2.106   0.180   1.992  0.1512 -1.4398  0.4069
 4140SOL    HW316327   2.246   0.232   2.016 -0.1658  0.2748 -1.1870
 4140SOL    MW416328   2.164   0.222   2.042  0.1607 -0.4588 -0.3848
 4141SOL     OW16329   0.705   0.138   5.897 -0.6908 -0.1300 -0.2424
 4141SOL    HW216330   0.786   0.124   5.945 -0.7800 -0.7791 -0.2644
 4141SOL    HW316331   0.649   0.189   5.956 -0.0670  0.8157 -0.4499
 4141SOL    MW416332   0.708   0.143   5.911 -0.6202 -0.0908 -0.2727
 4142SOL     OW16333   0.819   1.562   6.022  0.3006 -0.0558 -0.4685
 4142SOL    HW216334   0.742   1.564   6.078  0.1719 -1.7831 -0.5413
 4142SOL    HW316335   0.794   1.612   5.944  0.0257  1.2374  0.4312
 4142SOL    MW416336   0.806   1.569   6.019  0.2473 -0.1131 -0.3594
 4143SOL     OW16337   6.209   0.719   0.172 -0.0477  0.4719  0.0333
 4143SOL    HW216338   6.225   0.806   0.208 -0.7588  0.8868 -0.6160
 4143SOL    HW316339   6.215   0.730   0.077  0.1829 -0.2551 -0.0430
 4143SOL    MW416340   6.212   0.732   0.165 -0.1111  0.4308 -0.0624
 4144SOL     OW16341   6.148   5.537   3.178 -0.0704  0.1732  0.0589
 4144SOL    HW216342   6.217   5.521   3.242  0.1857 -0.9617 -0.4839
 4144SOL    HW316343   6.078   5.477   3.203  0.2546 -0.6846 -1.0422
 4144SOL    MW416344   6.148   5.527   3.190  0.0063 -0.0897 -0.1580
 4145SOL     OW16345   1.977   2.226   2.933  0.1777 -0.3813  0.3624
 4145SOL    HW216346   2.016   2.292   2.989  0.2661  0.9195 -1.1607
 4145SOL    HW316347   1.898   2.267   2.898 -0.5203 -1.5954  0.4530
 4145SOL    MW416348   1.971   2.240   2.936  0.0973 -0.3699  0.1734
 4146SOL     OW16349   3.463   0.202   1.890  0.1505 -0.2629  0.1835
 4146SOL    HW216350   3.422   0.157   1.816  0.2797 -0.1291  0.0280
 4146SOL    HW316351   3.444   0.294   1.875  2.9235  0.1462 -1.4709
 4146SOL    MW416352   3.455   0.208   1.878  0.5334 -0.1913 -0.0553
 4147SOL     OW16353   4.250   2.941   3.173  0.5094 -0.6037  0.4378
 4147SOL    HW216354   4.312   2.875   3.204  0.0962  0.4170  3.9796
 4147SOL    HW316355   4.298   3.024   3.178 -0.5017 -0.0357  1.3973
 4147SOL    MW416356   4.264   2.943   3.178  0.3215 -0.3941  1.0317
 4148SOL     OW16357   5.136   2.232   1.975 -0.5161 -0.1866  0.1274
 4148SOL    HW216358   5.198   2.177   2.022  2.0473  1.4066 -1.1933
 4148SOL    HW316359   5.106   2.178   1.902  0.2189 -0.5870  0.1224
 4148SOL    MW416360   5.140   2.218   1.971 -0.0809 -0.0292 -0.0475
 4149SOL     OW16361   1.745   0.884   2.879 -0.3188 -0.4071  0.5175
 4149SOL    HW216362   1.784   0.972   2.874 -3.0554  0.8131 -1.3445
 4149SOL    HW316363   1.796   0.832   2.817 -0.9655  0.8953 -1.1718
 4149SOL    MW416364   1.757   0.889   2.870 -0.7652 -0.0742  0.0490
 4150SOL     OW16365   0.281   3.089   5.790 -0.1888 -0.3520  0.0821
 4150SOL    HW216366   0.362   3.047   5.763 -1.6986 -2.3423 -1.7082
 4150SOL    HW316367   0.269   3.161   5.728  0.7491  0.7216  1.0998
 4150SOL    MW416368   0.290   3.093   5.778 -0.2643 -0.4729 -0.0198
 4151SOL     OW16369   2.241   5.304   6.336 -0.4643  0.3805  0.0990
 4151SOL    HW216370   2.330   5.330   6.360 -0.1418  0.6248 -1.2819
 4151SOL    HW316371   2.185   5.370   6.375  0.1462  1.5854 -0.9995
 4151SOL    MW416372   2.245   5.316   6.344 -0.3412  0.5717 -0.2281
 4152SOL     OW16373   2.816   4.700   0.433 -0.1308  0.1259 -0.2608
 4152SOL    HW216374   2.902   4.669   0.462 -0.7268 -0.3739  1.0902
 4152SOL    HW316375   2.784   4.631   0.375 -0.7436 -1.0657  1.4094
 4152SOL    MW416376   2.823   4.687   0.429 -0.2903 -0.0972  0.1378
 4153SOL     OW16377   1.605   2.764   0.710  0.3366 -0.0195 -0.3884
 4153SOL    HW216378   1.670   2.815   0.758  0.4161  1.0942 -1.6116
 4153SOL    HW316379   1.631   2.771   0.618 -0.8340 -0.5421 -0.7900
 4153SOL    MW416380   1.617   2.772   0.704  0.1927  0.0585 -0.6028
 4154SOL     OW16381   4.349   4.455   0.522 -0.7298 -0.1828 -0.3674
 4154SOL    HW216382   4.355   4.365   0.489 -1.6217  0.0771 -1.2791
 4154SOL    HW316383   4.336   4.509   0.443  0.0988  0.7887  0.1349
 4154SOL    MW416384   4.348   4.450   0.507 -0.7382 -0.0203 -0.4214
 4155SOL     OW16385   1.816   1.343   1.005 -0.0421 -0.2200 -0.7658
 4155SOL    HW216386   1.789   1.253   1.024 -2.1139  0.1773 -1.5735
 4155SOL    HW316387   1.752   1.398   1.051 -0.1782  0.8157 -2.1378
 4155SOL    MW416388   1.804   1.339   1.014 -0.3334 -0.0309 -1.0534
 4156SOL     OW16389   2.573   6.014   4.486  0.2481  0.4417  0.3615
 4156SOL    HW216390   2.627   6.073   4.538 -0.6300 -0.4228  2.3571
 4156SOL    HW316391   2.593   6.037   4.395  0.8425  2.9466  1.0426
 4156SOL    MW416392   2.583   6.025   4.481  0.2107  0.6582  0.7146
 4157SOL     OW16393   1.521   6.333   5.180  0.0832 -0.0744 -0.6335
 4157SOL    HW216394   1.435   6.371   5.196  0.0460 -1.1003  2.0614
 4157SOL    HW316395   1.503   6.243   5.153  0.2862 -0.1120 -0.6450
 4157SOL    MW416396   1.507   6.326   5.179  0.1050 -0.2147 -0.2795
 4158SOL     OW16397   6.360   0.110   0.463 -0.2244 -0.0007 -0.2665
 4158SOL    HW216398   6.398   0.023   0.476 -0.0841 -0.1611 -1.5874
 4158SOL    HW316399   6.435   0.169   0.469  0.0916 -0.2130 -1.7443
 4158SOL    MW416400   6.375   0.106   0.465 -0.1642 -0.0498 -0.6357
 4159SOL     OW16401   4.526   5.863   5.071  0.0326  0.0684 -0.1793
 4159SOL    HW216402   4.528   5.888   4.978  0.8201  2.2523  0.3653
 4159SOL    HW316403   4.433   5.848   5.090 -0.0814 -0.9506 -1.4391
 4159SOL    MW416404   4.514   5.865   5.061  0.1215  0.2221 -0.2737
 4160SOL     OW16405   4.518   2.191   4.946 -0.0498  0.1422 -0.2088
 4160SOL    HW216406   4.531   2.286   4.948  0.1713  0.1103 -0.0912
 4160SOL    HW316407   4.606   2.155   4.954  0.1755 -0.0519 -2.7301
 4160SOL    MW416408   4.531   2.199   4.947  0.0091  0.1124 -0.5259
 4161SOL     OW16409   5.450   1.260   0.675  0.4740  0.2792  0.6053
 4161SOL    HW216410   5.529   1.305   0.644  0.4709  0.7423  1.2587
 4161SOL    HW316411   5.386   1.273   0.605  0.8388  0.2783  0.2680
 4161SOL    MW416412   5.452   1.268   0.662  0.5217  0.3402  0.6470
 4162SOL     OW16413   1.342   5.257   5.482 -0.7546 -0.1380 -0.5937
 4162SOL    HW216414   1.260   5.248   5.529 -0.0639  0.7471  0.8357
 4162SOL    HW316415   1.339   5.345   5.443 -0.6892 -0.2960 -0.9647
 4162SOL    MW416416   1.331   5.267   5.483 -0.6548 -0.0421 -0.4541
 4163SOL     OW16417   2.561   2.581   4.753 -0.3091 -0.2545 -0.1567
 4163SOL    HW216418   2.629   2.637   4.715 -0.5501  0.4583  0.4565
 4163SOL    HW316419   2.602   2.543   4.831 -0.3496 -0.4674 -0.2368
 4163SOL    MW416420   2.576   2.583   4.758 -0.3462 -0.1885 -0.0864
 4164SOL     OW16421   1.743   5.506   5.202  0.0244  0.2092  0.2009
 4164SOL    HW216422   1.747   5.593   5.242  0.1637 -0.1443  0.9794
 4164SOL    HW316423   1.764   5.446   5.274  0.3468 -0.4411 -0.4217
 4164SOL    MW416424   1.746   5.510   5.217  0.0853  0.0768  0.2215
 4165SOL     OW16425   1.793   0.842   4.544 -0.3748 -0.4381  0.5572
 4165SOL    HW216426   1.719   0.841   4.484  0.1157 -1.5431 -0.0741
 4165SOL    HW316427   1.791   0.756   4.587  0.5656 -0.5111  0.4823
 4165SOL    MW416428   1.783   0.830   4.542 -0.1860 -0.5935  0.4641
 4166SOL     OW16429   2.964   3.507   1.941 -0.5714  0.1741  1.2434
 4166SOL    HW216430   3.028   3.577   1.932 -0.6583  0.1471  0.3555
 4166SOL    HW316431   2.914   3.531   2.019 -0.6266  1.1306  0.9311
 4166SOL    MW416432   2.966   3.520   1.950 -0.5902  0.2967  1.0851
 4167SOL     OW16433   1.446   0.703   1.051 -0.0666  0.1232  0.2685
 4167SOL    HW216434   1.538   0.689   1.026  0.1398  0.6819  0.6824
 4167SOL    HW316435   1.400   0.627   1.015 -0.1080  1.6500 -3.3230
 4167SOL    MW416436   1.452   0.691   1.043 -0.0448  0.3984 -0.1507
 4168SOL     OW16437   2.952   3.415   2.939  0.1364 -0.0060 -0.2603
 4168SOL    HW216438   2.903   3.411   2.857 -0.8748  1.0957  0.2485
 4168SOL    HW316439   2.948   3.507   2.964 -0.7088 -0.5168  1.6765
 4168SOL    MW416440   2.945   3.427   2.931 -0.1086  0.0720  0.0624
 4169SOL     OW16441   5.952   5.496   3.430 -0.3841 -0.2270 -0.1322
 4169SOL    HW216442   5.906   5.563   3.481  1.7055  0.8498  0.4585
 4169SOL    HW316443   5.894   5.420   3.432 -1.3102  0.4599  2.0999
 4169SOL    MW416444   5.939   5.495   3.437 -0.2306  0.0057  0.2402
 4170SOL     OW16445   2.860   1.524   2.099  0.7597 -0.1235  0.0043
 4170SOL    HW216446   2.906   1.556   2.177 -0.0463 -1.4102  1.0461
 4170SOL    HW316447   2.817   1.602   2.064  1.8691  0.6504  0.3019
 4170SOL    MW416448   2.860   1.539   2.105  0.7998 -0.1911  0.1810
 4171SOL     OW16449   0.590   0.704   2.209  0.0122 -0.2026  0.0500
 4171SOL    HW216450   0.678   0.689   2.174 -0.3888 -3.6914  0.2129
 4171SOL    HW316451   0.599   0.687   2.303 -0.5775  0.8107  0.2998
 4171SOL    MW416452   0.603   0.700   2.217 -0.1185 -0.5292  0.1044
 4172SOL     OW16453   4.054   1.039   3.192 -0.0478  0.2462 -0.3257
 4172SOL    HW216454   4.014   1.036   3.278 -0.9248 -1.7514 -0.7430
 4172SOL    HW316455   4.126   0.976   3.196 -0.8330 -0.7853 -1.3328
 4172SOL    MW416456   4.058   1.030   3.204 -0.2671 -0.1534 -0.5136
 4173SOL     OW16457   4.948   1.286   0.359  0.1175 -0.1941 -0.3809
 4173SOL    HW216458   4.996   1.329   0.288 -0.2059  0.0236 -0.4728
 4173SOL    HW316459   4.990   1.201   0.368 -0.9316 -0.9475 -2.0260
 4173SOL    MW416460   4.960   1.281   0.351 -0.0636 -0.2648 -0.6101
 4174SOL     OW16461   1.866   0.620   2.098  0.1835 -0.0770  0.4285
 4174SOL    HW216462   1.853   0.581   2.011 -0.9223  0.5796  0.2751
 4174SOL    HW316463   1.936   0.684   2.085 -1.0429  1.1603 -0.3894
 4174SOL    MW416464   1.874   0.623   2.084 -0.1242  0.1729  0.3003
 4175SOL     OW16465   5.686   4.982   1.525 -0.3880  0.2965 -0.0597
 4175SOL    HW216466   5.593   4.958   1.523 -0.2294 -0.6989  1.7265
 4175SOL    HW316467   5.688   5.063   1.577 -0.1442 -0.6313  1.4479
 4175SOL    MW416468   5.674   4.990   1.532 -0.3349  0.0428  0.3748
 4176SOL     OW16469   0.235   2.199   2.235  0.1646  0.4599 -0.0515
 4176SOL    HW216470   0.321   2.170   2.264  0.0852 -1.6226 -1.5842
 4176SOL    HW316471   0.190   2.117   2.212 -2.5272  1.4065  1.4327
 4176SOL    MW416472   0.240   2.184   2.236 -0.2010  0.3101 -0.0579
 4177SOL     OW16473   6.222   0.243   4.422  0.0537 -0.1993  0.3527
 4177SOL    HW216474   6.160   0.268   4.354  1.1586  4.4218  0.7131
 4177SOL    HW316475   6.168   0.208   4.493 -1.8282  0.8741 -0.4943
 4177SOL    MW416476   6.207   0.241   4.423 -0.0488  0.5520  0.2885
 4178SOL     OW16477   2.657   6.109   4.241  0.4374  0.2968  0.2932
 4178SOL    HW216478   2.601   6.125   4.165  2.3497 -0.4882 -1.3697
 4178SOL    HW316479   2.716   6.185   4.244  0.7459  0.0467  0.6698
 4178SOL    MW416480   2.657   6.121   4.232  0.7304  0.1603  0.1235
 4179SOL     OW16481   3.026   0.664   4.310 -0.1129  0.4099 -0.5638
 4179SOL    HW216482   3.055   0.579   4.276  0.4342  0.6967 -0.8163
 4179SOL    HW316483   3.059   0.728   4.247 -1.2316  0.7553 -0.8216
 4179SOL    MW416484   3.034   0.661   4.297 -0.1883  0.4933 -0.6311
 4180SOL     OW16485   1.849   5.616   0.697  0.0127  0.0608  0.1607
 4180SOL    HW216486   1.860   5.572   0.613  0.5428  0.4228  0.0338
 4180SOL    HW316487   1.791   5.690   0.678  1.5584  1.2287 -0.3104
 4180SOL    MW416488   1.843   5.620   0.684  0.2865  0.2626  0.0818
 4181SOL     OW16489   4.646   5.871   3.394  0.0802  0.0220  0.5742
 4181SOL    HW216490   4.719   5.846   3.338 -0.6604  1.7374 -1.3053
 4181SOL    HW316491   4.577   5.897   3.333 -1.2262  0.8200  2.3009
 4181SOL    MW416492   4.646   5.871   3.378 -0.1899  0.3536  0.5540
 4182SOL     OW16493   3.255   0.254   0.154 -0.1753  0.4950 -0.0768
 4182SOL    HW216494   3.344   0.219   0.153 -0.4470 -0.2460 -1.5026
 4182SOL    HW316495   3.239   0.278   0.245  1.7228  1.2816  0.0869
 4182SOL    MW416496   3.264   0.252   0.166  0.0393  0.5010 -0.2433
 4183SOL     OW16497   1.577   1.110   2.612  0.5807 -0.1374 -0.4102
 4183SOL    HW216498   1.552   1.171   2.543  2.0267  2.1963  0.9773
 4183SOL    HW316499   1.662   1.076   2.584 -0.4091 -1.9328 -1.3803
 4183SOL    MW416500   1.585   1.113   2.599  0.6409 -0.0664 -0.3551
 4184SOL     OW16501   6.179   4.761   1.093  0.0648  0.1858 -0.0242
 4184SOL    HW216502   6.120   4.709   1.147 -1.4833  3.5983  1.8518
 4184SOL    HW316503   6.257   4.773   1.147  1.3390 -1.7796 -1.2993
 4184SOL    MW416504   6.182   4.756   1.107  0.0287  0.3767  0.0551
 4185SOL     OW16505   3.370   3.513   0.258  0.5881 -0.2395  0.4127
 4185SOL    HW216506   3.431   3.538   0.328  0.6825  0.0095  0.2440
 4185SOL    HW316507   3.349   3.421   0.276 -0.2251  0.1128  1.3936
 4185SOL    MW416508   3.375   3.504   0.270  0.4933 -0.1602  0.5199
 4186SOL     OW16509   0.880   4.605   6.012  0.0760  0.5147  0.1643
 4186SOL    HW216510   0.880   4.598   5.917  2.2002  0.9985  0.0726
 4186SOL    HW316511   0.874   4.699   6.030  0.9901  0.5282  0.4514
 4186SOL    MW416512   0.879   4.617   6.002  0.4769  0.5803  0.1901
 4187SOL     OW16513   4.416   3.458   3.056  0.0993 -0.1864 -0.0749
 4187SOL    HW216514   4.399   3.469   2.963  0.2389 -0.1345 -0.0945
 4187SOL    HW316515   4.330   3.468   3.098  0.0667 -0.0193 -0.1807
 4187SOL    MW416516   4.403   3.461   3.050  0.1135 -0.1575 -0.0915
 4188SOL     OW16517   2.578   4.835   5.065 -0.1843  0.3017 -0.2225
 4188SOL    HW216518   2.509   4.812   5.128 -1.6942  1.3788 -1.4066
 4188SOL    HW316519   2.596   4.928   5.083  0.8410  0.0755 -0.0498
 4188SOL    MW416520   2.571   4.844   5.076 -0.2483  0.4140 -0.3560
 4189SOL     OW16521   5.781   3.727   5.208 -0.4570 -0.0411  0.6486
 4189SOL    HW216522   5.798   3.821   5.211 -0.2378 -0.0661  0.2690
 4189SOL    HW316523   5.688   3.719   5.230 -1.2623  0.5293 -2.1030
 4189SOL    MW416524   5.771   3.738   5.211 -0.5343  0.0309  0.2355
 4190SOL     OW16525   3.867   6.341   1.651 -0.5240 -0.2476  0.1926
 4190SOL    HW216526   3.902   6.325   1.738  3.4475  1.1099 -0.9135
 4190SOL    HW316527   3.865   6.437   1.644 -0.6134 -0.3329 -1.2285
 4190SOL    MW416528   3.871   6.352   1.661 -0.0118 -0.0798 -0.1408
 4191SOL     OW16529   2.811   2.905   0.742  0.8904  0.2216  0.1281
 4191SOL    HW216530   2.855   2.839   0.687  2.9612  0.1632  1.7257
 4191SOL    HW316531   2.722   2.908   0.709  1.4507 -1.4300 -1.7528
 4191SOL    MW416532   2.805   2.897   0.730  1.2376 -0.0040  0.0907
 4192SOL     OW16533   4.234   2.318   3.488  0.4647  0.7268 -0.1034
 4192SOL    HW216534   4.183   2.259   3.432 -1.6880  1.0971  1.3608
 4192SOL    HW316535   4.311   2.267   3.513 -2.0700 -2.2619  2.4607
 4192SOL    MW416536   4.238   2.303   3.484 -0.1537  0.3813  0.4281
 4193SOL     OW16537   1.853   4.884   0.232 -1.0111  0.0268  0.4921
 4193SOL    HW216538   1.790   4.950   0.202 -0.5076  0.0685 -0.5110
 4193SOL    HW316539   1.817   4.801   0.199  0.5477  0.2688 -2.0587
 4193SOL    MW416540   1.840   4.881   0.223 -0.7390  0.0642  0.0232
 4194SOL     OW16541   0.499   3.468   0.097 -0.3511  0.3705 -0.0958
 4194SOL    HW216542   0.487   3.531   0.168 -2.9123  0.5975 -0.6371
 4194SOL    HW316543   0.411   3.456   0.061  0.2885 -2.4869 -0.9125
 4194SOL    MW416544   0.486   3.475   0.102 -0.6047  0.0235 -0.2750
 4195SOL     OW16545   2.320   5.327   3.779  0.3873  0.8004  0.0951
 4195SOL    HW216546   2.242   5.370   3.815  1.1256  1.7602  0.5894
 4195SOL    HW316547   2.323   5.242   3.822  0.3619  1.2993  1.1020
 4195SOL    MW416548   2.310   5.322   3.789  0.4814  0.9928  0.2932
 4196SOL     OW16549   3.716   1.828   0.762 -0.7804 -0.3200  0.2740
 4196SOL    HW216550   3.699   1.922   0.751 -0.3044 -0.0905  1.3224
 4196SOL    HW316551   3.631   1.787   0.744 -1.2011  0.3817  0.5824
 4196SOL    MW416552   3.702   1.835   0.758 -0.7731 -0.1972  0.4530
 4197SOL     OW16553   6.423   4.867   3.946 -0.1545 -0.6915 -0.3455
 4197SOL    HW216554   6.471   4.936   3.993 -2.2808  0.4945  0.1995
 4197SOL    HW316555   6.406   4.906   3.860 -0.4203 -0.9830 -0.4218
 4197SOL    MW416556   6.427   4.882   3.941 -0.4701 -0.5735 -0.2836
 4198SOL     OW16557   4.413   5.134   4.384 -0.1168 -0.1674  0.3641
 4198SOL    HW216558   4.440   5.191   4.457  1.1793 -1.1269  0.6686
 4198SOL    HW316559   4.352   5.072   4.424 -0.3432  0.0440  0.3553
 4198SOL    MW416560   4.408   5.134   4.399  0.0244 -0.2661  0.4031
 4199SOL     OW16561   0.132   0.777   6.381 -0.1949  0.3800 -0.3159
 4199SOL    HW216562   0.158   0.688   6.405  0.9175  0.5137 -0.9683
 4199SOL    HW316563   0.195   0.804   6.314 -0.1168  1.8989  0.3154
 4199SOL    MW416564   0.144   0.769   6.375 -0.0378  0.5981 -0.3187
 4200SOL     OW16565   3.110   1.416   3.647 -0.0801  0.5332  0.2114
 4200SOL    HW216566   3.043   1.350   3.669 -0.4362  1.0804  0.7921
 4200SOL    HW316567   3.060   1.491   3.616  0.3896 -0.3951 -3.2236
 4200SOL    MW416568   3.094   1.417   3.646 -0.0651  0.4829 -0.1652
 4201SOL     OW16569   4.972   5.289   0.446 -0.0125  0.1706 -0.3971
 4201SOL    HW216570   4.922   5.241   0.380 -0.1508 -0.7261  0.3419
 4201SOL    HW316571   4.916   5.288   0.524  0.0522  1.3997 -0.3105
 4201SOL    MW416572   4.958   5.282   0.447 -0.0222  0.2145 -0.2882
 4202SOL     OW16573   5.979   3.486   5.816  0.6880  1.1407 -0.5640
 4202SOL    HW216574   6.045   3.468   5.883 -0.0670 -0.4619 -0.2342
 4202SOL    HW316575   5.979   3.408   5.760  0.4897  1.9719 -1.7732
 4202SOL    MW416576   5.988   3.474   5.817  0.5622  1.0389 -0.6801
 4203SOL     OW16577   2.157   2.721   6.083  0.3840 -0.7396  0.0927
 4203SOL    HW216578   2.199   2.801   6.114 -0.6611  0.2406 -0.9077
 4203SOL    HW316579   2.080   2.752   6.035  0.5532 -2.2982 -1.2604
 4203SOL    MW416580   2.152   2.736   6.081  0.2685 -0.8159 -0.2178
 4204SOL     OW16581   2.327   2.943   6.154 -0.1007 -0.0338  0.2168
 4204SOL    HW216582   2.289   2.995   6.225  0.0330  1.2478 -0.6037
 4204SOL    HW316583   2.410   2.911   6.188 -0.9160 -1.0720  1.2932
 4204SOL    MW416584   2.333   2.946   6.168 -0.1906 -0.0017  0.2506
 4205SOL     OW16585   5.846   4.540   5.023 -0.0809 -0.0632 -0.2422
 4205SOL    HW216586   5.866   4.450   5.051 -0.3140 -0.1111 -0.2277
 4205SOL    HW316587   5.882   4.595   5.092  1.2474 -0.0738 -0.8881
 4205SOL    MW416588   5.854   4.535   5.036  0.0636 -0.0709 -0.3255
 4206SOL     OW16589   5.688   2.582   3.835 -0.2989  0.4614 -0.2339
 4206SOL    HW216590   5.748   2.507   3.836 -0.5478  0.2661 -0.0166
 4206SOL    HW316591   5.650   2.584   3.923 -0.6705  0.5423 -0.3960
 4206SOL    MW416592   5.691   2.572   3.847 -0.3807  0.4463 -0.2266
 4207SOL     OW16593   6.398   5.676   5.314 -0.0061  0.5431 -0.1239
 4207SOL    HW216594   6.375   5.764   5.343 -1.7661  1.1175 -2.8794
 4207SOL    HW316595   6.481   5.687   5.269 -0.4490  0.9191 -0.8676
 4207SOL    MW416596   6.406   5.689   5.312 -0.2968  0.6685 -0.5855
 4208SOL     OW16597   3.788   4.134   1.891 -0.0241  0.2722 -0.3889
 4208SOL    HW216598   3.751   4.092   1.814 -0.1818  0.0281 -0.1827
 4208SOL    HW316599   3.877   4.099   1.898  0.1517  0.6360 -0.7145
 4208SOL    MW416600   3.795   4.124   1.882 -0.0217  0.2880 -0.4047
 4209SOL     OW16601   3.744   5.836   5.559  0.0187 -0.0123 -0.3180
 4209SOL    HW216602   3.675   5.895   5.527  0.4969  1.5534  1.3145
 4209SOL    HW316603   3.825   5.875   5.527  0.3192  0.0271  0.4608
 4209SOL    MW416604   3.745   5.849   5.551  0.1214  0.1995  0.0001
 4210SOL     OW16605   2.792   5.036   3.570 -0.0822  0.0109 -0.0133
 4210SOL    HW216606   2.704   5.061   3.596  0.1126  0.1246  0.5479
 4210SOL    HW316607   2.840   5.119   3.564 -0.2864  0.0449 -1.3608
 4210SOL    MW416608   2.787   5.050   3.573 -0.0834  0.0304 -0.1170
 4211SOL     OW16609   4.402   3.879   4.735  0.1842  0.3740  0.1972
 4211SOL    HW216610   4.473   3.934   4.703 -0.4756  0.4551 -1.2285
 4211SOL    HW316611   4.383   3.819   4.662 -0.9113  0.0647  0.7068
 4211SOL    MW416612   4.409   3.878   4.721 -0.0474  0.3439  0.0763
 4212SOL     OW16613   2.509   1.983   4.284  0.1172 -0.2269 -0.1708
 4212SOL    HW216614   2.440   1.988   4.349  0.2831 -0.2525  0.0090
 4212SOL    HW316615   2.470   2.017   4.203  0.0611  0.2634  0.0614
 4212SOL    MW416616   2.495   1.988   4.282  0.1317 -0.1656 -0.1164
 4213SOL     OW16617   6.287   5.856   3.758  0.1802  0.5917 -0.6411
 4213SOL    HW216618   6.202   5.840   3.716  0.6095 -0.7701 -1.0620
 4213SOL    HW316619   6.295   5.786   3.823  0.9833  0.6940 -0.6207
 4213SOL    MW416620   6.277   5.844   3.761  0.3428  0.4255 -0.6939
 4214SOL     OW16621   4.001   1.676   2.997  0.4538 -0.2546 -0.0858
 4214SOL    HW216622   3.907   1.684   2.983  0.7174  1.0602 -1.2469
 4214SOL    HW316623   4.017   1.581   2.993 -0.6571 -0.4254 -0.9171
 4214SOL    MW416624   3.991   1.664   2.995  0.3420 -0.1037 -0.3487
 4215SOL     OW16625   0.279   3.508   4.220 -0.3730  0.0788 -0.3368
 4215SOL    HW216626   0.356   3.464   4.184 -0.2209  1.4209 -1.7429
 4215SOL    HW316627   0.206   3.449   4.200  0.0416 -0.3344 -0.6499
 4215SOL    MW416628   0.280   3.494   4.213 -0.2982  0.2014 -0.5636
 4216SOL     OW16629   1.749   0.704   1.068 -0.2298  0.0779  0.5193
 4216SOL    HW216630   1.765   0.744   1.153 -1.0560  1.8303 -0.1014
 4216SOL    HW316631   1.828   0.723   1.017 -0.9554  1.7177 -0.0382
 4216SOL    MW416632   1.761   0.711   1.072 -0.4346  0.5255  0.3639
 4217SOL     OW16633   1.554   1.192   0.019  0.7912  0.1399 -0.4133
 4217SOL    HW216634   1.514   1.169   0.102  0.6475  0.5424 -0.3660
 4217SOL    HW316635   1.522   1.281   0.001  2.6303  1.0036  0.2533
 4217SOL    MW416636   1.545   1.201   0.027  1.0149  0.3070 -0.3191
 4218SOL     OW16637   2.189   2.031   0.610 -0.0328 -0.3381 -0.3310
 4218SOL    HW216638   2.259   1.972   0.583 -0.0859 -0.3689 -0.3985
 4218SOL    HW316639   2.129   1.976   0.661  0.2548 -0.2060  0.1659
 4218SOL    MW416640   2.190   2.016   0.613 -0.0019 -0.3247 -0.2743
 4219SOL     OW16641   6.451   2.768   0.872  0.6197  0.0655 -0.6884
 4219SOL    HW216642   6.538   2.807   0.863  1.5570 -1.8308 -0.4028
 4219SOL    HW316643   6.392   2.842   0.887  2.2329  1.3648 -0.5575
 4219SOL    MW416644   6.455   2.783   0.873  0.9562 -0.0133 -0.6334
 4220SOL     OW16645   1.973   5.506   2.086  0.2444 -0.4320 -0.7521
 4220SOL    HW216646   1.915   5.430   2.089 -1.3233  0.7185 -0.7683
 4220SOL    HW316647   1.914   5.581   2.077  1.6788  0.8727  0.2049
 4220SOL    MW416648   1.958   5.505   2.086  0.2268 -0.1081 -0.6280
 4221SOL     OW16649   6.178   0.996   0.228 -0.2695 -0.3688  0.3156
 4221SOL    HW216650   6.137   1.065   0.176 -2.5844 -1.1231  1.0226
 4221SOL    HW316651   6.230   1.042   0.293 -0.8034  0.6664  0.0280
 4221SOL    MW416652   6.180   1.011   0.229 -0.6454 -0.3317  0.3709
 4222SOL     OW16653   5.650   4.630   2.312 -0.2176 -0.6228  0.0145
 4222SOL    HW216654   5.734   4.671   2.294 -0.2322 -1.4053 -2.1372
 4222SOL    HW316655   5.643   4.629   2.407  1.4335  0.9490  0.1979
 4222SOL    MW416656   5.660   4.635   2.322 -0.0017 -0.5186 -0.2452
 4223SOL     OW16657   2.295   5.953   5.754 -0.2696  0.3222 -0.1560
 4223SOL    HW216658   2.376   5.904   5.743 -0.6873 -0.8235  1.4117
 4223SOL    HW316659   2.228   5.900   5.710 -0.3040  0.8693 -0.7750
 4223SOL    MW416660   2.297   5.940   5.747 -0.3292  0.2432 -0.0308
 4224SOL     OW16661   4.569   1.415   5.767 -0.2980  0.0940  0.1855
 4224SOL    HW216662   4.550   1.396   5.859 -0.1110  1.9540  0.6516
 4224SOL    HW316663   4.603   1.504   5.768  0.9386 -0.3134 -1.5532
 4224SOL    MW416664   4.571   1.424   5.780 -0.1102  0.2857  0.0176
 4225SOL     OW16665   4.654   2.707   5.699 -0.0769  0.0483 -0.0951
 4225SOL    HW216666   4.693   2.715   5.612  3.7506 -0.5824  1.3597
 4225SOL    HW316667   4.722   2.739   5.758 -2.8400  1.2696  2.6927
 4225SOL    MW416668   4.668   2.712   5.695  0.0635  0.1263  0.4647
 4226SOL     OW16669   3.428   1.548   6.204 -0.2650  0.4853 -0.2710
 4226SOL    HW216670   3.447   1.568   6.113  0.6787  1.1791  0.0549
 4226SOL    HW316671   3.356   1.607   6.227  0.1491  1.0141 -0.3045
 4226SOL    MW416672   3.421   1.558   6.195 -0.0859  0.6466 -0.2324
 4227SOL     OW16673   2.490   4.265   5.540  0.3269 -0.5296 -0.1819
 4227SOL    HW216674   2.417   4.261   5.478  0.4132 -1.4840 -0.2375
 4227SOL    HW316675   2.488   4.354   5.574  0.3289  0.0392 -1.6251
 4227SOL    MW416676   2.480   4.276   5.536  0.3386 -0.5805 -0.3796
 4228SOL     OW16677   4.040   0.321   6.279 -0.0897 -0.0385 -0.4844
 4228SOL    HW216678   4.102   0.327   6.206 -1.1265 -1.2240 -1.5233
 4228SOL    HW316679   3.972   0.261   6.247 -1.4520  0.7337  0.8387
 4228SOL    MW416680   4.039   0.314   6.265 -0.4062 -0.0931 -0.4469
 4229SOL     OW16681   1.603   0.413   2.153 -0.2290  0.4619  0.7292
 4229SOL    HW216682   1.510   0.416   2.129 -0.0048  0.2279 -0.2348
 4229SOL    HW316683   1.615   0.485   2.214 -0.9949  0.6621  0.6501
 4229SOL    MW416684   1.593   0.423   2.158 -0.3005  0.4574  0.5916
 4230SOL     OW16685   6.253   0.702   1.850  0.2918  0.0823  0.7590
 4230SOL    HW216686   6.217   0.745   1.772  0.0403 -0.3546  0.6335
 4230SOL    HW316687   6.324   0.760   1.878 -1.5558  1.9113  2.0183
 4230SOL    MW416688   6.257   0.716   1.843  0.0148  0.2660  0.9086
 4231SOL     OW16689   5.844   2.799   3.869  0.1693  0.0010 -0.1144
 4231SOL    HW216690   5.780   2.729   3.854 -1.9867  2.1136 -1.5980
 4231SOL    HW316691   5.922   2.754   3.900 -1.2382 -2.9940 -0.5502
 4231SOL    MW416692   5.846   2.784   3.871 -0.3008 -0.1154 -0.3677
 4232SOL     OW16693   2.869   2.976   0.161 -0.0112 -0.1867 -0.0220
 4232SOL    HW216694   2.929   3.050   0.168 -1.3369  0.9185  0.1330
 4232SOL    HW316695   2.800   3.006   0.102 -0.7172 -1.2047  0.2505
 4232SOL    MW416696   2.868   2.990   0.154 -0.2793 -0.1752  0.0344
 4233SOL     OW16697   0.813   4.424   2.070  0.6785  0.9864 -0.4320
 4233SOL    HW216698   0.743   4.461   2.124  0.9074  1.7924 -0.6738
 4233SOL    HW316699   0.861   4.366   2.130 -1.7692 -1.7570 -0.9125
 4233SOL    MW416700   0.810   4.421   2.085  0.3858  0.7308 -0.5273
 4234SOL     OW16701   1.268   3.698   3.149 -0.2076  0.1081  0.1303
 4234SOL    HW216702   1.266   3.679   3.243 -1.2450  2.9342  0.7892
 4234SOL    HW316703   1.195   3.648   3.113  0.2253 -1.0410  0.8051
 4234SOL    MW416704   1.258   3.689   3.157 -0.2874  0.3294  0.3063
 4235SOL     OW16705   3.539   5.203   0.476  0.2885 -0.0296  0.0944
 4235SOL    HW216706   3.554   5.243   0.390 -1.0060 -0.8828 -0.5608
 4235SOL    HW316707   3.619   5.154   0.493  0.8416  0.7101 -0.2901
 4235SOL    MW416708   3.552   5.202   0.467  0.1907 -0.0446 -0.0428
 4236SOL     OW16709   2.574   1.706   2.687 -0.1449  0.2218  0.5165
 4236SOL    HW216710   2.660   1.746   2.701  0.3291 -0.2213 -0.9290
 4236SOL    HW316711   2.541   1.689   2.775  0.4094  2.1282  1.1370
 4236SOL    MW416712   2.581   1.709   2.700 -0.0092  0.4149  0.4076
 4237SOL     OW16713   1.809   6.185   1.572 -0.0791 -0.3479  0.2038
 4237SOL    HW216714   1.775   6.126   1.504  0.4293 -0.6534  0.2057
 4237SOL    HW316715   1.882   6.230   1.530 -2.0625  2.2847 -0.6729
 4237SOL    MW416716   1.815   6.183   1.557 -0.2737 -0.0409  0.0884
 4238SOL     OW16717   2.838   3.030   3.629 -0.0369 -0.0933  0.5573
 4238SOL    HW216718   2.866   2.992   3.546 -0.9479 -0.2220  0.2955
 4238SOL    HW316719   2.746   3.004   3.638  0.0719 -0.1571  1.6503
 4238SOL    MW416720   2.829   3.022   3.619 -0.1427 -0.1187  0.6669
 4239SOL     OW16721   1.296   3.871   0.147 -0.2959  0.1055  0.0130
 4239SOL    HW216722   1.221   3.812   0.151 -0.1506 -0.0612  0.4015
 4239SOL    HW316723   1.333   3.858   0.060 -1.3288  0.9595 -0.5783
 4239SOL    MW416724   1.291   3.861   0.136 -0.4130  0.1962 -0.0138
 4240SOL     OW16725   0.196   4.077   1.409 -0.3700  0.2971 -0.1514
 4240SOL    HW216726   0.266   4.142   1.416 -0.1013 -0.0025  0.0017
 4240SOL    HW316727   0.232   3.999   1.452 -0.8383  0.1720  0.0192
 4240SOL    MW416728   0.210   4.075   1.416 -0.3963  0.2411 -0.1087
 4241SOL     OW16729   2.421   1.335   4.536  0.2579  0.4225 -0.1934
 4241SOL    HW216730   2.441   1.257   4.588  1.0063  1.1494  0.6397
 4241SOL    HW316731   2.330   1.322   4.510  0.0678 -0.2937  0.7267
 4241SOL    MW416732   2.411   1.323   4.540  0.3315  0.4239  0.0379
 4242SOL     OW16733   5.873   5.742   1.405 -0.6131 -0.5933 -0.0331
 4242SOL    HW216734   5.952   5.785   1.371  0.2574  0.3621  2.8379
 4242SOL    HW316735   5.895   5.649   1.405 -0.2050 -0.5098 -0.8994
 4242SOL    MW416736   5.886   5.735   1.401 -0.4444 -0.4562  0.2314
 4243SOL     OW16737   2.060   6.090   0.269 -0.0733 -0.0009  0.9228
 4243SOL    HW216738   2.009   6.139   0.333  0.3203  0.6950  0.7215
 4243SOL    HW316739   2.120   6.155   0.231 -0.0936 -0.4588  0.0680
 4243SOL    MW416740   2.061   6.105   0.272 -0.0240  0.0305  0.7835
 4244SOL     OW16741   4.294   6.150   3.059  0.1783 -0.5257  0.6542
 4244SOL    HW216742   4.283   6.187   2.971  1.2614 -1.2862  0.1841
 4244SOL    HW316743   4.314   6.226   3.115  0.5420 -0.1651  0.0447
 4244SOL    MW416744   4.295   6.165   3.055  0.3692 -0.5784  0.5118
 4245SOL     OW16745   4.531   3.485   5.803 -0.3269 -0.7129  0.0953
 4245SOL    HW216746   4.462   3.470   5.867  0.5225 -2.6495  0.6351
 4245SOL    HW316747   4.558   3.576   5.817 -2.3112 -0.1276  0.2856
 4245SOL    MW416748   4.526   3.495   5.813 -0.4767 -0.8912  0.1916
 4246SOL     OW16749   0.655   1.372   1.477 -0.5349 -0.5899 -0.0869
 4246SOL    HW216750   0.747   1.346   1.469  0.0613  1.0134  1.0556
 4246SOL    HW316751   0.625   1.327   1.557 -0.5751 -0.6487 -0.1351
 4246SOL    MW416752   0.663   1.362   1.487 -0.4616 -0.3861  0.0575
 4247SOL     OW16753   4.521   4.788   3.516 -0.8709  0.3108  0.4558
 4247SOL    HW216754   4.463   4.846   3.466  0.3313 -0.5645 -2.1279
 4247SOL    HW316755   4.609   4.814   3.491 -0.2189 -0.5424  1.7516
 4247SOL    MW416756   4.525   4.799   3.506 -0.6262  0.0827  0.2859
 4248SOL     OW16757   2.702   5.337   1.516  0.0576 -0.2313  0.0969
 4248SOL    HW216758   2.754   5.348   1.596  0.7854 -1.5562 -0.1712
 4248SOL    HW316759   2.758   5.286   1.458 -1.1039 -0.6869 -0.6483
 4248SOL    MW416760   2.716   5.332   1.519  0.0004 -0.4662 -0.0368
 4249SOL     OW16761   3.745   5.825   3.597  0.0618 -0.3679 -0.6757
 4249SOL    HW216762   3.801   5.791   3.666 -0.9151 -2.5570 -0.8950
 4249SOL    HW316763   3.780   5.789   3.516  1.2493  2.2474 -1.4519
 4249SOL    MW416764   3.757   5.816   3.596  0.0896 -0.3117 -0.8070
 4250SOL     OW16765   2.790   3.097   2.693 -0.1903  0.4468 -0.2528
 4250SOL    HW216766   2.855   3.069   2.758 -1.0898 -0.7928  0.1414
 4250SOL    HW316767   2.719   3.134   2.745  0.1971  1.8750 -0.6858
 4250SOL    MW416768   2.789   3.098   2.709 -0.2578  0.4717 -0.2579
 4251SOL     OW16769   4.372   0.235   1.059  0.2489 -0.2854  0.2406
 4251SOL    HW216770   4.380   0.313   1.004 -1.4474 -0.6770 -0.6163
 4251SOL    HW316771   4.424   0.256   1.137  1.6156  0.8090 -0.9126
 4251SOL    MW416772   4.380   0.248   1.062  0.2054 -0.1927 -0.0246
 4252SOL     OW16773   4.537   5.780   3.756  0.1639 -0.3162  0.0365
 4252SOL    HW216774   4.633   5.780   3.757  0.1632 -0.4383  0.5341
 4252SOL    HW316775   4.514   5.824   3.675  0.6622 -3.7744 -2.1748
 4252SOL    MW416776   4.547   5.786   3.746  0.2295 -0.7886 -0.1896
 4253SOL     OW16777   4.000   1.095   2.041 -0.3019  0.6823 -0.0143
 4253SOL    HW216778   4.093   1.078   2.052  0.0716  1.9391 -1.0102
 4253SOL    HW316779   3.973   1.037   1.970 -0.0868  0.9435 -0.3072
 4253SOL    MW416780   4.009   1.085   2.033 -0.2242  0.8826 -0.1843
 4254SOL     OW16781   1.102   1.412   3.413 -0.4738 -0.2182  0.2512
 4254SOL    HW216782   1.065   1.401   3.500 -0.5902  1.0505  0.3813
 4254SOL    HW316783   1.032   1.387   3.353 -0.2966 -1.3745  0.5065
 4254SOL    MW416784   1.088   1.408   3.416 -0.4658 -0.2034  0.3021
 4255SOL     OW16785   2.987   1.109   1.934 -0.0389 -0.3781 -0.0862
 4255SOL    HW216786   3.058   1.128   1.996 -0.9260 -0.0034  0.8568
 4255SOL    HW316787   2.937   1.039   1.977 -0.1442 -0.7601 -0.8253
 4255SOL    MW416788   2.990   1.102   1.948 -0.1698 -0.3791 -0.0593
 4256SOL     OW16789   6.293   0.764   0.610  0.3035 -0.5449  0.0944
 4256SOL    HW216790   6.325   0.769   0.700  1.8962 -1.1798 -0.4123
 4256SOL    HW316791   6.294   0.855   0.580 -1.2747 -0.1712  1.0160
 4256SOL    MW416792   6.297   0.777   0.618  0.3054 -0.5794  0.1491
 4257SOL     OW16793   2.492   1.119   4.034 -0.1182 -0.1130 -0.1994
 4257SOL    HW216794   2.482   1.051   4.101  0.4819  0.8840  0.9374
 4257SOL    HW316795   2.442   1.193   4.068  0.5269  0.5370 -0.6559
 4257SOL    MW416796   2.484   1.120   4.047  0.0461  0.1043 -0.1096
 4258SOL     OW16797   4.850   4.679   4.339  0.1528  0.4524 -0.3344
 4258SOL    HW216798   4.780   4.616   4.357 -1.9006  2.8326  0.5954
 4258SOL    HW316799   4.851   4.687   4.244  2.1598 -2.6382 -0.7291
 4258SOL    MW416800   4.841   4.672   4.329  0.1467  0.3587 -0.2638
 4259SOL     OW16801   2.982   0.683   3.323 -0.2534  0.1395  0.1515
 4259SOL    HW216802   3.027   0.758   3.284 -0.8696 -0.0813 -1.0149
 4259SOL    HW316803   3.042   0.609   3.310 -0.0019  0.2680  0.5709
 4259SOL    MW416804   2.996   0.683   3.316 -0.3015  0.1273  0.0530
 4260SOL     OW16805   5.163   1.436   0.209 -0.0328 -0.3361 -0.9315
 4260SOL    HW216806   5.222   1.423   0.283 -0.7306 -0.1069 -0.3322
 4260SOL    HW316807   5.122   1.521   0.225 -2.2961 -1.5076 -0.0818
 4260SOL    MW416808   5.165   1.446   0.221 -0.4235 -0.4604 -0.7403
 4261SOL     OW16809   2.293   4.234   1.293  0.2532 -0.3510  0.0328
 4261SOL    HW216810   2.318   4.310   1.346 -0.3173  0.1776 -0.4501
 4261SOL    HW316811   2.209   4.257   1.255 -1.2428 -2.2727  1.9517
 4261SOL    MW416812   2.285   4.247   1.295 -0.0194 -0.5348  0.2223
 4262SOL     OW16813   1.084   3.598   2.751 -0.0295 -0.1246 -0.4900
 4262SOL    HW216814   1.137   3.677   2.746  1.2850 -1.0317 -2.1352
 4262SOL    HW316815   1.043   3.601   2.837 -0.0307  2.3268 -0.5238
 4262SOL    MW416816   1.086   3.609   2.761  0.1437  0.0791 -0.7115
 4263SOL     OW16817   2.118   0.374   4.322 -0.2736 -0.3681 -0.1802
 4263SOL    HW216818   2.025   0.394   4.318 -0.4949 -1.2909 -4.0406
 4263SOL    HW316819   2.159   0.441   4.267  1.7377  1.1788  2.9372
 4263SOL    MW416820   2.111   0.386   4.314 -0.0375 -0.2857 -0.2782
 4264SOL     OW16821   1.501   0.148   2.193 -0.6363 -0.0015 -0.2595
 4264SOL    HW216822   1.413   0.176   2.220  0.0264  0.6317  1.3884
 4264SOL    HW316823   1.556   0.225   2.206  0.3254 -0.6424 -0.4337
 4264SOL    MW416824   1.496   0.162   2.198 -0.4219 -0.0025 -0.0651
 4265SOL     OW16825   2.888   3.017   3.304 -0.1278 -0.8484 -0.3054
 4265SOL    HW216826   2.798   3.047   3.296  0.4081  0.8665 -0.1605
 4265SOL    HW316827   2.935   3.060   3.232  0.6711 -1.3591 -0.1073
 4265SOL    MW416828   2.882   3.026   3.293  0.0483 -0.6895 -0.2602
 4266SOL     OW16829   4.145   4.270   3.797 -0.0193  0.1604 -0.0178
 4266SOL    HW216830   4.182   4.358   3.799 -1.1087  0.6330  1.0620
 4266SOL    HW316831   4.113   4.257   3.886  0.3912 -1.4606 -0.0860
 4266SOL    MW416832   4.146   4.280   3.809 -0.1089  0.0089  0.1157
 4267SOL     OW16833   4.815   2.153   5.036  0.3471  0.4039  0.1333
 4267SOL    HW216834   4.842   2.099   5.111 -0.0482 -1.3694 -0.9515
 4267SOL    HW316835   4.897   2.178   4.994  0.6578  2.4082  1.7345
 4267SOL    MW416836   4.829   2.149   5.040  0.3360  0.4343  0.2015
 4268SOL     OW16837   3.677   1.012   5.009 -0.1410  0.5949  0.0897
 4268SOL    HW216838   3.640   1.095   5.037 -0.2044  0.0757  1.5937
 4268SOL    HW316839   3.622   0.945   5.049  1.3255 -0.1796  0.8917
 4268SOL    MW416840   3.665   1.014   5.018  0.0441  0.4242  0.3940
 4269SOL     OW16841   2.451   5.665   2.366 -0.0962  0.4943  0.6743
 4269SOL    HW216842   2.392   5.603   2.324  0.5347 -0.1069  0.6449
 4269SOL    HW316843   2.422   5.751   2.337 -0.5687  0.1659  0.1750
 4269SOL    MW416844   2.440   5.668   2.357 -0.0753  0.3717  0.6046
 4270SOL     OW16845   2.574   0.856   3.200 -0.8003  0.4031  0.7856
 4270SOL    HW216846   2.494   0.812   3.172  0.0031 -0.8138  0.3480
 4270SOL    HW316847   2.587   0.829   3.291 -1.4289  1.4362  1.2020
 4270SOL    MW416848   2.565   0.847   3.209 -0.7772  0.3788  0.7828
 4271SOL     OW16849   2.616   0.403   4.317  0.1639  0.0637 -0.3129
 4271SOL    HW216850   2.526   0.418   4.345  0.0369  1.1835 -1.2447
 4271SOL    HW316851   2.662   0.378   4.397 -0.1652  3.1988  1.0111
 4271SOL    MW416852   2.610   0.401   4.332  0.1037  0.6251 -0.2612
 4272SOL     OW16853   5.775   5.118   3.719  0.0852  0.0840 -0.5544
 4272SOL    HW216854   5.867   5.093   3.713  0.1506  0.5078 -1.5529
 4272SOL    HW316855   5.729   5.036   3.735  0.6102 -0.1615 -0.2492
 4272SOL    MW416856   5.781   5.104   3.720  0.1631  0.1076 -0.6459
 4273SOL     OW16857   5.069   5.323   1.899 -0.0488  0.0577 -1.0031
 4273SOL    HW216858   4.977   5.311   1.923  0.7277 -2.0922  1.3090
 4273SOL    HW316859   5.106   5.377   1.969  0.5316  0.7791 -1.8315
 4273SOL    MW416860   5.062   5.329   1.911  0.1302 -0.1308 -0.8074
 4274SOL     OW16861   4.773   1.245   1.762 -0.0417 -0.8894  0.2509
 4274SOL    HW216862   4.776   1.341   1.765 -0.9927 -0.8549  0.6168
 4274SOL    HW316863   4.854   1.220   1.717  0.4648  0.0606  0.5874
 4274SOL    MW416864   4.784   1.254   1.757 -0.1003 -0.7595  0.3435
 4275SOL     OW16865   6.437   1.357   0.222  0.3476 -0.0753  0.2578
 4275SOL    HW216866   6.483   1.389   0.300  0.5549  0.5111 -0.1000
 4275SOL    HW316867   6.399   1.435   0.183  0.0189 -0.4066 -0.0845
 4275SOL    MW416868   6.438   1.371   0.227  0.3316 -0.0416  0.1655
 4276SOL     OW16869   5.443   0.472   2.258  0.9055  0.2071 -0.0267
 4276SOL    HW216870   5.447   0.435   2.346  2.6632  1.2504  0.3931
 4276SOL    HW316871   5.447   0.567   2.272  2.1990  0.3581 -1.2313
 4276SOL    MW416872   5.444   0.480   2.272  1.3081  0.3647 -0.1303
 4277SOL     OW16873   1.697   0.953   3.385  0.3558 -0.2035 -0.2123
 4277SOL    HW216874   1.763   0.971   3.452 -0.5298  1.7347  0.1883
 4277SOL    HW316875   1.614   0.982   3.424 -0.3125  0.0846 -1.7876
 4277SOL    MW416876   1.695   0.959   3.399  0.1508  0.0902 -0.3673
 4278SOL     OW16877   2.743   0.611   3.186  0.1413  0.0689  0.3845
 4278SOL    HW216878   2.818   0.627   3.243 -0.7506 -1.1566  1.9936
 4278SOL    HW316879   2.697   0.695   3.184 -0.3428 -0.0795  2.3761
 4278SOL    MW416880   2.747   0.624   3.193 -0.0403 -0.1124  0.8596
 4279SOL     OW16881   5.577   1.611   5.648 -0.3030  0.0963  0.2409
 4279SOL    HW216882   5.601   1.656   5.729 -1.6933  0.1175  0.6615
 4279SOL    HW316883   5.487   1.582   5.662 -0.9351  0.9595 -1.6503
 4279SOL    MW416884   5.568   1.613   5.661 -0.5699  0.2130  0.0469
 4280SOL     OW16885   3.917   5.767   3.816 -0.2098  0.1901  0.2787
 4280SOL    HW216886   3.962   5.686   3.843 -1.5827 -0.6233  0.2463
 4280SOL    HW316887   3.978   5.809   3.755  1.1284 -0.1013  1.3730
 4280SOL    MW416888   3.931   5.762   3.811 -0.2143  0.0443  0.4188
 4281SOL     OW16889   1.839   6.369   0.060 -0.1850  0.0009  0.0882
 4281SOL    HW216890   1.891   6.421   0.121  2.5558 -0.1894 -1.8779
 4281SOL    HW316891   1.820   6.429  -0.012 -0.7413 -0.5499 -0.2273
 4281SOL    MW416892   1.844   6.383   0.059  0.1032 -0.0969 -0.2128
 4282SOL     OW16893   3.129   0.931   1.324 -0.3605 -0.2878 -0.0971
 4282SOL    HW216894   3.151   0.839   1.309 -2.4645 -0.7804 -0.5280
 4282SOL    HW316895   3.033   0.934   1.317 -0.4996  1.6182  1.6360
 4282SOL    MW416896   3.119   0.919   1.321 -0.6564 -0.1013  0.0747
 4283SOL     OW16897   4.877   0.667   3.782  0.1937  0.1956  0.1455
 4283SOL    HW216898   4.887   0.762   3.788  1.8406 -0.0153  1.6219
 4283SOL    HW316899   4.854   0.640   3.871 -0.5821 -0.7729 -0.3327
 4283SOL    MW416900   4.876   0.676   3.794  0.3086  0.0400  0.2772
 4284SOL     OW16901   5.121   4.276   6.025 -0.6547  0.7244 -0.4072
 4284SOL    HW216902   5.086   4.363   6.043 -1.3705  0.1276  1.2450
 4284SOL    HW316903   5.166   4.250   6.106  1.5836  0.4730 -1.6470
 4284SOL    MW416904   5.122   4.284   6.038 -0.4538  0.6125 -0.3528
 4285SOL     OW16905   2.794   5.802   0.335  0.1814  0.0652  0.6000
 4285SOL    HW216906   2.738   5.867   0.293  0.5082  0.0542  0.1422
 4285SOL    HW316907   2.864   5.786   0.272  1.5595  1.2024  1.7525
 4285SOL    MW416908   2.796   5.809   0.321  0.4063  0.2138  0.6917
 4286SOL     OW16909   2.869   2.031   2.570  0.7566 -0.0694  0.2663
 4286SOL    HW216910   2.790   2.049   2.621  1.4445  0.0014  1.3352
 4286SOL    HW316911   2.855   2.077   2.487  0.2915  1.1305  0.9936
 4286SOL    MW416912   2.856   2.039   2.565  0.7860  0.0983  0.5033
 4287SOL     OW16913   2.528   2.021   3.562 -0.2744 -0.6371 -0.5282
 4287SOL    HW216914   2.531   2.115   3.546  1.6890 -0.5775 -0.0988
 4287SOL    HW316915   2.606   1.987   3.519  1.3019 -1.4360  2.5942
 4287SOL    MW416916   2.539   2.029   3.554  0.1926 -0.7346 -0.0596
 4288SOL     OW16917   2.342   5.477   2.208 -0.4043  0.2499 -0.1242
 4288SOL    HW216918   2.368   5.396   2.251 -0.6776  0.5932  0.7217
 4288SOL    HW316919   2.253   5.493   2.239 -0.4997  0.6586 -0.5983
 4288SOL    MW416920   2.334   5.468   2.218 -0.4529  0.3491 -0.0751
 4289SOL     OW16921   1.114   3.547   0.818 -0.1589  0.0053  0.2255
 4289SOL    HW216922   1.208   3.552   0.807 -0.2950  2.7922 -0.3498
 4289SOL    HW316923   1.084   3.486   0.750  1.0516  0.6308 -0.9049
 4289SOL    MW416924   1.122   3.539   0.808 -0.0172  0.4556  0.0004
 4290SOL     OW16925   1.341   4.783   2.787  0.0080  0.8071  0.3837
 4290SOL    HW216926   1.370   4.739   2.707 -0.6548 -0.8974  1.0229
 4290SOL    HW316927   1.294   4.860   2.757 -2.6474 -1.2031 -1.0872
 4290SOL    MW416928   1.339   4.787   2.773 -0.4298  0.3170  0.2740
 4291SOL     OW16929   2.842   4.059   0.184 -0.0970 -0.1852  0.2294
 4291SOL    HW216930   2.928   4.028   0.214  0.1837  0.5871  0.2504
 4291SOL    HW316931   2.787   3.981   0.185  1.1568 -1.2032 -1.8506
 4291SOL    MW416932   2.846   4.044   0.188  0.1055 -0.2176 -0.0422
 4292SOL     OW16933   5.138   1.121   3.939 -0.2774 -0.2099  0.6406
 4292SOL    HW216934   5.130   1.050   3.875 -0.6395  0.7711 -0.4430
 4292SOL    HW316935   5.066   1.106   4.001  0.2937 -1.3746  1.0499
 4292SOL    MW416936   5.127   1.109   3.939 -0.2499 -0.2341  0.5516
 4293SOL     OW16937   6.131   1.814   4.005 -0.5820  0.3246 -0.6048
 4293SOL    HW216938   6.221   1.837   3.984 -1.1566  2.7872 -0.6962
 4293SOL    HW316939   6.116   1.853   4.092 -1.8821  1.0306 -1.1130
 4293SOL    MW416940   6.141   1.823   4.014 -0.8294  0.7427 -0.6839
 4294SOL     OW16941   6.055   5.845   1.219 -0.5103  0.1764  0.5596
 4294SOL    HW216942   6.034   5.788   1.144 -0.7090 -1.5124  1.8207
 4294SOL    HW316943   6.058   5.933   1.182 -0.8179 -0.5684 -1.3898
 4294SOL    MW416944   6.052   5.849   1.204 -0.5771 -0.1447  0.4688
 4295SOL     OW16945   2.809   6.317   2.411 -0.3211  0.4294 -0.2292
 4295SOL    HW216946   2.842   6.357   2.492  0.3896 -0.3393 -0.1284
 4295SOL    HW316947   2.827   6.382   2.343  1.3985  0.0539 -0.1753
 4295SOL    MW416948   2.816   6.331   2.413 -0.0004  0.2784 -0.2088
 4296SOL     OW16949   0.805   5.700   2.872  0.0604  0.0528 -0.1568
 4296SOL    HW216950   0.789   5.618   2.918 -3.1927 -0.1746 -1.4216
 4296SOL    HW316951   0.738   5.760   2.905 -0.1016  0.9582 -1.9625
 4296SOL    MW416952   0.794   5.697   2.882 -0.3902  0.1422 -0.5619
 4297SOL     OW16953   1.246   3.430   5.528 -0.6342  0.0222 -0.0717
 4297SOL    HW216954   1.164   3.403   5.569 -2.2434  1.4357 -2.1122
 4297SOL    HW316955   1.231   3.521   5.502  0.4451 -0.5221 -3.0613
 4297SOL    MW416956   1.233   3.438   5.530 -0.7041  0.1369 -0.7354
 4298SOL     OW16957   5.558   5.918   6.322  0.4294  0.0762 -0.0341
 4298SOL    HW216958   5.595   5.830   6.318 -0.7688 -0.4469 -0.0584
 4298SOL    HW316959   5.483   5.915   6.263  0.9516  1.4090 -0.7930
 4298SOL    MW416960   5.553   5.906   6.314  0.3402  0.1830 -0.1374
 4299SOL     OW16961   4.816   4.222   3.907 -0.0749  0.1026  0.4122
 4299SOL    HW216962   4.848   4.134   3.887 -1.7401 -0.3912 -0.1714
 4299SOL    HW316963   4.866   4.279   3.849 -0.6458 -0.7069 -0.9063
 4299SOL    MW416964   4.827   4.218   3.897 -0.3700 -0.0694  0.1612
 4300SOL     OW16965   2.139   2.636   1.669  0.0298  0.4199 -0.6402
 4300SOL    HW216966   2.116   2.698   1.600 -1.2339  0.8775  0.1382
 4300SOL    HW316967   2.168   2.558   1.623 -2.7888 -0.0597 -1.7875
 4300SOL    MW416968   2.140   2.634   1.654 -0.5088  0.4170 -0.6889
 4301SOL     OW16969   3.617   0.822   2.520  0.2036 -0.6789 -0.4062
 4301SOL    HW216970   3.580   0.738   2.492 -3.5290  0.3622  0.7759
 4301SOL    HW316971   3.608   0.879   2.444  0.1152 -0.6392 -0.3665
 4301SOL    MW416972   3.611   0.819   2.506 -0.3005 -0.5363 -0.2450
 4302SOL     OW16973   2.709   4.415   4.288  0.4095 -0.0934  0.0255
 4302SOL    HW216974   2.694   4.506   4.260  1.4648 -0.5584 -2.2120
 4302SOL    HW316975   2.696   4.418   4.383 -3.6742  1.5377 -0.3565
 4302SOL    MW416976   2.705   4.428   4.297  0.0099  0.0604 -0.3201
 4303SOL     OW16977   3.426   3.985   0.683 -0.5284  0.0331  0.2637
 4303SOL    HW216978   3.403   4.049   0.751  0.1274 -0.0804  0.5998
 4303SOL    HW316979   3.462   3.911   0.732  2.1175  0.8569 -0.2852
 4303SOL    MW416980   3.428   3.984   0.699 -0.0928  0.1268  0.2356
 4304SOL     OW16981   5.035   6.401   6.294 -0.1071 -0.0127  0.2930
 4304SOL    HW216982   5.084   6.328   6.330 -0.1813 -0.0520  0.3145
 4304SOL    HW316983   5.037   6.468   6.362  2.6136  1.2335 -0.8636
 4304SOL    MW416984   5.042   6.400   6.308  0.2421  0.1465  0.1432
 4305SOL     OW16985   1.819   3.937   3.890  0.0078  0.0929 -0.3059
 4305SOL    HW216986   1.875   3.865   3.919 -0.3279 -0.1753 -0.3226
 4305SOL    HW316987   1.777   3.904   3.811 -2.9195 -1.1039  1.5840
 4305SOL    MW416988   1.821   3.923   3.883 -0.4227 -0.1004 -0.0588
 4306SOL     OW16989   3.929   0.832   5.122  0.3146 -0.8508  0.0408
 4306SOL    HW216990   4.023   0.841   5.140  0.2451  1.0819 -0.2916
 4306SOL    HW316991   3.924   0.819   5.027  0.2751 -2.0339  0.1936
 4306SOL    MW416992   3.941   0.832   5.112  0.3002 -0.7519  0.0171
 4307SOL     OW16993   5.068   5.540   5.226  0.5592  0.4229  0.3151
 4307SOL    HW216994   5.076   5.536   5.130 -0.8468  1.5234  0.1139
 4307SOL    HW316995   5.146   5.495   5.258  2.1577  1.8198 -1.3511
 4307SOL    MW416996   5.079   5.534   5.217  0.5846  0.7524  0.0687
 4308SOL     OW16997   1.582   3.426   3.129 -0.7908  0.0774  0.0476
 4308SOL    HW216998   1.647   3.373   3.083 -0.3444  1.4203 -0.9048
 4308SOL    HW316999   1.603   3.414   3.222 -0.5087 -1.1537 -0.1615
 4308SOL    MW417000   1.594   3.417   3.135 -0.6947  0.0922 -0.1057
 4309SOL     OW17001   3.225   6.274   2.089 -0.0459 -0.0637 -0.1592
 4309SOL    HW217002   3.209   6.271   2.183  0.1876  2.0613 -0.0018
 4309SOL    HW317003   3.255   6.186   2.067 -0.9552 -0.8559  1.5740
 4309SOL    MW417004   3.227   6.262   2.098 -0.1351  0.1121  0.0903
 4310SOL     OW17005   4.336   1.354   3.330 -0.1798  0.0713 -0.3611
 4310SOL    HW217006   4.294   1.436   3.355  0.9500  0.6608 -0.2991
 4310SOL    HW317007   4.274   1.312   3.271 -1.1401  0.5682  0.2758
 4310SOL    MW417008   4.323   1.359   3.325 -0.1574  0.2147 -0.2689
 4311SOL     OW17009   5.696   4.859   4.776  0.2538  0.1927 -0.5578
 4311SOL    HW217010   5.775   4.866   4.829 -1.3944  0.6028  1.9970
 4311SOL    HW317011   5.683   4.947   4.739  0.2948  0.4776  0.0983
 4311SOL    MW417012   5.705   4.872   4.778  0.0417  0.2844 -0.1342
 4312SOL     OW17013   3.599   2.851   4.312 -0.4938 -0.1459  0.2286
 4312SOL    HW217014   3.575   2.845   4.405 -0.2198 -0.9080  0.2564
 4312SOL    HW317015   3.650   2.772   4.295 -0.7285 -0.1233 -0.6276
 4312SOL    MW417016   3.602   2.840   4.322 -0.4886 -0.2434  0.1193
 4313SOL     OW17017   5.879   6.186   0.902 -0.4621  0.3567  0.2543
 4313SOL    HW217018   5.872   6.256   0.967  0.0610 -0.0341  0.7439
 4313SOL    HW317019   5.820   6.118   0.933  1.3134 -0.7124  1.5021
 4313SOL    MW417020   5.871   6.186   0.915 -0.1588  0.1641  0.4835
 4314SOL     OW17021   2.791   0.723   1.145 -0.2176 -0.0240 -0.0383
 4314SOL    HW217022   2.810   0.802   1.194  0.1148  0.4491 -0.9071
 4314SOL    HW317023   2.801   0.652   1.208  2.5238  0.3445  0.0416
 4314SOL    MW417024   2.795   0.724   1.159  0.1880  0.0871 -0.1424
 4315SOL     OW17025   5.370   6.052   0.079 -0.1647 -0.0682  0.6091
 4315SOL    HW217026   5.307   6.104   0.029 -0.5197 -0.6798  0.3990
 4315SOL    HW317027   5.430   6.018   0.012  0.6588  0.8636  0.8572
 4315SOL    MW417028   5.370   6.054   0.063 -0.1029 -0.0260  0.6141
 4316SOL     OW17029   4.019   4.574   4.084  0.4769  0.5760 -0.3989
 4316SOL    HW217030   3.964   4.611   4.015 -0.5042 -0.9803 -0.4998
 4316SOL    HW317031   4.037   4.647   4.142  2.3565  2.2616 -2.8838
 4316SOL    MW417032   4.014   4.588   4.083  0.5954  0.5931 -0.7401
 4317SOL     OW17033   0.369   1.422   0.296  0.2206 -0.3194 -0.2074
 4317SOL    HW217034   0.385   1.513   0.272  1.0356 -0.3294  0.2522
 4317SOL    HW317035   0.424   1.371   0.236 -1.4472 -0.6250 -1.5527
 4317SOL    MW417036   0.378   1.428   0.285  0.1081 -0.3611 -0.3243
 4318SOL     OW17037   2.992   3.102   4.724  0.3709  0.4791 -0.1225
 4318SOL    HW217038   3.002   3.013   4.759  2.3928  0.8940  0.5142
 4318SOL    HW317039   3.082   3.132   4.710 -0.1950  2.9457  1.0111
 4318SOL    MW417040   3.006   3.094   4.726  0.5630  0.8592  0.1110
 4319SOL     OW17041   0.470   2.798   4.412 -0.4356 -0.3495  0.1293
 4319SOL    HW217042   0.528   2.723   4.424  0.4816  0.2945 -0.1181
 4319SOL    HW317043   0.453   2.800   4.318 -0.4428 -0.2411  0.1326
 4319SOL    MW417044   0.476   2.789   4.401 -0.3155 -0.2502  0.0971
 4320SOL     OW17045   5.006   2.838   2.403 -0.2326 -0.2590  0.8798
 4320SOL    HW217046   5.002   2.782   2.480  1.4573 -0.2598  1.0125
 4320SOL    HW317047   5.079   2.898   2.421  1.2134 -1.2285 -1.3127
 4320SOL    MW417048   5.015   2.838   2.416  0.1811 -0.3870  0.6081
 4321SOL     OW17049   1.423   3.938   6.004 -0.6077 -0.2434 -0.3729
 4321SOL    HW217050   1.515   3.918   5.987 -0.7177 -0.2094 -1.0324
 4321SOL    HW317051   1.423   3.982   6.089 -0.0425 -0.4604 -0.2587
 4321SOL    MW417052   1.435   3.941   6.013 -0.5476 -0.2675 -0.4449
 4322SOL     OW17053   2.444   3.203   6.355 -0.3093 -0.5233 -0.4819
 4322SOL    HW217054   2.458   3.293   6.386 -2.8424 -0.7769  1.7436
 4322SOL    HW317055   2.405   3.213   6.269  2.0026  0.3589 -1.5184
 4322SOL    MW417056   2.441   3.216   6.348 -0.3384 -0.4404 -0.3250
 4323SOL     OW17057   3.314   2.105   1.251  0.3151  0.0272 -0.4283
 4323SOL    HW217058   3.375   2.117   1.324 -2.7089  1.1778  2.1419
 4323SOL    HW317059   3.329   2.016   1.222  3.5884  0.4534 -0.3999
 4323SOL    MW417060   3.324   2.095   1.257  0.3480  0.2352 -0.0854
 4324SOL     OW17061   3.309   0.821   0.891 -0.6585 -0.7363 -0.8306
 4324SOL    HW217062   3.275   0.735   0.913  1.1310 -1.2619  0.1356
 4324SOL    HW317063   3.330   0.816   0.798  1.9203 -2.3534 -0.2688
 4324SOL    MW417064   3.308   0.809   0.882 -0.0822 -1.0190 -0.6290
 4325SOL     OW17065   0.898   2.534   1.555  0.6329  0.1750 -0.3240
 4325SOL    HW217066   0.864   2.621   1.579  0.3095 -0.4744  1.8167
 4325SOL    HW317067   0.981   2.527   1.602  1.4025 -0.1148 -1.6969
 4325SOL    MW417068   0.904   2.545   1.564  0.6918  0.0511 -0.2227
 4326SOL     OW17069   5.830   5.236   1.665  0.1415  0.0262 -0.0107
 4326SOL    HW217070   5.921   5.248   1.638  0.1468 -0.8953 -0.4239
 4326SOL    HW317071   5.809   5.315   1.715  0.7132  0.9133 -1.1326
 4326SOL    MW417072   5.839   5.248   1.668  0.2176  0.0217 -0.2132
 4327SOL     OW17073   3.413   1.264   6.303 -0.3078 -0.1064  0.7031
 4327SOL    HW217074   3.448   1.352   6.293  1.4763 -0.8684 -0.2649
 4327SOL    HW317075   3.356   1.253   6.227  1.0807 -0.4626 -0.3298
 4327SOL    MW417076   3.410   1.274   6.291  0.1108 -0.2539  0.4391
 4328SOL     OW17077   0.815   3.555   0.270  0.4697 -0.2709  0.6292
 4328SOL    HW217078   0.786   3.580   0.182 -0.1590 -1.2241  0.5403
 4328SOL    HW317079   0.887   3.494   0.255  2.2509  1.7019  0.8448
 4328SOL    MW417080   0.820   3.550   0.256  0.6217 -0.1364  0.6459
 4329SOL     OW17081   2.102   5.576   2.329  0.3921 -0.3004 -0.3424
 4329SOL    HW217082   2.080   5.664   2.360 -0.3470 -0.3885 -0.5769
 4329SOL    HW317083   2.044   5.562   2.254  0.9963 -0.7207 -0.7427
 4329SOL    MW417084   2.091   5.585   2.323  0.3743 -0.3674 -0.4262
 4330SOL     OW17085   6.440   4.568   1.445  0.9301 -0.6259  0.1499
 4330SOL    HW217086   6.377   4.626   1.489  0.9678 -0.9666  0.6600
 4330SOL    HW317087   6.444   4.601   1.355  1.8847  0.9277  0.7426
 4330SOL    MW417088   6.432   4.580   1.439  1.0610 -0.4659  0.2954
 4331SOL     OW17089   3.475   1.716   0.433 -0.0552 -0.1830  0.7828
 4331SOL    HW217090   3.435   1.714   0.346  0.4545 -1.3833  0.5445
 4331SOL    HW317091   3.423   1.655   0.485  0.0016  0.0795  1.1537
 4331SOL    MW417092   3.463   1.707   0.429  0.0196 -0.3067  0.8003
 4332SOL     OW17093   1.231   2.580   5.064 -0.5039 -0.6013  0.0368
 4332SOL    HW217094   1.290   2.647   5.098 -1.5037  0.0533  0.5304
 4332SOL    HW317095   1.270   2.554   4.981  0.8792 -0.7368  0.7081
 4332SOL    MW417096   1.244   2.586   5.058 -0.4534 -0.5328  0.1905
 4333SOL     OW17097   5.572   4.762   3.224 -0.1657  0.3156  0.4535
 4333SOL    HW217098   5.477   4.771   3.216  0.1338  4.0066 -1.1871
 4333SOL    HW317099   5.596   4.819   3.297  0.9746  2.3875 -1.4100
 4333SOL    MW417100   5.563   4.771   3.233  0.0243  1.0759 -0.0088
 4334SOL     OW17101   5.516   3.124   2.683  0.4501  0.0357 -0.1874
 4334SOL    HW217102   5.600   3.091   2.651  0.0043 -0.9877 -0.3514
 4334SOL    HW317103   5.479   3.050   2.732 -0.9684 -0.0299 -1.2842
 4334SOL    MW417104   5.523   3.110   2.685  0.2041 -0.1080 -0.3538
 4335SOL     OW17105   4.346   6.298   5.162  0.0555 -0.0599  0.2776
 4335SOL    HW217106   4.368   6.391   5.156  0.8649 -0.3325 -1.6394
 4335SOL    HW317107   4.423   6.258   5.203 -0.6149  0.1940  1.8373
 4335SOL    MW417108   4.359   6.305   5.167  0.0738 -0.0624  0.2304
 4336SOL     OW17109   1.227   4.309   4.673 -0.1111 -0.5425 -0.5839
 4336SOL    HW217110   1.225   4.373   4.744  2.3711  0.1563 -1.0467
 4336SOL    HW317111   1.135   4.299   4.647 -0.7334  1.6644  0.5253
 4336SOL    MW417112   1.215   4.316   4.679  0.1343 -0.1591 -0.4986
 4337SOL     OW17113   1.606   0.578   3.432  0.2895 -0.3921  0.0198
 4337SOL    HW217114   1.620   0.524   3.510  1.4452  1.0863  0.8852
 4337SOL    HW317115   1.690   0.622   3.418 -1.3633  3.6637  1.3214
 4337SOL    MW417116   1.619   0.577   3.441  0.2239  0.3380  0.3057
 4338SOL     OW17117   3.028   5.544   0.960 -0.3137 -0.3852  0.3609
 4338SOL    HW217118   2.944   5.517   0.997 -0.6251  0.3366  0.2133
 4338SOL    HW317119   3.023   5.520   0.868 -0.7166  0.4303  0.1599
 4338SOL    MW417120   3.017   5.537   0.953 -0.4080 -0.1824  0.3149
 4339SOL     OW17121   4.977   5.505   1.138 -0.1736  0.2585 -0.0773
 4339SOL    HW217122   4.927   5.560   1.078 -1.3496 -0.4664  0.2058
 4339SOL    HW317123   5.030   5.450   1.080  0.0496  0.7950 -0.3907
 4339SOL    MW417124   4.977   5.505   1.122 -0.2993  0.2337 -0.0813
 4340SOL     OW17125   6.196   4.425   1.968  0.4754 -0.7399  0.3856
 4340SOL    HW217126   6.116   4.381   1.998 -0.6309  1.3216  0.6763
 4340SOL    HW317127   6.267   4.369   1.998 -0.8495 -3.0593 -0.5752
 4340SOL    MW417128   6.195   4.412   1.976  0.1546 -0.7739  0.2972
 4341SOL     OW17129   4.664   1.013   1.880 -0.2193 -0.0959  0.4292
 4341SOL    HW217130   4.636   1.039   1.967 -0.0414 -0.6267  0.6487
 4341SOL    HW317131   4.706   1.092   1.844  0.2935 -0.0607  1.0744
 4341SOL    MW417132   4.666   1.027   1.886 -0.1282 -0.1613  0.5433
 4342SOL     OW17133   4.731   2.597   1.230 -0.0812  0.6182  0.2060
 4342SOL    HW217134   4.723   2.556   1.144  1.2169 -0.5793  0.6157
 4342SOL    HW317135   4.703   2.687   1.216 -3.1323 -0.3463 -0.7290
 4342SOL    MW417136   4.727   2.603   1.217 -0.3125  0.3329  0.1367
 4343SOL     OW17137   4.955   1.386   5.470 -0.0008 -0.6076 -0.1356
 4343SOL    HW217138   5.030   1.414   5.523 -0.6883  0.0134  0.5454
 4343SOL    HW317139   4.903   1.466   5.460 -0.7866 -1.1263 -0.2348
 4343SOL    MW417140   4.958   1.400   5.476 -0.1952 -0.5941 -0.0588
 4344SOL     OW17141   6.196   4.601   0.612  0.0702  0.4567 -0.2063
 4344SOL    HW217142   6.146   4.680   0.590 -1.6107 -0.0172  1.5929
 4344SOL    HW317143   6.269   4.601   0.550 -0.8545  2.4617 -1.4159
 4344SOL    MW417144   6.199   4.612   0.601 -0.2736  0.6587 -0.1285
 4345SOL     OW17145   2.428   1.094   3.144 -0.0009  0.1424 -0.3133
 4345SOL    HW217146   2.409   1.121   3.054  1.8421 -1.2344 -1.1658
 4345SOL    HW317147   2.470   1.009   3.136 -0.5889 -0.4332  1.9381
 4345SOL    MW417148   2.431   1.087   3.131  0.1647 -0.1152 -0.1287
 4346SOL     OW17149   3.576   4.087   2.653  0.1230 -0.3614  0.2039
 4346SOL    HW217150   3.591   4.075   2.560 -0.7616 -2.3219  0.2643
 4346SOL    HW317151   3.483   4.112   2.660  0.0462 -0.7300  0.5762
 4346SOL    MW417152   3.565   4.088   2.642 -0.0039 -0.6687  0.2610
 4347SOL     OW17153   5.804   6.136   1.909  0.6444  0.1664 -0.3619
 4347SOL    HW217154   5.838   6.060   1.957  0.8601  0.3315 -0.2504
 4347SOL    HW317155   5.862   6.145   1.834 -0.4509 -0.8620 -1.3625
 4347SOL    MW417156   5.816   6.127   1.906  0.5284  0.0525 -0.4792
 4348SOL     OW17157   4.770   4.522   2.171 -0.5828 -0.7507 -0.0174
 4348SOL    HW217158   4.760   4.480   2.085 -1.9297 -1.7638  0.5953
 4348SOL    HW317159   4.772   4.450   2.233 -0.3981  0.0027  0.8728
 4348SOL    MW417160   4.769   4.507   2.168 -0.7361 -0.7849  0.1809
 4349SOL     OW17161   3.968   4.542   1.975  0.9881 -0.2044 -0.5256
 4349SOL    HW217162   3.876   4.516   1.968  0.8399  0.0879  0.2109
 4349SOL    HW317163   3.971   4.597   2.053  1.8228 -0.3530 -0.4480
 4349SOL    MW417164   3.956   4.546   1.984  1.0787 -0.1855 -0.4182
 4350SOL     OW17165   4.322   5.128   0.153 -0.3732 -0.1239  0.6219
 4350SOL    HW217166   4.236   5.101   0.183 -0.6235  0.2250  0.2324
 4350SOL    HW317167   4.334   5.081   0.070 -0.6978  0.7462  0.0768
 4350SOL    MW417168   4.312   5.118   0.146 -0.4490  0.0370  0.4986
 4351SOL     OW17169   3.424   0.482   1.827 -0.1683  0.8482  0.1733
 4351SOL    HW217170   3.459   0.566   1.857 -2.8778  1.3719  2.3228
 4351SOL    HW317171   3.329   0.490   1.841 -0.5709 -2.4262 -0.0129
 4351SOL    MW417172   3.416   0.494   1.832 -0.5789  0.4853  0.4323
 4352SOL     OW17173   2.505   2.938   2.126 -0.5388 -0.2159 -0.5827
 4352SOL    HW217174   2.473   3.020   2.164  1.2172 -0.5628  1.9455
 4352SOL    HW317175   2.437   2.874   2.145 -0.7367  0.1343 -0.0950
 4352SOL    MW417176   2.492   2.940   2.134 -0.3332 -0.2155 -0.1848
 4353SOL     OW17177   0.961   1.361   6.400  0.1090 -0.6122 -0.2893
 4353SOL    HW217178   1.057   1.358   6.393  0.2119  1.2076 -0.3339
 4353SOL    HW317179   0.939   1.451   6.375 -1.6505 -1.0972 -0.6021
 4353SOL    MW417180   0.971   1.373   6.395 -0.1096 -0.4361 -0.3364
 4354SOL     OW17181   2.408   4.479   0.659  0.2756 -0.7175  0.7981
 4354SOL    HW217182   2.446   4.393   0.643  0.6262 -0.8462  2.1709
 4354SOL    HW317183   2.314   4.468   0.642  0.5817 -0.7980 -1.0880
 4354SOL    MW417184   2.400   4.466   0.655  0.3623 -0.7451  0.7304
 4355SOL     OW17185   1.939   4.201   4.833 -0.1251 -0.1406  0.1655
 4355SOL    HW217186   1.972   4.290   4.832  1.5028 -0.7142 -0.9346
 4355SOL    HW317187   1.941   4.173   4.741 -3.0896 -0.4762  0.0883
 4355SOL    MW417188   1.943   4.209   4.821 -0.3015 -0.2605  0.0102
 4356SOL     OW17189   2.923   4.054   5.122  0.0374 -0.4856  0.7874
 4356SOL    HW217190   2.855   4.093   5.178  0.0250  0.5896  0.0520
 4356SOL    HW317191   3.005   4.075   5.167 -0.0848 -1.9065  1.7503
 4356SOL    MW417192   2.925   4.062   5.136  0.0196 -0.5312  0.8174
 4357SOL     OW17193   5.348   5.409   2.290  0.5415 -0.2455 -0.0282
 4357SOL    HW217194   5.361   5.317   2.316  0.4854 -0.1476  0.3565
 4357SOL    HW317195   5.317   5.452   2.370  3.5285  0.7687  0.7207
 4357SOL    MW417196   5.346   5.402   2.304  0.9282 -0.0988  0.1214
 4358SOL     OW17197   5.599   3.979   2.918 -0.0234  0.1070  0.5088
 4358SOL    HW217198   5.638   3.893   2.926  0.0207  0.0896  0.1433
 4358SOL    HW317199   5.603   4.016   3.006 -0.7127 -0.5469  0.8294
 4358SOL    MW417200   5.604   3.973   2.931 -0.1086  0.0184  0.5029
 4359SOL     OW17201   0.504   3.088   3.427  0.1349  0.1732  0.2219
 4359SOL    HW217202   0.486   3.168   3.378 -1.5083 -0.6454 -0.5989
 4359SOL    HW317203   0.567   3.115   3.495  0.8748  1.7771 -1.0342
 4359SOL    MW417204   0.510   3.102   3.430  0.0158  0.2768 -0.0521
 4360SOL     OW17205   4.571   5.381   0.921  0.6652 -0.5090 -0.0935
 4360SOL    HW217206   4.531   5.467   0.915  0.4066 -0.6399 -0.2403
 4360SOL    HW317207   4.584   5.366   1.015  1.4172  0.0151 -0.1021
 4360SOL    MW417208   4.568   5.390   0.933  0.7303 -0.4571 -0.1140
 4361SOL     OW17209   5.775   4.241   6.153  0.1396  0.4851 -0.4191
 4361SOL    HW217210   5.823   4.163   6.126  0.2416  0.4589 -0.1677
 4361SOL    HW317211   5.753   4.226   6.245 -1.2257  0.0698 -0.7918
 4361SOL    MW417212   5.779   4.229   6.161 -0.0270  0.4269 -0.4351
 4362SOL     OW17213   4.259   3.058   5.357 -0.3918  0.4221  0.3587
 4362SOL    HW217214   4.322   3.038   5.287 -0.1612 -0.2173  0.7486
 4362SOL    HW317215   4.176   3.070   5.311 -0.2721 -0.1414 -0.0177
 4362SOL    MW417216   4.256   3.057   5.342 -0.3456  0.2634  0.3605
 4363SOL     OW17217   1.321   2.523   2.563 -0.3169  0.3964 -0.1050
 4363SOL    HW217218   1.370   2.605   2.563 -1.4995  1.1491 -1.1257
 4363SOL    HW317219   1.305   2.504   2.655  0.6622  0.8749  0.1735
 4363SOL    MW417220   1.325   2.531   2.575 -0.3438  0.5589 -0.2029
 4364SOL     OW17221   1.789   3.595   4.562 -0.4321 -0.1929  0.1552
 4364SOL    HW217222   1.713   3.649   4.542 -1.6244 -1.9793 -0.3108
 4364SOL    HW317223   1.805   3.543   4.483  0.5547 -0.6795  0.6442
 4364SOL    MW417224   1.781   3.595   4.549 -0.4592 -0.4928  0.1582
 4365SOL     OW17225   4.075   3.775   3.445 -0.3452 -0.7272  0.1396
 4365SOL    HW217226   4.074   3.851   3.387 -1.7523 -1.5554 -1.0016
 4365SOL    HW317227   4.073   3.813   3.534  0.7537  0.5476 -0.3365
 4365SOL    MW417228   4.074   3.790   3.449 -0.3858 -0.6683 -0.0738
 4366SOL     OW17229   0.825   0.937   3.489 -0.0126  0.3466 -0.2940
 4366SOL    HW217230   0.901   0.942   3.546  0.8953  2.2503 -1.5704
 4366SOL    HW317231   0.775   1.017   3.509 -0.4162  0.3124 -1.1206
 4366SOL    MW417232   0.828   0.949   3.499  0.0539  0.5933 -0.5715
 4367SOL     OW17233   0.060   3.864   5.552  0.5985 -0.1588  0.1075
 4367SOL    HW217234   0.076   3.793   5.490  0.9248 -0.3089  0.3603
 4367SOL    HW317235  -0.030   3.849   5.582  0.1086  0.4453 -1.0047
 4367SOL    MW417236   0.050   3.852   5.548  0.5769 -0.0989 -0.0059
 4368SOL     OW17237   1.683   2.742   4.695 -0.2452  0.1557 -0.2571
 4368SOL    HW217238   1.711   2.793   4.771  1.3035 -0.8481 -0.1145
 4368SOL    HW317239   1.695   2.802   4.621 -2.3264  1.3494  0.2657
 4368SOL    MW417240   1.688   2.757   4.695 -0.3155  0.1808 -0.1693
 4369SOL     OW17241   4.745   3.173   2.123 -0.4625  0.0497  0.5874
 4369SOL    HW217242   4.751   3.124   2.041  0.5817 -0.7894  1.1313
 4369SOL    HW317243   4.734   3.105   2.190 -2.1169  0.7666  1.0864
 4369SOL    MW417244   4.744   3.157   2.121 -0.5430  0.0336  0.7250
 4370SOL     OW17245   4.354   4.640   0.315 -0.1999  0.6677 -1.0372
 4370SOL    HW217246   4.265   4.658   0.345  0.0891  0.8188 -0.2501
 4370SOL    HW317247   4.385   4.725   0.283 -1.1145  0.1606 -3.4649
 4370SOL    MW417248   4.346   4.654   0.315 -0.2824  0.6207 -1.2537
 4371SOL     OW17249   5.413   1.369   2.254 -0.2375  0.8812  0.5824
 4371SOL    HW217250   5.504   1.388   2.278  0.5558  1.3727 -2.3950
 4371SOL    HW317251   5.385   1.443   2.201 -0.9628 -0.9989 -1.8592
 4371SOL    MW417252   5.421   1.381   2.250 -0.2285  0.6980 -0.1326
 4372SOL     OW17253   0.780   1.713   2.681  0.3670  0.4776 -0.6938
 4372SOL    HW217254   0.841   1.756   2.740 -1.2321  0.9008  0.7484
 4372SOL    HW317255   0.721   1.782   2.652 -0.7389 -0.2759 -0.3259
 4372SOL    MW417256   0.780   1.727   2.685  0.0101  0.4340 -0.4550
 4373SOL     OW17257   1.921   2.710   1.016 -0.1661 -0.4415  0.9999
 4373SOL    HW217258   1.888   2.623   0.998  1.0667 -1.2672  2.4559
 4373SOL    HW317259   1.892   2.763   0.942  0.7738 -2.5307 -0.9969
 4373SOL    MW417260   1.913   2.706   1.004  0.1205 -0.8261  0.9285
 4374SOL     OW17261   3.035   3.395   2.455  0.3357 -0.0012  0.0496
 4374SOL    HW217262   3.025   3.333   2.383  0.2875  0.3972 -0.2893
 4374SOL    HW317263   2.969   3.368   2.520 -0.0751  0.0445 -0.3449
 4374SOL    MW417264   3.025   3.384   2.454  0.2751  0.0574 -0.0472
 4375SOL     OW17265   5.945   6.337   3.310 -0.3831  0.6017 -0.0200
 4375SOL    HW217266   5.995   6.414   3.283  0.8849 -0.5701 -1.1331
 4375SOL    HW317267   5.926   6.291   3.229  0.2629 -1.0700  0.7269
 4375SOL    MW417268   5.949   6.342   3.296 -0.1306  0.2266 -0.0683
 4376SOL     OW17269   6.186   5.228   3.465 -0.1247  0.6455  0.4257
 4376SOL    HW217270   6.158   5.260   3.380  0.2656 -1.8518 -0.7307
 4376SOL    HW317271   6.275   5.195   3.450  0.7251  1.8950  2.3054
 4376SOL    MW417272   6.194   5.228   3.452  0.0389  0.4809  0.5211
 4377SOL     OW17273   5.715   2.712   2.864  0.6233  0.3732 -0.2764
 4377SOL    HW217274   5.653   2.685   2.795 -0.0628  1.1351  0.0242
 4377SOL    HW317275   5.713   2.640   2.927 -1.1683  1.0452  0.5079
 4377SOL    MW417276   5.706   2.699   2.863  0.2964  0.5624 -0.1333
 4378SOL     OW17277   3.453   4.535   3.252  0.5247  0.4843 -0.2751
 4378SOL    HW217278   3.400   4.586   3.313  0.1789 -0.3428  0.1270
 4378SOL    HW317279   3.405   4.453   3.242  2.7599 -1.1981  1.7716
 4378SOL    MW417280   3.440   4.531   3.258  0.7740  0.1532  0.0480
 4379SOL     OW17281   0.752   2.044   5.347 -0.5426 -0.2657 -0.0671
 4379SOL    HW217282   0.737   2.060   5.254 -0.8250  3.3016  0.4450
 4379SOL    HW317283   0.666   2.021   5.383 -0.5341 -1.1056 -0.5662
 4379SOL    MW417284   0.739   2.043   5.340 -0.5788  0.0942 -0.0654
 4380SOL     OW17285   3.458   0.369   1.555 -0.0021  0.1668 -0.6279
 4380SOL    HW217286   3.439   0.399   1.643 -0.9410 -1.4783 -0.2329
 4380SOL    HW317287   3.527   0.303   1.566  1.2677  1.3173 -1.3587
 4380SOL    MW417288   3.464   0.364   1.568  0.0416  0.1015 -0.6722
 4381SOL     OW17289   6.067   3.670   2.381 -0.1862  0.7297 -0.7959
 4381SOL    HW217290   6.077   3.723   2.302  2.0434  0.0949 -1.0088
 4381SOL    HW317291   5.973   3.654   2.388 -0.6528  2.5475 -2.1323
 4381SOL    MW417292   6.056   3.675   2.372  0.0464  0.8858 -1.0003
 4382SOL     OW17293   5.105   5.509   4.560 -0.7468  0.4264 -0.0428
 4382SOL    HW217294   5.119   5.445   4.631  0.6319  0.3766 -0.3352
 4382SOL    HW317295   5.039   5.568   4.595 -0.9694 -0.3011  0.8221
 4382SOL    MW417296   5.098   5.508   4.574 -0.5943  0.3239  0.0328
 4383SOL     OW17297   4.477   1.873   5.662  0.0526 -0.2406 -0.1871
 4383SOL    HW217298   4.484   1.850   5.755 -0.5991  0.5125  0.0521
 4383SOL    HW317299   4.479   1.789   5.617 -1.5632 -0.7561  0.6345
 4383SOL    MW417300   4.479   1.859   5.669 -0.2465 -0.2092 -0.0471
 4384SOL     OW17301   0.205   0.987   4.332 -0.6964 -0.7678  0.2956
 4384SOL    HW217302   0.181   0.972   4.423  1.1973 -0.4077  0.9028
 4384SOL    HW317303   0.121   0.995   4.286 -1.7487 -3.4160  1.5326
 4384SOL    MW417304   0.191   0.986   4.338 -0.5854 -1.0697  0.5389
 4385SOL     OW17305   2.494   0.891   1.615  0.4960 -0.5208  0.0252
 4385SOL    HW217306   2.526   0.911   1.527  2.0034  2.5793  1.1447
 4385SOL    HW317307   2.568   0.848   1.658  1.0770  1.1491  0.7752
 4385SOL    MW417308   2.508   0.888   1.609  0.7715  0.1085  0.2718
 4386SOL     OW17309   0.645   3.616   2.039  0.1499 -0.2757  0.0563
 4386SOL    HW217310   0.698   3.544   2.074 -0.6237 -1.5610 -1.2845
 4386SOL    HW317311   0.710   3.678   2.003  0.9704  1.0860  3.4867
 4386SOL    MW417312   0.661   3.615   2.039  0.1561 -0.2656  0.3320
 4387SOL     OW17313   0.498   5.057   0.586 -0.0129 -0.0297 -0.0060
 4387SOL    HW217314   0.492   4.969   0.622  0.5711 -0.4621 -0.9167
 4387SOL    HW317315   0.484   5.045   0.492 -1.1792  1.0156  0.0091
 4387SOL    MW417316   0.496   5.044   0.578 -0.0897  0.0512 -0.1242
 4388SOL     OW17317   4.614   2.788   2.969  0.2419  0.1167  0.8255
 4388SOL    HW217318   4.531   2.797   3.016  0.2319  0.1008  0.8108
 4388SOL    HW317319   4.667   2.732   3.026 -0.3191 -1.1930  0.1038
 4388SOL    MW417320   4.610   2.782   2.983  0.1666 -0.0582  0.7284
 4389SOL     OW17321   1.579   0.882   2.042  0.2148 -0.5618  0.5727
 4389SOL    HW217322   1.645   0.917   1.982 -2.2920  2.1808 -0.8222
 4389SOL    HW317323   1.557   0.796   2.007 -1.0292  0.8728 -2.4990
 4389SOL    MW417324   1.585   0.875   2.030 -0.2800 -0.0106 -0.0166
 4390SOL     OW17325   3.081   4.431   1.758  0.2096 -0.0059 -0.3046
 4390SOL    HW217326   3.161   4.463   1.800 -0.0630  0.2471  0.0278
 4390SOL    HW317327   3.011   4.459   1.817 -0.0677 -0.9036 -0.1917
 4390SOL    MW417328   3.083   4.439   1.772  0.1370 -0.0910 -0.2459
 4391SOL     OW17329   1.211   0.286   2.846  0.3412  0.1141  0.9460
 4391SOL    HW217330   1.178   0.259   2.932 -0.1638 -0.3258  0.6218
 4391SOL    HW317331   1.258   0.368   2.863  0.3096 -0.0066  1.6507
 4391SOL    MW417332   1.212   0.293   2.860  0.2704  0.0402  0.9962
 4392SOL     OW17333   3.696   4.341   3.923 -0.3184  0.5447  0.3339
 4392SOL    HW217334   3.695   4.436   3.907 -0.9850  0.5108  0.1469
 4392SOL    HW317335   3.777   4.311   3.880 -0.3761  0.9517 -0.0764
 4392SOL    MW417336   3.707   4.350   3.915 -0.4140  0.5939  0.2551
 4393SOL     OW17337   5.666   4.840   5.387 -0.0454  0.2523 -0.4135
 4393SOL    HW217338   5.604   4.768   5.396 -0.5830  0.4913 -1.8749
 4393SOL    HW317339   5.742   4.813   5.439 -0.9595 -0.5060  0.5644
 4393SOL    MW417340   5.668   4.827   5.395 -0.2369  0.1838 -0.4773
 4394SOL     OW17341   4.548   0.903   3.782  0.6707 -0.6556 -0.1635
 4394SOL    HW217342   4.592   0.855   3.852  1.0269  1.2607  0.9937
 4394SOL    HW317343   4.607   0.894   3.707  1.4227 -0.8438  0.4350
 4394SOL    MW417344   4.562   0.895   3.781  0.8169 -0.4276  0.0682
 4395SOL     OW17345   6.058   2.918   5.844  0.3180 -0.7697 -0.1405
 4395SOL    HW217346   6.043   2.974   5.920  2.5266  3.1261 -2.2650
 4395SOL    HW317347   6.134   2.864   5.867  0.5409 -0.1302  0.6264
 4395SOL    MW417348   6.066   2.918   5.857  0.6388 -0.1713 -0.3196
 4396SOL     OW17349   5.615   4.199   4.892 -0.2883 -0.5134  0.1203
 4396SOL    HW217350   5.707   4.202   4.865  0.6340 -1.1803  2.9084
 4396SOL    HW317351   5.597   4.106   4.903 -0.8592 -0.3084  0.9573
 4396SOL    MW417352   5.625   4.187   4.890 -0.2419 -0.5743  0.5986
 4397SOL     OW17353   5.257   1.136   1.851  0.1819 -0.1647 -0.1029
 4397SOL    HW217354   5.328   1.123   1.788 -1.2162 -0.5091 -1.6940
 4397SOL    HW317355   5.257   1.057   1.904 -0.0247 -0.9056 -1.1689
 4397SOL    MW417356   5.266   1.124   1.850 -0.0299 -0.3079 -0.4535
 4398SOL     OW17357   0.491   0.574   3.195 -0.4235  0.5933  0.0645
 4398SOL    HW217358   0.448   0.537   3.272 -2.1610 -1.1816 -1.6466
 4398SOL    HW317359   0.578   0.535   3.195 -1.0925 -0.9893  0.1067
 4398SOL    MW417360   0.497   0.564   3.205 -0.7410  0.1503 -0.1557
 4399SOL     OW17361   0.570   6.153   4.898  0.0142 -0.1257  0.0384
 4399SOL    HW217362   0.633   6.092   4.858 -0.0548  0.5173 -1.0871
 4399SOL    HW317363   0.561   6.223   4.834 -0.5640  0.6444  0.9485
 4399SOL    MW417364   0.577   6.154   4.884 -0.0712  0.0608  0.0100
 4400SOL     OW17365   6.181   5.509   4.927 -0.2999 -0.4122  0.1353
 4400SOL    HW217366   6.094   5.548   4.923 -0.1618 -0.1120  0.0661
 4400SOL    HW317367   6.187   5.472   5.015 -1.3237 -2.3512 -0.5555
 4400SOL    MW417368   6.170   5.509   4.938 -0.4167 -0.6284  0.0350
 4401SOL     OW17369   2.752   1.431   4.504  0.2504  0.3195 -0.4811
 4401SOL    HW217370   2.726   1.501   4.444  0.5125 -0.3070 -1.3477
 4401SOL    HW317371   2.776   1.358   4.446 -1.7659 -1.1350  0.4024
 4401SOL    MW417372   2.752   1.430   4.488  0.0190  0.0450 -0.4789
 4402SOL     OW17373   0.613   5.230   6.367  0.4252 -0.1601  0.3773
 4402SOL    HW217374   0.621   5.301   6.303 -0.8616 -0.7135 -0.4279
 4402SOL    HW317375   0.685   5.246   6.429 -0.3632  2.3629  0.7548
 4402SOL    MW417376   0.624   5.242   6.367  0.1514  0.0998  0.3209
 4403SOL     OW17377   5.009   2.114   4.626 -0.5415 -0.1624  0.1584
 4403SOL    HW217378   5.019   2.023   4.654  0.1886 -0.2581 -0.3927
 4403SOL    HW317379   4.916   2.123   4.607 -0.6913 -0.6733  0.6247
 4403SOL    MW417380   4.998   2.103   4.627 -0.4650 -0.2425  0.1472
 4404SOL     OW17381   2.622   4.152   2.275 -0.1650  0.3253 -0.0018
 4404SOL    HW217382   2.582   4.200   2.202 -0.5408  1.0649  0.6771
 4404SOL    HW317383   2.556   4.155   2.344  0.8711  1.1331  0.9705
 4404SOL    MW417384   2.608   4.159   2.274 -0.0779  0.5294  0.2161
 4405SOL     OW17385   1.662   6.227   0.210 -0.4532 -0.0207  0.1116
 4405SOL    HW217386   1.725   6.263   0.148  0.0050 -0.2591  0.4301
 4405SOL    HW317387   1.596   6.296   0.221 -0.3075  0.1870 -0.3079
 4405SOL    MW417388   1.662   6.241   0.203 -0.3735 -0.0247  0.0983
 4406SOL     OW17389   2.607   2.660   2.547  0.3994 -0.0364 -0.4135
 4406SOL    HW217390   2.590   2.704   2.631  0.2261 -0.7199 -0.0834
 4406SOL    HW317391   2.625   2.569   2.571  0.3378 -0.2411 -1.1239
 4406SOL    MW417392   2.607   2.654   2.561  0.3684 -0.1535 -0.4637
 4407SOL     OW17393   4.456   3.509   0.622  0.9238  0.3707 -0.0828
 4407SOL    HW217394   4.535   3.563   0.631  0.0019  1.9721 -1.0575
 4407SOL    HW317395   4.438   3.508   0.528 -0.7863  0.9432  0.1990
 4407SOL    MW417396   4.464   3.516   0.611  0.5765  0.6575 -0.1742
 4408SOL     OW17397   3.723   1.740   1.372 -0.2689 -0.2386  0.0491
 4408SOL    HW217398   3.740   1.808   1.307 -0.6955 -0.2748 -0.1031
 4408SOL    HW317399   3.749   1.780   1.455 -1.0828  0.3397  0.0412
 4408SOL    MW417400   3.729   1.754   1.374 -0.4325 -0.1670  0.0280
 4409SOL     OW17401   1.181   6.359   3.040  0.7790 -0.5666  0.3164
 4409SOL    HW217402   1.276   6.351   3.030  0.7124 -0.4158 -0.4550
 4409SOL    HW317403   1.167   6.452   3.061  0.8426 -0.6930  0.9216
 4409SOL    MW417404   1.192   6.370   3.042  0.7786 -0.5633  0.2945
 4410SOL     OW17405   0.448   4.260   5.090  0.2708  0.4464 -0.1566
 4410SOL    HW217406   0.486   4.213   5.016 -0.3980  0.8924 -0.7983
 4410SOL    HW317407   0.435   4.193   5.157 -1.5815 -0.5080 -1.3968
 4410SOL    MW417408   0.451   4.245   5.089 -0.0618  0.3793 -0.4049
 4411SOL     OW17409   1.263   5.982   2.917  0.6470 -0.3154  0.2710
 4411SOL    HW217410   1.275   6.007   3.009  0.0643  0.6556  0.1069
 4411SOL    HW317411   1.310   6.049   2.868  0.2801 -0.3639 -0.1545
 4411SOL    MW417412   1.271   5.994   2.923  0.5218 -0.1937  0.1932
 4412SOL     OW17413   2.476   5.232   1.400 -0.0300  0.1799 -0.0098
 4412SOL    HW217414   2.539   5.271   1.460  1.3425  0.2885 -1.4559
 4412SOL    HW317415   2.489   5.138   1.409  1.6288  0.2129 -1.5398
 4412SOL    MW417416   2.486   5.225   1.409  0.3700  0.1986 -0.4024
 4413SOL     OW17417   3.676   4.083   2.390  0.2840 -0.1816 -0.1980
 4413SOL    HW217418   3.659   4.108   2.299  1.7082  0.1993 -0.3862
 4413SOL    HW317419   3.730   4.154   2.425 -0.9061  0.0803  1.2076
 4413SOL    MW417420   3.681   4.096   2.382  0.3149 -0.0968 -0.0374
 4414SOL     OW17421   2.909   2.888   2.876  0.2930 -0.6637 -0.4557
 4414SOL    HW217422   2.979   2.940   2.915 -1.6726  1.8042  0.0538
 4414SOL    HW317423   2.944   2.857   2.793  1.3005  2.3782 -1.2665
 4414SOL    MW417424   2.923   2.891   2.870  0.1666  0.0632 -0.4954
 4415SOL     OW17425   3.244   0.578   5.206  0.2370  0.2119  0.3436
 4415SOL    HW217426   3.267   0.649   5.267 -1.0686 -0.6566  1.9241
 4415SOL    HW317427   3.161   0.606   5.167  0.3510  0.1112  0.0264
 4415SOL    MW417428   3.236   0.591   5.209  0.0798  0.0840  0.5102
 4416SOL     OW17429   5.749   2.897   0.460 -0.1591 -0.2667  0.3132
 4416SOL    HW217430   5.828   2.950   0.462  0.0281 -0.5323  0.0092
 4416SOL    HW317431   5.759   2.841   0.383 -0.2853 -0.8531  0.7112
 4416SOL    MW417432   5.760   2.896   0.450 -0.1510 -0.3791  0.3256
 4417SOL     OW17433   5.671   6.124   1.303 -0.2012  0.0830  0.5682
 4417SOL    HW217434   5.672   6.096   1.211 -1.3641  2.6349 -0.3097
 4417SOL    HW317435   5.599   6.074   1.342 -1.5266  0.9509 -0.6644
 4417SOL    MW417436   5.662   6.113   1.296 -0.5295  0.5342  0.2897
 4418SOL     OW17437   2.915   5.031   1.057  0.3133  0.0238  0.2749
 4418SOL    HW217438   2.903   4.938   1.037  0.9525 -0.0397  0.1891
 4418SOL    HW317439   2.915   5.074   0.971  2.2210 -0.1542  0.1551
 4418SOL    MW417440   2.913   5.025   1.043  0.6493 -0.0080  0.2478
 4419SOL     OW17441   2.714   1.481   3.643  0.3839 -0.5770 -0.7457
 4419SOL    HW217442   2.664   1.467   3.724  0.2404 -1.3310 -0.9614
 4419SOL    HW317443   2.768   1.403   3.635  1.3735  0.0877 -0.6909
 4419SOL    MW417444   2.714   1.469   3.653  0.4955 -0.5888 -0.7669
 4420SOL     OW17445   0.804   6.030   6.388  0.0407  0.5191  0.0500
 4420SOL    HW217446   0.712   6.016   6.365  0.0219  2.6464 -1.4917
 4420SOL    HW317447   0.849   6.030   6.304  1.2883  0.6653  0.7021
 4420SOL    MW417448   0.798   6.028   6.374  0.2028  0.8190 -0.0674
 4421SOL     OW17449   3.729   5.987   0.148 -0.6555  0.1879  0.4845
 4421SOL    HW217450   3.821   5.985   0.121 -0.6235 -0.7235  0.6423
 4421SOL    HW317451   3.681   5.958   0.070 -0.7514 -0.0802  0.6446
 4421SOL    MW417452   3.735   5.983   0.134 -0.6639  0.0323  0.5264
 4422SOL     OW17453   1.376   3.390   5.965  0.1018  0.6445  0.2479
 4422SOL    HW217454   1.415   3.414   5.881  0.7709 -0.8033  0.1151
 4422SOL    HW317455   1.369   3.473   6.013  0.7173  1.3347 -0.8160
 4422SOL    MW417456   1.380   3.405   5.960  0.2713  0.5445  0.0900
 4423SOL     OW17457   0.272   5.517   4.128 -0.2231  0.2607  0.1949
 4423SOL    HW217458   0.344   5.464   4.163  1.3896  1.4362 -1.1616
 4423SOL    HW317459   0.195   5.489   4.178  1.2921 -0.5125  2.2628
 4423SOL    MW417460   0.272   5.506   4.140  0.1896  0.3138  0.2888
 4424SOL     OW17461   5.447   2.669   2.699  0.2533  0.3289  0.0146
 4424SOL    HW217462   5.368   2.615   2.698  0.0509  0.5965 -1.7621
 4424SOL    HW317463   5.514   2.614   2.658  1.2026 -0.1310  2.0525
 4424SOL    MW417464   5.446   2.655   2.694  0.3518  0.3035  0.0491
 4425SOL     OW17465   2.397   0.317   2.304 -0.1014 -0.0571  0.3331
 4425SOL    HW217466   2.390   0.384   2.236 -2.2091 -1.3097 -0.8324
 4425SOL    HW317467   2.484   0.327   2.340 -0.0777  2.7826 -0.3207
 4425SOL    MW417468   2.407   0.327   2.299 -0.3763  0.1523  0.0931
 4426SOL     OW17469   3.029   5.522   5.991 -0.0493 -0.9561  0.2492
 4426SOL    HW217470   3.040   5.615   5.972 -1.0757 -0.9579 -0.4277
 4426SOL    HW317471   3.087   5.505   6.065  0.1030  0.2332  0.4128
 4426SOL    MW417472   3.038   5.532   5.998 -0.1646 -0.7994  0.1815
 4427SOL     OW17473   4.018   4.790   5.505 -0.6661  0.0158  0.1608
 4427SOL    HW217474   4.061   4.849   5.444  0.8794 -0.9298  0.2783
 4427SOL    HW317475   3.987   4.717   5.451 -2.2092  0.7011  0.0735
 4427SOL    MW417476   4.020   4.788   5.490 -0.6658 -0.0186  0.1648
 4428SOL     OW17477   0.176   4.766   0.633  0.4314  0.7090 -0.4435
 4428SOL    HW217478   0.162   4.807   0.548  0.5129  0.0510 -0.7814
 4428SOL    HW317479   0.167   4.672   0.616 -1.0591  0.6337  0.5485
 4428SOL    MW417480   0.173   4.759   0.620  0.2455  0.6123 -0.3572
 4429SOL     OW17481   1.755   2.179   0.504  0.3253  0.0190 -0.4175
 4429SOL    HW217482   1.803   2.206   0.582 -1.0970  2.2137 -0.1940
 4429SOL    HW317483   1.738   2.086   0.517 -1.9298  0.7162  3.1795
 4429SOL    MW417484   1.759   2.170   0.516 -0.1599  0.4006  0.0865
 4430SOL     OW17485   0.317   2.202   4.935 -0.0056 -0.1642  0.6364
 4430SOL    HW217486   0.244   2.157   4.978 -1.5560 -1.2622 -2.7233
 4430SOL    HW317487   0.275   2.268   4.880  1.7024  0.4801  0.0448
 4430SOL    MW417488   0.302   2.205   4.933  0.0152 -0.2241  0.1151
 4431SOL     OW17489   3.156   2.331   4.176 -0.7175 -0.0233 -0.5905
 4431SOL    HW217490   3.093   2.300   4.241 -1.7907 -1.4655 -2.2247
 4431SOL    HW317491   3.118   2.305   4.092  0.7284  1.5656 -1.8015
 4431SOL    MW417492   3.142   2.324   4.173 -0.6683 -0.0040 -0.9659
 4432SOL     OW17493   0.063   4.326   1.852 -0.0725 -0.1278 -0.2275
 4432SOL    HW217494   0.061   4.265   1.778  0.8266 -0.4981  0.0429
 4432SOL    HW317495   0.117   4.399   1.822  2.1471 -1.2615  0.7636
 4432SOL    MW417496   0.070   4.328   1.838  0.3390 -0.3263 -0.0611
 4433SOL     OW17497   3.945   0.457   1.745 -0.0049 -0.3798  0.4838
 4433SOL    HW217498   3.907   0.372   1.721 -0.3011 -0.1019 -0.0406
 4433SOL    HW317499   3.926   0.514   1.671  2.7515 -0.5982 -0.4751
 4433SOL    MW417500   3.937   0.453   1.732  0.3197 -0.3719  0.2881
 4434SOL     OW17501   4.890   1.751   1.763  0.0372 -0.0472  0.0605
 4434SOL    HW217502   4.944   1.762   1.684  0.5016 -1.3154  0.1787
 4434SOL    HW317503   4.954   1.743   1.834 -0.3883  1.6848  0.6764
 4434SOL    MW417504   4.906   1.752   1.762  0.0423  0.0140  0.1574
 4435SOL     OW17505   0.808   3.697   2.718  0.2470  0.2040 -0.1628
 4435SOL    HW217506   0.799   3.627   2.781 -0.3048 -0.9576 -1.4782
 4435SOL    HW317507   0.894   3.682   2.677 -0.4335 -0.5580 -1.3849
 4435SOL    MW417508   0.818   3.686   2.721  0.0844 -0.0498 -0.4976
 4436SOL     OW17509   3.175   1.709   5.978  0.0624 -0.3643  0.3032
 4436SOL    HW217510   3.240   1.651   5.938  0.1214  0.2794 -0.5634
 4436SOL    HW317511   3.210   1.727   6.066  1.1158  0.0304 -0.1732
 4436SOL    MW417512   3.188   1.704   5.984  0.2092 -0.2273  0.1260
 4437SOL     OW17513   1.269   3.332   2.564 -0.0597  0.1135 -0.2862
 4437SOL    HW217514   1.309   3.377   2.639  0.7037 -0.1754 -0.5137
 4437SOL    HW317515   1.177   3.325   2.587 -0.2381  1.8812 -0.2742
 4437SOL    MW417516   1.262   3.337   2.577  0.0175  0.3086 -0.3147
 4438SOL     OW17517   6.117   4.615   5.495 -0.4627  0.1526 -0.3537
 4438SOL    HW217518   6.141   4.568   5.575 -1.3208  0.5107  0.1201
 4438SOL    HW317519   6.201   4.640   5.457 -0.0258 -0.6311  0.0572
 4438SOL    MW417520   6.132   4.612   5.501 -0.5183  0.0964 -0.2370
 4439SOL     OW17521   1.010   0.353   0.894  0.2393  0.1284  0.1655
 4439SOL    HW217522   1.079   0.410   0.928  0.2195  0.4594 -0.3343
 4439SOL    HW317523   1.057   0.284   0.847  0.2283  0.6322 -0.6065
 4439SOL    MW417524   1.025   0.351   0.893  0.2352  0.2385 -0.0023
 4440SOL     OW17525   3.000   1.235   3.873 -0.1690 -0.7123 -0.2632
 4440SOL    HW217526   3.083   1.204   3.909 -0.6809 -1.5661  0.2237
 4440SOL    HW317527   2.947   1.156   3.865 -1.8505  0.0914  1.9174
 4440SOL    MW417528   3.004   1.221   3.877 -0.4584 -0.7189  0.0888
 4441SOL     OW17529   6.196   6.347   6.388 -0.1815 -0.8362 -0.7118
 4441SOL    HW217530   6.200   6.405   6.464 -0.0787 -1.0884 -0.5233
 4441SOL    HW317531   6.103   6.344   6.365 -0.4699 -2.1187  0.4683
 4441SOL    MW417532   6.184   6.354   6.395 -0.2060 -1.0387 -0.5313
 4442SOL     OW17533   3.738   1.968   2.641 -0.1805 -0.5973 -0.0565
 4442SOL    HW217534   3.784   1.885   2.641 -2.1226 -1.8239 -2.6687
 4442SOL    HW317535   3.807   2.034   2.630  1.2878 -1.9446  0.7240
 4442SOL    MW417536   3.753   1.966   2.639 -0.2430 -0.9369 -0.2982
 4443SOL     OW17537   1.514   0.203   2.553  0.3838 -0.0287 -0.4409
 4443SOL    HW217538   1.478   0.169   2.636  1.4576 -1.0429 -0.3593
 4443SOL    HW317539   1.530   0.124   2.501  1.7327  0.4361 -0.7632
 4443SOL    MW417540   1.511   0.188   2.557  0.7034 -0.1012 -0.4726
 4444SOL     OW17541   2.634   0.982   5.791 -0.3018 -0.3979 -0.1964
 4444SOL    HW217542   2.558   1.037   5.811  0.1985  0.0695  0.4246
 4444SOL    HW317543   2.697   1.042   5.750 -0.0935 -0.6960 -0.3172
 4444SOL    MW417544   2.632   0.997   5.788 -0.2083 -0.3755 -0.1304
 4445SOL     OW17545   4.466   5.970   5.331  0.0173  0.3594 -0.0631
 4445SOL    HW217546   4.511   5.961   5.247  3.2830  0.4691  1.5073
 4445SOL    HW317547   4.476   6.063   5.353  0.3454  0.0800  1.0028
 4445SOL    MW417548   4.473   5.981   5.323  0.4914  0.3370  0.2847
 4446SOL     OW17549   0.126   3.640   6.222 -0.1258 -0.2463 -0.1656
 4446SOL    HW217550   0.053   3.596   6.264  0.6429 -0.7402  0.6818
 4446SOL    HW317551   0.107   3.633   6.128 -1.4168  0.1053  0.0472
 4446SOL    MW417552   0.114   3.634   6.215 -0.1947 -0.2651 -0.0257
 4447SOL     OW17553   3.001   1.694   1.563 -0.2179 -0.2638  0.6983
 4447SOL    HW217554   3.053   1.768   1.594  0.7220  0.0973 -1.5433
 4447SOL    HW317555   2.923   1.733   1.523 -1.6943 -0.7461  2.8775
 4447SOL    MW417556   2.997   1.709   1.562 -0.2887 -0.2798  0.6901
 4448SOL     OW17557   2.926   1.704   1.179  0.1530 -0.3245 -0.0537
 4448SOL    HW217558   2.999   1.685   1.120 -0.6530 -0.7095 -0.9528
 4448SOL    HW317559   2.910   1.797   1.168  0.2053 -0.3338 -0.2084
 4448SOL    MW417560   2.933   1.714   1.170  0.0536 -0.3765 -0.1928
 4449SOL     OW17561   5.529   0.467   3.551  0.6277  0.1613 -0.1284
 4449SOL    HW217562   5.547   0.559   3.534  2.0395 -0.1702 -0.5429
 4449SOL    HW317563   5.476   0.467   3.631  2.3089  1.2433  1.0379
 4449SOL    MW417564   5.524   0.479   3.559  1.0358  0.2603 -0.0292
 4450SOL     OW17565   6.312   3.405   4.605  0.0642 -0.0307 -0.2821
 4450SOL    HW217566   6.254   3.482   4.602 -0.3147 -0.2413  0.9340
 4450SOL    HW317567   6.268   3.340   4.550 -0.8360 -0.1584  0.5559
 4450SOL    MW417568   6.298   3.407   4.598 -0.1046 -0.0754 -0.0111
 4451SOL     OW17569   2.015   3.108   2.825 -0.1431  0.1397  0.6486
 4451SOL    HW217570   1.967   3.185   2.854  1.5371  0.3802  3.1766
 4451SOL    HW317571   1.947   3.047   2.796 -1.9098  0.9333  2.7958
 4451SOL    MW417572   1.999   3.110   2.825 -0.1545  0.2761  1.2654
 4452SOL     OW17573   1.187   4.336   5.324  0.3322  0.4075 -0.1874
 4452SOL    HW217574   1.199   4.391   5.402  0.8871  0.5077 -0.3374
 4452SOL    HW317575   1.162   4.397   5.256  0.1112  0.3572 -0.1503
 4452SOL    MW417576   1.186   4.351   5.326  0.3763  0.4141 -0.2023
 4453SOL     OW17577   1.753   5.371   3.946 -0.3592 -0.1838  0.2867
 4453SOL    HW217578   1.823   5.341   4.004 -0.2578 -1.1597 -0.3176
 4453SOL    HW317579   1.683   5.308   3.958  0.3007 -1.4498 -1.8981
 4453SOL    MW417580   1.753   5.359   3.955 -0.2587 -0.4796 -0.0813
 4454SOL     OW17581   2.414   6.424   0.691  0.7992 -0.1985  0.3400
 4454SOL    HW217582   2.367   6.352   0.649  0.2987 -0.2277  0.9318
 4454SOL    HW317583   2.506   6.403   0.679  0.6739 -1.4073  1.2430
 4454SOL    MW417584   2.420   6.411   0.684  0.7166 -0.3618  0.5372
 4455SOL     OW17585   6.116   1.986   0.059  0.5353  0.2656 -0.4144
 4455SOL    HW217586   6.137   1.902   0.019  0.0324  0.8571 -2.0132
 4455SOL    HW317587   6.192   2.042   0.040  0.1741  0.6325 -0.8084
 4455SOL    MW417588   6.129   1.983   0.051  0.4213  0.3920 -0.6773
 4456SOL     OW17589   4.143   2.429   3.735 -0.5728 -0.2869 -0.1904
 4456SOL    HW217590   4.205   2.502   3.742 -1.3293  0.5539 -1.7909
 4456SOL    HW317591   4.159   2.393   3.648 -1.7328 -0.6152 -0.2786
 4456SOL    MW417592   4.153   2.434   3.724 -0.8257 -0.2193 -0.4132
 4457SOL     OW17593   0.923   1.951   3.715 -0.0512  0.1043 -0.3927
 4457SOL    HW217594   0.867   1.990   3.782  0.8100  0.3531  0.1935
 4457SOL    HW317595   0.883   1.977   3.632 -1.9646 -1.3803 -0.0131
 4457SOL    MW417596   0.910   1.959   3.713 -0.1900 -0.0587 -0.2652
 4458SOL     OW17597   1.001   0.208   2.037 -0.4977 -1.0703 -0.2167
 4458SOL    HW217598   0.932   0.144   2.051 -1.1239 -0.5293 -0.7882
 4458SOL    HW317599   0.955   0.289   2.018  0.2961 -0.8931 -1.4376
 4458SOL    MW417600   0.986   0.210   2.037 -0.4756 -0.9756 -0.4532
 4459SOL     OW17601   2.925   0.834   2.870 -0.1756  0.2774  0.1132
 4459SOL    HW217602   3.000   0.839   2.811  0.3646  1.0285  0.8472
 4459SOL    HW317603   2.850   0.856   2.815  0.1949  0.0257 -0.5071
 4459SOL    MW417604   2.925   0.838   2.855 -0.0554  0.3433  0.1282
 4460SOL     OW17605   5.801   3.904   5.601  0.4362 -0.1095  0.5238
 4460SOL    HW217606   5.863   3.935   5.534 -1.0031  1.2749 -0.2460
 4460SOL    HW317607   5.781   3.814   5.575  0.7919  0.0201 -0.2381
 4460SOL    MW417608   5.807   3.896   5.588  0.2933  0.0902  0.3217
 4461SOL     OW17609   4.334   3.113   2.457  0.0712  0.1275  0.0595
 4461SOL    HW217610   4.353   3.156   2.374  0.4003  1.2996  0.7227
 4461SOL    HW317611   4.243   3.133   2.474 -0.4098 -1.2699 -0.6564
 4461SOL    MW417612   4.325   3.121   2.448  0.0511  0.0978  0.0525
 4462SOL     OW17613   4.266   5.900   5.818 -0.0207 -0.0404  0.5147
 4462SOL    HW217614   4.213   5.821   5.806 -0.8945  0.6177 -0.1010
 4462SOL    HW317615   4.280   5.933   5.729 -1.9232  1.9398  0.8849
 4462SOL    MW417616   4.261   5.894   5.804 -0.3870  0.3077  0.4823
 4463SOL     OW17617   4.773   3.056   4.268 -0.3208 -0.1110 -0.3427
 4463SOL    HW217618   4.804   3.129   4.215  0.0936 -1.3154 -1.8295
 4463SOL    HW317619   4.684   3.040   4.238 -0.3598 -0.3024 -0.1303
 4463SOL    MW417620   4.765   3.063   4.257 -0.2713 -0.2952 -0.5108
 4464SOL     OW17621   5.012   4.729   2.427 -0.5285 -0.4924  0.0471
 4464SOL    HW217622   5.106   4.717   2.440 -0.3275  0.6578 -0.2645
 4464SOL    HW317623   5.000   4.719   2.332 -1.1524 -3.2914  0.3212
 4464SOL    MW417624   5.022   4.726   2.416 -0.5843 -0.7099  0.0422
 4465SOL     OW17625   4.254   5.049   1.820 -0.0222  0.2720 -0.3722
 4465SOL    HW217626   4.314   5.006   1.760  0.8304  0.5230  0.2886
 4465SOL    HW317627   4.199   5.103   1.764  0.8243  0.5770 -0.9280
 4465SOL    MW417628   4.254   5.051   1.805  0.2020  0.3454 -0.3584
 4466SOL     OW17629   5.947   1.372   4.015 -0.3873  0.4493  0.4238
 4466SOL    HW217630   5.918   1.331   4.096  1.0969  0.2892  0.9065
 4466SOL    HW317631   6.020   1.428   4.041 -0.0685  0.6068 -0.7597
 4466SOL    MW417632   5.953   1.374   4.029 -0.1494  0.4489  0.3314
 4467SOL     OW17633   5.157   4.054   3.402 -0.1928 -0.5690 -0.0011
 4467SOL    HW217634   5.104   4.049   3.323  0.4705  1.3649 -0.6120
 4467SOL    HW317635   5.093   4.064   3.473 -0.7273  0.8394 -0.6374
 4467SOL    MW417636   5.142   4.055   3.401 -0.1758 -0.1280 -0.1657
 4468SOL     OW17637   1.358   4.383   4.314  0.3294  0.0006  0.1031
 4468SOL    HW217638   1.313   4.467   4.310 -1.8585 -1.0686  1.0481
 4468SOL    HW317639   1.415   4.383   4.237 -2.0402  1.0124 -1.7494
 4468SOL    MW417640   1.360   4.395   4.303 -0.2719 -0.0070 -0.0166
 4469SOL     OW17641   5.786   0.509   2.739  0.5887  0.4700  0.2630
 4469SOL    HW217642   5.729   0.565   2.686  0.3087  1.5147  1.6009
 4469SOL    HW317643   5.727   0.469   2.803  0.8078 -1.3040 -0.5854
 4469SOL    MW417644   5.771   0.512   2.740  0.5807  0.3738  0.3276
 4470SOL     OW17645   1.221   4.519   4.869 -0.1247 -0.1363 -0.1962
 4470SOL    HW217646   1.313   4.526   4.895 -0.1899 -1.3686  0.4279
 4470SOL    HW317647   1.172   4.523   4.951 -0.7713  1.9697 -0.6094
 4470SOL    MW417648   1.227   4.520   4.883 -0.2186 -0.0210 -0.1683
 4471SOL     OW17649   6.253   3.866   5.278 -0.7017 -0.0999 -0.2327
 4471SOL    HW217650   6.240   3.772   5.284 -1.8108  0.0805  0.4626
 4471SOL    HW317651   6.238   3.887   5.186  1.9299 -0.8953 -0.9307
 4471SOL    MW417652   6.249   3.856   5.267 -0.5008 -0.1810 -0.2330
 4472SOL     OW17653   1.620   5.475   5.743  0.0024 -0.2848 -0.0249
 4472SOL    HW217654   1.579   5.528   5.674  1.0640  0.4078 -0.1521
 4472SOL    HW317655   1.698   5.437   5.701 -1.0385 -2.4684 -0.1058
 4472SOL    MW417656   1.625   5.477   5.728  0.0052 -0.4815 -0.0523
 4473SOL     OW17657   2.711   4.927   6.387 -0.0670  0.1000 -0.1410
 4473SOL    HW217658   2.647   4.950   6.455  1.4406  0.2874  1.2741
 4473SOL    HW317659   2.663   4.868   6.329 -1.5596  0.3174  0.8006
 4473SOL    MW417660   2.696   4.922   6.388 -0.0650  0.1534  0.1700
 4474SOL     OW17661   3.915   5.966   5.158  0.3110 -0.4998 -0.0991
 4474SOL    HW217662   3.900   6.056   5.188  3.1209 -0.4818  1.6516
 4474SOL    HW317663   3.831   5.922   5.170 -0.3981  1.2189  1.6956
 4474SOL    MW417664   3.902   5.972   5.164  0.5882 -0.2706  0.3686
 4475SOL     OW17665   5.407   4.266   1.923  0.6199 -0.3532 -0.5799
 4475SOL    HW217666   5.377   4.177   1.904 -0.2648  0.2265 -2.0792
 4475SOL    HW317667   5.502   4.262   1.911  0.7020 -1.3059  0.3029
 4475SOL    MW417668   5.416   4.254   1.919  0.5140 -0.4024 -0.6612
 4476SOL     OW17669   1.467   6.412   5.584 -0.2804  0.2623 -0.3600
 4476SOL    HW217670   1.464   6.317   5.578  1.7781  0.2348 -3.5299
 4476SOL    HW317671   1.558   6.434   5.561 -0.3723  2.9707  1.4209
 4476SOL    MW417672   1.479   6.403   5.580 -0.0209  0.6160 -0.5433
 4477SOL     OW17673   0.643   2.443   2.694  0.0974 -0.5805  0.1503
 4477SOL    HW217674   0.611   2.357   2.720 -0.5903 -0.1595  0.7218
 4477SOL    HW317675   0.640   2.495   2.774 -0.3872  0.2434 -0.3937
 4477SOL    MW417676   0.639   2.439   2.708 -0.0573 -0.4163  0.1539
 4478SOL     OW17677   4.646   5.566   5.960 -0.1743  0.0391 -0.0542
 4478SOL    HW217678   4.734   5.548   5.926 -0.2758 -0.7406  0.0682
 4478SOL    HW317679   4.614   5.639   5.907  1.2261  1.5665  1.0880
 4478SOL    MW417680   4.654   5.573   5.948 -0.0029  0.1377  0.1126
 4479SOL     OW17681   2.820   1.132   6.107  0.8614  0.3895 -0.1442
 4479SOL    HW217682   2.869   1.080   6.043 -0.1084 -0.6416 -0.0755
 4479SOL    HW317683   2.757   1.181   6.055  1.0483  0.6680 -0.1087
 4479SOL    MW417684   2.819   1.131   6.092  0.7581  0.2902 -0.1305
 4480SOL     OW17685   3.557   1.016   4.517  0.2118 -0.2385  0.4774
 4480SOL    HW217686   3.556   1.018   4.612  1.1453  1.5505  0.4862
 4480SOL    HW317687   3.510   0.936   4.494 -0.3407 -0.5086  2.4159
 4480SOL    MW417688   3.551   1.006   4.526  0.2621 -0.0381  0.7343
 4481SOL     OW17689   0.928   0.146   5.574 -0.1477  0.3596  0.0689
 4481SOL    HW217690   0.837   0.125   5.552 -0.1433  0.6105 -0.2028
 4481SOL    HW317691   0.928   0.242   5.585  0.1346  0.3925 -0.1983
 4481SOL    MW417692   0.916   0.156   5.572 -0.1099  0.3970 -0.0022
 4482SOL     OW17693   0.165   4.284   4.004 -0.2551  0.5471  0.3070
 4482SOL    HW217694   0.189   4.363   4.052  0.5042 -0.0853  1.0175
 4482SOL    HW317695   0.182   4.305   3.912 -1.8138  1.8016  0.2849
 4482SOL    MW417696   0.171   4.297   3.998 -0.3606  0.6292  0.3979
 4483SOL     OW17697   0.302   6.208   0.610 -0.2050  0.0860  0.0025
 4483SOL    HW217698   0.341   6.121   0.617  1.0220  0.5477 -0.7521
 4483SOL    HW317699   0.273   6.214   0.519 -1.8202 -0.1351  0.4726
 4483SOL    MW417700   0.304   6.197   0.599 -0.2562  0.1177 -0.0351
 4484SOL     OW17701   0.299   5.522   3.438  0.1792  0.3989 -0.5524
 4484SOL    HW217702   0.248   5.536   3.359  0.7136  1.3430 -0.7555
 4484SOL    HW317703   0.300   5.608   3.481  2.0857  0.5783 -0.8773
 4484SOL    MW417704   0.293   5.536   3.434  0.5012  0.5471 -0.6220
 4485SOL     OW17705   0.765   0.616   5.866  0.2253 -0.6245  0.2009
 4485SOL    HW217706   0.737   0.550   5.930  0.5090 -0.8259  0.1169
 4485SOL    HW317707   0.722   0.591   5.785  2.4114 -2.3033 -0.5540
 4485SOL    MW417708   0.756   0.604   5.864  0.5511 -0.8725  0.0902
 4486SOL     OW17709   1.862   5.757   1.366 -0.0307  0.1244 -0.0149
 4486SOL    HW217710   1.934   5.713   1.321  1.6675  0.9965  1.6925
 4486SOL    HW317711   1.798   5.688   1.383 -0.1756 -0.4562 -2.5460
 4486SOL    MW417712   1.863   5.742   1.363  0.1742  0.1628 -0.1236
 4487SOL     OW17713   1.304   1.677   6.308  0.4139  0.0653 -0.0628
 4487SOL    HW217714   1.270   1.764   6.285 -2.5211 -1.1234 -0.6354
 4487SOL    HW317715   1.313   1.632   6.224 -0.3711 -0.9230  0.3573
 4487SOL    MW417716   1.301   1.683   6.294 -0.0769 -0.2219 -0.0829
 4488SOL     OW17717   0.247   5.003   0.053  0.3605  0.0866 -0.9333
 4488SOL    HW217718   0.168   5.042   0.017  0.9227  0.8552 -1.3814
 4488SOL    HW317719   0.289   4.960  -0.021 -0.6810 -2.1914 -0.2812
 4488SOL    MW417720   0.242   5.002   0.039  0.2973 -0.1126 -0.9064
 4489SOL     OW17721   5.801   6.171   5.961 -0.1274  0.2852  0.2235
 4489SOL    HW217722   5.893   6.154   5.944 -0.1537 -0.8996  1.0976
 4489SOL    HW317723   5.798   6.258   5.999  0.7656 -0.0615  1.1318
 4489SOL    MW417724   5.813   6.180   5.964 -0.0130  0.0831  0.4586
 4490SOL     OW17725   4.171   5.272   3.983 -0.2753 -0.2337 -0.1001
 4490SOL    HW217726   4.137   5.361   3.989 -1.5010 -0.7875  2.0784
 4490SOL    HW317727   4.266   5.282   3.987 -0.4172  0.9519  0.8928
 4490SOL    MW417728   4.179   5.285   3.984 -0.4557 -0.1503  0.3183
 4491SOL     OW17729   4.243   3.038   1.699  0.1053  0.0634  0.1554
 4491SOL    HW217730   4.303   2.965   1.681  0.3369 -0.0002  1.1555
 4491SOL    HW317731   4.189   3.008   1.772 -1.0309  0.1986 -0.5962
 4491SOL    MW417732   4.244   3.024   1.706 -0.0141  0.0729  0.1882
 4492SOL     OW17733   4.482   3.764   2.451 -0.1904 -0.1398  0.6307
 4492SOL    HW217734   4.405   3.819   2.439 -0.5728 -0.6648  0.6933
 4492SOL    HW317735   4.494   3.720   2.367  0.1817  0.1074  0.5462
 4492SOL    MW417736   4.474   3.766   2.439 -0.1917 -0.1764  0.6278
 4493SOL     OW17737   0.153   1.092   5.026  0.0662  0.3466 -0.2212
 4493SOL    HW217738   0.103   1.024   4.981  0.5266 -0.1970  0.0774
 4493SOL    HW317739   0.092   1.129   5.089 -0.2362  0.3190 -0.4933
 4493SOL    MW417740   0.138   1.088   5.028  0.0870  0.2712 -0.2177
 4494SOL     OW17741   0.817   2.504   3.804  0.6355 -0.4611  0.4467
 4494SOL    HW217742   0.773   2.465   3.880  0.8068  1.7096  1.7619
 4494SOL    HW317743   0.745   2.528   3.745  0.3040 -0.0711  0.9967
 4494SOL    MW417744   0.801   2.502   3.806  0.6144 -0.1232  0.6928
 4495SOL     OW17745   1.458   2.231   1.115 -0.2700  0.2480  0.1685
 4495SOL    HW217746   1.488   2.155   1.164 -0.9073  0.7230  1.3394
 4495SOL    HW317747   1.389   2.198   1.057  0.6340 -0.3547 -0.6014
 4495SOL    MW417748   1.453   2.217   1.114 -0.2348  0.2312  0.2214
 4496SOL     OW17749   0.751   1.609   5.028  0.6918 -0.5566 -0.1831
 4496SOL    HW217750   0.806   1.672   4.981  0.1880  0.9774  1.2008
 4496SOL    HW317751   0.809   1.571   5.094  1.0841 -1.8544 -1.2200
 4496SOL    MW417752   0.766   1.612   5.030  0.6771 -0.5255 -0.1373
 4497SOL     OW17753   0.184   3.125   1.566 -0.2523  0.1472 -0.0854
 4497SOL    HW217754   0.190   3.218   1.543  1.7064  0.2867  0.8307
 4497SOL    HW317755   0.206   3.079   1.485  2.0669  0.5667  0.2520
 4497SOL    MW417756   0.187   3.131   1.552  0.3121  0.2209  0.0800
 4498SOL     OW17757   1.082   2.642   3.396  0.4860 -0.5310  0.1424
 4498SOL    HW217758   1.046   2.558   3.425  0.4434 -0.5962 -0.1032
 4498SOL    HW317759   1.076   2.698   3.474 -0.9706 -0.2695 -0.1268
 4498SOL    MW417760   1.077   2.638   3.410  0.2882 -0.5051  0.0745
 4499SOL     OW17761   3.144   4.011   4.164 -0.4720  0.1857 -0.6797
 4499SOL    HW217762   3.237   4.011   4.140 -0.9400 -0.4537 -2.6763
 4499SOL    HW317763   3.141   3.967   4.248  0.7714 -2.5005 -1.9269
 4499SOL    MW417764   3.156   4.005   4.172 -0.3697 -0.2531 -1.1077
 4500SOL     OW17765   0.340   3.662   5.719 -0.2587  0.2985  0.3956
 4500SOL    HW217766   0.332   3.751   5.686  0.6307  0.6496  1.0723
 4500SOL    HW317767   0.255   3.622   5.703 -1.0391  1.6239  1.0974
 4500SOL    MW417768   0.328   3.668   5.713 -0.2443  0.5197  0.5775
 4501SOL     OW17769   1.422   2.912   0.993  0.0379  0.3347  0.0218
 4501SOL    HW217770   1.363   2.852   0.948 -2.4288  0.2651  3.0275
 4501SOL    HW317771   1.478   2.856   1.047 -0.8738  0.5422  1.2467
 4501SOL    MW417772   1.422   2.897   0.994 -0.4078  0.3529  0.5800
 4502SOL     OW17773   5.164   1.169   6.058  0.1683 -0.1587 -0.1225
 4502SOL    HW217774   5.249   1.208   6.079  1.2162 -1.3840 -1.8450
 4502SOL    HW317775   5.116   1.170   6.141  1.4649  1.4847  0.6556
 4502SOL    MW417776   5.169   1.174   6.072  0.4776 -0.1035 -0.2471
 4503SOL     OW17777   0.853   5.284   4.200 -0.2295  0.0436 -0.0602
 4503SOL    HW217778   0.850   5.238   4.284  2.8805 -2.4905 -1.1071
 4503SOL    HW317779   0.811   5.223   4.138  0.8309  0.1763 -0.9350
 4503SOL    MW417780   0.847   5.270   4.203  0.3208 -0.2732 -0.3137
 4504SOL     OW17781   0.926   5.587   0.191 -0.6532  0.3805  0.4995
 4504SOL    HW217782   0.952   5.548   0.274 -0.2519 -0.4299  0.0130
 4504SOL    HW317783   0.932   5.515   0.128 -2.0588  0.6769 -0.0270
 4504SOL    MW417784   0.930   5.572   0.194 -0.7857  0.3127  0.3659
 4505SOL     OW17785   0.122   4.633   1.724 -0.3183 -0.0906  0.6333
 4505SOL    HW217786   0.069   4.578   1.667  0.7806 -0.6909  0.1643
 4505SOL    HW317787   0.145   4.709   1.671  0.8862 -0.7504  0.1503
 4505SOL    MW417788   0.118   4.636   1.710 -0.0144 -0.2568  0.5077
 4506SOL     OW17789   6.232   3.635   3.565 -0.1806  0.1908  0.2418
 4506SOL    HW217790   6.138   3.621   3.563 -0.1270 -1.1922  2.6568
 4506SOL    HW317791   6.242   3.726   3.594 -0.8627 -0.3133  2.2276
 4506SOL    MW417792   6.221   3.646   3.569 -0.2635 -0.0582  0.8224
 4507SOL     OW17793   1.937   1.661   5.257 -0.2309 -0.3420  0.1813
 4507SOL    HW217794   1.850   1.645   5.294  0.4229 -1.4347  1.2959
 4507SOL    HW317795   1.987   1.699   5.330  0.3581 -0.1392 -0.3253
 4507SOL    MW417796   1.932   1.664   5.272 -0.0669 -0.4594  0.2615
 4508SOL     OW17797   5.351   2.406   1.275 -0.4666  0.6290  0.3063
 4508SOL    HW217798   5.415   2.476   1.271  1.3069 -0.9920 -1.2210
 4508SOL    HW317799   5.368   2.362   1.359  0.7385 -0.0374 -0.2692
 4508SOL    MW417800   5.362   2.409   1.286 -0.0736  0.3272  0.0289
 4509SOL     OW17801   0.191   6.212   2.621 -0.3816  0.5469 -0.2238
 4509SOL    HW217802   0.115   6.155   2.626  1.4381 -1.9851  0.3044
 4509SOL    HW317803   0.210   6.234   2.712  0.0010  0.4909 -0.2890
 4509SOL    MW417804   0.183   6.208   2.634 -0.0910  0.2055 -0.1627
 4510SOL     OW17805   4.266   3.742   5.537 -0.5773  0.0509  0.1383
 4510SOL    HW217806   4.270   3.649   5.516  2.3213 -0.4001  2.2172
 4510SOL    HW317807   4.326   3.783   5.475  0.8438 -0.0070  1.4278
 4510SOL    MW417808   4.274   3.735   5.526 -0.0073 -0.0162  0.5827
 4511SOL     OW17809   0.459   3.533   5.913 -0.0715  0.0015  0.1949
 4511SOL    HW217810   0.412   3.571   5.839  0.8509  1.4936  0.3399
 4511SOL    HW317811   0.449   3.597   5.983 -2.0199 -1.9540  1.8284
 4511SOL    MW417812   0.451   3.547   5.912 -0.2068 -0.0596  0.4296
 4512SOL     OW17813   1.973   4.926   1.949 -0.7104  0.3654  0.3700
 4512SOL    HW217814   1.949   4.955   2.037  1.7737 -0.4872  1.4169
 4512SOL    HW317815   1.902   4.867   1.923 -1.5477  0.7140  1.7492
 4512SOL    MW417816   1.961   4.922   1.957 -0.4931  0.2989  0.6901
 4513SOL     OW17817   1.564   3.046  -0.002 -0.5019  0.3012 -0.7174
 4513SOL    HW217818   1.469   3.046  -0.004 -0.6330 -1.0468  1.7263
 4513SOL    HW317819   1.589   2.955  -0.020  0.2350  0.3710 -0.1173
 4513SOL    MW417820   1.555   3.034  -0.005 -0.4220  0.1326 -0.3158
 4514SOL     OW17821   6.083   1.934   4.247  0.5993 -0.3724  0.4478
 4514SOL    HW217822   6.028   1.892   4.313 -0.1687 -0.1003 -0.0013
 4514SOL    HW317823   6.032   2.010   4.218  1.5789  0.3708  0.6188
 4514SOL    MW417824   6.069   1.939   4.252  0.6272 -0.2384  0.4111
 4515SOL     OW17825   3.050   5.278   3.824 -0.3880  0.0368 -0.5517
 4515SOL    HW217826   3.019   5.188   3.825  1.5021 -0.6791 -1.5378
 4515SOL    HW317827   3.072   5.298   3.915 -2.6951  0.2633  0.0265
 4515SOL    MW417828   3.049   5.269   3.836 -0.4431 -0.0278 -0.6055
 4516SOL     OW17829   1.525   1.360   0.959  0.4243 -0.4730 -0.0932
 4516SOL    HW217830   1.493   1.444   0.992  0.2202 -1.0070  1.1205
 4516SOL    HW317831   1.496   1.296   1.024  3.3316 -1.1064  0.6851
 4516SOL    MW417832   1.517   1.362   0.972  0.7810 -0.6270  0.1697
 4517SOL     OW17833   0.332   4.085   6.231  0.0354  0.7418 -0.0562
 4517SOL    HW217834   0.351   4.134   6.312  0.2572  0.3201  0.1515
 4517SOL    HW317835   0.417   4.071   6.191 -0.0494  0.7134 -0.2277
 4517SOL    MW417836   0.345   4.090   6.237  0.0535  0.6824 -0.0514
 4518SOL     OW17837   2.401   5.610   1.381  0.3531 -0.0770 -0.3761
 4518SOL    HW217838   2.371   5.526   1.417 -0.2278  0.2635 -0.0571
 4518SOL    HW317839   2.411   5.593   1.288  0.1944 -0.4883 -0.3227
 4518SOL    MW417840   2.398   5.596   1.374  0.2555 -0.0863 -0.3270
 4519SOL     OW17841   6.423   3.045   6.199 -0.2938  0.2062  0.0224
 4519SOL    HW217842   6.374   3.127   6.192  0.6581  0.7486 -0.5741
 4519SOL    HW317843   6.477   3.057   6.277  2.8398  1.8911 -2.1940
 4519SOL    MW417844   6.424   3.057   6.208  0.2452  0.5001 -0.3487
 4520SOL     OW17845   1.849   2.453   0.949  0.5018  0.4619  0.2476
 4520SOL    HW217846   1.754   2.460   0.958  0.5090 -0.3977  1.1244
 4520SOL    HW317847   1.879   2.418   1.033  1.4743 -0.2998 -0.3955
 4520SOL    MW417848   1.840   2.449   0.961  0.6310  0.2480  0.2784
 4521SOL     OW17849   5.075   2.168   5.882  1.0609  0.2897  0.0150
 4521SOL    HW217850   5.125   2.088   5.894  0.2883 -0.3024 -0.5596
 4521SOL    HW317851   5.003   2.143   5.823  0.4007  1.2278  0.3891
 4521SOL    MW417852   5.072   2.154   5.876  0.8719  0.3353 -0.0114
 4522SOL     OW17853   5.957   3.885   0.819  0.0714 -0.1701 -0.3669
 4522SOL    HW217854   5.978   3.807   0.767 -2.4594  0.9065 -3.2926
 4522SOL    HW317855   5.943   3.954   0.754 -1.2730  1.8384  1.9034
 4522SOL    MW417856   5.958   3.884   0.803 -0.4399  0.2369 -0.4534
 4523SOL     OW17857   0.514   6.233   0.978 -0.3798 -0.5647  0.6325
 4523SOL    HW217858   0.575   6.163   0.955  0.1528  0.3589 -0.9342
 4523SOL    HW317859   0.570   6.305   1.006 -0.8999 -0.5979  1.8055
 4523SOL    MW417860   0.529   6.233   0.979 -0.3781 -0.4472  0.5806
 4524SOL     OW17861   0.098   1.769   0.735  0.3242 -0.5371  0.1136
 4524SOL    HW217862   0.119   1.710   0.808  0.0838 -2.1067 -1.0203
 4524SOL    HW317863   0.183   1.792   0.698  0.5391  1.3320  1.6217
 4524SOL    MW417864   0.112   1.764   0.740  0.3208 -0.4976  0.1630
 4525SOL     OW17865   1.784   1.587   5.910 -0.5559  0.2603  0.0657
 4525SOL    HW217866   1.709   1.548   5.955 -0.2581 -0.3241  0.0594
 4525SOL    HW317867   1.770   1.682   5.917 -0.8647  0.1627  0.7941
 4525SOL    MW417868   1.772   1.594   5.917 -0.5573  0.1703  0.1610
 4526SOL     OW17869   5.971   4.035   4.982 -0.1520  0.1809 -0.3985
 4526SOL    HW217870   5.938   4.113   4.936 -0.6911 -0.5930 -1.3699
 4526SOL    HW317871   5.915   4.028   5.060 -1.4715 -0.3591 -1.3512
 4526SOL    MW417872   5.959   4.045   4.986 -0.3972  0.0075 -0.6524
 4527SOL     OW17873   3.435   0.352   3.402 -0.0877 -0.2357  0.1301
 4527SOL    HW217874   3.350   0.307   3.408 -0.1562  0.0392  1.4817
 4527SOL    HW317875   3.413   0.445   3.403  0.2378 -0.1629  0.6913
 4527SOL    MW417876   3.421   0.358   3.403 -0.0538 -0.1898  0.3825
 4528SOL     OW17877   0.973   3.577   1.879  0.0758  0.2241  0.0527
 4528SOL    HW217878   0.910   3.649   1.882 -0.7033 -0.4072 -0.6518
 4528SOL    HW317879   0.945   3.517   1.948  0.1083  0.1095 -0.0332
 4528SOL    MW417880   0.961   3.578   1.888 -0.0227  0.1257 -0.0516
 4529SOL     OW17881   0.874   0.515   0.732 -0.1005 -0.3139  0.0236
 4529SOL    HW217882   0.792   0.473   0.705 -1.4209  1.1041  1.6155
 4529SOL    HW317883   0.912   0.454   0.795  0.1874 -1.0438 -0.8256
 4529SOL    MW417884   0.868   0.501   0.736 -0.2368 -0.2231  0.1216
 4530SOL     OW17885   4.922   6.060   6.405  0.1509  0.4883 -0.1473
 4530SOL    HW217886   4.904   6.073   6.498 -1.2299 -0.5618 -0.2361
 4530SOL    HW317887   4.856   5.997   6.377  0.0815  1.3306 -2.0095
 4530SOL    MW417888   4.911   6.053   6.414 -0.0404  0.4609 -0.4047
 4531SOL     OW17889   1.402   4.011   2.887  0.0010  0.0849 -0.1516
 4531SOL    HW217890   1.356   3.937   2.848  0.5498 -0.2344 -0.1940
 4531SOL    HW317891   1.376   4.010   2.979  0.9866 -0.9291  0.1336
 4531SOL    MW417892   1.393   4.001   2.894  0.2034 -0.0910 -0.1196
 4532SOL     OW17893   0.561   3.889   4.118  0.9014 -0.6163  0.4313
 4532SOL    HW217894   0.656   3.879   4.119  1.2542  1.7755  2.6860
 4532SOL    HW317895   0.536   3.889   4.211 -1.2593 -0.8282 -0.0913
 4532SOL    MW417896   0.570   3.888   4.130  0.6629 -0.3287  0.6598
 4533SOL     OW17897   2.898   3.178   0.735 -0.9547 -0.4283 -0.1166
 4533SOL    HW217898   2.860   3.224   0.810 -1.2027  0.0374 -0.5250
 4533SOL    HW317899   2.857   3.092   0.738 -0.1432 -0.8075  0.9196
 4533SOL    MW417900   2.887   3.173   0.745 -0.8804 -0.4169 -0.0338
 4534SOL     OW17901   2.806   4.958   2.263  0.4994 -0.2530 -0.0114
 4534SOL    HW217902   2.820   5.040   2.311 -0.4616 -0.4685  0.6679
 4534SOL    HW317903   2.779   4.895   2.330 -0.5898 -0.6387 -0.7867
 4534SOL    MW417904   2.804   4.961   2.279  0.2289 -0.3323 -0.0240
 4535SOL     OW17905   0.763   5.549   4.679 -0.5257  0.1913 -0.5529
 4535SOL    HW217906   0.694   5.579   4.738 -0.1855  0.6334 -0.3761
 4535SOL    HW317907   0.845   5.578   4.721 -0.2944  0.8025 -1.4094
 4535SOL    MW417908   0.765   5.557   4.693 -0.4503  0.3303 -0.6426
 4536SOL     OW17909   4.106   6.242   0.905 -0.2124 -0.3035 -0.3849
 4536SOL    HW217910   4.173   6.310   0.909 -0.2009 -0.2391 -1.4798
 4536SOL    HW317911   4.117   6.201   0.820 -1.5483 -0.3032 -0.5904
 4536SOL    MW417912   4.116   6.246   0.895 -0.3871 -0.2950 -0.5565
 4537SOL     OW17913   4.373   1.253   4.012  0.1311 -0.2426  0.1644
 4537SOL    HW217914   4.292   1.205   3.997 -0.8241  0.6920  1.9468
 4537SOL    HW317915   4.350   1.344   3.993  0.6974  0.0591  0.8919
 4537SOL    MW417916   4.359   1.259   4.007  0.0798 -0.0795  0.4956
 4538SOL     OW17917   0.284   2.288   1.977 -0.6923 -0.4621  0.6829
 4538SOL    HW217918   0.273   2.264   2.070 -1.8877 -0.6897  0.5033
 4538SOL    HW317919   0.246   2.214   1.929  1.8410 -1.3625 -0.0718
 4538SOL    MW417920   0.278   2.275   1.983 -0.5158 -0.6109  0.5596
 4539SOL     OW17921   1.233   1.014   4.569 -0.3132 -0.2518 -0.0339
 4539SOL    HW217922   1.161   0.951   4.563 -0.4659 -0.0923  0.1033
 4539SOL    HW317923   1.192   1.093   4.606 -0.2982  0.2053 -0.9668
 4539SOL    MW417924   1.218   1.016   4.573 -0.3314 -0.1705 -0.1389
 4540SOL     OW17925   4.914   1.926   1.011  0.3581 -0.4006  0.0124
 4540SOL    HW217926   4.980   1.994   1.003 -0.5934  0.6221  0.5832
 4540SOL    HW317927   4.834   1.972   1.037 -0.6355 -1.5663 -0.7962
 4540SOL    MW417928   4.912   1.941   1.013  0.1015 -0.4195 -0.0190
 4541SOL     OW17929   6.088   3.744   1.685 -0.4932  0.1926  0.0650
 4541SOL    HW217930   6.135   3.661   1.685  1.0915  1.0496  0.5656
 4541SOL    HW317931   6.007   3.726   1.638 -0.5874 -1.8483  0.8962
 4541SOL    MW417932   6.083   3.731   1.679 -0.2966  0.0364  0.2407
 4542SOL     OW17933   6.131   4.258   1.749  0.2927 -0.1184  0.1132
 4542SOL    HW217934   6.149   4.321   1.818 -1.0256  0.6053 -0.1629
 4542SOL    HW317935   6.158   4.174   1.786  2.9513  0.6518  0.1425
 4542SOL    MW417936   6.137   4.255   1.763  0.4696  0.0787  0.0807
 4543SOL     OW17937   2.785   3.161   5.661 -0.4144 -0.9094  0.4745
 4543SOL    HW217938   2.784   3.206   5.746 -0.9894 -4.3675  2.5056
 4543SOL    HW317939   2.693   3.141   5.644 -0.3759  0.2790 -1.3715
 4543SOL    MW417940   2.773   3.164   5.670 -0.4851 -1.2088  0.4989
 4544SOL     OW17941   5.641   2.967   2.133  0.2356  0.3975 -0.0101
 4544SOL    HW217942   5.706   2.927   2.075 -0.5343  0.7504 -1.1209
 4544SOL    HW317943   5.687   3.042   2.172  0.3710  0.9160 -1.1293
 4544SOL    MW417944   5.656   2.971   2.131  0.1519  0.5125 -0.3043
 4545SOL     OW17945   5.112   6.046   2.512  0.1333 -0.4613  0.5600
 4545SOL    HW217946   5.095   6.073   2.422  1.1411 -2.0287 -0.1566
 4545SOL    HW317947   5.200   6.080   2.531  0.8818 -2.0063  0.0941
 4545SOL    MW417948   5.122   6.054   2.503  0.3651 -0.8720  0.4040
 4546SOL     OW17949   4.342   0.401   4.200  0.0031  0.1647 -0.1771
 4546SOL    HW217950   4.361   0.493   4.179 -0.4745  0.7655  1.8603
 4546SOL    HW317951   4.278   0.374   4.134 -0.0507  1.3718 -0.6473
 4546SOL    MW417952   4.336   0.410   4.189 -0.0670  0.4032  0.0297
 4547SOL     OW17953   4.352   5.063   6.309 -0.4768  0.0480 -1.1038
 4547SOL    HW217954   4.435   5.096   6.275  0.1968  0.7673  1.0588
 4547SOL    HW317955   4.286   5.119   6.269  0.4214  2.1108  0.1223
 4547SOL    MW417956   4.354   5.075   6.299 -0.2694  0.4151 -0.6567
 4548SOL     OW17957   3.634   5.206   2.649  0.1507 -0.4834  0.2182
 4548SOL    HW217958   3.704   5.153   2.689  1.1841  0.3018 -0.4928
 4548SOL    HW317959   3.584   5.143   2.597  0.2491 -1.0818  0.8312
 4548SOL    MW417960   3.637   5.191   2.647  0.3000 -0.4588  0.2053
 4549SOL     OW17961   3.436   0.605   4.926 -0.0334  0.2886 -0.0428
 4549SOL    HW217962   3.459   0.649   5.008  0.8712 -1.1503  0.5201
 4549SOL    HW317963   3.497   0.641   4.862 -0.8469  1.5376 -0.1387
 4549SOL    MW417964   3.447   0.616   4.929 -0.0214  0.2635  0.0188
 4550SOL     OW17965   3.875   5.380   0.187 -0.0968 -0.7046  0.1356
 4550SOL    HW217966   3.894   5.454   0.128 -1.9471  1.6156  2.2484
 4550SOL    HW317967   3.944   5.383   0.253  0.1199 -1.2434 -0.0562
 4550SOL    MW417968   3.886   5.390   0.188 -0.3123 -0.4696  0.3890
 4551SOL     OW17969   0.466   4.454   3.983 -0.6119  0.5538 -0.0287
 4551SOL    HW217970   0.549   4.475   3.939  0.2463 -0.7334  0.8780
 4551SOL    HW317971   0.417   4.536   3.982  0.3217  1.1398 -1.3269
 4551SOL    MW417972   0.471   4.468   3.977 -0.3755  0.4613 -0.0803
 4552SOL     OW17973   5.260   1.611   0.529 -0.1570  0.2490  0.3210
 4552SOL    HW217974   5.302   1.561   0.600  1.2253  1.4380  0.3853
 4552SOL    HW317975   5.332   1.630   0.468 -1.0387  0.5498 -0.6526
 4552SOL    MW417976   5.275   1.607   0.530 -0.0909  0.4456  0.2010
 4553SOL     OW17977   0.447   0.475   5.840 -0.1223  0.3292 -0.3747
 4553SOL    HW217978   0.444   0.570   5.847  0.4069  0.3225 -0.0042
 4553SOL    HW317979   0.360   0.450   5.807 -0.6801  0.8500  0.6615
 4553SOL    MW417980   0.435   0.484   5.837 -0.1261  0.3970 -0.1891
 4554SOL     OW17981   0.624   4.964   0.912  0.3301  0.4633  0.3006
 4554SOL    HW217982   0.661   4.903   0.848 -1.0189  0.6949 -0.7356
 4554SOL    HW317983   0.660   4.935   0.996  0.5309 -1.1296 -0.2931
 4554SOL    MW417984   0.634   4.952   0.914  0.1786  0.2837  0.0856
 4555SOL     OW17985   2.301   5.101   2.119  0.1903  0.1349 -0.4498
 4555SOL    HW217986   2.206   5.105   2.135  0.6919  0.3245  3.4635
 4555SOL    HW317987   2.323   5.008   2.124  0.3444  0.1799 -0.2765
 4555SOL    MW417988   2.291   5.089   2.122  0.2768  0.1658  0.0894
 4556SOL     OW17989   5.887   0.932   2.755  0.5567  0.2070 -0.1419
 4556SOL    HW217990   5.917   0.869   2.820 -0.2519 -0.9122 -0.8218
 4556SOL    HW317991   5.874   0.881   2.676 -0.1625  1.2206 -0.7002
 4556SOL    MW417992   5.889   0.917   2.753  0.3551  0.1930 -0.3053
 4557SOL     OW17993   4.004   6.155   1.494  0.2751 -0.1438 -0.0217
 4557SOL    HW217994   3.966   6.220   1.554  0.7993 -1.4565  1.8120
 4557SOL    HW317995   4.094   6.146   1.523  0.9293  0.1191 -1.8904
 4557SOL    MW417996   4.011   6.163   1.506  0.4306 -0.2823 -0.0263
 4558SOL     OW17997   5.603   0.821   6.362 -0.6703  0.2698  0.0642
 4558SOL    HW217998   5.515   0.856   6.373 -0.4259  0.4473  1.6721
 4558SOL    HW317999   5.632   0.800   6.451  0.3742 -1.1189 -0.5598
 4558SOL    MW418000   5.595   0.823   6.375 -0.5002  0.1100  0.1940
 4559SOL     OW18001   5.125   4.440   3.564 -0.4909 -0.1502  0.0587
 4559SOL    HW218002   5.072   4.441   3.484  1.8089 -0.1919 -1.5748
 4559SOL    HW318003   5.201   4.387   3.541  0.2235 -0.1904  2.3156
 4559SOL    MW418004   5.128   4.433   3.550 -0.0932 -0.1610  0.1409
 4560SOL     OW18005   5.949   4.633   1.736 -0.3224 -0.2274  0.1762
 4560SOL    HW218006   6.042   4.650   1.744  0.0762 -2.5946  1.6381
 4560SOL    HW318007   5.932   4.638   1.642  1.6746 -1.4263 -0.3078
 4560SOL    MW418008   5.959   4.636   1.725 -0.0064 -0.6979  0.3052
 4561SOL     OW18009   5.270   4.325   1.321  0.0181  0.2747  0.5693
 4561SOL    HW218010   5.218   4.273   1.382 -1.1142  0.7126 -0.0067
 4561SOL    HW318011   5.284   4.408   1.366  0.5849  0.0141  0.8890
 4561SOL    MW418012   5.265   4.329   1.335 -0.0565  0.2981  0.5355
 4562SOL     OW18013   0.232   2.597   1.302 -0.0364  0.2231 -0.2151
 4562SOL    HW218014   0.159   2.646   1.265  0.4104  0.0576 -1.3517
 4562SOL    HW318015   0.200   2.507   1.309 -0.2830  0.3473  0.2558
 4562SOL    MW418016   0.218   2.592   1.298 -0.0100  0.2176 -0.3029
 4563SOL     OW18017   0.144   0.962   5.791 -0.4011 -0.9235  0.5115
 4563SOL    HW218018   0.075   0.942   5.728 -0.2095 -1.5754  0.4996
 4563SOL    HW318019   0.106   0.942   5.876 -0.6363 -0.1080  0.6103
 4563SOL    MW418020   0.130   0.957   5.794 -0.4068 -0.9019  0.5230
 4564SOL     OW18021   5.708   0.911   0.999 -0.5044 -0.8857 -0.4256
 4564SOL    HW218022   5.778   0.859   0.959 -1.5803 -2.3976 -0.4692
 4564SOL    HW318023   5.717   0.894   1.093 -0.6008 -0.8184 -0.4045
 4564SOL    MW418024   5.719   0.902   1.006 -0.6590 -1.0763 -0.4286
 4565SOL     OW18025   5.048   3.774   1.134  0.3857  0.0267  0.6299
 4565SOL    HW218026   5.106   3.741   1.202 -1.8927  0.1023  2.7279
 4565SOL    HW318027   5.055   3.709   1.064  2.0535 -0.5719  1.2932
 4565SOL    MW418028   5.057   3.761   1.133  0.3051 -0.0423  0.9942
 4566SOL     OW18029   6.123   0.954   2.534  0.1331 -0.5734  0.6196
 4566SOL    HW218030   6.208   0.925   2.500  1.0203  1.2418  1.2022
 4566SOL    HW318031   6.063   0.883   2.511  2.1242 -2.7598  1.7552
 4566SOL    MW418032   6.127   0.941   2.527  0.5128 -0.6224  0.8463
 4567SOL     OW18033   5.148   5.296   2.706  0.8094 -0.0875  0.3918
 4567SOL    HW218034   5.165   5.231   2.638  1.1569  0.8646 -0.4586
 4567SOL    HW318035   5.233   5.335   2.724  0.1692  2.5477 -1.6566
 4567SOL    MW418036   5.161   5.293   2.700  0.7708  0.3858  0.0094
 4568SOL     OW18037   3.198   6.019   0.500  0.3062 -0.2978 -0.2692
 4568SOL    HW218038   3.146   6.099   0.488  0.4443 -0.3213 -1.1060
 4568SOL    HW318039   3.255   6.038   0.574  2.0217  1.3084 -1.8841
 4568SOL    MW418040   3.199   6.032   0.508  0.5507 -0.0890 -0.5927
 4569SOL     OW18041   4.135   0.666   2.231  0.1366 -0.4533  0.4020
 4569SOL    HW218042   4.135   0.745   2.286 -0.6643 -0.9611  1.1588
 4569SOL    HW318043   4.055   0.619   2.256  0.0306 -0.9657 -0.8329
 4569SOL    MW418044   4.125   0.670   2.242  0.0170 -0.5879  0.3389
 4570SOL     OW18045   3.912   3.014   2.198  0.6594 -0.2786  0.6771
 4570SOL    HW218046   3.908   3.090   2.257  0.9198  0.0295  0.3075
 4570SOL    HW318047   3.827   3.012   2.154  0.6128 -0.2633  0.7666
 4570SOL    MW418048   3.901   3.024   2.200  0.6876 -0.2359  0.6401
 4571SOL     OW18049   4.510   2.834   3.536  0.8186  0.0288 -0.0365
 4571SOL    HW218050   4.430   2.883   3.515  2.5322  2.5679 -1.0104
 4571SOL    HW318051   4.505   2.821   3.631 -0.5080  0.5657 -0.0108
 4571SOL    MW418052   4.498   2.838   3.546  0.8696  0.4346 -0.1616
 4572SOL     OW18053   4.166   3.308   5.078 -0.0492 -0.1019 -0.0279
 4572SOL    HW218054   4.155   3.214   5.062 -0.5724 -0.0732  0.1299
 4572SOL    HW318055   4.252   3.316   5.117 -0.2887 -0.6020  0.6189
 4572SOL    MW418056   4.176   3.297   5.081 -0.1498 -0.1641  0.0783
 4573SOL     OW18057   3.140   0.951   5.804 -0.5260  0.4863  0.3975
 4573SOL    HW218058   3.186   0.878   5.762 -1.8246 -0.9982  1.4772
 4573SOL    HW318059   3.163   0.943   5.897 -0.8663  1.3282  0.5584
 4573SOL    MW418060   3.149   0.940   5.811 -0.7422  0.4015  0.5612
 4574SOL     OW18061   3.239   5.155   3.542  0.4449 -0.5014  0.1736
 4574SOL    HW218062   3.157   5.107   3.556  0.1554 -0.0572  0.0334
 4574SOL    HW318063   3.245   5.214   3.617  1.4746 -1.6666  1.0510
 4574SOL    MW418064   3.229   5.156   3.554  0.5425 -0.5965  0.2709
 4575SOL     OW18065   2.002   4.670   4.335  0.2564  0.1461  0.1178
 4575SOL    HW218066   1.937   4.652   4.267 -1.1795  0.6705  1.2909
 4575SOL    HW318067   2.029   4.584   4.367 -0.5742 -0.0654  0.2600
 4575SOL    MW418068   1.997   4.656   4.330 -0.0426  0.1874  0.2914
 4576SOL     OW18069   2.566   1.032   2.685 -0.6622  0.7335 -0.0369
 4576SOL    HW218070   2.627   1.098   2.652  0.5149 -0.5348 -0.4902
 4576SOL    HW318071   2.514   1.008   2.609  1.0123 -1.0651 -0.7044
 4576SOL    MW418072   2.567   1.038   2.671 -0.2860  0.3288 -0.1848
 4577SOL     OW18073   5.324   4.411   4.526 -0.4873  0.2506 -0.7741
 4577SOL    HW218074   5.345   4.363   4.606 -0.7399  0.1191 -0.7863
 4577SOL    HW318075   5.400   4.399   4.469 -1.0315 -1.1279 -1.2494
 4577SOL    MW418076   5.337   4.403   4.529 -0.5924  0.0514 -0.8384
 4578SOL     OW18077   3.853   4.837   1.778  0.3384  0.2957  0.2780
 4578SOL    HW218078   3.826   4.806   1.865  0.3111  0.7285  0.4236
 4578SOL    HW318079   3.948   4.840   1.782  0.4267 -1.0376 -0.1710
 4578SOL    MW418080   3.862   4.833   1.790  0.3464  0.1769  0.2380
 4579SOL     OW18081   3.443   5.544   4.154 -0.3620  0.7322 -0.2128
 4579SOL    HW218082   3.500   5.538   4.078 -0.2560 -0.0581 -0.0821
 4579SOL    HW318083   3.475   5.620   4.203  0.0867  0.7533 -0.5368
 4579SOL    MW418084   3.455   5.553   4.151 -0.2888  0.6307 -0.2383
 4580SOL     OW18085   4.130   6.132   1.167 -0.0811  0.4682  0.1835
 4580SOL    HW218086   4.117   6.153   1.075  0.2866  0.1690  0.0581
 4580SOL    HW318087   4.049   6.159   1.210 -0.2699  0.5713 -0.2334
 4580SOL    MW418088   4.118   6.138   1.160 -0.0575  0.4423  0.1119
 4581SOL     OW18089   5.923   5.040   0.752 -0.1671  0.2463  0.1587
 4581SOL    HW218090   5.984   4.968   0.772 -0.8273 -0.2657  0.3925
 4581SOL    HW318091   5.849   4.997   0.708 -0.4071  0.8431 -0.0344
 4581SOL    MW418092   5.921   5.025   0.749 -0.2859  0.2575  0.1641
 4582SOL     OW18093   5.631   2.434   2.214 -0.3345 -0.2849  0.0404
 4582SOL    HW218094   5.708   2.456   2.267 -0.6960  1.2569 -0.0386
 4582SOL    HW318095   5.632   2.498   2.143 -1.3652 -0.6427 -0.3076
 4582SOL    MW418096   5.642   2.445   2.212 -0.5182 -0.1287 -0.0160
 4583SOL     OW18097   1.520   1.323   0.373 -0.5698  0.2944  0.3516
 4583SOL    HW218098   1.462   1.247   0.367 -1.4868  1.0212 -0.3915
 4583SOL    HW318099   1.484   1.376   0.444 -1.0972  0.9557 -0.3894
 4583SOL    MW418100   1.508   1.320   0.382 -0.7604  0.4775  0.1558
 4584SOL     OW18101   3.170   1.357   1.749 -0.0210  0.3864 -0.0394
 4584SOL    HW218102   3.151   1.311   1.667  1.3266  0.9246 -0.6855
 4584SOL    HW318103   3.208   1.291   1.806  0.8832  0.4242 -0.5743
 4584SOL    MW418104   3.172   1.342   1.745  0.2761  0.4624 -0.1952
 4585SOL     OW18105   2.164   5.462   3.101  0.5474  0.3545 -0.0035
 4585SOL    HW218106   2.120   5.503   3.026  0.0590  0.6192  0.4280
 4585SOL    HW318107   2.241   5.420   3.062  1.1524  1.8028 -0.4396
 4585SOL    MW418108   2.168   5.462   3.086  0.5628  0.5805 -0.0041
 4586SOL     OW18109   1.602   2.101   4.589 -0.3267  0.0534 -0.1774
 4586SOL    HW218110   1.584   2.191   4.562 -0.2431  0.1855  0.2054
 4586SOL    HW318111   1.573   2.097   4.680  1.6213  0.2826  0.4852
 4586SOL    MW418112   1.596   2.112   4.597 -0.0587  0.1011 -0.0395
 4587SOL     OW18113   4.008   1.473   4.980 -0.0954  0.4471 -0.0940
 4587SOL    HW218114   3.973   1.420   4.908 -0.5462  1.5497 -0.7063
 4587SOL    HW318115   4.011   1.413   5.055 -1.4573 -0.2076 -0.5342
 4587SOL    MW418116   4.003   1.458   4.981 -0.3346  0.5062 -0.2329
 4588SOL     OW18117   3.426   2.172   6.354 -0.1633  0.2337 -0.1194
 4588SOL    HW218118   3.380   2.255   6.350 -0.0306  0.2618 -1.4660
 4588SOL    HW318119   3.366   2.113   6.400 -2.1161 -0.0568 -2.7819
 4588SOL    MW418120   3.412   2.175   6.360 -0.4034  0.1991 -0.6484
 4589SOL     OW18121   4.210   1.247   3.083 -0.0953  0.5246  0.3981
 4589SOL    HW218122   4.265   1.197   3.023  1.6364  0.1056  2.2175
 4589SOL    HW318123   4.149   1.182   3.119 -0.3423  0.5245 -0.0172
 4589SOL    MW418124   4.209   1.232   3.080  0.1006  0.4693  0.5834
 4590SOL     OW18125   6.284   0.542   4.254 -0.2167  0.4105 -0.1978
 4590SOL    HW218126   6.331   0.617   4.218 -0.9170  2.1245  2.2221
 4590SOL    HW318127   6.196   0.548   4.216  0.0164  0.1999 -0.7813
 4590SOL    MW418128   6.278   0.553   4.245 -0.2783  0.6089  0.0445
 4591SOL     OW18129   2.724   2.259   3.882  0.6126 -0.3302 -0.6984
 4591SOL    HW218130   2.791   2.253   3.950 -1.0668 -2.1865  0.9115
 4591SOL    HW318131   2.650   2.302   3.925  0.2357  0.4525 -2.0419
 4591SOL    MW418132   2.723   2.264   3.897  0.3413 -0.4719 -0.6633
 4592SOL     OW18133   4.298   1.404   1.898 -0.3594  0.8837  0.1200
 4592SOL    HW218134   4.323   1.409   1.990  1.3039  0.9855 -0.3069
 4592SOL    HW318135   4.225   1.466   1.889  0.4223  1.9752  1.0747
 4592SOL    MW418136   4.291   1.413   1.909 -0.0368  1.0412  0.1897
 4593SOL     OW18137   3.491   2.114   4.662 -0.1532  0.4507 -0.2541
 4593SOL    HW218138   3.534   2.032   4.636  0.2548  0.6431 -0.1871
 4593SOL    HW318139   3.403   2.107   4.625  0.0536  0.2154 -0.7099
 4593SOL    MW418140   3.485   2.102   4.654 -0.0721  0.4450 -0.3054
 4594SOL     OW18141   0.552   0.816   5.532  0.5039  0.0626 -0.1758
 4594SOL    HW218142   0.504   0.775   5.604  0.9690 -0.3242 -0.0753
 4594SOL    HW318143   0.526   0.767   5.454  0.7486 -0.1648 -0.1173
 4594SOL    MW418144   0.542   0.804   5.531  0.5976 -0.0185 -0.1548
 4595SOL     OW18145   1.313   0.481   2.070  0.3442 -0.2648  0.2264
 4595SOL    HW218146   1.311   0.490   2.165  1.7061 -0.3087  0.2885
 4595SOL    HW318147   1.308   0.387   2.055  0.2797 -0.2673  0.2620
 4595SOL    MW418148   1.312   0.470   2.081  0.5154 -0.2709  0.2393
 4596SOL     OW18149   3.423   2.978   1.513 -0.0171 -0.0588 -0.1927
 4596SOL    HW218150   3.411   2.965   1.607 -0.5936  0.0883 -0.2457
 4596SOL    HW318151   3.517   2.995   1.504 -0.3644  3.0099  0.7524
 4596SOL    MW418152   3.434   2.979   1.525 -0.1390  0.3655 -0.0750
 4597SOL     OW18153   3.163   5.284   1.540  0.6019  0.1364 -0.4016
 4597SOL    HW218154   3.078   5.301   1.581  1.2066 -1.5276  1.7575
 4597SOL    HW318155   3.211   5.366   1.550 -0.1728  0.5693 -0.1319
 4597SOL    MW418156   3.158   5.297   1.547  0.5795 -0.0261 -0.0812
 4598SOL     OW18157   0.325   5.278   0.640 -0.3784 -0.2295  0.0898
 4598SOL    HW218158   0.305   5.331   0.563  3.9377  0.8728 -0.5603
 4598SOL    HW318159   0.338   5.190   0.606  0.7748  0.1049 -0.3990
 4598SOL    MW418160   0.324   5.273   0.625  0.3432 -0.0399 -0.0605
 4599SOL     OW18161   2.583   5.824   1.452 -0.2723 -0.0812  0.4016
 4599SOL    HW218162   2.594   5.891   1.384  0.5633  1.2388  1.7556
 4599SOL    HW318163   2.502   5.778   1.428 -0.0637  0.3969 -1.3972
 4599SOL    MW418164   2.574   5.827   1.440 -0.1345  0.1560  0.3430
 4600SOL     OW18165   3.334   3.206   2.768  0.0489 -0.5352 -0.1257
 4600SOL    HW218166   3.316   3.277   2.829 -2.9871 -1.0550 -0.2905
 4600SOL    HW318167   3.337   3.247   2.682 -0.5657 -0.4504 -0.1062
 4600SOL    MW418168   3.332   3.220   2.764 -0.4327 -0.5926 -0.1449
 4601SOL     OW18169   3.765   0.439   6.246  0.0593 -0.0109  0.0387
 4601SOL    HW218170   3.709   0.483   6.182  0.4394 -1.7145 -1.5525
 4601SOL    HW318171   3.838   0.499   6.261 -0.5377  0.8269 -0.3629
 4601SOL    MW418172   3.767   0.453   6.240  0.0307 -0.1252 -0.2243
 4602SOL     OW18173   1.791   3.432   4.336 -0.1216 -0.3525  0.2493
 4602SOL    HW218174   1.723   3.460   4.275 -1.3013 -0.2122  1.5586
 4602SOL    HW318175   1.848   3.374   4.285 -3.7555 -4.2638  0.0783
 4602SOL    MW418176   1.790   3.428   4.321 -0.7567 -0.8501  0.3995
 4603SOL     OW18177   5.938   6.366   0.408 -0.2801 -0.2326 -0.1701
 4603SOL    HW218178   5.901   6.454   0.422  0.5020  0.3574 -1.5703
 4603SOL    HW318179   5.911   6.316   0.485 -2.1829  0.7552 -0.1237
 4603SOL    MW418180   5.930   6.371   0.420 -0.4279 -0.0244 -0.3487
 4604SOL     OW18181   6.222   1.918   1.625  0.2777  0.1676 -0.5547
 4604SOL    HW218182   6.252   1.854   1.560  1.4046 -0.4326  0.5155
 4604SOL    HW318183   6.155   1.872   1.675  0.5483  0.0826 -0.2698
 4604SOL    MW418184   6.217   1.904   1.623  0.4621  0.0772 -0.3759
 4605SOL     OW18185   3.936   4.929   5.742 -0.1624 -1.1244 -0.3495
 4605SOL    HW218186   3.950   4.943   5.649 -0.1454 -1.6200 -0.4220
 4605SOL    HW318187   3.979   4.846   5.761  0.4879 -0.6594  0.2550
 4605SOL    MW418188   3.943   4.920   5.733 -0.0744 -1.1284 -0.2793
 4606SOL     OW18189   0.989   2.379   2.909  0.1559 -0.0601  0.0448
 4606SOL    HW218190   0.960   2.444   2.846  1.1599 -1.0151 -1.4590
 4606SOL    HW318191   0.981   2.423   2.994 -1.9176  1.0134 -0.6230
 4606SOL    MW418192   0.984   2.393   2.912  0.0148 -0.0445 -0.2417
 4607SOL     OW18193   5.980   5.703   4.130 -0.0519 -0.1151 -0.0994
 4607SOL    HW218194   6.022   5.698   4.216 -2.8573 -1.5728  1.3148
 4607SOL    HW318195   5.926   5.782   4.135  0.0127 -0.0342 -0.6629
 4607SOL    MW418196   5.979   5.713   4.142 -0.4135 -0.2967  0.0129
 4608SOL     OW18197   1.989   5.038   2.562 -0.3264 -0.4072 -0.4458
 4608SOL    HW218198   1.964   4.994   2.643 -1.8989  0.6162 -0.3293
 4608SOL    HW318199   2.081   5.062   2.576  0.2047 -2.5053 -0.0398
 4608SOL    MW418200   1.998   5.035   2.575 -0.4638 -0.5490 -0.3768
 4609SOL     OW18201   3.065   5.402   5.140 -0.1605 -0.0368  0.1663
 4609SOL    HW218202   3.125   5.356   5.082 -3.2371 -2.0526 -1.6815
 4609SOL    HW318203   3.081   5.495   5.123  1.5529 -0.5230 -1.1037
 4609SOL    MW418204   3.075   5.408   5.130 -0.3403 -0.3669 -0.2451
 4610SOL     OW18205   6.440   0.469   0.678  0.3148 -0.2210  0.1234
 4610SOL    HW218206   6.521   0.486   0.725  0.5233 -1.4299  0.2459
 4610SOL    HW318207   6.467   0.449   0.589  0.0180  0.8097 -0.2173
 4610SOL    MW418208   6.454   0.468   0.672  0.3031 -0.2445  0.0946
 4611SOL     OW18209   2.831   6.226   3.112  0.3658  0.1696  0.3013
 4611SOL    HW218210   2.793   6.298   3.163  0.7535  0.3477  0.3453
 4611SOL    HW318211   2.797   6.147   3.153  1.3477  0.2908  1.3900
 4611SOL    MW418212   2.822   6.225   3.124  0.5465  0.2091  0.4507
 4612SOL     OW18213   4.151   5.018   0.761 -0.4734  0.1974  0.4882
 4612SOL    HW218214   4.062   5.014   0.796 -0.0869 -0.8656  1.4099
 4612SOL    HW318215   4.160   4.939   0.708 -0.1821  0.4655  0.1325
 4612SOL    MW418216   4.141   5.007   0.759 -0.3840  0.0925  0.5629
 4613SOL     OW18217   2.724   3.227   6.185 -0.3725 -0.3683 -0.7028
 4613SOL    HW218218   2.755   3.312   6.217 -0.1171 -1.2282  1.5026
 4613SOL    HW318219   2.693   3.182   6.263 -2.4517 -1.5493 -2.1059
 4613SOL    MW418220   2.724   3.232   6.199 -0.6132 -0.6376 -0.5969
 4614SOL     OW18221   0.967   6.109   4.002 -0.9664 -0.8276  0.2151
 4614SOL    HW218222   1.032   6.050   4.040 -0.8946  0.2798  1.9339
 4614SOL    HW318223   0.884   6.062   4.009 -0.7321 -1.2018  0.4785
 4614SOL    MW418224   0.965   6.095   4.008 -0.9260 -0.7309  0.4766
 4615SOL     OW18225   0.526   4.343   5.582 -0.0579  0.1779  0.0538
 4615SOL    HW218226   0.510   4.386   5.498  2.3879 -1.6179 -1.4944
 4615SOL    HW318227   0.445   4.297   5.601 -0.9066  1.2124 -0.9571
 4615SOL    MW418228   0.514   4.342   5.573  0.1528  0.0775 -0.2838
 4616SOL     OW18229   1.330   6.185   2.212  0.8680 -0.5425  0.3845
 4616SOL    HW218230   1.277   6.110   2.240  0.4947 -0.2539  0.4478
 4616SOL    HW318231   1.267   6.248   2.179  1.1101  0.0573  1.0395
 4616SOL    MW418232   1.315   6.183   2.211  0.8507 -0.4253  0.4793
 4617SOL     OW18233   1.827   5.175   6.313 -0.2381 -0.0399 -0.2466
 4617SOL    HW218234   1.868   5.145   6.232  0.8954  1.0825 -0.1244
 4617SOL    HW318235   1.891   5.154   6.381  0.3244  1.9944 -0.0820
 4617SOL    MW418236   1.841   5.168   6.311 -0.0143  0.3766 -0.2088
 4618SOL     OW18237   4.039   3.760   5.263  0.1879 -0.1133  0.4278
 4618SOL    HW218238   4.015   3.813   5.339 -2.7286 -0.4189 -0.1513
 4618SOL    HW318239   4.038   3.669   5.295  1.9752 -0.0757  0.6741
 4618SOL    MW418240   4.036   3.755   5.277  0.0389 -0.1487  0.3839
 4619SOL     OW18241   0.748   4.882   1.787  0.6027 -0.0266  0.3111
 4619SOL    HW218242   0.699   4.890   1.705 -1.0026 -3.1874  0.8041
 4619SOL    HW318243   0.824   4.828   1.765 -0.0593 -1.2447  0.9520
 4619SOL    MW418244   0.752   4.876   1.774  0.3036 -0.6044  0.4607
 4620SOL     OW18245   6.348   5.475   0.731 -0.0968  0.3671 -0.3596
 4620SOL    HW218246   6.314   5.489   0.819 -1.2282 -0.4275 -0.6523
 4620SOL    HW318247   6.402   5.396   0.739  2.9542  2.3591  0.4049
 4620SOL    MW418248   6.351   5.467   0.744  0.1564  0.5251 -0.2974
 4621SOL     OW18249   5.297   1.774   2.945  0.0254 -0.1282 -0.2357
 4621SOL    HW218250   5.302   1.762   3.039 -2.8925 -0.1952  0.0208
 4621SOL    HW318251   5.291   1.685   2.909 -0.3067 -0.0664 -0.3392
 4621SOL    MW418252   5.297   1.760   2.952 -0.4034 -0.1289 -0.2155
 4622SOL     OW18253   4.424   5.898   3.225 -0.4449 -0.0653 -0.5906
 4622SOL    HW218254   4.362   5.971   3.233  0.5476  0.7361  0.0991
 4622SOL    HW318255   4.442   5.893   3.131 -0.0452  1.0259 -0.5970
 4622SOL    MW418256   4.418   5.907   3.213 -0.2612  0.1844 -0.5004
 4623SOL     OW18257   4.531   0.083   4.777  0.0060  0.1248  0.2765
 4623SOL    HW218258   4.538   0.150   4.709 -1.3881 -0.2047 -0.2159
 4623SOL    HW318259   4.591   0.014   4.750 -1.1913 -0.4110 -1.1312
 4623SOL    MW418260   4.540   0.083   4.764 -0.3359  0.0107  0.0258
 4624SOL     OW18261   5.741   5.711   1.066  0.1366 -0.1854 -0.4884
 4624SOL    HW218262   5.825   5.741   1.102 -0.7213  1.1507  0.4975
 4624SOL    HW318263   5.685   5.698   1.143 -1.2467  1.1934 -1.1928
 4624SOL    MW418264   5.745   5.713   1.081 -0.1591  0.1728 -0.4512
 4625SOL     OW18265   5.546   5.744   5.988  0.1145 -0.0875 -0.0002
 4625SOL    HW218266   5.481   5.783   5.929 -0.9344  0.4047  1.4197
 4625SOL    HW318267   5.546   5.802   6.064  1.1596 -0.9087  0.6428
 4625SOL    MW418268   5.537   5.757   5.990  0.1140 -0.1309  0.2720
 4626SOL     OW18269   0.378   5.591   2.423 -0.0030  0.6169  0.2593
 4626SOL    HW218270   0.426   5.510   2.436  0.7544  1.0538  0.2984
 4626SOL    HW318271   0.422   5.633   2.348 -1.9564 -0.1529 -1.4154
 4626SOL    MW418272   0.390   5.586   2.414 -0.1608  0.5730  0.0435
 4627SOL     OW18273   4.753   5.330   2.308 -0.0219  0.8222  0.0804
 4627SOL    HW218274   4.689   5.335   2.379  0.2161  0.1593  0.3513
 4627SOL    HW318275   4.809   5.256   2.332 -0.2068  0.3126 -1.0140
 4627SOL    MW418276   4.752   5.321   2.321 -0.0149  0.6675 -0.0283
 4628SOL     OW18277   5.312   1.131   5.068 -0.0370  0.3587 -0.5058
 4628SOL    HW218278   5.262   1.076   5.129  0.2136  1.0146  0.3063
 4628SOL    HW318279   5.341   1.070   5.000  0.0891 -0.4847  0.2766
 4628SOL    MW418280   5.309   1.116   5.067  0.0127  0.3339 -0.2954
 4629SOL     OW18281   5.305   5.048   5.731 -0.0288  0.0587  0.1068
 4629SOL    HW218282   5.224   4.997   5.739 -0.8516  1.5485  2.2523
 4629SOL    HW318283   5.287   5.112   5.663 -1.8994  2.3263  2.5502
 4629SOL    MW418284   5.292   5.050   5.723 -0.3841  0.5545  0.7122
 4630SOL     OW18285   1.746   6.303   0.778  0.1814  0.5021  0.4385
 4630SOL    HW218286   1.726   6.219   0.819  0.2542  0.3202  0.1000
 4630SOL    HW318287   1.842   6.305   0.773  0.1783  0.5885  0.4147
 4630SOL    MW418288   1.756   6.292   0.783  0.1906  0.4895  0.3907
 4631SOL     OW18289   5.991   0.437   1.742  0.4449 -0.1482  0.2672
 4631SOL    HW218290   6.003   0.414   1.650  1.4430  0.2092  0.2940
 4631SOL    HW318291   5.915   0.387   1.770  0.1437 -0.2745 -0.7476
 4631SOL    MW418292   5.983   0.427   1.733  0.5369 -0.1178  0.1369
 4632SOL     OW18293   2.908   4.109   5.729 -0.3670 -0.0193  0.5133
 4632SOL    HW218294   2.814   4.115   5.711 -0.6173 -0.6369  1.5286
 4632SOL    HW318295   2.950   4.136   5.647 -1.4216  0.8557  0.2382
 4632SOL    MW418296   2.901   4.113   5.716 -0.5391  0.0147  0.6110
 4633SOL     OW18297   0.659   4.982   2.345 -0.3683 -0.6146  0.7282
 4633SOL    HW218298   0.714   4.971   2.423  0.6479 -0.9836 -0.0240
 4633SOL    HW318299   0.721   4.987   2.273 -1.3368 -0.9471 -0.1363
 4633SOL    MW418300   0.674   4.982   2.346 -0.3620 -0.7071  0.5149
 4634SOL     OW18301   3.597   0.749   1.795  0.0049  0.1574  0.4276
 4634SOL    HW218302   3.604   0.740   1.700  0.3628  0.1776  0.4489
 4634SOL    HW318303   3.624   0.840   1.812  1.0835 -0.1848  0.6497
 4634SOL    MW418304   3.602   0.760   1.784  0.1944  0.1149  0.4597
 4635SOL     OW18305   4.282   1.835   0.758 -0.0722 -0.2912  0.0403
 4635SOL    HW218306   4.360   1.856   0.810 -0.6011 -0.7863  1.0686
 4635SOL    HW318307   4.224   1.911   0.770 -0.9831 -1.1903  1.7882
 4635SOL    MW418308   4.285   1.848   0.767 -0.2622 -0.4752  0.4066
 4636SOL     OW18309   2.425   0.032   2.262  0.1857  0.3711 -0.4156
 4636SOL    HW218310   2.342  -0.011   2.243 -1.4798  2.5884  1.2409
 4636SOL    HW318311   2.406   0.126   2.256  2.1369  0.9952  1.4980
 4636SOL    MW418312   2.412   0.039   2.259  0.2234  0.7460  0.0554
 4637SOL     OW18313   5.103   2.110   4.338 -0.7858 -0.2047  0.6065
 4637SOL    HW218314   5.191   2.072   4.345 -1.9464 -3.4058 -0.4381
 4637SOL    HW318315   5.094   2.162   4.418  1.4699 -1.0999  1.5570
 4637SOL    MW418316   5.114   2.112   4.350 -0.6413 -0.7452  0.5941
 4638SOL     OW18317   1.705   0.158   3.487 -0.0369 -0.0040 -0.2808
 4638SOL    HW218318   1.772   0.199   3.542 -1.6321  2.3890  0.0238
 4638SOL    HW318319   1.737   0.172   3.397  0.2544  0.4293 -0.1169
 4638SOL    MW418320   1.718   0.165   3.482 -0.2089  0.3689 -0.2190
 4639SOL     OW18321   1.350   2.616   3.389  0.2543 -0.5694  0.0591
 4639SOL    HW218322   1.358   2.521   3.383 -0.1235 -0.6285  0.4771
 4639SOL    HW318323   1.257   2.634   3.373  0.4243 -0.2189 -0.6014
 4639SOL    MW418324   1.339   2.606   3.386  0.2269 -0.5310  0.0271
 4640SOL     OW18325   6.055   1.382   5.313  1.1104 -0.1567 -0.0086
 4640SOL    HW218326   6.111   1.418   5.381  1.0784 -1.7807  0.9261
 4640SOL    HW318327   5.990   1.450   5.296  1.4242  0.4711  1.2229
 4640SOL    MW418328   6.054   1.395   5.319  1.1476 -0.2881  0.2772
 4641SOL     OW18329   3.451   2.362   5.329  0.4712 -0.3613  0.0567
 4641SOL    HW218330   3.537   2.329   5.357  0.6124 -0.8412 -0.9039
 4641SOL    HW318331   3.471   2.432   5.267  0.1895 -1.1333 -0.9269
 4641SOL    MW418332   3.465   2.367   5.325  0.4526 -0.5265 -0.1998
 4642SOL     OW18333   4.904   3.969   3.856  0.2754  0.1488 -0.4983
 4642SOL    HW218334   4.839   3.899   3.860  0.1948  0.1500 -1.6596
 4642SOL    HW318335   4.988   3.924   3.866  0.1327  0.1087  0.6409
 4642SOL    MW418336   4.907   3.954   3.858  0.2459  0.1437 -0.5012
 4643SOL     OW18337   5.358   6.401   1.547  0.4898 -0.2144 -0.1320
 4643SOL    HW218338   5.337   6.427   1.636  2.4213 -0.2529  0.3983
 4643SOL    HW318339   5.308   6.460   1.492  0.7357  1.1232  1.0153
 4643SOL    MW418340   5.349   6.412   1.551  0.7771 -0.0430  0.0893
 4644SOL     OW18341   3.031   5.148   6.196  0.1994  0.0022 -0.4897
 4644SOL    HW218342   3.021   5.064   6.241 -0.4379 -0.5289 -1.5920
 4644SOL    HW318343   3.006   5.130   6.105  0.9519  1.1716 -0.9545
 4644SOL    MW418344   3.027   5.135   6.190  0.2146  0.0864 -0.6965
 4645SOL     OW18345   0.101   4.530   5.643 -0.2755  0.4342 -0.0261
 4645SOL    HW218346   0.160   4.535   5.568  0.8691 -0.0752  0.7977
 4645SOL    HW318347   0.060   4.616   5.647 -0.1320  0.5590 -1.0565
 4645SOL    MW418348   0.103   4.542   5.634 -0.1055  0.3835 -0.0533
 4646SOL     OW18349   0.394   6.069   4.644  0.4260 -0.3996 -0.1384
 4646SOL    HW218350   0.352   6.068   4.729  1.6055 -2.4127  0.5001
 4646SOL    HW318351   0.456   5.996   4.647  0.0694 -0.9489 -2.9325
 4646SOL    MW418352   0.397   6.059   4.655  0.5346 -0.7377 -0.4228
 4647SOL     OW18353   4.701   3.502   4.190  0.3854 -0.1187 -0.1192
 4647SOL    HW218354   4.720   3.596   4.189  0.7310 -0.1853 -1.2597
 4647SOL    HW318355   4.655   3.488   4.273 -1.4103  1.4037 -0.7743
 4647SOL    MW418356   4.697   3.513   4.201  0.1941  0.0734 -0.3561
 4648SOL     OW18357   2.767   2.470   2.200  0.3627 -0.0642  0.2733
 4648SOL    HW218358   2.793   2.505   2.285  1.3215 -0.0192 -0.0241
 4648SOL    HW318359   2.736   2.546   2.152  2.8287  0.5574 -0.5179
 4648SOL    MW418360   2.767   2.485   2.205  0.8146  0.0238  0.1296
 4649SOL     OW18361   2.072   5.912   0.785 -0.2302 -0.0977 -0.5673
 4649SOL    HW218362   2.022   5.931   0.706 -0.3966 -2.7563 -1.1863
 4649SOL    HW318363   2.008   5.880   0.848  0.0299  1.1908  0.4102
 4649SOL    MW418364   2.057   5.910   0.783 -0.2178 -0.2784 -0.5200
 4650SOL     OW18365   4.060   5.741   3.286 -0.3002  0.2412 -0.8277
 4650SOL    HW218366   4.116   5.678   3.331 -1.8678 -1.3345 -0.9661
 4650SOL    HW318367   4.047   5.811   3.349 -0.2581 -0.6332  0.1765
 4650SOL    MW418368   4.066   5.742   3.300 -0.5015 -0.0821 -0.7135
 4651SOL     OW18369   0.395   2.932   1.936 -0.2707  0.2655  0.1024
 4651SOL    HW218370   0.339   2.854   1.934 -0.5035  0.3558  1.6058
 4651SOL    HW318371   0.397   2.957   2.029  1.8480  0.5744  0.0219
 4651SOL    MW418372   0.387   2.925   1.948 -0.0219  0.3181  0.2902
 4652SOL     OW18373   3.373   2.638   0.093  0.2241  0.6928  1.0203
 4652SOL    HW218374   3.453   2.588   0.113 -0.7123 -1.4040 -0.1254
 4652SOL    HW318375   3.385   2.666   0.002 -0.5277 -0.0678  0.6760
 4652SOL    MW418376   3.385   2.635   0.084  0.0014  0.3158  0.8237
 4653SOL     OW18377   4.883   1.789   4.515  0.0214 -0.7911 -0.5203
 4653SOL    HW218378   4.925   1.824   4.437 -1.2382  1.1337 -0.3780
 4653SOL    HW318379   4.944   1.811   4.586  0.4204 -1.1652 -0.7354
 4653SOL    MW418380   4.897   1.796   4.514 -0.0921 -0.5865 -0.5299
 4654SOL     OW18381   5.058   0.195   1.546  0.1853 -0.3532 -0.3201
 4654SOL    HW218382   5.004   0.268   1.576  1.0298 -0.7160  2.3592
 4654SOL    HW318383   5.005   0.117   1.565  0.1985 -0.5473 -1.0626
 4654SOL    MW418384   5.044   0.194   1.552  0.2985 -0.4267 -0.0646
 4655SOL     OW18385   4.831   3.997   0.554  0.8424  0.1403 -0.1624
 4655SOL    HW218386   4.926   3.982   0.546  1.2649  1.1609  2.1004
 4655SOL    HW318387   4.819   4.086   0.519  0.7797  0.1161 -0.2010
 4655SOL    MW418388   4.842   4.007   0.548  0.8898  0.2717  0.1310
 4656SOL     OW18389   4.372   3.453   5.561  0.4835 -0.0879  0.0370
 4656SOL    HW218390   4.415   3.507   5.495  1.1778 -1.5448 -0.7608
 4656SOL    HW318391   4.430   3.458   5.638  0.2428  0.7407  0.1667
 4656SOL    MW418392   4.386   3.461   5.563  0.5434 -0.1708 -0.0511
 4657SOL     OW18393   1.452   6.228   3.553 -0.6865  0.3793  0.0187
 4657SOL    HW218394   1.547   6.219   3.567 -0.5359 -0.6191 -1.5255
 4657SOL    HW318395   1.417   6.141   3.572 -1.5905  1.1761  2.3910
 4657SOL    MW418396   1.460   6.215   3.558 -0.7859  0.3527  0.1280
 4658SOL     OW18397   3.724   4.772   5.658  0.7048  0.0342 -0.3850
 4658SOL    HW218398   3.781   4.831   5.706 -0.9811  0.7988  0.7833
 4658SOL    HW318399   3.644   4.823   5.643 -0.3789 -1.5744 -0.3442
 4658SOL    MW418400   3.721   4.787   5.662  0.3393 -0.0772 -0.2255
 4659SOL     OW18401   4.164   2.301   4.621 -0.2333  0.3802 -0.1615
 4659SOL    HW218402   4.178   2.301   4.527 -0.5897 -0.1002 -0.2193
 4659SOL    HW318403   4.229   2.240   4.655 -0.2177  0.4226 -0.1141
 4659SOL    MW418404   4.174   2.293   4.613 -0.2782  0.3224 -0.1629
 4660SOL     OW18405   5.688   1.924   5.245  0.2887  0.0204  0.2195
 4660SOL    HW218406   5.645   1.998   5.289  0.7917  0.0354  0.6954
 4660SOL    HW318407   5.646   1.847   5.283 -0.3764  0.0535 -0.4209
 4660SOL    MW418408   5.677   1.924   5.256  0.2673  0.0268  0.1978
 4661SOL     OW18409   3.466   5.153   2.882 -0.1678 -0.1917  0.0404
 4661SOL    HW218410   3.508   5.198   2.955  0.9651 -2.7675  1.0956
 4661SOL    HW318411   3.527   5.164   2.809  1.1993 -1.7303  0.8793
 4661SOL    MW418412   3.480   5.160   2.882  0.1620 -0.7346  0.2903
 4662SOL     OW18413   5.632   1.068   2.968 -0.7839 -0.1696  0.0095
 4662SOL    HW218414   5.701   1.103   3.025 -0.4046  0.9068 -1.0572
 4662SOL    HW318415   5.641   0.973   2.974  1.4232 -0.0682 -0.7867
 4662SOL    MW418416   5.642   1.061   2.976 -0.4426 -0.0142 -0.2362
 4663SOL     OW18417   2.790   2.274   0.127  0.1907  0.0330  0.1946
 4663SOL    HW218418   2.722   2.245   0.067  1.5241 -0.4216 -1.1537
 4663SOL    HW318419   2.807   2.197   0.182 -1.2407  0.5432  1.4054
 4663SOL    MW418420   2.783   2.260   0.127  0.1778  0.0403  0.1764
 4664SOL     OW18421   2.086   3.112   3.101 -0.6331  0.9619 -0.2778
 4664SOL    HW218422   2.086   3.108   3.006 -2.5086  0.3872 -0.2949
 4664SOL    HW318423   2.174   3.142   3.124  0.1510  0.2293 -2.1367
 4664SOL    MW418424   2.098   3.115   3.092 -0.7771  0.7894 -0.5253
 4665SOL     OW18425   1.700   5.654   1.077  0.0244  0.1650 -0.2155
 4665SOL    HW218426   1.668   5.716   1.143  1.4519 -0.7887  1.4542
 4665SOL    HW318427   1.761   5.705   1.024 -0.3340  0.6794 -0.1414
 4665SOL    MW418428   1.703   5.669   1.079  0.1655  0.1071  0.0145
 4666SOL     OW18429   1.908   3.248   2.266 -0.1512 -0.2764  0.4066
 4666SOL    HW218430   1.845   3.319   2.278 -0.0052 -0.1232  0.2692
 4666SOL    HW318431   1.907   3.200   2.350 -0.2486 -0.1147  0.4978
 4666SOL    MW418432   1.900   3.251   2.279 -0.1448 -0.2349  0.4005
 4667SOL     OW18433   0.126   5.820   6.115 -0.3272  0.2490  0.5687
 4667SOL    HW218434   0.096   5.835   6.205  0.8949 -0.3105  1.0942
 4667SOL    HW318435   0.215   5.855   6.113 -0.4778  0.6027 -0.5429
 4667SOL    MW418436   0.133   5.827   6.127 -0.1858  0.2218  0.4914
 4668SOL     OW18437   6.425   5.339   2.615  0.4179 -0.4616  0.1881
 4668SOL    HW218438   6.470   5.363   2.535 -0.8875  0.4638 -0.3241
 4668SOL    HW318439   6.421   5.421   2.665  1.4978 -1.0987  1.3509
 4668SOL    MW418440   6.430   5.353   2.611  0.3881 -0.4236  0.2740
 4669SOL     OW18441   2.146   0.010   4.052 -0.5236 -0.0335 -0.0268
 4669SOL    HW218442   2.206   0.000   3.977 -1.0545 -1.3758 -0.3140
 4669SOL    HW318443   2.085  -0.063   4.042 -0.4465 -0.3919  1.8706
 4669SOL    MW418444   2.146  -0.001   4.041 -0.5835 -0.2579  0.1857
 4670SOL     OW18445   5.126   5.152   4.815 -0.8436  0.4149  0.4229
 4670SOL    HW218446   5.153   5.064   4.843 -1.2251 -0.4731 -1.7942
 4670SOL    HW318447   5.053   5.137   4.756 -0.6066  2.2004 -0.3869
 4670SOL    MW418448   5.120   5.139   4.811 -0.8626  0.5333  0.0235
 4671SOL     OW18449   5.214   5.651   2.924  0.5369  0.5669  0.4758
 4671SOL    HW218450   5.277   5.598   2.874  0.8613  2.7048 -1.5129
 4671SOL    HW318451   5.132   5.645   2.875  0.1908  0.8011  1.0108
 4671SOL    MW418452   5.212   5.643   2.911  0.5340  0.8799  0.2840
 4672SOL     OW18453   3.059   2.854   4.894  0.4810 -0.1983  0.5986
 4672SOL    HW218454   3.086   2.811   4.813  1.0084  0.5863  0.3489
 4672SOL    HW318455   3.020   2.784   4.946 -3.2955 -0.0962 -1.7723
 4672SOL    MW418456   3.058   2.839   4.891  0.0523 -0.0813  0.2529
 4673SOL     OW18457   5.365   1.078   0.920  0.1491 -0.1348 -0.2356
 4673SOL    HW218458   5.295   1.142   0.909  0.3439  0.2698  0.7390
 4673SOL    HW318459   5.440   1.130   0.951  0.6958 -0.6481 -0.6868
 4673SOL    MW418460   5.366   1.094   0.923  0.2469 -0.1491 -0.1666
 4674SOL     OW18461   1.606   1.614   4.624  0.4785 -0.5272 -0.7762
 4674SOL    HW218462   1.650   1.616   4.539 -0.1035  0.0145 -1.0757
 4674SOL    HW318463   1.661   1.667   4.681 -0.3229  1.0752 -1.4302
 4674SOL    MW418464   1.619   1.621   4.620  0.2960 -0.2443 -0.9020
 4675SOL     OW18465   3.373   1.736   4.519  0.2111  0.3290 -0.0874
 4675SOL    HW218466   3.384   1.733   4.424 -0.8105 -3.1822 -0.2126
 4675SOL    HW318467   3.460   1.759   4.552  1.3734 -1.2327 -1.8200
 4675SOL    MW418468   3.386   1.739   4.510  0.2296 -0.3403 -0.3325
 4676SOL     OW18469   5.189   4.140   6.315  0.7650  0.1808 -0.4520
 4676SOL    HW218470   5.244   4.066   6.291 -0.0281 -1.1753  1.6784
 4676SOL    HW318471   5.244   4.192   6.374  0.1306 -0.6998  0.9610
 4676SOL    MW418472   5.204   4.137   6.320  0.5767 -0.1143  0.0155
 4677SOL     OW18473   4.727   3.943   4.468 -0.2252  0.2535  0.5808
 4677SOL    HW218474   4.743   3.850   4.484 -2.2002 -0.2688 -0.1143
 4677SOL    HW318475   4.712   3.980   4.555 -1.6003 -0.5746  0.7355
 4677SOL    MW418476   4.727   3.935   4.482 -0.6672  0.0753  0.5095
 4678SOL     OW18477   2.770   3.380   0.541 -0.4785  0.1242 -0.4555
 4678SOL    HW218478   2.851   3.407   0.586 -0.4327  0.8832 -0.9870
 4678SOL    HW318479   2.740   3.304   0.592  0.4578 -0.0508 -0.1265
 4678SOL    MW418480   2.777   3.374   0.554 -0.3489  0.2012 -0.4822
 4679SOL     OW18481   4.038   1.766   6.333 -0.4485 -0.5757 -0.2014
 4679SOL    HW218482   4.041   1.859   6.355 -0.8824 -0.5530 -0.2330
 4679SOL    HW318483   3.949   1.752   6.298  0.4128 -0.4534 -2.6624
 4679SOL    MW418484   4.026   1.776   6.331 -0.3921 -0.5566 -0.5303
 4680SOL     OW18485   5.458   0.099   3.243  0.1677 -0.0543  0.1871
 4680SOL    HW218486   5.511   0.178   3.232  0.5830 -0.5158 -1.4214
 4680SOL    HW318487   5.515   0.039   3.292  0.6381 -0.0572 -0.3466
 4680SOL    MW418488   5.473   0.101   3.248  0.2846 -0.1156 -0.0955
 4681SOL     OW18489   6.146   0.548   2.194 -0.8033  0.1603  0.2018
 4681SOL    HW218490   6.141   0.507   2.280  1.2588  1.4038  0.9751
 4681SOL    HW318491   6.226   0.514   2.155 -0.5258  1.3281 -0.2819
 4681SOL    MW418492   6.156   0.538   2.200 -0.4946  0.4784  0.2400
 4682SOL     OW18493   0.761   4.861   1.123 -0.0793  0.5278  0.1606
 4682SOL    HW218494   0.717   4.778   1.104 -0.0176  0.3749  0.6607
 4682SOL    HW318495   0.846   4.854   1.080  0.1801  0.0615  0.7287
 4682SOL    MW418496   0.766   4.849   1.115 -0.0369  0.4461  0.3015
 4683SOL     OW18497   5.899   6.329   2.077  0.1647 -0.5665  0.2642
 4683SOL    HW218498   5.993   6.310   2.081  0.3273 -0.1720 -1.1042
 4683SOL    HW318499   5.866   6.268   2.011 -0.3975 -0.1896  0.1915
 4683SOL    MW418500   5.907   6.318   2.069  0.1120 -0.4647  0.0741
 4684SOL     OW18501   3.675   4.212   2.137 -0.3492 -0.7672  0.1053
 4684SOL    HW218502   3.582   4.218   2.115 -0.2356  1.0540 -0.0192
 4684SOL    HW318503   3.711   4.153   2.071 -1.2227 -0.5738 -0.5711
 4684SOL    MW418504   3.668   4.205   2.125 -0.4495 -0.5014 -0.0003
 4685SOL     OW18505   1.504   2.553   0.288 -0.6991 -0.3254  0.2825
 4685SOL    HW218506   1.450   2.474   0.273 -1.2167  0.3568 -1.7619
 4685SOL    HW318507   1.440   2.624   0.294 -0.1437  0.1640  0.4035
 4685SOL    MW418508   1.488   2.552   0.286 -0.6941 -0.1708  0.0287
 4686SOL     OW18509   1.758   1.033   4.248 -0.0738  0.0755  0.1782
 4686SOL    HW218510   1.700   0.967   4.287  0.4622 -0.3304  0.3033
 4686SOL    HW318511   1.698   1.098   4.212 -0.8273 -2.0088 -2.7474
 4686SOL    MW418512   1.742   1.033   4.248 -0.1025 -0.2530 -0.1913
 4687SOL     OW18513   4.850   6.275   5.321 -0.1696  0.3290  0.2413
 4687SOL    HW218514   4.872   6.368   5.320  1.1275  0.0547  1.1073
 4687SOL    HW318515   4.933   6.231   5.341 -0.7941 -1.0050 -0.0187
 4687SOL    MW418516   4.864   6.281   5.323 -0.0808  0.1168  0.3212
 4688SOL     OW18517   4.363   0.619   5.060  0.5459  0.1440  0.5566
 4688SOL    HW218518   4.363   0.649   4.969  0.5227  1.2573  0.9020
 4688SOL    HW318519   4.291   0.556   5.064  1.2031 -0.7016 -0.4241
 4688SOL    MW418520   4.353   0.615   5.049  0.6296  0.1794  0.4728
 4689SOL     OW18521   4.896   5.812   5.554 -0.0820 -0.2077  0.7445
 4689SOL    HW218522   4.911   5.894   5.601 -0.2041  0.8659 -0.9954
 4689SOL    HW318523   4.801   5.808   5.543 -0.0181 -0.1597  0.1264
 4689SOL    MW418524   4.885   5.822   5.558 -0.0897 -0.0597  0.4334
 4690SOL     OW18525   2.135   4.693   0.784  0.1928  0.0828  0.9101
 4690SOL    HW218526   2.157   4.781   0.813  0.7477  0.7528 -1.3655
 4690SOL    HW318527   2.040   4.688   0.790  0.2660  0.1962  2.6537
 4690SOL    MW418528   2.126   4.704   0.789  0.2757  0.1861  0.8399
 4691SOL     OW18529   0.959   5.339   1.557  0.3244  0.2586 -0.1050
 4691SOL    HW218530   0.956   5.261   1.501  1.4841  1.1774 -1.5322
 4691SOL    HW318531   0.874   5.381   1.545 -0.8376 -1.3853  1.6946
 4691SOL    MW418532   0.947   5.334   1.548  0.3241  0.1630 -0.0559
 4692SOL     OW18533   3.559   3.456   0.073  0.3257 -0.1908 -0.6008
 4692SOL    HW218534   3.556   3.524   0.005  0.0155 -0.3441 -0.7408
 4692SOL    HW318535   3.508   3.492   0.146  0.2467 -0.2317 -0.6361
 4692SOL    MW418536   3.552   3.470   0.074  0.2743 -0.2165 -0.6239
 4693SOL     OW18537   5.485   3.617   2.478 -0.3017 -0.2961 -0.0030
 4693SOL    HW218538   5.576   3.643   2.488 -0.6252  0.7341  0.4092
 4693SOL    HW318539   5.448   3.682   2.418 -0.9056 -0.3588  0.2930
 4693SOL    MW418540   5.492   3.629   2.471 -0.4241 -0.1685  0.0904
 4694SOL     OW18541   0.645   1.757   3.584 -0.0933  0.6394  0.2246
 4694SOL    HW218542   0.720   1.714   3.541 -0.9888 -0.0574 -0.6819
 4694SOL    HW318543   0.663   1.749   3.677  0.9949  0.5402  0.0226
 4694SOL    MW418544   0.658   1.751   3.590 -0.0679  0.5344  0.0783
 4695SOL     OW18545   2.563   4.140   3.862  0.3318 -0.1260  0.2211
 4695SOL    HW218546   2.536   4.231   3.856  0.9546 -0.0346 -1.8472
 4695SOL    HW318547   2.635   4.141   3.926  1.1270  1.0516 -0.6557
 4695SOL    MW418548   2.569   4.152   3.870  0.5189  0.0414 -0.1675
 4696SOL     OW18549   2.197   6.301   3.792 -0.2322 -0.6560 -0.1470
 4696SOL    HW218550   2.263   6.260   3.736  0.0732  1.0242 -1.1016
 4696SOL    HW318551   2.134   6.232   3.811  1.0182 -1.9237 -0.4373
 4696SOL    MW418552   2.198   6.287   3.787 -0.0269 -0.6016 -0.3113
 4697SOL     OW18553   1.969   1.856   5.793  0.2708  0.1853  0.2084
 4697SOL    HW218554   2.034   1.786   5.793  0.0091 -0.0672 -0.6074
 4697SOL    HW318555   1.925   1.849   5.878  0.0222 -0.8534  0.0061
 4697SOL    MW418556   1.972   1.846   5.804  0.2035  0.0149  0.0741
 4698SOL     OW18557   4.138   2.237   4.146  0.0268  0.0185  0.1570
 4698SOL    HW218558   4.187   2.221   4.065  1.3328  0.1697  0.8831
 4698SOL    HW318559   4.152   2.159   4.199  2.4314  1.4010  1.7599
 4698SOL    MW418560   4.146   2.225   4.142  0.5164  0.2209  0.4643
 4699SOL     OW18561   2.206   3.180   4.864 -0.3257 -0.4500 -0.4691
 4699SOL    HW218562   2.286   3.128   4.857  0.5882  1.0095 -1.5767
 4699SOL    HW318563   2.174   3.164   4.952  1.5038 -0.6595  0.1949
 4699SOL    MW418564   2.212   3.171   4.874  0.0363 -0.2851 -0.5276
 4700SOL     OW18565   6.158   4.617   2.926 -0.6158  0.2229 -0.7065
 4700SOL    HW218566   6.120   4.548   2.981 -0.8471  0.5691 -0.4314
 4700SOL    HW318567   6.165   4.693   2.984 -0.3114  0.4184 -0.9937
 4700SOL    MW418568   6.154   4.618   2.941 -0.6061  0.2944 -0.7081
 4701SOL     OW18569   1.665   5.940   2.279  0.6118  0.4192  0.2853
 4701SOL    HW218570   1.670   5.948   2.374 -0.6543 -0.0948  0.4248
 4701SOL    HW318571   1.683   6.028   2.246 -0.5724  0.9950  1.0960
 4701SOL    MW418572   1.668   5.953   2.287  0.2885  0.4274  0.4107
 4702SOL     OW18573   4.695   2.792   3.996  0.0460  0.2070 -0.6952
 4702SOL    HW218574   4.777   2.743   3.993 -0.7344 -1.0990 -1.1170
 4702SOL    HW318575   4.723   2.884   3.992  1.6515 -0.0343  2.3654
 4702SOL    MW418576   4.709   2.798   3.995  0.1548  0.0028 -0.3471
 4703SOL     OW18577   2.137   1.040   2.924 -0.1222 -0.6374 -0.1914
 4703SOL    HW218578   2.108   1.091   3.000 -0.6859 -2.2120  0.7073
 4703SOL    HW318579   2.230   1.061   2.915  0.2490 -1.2410  1.6856
 4703SOL    MW418580   2.146   1.049   2.933 -0.1476 -0.9248  0.1748
 4704SOL     OW18581   1.834   0.652   1.588  0.0372 -0.3158  0.5294
 4704SOL    HW218582   1.789   0.608   1.661  0.4929  0.0668  1.0526
 4704SOL    HW318583   1.839   0.585   1.519 -2.9655  0.1245 -0.2855
 4704SOL    MW418584   1.828   0.637   1.589 -0.2989 -0.2072  0.4909
 4705SOL     OW18585   0.986   1.310   0.787  0.1247 -0.8898 -0.2916
 4705SOL    HW218586   0.902   1.321   0.743  0.4488  0.4796 -0.6068
 4705SOL    HW318587   1.048   1.359   0.732  0.7697 -0.2441  0.9801
 4705SOL    MW418588   0.983   1.318   0.774  0.2526 -0.6239 -0.1654
 4706SOL     OW18589   5.774   3.942   1.555 -0.1625  0.0972 -0.0047
 4706SOL    HW218590   5.745   3.971   1.468  0.2002  1.9256  0.4417
 4706SOL    HW318591   5.815   3.857   1.539 -1.2893 -0.2361 -1.3971
 4706SOL    MW418592   5.775   3.934   1.541 -0.2633  0.2945 -0.1295
 4707SOL     OW18593   5.696   3.504   1.472  0.3089 -0.2715 -0.3207
 4707SOL    HW218594   5.713   3.410   1.476  2.0804  0.0458  1.2245
 4707SOL    HW318595   5.609   3.514   1.511 -0.3447 -1.3329 -1.4452
 4707SOL    MW418596   5.686   3.493   1.478  0.4564 -0.3697 -0.2652
 4708SOL     OW18597   3.200   5.770   3.340  0.2954 -0.1338 -0.7529
 4708SOL    HW218598   3.206   5.679   3.369 -1.9557  0.1211  0.7900
 4708SOL    HW318599   3.290   5.796   3.323  1.1895 -2.1039  0.5781
 4708SOL    MW418600   3.212   5.761   3.342  0.1163 -0.3601 -0.3737
 4709SOL     OW18601   3.486   5.447   5.751  0.0704  0.2448 -0.0458
 4709SOL    HW218602   3.445   5.360   5.755 -0.0080  0.1538 -1.8113
 4709SOL    HW318603   3.577   5.429   5.726  0.1566  0.6381 -0.0210
 4709SOL    MW418604   3.493   5.433   5.748  0.0714  0.2847 -0.2755
 4710SOL     OW18605   0.468   3.907   4.391  0.1925  0.4666 -0.4805
 4710SOL    HW218606   0.548   3.868   4.428 -0.2132 -0.0982 -0.1764
 4710SOL    HW318607   0.466   3.996   4.427  0.2165  0.1834  0.2397
 4710SOL    MW418608   0.478   3.914   4.401  0.1421  0.3547 -0.3453
 4711SOL     OW18609   0.898   5.544   4.416 -0.0484  0.5806  0.4966
 4711SOL    HW218610   0.892   5.620   4.359 -1.4779 -1.1023 -1.7739
 4711SOL    HW318611   0.842   5.566   4.491 -2.5412  0.8917 -1.3037
 4711SOL    MW418612   0.890   5.557   4.419 -0.5659  0.3996 -0.0405
 4712SOL     OW18613   5.871   2.570   0.467  0.1396  0.4657  0.3665
 4712SOL    HW218614   5.847   2.599   0.380  2.8895  2.6022  0.1760
 4712SOL    HW318615   5.952   2.521   0.455  0.4938  0.6740  1.6945
 4712SOL    MW418616   5.878   2.568   0.454  0.5491  0.7751  0.5166
 4713SOL     OW18617   5.223   5.999   1.995  0.4287 -0.3895 -0.1342
 4713SOL    HW218618   5.311   5.964   1.986  0.9113  0.6895  0.2965
 4713SOL    HW318619   5.223   6.080   1.943 -0.5074 -0.7029 -0.6689
 4713SOL    MW418620   5.234   6.005   1.987  0.3689 -0.2885 -0.1479
 4714SOL     OW18621   1.887   3.469   5.042  0.3979 -0.2985 -0.0634
 4714SOL    HW218622   1.956   3.525   5.078  0.6473 -0.3780 -0.4157
 4714SOL    HW318623   1.812   3.528   5.032  0.0777 -0.4457  1.2996
 4714SOL    MW418624   1.886   3.484   5.045  0.3885 -0.3284  0.0699
 4715SOL     OW18625   2.871   3.006   1.482 -0.5768 -0.1865 -0.0112
 4715SOL    HW218626   2.819   3.004   1.402  0.3076 -3.3039 -0.6375
 4715SOL    HW318627   2.960   2.985   1.453  0.7707  2.9354  1.3070
 4715SOL    MW418628   2.876   3.003   1.468 -0.2823 -0.1859  0.0801
 4716SOL     OW18629   3.803   1.548   2.015 -0.1029 -0.1769  0.1459
 4716SOL    HW218630   3.812   1.554   2.110  0.2820  0.8942  0.0541
 4716SOL    HW318631   3.867   1.610   1.980  0.9449 -1.7530 -0.8688
 4716SOL    MW418632   3.813   1.557   2.023  0.0861 -0.2435 -0.0001
 4717SOL     OW18633   2.216   2.992   2.346 -0.0386 -0.7266 -1.1284
 4717SOL    HW218634   2.277   2.921   2.367  1.9064  0.6942 -1.6257
 4717SOL    HW318635   2.134   2.948   2.325 -0.0983 -2.6222  2.2769
 4717SOL    MW418636   2.213   2.977   2.346  0.2101 -0.7892 -0.7448
 4718SOL     OW18637   1.100   6.180   5.730 -0.3173 -0.3199  0.0773
 4718SOL    HW218638   1.079   6.272   5.748 -0.2301 -0.5987  1.8264
 4718SOL    HW318639   1.136   6.148   5.813  0.2698 -1.7656 -0.7075
 4718SOL    MW418640   1.102   6.188   5.743 -0.2283 -0.5474  0.2045
 4719SOL     OW18641   1.690   0.509   1.796 -0.0297 -0.3420 -0.3290
 4719SOL    HW218642   1.651   0.438   1.745  2.5650 -0.7721 -1.9033
 4719SOL    HW318643   1.616   0.561   1.827 -1.9442 -2.8879 -0.3491
 4719SOL    MW418644   1.675   0.506   1.794  0.0600 -0.7347 -0.5394
 4720SOL     OW18645   6.261   3.909   3.700 -0.0183 -0.4306  0.0126
 4720SOL    HW218646   6.204   3.925   3.775  1.7476  0.1738  1.2787
 4720SOL    HW318647   6.349   3.928   3.732  1.0666 -2.4445 -1.5276
 4720SOL    MW418648   6.265   3.913   3.714  0.3578 -0.6166 -0.0236
 4721SOL     OW18649   4.339   1.722   3.009 -0.3986  0.6245 -0.4450
 4721SOL    HW218650   4.270   1.745   3.071 -1.4869  1.7944 -2.0235
 4721SOL    HW318651   4.356   1.629   3.026  0.0740  1.1218  2.2568
 4721SOL    MW418652   4.332   1.712   3.020 -0.4798  0.8445 -0.2968
 4722SOL     OW18653   5.158   1.712   3.466  0.1706  0.6191 -0.1330
 4722SOL    HW218654   5.151   1.642   3.531  2.0560 -0.3925 -0.9431
 4722SOL    HW318655   5.163   1.793   3.517 -2.6266  0.3093  0.8096
 4722SOL    MW418656   5.158   1.713   3.481  0.0503  0.4447 -0.1155
 4723SOL     OW18657   5.323   5.013   3.056 -0.3019  0.0097  0.0490
 4723SOL    HW218658   5.319   5.049   3.144 -0.1714 -1.4056  0.6582
 4723SOL    HW318659   5.363   5.082   3.003 -0.2615  0.8212  1.1125
 4723SOL    MW418660   5.328   5.027   3.061 -0.2793 -0.0700  0.2697
 4724SOL     OW18661   1.045   4.970   0.409  0.5839 -0.0881  0.4880
 4724SOL    HW218662   1.048   4.995   0.317  1.1702 -0.6843  0.3356
 4724SOL    HW318663   0.995   5.040   0.452 -0.7229 -0.3909 -0.4656
 4724SOL    MW418664   1.039   4.982   0.403  0.4888 -0.2067  0.3420
 4725SOL     OW18665   5.433   0.352   0.777 -0.2145  0.3338 -0.2986
 4725SOL    HW218666   5.339   0.342   0.793 -0.1040  0.4672  0.4708
 4725SOL    HW318667   5.458   0.430   0.826  0.2877  0.3323 -0.5451
 4725SOL    MW418668   5.424   0.361   0.786 -0.1337  0.3512 -0.2296
 4726SOL     OW18669   0.232   3.500   0.636 -0.6674  0.1759  0.3793
 4726SOL    HW218670   0.148   3.538   0.608 -0.5977  0.9893  1.2180
 4726SOL    HW318671   0.274   3.471   0.555 -1.4943  0.3051 -0.1066
 4726SOL    MW418672   0.226   3.501   0.621 -0.7673  0.3003  0.4259
 4727SOL     OW18673   1.292   0.919   1.751 -0.4046 -0.0611  0.2507
 4727SOL    HW218674   1.331   0.973   1.820 -0.2680 -1.9579  1.7564
 4727SOL    HW318675   1.352   0.926   1.677  0.6620  0.2615  1.1219
 4727SOL    MW418676   1.305   0.927   1.750 -0.2459 -0.2688  0.5643
 4728SOL     OW18677   0.239   0.486   2.538 -0.0044  0.0398 -0.5769
 4728SOL    HW218678   0.232   0.470   2.444 -0.2191  1.5314 -0.8296
 4728SOL    HW318679   0.176   0.555   2.556  1.4988  1.2393  0.2907
 4728SOL    MW418680   0.230   0.493   2.528  0.1656  0.3948 -0.4958
 4729SOL     OW18681   4.477   3.814   1.758 -0.3352  0.5630  0.3845
 4729SOL    HW218682   4.457   3.731   1.716  0.6872  1.1827 -1.4162
 4729SOL    HW318683   4.568   3.831   1.737 -0.6787  2.4160  0.2090
 4729SOL    MW418684   4.486   3.805   1.750 -0.2456  0.8892  0.1238
 4730SOL     OW18685   1.190   4.807   1.901 -0.2751 -0.1717  0.2403
 4730SOL    HW218686   1.152   4.803   1.813  0.7192  0.7771 -0.2563
 4730SOL    HW318687   1.150   4.733   1.947 -1.6904  0.0000 -0.6399
 4730SOL    MW418688   1.180   4.796   1.895 -0.3306 -0.0239  0.0587
 4731SOL     OW18689   3.945   1.370   5.644 -0.3928  0.4427  0.7978
 4731SOL    HW218690   4.023   1.407   5.686 -0.0762  0.0356  0.5683
 4731SOL    HW318691   3.922   1.434   5.577  0.0353  0.3253  0.5366
 4731SOL    MW418692   3.953   1.383   5.641 -0.2946  0.3735  0.7330
 4732SOL     OW18693   4.055   5.206   5.814  0.0019 -0.4540 -0.0180
 4732SOL    HW218694   4.045   5.112   5.825  0.7042 -0.4622  0.6917
 4732SOL    HW318695   3.969   5.237   5.787 -1.3368 -0.8340  3.2496
 4732SOL    MW418696   4.043   5.198   5.812 -0.0820 -0.5052  0.5068
 4733SOL     OW18697   1.393   3.735   2.317  0.3642 -0.4287 -0.3999
 4733SOL    HW218698   1.442   3.772   2.244 -0.3664  2.6854  0.5712
 4733SOL    HW318699   1.305   3.770   2.308 -0.7600 -2.8846  0.0340
 4733SOL    MW418700   1.388   3.744   2.307  0.1195 -0.3418 -0.2145
 4734SOL     OW18701   5.072   3.574   0.679 -0.4043  0.4887 -0.6034
 4734SOL    HW218702   5.012   3.521   0.627 -0.5082 -1.7293  1.5727
 4734SOL    HW318703   5.158   3.534   0.665  0.0558  1.6536 -1.2377
 4734SOL    MW418704   5.076   3.562   0.670 -0.3573  0.3498 -0.4000
 4735SOL     OW18705   0.901   2.452   2.352 -0.2845  0.2475 -0.2072
 4735SOL    HW218706   0.996   2.446   2.349 -0.3704 -1.6015 -2.0005
 4735SOL    HW318707   0.878   2.505   2.276 -0.7044 -0.4220 -0.5643
 4735SOL    MW418708   0.910   2.458   2.341 -0.3512 -0.0848 -0.4909
 4736SOL     OW18709   2.403   3.714   6.358 -0.6844  0.4098  0.6009
 4736SOL    HW218710   2.345   3.643   6.332 -1.4671  1.2858 -0.1101
 4736SOL    HW318711   2.358   3.794   6.330  1.2400  1.0974 -0.7329
 4736SOL    MW418712   2.389   3.715   6.351 -0.5338  0.6161  0.3311
 4737SOL     OW18713   4.847   3.055   1.899 -0.0501 -0.3951 -0.8388
 4737SOL    HW218714   4.922   3.090   1.946  0.0338 -0.8034 -0.6671
 4737SOL    HW318715   4.838   3.112   1.822 -0.7990  0.9084  0.1644
 4737SOL    MW418716   4.855   3.068   1.895 -0.1378 -0.2770 -0.6838
 4738SOL     OW18717   4.298   4.013   1.840  0.0602  0.0798  0.0724
 4738SOL    HW218718   4.357   3.939   1.820  0.1881  0.4235 -0.8918
 4738SOL    HW318719   4.334   4.052   1.919 -0.4616 -1.3573  1.0537
 4738SOL    MW418720   4.311   4.008   1.847  0.0082 -0.0645  0.0747
 4739SOL     OW18721   3.853   3.206   5.100  0.1557  0.0766 -0.0643
 4739SOL    HW218722   3.777   3.151   5.087 -0.2374  0.9874 -1.9659
 4739SOL    HW318723   3.818   3.289   5.132  0.4837  0.0948  0.2647
 4739SOL    MW418724   3.839   3.210   5.102  0.1471  0.1992 -0.2718
 4740SOL     OW18725   2.069   3.705   2.392 -0.3762  0.1095  0.0369
 4740SOL    HW218726   2.082   3.797   2.369 -0.6930  0.3461  0.7710
 4740SOL    HW318727   2.064   3.660   2.308 -0.9741  0.8676 -0.3532
 4740SOL    MW418728   2.070   3.711   2.378 -0.4969  0.2407  0.0823
 4741SOL     OW18729   3.506   1.590   2.565  0.1889 -0.5264 -0.2219
 4741SOL    HW218730   3.461   1.663   2.607  0.3314 -1.9652  2.7136
 4741SOL    HW318731   3.571   1.631   2.509  0.4394  1.6443  1.4910
 4741SOL    MW418732   3.509   1.605   2.563  0.2407 -0.4299  0.3914
 4742SOL     OW18733   1.690   0.154   1.044 -0.5529 -0.2454 -0.7595
 4742SOL    HW218734   1.616   0.096   1.057  0.0814 -0.8266  0.4186
 4742SOL    HW318735   1.767   0.101   1.066  0.1073  0.7470 -0.5994
 4742SOL    MW418736   1.691   0.140   1.049 -0.3821 -0.1911 -0.5829
 4743SOL     OW18737   4.516   5.186   0.730 -0.2592 -0.2782  0.4677
 4743SOL    HW218738   4.429   5.209   0.697 -0.3564  1.1130  1.5945
 4743SOL    HW318739   4.539   5.258   0.789  0.6008 -1.8148  2.0988
 4743SOL    MW418740   4.507   5.199   0.734 -0.1586 -0.2974  0.8316
 4744SOL     OW18741   4.975   1.634   0.246 -0.2246  0.1505  0.4181
 4744SOL    HW218742   4.967   1.719   0.203 -1.6041  0.9833  2.1948
 4744SOL    HW318743   4.889   1.593   0.235 -0.3062 -0.0080  1.5223
 4744SOL    MW418744   4.962   1.639   0.239 -0.4174  0.2395  0.7982
 4745SOL     OW18745   1.066   1.758   3.606  0.2810  0.0423  0.0515
 4745SOL    HW218746   1.044   1.747   3.513 -2.0759 -2.3100  0.7481
 4745SOL    HW318747   1.013   1.831   3.635  0.3778  0.2439 -0.2729
 4745SOL    MW418748   1.056   1.766   3.597 -0.0172 -0.2414  0.1006
 4746SOL     OW18749   2.112   4.821   5.091  0.2527  0.1784 -0.2149
 4746SOL    HW218750   2.038   4.833   5.150  0.2684 -0.8726  0.0332
 4746SOL    HW318751   2.083   4.862   5.009 -0.6745 -0.3426 -0.1706
 4746SOL    MW418752   2.098   4.828   5.088  0.1325 -0.0290 -0.1763
 4747SOL     OW18753   3.443   5.555   0.383 -0.0190  0.5064  0.3453
 4747SOL    HW218754   3.441   5.618   0.311 -0.1954 -0.3111 -0.3845
 4747SOL    HW318755   3.492   5.480   0.348 -1.3324 -0.4939  0.5625
 4747SOL    MW418756   3.449   5.553   0.369 -0.2156  0.2665  0.2777
 4748SOL     OW18757   4.326   0.845   1.099  0.1639  0.1738  0.3089
 4748SOL    HW218758   4.286   0.867   1.014 -0.4673  0.1748  0.6024
 4748SOL    HW318759   4.289   0.909   1.160  0.2288 -0.1469  0.6830
 4748SOL    MW418760   4.315   0.856   1.096  0.0892  0.1316  0.3969
 4749SOL     OW18761   2.962   3.469   4.971 -0.1581  0.3228 -0.1358
 4749SOL    HW218762   2.921   3.390   4.935 -0.5672 -0.2652  1.5495
 4749SOL    HW318763   2.987   3.520   4.893 -1.9130 -0.4067 -1.2396
 4749SOL    MW418764   2.960   3.465   4.956 -0.4436  0.1490 -0.0591
 4750SOL     OW18765   1.401   1.517   3.048  0.1025  0.2988 -0.1063
 4750SOL    HW218766   1.422   1.559   2.965 -0.8757 -0.3749 -0.7157
 4750SOL    HW318767   1.306   1.511   3.048 -0.0462  1.6372  1.7501
 4750SOL    MW418768   1.391   1.522   3.037 -0.0462  0.3865  0.0582
 4751SOL     OW18769   2.994   5.110   0.150 -0.2258  0.8038  0.4086
 4751SOL    HW218770   3.083   5.142   0.135 -0.4073  1.3365  0.4486
 4751SOL    HW318771   3.005   5.017   0.173  0.2774  0.7301 -0.0944
 4751SOL    MW418772   3.007   5.102   0.151 -0.1834  0.8644  0.3475
 4752SOL     OW18773   4.596   0.846   2.504  0.1454  0.0221  0.3238
 4752SOL    HW218774   4.674   0.875   2.552  1.1545  0.0502 -1.2637
 4752SOL    HW318775   4.562   0.926   2.462  0.1454 -0.2473 -0.1993
 4752SOL    MW418776   4.602   0.861   2.505  0.2785 -0.0097  0.0453
 4753SOL     OW18777   6.019   1.982   2.993 -0.0104 -0.6246  0.2674
 4753SOL    HW218778   6.050   2.067   2.960  1.5724 -1.2317  0.1138
 4753SOL    HW318779   6.058   1.918   2.935 -1.4348 -1.4792  0.2051
 4753SOL    MW418780   6.028   1.985   2.981  0.0105 -0.8174  0.2389
 4754SOL     OW18781   1.636   1.879   2.719  0.1568  0.0229 -0.7186
 4754SOL    HW218782   1.707   1.821   2.748  1.5032  1.0658 -1.7717
 4754SOL    HW318783   1.626   1.941   2.792  0.3802 -0.0877 -0.5908
 4754SOL    MW418784   1.644   1.879   2.733  0.3639  0.1459 -0.8406
 4755SOL     OW18785   5.533   2.561   4.348 -0.0973 -0.5975  0.3015
 4755SOL    HW218786   5.474   2.636   4.344 -1.5941 -1.7707 -0.8377
 4755SOL    HW318787   5.493   2.503   4.413 -0.7256 -1.7876 -1.0943
 4755SOL    MW418788   5.520   2.563   4.356 -0.3777 -0.9093 -0.0330
 4756SOL     OW18789   0.118   0.794   5.100  0.9568 -0.0557  0.5791
 4756SOL    HW218790   0.063   0.721   5.128 -0.8420  0.2906 -1.7384
 4756SOL    HW318791   0.198   0.753   5.067  0.1507 -0.9879 -0.2883
 4756SOL    MW418792   0.121   0.779   5.099  0.6131 -0.1330  0.1589
 4757SOL     OW18793   1.000   6.054   1.318  0.2240 -0.2345  0.1013
 4757SOL    HW218794   0.924   6.110   1.302  1.3012  1.3027  0.0964
 4757SOL    HW318795   1.000   6.041   1.413 -0.7370 -1.3028 -0.0288
 4757SOL    MW418796   0.990   6.060   1.328  0.2394 -0.1726  0.0835
 4758SOL     OW18797   4.731   5.758   0.139  0.3600  0.0853 -0.9147
 4758SOL    HW218798   4.648   5.730   0.178  0.4439 -0.3609 -1.0527
 4758SOL    HW318799   4.710   5.775   0.047  1.2709 -4.3915 -2.1858
 4758SOL    MW418800   4.717   5.756   0.132  0.4912 -0.5642 -1.1006
 4759SOL     OW18801   0.156   0.362   3.271 -0.5260 -0.4560  0.0991
 4759SOL    HW218802   0.091   0.420   3.310  0.2122 -1.1775  2.5995
 4759SOL    HW318803   0.112   0.277   3.263 -1.2660  0.0915 -2.5527
 4759SOL    MW418804   0.142   0.358   3.275 -0.5262 -0.4790  0.0791
 4760SOL     OW18805   4.309   3.476   3.556  0.9311 -0.2195  0.3715
 4760SOL    HW218806   4.349   3.392   3.536  1.7265 -0.6813  3.3810
 4760SOL    HW318807   4.245   3.456   3.624  0.3459  1.4535  0.3470
 4760SOL    MW418808   4.306   3.462   3.563  0.9588 -0.0597  0.7653
 4761SOL     OW18809   6.355   1.321   0.704 -0.5035 -0.1396  0.1369
 4761SOL    HW218810   6.446   1.346   0.718 -0.8199  1.1111  0.1243
 4761SOL    HW318811   6.317   1.319   0.792 -0.6366  0.0853  0.0863
 4761SOL    MW418812   6.362   1.324   0.718 -0.5628  0.0551  0.1286
 4762SOL     OW18813   4.426   2.864   5.770 -0.4588 -0.2850  0.0869
 4762SOL    HW218814   4.369   2.843   5.696  0.2812 -1.1684 -0.2389
 4762SOL    HW318815   4.506   2.815   5.754 -0.1699 -0.2448  1.3229
 4762SOL    MW418816   4.429   2.855   5.758 -0.3230 -0.3963  0.2070
 4763SOL     OW18817   0.340   5.555   6.382 -0.1129 -0.2329  0.3388
 4763SOL    HW218818   0.359   5.461   6.376 -0.4479 -0.2835 -0.0030
 4763SOL    HW318819   0.336   5.584   6.290 -1.0052 -0.0887  0.4169
 4763SOL    MW418820   0.342   5.546   6.369 -0.2748 -0.2205  0.3040
 4764SOL     OW18821   1.358   2.757   6.391 -0.2497  0.3126 -0.0689
 4764SOL    HW218822   1.349   2.850   6.370 -0.2288  0.0894 -1.0946
 4764SOL    HW318823   1.444   2.733   6.358  0.3318  0.2427  1.4310
 4764SOL    MW418824   1.368   2.766   6.384 -0.1702  0.2739 -0.0064
 4765SOL     OW18825   5.915   2.439   2.629 -0.3162  0.1215  0.1935
 4765SOL    HW218826   5.851   2.411   2.694 -0.3982 -0.3700 -0.0962
 4765SOL    HW318827   5.973   2.364   2.618  0.6199  0.7235  0.8127
 4765SOL    MW418828   5.914   2.426   2.636 -0.2035  0.1361  0.2370
 4766SOL     OW18829   5.905   5.661   6.237 -0.5089  0.4979 -0.5319
 4766SOL    HW218830   5.894   5.723   6.164 -0.5133 -0.1576 -1.0994
 4766SOL    HW318831   5.960   5.592   6.202 -1.1654 -0.2307 -0.1707
 4766SOL    MW418832   5.911   5.660   6.223 -0.5961  0.3153 -0.5591
 4767SOL     OW18833   5.211   2.395   5.801  0.6228  0.2564  0.2758
 4767SOL    HW218834   5.305   2.378   5.788  0.3720 -0.2608 -0.9607
 4767SOL    HW318835   5.176   2.313   5.833  0.2687 -0.1575 -1.1058
 4767SOL    MW418836   5.219   2.382   5.803  0.5430  0.1335 -0.0696
 4768SOL     OW18837   2.624   4.716   1.827 -0.0074 -0.0251 -0.1180
 4768SOL    HW218838   2.618   4.723   1.922  0.4730 -1.6676  0.0647
 4768SOL    HW318839   2.535   4.732   1.796 -0.9475 -2.6215  0.9019
 4768SOL    MW418840   2.612   4.719   1.835 -0.0681 -0.5844  0.0407
 4769SOL     OW18841   5.726   1.174   4.864  0.2030  0.3286 -0.0950
 4769SOL    HW218842   5.719   1.080   4.884 -0.7477  0.7942  2.1370
 4769SOL    HW318843   5.681   1.185   4.781 -0.8305 -1.0363  0.2485
 4769SOL    MW418844   5.720   1.163   4.856 -0.0588  0.2099  0.2448
 4770SOL     OW18845   6.452   2.972   5.798 -0.0626  0.1099  0.0050
 4770SOL    HW218846   6.541   3.007   5.792 -0.1604  0.5708  1.0362
 4770SOL    HW318847   6.464   2.879   5.816  0.1977 -0.0765 -1.0487
 4770SOL    MW418848   6.466   2.964   5.799 -0.0412  0.1461  0.0021
 4771SOL     OW18849   5.851   4.778   0.135  0.0776 -0.5403 -0.5236
 4771SOL    HW218850   5.851   4.692   0.178 -0.9717  0.1219  0.8846
 4771SOL    HW318851   5.940   4.788   0.102  0.5051 -1.7325  0.1849
 4771SOL    MW418852   5.862   4.768   0.136 -0.0044 -0.6102 -0.2443
 4772SOL     OW18853   0.880   0.467   2.029 -0.0544  0.0108 -0.4995
 4772SOL    HW218854   0.796   0.503   2.000  0.6112  1.0399 -1.2342
 4772SOL    HW318855   0.942   0.492   1.960  0.6557 -1.7132 -0.5320
 4772SOL    MW418856   0.877   0.475   2.016  0.1271 -0.0809 -0.6008
 4773SOL     OW18857   1.773   0.340   5.205  0.7882 -0.0885 -0.2696
 4773SOL    HW218858   1.787   0.400   5.132 -2.1408 -0.2780 -1.1037
 4773SOL    HW318859   1.802   0.255   5.173 -1.6313 -0.4344 -1.8296
 4773SOL    MW418860   1.779   0.337   5.191  0.0825 -0.1591 -0.5855
 4774SOL     OW18861   1.601   4.566   4.419 -0.5850 -0.0467 -0.1634
 4774SOL    HW218862   1.630   4.579   4.329 -1.2919 -1.1265 -0.5796
 4774SOL    HW318863   1.517   4.613   4.424 -0.7587 -0.3476 -0.2086
 4774SOL    MW418864   1.594   4.574   4.408 -0.7012 -0.2289 -0.2243
 4775SOL     OW18865   3.270   4.414   5.855  0.1306 -0.4088 -0.0642
 4775SOL    HW218866   3.272   4.380   5.765 -0.8746 -0.4888 -0.0647
 4775SOL    HW318867   3.202   4.363   5.898 -1.2408  1.3925  0.0118
 4775SOL    MW418868   3.262   4.403   5.848 -0.1830 -0.1817 -0.0543
 4776SOL     OW18869   4.881   3.052   4.803 -0.0732 -0.3915 -0.4236
 4776SOL    HW218870   4.868   3.033   4.896 -2.0200 -2.3457 -1.0203
 4776SOL    HW318871   4.833   2.983   4.757  1.7018 -0.1114 -2.9193
 4776SOL    MW418872   4.873   3.040   4.809 -0.0958 -0.6124 -0.8316
 4777SOL     OW18873   6.215   3.342   4.863  0.1139  0.4108  0.6880
 4777SOL    HW218874   6.233   3.366   4.772 -0.3424 -1.9808 -0.1058
 4777SOL    HW318875   6.137   3.392   4.887  0.2463  1.0685 -0.2154
 4777SOL    MW418876   6.207   3.351   4.854  0.0712  0.1820  0.4640
 4778SOL     OW18877   3.719   2.716   1.042 -0.1137  0.1415 -0.1995
 4778SOL    HW218878   3.638   2.719   1.094  0.6708  2.2147  1.0321
 4778SOL    HW318879   3.698   2.768   0.964 -0.6518 -1.2557 -1.0130
 4778SOL    MW418880   3.705   2.723   1.039 -0.0812  0.2307 -0.1444
 4779SOL     OW18881   0.909   1.528   1.882 -0.0031 -0.4459 -0.1240
 4779SOL    HW218882   0.907   1.563   1.971 -0.1487  0.6306 -0.5444
 4779SOL    HW318883   0.821   1.542   1.848  0.5574  0.9290 -1.0987
 4779SOL    MW418884   0.897   1.534   1.889  0.0517 -0.1225 -0.3081
 4780SOL     OW18885   0.053   1.328   6.290 -0.1158 -0.7278 -0.7261
 4780SOL    HW218886   0.128   1.373   6.329 -2.7818  2.1636  1.5862
 4780SOL    HW318887   0.006   1.397   6.243 -3.3316 -1.3511  1.2349
 4780SOL    MW418888   0.057   1.343   6.289 -0.8918 -0.4286 -0.1623
 4781SOL     OW18889   1.035   1.424   1.038  0.2858  0.0844 -0.1608
 4781SOL    HW218890   1.017   1.359   1.106 -1.4197  0.6997  0.0138
 4781SOL    HW318891   1.007   1.383   0.957 -2.6155  1.2218  0.1687
 4781SOL    MW418892   1.029   1.410   1.036 -0.3220  0.3156 -0.0943
 4782SOL     OW18893   5.722   3.652   5.566 -0.3082  0.1878  0.1957
 4782SOL    HW218894   5.666   3.575   5.577 -0.3613 -0.1634 -2.0164
 4782SOL    HW318895   5.811   3.617   5.562  0.1547  0.7105  3.3366
 4782SOL    MW418896   5.726   3.637   5.567 -0.2541  0.2105  0.3182
 4783SOL     OW18897   2.182   3.047   0.201 -0.3251  0.1742  0.2002
 4783SOL    HW218898   2.154   2.964   0.241  1.2088 -1.0862 -1.1797
 4783SOL    HW318899   2.273   3.057   0.228 -0.2767  1.0539 -0.2578
 4783SOL    MW418900   2.190   3.037   0.210 -0.1163  0.1239 -0.0423
 4784SOL     OW18901   0.095   2.897   2.264  0.6006 -0.5565  0.7248
 4784SOL    HW218902   0.099   2.943   2.180 -1.0738 -1.7386 -0.0619
 4784SOL    HW318903   0.095   2.804   2.241  0.0447 -0.9106  2.0210
 4784SOL    MW418904   0.096   2.891   2.250  0.3063 -0.7592  0.7920
 4785SOL     OW18905   4.290   2.747   0.063 -0.2557  0.0171 -0.3298
 4785SOL    HW218906   4.340   2.804   0.005  0.7716 -1.7495 -1.2483
 4785SOL    HW318907   4.328   2.762   0.150  1.3017 -0.6460 -0.8727
 4785SOL    MW418908   4.301   2.757   0.067  0.0853 -0.3035 -0.5226
 4786SOL     OW18909   0.386   2.145   1.399 -0.2161 -0.2357  0.2981
 4786SOL    HW218910   0.420   2.188   1.477  0.2864 -2.0744  1.1531
 4786SOL    HW318911   0.446   2.171   1.329  0.8881 -0.6000  1.0794
 4786SOL    MW418912   0.399   2.154   1.400 -0.0042 -0.5264  0.5140
 4787SOL     OW18913   4.190   3.519   3.204 -0.4867  0.3118 -0.4467
 4787SOL    HW218914   4.214   3.567   3.283 -0.6610  0.1455 -0.2904
 4787SOL    HW318915   4.154   3.585   3.145  0.3493  0.5611 -0.6816
 4787SOL    MW418916   4.188   3.534   3.207 -0.3994  0.3228 -0.4571
 4788SOL     OW18917   2.644   2.996   0.972  0.1843  0.1531  0.1434
 4788SOL    HW218918   2.656   3.027   1.062 -0.3271 -1.0662  0.6573
 4788SOL    HW318919   2.719   2.938   0.956 -1.0759 -1.7900  0.8081
 4788SOL    MW418920   2.655   2.992   0.982 -0.0495 -0.2641  0.2989
 4789SOL     OW18921   4.647   2.402   4.506 -0.3353  0.2383 -0.2771
 4789SOL    HW218922   4.608   2.348   4.437 -0.0073 -1.4726  0.8222
 4789SOL    HW318923   4.726   2.439   4.466  0.0045 -0.9538 -0.7325
 4789SOL    MW418924   4.652   2.400   4.492 -0.2472 -0.1447 -0.1922
 4790SOL     OW18925   3.013   1.326   6.211  0.6047  0.7332 -0.1747
 4790SOL    HW218926   3.005   1.395   6.145 -2.2164  0.3740 -0.3251
 4790SOL    HW318927   2.946   1.262   6.187  0.5767 -0.1943  2.1150
 4790SOL    MW418928   3.003   1.327   6.199  0.2288  0.5635  0.1075
 4791SOL     OW18929   2.386   2.142   0.788  0.1111 -0.3127 -0.5780
 4791SOL    HW218930   2.347   2.103   0.867  0.5669 -2.0102 -1.1550
 4791SOL    HW318931   2.335   2.105   0.716 -0.3835  1.3247 -1.1130
 4791SOL    MW418932   2.374   2.132   0.789  0.1060 -0.3206 -0.7247
 4792SOL     OW18933   5.222   3.077   5.621 -0.2364 -0.2988  0.7006
 4792SOL    HW218934   5.290   3.114   5.677  1.0828  1.6253 -1.9176
 4792SOL    HW318935   5.260   2.995   5.588 -0.2380 -0.4880  1.1711
 4792SOL    MW418936   5.236   3.071   5.624 -0.0626 -0.0699  0.4172
 4793SOL     OW18937   5.828   4.654   3.139  0.0693 -0.3280  0.2951
 4793SOL    HW218938   5.761   4.684   3.201 -0.0278 -0.0365  0.0513
 4793SOL    HW318939   5.788   4.580   3.094 -0.4412  0.4030 -0.4887
 4793SOL    MW418940   5.814   4.649   3.142 -0.0109 -0.1931  0.1595
 4794SOL     OW18941   1.497   3.629   2.962 -0.6718 -0.1852 -0.4776
 4794SOL    HW218942   1.415   3.666   2.995 -0.0303  0.5536  0.3835
 4794SOL    HW318943   1.516   3.556   3.022 -0.4877 -0.0802 -0.4068
 4794SOL    MW418944   1.489   3.624   2.975 -0.5629 -0.0739 -0.3546
 4795SOL     OW18945   0.367   0.508   1.561  0.2762  0.3837 -0.1606
 4795SOL    HW218946   0.299   0.466   1.509  0.5969 -0.0936 -0.2037
 4795SOL    HW318947   0.416   0.562   1.498 -0.4880  1.2906  0.0007
 4795SOL    MW418948   0.365   0.510   1.546  0.2177  0.4404 -0.1450
 4796SOL     OW18949   4.464   0.325   5.681 -0.1711  0.0107  0.4241
 4796SOL    HW218950   4.448   0.380   5.758 -1.6082  0.2857 -0.0546
 4796SOL    HW318951   4.514   0.381   5.622 -0.2498  0.2527  0.5875
 4796SOL    MW418952   4.469   0.340   5.683 -0.3711  0.0789  0.3825
 4797SOL     OW18953   2.919   2.265   2.358 -0.5528 -0.0095  0.0161
 4797SOL    HW218954   2.928   2.314   2.439  0.9819  0.4156 -0.3794
 4797SOL    HW318955   2.993   2.204   2.358 -1.2278 -0.8582 -0.4921
 4797SOL    MW418956   2.930   2.263   2.368 -0.4394 -0.0654 -0.1031
 4798SOL     OW18957   3.899   1.141   1.029  0.5457 -0.8910 -0.0522
 4798SOL    HW218958   3.862   1.097   0.952 -0.5808  0.0300 -0.0632
 4798SOL    HW318959   3.942   1.219   0.994 -1.6001  0.5650  0.3632
 4798SOL    MW418960   3.900   1.145   1.014  0.1140 -0.5773  0.0011
 4799SOL     OW18961   1.489   4.388   2.631 -0.2382  0.0198  0.0269
 4799SOL    HW218962   1.435   4.380   2.709  0.2061 -0.0002  0.3412
 4799SOL    HW318963   1.460   4.318   2.573 -0.6416  0.1004  0.1287
 4799SOL    MW418964   1.478   4.378   2.634 -0.2328  0.0278  0.0818
 4800SOL     OW18965   2.491   4.176   1.089  0.3221  0.0860  0.4980
 4800SOL    HW218966   2.525   4.097   1.132 -0.5406 -0.3398  0.4216
 4800SOL    HW318967   2.447   4.224   1.159 -0.3054 -0.1643  0.2820
 4800SOL    MW418968   2.489   4.172   1.104  0.1255 -0.0032  0.4594
 4801SOL     OW18969   1.548   3.547   5.287  0.4620  0.3319 -0.3245
 4801SOL    HW218970   1.560   3.574   5.378 -1.4832  0.4523 -0.0530
 4801SOL    HW318971   1.559   3.452   5.288  0.9439  0.3882 -0.0657
 4801SOL    MW418972   1.551   3.538   5.299  0.2689  0.3552 -0.2545
 4802SOL     OW18973   3.788   0.976   0.824  0.2398 -0.6023 -0.4129
 4802SOL    HW218974   3.711   0.929   0.857 -0.0366  0.2254  0.1481
 4802SOL    HW318975   3.751   1.046   0.770  0.5170  0.5739  0.8564
 4802SOL    MW418976   3.773   0.979   0.821  0.2399 -0.3379 -0.1714
 4803SOL     OW18977   0.207   5.773   5.646  0.0403  0.0705 -0.0794
 4803SOL    HW218978   0.139   5.728   5.596 -0.6836  0.7980  0.2248
 4803SOL    HW318979   0.160   5.810   5.721  0.2849  2.6633 -1.1002
 4803SOL    MW418980   0.192   5.772   5.649 -0.0230  0.5086 -0.1740
 4804SOL     OW18981   5.867   5.121   4.300 -1.0246  0.2128 -0.1346
 4804SOL    HW218982   5.871   5.216   4.313 -0.2508  0.3690 -1.3367
 4804SOL    HW318983   5.876   5.109   4.206  0.3984 -1.1230  0.1253
 4804SOL    MW418984   5.869   5.132   4.290 -0.7348  0.0571 -0.2589
 4805SOL     OW18985   2.382   2.770   2.402  0.3934 -0.0057  0.0027
 4805SOL    HW218986   2.463   2.761   2.452 -0.3429 -0.6417  1.1191
 4805SOL    HW318987   2.331   2.692   2.423 -0.1346 -0.0788 -1.4213
 4805SOL    MW418988   2.386   2.759   2.411  0.2266 -0.0992 -0.0379
 4806SOL     OW18989   3.147   2.355   1.752 -0.3485  0.3545  0.2813
 4806SOL    HW218990   3.087   2.296   1.706 -0.7595 -0.8295  2.2093
 4806SOL    HW318991   3.093   2.430   1.777 -0.2086  0.8298 -0.7838
 4806SOL    MW418992   3.132   2.357   1.749 -0.3843  0.2610  0.3952
 4807SOL     OW18993   0.591   0.566   0.388 -0.2541 -0.4910  0.3431
 4807SOL    HW218994   0.682   0.562   0.360 -0.5632  0.1103 -0.8376
 4807SOL    HW318995   0.549   0.492   0.344 -0.4678 -0.3676  0.3365
 4807SOL    MW418996   0.598   0.556   0.378 -0.3231 -0.3953  0.1865
 4808SOL     OW18997   5.174   5.455   3.985 -0.2214  0.3550 -0.0851
 4808SOL    HW218998   5.250   5.499   3.946  1.2313 -0.2818  1.8513
 4808SOL    HW318999   5.186   5.466   4.079 -1.5648 -1.3723  0.3409
 4808SOL    MW419000   5.186   5.462   3.992 -0.2070  0.0431  0.2266
 4809SOL     OW19001   4.774   6.241   2.596  0.0443  0.0853  0.3476
 4809SOL    HW219002   4.769   6.306   2.526  2.3011 -0.2194 -0.1921
 4809SOL    HW319003   4.791   6.158   2.551  1.6808 -0.0899  1.1862
 4809SOL    MW419004   4.776   6.239   2.581  0.5580  0.0220  0.3870
 4810SOL     OW19005   3.091   0.655   1.936 -0.0079  0.6353 -0.4954
 4810SOL    HW219006   3.138   0.695   1.863 -0.6659 -0.0715 -1.3210
 4810SOL    HW319007   3.101   0.560   1.922  0.4704  0.4864  0.7336
 4810SOL    MW419008   3.098   0.647   1.924 -0.0316  0.5224 -0.4422
 4811SOL     OW19009   4.061   5.813   1.381  0.1918  0.4725 -0.4108
 4811SOL    HW219010   4.031   5.736   1.430  2.6587  0.0563  0.6027
 4811SOL    HW319011   3.980   5.861   1.360 -1.3142 -1.6931  0.0687
 4811SOL    MW419012   4.046   5.809   1.385  0.3186  0.1319 -0.2138
 4812SOL     OW19013   2.367   2.826   4.407  0.4334 -0.0724 -0.3673
 4812SOL    HW219014   2.391   2.746   4.455  0.1411 -0.3912 -0.7439
 4812SOL    HW319015   2.277   2.844   4.436  0.5307  0.1723 -0.2164
 4812SOL    MW419016   2.358   2.818   4.417  0.4077 -0.0822 -0.3971
 4813SOL     OW19017   0.585   5.549   3.349 -0.4701 -0.0359 -0.6977
 4813SOL    HW219018   0.493   5.520   3.350 -0.5061  0.0777 -0.6814
 4813SOL    HW319019   0.612   5.547   3.440  0.0340 -1.5986 -0.8479
 4813SOL    MW419020   0.576   5.545   3.361 -0.4083 -0.2271 -0.7154
 4814SOL     OW19021   2.398   4.721   4.126  0.0548  0.4240 -0.4040
 4814SOL    HW219022   2.449   4.799   4.104  0.1704  0.4859  0.0725
 4814SOL    HW319023   2.361   4.740   4.212  2.0178 -0.9608  0.8273
 4814SOL    MW419024   2.400   4.734   4.134  0.3290  0.2494 -0.1787
 4815SOL     OW19025   2.248   6.092   0.901 -0.0209 -0.2902  0.0783
 4815SOL    HW219026   2.174   6.035   0.882 -0.0603 -1.0568  2.2609
 4815SOL    HW319027   2.324   6.035   0.896 -0.0923 -0.7169  2.6204
 4815SOL    MW419028   2.248   6.077   0.898 -0.0355 -0.4476  0.7017
 4816SOL     OW19029   1.807   4.563   3.839  0.2293 -0.0842 -0.7285
 4816SOL    HW219030   1.893   4.523   3.852 -0.8987 -3.1279 -1.8095
 4816SOL    HW319031   1.805   4.587   3.747  0.4275  1.5151 -0.3608
 4816SOL    MW419032   1.818   4.561   3.829  0.1067 -0.2747 -0.8226
 4817SOL     OW19033   4.798   4.439   1.119 -0.3436 -0.1417 -0.1457
 4817SOL    HW219034   4.712   4.422   1.156 -0.3005 -0.7722 -0.3131
 4817SOL    HW319035   4.816   4.531   1.138 -1.1202  0.0367 -0.2552
 4817SOL    MW419036   4.789   4.449   1.126 -0.4404 -0.2014 -0.1822
 4818SOL     OW19037   3.326   0.367   3.677 -0.1836 -0.0578  0.3198
 4818SOL    HW219038   3.381   0.392   3.602 -0.6273 -0.2105 -0.0575
 4818SOL    HW319039   3.335   0.440   3.738 -2.7207  1.8911 -1.4274
 4818SOL    MW419040   3.335   0.380   3.675 -0.5769  0.1792  0.0395
 4819SOL     OW19041   3.667   4.543   1.411  0.5017  0.2347  0.0923
 4819SOL    HW219042   3.647   4.454   1.440  1.0849  0.0445 -0.0729
 4819SOL    HW319043   3.666   4.537   1.315 -0.3927  0.6254  0.0625
 4819SOL    MW419044   3.664   4.531   1.402  0.4607  0.2612  0.0666
 4820SOL     OW19045   3.701   5.377   2.278  0.0971 -0.5797  0.1766
 4820SOL    HW219046   3.615   5.371   2.321  0.2792 -0.2088  0.6103
 4820SOL    HW319047   3.690   5.445   2.212  0.6702  1.2224  1.8207
 4820SOL    MW419048   3.688   5.385   2.275  0.1967 -0.2930  0.4507
 4821SOL     OW19049   3.563   3.866   5.940  0.3690  0.3152  0.0031
 4821SOL    HW219050   3.517   3.935   5.892 -0.9409  0.2192  1.0537
 4821SOL    HW319051   3.553   3.788   5.886 -2.1622 -0.0805  0.9364
 4821SOL    MW419052   3.556   3.865   5.926 -0.1378  0.2503  0.2649
 4822SOL     OW19053   2.321   1.694   0.791  0.4175 -0.0415 -0.0036
 4822SOL    HW219054   2.327   1.731   0.703  1.4888  0.2640  0.1764
 4822SOL    HW319055   2.246   1.636   0.788  1.6497 -1.6656 -1.7502
 4822SOL    MW419056   2.312   1.691   0.779  0.7214 -0.2155 -0.2103
 4823SOL     OW19057   5.169   5.514   4.278  0.3714  0.1688  0.1536
 4823SOL    HW219058   5.152   5.524   4.372  0.9648  1.0058  0.1793
 4823SOL    HW319059   5.102   5.568   4.236  0.0356 -0.2952  0.0880
 4823SOL    MW419060   5.158   5.522   4.285  0.4054  0.2180  0.1483
 4824SOL     OW19061   0.586   1.910   3.857  0.4958  0.0333  0.2169
 4824SOL    HW219062   0.514   1.910   3.920  1.1860 -2.3298  1.1359
 4824SOL    HW319063   0.650   1.972   3.892  1.0743 -1.5635  2.2169
 4824SOL    MW419064   0.585   1.918   3.870  0.6632 -0.4892  0.6020
 4825SOL     OW19065   5.457   3.622   1.073  0.3053 -0.0404 -0.7361
 4825SOL    HW219066   5.414   3.676   1.007 -0.1590  1.1568  0.4975
 4825SOL    HW319067   5.545   3.607   1.038  0.2342  0.9907 -1.4023
 4825SOL    MW419068   5.463   3.627   1.060  0.2347  0.2536 -0.6613
 4826SOL     OW19069   3.833   2.250   2.624 -1.0726 -0.3573  0.1952
 4826SOL    HW219070   3.901   2.311   2.595 -0.4436  0.6138  3.3127
 4826SOL    HW319071   3.751   2.288   2.594 -0.5556  1.1551  0.6426
 4826SOL    MW419072   3.831   2.263   2.616 -0.9214 -0.0296  0.6656
 4827SOL     OW19073   1.108   4.111   5.749 -0.1275  0.1863 -0.1442
 4827SOL    HW219074   1.054   4.053   5.695 -0.8889  0.2146  0.5674
 4827SOL    HW319075   1.111   4.194   5.700 -0.1699 -0.0225 -0.5050
 4827SOL    MW419076   1.102   4.114   5.735 -0.2335  0.1625 -0.0979
 4828SOL     OW19077   5.328   1.507   1.415  0.1478 -0.0041  0.1530
 4828SOL    HW219078   5.401   1.545   1.366  0.5147  0.7717  1.2658
 4828SOL    HW319079   5.334   1.413   1.398  1.0471  0.1143 -0.2403
 4828SOL    MW419080   5.339   1.500   1.406  0.3149  0.1139  0.2480
 4829SOL     OW19081   2.362   0.943   1.128  0.7559  0.1100  0.2634
 4829SOL    HW219082   2.407   0.875   1.079  1.3593  1.5418 -1.2438
 4829SOL    HW319083   2.272   0.910   1.137  1.5508 -1.8908  1.6117
 4829SOL    MW419084   2.356   0.930   1.123  0.9404  0.0349  0.2424
 4830SOL     OW19085   2.771   1.077   4.162  0.3500  0.0989  0.3943
 4830SOL    HW219086   2.719   1.003   4.191  0.8424 -0.9457 -1.2449
 4830SOL    HW319087   2.709   1.134   4.117  0.5463 -1.2081 -1.6727
 4830SOL    MW419088   2.756   1.075   4.160  0.4409 -0.2114 -0.0947
 4831SOL     OW19089   3.665   4.294   1.260 -0.3045  0.1221 -0.0431
 4831SOL    HW219090   3.592   4.237   1.237 -0.8437  0.7947 -0.0452
 4831SOL    HW319091   3.731   4.277   1.194 -0.3157 -0.7467  0.1585
 4831SOL    MW419092   3.664   4.284   1.249 -0.3771  0.0962 -0.0168
 4832SOL     OW19093   2.488   1.598   2.916 -0.0525  0.0694  0.4374
 4832SOL    HW219094   2.502   1.657   2.990 -1.1028 -0.3100  0.9581
 4832SOL    HW319095   2.548   1.525   2.932  0.0619  0.2120  0.6657
 4832SOL    MW419096   2.498   1.596   2.928 -0.1760  0.0382  0.5362
 4833SOL     OW19097   5.421   5.346   1.544  0.3690  0.0209 -0.2306
 4833SOL    HW219098   5.383   5.434   1.550  0.2975 -0.0591  0.6704
 4833SOL    HW319099   5.346   5.287   1.555  0.4546 -0.1544 -0.5772
 4833SOL    MW419100   5.406   5.350   1.546  0.3708 -0.0128 -0.1575
 4834SOL     OW19101   0.826   3.180   0.336  0.2883 -0.3432 -0.1611
 4834SOL    HW219102   0.744   3.153   0.295 -0.1790  0.7630  0.0191
 4834SOL    HW319103   0.805   3.189   0.429  0.3311  0.9881 -0.2685
 4834SOL    MW419104   0.813   3.177   0.343  0.2323 -0.0216 -0.1515
 4835SOL     OW19105   3.152   4.828   3.843 -0.5826 -0.2186 -0.1917
 4835SOL    HW219106   3.165   4.869   3.757 -0.7528 -0.6221 -0.4085
 4835SOL    HW319107   3.240   4.829   3.883 -0.4449 -0.3079 -0.4906
 4835SOL    MW419108   3.166   4.834   3.837 -0.5869 -0.2836 -0.2598
 4836SOL     OW19109   5.036   4.663   2.138 -0.6752  0.3753  0.4320
 4836SOL    HW219110   4.968   4.596   2.143  0.0938 -0.8866 -3.2796
 4836SOL    HW319111   4.990   4.743   2.112 -0.8439 -0.4688 -2.0452
 4836SOL    MW419112   5.021   4.665   2.136 -0.5960  0.0974 -0.3845
 4837SOL     OW19113   1.422   4.850   5.630 -0.2302 -0.4325 -0.1945
 4837SOL    HW219114   1.440   4.756   5.635  0.2908 -0.3242  0.0024
 4837SOL    HW319115   1.507   4.892   5.641 -0.2149  0.0471 -1.8658
 4837SOL    MW419116   1.436   4.843   5.632 -0.1594 -0.3549 -0.3890
 4838SOL     OW19117   4.867   5.540   3.068 -0.8077  0.3079  0.2488
 4838SOL    HW219118   4.913   5.507   2.991  1.7433  2.2910  0.7840
 4838SOL    HW319119   4.844   5.461   3.117  2.1024 -0.9065 -0.1018
 4838SOL    MW419120   4.870   5.525   3.064 -0.0872  0.4093  0.2732
 4839SOL     OW19121   5.152   0.505   6.267 -0.0224 -0.1127  0.8147
 4839SOL    HW219122   5.100   0.556   6.205 -1.1658 -1.4770  0.5777
 4839SOL    HW319123   5.157   0.417   6.228  0.7699 -0.5300  1.8029
 4839SOL    MW419124   5.146   0.500   6.254 -0.0687 -0.3478  0.9138
 4840SOL     OW19125   3.291   1.340   2.156  0.5830 -0.1894 -0.1355
 4840SOL    HW219126   3.255   1.396   2.088  2.8521 -0.5146 -1.7181
 4840SOL    HW319127   3.220   1.280   2.179 -1.0133  1.5446 -0.3581
 4840SOL    MW419128   3.277   1.339   2.150  0.6718 -0.0035 -0.3737
 4841SOL     OW19129   5.130   3.126   3.593 -0.4670  0.6793  0.1763
 4841SOL    HW219130   5.055   3.094   3.644 -0.3023  0.4549  0.2792
 4841SOL    HW319131   5.190   3.051   3.590 -1.4913 -0.1330 -2.3956
 4841SOL    MW419132   5.128   3.112   3.600 -0.5804  0.5425 -0.1495
 4842SOL     OW19133   0.598   4.006   2.719 -0.1636  0.2557 -0.0507
 4842SOL    HW219134   0.608   4.061   2.642  0.0824 -0.9298 -0.8874
 4842SOL    HW319135   0.553   3.927   2.688  0.9853 -0.7676  0.7442
 4842SOL    MW419136   0.593   4.003   2.705  0.0204 -0.0357 -0.0562
 4843SOL     OW19137   1.741   5.589   3.739  0.1472 -0.1351  0.0602
 4843SOL    HW219138   1.722   5.548   3.654  1.0994 -1.4545  0.4633
 4843SOL    HW319139   1.737   5.518   3.802  0.4908  0.6497  0.9913
 4843SOL    MW419140   1.738   5.574   3.736  0.3182 -0.2056  0.2362
 4844SOL     OW19141   1.372   5.432   1.566  0.3121  0.7645 -0.2441
 4844SOL    HW219142   1.294   5.466   1.610 -0.1239 -0.8033  0.2640
 4844SOL    HW319143   1.383   5.489   1.490 -1.2460  1.0962 -0.2684
 4844SOL    MW419144   1.363   5.444   1.562  0.0490  0.6014 -0.1803
 4845SOL     OW19145   6.382   6.043   4.490 -0.2288 -0.2128 -0.1936
 4845SOL    HW219146   6.370   6.019   4.582  0.2018 -0.9453 -0.3161
 4845SOL    HW319147   6.303   6.093   4.468 -0.5007 -0.3292  0.4737
 4845SOL    MW419148   6.370   6.046   4.500 -0.2078 -0.3248 -0.1217
 4846SOL     OW19149   0.575   4.606   1.937  0.0276  0.1432 -0.0660
 4846SOL    HW219150   0.519   4.531   1.914 -0.4893  0.9154 -1.4591
 4846SOL    HW319151   0.605   4.640   1.853 -0.2673  1.8903  0.4931
 4846SOL    MW419152   0.571   4.600   1.923 -0.0795  0.4756 -0.1761
 4847SOL     OW19153   4.968   4.185   5.811  0.0051 -0.3317 -0.4628
 4847SOL    HW219154   5.041   4.207   5.869  0.6574 -1.6424 -0.7446
 4847SOL    HW319155   4.954   4.265   5.760  1.2821 -0.0560 -0.4338
 4847SOL    MW419156   4.976   4.199   5.812  0.2597 -0.4683 -0.4961
 4848SOL     OW19157   3.529   4.436   1.774 -0.1264  0.9378  0.3293
 4848SOL    HW219158   3.588   4.438   1.849 -0.3556 -0.4490  0.5750
 4848SOL    HW319159   3.503   4.527   1.761  2.2110  1.6285  0.0838
 4848SOL    MW419160   3.533   4.448   1.782  0.1518  0.8459  0.3293
 4849SOL     OW19161   3.967   0.763   2.018 -0.0763  0.3857  0.1270
 4849SOL    HW219162   3.880   0.752   2.056 -0.6578  1.0053 -0.9714
 4849SOL    HW319163   4.026   0.720   2.080 -1.2500 -0.8072  0.4738
 4849SOL    MW419164   3.964   0.756   2.031 -0.3078  0.3101  0.0278
 4850SOL     OW19165   0.691   5.158   1.857 -0.1358 -0.2279  0.0668
 4850SOL    HW219166   0.600   5.159   1.829  0.2100  0.4257 -1.1005
 4850SOL    HW319167   0.718   5.067   1.847 -0.6178 -0.4049  0.3204
 4850SOL    MW419168   0.683   5.146   1.852 -0.1538 -0.1651 -0.0538
 4851SOL     OW19169   1.509   4.569   4.848 -0.0526  0.2288 -0.6488
 4851SOL    HW219170   1.543   4.639   4.791 -0.8626  0.0760 -1.3353
 4851SOL    HW319171   1.517   4.489   4.796  0.3031 -0.1015 -0.0956
 4851SOL    MW419172   1.515   4.568   4.833 -0.1126  0.1650 -0.6664
 4852SOL     OW19173   2.397   1.322   3.617  0.1118 -0.2917  0.2569
 4852SOL    HW219174   2.454   1.267   3.670  0.0905 -0.2017  0.3744
 4852SOL    HW319175   2.309   1.302   3.649  0.2210  1.1757  1.6045
 4852SOL    MW419176   2.393   1.312   3.629  0.1234 -0.0862  0.4502
 4853SOL     OW19177   4.297   5.614   2.066 -0.4800  0.0295 -0.1626
 4853SOL    HW219178   4.288   5.579   2.155  1.3411 -0.6086 -0.1723
 4853SOL    HW319179   4.223   5.579   2.018 -1.5841  0.5141  1.1374
 4853SOL    MW419180   4.286   5.605   2.072 -0.3854  0.0092  0.0076
 4854SOL     OW19181   5.281   1.917   5.900 -0.1742  0.2068  0.0307
 4854SOL    HW219182   5.374   1.939   5.897  0.1926 -1.3239 -1.2789
 4854SOL    HW319183   5.252   1.946   5.987  1.8856 -0.6708  1.0625
 4854SOL    MW419184   5.289   1.924   5.911  0.1460 -0.1110 -0.0059
 4855SOL     OW19185   4.919   1.405   3.987 -0.1477 -0.6553  0.0870
 4855SOL    HW219186   4.985   1.470   3.962  0.4466 -1.4762 -0.5426
 4855SOL    HW319187   4.887   1.435   4.072  0.3175  0.3033 -0.0608
 4855SOL    MW419188   4.924   1.417   3.995 -0.0079 -0.6371 -0.0156
 4856SOL     OW19189   5.291   3.192   0.381 -0.5262  0.5421  0.3905
 4856SOL    HW219190   5.346   3.135   0.327 -1.0165  1.4901 -1.1921
 4856SOL    HW319191   5.317   3.281   0.356 -1.4672  1.0008  0.9901
 4856SOL    MW419192   5.302   3.196   0.371 -0.7151  0.7277  0.2608
 4857SOL     OW19193   4.375   2.212   5.570 -0.8637  0.0594  0.3188
 4857SOL    HW219194   4.410   2.266   5.499 -2.0149 -0.5778 -0.7662
 4857SOL    HW319195   4.452   2.173   5.611 -0.2332 -0.3865 -1.2406
 4857SOL    MW419196   4.390   2.214   5.566 -0.9324 -0.0835 -0.0301
 4858SOL     OW19197   6.433   2.545   0.517 -0.1050 -0.1385  0.0555
 4858SOL    HW219198   6.440   2.513   0.607 -1.2342  1.1070  0.6309
 4858SOL    HW319199   6.377   2.623   0.524 -0.7235 -0.3681 -1.8178
 4858SOL    MW419200   6.427   2.551   0.530 -0.3356 -0.0045 -0.1157
 4859SOL     OW19201   2.537   2.074   4.713 -0.0464 -0.5871 -0.0250
 4859SOL    HW219202   2.621   2.095   4.673 -0.3742  0.9284  0.0213
 4859SOL    HW319203   2.534   1.978   4.715  2.1873 -0.6901  1.0665
 4859SOL    MW419204   2.548   2.064   4.708  0.2051 -0.4007  0.1252
 4860SOL     OW19205   1.538   0.566   0.206 -0.4246 -0.2670 -0.2863
 4860SOL    HW219206   1.485   0.539   0.132 -0.0112 -0.1013 -0.6480
 4860SOL    HW319207   1.551   0.485   0.257  0.1007 -0.5836 -0.9133
 4860SOL    MW419208   1.533   0.551   0.203 -0.3007 -0.2869 -0.4167
 4861SOL     OW19209   3.841   2.744   0.458  0.1178  0.0321  0.5986
 4861SOL    HW219210   3.886   2.660   0.452  1.5745  0.8710 -1.1292
 4861SOL    HW319211   3.908   2.806   0.488 -0.4136  0.9110  0.0440
 4861SOL    MW419212   3.856   2.741   0.461  0.2398  0.2587  0.2975
 4862SOL     OW19213   0.320   1.459   6.350 -0.2978  0.2988 -0.3322
 4862SOL    HW219214   0.344   1.551   6.354  1.2898 -0.0752 -0.6540
 4862SOL    HW319215   0.400   1.412   6.372 -1.1489 -1.0136  0.1014
 4862SOL    MW419216   0.334   1.465   6.354 -0.2007  0.0763 -0.3174
 4863SOL     OW19217   3.294   2.624   0.557 -0.1491 -0.4765  0.3360
 4863SOL    HW219218   3.356   2.575   0.503 -0.1383 -0.9282  0.7514
 4863SOL    HW319219   3.331   2.620   0.645  0.3884  1.1641  0.2188
 4863SOL    MW419220   3.307   2.617   0.561 -0.0767 -0.3196  0.3754
 4864SOL     OW19221   1.109   3.655   0.206 -0.8710 -0.6385 -0.0344
 4864SOL    HW219222   1.093   3.595   0.279 -0.3644 -2.5168 -1.3853
 4864SOL    HW319223   1.035   3.717   0.209  0.5585  1.1951  3.7054
 4864SOL    MW419224   1.097   3.655   0.216 -0.6156 -0.6444  0.2808
 4865SOL     OW19225   2.556   2.981   4.576 -0.6044  0.3637 -0.5802
 4865SOL    HW219226   2.492   2.957   4.509  0.8871  2.8916 -3.0957
 4865SOL    HW319227   2.572   3.074   4.562  1.5874  0.4533  1.7778
 4865SOL    MW419228   2.550   2.990   4.566 -0.1184  0.7090 -0.6010
 4866SOL     OW19229   1.604   3.367   3.399  0.3259 -0.7147 -0.0779
 4866SOL    HW219230   1.640   3.444   3.442 -0.3780  0.0609 -0.8599
 4866SOL    HW319231   1.614   3.297   3.464  2.6135 -0.4081 -0.0276
 4866SOL    MW419232   1.610   3.368   3.414  0.5348 -0.5719 -0.1744
 4867SOL     OW19233   3.793   0.168   6.208  0.8653  0.2998  0.3449
 4867SOL    HW219234   3.761   0.256   6.191  1.9867  0.2028 -3.1876
 4867SOL    HW319235   3.747   0.113   6.144  0.5131 -1.6708  2.1597
 4867SOL    MW419236   3.782   0.172   6.197  0.9668  0.0270  0.1182
 4868SOL     OW19237   3.189   5.416   0.382 -0.6064  0.3667 -0.4594
 4868SOL    HW219238   3.271   5.465   0.388 -0.6583  0.5492 -1.1288
 4868SOL    HW319239   3.120   5.483   0.388 -0.6958  0.2533 -0.2353
 4868SOL    MW419240   3.190   5.431   0.383 -0.6251  0.3758 -0.5182
 4869SOL     OW19241   0.537   5.526   1.239 -0.4400  0.4198 -0.8387
 4869SOL    HW219242   0.542   5.537   1.144  1.3256  2.2983 -0.6132
 4869SOL    HW319243   0.626   5.543   1.270 -0.9050 -0.4426  1.1453
 4869SOL    MW419244   0.549   5.530   1.231 -0.2684  0.5539 -0.5472
 4870SOL     OW19245   2.985   5.993   1.393 -0.1494 -0.3583  0.0067
 4870SOL    HW219246   2.973   6.013   1.300  1.5470  1.1719  0.0473
 4870SOL    HW319247   3.078   6.012   1.409 -0.7261  0.8325  2.3099
 4870SOL    MW419248   2.996   5.998   1.383 -0.0017  0.0007  0.3159
 4871SOL     OW19249   5.886   2.735   3.241  0.5677  0.9254  0.1175
 4871SOL    HW219250   5.813   2.778   3.195  2.0902  1.9540 -1.4636
 4871SOL    HW319251   5.844   2.682   3.308 -1.6503  1.3188 -0.8734
 4871SOL    MW419252   5.871   2.734   3.243  0.4760  1.1130 -0.2218
 4872SOL     OW19253   2.871   2.286   0.706 -0.3097 -0.1298  0.0708
 4872SOL    HW219254   2.936   2.344   0.667  0.5618 -0.3399  1.1398
 4872SOL    HW319255   2.787   2.326   0.685  0.2795  1.7760  1.1302
 4872SOL    MW419256   2.868   2.299   0.698 -0.1170  0.0939  0.3516
 4873SOL     OW19257   2.617   1.380   5.419  0.5209  0.2650  0.1250
 4873SOL    HW219258   2.649   1.292   5.401  0.0140 -0.1002  0.9595
 4873SOL    HW319259   2.690   1.437   5.394  1.2082 -0.4427  0.4653
 4873SOL    MW419260   2.631   1.376   5.413  0.5447  0.1234  0.2800
 4874SOL     OW19261   1.261   3.971   3.152 -0.2552 -0.6905 -0.5510
 4874SOL    HW219262   1.240   3.878   3.157 -1.6126 -0.4447 -1.1724
 4874SOL    HW319263   1.333   3.983   3.214 -2.0068 -1.6073  1.8117
 4874SOL    MW419264   1.268   3.961   3.161 -0.6654 -0.7790 -0.3212
 4875SOL     OW19265   3.677   3.421   3.481  0.5426 -0.0930  0.1779
 4875SOL    HW219266   3.666   3.512   3.508 -0.7139 -0.0760 -0.3158
 4875SOL    HW319267   3.613   3.372   3.533 -2.1864 -0.0062 -2.8022
 4875SOL    MW419268   3.667   3.426   3.491  0.0168 -0.0793 -0.2804
 4876SOL     OW19269   4.435   5.159   2.711 -0.3383 -0.3963  0.6077
 4876SOL    HW219270   4.344   5.149   2.741 -1.1175 -0.6611 -1.6856
 4876SOL    HW319271   4.431   5.222   2.640  1.3392 -0.2037  0.6393
 4876SOL    MW419272   4.422   5.166   2.706 -0.2198 -0.4058  0.3093
 4877SOL     OW19273   4.317   4.754   2.569  0.1904 -0.3505 -0.2410
 4877SOL    HW219274   4.304   4.838   2.524  0.2652 -0.5574 -0.6566
 4877SOL    HW319275   4.291   4.688   2.504  2.7828 -0.7819 -0.9946
 4877SOL    MW419276   4.312   4.756   2.554  0.5423 -0.4347 -0.3952
 4878SOL     OW19277   3.141   2.844   4.591 -0.4470 -0.3748  0.0594
 4878SOL    HW219278   3.068   2.824   4.533 -0.2759  0.9337 -0.6407
 4878SOL    HW319279   3.209   2.879   4.533 -0.5155  1.5776  1.0881
 4878SOL    MW419280   3.141   2.846   4.576 -0.4334  0.0554  0.1028
 4879SOL     OW19281   4.798   6.376   5.062 -0.0265 -0.2249  0.1418
 4879SOL    HW219282   4.785   6.325   5.142 -3.4016 -0.0300 -0.1357
 4879SOL    HW319283   4.819   6.310   4.995 -0.9952 -0.8529  0.4440
 4879SOL    MW419284   4.799   6.360   5.063 -0.5996 -0.2821  0.1450
 4880SOL     OW19285   1.346   5.236   0.373  0.4718  0.0308  0.2366
 4880SOL    HW219286   1.295   5.203   0.447 -0.7480 -1.3694 -1.1622
 4880SOL    HW319287   1.372   5.324   0.399 -2.6269  0.8094  1.0912
 4880SOL    MW419288   1.343   5.243   0.386 -0.0979 -0.0512  0.1648
 4881SOL     OW19289   5.798   5.070   3.080  0.2535  0.1872  0.1350
 4881SOL    HW219290   5.820   4.977   3.074  3.3447  0.6987  1.3637
 4881SOL    HW319291   5.764   5.081   3.169 -0.2606  0.2338 -0.0620
 4881SOL    MW419292   5.797   5.059   3.091  0.5935  0.2609  0.2711
 4882SOL     OW19293   4.814   5.331   4.474  0.5230 -0.1844  0.3215
 4882SOL    HW219294   4.869   5.399   4.513  1.2065 -0.1389 -0.6671
 4882SOL    HW319295   4.836   5.251   4.522  0.7342  0.0311  0.5862
 4882SOL    MW419296   4.825   5.329   4.485  0.6410 -0.1500  0.2260
 4883SOL     OW19297   3.339   1.764   1.553  0.1226 -0.3385  0.6098
 4883SOL    HW219298   3.366   1.678   1.585  0.1302 -0.2660  0.8008
 4883SOL    HW319299   3.402   1.825   1.591  1.9114 -0.5184 -1.8375
 4883SOL    MW419300   3.351   1.761   1.562  0.3596 -0.3527  0.3121
 4884SOL     OW19301   0.791   5.970   4.912  0.4748  0.1044  0.4959
 4884SOL    HW219302   0.725   5.924   4.965  0.0994  1.6006  1.3899
 4884SOL    HW319303   0.870   5.917   4.922 -0.3860 -1.3872 -0.0916
 4884SOL    MW419304   0.793   5.957   4.920  0.3117  0.1050  0.5363
 4885SOL     OW19305   5.044   2.672   1.823 -0.2491 -0.0755 -0.1796
 4885SOL    HW219306   4.969   2.616   1.804  0.2736 -1.1547  0.8814
 4885SOL    HW319307   5.025   2.753   1.775 -0.3184 -1.6332 -3.0056
 4885SOL    MW419308   5.032   2.675   1.814 -0.1893 -0.4234 -0.4125
 4886SOL     OW19309   2.174   0.979   5.385 -0.2745  0.0123 -0.6244
 4886SOL    HW219310   2.169   0.990   5.290  0.2075 -0.0901 -0.6644
 4886SOL    HW319311   2.212   0.892   5.396  3.7931  1.5874 -0.4067
 4886SOL    MW419312   2.179   0.969   5.374  0.3258  0.2066 -0.6010
 4887SOL     OW19313   5.594   1.991   3.155  0.1634  0.1106  0.0479
 4887SOL    HW219314   5.616   2.061   3.217 -2.9724 -0.6058  2.2323
 4887SOL    HW319315   5.666   1.992   3.092  2.9742  1.7759  2.9410
 4887SOL    MW419316   5.606   2.001   3.155  0.1205  0.2358  0.7178
 4888SOL     OW19317   0.232   2.871   4.548  0.1577 -0.2126  0.0536
 4888SOL    HW219318   0.227   2.958   4.508 -0.4689 -0.6914 -0.9193
 4888SOL    HW319319   0.294   2.823   4.493 -0.3615 -0.7340 -0.0780
 4888SOL    MW419320   0.240   2.876   4.535  0.0065 -0.3446 -0.0921
 4889SOL     OW19321   2.260   2.519   2.414 -0.5285  0.8602  0.5086
 4889SOL    HW219322   2.326   2.481   2.356 -0.3235  2.8662 -0.6988
 4889SOL    HW319323   2.185   2.534   2.357 -0.7061  1.9016  0.9893
 4889SOL    MW419324   2.259   2.516   2.399 -0.5249  1.2623  0.4127
 4890SOL     OW19325   2.119   2.074   5.709 -0.5806  0.5525  0.0346
 4890SOL    HW219326   2.064   2.008   5.751 -0.0139 -0.2286 -0.4209
 4890SOL    HW319327   2.159   2.122   5.782 -0.4891 -0.0386  0.3796
 4890SOL    MW419328   2.117   2.072   5.724 -0.4937  0.3715  0.0200
 4891SOL     OW19329   4.797   0.554   2.905 -0.2612 -0.6383  0.1824
 4891SOL    HW219330   4.708   0.523   2.923 -0.9482  1.7830  1.3883
 4891SOL    HW319331   4.846   0.536   2.985 -0.1032 -0.5291  0.1118
 4891SOL    MW419332   4.792   0.547   2.918 -0.3310 -0.3045  0.3322
 4892SOL     OW19333   3.027   4.279   5.942 -0.4388  0.3169 -0.0178
 4892SOL    HW219334   3.017   4.215   5.872 -1.3908 -0.2549  0.6128
 4892SOL    HW319335   3.042   4.226   6.020  1.3476  0.9679  0.1236
 4892SOL    MW419336   3.027   4.264   5.943 -0.3287  0.3274  0.0840
 4893SOL     OW19337   1.878   1.170   0.452  0.7161 -0.6604  0.0427
 4893SOL    HW219338   1.960   1.216   0.467  0.2079  0.4102 -0.3529
 4893SOL    HW319339   1.830   1.180   0.534 -0.0383  0.9236 -0.5499
 4893SOL    MW419340   1.882   1.177   0.465  0.5495 -0.3102 -0.0877
 4894SOL     OW19341   2.903   2.694   6.354  0.1339  0.5332  0.2782
 4894SOL    HW219342   2.974   2.756   6.368 -0.1063  0.7699  0.4648
 4894SOL    HW319343   2.922   2.621   6.413 -0.1809  0.9412  0.9006
 4894SOL    MW419344   2.915   2.693   6.364  0.0607  0.6183  0.3849
 4895SOL     OW19345   4.049   3.728   4.880  0.3254  0.3842 -0.5034
 4895SOL    HW219346   4.115   3.665   4.852  1.0954  0.5191  0.8937
 4895SOL    HW319347   4.090   3.776   4.952 -0.9207  1.1895 -0.2883
 4895SOL    MW419348   4.063   3.726   4.886  0.2626  0.5082 -0.2907
 4896SOL     OW19349   6.234   0.752   2.847  0.2972  0.4477  0.6702
 4896SOL    HW219350   6.233   0.847   2.862 -0.1533  0.6716 -0.6926
 4896SOL    HW319351   6.325   0.731   2.829  0.5264  0.4842  1.7249
 4896SOL    MW419352   6.246   0.762   2.847  0.2680  0.4821  0.6295
 4897SOL     OW19353   5.589   1.632   3.766 -0.2302  0.3741 -0.4649
 4897SOL    HW219354   5.585   1.726   3.780 -1.0970  0.2550  0.1686
 4897SOL    HW319355   5.512   1.597   3.812 -0.7907 -0.4826 -1.9749
 4897SOL    MW419356   5.578   1.640   3.774 -0.4185  0.2454 -0.5806
 4898SOL     OW19357   3.438   1.656   3.284  0.2713 -0.5004  0.3328
 4898SOL    HW219358   3.389   1.597   3.227  2.5458 -0.9611 -1.2767
 4898SOL    HW319359   3.439   1.739   3.236 -1.5769  0.4989  1.8671
 4898SOL    MW419360   3.431   1.659   3.270  0.3276 -0.4293  0.3229
 4899SOL     OW19361   4.227   6.060   1.642 -0.4440 -0.1365 -0.7804
 4899SOL    HW219362   4.249   6.123   1.711 -0.1993 -1.4811  0.4278
 4899SOL    HW319363   4.311   6.040   1.601 -0.3608 -0.4158 -0.4839
 4899SOL    MW419364   4.241   6.066   1.646 -0.4008 -0.3508 -0.5819
 4900SOL     OW19365   1.271   4.852   0.512 -0.2992 -0.3180  0.8463
 4900SOL    HW219366   1.294   4.919   0.577 -0.8509  0.4718  0.2410
 4900SOL    HW319367   1.207   4.895   0.455  0.9149 -0.6451 -0.8345
 4900SOL    MW419368   1.266   4.867   0.513 -0.2118 -0.2570  0.5447
 4901SOL     OW19369   0.669   5.915   5.723 -0.2271  0.1144 -0.0428
 4901SOL    HW219370   0.711   5.880   5.644 -0.3784 -0.2087  0.0136
 4901SOL    HW319371   0.722   5.990   5.748  0.3544 -0.3299  0.0690
 4901SOL    MW419372   0.682   5.920   5.716 -0.1703  0.0131 -0.0206
 4902SOL     OW19373   4.206   4.334   0.280  0.0587  0.2063  0.6102
 4902SOL    HW219374   4.240   4.282   0.207 -0.6579 -0.2624  0.6026
 4902SOL    HW319375   4.137   4.388   0.241 -0.5075 -0.2355  0.9761
 4902SOL    MW419376   4.201   4.334   0.265 -0.1105  0.0862  0.6575
 4903SOL     OW19377   6.439   0.591   5.950 -0.1075 -0.1137  0.6571
 4903SOL    HW219378   6.518   0.570   6.000 -0.2251  1.4889  1.5760
 4903SOL    HW319379   6.469   0.600   5.860  0.6618  0.0017  0.9205
 4903SOL    MW419380   6.453   0.589   5.945 -0.0215  0.1130  0.8131
 4904SOL     OW19381   2.734   4.771   1.377 -0.2230 -0.6625 -0.2593
 4904SOL    HW219382   2.660   4.829   1.395  0.0282 -0.6752  0.8900
 4904SOL    HW319383   2.715   4.734   1.291 -0.6574  0.7062 -0.7788
 4904SOL    MW419384   2.722   4.774   1.368 -0.2471 -0.4836 -0.1762
 4905SOL     OW19385   1.845   2.194   5.622 -0.1757  0.2242  0.3000
 4905SOL    HW219386   1.892   2.219   5.701  0.4753  1.4856 -0.4509
 4905SOL    HW319387   1.900   2.126   5.582  0.5861  1.0680 -0.1224
 4905SOL    MW419388   1.858   2.188   5.627  0.0107  0.5019  0.1452
 4906SOL     OW19389   5.112   4.733   5.533  0.5136  0.8759  0.3962
 4906SOL    HW219390   5.162   4.662   5.574  0.1957 -0.4129 -1.3331
 4906SOL    HW319391   5.073   4.780   5.606  1.6819 -0.0226  1.6453
 4906SOL    MW419392   5.114   4.729   5.548  0.6258  0.5873  0.3328
 4907SOL     OW19393   5.550   0.489   1.869 -0.2503 -0.0746 -0.0867
 4907SOL    HW219394   5.504   0.546   1.808  1.2018 -0.2758 -1.4656
 4907SOL    HW319395   5.590   0.548   1.932 -0.5398  0.2684 -0.2227
 4907SOL    MW419396   5.550   0.504   1.869 -0.0969 -0.0559 -0.2865
 4908SOL     OW19397   0.080   1.306   3.871  0.3438 -0.4688  0.1427
 4908SOL    HW219398   0.027   1.335   3.946  0.0568  3.3031 -1.3006
 4908SOL    HW319399   0.169   1.299   3.906 -0.1455 -1.2298  1.3219
 4908SOL    MW419400   0.084   1.309   3.886  0.2414 -0.0716  0.1079
 4909SOL     OW19401   2.695   4.701   5.462 -0.0757 -0.1431  0.6166
 4909SOL    HW219402   2.708   4.752   5.382 -0.9232 -0.0375  0.5444
 4909SOL    HW319403   2.701   4.610   5.434 -1.3379 -0.1266  0.2525
 4909SOL    MW419404   2.698   4.696   5.448 -0.3540 -0.1270  0.5591
 4910SOL     OW19405   3.869   5.791   4.727  0.8418 -0.2653 -0.5321
 4910SOL    HW219406   3.937   5.847   4.765 -1.4535  1.8685  0.6916
 4910SOL    HW319407   3.901   5.702   4.740  3.2775  0.6265  0.1584
 4910SOL    MW419408   3.882   5.786   4.734  0.8603  0.1339 -0.2795
 4911SOL     OW19409   0.428   5.094   2.167  0.4645 -0.2357  0.2224
 4911SOL    HW219410   0.409   5.089   2.261 -3.4855  2.1331 -0.2035
 4911SOL    HW319411   0.397   5.010   2.132 -0.2383 -0.2145  0.7742
 4911SOL    MW419412   0.421   5.082   2.175 -0.1494  0.0796  0.2390
 4912SOL     OW19413   5.819   0.836   1.761 -0.0402  0.3823  0.0730
 4912SOL    HW219414   5.776   0.913   1.723  1.4612  0.9272 -0.6226
 4912SOL    HW319415   5.827   0.856   1.854 -2.2832 -0.2431  0.4404
 4912SOL    MW419416   5.815   0.849   1.768 -0.1380  0.3717  0.0297
 4913SOL     OW19417   1.840   0.954   2.261 -0.6323 -0.0282 -0.4230
 4913SOL    HW219418   1.839   0.970   2.355  0.5940  1.8558 -0.6773
 4913SOL    HW319419   1.762   0.998   2.227  0.8304  2.6219 -0.6604
 4913SOL    MW419420   1.829   0.962   2.269 -0.2775  0.5700 -0.4879
 4914SOL     OW19421   0.420   3.103   4.181  0.0035  0.4722  0.0208
 4914SOL    HW219422   0.352   3.110   4.247  1.4877  2.6083  1.4427
 4914SOL    HW319423   0.482   3.040   4.217  0.1645  0.6586  0.0740
 4914SOL    MW419424   0.419   3.096   4.194  0.2205  0.7786  0.2155
 4915SOL     OW19425   5.451   0.096   5.916  0.4590 -0.1153  0.1545
 4915SOL    HW219426   5.497   0.180   5.907  1.0844  0.0997  3.7312
 4915SOL    HW319427   5.374   0.117   5.969 -1.2807 -1.3154 -1.7588
 4915SOL    MW419428   5.447   0.110   5.922  0.3120 -0.2453  0.3740
 4916SOL     OW19429   0.295   0.723   3.655  0.1871 -0.5895  0.1103
 4916SOL    HW219430   0.296   0.742   3.749  2.5684  0.3515 -0.0125
 4916SOL    HW319431   0.272   0.631   3.649  1.4524 -1.0650  1.7614
 4916SOL    MW419432   0.292   0.714   3.666  0.6682 -0.5281  0.3119
 4917SOL     OW19433   0.773   6.098   0.996  0.1813 -0.4635  0.2283
 4917SOL    HW219434   0.825   6.169   1.034  1.2557 -1.2045  0.2164
 4917SOL    HW319435   0.788   6.023   1.054  0.7129 -1.2232 -0.8384
 4917SOL    MW419436   0.782   6.097   1.009  0.3932 -0.6615  0.0860
 4918SOL     OW19437   3.756   6.207   6.161 -0.1674 -0.8419  0.3761
 4918SOL    HW219438   3.681   6.183   6.216 -0.2787  0.9805  1.1038
 4918SOL    HW319439   3.722   6.274   6.102  0.7962 -0.1798  0.5380
 4918SOL    MW419440   3.742   6.213   6.161 -0.0550 -0.5141  0.4935
 4919SOL     OW19441   5.332   1.443   1.067  0.3946 -0.1455 -0.1894
 4919SOL    HW219442   5.275   1.369   1.045  1.4698 -1.2070  0.4933
 4919SOL    HW319443   5.272   1.511   1.097 -0.6308 -0.6410 -1.0374
 4919SOL    MW419444   5.316   1.442   1.068  0.4011 -0.3509 -0.2112
 4920SOL     OW19445   0.151   6.018   1.348 -0.5354  1.2039  0.1324
 4920SOL    HW219446   0.199   5.993   1.427 -1.7630  0.2753  0.6176
 4920SOL    HW319447   0.181   5.957   1.281 -0.6304  0.9878  0.2863
 4920SOL    MW419448   0.161   6.007   1.349 -0.7099  1.0529  0.2167
 4921SOL     OW19449   4.800   3.196   3.583  0.0700 -0.4182  0.2344
 4921SOL    HW219450   4.790   3.103   3.606 -1.7019 -0.4307 -0.5031
 4921SOL    HW319451   4.798   3.198   3.488  0.8467  0.3208  0.2210
 4921SOL    MW419452   4.799   3.184   3.574 -0.0613 -0.3223  0.1353
 4922SOL     OW19453   4.389   4.514   5.991 -0.1780  0.3564  0.0109
 4922SOL    HW219454   4.327   4.574   6.033 -0.0094  0.3743  0.2403
 4922SOL    HW319455   4.449   4.490   6.061 -1.1880 -1.3503  0.3470
 4922SOL    MW419456   4.388   4.519   6.006 -0.2890  0.1336  0.0855
 4923SOL     OW19457   4.416   3.248   1.524  0.0124  0.0321 -0.1089
 4923SOL    HW219458   4.458   3.277   1.605  0.1999 -2.6895  0.8657
 4923SOL    HW319459   4.458   3.300   1.455  2.1255  0.2230  1.2385
 4923SOL    MW419460   4.427   3.259   1.525  0.3160 -0.3018  0.1974
 4924SOL     OW19461   1.683   3.203   5.957  0.3378  0.8301  0.7360
 4924SOL    HW219462   1.601   3.158   5.932  1.5428 -1.3579  0.4356
 4924SOL    HW319463   1.662   3.246   6.039 -1.2891  0.8057  0.3702
 4924SOL    MW419464   1.669   3.203   5.964  0.2821  0.5382  0.6481
 4925SOL     OW19465   4.448   2.483   1.125 -0.4004  0.1925  0.1163
 4925SOL    HW219466   4.367   2.450   1.164 -1.1173 -0.0773 -1.5501
 4925SOL    HW319467   4.506   2.497   1.200 -1.1856 -1.7715  1.1563
 4925SOL    MW419468   4.445   2.480   1.140 -0.5986 -0.1022  0.0337
 4926SOL     OW19469   4.420   5.974   0.369 -0.5113  0.0546  0.1325
 4926SOL    HW219470   4.459   6.059   0.347  0.8904 -0.5197  0.2559
 4926SOL    HW319471   4.335   5.974   0.325  0.9176  0.1329 -2.8606
 4926SOL    MW419472   4.414   5.985   0.361 -0.1378 -0.0109 -0.2461
 4927SOL     OW19473   3.537   2.356   3.520 -0.4355  0.2397 -0.4913
 4927SOL    HW219474   3.548   2.414   3.595  1.1977  0.7635 -1.1032
 4927SOL    HW319475   3.514   2.271   3.558  1.5963  0.1707  0.7175
 4927SOL    MW419476   3.535   2.352   3.535  0.0481  0.2997 -0.4125
 4928SOL     OW19477   3.005   3.275   1.497  0.2154 -0.0328 -0.4222
 4928SOL    HW219478   2.962   3.325   1.567 -0.1370 -1.4782  0.4255
 4928SOL    HW319479   2.947   3.286   1.421 -0.6690 -0.4258  0.1875
 4928SOL    MW419480   2.992   3.283   1.496  0.0522 -0.2753 -0.2299
 4929SOL     OW19481   3.860   1.535   3.259  0.1579 -0.1506 -0.4215
 4929SOL    HW219482   3.790   1.574   3.312 -0.3680 -1.4689 -0.1065
 4929SOL    HW319483   3.816   1.505   3.179  0.7535  0.8540 -1.1426
 4929SOL    MW419484   3.845   1.536   3.256  0.1671 -0.1920 -0.4751
 4930SOL     OW19485   4.423   5.699   0.290  0.3621 -0.0192 -0.0971
 4930SOL    HW219486   4.436   5.789   0.321  0.7804 -0.3848  0.8165
 4930SOL    HW319487   4.401   5.650   0.369 -1.4285 -0.4358 -0.8112
 4930SOL    MW419488   4.422   5.705   0.305  0.1810 -0.1224 -0.0707
 4931SOL     OW19489   4.476   3.022   4.223 -0.4287 -0.2966 -0.7231
 4931SOL    HW219490   4.426   2.988   4.149 -0.2195 -0.3025 -0.8621
 4931SOL    HW319491   4.458   3.116   4.223 -1.1859 -0.4357 -0.2029
 4931SOL    MW419492   4.467   3.030   4.213 -0.5010 -0.3158 -0.6728
 4932SOL     OW19493   5.097   5.671   5.859  0.3754 -0.0422 -0.1250
 4932SOL    HW219494   5.126   5.583   5.882  0.5758  0.5314  1.9504
 4932SOL    HW319495   5.066   5.709   5.941 -0.1449  1.6632 -1.0665
 4932SOL    MW419496   5.097   5.665   5.873  0.3332  0.2585  0.0246
 4933SOL     OW19497   3.378   4.556   3.842 -0.7309 -0.2562  0.2782
 4933SOL    HW219498   3.331   4.519   3.918 -1.0643 -0.7546 -0.1583
 4933SOL    HW319499   3.380   4.650   3.859  0.4940 -0.4810  1.6180
 4933SOL    MW419500   3.372   4.564   3.854 -0.6132 -0.3516  0.3974
 4934SOL     OW19501   3.352   2.718   4.204 -0.4849  0.5627 -0.1945
 4934SOL    HW219502   3.445   2.740   4.199 -0.7644  1.5884 -0.9731
 4934SOL    HW319503   3.337   2.657   4.131  0.4937 -3.2998  2.4737
 4934SOL    MW419504   3.362   2.713   4.194 -0.3927  0.1884  0.0548
 4935SOL     OW19505   1.883   3.065   5.671 -0.5539  0.0729 -0.1326
 4935SOL    HW219506   1.909   2.974   5.683 -1.1464  0.1429  2.1266
 4935SOL    HW319507   1.789   3.066   5.686 -0.7550  0.9166 -1.2527
 4935SOL    MW419508   1.874   3.053   5.674 -0.6586  0.1935  0.0177
 4936SOL     OW19509   3.289   0.855   5.288 -0.4583 -0.0141  0.1516
 4936SOL    HW219510   3.296   0.933   5.343  0.7989  0.6639 -0.9094
 4936SOL    HW319511   3.208   0.869   5.238 -1.3111 -0.3745  1.3978
 4936SOL    MW419512   3.279   0.867   5.289 -0.4049  0.0278  0.1760
 4937SOL     OW19513   4.146   3.700   1.763  0.2825  0.1233  0.6931
 4937SOL    HW219514   4.072   3.639   1.766 -0.0082  0.4231 -0.0493
 4937SOL    HW319515   4.111   3.783   1.795 -0.3032  0.8186 -1.5251
 4937SOL    MW419516   4.132   3.703   1.767  0.1669  0.2546  0.3025
 4938SOL     OW19517   4.410   0.384   3.503  0.7842 -0.8481  0.2281
 4938SOL    HW219518   4.426   0.471   3.539  1.6038 -1.5809  1.7196
 4938SOL    HW319519   4.446   0.324   3.568 -0.9257 -2.3523 -0.1421
 4938SOL    MW419520   4.417   0.387   3.516  0.6667 -1.1432  0.3760
 4939SOL     OW19521   4.173   2.024   3.372  0.0615 -0.3361  0.0233
 4939SOL    HW219522   4.171   1.947   3.315 -0.1733  0.2895 -0.8174
 4939SOL    HW319523   4.087   2.064   3.363  0.2032  0.0679  0.4060
 4939SOL    MW419524   4.162   2.019   3.364  0.0492 -0.2002 -0.0371
 4940SOL     OW19525   2.294   5.994   0.421  0.7334 -0.3124  0.1865
 4940SOL    HW219526   2.210   6.019   0.384  1.1012  1.6064  0.5551
 4940SOL    HW319527   2.280   5.906   0.456 -0.8607 -0.3632 -0.4968
 4940SOL    MW419528   2.281   5.986   0.421  0.5716 -0.0659  0.1450
 4941SOL     OW19529   5.261   0.051   3.460  0.1054 -0.4581 -0.1011
 4941SOL    HW219530   5.181   0.090   3.425 -0.0620  0.7002  1.4787
 4941SOL    HW319531   5.329   0.078   3.399 -0.4260  0.0824 -0.4741
 4941SOL    MW419532   5.259   0.059   3.447  0.0132 -0.2340  0.0581
 4942SOL     OW19533   5.902   0.738   5.335  0.6786  0.1720  0.0019
 4942SOL    HW219534   5.823   0.686   5.321  0.1902  0.1261  2.4128
 4942SOL    HW319535   5.895   0.811   5.274 -0.1410 -0.9580 -1.3161
 4942SOL    MW419536   5.891   0.740   5.325  0.5060  0.0169  0.1461
 4943SOL     OW19537   2.675   0.943   0.439 -0.4886  0.2814 -0.4379
 4943SOL    HW219538   2.730   1.021   0.426 -1.9955  1.2736 -1.1265
 4943SOL    HW319539   2.592   0.978   0.471 -0.6055 -1.2194  1.0333
 4943SOL    MW419540   2.671   0.958   0.442 -0.7028  0.2143 -0.3347
 4944SOL     OW19541   3.657   2.385   1.455  0.0528 -0.1481 -0.5555
 4944SOL    HW219542   3.562   2.389   1.443 -0.3174 -1.7839  1.2423
 4944SOL    HW319543   3.688   2.472   1.431 -2.0566  0.8395  0.0510
 4944SOL    MW419544   3.648   2.397   1.450 -0.2743 -0.2336 -0.2383
 4945SOL     OW19545   6.330   4.820   4.755 -0.1408 -0.3976 -0.1841
 4945SOL    HW219546   6.351   4.729   4.734  0.1175 -0.5599  0.7209
 4945SOL    HW319547   6.325   4.822   4.851  0.2241  0.6226 -0.1708
 4945SOL    MW419548   6.332   4.809   4.765 -0.0586 -0.2844 -0.0630
 4946SOL     OW19549   1.875   5.451   1.211  0.4487  0.2843  0.1932
 4946SOL    HW219550   1.962   5.455   1.172 -0.1680 -0.9091 -1.4051
 4946SOL    HW319551   1.825   5.519   1.167  0.7053  1.4115  1.5704
 4946SOL    MW419552   1.880   5.460   1.200  0.4012  0.2756  0.1640
 4947SOL     OW19553   4.578   2.784   6.076  0.2468 -0.4812 -0.2377
 4947SOL    HW219554   4.620   2.849   6.020 -0.7868 -1.5859 -2.4322
 4947SOL    HW319555   4.633   2.706   6.066  0.7193 -0.3700  1.2959
 4947SOL    MW419556   4.591   2.782   6.067  0.1728 -0.6123 -0.3249
 4948SOL     OW19557   5.315   5.136   3.296 -0.0941 -0.1865  0.1916
 4948SOL    HW219558   5.281   5.082   3.367  0.0399  0.2774  0.6053
 4948SOL    HW319559   5.258   5.213   3.294 -1.3117 -1.0534 -1.4472
 4948SOL    MW419560   5.303   5.139   3.305 -0.2370 -0.2397  0.0300
 4949SOL     OW19561   2.620   4.955   0.731 -0.2631 -0.7712  0.1908
 4949SOL    HW219562   2.677   5.014   0.781 -0.5921  0.7002 -1.0887
 4949SOL    HW319563   2.533   4.969   0.767  0.0243 -2.7041  1.8527
 4949SOL    MW419564   2.616   4.964   0.742 -0.2686 -0.8321  0.2413
 4950SOL     OW19565   6.335   6.029   0.325 -0.4256 -0.0228  0.2446
 4950SOL    HW219566   6.252   5.993   0.355 -0.9949  0.6391 -0.4979
 4950SOL    HW319567   6.329   6.028   0.229  1.3285 -2.0319  0.0827
 4950SOL    MW419568   6.323   6.025   0.316 -0.2693 -0.2006  0.1253
 4951SOL     OW19569   0.354   5.926   3.376  0.5534  0.0543  0.1797
 4951SOL    HW219570   0.349   5.867   3.451  0.2090 -0.2955 -0.1141
 4951SOL    HW319571   0.399   6.004   3.410  0.8588 -0.3029  0.6132
 4951SOL    MW419572   0.359   5.928   3.390  0.5482 -0.0390  0.1981
 4952SOL     OW19573   1.745   6.282   3.552  0.1359 -0.0321 -0.9026
 4952SOL    HW219574   1.727   6.361   3.500 -0.6429  0.3211 -0.1156
 4952SOL    HW319575   1.752   6.314   3.642 -0.8434 -0.9487 -0.4935
 4952SOL    MW419576   1.744   6.297   3.557 -0.0961 -0.1064 -0.7448
 4953SOL     OW19577   4.997   2.287   4.866  0.2281 -0.3645 -0.0147
 4953SOL    HW219578   5.040   2.228   4.805  0.5236 -1.3145  1.0898
 4953SOL    HW319579   5.067   2.318   4.924 -0.3731 -1.1001  1.1369
 4953SOL    MW419580   5.012   2.283   4.866  0.1878 -0.5869  0.2830
 4954SOL     OW19581   5.256   2.610   4.754 -0.0622  0.0212  0.5495
 4954SOL    HW219582   5.171   2.643   4.781 -0.0228  0.8030 -0.2151
 4954SOL    HW319583   5.276   2.540   4.816 -1.7773 -0.9595  0.0727
 4954SOL    MW419584   5.247   2.605   4.765 -0.2833 -0.0050  0.3857
 4955SOL     OW19585   1.424   2.564   3.035  0.5748 -0.2309 -0.2338
 4955SOL    HW219586   1.389   2.627   3.098  0.9084 -0.9974  0.7517
 4955SOL    HW319587   1.465   2.497   3.089  1.0216 -0.8310 -1.2861
 4955SOL    MW419588   1.425   2.563   3.050  0.6778 -0.4112 -0.2426
 4956SOL     OW19589   5.470   1.606   4.986  0.3896 -0.2190  0.1205
 4956SOL    HW219590   5.472   1.512   5.006  0.5133 -0.5380 -1.3245
 4956SOL    HW319591   5.382   1.621   4.953  0.4143  0.1475  0.2247
 4956SOL    MW419592   5.459   1.595   4.985  0.4091 -0.2128 -0.0564
 4957SOL     OW19593   2.057   5.353   0.306 -0.6315 -0.0114  0.0898
 4957SOL    HW219594   2.048   5.259   0.325  0.1443  0.0306  0.6967
 4957SOL    HW319595   2.028   5.396   0.386 -1.5372  0.2976 -0.3893
 4957SOL    MW419596   2.052   5.346   0.319 -0.6487  0.0349  0.1067
 4958SOL     OW19597   1.820   3.567   2.493  0.6667  0.5014  0.6311
 4958SOL    HW219598   1.776   3.582   2.577 -0.4183  0.9027  0.0162
 4958SOL    HW319599   1.856   3.652   2.469  0.0480  0.6465  0.1904
 4958SOL    MW419600   1.819   3.580   2.501  0.4419  0.5735  0.4919
 4959SOL     OW19601   2.760   3.285   4.304 -0.3970  0.0906 -0.5635
 4959SOL    HW219602   2.794   3.372   4.323 -1.3890  0.4574 -0.4082
 4959SOL    HW319603   2.747   3.284   4.209 -0.6150  0.1959 -0.5344
 4959SOL    MW419604   2.763   3.296   4.294 -0.5567  0.1529 -0.5391
 4960SOL     OW19605   5.431   5.169   1.292  0.4082  0.0655  0.2858
 4960SOL    HW219606   5.436   5.233   1.363 -0.0059  0.2939  0.1157
 4960SOL    HW319607   5.520   5.164   1.259  0.8075 -0.7656  1.4380
 4960SOL    MW419608   5.443   5.177   1.297  0.4062 -0.0140  0.4154
 4961SOL     OW19609   2.304   6.044   2.298  0.2430  0.1601 -0.0462
 4961SOL    HW219610   2.280   6.136   2.283 -0.1550  0.0624  0.0062
 4961SOL    HW319611   2.399   6.043   2.286  0.0742  0.2622 -1.6326
 4961SOL    MW419612   2.314   6.056   2.295  0.1682  0.1607 -0.2486
 4962SOL     OW19613   0.346   1.329   1.636 -0.0803 -0.1675 -0.0307
 4962SOL    HW219614   0.419   1.272   1.659  0.5785  1.3125  1.8455
 4962SOL    HW319615   0.269   1.274   1.647  0.4519 -0.5305  2.7864
 4962SOL    MW419616   0.346   1.314   1.641  0.0768 -0.0202  0.5885
 4963SOL     OW19617   0.215   4.767   3.621  0.1707 -0.5725 -0.2459
 4963SOL    HW219618   0.157   4.716   3.679  1.4806 -0.2810  1.4000
 4963SOL    HW319619   0.281   4.704   3.593 -0.9836 -0.9646 -2.3150
 4963SOL    MW419620   0.216   4.752   3.625  0.1912 -0.5858 -0.3017
 4964SOL     OW19621   3.576   4.967   1.428 -0.0791  0.2402  0.2669
 4964SOL    HW219622   3.584   5.062   1.428  0.1513  0.2385 -0.9787
 4964SOL    HW319623   3.485   4.950   1.454 -0.9573  0.9356 -2.0728
 4964SOL    MW419624   3.565   4.977   1.431 -0.1646  0.3317 -0.2062
 4965SOL     OW19625   3.665   0.535   0.176  0.4151 -0.3831  0.2882
 4965SOL    HW219626   3.628   0.582   0.102  0.2051 -1.0552 -0.0391
 4965SOL    HW319627   3.749   0.501   0.144  0.0724 -1.1408  0.1806
 4965SOL    MW419628   3.671   0.536   0.162  0.3422 -0.5717  0.2309
 4966SOL     OW19629   3.924   0.749   0.769  0.0217 -0.1068 -0.9114
 4966SOL    HW219630   3.907   0.840   0.796 -1.1064 -0.0032 -1.8966
 4966SOL    HW319631   3.941   0.755   0.675  1.7008 -0.7311 -0.6936
 4966SOL    MW419632   3.924   0.762   0.760  0.0944 -0.1755 -1.0127
 4967SOL     OW19633   4.441   3.487   4.055 -0.1868  0.0199  0.1035
 4967SOL    HW219634   4.525   3.502   4.098  0.5327 -0.8291 -0.9653
 4967SOL    HW319635   4.455   3.515   3.964 -1.6050  1.5440  0.3107
 4967SOL    MW419636   4.454   3.492   4.049 -0.2790  0.1090 -0.0102
 4968SOL     OW19637   2.102   3.611   1.492  0.6221 -0.3123 -0.7196
 4968SOL    HW219638   2.036   3.669   1.455  0.6555 -0.2067 -0.6114
 4968SOL    HW319639   2.102   3.535   1.433  0.3976 -0.3176 -0.7134
 4968SOL    MW419640   2.093   3.608   1.479  0.5969 -0.2991 -0.7045
 4969SOL     OW19641   0.502   6.266   2.312  0.5211 -0.2855  0.3992
 4969SOL    HW219642   0.475   6.325   2.242  3.1894 -0.7052 -1.1141
 4969SOL    HW319643   0.472   6.180   2.284  1.3455 -0.4135 -0.0927
 4969SOL    MW419644   0.494   6.263   2.299  0.9819 -0.3578  0.1347
 4970SOL     OW19645   1.514   3.234   0.732  0.1993  0.1341  0.1347
 4970SOL    HW219646   1.574   3.266   0.664 -1.0896  1.0324 -0.6079
 4970SOL    HW319647   1.468   3.312   0.762 -0.8649 -0.5950  0.4363
 4970SOL    MW419648   1.516   3.248   0.727 -0.1112  0.1565  0.0765
 4971SOL     OW19649   0.847   4.597   3.640 -1.0643  0.4425 -0.0035
 4971SOL    HW219650   0.931   4.567   3.674 -1.1516  2.0490  1.7700
 4971SOL    HW319651   0.838   4.551   3.557  2.4970  1.6551 -1.2747
 4971SOL    MW419652   0.857   4.587   3.634 -0.6059  0.8144  0.0628
 4972SOL     OW19653   2.178   3.661   5.787 -0.3769  0.2285  0.1196
 4972SOL    HW219654   2.269   3.665   5.757 -0.4418  1.0079 -0.0001
 4972SOL    HW319655   2.165   3.569   5.811  0.3589  0.0518 -0.1119
 4972SOL    MW419656   2.189   3.649   5.786 -0.2884  0.3080  0.0732
 4973SOL     OW19657   4.826   2.071   2.105 -0.3404  0.1132  0.0559
 4973SOL    HW219658   4.820   2.127   2.182 -2.9309 -1.1444  0.8697
 4973SOL    HW319659   4.889   2.003   2.129  1.4557  1.5692 -0.2828
 4973SOL    MW419660   4.833   2.070   2.118 -0.4452  0.1394  0.1186
 4974SOL     OW19661   4.038   4.655   5.019 -0.0168  0.3466  0.1398
 4974SOL    HW219662   4.048   4.618   5.107  0.6407 -0.4592 -0.2654
 4974SOL    HW319663   4.054   4.749   5.031 -2.2814  0.6695  1.2893
 4974SOL    MW419664   4.041   4.663   5.032 -0.2289  0.2829  0.2380
 4975SOL     OW19665   1.353   6.408   1.762  0.3786 -0.0288 -0.0531
 4975SOL    HW219666   1.260   6.385   1.770  0.2596  0.3660 -0.2627
 4975SOL    HW319667   1.375   6.388   1.672  0.9049 -1.5547  0.3935
 4975SOL    MW419668   1.344   6.403   1.751  0.4324 -0.1781 -0.0219
 4976SOL     OW19669   5.035   0.283   1.991  0.1594  0.3160  0.5685
 4976SOL    HW219670   4.985   0.353   2.034 -0.1288  0.4912 -0.0484
 4976SOL    HW319671   5.022   0.207   2.048  0.4240  0.7406  1.2073
 4976SOL    MW419672   5.027   0.282   2.004  0.1563  0.3952  0.5714
 4977SOL     OW19673   2.297   5.981   1.710  0.3342 -0.8093 -0.3442
 4977SOL    HW219674   2.381   6.003   1.669  1.0551 -0.2575  1.3449
 4977SOL    HW319675   2.265   6.065   1.745 -0.7636 -1.0810 -0.6634
 4977SOL    MW419676   2.304   5.995   1.709  0.2844 -0.7724 -0.1634
 4978SOL     OW19677   3.047   0.503   0.421 -0.3151 -0.1379  0.1982
 4978SOL    HW219678   3.127   0.454   0.403  0.0130  1.2437 -2.7300
 4978SOL    HW319679   3.037   0.561   0.346 -2.3359  2.0840  2.0085
 4978SOL    MW419680   3.056   0.504   0.409 -0.5384  0.3375  0.0507
 4979SOL     OW19681   3.872   6.062   3.211 -0.6790  0.0448  0.2014
 4979SOL    HW219682   3.875   6.016   3.128 -1.6448  1.3473 -0.5981
 4979SOL    HW319683   3.779   6.081   3.224 -0.7514 -1.3097  2.2748
 4979SOL    MW419684   3.860   6.059   3.202 -0.8160  0.0380  0.3694
 4980SOL     OW19685   4.652   5.299   1.689  0.3730 -0.2432  0.3267
 4980SOL    HW219686   4.656   5.394   1.679 -0.6443 -0.3473 -1.2667
 4980SOL    HW319687   4.561   5.280   1.709  0.6517 -0.8665  1.0718
 4980SOL    MW419688   4.641   5.309   1.691  0.2755 -0.3392  0.2148
 4981SOL     OW19689   2.926   4.555   5.245 -0.4781 -0.4026 -0.8276
 4981SOL    HW219690   2.981   4.591   5.315  0.0592 -1.6401 -0.5921
 4981SOL    HW319691   2.890   4.632   5.202 -1.3123  0.4018  1.1901
 4981SOL    MW419692   2.929   4.570   5.248 -0.5173 -0.4597 -0.5303
 4982SOL     OW19693   2.503   5.016   3.489 -0.3548  0.0644 -0.4622
 4982SOL    HW219694   2.489   4.976   3.575 -2.1323  0.2260 -0.6481
 4982SOL    HW319695   2.461   4.956   3.428 -2.4609  1.8024 -0.8254
 4982SOL    MW419696   2.496   5.003   3.493 -0.8672  0.3150 -0.5346
 4983SOL     OW19697   5.801   1.733   3.480 -0.1121 -0.5430 -0.2838
 4983SOL    HW219698   5.829   1.661   3.536 -0.3505 -0.0901  0.4253
 4983SOL    HW319699   5.707   1.741   3.496 -0.2582 -0.6508 -1.0309
 4983SOL    MW419700   5.792   1.725   3.489 -0.1628 -0.4975 -0.2888
 4984SOL     OW19701   3.906   2.426   3.194 -0.5395  0.1010  0.4432
 4984SOL    HW219702   3.941   2.491   3.256  0.2162 -1.3238  1.5928
 4984SOL    HW319703   3.919   2.342   3.238  0.7458 -1.0797 -1.9848
 4984SOL    MW419704   3.912   2.424   3.208 -0.2702 -0.2428  0.2745
 4985SOL     OW19705   5.074   0.626   5.619 -0.2947  0.5957 -0.4745
 4985SOL    HW219706   5.001   0.624   5.680 -0.8156  0.1969 -1.0953
 4985SOL    HW319707   5.034   0.614   5.533  0.4579  0.7957 -0.8692
 4985SOL    MW419708   5.059   0.624   5.616 -0.2641  0.5695 -0.6085
 4986SOL     OW19709   5.134   1.193   2.174 -0.1856  0.2026  0.7108
 4986SOL    HW219710   5.079   1.123   2.138 -0.6575  1.6732 -1.6041
 4986SOL    HW319711   5.223   1.166   2.153 -0.4563  1.3953 -2.6325
 4986SOL    MW419712   5.138   1.180   2.166 -0.2835  0.5540 -0.0357
 4987SOL     OW19713   2.226   5.176   4.132  0.2210  0.0174  0.3758
 4987SOL    HW219714   2.264   5.264   4.139  0.0287  0.1610 -0.2911
 4987SOL    HW319715   2.227   5.142   4.222  1.2503  0.2926  0.4802
 4987SOL    MW419716   2.231   5.183   4.145  0.3314  0.0727  0.3016
 4988SOL     OW19717   4.718   3.677   5.255 -0.0304 -0.1222  0.3458
 4988SOL    HW219718   4.784   3.746   5.256  1.7457 -1.6629 -1.7500
 4988SOL    HW319719   4.707   3.655   5.163 -0.9538 -2.2463  0.9000
 4988SOL    MW419720   4.726   3.683   5.243  0.0821 -0.6057  0.1424
 4989SOL     OW19721   3.238   3.461   6.161  0.6053 -0.1140  0.0983
 4989SOL    HW219722   3.296   3.405   6.212  0.9616 -0.3814 -0.5939
 4989SOL    HW319723   3.279   3.548   6.166  0.7581 -0.1845  0.0882
 4989SOL    MW419724   3.251   3.465   6.168  0.6725 -0.1586  0.0056
 4990SOL     OW19725   1.425   6.004   0.940 -0.6292  0.2595 -0.0850
 4990SOL    HW219726   1.363   6.020   1.012  0.1977 -0.6590  0.8511
 4990SOL    HW319727   1.433   5.909   0.935 -2.2830  0.1371 -2.8206
 4990SOL    MW419728   1.418   5.994   0.949 -0.7383  0.1221 -0.3224
 4991SOL     OW19729   3.512   5.780   4.287  0.3216  0.1987  0.3782
 4991SOL    HW219730   3.590   5.826   4.319  0.9358 -0.8183  0.3692
 4991SOL    HW319731   3.482   5.833   4.214  2.2558 -0.4944 -1.0115
 4991SOL    MW419732   3.519   5.793   4.282  0.6578 -0.0270  0.1936
 4992SOL     OW19733   3.532   5.927   5.382  0.2414 -1.0376 -0.1547
 4992SOL    HW219734   3.488   5.853   5.423 -0.4968 -1.5828 -1.8387
 4992SOL    HW319735   3.476   6.002   5.401  1.3190 -0.7282  2.1039
 4992SOL    MW419736   3.519   5.927   5.390  0.2862 -1.0687 -0.0789
 4993SOL     OW19737   4.975   6.419   2.088  0.2527  0.1919 -0.2356
 4993SOL    HW219738   4.921   6.347   2.118 -0.6804  0.1955 -1.8131
 4993SOL    HW319739   5.057   6.410   2.137 -0.8611 -0.2806  1.6063
 4993SOL    MW419740   4.979   6.409   2.098 -0.0174  0.1300 -0.2007
 4994SOL     OW19741   2.573   5.194   4.603  0.5144  0.3450 -0.3714
 4994SOL    HW219742   2.652   5.140   4.595 -0.6702 -1.7634  1.3178
 4994SOL    HW319743   2.500   5.133   4.597 -0.9756  2.0230 -0.3103
 4994SOL    MW419744   2.574   5.179   4.601  0.1615  0.2882 -0.1404
 4995SOL     OW19745   0.646   1.478   2.771 -0.2223 -0.1321 -0.1461
 4995SOL    HW219746   0.717   1.542   2.759  1.3692 -2.0122 -1.2621
 4995SOL    HW319747   0.658   1.446   2.861  1.3826 -1.5428 -0.8084
 4995SOL    MW419748   0.657   1.483   2.782  0.1994 -0.5663 -0.3807
 4996SOL     OW19749   4.839   4.486   5.903 -0.3856 -0.0827 -0.4462
 4996SOL    HW219750   4.845   4.442   5.818  0.3502 -0.2005 -0.3390
 4996SOL    HW319751   4.814   4.416   5.964 -0.7035 -0.0424 -0.5305
 4996SOL    MW419752   4.836   4.471   5.900 -0.3305 -0.0929 -0.4431
 4997SOL     OW19753   6.432   0.568   1.464 -0.0742  0.4132  0.7036
 4997SOL    HW219754   6.350   0.601   1.427  0.5943 -0.0118 -1.2912
 4997SOL    HW319755   6.463   0.639   1.520 -1.2949  0.9790  0.7064
 4997SOL    MW419756   6.425   0.582   1.466 -0.1471  0.4318  0.4408
 4998SOL     OW19757   6.204   5.443   5.698 -0.5760  0.5561 -0.1792
 4998SOL    HW219758   6.175   5.398   5.619  0.2296 -0.3596  0.0210
 4998SOL    HW319759   6.283   5.489   5.672 -0.2082  0.1090  0.1148
 4998SOL    MW419760   6.211   5.443   5.684 -0.4212  0.3763 -0.1140
 4999SOL     OW19761   5.939   2.604   1.755 -0.5200  0.1462 -0.2936
 4999SOL    HW219762   5.912   2.656   1.680  0.2003  0.0858 -0.6007
 4999SOL    HW319763   5.936   2.514   1.725 -1.6234  0.0042  0.1936
 4999SOL    MW419764   5.935   2.599   1.741 -0.5706  0.1195 -0.2699
 5000SOL     OW19765   3.097   5.582   5.576 -0.3863  0.2715 -0.5050
 5000SOL    HW219766   3.096   5.532   5.494  0.0171  0.7195 -0.7876
 5000SOL    HW319767   3.109   5.515   5.644  1.8372  0.0797 -0.9917
 5000SOL    MW419768   3.099   5.566   5.574 -0.0397  0.3053 -0.6065
 5001SOL     OW19769   0.410   2.709   3.555 -0.0471 -0.4913  0.1965
 5001SOL    HW219770   0.328   2.719   3.602 -0.3068  2.0710 -0.6245
 5001SOL    HW319771   0.390   2.737   3.466  1.7970  0.8246  0.1210
 5001SOL    MW419772   0.397   2.714   3.549  0.1619  0.0204  0.0782
 5002SOL     OW19773   3.805   2.294   3.579 -0.4715 -0.7462  0.6350
 5002SOL    HW219774   3.832   2.357   3.646  1.0982 -0.9762  0.2624
 5002SOL    HW319775   3.719   2.325   3.550 -1.4773 -0.9520  3.1212
 5002SOL    MW419776   3.797   2.306   3.584 -0.3971 -0.8037  0.9139
 5003SOL     OW19777   0.674   1.354   3.725 -0.4300 -0.1238 -0.3769
 5003SOL    HW219778   0.730   1.420   3.766  0.0499  0.5315 -2.0100
 5003SOL    HW319779   0.595   1.402   3.699 -0.2543 -0.2657 -1.2026
 5003SOL    MW419780   0.671   1.369   3.727 -0.3435 -0.0560 -0.7013
 5004SOL     OW19781   1.252   1.119   2.938  0.1253 -0.4412  0.2122
 5004SOL    HW219782   1.334   1.144   2.981  0.1215 -0.1949  0.0752
 5004SOL    HW319783   1.256   1.023   2.934 -0.6700 -0.6208  2.3468
 5004SOL    MW419784   1.263   1.110   2.943  0.0199 -0.4324  0.4758
 5005SOL     OW19785   4.951   6.076   0.575  0.1038  0.0048 -0.1940
 5005SOL    HW219786   4.862   6.043   0.578  0.6682 -1.6024 -0.3772
 5005SOL    HW319787   5.004   6.006   0.613  1.2672  1.0374  0.1587
 5005SOL    MW419788   4.947   6.063   0.581  0.3318 -0.0710 -0.1716
 5006SOL     OW19789   6.099   3.679   4.820 -0.5437  0.0642 -0.1243
 5006SOL    HW219790   6.114   3.646   4.732 -0.1872  0.6418 -0.2815
 5006SOL    HW319791   6.023   3.736   4.812  0.3784  1.3043 -0.3682
 5006SOL    MW419792   6.091   3.682   4.808 -0.3750  0.3040 -0.1772
 5007SOL     OW19793   1.958   5.880   2.883  0.0831 -0.4995  0.1749
 5007SOL    HW219794   1.869   5.855   2.858  0.3065 -0.4158 -0.7473
 5007SOL    HW319795   2.005   5.797   2.890 -0.2160 -0.5859  1.2963
 5007SOL    MW419796   1.952   5.866   2.881  0.0731 -0.4999  0.2012
 5008SOL     OW19797   2.703   1.104   1.419 -0.1275 -0.0159  0.1727
 5008SOL    HW219798   2.639   1.036   1.396 -1.7383  1.8852 -1.3060
 5008SOL    HW319799   2.738   1.076   1.504 -0.1528 -3.0264 -0.6887
 5008SOL    MW419800   2.699   1.091   1.427 -0.3434 -0.1622 -0.1360
 5009SOL     OW19801   2.555   2.597   3.087  0.1792  0.3134 -0.8027
 5009SOL    HW219802   2.502   2.667   3.050  0.1059  0.5189 -0.3197
 5009SOL    HW319803   2.513   2.577   3.171 -0.7948 -1.4640 -1.6662
 5009SOL    MW419804   2.542   2.604   3.093  0.0411  0.1060 -0.8529
 5010SOL     OW19805   0.614   5.736   6.197  0.0604 -0.1619 -0.3729
 5010SOL    HW219806   0.620   5.747   6.102 -2.1072 -0.4706 -0.5861
 5010SOL    HW319807   0.599   5.824   6.231  1.7650  0.0874 -0.1897
 5010SOL    MW419808   0.613   5.749   6.189 -0.0007 -0.1697 -0.3768
 5011SOL     OW19809   4.260   0.885   3.804 -0.4061 -0.4599  0.0517
 5011SOL    HW219810   4.237   0.958   3.860  1.0213 -0.1237  0.2416
 5011SOL    HW319811   4.356   0.888   3.798 -0.5035  0.2114 -3.2819
 5011SOL    MW419812   4.270   0.895   3.811 -0.2306 -0.3269 -0.3631
 5012SOL     OW19813   4.406   4.596   4.935  0.3236 -0.6328 -0.0181
 5012SOL    HW219814   4.447   4.533   4.876 -1.9756 -0.5198 -1.9054
 5012SOL    HW319815   4.363   4.659   4.877 -0.0907  0.8816  1.8158
 5012SOL    MW419816   4.406   4.596   4.919 -0.0344 -0.4181 -0.0252
 5013SOL     OW19817   2.513   5.733   2.627 -0.2116  0.1180 -0.2240
 5013SOL    HW219818   2.491   5.705   2.539 -1.1766  1.2209 -0.3622
 5013SOL    HW319819   2.531   5.827   2.619 -0.5455  0.2859  0.7748
 5013SOL    MW419820   2.513   5.742   2.615 -0.3830  0.2857 -0.1105
 5014SOL     OW19821   1.216   0.164   3.993  0.0589 -0.4568  0.1113
 5014SOL    HW219822   1.186   0.185   3.904  0.8177  1.4627  0.2519
 5014SOL    HW319823   1.136   0.141   4.040 -0.7688  1.1854 -0.4005
 5014SOL    MW419824   1.202   0.164   3.987  0.0498  0.0132  0.0623
 5015SOL     OW19825   3.396   6.397   5.420  0.4447  0.1545 -0.3336
 5015SOL    HW219826   3.491   6.410   5.430  0.3508  0.3902  0.3204
 5015SOL    HW319827   3.376   6.437   5.336  0.7557  1.1382  0.0395
 5015SOL    MW419828   3.406   6.404   5.410  0.4733  0.3154 -0.1981
 5016SOL     OW19829   5.325   0.569   4.311 -0.2105  0.3532 -0.3613
 5016SOL    HW219830   5.272   0.514   4.368  0.7667  0.3774  0.6028
 5016SOL    HW319831   5.387   0.509   4.270  0.5167  0.6603  0.2897
 5016SOL    MW419832   5.326   0.554   4.313  0.0143  0.3969 -0.1482
 5017SOL     OW19833   0.972   1.268   6.016  0.7465  0.3321  0.1628
 5017SOL    HW219834   0.936   1.221   6.090  0.1746 -0.6930 -0.7409
 5017SOL    HW319835   1.021   1.203   5.966  0.6053  0.8535 -0.6913
 5017SOL    MW419836   0.974   1.253   6.019  0.6524  0.2656 -0.0691
 5018SOL     OW19837   4.539   1.177   2.707 -0.2894 -0.0754  0.1441
 5018SOL    HW219838   4.496   1.161   2.791  0.0587  3.4843  1.1802
 5018SOL    HW319839   4.630   1.196   2.730 -0.4708  2.2212 -0.7834
 5018SOL    MW419840   4.545   1.178   2.721 -0.2674  0.6973  0.1585
 5019SOL     OW19841   0.134   3.554   2.657 -0.9504  0.1947 -0.3753
 5019SOL    HW219842   0.168   3.477   2.701  1.7060  1.3438 -0.2455
 5019SOL    HW319843   0.156   3.542   2.565 -1.9206  0.1360 -0.6189
 5019SOL    MW419844   0.141   3.543   2.651 -0.7279  0.3386 -0.3903
 5020SOL     OW19845   0.536   3.894   0.309  0.1311 -0.3699  0.3052
 5020SOL    HW219846   0.577   3.939   0.236  0.5637 -0.5807  0.4151
 5020SOL    HW319847   0.463   3.845   0.270 -0.2781  0.3359  0.1728
 5020SOL    MW419848   0.532   3.893   0.294  0.1342 -0.3046  0.3022
 5021SOL     OW19849   6.132   4.793   0.107  0.3959 -0.0791 -0.5740
 5021SOL    HW219850   6.159   4.794   0.015 -2.1847  1.2971 -1.4540
 5021SOL    HW319851   6.146   4.703   0.136  3.5303  0.0071 -1.5163
 5021SOL    MW419852   6.137   4.782   0.099  0.4690  0.1138 -0.8144
 5022SOL     OW19853   5.535   4.616   1.614  0.8140 -0.2499 -0.2098
 5022SOL    HW219854   5.504   4.704   1.594  0.8559 -0.0122  0.6951
 5022SOL    HW319855   5.455   4.567   1.634  0.8411 -0.2386 -0.0726
 5022SOL    MW419856   5.520   4.621   1.614  0.8231 -0.2171 -0.0723
 5023SOL     OW19857   1.095   1.583   2.757 -0.2724  0.3742  0.1506
 5023SOL    HW219858   1.099   1.677   2.741 -0.2671  0.3302 -0.1101
 5023SOL    HW319859   1.168   1.546   2.707 -1.6330 -0.0195 -1.6354
 5023SOL    MW419860   1.105   1.590   2.748 -0.4512  0.3165 -0.1194
 5024SOL     OW19861   3.449   0.383   4.391  0.4654  0.1637  0.4633
 5024SOL    HW219862   3.455   0.443   4.317 -1.5067  0.6373  0.6385
 5024SOL    HW319863   3.488   0.301   4.359  0.0110  0.4854 -0.9667
 5024SOL    MW419864   3.455   0.380   4.377  0.1452  0.2687  0.2978
 5025SOL     OW19865   2.856   3.413   1.694 -0.6510  0.0451 -0.8475
 5025SOL    HW219866   2.897   3.428   1.778 -2.7608 -0.2209  0.3029
 5025SOL    HW319867   2.826   3.322   1.697  0.0432 -0.2754 -2.2865
 5025SOL    MW419868   2.857   3.403   1.705 -0.8378 -0.0323 -0.8856
 5026SOL     OW19869   5.217   2.699   0.857 -0.3058  0.0105 -0.3179
 5026SOL    HW219870   5.165   2.677   0.934 -1.9593  1.8653 -0.8279
 5026SOL    HW319871   5.153   2.732   0.794  1.3625  1.4294 -1.3433
 5026SOL    MW419872   5.202   2.701   0.859 -0.3039  0.4424 -0.5205
 5027SOL     OW19873   0.159   1.686   3.352 -0.3133 -0.3215  0.0763
 5027SOL    HW219874   0.119   1.740   3.284  1.4402 -1.8903 -2.3550
 5027SOL    HW319875   0.100   1.612   3.363 -1.0300  0.3639  0.9327
 5027SOL    MW419876   0.146   1.683   3.344 -0.1765 -0.4381 -0.1315
 5028SOL     OW19877   2.420   0.477   5.018 -0.4655  0.2821 -0.1768
 5028SOL    HW219878   2.328   0.464   4.996 -1.8654  3.7338  2.6262
 5028SOL    HW319879   2.447   0.395   5.059 -3.0345 -0.1562  0.8346
 5028SOL    MW419880   2.412   0.465   5.021 -0.9892  0.6797  0.3264
 5029SOL     OW19881   5.424   2.893   0.364 -0.0912 -0.1462 -0.5013
 5029SOL    HW219882   5.409   2.799   0.356 -1.2042  0.0791 -1.2532
 5029SOL    HW319883   5.404   2.927   0.277 -1.8898  1.0589  0.3285
 5029SOL    MW419884   5.420   2.885   0.351 -0.4753  0.0425 -0.4911
 5030SOL     OW19885   0.323   1.862   0.927  0.3450 -0.4493 -0.2764
 5030SOL    HW219886   0.241   1.898   0.961  1.0711 -1.1221  2.4054
 5030SOL    HW319887   0.389   1.886   0.992  1.9937 -1.2276 -1.5937
 5030SOL    MW419888   0.321   1.870   0.940  0.6584 -0.6407 -0.0964
 5031SOL     OW19889   4.144   5.248   4.294  0.1107 -0.1991  0.6148
 5031SOL    HW219890   4.216   5.185   4.298 -0.0063 -0.3226  0.8365
 5031SOL    HW319891   4.065   5.194   4.299 -0.0256 -0.1418 -0.6194
 5031SOL    MW419892   4.143   5.232   4.295  0.0773 -0.2079  0.4812
 5032SOL     OW19893   5.491   1.095   0.010  0.1497 -0.6932  0.2363
 5032SOL    HW219894   5.584   1.095  -0.011  0.7053 -1.6287  2.4331
 5032SOL    HW319895   5.447   1.085  -0.075  2.0492 -0.8638 -0.7716
 5032SOL    MW419896   5.497   1.094  -0.004  0.4736 -0.8391  0.3931
 5033SOL     OW19897   3.921   3.091   6.333 -0.2515 -0.2631 -0.2603
 5033SOL    HW219898   4.012   3.119   6.337  0.8706 -3.4433 -0.7195
 5033SOL    HW319899   3.915   3.041   6.251 -0.9828 -4.1818  1.9299
 5033SOL    MW419900   3.932   3.088   6.323 -0.2000 -1.1997 -0.0319
 5034SOL     OW19901   4.777   2.452   0.989  0.1935 -0.6602  0.3987
 5034SOL    HW219902   4.855   2.428   0.938 -0.4787  0.2624 -1.1125
 5034SOL    HW319903   4.703   2.420   0.937 -0.5212  0.4956  0.6806
 5034SOL    MW419904   4.778   2.444   0.975  0.0105 -0.3860  0.2365
 5035SOL     OW19905   6.171   0.871   1.013  0.6334  0.2319  0.6777
 5035SOL    HW219906   6.135   0.929   1.080  1.8755 -0.1510  1.7084
 5035SOL    HW319907   6.096   0.820   0.983 -0.9630  3.6102 -1.6854
 5035SOL    MW419908   6.156   0.872   1.018  0.5866  0.6271  0.5019
 5036SOL     OW19909   2.059   3.574   2.145 -0.0535 -0.1310 -0.3283
 5036SOL    HW219910   2.096   3.498   2.190  0.0007 -0.5617 -1.0891
 5036SOL    HW319911   1.970   3.549   2.123 -0.4165  0.4544  0.4107
 5036SOL    MW419912   2.052   3.561   2.148 -0.0943 -0.1106 -0.3312
 5037SOL     OW19913   4.248   0.029   2.600  0.0250 -0.0888 -0.5068
 5037SOL    HW219914   4.198   0.053   2.522 -1.8108  2.5202  1.3184
 5037SOL    HW319915   4.286   0.111   2.630 -0.0331 -0.8578  1.8232
 5037SOL    MW419916   4.246   0.043   2.593 -0.2249  0.1539  0.0414
 5038SOL     OW19917   4.887   6.019   1.734 -0.5707 -0.3959  0.2928
 5038SOL    HW219918   4.883   6.103   1.780 -0.4012 -1.2430  1.9279
 5038SOL    HW319919   4.932   5.960   1.795  1.1574 -1.1875 -1.6144
 5038SOL    MW419920   4.893   6.022   1.748 -0.3204 -0.6121  0.2569
 5039SOL     OW19921   2.856   3.918   1.452 -0.2664 -0.3811  0.0692
 5039SOL    HW219922   2.821   3.900   1.539  3.7617 -0.2184  1.9424
 5039SOL    HW319923   2.853   3.833   1.407 -0.2739 -1.0004  1.2086
 5039SOL    MW419924   2.851   3.905   1.457  0.2641 -0.4413  0.4667
 5040SOL     OW19925   1.767   6.424   2.736 -0.2248 -0.0463  0.7782
 5040SOL    HW219926   1.861   6.426   2.756 -0.0740 -0.3064  0.1009
 5040SOL    HW319927   1.745   6.515   2.716  0.6189 -0.4277 -2.3552
 5040SOL    MW419928   1.777   6.437   2.736 -0.0936 -0.1310  0.2754
 5041SOL     OW19929   0.926   1.649   6.300 -0.2130 -0.2771 -0.0242
 5041SOL    HW219930   0.975   1.640   6.218 -0.0147 -0.2813  0.0938
 5041SOL    HW319931   0.835   1.661   6.273  0.1063  1.9388 -0.3431
 5041SOL    MW419932   0.921   1.650   6.286 -0.1447  0.0147 -0.0507
 5042SOL     OW19933   4.382   3.043   1.291  0.1850  0.9273 -0.2008
 5042SOL    HW219934   4.299   3.024   1.336  1.5574 -2.9091  1.1713
 5042SOL    HW319935   4.427   3.104   1.350 -0.7387  1.2546  0.1894
 5042SOL    MW419936   4.377   3.049   1.305  0.2442  0.4643  0.0317
 5043SOL     OW19937   3.269   2.027   0.131  0.1193 -0.3028  0.0246
 5043SOL    HW219938   3.198   1.995   0.186  0.4424  0.3373  0.8372
 5043SOL    HW319939   3.305   2.102   0.179  0.5992  0.0924 -0.9215
 5043SOL    MW419940   3.264   2.033   0.145  0.2252 -0.1662  0.0070
 5044SOL     OW19941   3.942   3.960   6.244  0.7072  0.3120 -0.0078
 5044SOL    HW219942   4.035   3.941   6.259  0.5598 -0.3921  0.0794
 5044SOL    HW319943   3.933   3.961   6.149  0.4144 -1.8366 -0.0696
 5044SOL    MW419944   3.953   3.957   6.233  0.6492 -0.0644 -0.0045
 5045SOL     OW19945   0.894   3.563   6.144 -0.5410 -0.2346  0.1687
 5045SOL    HW219946   0.909   3.509   6.066  0.6643 -1.1826  1.0209
 5045SOL    HW319947   0.801   3.550   6.164 -0.7551 -0.3469 -0.8182
 5045SOL    MW419948   0.884   3.554   6.136 -0.4102 -0.3745  0.1509
 5046SOL     OW19949   1.889   2.774   5.978  0.3393  0.3272 -0.1115
 5046SOL    HW219950   1.840   2.696   6.005  0.6099  0.8460  2.0698
 5046SOL    HW319951   1.878   2.836   6.051  0.1865  2.3294 -1.7506
 5046SOL    MW419952   1.881   2.772   5.991  0.3549  0.6598 -0.0400
 5047SOL     OW19953   0.668   5.743   0.929 -0.2191 -0.6216  0.1446
 5047SOL    HW219954   0.584   5.788   0.928  0.1427  0.1086  1.2405
 5047SOL    HW319955   0.718   5.785   0.999  1.2816 -0.6353 -0.8479
 5047SOL    MW419956   0.664   5.755   0.938  0.0266 -0.5271  0.1582
 5048SOL     OW19957   3.816   5.635   3.385  0.7019  0.5498 -0.4592
 5048SOL    HW219958   3.898   5.675   3.356  0.3370  1.1546 -0.6754
 5048SOL    HW319959   3.843   5.567   3.448  1.7140 -2.2145 -3.5678
 5048SOL    MW419960   3.830   5.631   3.390  0.7873  0.2649 -0.8979
 5049SOL     OW19961   6.419   0.271   1.575 -0.6056 -0.2432 -0.4001
 5049SOL    HW219962   6.484   0.311   1.519 -0.4930  1.4106  0.8318
 5049SOL    HW319963   6.373   0.345   1.616 -2.0029 -1.3652  0.1788
 5049SOL    MW419964   6.421   0.286   1.573 -0.7751 -0.1730 -0.1612
 5050SOL     OW19965   3.385   0.318   1.079  0.4419 -0.0934  0.0634
 5050SOL    HW219966   3.379   0.366   0.996 -0.4517  1.8825  1.1936
 5050SOL    HW319967   3.298   0.280   1.091  0.5222 -0.2454  0.1578
 5050SOL    MW419968   3.373   0.320   1.069  0.3346  0.1472  0.2250
 5051SOL     OW19969   5.517   4.514   3.333  0.3698  0.2434  0.2064
 5051SOL    HW219970   5.488   4.436   3.286  1.4060 -0.9368  1.4363
 5051SOL    HW319971   5.548   4.573   3.265  1.8928 -1.4327 -0.6263
 5051SOL    MW419972   5.517   4.512   3.318  0.7075 -0.1335  0.2588
 5052SOL     OW19973   3.039   0.615   1.515  0.5344  0.1313  0.5795
 5052SOL    HW219974   3.041   0.519   1.523  0.0345 -0.0878 -1.3368
 5052SOL    HW319975   3.110   0.645   1.572  1.5870 -1.4689  0.2012
 5052SOL    MW419976   3.049   0.606   1.524  0.6073 -0.1087  0.2767
 5053SOL     OW19977   6.301   0.830   6.356 -0.2545 -0.2893  0.8912
 5053SOL    HW219978   6.395   0.817   6.367 -0.0397  0.2434 -0.1384
 5053SOL    HW319979   6.289   0.924   6.366 -0.2865  0.0065 -1.2737
 5053SOL    MW419980   6.312   0.841   6.358 -0.2304 -0.1800  0.4697
 5054SOL     OW19981   2.012   3.132   5.113 -0.1208 -0.0158 -0.4405
 5054SOL    HW219982   1.935   3.161   5.065  0.3969  0.0107 -1.2808
 5054SOL    HW319983   1.993   3.151   5.204 -1.7713 -1.4509 -0.4354
 5054SOL    MW419984   1.999   3.138   5.118 -0.2703 -0.2016 -0.5507
 5055SOL     OW19985   6.034   1.639   4.602  0.4349 -0.0261 -0.2203
 5055SOL    HW219986   6.111   1.671   4.651 -0.1821  2.5970 -0.7998
 5055SOL    HW319987   6.071   1.591   4.528  1.4260 -1.2741  1.0275
 5055SOL    MW419988   6.049   1.637   4.599  0.4842  0.1553 -0.1321
 5056SOL     OW19989   2.413   5.475   2.800 -0.1775  0.4531 -0.3217
 5056SOL    HW219990   2.444   5.555   2.843 -2.1306  1.4739 -0.7134
 5056SOL    HW319991   2.337   5.503   2.749  0.2668 -1.2943 -2.0589
 5056SOL    MW419992   2.407   5.490   2.799 -0.3766  0.3572 -0.6026
 5057SOL     OW19993   0.225   3.374   5.956 -0.7053 -0.2001 -0.0492
 5057SOL    HW219994   0.229   3.327   5.873 -1.0215 -1.2086  0.4912
 5057SOL    HW319995   0.297   3.438   5.951 -1.0620  0.1304 -1.3015
 5057SOL    MW419996   0.235   3.376   5.944 -0.7941 -0.2896 -0.1431
 5058SOL     OW19997   1.201   5.775   0.669 -0.1521  0.4706 -0.3504
 5058SOL    HW219998   1.265   5.703   0.671 -0.3956  0.2545  0.3148
 5058SOL    HW319999   1.123   5.736   0.628  0.7563  1.3029 -3.0514
 5058SOL    MW420000   1.199   5.760   0.664 -0.0644  0.5519 -0.6190
 5059SOL     OW20001   0.405   5.511   1.903  0.0626 -0.5821 -0.0861
 5059SOL    HW220002   0.398   5.607   1.901  1.8009 -0.4273 -0.8657
 5059SOL    HW320003   0.498   5.494   1.890 -0.0321 -2.3692  1.2284
 5059SOL    MW420004   0.416   5.522   1.901  0.2795 -0.7975 -0.0155
 5060SOL     OW20005   5.387   4.241   4.740 -0.2370 -0.2324 -0.4323
 5060SOL    HW220006   5.461   4.275   4.790 -1.0896  0.6474  0.2689
 5060SOL    HW320007   5.409   4.149   4.725 -0.1568 -0.6995  2.0182
 5060SOL    MW420008   5.400   4.234   4.745 -0.3389 -0.1779 -0.0165
 5061SOL     OW20009   4.414   4.508   5.359  0.2485 -1.0884  0.0695
 5061SOL    HW220010   4.503   4.473   5.356  1.1859  1.1256  0.4453
 5061SOL    HW320011   4.387   4.497   5.450  0.4504 -1.0407  0.1358
 5061SOL    MW420012   4.422   4.502   5.370  0.3989 -0.7900  0.1278
 5062SOL     OW20013   1.274   1.180   3.424  0.8426 -0.0611  0.1954
 5062SOL    HW220014   1.222   1.125   3.366  1.9101 -0.5964 -0.2908
 5062SOL    HW320015   1.213   1.247   3.455 -0.3633 -1.2236  0.4150
 5062SOL    MW420016   1.259   1.182   3.420  0.8243 -0.2851  0.1602
 5063SOL     OW20017   5.055   2.302   5.551 -0.3848  0.2830 -0.7387
 5063SOL    HW220018   5.006   2.370   5.598 -0.4816 -0.9807  1.1277
 5063SOL    HW320019   5.144   2.311   5.584 -0.0441  0.5191 -1.7042
 5063SOL    MW420020   5.060   2.312   5.562 -0.3526  0.1474 -0.6198
 5064SOL     OW20021   5.395   4.929   0.958 -0.0368 -0.4029 -0.3548
 5064SOL    HW220022   5.440   4.845   0.952 -1.1342 -0.9844 -0.7044
 5064SOL    HW320023   5.465   4.994   0.958  0.8588 -1.3263  0.4231
 5064SOL    MW420024   5.410   4.927   0.957 -0.0634 -0.6015 -0.2983
 5065SOL     OW20025   5.271   5.811   1.679  0.4831  0.5640 -0.3997
 5065SOL    HW220026   5.243   5.749   1.612  1.4181 -0.4732  0.1415
 5065SOL    HW320027   5.250   5.768   1.762  1.2048  0.9390 -0.0150
 5065SOL    MW420028   5.264   5.797   1.681  0.7017  0.4767 -0.2776
 5066SOL     OW20029   0.613   1.046   4.544  0.2876  0.1910 -0.0881
 5066SOL    HW220030   0.620   1.018   4.453 -0.4778  1.9487 -0.7153
 5066SOL    HW320031   0.642   1.137   4.544  0.0992  0.2841  1.4129
 5066SOL    MW420032   0.618   1.054   4.532  0.1617  0.4352  0.0272
 5067SOL     OW20033   0.882   5.870   4.588 -0.2571 -0.0008 -0.4630
 5067SOL    HW220034   0.790   5.845   4.596 -0.4117  0.6448 -0.2277
 5067SOL    HW320035   0.887   5.958   4.624  0.4571 -0.0321 -0.4681
 5067SOL    MW420036   0.871   5.878   4.594 -0.1833  0.0803 -0.4326
 5068SOL     OW20037   4.619   4.746   1.001  0.4781  0.2751  0.9190
 5068SOL    HW220038   4.540   4.693   1.007  0.8310 -0.2442  1.1080
 5068SOL    HW320039   4.621   4.777   0.910  1.3133 -1.7308  0.1940
 5068SOL    MW420040   4.609   4.743   0.990  0.6349 -0.0581  0.8483
 5069SOL     OW20041   3.373   1.318   4.592  0.0621 -0.0318 -0.6281
 5069SOL    HW220042   3.308   1.387   4.604  0.5492  0.6734 -1.8428
 5069SOL    HW320043   3.422   1.316   4.674 -0.5798  0.4058 -0.2292
 5069SOL    MW420044   3.371   1.327   4.604  0.0417  0.1190 -0.7358
 5070SOL     OW20045   2.902   4.136   3.160  0.0210  0.0454  0.3352
 5070SOL    HW220046   2.899   4.127   3.255 -1.2058  1.4519  0.4711
 5070SOL    HW320047   2.955   4.214   3.145 -0.8449  0.5693 -0.0564
 5070SOL    MW420048   2.909   4.145   3.171 -0.2551  0.3001  0.3014
 5071SOL     OW20049   4.851   0.879   5.870 -0.1323 -0.1062 -0.1238
 5071SOL    HW220050   4.864   0.924   5.787  2.2431  1.1822  0.8469
 5071SOL    HW320051   4.841   0.787   5.847  0.1822  0.2573 -1.8240
 5071SOL    MW420052   4.851   0.873   5.856  0.2226  0.1117 -0.2201
 5072SOL     OW20053   3.821   1.811   3.490 -0.1010  0.0805 -0.1920
 5072SOL    HW220054   3.821   1.807   3.394 -1.5695 -1.5411 -0.1754
 5072SOL    HW320055   3.753   1.749   3.516  0.7722 -0.0544  1.9334
 5072SOL    MW420056   3.812   1.802   3.481 -0.1795 -0.1512  0.0906
 5073SOL     OW20057   1.577   1.794   1.075  0.1854 -0.3345 -0.0623
 5073SOL    HW220058   1.656   1.766   1.029  0.2352  0.4349 -0.4567
 5073SOL    HW320059   1.508   1.737   1.041  0.5451 -0.9345  0.2032
 5073SOL    MW420060   1.578   1.783   1.065  0.2395 -0.3121 -0.0793
 5074SOL     OW20061   4.216   0.313   6.067 -0.2842 -0.1995  0.1317
 5074SOL    HW220062   4.173   0.292   5.984  0.6690  0.0459 -0.4499
 5074SOL    HW320063   4.283   0.245   6.077  0.6055  0.6193 -0.0785
 5074SOL    MW420064   4.220   0.301   6.057 -0.0411 -0.0591  0.0272
 5075SOL     OW20065   2.207   3.515   6.270  0.0137 -0.2275 -0.4631
 5075SOL    HW220066   2.191   3.566   6.191  0.2449  1.6906  0.6573
 5075SOL    HW320067   2.125   3.522   6.320 -0.0109 -1.1233 -0.3643
 5075SOL    MW420068   2.194   3.523   6.266  0.0409 -0.0926 -0.3023
 5076SOL     OW20069   2.694   4.693   4.236  0.2197  0.2128 -0.1329
 5076SOL    HW220070   2.789   4.709   4.231  0.2194 -0.0754 -1.8766
 5076SOL    HW320071   2.655   4.768   4.191 -0.3161 -0.1614 -0.3025
 5076SOL    MW420072   2.702   4.705   4.229  0.1489  0.1254 -0.3853
 5077SOL     OW20073   0.154   0.689   1.656  0.0722  0.2590 -0.3226
 5077SOL    HW220074   0.213   0.614   1.653  0.1591  0.2778  0.6425
 5077SOL    HW320075   0.097   0.672   1.731  0.9930  1.7959  0.7967
 5077SOL    MW420076   0.154   0.677   1.665  0.2052  0.4642 -0.0476
 5078SOL     OW20077   4.424   5.322   2.127 -0.1215 -0.3199 -0.0923
 5078SOL    HW220078   4.412   5.240   2.079  1.5217 -0.4358 -0.3390
 5078SOL    HW320079   4.434   5.388   2.059  0.4805 -0.2169  0.0945
 5078SOL    MW420080   4.423   5.320   2.112  0.1748 -0.3216 -0.1002
 5079SOL     OW20081   2.883   4.053   6.316  0.2273 -0.2565  0.4622
 5079SOL    HW220082   2.798   4.039   6.273  0.2716  2.6439 -0.7969
 5079SOL    HW320083   2.866   4.034   6.409 -1.3056 -1.4248 -0.0031
 5079SOL    MW420084   2.870   4.049   6.323  0.0309 -0.0279  0.2347
 5080SOL     OW20085   2.919   0.282   0.545 -0.1998 -0.5385  0.3189
 5080SOL    HW220086   2.881   0.241   0.467  1.6817 -1.1368 -0.3268
 5080SOL    HW320087   2.956   0.365   0.514  2.8701 -1.9231 -0.0926
 5080SOL    MW420088   2.919   0.287   0.531  0.4535 -0.8001  0.1794
 5081SOL     OW20089   6.020   5.629   1.045  0.4152  0.3523  0.0882
 5081SOL    HW220090   6.005   5.608   0.952 -0.2835  0.0367  0.2623
 5081SOL    HW320091   6.014   5.544   1.089  0.7359  0.5043  0.4229
 5081SOL    MW420092   6.017   5.615   1.038  0.3653  0.3307  0.1553
 5082SOL     OW20093   5.777   5.370   2.130 -0.3819 -0.1927 -0.0816
 5082SOL    HW220094   5.843   5.431   2.164 -0.4742 -0.5502  0.7794
 5082SOL    HW320095   5.810   5.284   2.154 -1.0417 -0.3902  0.1416
 5082SOL    MW420096   5.790   5.367   2.138 -0.4811 -0.2659  0.0614
 5083SOL     OW20097   3.629   5.379   1.859  0.1371 -0.3954 -0.1633
 5083SOL    HW220098   3.667   5.311   1.915 -0.2638 -0.8504 -0.4376
 5083SOL    HW320099   3.556   5.335   1.815  0.1005  0.1182 -0.6143
 5083SOL    MW420100   3.624   5.364   1.861  0.0793 -0.3877 -0.2590
 5084SOL     OW20101   3.655   0.031   3.299 -0.2976 -0.2260 -0.0462
 5084SOL    HW220102   3.601   0.034   3.220  0.7169  0.1542 -0.7374
 5084SOL    HW320103   3.660   0.121   3.329  0.4504 -0.1581 -0.3444
 5084SOL    MW420104   3.649   0.043   3.293 -0.0650 -0.1669 -0.1768
 5085SOL     OW20105   0.785   2.096   3.934  0.4364 -0.1001  0.2131
 5085SOL    HW220106   0.779   2.042   4.013 -0.0380 -1.4346 -0.7207
 5085SOL    HW320107   0.747   2.180   3.960  2.7474  0.4547  2.1942
 5085SOL    MW420108   0.779   2.100   3.948  0.6787 -0.2030  0.3513
 5086SOL     OW20109   4.347   6.206   0.049  0.2272 -0.5099 -0.0560
 5086SOL    HW220110   4.311   6.250  -0.028  1.0067  2.1624  0.9966
 5086SOL    HW320111   4.440   6.231   0.050  0.3951 -1.0793  1.3552
 5086SOL    MW420112   4.355   6.215   0.039  0.3522 -0.2325  0.2691
 5087SOL     OW20113   4.800   1.512   0.929 -0.0262  0.4737  0.5187
 5087SOL    HW220114   4.853   1.587   0.902 -0.4728  0.9621  0.9774
 5087SOL    HW320115   4.745   1.545   1.000  1.4019 -0.8420  2.3440
 5087SOL    MW420116   4.800   1.526   0.935  0.1033  0.3645  0.8200
 5088SOL     OW20117   5.254   0.856   1.958 -0.0378 -0.0048  0.0896
 5088SOL    HW220118   5.316   0.816   1.897 -0.1028  2.4483 -1.7732
 5088SOL    HW320119   5.285   0.830   2.045  2.6343 -0.2221 -0.8355
 5088SOL    MW420120   5.267   0.848   1.962  0.3062  0.2902 -0.2782
 5089SOL     OW20121   4.770   3.570   1.837  0.0225 -0.7538 -0.5585
 5089SOL    HW220122   4.732   3.486   1.815  1.7352 -1.5356 -0.6912
 5089SOL    HW320123   4.864   3.552   1.849  0.1494  0.7560  1.2918
 5089SOL    MW420124   4.778   3.557   1.836  0.2652 -0.6577 -0.3319
 5090SOL     OW20125   2.446   1.597   5.952 -0.0177  0.3423 -0.5784
 5090SOL    HW220126   2.532   1.608   5.910  1.1092 -0.4419  1.3849
 5090SOL    HW320127   2.430   1.681   5.995 -1.1876  1.1568 -2.4581
 5090SOL    MW420128   2.456   1.610   5.952 -0.0233  0.3463 -0.5674
 5091SOL     OW20129   4.113   4.403   3.054 -0.0128 -0.4779  0.4392
 5091SOL    HW220130   4.182   4.339   3.035 -0.6682 -0.9406 -0.4100
 5091SOL    HW320131   4.108   4.457   2.975 -0.9845 -0.7869  0.2821
 5091SOL    MW420132   4.122   4.402   3.041 -0.2275 -0.5797  0.3064
 5092SOL     OW20133   4.784   3.275   4.082 -0.1232 -0.1689 -0.8217
 5092SOL    HW220134   4.747   3.356   4.115 -0.7938 -1.0387  0.6746
 5092SOL    HW320135   4.810   3.295   3.992  0.1088  1.7936 -0.3619
 5092SOL    MW420136   4.783   3.288   4.075 -0.1810 -0.0248 -0.5636
 5093SOL     OW20137   4.866   3.613   5.541  0.3880  0.6531  0.1627
 5093SOL    HW220138   4.793   3.669   5.513  0.7426  1.3441  0.6056
 5093SOL    HW320139   4.928   3.616   5.469 -0.0229  0.0495 -0.2234
 5093SOL    MW420140   4.864   3.621   5.528  0.3806  0.6647  0.1702
 5094SOL     OW20141   1.704   2.362   3.816 -0.3830 -0.4088  0.0304
 5094SOL    HW220142   1.785   2.325   3.851  0.2252  0.9065  0.0940
 5094SOL    HW320143   1.673   2.421   3.885 -0.6379  0.1459 -0.5482
 5094SOL    MW420144   1.711   2.365   3.829 -0.3364 -0.1621 -0.0376
 5095SOL     OW20145   2.688   1.323   0.578  0.0980  0.3940 -0.4566
 5095SOL    HW220146   2.634   1.400   0.598 -0.0206  0.3285 -0.5218
 5095SOL    HW320147   2.674   1.307   0.485  0.2800  0.4140 -0.4868
 5095SOL    MW420148   2.679   1.331   0.569  0.1063  0.3880 -0.4692
 5096SOL     OW20149   5.929   3.939   2.855 -0.3710  0.2196 -0.2970
 5096SOL    HW220150   6.021   3.963   2.853 -0.7399  1.7587 -0.2116
 5096SOL    HW320151   5.913   3.898   2.771  0.3337  0.1396 -0.3997
 5096SOL    MW420152   5.939   3.937   2.844 -0.3267  0.4121 -0.2993
 5097SOL     OW20153   3.202   3.052   6.132 -0.4249  0.3170  0.1254
 5097SOL    HW220154   3.172   2.989   6.197 -0.7130  0.4027  0.0777
 5097SOL    HW320155   3.291   3.073   6.158 -0.7494  0.8259  0.8572
 5097SOL    MW420156   3.210   3.047   6.144 -0.5057  0.3954  0.2156
 5098SOL     OW20157   1.967   1.227   2.393  0.2371 -0.1355 -0.5552
 5098SOL    HW220158   2.047   1.222   2.342 -0.9175 -1.1249 -2.3647
 5098SOL    HW320159   1.907   1.280   2.340 -1.0996 -1.4406 -0.4369
 5098SOL    MW420160   1.969   1.233   2.379 -0.0916 -0.4382 -0.7783
 5099SOL     OW20161   3.733   0.168   1.960  0.2560  0.2596 -0.3063
 5099SOL    HW220162   3.763   0.245   2.008  0.2956  0.0934 -0.0600
 5099SOL    HW320163   3.640   0.184   1.945  0.0891  0.0110  0.4186
 5099SOL    MW420164   3.725   0.180   1.964  0.2392  0.2048 -0.1781
 5100SOL     OW20165   6.188   5.933   6.172  0.1374 -0.1095  0.4887
 5100SOL    HW220166   6.231   5.849   6.184  1.1335  0.2247 -0.5357
 5100SOL    HW320167   6.131   5.942   6.249 -0.8864 -2.2185  0.0417
 5100SOL    MW420168   6.186   5.923   6.184  0.1338 -0.3437  0.2946
 5101SOL     OW20169   0.352   3.442   3.601 -0.2284 -0.1793  0.1057
 5101SOL    HW220170   0.394   3.412   3.681  0.6604  0.6389 -0.0401
 5101SOL    HW320171   0.261   3.414   3.610  0.1053 -1.0516  0.9020
 5101SOL    MW420172   0.345   3.435   3.612 -0.0671 -0.1864  0.1915
 5102SOL     OW20173   6.204   3.709   6.088 -0.1245  0.2110  0.4197
 5102SOL    HW220174   6.210   3.694   5.994  0.1908 -3.4501  0.8436
 5102SOL    HW320175   6.265   3.780   6.106  0.7178  0.1698 -1.9670
 5102SOL    MW420176   6.213   3.716   6.078  0.0282 -0.2774  0.1607
 5103SOL     OW20177   3.030   3.252   6.003 -0.0160 -0.0279 -0.0896
 5103SOL    HW220178   3.060   3.165   6.030  0.2185  0.4221  1.1961
 5103SOL    HW320179   3.108   3.308   6.012 -0.5023  0.5804  0.4330
 5103SOL    MW420180   3.044   3.248   6.008 -0.0493  0.1117  0.1490
 5104SOL     OW20181   0.713   6.420   1.046  0.4725  0.3731 -0.0210
 5104SOL    HW220182   0.765   6.444   1.123 -0.8329  2.1333  0.3702
 5104SOL    HW320183   0.669   6.501   1.020  0.0858 -0.4198 -2.0337
 5104SOL    MW420184   0.714   6.434   1.053  0.2492  0.5007 -0.2350
 5105SOL     OW20185   0.041   0.840   1.938  0.1724 -0.2207 -0.8014
 5105SOL    HW220186   0.103   0.803   2.000 -0.7812 -2.0347 -0.8650
 5105SOL    HW320187   0.092   0.902   1.886  1.4578 -0.2422  0.4068
 5105SOL    MW420188   0.056   0.843   1.939  0.2162 -0.4629 -0.6504
 5106SOL     OW20189   3.399   5.109   5.316 -0.2417 -0.8846 -0.3184
 5106SOL    HW220190   3.448   5.187   5.290  0.4213 -0.5573  1.7357
 5106SOL    HW320191   3.314   5.143   5.343 -0.7439 -1.1675 -1.4566
 5106SOL    MW420192   3.395   5.124   5.316 -0.2205 -0.8787 -0.1976
 5107SOL     OW20193   5.936   5.369   5.053  0.7957  0.3868  0.3051
 5107SOL    HW220194   5.935   5.349   4.960  2.6527  2.0873 -0.1507
 5107SOL    HW320195   5.870   5.437   5.064  0.6419  0.2517  0.2117
 5107SOL    MW420196   5.927   5.375   5.042  1.0204  0.5934  0.2326
 5108SOL     OW20197   2.508   2.932   0.747 -0.0176  0.5770  0.3473
 5108SOL    HW220198   2.505   2.971   0.834 -1.1614  3.9156 -1.0225
 5108SOL    HW320199   2.417   2.930   0.719  0.3596 -0.1210 -0.8968
 5108SOL    MW420200   2.496   2.937   0.755 -0.1187  0.9254  0.0024
 5109SOL     OW20201   0.958   0.421   5.598 -0.5104 -0.0055  0.2290
 5109SOL    HW220202   0.907   0.485   5.547 -1.1587 -1.1201 -0.5714
 5109SOL    HW320203   0.983   0.468   5.677  0.9641  1.9692 -1.2933
 5109SOL    MW420204   0.954   0.436   5.602 -0.4014  0.1080 -0.0775
 5110SOL     OW20205   4.648   2.676   6.377  0.0765  0.1720 -0.9414
 5110SOL    HW220206   4.671   2.633   6.295 -0.1016 -1.2071 -0.2923
 5110SOL    HW320207   4.580   2.739   6.353  0.1864 -0.0499 -1.8740
 5110SOL    MW420208   4.642   2.679   6.363  0.0675 -0.0392 -0.9788
 5111SOL     OW20209   2.209   0.313   1.453 -0.0442  0.1346 -0.5204
 5111SOL    HW220210   2.276   0.258   1.413 -0.5831 -0.4196 -0.6764
 5111SOL    HW320211   2.198   0.386   1.393 -0.1916 -0.2167 -0.9199
 5111SOL    MW420212   2.216   0.315   1.440 -0.1348  0.0151 -0.5937
 5112SOL     OW20213   4.928   4.811   0.159 -0.3209  0.3288 -0.6475
 5112SOL    HW220214   4.931   4.751   0.085 -1.4616  0.2840 -0.6760
 5112SOL    HW320215   4.905   4.756   0.234 -0.4641  0.5828 -0.5029
 5112SOL    MW420216   4.925   4.796   0.159 -0.4903  0.3564 -0.6322
 5113SOL     OW20217   4.956   3.175   0.612 -0.6795 -0.0661 -0.0680
 5113SOL    HW220218   4.938   3.267   0.595  1.3081  0.4047  0.1232
 5113SOL    HW320219   4.908   3.128   0.543  0.2238  1.2765 -1.6998
 5113SOL    MW420220   4.947   3.181   0.601 -0.2981  0.1732 -0.2581
 5114SOL     OW20221   1.621   3.925   5.097  0.2470  0.7330 -0.2940
 5114SOL    HW220222   1.697   3.911   5.154  0.1972 -3.0099 -0.8560
 5114SOL    HW320223   1.657   3.930   5.009 -0.0377  0.7327 -0.4121
 5114SOL    MW420224   1.636   3.924   5.093  0.2029  0.2391 -0.3837
 5115SOL     OW20225   1.619   3.807   2.147 -0.4905 -0.0555 -0.1219
 5115SOL    HW220226   1.673   3.729   2.133 -1.4956 -1.0073  1.0089
 5115SOL    HW320227   1.679   3.881   2.134  0.1673 -0.9414 -2.6223
 5115SOL    MW420228   1.634   3.807   2.144 -0.5363 -0.2979 -0.3026
 5116SOL     OW20229   4.073   3.564   1.201  0.0893 -0.1343 -0.1696
 5116SOL    HW220230   4.008   3.575   1.131  0.6078  3.4211 -0.2703
 5116SOL    HW320231   4.025   3.585   1.281  1.1166  3.4461 -0.3285
 5116SOL    MW420232   4.058   3.568   1.202  0.2933  0.8072 -0.2039
 5117SOL     OW20233   0.835   6.102   5.812 -0.3281 -0.1050 -0.1634
 5117SOL    HW220234   0.924   6.111   5.778 -0.4229  0.9080 -0.1614
 5117SOL    HW320235   0.846   6.101   5.907 -0.2919 -0.3967 -0.1679
 5117SOL    MW420236   0.849   6.103   5.820 -0.3359 -0.0099 -0.1638
 5118SOL     OW20237   5.736   1.346   0.632  0.1566 -0.1071 -0.3276
 5118SOL    HW220238   5.745   1.425   0.578 -0.4055 -0.0989 -0.4202
 5118SOL    HW320239   5.795   1.360   0.705 -1.6650  1.5116  0.9411
 5118SOL    MW420240   5.745   1.358   0.634 -0.1579  0.1075 -0.1724
 5119SOL     OW20241   4.038   2.998   1.950  0.1205 -0.5835 -0.1057
 5119SOL    HW220242   4.013   3.026   2.038  2.2466  2.9785 -0.4380
 5119SOL    HW320243   3.958   3.008   1.898 -0.2790  0.8080  0.7369
 5119SOL    MW420244   4.024   3.003   1.955  0.3483  0.0700 -0.0384
 5120SOL     OW20245   3.347   1.187   1.911  0.1021 -0.0954  0.3554
 5120SOL    HW220246   3.350   1.122   1.982  1.0161 -0.3715  0.0777
 5120SOL    HW320247   3.385   1.266   1.950  2.0934 -0.7018 -0.2591
 5120SOL    MW420248   3.352   1.189   1.926  0.4854 -0.2119  0.2377
 5121SOL     OW20249   0.967   0.710   6.319  0.1628  0.3621  0.9437
 5121SOL    HW220250   1.001   0.788   6.276 -0.8106 -0.6428 -1.8803
 5121SOL    HW320251   0.878   0.733   6.345  0.3971  0.6420  1.5200
 5121SOL    MW420252   0.960   0.723   6.317  0.0653  0.2665  0.6472
 5122SOL     OW20253   2.449   3.735   3.711 -0.1367 -0.3459  0.1277
 5122SOL    HW220254   2.417   3.645   3.709  1.4484 -0.9761  1.1374
 5122SOL    HW320255   2.527   3.734   3.655 -0.8918  0.7625 -1.0005
 5122SOL    MW420256   2.455   3.723   3.703 -0.0272 -0.2828  0.1121
 5123SOL     OW20257   1.264   3.803   2.764  0.6970  0.7529  0.2087
 5123SOL    HW220258   1.198   3.857   2.720 -1.2310 -1.0339  0.7368
 5123SOL    HW320259   1.333   3.791   2.699 -1.4499 -0.7397 -1.9485
 5123SOL    MW420260   1.264   3.808   2.749  0.1593  0.3202 -0.0063
 5124SOL     OW20261   5.194   0.650   3.727  0.0995  0.6633  0.2719
 5124SOL    HW220262   5.108   0.648   3.769 -0.1457  1.7252 -0.1635
 5124SOL    HW320263   5.249   0.700   3.787  0.4578 -0.1096  0.6045
 5124SOL    MW420264   5.190   0.656   3.741  0.1144  0.7014  0.2583
 5125SOL     OW20265   1.473   3.089   1.427 -0.5293  0.2515  0.1610
 5125SOL    HW220266   1.394   3.119   1.383 -0.6070 -1.4285 -0.9181
 5125SOL    HW320267   1.444   3.060   1.513 -0.6668  1.8768  0.6920
 5125SOL    MW420268   1.459   3.089   1.432 -0.5577  0.2443  0.0887
 5126SOL     OW20269   3.843   4.150   5.920  0.0103  0.3303  0.1471
 5126SOL    HW220270   3.878   4.236   5.897  0.1549  0.5230  1.0536
 5126SOL    HW320271   3.787   4.166   5.996 -0.8410 -0.2131 -0.3531
 5126SOL    MW420272   3.840   4.163   5.927 -0.0830  0.2840  0.2007
 5127SOL     OW20273   0.650   2.350   2.434 -0.3259 -0.0977  0.0898
 5127SOL    HW220274   0.739   2.377   2.411 -0.5702 -0.1973 -1.0512
 5127SOL    HW320275   0.637   2.382   2.523  0.8381 -0.0485  0.2578
 5127SOL    MW420276   0.660   2.358   2.443 -0.2045 -0.1043 -0.0385
 5128SOL     OW20277   1.360   1.814   1.368 -0.7266 -0.2930 -0.3840
 5128SOL    HW220278   1.315   1.774   1.294 -2.6813 -0.4393  0.8197
 5128SOL    HW320279   1.290   1.841   1.428  0.7624 -0.1552  1.4094
 5128SOL    MW420280   1.345   1.812   1.367 -0.7881 -0.2941  0.0114
 5129SOL     OW20281   2.560   1.144   3.754 -0.3885 -0.2499  0.2221
 5129SOL    HW220282   2.542   1.148   3.848 -3.1714  0.6335 -0.2479
 5129SOL    HW320283   2.652   1.117   3.748 -0.2841 -0.8883  3.1573
 5129SOL    MW420284   2.570   1.141   3.766 -0.7419 -0.2175  0.5473
 5130SOL     OW20285   0.200   5.240   6.185  0.1886 -0.0531 -0.0968
 5130SOL    HW220286   0.150   5.318   6.161 -1.2425 -0.6429  0.8916
 5130SOL    HW320287   0.250   5.267   6.262 -0.3964 -0.1296  0.3173
 5130SOL    MW420288   0.200   5.254   6.192 -0.0774 -0.1410  0.0882
 5131SOL     OW20289   6.195   4.820   3.126 -0.4025 -0.0098 -0.5438
 5131SOL    HW220290   6.164   4.876   3.055 -1.3187 -0.8159 -0.8060
 5131SOL    HW320291   6.135   4.838   3.198 -0.6555 -0.5826 -0.6063
 5131SOL    MW420292   6.183   4.830   3.126 -0.5568 -0.1917 -0.5866
 5132SOL     OW20293   0.395   0.050   5.049  0.1377  0.2253 -0.4912
 5132SOL    HW220294   0.472   0.045   5.107  1.0297  0.7667 -1.5920
 5132SOL    HW320295   0.361   0.138   5.063  0.5353  0.4624 -1.0129
 5132SOL    MW420296   0.401   0.061   5.059  0.3078  0.3280 -0.7052
 5133SOL     OW20297   2.390   0.089   5.440 -0.6690 -0.6323  0.4673
 5133SOL    HW220298   2.430   0.024   5.382 -1.2114 -1.9556  1.4918
 5133SOL    HW320299   2.328   0.038   5.493  0.4051  0.2995  2.7910
 5133SOL    MW420300   2.387   0.073   5.440 -0.5988 -0.6840  0.9091
 5134SOL     OW20301   2.391   0.680   3.073 -0.0811 -0.1475  0.6227
 5134SOL    HW220302   2.379   0.598   3.121  0.3955 -0.5897  0.0016
 5134SOL    HW320303   2.303   0.707   3.048 -0.0677 -2.9450 -3.2562
 5134SOL    MW420304   2.378   0.673   3.076 -0.0164 -0.5750  0.0290
 5135SOL     OW20305   3.095   1.546   2.794  0.0585 -0.1818  0.2436
 5135SOL    HW220306   3.044   1.619   2.829  0.1372 -0.0471  0.0731
 5135SOL    HW320307   3.069   1.540   2.702 -0.5152 -0.8474  0.4383
 5135SOL    MW420308   3.085   1.555   2.787 -0.0068 -0.2519  0.2468
 5136SOL     OW20309   4.574   1.660   4.192  0.1951 -0.5669 -0.6945
 5136SOL    HW220310   4.596   1.689   4.280  0.0288  1.0044 -1.1411
 5136SOL    HW320311   4.481   1.640   4.196  0.6524 -2.7688  0.0412
 5136SOL    MW420312   4.565   1.661   4.204  0.2335 -0.6501 -0.6564
 5137SOL     OW20313   0.954   6.269   3.145  0.4914  0.2161 -0.3503
 5137SOL    HW220314   0.978   6.208   3.215 -0.0119 -0.9122 -1.1355
 5137SOL    HW320315   1.038   6.301   3.112  0.7353  0.7548  0.7548
 5137SOL    MW420316   0.968   6.265   3.150  0.4572  0.1383 -0.3081
 5138SOL     OW20317   6.439   6.067   2.014 -0.3667  0.0669  0.0151
 5138SOL    HW220318   6.525   6.043   1.980 -1.0508 -0.9445 -1.0599
 5138SOL    HW320319   6.415   5.994   2.071 -0.2968  0.5947  0.7313
 5138SOL    MW420320   6.448   6.054   2.017 -0.4477  0.0031 -0.0323
 5139SOL     OW20321   5.383   1.805   1.933  0.0552 -0.2075  0.0532
 5139SOL    HW220322   5.412   1.792   1.843  1.0710 -0.3262  0.3819
 5139SOL    HW320323   5.435   1.879   1.965 -0.3535 -0.1139  0.5196
 5139SOL    MW420324   5.394   1.813   1.925  0.1353 -0.2108  0.1581
 5140SOL     OW20325   5.441   6.014   0.956 -0.0997 -0.2312  0.4249
 5140SOL    HW220326   5.410   5.955   0.887 -0.7668 -0.4337  0.8933
 5140SOL    HW320327   5.375   6.008   1.025 -0.6027  1.6449  0.1710
 5140SOL    MW420328   5.429   6.005   0.956 -0.2541 -0.0104  0.4532
 5141SOL     OW20329   2.730   3.579   1.103 -0.3090  0.2388 -0.1885
 5141SOL    HW220330   2.637   3.574   1.125 -0.1148  0.8629  0.8588
 5141SOL    HW320331   2.751   3.493   1.067 -1.3885  0.2453 -0.8554
 5141SOL    MW420332   2.721   3.567   1.101 -0.4258  0.3220 -0.1383
 5142SOL     OW20333   1.479   0.288   5.336 -0.3460  0.6278 -0.3115
 5142SOL    HW220334   1.481   0.307   5.242 -0.0394 -2.0939 -0.9198
 5142SOL    HW320335   1.559   0.240   5.353 -1.0899 -0.1932  1.0570
 5142SOL    MW420336   1.490   0.284   5.326 -0.4037  0.1604 -0.2112
 5143SOL     OW20337   0.420   2.461   6.231 -0.1455  0.0859 -0.0181
 5143SOL    HW220338   0.333   2.466   6.193 -0.1973  2.0418  0.2707
 5143SOL    HW320339   0.475   2.516   6.175  0.3339  0.9219  1.2041
 5143SOL    MW420340   0.416   2.469   6.219 -0.0891  0.4543  0.1813
 5144SOL     OW20341   5.365   1.498   0.776  0.3982  0.3199  0.2407
 5144SOL    HW220342   5.335   1.503   0.866  3.5266  0.0189  1.4164
 5144SOL    HW320343   5.404   1.411   0.768  2.2050  1.1717 -0.6712
 5144SOL    MW420344   5.366   1.487   0.787  1.0493  0.3926  0.2755
 5145SOL     OW20345   4.358   2.938   2.148  0.2705 -0.3814  0.9841
 5145SOL    HW220346   4.440   2.892   2.167  0.7106  0.6379  1.6320
 5145SOL    HW320347   4.385   3.026   2.122 -0.6353  0.2441  2.0566
 5145SOL    MW420348   4.372   2.944   2.147  0.2091 -0.1644  1.2111
 5146SOL     OW20349   1.970   1.579   0.100  0.2801 -0.0771 -0.1307
 5146SOL    HW220350   1.948   1.647   0.163  0.7524 -0.2315  0.2046
 5146SOL    HW320351   1.947   1.616   0.015  0.9598  0.6813  0.0053
 5146SOL    MW420352   1.964   1.593   0.097  0.4321  0.0026 -0.0685
 5147SOL     OW20353   5.547   4.331   4.364  0.4992  0.1066  0.3731
 5147SOL    HW220354   5.557   4.238   4.379  1.1751 -0.2679 -2.0084
 5147SOL    HW320355   5.636   4.367   4.367  0.4651  0.3158 -0.5220
 5147SOL    MW420356   5.560   4.324   4.366  0.5839  0.0848 -0.0592
 5148SOL     OW20357   1.442   2.991   3.495 -0.3917 -0.1391 -0.0214
 5148SOL    HW220358   1.461   2.980   3.402 -1.6881 -0.3854 -0.2764
 5148SOL    HW320359   1.437   2.902   3.530 -2.1607 -0.1445 -0.2183
 5148SOL    MW420360   1.444   2.978   3.487 -0.7962 -0.1723 -0.0810
 5149SOL     OW20361   5.037   5.885   3.948 -0.0713 -0.5179  0.0483
 5149SOL    HW220362   5.086   5.833   3.884  1.1707  0.5725  0.0772
 5149SOL    HW320363   5.001   5.958   3.898  0.2511 -0.0825  0.4398
 5149SOL    MW420364   5.038   5.888   3.933  0.1351 -0.3166  0.1038
 5150SOL     OW20365   4.483   4.247   1.613 -0.0967 -0.0905 -0.0917
 5150SOL    HW220366   4.388   4.254   1.624  0.0472  2.3294  0.1187
 5150SOL    HW320367   4.517   4.250   1.703  0.2388  1.0416 -0.2410
 5150SOL    MW420368   4.475   4.248   1.626 -0.0335  0.3781 -0.0837
 5151SOL     OW20369   2.724   0.379   2.923 -0.6442 -0.2766  0.2054
 5151SOL    HW220370   2.800   0.437   2.917  1.3218 -2.8133 -1.3427
 5151SOL    HW320371   2.727   0.345   3.013 -2.2951  2.4192  1.4097
 5151SOL    MW420372   2.735   0.382   2.934 -0.6026 -0.2557  0.1600
 5152SOL     OW20373   2.044   2.554   4.441  0.5809 -0.1127 -0.5565
 5152SOL    HW220374   1.957   2.553   4.402  0.8127  0.7891 -1.1243
 5152SOL    HW320375   2.029   2.531   4.533 -0.2648  0.1402 -0.6201
 5152SOL    MW420376   2.031   2.550   4.448  0.4999  0.0397 -0.6398
 5153SOL     OW20377   3.319   3.751   2.268 -0.0661 -0.2099 -0.4749
 5153SOL    HW220378   3.227   3.759   2.292  0.1521 -1.0586  0.7217
 5153SOL    HW320379   3.364   3.820   2.316  0.1133 -0.7036  0.0725
 5153SOL    MW420380   3.313   3.761   2.277 -0.0136 -0.3870 -0.2448
 5154SOL     OW20381   3.684   6.313   5.456 -0.1708  0.0389  0.8379
 5154SOL    HW220382   3.648   6.245   5.514 -1.6697 -1.2663 -1.4857
 5154SOL    HW320383   3.709   6.266   5.377 -3.6152  2.3745 -1.9196
 5154SOL    MW420384   3.682   6.298   5.453 -0.8231  0.1748  0.1675
 5155SOL     OW20385   1.871   2.406   2.498  0.1255  0.3956 -0.4037
 5155SOL    HW220386   1.804   2.336   2.500  0.4728  0.0254 -1.1297
 5155SOL    HW320387   1.911   2.397   2.411  0.9518  0.7748 -0.0663
 5155SOL    MW420388   1.867   2.395   2.486  0.2803  0.3968 -0.4550
 5156SOL     OW20389   0.077   3.619   5.946  0.1800  0.1394 -0.7694
 5156SOL    HW220390  -0.001   3.629   5.891 -0.3328 -1.2898 -0.3538
 5156SOL    HW320391   0.104   3.528   5.932  0.7546  0.1140  0.3984
 5156SOL    MW420392   0.070   3.608   5.937  0.1882 -0.0525 -0.5605
 5157SOL     OW20393   0.818   0.015   5.018  0.9742  0.0860 -0.2428
 5157SOL    HW220394   0.770   0.046   5.094 -1.4456  1.4601 -2.1687
 5157SOL    HW320395   0.793   0.076   4.948  4.6365  0.1430 -1.7238
 5157SOL    MW420396   0.808   0.027   5.019  1.1381  0.2748 -0.6923
 5158SOL     OW20397   2.693   0.584   3.830  0.5005  0.2781 -0.2539
 5158SOL    HW220398   2.745   0.600   3.908 -0.9865  0.1891  0.7987
 5158SOL    HW320399   2.750   0.533   3.772  0.8491 -1.7436  1.7505
 5158SOL    MW420400   2.707   0.580   3.832  0.3503 -0.0004  0.1495
 5159SOL     OW20401   2.445   3.828   2.432  0.2788 -0.6500  0.0864
 5159SOL    HW220402   2.390   3.892   2.388  0.6403  0.0231  0.5856
 5159SOL    HW320403   2.492   3.878   2.498 -0.0877 -1.5990  1.0943
 5159SOL    MW420404   2.444   3.843   2.435  0.2781 -0.6864  0.2852
 5160SOL     OW20405   3.287   4.073   5.691  0.2577  0.7189 -0.4385
 5160SOL    HW220406   3.353   4.022   5.644  0.6999  3.1197 -2.6175
 5160SOL    HW320407   3.331   4.101   5.771  1.3812  1.0540 -1.1597
 5160SOL    MW420408   3.302   4.070   5.696  0.4643  1.0799 -0.8212
 5161SOL     OW20409   1.245   0.049   3.433  0.4688  0.4737  0.1952
 5161SOL    HW220410   1.280  -0.012   3.368 -0.8479  0.1243 -0.2205
 5161SOL    HW320411   1.322   0.091   3.470  1.3039 -0.0421 -0.8872
 5161SOL    MW420412   1.260   0.046   3.429  0.4052  0.3595 -0.0024
 5162SOL     OW20413   6.423   1.825   3.968 -0.5022  0.3740  0.1631
 5162SOL    HW220414   6.412   1.754   3.906  1.2672  1.7065 -1.8153
 5162SOL    HW320415   6.468   1.785   4.043 -0.3577 -0.7712 -0.5106
 5162SOL    MW420416   6.428   1.811   3.970 -0.2497  0.3987 -0.1868
 5163SOL     OW20417   3.069   3.096   3.751  0.1991  0.0928 -0.1868
 5163SOL    HW220418   3.000   3.053   3.702  1.0866 -0.3056 -1.1261
 5163SOL    HW320419   3.114   3.026   3.798  1.9964 -0.1949 -2.1504
 5163SOL    MW420420   3.066   3.081   3.751  0.5533  0.0023 -0.5698
 5164SOL     OW20421   4.224   5.802   1.729  0.1938 -0.2025  0.4998
 5164SOL    HW220422   4.208   5.884   1.682  1.1888 -0.0819  0.3528
 5164SOL    HW320423   4.205   5.822   1.821  1.6303  0.5671  0.6591
 5164SOL    MW420424   4.220   5.816   1.735  0.5146 -0.0851  0.5014
 5165SOL     OW20425   4.349   0.737   4.795  0.1550  0.2079  0.6392
 5165SOL    HW220426   4.425   0.712   4.741  0.5556  2.2540  0.1334
 5165SOL    HW320427   4.365   0.830   4.815 -2.4072  0.8272  0.1568
 5165SOL    MW420428   4.361   0.746   4.790 -0.1302  0.5596  0.5088
 5166SOL     OW20429   1.915   0.492   5.893  0.5304  0.6792 -0.2073
 5166SOL    HW220430   1.838   0.546   5.912  0.5452  0.4210  0.6133
 5166SOL    HW320431   1.886   0.433   5.824 -0.2966 -0.0339  0.7303
 5166SOL    MW420432   1.901   0.492   5.887  0.4232  0.5511  0.0247
 5167SOL     OW20433   3.836   4.525   2.452  0.1507  0.0857 -0.3642
 5167SOL    HW220434   3.838   4.430   2.442  1.0501 -0.0604  0.8949
 5167SOL    HW320435   3.822   4.539   2.546 -2.4411  1.2486 -0.8419
 5167SOL    MW420436   3.835   4.515   2.463 -0.0726  0.2199 -0.2611
 5168SOL     OW20437   3.054   5.547   2.646 -0.5305 -0.2828  0.2176
 5168SOL    HW220438   3.086   5.462   2.616 -2.2106 -0.3747 -1.5825
 5168SOL    HW320439   2.964   5.551   2.614 -0.3134  2.4283 -0.3294
 5168SOL    MW420440   3.046   5.536   2.638 -0.7235  0.0628 -0.0921
 5169SOL     OW20441   0.931   3.160   1.356 -0.0851 -0.0763 -0.1322
 5169SOL    HW220442   0.853   3.111   1.329  1.0357 -1.1617 -1.6027
 5169SOL    HW320443   0.909   3.251   1.337 -0.5370 -0.4984 -1.8072
 5169SOL    MW420444   0.918   3.165   1.350  0.0031 -0.2752 -0.5472
 5170SOL     OW20445   2.387   4.746   4.885 -0.0283 -0.4664  0.0948
 5170SOL    HW220446   2.343   4.817   4.838  0.0306 -1.0927 -0.9382
 5170SOL    HW320447   2.453   4.790   4.938  0.1670  0.2466 -0.7156
 5170SOL    MW420448   2.390   4.761   4.886  0.0053 -0.4550 -0.1484
 5171SOL     OW20449   1.905   4.926   0.781 -0.2902  0.0585  0.4357
 5171SOL    HW220450   1.842   4.996   0.802 -0.8615 -0.2868 -0.0977
 5171SOL    HW320451   1.888   4.905   0.689  1.2591  0.6206 -0.0165
 5171SOL    MW420452   1.894   4.933   0.772 -0.1612  0.0871  0.3057
 5172SOL     OW20453   5.243   0.812   0.050 -0.1503 -0.0333  0.2069
 5172SOL    HW220454   5.289   0.763   0.118 -0.2013 -0.1087  0.1874
 5172SOL    HW320455   5.152   0.783   0.057 -0.1919  0.1008  0.2329
 5172SOL    MW420456   5.237   0.802   0.060 -0.1625 -0.0256  0.2078
 5173SOL     OW20457   5.587   0.723   5.665 -0.3171  0.0385 -0.3296
 5173SOL    HW220458   5.620   0.806   5.629  1.6082  0.1642  1.5890
 5173SOL    HW320459   5.500   0.745   5.698 -0.0522  1.1784 -0.3430
 5173SOL    MW420460   5.580   0.737   5.664 -0.0281  0.2055 -0.0783
 5174SOL     OW20461   3.116   1.675   0.981 -0.1019  0.4123  0.0519
 5174SOL    HW220462   3.168   1.751   0.955  0.9107 -0.3929 -0.3757
 5174SOL    HW320463   3.163   1.600   0.944 -1.4159 -0.3822 -0.1020
 5174SOL    MW420464   3.129   1.675   0.972 -0.1416  0.2012 -0.0249
 5175SOL     OW20465   3.477   3.546   2.407  0.3663 -0.0508 -0.2098
 5175SOL    HW220466   3.488   3.612   2.475  0.6472 -0.4589  0.1434
 5175SOL    HW320467   3.416   3.585   2.345 -1.1884 -0.2919  1.0946
 5175SOL    MW420468   3.470   3.560   2.407  0.1983 -0.1365  0.0089
 5176SOL     OW20469   2.183   0.632   4.670 -0.2267  0.3993  0.0842
 5176SOL    HW220470   2.129   0.691   4.618  1.4352 -0.7590 -3.2525
 5176SOL    HW320471   2.136   0.549   4.667 -0.3531  0.4411  0.8695
 5176SOL    MW420472   2.170   0.629   4.662 -0.0241  0.2520 -0.2524
 5177SOL     OW20473   1.859   0.084   6.246  0.0158  0.5982 -0.0009
 5177SOL    HW220474   1.895   0.170   6.268  0.4451  0.5146 -0.3593
 5177SOL    HW320475   1.911   0.055   6.170 -1.2292  0.7567 -0.9550
 5177SOL    MW420476   1.871   0.091   6.239 -0.0918  0.6081 -0.1741
 5178SOL     OW20477   6.236   1.267   0.952  0.2413 -0.7158  0.4837
 5178SOL    HW220478   6.147   1.254   0.985  0.1650 -0.3621  0.4299
 5178SOL    HW320479   6.270   1.341   1.002 -0.2514  0.5125 -0.8947
 5178SOL    MW420480   6.229   1.275   0.963  0.1662 -0.5071  0.2947
 5179SOL     OW20481   6.385   5.897   3.206  1.2162 -0.6248 -0.2371
 5179SOL    HW220482   6.391   5.852   3.290  1.0877 -1.1649 -0.5135
 5179SOL    HW320483   6.473   5.930   3.189  1.2220 -0.4363  0.1484
 5179SOL    MW420484   6.397   5.896   3.215  1.2000 -0.6712 -0.2227
 5180SOL     OW20485   0.590   4.410   0.049  0.6287  0.4395 -1.2387
 5180SOL    HW220486   0.524   4.341   0.049  0.8568  0.2174 -1.4781
 5180SOL    HW320487   0.572   4.462   0.127  0.3823  0.1774 -1.1240
 5180SOL    MW420488   0.579   4.408   0.059  0.6263  0.3756 -1.2552
 5181SOL     OW20489   4.218   4.081   3.541  0.2440 -0.4457 -0.1020
 5181SOL    HW220490   4.288   4.036   3.493 -0.9140 -1.7378 -0.6639
 5181SOL    HW320491   4.183   4.144   3.478  0.9475  0.2810  0.2162
 5181SOL    MW420492   4.223   4.083   3.526  0.1841 -0.5203 -0.1342
 5182SOL     OW20493   5.643   0.074   2.442 -0.0489 -0.0551 -0.7673
 5182SOL    HW220494   5.729   0.039   2.462  0.3581  1.1932 -0.2775
 5182SOL    HW320495   5.644   0.088   2.347  0.2727 -0.0855 -0.7691
 5182SOL    MW420496   5.654   0.071   2.432  0.0472  0.1056 -0.7029
 5183SOL     OW20497   3.148   3.464   4.336 -0.0626 -0.2251 -0.6836
 5183SOL    HW220498   3.059   3.469   4.371  0.1054 -0.2345 -0.2487
 5183SOL    HW320499   3.140   3.496   4.246 -0.3665  0.5308 -0.3957
 5183SOL    MW420500   3.135   3.469   4.328 -0.0805 -0.1266 -0.5882
 5184SOL     OW20501   3.500   4.507   0.345 -0.0118  0.2860  0.0763
 5184SOL    HW220502   3.423   4.521   0.401 -0.2037 -0.6832  0.0662
 5184SOL    HW320503   3.574   4.509   0.405 -0.2623 -1.3704  0.4983
 5184SOL    MW420504   3.499   4.509   0.360 -0.0702 -0.0604  0.1307
 5185SOL     OW20505   0.122   6.357   5.274  0.0155  0.2166 -0.0103
 5185SOL    HW220506   0.036   6.385   5.241  0.1709 -0.1099 -0.7009
 5185SOL    HW320507   0.118   6.262   5.272  0.2765  0.1983  0.2887
 5185SOL    MW420508   0.110   6.348   5.269  0.0704  0.1711 -0.0620
 5186SOL     OW20509   6.070   5.314   1.573  0.4340 -0.4618 -0.8499
 5186SOL    HW220510   6.130   5.389   1.571  0.1299 -0.1698  0.1949
 5186SOL    HW320511   6.126   5.238   1.561  1.2910 -0.3227  1.6775
 5186SOL    MW420512   6.085   5.314   1.571  0.5069 -0.4049 -0.3786
 5187SOL     OW20513   4.062   1.879   2.824  0.1679  0.0643  0.2253
 5187SOL    HW220514   4.009   1.952   2.858 -1.5666 -0.2300 -1.6363
 5187SOL    HW320515   4.039   1.805   2.880 -1.1843  0.0216 -0.3550
 5187SOL    MW420516   4.052   1.879   2.836 -0.2394  0.0198 -0.0969
 5188SOL     OW20517   6.104   0.193   0.583 -0.0777  0.3796  0.1320
 5188SOL    HW220518   6.076   0.281   0.557  0.2517  0.5110  0.2168
 5188SOL    HW320519   6.188   0.181   0.538 -0.7327 -0.4086 -0.9432
 5188SOL    MW420520   6.112   0.203   0.573 -0.1206  0.2929  0.0014
 5189SOL     OW20521   5.614   0.739   0.211  0.4671 -0.6704 -0.0274
 5189SOL    HW220522   5.538   0.689   0.238 -0.0496  0.6673  1.0993
 5189SOL    HW320523   5.682   0.715   0.273 -0.1621  0.9417  1.3639
 5189SOL    MW420524   5.613   0.729   0.223  0.3159 -0.2812  0.3049
 5190SOL     OW20525   0.406   2.896   4.769  0.1323  0.1637 -0.2125
 5190SOL    HW220526   0.342   2.870   4.703  0.0958  2.2905 -1.0930
 5190SOL    HW320527   0.475   2.940   4.721  1.1401 -0.0349  0.9818
 5190SOL    MW420528   0.407   2.898   4.754  0.2604  0.4181 -0.1711
 5191SOL     OW20529   1.708   4.900   5.642 -0.1806 -0.2647  0.3565
 5191SOL    HW220530   1.778   4.838   5.624 -0.4702 -0.6126  0.4287
 5191SOL    HW320531   1.685   4.936   5.557 -0.4316 -0.7077  0.2341
 5191SOL    MW420532   1.714   4.897   5.628 -0.2519 -0.3690  0.3499
 5192SOL     OW20533   2.574   6.391   6.363  0.4542  0.1724  0.0238
 5192SOL    HW220534   2.548   6.321   6.303  0.0832  0.4796 -0.1798
 5192SOL    HW320535   2.664   6.411   6.340  0.5095 -0.1325 -0.0211
 5192SOL    MW420536   2.582   6.385   6.352  0.4125  0.1727 -0.0090
 5193SOL     OW20537   5.862   5.589   2.842 -0.2327  0.1815 -0.0953
 5193SOL    HW220538   5.828   5.510   2.884 -0.2708  1.2022  1.8981
 5193SOL    HW320539   5.951   5.598   2.877  0.4510  0.0464 -1.7252
 5193SOL    MW420540   5.869   5.580   2.852 -0.1475  0.2984 -0.0473
 5194SOL     OW20541   6.180   3.935   3.432 -0.6259 -0.0103 -0.1033
 5194SOL    HW220542   6.204   3.928   3.525  1.5830 -1.3503 -0.7027
 5194SOL    HW320543   6.209   3.853   3.394 -2.9526 -0.1732 -1.7501
 5194SOL    MW420544   6.187   3.923   3.440 -0.6415 -0.2086 -0.3997
 5195SOL     OW20545   5.004   3.432   1.852  0.7799 -0.1231  0.3984
 5195SOL    HW220546   5.065   3.376   1.899  1.5928 -0.5954 -1.1468
 5195SOL    HW320547   5.052   3.459   1.773 -0.3523  1.0193  0.0689
 5195SOL    MW420548   5.018   3.428   1.848  0.7378 -0.0347  0.1511
 5196SOL     OW20549   4.521   4.084   2.394 -0.3213 -0.0673  0.1979
 5196SOL    HW220550   4.538   4.060   2.485  1.3816  1.2330  0.2728
 5196SOL    HW320551   4.534   4.179   2.392  0.2052 -0.1481 -1.4947
 5196SOL    MW420552   4.525   4.093   2.406 -0.0272  0.0936 -0.0155
 5197SOL     OW20553   4.790   5.944   0.927  0.8911  0.5637  0.2870
 5197SOL    HW220554   4.844   6.022   0.936  1.2523  0.6317 -1.8313
 5197SOL    HW320555   4.728   5.966   0.857  0.3251 -0.6747  0.3691
 5197SOL    MW420556   4.789   5.957   0.919  0.8640  0.4093  0.0184
 5198SOL     OW20557   4.221   3.156   4.693  0.6200 -0.4035 -0.5823
 5198SOL    HW220558   4.147   3.108   4.731  0.2286  0.0822 -0.7360
 5198SOL    HW320559   4.267   3.192   4.769  1.3811 -1.6851 -0.4095
 5198SOL    MW420560   4.217   3.154   4.708  0.6687 -0.5085 -0.5798
 5199SOL     OW20561   1.349   6.103   5.620 -0.1425 -0.3875 -0.3257
 5199SOL    HW220562   1.272   6.131   5.669 -1.4470 -0.7119 -2.1041
 5199SOL    HW320563   1.412   6.076   5.687 -1.4549  0.1509  1.1700
 5199SOL    MW420564   1.347   6.103   5.635 -0.4878 -0.3592 -0.3630
 5200SOL     OW20565   3.930   5.135   0.100  0.1060  0.2391  0.3409
 5200SOL    HW220566   3.933   5.228   0.126  0.0327 -0.2339  2.1606
 5200SOL    HW320567   3.851   5.101   0.142  0.8998 -0.9804  0.8827
 5200SOL    MW420568   3.920   5.143   0.109  0.2011  0.0158  0.6525
 5201SOL     OW20569   6.023   3.118   6.037 -0.4880  0.6700 -0.4661
 5201SOL    HW220570   6.033   3.077   6.123  1.7099 -0.5700 -1.2177
 5201SOL    HW320571   6.064   3.204   6.048  1.9498 -0.3581 -0.7649
 5201SOL    MW420572   6.030   3.124   6.050  0.1236  0.3708 -0.6047
 5202SOL     OW20573   1.112   5.361   1.252  0.2342  0.1359  0.1530
 5202SOL    HW220574   1.024   5.325   1.251 -0.1571  0.9603  1.3395
 5202SOL    HW320575   1.163   5.305   1.194 -0.2711 -2.4602  2.0339
 5202SOL    MW420576   1.107   5.349   1.244  0.1159 -0.0979  0.5577
 5203SOL     OW20577   4.213   5.103   1.321 -0.1949 -0.4251 -0.1213
 5203SOL    HW220578   4.292   5.048   1.321  0.3692  0.3568  0.8789
 5203SOL    HW320579   4.245   5.190   1.344 -1.3399 -0.0755  0.1711
 5203SOL    MW420580   4.228   5.107   1.324 -0.2715 -0.2758  0.0492
 5204SOL     OW20581   3.686   5.999   2.522 -0.3379 -0.2781 -0.1207
 5204SOL    HW220582   3.672   5.915   2.566  0.4731 -0.5218 -0.3267
 5204SOL    HW320583   3.631   6.061   2.571  0.6428 -0.5144  1.3195
 5204SOL    MW420584   3.677   5.996   2.534 -0.1015 -0.3414  0.0421
 5205SOL     OW20585   4.172   0.097   2.349  0.2075  0.4993  0.0536
 5205SOL    HW220586   4.176   0.006   2.320  2.0230  0.4560  0.3419
 5205SOL    HW320587   4.183   0.148   2.269  1.7343  0.4125  0.1793
 5205SOL    MW420588   4.174   0.091   2.335  0.6485  0.4822  0.1082
 5206SOL     OW20589   5.504   5.409   5.645 -0.0510 -0.3478  0.2009
 5206SOL    HW220590   5.544   5.489   5.610 -3.0163  0.5122 -1.5229
 5206SOL    HW320591   5.485   5.430   5.736  1.7231 -0.1726  0.5754
 5206SOL    MW420592   5.507   5.423   5.653 -0.2082 -0.2112  0.0229
 5207SOL     OW20593   2.499   4.782   0.233  0.1840 -0.5630 -0.5346
 5207SOL    HW220594   2.559   4.720   0.192  4.4058  2.4831  0.4028
 5207SOL    HW320595   2.524   4.784   0.325 -1.1276  1.0978 -0.1573
 5207SOL    MW420596   2.510   4.774   0.239  0.5680  0.0580 -0.3611
 5208SOL     OW20597   1.824   2.541   4.301 -0.2571  0.0699  0.0885
 5208SOL    HW220598   1.773   2.462   4.285 -1.2406  0.7358 -0.1219
 5208SOL    HW320599   1.849   2.572   4.215  0.2506 -0.0763  0.1773
 5208SOL    MW420600   1.820   2.534   4.288 -0.3199  0.1385  0.0724
 5209SOL     OW20601   1.900   0.572   3.984  0.4329 -0.6541 -0.0201
 5209SOL    HW220602   1.986   0.561   3.945 -0.4399  0.1360 -2.3615
 5209SOL    HW320603   1.909   0.647   4.043  1.4061 -0.7906  0.0133
 5209SOL    MW420604   1.912   0.580   3.986  0.4461 -0.5679 -0.3246
 5210SOL     OW20605   2.582   6.331   5.688 -0.1391 -0.0577 -0.1599
 5210SOL    HW220606   2.653   6.356   5.747 -1.2096  0.9569  0.7480
 5210SOL    HW320607   2.605   6.371   5.604 -0.4255  1.7100  0.5534
 5210SOL    MW420608   2.594   6.340   5.684 -0.3181  0.3094  0.0540
 5211SOL     OW20609   6.325   5.707   0.097  0.1696  0.0147  0.0419
 5211SOL    HW220610   6.322   5.728   0.191  0.8328 -0.6734  0.2249
 5211SOL    HW320611   6.376   5.779   0.059  1.0317 -0.3779  0.4200
 5211SOL    MW420612   6.331   5.719   0.105  0.3708 -0.1279  0.1159
 5212SOL     OW20613   0.234   4.314   5.752 -0.1982 -0.1250  0.1474
 5212SOL    HW220614   0.226   4.307   5.847  2.7650  1.4299  0.6382
 5212SOL    HW320615   0.187   4.394   5.729 -0.4572 -0.2100  0.3831
 5212SOL    MW420616   0.227   4.324   5.762  0.1586  0.0689  0.2433
 5213SOL     OW20617   2.164   3.951   3.080 -0.0617  0.2585  0.3875
 5213SOL    HW220618   2.072   3.926   3.086  0.2258 -0.9628  0.0310
 5213SOL    HW320619   2.174   4.020   3.145 -1.5980  1.6000 -0.7150
 5213SOL    MW420620   2.153   3.957   3.089 -0.2265  0.2744  0.1950
 5214SOL     OW20621   1.288   3.973   2.167 -0.4195  0.5396  0.5653
 5214SOL    HW220622   1.364   4.014   2.126  0.0525  0.5281  1.3922
 5214SOL    HW320623   1.250   3.918   2.099  1.1912 -0.6226  0.5316
 5214SOL    MW420624   1.293   3.971   2.153 -0.1447  0.3848  0.6700
 5215SOL     OW20625   5.842   5.944   2.335 -0.0508  0.0587 -0.0585
 5215SOL    HW220626   5.783   5.934   2.410 -0.0468  0.9925  0.0752
 5215SOL    HW320627   5.787   5.924   2.259 -0.4303  0.5004  0.0969
 5215SOL    MW420628   5.827   5.940   2.335 -0.1003  0.2402 -0.0204
 5216SOL     OW20629   2.139   6.409   6.079  0.0526 -0.2478 -0.1277
 5216SOL    HW220630   2.222   6.441   6.113 -0.2345  0.9846 -0.4960
 5216SOL    HW320631   2.101   6.358   6.150  0.5439  0.2660  0.5089
 5216SOL    MW420632   2.145   6.407   6.093  0.0795 -0.0174 -0.0923
 5217SOL     OW20633   2.840   4.046   2.409  0.3758  0.0453  0.0776
 5217SOL    HW220634   2.775   4.080   2.346 -0.5722  0.7226  1.3671
 5217SOL    HW320635   2.787   4.002   2.476  0.9609  2.6487  2.4421
 5217SOL    MW420636   2.824   4.045   2.409  0.3279  0.4782  0.5597
 5218SOL     OW20637   4.336   5.385   0.221  0.0220 -0.3138  0.0841
 5218SOL    HW220638   4.249   5.416   0.248  0.3875  0.1656  0.7332
 5218SOL    HW320639   4.325   5.290   0.211 -0.2646 -0.4622  1.4789
 5218SOL    MW420640   4.323   5.376   0.224  0.0324 -0.2701  0.3538
 5219SOL     OW20641   0.881   5.714   6.321 -0.3596  0.2519  0.0123
 5219SOL    HW220642   0.798   5.694   6.278  0.0293 -1.3732 -0.0264
 5219SOL    HW320643   0.856   5.765   6.399 -1.2855  0.7136 -0.5697
 5219SOL    MW420644   0.867   5.718   6.326 -0.4304  0.0984 -0.0696
 5220SOL     OW20645   3.519   0.172   0.139 -0.1751 -0.1780 -0.0413
 5220SOL    HW220646   3.496   0.092   0.092  1.7842 -0.8889  0.1473
 5220SOL    HW320647   3.614   0.168   0.150 -0.0979  1.8980  0.4931
 5220SOL    MW420648   3.528   0.161   0.134  0.0936  0.0021  0.0541
 5221SOL     OW20649   0.912   5.478   0.865 -0.1042  0.6684 -0.2469
 5221SOL    HW220650   0.834   5.444   0.909  0.3761  1.6483  1.4893
 5221SOL    HW320651   0.956   5.530   0.933  3.1616 -1.4850 -0.5216
 5221SOL    MW420652   0.907   5.481   0.880  0.3901  0.5136 -0.0541
 5222SOL     OW20653   2.255   6.168   1.915 -0.7920 -0.0298 -0.4756
 5222SOL    HW220654   2.278   6.094   1.970 -0.0580  0.7310  0.2688
 5222SOL    HW320655   2.321   6.234   1.934 -1.4950  0.8653 -1.0360
 5222SOL    MW420656   2.267   6.167   1.924 -0.7879  0.1887 -0.4513
 5223SOL     OW20657   2.526   3.847   4.095  0.5683  0.0686 -0.6670
 5223SOL    HW220658   2.464   3.872   4.027  0.0596  1.8070  0.3813
 5223SOL    HW320659   2.555   3.930   4.133  1.2362 -0.8291  0.8729
 5223SOL    MW420660   2.521   3.861   4.091  0.5893  0.1795 -0.3255
 5224SOL     OW20661   2.602   3.484   5.565  0.0302  0.5701  0.1105
 5224SOL    HW220662   2.566   3.460   5.651 -0.0062 -1.3851 -0.3898
 5224SOL    HW320663   2.608   3.579   5.567 -2.4140  0.7861  1.3185
 5224SOL    MW420664   2.598   3.493   5.577 -0.2971  0.3407  0.2039
 5225SOL     OW20665   6.254   1.934   2.109  0.1738 -0.1250 -0.0930
 5225SOL    HW220666   6.268   1.954   2.017  1.1702  2.8068  0.5839
 5225SOL    HW320667   6.167   1.896   2.112  0.4212 -1.0114 -2.3129
 5225SOL    MW420668   6.245   1.932   2.097  0.3379  0.1449 -0.2966
 5226SOL     OW20669   3.551   1.005   0.975  0.1924 -0.3804 -0.1794
 5226SOL    HW220670   3.525   0.986   1.065  0.4118  0.7784  0.1464
 5226SOL    HW320671   3.472   0.986   0.923 -0.9195  1.6433  0.6237
 5226SOL    MW420672   3.537   1.000   0.980  0.0747  0.0395 -0.0305
 5227SOL     OW20673   5.368   0.088   1.815  0.0121 -0.0265  0.2982
 5227SOL    HW220674   5.351   0.182   1.806 -1.5230 -0.2909  0.1021
 5227SOL    HW320675   5.458   0.082   1.848  0.6034  1.4637 -0.9211
 5227SOL    MW420676   5.378   0.100   1.818 -0.1124  0.1352  0.1115
 5228SOL     OW20677   5.525   0.738   3.517  0.1367  0.4152  0.9655
 5228SOL    HW220678   5.619   0.758   3.517 -0.3368  2.9650  0.0752
 5228SOL    HW320679   5.492   0.776   3.598 -0.0614 -1.1423  1.6572
 5228SOL    MW420680   5.533   0.745   3.527  0.0481  0.5461  0.9393
 5229SOL     OW20681   3.522   0.963   1.257  0.1601  0.4399 -0.7250
 5229SOL    HW220682   3.611   0.999   1.251  0.2761  0.0417 -1.7757
 5229SOL    HW320683   3.468   1.035   1.286  0.9055  0.5554  0.4575
 5229SOL    MW420684   3.527   0.977   1.260  0.2738  0.4026 -0.7076
 5230SOL     OW20685   5.475   3.234   4.159 -0.3073  0.1594  0.0031
 5230SOL    HW220686   5.524   3.151   4.158  0.6477  0.7134 -0.0432
 5230SOL    HW320687   5.396   3.215   4.109  0.6112 -0.3024 -1.3265
 5230SOL    MW420688   5.471   3.220   4.152 -0.0601  0.1715 -0.1785
 5231SOL     OW20689   4.240   1.878   2.229  0.4515  0.0166  0.0716
 5231SOL    HW220690   4.204   1.829   2.155  1.4787 -0.0687 -0.3855
 5231SOL    HW320691   4.260   1.964   2.193  2.6396 -0.5630 -0.2810
 5231SOL    MW420692   4.238   1.883   2.214  0.8757 -0.0711 -0.0353
 5232SOL     OW20693   5.643   4.958   2.008 -0.1552  0.1959  0.0870
 5232SOL    HW220694   5.629   5.045   1.973 -0.6962  0.4201  0.8383
 5232SOL    HW320695   5.691   4.912   1.940  0.6157  1.2386 -0.0990
 5232SOL    MW420696   5.648   4.963   1.995 -0.1249  0.3630  0.1616
 5233SOL     OW20697   0.719   5.316   3.286 -0.5701  0.2205 -0.1497
 5233SOL    HW220698   0.788   5.288   3.346 -1.3682  0.7492  1.0800
 5233SOL    HW320699   0.712   5.410   3.300 -0.0972  0.5439 -1.8570
 5233SOL    MW420700   0.727   5.325   3.296 -0.6130  0.3329 -0.2127
 5234SOL     OW20701   0.325   5.123   2.446  0.0937  0.3150 -0.2257
 5234SOL    HW220702   0.379   5.202   2.441 -1.0294  1.1694  0.6939
 5234SOL    HW320703   0.295   5.120   2.536 -0.6161 -0.6635 -0.4828
 5234SOL    MW420704   0.328   5.133   2.457 -0.1482  0.2986 -0.1383
 5235SOL     OW20705   0.100   3.560   5.616 -0.0544 -0.4050 -0.1028
 5235SOL    HW220706   0.009   3.540   5.637  0.1584  0.0664  1.3875
 5235SOL    HW320707   0.097   3.589   5.524 -1.7422  1.5834  0.4921
 5235SOL    MW420708   0.087   3.561   5.606 -0.2490 -0.0804  0.1723
 5236SOL     OW20709   5.084   3.794   4.599  0.6778  0.6344 -0.7372
 5236SOL    HW220710   5.145   3.737   4.647 -0.1956 -0.0057 -0.3563
 5236SOL    HW320711   4.997   3.761   4.622  0.0852  2.6050  0.1172
 5236SOL    MW420712   5.081   3.782   4.609  0.4844  0.8099 -0.5742
 5237SOL     OW20713   3.862   0.241   4.815 -0.6242 -0.1908  0.3986
 5237SOL    HW220714   3.796   0.305   4.842 -0.1426  0.5511 -0.1387
 5237SOL    HW320715   3.856   0.171   4.880  1.5795  2.2214  3.5699
 5237SOL    MW420716   3.853   0.240   4.827 -0.2699  0.2253  0.7461
 5238SOL     OW20717   5.334   2.777   4.344 -0.1736  0.3258 -0.4900
 5238SOL    HW220718   5.411   2.814   4.388  1.0362 -1.9345 -0.5458
 5238SOL    HW320719   5.331   2.822   4.259  2.2072 -0.7668 -1.2242
 5238SOL    MW420720   5.344   2.788   4.339  0.3001 -0.1166 -0.5942
 5239SOL     OW20721   4.612   3.238   3.262  0.0276 -0.5335  0.0061
 5239SOL    HW220722   4.688   3.181   3.269  0.6730  0.1791 -0.9696
 5239SOL    HW320723   4.648   3.327   3.263 -0.7028 -0.1986 -1.1866
 5239SOL    MW420724   4.627   3.243   3.263  0.0164 -0.3953 -0.2800
 5240SOL     OW20725   2.253   2.617   3.839 -0.6927 -0.4235 -0.4969
 5240SOL    HW220726   2.287   2.705   3.829 -1.5391  0.0866  0.8404
 5240SOL    HW320727   2.325   2.560   3.810  0.7313  0.6434  0.7920
 5240SOL    MW420728   2.267   2.621   3.834 -0.6165 -0.2155 -0.1504
 5241SOL     OW20729   0.470   2.705   5.811 -0.7027 -0.2828  0.0560
 5241SOL    HW220730   0.390   2.678   5.764 -1.1122  1.0724 -0.0520
 5241SOL    HW320731   0.477   2.798   5.794  1.2487 -0.4814 -0.4101
 5241SOL    MW420732   0.460   2.713   5.802 -0.4993 -0.1302 -0.0197
 5242SOL     OW20733   3.991   4.532   6.184  0.3922 -0.4443  0.0529
 5242SOL    HW220734   3.975   4.444   6.219  0.4373 -1.3679 -2.0703
 5242SOL    HW320735   3.909   4.579   6.200  0.0187 -1.1814  0.3878
 5242SOL    MW420736   3.978   4.526   6.191  0.3489 -0.6634 -0.1831
 5243SOL     OW20737   3.138   2.370   5.685 -0.5665  0.5014  0.4386
 5243SOL    HW220738   3.166   2.282   5.660 -0.6258  0.8430 -0.8566
 5243SOL    HW320739   3.048   2.377   5.652 -0.7635  0.8686  1.0192
 5243SOL    MW420740   3.130   2.359   5.678 -0.6003  0.5949  0.3443
 5244SOL     OW20741   4.399   2.111   6.062  0.4797  0.3631 -0.0969
 5244SOL    HW220742   4.388   2.087   6.154  0.5626  0.2208 -0.1234
 5244SOL    HW320743   4.418   2.028   6.018 -1.0124  0.1905 -0.4812
 5244SOL    MW420744   4.400   2.097   6.068  0.2938  0.3215 -0.1511
 5245SOL     OW20745   5.580   1.671   0.670 -0.3833  0.2574 -0.1841
 5245SOL    HW220746   5.550   1.680   0.580  0.2528 -1.1806 -0.5686
 5245SOL    HW320747   5.508   1.625   0.715  0.1959 -1.0109 -0.5166
 5245SOL    MW420748   5.566   1.666   0.664 -0.2230 -0.0997 -0.2787
 5246SOL     OW20749   2.941   5.914   2.725  0.2211 -0.0907  0.8017
 5246SOL    HW220750   2.887   5.883   2.797 -1.7179  1.6673  0.1956
 5246SOL    HW320751   2.888   5.981   2.682  1.7122 -0.3456 -1.6472
 5246SOL    MW420752   2.927   5.919   2.729  0.1620  0.1076  0.3986
 5247SOL     OW20753   3.599   0.922   2.223  0.2412 -0.3447  0.5404
 5247SOL    HW220754   3.616   0.845   2.168  0.6244 -1.3454  1.9973
 5247SOL    HW320755   3.685   0.964   2.232  1.0429 -2.3053  3.3721
 5247SOL    MW420756   3.613   0.917   2.217  0.3975 -0.7354  1.1062
 5248SOL     OW20757   5.347   5.880   6.167 -0.0686 -0.1181 -0.1842
 5248SOL    HW220758   5.298   5.799   6.161 -0.1209 -0.0963 -0.0461
 5248SOL    HW320759   5.288   5.947   6.132 -0.0073 -0.1471 -0.3432
 5248SOL    MW420760   5.333   5.878   6.162 -0.0674 -0.1190 -0.1870
 5249SOL     OW20761   2.395   0.152   5.815  0.5909 -0.3929 -0.5770
 5249SOL    HW220762   2.337   0.217   5.855  0.0590 -0.5459 -1.0773
 5249SOL    HW320763   2.461   0.134   5.882 -0.2619 -0.6312  0.2225
 5249SOL    MW420764   2.396   0.158   5.829  0.4082 -0.4445 -0.5375
 5250SOL     OW20765   0.459   5.250   1.729  0.4779  0.5880 -0.7004
 5250SOL    HW220766   0.398   5.314   1.766  2.2576  1.0913  1.5591
 5250SOL    HW320767   0.423   5.165   1.757  1.5329  0.9313  2.0457
 5250SOL    MW420768   0.446   5.247   1.738  0.8519  0.6997 -0.0400
 5251SOL     OW20769   4.670   2.574   3.417 -0.1349  0.3330 -0.2748
 5251SOL    HW220770   4.650   2.493   3.465 -0.4834 -0.2882 -1.4234
 5251SOL    HW320771   4.612   2.640   3.455  0.3644  0.1171  0.8775
 5251SOL    MW420772   4.659   2.572   3.428 -0.1150  0.2226 -0.2743
 5252SOL     OW20773   1.253   0.657   1.704  0.1577  0.4905  0.0473
 5252SOL    HW220774   1.283   0.748   1.710  1.1957  0.1895 -0.3656
 5252SOL    HW320775   1.305   0.619   1.633  0.3021 -0.6398  0.7299
 5252SOL    MW420776   1.264   0.664   1.696  0.3137  0.3017  0.0829
 5253SOL     OW20777   0.265   4.251   6.011  0.8282  0.2908 -0.4852
 5253SOL    HW220778   0.285   4.204   6.092  0.9192  1.7370  0.3580
 5253SOL    HW320779   0.307   4.336   6.021 -1.6951  1.6449 -0.7293
 5253SOL    MW420780   0.273   4.256   6.023  0.5073  0.6603 -0.4061
 5254SOL     OW20781   6.036   0.927   3.476  0.5394 -0.3119 -0.3435
 5254SOL    HW220782   6.095   0.973   3.536  0.2909 -1.7673  1.0979
 5254SOL    HW320783   6.058   0.961   3.390  2.6926  0.0158  0.2790
 5254SOL    MW420784   6.046   0.937   3.473  0.7907 -0.4607 -0.0712
 5255SOL     OW20785   3.873   5.252   4.550  0.0941  0.4984  0.3309
 5255SOL    HW220786   3.833   5.334   4.524 -2.0914 -1.2513 -2.4114
 5255SOL    HW320787   3.800   5.195   4.572  1.1281 -1.8463 -1.6951
 5255SOL    MW420788   3.858   5.255   4.549 -0.0578 -0.0418 -0.2982
 5256SOL     OW20789   0.282   0.669   4.555 -0.8297 -0.7272  0.3711
 5256SOL    HW220790   0.307   0.757   4.585 -1.0297 -1.2563  2.2111
 5256SOL    HW320791   0.194   0.656   4.589 -1.1598 -1.3066 -0.6732
 5256SOL    MW420792   0.274   0.679   4.564 -0.8996 -0.8735  0.4761
 5257SOL     OW20793   4.841   5.594   5.764 -0.1728  0.9199 -0.5731
 5257SOL    HW220794   4.928   5.621   5.794  0.0653  0.0933 -0.4983
 5257SOL    HW320795   4.810   5.669   5.712  0.2091  1.5812  0.1218
 5257SOL    MW420796   4.848   5.608   5.761 -0.0910  0.8981 -0.4716
 5258SOL     OW20797   1.302   2.954   5.671  0.3000 -0.1853  0.2553
 5258SOL    HW220798   1.296   3.011   5.595 -0.5475  0.6166  0.9002
 5258SOL    HW320799   1.243   2.881   5.651 -3.5328  2.1301  1.8382
 5258SOL    MW420800   1.293   2.952   5.659 -0.3175  0.2260  0.5492
 5259SOL     OW20801   3.253   0.709   5.722 -0.4082  0.4403 -0.7432
 5259SOL    HW220802   3.269   0.662   5.804 -0.9280  2.1659  0.4235
 5259SOL    HW320803   3.212   0.644   5.664 -0.1398 -0.7950  0.4024
 5259SOL    MW420804   3.250   0.694   5.725 -0.4414  0.5050 -0.4381
 5260SOL     OW20805   6.010   0.050   5.193 -0.0707  0.6628 -0.6658
 5260SOL    HW220806   6.100   0.021   5.179 -0.0528  0.8738 -1.0086
 5260SOL    HW320807   6.020   0.136   5.234 -0.1204 -0.0499  0.9198
 5260SOL    MW420808   6.023   0.058   5.197 -0.0749  0.5966 -0.5019
 5261SOL     OW20809   3.073   5.370   5.748 -0.0497  0.4894 -1.2147
 5261SOL    HW220810   3.060   5.407   5.835  2.9106  1.1689 -0.9631
 5261SOL    HW320811   2.995   5.317   5.732 -1.3199  1.4990  1.2255
 5261SOL    MW420812   3.061   5.368   5.757  0.1732  0.7122 -0.8596
 5262SOL     OW20813   5.126   1.228   3.672  0.7526 -0.7202 -0.4176
 5262SOL    HW220814   5.132   1.219   3.767  0.2377 -0.2360 -0.3364
 5262SOL    HW320815   5.034   1.210   3.652  0.1425  1.9922 -0.4871
 5262SOL    MW420816   5.114   1.224   3.682  0.6042 -0.2985 -0.4160
 5263SOL     OW20817   6.460   5.023   6.093 -0.4565  0.1920  0.1213
 5263SOL    HW220818   6.477   5.071   6.174 -1.3768  0.2632  0.2821
 5263SOL    HW320819   6.504   5.074   6.025  2.1939 -1.0089  0.8070
 5263SOL    MW420820   6.468   5.036   6.095 -0.2282  0.0430  0.2329
 5264SOL     OW20821   3.838   3.090   3.590 -0.3930 -0.0823  0.1734
 5264SOL    HW220822   3.796   3.056   3.511  2.3990 -0.8167 -1.1012
 5264SOL    HW320823   3.845   3.184   3.576 -1.2136 -0.0072  0.2323
 5264SOL    MW420824   3.833   3.098   3.578 -0.1329 -0.1693  0.0130
 5265SOL     OW20825   5.465   0.092   3.856 -0.2952 -0.1853  0.4244
 5265SOL    HW220826   5.418   0.009   3.867 -0.3272 -0.3179 -0.6140
 5265SOL    HW320827   5.406   0.146   3.802 -0.4920  0.7044  1.4970
 5265SOL    MW420828   5.451   0.088   3.850 -0.3254 -0.0854  0.4289
 5266SOL     OW20829   5.485   1.212   3.662 -0.0674  0.4870 -0.1878
 5266SOL    HW220830   5.448   1.237   3.747 -1.0115 -1.8951  0.1636
 5266SOL    HW320831   5.579   1.227   3.671 -0.3721  2.1199  0.5671
 5266SOL    MW420832   5.492   1.217   3.674 -0.2322  0.3881 -0.0418
 5267SOL     OW20833   1.899   1.204   6.262  0.0869  0.1885  0.2453
 5267SOL    HW220834   1.965   1.269   6.239 -0.4109  0.1028 -1.5872
 5267SOL    HW320835   1.931   1.165   6.344  0.2291  2.8993  1.5708
 5267SOL    MW420836   1.912   1.207   6.270  0.0400  0.5348  0.1784
 5268SOL     OW20837   0.780   6.226   1.284 -0.7288 -0.1981  0.0467
 5268SOL    HW220838   0.693   6.188   1.282 -0.4839 -0.8241  0.7617
 5268SOL    HW320839   0.768   6.309   1.330 -0.7503 -0.8687  1.2990
 5268SOL    MW420840   0.767   6.232   1.290 -0.6993 -0.3692  0.3063
 5269SOL     OW20841   3.437   2.541   3.354  0.0575 -0.0305 -0.5556
 5269SOL    HW220842   3.515   2.538   3.299  2.2798 -2.6214  2.3957
 5269SOL    HW320843   3.454   2.478   3.423 -3.5194  1.3218  1.8381
 5269SOL    MW420844   3.449   2.532   3.356 -0.1212 -0.1939  0.1496
 5270SOL     OW20845   3.922   4.307   2.223 -0.7156 -0.7378 -0.2845
 5270SOL    HW220846   3.837   4.267   2.202 -0.9696  0.0137 -0.7542
 5270SOL    HW320847   3.977   4.287   2.147 -1.2192  0.8165 -1.1027
 5270SOL    MW420848   3.918   4.299   2.210 -0.8155 -0.4336 -0.4544
 5271SOL     OW20849   3.712   4.275   0.207 -0.4070 -0.1561  0.1626
 5271SOL    HW220850   3.745   4.341   0.146 -1.4771 -0.9943 -1.4006
 5271SOL    HW320851   3.751   4.193   0.176 -0.0044 -0.4393  1.3728
 5271SOL    MW420852   3.722   4.273   0.195 -0.4951 -0.3041  0.1160
 5272SOL     OW20853   2.802   5.790   2.451 -0.0034  0.0516  0.4998
 5272SOL    HW220854   2.811   5.729   2.525  1.7495 -0.9552 -0.4658
 5272SOL    HW320855   2.890   5.826   2.440 -0.6747  1.6632  0.0757
 5272SOL    MW420856   2.815   5.787   2.460  0.1393  0.1314  0.3164
 5273SOL     OW20857   1.436   0.352   1.135 -0.4095 -0.2223  0.0546
 5273SOL    HW220858   1.522   0.388   1.156 -1.0804  0.7927  1.1856
 5273SOL    HW320859   1.384   0.365   1.214 -1.0267 -2.7941  0.1836
 5273SOL    MW420860   1.441   0.358   1.148 -0.5795 -0.4277  0.2208
 5274SOL     OW20861   1.520   3.361   3.745  0.0515  0.1565 -0.3817
 5274SOL    HW220862   1.469   3.351   3.826 -1.0705  1.1086 -0.9317
 5274SOL    HW320863   1.578   3.435   3.762  0.1900  0.0201 -0.2629
 5274SOL    MW420864   1.521   3.370   3.758 -0.0782  0.2641 -0.4386
 5275SOL     OW20865   1.038   6.275   6.179  0.2115  0.0803 -0.0502
 5275SOL    HW220866   1.111   6.270   6.239 -0.0741  0.5836  0.3466
 5275SOL    HW320867   1.037   6.366   6.149 -0.0174 -0.0165 -0.3481
 5275SOL    MW420868   1.047   6.286   6.183  0.1436  0.1339 -0.0371
 5276SOL     OW20869   6.298   4.546   4.010  0.7788  0.6878  0.2883
 5276SOL    HW220870   6.356   4.616   3.978  1.2061  0.0224 -0.4201
 5276SOL    HW320871   6.311   4.474   3.949 -1.0764  0.6386 -0.1042
 5276SOL    MW420872   6.307   4.546   3.998  0.5904  0.5935  0.1431
 5277SOL     OW20873   1.523   4.428   0.878 -0.6221 -0.7760 -0.2798
 5277SOL    HW220874   1.500   4.489   0.948 -1.1814 -0.6731 -0.5565
 5277SOL    HW320875   1.444   4.419   0.826 -0.0629 -0.4733 -1.1983
 5277SOL    MW420876   1.510   4.435   0.881 -0.6221 -0.7225 -0.4375
 5278SOL     OW20877   2.124   6.094   2.850  0.0430 -0.0406  0.2989
 5278SOL    HW220878   2.077   6.012   2.839  1.6123 -0.9290 -0.1476
 5278SOL    HW320879   2.209   6.068   2.886  0.3336  1.4594  0.7724
 5278SOL    MW420880   2.129   6.080   2.853  0.2884  0.0401  0.3025
 5279SOL     OW20881   0.815   4.483   2.714 -0.2663  0.4734 -0.0287
 5279SOL    HW220882   0.745   4.440   2.764 -0.0297  0.9219  0.7099
 5279SOL    HW320883   0.772   4.560   2.675  0.0355  1.3605  1.3178
 5279SOL    MW420884   0.800   4.488   2.716 -0.1953  0.6496  0.2464
 5280SOL     OW20885   5.995   2.626   4.475 -0.1358  0.1492  0.2502
 5280SOL    HW220886   5.927   2.678   4.516 -0.5887  1.4810 -2.0487
 5280SOL    HW320887   5.957   2.538   4.468 -2.3143  1.1521 -2.2534
 5280SOL    MW420888   5.981   2.621   4.480 -0.4830  0.4572 -0.3834
 5281SOL     OW20889   0.391   3.710   3.573  0.4167 -0.1680 -0.2758
 5281SOL    HW220890   0.324   3.755   3.521 -1.9856 -0.6465  2.2241
 5281SOL    HW320891   0.370   3.617   3.565 -0.0914 -0.2513  1.5248
 5281SOL    MW420892   0.379   3.704   3.565  0.0327 -0.2422  0.2916
 5282SOL     OW20893   5.745   2.187   4.775 -0.7283  0.0806  0.1186
 5282SOL    HW220894   5.685   2.213   4.845 -0.7458 -0.8196  0.4497
 5282SOL    HW320895   5.743   2.260   4.713 -2.4017 -0.0640 -0.0333
 5282SOL    MW420896   5.737   2.200   4.776 -0.9514 -0.0572  0.1422
 5283SOL     OW20897   1.327   4.920   6.282 -0.1032  0.0326  0.1753
 5283SOL    HW220898   1.253   4.915   6.221  0.8370  0.4690 -1.0392
 5283SOL    HW320899   1.328   5.011   6.311 -0.9330 -0.3130  1.3870
 5283SOL    MW420900   1.317   4.931   6.277 -0.0886  0.0446  0.1750
 5284SOL     OW20901   0.961   0.791   1.832  0.5669 -0.2014  0.1098
 5284SOL    HW220902   0.882   0.742   1.811  0.6161 -0.5004  0.6116
 5284SOL    HW320903   0.987   0.830   1.748  0.6730 -1.2300 -0.3537
 5284SOL    MW420904   0.954   0.790   1.818  0.5874 -0.3765  0.1148
 5285SOL     OW20905   1.013   4.810   1.685 -0.2526 -0.7274  0.3003
 5285SOL    HW220906   0.989   4.745   1.619  2.2178 -1.2271 -0.2078
 5285SOL    HW320907   1.039   4.887   1.635 -0.7375 -0.2336  0.8024
 5285SOL    MW420908   1.014   4.811   1.670  0.0094 -0.7282  0.2995
 5286SOL     OW20909   1.747   3.060   1.327 -0.4293  0.5274  0.4820
 5286SOL    HW220910   1.769   3.151   1.304 -0.5829  0.6169  0.6865
 5286SOL    HW320911   1.656   3.065   1.357 -1.4999 -0.1489 -2.3320
 5286SOL    MW420912   1.738   3.073   1.328 -0.5908  0.4500  0.1377
 5287SOL     OW20913   6.214   6.375   2.283 -0.6400 -0.4569 -0.0426
 5287SOL    HW220914   6.264   6.451   2.252  0.0933 -1.2891 -0.9664
 5287SOL    HW320915   6.190   6.329   2.203 -1.8065 -0.7574  0.4720
 5287SOL    MW420916   6.218   6.379   2.268 -0.6972 -0.6064 -0.0966
 5288SOL     OW20917   0.724   4.310   3.081 -0.1352  0.4297 -0.0486
 5288SOL    HW220918   0.705   4.303   2.987  1.2709 -0.5251 -0.2899
 5288SOL    HW320919   0.799   4.368   3.086  0.0546  0.1499  0.4449
 5288SOL    MW420920   0.731   4.317   3.069  0.0754  0.2668 -0.0153
 5289SOL     OW20921   4.662   2.181   4.023  0.1170  0.4308  0.5838
 5289SOL    HW220922   4.599   2.244   3.987  0.3358  0.8725  0.9705
 5289SOL    HW320923   4.622   2.096   4.006 -0.7263  0.7194  1.0722
 5289SOL    MW420924   4.648   2.178   4.016  0.0346  0.5271  0.6993
 5290SOL     OW20925   0.075   4.987   2.358  0.2420  0.3141  0.0760
 5290SOL    HW220926   0.161   5.023   2.382  0.3753  1.0318 -1.3516
 5290SOL    HW320927   0.023   4.994   2.437  0.9270  1.6866  0.4430
 5290SOL    MW420928   0.080   4.992   2.371  0.3499  0.5899 -0.0640
 5291SOL     OW20929   2.580   0.121   6.026  0.0051  0.6247  0.4910
 5291SOL    HW220930   2.653   0.076   5.984  1.0806  0.3666  2.4970
 5291SOL    HW320931   2.600   0.214   6.016  0.2133  0.5669  0.3637
 5291SOL    MW420932   2.593   0.127   6.019  0.1745  0.5830  0.7389
 5292SOL     OW20933   5.678   4.419   3.041  0.9116 -0.8173 -0.2546
 5292SOL    HW220934   5.739   4.350   3.013  1.1322  0.0482 -2.0722
 5292SOL    HW320935   5.597   4.398   2.995  1.2836  0.6546 -1.6759
 5292SOL    MW420936   5.676   4.407   3.031  0.9898 -0.5089 -0.6820
 5293SOL     OW20937   0.964   2.169   5.012 -0.7871  0.0534  0.0199
 5293SOL    HW220938   1.011   2.128   4.939  0.3465  0.4365  0.5028
 5293SOL    HW320939   0.980   2.263   5.001 -1.7561  0.2246  0.0014
 5293SOL    MW420940   0.973   2.176   5.001 -0.7654  0.1266  0.0812
 5294SOL     OW20941   1.153   5.153   4.811  0.1115  0.1472  0.2708
 5294SOL    HW220942   1.102   5.183   4.887 -0.6703 -2.6608  0.9871
 5294SOL    HW320943   1.125   5.062   4.799  1.7151 -0.0944 -2.1647
 5294SOL    MW420944   1.142   5.145   4.819  0.2200 -0.2552  0.0440
 5295SOL     OW20945   3.738   5.556   5.956  0.4313  0.5396 -0.1393
 5295SOL    HW220946   3.746   5.553   5.861 -1.3916 -1.3170 -0.3002
 5295SOL    HW320947   3.826   5.537   5.989  1.0983  1.2933 -1.4140
 5295SOL    MW420948   3.751   5.553   5.948  0.2788  0.3941 -0.3287
 5296SOL     OW20949   4.256   1.192   6.351 -0.1295 -0.4528  0.2472
 5296SOL    HW220950   4.259   1.127   6.421 -2.2346 -2.4962 -1.4097
 5296SOL    HW320951   4.306   1.153   6.280 -0.0759  0.4863 -0.2476
 5296SOL    MW420952   4.263   1.178   6.351 -0.4002 -0.5985 -0.0367
 5297SOL     OW20953   5.017   3.730   0.354  0.1820  0.1632 -0.0853
 5297SOL    HW220954   5.028   3.759   0.444 -0.5313  1.6470 -0.4388
 5297SOL    HW320955   4.932   3.767   0.327  0.0446 -0.8511 -1.1338
 5297SOL    MW420956   5.007   3.739   0.362  0.0697  0.2251 -0.2703
 5298SOL     OW20957   2.683   0.731   5.192  0.9120  0.7598 -0.3301
 5298SOL    HW220958   2.686   0.768   5.104 -0.5765 -0.3873 -0.8889
 5298SOL    HW320959   2.699   0.637   5.180 -2.7602 -0.0806  0.1146
 5298SOL    MW420960   2.686   0.723   5.179  0.2311  0.4976 -0.3451
 5299SOL     OW20961   1.329   5.195   1.915  0.0584 -0.3274  0.0076
 5299SOL    HW220962   1.253   5.156   1.959 -0.4973  0.2844 -0.3843
 5299SOL    HW320963   1.330   5.286   1.943  0.7265 -0.3559  0.0966
 5299SOL    MW420964   1.319   5.202   1.924  0.0732 -0.2505 -0.0324
 5300SOL     OW20965   6.379   1.235   4.792 -0.1096 -0.2513 -0.2829
 5300SOL    HW220966   6.387   1.229   4.697 -1.9583 -0.7821 -0.4431
 5300SOL    HW320967   6.339   1.321   4.808 -1.2131 -0.7811 -0.1126
 5300SOL    MW420968   6.375   1.245   4.782 -0.4991 -0.3912 -0.2816
 5301SOL     OW20969   6.063   5.618   0.073  0.1413  1.0422  0.2770
 5301SOL    HW220970   6.019   5.663   0.001  0.1001  0.8830  0.2024
 5301SOL    HW320971   6.150   5.658   0.077  0.8621 -0.2641 -1.1244
 5301SOL    MW420972   6.069   5.629   0.064  0.2310  0.8489  0.0823
 5302SOL     OW20973   1.116   0.125   0.760 -0.5527 -0.1083  0.8523
 5302SOL    HW220974   1.047   0.066   0.789 -1.2469  0.4929  0.4589
 5302SOL    HW320975   1.170   0.073   0.701 -1.2228 -0.3155  0.4147
 5302SOL    MW420976   1.114   0.111   0.756 -0.7327 -0.0564  0.7426
 5303SOL     OW20977   3.738   3.589   5.591  0.1831  0.0060 -0.3122
 5303SOL    HW220978   3.773   3.513   5.545 -0.1716  0.4890 -1.3995
 5303SOL    HW320979   3.683   3.633   5.527  0.6157  1.3534  0.2043
 5303SOL    MW420980   3.736   3.584   5.577  0.1934  0.2475 -0.3875
 5304SOL     OW20981   5.596   1.439   2.960  1.0099 -0.6321 -0.3540
 5304SOL    HW220982   5.517   1.385   2.954  0.3946  0.0534  1.1399
 5304SOL    HW320983   5.610   1.451   3.053  0.5543  2.5939 -0.6128
 5304SOL    MW420984   5.588   1.433   2.971  0.8686 -0.1161 -0.1911
 5305SOL     OW20985   2.670   0.335   2.425 -0.0401  0.0483 -0.5558
 5305SOL    HW220986   2.661   0.414   2.479 -0.5689  0.3221 -1.0226
 5305SOL    HW320987   2.672   0.263   2.487 -0.9182  0.3359 -0.1717
 5305SOL    MW420988   2.669   0.336   2.440 -0.2257  0.1223 -0.5667
 5306SOL     OW20989   1.155   6.113   5.075  0.1679 -1.1902 -0.8839
 5306SOL    HW220990   1.155   6.192   5.020  0.6816  0.4579  1.3449
 5306SOL    HW320991   1.082   6.126   5.135  1.9139 -1.0075  1.3202
 5306SOL    MW420992   1.145   6.125   5.076  0.4661 -0.9487 -0.2990
 5307SOL     OW20993   2.318   0.481   2.081 -0.5252 -0.0044  0.2937
 5307SOL    HW220994   2.233   0.452   2.050 -0.3050 -0.6834  0.3022
 5307SOL    HW320995   2.341   0.554   2.025 -1.5975  0.9007  0.9835
 5307SOL    MW420996   2.310   0.487   2.070 -0.6377  0.0255  0.3859
 5308SOL     OW20997   6.425   4.313   0.330 -0.0277 -0.0318  0.4624
 5308SOL    HW220998   6.364   4.296   0.401 -0.0469 -3.0027 -0.1517
 5308SOL    HW320999   6.387   4.269   0.254  1.3246  0.7383 -0.7093
 5308SOL    MW421000   6.412   4.305   0.329  0.1482 -0.3222  0.2268
 5309SOL     OW21001   3.151   1.512   0.153 -0.7127  0.4756 -0.0161
 5309SOL    HW221002   3.179   1.508   0.061 -0.3337  1.6149  0.0310
 5309SOL    HW321003   3.187   1.433   0.192 -0.6839  0.0894 -0.7946
 5309SOL    MW421004   3.160   1.501   0.146 -0.6589  0.5750 -0.1126
 5310SOL     OW21005   2.746   2.635   1.322 -0.7477  0.1824  0.0837
 5310SOL    HW221006   2.662   2.648   1.367 -0.4940 -1.1655  1.0222
 5310SOL    HW321007   2.726   2.648   1.229 -2.2579 -1.0965  0.1766
 5310SOL    MW421008   2.732   2.638   1.316 -0.9135 -0.1642  0.2197
 5311SOL     OW21009   3.603   5.298   3.073  0.0404 -0.3069 -0.3371
 5311SOL    HW221010   3.666   5.363   3.042 -1.0446  0.4397 -1.0095
 5311SOL    HW321011   3.627   5.283   3.164  0.6006  0.6642 -0.3139
 5311SOL    MW421012   3.615   5.304   3.081 -0.0289 -0.0803 -0.4227
 5312SOL     OW21013   2.392   2.306   1.890 -0.1674 -0.0971  0.3161
 5312SOL    HW221014   2.435   2.235   1.938 -0.5752 -0.6919 -0.1841
 5312SOL    HW321015   2.394   2.380   1.950 -1.6056 -1.1054  1.6892
 5312SOL    MW421016   2.398   2.306   1.904 -0.4109 -0.3086  0.4312
 5313SOL     OW21017   4.714   0.721   1.804  0.6971 -0.9000  0.3450
 5313SOL    HW221018   4.712   0.812   1.832  0.2658 -0.3825 -1.2723
 5313SOL    HW321019   4.651   0.677   1.862 -1.8397  0.5580 -1.0967
 5313SOL    MW421020   4.705   0.727   1.815  0.3055 -0.6393 -0.0586
 5314SOL     OW21021   0.237   3.856   5.969 -0.3455  0.0492 -0.5246
 5314SOL    HW221022   0.184   3.780   5.945 -1.4185  1.0332 -1.3611
 5314SOL    HW321023   0.243   3.907   5.888  2.3264 -0.2564 -0.6040
 5314SOL    MW421024   0.231   3.853   5.955 -0.1345  0.1387 -0.6454
 5315SOL     OW21025   4.562   5.807   5.829 -0.0902 -0.0632  0.1797
 5315SOL    HW221026   4.615   5.885   5.845 -0.8313  0.5569 -0.3376
 5315SOL    HW321027   4.473   5.834   5.850 -0.6735 -0.1026 -2.0064
 5315SOL    MW421028   4.557   5.821   5.834 -0.2649  0.0134 -0.1770
 5316SOL     OW21029   6.212   3.442   3.799 -0.3022  0.1221 -0.1473
 5316SOL    HW221030   6.302   3.408   3.794  0.7909  2.6443  0.3974
 5316SOL    HW321031   6.214   3.523   3.748 -1.8266  1.0485  1.1546
 5316SOL    MW421032   6.224   3.449   3.792 -0.3591  0.5771  0.0963
 5317SOL     OW21033   2.645   4.086   5.674  0.2002  0.1165 -0.0617
 5317SOL    HW221034   2.599   4.157   5.628  1.0455  1.3463  0.9481
 5317SOL    HW321035   2.621   4.008   5.624  0.5117  1.2866 -2.2013
 5317SOL    MW421036   2.636   4.085   5.661  0.3528  0.4331 -0.2107
 5318SOL     OW21037   5.045   1.813   2.840 -0.6789 -0.0704 -0.0006
 5318SOL    HW221038   5.129   1.806   2.886 -0.9842  0.7549  0.7060
 5318SOL    HW321039   4.996   1.878   2.890 -0.9292  1.0569 -1.6319
 5318SOL    MW421040   5.050   1.821   2.853 -0.7522  0.1872 -0.1226
 5319SOL     OW21041   6.238   2.183   4.902  0.0338 -0.1332 -0.5419
 5319SOL    HW221042   6.256   2.277   4.905 -1.2682  0.1222 -0.0450
 5319SOL    HW321043   6.322   2.143   4.880  0.5791  1.1518 -0.8746
 5319SOL    MW421044   6.252   2.190   4.900 -0.0661  0.0700 -0.5203
 5320SOL     OW21045   1.302   1.209   4.124 -0.0290  0.9556 -0.2212
 5320SOL    HW221046   1.303   1.159   4.206 -0.1390  0.9102 -0.2466
 5320SOL    HW321047   1.281   1.144   4.057 -1.7664  1.3019 -0.0605
 5320SOL    MW421048   1.299   1.194   4.126 -0.2727  0.9953 -0.2034
 5321SOL     OW21049   1.586   0.673   5.388 -0.0811 -0.6412  0.7699
 5321SOL    HW221050   1.657   0.702   5.445  0.9247 -3.0348  0.8518
 5321SOL    HW321051   1.551   0.595   5.431 -0.6238 -1.3522 -0.8823
 5321SOL    MW421052   1.591   0.666   5.401 -0.0200 -1.0508  0.5627
 5322SOL     OW21053   2.017   5.845   5.775  0.1105  0.6540 -0.5387
 5322SOL    HW221054   1.944   5.804   5.729 -0.8091 -0.0466  1.4256
 5322SOL    HW321055   1.978   5.882   5.854  1.7919  0.6901  0.3172
 5322SOL    MW421056   2.002   5.844   5.779  0.2110  0.5663 -0.1666
 5323SOL     OW21057   4.515   5.512   3.501 -0.2046 -0.4062  0.6220
 5323SOL    HW221058   4.512   5.431   3.551  0.0330 -0.8404 -0.0499
 5323SOL    HW321059   4.600   5.551   3.524 -1.1624  0.6897  2.4989
 5323SOL    MW421060   4.526   5.506   3.511 -0.2996 -0.3189  0.7810
 5324SOL     OW21061   2.894   1.410   1.485  0.0096  0.3087 -0.0018
 5324SOL    HW221062   2.863   1.428   1.396  0.7875 -0.4919 -0.4525
 5324SOL    HW321063   2.944   1.489   1.509  0.0514  0.4057 -0.3925
 5324SOL    MW421064   2.896   1.423   1.476  0.1177  0.2159 -0.1129
 5325SOL     OW21065   0.920   1.169   4.827  0.3258  0.5669 -0.3254
 5325SOL    HW221066   0.845   1.209   4.870  0.5728 -1.6894  2.4573
 5325SOL    HW321067   0.886   1.089   4.787  0.5956  1.4230 -2.4299
 5325SOL    MW421068   0.906   1.164   4.827  0.3940  0.3821 -0.2359
 5326SOL     OW21069   0.973   5.171   2.823  0.1380 -0.5682 -0.3625
 5326SOL    HW221070   0.967   5.262   2.793 -0.6188 -1.1943 -2.3225
 5326SOL    HW321071   1.060   5.142   2.794  0.7044 -0.2602  0.9785
 5326SOL    MW421072   0.984   5.179   2.815  0.1129 -0.6101 -0.4442
 5327SOL     OW21073   5.943   5.620   1.942 -0.0054  0.1409  0.3568
 5327SOL    HW221074   5.969   5.656   1.857  0.0353  0.2921  0.4321
 5327SOL    HW321075   5.912   5.696   1.992 -1.2018 -0.1330  0.0429
 5327SOL    MW421076   5.943   5.635   1.938 -0.1579  0.1247  0.3253
 5328SOL     OW21077   3.359   4.696   3.445  0.3618  0.3323 -0.3427
 5328SOL    HW221078   3.329   4.640   3.517  1.4819 -1.7091 -1.3772
 5328SOL    HW321079   3.281   4.744   3.419 -0.8361 -1.1867  0.2269
 5328SOL    MW421080   3.344   4.695   3.451  0.3515 -0.1374 -0.4041
 5329SOL     OW21081   0.672   1.243   0.636 -0.1410 -0.2479 -0.1796
 5329SOL    HW221082   0.679   1.265   0.729  1.9376  1.8260 -0.7306
 5329SOL    HW321083   0.725   1.164   0.627  0.0823 -0.1610  0.3080
 5329SOL    MW421084   0.680   1.236   0.647  0.1627  0.0372 -0.1879
 5330SOL     OW21085   4.403   5.797   2.569 -0.3358 -0.2559 -0.3111
 5330SOL    HW221086   4.382   5.832   2.482  3.2190  0.1402 -1.1534
 5330SOL    HW321087   4.435   5.873   2.618  0.5137 -1.0032  0.3176
 5330SOL    MW421088   4.404   5.812   2.564  0.2453 -0.3022 -0.3393
 5331SOL     OW21089   4.221   4.279   5.901 -0.2703 -0.7229  1.0528
 5331SOL    HW221090   4.287   4.348   5.897 -2.2712  1.3414  1.8160
 5331SOL    HW321091   4.254   4.212   5.840  1.4461  1.1542 -0.2388
 5331SOL    MW421092   4.234   4.279   5.892 -0.3078 -0.2029  0.9831
 5332SOL     OW21093   4.187   4.416   4.936  0.4285  0.2255 -0.5113
 5332SOL    HW221094   4.264   4.470   4.918  1.3745 -0.7812  0.3163
 5332SOL    HW321095   4.129   4.473   4.985  1.7806  0.3096  1.0927
 5332SOL    MW421096   4.190   4.430   4.940  0.7317  0.1038 -0.1905
 5333SOL     OW21097   1.653   3.523   0.933  1.0506  0.3909  0.1036
 5333SOL    HW221098   1.699   3.530   0.849 -2.1547  2.4662 -1.6873
 5333SOL    HW321099   1.669   3.607   0.976  0.1005  0.5926  0.0741
 5333SOL    MW421100   1.661   3.535   0.927  0.5023  0.6913 -0.1366
 5334SOL     OW21101   6.008   4.738   3.777 -0.8438 -0.0080  0.0711
 5334SOL    HW221102   6.004   4.702   3.866  1.0255  1.9543  1.0412
 5334SOL    HW321103   6.094   4.713   3.745 -0.9327  0.5430 -0.6154
 5334SOL    MW421104   6.018   4.730   3.784 -0.6089  0.3236  0.1085
 5335SOL     OW21105   0.048   2.541   4.130 -0.0274 -0.3136 -0.3887
 5335SOL    HW221106   0.089   2.572   4.211  1.2043 -0.0648 -1.0872
 5335SOL    HW321107  -0.031   2.595   4.121  0.3156  0.2988  0.1549
 5335SOL    MW421108   0.043   2.552   4.140  0.1804 -0.2000 -0.4091
 5336SOL     OW21109   3.859   3.743   2.445  0.0125 -0.2415 -0.4229
 5336SOL    HW221110   3.828   3.666   2.491 -3.0996  1.1048 -0.0093
 5336SOL    HW321111   3.836   3.817   2.502  0.1685  1.1751 -2.0937
 5336SOL    MW421112   3.852   3.743   2.458 -0.3775  0.1230 -0.5888
 5337SOL     OW21113   5.302   2.858   3.723  0.4342 -0.1033 -0.4930
 5337SOL    HW221114   5.324   2.796   3.793  1.4062 -1.3269 -1.8222
 5337SOL    HW321115   5.341   2.820   3.644 -0.8942  1.0793 -1.7771
 5337SOL    MW421116   5.310   2.845   3.722  0.3872 -0.1087 -0.8378
 5338SOL     OW21117   2.515   5.776   4.918  0.1581 -0.1445 -0.0048
 5338SOL    HW221118   2.524   5.754   4.825 -0.2881 -2.0851  0.3614
 5338SOL    HW321119   2.597   5.747   4.957  0.6220  1.2815  0.1398
 5338SOL    MW421120   2.527   5.769   4.910  0.1604 -0.2124  0.0626
 5339SOL     OW21121   2.986   5.845   0.629 -0.3811 -0.2527  0.1365
 5339SOL    HW221122   3.053   5.912   0.615  0.7748 -1.5037 -0.6783
 5339SOL    HW321123   2.989   5.827   0.723 -0.5653  0.6783  0.3260
 5339SOL    MW421124   2.995   5.851   0.640 -0.2529 -0.2949  0.0540
 5340SOL     OW21125   3.824   1.432   2.264 -0.6410 -0.4563  0.1240
 5340SOL    HW221126   3.902   1.411   2.315 -1.0050 -0.3749  0.7165
 5340SOL    HW321127   3.755   1.376   2.300 -1.5380  1.4510  1.4896
 5340SOL    MW421128   3.825   1.422   2.275 -0.8074 -0.1940  0.3823
 5341SOL     OW21129   2.980   3.615   3.425  0.0822 -0.1446  0.3817
 5341SOL    HW221130   2.905   3.630   3.368  0.4021  1.8057  0.3906
 5341SOL    HW321131   2.942   3.605   3.512 -0.3140 -1.8045  0.0519
 5341SOL    MW421132   2.965   3.616   3.429  0.0721 -0.1063  0.3394
 5342SOL     OW21133   1.356   4.123   0.637 -0.0552  0.2463 -0.2222
 5342SOL    HW221134   1.405   4.122   0.719  0.0330  2.2764 -0.2081
 5342SOL    HW321135   1.422   4.140   0.570 -0.0238 -2.0285 -0.8517
 5342SOL    MW421136   1.371   4.125   0.639 -0.0394  0.2140 -0.3034
 5343SOL     OW21137   0.445   3.825   1.998 -0.0857  0.6461 -0.1094
 5343SOL    HW221138   0.393   3.820   2.078  0.5666  1.9304  0.4291
 5343SOL    HW321139   0.500   3.746   2.000 -0.0243  0.6938  0.7550
 5343SOL    MW421140   0.445   3.814   2.009  0.0084  0.8219  0.0757
 5344SOL     OW21141   5.525   4.043   4.410  0.1725  0.5320 -0.2906
 5344SOL    HW221142   5.580   3.975   4.370 -0.0563  0.4274 -0.4317
 5344SOL    HW321143   5.492   4.002   4.490 -1.2714 -0.1333 -1.1739
 5344SOL    MW421144   5.528   4.028   4.415 -0.0482  0.4304 -0.4257
 5345SOL     OW21145   0.662   6.095   0.588 -0.5223 -0.2796  0.0882
 5345SOL    HW221146   0.753   6.114   0.567 -1.1393 -0.2053 -2.9972
 5345SOL    HW321147   0.631   6.173   0.633  0.6112  0.1949  0.0768
 5345SOL    MW421148   0.670   6.108   0.591 -0.4542 -0.2072 -0.3204
 5346SOL     OW21149   3.191   2.904   5.898 -0.3805  0.3434 -0.3894
 5346SOL    HW221150   3.130   2.948   5.838 -1.0155 -0.2528 -0.1890
 5346SOL    HW321151   3.203   2.966   5.969 -1.5409  0.0842  0.0605
 5346SOL    MW421152   3.184   2.918   5.899 -0.6174  0.2306 -0.3036
 5347SOL     OW21153   1.722   5.120   0.851 -0.1413 -0.1022  0.4800
 5347SOL    HW221154   1.759   5.188   0.907 -1.4614 -0.8417  2.3586
 5347SOL    HW321155   1.628   5.124   0.868 -0.9024  0.9269 -3.2226
 5347SOL    MW421156   1.714   5.130   0.861 -0.4159 -0.0640  0.2393
 5348SOL     OW21157   4.389   0.066   3.580 -0.4272 -0.3851 -0.0900
 5348SOL    HW221158   4.395  -0.026   3.604 -0.3391 -0.1223  0.9329
 5348SOL    HW321159   4.436   0.072   3.496  2.4654 -0.7414  1.3674
 5348SOL    MW421160   4.396   0.055   3.572 -0.0340 -0.3974  0.2373
 5349SOL     OW21161   5.172   6.084   6.069  0.2356 -0.0242  0.1912
 5349SOL    HW221162   5.078   6.063   6.071  0.4634 -1.0290  1.2171
 5349SOL    HW321163   5.193   6.091   5.976 -0.5656 -1.1828 -0.0947
 5349SOL    MW421164   5.162   6.082   6.057  0.1600 -0.3096  0.2889
 5350SOL     OW21165   0.469   3.499   2.968  0.3062 -0.0459 -0.1594
 5350SOL    HW221166   0.552   3.496   2.920  0.4284 -1.4771  0.1030
 5350SOL    HW321167   0.411   3.439   2.921 -0.5714  0.8902 -0.3021
 5350SOL    MW421168   0.472   3.491   2.956  0.2065 -0.1112 -0.1436
 5351SOL     OW21169   1.730   5.130   1.608 -0.5707 -0.1474 -0.6665
 5351SOL    HW221170   1.783   5.205   1.581 -0.5985  0.2893  0.4346
 5351SOL    HW321171   1.697   5.154   1.694 -1.1853 -1.1279 -0.6100
 5351SOL    MW421172   1.732   5.143   1.616 -0.6555 -0.2192 -0.5138
 5352SOL     OW21173   0.078   5.913   1.061  0.5223  0.0817  0.2504
 5352SOL    HW221174   0.129   5.989   1.031  0.4401  0.1347  0.2461
 5352SOL    HW321175   0.017   5.896   0.990  1.2512 -0.6405 -0.2130
 5352SOL    MW421176   0.077   5.921   1.048  0.6076 -0.0066  0.1887
 5353SOL     OW21177   6.190   6.214   2.054  0.1123  0.4719 -0.4540
 5353SOL    HW221178   6.272   6.170   2.031  0.7631  1.5030 -0.2099
 5353SOL    HW321179   6.126   6.144   2.063  1.1355 -0.4229  0.0388
 5353SOL    MW421180   6.192   6.199   2.052  0.3332  0.4899 -0.3568
 5354SOL     OW21181   3.815   2.315   0.183 -0.0644  0.4023  0.3135
 5354SOL    HW221182   3.879   2.353   0.243 -0.4398 -2.3170  2.6535
 5354SOL    HW321183   3.858   2.316   0.098  1.9188  1.2206  1.2647
 5354SOL    MW421184   3.829   2.320   0.179  0.1477  0.1515  0.7477
 5355SOL     OW21185   0.952   0.552   3.424  0.4483  0.2229 -0.2605
 5355SOL    HW221186   1.021   0.487   3.433  0.2656 -0.2054 -1.6926
 5355SOL    HW321187   0.881   0.520   3.480  1.0383  0.1647  0.4642
 5355SOL    MW421188   0.951   0.539   3.433  0.5020  0.1587 -0.3538
 5356SOL     OW21189   1.341   6.355   4.027 -0.3162  0.2297  0.1232
 5356SOL    HW221190   1.323   6.338   3.934  2.0692 -0.4953 -0.2560
 5356SOL    HW321191   1.317   6.446   4.039 -1.8299  0.0090 -0.8681
 5356SOL    MW421192   1.335   6.364   4.016 -0.2012  0.1050 -0.0576
 5357SOL     OW21193   2.133   2.788   0.343 -0.5164 -0.6668 -0.4903
 5357SOL    HW221194   2.083   2.728   0.398  0.4551  0.2642  1.5481
 5357SOL    HW321195   2.217   2.797   0.389  0.4772 -0.0688 -2.3376
 5357SOL    MW421196   2.138   2.781   0.356 -0.2572 -0.4651 -0.4651
 5358SOL     OW21197   6.406   3.588   0.560 -0.3130  0.0389  0.3612
 5358SOL    HW221198   6.393   3.679   0.585 -1.6071  0.6028 -2.0622
 5358SOL    HW321199   6.323   3.545   0.579  0.0024 -0.4409  0.6787
 5358SOL    MW421200   6.394   3.594   0.566 -0.4422  0.0500  0.0834
 5359SOL     OW21201   4.373   1.259   4.942 -0.6925  0.2199 -0.1506
 5359SOL    HW221202   4.412   1.237   5.026 -0.7665  0.5264 -0.0348
 5359SOL    HW321203   4.425   1.332   4.910  0.5045 -1.0478 -1.2251
 5359SOL    MW421204   4.385   1.266   4.949 -0.5444  0.0931 -0.2771
 5360SOL     OW21205   2.214   2.297   4.011  0.8535  0.1801 -0.5877
 5360SOL    HW221206   2.120   2.298   4.026  0.9227  1.1418 -0.1334
 5360SOL    HW321207   2.246   2.375   4.056  1.6349  0.8347 -2.2171
 5360SOL    MW421208   2.206   2.307   4.019  0.9657  0.3934 -0.7427
 5361SOL     OW21209   3.741   1.015   5.790 -0.1848 -0.4573 -1.1729
 5361SOL    HW221210   3.716   1.049   5.704 -0.6349  0.0114 -0.8592
 5361SOL    HW321211   3.777   0.928   5.771 -1.7084 -1.0127 -1.6773
 5361SOL    MW421212   3.743   1.008   5.776 -0.4452 -0.4688 -1.1980
 5362SOL     OW21213   0.288   5.650   0.534 -0.2546  0.1679  0.7741
 5362SOL    HW221214   0.285   5.577   0.472 -0.5209  0.0571  0.9182
 5362SOL    HW321215   0.228   5.715   0.496  0.6523  0.6781  0.1829
 5362SOL    MW421216   0.280   5.649   0.521 -0.1701  0.2206  0.7151
 5363SOL     OW21217   4.790   2.985   0.461 -0.0262  0.6189 -0.4148
 5363SOL    HW221218   4.779   2.901   0.506  0.4221  1.1894  0.8242
 5363SOL    HW321219   4.707   2.998   0.415 -1.0362  0.5622  1.2885
 5363SOL    MW421220   4.777   2.976   0.461 -0.1003  0.6867 -0.0266
 5364SOL     OW21221   5.605   0.386   2.930 -0.0773  0.0632  0.4294
 5364SOL    HW221222   5.510   0.394   2.940 -0.4112 -0.7278 -1.6770
 5364SOL    HW321223   5.637   0.376   3.020 -2.0136 -0.1574  1.1572
 5364SOL    MW421224   5.597   0.386   2.944 -0.3768 -0.0702  0.2475
 5365SOL     OW21225   5.310   3.386   1.016  0.0536 -0.3784 -0.1685
 5365SOL    HW221226   5.377   3.444   1.052 -1.0850  0.6807  0.3350
 5365SOL    HW321227   5.233   3.442   1.007 -0.7783 -1.5731 -0.6711
 5365SOL    MW421228   5.309   3.401   1.020 -0.2064 -0.3963 -0.1684
 5366SOL     OW21229   6.244   4.304   5.116 -0.5730  0.1643 -0.4563
 5366SOL    HW221230   6.289   4.256   5.046 -0.2887  1.9005 -1.5219
 5366SOL    HW321231   6.304   4.300   5.190 -0.1550 -0.3576 -0.8119
 5366SOL    MW421232   6.258   4.297   5.116 -0.4804  0.3245 -0.6438
 5367SOL     OW21233   2.411   2.342   4.407  0.1750 -0.5243  0.0795
 5367SOL    HW221234   2.401   2.417   4.465  1.2451  0.0110 -0.3981
 5367SOL    HW321235   2.504   2.320   4.413 -0.5192 -3.5012  2.2434
 5367SOL    MW421236   2.422   2.349   4.416  0.2246 -0.8464  0.3020
 5368SOL     OW21237   6.116   2.776   2.489 -0.1762 -0.1629  0.0536
 5368SOL    HW221238   6.189   2.747   2.434  0.3577 -1.3282  1.3116
 5368SOL    HW321239   6.107   2.706   2.554 -2.3350  0.0349  0.0089
 5368SOL    MW421240   6.125   2.763   2.491 -0.3906 -0.2905  0.2137
 5369SOL     OW21241   6.031   3.573   1.965  0.1828 -0.1734 -0.0140
 5369SOL    HW221242   5.960   3.580   1.902  1.0678 -0.3331 -1.0693
 5369SOL    HW321243   6.101   3.527   1.917  0.5885 -1.0254  1.3372
 5369SOL    MW421244   6.031   3.568   1.951  0.3531 -0.3069  0.0250
 5370SOL     OW21245   5.854   5.255   5.556 -0.6365  0.0013 -0.4844
 5370SOL    HW221246   5.858   5.251   5.651 -2.0059  1.7189 -0.3026
 5370SOL    HW321247   5.945   5.264   5.529 -0.3230  1.0806  0.8019
 5370SOL    MW421248   5.867   5.256   5.565 -0.7758  0.3703 -0.2907
 5371SOL     OW21249   4.394   2.716   3.242 -0.5532  0.0774  0.4394
 5371SOL    HW221250   4.374   2.694   3.333 -1.6118 -1.0229 -0.0406
 5371SOL    HW321251   4.353   2.647   3.190 -0.6714  1.1304 -0.9364
 5371SOL    MW421252   4.386   2.704   3.247 -0.7085  0.0712  0.1946
 5372SOL     OW21253   2.550   6.297   0.194  0.4710  0.0617 -0.4495
 5372SOL    HW221254   2.581   6.317   0.106 -0.5090 -0.4321 -0.9175
 5372SOL    HW321255   2.528   6.204   0.192 -1.4338  0.4592 -0.2913
 5372SOL    MW421256   2.551   6.287   0.182  0.0904  0.0490 -0.4904
 5373SOL     OW21257   4.171   2.610   1.783  0.4618  0.2886 -0.1693
 5373SOL    HW221258   4.223   2.673   1.833  0.6882 -1.0479  1.4001
 5373SOL    HW321259   4.111   2.663   1.730  2.1405  1.8162 -0.5973
 5373SOL    MW421260   4.170   2.625   1.783  0.7131  0.3139 -0.0187
 5374SOL     OW21261   0.786   1.871   4.122 -0.0057 -0.3105  0.1010
 5374SOL    HW221262   0.783   1.866   4.217 -0.5942 -0.6217  0.0712
 5374SOL    HW321263   0.722   1.807   4.092  0.2651 -0.3103 -0.5082
 5374SOL    MW421264   0.777   1.862   4.130 -0.0476 -0.3516  0.0167
 5375SOL     OW21265   4.671   6.061   5.884  0.3360 -0.3589 -0.4601
 5375SOL    HW221266   4.661   6.101   5.797 -0.0061  2.7185  0.8730
 5375SOL    HW321267   4.598   6.096   5.935  2.5512  0.9520  2.0709
 5375SOL    MW421268   4.660   6.071   5.879  0.5831  0.2201  0.0497
 5376SOL     OW21269   5.810   5.502   5.847 -0.3571  0.4094 -0.0135
 5376SOL    HW221270   5.727   5.498   5.894 -0.4559  1.0908 -0.1270
 5376SOL    HW321271   5.813   5.420   5.797  0.7956 -1.4942  2.8889
 5376SOL    MW421272   5.800   5.491   5.847 -0.2181  0.2481  0.3545
 5377SOL     OW21273   4.018   1.060   6.398 -0.0261  0.1156  0.0541
 5377SOL    HW221274   3.981   1.120   6.463  0.5474  1.8432 -1.1516
 5377SOL    HW321275   4.093   1.107   6.362  1.1241 -1.7933 -0.1746
 5377SOL    MW421276   4.023   1.074   6.402  0.2013  0.0917 -0.1351
 5378SOL     OW21277   3.307   1.181   2.768 -0.5007 -0.0200  0.7382
 5378SOL    HW221278   3.214   1.162   2.754 -0.8427  1.2875  1.0294
 5378SOL    HW321279   3.331   1.237   2.695 -0.2953  0.6672  1.3148
 5378SOL    MW421280   3.298   1.186   2.757 -0.5187  0.2432  0.8527
 5379SOL     OW21281   3.097   5.920   3.129  0.2912 -0.7562  0.0633
 5379SOL    HW221282   3.115   5.847   3.188 -1.3045 -2.3283 -1.2900
 5379SOL    HW321283   3.114   5.885   3.041  0.5248  0.8452 -0.5652
 5379SOL    MW421284   3.101   5.906   3.125  0.1115 -0.7524 -0.1982
 5380SOL     OW21285   1.162   2.037   2.094 -0.1331  0.2551  0.5196
 5380SOL    HW221286   1.243   1.987   2.095 -0.7347 -0.7270  1.0690
 5380SOL    HW321287   1.180   2.110   2.034  1.4466  0.5758  1.3208
 5380SOL    MW421288   1.175   2.040   2.086 -0.0040  0.1679  0.6978
 5381SOL     OW21289   3.605   1.846   3.834 -0.2368  0.1872  0.5055
 5381SOL    HW221290   3.635   1.803   3.913  0.8185 -0.1764 -0.0750
 5381SOL    HW321291   3.671   1.912   3.815 -0.4255  0.2072 -0.1251
 5381SOL    MW421292   3.617   1.849   3.842 -0.1225  0.1419  0.3457
 5382SOL     OW21293   3.520   3.401   3.252  0.1562 -0.2472 -0.8265
 5382SOL    HW221294   3.576   3.427   3.325 -0.6637  0.2525 -0.3631
 5382SOL    HW321295   3.506   3.307   3.266  0.3585 -0.2460 -0.5910
 5382SOL    MW421296   3.526   3.392   3.264  0.0747 -0.1811 -0.7342
 5383SOL     OW21297   5.250   6.220   4.277 -0.3682 -0.0528 -0.0550
 5383SOL    HW221298   5.245   6.145   4.218  0.8648  0.0679 -0.3208
 5383SOL    HW321299   5.274   6.182   4.362  1.3400  0.1183 -0.4247
 5383SOL    MW421300   5.252   6.205   4.280  0.0199 -0.0143 -0.1388
 5384SOL     OW21301   0.151   3.689   5.356 -0.0953 -0.1256 -0.6499
 5384SOL    HW221302   0.145   3.676   5.261 -0.1931 -0.3059 -0.6207
 5384SOL    HW321303   0.242   3.668   5.377 -0.4036 -1.4315 -0.5136
 5384SOL    MW421304   0.162   3.685   5.346 -0.1489 -0.3217 -0.6280
 5385SOL     OW21305   2.423   0.017   4.167 -0.1821 -0.4488  0.2273
 5385SOL    HW221306   2.329   0.013   4.150  0.3197 -0.3435 -3.2010
 5385SOL    HW321307   2.462  -0.047   4.107  2.0056 -0.0621  1.1217
 5385SOL    MW421308   2.416   0.008   4.157  0.1727 -0.3839 -0.1071
 5386SOL     OW21309   3.683   0.113   1.273 -0.0301 -0.3017 -0.7342
 5386SOL    HW221310   3.611   0.051   1.287 -1.2064  0.8547 -1.4418
 5386SOL    HW321311   3.653   0.170   1.203  1.1483  0.8848 -0.3270
 5386SOL    MW421312   3.670   0.113   1.266 -0.0298  0.0074 -0.7739
 5387SOL     OW21313   4.077   1.706   2.092  0.0259  0.3298 -0.2780
 5387SOL    HW221314   4.104   1.661   2.011  0.2540  1.2370 -0.7191
 5387SOL    HW321315   3.997   1.752   2.067  0.8049  1.6716 -0.3624
 5387SOL    MW421316   4.070   1.706   2.078  0.1588  0.6265 -0.3473
 5388SOL     OW21317   5.926   6.186   4.830  0.1667 -0.2304  0.0868
 5388SOL    HW221318   5.943   6.108   4.778 -0.7792 -0.7530  0.5415
 5388SOL    HW321319   6.013   6.218   4.854  0.6122 -2.4061  1.7530
 5388SOL    MW421320   5.939   6.180   4.826  0.1007 -0.5864  0.3666
 5389SOL     OW21321   0.046   2.188   0.876  0.2976 -0.1179  0.2890
 5389SOL    HW221322   0.035   2.248   0.950 -1.1120 -1.3678  1.1394
 5389SOL    HW321323  -0.039   2.187   0.834 -0.4774 -3.2386  1.6759
 5389SOL    MW421324   0.034   2.196   0.880  0.0093 -0.6946  0.5842
 5390SOL     OW21325   0.890   3.833   6.068 -0.1043  0.0206 -0.2563
 5390SOL    HW221326   0.973   3.847   6.022 -1.9289  0.6660 -3.7964
 5390SOL    HW321327   0.892   3.742   6.095  1.6036 -0.0638 -0.5569
 5390SOL    MW421328   0.901   3.823   6.065 -0.1197  0.0946 -0.7631
 5391SOL     OW21329   6.294   2.804   3.120 -0.2616  0.3084 -0.2004
 5391SOL    HW221330   6.310   2.771   3.209 -0.3775 -0.4156 -0.4431
 5391SOL    HW321331   6.367   2.769   3.068 -1.0837 -0.6633 -0.7302
 5391SOL    MW421332   6.306   2.795   3.125 -0.3853  0.0847 -0.3023
 5392SOL     OW21333   4.382   1.425   2.758 -0.0979 -0.2727  0.3423
 5392SOL    HW221334   4.368   1.423   2.853 -1.4640 -0.5261  0.1538
 5392SOL    HW321335   4.430   1.344   2.740 -0.2981 -0.4899  0.7543
 5392SOL    MW421336   4.386   1.414   2.769 -0.3045 -0.3348  0.3718
 5393SOL     OW21337   3.735   3.065   3.318  0.0710 -0.2071 -0.0784
 5393SOL    HW221338   3.642   3.086   3.310  0.1216 -0.5084 -1.9639
 5393SOL    HW321339   3.775   3.108   3.243  1.1980 -1.4307 -0.1997
 5393SOL    MW421340   3.728   3.073   3.307  0.2264 -0.4083 -0.3432
 5394SOL     OW21341   0.047   4.622   6.367 -0.2368 -0.1411 -0.2823
 5394SOL    HW221342  -0.047   4.614   6.350  0.0023  0.5002 -2.1909
 5394SOL    HW321343   0.085   4.637   6.281  1.4014  1.6127  0.6633
 5394SOL    MW421344   0.039   4.623   6.353  0.0109  0.1749 -0.4094
 5395SOL     OW21345   0.353   3.357   5.098  0.1145  0.2883  0.2978
 5395SOL    HW221346   0.394   3.441   5.079  0.8659  0.3472  2.0009
 5395SOL    HW321347   0.419   3.292   5.073 -0.2653  0.2124 -0.5332
 5395SOL    MW421348   0.367   3.360   5.092  0.1635  0.2861  0.4129
 5396SOL     OW21349   2.571   0.931   2.145  0.4786  0.0754  0.3448
 5396SOL    HW221350   2.617   0.850   2.165  0.3578 -0.0407  0.1594
 5396SOL    HW321351   2.591   0.948   2.053  1.0441  0.6134  0.5670
 5396SOL    MW421352   2.579   0.922   2.135  0.5373  0.1311  0.3497
 5397SOL     OW21353   2.671   4.289   3.200  0.1285 -0.5497  0.1050
 5397SOL    HW221354   2.736   4.355   3.177  0.2256 -0.3450  0.9323
 5397SOL    HW321355   2.716   4.205   3.188  0.8316 -0.3908  1.4457
 5397SOL    MW421356   2.685   4.287   3.196  0.2341 -0.5017  0.3911
 5398SOL     OW21357   6.079   2.158   5.135  0.4276 -0.3027 -0.1517
 5398SOL    HW221358   6.132   2.167   5.056  0.1042  2.1038 -0.1558
 5398SOL    HW321359   6.118   2.219   5.198 -1.3038  0.3085  0.3918
 5398SOL    MW421360   6.091   2.167   5.133  0.1565  0.0954 -0.0806
 5399SOL     OW21361   5.490   0.018   5.295 -0.2865 -0.8169 -0.5243
 5399SOL    HW221362   5.572  -0.018   5.329  0.0304  1.8337  1.9398
 5399SOL    HW321363   5.423  -0.040   5.330  0.3160 -0.3537  1.5515
 5399SOL    MW421364   5.492   0.006   5.304 -0.1652 -0.4060  0.0747
 5400SOL     OW21365   2.028   4.322   5.842 -0.7962  0.3542 -0.0609
 5400SOL    HW221366   2.121   4.324   5.865 -1.2889  1.3018  2.1021
 5400SOL    HW321367   2.002   4.232   5.857 -0.3168  0.1823 -0.2392
 5400SOL    MW421368   2.037   4.311   5.847 -0.7980  0.4566  0.2009
 5401SOL     OW21369   2.399   0.173   1.316 -0.4704  0.3115 -0.2972
 5401SOL    HW221370   2.494   0.176   1.306 -0.2760 -0.0435  1.1899
 5401SOL    HW321371   2.365   0.204   1.232  0.9529  0.8008 -0.7249
 5401SOL    MW421372   2.407   0.177   1.303 -0.2569  0.3292 -0.1574
 5402SOL     OW21373   1.923   1.177   4.452  0.6544  0.5120 -0.3972
 5402SOL    HW221374   1.851   1.141   4.400  2.1252  1.1044 -3.0487
 5402SOL    HW321375   1.880   1.220   4.526 -1.8241  1.3968 -2.1993
 5402SOL    MW421376   1.908   1.178   4.455  0.5215  0.7069 -0.9848
 5403SOL     OW21377   4.229   3.867   6.330  0.3759 -0.4016  0.1279
 5403SOL    HW221378   4.290   3.855   6.258  0.2477  0.5605 -0.1631
 5403SOL    HW321379   4.215   3.779   6.365 -0.7191 -1.1456 -1.9782
 5403SOL    MW421380   4.235   3.854   6.325  0.2145 -0.3728 -0.1884
 5404SOL     OW21381   1.319   5.523   1.929 -0.1406  0.2361 -0.2638
 5404SOL    HW221382   1.371   5.602   1.913  0.4434  0.0807  0.7987
 5404SOL    HW321383   1.247   5.528   1.866 -0.8388  2.2617  0.6473
 5404SOL    MW421384   1.316   5.534   1.918 -0.1557  0.4829 -0.0034
 5405SOL     OW21385   6.374   0.507   5.101 -0.8161 -0.5113 -0.4755
 5405SOL    HW221386   6.312   0.534   5.168  0.4014 -1.6240  1.1708
 5405SOL    HW321387   6.403   0.420   5.129  1.0641 -0.2592 -1.5033
 5405SOL    MW421388   6.369   0.499   5.113 -0.4074 -0.6249 -0.3939
 5406SOL     OW21389   4.781   6.084   1.352 -0.1324 -0.2994  0.1132
 5406SOL    HW221390   4.861   6.052   1.393  1.1936  2.1107 -0.3742
 5406SOL    HW321391   4.811   6.151   1.290 -2.5488  0.9910  0.1955
 5406SOL    MW421392   4.795   6.088   1.349 -0.2763  0.1888  0.0597
 5407SOL     OW21393   1.139   3.701   5.769 -0.6505 -0.0454  0.5217
 5407SOL    HW221394   1.104   3.620   5.807 -2.0985  0.7858  1.0541
 5407SOL    HW321395   1.148   3.760   5.844  0.4086  0.2882  0.1390
 5407SOL    MW421396   1.135   3.698   5.784 -0.7018  0.1083  0.5414
 5408SOL     OW21397   1.919   2.626   4.048  0.4967  0.2233 -0.0284
 5408SOL    HW221398   1.937   2.595   3.959  0.3588  1.1811 -0.4035
 5408SOL    HW321399   1.914   2.721   4.039  0.7720  0.3491  1.0629
 5408SOL    MW421400   1.921   2.634   4.035  0.5148  0.3663  0.0661
 5409SOL     OW21401   5.204   5.816   4.320 -0.2057  0.1029 -0.7960
 5409SOL    HW221402   5.133   5.765   4.282 -0.8373  0.5684 -0.2640
 5409SOL    HW321403   5.234   5.873   4.249  0.8298 -1.2881 -1.5495
 5409SOL    MW421404   5.199   5.817   4.306 -0.1524 -0.0192 -0.8252
 5410SOL     OW21405   4.959   0.942   3.774 -0.6942 -1.1104  0.1427
 5410SOL    HW221406   4.923   1.029   3.762 -1.5650 -1.4521  0.1897
 5410SOL    HW321407   5.024   0.932   3.705 -1.5269 -0.9087 -0.6898
 5410SOL    MW421408   4.963   0.952   3.764 -0.9189 -1.1289  0.0391
 5411SOL     OW21409   0.345   2.796   4.172 -0.1742  0.1871  0.0067
 5411SOL    HW221410   0.402   2.764   4.103  0.7580 -1.1511  1.3342
 5411SOL    HW321411   0.306   2.716   4.210 -1.7234  0.9723  0.1520
 5411SOL    MW421412   0.347   2.781   4.168 -0.2556  0.1142  0.2010
 5412SOL     OW21413   2.551   2.240   0.470 -0.8347  0.5446 -0.1024
 5412SOL    HW221414   2.597   2.171   0.518 -3.1882 -1.0857  0.0200
 5412SOL    HW321415   2.618   2.306   0.452  0.8513 -0.2512  2.6022
 5412SOL    MW421416   2.566   2.240   0.474 -0.9228  0.2245  0.2706
 5413SOL     OW21417   6.136   0.084   5.575  0.7190 -0.3126  0.1260
 5413SOL    HW221418   6.228   0.107   5.590  0.6447 -0.0941  0.2587
 5413SOL    HW321419   6.111   0.133   5.497  0.0266  1.5799  1.4751
 5413SOL    MW421420   6.145   0.093   5.567  0.6178 -0.0341  0.3215
 5414SOL     OW21421   1.852   1.289   4.994 -0.1591  0.0314 -0.6290
 5414SOL    HW221422   1.900   1.338   4.928 -0.3150  1.8150  0.5426
 5414SOL    HW321423   1.919   1.242   5.044  0.1002  0.0835 -0.9272
 5414SOL    MW421424   1.867   1.289   4.992 -0.1455  0.2736 -0.5137
 5415SOL     OW21425   4.507   2.161   2.625 -0.1518 -0.1254  0.0615
 5415SOL    HW221426   4.473   2.243   2.590 -1.0805 -0.1133  0.9556
 5415SOL    HW321427   4.506   2.101   2.550 -0.4373  0.3925 -0.3559
 5415SOL    MW421428   4.502   2.164   2.610 -0.3120 -0.0555  0.1244
 5416SOL     OW21429   2.656   4.163   0.868  0.1782 -0.6859 -0.1576
 5416SOL    HW221430   2.598   4.166   0.944 -0.7223 -1.1819 -0.8156
 5416SOL    HW321431   2.678   4.255   0.851  1.6800 -0.6392  1.6450
 5416SOL    MW421432   2.651   4.175   0.876  0.2575 -0.7452 -0.0066
 5417SOL     OW21433   4.486   3.321   0.235  0.0166 -0.2025  0.2655
 5417SOL    HW221434   4.511   3.363   0.153  0.6591 -1.3773 -0.1557
 5417SOL    HW321435   4.455   3.394   0.290 -0.1703  0.6290 -0.9022
 5417SOL    MW421436   4.485   3.336   0.232  0.0767 -0.2478  0.0559
 5418SOL     OW21437   0.387   5.839   0.935 -0.6262 -0.3352  0.4733
 5418SOL    HW221438   0.389   5.747   0.910 -0.1899 -0.3104  0.4085
 5418SOL    HW321439   0.406   5.839   1.029  0.0032 -0.2739  0.3539
 5418SOL    MW421440   0.390   5.827   0.944 -0.4856 -0.3239  0.4490
 5419SOL     OW21441   4.827   3.256   4.639 -0.2435  0.5238 -0.2358
 5419SOL    HW221442   4.898   3.253   4.575 -0.4361 -0.0020 -0.4339
 5419SOL    HW321443   4.854   3.195   4.708 -0.6034  0.1392 -0.4273
 5419SOL    MW421444   4.839   3.247   4.640 -0.3164  0.4037 -0.2872
 5420SOL     OW21445   2.880   0.635   6.099  0.2513  0.3050 -0.2418
 5420SOL    HW221446   2.874   0.540   6.086 -0.6524  0.2212  0.6230
 5420SOL    HW321447   2.875   0.672   6.011  2.0934 -0.4850 -0.7295
 5420SOL    MW421448   2.879   0.627   6.086  0.3751  0.1897 -0.1920
 5421SOL     OW21449   3.530   0.316   3.037 -0.6055  0.2891  0.2526
 5421SOL    HW221450   3.526   0.299   2.943 -0.0083  0.9783  0.1022
 5421SOL    HW321451   3.438   0.324   3.064 -0.8225 -0.8885 -0.0827
 5421SOL    MW421452   3.517   0.314   3.028 -0.5554  0.2246  0.1885
 5422SOL     OW21453   0.712   6.311   3.378 -0.8218  0.3503  0.4858
 5422SOL    HW221454   0.745   6.225   3.401 -0.8696 -0.3750 -1.8790
 5422SOL    HW321455   0.786   6.355   3.335 -0.3670  2.0589  2.8451
 5422SOL    MW421456   0.726   6.306   3.375 -0.7681  0.4800  0.4851
 5423SOL     OW21457   2.927   1.866   4.532  0.1827 -0.0052  0.1111
 5423SOL    HW221458   2.876   1.829   4.460 -0.2166  1.2713 -0.2777
 5423SOL    HW321459   2.902   1.813   4.608  0.0466 -0.8857 -0.5280
 5423SOL    MW421460   2.917   1.854   4.532  0.1121  0.0471 -0.0245
 5424SOL     OW21461   4.953   0.105   1.005  0.2642 -0.6020  0.0877
 5424SOL    HW221462   5.035   0.080   0.962 -0.1509  0.3204 -1.3194
 5424SOL    HW321463   4.936   0.034   1.067  0.8314 -2.1003 -1.3962
 5424SOL    MW421464   4.962   0.092   1.007  0.2843 -0.6780 -0.2937
 5425SOL     OW21465   2.775   4.587   2.872  0.3487 -0.3187 -0.3930
 5425SOL    HW221466   2.720   4.567   2.796  0.9460 -0.7204 -0.7342
 5425SOL    HW321467   2.778   4.682   2.875 -1.5668 -0.2409  0.5331
 5425SOL    MW421468   2.768   4.597   2.862  0.1748 -0.3614 -0.3159
 5426SOL     OW21469   0.310   6.284   1.328  0.2002 -0.1223  0.2033
 5426SOL    HW221470   0.316   6.322   1.240 -1.1835 -0.6095 -0.1182
 5426SOL    HW321471   0.225   6.240   1.330  1.1801 -2.1020  1.0120
 5426SOL    MW421472   0.300   6.283   1.316  0.1469 -0.4478  0.2676
 5427SOL     OW21473   1.583   0.680   0.801 -0.0306  0.4996  0.1828
 5427SOL    HW221474   1.600   0.663   0.709  0.1135 -0.0938  0.3177
 5427SOL    HW321475   1.511   0.744   0.801 -1.0290 -0.5916 -0.3223
 5427SOL    MW421476   1.575   0.687   0.789 -0.1433  0.2774  0.1339
 5428SOL     OW21477   4.652   4.492   4.392 -0.2151 -0.1856  0.3867
 5428SOL    HW221478   4.644   4.452   4.306  0.5986  1.4100 -0.4707
 5428SOL    HW321479   4.572   4.544   4.402 -0.7723 -1.1202  1.0510
 5428SOL    MW421480   4.640   4.494   4.382 -0.1813 -0.0984  0.3613
 5429SOL     OW21481   5.331   3.295   3.009 -0.3699 -0.1838  0.3412
 5429SOL    HW221482   5.317   3.215   3.059 -1.6423 -1.2142 -1.5724
 5429SOL    HW321483   5.397   3.271   2.943 -0.4377  0.4659  0.0257
 5429SOL    MW421484   5.338   3.282   3.007 -0.5467 -0.2340  0.0471
 5430SOL     OW21485   4.162   1.075   3.974 -0.1211 -0.1038 -0.1084
 5430SOL    HW221486   4.097   1.136   3.938 -0.6660 -1.5302 -1.6577
 5430SOL    HW321487   4.113   1.025   4.039 -0.0356  0.1622  0.1638
 5430SOL    MW421488   4.147   1.077   3.978 -0.1817 -0.2569 -0.2769
 5431SOL     OW21489   0.623   5.977   0.339 -0.1664  0.1781 -0.3188
 5431SOL    HW221490   0.616   6.016   0.426  0.8469  0.5413 -0.3931
 5431SOL    HW321491   0.592   5.887   0.352  3.0598 -0.8616  1.2125
 5431SOL    MW421492   0.618   5.970   0.353  0.3929  0.0888 -0.1265
 5432SOL     OW21493   0.383   4.618   6.371  0.2753 -0.3275  0.0956
 5432SOL    HW221494   0.441   4.541   6.380  1.5836  0.6021 -0.0659
 5432SOL    HW321495   0.336   4.622   6.454 -0.2805 -1.6480 -0.1219
 5432SOL    MW421496   0.385   4.608   6.383  0.3746 -0.3791  0.0456
 5433SOL     OW21497   0.284   2.939   5.347  0.7630 -0.3908  0.9112
 5433SOL    HW221498   0.371   2.969   5.318  1.8096 -0.5631  3.5834
 5433SOL    HW321499   0.225   3.010   5.323  1.4363 -0.5967 -1.6653
 5433SOL    MW421500   0.288   2.952   5.340  0.9899 -0.4407  0.9239
 5434SOL     OW21501   3.967   5.250   5.306 -0.0479 -0.5317 -0.8430
 5434SOL    HW221502   3.878   5.239   5.340  0.5109 -0.7055  0.6147
 5434SOL    HW321503   3.994   5.337   5.337 -0.1162  0.0535 -2.3029
 5434SOL    MW421504   3.958   5.260   5.314  0.0168 -0.4774 -0.8433
 5435SOL     OW21505   2.112   0.765   1.210 -0.3415  0.2075 -0.0584
 5435SOL    HW221506   2.098   0.804   1.296 -0.9606 -0.1339  0.0003
 5435SOL    HW321507   2.154   0.681   1.227 -0.1741  0.2794 -0.1112
 5435SOL    MW421508   2.116   0.759   1.223 -0.4011  0.1719 -0.0576
 5436SOL     OW21509   5.199   6.036   1.098 -0.1618  0.0313 -0.2367
 5436SOL    HW221510   5.153   5.991   1.169 -0.8160  0.0834 -0.6229
 5436SOL    HW321511   5.220   6.122   1.134  1.9873 -0.8714  0.8662
 5436SOL    MW421512   5.196   6.042   1.112  0.0354 -0.0809 -0.1422
 5437SOL     OW21513   1.693   3.869   5.940  0.4412  0.5993  0.5390
 5437SOL    HW221514   1.763   3.935   5.942  0.9293  0.0774  1.2484
 5437SOL    HW321515   1.683   3.847   5.847  0.5317  1.3907  0.3324
 5437SOL    MW421516   1.701   3.875   5.928  0.5176  0.6349  0.6053
 5438SOL     OW21517   2.806   2.370   0.422 -0.1952 -0.5942  0.5131
 5438SOL    HW221518   2.819   2.312   0.346 -1.0819  2.2552 -1.9906
 5438SOL    HW321519   2.892   2.410   0.436 -0.0225 -1.1454  1.1061
 5438SOL    MW421520   2.819   2.367   0.414 -0.2894 -0.2910  0.2610
 5439SOL     OW21521   4.120   1.722   3.588  0.1757  0.4775  0.1520
 5439SOL    HW221522   4.201   1.770   3.573  0.1221  0.9736  1.3104
 5439SOL    HW321523   4.053   1.775   3.546  0.1669  1.2599  1.1068
 5439SOL    MW421524   4.122   1.735   3.580  0.1675  0.6462  0.4308
 5440SOL     OW21525   2.946   4.198   1.575 -0.0890 -0.1856  0.1795
 5440SOL    HW221526   2.896   4.225   1.652  1.5266 -0.0290  1.2158
 5440SOL    HW321527   2.989   4.117   1.602 -0.0497 -0.5090 -0.8182
 5440SOL    MW421528   2.945   4.191   1.588  0.1294 -0.2076  0.1846
 5441SOL     OW21529   2.445   2.122   5.857  0.6706  0.4072 -0.1242
 5441SOL    HW221530   2.513   2.173   5.902  0.6139 -0.6214  1.1790
 5441SOL    HW321531   2.484   2.099   5.772  1.3225  1.1979 -0.0475
 5441SOL    MW421532   2.459   2.126   5.852  0.7491  0.3758  0.0578
 5442SOL     OW21533   3.139   5.796   6.269 -0.0085  0.4757  0.0155
 5442SOL    HW221534   3.044   5.791   6.255  0.1722  0.8001 -1.5328
 5442SOL    HW321535   3.170   5.706   6.264 -0.6757 -0.3242  4.9288
 5442SOL    MW421536   3.131   5.784   6.266 -0.0727  0.4130  0.4595
 5443SOL     OW21537   3.730   4.630   6.149 -0.4670  0.1215  0.4601
 5443SOL    HW221538   3.649   4.673   6.178 -0.3630  1.1486 -0.7233
 5443SOL    HW321539   3.701   4.560   6.091 -0.5204  0.1607  0.4405
 5443SOL    MW421540   3.715   4.626   6.145 -0.4603  0.2622  0.3014
 5444SOL     OW21541   5.057   3.041   1.302  0.1684  0.4430  0.2492
 5444SOL    HW221542   5.075   2.947   1.298  1.2929  0.5547  1.6515
 5444SOL    HW321543   5.141   3.079   1.330 -0.2883  1.8521 -0.2531
 5444SOL    MW421544   5.071   3.034   1.305  0.2565  0.6437  0.3680
 5445SOL     OW21545   2.041   0.151   0.701 -0.1421  0.4005  0.1048
 5445SOL    HW221546   2.129   0.156   0.663 -0.0910 -1.0113 -0.0208
 5445SOL    HW321547   2.001   0.234   0.679  0.3836  0.1895 -1.8284
 5445SOL    MW421548   2.048   0.162   0.693 -0.0660  0.1864 -0.1668
 5446SOL     OW21549   5.970   0.636   5.598  0.2016 -0.4502 -0.2653
 5446SOL    HW221550   5.957   0.708   5.659 -0.8255 -0.8009 -0.0528
 5446SOL    HW321551   5.935   0.668   5.515 -1.2947 -1.0858  0.0967
 5446SOL    MW421552   5.964   0.650   5.595 -0.1313 -0.5803 -0.1895
 5447SOL     OW21553   6.347   1.014   0.520  0.2770  0.2343 -0.9627
 5447SOL    HW221554   6.424   1.066   0.542 -0.3122  0.4010  0.9081
 5447SOL    HW321555   6.274   1.063   0.557 -0.3705 -1.5062  0.2443
 5447SOL    MW421556   6.348   1.027   0.528  0.1138  0.0266 -0.5567
 5448SOL     OW21557   2.346   1.347   1.997  0.9022  0.0859 -0.9459
 5448SOL    HW221558   2.438   1.334   1.976  0.4638  0.6331 -3.6230
 5448SOL    HW321559   2.337   1.441   2.011  0.6113  0.1697 -1.6430
 5448SOL    MW421560   2.357   1.358   1.996  0.8060  0.1692 -1.3911
 5449SOL     OW21561   0.563   4.931   1.572  0.1850 -0.1702 -0.1518
 5449SOL    HW221562   0.633   4.912   1.509  1.7428  2.5710  0.5338
 5449SOL    HW321563   0.503   4.988   1.525  0.3729  0.4012  0.2880
 5449SOL    MW421564   0.565   4.936   1.558  0.4154  0.2669 -0.0033
 5450SOL     OW21565   3.203   3.721   1.605  0.2111  0.1896  0.3205
 5450SOL    HW221566   3.291   3.683   1.602  0.2627  0.2924  0.5168
 5450SOL    HW321567   3.159   3.687   1.527  0.5222  0.3746  0.0675
 5450SOL    MW421568   3.209   3.711   1.594  0.2589  0.2276  0.3130
 5451SOL     OW21569   3.208   2.396   4.579 -0.3336  0.2031  0.5068
 5451SOL    HW221570   3.220   2.302   4.571  1.4354  0.2972  1.5211
 5451SOL    HW321571   3.282   2.434   4.530 -2.6647  1.1980 -2.5554
 5451SOL    MW421572   3.220   2.389   4.572 -0.4077  0.3468  0.2366
 5452SOL     OW21573   0.548   6.349   4.701 -0.1920  0.0109  0.2419
 5452SOL    HW221574   0.473   6.323   4.647 -0.5777 -1.3002  1.3514
 5452SOL    HW321575   0.623   6.340   4.643 -0.5930 -1.4035 -0.1149
 5452SOL    MW421576   0.548   6.344   4.687 -0.2958 -0.3487  0.3412
 5453SOL     OW21577   5.269   4.037   5.459  0.1004  0.3063  0.0359
 5453SOL    HW221578   5.232   4.028   5.547 -1.0273  0.5941 -0.3945
 5453SOL    HW321579   5.364   4.046   5.473 -0.1578  1.2899  1.2712
 5453SOL    MW421580   5.277   4.037   5.472 -0.0824  0.4741  0.1421
 5454SOL     OW21581   0.746   3.011   1.050  0.3103 -0.1599  0.4189
 5454SOL    HW221582   0.816   2.947   1.038 -1.4576 -1.9190 -1.1697
 5454SOL    HW321583   0.778   3.090   1.006  1.0789 -1.1137 -0.7918
 5454SOL    MW421584   0.760   3.013   1.043  0.1785 -0.5178  0.0496
 5455SOL     OW21585   6.192   4.529   0.931  0.5818  0.2265 -0.2634
 5455SOL    HW221586   6.179   4.602   0.991  0.7981  0.0461  0.0035
 5455SOL    HW321587   6.164   4.563   0.846 -0.0491  0.3707 -0.0017
 5455SOL    MW421588   6.186   4.543   0.927  0.5271  0.2217 -0.1936
 5456SOL     OW21589   2.798   0.238   4.962 -0.0068 -0.4709 -0.0351
 5456SOL    HW221590   2.775   0.300   5.031 -0.7567 -0.0085 -0.6890
 5456SOL    HW321591   2.876   0.275   4.921  1.5930 -1.6721  1.7091
 5456SOL    MW421592   2.805   0.251   4.965  0.1053 -0.5683  0.1088
 5457SOL     OW21593   0.651   1.572   4.348  0.4059  0.9106 -0.0407
 5457SOL    HW221594   0.707   1.498   4.328  0.5788  0.9913  0.1482
 5457SOL    HW321595   0.660   1.630   4.272 -0.2251  0.4459 -0.4815
 5457SOL    MW421596   0.659   1.570   4.335  0.3454  0.8599 -0.0740
 5458SOL     OW21597   0.332   1.957   3.621  0.2777 -0.2407  0.2486
 5458SOL    HW221598   0.385   1.946   3.542  1.3002 -1.4220  1.0756
 5458SOL    HW321599   0.250   1.912   3.600 -0.2979  1.2302 -0.8755
 5458SOL    MW421600   0.328   1.950   3.608  0.3367 -0.2025  0.2094
 5459SOL     OW21601   4.890   3.570   3.829 -0.4486 -0.2427  0.5193
 5459SOL    HW221602   4.945   3.579   3.907 -1.3963  1.9681  1.0006
 5459SOL    HW321603   4.858   3.479   3.833  1.5992 -0.9824  1.2346
 5459SOL    MW421604   4.893   3.559   3.840 -0.3034 -0.0486  0.6772
 5460SOL     OW21605   2.575   3.185   0.649  0.0234  0.1771  0.3188
 5460SOL    HW221606   2.494   3.204   0.601  0.3131 -0.3797 -0.4099
 5460SOL    HW321607   2.559   3.101   0.691  0.0797  0.2542  0.4927
 5460SOL    MW421608   2.562   3.177   0.648  0.0690  0.1138  0.2456
 5461SOL     OW21609   4.473   2.402   5.340 -0.2619 -0.3256 -0.0911
 5461SOL    HW221610   4.477   2.475   5.277  0.1822  0.7974  1.1859
 5461SOL    HW321611   4.558   2.404   5.383 -0.5661 -1.0678  0.5593
 5461SOL    MW421612   4.485   2.412   5.337 -0.2435 -0.2754  0.1632
 5462SOL     OW21613   1.866   3.167   4.583 -0.7733  0.0204 -0.0380
 5462SOL    HW221614   1.916   3.137   4.659 -2.1050  0.2060  0.9623
 5462SOL    HW321615   1.855   3.261   4.597 -1.0662  0.0488 -0.4366
 5462SOL    MW421616   1.871   3.175   4.595 -0.9877  0.0487  0.0414
 5463SOL     OW21617   3.858   2.956   0.159  0.3159  0.0501 -0.2939
 5463SOL    HW221618   3.878   2.983   0.070  0.8198  2.1289  0.3842
 5463SOL    HW321619   3.794   3.020   0.190  1.7629  0.7604  1.4972
 5463SOL    MW421620   3.853   2.968   0.152  0.5733  0.4181  0.0319
 5464SOL     OW21621   3.179   0.735   6.156 -0.0416  0.5571 -0.3448
 5464SOL    HW221622   3.189   0.669   6.224 -0.7246 -0.0465 -0.8119
 5464SOL    HW321623   3.093   0.716   6.117  0.7184  0.3268 -1.9682
 5464SOL    MW421624   3.169   0.724   6.160 -0.0314  0.4471 -0.6206
 5465SOL     OW21625   3.674   0.650   0.575 -0.5858  0.3611 -0.0486
 5465SOL    HW221626   3.745   0.652   0.640 -0.9195  0.9483  0.3103
 5465SOL    HW321627   3.706   0.704   0.503  0.4376 -1.5591 -1.0922
 5465SOL    MW421628   3.688   0.657   0.574 -0.4948  0.1852 -0.1389
 5466SOL     OW21629   4.972   4.409   1.564 -0.3013  0.2238  0.4596
 5466SOL    HW221630   4.969   4.488   1.511  1.6447 -0.0127 -0.0864
 5466SOL    HW321631   4.938   4.340   1.507 -1.0134  0.4850  0.5685
 5466SOL    MW421632   4.967   4.410   1.550 -0.1385  0.2270  0.4019
 5467SOL     OW21633   1.342   0.530   2.850 -0.3575 -0.4170 -0.3882
 5467SOL    HW221634   1.273   0.578   2.895  0.7612  1.3547 -0.4738
 5467SOL    HW321635   1.423   0.568   2.882  0.7730 -3.8645  1.3302
 5467SOL    MW421636   1.344   0.541   2.860 -0.0608 -0.6381 -0.1727
 5468SOL     OW21637   3.006   1.177   5.194  0.1343  0.0607 -0.9899
 5468SOL    HW221638   3.097   1.200   5.210 -0.5746  1.5351  1.4243
 5468SOL    HW321639   2.971   1.249   5.141  0.2344 -0.2583 -1.4962
 5468SOL    MW421640   3.013   1.189   5.189  0.0539  0.2132 -0.7382
 5469SOL     OW21641   5.576   0.930   2.001 -0.6439 -0.1430 -0.2223
 5469SOL    HW221642   5.611   1.008   1.957 -0.2200 -0.6057 -0.7290
 5469SOL    HW321643   5.487   0.955   2.027 -0.5131  0.5094 -0.3812
 5469SOL    MW421644   5.569   0.944   1.998 -0.5707 -0.1179 -0.3101
 5470SOL     OW21645   2.208   3.081   5.456  0.0848 -0.2107 -0.2638
 5470SOL    HW221646   2.115   3.090   5.436  0.0731  0.0659 -0.1016
 5470SOL    HW321647   2.216   3.111   5.547  0.4522  0.5355 -0.5328
 5470SOL    MW421648   2.197   3.086   5.465  0.1318 -0.0757 -0.2779
 5471SOL     OW21649   5.130   2.004   6.113 -0.2417  0.1239  0.4260
 5471SOL    HW221650   5.101   1.942   6.180 -0.3523  0.2226  0.4698
 5471SOL    HW321651   5.129   2.089   6.157  3.6253 -0.2383  1.5904
 5471SOL    MW421652   5.126   2.007   6.128  0.2539  0.0891  0.5854
 5472SOL     OW21653   4.808   5.362   0.122 -0.1306  0.3204 -0.1505
 5472SOL    HW221654   4.870   5.435   0.115 -0.5904  0.6674 -0.7742
 5472SOL    HW321655   4.739   5.383   0.058 -0.9314 -0.0175  0.5754
 5472SOL    MW421656   4.807   5.375   0.112 -0.2969  0.3216 -0.1370
 5473SOL     OW21657   4.763   5.305   3.181  0.2001 -0.1870  0.6914
 5473SOL    HW221658   4.754   5.285   3.087  1.3085  2.0833  0.0130
 5473SOL    HW321659   4.687   5.264   3.222 -0.4900 -0.9711 -1.2379
 5473SOL    MW421660   4.752   5.297   3.174  0.2553  0.0091  0.3473
 5474SOL     OW21661   3.589   1.185   4.292  0.3991 -0.1915  0.2324
 5474SOL    HW221662   3.621   1.125   4.226 -1.1924 -0.9713  0.1154
 5474SOL    HW321663   3.584   1.133   4.372 -0.6663 -0.1454  0.2102
 5474SOL    MW421664   3.592   1.170   4.294  0.0486 -0.2883  0.2140
 5475SOL     OW21665   6.008   3.241   2.486 -0.1869 -0.1450  0.3551
 5475SOL    HW221666   5.926   3.254   2.534 -0.2922 -0.7605  0.3524
 5475SOL    HW321667   6.022   3.324   2.440 -0.1209  0.4287  1.3775
 5475SOL    MW421668   5.999   3.254   2.486 -0.1921 -0.1505  0.4896
 5476SOL     OW21669   0.677   5.635   2.633 -0.2284  0.0041  0.5131
 5476SOL    HW221670   0.717   5.561   2.588 -1.0647  0.0495 -0.3469
 5476SOL    HW321671   0.739   5.659   2.701 -0.3814 -2.0809  1.4256
 5476SOL    MW421672   0.691   5.629   2.636 -0.3589 -0.2650  0.5200
 5477SOL     OW21673   5.929   2.137   4.152 -0.4882  0.3157  0.4110
 5477SOL    HW221674   5.981   2.158   4.074 -1.3386 -0.1237 -0.2932
 5477SOL    HW321675   5.963   2.195   4.220  1.0444 -0.0902  0.0248
 5477SOL    MW421676   5.940   2.147   4.150 -0.3982  0.2042  0.2671
 5478SOL     OW21677   4.573   1.795   2.234  0.4120  0.2965 -0.2917
 5478SOL    HW221678   4.607   1.721   2.185 -0.3835 -0.2607 -0.0285
 5478SOL    HW321679   4.532   1.756   2.311 -1.0907  0.8701 -0.7470
 5478SOL    MW421680   4.572   1.780   2.238  0.1088  0.2987 -0.3171
 5479SOL     OW21681   4.823   5.744   3.794  0.6496 -0.4891  0.2483
 5479SOL    HW221682   4.908   5.782   3.812  0.9746 -0.5850 -1.0297
 5479SOL    HW321683   4.837   5.688   3.718 -0.3574 -1.2239  0.5796
 5479SOL    MW421684   4.836   5.741   3.787  0.5596 -0.5987  0.1234
 5480SOL     OW21685   0.097   2.038   4.384 -0.5971  0.2624 -0.0341
 5480SOL    HW221686   0.075   2.107   4.320 -0.0469  0.5607  0.0921
 5480SOL    HW321687   0.177   2.069   4.426 -1.0036  0.1216  0.8795
 5480SOL    MW421688   0.105   2.052   4.381 -0.5782  0.2832  0.1031
 5481SOL     OW21689   3.381   2.342   1.474 -0.1343 -0.3252 -0.2720
 5481SOL    HW221690   3.311   2.407   1.463  0.5547  0.1552 -2.0475
 5481SOL    HW321691   3.389   2.332   1.569 -1.9705  0.3025 -0.0084
 5481SOL    MW421692   3.372   2.349   1.486 -0.2856 -0.1790 -0.4715
 5482SOL     OW21693   5.611   5.328   3.143 -0.1898  0.3852 -0.0278
 5482SOL    HW221694   5.596   5.407   3.195 -0.8592 -0.3663  0.9406
 5482SOL    HW321695   5.607   5.256   3.206  0.6612 -0.4114 -0.8579
 5482SOL    MW421696   5.609   5.329   3.158 -0.1658  0.1809 -0.0096
 5483SOL     OW21697   3.499   2.018   1.612  0.1484  0.3054  0.0176
 5483SOL    HW221698   3.474   2.101   1.652  1.2611 -0.0151  1.4674
 5483SOL    HW321699   3.537   2.042   1.528 -1.0412  1.1032 -0.3208
 5483SOL    MW421700   3.500   2.032   1.606  0.1383  0.3684  0.1643
 5484SOL     OW21701   2.607   3.816   2.199 -0.1664  0.7113 -0.1745
 5484SOL    HW221702   2.666   3.742   2.187 -1.1091  0.1475 -1.5238
 5484SOL    HW321703   2.576   3.808   2.289  2.8145  1.8199  1.0768
 5484SOL    MW421704   2.610   3.806   2.209  0.1025  0.7832 -0.1875
 5485SOL     OW21705   6.259   4.072   0.805 -0.0609  0.2961 -0.0701
 5485SOL    HW221706   6.308   4.105   0.730  0.2278  1.4731  0.6182
 5485SOL    HW321707   6.323   4.067   0.876  0.2165 -2.8574 -0.3630
 5485SOL    MW421708   6.274   4.075   0.804  0.0138  0.0353 -0.0179
 5486SOL     OW21709   3.080   2.175   1.366  0.0349 -0.4938  0.3849
 5486SOL    HW221710   3.166   2.164   1.326  0.3736 -1.7985  1.4434
 5486SOL    HW321711   3.043   2.252   1.321  1.7722  0.1572 -0.0068
 5486SOL    MW421712   3.086   2.184   1.355  0.3088 -0.5801  0.4729
 5487SOL     OW21713   2.224   4.949   4.798 -0.3481 -0.0675  0.2479
 5487SOL    HW221714   2.213   5.044   4.798 -0.1254  0.0187 -1.8961
 5487SOL    HW321715   2.136   4.915   4.783 -0.2075 -0.0998 -0.5765
 5487SOL    MW421716   2.211   4.957   4.796 -0.3002 -0.0604 -0.1437
 5488SOL     OW21717   2.318   0.251   0.599 -0.0013  0.5872 -0.1207
 5488SOL    HW221718   2.352   0.166   0.626 -0.4457  0.1484 -0.9184
 5488SOL    HW321719   2.332   0.255   0.504 -1.3975  0.7374 -0.3434
 5488SOL    MW421720   2.324   0.241   0.590 -0.2442  0.5491 -0.2553
 5489SOL     OW21721   5.776   3.606   1.226  0.2810  0.2430 -0.0757
 5489SOL    HW221722   5.746   3.552   1.153 -0.3278  1.0238 -0.4219
 5489SOL    HW321723   5.749   3.558   1.305 -1.8522  0.8495 -0.3646
 5489SOL    MW421724   5.769   3.593   1.227 -0.0807  0.4261 -0.1595
 5490SOL     OW21725   0.602   3.252   1.955  0.2159 -0.2355 -0.0109
 5490SOL    HW221726   0.584   3.252   1.861  0.2602  1.2877 -0.0529
 5490SOL    HW321727   0.631   3.163   1.974  1.0446 -0.3532 -1.6136
 5490SOL    MW421728   0.604   3.241   1.945  0.3311 -0.0500 -0.2279
 5491SOL     OW21729   3.274   2.250   6.101 -0.2930 -0.5033 -0.1953
 5491SOL    HW221730   3.263   2.340   6.129 -0.0899 -0.2926 -0.7721
 5491SOL    HW321731   3.277   2.199   6.182  0.7272  0.1310  0.1781
 5491SOL    MW421732   3.273   2.255   6.115 -0.1316 -0.3918 -0.2221
 5492SOL     OW21733   4.614   4.779   1.545  0.1665 -0.3460  0.5873
 5492SOL    HW221734   4.661   4.699   1.569 -1.7361 -1.4800  0.7599
 5492SOL    HW321735   4.615   4.779   1.449  1.6321  0.3783  0.5732
 5492SOL    MW421736   4.621   4.768   1.535  0.1088 -0.4000  0.6082
 5493SOL     OW21737   3.315   3.944   3.759 -0.0646 -0.0634 -0.3681
 5493SOL    HW221738   3.356   3.989   3.833  1.0752 -1.2714 -0.2221
 5493SOL    HW321739   3.301   3.854   3.790  0.9640 -0.7559 -1.7664
 5493SOL    MW421740   3.319   3.938   3.773  0.2215 -0.3142 -0.5334
 5494SOL     OW21741   0.236   1.842   0.293 -0.4787 -0.1022  0.2299
 5494SOL    HW221742   0.180   1.840   0.215 -0.2239  0.3746  0.0302
 5494SOL    HW321743   0.200   1.773   0.349  0.7972 -2.1775 -1.3075
 5494SOL    MW421744   0.224   1.832   0.290 -0.2768 -0.3131  0.0007
 5495SOL     OW21745   4.765   2.516   1.713  0.5152  0.0933 -0.4959
 5495SOL    HW221746   4.725   2.507   1.627  2.2247 -0.7913 -1.2334
 5495SOL    HW321747   4.786   2.427   1.740  3.9572  0.5573 -1.1703
 5495SOL    MW421748   4.763   2.503   1.705  1.1949  0.0378 -0.6822
 5496SOL     OW21749   3.006   3.845   2.302 -0.5460  0.2509  0.0640
 5496SOL    HW221750   3.023   3.868   2.211  0.5435 -0.0422  0.1797
 5496SOL    HW321751   2.935   3.903   2.329 -0.4851  0.7366 -0.8010
 5496SOL    MW421752   2.999   3.856   2.294 -0.3942  0.2763 -0.0348
 5497SOL     OW21753   4.397   5.538   5.371 -0.1207 -0.0270 -0.1976
 5497SOL    HW221754   4.386   5.524   5.277  0.8132  0.1112 -0.3411
 5497SOL    HW321755   4.482   5.498   5.391 -1.0685 -1.5622  0.9259
 5497SOL    MW421756   4.407   5.531   5.361 -0.1225 -0.2113 -0.0683
 5498SOL     OW21757   3.735   0.305   2.361 -0.5729 -0.3079 -0.3706
 5498SOL    HW221758   3.719   0.341   2.449  0.9077 -1.8302  0.5908
 5498SOL    HW321759   3.648   0.280   2.329 -1.1576  0.4074  0.5962
 5498SOL    MW421760   3.721   0.307   2.369 -0.4547 -0.4143 -0.1162
 5499SOL     OW21761   0.616   1.454   5.584 -0.1141  0.0795  0.4319
 5499SOL    HW221762   0.679   1.433   5.654 -0.7883 -0.4405  0.8944
 5499SOL    HW321763   0.534   1.471   5.630 -1.1548 -2.3944 -0.3028
 5499SOL    MW421764   0.614   1.453   5.599 -0.3404 -0.3155  0.3960
 5500SOL     OW21765   3.569   2.338   4.331  0.2902 -0.3592  0.0510
 5500SOL    HW221766   3.619   2.314   4.409  0.9239 -0.6022 -0.4246
 5500SOL    HW321767   3.493   2.384   4.365  1.0246  0.3562  0.7751
 5500SOL    MW421768   3.566   2.341   4.346  0.4707 -0.2969  0.0838
 5501SOL     OW21769   2.573   0.976   0.126  0.1620 -0.2283  0.4224
 5501SOL    HW221770   2.641   0.971   0.060  0.0064 -1.2264  0.3241
 5501SOL    HW321771   2.616   0.946   0.207  0.4190  1.2092  0.8477
 5501SOL    MW421772   2.588   0.971   0.128  0.1754 -0.1704  0.4656
 5502SOL     OW21773   0.707   2.508   5.064 -0.1229 -0.0587 -0.1522
 5502SOL    HW221774   0.701   2.534   5.155  0.5733 -1.5548  0.3550
 5502SOL    HW321775   0.633   2.447   5.052  0.3035 -0.5510 -0.3251
 5502SOL    MW421776   0.696   2.503   5.074  0.0252 -0.3210 -0.1081
 5503SOL     OW21777   1.212   3.163   1.322 -0.2833 -0.5687  0.5949
 5503SOL    HW221778   1.121   3.162   1.350 -0.2041  1.0521  1.0350
 5503SOL    HW321779   1.209   3.167   1.227 -0.6809 -0.1732  0.6222
 5503SOL    MW421780   1.200   3.163   1.313 -0.3253 -0.3027  0.6566
 5504SOL     OW21781   4.693   3.401   5.594 -0.0462  0.5968 -0.2876
 5504SOL    HW221782   4.771   3.455   5.582 -0.4494  1.1429 -0.5047
 5504SOL    HW321783   4.660   3.427   5.680  0.8380 -0.7180  0.4776
 5504SOL    MW421784   4.699   3.412   5.604  0.0172  0.4954 -0.2153
 5505SOL     OW21785   0.378   5.831   1.209  0.0902  0.2424  0.3968
 5505SOL    HW221786   0.320   5.757   1.225 -0.6734  0.2118 -2.1434
 5505SOL    HW321787   0.465   5.798   1.230 -0.4059 -0.8741  0.7646
 5505SOL    MW421788   0.382   5.817   1.214 -0.0760  0.0911  0.1102
 5506SOL     OW21789   0.590   5.263   0.301  0.1357  0.2975 -0.6937
 5506SOL    HW221790   0.626   5.276   0.389 -1.1808  1.0794 -0.2274
 5506SOL    HW321791   0.622   5.337   0.250  1.2902 -0.4089 -1.0329
 5506SOL    MW421792   0.599   5.274   0.306  0.1143  0.3074 -0.6769
 5507SOL     OW21793   5.551   2.631   4.757 -0.1472  0.1218 -0.6902
 5507SOL    HW221794   5.542   2.644   4.852 -1.0951 -1.0203 -0.6090
 5507SOL    HW321795   5.461   2.629   4.724  0.1258 -0.9035 -1.4125
 5507SOL    MW421796   5.538   2.633   4.765 -0.2363 -0.1642 -0.7748
 5508SOL     OW21797   0.604   5.479   0.961  0.0383  0.2355  0.0183
 5508SOL    HW221798   0.633   5.567   0.940 -0.0414  0.3554  0.3928
 5508SOL    HW321799   0.517   5.472   0.923 -0.2352  0.5600  0.5721
 5508SOL    MW421800   0.597   5.489   0.953 -0.0083  0.2942  0.1408
 5509SOL     OW21801   2.245   0.550   6.381 -1.0609  0.6029 -0.2143
 5509SOL    HW221802   2.260   0.581   6.470 -0.5615 -0.8088  0.2353
 5509SOL    HW321803   2.155   0.576   6.361 -1.5920 -0.0478  1.1588
 5509SOL    MW421804   2.235   0.557   6.390 -1.0651  0.3308  0.0262
 5510SOL     OW21805   0.711   5.743   5.948 -0.1307  0.4294 -0.2187
 5510SOL    HW221806   0.800   5.763   5.975 -0.4586  1.4665  0.1500
 5510SOL    HW321807   0.693   5.805   5.877  0.3911 -1.6297 -2.2588
 5510SOL    MW421808   0.720   5.754   5.942 -0.1051  0.2946 -0.4392
 5511SOL     OW21809   1.568   0.389   3.174 -0.0627 -0.0540 -0.0758
 5511SOL    HW221810   1.556   0.450   3.101 -1.8575 -1.2554 -0.8753
 5511SOL    HW321811   1.607   0.441   3.244 -0.7004  1.7757 -1.0316
 5511SOL    MW421812   1.571   0.404   3.174 -0.3836  0.0289 -0.3074
 5512SOL     OW21813   3.611   2.112   1.382 -0.0381  0.0266 -0.4551
 5512SOL    HW221814   3.689   2.061   1.360 -0.3517  0.0198 -1.6204
 5512SOL    HW321815   3.643   2.202   1.390  0.2105 -0.0810 -0.2290
 5512SOL    MW421816   3.625   2.117   1.380 -0.0467  0.0115 -0.5791
 5513SOL     OW21817   2.561   5.656   6.175 -0.3649  0.1114 -0.2840
 5513SOL    HW221818   2.568   5.750   6.161  0.5016 -0.0388 -0.9179
 5513SOL    HW321819   2.482   5.630   6.127  1.0522  0.0470 -2.7371
 5513SOL    MW421820   2.551   5.665   6.167 -0.0636  0.0831 -0.6913
 5514SOL     OW21821   0.255   2.490   5.845 -0.9845  0.2300 -0.0628
 5514SOL    HW221822   0.253   2.427   5.917  0.9910 -0.5915 -0.6712
 5514SOL    HW321823   0.269   2.437   5.767 -2.2850  1.1849 -0.9916
 5514SOL    MW421824   0.257   2.475   5.844 -0.8954  0.2476 -0.2656
 5515SOL     OW21825   1.403   1.269   3.177 -0.1551  0.1507 -0.3265
 5515SOL    HW221826   1.375   1.269   3.268  0.9896 -0.9433  0.0460
 5515SOL    HW321827   1.391   1.359   3.148 -0.3289  0.5550  0.9555
 5515SOL    MW421828   1.397   1.281   3.185 -0.0270  0.0597 -0.1082
 5516SOL     OW21829   6.088   0.883   1.689  0.7370 -0.4798 -0.1746
 5516SOL    HW221830   6.100   0.964   1.738  1.7407 -1.3175  1.0338
 5516SOL    HW321831   5.994   0.864   1.696  0.5151  0.4898 -0.3653
 5516SOL    MW421832   6.077   0.891   1.696  0.8401 -0.4624 -0.0403
 5517SOL     OW21833   3.615   0.182   5.293  0.6844 -0.3151 -0.2710
 5517SOL    HW221834   3.572   0.252   5.245  1.9303 -0.4286 -1.6579
 5517SOL    HW321835   3.707   0.208   5.296  0.7582 -0.6390  1.5388
 5517SOL    MW421836   3.622   0.195   5.287  0.8585 -0.3728 -0.2152
 5518SOL     OW21837   3.635   0.160   1.538  0.4860 -0.1440  0.3253
 5518SOL    HW221838   3.572   0.092   1.562  0.1125  0.1064  0.0707
 5518SOL    HW321839   3.645   0.152   1.444  0.2062  0.3515  0.2506
 5518SOL    MW421840   3.628   0.150   1.529  0.3998 -0.0456  0.2819
 5519SOL     OW21841   0.425   0.485   4.701  0.1953 -0.2027  0.1729
 5519SOL    HW221842   0.372   0.547   4.651 -0.3396  2.0263  3.2278
 5519SOL    HW321843   0.376   0.402   4.696 -0.8262  0.4520 -1.2898
 5519SOL    MW421844   0.411   0.482   4.694 -0.0101  0.1778  0.3830
 5520SOL     OW21845   6.200   6.242   2.651  0.3347 -0.0187 -0.0418
 5520SOL    HW221846   6.247   6.260   2.570 -0.1541 -1.4070 -0.6679
 5520SOL    HW321847   6.166   6.327   2.680  1.6683  0.7066 -0.5422
 5520SOL    MW421848   6.202   6.255   2.644  0.4462 -0.1062 -0.1904
 5521SOL     OW21849   5.424   1.467   1.663 -0.3381 -0.1058  0.3798
 5521SOL    HW221850   5.394   1.480   1.573  0.8069 -0.6129 -0.0999
 5521SOL    HW321851   5.447   1.555   1.693 -0.3921  0.0213  0.0536
 5521SOL    MW421852   5.423   1.481   1.655 -0.1941 -0.1559  0.2734
 5522SOL     OW21853   5.122   6.115   2.220  0.8720 -0.1086 -0.4433
 5522SOL    HW221854   5.162   6.200   2.205  3.6018 -1.4879 -1.7631
 5522SOL    HW321855   5.176   6.054   2.169  0.9466 -3.0450  2.8077
 5522SOL    MW421856   5.134   6.118   2.211  1.2420 -0.6780 -0.1885
 5523SOL     OW21857   4.841   1.068   0.943  0.0123  0.2352  0.2395
 5523SOL    HW221858   4.813   1.142   0.888  0.3832 -0.5382 -1.0440
 5523SOL    HW321859   4.759   1.027   0.971 -0.2446 -0.8526 -1.8785
 5523SOL    MW421860   4.826   1.072   0.939  0.0274 -0.0103 -0.2093
 5524SOL     OW21861   0.637   5.461   6.204  0.1358 -0.5707  0.0150
 5524SOL    HW221862   0.617   5.552   6.224  0.0745 -0.9368  1.8161
 5524SOL    HW321863   0.702   5.465   6.134 -0.5467  0.8243 -0.5627
 5524SOL    MW421864   0.643   5.474   6.198  0.0377 -0.4349  0.1764
 5525SOL     OW21865   3.657   2.540   3.193 -0.4788  0.5200  0.1014
 5525SOL    HW221866   3.675   2.634   3.191  1.6993  0.1712  0.3514
 5525SOL    HW321867   3.744   2.499   3.198 -1.2679 -1.5724 -1.6250
 5525SOL    MW421868   3.671   2.547   3.193 -0.2955  0.1979 -0.0934
 5526SOL     OW21869   6.076   1.211   2.582 -0.2070 -0.0437  0.0126
 5526SOL    HW221870   6.101   1.119   2.578 -0.1582  0.0001 -2.6391
 5526SOL    HW321871   6.068   1.238   2.490 -1.0390  2.3833  0.7074
 5526SOL    MW421872   6.078   1.203   2.570 -0.3103  0.2823 -0.2456
 5527SOL     OW21873   1.359   6.041   4.004 -0.1705  0.5964  0.5748
 5527SOL    HW221874   1.415   5.963   4.006  0.4267  0.7935 -2.7706
 5527SOL    HW321875   1.286   6.019   4.061  0.2867 -2.1678  0.2463
 5527SOL    MW421876   1.357   6.028   4.012 -0.0314  0.2577  0.0901
 5528SOL     OW21877   2.672   0.876   3.910  0.3866  0.0329  0.3512
 5528SOL    HW221878   2.656   0.784   3.890  2.7125 -0.1715 -0.9260
 5528SOL    HW321879   2.650   0.885   4.002  1.3724 -2.1577  0.8589
 5528SOL    MW421880   2.667   0.865   3.919  0.8236 -0.2831  0.2497
 5529SOL     OW21881   3.818   1.987   1.230 -0.2329 -0.4604 -0.3875
 5529SOL    HW221882   3.783   1.950   1.149  1.3785 -0.1929 -1.2390
 5529SOL    HW321883   3.910   2.006   1.211 -0.0910  0.6366  1.1637
 5529SOL    MW421884   3.826   1.985   1.217 -0.0016 -0.2804 -0.2952
 5530SOL     OW21885   3.156   3.684   1.876  0.3384 -0.4069 -0.2358
 5530SOL    HW221886   3.245   3.664   1.906  0.4257  0.4662  0.1306
 5530SOL    HW321887   3.167   3.709   1.784  0.7357  1.2780  0.2248
 5530SOL    MW421888   3.170   3.685   1.868  0.4024 -0.0694 -0.1267
 5531SOL     OW21889   2.081   1.410   1.839 -0.3561  0.0780  0.7132
 5531SOL    HW221890   2.030   1.464   1.899 -0.9998 -1.2942  1.4558
 5531SOL    HW321891   2.139   1.359   1.895 -0.2690 -0.5144  0.0989
 5531SOL    MW421892   2.082   1.410   1.854 -0.4295 -0.1812  0.7301
 5532SOL     OW21893   4.055   4.038   1.169 -0.2032 -0.1903  0.0824
 5532SOL    HW221894   3.997   4.047   1.245  0.0409  0.2024  0.2223
 5532SOL    HW321895   4.111   3.964   1.191  0.1789  0.2109  0.4957
 5532SOL    MW421896   4.055   4.030   1.182 -0.1206 -0.0855  0.1554
 5533SOL     OW21897   0.167   4.693   2.331  0.3485  0.1670 -0.2401
 5533SOL    HW221898   0.262   4.705   2.337  0.3175 -0.1020  0.8775
 5533SOL    HW321899   0.130   4.777   2.356  0.2829  0.5175 -1.4279
 5533SOL    MW421900   0.174   4.705   2.335  0.3358  0.1777 -0.2494
 5534SOL     OW21901   1.137   5.583   5.184  0.1088  0.6479 -0.0664
 5534SOL    HW221902   1.181   5.592   5.100  0.4289 -0.7448 -0.0782
 5534SOL    HW321903   1.091   5.666   5.197  0.2992  0.9891 -1.4676
 5534SOL    MW421904   1.137   5.595   5.175  0.1761  0.5092 -0.2529
 5535SOL     OW21905   5.239   5.190   0.144 -0.4025 -0.4603 -0.0823
 5535SOL    HW221906   5.221   5.134   0.219  0.4411  0.6676  1.0003
 5535SOL    HW321907   5.329   5.221   0.157 -1.8698  3.9498  1.3602
 5535SOL    MW421908   5.248   5.187   0.156 -0.4848  0.2704  0.2508
 5536SOL     OW21909   3.185   5.006   5.639 -0.4503 -0.6592  0.2290
 5536SOL    HW221910   3.234   5.072   5.688 -0.4337  0.8729 -1.7241
 5536SOL    HW321911   3.227   4.923   5.663  0.5126  0.1765  1.6114
 5536SOL    MW421912   3.197   5.004   5.649 -0.3211 -0.3468  0.1537
 5537SOL     OW21913   6.284   5.485   1.009  0.2772  0.0792  0.9153
 5537SOL    HW221914   6.230   5.411   0.982  1.5529 -0.6815  0.3181
 5537SOL    HW321915   6.261   5.501   1.100  0.4152 -1.4721  1.2438
 5537SOL    MW421916   6.274   5.478   1.017  0.4637 -0.2258  0.8799
 5538SOL     OW21917   1.462   5.361   4.160  0.3022  0.0543 -0.0759
 5538SOL    HW221918   1.500   5.430   4.106 -1.7512  1.7200  0.4936
 5538SOL    HW321919   1.402   5.315   4.101 -1.6280  1.6131  0.5530
 5538SOL    MW421920   1.459   5.364   4.145 -0.2234  0.4797  0.0822
 5539SOL     OW21921   6.384   4.580   0.376 -0.1881  0.1547 -0.2191
 5539SOL    HW221922   6.464   4.625   0.350 -0.3550  1.2575  1.0765
 5539SOL    HW321923   6.406   4.487   0.370  0.6199  0.3968 -1.5446
 5539SOL    MW421924   6.398   4.573   0.371 -0.1035  0.3321 -0.2231
 5540SOL     OW21925   4.087   0.396   4.859  0.1301 -0.0490  0.2294
 5540SOL    HW221926   4.061   0.473   4.809 -0.3367  0.0665  0.6441
 5540SOL    HW321927   4.015   0.334   4.847 -0.1545  0.1142  1.0446
 5540SOL    MW421928   4.074   0.398   4.851  0.0310 -0.0122  0.3916
 5541SOL     OW21929   4.136   4.946   3.573  0.4420 -0.0140  0.5970
 5541SOL    HW221930   4.128   4.972   3.481  1.2342  1.1250  0.8230
 5541SOL    HW321931   4.142   4.851   3.571 -0.1028 -0.0383 -0.4879
 5541SOL    MW421932   4.136   4.937   3.561  0.4746  0.1331  0.4837
 5542SOL     OW21933   2.678   3.547   3.824  0.5854 -0.4255 -0.5746
 5542SOL    HW221934   2.680   3.586   3.911  0.1704 -1.0479 -0.2778
 5542SOL    HW321935   2.602   3.587   3.781 -1.1031 -2.3283  0.4424
 5542SOL    MW421936   2.668   3.558   3.830  0.3079 -0.7587 -0.4013
 5543SOL     OW21937   0.170   1.820   1.331  0.0553  0.0695  0.4039
 5543SOL    HW221938   0.131   1.748   1.282 -0.1128  0.0176  0.6107
 5543SOL    HW321939   0.132   1.899   1.291  1.1206  0.1088 -0.5926
 5543SOL    MW421940   0.160   1.821   1.319  0.1736  0.0678  0.2997
 5544SOL     OW21941   5.889   5.459   1.389  0.1582 -0.1615 -0.1319
 5544SOL    HW221942   5.808   5.454   1.440 -0.3030 -3.2844 -0.9487
 5544SOL    HW321943   5.952   5.407   1.440  1.1201  0.7124 -0.4093
 5544SOL    MW421944   5.887   5.451   1.403  0.2243 -0.4582 -0.2763
 5545SOL     OW21945   4.465   3.613   5.349  0.1922  0.3658  0.1122
 5545SOL    HW221946   4.552   3.651   5.337  0.7077 -0.8215 -0.0145
 5545SOL    HW321947   4.406   3.675   5.306  1.1325  0.4826 -1.0657
 5545SOL    MW421948   4.469   3.626   5.342  0.3843  0.2245 -0.0599
 5546SOL     OW21949   2.613   5.040   6.103 -0.2037 -0.9180  0.0761
 5546SOL    HW221950   2.586   5.123   6.065 -0.0703 -0.4265  1.0367
 5546SOL    HW321951   2.660   5.064   6.182 -1.3496 -1.9566  1.1057
 5546SOL    MW421952   2.616   5.054   6.108 -0.3373 -0.9902  0.3387
 5547SOL     OW21953   5.563   2.906   0.675  0.7408  0.5536  0.4572
 5547SOL    HW221954   5.622   2.879   0.605 -1.2584  0.1188 -1.1673
 5547SOL    HW321955   5.540   2.825   0.721  0.7569  0.6053  0.5585
 5547SOL    MW421956   5.567   2.892   0.672  0.4792  0.5030  0.2562
 5548SOL     OW21957   3.243   2.882   3.889 -0.4130  0.0383 -0.2899
 5548SOL    HW221958   3.254   2.787   3.901  1.6751  0.2969  0.3517
 5548SOL    HW321959   3.281   2.920   3.969 -0.9091  1.4265 -0.6913
 5548SOL    MW421960   3.250   2.874   3.901 -0.2029  0.2556 -0.2582
 5549SOL     OW21961   3.017   4.643   6.117 -0.0569  0.1140 -0.0923
 5549SOL    HW221962   3.022   4.702   6.041 -0.6581 -2.1700 -2.0186
 5549SOL    HW321963   3.106   4.610   6.128  0.3699  1.5680  1.2425
 5549SOL    MW421964   3.029   4.646   6.109 -0.0799  0.0044 -0.1703
 5550SOL     OW21965   0.557   3.213   2.359 -0.0113 -0.0442 -0.3002
 5550SOL    HW221966   0.636   3.195   2.307  0.1543  0.8751 -0.3951
 5550SOL    HW321967   0.507   3.275   2.305 -0.1749  0.3778  0.3223
 5550SOL    MW421968   0.561   3.219   2.345 -0.0110  0.1328 -0.2306
 5551SOL     OW21969   0.757   1.838   5.583 -0.0068 -0.3245 -0.3002
 5551SOL    HW221970   0.762   1.855   5.489  1.2421 -1.2498 -0.4291
 5551SOL    HW321971   0.776   1.922   5.625  0.1867 -0.0857 -0.8692
 5551SOL    MW421972   0.760   1.851   5.576  0.1835 -0.4151 -0.3923
 5552SOL     OW21973   3.796   2.893   5.690  0.2844  0.0203  0.3918
 5552SOL    HW221974   3.782   2.863   5.600  0.1825  0.6936  0.1778
 5552SOL    HW321975   3.719   2.863   5.738  0.8760 -1.3837  0.5456
 5552SOL    MW421976   3.784   2.885   5.685  0.3490 -0.0761  0.3839
 5553SOL     OW21977   0.794   3.580   1.157  0.4290 -0.1063 -0.1133
 5553SOL    HW221978   0.885   3.580   1.185  0.4698 -0.3830 -0.2453
 5553SOL    HW321979   0.796   3.550   1.066  0.2925  0.7560 -0.4044
 5553SOL    MW421980   0.806   3.576   1.149  0.4164 -0.0290 -0.1691
 5554SOL     OW21981   2.624   3.893   6.296 -0.0338 -0.7144 -0.6931
 5554SOL    HW221982   2.590   3.983   6.300 -0.7260 -0.9580 -0.8789
 5554SOL    HW321983   2.564   3.842   6.350  1.1247 -0.8519  0.5105
 5554SOL    MW421984   2.611   3.898   6.303  0.0277 -0.7647 -0.5588
 5555SOL     OW21985   4.446   1.591   1.721 -0.2024 -0.1550  0.4390
 5555SOL    HW221986   4.389   1.666   1.737 -0.2678 -0.4107  1.4656
 5555SOL    HW321987   4.408   1.520   1.774 -0.6673 -1.1884 -1.1811
 5555SOL    MW421988   4.433   1.591   1.730 -0.2723 -0.3251  0.3607
 5556SOL     OW21989   0.758   5.057   0.159 -0.2594 -0.2672 -0.0658
 5556SOL    HW221990   0.694   5.012   0.104  0.6949 -2.2174  0.3338
 5556SOL    HW321991   0.710   5.081   0.238 -0.8155 -0.4883 -0.3363
 5556SOL    MW421992   0.744   5.054   0.162 -0.2069 -0.5537 -0.0488
 5557SOL     OW21993   4.345   3.201   6.016 -0.1536 -0.1141 -0.5187
 5557SOL    HW221994   4.364   3.161   5.931  0.8967 -0.0328 -0.3313
 5557SOL    HW321995   4.326   3.126   6.073 -0.1020 -0.2149 -0.6318
 5557SOL    MW421996   4.345   3.186   6.012 -0.0082 -0.1167 -0.5089
 5558SOL     OW21997   4.923   6.179   4.889 -0.5115  0.0122 -0.1955
 5558SOL    HW221998   4.944   6.102   4.943 -2.3573 -0.7149 -0.4339
 5558SOL    HW321999   5.001   6.191   4.835  0.4822 -0.6484  1.0066
 5558SOL    MW422000   4.936   6.170   4.889 -0.6239 -0.1709 -0.0684
 5559SOL     OW22001   0.179   4.841   5.345  0.3895  0.0514  0.1267
 5559SOL    HW222002   0.193   4.912   5.408 -0.6134  0.9100 -0.5957
 5559SOL    HW322003   0.234   4.770   5.377 -0.0999  0.4571  1.9944
 5559SOL    MW422004   0.188   4.841   5.358  0.1926  0.2182  0.2778
 5560SOL     OW22005   0.264   1.121   4.771  0.1613 -0.1169  0.3562
 5560SOL    HW222006   0.218   1.133   4.854 -1.8410  0.5258 -0.7831
 5560SOL    HW322007   0.295   1.208   4.748  0.0224 -0.1495  0.0475
 5560SOL    MW422008   0.262   1.134   4.779 -0.1212 -0.0364  0.1652
 5561SOL     OW22009   3.161   2.291   2.056 -0.1353 -0.0042  0.4286
 5561SOL    HW222010   3.234   2.233   2.078 -1.1309 -1.0582  1.0262
 5561SOL    HW322011   3.167   2.300   1.960 -0.3299 -1.6264  0.2333
 5561SOL    MW422012   3.172   2.284   2.046 -0.2923 -0.3573  0.4816
 5562SOL     OW22013   0.051   5.836   0.728  0.2693 -0.0683  0.0729
 5562SOL    HW222014   0.099   5.770   0.778 -1.0712  0.2142  1.8561
 5562SOL    HW322015  -0.029   5.792   0.700 -0.5553  0.6838  1.1284
 5562SOL    MW422016   0.047   5.822   0.731 -0.0164  0.0682  0.4475
 5563SOL     OW22017   1.398   2.171   4.818 -0.8695  0.1849  0.0981
 5563SOL    HW222018   1.341   2.160   4.742 -2.6470  0.7764  1.2817
 5563SOL    HW322019   1.355   2.121   4.887  0.1117  0.5753  1.0046
 5563SOL    MW422020   1.385   2.163   4.817 -0.9745  0.3144  0.3739
 5564SOL     OW22021   4.440   5.379   6.041 -0.1048 -0.2996  0.0440
 5564SOL    HW222022   4.370   5.365   5.977 -2.4626  0.1074  2.3223
 5564SOL    HW322023   4.497   5.444   6.001 -1.5596  0.0552 -1.5773
 5564SOL    MW422024   4.438   5.386   6.028 -0.6078 -0.1991  0.1307
 5565SOL     OW22025   5.574   4.942   5.718  0.2757 -0.4335  0.3777
 5565SOL    HW222026   5.479   4.955   5.726 -0.1086 -2.2624 -0.5728
 5565SOL    HW322027   5.600   4.998   5.645  0.0686  0.5980  1.0813
 5565SOL    MW422028   5.565   4.951   5.709  0.1976 -0.5387  0.3451
 5566SOL     OW22029   2.378   5.062   5.399  0.1947  0.7177  0.4281
 5566SOL    HW222030   2.458   5.042   5.447  0.1623 -0.4727  0.0151
 5566SOL    HW322031   2.398   5.144   5.353  1.4359  0.0930 -0.2121
 5566SOL    MW422032   2.391   5.070   5.399  0.3542  0.4783  0.2891
 5567SOL     OW22033   3.524   4.790   2.286 -0.0149 -0.5305  0.3792
 5567SOL    HW222034   3.451   4.801   2.226  0.5258  0.0648 -0.1783
 5567SOL    HW322035   3.540   4.696   2.287  0.1079 -0.5311 -0.5814
 5567SOL    MW422036   3.517   4.779   2.278  0.0726 -0.4520  0.1789
 5568SOL     OW22037   4.831   0.494   4.579 -0.3108 -0.2351  0.1191
 5568SOL    HW222038   4.871   0.479   4.493  1.1599  2.0892  0.3176
 5568SOL    HW322039   4.885   0.444   4.640  2.1337  2.4102  0.3080
 5568SOL    MW422040   4.843   0.486   4.576  0.2058  0.4206  0.1702
 5569SOL     OW22041   5.631   0.835   4.185 -0.6599 -0.2192  0.4514
 5569SOL    HW222042   5.637   0.770   4.115  1.6188 -0.4003  0.7324
 5569SOL    HW322043   5.569   0.797   4.248  0.1569 -1.8586  0.3240
 5569SOL    MW422044   5.623   0.821   4.184 -0.2515 -0.4594  0.4716
 5570SOL     OW22045   3.648   4.250   3.455 -0.1623  0.2735  0.2686
 5570SOL    HW222046   3.566   4.206   3.477 -0.4448 -0.1394 -1.4426
 5570SOL    HW322047   3.716   4.198   3.498 -0.7041 -0.1168  0.6643
 5570SOL    MW422048   3.647   4.237   3.463 -0.2711  0.1676  0.0950
 5571SOL     OW22049   0.839   2.582   6.041  0.1006 -0.0628  0.2970
 5571SOL    HW222050   0.877   2.585   6.129  1.3884 -1.5777 -0.1622
 5571SOL    HW322051   0.825   2.674   6.018  2.6386  0.5542  0.9015
 5571SOL    MW422052   0.842   2.595   6.050  0.6054 -0.1813  0.3161
 5572SOL     OW22053   3.950   2.599   1.968  0.1686 -0.3100 -0.3665
 5572SOL    HW222054   3.980   2.604   2.059 -1.7162 -1.2287  0.3580
 5572SOL    HW322055   4.031   2.600   1.917  1.2442  4.3515  0.9748
 5572SOL    MW422056   3.965   2.600   1.974  0.0618  0.1838 -0.0939
 5573SOL     OW22057   1.558   0.830   4.340 -0.2490 -0.2797  0.4358
 5573SOL    HW222058   1.510   0.774   4.280 -0.0191 -0.3391  0.3053
 5573SOL    HW322059   1.492   0.889   4.376 -0.6192 -1.0794  1.1001
 5573SOL    MW422060   1.543   0.831   4.337 -0.2675 -0.3931  0.5062
 5574SOL     OW22061   2.669   4.083   4.704  0.6406 -0.2795 -0.3964
 5574SOL    HW222062   2.610   4.009   4.687 -1.1468  1.1871 -0.9981
 5574SOL    HW322063   2.732   4.049   4.767 -1.5559 -1.6667  1.2287
 5574SOL    MW422064   2.669   4.068   4.710  0.1150 -0.2690 -0.2614
 5575SOL     OW22065   0.975   1.722   3.118  0.3139  0.3333  0.3170
 5575SOL    HW222066   1.046   1.659   3.115  0.0688  0.0816 -0.5188
 5575SOL    HW322067   1.018   1.807   3.112  0.5112  0.1557 -1.0200
 5575SOL    MW422068   0.990   1.725   3.117  0.3076  0.2767  0.0303
 5576SOL     OW22069   2.347   1.954   3.347 -0.2633 -0.2870  0.2347
 5576SOL    HW222070   2.422   1.967   3.405  0.5755 -1.4939 -0.5242
 5576SOL    HW322071   2.292   1.891   3.393 -0.3912 -0.0408  0.4194
 5576SOL    MW422072   2.349   1.947   3.361 -0.1695 -0.4137  0.1589
 5577SOL     OW22073   6.443   4.152   1.627  0.2512  0.5921  0.1033
 5577SOL    HW222074   6.526   4.124   1.589  0.0156  1.3634 -1.0357
 5577SOL    HW322075   6.386   4.166   1.552 -0.4656  1.4661  0.7923
 5577SOL    MW422076   6.446   4.150   1.612  0.1255  0.8092  0.0439
 5578SOL     OW22077   3.566   6.299   2.905 -0.1229 -0.2189 -0.1937
 5578SOL    HW222078   3.658   6.318   2.888 -0.1421 -0.8199 -1.0441
 5578SOL    HW322079   3.536   6.253   2.826 -1.2115  0.1682 -0.0233
 5578SOL    MW422080   3.574   6.295   2.892 -0.2691 -0.2471 -0.2834
 5579SOL     OW22081   4.827   3.882   5.038 -0.1182  0.2779  0.4816
 5579SOL    HW222082   4.883   3.885   5.116 -1.6062 -0.0762  1.6039
 5579SOL    HW322083   4.822   3.973   5.009  1.3191  0.2701  0.1202
 5579SOL    MW422084   4.834   3.895   5.045 -0.1249  0.2301  0.5820
 5580SOL     OW22085   1.882   5.002   2.928  0.3876 -0.1546 -0.6456
 5580SOL    HW222086   1.814   4.957   2.979 -0.5030  1.6399 -0.1784
 5580SOL    HW322087   1.878   4.960   2.842  1.2174 -2.5417  0.3951
 5580SOL    MW422088   1.872   4.991   2.923  0.3796 -0.2328 -0.4466
 5581SOL     OW22089   3.213   0.665   1.272 -0.0990 -0.0239 -0.0301
 5581SOL    HW222090   3.286   0.604   1.281  0.0893  0.5142  2.9661
 5581SOL    HW322091   3.155   0.646   1.345 -0.9793  2.1567 -0.0641
 5581SOL    MW422092   3.215   0.655   1.283 -0.1903  0.3348  0.3607
 5582SOL     OW22093   3.453   5.737   1.127  0.0668  0.1626 -0.0793
 5582SOL    HW222094   3.435   5.675   1.056 -0.7810  0.3000  0.0006
 5582SOL    HW322095   3.548   5.747   1.127  0.3564 -2.0039  0.6203
 5582SOL    MW422096   3.463   5.730   1.118 -0.0068 -0.1051  0.0236
 5583SOL     OW22097   0.041   4.104   4.173 -0.2318 -0.9016 -0.6119
 5583SOL    HW222098   0.088   4.031   4.134  0.7385 -0.9760  0.6140
 5583SOL    HW322099   0.058   4.178   4.115  1.2368 -0.9876 -0.3274
 5583SOL    MW422100   0.049   4.104   4.161  0.0900 -0.9228 -0.4127
 5584SOL     OW22101   5.211   0.637   1.293  0.1972  0.3128  0.1906
 5584SOL    HW222102   5.271   0.711   1.287  0.9996 -0.3668 -0.3243
 5584SOL    HW322103   5.228   0.599   1.379 -0.3358  0.8191  0.5251
 5584SOL    MW422104   5.221   0.642   1.303  0.2327  0.2899  0.1668
 5585SOL     OW22105   2.428   0.447   6.177 -0.4676 -0.0918 -0.0273
 5585SOL    HW222106   2.366   0.511   6.213  0.8717  0.9994  0.4409
 5585SOL    HW322107   2.513   0.490   6.185  0.1376 -0.6790 -2.6013
 5585SOL    MW422108   2.431   0.461   6.183 -0.2110 -0.0253 -0.3051
 5586SOL     OW22109   2.159   0.569   2.426 -0.5849 -0.5850 -0.3773
 5586SOL    HW222110   2.124   0.522   2.350 -0.1821 -1.3830 -0.0811
 5586SOL    HW322111   2.116   0.654   2.423 -0.6862 -0.6623 -1.4133
 5586SOL    MW422112   2.149   0.574   2.416 -0.5451 -0.7005 -0.4749
 5587SOL     OW22113   1.877   5.490   5.580  0.3175  0.1702 -0.6530
 5587SOL    HW222114   1.927   5.490   5.661 -2.2730  0.2276  1.0551
 5587SOL    HW322115   1.850   5.581   5.568 -1.1655 -0.1945 -0.2987
 5587SOL    MW422116   1.880   5.502   5.589 -0.2199  0.1296 -0.3809
 5588SOL     OW22117   2.879   4.778   3.258 -0.0678  0.2146  0.1550
 5588SOL    HW222118   2.834   4.779   3.343 -2.5106  1.5297 -1.0685
 5588SOL    HW322119   2.850   4.698   3.216 -0.9892  0.8514 -0.4615
 5588SOL    MW422120   2.869   4.768   3.264 -0.5116  0.4722 -0.0878
 5589SOL     OW22121   2.257   2.553   0.989 -0.3633 -0.2593 -0.3014
 5589SOL    HW222122   2.240   2.646   0.977  1.0630  0.0978  0.2150
 5589SOL    HW322123   2.285   2.523   0.902 -0.0371 -0.0118 -0.2861
 5589SOL    MW422124   2.258   2.561   0.976 -0.1321 -0.1795 -0.2312
 5590SOL     OW22125   1.121   4.763   5.337 -0.2300 -0.4777  0.4244
 5590SOL    HW222126   1.176   4.686   5.348 -0.2154 -0.5030  0.1657
 5590SOL    HW322127   1.117   4.802   5.425  0.8924  0.0006  0.2767
 5590SOL    MW422128   1.128   4.758   5.350 -0.0800 -0.4179  0.3708
 5591SOL     OW22129   3.545   3.247   2.110 -0.0013  0.0142  0.0554
 5591SOL    HW222130   3.465   3.277   2.152 -0.5005  0.3821 -1.1038
 5591SOL    HW322131   3.519   3.227   2.020  0.9659 -1.0190 -0.0153
 5591SOL    MW422132   3.531   3.248   2.104  0.0604 -0.0736 -0.1069
 5592SOL     OW22133   5.110   5.598   3.170 -0.1347 -0.1646  0.4968
 5592SOL    HW222134   5.168   5.614   3.096  0.8428 -1.7410  0.8662
 5592SOL    HW322135   5.027   5.571   3.130 -0.6537  2.0684 -0.0366
 5592SOL    MW422136   5.106   5.596   3.155 -0.0742 -0.0780  0.4751
 5593SOL     OW22137   1.082   5.655   1.021  0.5133 -0.3360 -0.6594
 5593SOL    HW222138   1.099   5.736   0.974  2.0892  0.2618  0.8447
 5593SOL    HW322139   1.168   5.614   1.030  0.2425 -0.5226  1.4900
 5593SOL    MW422140   1.096   5.660   1.016  0.6855 -0.2817 -0.1774
 5594SOL     OW22141   3.786   5.593   5.426 -0.0074  0.6308 -0.0753
 5594SOL    HW222142   3.756   5.680   5.453 -2.7314  0.1564 -1.1514
 5594SOL    HW322143   3.728   5.570   5.353  0.9957 -1.8685 -0.1891
 5594SOL    MW422144   3.774   5.601   5.420 -0.2344  0.2385 -0.2323
 5595SOL     OW22145   0.769   5.017   2.972  0.9127 -0.3195  0.1606
 5595SOL    HW222146   0.724   5.064   3.042  0.7131 -0.5499  0.1893
 5595SOL    HW322147   0.845   5.071   2.951  0.3316  0.3519 -0.2570
 5595SOL    MW422148   0.773   5.030   2.979  0.8097 -0.2613  0.1093
 5596SOL     OW22149   2.773   2.876   2.490  0.6572  0.2971  0.3309
 5596SOL    HW222150   2.759   2.933   2.566 -0.3510 -0.4016  0.7007
 5596SOL    HW322151   2.731   2.793   2.515  1.2620 -0.2956 -0.5698
 5596SOL    MW422152   2.765   2.872   2.503  0.6040  0.1267  0.2609
 5597SOL     OW22153   2.718   1.470   2.569  0.4220  0.5948 -0.1098
 5597SOL    HW222154   2.783   1.495   2.503  0.6165  0.8332  0.1658
 5597SOL    HW322155   2.685   1.553   2.603 -0.8134  0.4932 -0.9870
 5597SOL    MW422156   2.722   1.484   2.565  0.2847  0.6129 -0.1892
 5598SOL     OW22157   3.558   1.369   1.322 -0.5443  0.0929  0.4066
 5598SOL    HW222158   3.579   1.410   1.406 -1.3435  3.0264 -0.7251
 5598SOL    HW322159   3.515   1.437   1.271 -1.6765 -2.0987 -1.8054
 5598SOL    MW422160   3.555   1.383   1.326 -0.7992  0.1908 -0.0346
 5599SOL     OW22161   1.716   5.636   2.506  0.4392 -0.2048 -0.4156
 5599SOL    HW222162   1.627   5.659   2.532  0.8274  0.3652  0.4596
 5599SOL    HW322163   1.705   5.569   2.438 -0.6369 -0.5328  0.0636
 5599SOL    MW422164   1.703   5.630   2.500  0.3484 -0.1728 -0.2369
 5600SOL     OW22165   5.786   4.706   1.184 -0.3939 -0.3459  0.0697
 5600SOL    HW222166   5.823   4.661   1.260 -1.4193 -0.6801  0.4020
 5600SOL    HW322167   5.811   4.652   1.109  0.0670 -0.3743  0.2432
 5600SOL    MW422168   5.794   4.693   1.184 -0.4684 -0.3938  0.1365
 5601SOL     OW22169   1.213   0.672   3.506  0.2140  0.5592  0.0121
 5601SOL    HW222170   1.269   0.651   3.432  0.2003 -0.0478  0.1683
 5601SOL    HW322171   1.124   0.669   3.471  0.1913  0.0072  0.1105
 5601SOL    MW422172   1.209   0.669   3.492  0.2092  0.4063  0.0457
 5602SOL     OW22173   3.613   3.571   0.708 -0.1018 -0.5383 -0.2243
 5602SOL    HW222174   3.604   3.568   0.613 -1.2273 -1.9284 -0.1152
 5602SOL    HW322175   3.700   3.608   0.723 -0.0573  0.0660 -1.7735
 5602SOL    MW422176   3.623   3.576   0.697 -0.2444 -0.6420 -0.4143
 5603SOL     OW22177   4.288   4.166   5.039  0.0221  0.2499  0.3154
 5603SOL    HW222178   4.222   4.097   5.034 -0.5214  0.7557  0.4589
 5603SOL    HW322179   4.242   4.245   5.011  0.3532  0.7605  1.2024
 5603SOL    MW422180   4.273   4.167   5.034 -0.0060  0.3840  0.4513
 5604SOL     OW22181   2.924   0.461   1.016 -0.3945  0.9701  0.4511
 5604SOL    HW222182   2.888   0.508   0.941 -0.7436 -0.2288 -0.1548
 5604SOL    HW322183   2.880   0.500   1.092 -1.3029  1.0414 -0.1029
 5604SOL    MW422184   2.914   0.472   1.016 -0.5604  0.8213  0.2981
 5605SOL     OW22185   4.771   6.167   4.115  0.3389 -0.3776  0.4763
 5605SOL    HW222186   4.704   6.103   4.138  0.6421 -1.0290 -0.4058
 5605SOL    HW322187   4.815   6.187   4.198  0.2689 -1.3339  0.7539
 5605SOL    MW422188   4.768   6.161   4.129  0.3696 -0.5897  0.3966
 5606SOL     OW22189   6.012   3.273   3.694 -0.1727 -0.3237 -0.3049
 5606SOL    HW222190   6.054   3.359   3.694  0.9279 -0.7848 -2.5172
 5606SOL    HW322191   5.918   3.293   3.689 -0.0660  0.7149  1.1221
 5606SOL    MW422192   6.005   3.287   3.693 -0.0134 -0.2475 -0.4085
 5607SOL     OW22193   2.093   2.807   4.500  0.4726 -0.6758  0.1883
 5607SOL    HW222194   2.053   2.813   4.587 -0.7415 -0.1202 -0.3850
 5607SOL    HW322195   2.077   2.716   4.474 -0.3493 -0.4845  0.0040
 5607SOL    MW422196   2.085   2.796   4.508  0.2040 -0.5772  0.0883
 5608SOL     OW22197   5.174   5.224   4.265  0.0194 -0.3986  0.2625
 5608SOL    HW222198   5.172   5.319   4.265 -2.2215 -0.3871  0.6667
 5608SOL    HW322199   5.175   5.199   4.173  1.4684 -0.0042  0.1621
 5608SOL    MW422200   5.173   5.233   4.253 -0.0851 -0.3451  0.3026
 5609SOL     OW22201   4.041   1.409   2.950 -0.3768  0.5916  0.1565
 5609SOL    HW222202   3.960   1.361   2.965 -0.4717  0.8522  0.4814
 5609SOL    HW322203   4.106   1.363   3.003  0.2518 -1.1027 -1.9184
 5609SOL    MW422204   4.039   1.396   2.959 -0.3064  0.4025 -0.0744
 5610SOL     OW22205   4.901   5.253   3.953  0.4390 -0.3059 -0.0020
 5610SOL    HW222206   4.947   5.309   3.890  1.7425 -0.5137  0.7443
 5610SOL    HW322207   4.885   5.310   4.028 -0.1541 -0.3530 -0.0909
 5610SOL    MW422208   4.905   5.268   3.954  0.5327 -0.3395  0.0848
 5611SOL     OW22209   0.904   0.161   1.683  0.0091 -0.4712  0.1975
 5611SOL    HW222210   0.825   0.150   1.735  0.2013 -0.4091  0.5038
 5611SOL    HW322211   0.965   0.207   1.741 -0.1586  0.6002 -0.4441
 5611SOL    MW422212   0.902   0.166   1.697  0.0123 -0.3217  0.1533
 5612SOL     OW22213   4.477   2.363   1.763 -0.1119  0.0389  1.1837
 5612SOL    HW222214   4.414   2.394   1.698 -0.1550 -2.2932 -0.0303
 5612SOL    HW322215   4.478   2.430   1.831 -1.8837  1.4212 -0.0631
 5612SOL    MW422216   4.469   2.376   1.763 -0.3513 -0.0864  0.8590
 5613SOL     OW22217   2.244   4.484   0.927 -0.7297  0.0964 -0.0518
 5613SOL    HW222218   2.197   4.540   0.866 -1.3184 -0.1776  0.1361
 5613SOL    HW322219   2.246   4.534   1.009 -1.9241 -0.4445  0.3340
 5613SOL    MW422220   2.238   4.498   0.930 -0.9649 -0.0111  0.0239
 5614SOL     OW22221   0.337   0.371   5.075  0.2706 -0.0051 -0.1335
 5614SOL    HW222222   0.291   0.373   4.991  0.0765 -0.7335 -0.0470
 5614SOL    HW322223   0.429   0.384   5.052  0.2656 -0.5842 -0.4997
 5614SOL    MW422224   0.343   0.373   5.061  0.2443 -0.1776 -0.1704
 5615SOL     OW22225   3.434   2.015   5.649  0.5396 -0.0149  0.0627
 5615SOL    HW222226   3.457   2.105   5.669 -1.5368  0.6718 -0.3879
 5615SOL    HW322227   3.503   1.984   5.590  0.7632  1.5965 -0.5531
 5615SOL    MW422228   3.446   2.023   5.644  0.2951  0.2883 -0.0780
 5616SOL     OW22229   4.025   5.104   1.108 -0.3356  0.0963  0.3042
 5616SOL    HW222230   4.014   5.009   1.113  0.5589 -0.0230  0.1547
 5616SOL    HW322231   4.096   5.124   1.169 -0.9609  0.7616  0.8370
 5616SOL    MW422232   4.033   5.094   1.117 -0.3001  0.1684  0.3548
 5617SOL     OW22233   4.397   2.421   2.548  0.0873  0.2249 -0.0877
 5617SOL    HW222234   4.447   2.460   2.476  1.9722  1.5173  1.7917
 5617SOL    HW322235   4.390   2.491   2.613  0.5348 -1.5380  1.9667
 5617SOL    MW422236   4.403   2.435   2.547  0.3951  0.1628  0.4313
 5618SOL     OW22237   1.750   3.873   1.839 -0.6631  0.5307 -0.5077
 5618SOL    HW222238   1.835   3.843   1.873 -1.3784 -2.4943 -1.1185
 5618SOL    HW322239   1.766   3.964   1.815  2.4640  0.0632 -0.7234
 5618SOL    MW422240   1.763   3.881   1.840 -0.3449  0.0699 -0.6168
 5619SOL     OW22241   5.107   2.674   5.490 -0.1661  0.1068  0.3900
 5619SOL    HW222242   5.175   2.741   5.490  1.0361 -1.0852  0.7749
 5619SOL    HW322243   5.068   2.680   5.577 -1.4279  1.6126 -0.2366
 5619SOL    MW422244   5.111   2.684   5.502 -0.1740  0.1482  0.3581
 5620SOL     OW22245   1.625   1.819   6.336 -0.2948  0.5351 -0.2767
 5620SOL    HW222246   1.584   1.777   6.412 -0.2220  0.8095 -0.0848
 5620SOL    HW322247   1.554   1.869   6.295 -0.6113 -0.4841 -1.0310
 5620SOL    MW422248   1.610   1.820   6.341 -0.3269  0.4368 -0.3509
 5621SOL     OW22249   3.565   1.565   4.931  0.3115  0.5306 -0.8543
 5621SOL    HW222250   3.528   1.514   4.859  0.4507  2.8801 -2.6989
 5621SOL    HW322251   3.496   1.569   4.996 -0.2525 -0.6676 -1.3501
 5621SOL    MW422252   3.551   1.559   4.930  0.2554  0.6825 -1.1631
 5622SOL     OW22253   0.836   4.070   2.891 -0.6031 -0.1111 -0.1240
 5622SOL    HW222254   0.857   4.009   2.961 -0.6562 -0.0539 -0.0572
 5622SOL    HW322255   0.752   4.039   2.857 -0.5762 -0.1401 -0.1627
 5622SOL    MW422256   0.827   4.058   2.896 -0.6065 -0.1074 -0.1203
 5623SOL     OW22257   0.730   4.160   5.614 -0.0783 -0.3307 -0.3894
 5623SOL    HW222258   0.670   4.233   5.597  0.9935  0.7812  0.4759
 5623SOL    HW322259   0.727   4.148   5.709 -0.4819 -1.6647 -0.5374
 5623SOL    MW422260   0.722   4.168   5.624  0.0098 -0.3600 -0.2948
 5624SOL     OW22261   1.520   6.332   2.351 -0.8184  0.2241 -0.5923
 5624SOL    HW222262   1.454   6.281   2.304 -1.0517  1.9198 -2.2003
 5624SOL    HW322263   1.514   6.419   2.313  1.2074  0.8525  0.4211
 5624SOL    MW422264   1.510   6.337   2.340 -0.5819  0.5308 -0.6708
 5625SOL     OW22265   0.210   4.860   0.368 -0.3354 -0.8448  0.5278
 5625SOL    HW222266   0.286   4.918   0.366  0.0217 -1.2946  0.8283
 5625SOL    HW322267   0.137   4.915   0.340 -0.0343 -0.1996  0.9921
 5625SOL    MW422268   0.210   4.875   0.364 -0.2485 -0.8190  0.6287
 5626SOL     OW22269   2.812   5.053   4.487  0.1194  0.0400 -1.1083
 5626SOL    HW222270   2.887   5.014   4.532 -1.0284 -0.4485  0.4547
 5626SOL    HW322271   2.755   4.979   4.467 -0.4129  0.5195 -1.3857
 5626SOL    MW422272   2.814   5.038   4.490 -0.1023  0.0388 -0.9387
 5627SOL     OW22273   5.131   1.508   3.674  0.3615 -0.0535  0.0843
 5627SOL    HW222274   5.118   1.414   3.666 -0.5758  0.1197 -0.5598
 5627SOL    HW322275   5.209   1.517   3.729 -0.4051 -1.1938  1.4148
 5627SOL    MW422276   5.139   1.497   3.680  0.1367 -0.1811  0.1749
 5628SOL     OW22277   4.258   1.471   6.332 -0.7100  0.4377  0.3253
 5628SOL    HW222278   4.319   1.487   6.404 -0.5108 -2.1093  0.8488
 5628SOL    HW322279   4.248   1.375   6.331 -2.4776  0.5739 -1.5916
 5628SOL    MW422280   4.264   1.460   6.342 -0.9169  0.1197  0.1414
 5629SOL     OW22281   3.982   5.775   6.214 -0.0289  0.1251 -0.3256
 5629SOL    HW222282   3.941   5.748   6.132 -2.6820  2.9923 -0.1253
 5629SOL    HW322283   4.037   5.850   6.190 -0.8747  1.0297  0.4139
 5629SOL    MW422284   3.984   5.782   6.200 -0.4906  0.6227 -0.2016
 5630SOL     OW22285   3.031   3.330   3.439  0.3265 -0.2766 -0.2108
 5630SOL    HW222286   2.958   3.300   3.493 -0.4514  3.3933  1.0706
 5630SOL    HW322287   3.007   3.419   3.412  2.7735 -0.2444 -2.8009
 5630SOL    MW422288   3.018   3.338   3.443  0.5467  0.2118 -0.3835
 5631SOL     OW22289   5.979   4.643   5.254 -0.0633 -1.0518  0.0057
 5631SOL    HW222290   6.064   4.643   5.208 -0.0664  3.2934 -0.4481
 5631SOL    HW322291   6.002   4.633   5.346  1.1838  0.9947 -0.0087
 5631SOL    MW422292   5.993   4.642   5.260  0.1009 -0.2085 -0.0561
 5632SOL     OW22293   1.065   2.794   3.608  0.1325 -0.1275  0.2292
 5632SOL    HW222294   1.023   2.794   3.694 -1.1254 -2.4443 -0.2813
 5632SOL    HW322295   1.047   2.881   3.572 -1.0861  0.1842  1.5243
 5632SOL    MW422296   1.057   2.805   3.614 -0.1943 -0.3921  0.3327
 5633SOL     OW22297   5.160   5.797   2.434 -0.2487 -0.0781  0.1483
 5633SOL    HW222298   5.140   5.880   2.476 -0.9289  0.4600 -1.1668
 5633SOL    HW322299   5.254   5.802   2.413 -0.0236 -0.1430  1.0934
 5633SOL    MW422300   5.170   5.808   2.437 -0.3087 -0.0157  0.0995
 5634SOL     OW22301   1.306   2.161   4.295 -0.3903  0.0305  0.1065
 5634SOL    HW222302   1.227   2.109   4.311  0.1924 -0.7384  0.5715
 5634SOL    HW322303   1.371   2.097   4.267  0.1718  0.6050  0.0829
 5634SOL    MW422304   1.304   2.145   4.293 -0.2392  0.0048  0.1647
 5635SOL     OW22305   5.391   3.492   3.923  0.3174  0.4580  0.4866
 5635SOL    HW222306   5.362   3.569   3.971  1.3359  0.3115  1.3900
 5635SOL    HW322307   5.348   3.419   3.967  0.7353  0.3794  0.7771
 5635SOL    MW422308   5.382   3.492   3.935  0.5069  0.4283  0.6441
 5636SOL     OW22309   4.438   4.067   6.158  0.3150  0.1038  0.4973
 5636SOL    HW222310   4.467   4.054   6.248 -0.5517 -0.5453  0.6876
 5636SOL    HW322311   4.345   4.088   6.165  0.8233  2.9424 -0.0514
 5636SOL    MW422312   4.430   4.068   6.171  0.2677  0.3927  0.4500
 5637SOL     OW22313   3.107   5.105   5.385  0.7135  0.1922  0.0006
 5637SOL    HW222314   3.012   5.119   5.381  0.5821 -0.7345 -3.0169
 5637SOL    HW322315   3.122   5.069   5.472 -1.5904  0.9994  0.8132
 5637SOL    MW422316   3.097   5.102   5.396  0.3922  0.1764 -0.2903
 5638SOL     OW22317   0.736   1.199   3.522  0.0006  0.0710 -0.4692
 5638SOL    HW222318   0.724   1.254   3.600  0.8606 -0.5308  0.1042
 5638SOL    HW322319   0.653   1.152   3.513  0.5186 -1.2934  1.2615
 5638SOL    MW422320   0.723   1.200   3.531  0.1824 -0.1884 -0.1652
 5639SOL     OW22321   2.994   3.255   4.002 -0.3827  0.0631 -0.3256
 5639SOL    HW222322   3.048   3.211   4.068  0.0953  0.4421 -0.4598
 5639SOL    HW322323   3.020   3.215   3.919  0.4027  0.9174 -0.5072
 5639SOL    MW422324   3.004   3.244   4.000 -0.2160  0.2259 -0.3673
 5640SOL     OW22325   2.945   5.461   2.203  0.2381  0.8078  0.3488
 5640SOL    HW222326   2.866   5.514   2.194 -0.5788 -0.4634 -0.2176
 5640SOL    HW322327   3.016   5.525   2.212 -0.7280  1.9875 -0.1656
 5640SOL    MW422328   2.944   5.476   2.203  0.0029  0.7957  0.2062
 5641SOL     OW22329   4.229   2.458   2.089 -0.1973  0.3632 -0.3967
 5641SOL    HW222330   4.262   2.522   2.026 -3.5341  2.1472 -0.5403
 5641SOL    HW322331   4.161   2.505   2.138 -0.0959 -1.9675  2.2336
 5641SOL    MW422332   4.224   2.473   2.087 -0.6242  0.2911 -0.0686
 5642SOL     OW22333   3.640   0.549   1.449  0.0719  0.2923  0.2288
 5642SOL    HW222334   3.606   0.571   1.362  1.0015 -0.9400 -0.4778
 5642SOL    HW322335   3.570   0.499   1.490 -0.0803  0.2287 -0.1074
 5642SOL    MW422336   3.626   0.545   1.443  0.1744  0.1213  0.0912
 5643SOL     OW22337   4.607   6.286   0.046  0.5119 -0.4864 -0.0711
 5643SOL    HW222338   4.676   6.220   0.033 -0.4829 -1.8372  1.1369
 5643SOL    HW322339   4.603   6.333  -0.037  1.1385 -2.0872 -1.0630
 5643SOL    MW422340   4.616   6.283   0.033  0.4633 -0.8758 -0.0426
 5644SOL     OW22341   3.749   0.575   5.158  0.5931  0.3746 -0.3849
 5644SOL    HW222342   3.789   0.661   5.145  0.6867 -0.0161 -3.2665
 5644SOL    HW322343   3.727   0.545   5.070 -4.0093 -0.4474  0.8064
 5644SOL    MW422344   3.751   0.582   5.145 -0.0017  0.2146 -0.6079
 5645SOL     OW22345   4.722   2.759   5.432  0.1879  0.4000 -0.2007
 5645SOL    HW222346   4.728   2.849   5.401 -0.7026  0.0109 -1.6126
 5645SOL    HW322347   4.727   2.706   5.352 -1.6482 -0.6772  0.3365
 5645SOL    MW422348   4.723   2.764   5.417 -0.1718  0.2066 -0.3161
 5646SOL     OW22349   4.865   0.982   5.361  0.0553  0.4948 -0.5846
 5646SOL    HW222350   4.911   0.981   5.445 -0.3688  0.9780 -0.3432
 5646SOL    HW322351   4.818   1.065   5.360  0.2706  0.6170 -1.4237
 5646SOL    MW422352   4.865   0.993   5.372  0.0278  0.5747 -0.6635
 5647SOL     OW22353   6.254   4.385   1.345  0.2948 -0.3805  0.2966
 5647SOL    HW222354   6.298   4.448   1.403  1.0891 -2.1403  1.7407
 5647SOL    HW322355   6.225   4.315   1.404  1.2352 -2.3403 -1.4105
 5647SOL    MW422356   6.256   4.384   1.361  0.5237 -0.8713  0.2619
 5648SOL     OW22357   2.310   4.493   2.118  0.1086 -0.4269  0.0025
 5648SOL    HW222358   2.265   4.435   2.057 -2.1121 -0.3505  1.4357
 5648SOL    HW322359   2.301   4.580   2.079 -0.1976 -0.5270 -0.1521
 5648SOL    MW422360   2.303   4.497   2.105 -0.2248 -0.4301  0.1712
 5649SOL     OW22361   4.115   3.104   5.812  0.1322  0.0493  0.4104
 5649SOL    HW222362   4.106   3.147   5.727 -0.0360 -1.7313 -0.5127
 5649SOL    HW322363   4.110   3.010   5.793  2.8249 -0.5539  2.0231
 5649SOL    MW422364   4.113   3.097   5.798  0.4653 -0.2653  0.5014
 5650SOL     OW22365   4.236   5.034   2.436  0.2658 -0.2218  0.2145
 5650SOL    HW222366   4.278   5.119   2.445 -1.1334  0.4597  0.6280
 5650SOL    HW322367   4.159   5.040   2.493 -1.5345 -0.6469 -2.0459
 5650SOL    MW422368   4.231   5.046   2.445 -0.1564 -0.1879 -0.0292
 5651SOL     OW22369   5.337   2.280   5.502  0.6417 -0.1688  0.1409
 5651SOL    HW222370   5.328   2.356   5.445  1.5465 -1.9085 -2.4851
 5651SOL    HW322371   5.382   2.313   5.579 -0.2881  2.2204 -0.2568
 5651SOL    MW422372   5.341   2.294   5.505  0.6384 -0.0831 -0.2581
 5652SOL     OW22373   0.972   6.188   5.268 -0.2404  0.2932  0.4281
 5652SOL    HW222374   1.015   6.266   5.305  0.1474  0.2828  0.0036
 5652SOL    HW322375   0.914   6.158   5.338  0.3086  0.4151  0.9487
 5652SOL    MW422376   0.970   6.195   5.282 -0.1168  0.3079  0.4408
 5653SOL     OW22377   2.004   4.924   5.503  0.1507 -0.0052  0.3073
 5653SOL    HW222378   1.979   5.015   5.490 -0.6481 -0.0660  1.2787
 5653SOL    HW322379   1.960   4.877   5.432  0.9029  0.3938 -0.4496
 5653SOL    MW422380   1.995   4.930   5.492  0.1445  0.0394  0.3356
 5654SOL     OW22381   1.040   4.771   2.565  0.2014 -0.3746 -0.2683
 5654SOL    HW222382   0.965   4.741   2.514  0.2929  0.2192 -0.7571
 5654SOL    HW322383   1.025   4.736   2.653 -1.0643  0.4217 -0.1534
 5654SOL    MW422384   1.028   4.762   2.570  0.0465 -0.1912 -0.3176
 5655SOL     OW22385   1.034   5.229   6.271 -0.0394  0.3306 -0.1360
 5655SOL    HW222386   1.022   5.214   6.177 -1.6505  0.4510  0.0192
 5655SOL    HW322387   1.128   5.244   6.281  0.0646  1.1056 -1.8444
 5655SOL    MW422388   1.045   5.229   6.260 -0.2383  0.4487 -0.3409
 5656SOL     OW22389   3.561   0.651   1.197 -0.6674  0.5909 -0.4804
 5656SOL    HW222390   3.575   0.658   1.103  2.8683  0.8782 -0.0562
 5656SOL    HW322391   3.557   0.742   1.228 -1.3879  0.4953 -0.2633
 5656SOL    MW422392   3.562   0.664   1.189 -0.2960  0.6162 -0.3958
 5657SOL     OW22393   4.478   2.605   4.642  0.0639  0.1967  0.1887
 5657SOL    HW222394   4.514   2.542   4.580  0.6709  0.6469  0.0775
 5657SOL    HW322395   4.482   2.561   4.727  0.2039 -0.0233  0.0662
 5657SOL    MW422396   4.483   2.591   4.645  0.1625  0.2271  0.1579
 5658SOL     OW22397   3.925   4.330   1.726  0.0240 -0.0002 -0.4023
 5658SOL    HW222398   3.878   4.286   1.797  0.6531  0.2630  0.1838
 5658SOL    HW322399   3.885   4.417   1.721  0.3945  0.1994  0.0507
 5658SOL    MW422400   3.913   4.336   1.735  0.1559  0.0608 -0.2652
 5659SOL     OW22401   4.151   1.569   5.703  0.0503 -0.3694 -0.1118
 5659SOL    HW222402   4.088   1.637   5.730  1.8820  1.9339 -1.2782
 5659SOL    HW322403   4.201   1.551   5.783 -0.7432 -0.7307  0.3206
 5659SOL    MW422404   4.149   1.576   5.717  0.1873 -0.1131 -0.2087
 5660SOL     OW22405   5.932   3.527   2.938  0.0230  0.1413 -0.2690
 5660SOL    HW222406   6.026   3.530   2.921  0.3313 -0.2578  1.2437
 5660SOL    HW322407   5.922   3.465   3.010 -1.5191 -0.6133 -1.0858
 5660SOL    MW422408   5.943   3.519   2.945 -0.1398 -0.0109 -0.1772
 5661SOL     OW22409   1.774   6.092   5.474  0.2113  0.1110 -0.1525
 5661SOL    HW222410   1.844   6.039   5.436  0.1340  0.2903 -0.5521
 5661SOL    HW322411   1.813   6.131   5.552 -0.3941 -2.3293  1.4768
 5661SOL    MW422412   1.788   6.090   5.479  0.1212 -0.1873  0.0098
 5662SOL     OW22413   3.595   5.062   5.800  0.1611  0.3827  0.3245
 5662SOL    HW222414   3.629   4.997   5.861 -2.3898 -1.1378  0.2160
 5662SOL    HW322415   3.569   5.136   5.856 -1.6569 -0.7804  1.0843
 5662SOL    MW422416   3.596   5.063   5.816 -0.4153  0.0286  0.4105
 5663SOL     OW22417   2.054   5.345   2.473 -0.2988  0.0206  0.4017
 5663SOL    HW222418   2.136   5.297   2.487 -1.0337 -0.9001  1.7678
 5663SOL    HW322419   2.081   5.427   2.432  1.5717  0.7894  2.9501
 5663SOL    MW422420   2.068   5.349   2.469 -0.1490  0.0005  0.9182
 5664SOL     OW22421   6.077   2.642   2.719  0.3919  0.1921  0.0519
 5664SOL    HW222422   6.071   2.697   2.798 -0.9128  0.6400 -0.3434
 5664SOL    HW322423   5.999   2.587   2.721  1.0271 -0.7379 -0.2493
 5664SOL    MW422424   6.066   2.642   2.730  0.3036  0.1285 -0.0400
 5665SOL     OW22425   0.568   3.838   3.038  0.4641  0.1292 -0.2758
 5665SOL    HW222426   0.547   3.750   3.069  0.3309  0.1210 -0.3895
 5665SOL    HW322427   0.516   3.896   3.094  1.7084  0.2212  0.8200
 5665SOL    MW422428   0.558   3.834   3.049  0.6107  0.1403 -0.1462
 5666SOL     OW22429   6.216   2.650   1.806 -0.1888  0.2610  0.1668
 5666SOL    HW222430   6.261   2.663   1.723 -0.0095 -1.0031  0.0585
 5666SOL    HW322431   6.124   2.638   1.783 -0.1244 -0.1891  0.1382
 5666SOL    MW422432   6.210   2.650   1.792 -0.1567  0.0348  0.1487
 5667SOL     OW22433   2.670   0.159   4.154  0.1180 -0.0602 -0.1798
 5667SOL    HW222434   2.655   0.233   4.212 -0.2814  0.9596 -1.5499
 5667SOL    HW322435   2.583   0.123   4.137  0.0700  0.5166 -1.2425
 5667SOL    MW422436   2.657   0.164   4.159  0.0590  0.1505 -0.5008
 5668SOL     OW22437   6.127   4.550   0.227 -0.4721  0.8270 -0.3692
 5668SOL    HW222438   6.112   4.458   0.206  0.9089  0.5426 -0.1837
 5668SOL    HW322439   6.191   4.549   0.298 -1.0285  1.9223  0.1745
 5668SOL    MW422440   6.133   4.538   0.233 -0.3633  0.9340 -0.2730
 5669SOL     OW22441   3.906   5.388   0.623  0.0824  0.4484 -0.3293
 5669SOL    HW222442   3.826   5.432   0.596  0.3139  0.5624 -0.8420
 5669SOL    HW322443   3.950   5.451   0.679  0.1684  0.6784 -0.6495
 5669SOL    MW422444   3.901   5.402   0.627  0.1243  0.4938 -0.4392
 5670SOL     OW22445   3.258   5.237   0.163  0.2475  0.5598 -0.9404
 5670SOL    HW222446   3.237   5.300   0.232  1.8255 -0.1491  0.2417
 5670SOL    HW322447   3.285   5.158   0.209  1.0503 -0.0483 -2.3747
 5670SOL    MW422448   3.259   5.235   0.178  0.5616  0.3860 -0.9737
 5671SOL     OW22449   1.478   5.214   1.379  0.1298 -0.0203 -0.0317
 5671SOL    HW222450   1.519   5.216   1.465  0.0134  2.2636  0.0115
 5671SOL    HW322451   1.551   5.215   1.317  0.1969 -1.0636  0.0070
 5671SOL    MW422452   1.493   5.214   1.382  0.1233  0.1434 -0.0209
 5672SOL     OW22453   1.963   4.157   5.376 -0.3309  0.7343 -0.2875
 5672SOL    HW222454   1.963   4.106   5.457 -2.3777 -0.5265 -0.9974
 5672SOL    HW322455   1.901   4.228   5.392 -0.3795  0.7655 -0.6026
 5672SOL    MW422456   1.955   4.160   5.389 -0.6073  0.5721 -0.4227
 5673SOL     OW22457   3.024   0.255   2.680  0.2727 -0.2883 -0.5643
 5673SOL    HW222458   2.928   0.250   2.682  0.1743  1.4571  0.5869
 5673SOL    HW322459   3.053   0.179   2.731 -0.5241 -0.0809  0.2107
 5673SOL    MW422460   3.015   0.244   2.687  0.1546 -0.0307 -0.3101
 5674SOL     OW22461   5.450   3.232   5.747 -0.2061  0.4499  0.6002
 5674SOL    HW222462   5.513   3.161   5.757 -0.0412  0.2791 -1.2839
 5674SOL    HW322463   5.470   3.293   5.818  1.4771 -0.0492  0.5812
 5674SOL    MW422464   5.461   3.231   5.758  0.0377  0.3615  0.3491
 5675SOL     OW22465   6.048   6.010   3.884  0.3277 -0.6143  0.3429
 5675SOL    HW222466   6.023   5.931   3.837 -0.2075  1.5199 -3.4289
 5675SOL    HW322467   6.135   6.031   3.851 -0.0265  0.9435  0.3044
 5675SOL    MW422468   6.056   6.003   3.874  0.2103 -0.1272 -0.1599
 5676SOL     OW22469   1.620   5.171   1.860 -0.1624  0.2952  0.1921
 5676SOL    HW222470   1.589   5.261   1.848 -1.7975 -0.0468  1.4671
 5676SOL    HW322471   1.545   5.124   1.897  1.1762 -1.1966  1.1738
 5676SOL    MW422472   1.606   5.176   1.863 -0.2015  0.0533  0.4898
 5677SOL     OW22473   1.442   2.759   4.075  0.1344  0.2448 -0.5499
 5677SOL    HW222474   1.395   2.718   4.147  1.1790  0.1755  0.1143
 5677SOL    HW322475   1.488   2.833   4.115 -0.7830  1.3835 -1.5076
 5677SOL    MW422476   1.442   2.763   4.090  0.1512  0.3859 -0.5887
 5678SOL     OW22477   4.507   1.923   3.089 -0.0641 -0.0264  0.0675
 5678SOL    HW222478   4.542   1.977   3.018  0.1916  0.1568  0.3338
 5678SOL    HW322479   4.463   1.851   3.044  0.4350 -0.1211 -0.2685
 5678SOL    MW422480   4.506   1.921   3.073  0.0355 -0.0147  0.0583
 5679SOL     OW22481   2.192   3.111   0.842 -0.0705  0.0951  0.2857
 5679SOL    HW222482   2.207   3.194   0.887  0.8288  1.2449 -1.9782
 5679SOL    HW322483   2.143   3.134   0.764 -0.7738 -1.6944  0.1412
 5679SOL    MW422484   2.188   3.125   0.838 -0.0446  0.0107 -0.0321
 5680SOL     OW22485   4.500   2.988   0.613  0.3930  0.3889  0.2003
 5680SOL    HW222486   4.532   3.008   0.525 -2.9995  2.0043 -0.8303
 5680SOL    HW322487   4.577   2.998   0.669  2.5094  0.0696 -2.4205
 5680SOL    MW422488   4.515   2.992   0.608  0.2247  0.5599 -0.2814
 5681SOL     OW22489   1.272   3.651   4.107 -0.3677 -0.0384 -0.0039
 5681SOL    HW222490   1.188   3.691   4.083 -1.5010 -0.6214  2.5268
 5681SOL    HW322491   1.248   3.561   4.131  0.8651 -0.0377  1.3200
 5681SOL    MW422492   1.258   3.644   4.107 -0.3545 -0.1152  0.5047
 5682SOL     OW22493   0.133   4.715   3.088  0.1902 -0.1311  0.0859
 5682SOL    HW222494   0.044   4.679   3.094 -0.5600  1.7058  0.5447
 5682SOL    HW322495   0.154   4.710   2.994 -0.6827  0.0687 -0.1302
 5682SOL    MW422496   0.124   4.709   3.076 -0.0239  0.1376  0.1179
 5683SOL     OW22497   6.064   3.317   1.391  0.3126  0.2891 -0.1401
 5683SOL    HW222498   6.121   3.381   1.347 -1.5077  0.8922 -1.7666
 5683SOL    HW322499   6.031   3.362   1.468  1.0550  0.3505  0.1558
 5683SOL    MW422500   6.067   3.331   1.395  0.1704  0.3768 -0.3157
 5684SOL     OW22501   1.971   2.103   2.680 -0.5202 -0.1496 -0.0229
 5684SOL    HW222502   1.959   2.156   2.759 -1.2643 -0.8465  0.3398
 5684SOL    HW322503   2.040   2.149   2.632 -0.6590  0.7646  0.6106
 5684SOL    MW422504   1.979   2.116   2.684 -0.6367 -0.1209  0.1086
 5685SOL     OW22505   4.956   0.735   1.302  0.3561 -0.6886  0.5009
 5685SOL    HW222506   4.953   0.817   1.254  0.2275 -1.7437 -1.3797
 5685SOL    HW322507   5.047   0.707   1.299  0.0869 -1.5211 -0.5238
 5685SOL    MW422508   4.967   0.742   1.295  0.3036 -0.9377  0.1175
 5686SOL     OW22509   0.062   1.638   0.479 -0.1118 -0.3233  0.6338
 5686SOL    HW222510   0.059   1.666   0.571  0.3310 -1.1127  0.8906
 5686SOL    HW322511  -0.029   1.639   0.451 -0.1786  0.6947  0.8408
 5686SOL    MW422512   0.050   1.642   0.488 -0.0622 -0.2931  0.6950
 5687SOL     OW22513   6.010   1.633   2.679  0.2592  0.5020 -0.6492
 5687SOL    HW222514   6.053   1.681   2.751 -0.5756  0.4864 -0.1250
 5687SOL    HW322515   5.917   1.650   2.692 -0.1567 -1.8920  0.0409
 5687SOL    MW422516   6.003   1.642   2.690  0.0942  0.1841 -0.4890
 5688SOL     OW22517   2.491   4.113   0.142 -0.1146 -0.4448 -0.5159
 5688SOL    HW222518   2.582   4.101   0.116  0.3551  0.1171  0.7477
 5688SOL    HW322519   2.493   4.107   0.238 -1.3864 -0.2842 -0.4627
 5688SOL    MW422520   2.503   4.111   0.152 -0.2204 -0.3495 -0.3422
 5689SOL     OW22521   0.653   0.710   2.499 -0.0008  0.4322 -0.1652
 5689SOL    HW222522   0.585   0.726   2.566 -0.9127 -3.7755  0.1847
 5689SOL    HW322523   0.731   0.688   2.549 -0.6305 -2.5287 -0.3107
 5689SOL    MW422524   0.654   0.709   2.515 -0.2042 -0.5136 -0.1383
 5690SOL     OW22525   5.435   1.778   2.585 -0.2813 -0.1276  0.2756
 5690SOL    HW222526   5.492   1.703   2.568 -1.5877 -1.3045  0.8786
 5690SOL    HW322527   5.364   1.770   2.522  0.9008  2.1823 -1.4976
 5690SOL    MW422528   5.433   1.767   2.575 -0.2977  0.0219  0.1212
 5691SOL     OW22529   3.485   3.802   2.939  0.2664  0.0779 -0.1029
 5691SOL    HW222530   3.534   3.843   3.009  0.5435 -1.4456  0.6393
 5691SOL    HW322531   3.396   3.836   2.948  0.7918  1.6175 -0.4498
 5691SOL    MW422532   3.480   3.812   2.949  0.3723  0.0800 -0.0508
 5692SOL     OW22533   3.274   0.105   4.241 -0.0579 -0.1248 -0.2079
 5692SOL    HW222534   3.238   0.017   4.240  0.6892 -0.4561  0.7845
 5692SOL    HW322535   3.243   0.145   4.159 -1.1831 -0.9785 -0.2260
 5692SOL    MW422536   3.265   0.099   4.230 -0.1078 -0.2811 -0.0793
 5693SOL     OW22537   5.471   2.364   2.452  0.3114 -0.9767  0.0147
 5693SOL    HW222538   5.460   2.385   2.359  0.4785 -1.4169 -0.1085
 5693SOL    HW322539   5.554   2.405   2.477  0.3567 -1.0129 -0.0780
 5693SOL    MW422540   5.481   2.372   2.443  0.3394 -1.0396 -0.0138
 5694SOL     OW22541   0.490   5.710   1.611  0.3226  0.4763  0.9429
 5694SOL    HW222542   0.440   5.629   1.596 -0.0767  0.5733  1.7080
 5694SOL    HW322543   0.553   5.686   1.679  0.3433  0.7485  1.0188
 5694SOL    MW422544   0.492   5.696   1.618  0.2727  0.5250  1.0538
 5695SOL     OW22545   4.080   5.835   3.586  0.1921  0.0301 -0.2377
 5695SOL    HW222546   4.106   5.923   3.610  0.0361 -0.3171  1.3044
 5695SOL    HW322547   4.155   5.780   3.608  0.0518 -0.3017 -0.5731
 5695SOL    MW422548   4.093   5.839   3.592  0.1530 -0.0595 -0.0785
 5696SOL     OW22549   1.921   2.490   1.797 -0.0750 -0.0463  0.6168
 5696SOL    HW222550   1.981   2.547   1.749  0.0239 -0.0479  0.7396
 5696SOL    HW322551   1.886   2.431   1.730  1.1283 -0.9828  0.7775
 5696SOL    MW422552   1.924   2.490   1.782  0.0968 -0.1701  0.6542
 5697SOL     OW22553   3.209   5.655   4.619  0.1477  0.7050  0.1645
 5697SOL    HW222554   3.275   5.711   4.578  0.1725  1.1551  0.7984
 5697SOL    HW322555   3.195   5.585   4.556  0.6518  1.0328 -0.3274
 5697SOL    MW422556   3.216   5.653   4.605  0.2175  0.8076  0.1832
 5698SOL     OW22557   2.076   4.862   3.476 -0.7074 -0.3951 -0.0793
 5698SOL    HW222558   2.002   4.802   3.462 -1.5613  0.5949  0.0423
 5698SOL    HW322559   2.124   4.824   3.549 -0.9331 -1.2074 -0.3388
 5698SOL    MW422560   2.072   4.849   3.484 -0.8498 -0.3717 -0.0975
 5699SOL     OW22561   4.573   0.796   2.229 -0.4590  0.2523  0.3990
 5699SOL    HW222562   4.655   0.800   2.179 -0.9613  1.2899 -0.3861
 5699SOL    HW322563   4.601   0.809   2.320  0.2850  0.2188  0.1869
 5699SOL    MW422564   4.588   0.799   2.234 -0.4271  0.3848  0.2674
 5700SOL     OW22565   3.722   5.534   4.712  0.4013 -0.0925  0.5818
 5700SOL    HW222566   3.701   5.454   4.759  0.5830 -0.3408  0.2465
 5700SOL    HW322567   3.651   5.595   4.734  0.3220 -0.3077  0.9214
 5700SOL    MW422568   3.710   5.532   4.721  0.4148 -0.1536  0.5824
 5701SOL     OW22569   2.626   5.660   0.502 -0.0792 -0.1682  0.3591
 5701SOL    HW222570   2.616   5.567   0.477  0.0433  0.3391 -1.8148
 5701SOL    HW322571   2.683   5.696   0.435  1.5329  1.0839  2.3208
 5701SOL    MW422572   2.632   5.652   0.490  0.1497  0.0639  0.3311
 5702SOL     OW22573   0.894   4.985   2.176 -0.4939  0.1250 -0.2883
 5702SOL    HW222574   0.932   5.057   2.126 -1.9029  0.8880 -0.3197
 5702SOL    HW322575   0.857   4.927   2.110  0.2533 -0.4026 -0.2445
 5702SOL    MW422576   0.894   4.987   2.160 -0.5812  0.1560 -0.2867
 5703SOL     OW22577   6.287   4.641   3.378  0.1085  0.2821 -0.4841
 5703SOL    HW222578   6.350   4.595   3.323  0.8890  1.0921 -0.2922
 5703SOL    HW322579   6.204   4.630   3.333  0.6867  0.6823 -1.6816
 5703SOL    MW422580   6.284   4.633   3.365  0.2878  0.4418 -0.6167
 5704SOL     OW22581   1.111   2.116   2.527  0.0865  0.2356 -0.0107
 5704SOL    HW222582   1.036   2.146   2.476  0.3393  2.1999  0.6727
 5704SOL    HW322583   1.187   2.139   2.475  0.2894  0.5511  0.4189
 5704SOL    MW422584   1.111   2.123   2.514  0.1466  0.5364  0.1361
 5705SOL     OW22585   0.655   1.229   3.965  0.1572 -0.2729  0.2780
 5705SOL    HW222586   0.674   1.283   3.889  0.4346  0.7254  1.0345
 5705SOL    HW322587   0.619   1.148   3.929 -1.6436  0.9653 -0.8306
 5705SOL    MW422588   0.653   1.226   3.950 -0.0438  0.0222  0.2316
 5706SOL     OW22589   1.239   0.270   2.260  0.0080 -0.3195 -0.4468
 5706SOL    HW222590   1.157   0.292   2.216 -0.0330 -2.3427 -1.4695
 5706SOL    HW322591   1.214   0.255   2.351 -0.9739 -1.9218 -0.9471
 5706SOL    MW422592   1.225   0.271   2.266 -0.1269 -0.7979 -0.6477
 5707SOL     OW22593   5.768   4.014   5.204  0.5339 -0.0633 -0.1966
 5707SOL    HW222594   5.674   4.028   5.200  0.2047 -1.3912  1.4733
 5707SOL    HW322595   5.801   4.084   5.261  0.7261  0.9044 -1.4464
 5707SOL    MW422596   5.760   4.025   5.211  0.5158 -0.1108 -0.1412
 5708SOL     OW22597   0.910   4.498   1.090 -0.2258  0.5937  0.5150
 5708SOL    HW222598   0.989   4.443   1.086  0.4108  1.3972  1.3856
 5708SOL    HW322599   0.871   4.491   1.003  0.6521 -0.0543  0.1553
 5708SOL    MW422600   0.915   4.490   1.078 -0.0259  0.6142  0.5824
 5709SOL     OW22601   6.099   3.105   5.618 -0.5342  0.1761 -0.5139
 5709SOL    HW222602   6.021   3.160   5.622  0.2727  1.2671  2.6527
 5709SOL    HW322603   6.096   3.053   5.698  1.5442 -0.3964 -0.7545
 5709SOL    MW422604   6.088   3.105   5.629 -0.1535  0.2445 -0.1278
 5710SOL     OW22605   1.409   0.523   1.497 -0.0989 -0.2802  0.6442
 5710SOL    HW222606   1.488   0.475   1.521  0.5844  0.4714 -0.0433
 5710SOL    HW322607   1.439   0.588   1.433 -1.8185 -2.3809 -2.5729
 5710SOL    MW422608   1.423   0.526   1.491 -0.2356 -0.4582  0.1290
 5711SOL     OW22609   4.262   5.606   4.916 -0.0157 -0.4434 -0.1958
 5711SOL    HW222610   4.261   5.643   5.004 -2.5005 -0.7503 -0.0277
 5711SOL    HW322611   4.333   5.542   4.918 -0.4353 -0.9129  1.8131
 5711SOL    MW422612   4.271   5.602   4.927 -0.3989 -0.5458  0.0914
 5712SOL     OW22613   3.702   2.364   2.946 -0.1606 -0.6471 -0.1305
 5712SOL    HW222614   3.693   2.441   3.001  0.1888 -1.7955  1.6263
 5712SOL    HW322615   3.787   2.375   2.903 -0.2159  0.0429 -0.0758
 5712SOL    MW422616   3.712   2.375   2.947 -0.1218 -0.7076  0.1085
 5713SOL     OW22617   1.831   3.399   4.734 -0.3363 -0.2281 -0.0032
 5713SOL    HW222618   1.850   3.440   4.818 -1.0767 -1.1655  0.6434
 5713SOL    HW322619   1.802   3.471   4.678 -1.8377  0.1275  1.1800
 5713SOL    MW422620   1.830   3.414   4.738 -0.6321 -0.3049  0.2382
 5714SOL     OW22621   5.705   1.953   4.601 -0.3306  0.0363 -0.0148
 5714SOL    HW222622   5.702   2.030   4.658 -1.1007  0.9405 -1.2143
 5714SOL    HW322623   5.719   1.880   4.660 -0.1474  1.0416  1.2283
 5714SOL    MW422624   5.706   1.954   4.616 -0.4080  0.2882 -0.0091
 5715SOL     OW22625   4.141   0.614   0.526 -0.1252 -0.4215  0.0196
 5715SOL    HW222626   4.146   0.600   0.620 -1.6676 -0.4915  0.1178
 5715SOL    HW322627   4.076   0.550   0.495 -0.6609  0.4989 -0.8626
 5715SOL    MW422628   4.133   0.604   0.534 -0.3994 -0.3093 -0.0839
 5716SOL     OW22629   1.016   3.368   0.235  0.1343  0.0440 -0.1710
 5716SOL    HW222630   0.993   3.389   0.144  0.3790 -1.6767 -0.6803
 5716SOL    HW322631   0.947   3.307   0.263 -0.7063  1.5867  1.2955
 5716SOL    MW422632   1.004   3.363   0.226  0.0557  0.0205 -0.0447
 5717SOL     OW22633   5.660   5.028   2.434  0.4215 -0.7944 -0.1689
 5717SOL    HW222634   5.673   5.120   2.456 -2.6672 -0.8099  2.4150
 5717SOL    HW322635   5.743   4.986   2.458  0.6713  0.8112  2.0449
 5717SOL    MW422636   5.673   5.035   2.440  0.0469 -0.5846  0.4641
 5718SOL     OW22637   5.887   0.293   3.077  0.3286 -0.1841  0.2246
 5718SOL    HW222638   5.853   0.348   3.148  0.9307 -1.1871  1.3387
 5718SOL    HW322639   5.953   0.238   3.120  1.4026 -0.1647 -1.3164
 5718SOL    MW422640   5.892   0.293   3.092  0.5497 -0.3138  0.1683
 5719SOL     OW22641   3.714   4.469   1.967  0.2654  0.6145 -0.8001
 5719SOL    HW222642   3.683   4.549   2.009  1.0256 -0.8510  2.9644
 5719SOL    HW322643   3.689   4.399   2.027 -0.8336 -2.1638 -4.1484
 5719SOL    MW422644   3.707   4.471   1.981  0.2207  0.0546 -0.7452
 5720SOL     OW22645   2.543   0.004   4.458 -0.7836 -0.3649 -0.0195
 5720SOL    HW222646   2.526  -0.067   4.520  0.9121 -0.4374  0.4019
 5720SOL    HW322647   2.526  -0.035   4.372  0.9653 -1.5886  0.1384
 5720SOL    MW422648   2.538  -0.011   4.455 -0.3292 -0.5359  0.0569
 5721SOL     OW22649   6.397   0.133   5.640  0.1510 -0.0498  0.0232
 5721SOL    HW222650   6.449   0.068   5.689  0.8909 -0.2013 -0.9241
 5721SOL    HW322651   6.452   0.154   5.564 -0.0594  1.7356  0.3341
 5721SOL    MW422652   6.411   0.127   5.637  0.2209  0.1657 -0.0608
 5722SOL     OW22653   5.715   3.227   1.489 -0.4524  0.0463 -0.6376
 5722SOL    HW222654   5.659   3.207   1.564 -0.1441  0.5061 -0.2735
 5722SOL    HW322655   5.664   3.201   1.412 -1.6989  1.6091 -0.3848
 5722SOL    MW422656   5.701   3.221   1.489 -0.5762  0.3132 -0.5562
 5723SOL     OW22657   5.921   0.684   0.965  0.0703  0.2307 -0.0932
 5723SOL    HW222658   5.971   0.626   0.908  1.3983  1.6404 -0.4099
 5723SOL    HW322659   5.881   0.625   1.029 -0.5659 -1.2852 -1.7618
 5723SOL    MW422660   5.922   0.668   0.966  0.1616  0.2167 -0.3551
 5724SOL     OW22661   0.056   4.598   4.493 -0.6494  0.2324  0.0600
 5724SOL    HW222662   0.012   4.556   4.419 -1.1457  1.2716 -0.2517
 5724SOL    HW322663   0.016   4.558   4.570  0.4506 -1.4623 -0.1925
 5724SOL    MW422664   0.045   4.587   4.493 -0.5697  0.1460 -0.0145
 5725SOL     OW22665   4.269   3.946   0.533  0.6488  0.1252  0.1661
 5725SOL    HW222666   4.289   3.928   0.625  2.8666 -1.8571 -0.6255
 5725SOL    HW322667   4.228   4.033   0.535 -1.2573 -0.6922  3.1911
 5725SOL    MW422668   4.266   3.955   0.545  0.6900 -0.2442  0.4607
 5726SOL     OW22669   5.607   1.599   1.303  0.1437 -0.1841  0.4528
 5726SOL    HW222670   5.582   1.691   1.303  2.6607  0.5609  0.0784
 5726SOL    HW322671   5.659   1.588   1.223  2.3651 -1.1674  1.9270
 5726SOL    MW422672   5.610   1.610   1.292  0.7689 -0.2156  0.5979
 5727SOL     OW22673   5.968   4.957   4.504  0.4526 -0.1466  0.1904
 5727SOL    HW222674   5.949   5.022   4.436  2.1722 -0.1867 -0.3657
 5727SOL    HW322675   6.036   4.997   4.558  0.2183 -0.7490  0.9447
 5727SOL    MW422676   5.974   4.971   4.502  0.6485 -0.2314  0.2165
 5728SOL     OW22677   6.337   6.101   0.031 -0.5161 -0.1840 -0.3097
 5728SOL    HW222678   6.381   6.186   0.042 -1.2394  0.4701 -1.9749
 5728SOL    HW322679   6.248   6.125   0.004 -1.3557 -1.4862  1.1978
 5728SOL    MW422680   6.331   6.116   0.029 -0.7223 -0.2695 -0.3305
 5729SOL     OW22681   1.380   0.149   6.216  0.0590  0.6663 -0.0790
 5729SOL    HW222682   1.289   0.134   6.244  0.5269 -0.2581  1.0490
 5729SOL    HW322683   1.427   0.165   6.298  0.9615  0.8583 -0.6317
 5729SOL    MW422684   1.374   0.149   6.231  0.2398  0.5697 -0.0031
 5730SOL     OW22685   5.390   2.721   2.412 -0.0494 -0.0988  0.2423
 5730SOL    HW222686   5.482   2.739   2.391 -0.4995  0.1399 -1.7499
 5730SOL    HW322687   5.384   2.733   2.507  2.1782 -1.0652  0.5890
 5730SOL    MW422688   5.402   2.725   2.422  0.1851 -0.1948  0.0252
 5731SOL     OW22689   1.093   4.458   2.604  0.1935  0.5345 -0.0213
 5731SOL    HW222690   1.003   4.475   2.633  0.1171 -0.0698  0.1048
 5731SOL    HW322691   1.122   4.542   2.567 -0.5267  0.6541 -0.3419
 5731SOL    MW422692   1.085   4.472   2.603  0.0884  0.4705 -0.0470
 5732SOL     OW22693   1.012   5.383   3.076 -0.5583 -0.3093 -0.0372
 5732SOL    HW222694   1.037   5.291   3.085 -3.0204 -1.6626 -4.1253
 5732SOL    HW322695   1.052   5.410   2.993 -1.4166  1.7219  0.1644
 5732SOL    MW422696   1.020   5.374   3.066 -0.9964 -0.2199 -0.5500
 5733SOL     OW22697   0.519   1.710   2.868  0.6455  0.0887  0.5929
 5733SOL    HW222698   0.591   1.734   2.926  1.4995 -1.8387  0.3978
 5733SOL    HW322699   0.557   1.645   2.808 -0.7894  0.3834 -0.7016
 5733SOL    MW422700   0.534   1.704   2.867  0.5688 -0.1268  0.3964
 5734SOL     OW22701   4.213   2.431   0.899 -0.0270  0.1646  0.2721
 5734SOL    HW222702   4.132   2.413   0.947 -0.8681  2.1927 -0.2674
 5734SOL    HW322703   4.229   2.352   0.847 -1.6218 -0.2949  0.4412
 5734SOL    MW422704   4.204   2.418   0.899 -0.3484  0.3715  0.2232
 5735SOL     OW22705   4.348   4.111   5.719 -0.2669  0.0533  0.2298
 5735SOL    HW222706   4.428   4.157   5.744  0.7457 -0.3561 -2.0436
 5735SOL    HW322707   4.354   4.027   5.764  0.4997  0.0932  0.2215
 5735SOL    MW422708   4.359   4.106   5.728 -0.0322  0.0046 -0.0713
 5736SOL     OW22709   4.341   0.256   1.388  0.2574 -0.2091  0.4796
 5736SOL    HW222710   4.256   0.212   1.398  0.6036 -1.0768 -0.2665
 5736SOL    HW322711   4.406   0.187   1.404  0.8533  0.6020  1.7439
 5736SOL    MW422712   4.338   0.241   1.392  0.3817 -0.2166  0.5480
 5737SOL     OW22713   3.637   0.183   3.879  0.3456  0.2068 -0.3246
 5737SOL    HW222714   3.552   0.139   3.870  0.6140 -0.4890  0.3850
 5737SOL    HW322715   3.690   0.147   3.807  0.2487  0.1081 -0.3469
 5737SOL    MW422716   3.633   0.172   3.868  0.3682  0.1020 -0.2339
 5738SOL     OW22717   5.337   5.906   2.951 -0.2072 -0.3409 -0.4428
 5738SOL    HW222718   5.431   5.891   2.965 -0.4119  0.2970  2.0977
 5738SOL    HW322719   5.301   5.818   2.939  0.3638 -0.8845  1.4409
 5738SOL    MW422720   5.345   5.892   2.951 -0.1588 -0.3285  0.1409
 5739SOL     OW22721   5.354   4.322   0.855 -0.1106  0.7298 -0.0849
 5739SOL    HW222722   5.323   4.387   0.917 -0.3747 -0.3403  0.9415
 5739SOL    HW322723   5.295   4.247   0.865  1.5794 -0.6052  0.5246
 5739SOL    MW422724   5.342   4.320   0.864  0.0775  0.4124  0.1309
 5740SOL     OW22725   0.409   3.340   2.143 -0.8188 -0.0602 -0.0821
 5740SOL    HW222726   0.322   3.336   2.103 -0.8753 -0.7640  0.0990
 5740SOL    HW322727   0.469   3.319   2.072 -0.9561 -1.8947  0.3026
 5740SOL    MW422728   0.405   3.337   2.129 -0.8444 -0.3951 -0.0074
 5741SOL     OW22729   5.963   5.199   0.181  0.4165 -0.4046  0.0897
 5741SOL    HW222730   6.019   5.267   0.219 -0.3845 -1.2663  3.1129
 5741SOL    HW322731   5.998   5.117   0.217 -1.0034 -1.2191 -0.2964
 5741SOL    MW422732   5.975   5.197   0.191  0.1235 -0.6258  0.4377
 5742SOL     OW22733   5.283   1.083   2.737  0.1419  0.6911 -0.0838
 5742SOL    HW222734   5.294   1.115   2.827 -0.6190 -0.3891  0.4152
 5742SOL    HW322735   5.226   1.007   2.746 -1.4906  1.6562 -1.6808
 5742SOL    MW422736   5.277   1.078   2.750 -0.1739  0.6759 -0.2287
 5743SOL     OW22737   0.796   0.596   1.704 -0.0602 -0.2793 -0.5288
 5743SOL    HW222738   0.719   0.569   1.754 -0.0332  0.8299  0.1324
 5743SOL    HW322739   0.760   0.637   1.625 -0.1016 -2.2183 -1.5770
 5743SOL    MW422740   0.781   0.598   1.700 -0.0621 -0.3888 -0.5799
 5744SOL     OW22741   4.294   6.267   1.846  0.6856  0.7384 -0.4837
 5744SOL    HW222742   4.209   6.312   1.850  0.0488 -0.3759 -0.8329
 5744SOL    HW322743   4.289   6.202   1.917  0.3021 -0.8570 -1.9053
 5744SOL    MW422744   4.282   6.264   1.856  0.5510  0.3809 -0.7173
 5745SOL     OW22745   4.885   5.337   3.441 -0.2120  0.3560 -0.1689
 5745SOL    HW222746   4.846   5.261   3.484 -2.3476  0.9595 -0.8662
 5745SOL    HW322747   4.838   5.343   3.358  3.5825 -0.6642 -2.6549
 5745SOL    MW422748   4.873   5.328   3.436  0.0069  0.3010 -0.5889
 5746SOL     OW22749   3.424   5.709   2.352  0.1158 -0.0052 -0.0488
 5746SOL    HW222750   3.410   5.794   2.392 -0.7856  0.9829 -2.2917
 5746SOL    HW322751   3.502   5.721   2.297 -1.8281  0.4843 -2.9355
 5746SOL    MW422752   3.433   5.722   2.350 -0.2596  0.1897 -0.7256
 5747SOL     OW22753   3.668   4.879   4.473  0.4511 -0.5177  0.1619
 5747SOL    HW222754   3.653   4.896   4.380 -1.1808  0.8402  0.6155
 5747SOL    HW322755   3.657   4.784   4.482 -2.7368 -0.3308 -0.5594
 5747SOL    MW422756   3.665   4.869   4.462 -0.1848 -0.3139  0.1266
 5748SOL     OW22757   0.696   0.517   6.129 -0.0382  0.5667 -0.4868
 5748SOL    HW222758   0.765   0.480   6.184  1.6472  2.2252 -1.3785
 5748SOL    HW322759   0.614   0.482   6.166  1.1009  0.3939  2.0772
 5748SOL    MW422760   0.694   0.507   6.141  0.3345  0.7627 -0.2662
 5749SOL     OW22761   0.948   5.478   5.399 -0.3051 -0.2743 -0.5555
 5749SOL    HW222762   1.001   5.513   5.327  2.4539 -1.1440  0.9062
 5749SOL    HW322763   0.872   5.439   5.356  0.1349  1.1546 -2.7920
 5749SOL    MW422764   0.945   5.477   5.384  0.1170 -0.2005 -0.6577
 5750SOL     OW22765   0.173   4.298   5.070 -0.1665  0.3694 -0.0307
 5750SOL    HW222766   0.268   4.303   5.081 -0.2118 -0.8086  1.1644
 5750SOL    HW322767   0.156   4.206   5.052 -1.1592  0.3547  0.8584
 5750SOL    MW422768   0.184   4.287   5.069 -0.3035  0.2121  0.2443
 5751SOL     OW22769   6.219   2.168   0.722  0.5913 -0.0200  0.7674
 5751SOL    HW222770   6.148   2.191   0.782  0.1486 -0.7315  0.5354
 5751SOL    HW322771   6.184   2.190   0.635  1.1128  0.7292  0.7439
 5751SOL    MW422772   6.205   2.174   0.718  0.6017 -0.0150  0.7337
 5752SOL     OW22773   0.629   0.327   2.528  0.3690 -0.6024  0.1480
 5752SOL    HW222774   0.580   0.257   2.485 -2.0809  1.5362 -0.8249
 5752SOL    HW322775   0.667   0.377   2.455 -0.2479  0.6203  0.6312
 5752SOL    MW422776   0.628   0.324   2.513 -0.0356 -0.1589  0.0833
 5753SOL     OW22777   4.247   2.823   1.943 -0.0466  0.3416 -0.0833
 5753SOL    HW222778   4.295   2.855   2.020  0.3014 -1.4781  0.5018
 5753SOL    HW322779   4.170   2.880   1.936  1.5732  2.6575 -0.3963
 5753SOL    MW422780   4.243   2.835   1.952  0.2130  0.4071 -0.0474
 5754SOL     OW22781   4.725   1.106   2.126 -0.6080  0.3262 -0.9362
 5754SOL    HW222782   4.721   1.199   2.102  2.3841  0.2879 -2.0897
 5754SOL    HW322783   4.753   1.107   2.218 -1.7574  0.5371 -0.5781
 5754SOL    MW422784   4.728   1.119   2.135 -0.3649  0.3490 -1.0411
 5755SOL     OW22785   3.225   1.554   4.677 -0.0113 -0.4862  0.1812
 5755SOL    HW222786   3.223   1.612   4.753 -1.0912 -1.3897  0.8581
 5755SOL    HW322787   3.244   1.613   4.603  0.2986  0.5092  1.0258
 5755SOL    MW422788   3.227   1.570   4.677 -0.1129 -0.4741  0.3819
 5756SOL     OW22789   5.883   0.059   2.925  0.7053  0.3837  0.4484
 5756SOL    HW222790   5.959   0.064   2.867  0.0556 -0.0466 -0.4613
 5756SOL    HW322791   5.877   0.146   2.964  0.7203  0.9242 -0.7016
 5756SOL    MW422792   5.892   0.071   2.923  0.6216  0.3983  0.1766
 5757SOL     OW22793   1.693   0.671   5.985 -0.1212  0.4826  0.6252
 5757SOL    HW222794   1.598   0.674   5.972  0.0331 -0.2660 -0.8703
 5757SOL    HW322795   1.707   0.708   6.072 -1.8199  0.1801  1.0451
 5757SOL    MW422796   1.683   0.676   5.994 -0.3250  0.3439  0.4833
 5758SOL     OW22797   5.500   3.834   5.557 -0.7702 -0.1971  0.3309
 5758SOL    HW222798   5.419   3.792   5.529 -0.1774 -0.3744 -1.2142
 5758SOL    HW322799   5.565   3.763   5.558 -0.3825  0.1540  0.4455
 5758SOL    MW422800   5.498   3.819   5.554 -0.6409 -0.1742  0.1422
 5759SOL     OW22801   3.331   4.191   2.693  0.0396  0.1110 -0.6418
 5759SOL    HW222802   3.337   4.247   2.770  2.5539 -0.1625 -0.5747
 5759SOL    HW322803   3.290   4.246   2.626 -0.9383  0.7747  0.4636
 5759SOL    MW422804   3.326   4.206   2.694  0.2423  0.1625 -0.4871
 5760SOL     OW22805   5.832   5.279   6.357  0.1667 -0.4562  1.1026
 5760SOL    HW222806   5.834   5.208   6.292 -0.9093  0.1138  0.4193
 5760SOL    HW322807   5.875   5.242   6.433  0.8019 -1.4001  0.3138
 5760SOL    MW422808   5.838   5.264   6.358  0.1086 -0.5055  0.9084
 5761SOL     OW22809   4.963   0.773   0.096 -0.1924  0.2356 -0.3960
 5761SOL    HW222810   4.951   0.706   0.163  1.5762 -0.8650 -1.1125
 5761SOL    HW322811   4.882   0.824   0.099 -0.6412 -0.4916  1.7484
 5761SOL    MW422812   4.951   0.771   0.105 -0.0182 -0.0056 -0.2076
 5762SOL     OW22813   5.012   4.217   0.253  0.1737  0.1186 -0.4921
 5762SOL    HW222814   4.919   4.197   0.257 -0.1022  0.5731 -2.9061
 5762SOL    HW322815   5.053   4.133   0.233  0.1349  0.1323 -0.6337
 5762SOL    MW422816   5.005   4.203   0.251  0.1321  0.1804 -0.8293
 5763SOL     OW22817   4.300   0.314   2.899 -0.0606  0.3520  0.0015
 5763SOL    HW222818   4.228   0.305   2.836  0.9934 -1.3127 -1.0591
 5763SOL    HW322819   4.360   0.242   2.877  1.3759  0.9931  1.5836
 5763SOL    MW422820   4.299   0.303   2.887  0.2680  0.2169  0.0703
 5764SOL     OW22821   4.732   0.741   5.407 -0.1371 -0.3262  0.4522
 5764SOL    HW222822   4.660   0.754   5.345 -1.2189 -2.3185  1.2036
 5764SOL    HW322823   4.773   0.827   5.415 -1.9961  0.7062 -0.5419
 5764SOL    MW422824   4.728   0.754   5.400 -0.5251 -0.4528  0.4202
 5765SOL     OW22825   2.249   3.671   0.350  0.2723 -0.4615 -0.2525
 5765SOL    HW222826   2.331   3.700   0.310  0.4739 -0.5300  0.1066
 5765SOL    HW322827   2.183   3.732   0.316  0.6349  0.2116  0.2293
 5765SOL    MW422828   2.251   3.683   0.340  0.3467 -0.3818 -0.1416
 5766SOL     OW22829   0.814   3.798   1.909 -0.8436 -0.1966 -0.2696
 5766SOL    HW222830   0.892   3.843   1.942  0.2175 -1.4862 -0.8982
 5766SOL    HW322831   0.771   3.862   1.853  0.5037  0.1276 -0.9820
 5766SOL    MW422832   0.819   3.812   1.906 -0.5258 -0.3240 -0.4465
 5767SOL     OW22833   3.565   4.439   4.673 -0.3630 -0.4614 -0.3037
 5767SOL    HW222834   3.522   4.354   4.667 -1.3940 -0.1940  2.2859
 5767SOL    HW322835   3.643   4.423   4.726  0.5909 -0.1468 -1.5598
 5767SOL    MW422836   3.570   4.426   4.679 -0.3732 -0.3846 -0.1277
 5768SOL     OW22837   0.066   1.603   1.185 -0.4089 -0.3396 -0.2109
 5768SOL    HW222838   0.133   1.583   1.120 -0.0110  0.7326 -0.1604
 5768SOL    HW322839  -0.017   1.595   1.138 -0.1242  0.5033 -0.8860
 5768SOL    MW422840   0.064   1.599   1.171 -0.3188 -0.0869 -0.2933
 5769SOL     OW22841   0.443   4.025   3.217 -0.3425  0.3638  0.0228
 5769SOL    HW222842   0.399   4.103   3.181  1.7853  1.7958  0.3292
 5769SOL    HW322843   0.378   3.986   3.275 -2.2670  0.5975 -1.8358
 5769SOL    MW422844   0.429   4.030   3.220 -0.3157  0.5836 -0.1820
 5770SOL     OW22845   5.314   0.746   4.657 -0.1909  0.1659 -0.0750
 5770SOL    HW222846   5.375   0.672   4.654  0.2921  0.5903 -1.8090
 5770SOL    HW322847   5.234   0.713   4.616  0.1900  0.7306 -1.2934
 5770SOL    MW422848   5.311   0.732   4.652 -0.0769  0.2964 -0.4645
 5771SOL     OW22849   1.079   2.374   3.512 -0.6050  0.0166 -0.4962
 5771SOL    HW222850   1.014   2.318   3.556 -0.6161 -1.7473 -2.6006
 5771SOL    HW322851   1.150   2.382   3.575 -1.0135 -1.6196  0.2270
 5771SOL    MW422852   1.080   2.367   3.527 -0.6604 -0.4320 -0.6785
 5772SOL     OW22853   3.531   5.249   6.404 -0.4502 -0.2448  0.2868
 5772SOL    HW222854   3.571   5.189   6.340  1.1252 -0.0907  1.0592
 5772SOL    HW322855   3.452   5.204   6.432 -0.0076 -1.3526 -0.1448
 5772SOL    MW422856   3.526   5.235   6.399 -0.1839 -0.3706  0.3318
 5773SOL     OW22857   5.439   4.871   1.519  0.1247  0.1132 -0.1883
 5773SOL    HW222858   5.351   4.901   1.493  0.4713  1.3615 -0.0144
 5773SOL    HW322859   5.473   4.827   1.441 -0.6743 -0.4475 -0.2371
 5773SOL    MW422860   5.432   4.869   1.505  0.0650  0.2039 -0.1718
 5774SOL     OW22861   3.979   0.177   0.468  0.2626 -0.4026  0.5676
 5774SOL    HW222862   4.024   0.155   0.387 -0.1086 -2.2399  0.8271
 5774SOL    HW322863   4.043   0.158   0.537 -0.1138 -0.8180  0.8070
 5774SOL    MW422864   3.993   0.172   0.466  0.1639 -0.6998  0.6334
 5775SOL     OW22865   0.271   1.105   3.701  0.1467 -0.4178  0.0478
 5775SOL    HW222866   0.196   1.066   3.745  0.3116  0.5956  1.3009
 5775SOL    HW322867   0.321   1.145   3.772  0.8889  0.5132 -0.9818
 5775SOL    MW422868   0.268   1.105   3.716  0.2664 -0.1613  0.0773
 5776SOL     OW22869   5.345   1.982   1.108  0.1694  0.2374 -0.1356
 5776SOL    HW222870   5.374   1.948   1.192  0.5769  1.5081  0.2557
 5776SOL    HW322871   5.408   2.051   1.087 -1.0743  1.2854 -0.5194
 5776SOL    MW422872   5.357   1.987   1.116  0.0591  0.5433 -0.1346
 5777SOL     OW22873   4.613   4.744   0.423 -0.0801  0.2548  0.1079
 5777SOL    HW222874   4.566   4.822   0.394 -0.6809  0.7703  2.3065
 5777SOL    HW322875   4.551   4.672   0.412 -0.3269  0.4562  0.1869
 5777SOL    MW422876   4.599   4.745   0.418 -0.1919  0.3494  0.4084
 5778SOL     OW22877   5.154   1.301   4.907  0.5686  0.1592 -0.3510
 5778SOL    HW222878   5.206   1.269   4.981 -1.9596 -0.0981  1.4397
 5778SOL    HW322879   5.107   1.224   4.875 -0.7755  0.8436 -0.1061
 5778SOL    MW422880   5.155   1.287   4.913  0.0577  0.2155 -0.0824
 5779SOL     OW22881   1.306   1.266   5.363 -0.2456 -0.8577 -0.3089
 5779SOL    HW222882   1.384   1.321   5.371 -0.4732 -0.3452 -1.4389
 5779SOL    HW322883   1.235   1.321   5.398 -0.6319 -0.0224 -2.2882
 5779SOL    MW422884   1.307   1.281   5.369 -0.3266 -0.6799 -0.7191
 5780SOL     OW22885   1.450   4.546   1.624  0.3835 -0.1485 -0.5168
 5780SOL    HW222886   1.518   4.584   1.570 -0.5144  1.0380 -0.8490
 5780SOL    HW322887   1.390   4.505   1.561  0.5709 -0.8579 -0.2493
 5780SOL    MW422888   1.451   4.545   1.608  0.2897 -0.0856 -0.5253
 5781SOL     OW22889   1.960   3.658   1.070  0.0463 -0.1270 -0.2409
 5781SOL    HW222890   2.012   3.578   1.079 -0.5929 -0.4418  0.7582
 5781SOL    HW322891   1.953   3.692   1.159 -0.8998  0.2639 -0.4595
 5781SOL    MW422892   1.966   3.652   1.083 -0.1629 -0.1170 -0.1379
 5782SOL     OW22893   2.281   0.035   0.349  0.5635 -0.5227 -0.3540
 5782SOL    HW222894   2.264  -0.047   0.303 -1.1349  0.5889 -1.8555
 5782SOL    HW322895   2.326   0.089   0.284 -0.7029  0.6272 -0.3037
 5782SOL    MW422896   2.285   0.031   0.334  0.1724 -0.2243 -0.5455
 5783SOL     OW22897   4.697   3.563   0.965  0.2412 -0.1143  0.0384
 5783SOL    HW222898   4.712   3.505   0.891 -0.4750 -2.0878  1.3441
 5783SOL    HW322899   4.703   3.506   1.042 -3.4257  0.8309  1.2731
 5783SOL    MW422900   4.700   3.548   0.965 -0.3371 -0.2500  0.3736
 5784SOL     OW22901   0.866   1.770   3.370 -0.0746 -0.3868  0.3584
 5784SOL    HW222902   0.850   1.678   3.394 -0.6387 -0.6478 -0.9361
 5784SOL    HW322903   0.915   1.765   3.287  1.1689  0.4880  1.0003
 5784SOL    MW422904   0.871   1.757   3.362  0.0150 -0.3058  0.2723
 5785SOL     OW22905   3.202   4.532   0.847  0.9169  0.0610  0.0625
 5785SOL    HW222906   3.143   4.478   0.900 -1.1839  2.1533  0.0331
 5785SOL    HW322907   3.282   4.538   0.898  0.5401 -1.4962  0.9195
 5785SOL    MW422908   3.204   4.525   0.861  0.5900  0.1316  0.1717
 5786SOL     OW22909   0.664   4.725   2.643  0.4148  0.1615 -0.1333
 5786SOL    HW222910   0.587   4.747   2.695 -1.9970 -1.7302 -2.6391
 5786SOL    HW322911   0.708   4.809   2.629 -2.5620  1.7770 -0.6279
 5786SOL    MW422912   0.660   4.739   2.648 -0.2962  0.1251 -0.5292
 5787SOL     OW22913   5.909   1.480   5.669 -0.4490  0.0933  0.1114
 5787SOL    HW222914   5.927   1.432   5.750  1.7297  0.2976 -0.2025
 5787SOL    HW322915   5.833   1.435   5.631 -0.1936 -1.3269  1.2104
 5787SOL    MW422916   5.901   1.468   5.675 -0.1278 -0.0672  0.2150
 5788SOL     OW22917   3.097   1.993   3.831  0.2068  0.1514  0.2013
 5788SOL    HW222918   3.024   1.955   3.784 -0.9194  1.6360  0.6641
 5788SOL    HW322919   3.106   1.940   3.910 -1.9841  1.3523  1.3345
 5788SOL    MW422920   3.089   1.981   3.836 -0.2308  0.5057  0.4119
 5789SOL     OW22921   3.125   5.623   4.946 -0.1338 -0.4540  0.1567
 5789SOL    HW222922   3.172   5.549   4.908  0.9925 -0.0799  0.7643
 5789SOL    HW322923   3.070   5.656   4.875  1.1907 -0.3774 -0.8758
 5789SOL    MW422924   3.124   5.618   4.932  0.1896 -0.3945  0.1006
 5790SOL     OW22925   5.571   3.457   0.087 -0.0846  0.3464 -0.5203
 5790SOL    HW222926   5.644   3.421   0.037 -0.8430 -1.4272 -0.4140
 5790SOL    HW322927   5.512   3.492   0.020  0.0908  0.2738 -0.7140
 5790SOL    MW422928   5.573   3.457   0.072 -0.1615  0.1028 -0.5318
 5791SOL     OW22929   2.760   0.219   0.774 -0.0980  0.2716  0.1328
 5791SOL    HW222930   2.813   0.251   0.701  0.5600 -0.5321  0.2357
 5791SOL    HW322931   2.820   0.165   0.826 -1.0195 -0.7443  0.1999
 5791SOL    MW422932   2.775   0.216   0.771 -0.1328  0.0315  0.1552
 5792SOL     OW22933   5.112   1.883   1.300 -0.1358  0.1421  0.6199
 5792SOL    HW222934   5.029   1.925   1.280  0.3156  0.6717 -0.1912
 5792SOL    HW322935   5.123   1.818   1.231  0.7262  0.9481 -0.0102
 5792SOL    MW422936   5.103   1.880   1.288  0.0375  0.3183  0.4298
 5793SOL     OW22937   6.131   2.260   2.546 -0.3319  0.3658  0.0351
 5793SOL    HW222938   6.079   2.189   2.506 -1.6715  1.1322  0.3537
 5793SOL    HW322939   6.195   2.283   2.479  1.5961 -2.5636  0.6919
 5793SOL    MW422940   6.132   2.253   2.532 -0.2542  0.0804  0.1638
 5794SOL     OW22941   1.707   3.595   3.516  0.2425  0.4404 -0.3965
 5794SOL    HW222942   1.704   3.618   3.609  1.0157  1.3095 -0.5680
 5794SOL    HW322943   1.801   3.589   3.496  0.0739 -1.1150 -0.8044
 5794SOL    MW422944   1.719   3.597   3.526  0.3222  0.3499 -0.4730
 5795SOL     OW22945   0.264   6.120   0.957 -0.6862  0.8133 -0.1981
 5795SOL    HW222946   0.340   6.176   0.970 -0.6985  0.7872 -0.0018
 5795SOL    HW322947   0.300   6.034   0.936 -0.6643  0.8456 -0.2930
 5795SOL    MW422948   0.278   6.116   0.956 -0.6849  0.8141 -0.1847
 5796SOL     OW22949   2.485   3.992   0.418 -0.2270  0.0293  0.7564
 5796SOL    HW222950   2.394   3.963   0.414 -0.8657  1.7383  1.6111
 5796SOL    HW322951   2.515   3.962   0.504  0.0464 -0.5579  0.4633
 5796SOL    MW422952   2.477   3.984   0.429 -0.2752  0.1773  0.8305
 5797SOL     OW22953   1.020   3.049   3.505  0.2854 -0.0190 -0.3666
 5797SOL    HW222954   0.943   3.054   3.449  0.2825 -1.8408 -0.5673
 5797SOL    HW322955   1.090   3.089   3.453 -0.9118  4.0488  0.7724
 5797SOL    MW422956   1.019   3.055   3.491  0.1271  0.2773 -0.2428
 5798SOL     OW22957   4.782   2.617   5.194 -0.0678 -0.6732 -0.1502
 5798SOL    HW222958   4.759   2.545   5.253  0.0783 -0.4387  0.1869
 5798SOL    HW322959   4.862   2.654   5.231  0.3026 -0.8395 -0.7632
 5798SOL    MW422960   4.790   2.612   5.206  0.0003 -0.6642 -0.1866
 5799SOL     OW22961   1.174   2.434   2.350  0.3431  0.3146  0.1964
 5799SOL    HW222962   1.224   2.354   2.337 -0.6196 -0.1521 -0.7844
 5799SOL    HW322963   1.220   2.480   2.420  1.5295 -0.5829  0.0373
 5799SOL    MW422964   1.187   2.430   2.357  0.3726  0.1346  0.0460
 5800SOL     OW22965   5.228   5.919   3.601  0.8162 -0.1345  0.0273
 5800SOL    HW222966   5.198   6.003   3.637  0.9228 -0.7894  1.7487
 5800SOL    HW322967   5.184   5.912   3.517 -2.0993  0.0095  1.4183
 5800SOL    MW422968   5.219   5.929   3.595  0.4456 -0.2019  0.4380
 5801SOL     OW22969   0.625   1.438   1.205 -0.1138  0.0835  0.4699
 5801SOL    HW222970   0.632   1.399   1.292 -0.0327 -1.5545 -0.2362
 5801SOL    HW322971   0.546   1.400   1.168 -0.9362  1.8477  0.3190
 5801SOL    MW422972   0.616   1.428   1.212 -0.2116  0.1002  0.3568
 5802SOL     OW22973   5.344   5.197   5.966 -0.4122  0.2192  0.1247
 5802SOL    HW222974   5.310   5.283   5.942  0.9349  0.2797 -1.6966
 5802SOL    HW322975   5.340   5.146   5.886  0.8868 -0.7152  0.6219
 5802SOL    MW422976   5.339   5.202   5.953 -0.0631  0.1039 -0.0500
 5803SOL     OW22977   6.107   1.440   0.147  0.2820 -0.7444  0.3064
 5803SOL    HW222978   6.040   1.403   0.204 -1.6950  0.4348 -1.1120
 5803SOL    HW322979   6.179   1.463   0.206 -0.3243 -2.4884  1.8275
 5803SOL    MW422980   6.107   1.438   0.162 -0.0588 -0.8189  0.3200
 5804SOL     OW22981   5.673   0.783   3.019  0.9479  0.2791 -0.6883
 5804SOL    HW222982   5.604   0.774   2.953  0.9667  1.1853 -0.8529
 5804SOL    HW322983   5.751   0.748   2.976  0.7973  0.1505 -0.8609
 5804SOL    MW422984   5.674   0.777   3.004  0.9305  0.3817 -0.7328
 5805SOL     OW22985   6.446   5.116   6.390  0.4156  0.0778 -0.0174
 5805SOL    HW222986   6.389   5.192   6.404  0.5461  0.1683  0.0216
 5805SOL    HW322987   6.389   5.040   6.404 -0.1282  0.1426 -1.6071
 5805SOL    MW422988   6.431   5.116   6.393  0.3610  0.0983 -0.2220
 5806SOL     OW22989   5.977   3.039   0.529  0.1030 -0.1676 -0.2773
 5806SOL    HW222990   6.072   3.041   0.541  0.0070  0.0525  0.5003
 5806SOL    HW322991   5.952   3.131   0.518 -0.0544 -0.1970 -0.1757
 5806SOL    MW422992   5.986   3.051   0.529  0.0695 -0.1424 -0.1613
 5807SOL     OW22993   0.482   1.857   2.433  0.0252  1.1050 -0.2498
 5807SOL    HW222994   0.545   1.813   2.375 -0.5129  1.1055 -0.8513
 5807SOL    HW322995   0.488   1.949   2.408 -0.4936  1.0508 -0.5864
 5807SOL    MW422996   0.491   1.863   2.422 -0.1143  1.0979 -0.3736
 5808SOL     OW22997   5.860   1.595   4.985 -0.2268 -0.1730  0.4766
 5808SOL    HW222998   5.954   1.614   4.988 -0.0598 -0.9546  0.3323
 5808SOL    HW322999   5.854   1.503   5.011 -0.8069 -0.6123 -1.1512
 5808SOL    MW423000   5.872   1.586   4.989 -0.2813 -0.3341  0.2428
 5809SOL     OW23001   5.514   2.141   5.355  0.6716 -0.6973 -0.0379
 5809SOL    HW223002   5.444   2.169   5.414  0.3500 -3.3056  0.9578
 5809SOL    HW323003   5.471   2.124   5.272  0.5497 -0.1340 -0.0943
 5809SOL    MW423004   5.499   2.143   5.352  0.6131 -0.9671  0.0860
 5810SOL     OW23005   4.581   4.172   3.581 -0.1981 -0.0453 -0.2707
 5810SOL    HW223006   4.569   4.103   3.646 -1.1296  0.2449 -0.1182
 5810SOL    HW323007   4.535   4.247   3.617  0.6324  0.6042 -0.5316
 5810SOL    MW423008   4.573   4.173   3.594 -0.2114  0.0787 -0.2850
 5811SOL     OW23009   1.313   5.856   1.349  0.1332 -0.4624 -0.4785
 5811SOL    HW223010   1.295   5.902   1.267  0.0809 -0.6036 -0.5471
 5811SOL    HW323011   1.250   5.784   1.349  0.6677 -0.9333 -0.6946
 5811SOL    MW423012   1.302   5.853   1.338  0.1968 -0.5432 -0.5160
 5812SOL     OW23013   4.745   1.905   6.294  0.1276  0.3990 -0.9145
 5812SOL    HW223014   4.818   1.879   6.351 -1.1691  1.1568  1.2305
 5812SOL    HW323015   4.667   1.894   6.349 -1.0534  2.7407 -1.9696
 5812SOL    MW423016   4.744   1.900   6.309 -0.1993  0.8079 -0.7707
 5813SOL     OW23017   1.091   2.705   0.289  0.2425  0.1291 -0.5464
 5813SOL    HW223018   1.054   2.699   0.377 -1.5080  0.0782 -1.2397
 5813SOL    HW323019   1.020   2.743   0.237  1.1046 -0.2298 -2.0176
 5813SOL    MW423020   1.077   2.709   0.294  0.1253  0.0751 -0.8320
 5814SOL     OW23021   1.851   0.208   1.676 -0.1832  0.1965  0.0896
 5814SOL    HW223022   1.755   0.203   1.681 -0.3463  1.6989 -0.9848
 5814SOL    HW323023   1.876   0.264   1.749 -0.2790  1.1355 -0.5894
 5814SOL    MW423024   1.841   0.214   1.686 -0.2174  0.5186 -0.1417
 5815SOL     OW23025   1.304   3.289   3.163  0.3923 -0.4574 -0.5294
 5815SOL    HW223026   1.299   3.239   3.245  0.9335 -0.2266 -0.3451
 5815SOL    HW323027   1.375   3.351   3.178  1.1029 -1.0105 -1.5050
 5815SOL    MW423028   1.313   3.291   3.176  0.5575 -0.4999 -0.6338
 5816SOL     OW23029   6.106   1.736   5.453 -0.0493  0.3562  0.0627
 5816SOL    HW223030   6.025   1.733   5.401 -0.3198 -0.8445  0.5070
 5816SOL    HW323031   6.081   1.784   5.532 -0.8442 -1.4330  0.9649
 5816SOL    MW423032   6.092   1.742   5.456 -0.1899 -0.0383  0.2403
 5817SOL     OW23033   2.570   0.056   0.403  0.0239  0.0468  0.1970
 5817SOL    HW223034   2.557   0.004   0.324  1.4103  0.3509 -0.2691
 5817SOL    HW323035   2.482   0.076   0.434 -0.5385 -0.6527 -0.8863
 5817SOL    MW423036   2.557   0.052   0.397  0.1326 -0.0054 -0.0074
 5818SOL     OW23037   3.084   3.843   4.722  0.4002 -0.0147 -0.4102
 5818SOL    HW223038   3.010   3.885   4.766 -0.6741 -1.0178 -1.2062
 5818SOL    HW323039   3.112   3.907   4.657 -0.2929  0.0539 -0.6465
 5818SOL    MW423040   3.078   3.857   4.719  0.1670 -0.1380 -0.5464
 5819SOL     OW23041   1.252   2.270   1.522 -0.2220 -0.4365  0.2973
 5819SOL    HW223042   1.174   2.252   1.576 -0.9697 -0.0765 -0.6458
 5819SOL    HW323043   1.308   2.194   1.536 -1.1567 -1.1476  0.2662
 5819SOL    MW423044   1.249   2.257   1.531 -0.4440 -0.4828  0.1688
 5820SOL     OW23045   6.167   4.533   5.772  0.3950 -0.1057  0.3160
 5820SOL    HW223046   6.155   4.605   5.834 -1.2408  0.1584 -0.2455
 5820SOL    HW323047   6.142   4.455   5.822 -2.8172  0.2923 -0.4156
 5820SOL    MW423048   6.162   4.532   5.787 -0.2446 -0.0183  0.1454
 5821SOL     OW23049   1.988   5.247   5.825 -0.0520 -0.7813  0.0258
 5821SOL    HW223050   2.073   5.203   5.830  0.9497  1.1813  1.4881
 5821SOL    HW323051   1.947   5.229   5.910  0.1333  0.5685  0.4250
 5821SOL    MW423052   1.994   5.239   5.837  0.1046 -0.3443  0.2714
 5822SOL     OW23053   1.696   4.270   5.423 -0.9849 -0.5392 -0.4749
 5822SOL    HW223054   1.644   4.290   5.501  0.0175 -0.0645  0.0941
 5822SOL    HW323055   1.707   4.175   5.425 -0.1749 -0.4422  0.5032
 5822SOL    MW423056   1.691   4.260   5.433 -0.7458 -0.4638 -0.2707
 5823SOL     OW23057   1.886   4.467   0.432 -0.1467  0.0996  0.4488
 5823SOL    HW223058   1.933   4.544   0.399  0.5801  0.2790  1.8154
 5823SOL    HW323059   1.944   4.393   0.413 -0.3183  0.0329  0.1768
 5823SOL    MW423060   1.900   4.468   0.425 -0.0735  0.1145  0.5932
 5824SOL     OW23061   1.370   1.833   2.164  0.0334  0.1714  0.4478
 5824SOL    HW223062   1.350   1.780   2.086  0.0780  0.0663  0.5070
 5824SOL    HW323063   1.463   1.856   2.154 -0.6240  2.4575 -0.9052
 5824SOL    MW423064   1.380   1.829   2.152 -0.0475  0.4592  0.2771
 5825SOL     OW23065   1.145   2.725   5.546  0.0511 -0.1035 -0.3638
 5825SOL    HW223066   1.097   2.757   5.469  1.7425  0.7355 -1.1268
 5825SOL    HW323067   1.129   2.631   5.546  1.7460 -0.5194 -3.1281
 5825SOL    MW423068   1.136   2.717   5.536  0.4979 -0.0477 -0.8292
 5826SOL     OW23069   3.523   2.946   4.804 -0.0827 -0.1441  0.0578
 5826SOL    HW223070   3.458   2.893   4.850  0.0849  1.0412  1.7134
 5826SOL    HW323071   3.477   3.026   4.780  0.0265 -0.4489 -1.3012
 5826SOL    MW423072   3.509   2.949   4.807 -0.0462 -0.0279  0.0969
 5827SOL     OW23073   3.686   3.029   1.448 -0.8892 -0.2543  0.2691
 5827SOL    HW223074   3.737   3.104   1.478 -1.7971 -0.1409  1.6373
 5827SOL    HW323075   3.708   3.020   1.355  1.5275 -0.1720  0.7641
 5827SOL    MW423076   3.696   3.038   1.440 -0.6901 -0.2284  0.5149
 5828SOL     OW23077   5.910   0.402   5.061 -0.1473 -0.5536 -0.0942
 5828SOL    HW223078   5.850   0.390   4.988  0.5275  2.1920 -1.2314
 5828SOL    HW323079   5.861   0.455   5.124 -0.0111 -1.0725  0.4498
 5828SOL    MW423080   5.896   0.408   5.060 -0.0403 -0.2598 -0.1724
 5829SOL     OW23081   2.502   3.171   3.752  0.2394 -0.2213  0.3098
 5829SOL    HW223082   2.566   3.100   3.744  0.8623  0.5006 -2.0778
 5829SOL    HW323083   2.425   3.140   3.703 -0.1679  0.0472  0.7697
 5829SOL    MW423084   2.500   3.157   3.744  0.2679 -0.0906  0.0555
 5830SOL     OW23085   6.044   2.247   0.514 -0.3056  0.3581 -0.4111
 5830SOL    HW223086   6.084   2.326   0.477 -0.1156  0.6792  0.4448
 5830SOL    HW323087   5.953   2.271   0.529  0.0955  0.9565  1.2750
 5830SOL    MW423088   6.038   2.261   0.511 -0.2276  0.4794 -0.0757
 5831SOL     OW23089   1.050   3.404   2.261  0.7314  0.2795  0.1440
 5831SOL    HW223090   1.134   3.377   2.225  1.0640  0.2170  0.9555
 5831SOL    HW323091   1.021   3.330   2.314  1.2808  1.1771  1.7552
 5831SOL    MW423092   1.057   3.391   2.263  0.8478  0.3897  0.4636
 5832SOL     OW23093   0.283   1.221   2.920  0.0913 -0.6372  0.1550
 5832SOL    HW223094   0.329   1.251   2.842 -0.8980  1.3215  0.2694
 5832SOL    HW323095   0.192   1.246   2.906  0.0275  0.5620  2.2797
 5832SOL    MW423096   0.277   1.228   2.908 -0.0476 -0.2206  0.4504
 5833SOL     OW23097   6.193   0.664   1.348  0.3682  0.0190  0.1837
 5833SOL    HW223098   6.218   0.668   1.256 -0.5869 -1.3257 -0.1626
 5833SOL    HW323099   6.191   0.755   1.377  0.1366  0.4897 -1.2776
 5833SOL    MW423100   6.196   0.676   1.340  0.2117 -0.0963 -0.0548
 5834SOL     OW23101   1.672   3.958   3.646 -0.0243 -0.0118  0.6144
 5834SOL    HW223102   1.616   3.903   3.591 -0.7016  0.1551  1.1248
 5834SOL    HW323103   1.745   3.982   3.589 -0.2166 -0.6367  0.0877
 5834SOL    MW423104   1.674   3.954   3.631 -0.1390 -0.0722  0.6123
 5835SOL     OW23105   1.396   2.687   4.620  0.2201  0.0050 -0.1296
 5835SOL    HW223106   1.460   2.705   4.551 -1.0520  0.3288 -1.2681
 5835SOL    HW323107   1.447   2.688   4.701  1.9269 -1.2832 -1.1104
 5835SOL    MW423108   1.411   2.689   4.622  0.2774 -0.1223 -0.4092
 5836SOL     OW23109   3.197   1.018   3.151 -0.1549  0.0260  0.2881
 5836SOL    HW223110   3.227   1.036   3.240  0.7038 -1.5186  0.3557
 5836SOL    HW323111   3.102   1.023   3.156 -0.0771  0.9712  1.0497
 5836SOL    MW423112   3.188   1.021   3.164 -0.0313 -0.0531  0.3975
 5837SOL     OW23113   3.199   4.450   4.040 -0.2989 -0.4468  0.3390
 5837SOL    HW223114   3.158   4.368   4.013 -0.4165 -0.4518  0.5302
 5837SOL    HW323115   3.143   4.519   4.004 -0.2736 -0.4500  0.2929
 5837SOL    MW423116   3.186   4.448   4.032 -0.3111 -0.4478  0.3581
 5838SOL     OW23117   5.539   3.783   1.411  0.2004 -0.3264  0.0067
 5838SOL    HW223118   5.580   3.697   1.422 -0.2705 -0.8067 -1.7131
 5838SOL    HW323119   5.606   3.836   1.368 -0.1782 -0.4371 -0.7331
 5838SOL    MW423120   5.554   3.779   1.407  0.0883 -0.4044 -0.3178
 5839SOL     OW23121   4.696   4.616   5.581  0.2143  0.6459 -0.1282
 5839SOL    HW223122   4.604   4.612   5.608 -0.0223 -0.2904 -1.0470
 5839SOL    HW323123   4.717   4.710   5.584 -0.8906  0.9168 -0.3417
 5839SOL    MW423124   4.687   4.628   5.585  0.0373  0.5581 -0.2776
 5840SOL     OW23125   3.075   0.272   4.422 -0.1814 -0.7185  0.5625
 5840SOL    HW223126   3.134   0.210   4.380 -0.3350 -1.4651  1.4231
 5840SOL    HW323127   2.987   0.238   4.405 -0.6671  1.6741 -2.8615
 5840SOL    MW423128   3.071   0.260   4.414 -0.2658 -0.5013  0.2243
 5841SOL     OW23129   0.100   5.581   4.570  0.1422  0.2669 -0.0357
 5841SOL    HW223130   0.031   5.634   4.529 -1.9724 -0.3198  2.5222
 5841SOL    HW323131   0.070   5.491   4.559  0.0767  0.0464  1.7130
 5841SOL    MW423132   0.087   5.576   4.563 -0.1455  0.1604  0.5325
 5842SOL     OW23133   5.265   1.023   1.521 -0.0735  0.2919 -0.4002
 5842SOL    HW223134   5.200   1.091   1.538  0.3844  1.2607 -2.2417
 5842SOL    HW323135   5.224   0.942   1.552 -1.3003  1.1706  0.3384
 5842SOL    MW423136   5.251   1.021   1.527 -0.1749  0.5357 -0.5457
 5843SOL     OW23137   4.593   2.272   1.391  0.2039 -0.0370 -0.5161
 5843SOL    HW223138   4.556   2.348   1.435 -2.1399 -1.8359  0.8921
 5843SOL    HW323139   4.651   2.232   1.455  0.3590 -0.1845 -0.7450
 5843SOL    MW423140   4.596   2.276   1.405 -0.0848 -0.2938 -0.3605
 5844SOL     OW23141   4.510   2.394   6.257  0.2922 -0.4598  0.2086
 5844SOL    HW223142   4.517   2.326   6.325 -1.5246 -0.7187  0.1873
 5844SOL    HW323143   4.432   2.370   6.207  0.5611  0.7469 -0.8559
 5844SOL    MW423144   4.501   2.382   6.259  0.0880 -0.3348  0.0654
 5845SOL     OW23145   1.231   1.422  -0.003  0.1820  0.1885  0.6794
 5845SOL    HW223146   1.248   1.514  -0.024 -0.6475  0.4024  0.8946
 5845SOL    HW323147   1.301   1.374  -0.047  0.8771  0.9542  0.9282
 5845SOL    MW423148   1.242   1.428  -0.012  0.1642  0.3178  0.7406
 5846SOL     OW23149   1.959   0.925   0.625  0.0924 -0.2658  0.4537
 5846SOL    HW223150   1.945   0.980   0.548 -0.2527 -0.4841  0.3536
 5846SOL    HW323151   1.997   0.844   0.590 -0.5134 -0.5538  0.4462
 5846SOL    MW423152   1.962   0.921   0.610 -0.0331 -0.3326  0.4395
 5847SOL     OW23153   2.863   4.434   5.732 -0.1125 -0.1107  0.0633
 5847SOL    HW223154   2.802   4.370   5.770 -1.4341 -0.0954 -1.8966
 5847SOL    HW323155   2.950   4.398   5.750 -0.5840 -0.0762  3.0755
 5847SOL    MW423156   2.866   4.421   5.740 -0.3491 -0.1041  0.2021
 5848SOL     OW23157   0.091   1.003   4.590  0.1716 -0.4581  0.0239
 5848SOL    HW223158   0.142   1.062   4.645 -0.0897 -0.4519  0.2592
 5848SOL    HW323159   0.058   0.936   4.650  1.3611 -1.4753 -0.3933
 5848SOL    MW423160   0.093   1.002   4.605  0.2941 -0.5915 -0.0001
 5849SOL     OW23161   6.022   5.667   5.322 -0.0335 -0.2837 -0.3216
 5849SOL    HW223162   6.064   5.700   5.401 -1.1433  4.9496 -1.5509
 5849SOL    HW323163   5.956   5.606   5.353  1.3117 -0.4613  2.4822
 5849SOL    MW423164   6.019   5.663   5.337 -0.0025  0.3833 -0.1139
 5850SOL     OW23165   5.903   4.733   5.970  0.0565  0.2754  0.4818
 5850SOL    HW223166   5.840   4.682   5.920  1.0239 -0.9942  0.4930
 5850SOL    HW323167   5.895   4.701   6.060  0.6912  0.0906  0.4825
 5850SOL    MW423168   5.894   4.722   5.975  0.2679  0.0835  0.4834
 5851SOL     OW23169   1.020   3.618   1.309 -0.3425 -0.9510  0.1432
 5851SOL    HW223170   1.097   3.562   1.319 -0.3032 -1.0325 -0.5837
 5851SOL    HW323171   1.054   3.702   1.278 -0.4001 -0.5021  1.2371
 5851SOL    MW423172   1.035   3.622   1.306 -0.3449 -0.9025  0.1916
 5852SOL     OW23173   6.215   4.107   2.420 -0.3189  0.2496 -0.3233
 5852SOL    HW223174   6.287   4.157   2.458  0.3234  0.3038 -1.5571
 5852SOL    HW323175   6.173   4.168   2.359  0.4653 -0.6701 -1.8390
 5852SOL    MW423176   6.219   4.122   2.417 -0.1307  0.1354 -0.6861
 5853SOL     OW23177   1.386   6.351   6.057 -0.1843 -0.1912  0.1396
 5853SOL    HW223178   1.385   6.417   6.126 -1.0435  0.2419 -0.2720
 5853SOL    HW323179   1.436   6.279   6.094 -0.8160 -0.0563  1.3112
 5853SOL    MW423180   1.392   6.350   6.071 -0.3810 -0.1163  0.2398
 5854SOL     OW23181   4.551   6.242   5.364 -0.2782 -0.1638 -0.1257
 5854SOL    HW223182   4.518   6.324   5.401  1.1740 -0.1430  1.2359
 5854SOL    HW323183   4.647   6.252   5.365 -0.1062 -1.4956 -0.8641
 5854SOL    MW423184   4.560   6.254   5.369 -0.0639 -0.3368 -0.0434
 5855SOL     OW23185   2.649   3.037  -0.001 -0.8447  0.0820  0.4046
 5855SOL    HW223186   2.564   3.071  -0.029 -1.0356 -0.5615  0.1901
 5855SOL    HW323187   2.635   2.943   0.010 -0.1342 -0.0460  0.2520
 5855SOL    MW423188   2.636   3.029  -0.004 -0.7761 -0.0198  0.3562
 5856SOL     OW23189   4.723   2.652   2.742 -0.2740  0.0318  0.6356
 5856SOL    HW223190   4.679   2.723   2.790 -0.5926 -0.1325  0.5875
 5856SOL    HW323191   4.697   2.572   2.787  0.7681  0.0099  1.2065
 5856SOL    MW423192   4.714   2.651   2.754 -0.1785  0.0072  0.7046
 5857SOL     OW23193   4.965   0.810   2.468 -0.1022 -0.4547  0.3970
 5857SOL    HW223194   5.049   0.856   2.474 -1.7835  3.3622 -1.9239
 5857SOL    HW323195   4.921   0.830   2.550  0.1897 -0.1294  0.4775
 5857SOL    MW423196   4.970   0.819   2.480 -0.2855  0.0918  0.1014
 5858SOL     OW23197   2.571   3.260   4.529 -0.3245 -0.1883  0.7035
 5858SOL    HW223198   2.478   3.253   4.512 -0.6391  1.5801  1.4692
 5858SOL    HW323199   2.613   3.255   4.443 -0.9493 -2.7458  0.4920
 5858SOL    MW423200   2.565   3.259   4.516 -0.4484 -0.2924  0.7766
 5859SOL     OW23201   2.024   0.684   0.932 -0.4600 -0.3700  0.3457
 5859SOL    HW223202   2.074   0.715   1.007 -0.8952 -2.1928  1.4688
 5859SOL    HW323203   2.063   0.727   0.857  0.0755  1.4211  1.5968
 5859SOL    MW423204   2.036   0.694   0.932 -0.4468 -0.3742  0.6589
 5860SOL     OW23205   1.384   1.620   1.736 -0.1717 -0.1401 -0.7023
 5860SOL    HW223206   1.480   1.618   1.728 -0.2845  0.4511 -3.1219
 5860SOL    HW323207   1.354   1.555   1.672 -1.3998  1.3294 -1.6722
 5860SOL    MW423208   1.393   1.611   1.726 -0.3486  0.1318 -1.1495
 5861SOL     OW23209   2.127   2.256   6.149  0.3317 -0.2640 -0.0404
 5861SOL    HW223210   2.170   2.327   6.197  2.0428 -2.7081  2.3893
 5861SOL    HW323211   2.182   2.241   6.072 -0.4959  1.4736 -1.0133
 5861SOL    MW423212   2.140   2.263   6.145  0.4483 -0.3572  0.1518
 5862SOL     OW23213   6.449   2.651   0.131  0.3972  0.0798 -0.3647
 5862SOL    HW223214   6.403   2.574   0.097 -0.5687  0.1974  0.6012
 5862SOL    HW323215   6.474   2.701   0.053 -1.5554  0.2369 -0.9412
 5862SOL    MW423216   6.446   2.648   0.116  0.0121  0.1161 -0.3133
 5863SOL     OW23217   5.402   2.857   1.066  0.6371  0.6673  0.0739
 5863SOL    HW223218   5.384   2.824   0.979  1.0549  0.4012  0.0847
 5863SOL    HW323219   5.361   2.944   1.068 -0.2641  0.2437 -0.0255
 5863SOL    MW423220   5.394   2.864   1.055  0.5733  0.5763  0.0622
 5864SOL     OW23221   5.644   6.005   5.494 -0.6239 -0.0592  0.0559
 5864SOL    HW223222   5.569   5.946   5.488 -0.0257 -0.7310 -1.3168
 5864SOL    HW323223   5.652   6.043   5.406 -0.0263  0.8545  0.4842
 5864SOL    MW423224   5.635   6.002   5.482 -0.4662 -0.0273 -0.0687
 5865SOL     OW23225   5.857   5.185   2.777 -0.3701 -0.1202 -0.3256
 5865SOL    HW223226   5.859   5.226   2.863  1.5407  1.9265 -1.2483
 5865SOL    HW323227   5.792   5.114   2.785 -1.9259  1.4498  2.1041
 5865SOL    MW423228   5.848   5.181   2.789 -0.3233  0.3570 -0.1267
 5866SOL     OW23229   4.277   0.584   1.140 -0.4313  0.0578  0.3003
 5866SOL    HW223230   4.217   0.572   1.213 -1.2236  0.8110 -0.2076
 5866SOL    HW323231   4.289   0.679   1.135  0.5357 -0.0600  0.1753
 5866SOL    MW423232   4.271   0.595   1.149 -0.4083  0.1416  0.2168
 5867SOL     OW23233   4.350   2.067   1.863  0.2127  0.2357  0.3367
 5867SOL    HW223234   4.415   2.069   1.933  0.6728  0.3112 -0.0911
 5867SOL    HW323235   4.362   2.150   1.817 -0.8704  0.7032  0.8645
 5867SOL    MW423236   4.360   2.078   1.866  0.1305  0.3073  0.3499
 5868SOL     OW23237   4.843   5.329   5.234 -0.2919  0.5545 -0.1623
 5868SOL    HW223238   4.909   5.396   5.255 -1.2329  1.8175 -1.0723
 5868SOL    HW323239   4.857   5.310   5.142  0.3015 -0.9274  0.2103
 5868SOL    MW423240   4.854   5.335   5.225 -0.3377  0.5256 -0.2332
 5869SOL     OW23241   4.957   0.070   3.665 -0.7608  0.0191  0.1037
 5869SOL    HW223242   5.014   0.006   3.707 -0.0663 -0.9212 -2.1494
 5869SOL    HW323243   4.881   0.076   3.723 -0.6259 -2.4600  0.6431
 5869SOL    MW423244   4.955   0.063   3.678 -0.6514 -0.4321 -0.1224
 5870SOL     OW23245   2.750   2.080   5.111 -0.0215 -0.2510  0.2750
 5870SOL    HW223246   2.789   2.113   5.030  0.5970 -1.2172  0.1590
 5870SOL    HW323247   2.679   2.022   5.082 -1.2038  1.0299  0.4775
 5870SOL    MW423248   2.745   2.077   5.097 -0.0959 -0.2095  0.2864
 5871SOL     OW23249   2.802   3.251   4.865 -0.3344 -0.4371 -0.4681
 5871SOL    HW223250   2.811   3.213   4.953 -1.6784  0.3032  0.0124
 5871SOL    HW323251   2.863   3.200   4.811  0.7353 -0.7105  0.9423
 5871SOL    MW423252   2.811   3.239   4.869 -0.3706 -0.3755 -0.2186
 5872SOL     OW23253   5.417   2.299   0.132 -0.5828 -0.0018  0.1243
 5872SOL    HW223254   5.385   2.389   0.129 -0.1015  0.1442 -1.1736
 5872SOL    HW323255   5.512   2.307   0.137 -0.6092 -0.4474  2.3598
 5872SOL    MW423256   5.425   2.312   0.132 -0.5228 -0.0413  0.2480
 5873SOL     OW23257   5.862   2.387   4.423 -0.4188 -0.2563  0.0526
 5873SOL    HW223258   5.781   2.401   4.473  0.0697 -0.7753  1.0179
 5873SOL    HW323259   5.839   2.413   4.334 -1.3108  0.7179  0.5350
 5873SOL    MW423260   5.848   2.393   4.418 -0.4720 -0.1963  0.2436
 5874SOL     OW23261   3.743   1.675   2.386 -0.1522 -0.4617 -0.1487
 5874SOL    HW223262   3.763   1.596   2.337  0.7329  1.1406 -2.5315
 5874SOL    HW323263   3.822   1.692   2.437  0.4661 -0.0510 -1.2052
 5874SOL    MW423264   3.756   1.667   2.386  0.0462 -0.1961 -0.6025
 5875SOL     OW23265   5.900   3.064   4.505 -0.0787  0.3808  0.3935
 5875SOL    HW223266   5.989   3.032   4.517 -0.3099 -0.3614  0.2161
 5875SOL    HW323267   5.878   3.107   4.588  1.0584  2.1546 -0.1749
 5875SOL    MW423268   5.909   3.065   4.518  0.0408  0.5169  0.2951
 5876SOL     OW23269   3.166   4.156   4.715 -0.2568 -0.0355 -0.4661
 5876SOL    HW223270   3.160   4.251   4.727  0.2475 -0.1657  1.0035
 5876SOL    HW323271   3.165   4.121   4.804 -3.3308 -1.6463 -1.0100
 5876SOL    MW423272   3.165   4.164   4.728 -0.5958 -0.2652 -0.3440
 5877SOL     OW23273   5.341   5.796   5.235  0.2004 -0.1700 -0.1638
 5877SOL    HW223274   5.363   5.813   5.327  2.2912 -1.6156 -0.3400
 5877SOL    HW323275   5.337   5.701   5.228  1.1108 -0.1159 -1.7791
 5877SOL    MW423276   5.343   5.786   5.246  0.5964 -0.3536 -0.4001
 5878SOL     OW23277   1.761   0.780   6.224  0.3130  0.3213 -0.1815
 5878SOL    HW223278   1.845   0.753   6.259 -0.5320 -1.3215  0.6761
 5878SOL    HW323279   1.720   0.831   6.294 -0.1567 -0.4783  0.1454
 5878SOL    MW423280   1.766   0.783   6.238  0.1396 -0.0010 -0.0252
 5879SOL     OW23281   5.227   5.127   2.499 -0.7439 -0.3423  0.0803
 5879SOL    HW223282   5.228   5.044   2.547 -0.9704 -0.2075  0.3158
 5879SOL    HW323283   5.306   5.123   2.444 -0.0401 -0.1663  1.0342
 5879SOL    MW423284   5.238   5.115   2.498 -0.6809 -0.3013  0.2372
 5880SOL     OW23285   6.349   1.613   0.138 -0.5841  0.7457  0.3917
 5880SOL    HW223286   6.307   1.656   0.213 -0.0645  2.5016 -0.2524
 5880SOL    HW323287   6.414   1.677   0.108  0.0188 -0.4015 -0.8405
 5880SOL    MW423288   6.352   1.627   0.144 -0.4360  0.8260  0.1441
 5881SOL     OW23289   6.005   1.004   0.769  0.0724 -0.3306  0.2337
 5881SOL    HW223290   6.045   1.070   0.713  2.2096 -0.5366  1.4255
 5881SOL    HW323291   6.079   0.959   0.811 -1.3681 -2.0158  1.1288
 5881SOL    MW423292   6.020   1.007   0.767  0.1643 -0.5801  0.5090
 5882SOL     OW23293   4.728   5.665   5.087 -0.3311  0.5521  0.7271
 5882SOL    HW223294   4.657   5.717   5.049 -2.3084 -0.7423  2.4107
 5882SOL    HW323295   4.761   5.720   5.158 -1.1166  0.3314  1.2800
 5882SOL    MW423296   4.723   5.679   5.092 -0.6956  0.3522  1.0222
 5883SOL     OW23297   5.736   0.370   3.877 -0.1259  0.1590 -0.1392
 5883SOL    HW223298   5.735   0.316   3.798 -1.9090  0.3603 -0.2817
 5883SOL    HW323299   5.741   0.307   3.949  0.5744 -0.0576 -0.3641
 5883SOL    MW423300   5.737   0.355   3.876 -0.2688  0.1570 -0.1877
 5884SOL     OW23301   4.915   5.229   4.983 -0.0111  0.0084 -0.0628
 5884SOL    HW223302   5.007   5.215   4.961  0.2420 -1.4407  1.7149
 5884SOL    HW323303   4.875   5.142   4.980 -1.0375  0.4434  0.3900
 5884SOL    MW423304   4.922   5.216   4.979 -0.1131 -0.1254  0.2315
 5885SOL     OW23305   4.219   3.452   1.553  0.0995  0.2651  0.4172
 5885SOL    HW223306   4.260   3.365   1.550 -0.8791 -0.2143  0.2407
 5885SOL    HW323307   4.185   3.459   1.642 -0.3389  0.2120  0.2567
 5885SOL    MW423308   4.220   3.441   1.564 -0.0875  0.1948  0.3728
 5886SOL     OW23309   1.330   2.022   5.101  0.1129  0.1493 -0.2722
 5886SOL    HW223310   1.241   2.029   5.136 -0.0890 -1.5960 -0.3561
 5886SOL    HW323311   1.367   1.945   5.144  0.6246 -0.7620 -2.2126
 5886SOL    MW423312   1.323   2.012   5.111  0.1538 -0.2012 -0.5393
 5887SOL     OW23313   1.256   2.703   6.044 -0.7867  0.1144  0.2900
 5887SOL    HW223314   1.351   2.697   6.041 -0.7402  0.4498  0.8645
 5887SOL    HW323315   1.237   2.797   6.053 -1.0527 -0.0945  2.6805
 5887SOL    MW423316   1.266   2.715   6.045 -0.8156  0.1311  0.6812
 5888SOL     OW23317   4.178   6.105   2.588  0.0327 -0.1307 -0.1103
 5888SOL    HW223318   4.086   6.124   2.572 -0.5943 -0.4758  2.6507
 5888SOL    HW323319   4.205   6.169   2.654  2.0892  0.5731 -1.5281
 5888SOL    MW423320   4.169   6.116   2.594  0.2213 -0.0834  0.0669
 5889SOL     OW23321   5.270   4.595   2.933 -0.2559 -0.2684  0.1114
 5889SOL    HW223322   5.304   4.506   2.928  2.5130  0.7167 -0.1462
 5889SOL    HW323323   5.266   4.614   3.027 -1.0202 -0.6834  0.1739
 5889SOL    MW423324   5.274   4.586   2.945  0.0086 -0.1932  0.0857
 5890SOL     OW23325   4.254   3.307   6.336 -0.2235  0.0291 -0.0708
 5890SOL    HW223326   4.191   3.326   6.268 -1.0412 -0.0096  0.6573
 5890SOL    HW323327   4.276   3.215   6.325 -0.3434  0.0279 -0.2826
 5890SOL    MW423328   4.249   3.298   6.326 -0.3472  0.0239 -0.0027
 5891SOL     OW23329   2.344   2.880   3.798 -0.1233 -0.3912  0.3081
 5891SOL    HW223330   2.413   2.939   3.767 -1.1440  0.6826  0.0063
 5891SOL    HW323331   2.298   2.931   3.865 -1.0807 -0.8117 -0.0240
 5891SOL    MW423332   2.347   2.895   3.803 -0.3843 -0.3050  0.2244
 5892SOL     OW23333   2.125   0.518   5.174  0.4965 -0.0114 -0.2177
 5892SOL    HW223334   2.123   0.453   5.104 -0.7918 -0.1112 -0.1091
 5892SOL    HW323335   2.174   0.476   5.245 -1.4822 -1.4619  0.3762
 5892SOL    MW423336   2.131   0.504   5.174  0.0655 -0.2159 -0.1250
 5893SOL     OW23337   4.051   6.183   3.354  0.2656 -0.2762 -0.0429
 5893SOL    HW223338   4.010   6.269   3.360  1.0307  0.0398  1.0365
 5893SOL    HW323339   3.986   6.128   3.313 -0.2314  0.8267 -0.7801
 5893SOL    MW423340   4.037   6.187   3.350  0.3010 -0.0890  0.0023
 5894SOL     OW23341   0.492   1.627   5.165 -0.0113 -0.5886  0.4124
 5894SOL    HW223342   0.578   1.644   5.127 -0.1918 -0.2205  0.1641
 5894SOL    HW323343   0.463   1.545   5.124  0.2718 -0.7764  0.5875
 5894SOL    MW423344   0.499   1.619   5.155  0.0023 -0.5648  0.4028
 5895SOL     OW23345   3.080   1.336   2.501 -0.3462 -0.1583  0.5196
 5895SOL    HW223346   3.175   1.329   2.497 -0.4469 -1.6615 -0.1309
 5895SOL    HW323347   3.054   1.275   2.570 -0.8102  0.7685  1.1901
 5895SOL    MW423348   3.089   1.327   2.510 -0.4207 -0.2343  0.5222
 5896SOL     OW23349   4.204   2.369   5.248 -0.6274  0.1558 -0.7545
 5896SOL    HW223350   4.201   2.347   5.155 -1.6384 -0.4655 -0.5936
 5896SOL    HW323351   4.291   2.342   5.277 -0.6555 -0.5375 -1.3091
 5896SOL    MW423352   4.215   2.363   5.240 -0.7645 -0.0177 -0.8064
 5897SOL     OW23353   5.318   4.749   2.320 -0.2880 -0.3611  0.5910
 5897SOL    HW223354   5.320   4.800   2.239  0.7232 -0.4940  0.5217
 5897SOL    HW323355   5.331   4.658   2.292 -2.3825 -0.7455  0.6818
 5897SOL    MW423356   5.320   4.744   2.306 -0.4309 -0.4294  0.5938
 5898SOL     OW23357   1.552   3.724   4.560 -0.1658  0.2747  0.2007
 5898SOL    HW223358   1.470   3.729   4.511  1.0299  0.1345 -1.9281
 5898SOL    HW323359   1.547   3.797   4.621 -1.9400  0.1562  0.2582
 5898SOL    MW423360   1.540   3.734   4.562 -0.2421  0.2406 -0.0726
 5899SOL     OW23361   0.167   4.486   1.153  0.2930 -0.9354  0.0111
 5899SOL    HW223362   0.113   4.418   1.194 -0.2633  1.1122  2.9599
 5899SOL    HW323363   0.116   4.513   1.076 -0.3271 -2.5576 -0.2037
 5899SOL    MW423364   0.153   4.481   1.148  0.1378 -0.8792  0.3718
 5900SOL     OW23365   6.109   5.039   4.729 -0.4132 -0.2405  0.0711
 5900SOL    HW223366   6.119   5.131   4.704  0.1207  0.2847  2.0711
 5900SOL    HW323367   6.199   5.006   4.732 -0.5931 -0.7983 -0.4887
 5900SOL    MW423368   6.122   5.047   4.726 -0.3665 -0.2448  0.2611
 5901SOL     OW23369   3.428   5.894   4.969  0.0708 -0.0069 -0.0148
 5901SOL    HW223370   3.344   5.878   5.014  0.1187  0.5432  0.2811
 5901SOL    HW323371   3.494   5.879   5.036  0.2528 -1.0339 -0.4067
 5901SOL    MW423372   3.425   5.890   4.984  0.1012 -0.0698 -0.0274
 5902SOL     OW23373   1.111   5.364   0.671  0.0511 -0.2660  0.0223
 5902SOL    HW223374   1.053   5.401   0.737 -0.0826 -1.6124  0.7107
 5902SOL    HW323375   1.068   5.380   0.588 -1.3335 -1.2119  0.5150
 5902SOL    MW423376   1.098   5.371   0.669 -0.1493 -0.5684  0.1781
 5903SOL     OW23377   0.286   5.572   5.810  0.0423 -0.5265  0.4162
 5903SOL    HW223378   0.257   5.636   5.745 -1.5843 -0.8636  0.7655
 5903SOL    HW323379   0.301   5.491   5.760 -0.9766 -0.7206  0.4040
 5903SOL    MW423380   0.284   5.570   5.795 -0.3068 -0.5965  0.4606
 5904SOL     OW23381   3.988   0.832   0.497 -0.1947 -0.5009 -0.2528
 5904SOL    HW223382   4.066   0.777   0.490  0.4237  0.4710 -1.3815
 5904SOL    HW323383   3.921   0.785   0.447 -0.2841 -1.2112  0.5044
 5904SOL    MW423384   3.990   0.819   0.490 -0.1249 -0.4664 -0.3018
 5905SOL     OW23385   3.802   0.795   3.483 -0.3372  0.0085  0.5024
 5905SOL    HW223386   3.868   0.728   3.499 -0.0223  0.3182  0.5078
 5905SOL    HW323387   3.851   0.871   3.453 -0.7779 -0.0607 -0.4300
 5905SOL    MW423388   3.817   0.796   3.481 -0.3538  0.0402  0.3801
 5906SOL     OW23389   2.534   3.921   0.811  0.3049 -0.4503  0.5635
 5906SOL    HW223390   2.558   4.014   0.814 -0.4254 -0.2285 -0.2736
 5906SOL    HW323391   2.607   3.877   0.855  2.3481  0.1945 -1.9282
 5906SOL    MW423392   2.547   3.927   0.817  0.4781 -0.3359  0.1243
 5907SOL     OW23393   4.269   4.837   5.656 -0.4259  0.3554 -0.5453
 5907SOL    HW223394   4.243   4.872   5.741 -2.3843 -1.0488 -0.5145
 5907SOL    HW323395   4.188   4.833   5.605  0.1299 -1.8215 -1.3508
 5907SOL    MW423396   4.255   4.841   5.661 -0.6109 -0.1171 -0.6475
 5908SOL     OW23397   4.920   2.292   2.864 -0.0154  0.1080 -0.3069
 5908SOL    HW223398   4.906   2.202   2.892 -0.8960 -0.3464 -2.0973
 5908SOL    HW323399   4.978   2.329   2.931  2.0953 -2.3832 -0.5862
 5908SOL    MW423400   4.926   2.285   2.877  0.1469 -0.2807 -0.5800
 5909SOL     OW23401   4.177   5.091   2.817  0.3199 -0.0445  0.4965
 5909SOL    HW223402   4.195   4.997   2.824  1.4065  0.1641  0.6769
 5909SOL    HW323403   4.128   5.100   2.735 -1.9338 -1.0368  1.6572
 5909SOL    MW423404   4.173   5.080   2.807  0.1659 -0.1479  0.6734
 5910SOL     OW23405   3.809   5.965   1.616 -0.1978 -0.2998 -0.3285
 5910SOL    HW223406   3.781   5.886   1.570 -0.6510 -0.2121 -0.1999
 5910SOL    HW323407   3.892   5.989   1.573  0.6226 -1.5717  0.4797
 5910SOL    MW423408   3.817   5.958   1.604 -0.1494 -0.4561 -0.2049
 5911SOL     OW23409   4.014   6.186   3.951 -0.1732 -0.6370  0.5876
 5911SOL    HW223410   3.946   6.216   3.891 -0.3751  1.8212  1.9174
 5911SOL    HW323411   3.979   6.204   4.038  1.4888 -0.9072  1.3522
 5911SOL    MW423412   4.000   6.192   3.955  0.0195 -0.3483  0.8640
 5912SOL     OW23413   5.598   1.708   2.883 -0.0753 -0.6501 -0.7909
 5912SOL    HW223414   5.594   1.614   2.899  1.7845 -1.0782 -2.4581
 5912SOL    HW323415   5.508   1.739   2.898 -0.4978 -2.4616  0.8357
 5912SOL    MW423416   5.586   1.700   2.887  0.1143 -0.9456 -0.7963
 5913SOL     OW23417   0.128   0.539   5.692 -0.7009  0.0516  0.2797
 5913SOL    HW223418   0.190   0.581   5.632 -0.1766  0.6823  1.2287
 5913SOL    HW323419   0.042   0.567   5.660 -0.4588 -0.0352 -0.4706
 5913SOL    MW423420   0.124   0.549   5.680 -0.5998  0.1233  0.3059
 5914SOL     OW23421   0.762   4.141   4.166  0.4518 -0.3833  0.4044
 5914SOL    HW223422   0.666   4.142   4.171  0.4844  1.4061  1.2164
 5914SOL    HW323423   0.791   4.121   4.255  0.8474  0.1455  0.3928
 5914SOL    MW423424   0.753   4.138   4.178  0.5083 -0.0774  0.5100
 5915SOL     OW23425   5.880   4.208   4.788  0.2102 -0.2344 -0.0086
 5915SOL    HW223426   5.877   4.302   4.800  1.3937 -0.1780 -0.0286
 5915SOL    HW323427   5.911   4.196   4.698 -2.5436 -0.6626 -1.0010
 5915SOL    MW423428   5.884   4.219   4.778  0.0030 -0.2835 -0.1422
 5916SOL     OW23429   4.794   1.611   5.466 -0.1403 -0.6157  0.0359
 5916SOL    HW223430   4.848   1.669   5.519  0.6225 -1.3033  0.0287
 5916SOL    HW323431   4.752   1.668   5.402  0.5502 -0.0727  0.0612
 5916SOL    MW423432   4.796   1.626   5.465  0.0514 -0.6348  0.0383
 5917SOL     OW23433   1.749   6.346   3.846  0.1491 -0.5333 -0.1801
 5917SOL    HW223434   1.737   6.288   3.922  2.0286 -0.6386  0.0821
 5917SOL    HW323435   1.695   6.422   3.865 -0.6130 -1.2329  0.5328
 5917SOL    MW423436   1.740   6.348   3.859  0.2966 -0.6395 -0.0515
 5918SOL     OW23437   5.593   5.144   3.349  0.2608  0.2584 -0.3117
 5918SOL    HW223438   5.614   5.226   3.393 -1.1504  0.9512 -0.8776
 5918SOL    HW323439   5.497   5.145   3.339  0.4038 -0.4897 -2.1836
 5918SOL    MW423440   5.583   5.155   3.353  0.0935  0.2511 -0.6333
 5919SOL     OW23441   2.597   2.970   4.242  0.0171  0.0967  0.2891
 5919SOL    HW223442   2.675   2.915   4.250  0.6369  0.9498  0.3377
 5919SOL    HW323443   2.526   2.918   4.279  0.3194 -1.1715 -0.8469
 5919SOL    MW423444   2.598   2.956   4.248  0.1388  0.0419  0.1456
 5920SOL     OW23445   5.471   4.681   0.259  0.1074 -0.1844 -0.1358
 5920SOL    HW223446   5.396   4.707   0.206 -0.4508 -0.3886  0.5344
 5920SOL    HW323447   5.527   4.759   0.263  1.0896 -0.6817 -2.5121
 5920SOL    MW423448   5.469   4.695   0.253  0.1634 -0.2769 -0.3609
 5921SOL     OW23449   1.323   4.397   0.702  0.1037 -0.3460  0.7544
 5921SOL    HW223450   1.285   4.444   0.628  0.8045 -1.7751 -0.5772
 5921SOL    HW323451   1.309   4.305   0.682  0.3769 -0.7857  2.3885
 5921SOL    MW423452   1.316   4.391   0.690  0.2322 -0.5925  0.7944
 5922SOL     OW23453   5.445   3.574   2.739 -0.0243 -0.1962 -0.6516
 5922SOL    HW223454   5.518   3.616   2.785 -1.5313  1.7666  0.1278
 5922SOL    HW323455   5.463   3.588   2.646 -0.2626  1.9464 -0.4250
 5922SOL    MW423456   5.457   3.582   2.733 -0.2546  0.3454 -0.5189
 5923SOL     OW23457   6.127   6.020   3.238  0.0736 -0.4969  0.2167
 5923SOL    HW223458   6.108   6.072   3.160  1.5992  0.2781  0.3285
 5923SOL    HW323459   6.202   5.966   3.214  2.6427  1.9725  1.9797
 5923SOL    MW423460   6.134   6.020   3.225  0.6139 -0.0689  0.4641
 5924SOL     OW23461   5.667   3.285   1.974 -0.3870 -0.2496  0.3915
 5924SOL    HW223462   5.761   3.300   1.984 -0.0897 -2.4628  1.5413
 5924SOL    HW323463   5.628   3.321   2.054 -0.5349  0.6218 -0.0619
 5924SOL    MW423464   5.674   3.292   1.986 -0.3673 -0.4266  0.4834
 5925SOL     OW23465   5.997   4.321   5.462 -0.1351  0.1090  0.4556
 5925SOL    HW223466   6.063   4.387   5.484 -0.4960  0.3746  0.7577
 5925SOL    HW323467   5.936   4.323   5.536 -1.3483  0.9827 -0.5159
 5925SOL    MW423468   5.997   4.330   5.474 -0.3428  0.2593  0.3673
 5926SOL     OW23469   1.805   1.366   3.459  0.4836  0.2933 -0.0589
 5926SOL    HW223470   1.788   1.369   3.365 -0.9690  0.3431  0.1803
 5926SOL    HW323471   1.813   1.458   3.485  0.4882  0.2992 -0.0806
 5926SOL    MW423472   1.804   1.378   3.450  0.2925  0.3007 -0.0302
 5927SOL     OW23473   4.355   5.649   4.212  0.3174 -0.1577  0.5362
 5927SOL    HW223474   4.401   5.567   4.192 -0.5026 -0.3731 -0.5510
 5927SOL    HW323475   4.406   5.717   4.168  1.0823 -0.0505  1.5626
 5927SOL    MW423476   4.368   5.647   4.204  0.3101 -0.1719  0.5282
 5928SOL     OW23477   3.412   2.238   0.255  0.4309  0.1446  0.2612
 5928SOL    HW223478   3.444   2.182   0.326  0.0149 -0.4629 -0.0255
 5928SOL    HW323479   3.486   2.243   0.194  0.4610 -0.1135  0.2748
 5928SOL    MW423480   3.426   2.231   0.256  0.3800  0.0304  0.2252
 5929SOL     OW23481   0.827   3.764   4.235 -0.0106 -0.3655 -0.0803
 5929SOL    HW223482   0.794   3.764   4.325  1.2607  0.5497  0.4143
 5929SOL    HW323483   0.882   3.685   4.231  1.0293  0.3142  0.3934
 5929SOL    MW423484   0.830   3.753   4.247  0.2944 -0.1551  0.0474
 5930SOL     OW23485   0.363   4.029   4.769  0.2907 -0.1593  0.2839
 5930SOL    HW223486   0.315   4.034   4.851  1.1415 -2.2433  0.9667
 5930SOL    HW323487   0.319   4.092   4.712 -1.0377  0.5078  1.9535
 5930SOL    MW423488   0.351   4.038   4.772  0.2277 -0.3463  0.5943
 5931SOL     OW23489   1.104   3.029   5.043  0.6679 -0.2798 -0.3284
 5931SOL    HW223490   1.083   3.122   5.036 -0.7195 -0.6093 -0.7872
 5931SOL    HW323491   1.193   3.027   5.077 -0.0474  1.2175  1.8675
 5931SOL    MW423492   1.113   3.041   5.047  0.3905 -0.1257 -0.0992
 5932SOL     OW23493   5.306   1.112   0.267 -0.4757 -0.1352 -0.1952
 5932SOL    HW223494   5.391   1.068   0.269 -0.4866 -0.1756 -0.4824
 5932SOL    HW323495   5.290   1.126   0.173 -1.4534 -1.4323 -0.2551
 5932SOL    MW423496   5.315   1.108   0.255 -0.6062 -0.3117 -0.2410
 5933SOL     OW23497   4.319   3.155   0.964 -0.9441 -0.3898 -0.3386
 5933SOL    HW223498   4.359   3.193   0.885 -2.1999  1.0551 -0.3094
 5933SOL    HW323499   4.314   3.228   1.025 -1.7668 -1.0443  0.3838
 5933SOL    MW423500   4.324   3.170   0.961 -1.2183 -0.2855 -0.2394
 5934SOL     OW23501   0.353   5.784   3.640  0.7549  0.1825  0.1581
 5934SOL    HW223502   0.263   5.817   3.648  1.4522  1.9644  1.4839
 5934SOL    HW323503   0.373   5.748   3.726  0.4680 -2.7757 -0.8938
 5934SOL    MW423504   0.344   5.784   3.652  0.8091  0.0273  0.1942
 5935SOL     OW23505   3.647   0.417   2.619  0.0096  0.5673  0.4096
 5935SOL    HW223506   3.733   0.444   2.652  0.9881 -0.2805 -1.2885
 5935SOL    HW323507   3.616   0.353   2.683  0.9028  0.4555  0.7496
 5935SOL    MW423508   3.655   0.412   2.632  0.2565  0.4407  0.2304
 5936SOL     OW23509   2.836   3.345   0.272  0.0637 -0.1618 -0.2553
 5936SOL    HW223510   2.760   3.293   0.246 -0.3548  0.2046  0.2236
 5936SOL    HW323511   2.826   3.359   0.366  0.5456  0.1806 -0.2468
 5936SOL    MW423512   2.825   3.340   0.281  0.0721 -0.0683 -0.1910
 5937SOL     OW23513   4.250   4.131   0.029 -0.0451 -0.0982 -0.3126
 5937SOL    HW223514   4.249   4.054  -0.028  2.2935  0.6599 -1.5272
 5937SOL    HW323515   4.311   4.107   0.099 -0.8941 -0.0623  0.4559
 5937SOL    MW423516   4.258   4.117   0.031  0.1514  0.0066 -0.3714
 5938SOL     OW23517   4.964   0.990   2.061 -0.3353 -0.2772  0.1757
 5938SOL    HW223518   4.979   1.010   1.969  1.2932  0.5646  0.5885
 5938SOL    HW323519   4.884   1.039   2.083 -0.5573 -0.2277 -0.6915
 5938SOL    MW423520   4.955   0.999   2.052 -0.1497 -0.1596  0.1158
 5939SOL     OW23521   6.058   0.693   3.163 -0.4759  0.1244 -0.2288
 5939SOL    HW223522   6.014   0.667   3.082 -0.6591  0.7810 -0.3424
 5939SOL    HW323523   6.139   0.640   3.164 -0.3127  0.3493 -1.0031
 5939SOL    MW423524   6.063   0.682   3.152 -0.4786  0.2407 -0.3460
 5940SOL     OW23525   2.709   6.175   2.026 -0.0955  0.2600 -0.4441
 5940SOL    HW223526   2.739   6.110   1.962 -1.0836  1.5190 -2.2592
 5940SOL    HW323527   2.772   6.246   2.018  0.4357 -0.0462  0.8505
 5940SOL    MW423528   2.721   6.175   2.017 -0.1558  0.3857 -0.5127
 5941SOL     OW23529   2.014   1.420   2.582  0.7019 -0.2326  0.0150
 5941SOL    HW223530   2.031   1.490   2.519 -0.9424 -0.6159 -0.9131
 5941SOL    HW323531   1.992   1.344   2.528  0.9510 -1.0593  1.0319
 5941SOL    MW423532   2.013   1.419   2.567  0.5178 -0.3923  0.0267
 5942SOL     OW23533   0.831   4.471   0.816 -0.1329 -0.6758 -0.2579
 5942SOL    HW223534   0.840   4.382   0.780  0.7419 -1.1109  0.9594
 5942SOL    HW323535   0.891   4.524   0.764 -0.3421 -0.8782 -0.7161
 5942SOL    MW423536   0.840   4.466   0.805 -0.0451 -0.7599 -0.1578
 5943SOL     OW23537   4.993   4.808   4.821 -0.2073 -0.0640 -0.2576
 5943SOL    HW223538   4.971   4.778   4.733 -1.5278 -0.7663  0.2840
 5943SOL    HW323539   5.078   4.849   4.812 -0.3314 -0.1148 -1.8677
 5943SOL    MW423540   5.001   4.810   4.808 -0.3979 -0.1634 -0.3986
 5944SOL     OW23541   3.075   4.028   3.627 -0.6183  0.1284  0.4032
 5944SOL    HW223542   3.154   3.990   3.665 -0.0788  1.4628  0.6900
 5944SOL    HW323543   3.071   4.117   3.664 -1.5914  0.5070 -0.5502
 5944SOL    MW423544   3.085   4.035   3.637 -0.6755  0.3544  0.3153
 5945SOL     OW23545   1.491   0.836   2.704 -0.1531  0.7629 -0.5268
 5945SOL    HW223546   1.528   0.754   2.671 -1.0980  0.3921 -0.7098
 5945SOL    HW323547   1.566   0.893   2.718  0.4177  0.2816 -1.5566
 5945SOL    MW423548   1.506   0.833   2.702 -0.2025  0.6505 -0.6868
 5946SOL     OW23549   4.308   2.193   2.160 -0.5678 -0.1696 -0.0774
 5946SOL    HW223550   4.290   2.180   2.253  0.1877 -0.6732  0.0072
 5946SOL    HW323551   4.269   2.277   2.140 -0.7549 -0.0615  0.6951
 5946SOL    MW423552   4.301   2.202   2.170 -0.4928 -0.2218  0.0357
 5947SOL     OW23553   5.183   5.637   0.188 -0.4183  0.0916 -0.4997
 5947SOL    HW223554   5.258   5.645   0.129 -0.6145  0.8662 -0.6559
 5947SOL    HW323555   5.176   5.543   0.205  0.3272 -0.0307 -0.8173
 5947SOL    MW423556   5.192   5.626   0.182 -0.3458  0.1777 -0.5622
 5948SOL     OW23557   2.581   2.301   6.027 -0.3366  0.0558  0.0052
 5948SOL    HW223558   2.675   2.314   6.015 -0.0986  0.1137  1.6533
 5948SOL    HW323559   2.548   2.387   6.052 -0.3252 -0.4984  2.1060
 5948SOL    MW423560   2.589   2.314   6.029 -0.3037 -0.0097  0.4999
 5949SOL     OW23561   0.907   3.805   0.014 -0.6016 -0.5985 -0.2618
 5949SOL    HW223562   0.870   3.859  -0.056 -1.3510 -0.0137  0.5593
 5949SOL    HW323563   0.865   3.720   0.003 -0.1328 -0.7454 -0.9849
 5949SOL    MW423564   0.896   3.801   0.003 -0.6386 -0.5407 -0.2488
 5950SOL     OW23565   5.855   3.847   4.817 -0.1830  0.1553 -0.0615
 5950SOL    HW223566   5.888   3.871   4.730 -0.5159 -0.4389 -0.3597
 5950SOL    HW323567   5.879   3.921   4.873 -1.0801  1.1383 -0.9252
 5950SOL    MW423568   5.863   3.860   4.813 -0.3453  0.2066 -0.2148
 5951SOL     OW23569   3.091   4.436   4.737  0.1947  0.2450 -0.0375
 5951SOL    HW223570   3.065   4.422   4.828  0.3207  2.1767  0.3369
 5951SOL    HW323571   3.178   4.476   4.743  0.6489 -0.5545 -1.0563
 5951SOL    MW423572   3.099   4.440   4.750  0.2713  0.3943 -0.1225
 5952SOL     OW23573   2.847   2.456   6.193  0.3427 -0.2351  0.1598
 5952SOL    HW223574   2.856   2.537   6.242  2.3030 -1.4238  1.9295
 5952SOL    HW323575   2.783   2.405   6.244  2.8566 -1.7302  2.0309
 5952SOL    MW423576   2.840   2.460   6.206  0.9330 -0.5892  0.6401
 5953SOL     OW23577   6.182   1.407   3.090  0.2475 -0.1181 -0.1034
 5953SOL    HW223578   6.271   1.381   3.113 -0.6419 -3.1751  0.3073
 5953SOL    HW323579   6.168   1.371   3.003 -1.1350 -1.2560  0.5532
 5953SOL    MW423580   6.192   1.399   3.082 -0.0522 -0.6715  0.0374
 5954SOL     OW23581   2.698   0.666   1.879  0.9323 -0.5647  0.6612
 5954SOL    HW223582   2.605   0.666   1.898  0.9144  0.5148  0.6355
 5954SOL    HW323583   2.721   0.573   1.871 -0.6104 -0.8296 -1.7507
 5954SOL    MW423584   2.689   0.654   1.881  0.7264 -0.4572  0.3396
 5955SOL     OW23585   4.954   6.125   5.637  0.6850  0.1859 -0.2353
 5955SOL    HW223586   4.994   6.149   5.553  0.2544 -0.6445 -0.7000
 5955SOL    HW323587   4.860   6.137   5.623  0.6032 -0.0580  0.0917
 5955SOL    MW423588   4.947   6.129   5.624  0.6174  0.0442 -0.2535
 5956SOL     OW23589   5.212   4.008   1.059 -0.2516  0.1858 -0.3444
 5956SOL    HW223590   5.145   3.942   1.080 -0.4912 -0.2557 -2.3011
 5956SOL    HW323591   5.284   3.957   1.022  1.1304  0.6818  1.5085
 5956SOL    MW423592   5.213   3.992   1.057 -0.1008  0.1930 -0.3581
 5957SOL     OW23593   0.716   5.803   1.820  0.1001 -0.4551  0.4727
 5957SOL    HW223594   0.725   5.879   1.877 -0.5194 -1.1177  1.4927
 5957SOL    HW323595   0.773   5.737   1.860 -0.2898 -0.9099  0.2782
 5957SOL    MW423596   0.725   5.804   1.833 -0.0331 -0.6025  0.5816
 5958SOL     OW23597   2.390   1.408   6.126  0.2657 -0.4092 -0.0963
 5958SOL    HW223598   2.405   1.474   6.059  1.0661  0.5907  1.0401
 5958SOL    HW323599   2.386   1.325   6.077  1.7486  0.1839 -1.2863
 5958SOL    MW423600   2.391   1.406   6.111  0.5669 -0.1990 -0.1034
 5959SOL     OW23601   5.495   1.714   0.396 -0.1743 -0.2950 -0.0637
 5959SOL    HW223602   5.539   1.648   0.342 -0.2525 -0.1759 -0.2741
 5959SOL    HW323603   5.474   1.785   0.335 -1.1878 -0.6037 -0.0961
 5959SOL    MW423604   5.498   1.714   0.381 -0.3183 -0.3200 -0.0958
 5960SOL     OW23605   6.059   4.922   1.546  0.1608 -0.1973 -0.3093
 5960SOL    HW223606   5.967   4.906   1.568 -0.5860  2.6321 -0.9734
 5960SOL    HW323607   6.056   4.960   1.458  1.6429  2.3979  0.6406
 5960SOL    MW423608   6.046   4.925   1.537  0.2578  0.5184 -0.2716
 5961SOL     OW23609   0.909   2.491   2.647 -0.5928 -0.2638 -0.3358
 5961SOL    HW223610   0.819   2.485   2.680 -0.8747  0.5512 -0.9346
 5961SOL    HW323611   0.901   2.469   2.554 -0.2791  0.4893 -0.5425
 5961SOL    MW423612   0.896   2.487   2.639 -0.5886 -0.0569 -0.4421
 5962SOL     OW23613   4.763   1.879   0.284  0.3346  0.3490  0.3699
 5962SOL    HW223614   4.829   1.883   0.216  0.9832 -0.7409  0.9079
 5962SOL    HW323615   4.723   1.966   0.284  2.0374  1.1695  0.3002
 5962SOL    MW423616   4.766   1.891   0.275  0.6448  0.3135  0.4317
 5963SOL     OW23617   2.057   3.703   4.981 -0.0472  0.1041  0.2888
 5963SOL    HW223618   2.105   3.653   4.915  1.2897  0.9649  0.5758
 5963SOL    HW323619   2.010   3.770   4.932 -0.4060 -0.3030  0.0698
 5963SOL    MW423620   2.057   3.705   4.966  0.0819  0.1640  0.2977
 5964SOL     OW23621   0.312   0.213   2.662 -0.2424  0.1196 -0.3109
 5964SOL    HW223622   0.301   0.302   2.627 -1.0594 -0.1694 -0.8204
 5964SOL    HW323623   0.270   0.156   2.597 -0.1915 -0.5964  0.2675
 5964SOL    MW423624   0.305   0.217   2.649 -0.3435 -0.0130 -0.3018
 5965SOL     OW23625   4.051   5.509   5.451  0.3280  0.2621 -0.6414
 5965SOL    HW223626   3.959   5.534   5.438 -0.0767 -1.0180 -0.3674
 5965SOL    HW323627   4.095   5.540   5.372 -1.1024 -2.5241 -2.7353
 5965SOL    MW423628   4.044   5.516   5.439  0.0859 -0.2744 -0.8815
 5966SOL     OW23629   4.758   3.013   3.027 -1.2743  0.6577 -0.4648
 5966SOL    HW223630   4.719   2.931   2.995 -0.7063  0.2291 -0.0641
 5966SOL    HW323631   4.702   3.081   2.989 -2.3970  0.0623  0.0711
 5966SOL    MW423632   4.745   3.011   3.018 -1.3475  0.5226 -0.3413
 5967SOL     OW23633   5.119   5.700   3.749 -0.4828 -0.0279  0.0602
 5967SOL    HW223634   5.149   5.626   3.696 -2.5886  0.3138 -1.7510
 5967SOL    HW323635   5.161   5.777   3.710 -2.3902  0.2827 -1.5989
 5967SOL    MW423636   5.128   5.701   3.737 -1.0123  0.0582 -0.3977
 5968SOL     OW23637   2.874   0.168   3.471  0.6727  0.1282 -0.5585
 5968SOL    HW223638   2.862   0.242   3.412  0.3276  0.1077 -0.5179
 5968SOL    HW323639   2.926   0.202   3.544  1.1700  0.1323 -0.9142
 5968SOL    MW423640   2.879   0.182   3.473  0.6927  0.1260 -0.6000
 5969SOL     OW23641   4.119   3.241   4.451 -0.8369  0.1891 -0.1238
 5969SOL    HW223642   4.158   3.190   4.521  0.0166  0.4842 -0.3648
 5969SOL    HW323643   4.036   3.274   4.487 -0.8914 -0.4934  0.3797
 5969SOL    MW423644   4.113   3.239   4.465 -0.7315  0.1380 -0.0892
 5970SOL     OW23645   2.980   5.286   1.945  0.5513  0.3154 -0.2973
 5970SOL    HW223646   2.959   5.318   2.032 -1.6031 -0.8602 -0.2975
 5970SOL    HW323647   2.979   5.191   1.953  1.1663  0.1909 -1.4324
 5970SOL    MW423648   2.977   5.278   1.957  0.3482  0.1439 -0.4471
 5971SOL     OW23649   2.350   3.517   4.011  0.2288 -0.1208 -0.3751
 5971SOL    HW223650   2.436   3.547   4.040  0.6451 -2.1186  0.6686
 5971SOL    HW323651   2.306   3.596   3.979  2.1338  1.0817 -0.1669
 5971SOL    MW423652   2.355   3.531   4.011  0.5351 -0.2257 -0.2099
 5972SOL     OW23653   4.898   3.715   3.565  0.5151  0.1367  0.1384
 5972SOL    HW223654   4.917   3.806   3.588  3.1499 -0.2285 -0.2421
 5972SOL    HW323655   4.920   3.709   3.472 -1.1997 -0.5532 -0.2582
 5972SOL    MW423656   4.904   3.727   3.555  0.6365 -0.0025  0.0359
 5973SOL     OW23657   6.028   3.331   0.936 -0.1770  0.1644 -0.0040
 5973SOL    HW223658   6.106   3.293   0.895  0.4371  0.6854  0.6570
 5973SOL    HW323659   6.058   3.413   0.975 -0.7515 -0.2568  1.4013
 5973SOL    MW423660   6.042   3.337   0.936 -0.1717  0.1775  0.2686
 5974SOL     OW23661   3.331   6.163   5.949  0.0736 -0.3810 -0.3149
 5974SOL    HW223662   3.330   6.086   6.006  2.2166 -0.8795 -0.8758
 5974SOL    HW323663   3.331   6.126   5.860 -0.0131  0.3098 -0.6037
 5974SOL    MW423664   3.331   6.148   5.945  0.3449 -0.3556 -0.4270
 5975SOL     OW23665   1.883   3.435   1.834  0.1839  0.0011  0.1924
 5975SOL    HW223666   1.820   3.446   1.763 -1.1501 -1.4699  1.0821
 5975SOL    HW323667   1.915   3.345   1.825 -0.5705 -0.4799  1.8485
 5975SOL    MW423668   1.879   3.425   1.824 -0.0916 -0.2565  0.5283
 5976SOL     OW23669   5.391   1.081   2.179 -0.0055 -0.1111  0.0438
 5976SOL    HW223670   5.459   1.048   2.238  0.2142 -1.1242 -0.7642
 5976SOL    HW323671   5.412   1.174   2.169  1.8563 -0.6085 -0.9758
 5976SOL    MW423672   5.403   1.089   2.186  0.2691 -0.3104 -0.1973
 5977SOL     OW23673   1.926   4.720   5.660  0.5185 -0.0346  0.2230
 5977SOL    HW223674   1.964   4.783   5.599 -0.4429 -0.7257 -1.1658
 5977SOL    HW323675   1.982   4.724   5.737  2.4427  0.0966 -1.1132
 5977SOL    MW423676   1.938   4.729   5.662  0.6456 -0.1085 -0.1366
 5978SOL     OW23677   5.541   4.118   5.457  0.0491 -0.4519 -0.3633
 5978SOL    HW223678   5.513   4.075   5.376 -1.4450 -2.3883  1.0852
 5978SOL    HW323679   5.565   4.046   5.515 -1.7471  0.6224  1.8976
 5978SOL    MW423680   5.540   4.103   5.454 -0.3850 -0.5657  0.1261
 5979SOL     OW23681   0.730   4.191   1.920  0.3387  0.0874 -0.0081
 5979SOL    HW223682   0.728   4.285   1.935 -1.8568 -0.0435  0.8192
 5979SOL    HW323683   0.646   4.159   1.951  0.5328 -2.0022 -1.3808
 5979SOL    MW423684   0.719   4.199   1.926  0.0747 -0.2056 -0.0800
 5980SOL     OW23685   4.418   0.497   5.932  0.5652  0.1542 -0.2656
 5980SOL    HW223686   4.487   0.474   5.994 -0.3689  1.3782  1.3141
 5980SOL    HW323687   4.345   0.439   5.955  0.9469 -1.0171 -1.8171
 5980SOL    MW423688   4.417   0.486   5.943  0.4923  0.1611 -0.2619
 5981SOL     OW23689   1.475   5.723   0.903 -0.3623 -0.3087  0.0639
 5981SOL    HW223690   1.405   5.674   0.946 -1.6471 -0.2410 -1.8138
 5981SOL    HW323691   1.554   5.700   0.951 -1.5922 -0.7379  1.9903
 5981SOL    MW423692   1.476   5.714   0.915 -0.6941 -0.3564  0.0703
 5982SOL     OW23693   0.912   4.764   6.297  0.7030  0.5910 -0.1761
 5982SOL    HW223694   0.873   4.851   6.301  0.0911  0.3373 -0.5167
 5982SOL    HW323695   0.840   4.706   6.273  0.7191 -0.2803  1.6926
 5982SOL    MW423696   0.898   4.768   6.294  0.6244  0.4425  0.0255
 5983SOL     OW23697   3.161   5.610   3.947 -0.1675  0.1435 -0.4207
 5983SOL    HW223698   3.199   5.528   3.976  0.8584  0.3368 -1.1754
 5983SOL    HW323699   3.223   5.645   3.883 -1.2612  0.8133 -1.1719
 5983SOL    MW423700   3.174   5.604   3.942 -0.1765  0.2574 -0.6194
 5984SOL     OW23701   1.659   5.074   5.009 -0.5175  0.2184 -0.3994
 5984SOL    HW223702   1.565   5.084   4.995 -0.4361 -0.2527 -1.3545
 5984SOL    HW323703   1.698   5.150   4.966 -0.4279  0.0774 -0.5713
 5984SOL    MW423704   1.652   5.085   5.001 -0.4950  0.1376 -0.5481
 5985SOL     OW23705   4.753   4.792   3.153  0.2326  0.0710 -0.2166
 5985SOL    HW223706   4.764   4.804   3.248  1.1073  0.2115 -0.3347
 5985SOL    HW323707   4.835   4.753   3.124 -1.0578 -2.6224 -0.4912
 5985SOL    MW423708   4.765   4.789   3.162  0.1777 -0.2658 -0.2684
 5986SOL     OW23709   4.998   4.963   3.662  0.5011 -0.5257  0.2697
 5986SOL    HW223710   5.057   4.931   3.594 -0.4022 -1.8049  0.0317
 5986SOL    HW323711   5.046   4.948   3.744  0.1837 -2.4646  0.1542
 5986SOL    MW423712   5.012   4.957   3.664  0.3401 -0.9503  0.2231
 5987SOL     OW23713   6.309   3.793   2.963  0.2021 -0.1661 -0.5597
 5987SOL    HW223714   6.391   3.784   2.914  0.0665 -1.4089 -0.5865
 5987SOL    HW323715   6.268   3.872   2.927  0.5262 -0.5514 -1.8369
 5987SOL    MW423716   6.314   3.802   2.952  0.2270 -0.3809 -0.7317
 5988SOL     OW23717   5.853   0.337   0.774  0.0563  0.1750 -0.0764
 5988SOL    HW223718   5.857   0.287   0.693  1.2160 -1.5485  0.9933
 5988SOL    HW323719   5.784   0.402   0.759 -1.2979 -1.5418 -1.6380
 5988SOL    MW423720   5.844   0.339   0.762  0.0306 -0.2789 -0.1413
 5989SOL     OW23721   5.143   0.345   6.045 -0.0354 -0.1469 -0.1432
 5989SOL    HW223722   5.216   0.393   6.007 -0.2999 -0.1062 -0.6018
 5989SOL    HW323723   5.077   0.342   5.976 -0.2203 -0.7275  0.0512
 5989SOL    MW423724   5.144   0.351   6.031 -0.0947 -0.2181 -0.1781
 5990SOL     OW23725   4.535   4.178   4.916 -0.2421  0.4919 -0.3118
 5990SOL    HW223726   4.452   4.157   4.960 -0.2395  1.3144  0.1144
 5990SOL    HW323727   4.602   4.154   4.979 -0.2036  0.8444 -0.2150
 5990SOL    MW423728   4.533   4.172   4.930 -0.2367  0.6469 -0.2428
 5991SOL     OW23729   3.364   4.614   0.095 -0.1648  0.0887  0.2439
 5991SOL    HW223730   3.398   4.560   0.166 -2.6976 -2.4482 -0.2720
 5991SOL    HW323731   3.269   4.608   0.103 -0.5721  2.9665 -1.0756
 5991SOL    MW423732   3.356   4.606   0.105 -0.5527  0.1337  0.0017
 5992SOL     OW23733   3.520   2.724   2.516  0.3008  0.3587 -0.0688
 5992SOL    HW223734   3.508   2.818   2.529 -1.5221  0.2537 -0.6512
 5992SOL    HW323735   3.509   2.711   2.422  2.0520 -0.2769 -0.2178
 5992SOL    MW423736   3.517   2.735   2.505  0.2914  0.2610 -0.1653
 5993SOL     OW23737   4.016   2.311   1.953 -0.1434 -0.0030 -0.0503
 5993SOL    HW223738   3.983   2.353   1.874 -1.1847  1.8495  1.2940
 5993SOL    HW323739   4.101   2.352   1.969 -0.7415  0.9814  0.7440
 5993SOL    MW423740   4.023   2.322   1.945 -0.3597  0.3713  0.2319
 5994SOL     OW23741   2.765   6.183   4.591  0.0688  0.1543 -0.1805
 5994SOL    HW223742   2.820   6.247   4.547  0.2053  1.1951  1.4003
 5994SOL    HW323743   2.823   6.143   4.656 -0.7768  0.6271  0.9037
 5994SOL    MW423744   2.780   6.186   4.594 -0.0248  0.3540  0.1711
 5995SOL     OW23745   5.071   3.053   2.070  0.1660 -0.8858  0.6612
 5995SOL    HW223746   5.049   3.128   2.126 -1.5564 -1.2643  0.5314
 5995SOL    HW323747   5.123   2.996   2.126  1.1816  0.2162  0.8782
 5995SOL    MW423748   5.075   3.055   2.085  0.0727 -0.7903  0.6727
 5996SOL     OW23749   0.227   0.840   5.366  0.3917  0.4348  0.1626
 5996SOL    HW223750   0.197   0.844   5.276  1.6821  3.8341 -0.2773
 5996SOL    HW323751   0.157   0.882   5.416  0.6224  0.5417  0.3993
 5996SOL    MW423752   0.214   0.846   5.361  0.5924  0.8974  0.1358
 5997SOL     OW23753   2.611   4.142   1.858  0.2023  0.7821  0.0280
 5997SOL    HW223754   2.687   4.190   1.823  0.9992 -0.3088  0.1805
 5997SOL    HW323755   2.580   4.090   1.783 -0.2157  1.0006  0.0472
 5997SOL    MW423756   2.617   4.142   1.843  0.2523  0.6670  0.0507
 5998SOL     OW23757   1.656   2.225   3.365  0.2117  0.2673 -0.1525
 5998SOL    HW223758   1.700   2.271   3.438  1.4249 -1.4675  0.2649
 5998SOL    HW323759   1.698   2.140   3.362 -1.9474 -0.8379 -0.9380
 5998SOL    MW423760   1.668   2.220   3.374  0.0869 -0.1074 -0.2011
 5999SOL     OW23761   4.017   2.404   2.441 -0.1456  0.5100 -0.4085
 5999SOL    HW223762   4.089   2.343   2.457  0.1891  0.4504 -1.9336
 5999SOL    HW323763   3.972   2.367   2.365 -1.7671  0.5842  0.4682
 5999SOL    MW423764   4.020   2.391   2.433 -0.3154  0.5119 -0.4941
 6000SOL     OW23765   4.896   0.587   0.283 -0.7960  0.3039 -0.1094
 6000SOL    HW223766   4.950   0.546   0.350 -1.1576 -1.2613 -0.7249
 6000SOL    HW323767   4.808   0.552   0.298 -1.4434  1.9782  0.2128
 6000SOL    MW423768   4.891   0.577   0.294 -0.9291  0.3183 -0.1481
 6001SOL     OW23769   1.367   1.464   4.018 -0.2740  0.5774  0.1116
 6001SOL    HW223770   1.326   1.386   4.055 -0.9489 -0.4152 -2.4473
 6001SOL    HW323771   1.304   1.494   3.952  1.8149  0.7244 -1.9225
 6001SOL    MW423772   1.353   1.458   4.014 -0.0875  0.4658 -0.4944
 6002SOL     OW23773   1.729   3.856   5.658  0.2427  0.0680  0.4934
 6002SOL    HW223774   1.817   3.820   5.651 -0.3651 -1.4365  0.2943
 6002SOL    HW323775   1.709   3.888   5.570 -0.0215 -1.1299  0.0927
 6002SOL    MW423776   1.738   3.855   5.645  0.1277 -0.2885  0.4142
 6003SOL     OW23777   2.175   2.820   0.983 -0.6412  0.9498  1.0229
 6003SOL    HW223778   2.084   2.790   0.992 -0.3028 -1.5965 -2.3849
 6003SOL    HW323779   2.171   2.889   0.918 -0.1085  0.5422  0.5520
 6003SOL    MW423780   2.162   2.825   0.976 -0.5263  0.5601  0.5111
 6004SOL     OW23781   0.198   3.894   6.395  0.1739  0.0629 -0.3451
 6004SOL    HW223782   0.215   3.962   6.330 -0.6304 -0.5399 -1.2121
 6004SOL    HW323783   0.174   3.817   6.343 -0.3013 -0.4879  0.6624
 6004SOL    MW423784   0.197   3.893   6.380  0.0051 -0.0893 -0.3266
 6005SOL     OW23785   5.794   1.109   2.489  0.2022  0.0687  0.1887
 6005SOL    HW223786   5.753   1.126   2.574 -1.3867 -1.5110 -0.2002
 6005SOL    HW323787   5.888   1.112   2.507 -0.0299  2.5154  1.3943
 6005SOL    MW423788   5.801   1.111   2.502 -0.0381  0.1831  0.2965
 6006SOL     OW23789   2.035   3.590   3.749 -0.2833 -0.2690 -0.3152
 6006SOL    HW223790   2.042   3.510   3.801  0.0155 -0.3946 -0.5481
 6006SOL    HW323791   2.018   3.559   3.660  0.3789 -0.0933 -0.5065
 6006SOL    MW423792   2.033   3.576   3.744 -0.1565 -0.2624 -0.3712
 6007SOL     OW23793   5.232   4.799   0.141 -0.4510  0.1329 -0.1155
 6007SOL    HW223794   5.203   4.865   0.204  0.5699  0.4762  0.0073
 6007SOL    HW323795   5.150   4.758   0.111 -0.9892  0.3035  1.0442
 6007SOL    MW423796   5.217   4.802   0.145 -0.3873  0.2007  0.0537
 6008SOL     OW23797   5.740   1.053   3.898 -0.1108  0.5597  0.4013
 6008SOL    HW223798   5.778   0.966   3.910 -0.2463  0.2968 -0.8689
 6008SOL    HW323799   5.716   1.082   3.986  0.9873 -0.1975  0.9624
 6008SOL    MW423800   5.742   1.045   3.911  0.0162  0.4251  0.3077
 6009SOL     OW23801   3.805   4.803   1.386  0.2192 -0.1826 -0.3097
 6009SOL    HW223802   3.758   4.721   1.373 -0.0866  0.0036 -0.4058
 6009SOL    HW323803   3.738   4.863   1.419  0.3797  0.1034 -0.5044
 6009SOL    MW423804   3.790   4.800   1.389  0.2000 -0.1203 -0.3481
 6010SOL     OW23805   2.553   1.353   1.475 -0.4803  0.5495 -0.1174
 6010SOL    HW223806   2.595   1.269   1.460 -0.3292  0.3936  1.1404
 6010SOL    HW323807   2.593   1.411   1.410 -2.6694 -0.9411 -3.0398
 6010SOL    MW423808   2.564   1.350   1.464 -0.7492  0.3323 -0.3370
 6011SOL     OW23809   2.759   1.138   5.361  0.4999 -0.1221 -0.3104
 6011SOL    HW223810   2.825   1.167   5.299 -1.2830  2.2475 -1.2559
 6011SOL    HW323811   2.691   1.097   5.307 -0.4524  0.7519  0.1981
 6011SOL    MW423812   2.759   1.136   5.346  0.1390  0.3059 -0.3680
 6012SOL     OW23813   6.278   0.046   3.008 -0.6393  0.0088  0.1107
 6012SOL    HW223814   6.346   0.097   2.964  0.6733 -0.6795  1.2982
 6012SOL    HW323815   6.293  -0.044   2.980  0.1154 -0.4170  1.7740
 6012SOL    MW423816   6.289   0.041   2.998 -0.3665 -0.1382  0.4868
 6013SOL     OW23817   1.279   1.678   5.117  0.2861  0.6457 -0.4365
 6013SOL    HW223818   1.200   1.726   5.140  0.9142  1.9607 -0.9470
 6013SOL    HW323819   1.351   1.729   5.155  0.9508 -0.1381 -0.5947
 6013SOL    MW423820   1.278   1.691   5.125  0.4567  0.7158 -0.5247
 6014SOL     OW23821   4.044   2.101   1.592  0.5207 -0.1774  0.4622
 6014SOL    HW223822   4.000   2.185   1.580  2.0260  0.4380 -1.1256
 6014SOL    HW323823   4.037   2.083   1.686 -0.1698  1.5312  0.7664
 6014SOL    MW423824   4.037   2.110   1.603  0.6282  0.1292  0.2929
 6015SOL     OW23825   0.880   5.100   0.700 -0.2110  0.3651  0.3165
 6015SOL    HW223826   0.825   5.141   0.766 -0.7327 -0.6060  0.5038
 6015SOL    HW323827   0.960   5.076   0.747 -0.5539 -0.2645  0.5878
 6015SOL    MW423828   0.883   5.102   0.715 -0.3250  0.1539  0.3770
 6016SOL     OW23829   2.636   0.652   5.681  0.2576 -0.1538 -0.7867
 6016SOL    HW223830   2.624   0.573   5.628 -1.0345 -0.3443 -0.2424
 6016SOL    HW323831   2.618   0.724   5.621  1.7376 -0.2308 -1.3672
 6016SOL    MW423832   2.632   0.651   5.666  0.2824 -0.1891 -0.7915
 6017SOL     OW23833   3.387   5.637   2.063 -0.5026  0.4628 -0.1312
 6017SOL    HW223834   3.383   5.547   2.032  0.6433 -0.1906  1.5027
 6017SOL    HW323835   3.470   5.643   2.110 -1.9104  1.4460  2.4636
 6017SOL    MW423836   3.397   5.626   2.065 -0.5372  0.5063  0.4267
 6018SOL     OW23837   3.702   1.536   0.477 -0.1792 -0.3471  0.0210
 6018SOL    HW223838   3.720   1.542   0.570 -1.3834 -2.1229  0.4133
 6018SOL    HW323839   3.633   1.601   0.461  1.7610  1.7618 -0.1933
 6018SOL    MW423840   3.695   1.546   0.487 -0.0821 -0.3032  0.0445
 6019SOL     OW23841   4.206   3.222   5.564  0.4734  0.0162  0.3351
 6019SOL    HW223842   4.210   3.151   5.500  1.4678 -0.3081  0.7419
 6019SOL    HW323843   4.258   3.292   5.524  0.0096  0.3030  0.2168
 6019SOL    MW423844   4.213   3.222   5.550  0.5434  0.0112  0.3732
 6020SOL     OW23845   2.190   5.734   0.481  0.4975 -0.1539  0.2754
 6020SOL    HW223846   2.096   5.737   0.462  0.4475  2.3630  0.6655
 6020SOL    HW323847   2.201   5.654   0.532 -0.8977 -2.0769 -2.1844
 6020SOL    MW423848   2.179   5.724   0.485  0.3068 -0.0756  0.0023
 6021SOL     OW23849   6.176   6.337   1.413  0.0036 -0.1901  0.6256
 6021SOL    HW223850   6.233   6.295   1.349  0.5981 -0.0825  1.0785
 6021SOL    HW323851   6.098   6.281   1.416  1.0575 -1.6632  1.7235
 6021SOL    MW423852   6.173   6.324   1.405  0.2211 -0.3703  0.8302
 6022SOL     OW23853   5.229   1.408   5.170 -0.5512  0.1365 -0.5024
 6022SOL    HW223854   5.135   1.398   5.183 -0.2937 -1.2743  0.5153
 6022SOL    HW323855   5.255   1.478   5.230 -0.4458 -1.8460  1.9283
 6022SOL    MW423856   5.220   1.416   5.179 -0.5033 -0.3112 -0.0474
 6023SOL     OW23857   4.969   1.711   0.850  0.2281  0.3202  0.2237
 6023SOL    HW223858   4.936   1.789   0.895 -0.6091 -1.1632  2.2970
 6023SOL    HW323859   5.038   1.745   0.792 -0.0395  2.5773  1.1189
 6023SOL    MW423860   4.974   1.726   0.848  0.0824  0.4223  0.6153
 6024SOL     OW23861   2.666   1.967   3.836 -0.1973 -0.1326  0.0259
 6024SOL    HW223862   2.613   1.997   3.763 -1.2130  0.6115  1.0262
 6024SOL    HW323863   2.715   2.045   3.864  0.7897 -0.6006 -0.3414
 6024SOL    MW423864   2.666   1.981   3.830 -0.2011 -0.0962  0.1094
 6025SOL     OW23865   4.291   6.046   5.590 -0.4695 -0.4021 -0.2442
 6025SOL    HW223866   4.288   6.123   5.646 -0.6631 -1.0964  0.7151
 6025SOL    HW323867   4.269   6.079   5.503 -0.7840  0.5835  0.1996
 6025SOL    MW423868   4.288   6.060   5.586 -0.5365 -0.3637 -0.0590
 6026SOL     OW23869   4.235   0.056   4.270  0.2232  0.2642  0.1256
 6026SOL    HW223870   4.245   0.126   4.206  0.9429  0.1498  0.1064
 6026SOL    HW323871   4.147   0.021   4.254  0.2105  0.5609 -0.4708
 6026SOL    MW423872   4.224   0.060   4.260  0.3165  0.2882  0.0443
 6027SOL     OW23873   1.032   0.544   5.840  0.1202 -0.1644 -0.2330
 6027SOL    HW223874   0.944   0.574   5.863  0.2262  0.3705 -0.5073
 6027SOL    HW323875   1.070   0.513   5.922  0.2348  1.0347  0.1874
 6027SOL    MW423876   1.025   0.544   5.854  0.1493  0.0644 -0.2137
 6028SOL     OW23877   5.567   3.395   4.383 -0.2462 -0.5496  0.3113
 6028SOL    HW223878   5.534   3.331   4.320  0.0495  1.3542 -1.9087
 6028SOL    HW323879   5.501   3.464   4.383  0.4567  0.1435  1.0515
 6028SOL    MW423880   5.554   3.396   4.375 -0.1144 -0.2070  0.1161
 6029SOL     OW23881   5.630   1.431   5.336  0.3558 -0.2267  0.3759
 6029SOL    HW223882   5.543   1.392   5.326  0.4084  0.0082 -1.3277
 6029SOL    HW323883   5.613   1.524   5.349  0.3519  0.0262 -1.2568
 6029SOL    MW423884   5.616   1.438   5.336  0.3622 -0.1623 -0.0643
 6030SOL     OW23885   3.578   3.096   2.893 -0.6549  0.4584 -0.4558
 6030SOL    HW223886   3.641   3.048   2.840 -0.3713  0.4649 -0.1293
 6030SOL    HW323887   3.515   3.131   2.830 -0.0189  0.9269 -0.8509
 6030SOL    MW423888   3.578   3.094   2.878 -0.5336  0.5211 -0.4649
 6031SOL     OW23889   3.806   1.795   6.179 -0.1214 -0.2869  0.0019
 6031SOL    HW223890   3.851   1.872   6.145  0.2899 -0.3758  0.3319
 6031SOL    HW323891   3.809   1.731   6.108 -0.6953  0.0902 -0.3665
 6031SOL    MW423892   3.812   1.796   6.165 -0.1428 -0.2489 -0.0032
 6032SOL     OW23893   4.253   5.819   5.098  0.5995 -0.3882  0.2284
 6032SOL    HW223894   4.247   5.808   5.193 -1.5532 -0.9296  0.0894
 6032SOL    HW323895   4.225   5.909   5.082  0.4421 -0.4635  0.0755
 6032SOL    MW423896   4.248   5.829   5.109  0.2947 -0.4696  0.1899
 6033SOL     OW23897   3.656   5.108   6.176 -0.0372  0.5664  0.1381
 6033SOL    HW223898   3.712   5.043   6.133 -1.6166  0.4720 -1.9139
 6033SOL    HW323899   3.638   5.173   6.108 -2.0995  0.7944  0.8312
 6033SOL    MW423900   3.661   5.108   6.161 -0.5177  0.5840 -0.0412
 6034SOL     OW23901   5.347   5.366   1.077 -0.1564  0.5551  0.2108
 6034SOL    HW223902   5.276   5.324   1.027  1.0800 -0.9616 -0.3754
 6034SOL    HW323903   5.348   5.319   1.161 -0.2692  1.0277  0.4778
 6034SOL    MW423904   5.337   5.354   1.081 -0.0082  0.4173  0.1687
 6035SOL     OW23905   4.455   2.242   0.964  0.1987  0.3021  0.0568
 6035SOL    HW223906   4.505   2.279   0.891  0.0704  1.0447  0.3405
 6035SOL    HW323907   4.444   2.314   1.025  1.4503 -0.6090  1.4536
 6035SOL    MW423908   4.460   2.256   0.963  0.3469  0.2799  0.2785
 6036SOL     OW23909   2.090   0.039   4.371  0.3773 -0.3476 -0.0220
 6036SOL    HW223910   2.150   0.091   4.318  0.3657 -0.2525  0.0568
 6036SOL    HW323911   2.002   0.067   4.344  0.3644 -0.7911 -0.4363
 6036SOL    MW423912   2.086   0.049   4.361  0.3740 -0.3936 -0.0663
 6037SOL     OW23913   4.366   2.615   1.446 -0.4996 -0.0425  0.3067
 6037SOL    HW223914   4.361   2.685   1.512 -2.6750 -0.0528  0.2162
 6037SOL    HW323915   4.304   2.549   1.476 -1.0073 -0.3735 -1.3886
 6037SOL    MW423916   4.358   2.616   1.459 -0.8536 -0.0875  0.0711
 6038SOL     OW23917   6.011   2.953   2.703 -0.0659 -0.7102  0.9031
 6038SOL    HW223918   6.025   2.899   2.781 -1.0984 -0.9942  0.9097
 6038SOL    HW323919   6.048   2.902   2.631 -0.3974 -1.1134  1.0119
 6038SOL    MW423920   6.017   2.939   2.704 -0.2459 -0.8009  0.9183
 6039SOL     OW23921   0.148   5.025   4.382 -0.4563  0.4284 -0.3624
 6039SOL    HW223922   0.056   5.023   4.410 -0.5370  1.6128 -0.4926
 6039SOL    HW323923   0.193   5.075   4.450  0.1211 -0.2147 -0.2573
 6039SOL    MW423924   0.142   5.031   4.395 -0.3907  0.4998 -0.3657
 6040SOL     OW23925   2.837   2.870   4.278  0.3114 -0.5666  0.8189
 6040SOL    HW223926   2.893   2.879   4.201  1.2602 -2.3333  1.2547
 6040SOL    HW323927   2.866   2.940   4.337  0.7399 -0.2593  0.2493
 6040SOL    MW423928   2.848   2.880   4.276  0.4931 -0.7592  0.8012
 6041SOL     OW23929   2.561   5.062   1.717  0.1778 -0.2239 -0.1912
 6041SOL    HW223930   2.564   5.155   1.739  0.5620 -0.2458 -0.1458
 6041SOL    HW323931   2.622   5.021   1.778  0.4114 -0.4337 -0.5634
 6041SOL    MW423932   2.569   5.069   1.728  0.2593 -0.2545 -0.2343
 6042SOL     OW23933   1.626   2.388   3.137  0.2501  0.6653 -0.1257
 6042SOL    HW223934   1.704   2.444   3.134  0.6735  0.2261  1.4532
 6042SOL    HW323935   1.640   2.332   3.214 -0.9096 -0.5015 -0.7220
 6042SOL    MW423936   1.638   2.388   3.147  0.1529  0.4534  0.0039
 6043SOL     OW23937   1.238   2.251   6.370  0.0814  0.3421  0.0518
 6043SOL    HW223938   1.220   2.332   6.322  1.3205  0.2472 -0.6103
 6043SOL    HW323939   1.158   2.235   6.420 -0.1926  1.9689  0.1916
 6043SOL    MW423940   1.225   2.260   6.370  0.2087  0.5442 -0.0171
 6044SOL     OW23941   6.362   1.526   6.117  0.1406  0.4183 -0.2574
 6044SOL    HW223942   6.380   1.620   6.119 -0.2825  0.5324 -1.3537
 6044SOL    HW323943   6.394   1.497   6.032  1.4446 -0.6901  0.5739
 6044SOL    MW423944   6.368   1.534   6.106  0.2568  0.2871 -0.2923
 6045SOL     OW23945   3.055   4.878   1.571 -0.2044  0.3882  0.1424
 6045SOL    HW223946   3.053   4.783   1.559 -0.3221  0.4659 -0.4711
 6045SOL    HW323947   3.010   4.913   1.494 -1.1264  0.8943  0.8867
 6045SOL    MW423948   3.049   4.870   1.560 -0.3416  0.4652  0.1596
 6046SOL     OW23949   0.870   4.899   5.284  0.1023  0.5327  0.6403
 6046SOL    HW223950   0.884   4.987   5.248  0.6483  0.9111  1.7400
 6046SOL    HW323951   0.957   4.872   5.313 -0.0766 -0.3580  0.3695
 6046SOL    MW423952   0.883   4.907   5.283  0.1507  0.4651  0.7496
 6047SOL     OW23953   3.542   2.010   4.915 -0.0659 -1.1594 -0.0021
 6047SOL    HW223954   3.630   1.994   4.881 -0.6380 -1.8484 -1.2211
 6047SOL    HW323955   3.498   2.057   4.844 -0.1769  0.7812  1.2743
 6047SOL    MW423956   3.548   2.014   4.901 -0.1560 -0.9943  0.0055
 6048SOL     OW23957   3.950   3.016   4.637  0.2705 -0.7955  0.1040
 6048SOL    HW223958   3.982   2.976   4.556  0.1081  0.8016 -0.7871
 6048SOL    HW323959   3.862   3.048   4.616  0.9892  1.4336  0.2567
 6048SOL    MW423960   3.942   3.015   4.624  0.3439 -0.2907  0.0066
 6049SOL     OW23961   3.302   5.365   3.730 -0.3244  0.3228  0.1685
 6049SOL    HW223962   3.225   5.331   3.776  0.3206  0.4533  1.3738
 6049SOL    HW323963   3.372   5.362   3.795  0.9499 -0.7103 -1.1857
 6049SOL    MW423964   3.301   5.360   3.745 -0.0712  0.2037  0.1489
 6050SOL     OW23965   1.696   3.799   4.212 -0.9410 -0.0421 -0.3964
 6050SOL    HW223966   1.759   3.823   4.280 -1.0976 -2.0110  0.5252
 6050SOL    HW323967   1.626   3.865   4.219 -0.0365  0.8940  0.0297
 6050SOL    MW423968   1.695   3.811   4.222 -0.8424 -0.1783 -0.2186
 6051SOL     OW23969   0.234   4.025   0.263 -0.2665 -0.0899 -0.2611
 6051SOL    HW223970   0.246   3.987   0.176  0.9346  0.6935 -0.4444
 6051SOL    HW323971   0.140   4.012   0.281 -0.9033  1.1612 -2.3359
 6051SOL    MW423972   0.223   4.018   0.254 -0.1920  0.1785 -0.5590
 6052SOL     OW23973   5.557   3.208   1.725 -0.5038  0.3953  0.9599
 6052SOL    HW223974   5.475   3.160   1.737  0.6957 -2.0243  0.1433
 6052SOL    HW323975   5.593   3.215   1.813 -1.7775  1.9107  1.3897
 6052SOL    MW423976   5.551   3.202   1.738 -0.5136  0.2760  0.9089
 6053SOL     OW23977   5.782   0.267   5.322  0.2623 -0.5081  0.2913
 6053SOL    HW223978   5.758   0.267   5.415  0.5642 -0.8296  0.3737
 6053SOL    HW323979   5.713   0.216   5.280 -0.0538 -0.0789  0.2904
 6053SOL    MW423980   5.770   0.260   5.329  0.2604 -0.4939  0.3021
 6054SOL     OW23981   5.617   3.512   0.369  0.4221  0.4193  0.0997
 6054SOL    HW223982   5.615   3.500   0.274  1.1469  1.5654 -0.0751
 6054SOL    HW323983   5.680   3.583   0.383  0.1161  0.4519  1.4189
 6054SOL    MW423984   5.625   3.520   0.358  0.4773  0.5748  0.2507
 6055SOL     OW23985   0.295   5.565   5.326 -0.3929 -0.0554 -0.0241
 6055SOL    HW223986   0.321   5.484   5.368 -2.4822  0.4877  2.6105
 6055SOL    HW323987   0.324   5.634   5.385 -2.1743  0.8491 -0.1132
 6055SOL    MW423988   0.302   5.564   5.339 -0.9036  0.1356  0.3117
 6056SOL     OW23989   4.872   5.120   6.382  0.0621 -0.1225  0.0867
 6056SOL    HW223990   4.868   5.169   6.464 -1.2342 -2.1495  1.3142
 6056SOL    HW323991   4.951   5.066   6.390  0.0052 -0.2278 -0.0574
 6056SOL    MW423992   4.882   5.120   6.394 -0.1165 -0.4038  0.2296
 6057SOL     OW23993   0.082   4.421   2.947 -0.5313  0.5947  0.2197
 6057SOL    HW223994   0.171   4.426   2.910 -0.6231 -0.3885 -0.1514
 6057SOL    HW323995   0.028   4.470   2.885 -0.4605  0.0961 -0.2358
 6057SOL    MW423996   0.087   4.428   2.934 -0.5340  0.3992  0.1107
 6058SOL     OW23997   1.873   4.309   0.752  0.3921  0.1457 -0.1304
 6058SOL    HW223998   1.871   4.396   0.793  0.4813 -0.0806  0.3674
 6058SOL    HW323999   1.846   4.249   0.822  0.8920 -0.2898 -0.3029
 6058SOL    MW424000   1.869   4.312   0.767  0.4698  0.0584 -0.0875
 6059SOL     OW24001   1.230   0.456   4.099 -1.0073 -0.1627  0.1949
 6059SOL    HW224002   1.286   0.424   4.029 -1.8671 -0.3436 -0.4291
 6059SOL    HW324003   1.141   0.443   4.066 -1.4046  1.2921  0.6344
 6059SOL    MW424004   1.226   0.450   4.086 -1.1732  0.0054  0.1706
 6060SOL     OW24005   5.595   0.132   0.726  0.1040  0.1901  0.0225
 6060SOL    HW224006   5.540   0.061   0.692  0.3854 -0.6512  1.2606
 6060SOL    HW324007   5.533   0.200   0.752 -0.3721 -0.6710  1.2183
 6060SOL    MW424008   5.579   0.132   0.725  0.0783 -0.0345  0.3436
 6061SOL     OW24009   0.769   1.868   0.034 -1.1371 -0.1250  0.5059
 6061SOL    HW224010   0.756   1.801   0.101 -0.4393 -0.3662  0.4092
 6061SOL    HW324011   0.863   1.869   0.018 -1.2902 -0.0684 -0.4733
 6061SOL    MW424012   0.779   1.860   0.041 -1.0652 -0.1493  0.3639
 6062SOL     OW24013   1.704   1.534   1.183  0.0028 -0.2195 -0.3331
 6062SOL    HW224014   1.734   1.470   1.247  0.0456 -1.7601 -1.8288
 6062SOL    HW324015   1.686   1.612   1.234 -1.7734 -1.9354  1.8764
 6062SOL    MW424016   1.705   1.536   1.198 -0.2259 -0.6491 -0.2389
 6063SOL     OW24017   3.161   0.190   1.151 -0.3713  0.8046 -0.2330
 6063SOL    HW224018   3.210   0.115   1.119 -1.2829  0.4260 -0.7854
 6063SOL    HW324019   3.100   0.211   1.080 -0.6115  1.6260  0.1979
 6063SOL    MW424020   3.159   0.183   1.137 -0.5233  0.8630 -0.2491
 6064SOL     OW24021   2.278   6.018   4.484 -0.3257 -0.1765 -0.1028
 6064SOL    HW224022   2.373   6.026   4.484 -0.4210  1.1199 -0.0870
 6064SOL    HW324023   2.261   5.931   4.447  0.8912 -0.9796  1.1104
 6064SOL    MW424024   2.288   6.008   4.479 -0.1777 -0.1114  0.0594
 6065SOL     OW24025   2.066   5.070   1.719  0.6724 -0.0914  0.3731
 6065SOL    HW224026   2.133   5.126   1.758 -0.1026  0.0936  1.4797
 6065SOL    HW324027   2.041   5.009   1.788 -1.0513  0.5374  0.3768
 6065SOL    MW424028   2.071   5.070   1.733  0.3428  0.0160  0.5196
 6066SOL     OW24029   2.387   1.861   0.550 -0.1987 -0.4080 -0.6306
 6066SOL    HW224030   2.482   1.864   0.565 -0.2833 -1.0803  0.1238
 6066SOL    HW324031   2.378   1.824   0.462  0.2356 -0.5319 -0.6285
 6066SOL    MW424032   2.399   1.857   0.540 -0.1525 -0.5131 -0.5308
 6067SOL     OW24033   2.026   2.997   4.762  0.2140 -0.2753 -0.0063
 6067SOL    HW224034   2.095   3.051   4.801  0.9967 -1.5729  0.5006
 6067SOL    HW324035   2.043   2.909   4.796 -1.4422 -0.7179 -0.2310
 6067SOL    MW424036   2.037   2.992   4.772  0.0988 -0.5049  0.0310
 6068SOL     OW24037   2.756   4.374   2.444 -0.4062 -0.3652 -0.4467
 6068SOL    HW224038   2.692   4.423   2.496 -0.0911 -2.7973  2.5602
 6068SOL    HW324039   2.703   4.322   2.383 -1.1129 -0.2966  0.0909
 6068SOL    MW424040   2.740   4.374   2.443 -0.4579 -0.6771  0.0209
 6069SOL     OW24041   4.886   1.659   3.685 -0.3091 -0.2707  0.0127
 6069SOL    HW224042   4.910   1.700   3.602 -0.0185  0.2496  0.3575
 6069SOL    HW324043   4.967   1.621   3.718  0.2506  2.0913  1.5227
 6069SOL    MW424044   4.900   1.659   3.678 -0.1969  0.1096  0.2574
 6070SOL     OW24045   4.410   5.930   6.172  0.0563 -0.0705 -0.1023
 6070SOL    HW224046   4.372   5.922   6.260 -1.1347  0.9125 -0.4964
 6070SOL    HW324047   4.403   5.842   6.135 -2.4922  0.1712 -0.3699
 6070SOL    MW424048   4.404   5.917   6.179 -0.4371  0.0911 -0.1896
 6071SOL     OW24049   5.112   1.064   0.012  0.1944  0.3757 -0.5093
 6071SOL    HW224050   5.068   1.062   0.097 -1.6679 -1.5417 -1.4347
 6071SOL    HW324051   5.156   0.979   0.006  1.2403  0.9326 -1.0358
 6071SOL    MW424052   5.112   1.053   0.023  0.0867  0.1962 -0.7009
 6072SOL     OW24053   3.950   2.496   4.330  0.4963 -0.9672 -0.3822
 6072SOL    HW224054   3.967   2.405   4.354 -3.0112 -1.9315 -1.0938
 6072SOL    HW324055   3.945   2.542   4.414  2.4135 -1.3172 -0.0204
 6072SOL    MW424056   3.952   2.490   4.345  0.2865 -1.1406 -0.4283
 6073SOL     OW24057   3.184   6.257   1.228 -0.4144  0.0787 -0.0150
 6073SOL    HW224058   3.123   6.304   1.285  1.8061  0.6125  2.0310
 6073SOL    HW324059   3.210   6.180   1.279  0.9195  0.0626 -0.6883
 6073SOL    MW424060   3.179   6.253   1.242  0.0545  0.1470  0.1661
 6074SOL     OW24061   5.472   1.262   3.401 -0.3709 -0.3893 -0.1917
 6074SOL    HW224062   5.454   1.247   3.493 -1.4996 -1.3622 -0.5333
 6074SOL    HW324063   5.567   1.269   3.394 -0.2875 -0.2305  1.0413
 6074SOL    MW424064   5.482   1.261   3.412 -0.5088 -0.4967 -0.0741
 6075SOL     OW24065   6.169   2.490   0.425 -0.4117  0.6746  0.2694
 6075SOL    HW224066   6.156   2.505   0.332 -0.0893  1.9264  0.4170
 6075SOL    HW324067   6.263   2.497   0.438 -0.5858  2.0217  0.9338
 6075SOL    MW424068   6.180   2.493   0.415 -0.3921  1.0175  0.3765
 6076SOL     OW24069   0.489   0.230   6.062  0.7453  0.0817 -0.2132
 6076SOL    HW224070   0.467   0.141   6.087  0.0646  0.5393  0.8741
 6076SOL    HW324071   0.441   0.245   5.980 -0.6978  0.0776  0.6024
 6076SOL    MW424072   0.480   0.220   6.054  0.4651  0.1415  0.0379
 6077SOL     OW24073   1.903   3.186   3.352  0.0951  0.1472  0.2022
 6077SOL    HW224074   1.877   3.101   3.387 -0.9383  1.2963  2.4506
 6077SOL    HW324075   1.947   3.166   3.270 -1.8485 -2.4033 -0.3204
 6077SOL    MW424076   1.906   3.172   3.346 -0.2977 -0.0377  0.4299
 6078SOL     OW24077   0.303   4.512   1.493 -0.5013 -0.2624 -0.0117
 6078SOL    HW224078   0.313   4.425   1.454  0.1367  0.0091 -0.4666
 6078SOL    HW324079   0.211   4.535   1.477 -0.2315 -0.1126 -1.4646
 6078SOL    MW424080   0.292   4.504   1.485 -0.3815 -0.2068 -0.2634
 6079SOL     OW24081   2.575   5.958   2.247  0.6992 -0.1452  0.5181
 6079SOL    HW224082   2.667   5.977   2.228  0.2799  0.7061 -0.8936
 6079SOL    HW324083   2.539   5.931   2.163 -1.1225  3.0514  0.0985
 6079SOL    MW424084   2.582   5.957   2.233  0.4035  0.3889  0.2765
 6080SOL     OW24085   2.161   2.219   2.500  0.0050  0.0264  0.0449
 6080SOL    HW224086   2.253   2.224   2.473 -0.1419 -0.2704 -0.5161
 6080SOL    HW324087   2.122   2.300   2.466  0.3731  0.8738  1.5437
 6080SOL    MW424088   2.168   2.231   2.492  0.0342  0.0990  0.1686
 6081SOL     OW24089   2.815   5.638   4.199 -0.1054  0.1379 -0.2560
 6081SOL    HW224090   2.814   5.727   4.164 -0.6878  0.8850  1.5494
 6081SOL    HW324091   2.808   5.582   4.122 -2.7657  1.6935 -1.2628
 6081SOL    MW424092   2.814   5.642   4.184 -0.5332  0.4417 -0.1506
 6082SOL     OW24093   5.351   0.629   0.819  0.1464 -0.4837 -0.1641
 6082SOL    HW224094   5.381   0.637   0.729 -0.8034 -0.8743 -0.5266
 6082SOL    HW324095   5.260   0.657   0.817 -0.7312 -3.0248  0.1236
 6082SOL    MW424096   5.343   0.633   0.807 -0.0947 -0.8705 -0.1739
 6083SOL     OW24097   4.454   1.944   5.330 -0.2389 -0.6876 -0.4288
 6083SOL    HW224098   4.416   2.023   5.369  0.8275 -0.0371 -0.6691
 6083SOL    HW324099   4.395   1.874   5.357 -0.8010  0.0782  0.4070
 6083SOL    MW424100   4.441   1.945   5.338 -0.1724 -0.5008 -0.3502
 6084SOL     OW24101   4.969   1.001   1.176  0.3003 -0.1268 -0.5821
 6084SOL    HW224102   4.945   1.077   1.229 -0.2818  0.0348 -1.0763
 6084SOL    HW324103   4.923   1.013   1.093 -0.7163 -1.5855 -0.2766
 6084SOL    MW424104   4.960   1.013   1.172  0.0893 -0.2979 -0.6070
 6085SOL     OW24105   6.365   3.381   5.390  0.4036 -0.3726 -0.0409
 6085SOL    HW224106   6.452   3.385   5.351 -0.2270 -1.1727 -1.6071
 6085SOL    HW324107   6.324   3.304   5.350 -0.8693 -0.2767  0.9983
 6085SOL    MW424108   6.371   3.371   5.380  0.1524 -0.4655 -0.1104
 6086SOL     OW24109   1.658   0.649   2.550  0.0883 -0.1745  0.5048
 6086SOL    HW224110   1.672   0.660   2.456  0.4901  0.8449  0.6670
 6086SOL    HW324111   1.590   0.582   2.557 -1.3654  1.1112 -0.5833
 6086SOL    MW424112   1.651   0.642   2.539 -0.0505  0.1296  0.3826
 6087SOL     OW24113   0.690   2.294   3.198  0.1689  0.4330  0.9488
 6087SOL    HW224114   0.754   2.323   3.263  0.8099 -0.7908  0.9033
 6087SOL    HW324115   0.621   2.253   3.250  1.5590 -2.2444  0.8777
 6087SOL    MW424116   0.689   2.292   3.214  0.4368 -0.0817  0.9334
 6088SOL     OW24117   1.941   3.515   3.005 -0.0422  0.1112  0.4019
 6088SOL    HW224118   2.017   3.477   2.961  0.6283  1.0691  0.7023
 6088SOL    HW324119   1.930   3.600   2.963  0.5203  0.9876  1.9620
 6088SOL    MW424120   1.949   3.521   2.993  0.1205  0.3532  0.6474
 6089SOL     OW24121   5.648   6.219   5.730 -0.1229 -0.0582  0.3236
 6089SOL    HW224122   5.646   6.145   5.669  0.1036 -0.9365  1.3405
 6089SOL    HW324123   5.688   6.183   5.809 -1.3124  0.7801  1.3396
 6089SOL    MW424124   5.653   6.205   5.732 -0.2500 -0.0635  0.5918
 6090SOL     OW24125   0.872   6.329   2.491 -0.3030  0.1730 -0.5678
 6090SOL    HW224126   0.862   6.337   2.396 -1.5769  2.1199 -0.3483
 6090SOL    HW324127   0.787   6.298   2.522 -0.5159  1.2847  0.0455
 6090SOL    MW424128   0.859   6.326   2.483 -0.4991  0.5765 -0.4579
 6091SOL     OW24129   0.815   4.382   2.447 -0.2623  0.2033 -0.5880
 6091SOL    HW224130   0.735   4.424   2.414 -1.0403  0.5500  1.5556
 6091SOL    HW324131   0.825   4.416   2.536  2.2049  0.0189 -0.7355
 6091SOL    MW424132   0.805   4.392   2.454 -0.0394  0.2247 -0.3246
 6092SOL     OW24133   0.316   1.088   2.104  0.2321  0.0680  0.2214
 6092SOL    HW224134   0.274   1.168   2.137 -0.7616 -0.5479  0.4991
 6092SOL    HW324135   0.392   1.119   2.056 -1.0853  1.3340 -1.1754
 6092SOL    MW424136   0.320   1.103   2.102 -0.0728  0.1537  0.0737
 6093SOL     OW24137   2.243   0.827   2.692  0.4496 -0.2152 -0.0452
 6093SOL    HW224138   2.177   0.845   2.625  0.3261 -0.5855 -0.0274
 6093SOL    HW324139   2.271   0.738   2.673 -0.9613 -1.0559  1.5471
 6093SOL    MW424140   2.238   0.818   2.680  0.2472 -0.3750  0.1672
 6094SOL     OW24141   4.465   3.201   3.761 -0.4223 -0.0087  0.1059
 6094SOL    HW224142   4.468   3.177   3.668 -1.1899  1.0588 -0.2035
 6094SOL    HW324143   4.399   3.143   3.799 -1.3250  0.6843 -0.3708
 6094SOL    MW424144   4.457   3.190   3.754 -0.6426  0.2235  0.0022
 6095SOL     OW24145   2.880   4.497   4.569 -0.6611  0.1981  0.4477
 6095SOL    HW224146   2.950   4.493   4.634 -0.0431  1.6466 -0.0713
 6095SOL    HW324147   2.920   4.461   4.490  0.1458  2.5471 -0.3172
 6095SOL    MW424148   2.895   4.492   4.567 -0.4731  0.6992  0.2783
 6096SOL     OW24149   4.220   4.691   1.115 -0.2833 -1.1629 -0.8091
 6096SOL    HW224150   4.224   4.649   1.201 -2.3281 -0.2829 -0.2236
 6096SOL    HW324151   4.267   4.774   1.126 -2.2603 -0.0984  0.1223
 6096SOL    MW424152   4.227   4.697   1.127 -0.8139 -0.9064 -0.6090
 6097SOL     OW24153   2.272   4.781   4.402 -0.5362  0.0887  0.3011
 6097SOL    HW224154   2.309   4.701   4.440  0.3083  0.2426 -0.1742
 6097SOL    HW324155   2.184   4.756   4.375  0.2289 -1.1291 -1.2229
 6097SOL    MW424156   2.265   4.767   4.403 -0.3238 -0.0517  0.0373
 6098SOL     OW24157   1.557   3.673   1.800  0.0030  0.0153 -0.3926
 6098SOL    HW224158   1.587   3.762   1.820  1.6692 -0.5862 -0.0361
 6098SOL    HW324159   1.498   3.684   1.726 -2.9114  1.8414  1.9551
 6098SOL    MW424160   1.553   3.687   1.793 -0.1617  0.1769 -0.0358
 6099SOL     OW24161   0.620   4.100   0.643  0.1722  0.6730 -0.2263
 6099SOL    HW224162   0.670   4.169   0.600  1.2952 -0.5366 -0.9245
 6099SOL    HW324163   0.668   4.020   0.624 -0.4306 -0.1713  1.5776
 6099SOL    MW424164   0.633   4.099   0.635  0.2408  0.4020 -0.0804
 6100SOL     OW24165   0.915   0.931   4.123 -0.0791  0.3449  0.0240
 6100SOL    HW224166   0.966   1.005   4.091  1.9252  0.1012  2.3814
 6100SOL    HW324167   0.977   0.880   4.174 -2.0943 -1.4508  0.7942
 6100SOL    MW424168   0.930   0.934   4.126 -0.0805  0.0758  0.4366
 6101SOL     OW24169   3.071   1.794   2.287  0.0285  0.1656  0.6230
 6101SOL    HW224170   3.083   1.803   2.192 -1.5142 -0.5594  0.3304
 6101SOL    HW324171   3.104   1.877   2.323  1.2250  0.1948 -0.4670
 6101SOL    MW424172   3.077   1.806   2.279 -0.0172  0.0738  0.4406
 6102SOL     OW24173   4.666   3.831   5.573  0.3765  0.2973  0.5498
 6102SOL    HW224174   4.704   3.908   5.616  0.0045  0.0305  1.3775
 6102SOL    HW324175   4.601   3.866   5.512  0.5301  0.6534  0.5908
 6102SOL    MW424176   4.663   3.845   5.570  0.3477  0.3091  0.6644
 6103SOL     OW24177   2.879   3.974   4.853 -0.3531  0.3241  0.7384
 6103SOL    HW224178   2.817   3.907   4.883 -2.7917  1.8398 -0.5321
 6103SOL    HW324179   2.903   4.022   4.932  0.0840 -0.9583  1.4146
 6103SOL    MW424180   2.874   3.972   4.867 -0.6171  0.3549  0.6600
 6104SOL     OW24181   2.498   0.195   3.117 -0.4439  0.7273 -0.2036
 6104SOL    HW224182   2.491   0.146   3.199 -2.2768  0.7143 -0.3257
 6104SOL    HW324183   2.458   0.138   3.051  0.3493  1.0441 -0.9753
 6104SOL    MW424184   2.491   0.181   3.119 -0.5811  0.7674 -0.3215
 6105SOL     OW24185   2.223   4.291   5.365  0.1479 -0.2526  0.0524
 6105SOL    HW224186   2.228   4.331   5.278 -1.8775  0.0217  0.0109
 6105SOL    HW324187   2.138   4.248   5.367  0.0427 -0.0569  1.9850
 6105SOL    MW424188   2.212   4.290   5.354 -0.1332 -0.1906  0.3019
 6106SOL     OW24189   1.084   2.578   5.876  0.0522 -0.5445  0.3214
 6106SOL    HW224190   0.998   2.592   5.915 -0.7705 -0.0919 -1.5317
 6106SOL    HW324191   1.145   2.615   5.940 -1.3557  1.9264  0.3927
 6106SOL    MW424192   1.081   2.585   5.890 -0.2421 -0.1588  0.0863
 6107SOL     OW24193   4.726   1.876   3.798 -0.0670 -0.4317  0.0604
 6107SOL    HW224194   4.771   1.952   3.761  0.5100 -0.0764  1.4076
 6107SOL    HW324195   4.771   1.801   3.760  0.7423 -0.0805  0.3046
 6107SOL    MW424196   4.738   1.876   3.788  0.1159 -0.3384  0.2704
 6108SOL     OW24197   4.602   5.802   4.165  1.0590 -0.0367 -0.0038
 6108SOL    HW224198   4.631   5.721   4.125  0.8142  0.7475 -1.8692
 6108SOL    HW324199   4.541   5.840   4.102 -0.0525  0.8481  1.5294
 6108SOL    MW424200   4.598   5.797   4.151  0.8800  0.1835 -0.0476
 6109SOL     OW24201   0.993   4.274   4.556 -0.2867  0.3426 -0.3747
 6109SOL    HW224202   0.907   4.232   4.548  0.1771 -0.9942  1.1557
 6109SOL    HW324203   1.019   4.289   4.465 -0.9808 -1.7415 -0.9990
 6109SOL    MW424204   0.985   4.270   4.543 -0.3171 -0.1087 -0.2551
 6110SOL     OW24205   0.059   1.017   3.883 -0.0515 -0.1554  0.2325
 6110SOL    HW224206  -0.028   0.978   3.891 -0.3895  0.0964 -1.8204
 6110SOL    HW324207   0.043   1.112   3.884  0.4202 -0.0566  1.6420
 6110SOL    MW424208   0.045   1.025   3.884 -0.0339 -0.1091  0.1476
 6111SOL     OW24209   4.497   1.162   6.197 -0.4008 -0.2966  0.2195
 6111SOL    HW224210   4.572   1.137   6.142 -0.9698  1.4456 -1.4466
 6111SOL    HW324211   4.536   1.205   6.273  0.3059  0.4691 -0.5628
 6111SOL    MW424212   4.512   1.164   6.200 -0.3827  0.0343 -0.1035
 6112SOL     OW24213   4.735   3.501   2.100 -0.8484 -0.1836 -0.1205
 6112SOL    HW224214   4.748   3.407   2.096  0.7037  0.0447 -2.6722
 6112SOL    HW324215   4.740   3.530   2.009 -3.1187  2.1756  0.3641
 6112SOL    MW424216   4.737   3.493   2.087 -0.9432  0.1578 -0.3932
 6113SOL     OW24217   2.701   5.920   0.612 -0.0854  0.4476 -0.3252
 6113SOL    HW224218   2.789   5.890   0.590 -0.6042 -1.2225 -0.2846
 6113SOL    HW324219   2.643   5.855   0.573 -1.2009  0.2379  1.5505
 6113SOL    MW424220   2.705   5.908   0.604 -0.3010  0.1996 -0.0723
 6114SOL     OW24221   3.045   0.309   1.472  0.3649  0.2978  0.3114
 6114SOL    HW224222   3.068   0.234   1.526  0.8025 -0.2788 -0.6331
 6114SOL    HW324223   3.119   0.318   1.411 -0.3160  0.6156 -0.4977
 6114SOL    MW424224   3.058   0.301   1.471  0.3328  0.2637  0.0800
 6115SOL     OW24225   1.049   1.237   3.080  0.0254  0.1423  0.2698
 6115SOL    HW224226   1.136   1.216   3.045 -0.1658  0.6668 -0.5419
 6115SOL    HW324227   1.042   1.184   3.160  1.1451  0.2151  0.4263
 6115SOL    MW424228   1.059   1.227   3.086  0.1479  0.2211  0.1833
 6116SOL     OW24229   1.940   2.301   2.032 -0.4679 -0.1638 -0.2346
 6116SOL    HW224230   1.980   2.227   1.987 -1.0466 -0.3576 -0.4474
 6116SOL    HW324231   1.943   2.372   1.968  0.3419  0.0812  0.0701
 6116SOL    MW424232   1.945   2.301   2.017 -0.4374 -0.1570 -0.2224
 6117SOL     OW24233   2.304   0.759   3.353  0.0421  0.3059 -0.1175
 6117SOL    HW224234   2.268   0.844   3.326  2.0056  0.9608 -0.8880
 6117SOL    HW324235   2.286   0.701   3.280  0.5887  0.6649 -0.5549
 6117SOL    MW424236   2.297   0.763   3.340  0.3733  0.4397 -0.2769
 6118SOL     OW24237   1.253   2.068   0.971  0.1919 -0.1191 -0.6409
 6118SOL    HW224238   1.163   2.065   1.002  0.5855  1.6511  0.8392
 6118SOL    HW324239   1.270   1.980   0.938 -1.6348 -0.9003  0.3665
 6118SOL    MW424240   1.244   2.056   0.971  0.0028  0.0114 -0.3127
 6119SOL     OW24241   3.376   1.838   2.634 -0.6340  0.3893  0.3281
 6119SOL    HW224242   3.424   1.893   2.572  0.0398 -0.1584  0.3478
 6119SOL    HW324243   3.308   1.895   2.670 -1.0131  0.7305 -0.8831
 6119SOL    MW424244   3.373   1.853   2.630 -0.5951  0.3621  0.1709
 6120SOL     OW24245   2.952   2.466   5.449  0.6698 -0.8966 -0.5175
 6120SOL    HW224246   2.881   2.530   5.439  0.0058 -1.7294 -1.2687
 6120SOL    HW324247   3.016   2.490   5.381  1.0257 -0.2762  0.0222
 6120SOL    MW424248   2.951   2.478   5.438  0.6291 -0.9246 -0.5454
 6121SOL     OW24249   0.980   5.863   3.561 -0.1101 -0.1724 -0.0088
 6121SOL    HW224250   1.036   5.862   3.483  2.3541 -2.8854  1.5804
 6121SOL    HW324251   1.008   5.940   3.610  0.8806 -0.4005 -0.1975
 6121SOL    MW424252   0.991   5.873   3.557  0.3457 -0.5605  0.1760
 6122SOL     OW24253   4.832   2.308   0.649  0.2156 -0.7730 -0.1761
 6122SOL    HW224254   4.828   2.348   0.562 -1.2458 -1.6717 -0.5594
 6122SOL    HW324255   4.919   2.330   0.681  0.2455  0.8316 -1.2503
 6122SOL    MW424256   4.843   2.316   0.642  0.0267 -0.6799 -0.3684
 6123SOL     OW24257   4.007   1.979   5.530  0.0537 -0.0849 -0.4340
 6123SOL    HW224258   3.956   1.904   5.561  2.1626 -2.3450 -2.0647
 6123SOL    HW324259   4.065   2.000   5.603 -0.8259  0.2582  0.1818
 6123SOL    MW424260   4.008   1.971   5.543  0.2159 -0.3379 -0.5679
 6124SOL     OW24261   4.418   0.292   1.912 -0.0204 -0.1016 -0.1732
 6124SOL    HW224262   4.348   0.320   1.854 -1.4641 -1.1677  0.9933
 6124SOL    HW324263   4.457   0.216   1.868 -0.3603 -0.2146 -0.2780
 6124SOL    MW424264   4.414   0.286   1.898 -0.2558 -0.2572 -0.0332
 6125SOL     OW24265   3.417   4.943   3.613  0.0692 -0.5310 -0.2869
 6125SOL    HW224266   3.373   5.013   3.565  1.4247 -0.8114 -2.0217
 6125SOL    HW324267   3.373   4.863   3.585 -0.0583 -0.5671  0.0184
 6125SOL    MW424268   3.405   4.942   3.603  0.2312 -0.5728 -0.4755
 6126SOL     OW24269   3.779   2.269   1.010 -0.0708  0.1193  0.3882
 6126SOL    HW224270   3.810   2.240   0.925  0.0516 -1.0728  0.8271
 6126SOL    HW324271   3.707   2.210   1.032 -0.3786  0.6785  0.9183
 6126SOL    MW424272   3.774   2.258   1.002 -0.0953  0.0358  0.5160
 6127SOL     OW24273   2.002   4.240  -0.001 -0.0318  0.0704 -0.6080
 6127SOL    HW224274   1.907   4.248  -0.000  0.0388  0.9428  0.3131
 6127SOL    HW324275   2.034   4.323   0.034  1.0450 -0.5758 -0.0078
 6127SOL    MW424276   1.994   4.252   0.004  0.1196  0.1003 -0.4073
 6128SOL     OW24277   1.243   0.358   4.356  0.0170 -0.2061  0.2398
 6128SOL    HW224278   1.168   0.299   4.370 -0.7526  0.7037  0.0809
 6128SOL    HW324279   1.242   0.375   4.262 -0.7169  1.2405  0.4749
 6128SOL    MW424280   1.233   0.352   4.345 -0.1814  0.1048  0.2499
 6129SOL     OW24281   6.389   5.286   4.815 -0.3293 -0.2489 -0.0003
 6129SOL    HW224282   6.313   5.284   4.872 -0.4515  1.0399 -0.0894
 6129SOL    HW324283   6.354   5.306   4.728  0.0998  0.4259 -0.0286
 6129SOL    MW424284   6.374   5.289   4.811 -0.2888  0.0101 -0.0158
 6130SOL     OW24285   0.982   1.065   1.960  0.0837  0.3660 -0.4105
 6130SOL    HW224286   1.053   1.087   2.021 -0.7832 -0.3513  0.9050
 6130SOL    HW324287   1.006   0.978   1.927 -0.6759 -0.3520  0.8526
 6130SOL    MW424288   0.995   1.056   1.964 -0.1309  0.1766 -0.0703
 6131SOL     OW24289   4.805   1.392   3.531  0.0994  0.0610  0.2107
 6131SOL    HW224290   4.721   1.395   3.485 -0.8299 -1.1886  1.7081
 6131SOL    HW324291   4.803   1.470   3.588 -0.1762 -0.1122  0.4410
 6131SOL    MW424292   4.793   1.403   3.533 -0.0595 -0.1267  0.4386
 6132SOL     OW24293   4.695   0.818   2.935 -0.1819 -0.0548  0.1097
 6132SOL    HW224294   4.734   0.731   2.937  0.6069  0.2836 -0.0874
 6132SOL    HW324295   4.601   0.803   2.927 -0.6024 -1.0120  4.2948
 6132SOL    MW424296   4.687   0.805   2.934 -0.1333 -0.1365  0.6358
 6133SOL     OW24297   4.770   5.139   3.597 -0.0007 -0.4150 -0.0386
 6133SOL    HW224298   4.708   5.111   3.664  0.2025 -1.0272 -0.0993
 6133SOL    HW324299   4.847   5.083   3.610 -0.6311 -1.8655 -1.9177
 6133SOL    MW424300   4.772   5.128   3.607 -0.0571 -0.6871 -0.2945
 6134SOL     OW24301   1.058   6.085   3.724  1.0982  0.0223 -0.1787
 6134SOL    HW224302   1.130   6.143   3.698  1.0294 -0.0623 -0.5497
 6134SOL    HW324303   1.019   6.128   3.800  0.8650  0.6089 -0.6285
 6134SOL    MW424304   1.063   6.098   3.731  1.0584  0.0885 -0.2870
 6135SOL     OW24305   5.842   0.745   1.464  0.3134 -0.9299  0.1057
 6135SOL    HW224306   5.828   0.770   1.556  1.4921 -0.8075  0.2705
 6135SOL    HW324307   5.937   0.729   1.458  0.1722 -1.4045 -0.9766
 6135SOL    MW424308   5.853   0.746   1.476  0.4503 -0.9764 -0.0154
 6136SOL     OW24309   4.271   4.387   6.337  0.1527 -0.3963 -0.2271
 6136SOL    HW224310   4.199   4.443   6.308  0.5764  0.2968  0.0322
 6136SOL    HW324311   4.232   4.300   6.346 -0.7414  0.0433  0.2656
 6136SOL    MW424312   4.256   4.383   6.335  0.0906 -0.2469 -0.1279
 6137SOL     OW24313   1.017   3.869   5.328 -0.5289  0.2135  0.0341
 6137SOL    HW224314   1.085   3.932   5.302  1.9191 -2.5199 -0.6720
 6137SOL    HW324315   0.996   3.893   5.418  1.5325  1.0683  0.3496
 6137SOL    MW424316   1.023   3.881   5.336  0.0660 -0.0343 -0.0175
 6138SOL     OW24317   1.333   1.134   0.569 -0.0895  0.5943 -0.0589
 6138SOL    HW224318   1.259   1.155   0.512 -0.7115 -0.4579  0.3387
 6138SOL    HW324319   1.315   1.180   0.651  0.3964  1.4410 -0.4101
 6138SOL    MW424320   1.321   1.143   0.572 -0.1075  0.5672 -0.0528
 6139SOL     OW24321   4.412   1.453   2.156  0.8122  0.6793 -0.4189
 6139SOL    HW224322   4.441   1.390   2.222  1.0059 -0.7848 -1.8398
 6139SOL    HW324323   4.493   1.485   2.117  0.6766  1.1192 -0.3495
 6139SOL    MW424324   4.427   1.449   2.160  0.8199  0.5442 -0.5972
 6140SOL     OW24325   6.280   0.440   1.760 -0.2816 -0.0623  0.1038
 6140SOL    HW224326   6.292   0.520   1.811  0.2526 -0.3597  0.4497
 6140SOL    HW324327   6.187   0.438   1.741 -0.4859  0.0665  1.0469
 6140SOL    MW424328   6.270   0.451   1.764 -0.2381 -0.0846  0.2739
 6141SOL     OW24329   4.680   4.636   2.846  0.0527  0.3567 -0.0968
 6141SOL    HW224330   4.653   4.659   2.757 -2.3955 -1.5340  0.0693
 6141SOL    HW324331   4.767   4.598   2.835  0.2915  1.2304 -1.5041
 6141SOL    MW424332   4.688   4.634   2.833 -0.2388  0.2225 -0.2605
 6142SOL     OW24333   0.639   3.616   3.959 -0.6086  0.3296 -0.1935
 6142SOL    HW224334   0.627   3.656   4.045  1.6945 -3.6592  2.3027
 6142SOL    HW324335   0.551   3.593   3.930 -1.3592  0.5754  1.7475
 6142SOL    MW424336   0.626   3.619   3.966 -0.4038 -0.1643  0.3920
 6143SOL     OW24337   5.371   3.416   2.017 -0.0685  0.5909 -0.3035
 6143SOL    HW224338   5.348   3.341   1.962 -1.3471  1.2509 -0.6973
 6143SOL    HW324339   5.299   3.422   2.080  0.1910  1.2936 -0.0719
 6143SOL    MW424340   5.359   3.407   2.018 -0.2029  0.7707 -0.3249
 6144SOL     OW24341   0.760   3.881   5.808 -0.1622 -0.0686 -0.3298
 6144SOL    HW224342   0.718   3.795   5.804 -1.0961  0.3656 -0.3127
 6144SOL    HW324343   0.794   3.888   5.897 -0.7938 -0.1148 -0.0763
 6144SOL    MW424344   0.759   3.871   5.819 -0.3687 -0.0174 -0.2941
 6145SOL     OW24345   0.100   2.691   5.758 -0.0808 -0.3111  0.3551
 6145SOL    HW224346   0.159   2.629   5.802  0.2101 -0.4901 -0.2759
 6145SOL    HW324347   0.055   2.638   5.692  0.7017  0.2802 -0.6964
 6145SOL    MW424348   0.102   2.676   5.755  0.0608 -0.2567  0.1331
 6146SOL     OW24349   5.902   1.544   3.044 -0.0414 -0.4254  0.1299
 6146SOL    HW224350   5.955   1.471   3.077 -0.9707 -1.2771 -0.2110
 6146SOL    HW324351   5.820   1.537   3.091 -0.5382 -0.2562 -0.6866
 6146SOL    MW424352   5.898   1.534   3.054 -0.2296 -0.5154 -0.0228
 6147SOL     OW24353   1.294   6.177   2.740  0.0266  0.1313 -0.5082
 6147SOL    HW224354   1.374   6.197   2.692  0.5785 -1.1782 -0.1732
 6147SOL    HW324355   1.225   6.179   2.673  0.6230 -0.5576 -1.1680
 6147SOL    MW424356   1.295   6.180   2.725  0.1781 -0.1324 -0.5510
 6148SOL     OW24357   5.408   0.474   3.834  0.0342  0.3874  0.2006
 6148SOL    HW224358   5.378   0.564   3.848 -1.4595  0.0863 -0.9322
 6148SOL    HW324359   5.335   0.419   3.862  0.4511 -0.4383 -0.2915
 6148SOL    MW424360   5.395   0.479   3.840 -0.1079  0.2388 -0.0138
 6149SOL     OW24361   1.083   2.004   5.222 -0.2117 -0.0056  0.6228
 6149SOL    HW224362   1.019   2.043   5.163 -0.3824  1.8029  1.9346
 6149SOL    HW324363   1.066   2.045   5.307  2.7703  0.6843  1.0101
 6149SOL    MW424364   1.073   2.014   5.226  0.1592  0.3240  0.8470
 6150SOL     OW24365   5.149   4.001   4.017 -0.1931  0.2622  0.2325
 6150SOL    HW224366   5.215   4.059   4.056  1.2395  0.3893 -2.1571
 6150SOL    HW324367   5.067   4.025   4.061  1.2233  0.3299  3.0933
 6150SOL    MW424368   5.147   4.012   4.028  0.1828  0.2879  0.2947
 6151SOL     OW24369   5.610   0.963   2.365 -0.5882 -0.8574 -0.0623
 6151SOL    HW224370   5.558   0.912   2.428  1.6308 -0.5278  2.2066
 6151SOL    HW324371   5.674   1.010   2.419 -0.1606  1.4882 -2.3894
 6151SOL    MW424372   5.611   0.963   2.381 -0.2390 -0.5044 -0.0700
 6152SOL     OW24373   2.404   5.862   2.052  0.3846 -0.4460 -1.3019
 6152SOL    HW224374   2.327   5.839   2.105  1.3661 -0.0228  0.3741
 6152SOL    HW324375   2.397   5.807   1.974 -1.7529 -0.2337 -1.3207
 6152SOL    MW424376   2.393   5.852   2.049  0.2321 -0.3622 -1.0832
 6153SOL     OW24377   1.122   3.693   6.280 -0.0976  0.1447  0.0973
 6153SOL    HW224378   1.057   3.637   6.238  1.0015 -0.7522 -0.4620
 6153SOL    HW324379   1.075   3.734   6.352 -0.9595 -1.4678  0.4978
 6153SOL    MW424380   1.108   3.691   6.284 -0.0663 -0.1864  0.0763
 6154SOL     OW24381   3.782   3.641   4.025 -0.0486  0.4427  0.3017
 6154SOL    HW224382   3.824   3.565   4.065  0.2238  0.3357 -0.1755
 6154SOL    HW324383   3.749   3.692   4.099 -1.2414 -0.6974  0.5873
 6154SOL    MW424384   3.783   3.638   4.040 -0.1700  0.2781  0.2764
 6155SOL     OW24385   3.255   1.879   0.873 -0.0252  0.0083  0.3365
 6155SOL    HW224386   3.330   1.837   0.832 -1.4690 -1.4379 -0.9641
 6155SOL    HW324387   3.243   1.961   0.824 -0.6045 -0.8166 -0.9541
 6155SOL    MW424388   3.263   1.884   0.861 -0.2921 -0.2913 -0.0054
 6156SOL     OW24389   2.635   6.101   5.523 -0.0682 -0.1875 -0.5284
 6156SOL    HW224390   2.621   6.161   5.596 -0.3930  2.2531 -2.4694
 6156SOL    HW324391   2.729   6.086   5.522 -0.1935 -1.3578  1.1506
 6156SOL    MW424392   2.645   6.107   5.532 -0.1276 -0.0199 -0.5629
 6157SOL     OW24393   0.464   1.043   0.522  0.2440 -0.3256 -0.3889
 6157SOL    HW224394   0.497   1.102   0.590  0.1559 -0.0827 -0.5574
 6157SOL    HW324395   0.373   1.071   0.509 -0.6680 -2.1393  1.3908
 6157SOL    MW424396   0.456   1.055   0.529  0.1121 -0.5329 -0.1763
 6158SOL     OW24397   0.158   1.627   5.182 -0.2844 -0.3690 -0.0158
 6158SOL    HW224398   0.084   1.611   5.240  0.6013 -1.8011  0.7856
 6158SOL    HW324399   0.187   1.715   5.204 -0.3336 -0.6620  1.3316
 6158SOL    MW424400   0.152   1.636   5.192 -0.1740 -0.5966  0.2677
 6159SOL     OW24401   5.097   0.634   2.008  0.0896 -0.0498 -0.4288
 6159SOL    HW224402   5.167   0.568   2.008 -0.2311 -0.3963 -0.8830
 6159SOL    HW324403   5.143   0.717   2.013  0.4815 -0.3214  0.6718
 6159SOL    MW424404   5.112   0.636   2.008  0.0990 -0.1313 -0.3435
 6160SOL     OW24405   0.500   0.179   1.287 -0.6159 -0.7601  0.8582
 6160SOL    HW224406   0.428   0.138   1.239 -1.3687 -0.8338  2.0252
 6160SOL    HW324407   0.486   0.273   1.275  1.0588 -0.7434 -1.7427
 6160SOL    MW424408   0.489   0.186   1.279 -0.4943 -0.7676  0.6691
 6161SOL     OW24409   0.147   0.456   2.999  0.0541  0.1490  0.2673
 6161SOL    HW224410   0.162   0.416   3.085  0.8803 -0.6909 -0.2456
 6161SOL    HW324411   0.234   0.460   2.960 -0.1180  1.8389  0.0188
 6161SOL    MW424412   0.161   0.451   3.006  0.1404  0.2612  0.1668
 6162SOL     OW24413   0.288   0.093   1.524  0.7273 -0.3713 -0.0149
 6162SOL    HW224414   0.316   0.026   1.461  0.8417 -0.0936 -0.2631
 6162SOL    HW324415   0.214   0.136   1.482  2.3794  1.5639 -1.1690
 6162SOL    MW424416   0.282   0.090   1.510  0.9604 -0.0793 -0.1999
 6163SOL     OW24417   3.039   1.920   5.845 -0.2781  0.5032  0.5070
 6163SOL    HW224418   3.070   1.838   5.886  3.0204  1.5082  0.3071
 6163SOL    HW324419   3.052   1.986   5.913  1.8356  1.5857 -0.8201
 6163SOL    MW424420   3.045   1.918   5.860  0.4360  0.7786  0.3056
 6164SOL     OW24421   1.649   5.677   6.349  0.2511  0.2571  0.2140
 6164SOL    HW224422   1.701   5.604   6.381 -0.5535 -0.6516 -0.4859
 6164SOL    HW324423   1.623   5.725   6.427  1.0213 -0.0395  0.6604
 6164SOL    MW424424   1.652   5.674   6.363  0.2466  0.0981  0.1805
 6165SOL     OW24425   3.908   5.271   1.354  0.0564 -0.5138 -0.2995
 6165SOL    HW224426   3.934   5.351   1.400 -0.6434 -1.4767  1.9100
 6165SOL    HW324427   3.958   5.273   1.273  1.6985  1.0947  0.6619
 6165SOL    MW424428   3.918   5.282   1.350  0.1808 -0.4287  0.1188
 6166SOL     OW24429   5.038   4.836   1.660  0.0718 -0.2407 -0.8122
 6166SOL    HW224430   5.054   4.858   1.568  1.3357  1.5107 -0.2373
 6166SOL    HW324431   5.105   4.770   1.681  0.7302  0.4246 -0.7886
 6166SOL    MW424432   5.049   4.830   1.651  0.3254  0.0781 -0.7333
 6167SOL     OW24433   6.262   2.401   2.771 -0.3582 -0.3047  0.0271
 6167SOL    HW224434   6.226   2.487   2.753  1.2141  0.3696 -0.0425
 6167SOL    HW324435   6.295   2.370   2.687  0.9456 -0.0452  0.4101
 6167SOL    MW424436   6.262   2.408   2.758  0.0213 -0.1815  0.0684
 6168SOL     OW24437   4.363   1.343   3.607  0.1529  0.1809  0.2497
 6168SOL    HW224438   4.394   1.330   3.518  0.2464 -0.2856  0.3456
 6168SOL    HW324439   4.416   1.282   3.659  1.2024  1.5413  0.8438
 6168SOL    MW424440   4.374   1.333   3.602  0.3037  0.2989  0.3407
 6169SOL     OW24441   3.761   6.005   2.196  0.3773 -0.8317  0.1371
 6169SOL    HW224442   3.726   6.002   2.285 -1.3786 -1.0856 -0.5252
 6169SOL    HW324443   3.694   6.050   2.146  1.1135 -1.1443 -1.1690
 6169SOL    MW424444   3.748   6.011   2.201  0.2427 -0.9065 -0.1226
 6170SOL     OW24445   5.240   3.690   2.306  0.1985  0.6468  0.1680
 6170SOL    HW224446   5.174   3.755   2.326 -1.6335 -1.0632  0.0196
 6170SOL    HW324447   5.287   3.725   2.231 -0.1187  2.1814  0.6565
 6170SOL    MW424448   5.238   3.703   2.299 -0.0851  0.6237  0.2129
 6171SOL     OW24449   4.045   1.390   1.452  0.3927 -0.5701 -0.0187
 6171SOL    HW224450   4.130   1.417   1.417  0.0606  3.9303  1.8523
 6171SOL    HW324451   3.981   1.430   1.394 -0.4645 -2.2376 -0.2815
 6171SOL    MW424452   4.047   1.399   1.440  0.2358 -0.1963  0.1935
 6172SOL     OW24453   4.026   2.667   6.090  0.3004  0.3762  0.2928
 6172SOL    HW224454   4.103   2.681   6.035 -0.7022 -0.2645 -1.3453
 6172SOL    HW324455   4.056   2.604   6.156  0.9942 -0.5115 -0.8115
 6172SOL    MW424456   4.040   2.660   6.091  0.2596  0.1745 -0.0690
 6173SOL     OW24457   2.924   5.023   3.845 -0.0382 -0.2937  0.1202
 6173SOL    HW224458   2.834   4.991   3.840 -0.3729  0.7746 -1.7787
 6173SOL    HW324459   2.978   4.945   3.841 -0.8642 -0.8306 -0.9763
 6173SOL    MW424460   2.919   5.009   3.844 -0.1914 -0.2236 -0.2750
 6174SOL     OW24461   4.605   5.725   2.147  0.6252 -0.5028 -0.3920
 6174SOL    HW224462   4.646   5.796   2.097  0.4580 -0.5544 -0.6042
 6174SOL    HW324463   4.667   5.706   2.217 -0.0082  0.9443  0.6340
 6174SOL    MW424464   4.618   5.732   2.150  0.5195 -0.3187 -0.2846
 6175SOL     OW24465   0.155   0.200   5.430 -0.3974 -0.0591 -0.3388
 6175SOL    HW224466   0.221   0.266   5.447 -0.4357  0.0628 -0.6492
 6175SOL    HW324467   0.205   0.120   5.412 -0.3656 -0.2815  0.6952
 6175SOL    MW424468   0.170   0.198   5.430 -0.3982 -0.0724 -0.2433
 6176SOL     OW24469   3.370   3.810   4.788  0.0651  0.8873  0.7733
 6176SOL    HW224470   3.278   3.828   4.771  0.1247 -0.9663 -2.2804
 6176SOL    HW324471   3.369   3.729   4.841 -0.0963  0.2620 -0.1620
 6176SOL    MW424472   3.358   3.801   4.793  0.0517  0.5602  0.2470
 6177SOL     OW24473   0.866   1.399   4.567  0.1819  0.0736  0.1181
 6177SOL    HW224474   0.947   1.352   4.586  0.3435  0.5522  0.6194
 6177SOL    HW324475   0.847   1.377   4.475  2.5201  2.3404 -1.0390
 6177SOL    MW424476   0.874   1.390   4.557  0.5117  0.4358  0.0316
 6178SOL     OW24477   0.702   3.614   5.768  0.3102 -0.2681  0.5002
 6178SOL    HW224478   0.634   3.586   5.829 -1.1964  1.5763 -0.2244
 6178SOL    HW324479   0.689   3.560   5.691  1.0975 -1.3949  1.1223
 6178SOL    MW424480   0.691   3.603   5.766  0.2153 -0.1734  0.4867
 6179SOL     OW24481   4.949   2.200   1.522  0.2937 -0.5908  0.3051
 6179SOL    HW224482   4.982   2.146   1.594 -0.3635 -0.0678  1.0188
 6179SOL    HW324483   4.865   2.232   1.553  0.2036  0.0084 -0.5283
 6179SOL    MW424484   4.942   2.197   1.535  0.1951 -0.4427  0.2893
 6180SOL     OW24485   2.899   3.788   6.144 -0.2079  0.1117  0.6600
 6180SOL    HW224486   2.833   3.831   6.198 -0.1989  0.4249  0.4227
 6180SOL    HW324487   2.933   3.718   6.199  1.5861  1.9391  2.0589
 6180SOL    MW424488   2.895   3.785   6.158  0.0300  0.3941  0.8133
 6181SOL     OW24489   3.008   3.163   2.261 -0.0860 -0.4989 -0.8820
 6181SOL    HW224490   3.065   3.087   2.255 -1.0443 -1.4592  1.1329
 6181SOL    HW324491   2.920   3.126   2.271 -0.7000  0.9035 -0.8593
 6181SOL    MW424492   3.004   3.148   2.261 -0.2935 -0.4406 -0.6131
 6182SOL     OW24493   3.012   0.016   1.321  0.0108  0.1754 -0.4804
 6182SOL    HW224494   2.929  -0.004   1.278 -0.1848 -0.9563  0.3718
 6182SOL    HW324495   3.064   0.060   1.254 -1.3059  1.0089 -0.9933
 6182SOL    MW424496   3.008   0.019   1.307 -0.1887  0.1361 -0.4356
 6183SOL     OW24497   5.478   0.156   2.860  0.0328 -0.0554  0.3092
 6183SOL    HW224498   5.531   0.086   2.824  0.5663  0.4626  0.0652
 6183SOL    HW324499   5.541   0.221   2.891 -0.4266 -0.1711  1.5367
 6183SOL    MW424500   5.493   0.156   2.859  0.0426 -0.0023  0.4390
 6184SOL     OW24501   4.799   4.283   3.085  0.5812 -0.0729 -0.0535
 6184SOL    HW224502   4.731   4.346   3.106 -0.5928 -1.0437 -0.8171
 6184SOL    HW324503   4.855   4.328   3.022  1.5960  1.2844  1.7230
 6184SOL    MW424504   4.798   4.297   3.079  0.5602 -0.0219  0.0801
 6185SOL     OW24505   3.058   3.607   6.293  0.4432  0.4320 -0.1935
 6185SOL    HW224506   3.110   3.661   6.352  1.1597 -0.8180  0.3510
 6185SOL    HW324507   3.118   3.538   6.265 -0.2198  0.3644 -1.5005
 6185SOL    MW424508   3.073   3.605   6.297  0.4502  0.2582 -0.2941
 6186SOL     OW24509   2.926   1.544   2.398  0.5048  0.1301  0.2621
 6186SOL    HW224510   2.960   1.609   2.460 -0.6728 -0.2469  1.3498
 6186SOL    HW324511   2.971   1.463   2.421 -0.5060 -0.1930  1.1933
 6186SOL    MW424512   2.937   1.542   2.409  0.2161  0.0378  0.5285
 6187SOL     OW24513   3.350   3.693   3.883 -0.2264 -0.0716  0.4307
 6187SOL    HW224514   3.296   3.657   3.953 -1.1221  0.3831 -0.0133
 6187SOL    HW324515   3.426   3.634   3.878 -1.5514 -1.8091 -0.1515
 6187SOL    MW424516   3.353   3.680   3.891 -0.5194 -0.2408  0.2953
 6188SOL     OW24517   3.465   2.936   1.106  0.3768  0.2385 -0.1536
 6188SOL    HW224518   3.418   3.004   1.154 -1.0476 -0.3140 -0.7192
 6188SOL    HW324519   3.403   2.906   1.039  1.5079 -0.5827 -0.8722
 6188SOL    MW424520   3.451   2.941   1.104  0.3381  0.0573 -0.3231
 6189SOL     OW24521   0.440   2.782   5.059  0.1260 -0.1552 -0.4266
 6189SOL    HW224522   0.535   2.796   5.061 -0.1875  2.3032  0.3357
 6189SOL    HW324523   0.411   2.824   4.978 -0.3830 -0.3376 -0.3447
 6189SOL    MW424524   0.449   2.789   5.048  0.0174  0.1451 -0.3153
 6190SOL     OW24525   6.273   5.587   1.587  0.3620  0.0656 -0.2049
 6190SOL    HW224526   6.342   5.653   1.590 -0.4745  0.9619  0.0016
 6190SOL    HW324527   6.191   5.638   1.594 -0.2861 -1.0358  0.5363
 6190SOL    MW424528   6.271   5.603   1.588  0.1661  0.0385 -0.0798
 6191SOL     OW24529   0.120   3.900   3.818  0.4527  0.4942 -0.4785
 6191SOL    HW224530   0.175   3.914   3.895  1.2930 -0.3694 -0.8990
 6191SOL    HW324531   0.112   3.805   3.811 -2.4833  0.5517  0.5110
 6191SOL    MW424532   0.126   3.889   3.827  0.1762  0.3878 -0.4034
 6192SOL     OW24533   0.597   2.914   0.838  0.4778 -0.6652  0.2892
 6192SOL    HW224534   0.636   2.962   0.911 -0.3230 -1.0941  1.0170
 6192SOL    HW324535   0.606   2.822   0.862 -1.0353 -0.7775  0.5334
 6192SOL    MW424536   0.603   2.908   0.851  0.1725 -0.7366  0.4174
 6193SOL     OW24537   5.000   0.615   4.985 -0.0787  0.4027  0.2764
 6193SOL    HW224538   4.955   0.569   5.056 -0.2502 -0.8126 -0.5748
 6193SOL    HW324539   5.084   0.641   5.023  1.0347 -2.6470  0.2599
 6193SOL    MW424540   5.005   0.612   5.000  0.0456 -0.1600  0.1619
 6194SOL     OW24541   2.260   2.115   3.155  0.1013 -0.1172  0.4635
 6194SOL    HW224542   2.287   2.063   3.230 -0.0121  1.0120  1.3153
 6194SOL    HW324543   2.186   2.167   3.187 -0.7213 -0.4786 -0.7764
 6194SOL    MW424544   2.253   2.115   3.169 -0.0222 -0.0159  0.4123
 6195SOL     OW24545   3.003   0.090   5.993  0.3202  0.0238 -0.4449
 6195SOL    HW224546   3.083   0.086   5.941  0.2068  0.9207 -0.7089
 6195SOL    HW324547   3.020   0.033   6.068  1.5482  0.8893 -0.0411
 6195SOL    MW424548   3.016   0.082   5.996  0.4673  0.2563 -0.4265
 6196SOL     OW24549   4.224   2.716   3.777  0.3655 -1.1016  0.2329
 6196SOL    HW224550   4.243   2.693   3.686  0.1978 -3.3718  0.6998
 6196SOL    HW324551   4.142   2.765   3.773  1.0718  0.0185 -0.9349
 6196SOL    MW424552   4.216   2.719   3.765  0.4366 -1.2533  0.1404
 6197SOL     OW24553   1.050   3.035   5.366  0.6255 -0.7164  0.3244
 6197SOL    HW224554   1.008   3.074   5.443 -0.8091 -0.7330 -0.4202
 6197SOL    HW324555   1.134   3.081   5.359 -0.0141  0.5884  0.8521
 6197SOL    MW424556   1.055   3.047   5.375  0.3518 -0.5465  0.2958
 6198SOL     OW24557   4.796   5.354   4.198  0.2870  0.0047 -0.5192
 6198SOL    HW224558   4.830   5.337   4.286  0.3339  0.1775 -0.5049
 6198SOL    HW324559   4.711   5.395   4.213 -0.9359 -2.3665 -0.5297
 6198SOL    MW424560   4.789   5.357   4.211  0.1319 -0.2854 -0.5187
 6199SOL     OW24561   4.588   1.382   1.218 -0.0503  0.3839  0.1230
 6199SOL    HW224562   4.522   1.315   1.202 -0.9063  0.9724  1.1014
 6199SOL    HW324563   4.638   1.349   1.292  2.6149 -1.3769 -2.2401
 6199SOL    MW424564   4.586   1.369   1.225  0.1884  0.2293 -0.0597
 6200SOL     OW24565   0.057   3.335   0.157  0.3247 -0.1194  0.3326
 6200SOL    HW224566   0.080   3.412   0.208 -3.5721  0.6487  1.2722
 6200SOL    HW324567   0.094   3.261   0.206  1.1824  0.9188  1.2952
 6200SOL    MW424568   0.065   3.335   0.170 -0.0763  0.1189  0.5836
 6201SOL     OW24569   5.351   4.361   5.866  0.4796  0.1081  0.0874
 6201SOL    HW224570   5.289   4.323   5.928 -0.1198  1.2434  0.2166
 6201SOL    HW324571   5.426   4.388   5.919  0.4765  0.0105  0.1408
 6201SOL    MW424572   5.353   4.360   5.881  0.4001  0.2450  0.1115
 6202SOL     OW24573   0.781   1.587   3.847  0.3506  0.2623  0.1700
 6202SOL    HW224574   0.721   1.607   3.919  0.2352 -0.7500  0.3692
 6202SOL    HW324575   0.859   1.639   3.866 -0.4127  1.5620 -0.0630
 6202SOL    MW424576   0.783   1.597   3.859  0.2347  0.3002  0.1655
 6203SOL     OW24577   1.517   4.840   3.771 -0.3478 -0.0710  0.3382
 6203SOL    HW224578   1.483   4.928   3.791 -0.2603  0.4609 -1.6394
 6203SOL    HW324579   1.490   4.824   3.681  0.7238 -1.5653  0.2466
 6203SOL    MW424580   1.509   4.850   3.762 -0.1948 -0.1980  0.0652
 6204SOL     OW24581   2.777   5.697   5.028 -0.1912 -0.1755  0.0310
 6204SOL    HW224582   2.760   5.719   5.120  1.6378 -1.8279  0.8254
 6204SOL    HW324583   2.780   5.601   5.027 -0.0451 -0.1738 -1.7488
 6204SOL    MW424584   2.775   5.687   5.040  0.0694 -0.3933 -0.0990
 6205SOL     OW24585   3.514   4.398   0.860 -0.5984 -0.3733  0.2478
 6205SOL    HW224586   3.581   4.427   0.798 -0.0463 -0.7512  0.6474
 6205SOL    HW324587   3.514   4.466   0.928 -0.3259 -0.5707  0.4509
 6205SOL    MW424588   3.523   4.411   0.861 -0.4896 -0.4492  0.3273
 6206SOL     OW24589   3.890   0.358   5.278  0.3873  0.8046  0.0048
 6206SOL    HW224590   3.912   0.402   5.360  0.6596  0.9572 -0.1500
 6206SOL    HW324591   3.832   0.419   5.233  0.5084  0.8660 -0.0673
 6206SOL    MW424592   3.885   0.372   5.282  0.4392  0.8328 -0.0252
 6207SOL     OW24593   5.295   6.207   0.815 -0.5121 -0.1596  0.1305
 6207SOL    HW224594   5.345   6.180   0.892 -0.8626  2.4569  1.3744
 6207SOL    HW324595   5.245   6.129   0.791 -0.0598 -1.2016  2.3061
 6207SOL    MW424596   5.295   6.193   0.822 -0.4987  0.0481  0.5817
 6208SOL     OW24597   3.236   4.255   1.511 -0.0505 -0.3315 -0.1046
 6208SOL    HW224598   3.175   4.194   1.552 -0.2977  0.0480  0.0982
 6208SOL    HW324599   3.199   4.271   1.424 -1.2125  1.2538  0.6330
 6208SOL    MW424600   3.223   4.249   1.505 -0.2364 -0.0723  0.0195
 6209SOL     OW24601   0.726   5.245   0.880  0.0430 -0.1132  0.1139
 6209SOL    HW224602   0.661   5.311   0.904 -0.0719 -0.7626  1.6615
 6209SOL    HW324603   0.680   5.162   0.888  0.7134 -0.5032 -0.0087
 6209SOL    MW424604   0.711   5.243   0.884  0.1163 -0.2503  0.3019
 6210SOL     OW24605   3.540   1.471   1.955  0.2704 -0.4604  0.1876
 6210SOL    HW224606   3.478   1.536   1.990 -0.4594 -1.6044  1.0944
 6210SOL    HW324607   3.626   1.508   1.975 -0.0116  1.6054 -1.9199
 6210SOL    MW424608   3.543   1.485   1.963  0.1369 -0.3388  0.0292
 6211SOL     OW24609   3.721   5.798   1.073 -0.1276  0.5253 -0.1831
 6211SOL    HW224610   3.783   5.727   1.093 -1.1012 -0.2537  0.1620
 6211SOL    HW324611   3.776   5.868   1.037  1.0114  0.0426  0.5434
 6211SOL    MW424612   3.737   5.798   1.071 -0.1058  0.3588 -0.0417
 6212SOL     OW24613   2.378   1.861   0.217 -0.6398 -0.4430  0.4080
 6212SOL    HW224614   2.376   1.778   0.170 -0.6067 -0.8120  1.0473
 6212SOL    HW324615   2.287   1.891   0.219 -0.6620 -0.5011  0.2394
 6212SOL    MW424616   2.366   1.854   0.211 -0.6384 -0.4993  0.4701
 6213SOL     OW24617   5.356   2.125   3.279 -0.1501 -0.2766  0.1498
 6213SOL    HW224618   5.347   2.120   3.183 -0.8602 -1.8277  0.2671
 6213SOL    HW324619   5.436   2.076   3.298  0.1040  0.2100  0.3475
 6213SOL    MW424620   5.365   2.118   3.269 -0.2103 -0.4171  0.1914
 6214SOL     OW24621   1.848   5.291   4.368  0.3155  0.4960 -0.4811
 6214SOL    HW224622   1.795   5.214   4.388  0.3363  0.6725  0.2493
 6214SOL    HW324623   1.881   5.274   4.279  1.7444 -1.1461  0.2964
 6214SOL    MW424624   1.845   5.278   4.359  0.5067  0.3027 -0.2821
 6215SOL     OW24625   2.189   4.733   1.981 -0.5798 -0.3633  0.7011
 6215SOL    HW224626   2.245   4.752   1.906 -0.1855  1.0166  1.3227
 6215SOL    HW324627   2.109   4.783   1.963 -0.7948 -0.6644  0.8231
 6215SOL    MW424628   2.185   4.742   1.968 -0.5562 -0.2210  0.7992
 6216SOL     OW24629   1.906   4.776   5.283 -0.6614 -0.3350  0.4931
 6216SOL    HW224630   1.899   4.686   5.317 -1.7451  0.0572  1.3748
 6216SOL    HW324631   1.822   4.792   5.240 -0.4673  0.2605  0.3271
 6216SOL    MW424632   1.894   4.766   5.282 -0.7788 -0.2047  0.5875
 6217SOL     OW24633   3.456   2.841   5.201 -0.1589 -0.1127  0.3625
 6217SOL    HW224634   3.429   2.821   5.112  0.0449  0.0533  0.2639
 6217SOL    HW324635   3.484   2.758   5.238 -1.4974 -0.4410  0.7099
 6217SOL    MW424636   3.456   2.828   5.194 -0.3086 -0.1341  0.3953
 6218SOL     OW24637   5.749   1.734   4.083  0.4586  0.4261  0.3522
 6218SOL    HW224638   5.724   1.818   4.120  2.3049  0.7928  0.8499
 6218SOL    HW324639   5.763   1.751   3.991 -0.7015  0.2846  0.1297
 6218SOL    MW424640   5.748   1.747   4.076  0.5491  0.4558  0.3885
 6219SOL     OW24641   5.795   6.104   6.280 -0.0919  0.4904  0.0134
 6219SOL    HW224642   5.772   6.138   6.193 -1.0683  2.1245  0.8535
 6219SOL    HW324643   5.738   6.028   6.292 -1.0702  1.1676 -0.1854
 6219SOL    MW424644   5.784   6.099   6.270 -0.3498  0.7953  0.0980
 6220SOL     OW24645   0.285   6.236   5.571 -0.3898 -0.1279 -0.0288
 6220SOL    HW224646   0.253   6.276   5.652  2.5365  0.3719  0.9988
 6220SOL    HW324647   0.328   6.308   5.524  1.6084 -1.2237  0.0264
 6220SOL    MW424648   0.287   6.251   5.575  0.2599 -0.2065  0.1140
 6221SOL     OW24649   0.172   3.338   4.567 -0.4117 -0.1159 -0.5064
 6221SOL    HW224650   0.235   3.397   4.527 -0.0900  0.8675  1.3735
 6221SOL    HW324651   0.088   3.384   4.559 -0.3616  0.0404 -0.1321
 6221SOL    MW424652   0.169   3.352   4.561 -0.3626  0.0345 -0.2090
 6222SOL     OW24653   6.373   5.622   2.323  0.0351  0.2419 -0.6927
 6222SOL    HW224654   6.303   5.576   2.369  0.7100  0.9135  1.0986
 6222SOL    HW324655   6.451   5.569   2.339  0.5791  1.3217  0.3256
 6222SOL    MW424656   6.374   5.609   2.331  0.1959  0.4730 -0.3220
 6223SOL     OW24657   2.686   3.653   5.892  0.0981 -0.2279  0.0795
 6223SOL    HW224658   2.630   3.728   5.911 -1.5476 -1.4774  0.4731
 6223SOL    HW324659   2.759   3.689   5.843 -0.0346  1.7915  1.2429
 6223SOL    MW424660   2.688   3.668   5.888 -0.1365 -0.1263  0.2849
 6224SOL     OW24661   3.287   1.142   3.933  0.0819 -0.0047  0.4174
 6224SOL    HW224662   3.294   1.180   4.021 -1.5593  1.6089 -0.0829
 6224SOL    HW324663   3.357   1.186   3.883 -1.6278  2.3139 -0.0833
 6224SOL    MW424664   3.297   1.153   3.938 -0.3602  0.5141  0.2853
 6225SOL     OW24665   1.793   2.647   5.323 -0.2196 -0.1645 -0.0809
 6225SOL    HW224666   1.785   2.552   5.332  0.5510 -0.2513 -0.1671
 6225SOL    HW324667   1.875   2.668   5.368 -0.6618  0.5355  0.3998
 6225SOL    MW424668   1.803   2.637   5.330 -0.1763 -0.0836 -0.0288
 6226SOL     OW24669   0.501   4.174   4.509  0.0380 -0.9111 -0.0593
 6226SOL    HW224670   0.406   4.181   4.495  0.2592  0.9094 -0.8473
 6226SOL    HW324671   0.537   4.256   4.476  1.7853 -1.0769  1.2762
 6226SOL    MW424672   0.493   4.186   4.503  0.2977 -0.6928  0.0129
 6227SOL     OW24673   2.115   5.043   0.643 -0.6085  0.0138  0.1016
 6227SOL    HW224674   2.036   5.004   0.679 -0.8269 -0.6719 -1.0658
 6227SOL    HW324675   2.186   5.009   0.698 -0.8128 -1.9433 -0.7697
 6227SOL    MW424676   2.114   5.033   0.655 -0.6642 -0.3349 -0.1674
 6228SOL     OW24677   5.593   2.875   1.589  0.1164  0.7107  0.7994
 6228SOL    HW224678   5.561   2.903   1.503 -1.3738 -2.8208  0.0135
 6228SOL    HW324679   5.685   2.854   1.575 -0.4217 -1.0794 -0.3893
 6228SOL    MW424680   5.601   2.876   1.576 -0.1512  0.0086  0.5389
 6229SOL     OW24681   1.924   5.810   0.388  0.6289 -0.1363  0.6091
 6229SOL    HW224682   1.937   5.852   0.303  2.6630  0.5524  1.2028
 6229SOL    HW324683   1.913   5.883   0.449  1.9958 -0.4882  1.3234
 6229SOL    MW424684   1.924   5.825   0.385  1.0776 -0.0919  0.7817
 6230SOL     OW24685   5.012   3.232   2.322 -0.3883  0.3069  0.5129
 6230SOL    HW224686   4.919   3.247   2.306 -0.5744  0.7503  1.8484
 6230SOL    HW324687   5.016   3.204   2.413  0.8735  1.3087  0.8015
 6230SOL    MW424688   5.000   3.231   2.332 -0.2464  0.4976  0.7272
 6231SOL     OW24689   5.728   0.131   1.434 -0.0368  0.6195 -0.0509
 6231SOL    HW224690   5.665   0.082   1.381  0.6856  2.0060 -2.3374
 6231SOL    HW324691   5.802   0.147   1.376  1.3336  1.2690  1.7566
 6231SOL    MW424692   5.729   0.127   1.420  0.2393  0.8881 -0.1141
 6232SOL     OW24693   6.393   3.793   4.236  0.1115  0.0302  0.4995
 6232SOL    HW224694   6.483   3.784   4.267  1.3643  1.0737 -2.4845
 6232SOL    HW324695   6.382   3.723   4.172  0.8197  2.9123 -3.1291
 6232SOL    MW424696   6.403   3.782   4.232  0.3702  0.5481 -0.3730
 6233SOL     OW24697   2.220   2.497   4.240 -0.0714 -0.0583 -0.2927
 6233SOL    HW224698   2.147   2.521   4.298  0.7558  0.2361  0.6566
 6233SOL    HW324699   2.271   2.433   4.290  0.5103 -0.0146 -0.8085
 6233SOL    MW424700   2.217   2.492   4.254  0.1145 -0.0137 -0.2355
 6234SOL     OW24701   1.596   3.770   1.061  0.2057 -0.3254  0.0034
 6234SOL    HW224702   1.577   3.819   0.981 -0.6858  0.8008  0.8731
 6234SOL    HW324703   1.583   3.834   1.132 -1.7557 -1.9816  1.2363
 6234SOL    MW424704   1.592   3.785   1.060 -0.1707 -0.3953  0.2808
 6235SOL     OW24705   1.264   5.151   0.626 -0.3552  0.6152 -0.5859
 6235SOL    HW224706   1.313   5.122   0.703  0.6049  2.5174 -0.4137
 6235SOL    HW324707   1.206   5.220   0.659  0.0830  1.4650 -1.5355
 6235SOL    MW424708   1.263   5.156   0.641 -0.1707  0.9783 -0.6885
 6236SOL     OW24709   2.091   3.969   0.080  0.3226  0.0479 -0.2914
 6236SOL    HW224710   2.049   4.051   0.055 -0.2630 -0.5580 -1.3578
 6236SOL    HW324711   2.176   3.971   0.037  1.5882  1.3815  2.0576
 6236SOL    MW424712   2.097   3.980   0.071  0.4123  0.1439 -0.1222
 6237SOL     OW24713   2.585   4.784   5.711  0.3192 -0.3496 -0.1085
 6237SOL    HW224714   2.598   4.729   5.634  1.1884 -0.5673  0.1768
 6237SOL    HW324715   2.620   4.731   5.783  0.2837  0.1886  0.3045
 6237SOL    MW424716   2.592   4.769   5.710  0.4292 -0.3074 -0.0163
 6238SOL     OW24717   2.653   2.204   6.283  0.2776  0.0744  0.2179
 6238SOL    HW224718   2.628   2.215   6.191  1.6584  0.3685 -0.1432
 6238SOL    HW324719   2.624   2.115   6.305  1.3454 -0.6079 -0.9929
 6238SOL    MW424720   2.646   2.194   6.274  0.6007  0.0232  0.0105
 6239SOL     OW24721   2.538   2.273   3.422 -0.6786  0.1156  0.0735
 6239SOL    HW224722   2.549   2.272   3.327  0.4962  1.0528  0.1845
 6239SOL    HW324723   2.448   2.302   3.435 -0.4702  1.1757 -0.7462
 6239SOL    MW424724   2.527   2.277   3.411 -0.4961  0.3791 -0.0200
 6240SOL     OW24725   6.109   2.483   0.145 -0.0224 -0.2435  0.0339
 6240SOL    HW224726   6.121   2.575   0.120  0.2968 -0.1740  0.4296
 6240SOL    HW324727   6.015   2.468   0.136 -0.3086  0.5719  1.4740
 6240SOL    MW424728   6.098   2.493   0.140 -0.0180 -0.1267  0.2761
 6241SOL     OW24729   2.371   4.859   2.552 -0.2946  0.2929  0.4280
 6241SOL    HW224730   2.369   4.814   2.636  0.8242 -0.7449 -0.0733
 6241SOL    HW324731   2.313   4.809   2.496 -1.4191  1.2613  0.6805
 6241SOL    MW424732   2.363   4.847   2.556 -0.2953  0.2838  0.3951
 6242SOL     OW24733   4.500   2.376   3.893  0.2504 -0.4557  0.0878
 6242SOL    HW224734   4.564   2.431   3.848  4.0829 -1.8868  3.3258
 6242SOL    HW324735   4.457   2.435   3.955  0.9614 -0.1489  0.2965
 6242SOL    MW424736   4.502   2.391   3.895  0.8499 -0.6040  0.5425
 6243SOL     OW24737   5.623   5.565   2.266 -0.4932 -0.4636 -0.8519
 6243SOL    HW224738   5.532   5.535   2.260 -0.0083 -2.4991  0.7538
 6243SOL    HW324739   5.674   5.495   2.224  0.4869 -0.6559  0.5772
 6243SOL    MW424740   5.618   5.552   2.260 -0.2999 -0.7576 -0.4515
 6244SOL     OW24741   2.058   1.177   5.187 -0.0714 -0.3450  0.5918
 6244SOL    HW224742   1.977   1.159   5.235 -1.2595  0.1226 -1.1395
 6244SOL    HW324743   2.097   1.251   5.232 -1.2515  0.2052  0.7432
 6244SOL    MW424744   2.053   1.184   5.199 -0.3838 -0.2107  0.3833
 6245SOL     OW24745   5.668   4.151   1.018  0.2986 -0.1596  0.5298
 6245SOL    HW224746   5.645   4.157   0.925  0.2331  1.3521  0.6175
 6245SOL    HW324747   5.587   4.123   1.061  0.5191 -1.5876  0.0828
 6245SOL    MW424748   5.654   4.148   1.012  0.3191 -0.1486  0.4824
 6246SOL     OW24749   3.423   1.893   1.842  0.3912  0.6612  0.3570
 6246SOL    HW224750   3.503   1.857   1.881  0.0581 -1.9692 -1.1433
 6246SOL    HW324751   3.454   1.947   1.770  0.8597 -0.7186 -0.5134
 6246SOL    MW424752   3.438   1.895   1.838  0.4091  0.1321  0.0442
 6247SOL     OW24753   3.685   2.305   4.609 -0.0560  0.1598  0.4371
 6247SOL    HW224754   3.768   2.262   4.588  0.2770  0.6343  0.7909
 6247SOL    HW324755   3.628   2.234   4.639  0.8131  0.0942  2.0115
 6247SOL    MW424756   3.688   2.290   4.610  0.1026  0.2138  0.6915
 6248SOL     OW24757   2.570   6.350   3.898  0.5960 -0.3188 -0.4064
 6248SOL    HW224758   2.534   6.383   3.816 -0.4359 -1.0812 -0.2704
 6248SOL    HW324759   2.663   6.372   3.893  0.4987 -0.1132 -1.6558
 6248SOL    MW424760   2.578   6.358   3.887  0.4470 -0.3923 -0.5533
 6249SOL     OW24761   2.370   4.448   2.860 -0.7027 -0.5335  0.2601
 6249SOL    HW224762   2.397   4.360   2.885 -1.2406 -1.2757 -1.6726
 6249SOL    HW324763   2.278   4.453   2.883 -0.8169 -0.6817 -0.1626
 6249SOL    MW424764   2.362   4.437   2.867 -0.7887 -0.6509 -0.0506
 6250SOL     OW24765   5.604   0.259   0.310 -0.4335  0.3898  0.7498
 6250SOL    HW224766   5.557   0.311   0.375 -1.5046  0.9141 -0.4072
 6250SOL    HW324767   5.535   0.214   0.260  0.2762  0.9712 -0.8261
 6250SOL    MW424768   5.589   0.260   0.312 -0.4812  0.5357  0.3892
 6251SOL     OW24769   6.467   0.758   4.109 -0.0012 -0.6825  0.4939
 6251SOL    HW224770   6.464   0.737   4.016 -1.5452 -1.8039  0.7458
 6251SOL    HW324771   6.543   0.711   4.142  1.1245  0.5036 -0.3491
 6251SOL    MW424772   6.476   0.749   4.101 -0.0564 -0.6740  0.4159
 6252SOL     OW24773   5.746   0.529   3.216  0.3320 -0.5491 -0.3455
 6252SOL    HW224774   5.808   0.593   3.251 -0.3985 -0.1964  0.3119
 6252SOL    HW324775   5.668   0.580   3.195 -0.6097 -1.3341  1.0702
 6252SOL    MW424776   5.744   0.544   3.218  0.1113 -0.6061 -0.0720
 6253SOL     OW24777   2.665   4.345   6.014  0.5121  0.5280 -0.4086
 6253SOL    HW224778   2.614   4.267   5.995  0.7031  0.3846 -0.3350
 6253SOL    HW324779   2.610   4.395   6.075  0.9178 -0.1376  0.5150
 6253SOL    MW424780   2.651   4.342   6.020  0.5908  0.4213 -0.2770
 6254SOL     OW24781   0.371   1.642   5.409 -0.2520 -0.3281  0.2782
 6254SOL    HW224782   0.447   1.634   5.467  0.6100  2.2705 -0.3054
 6254SOL    HW324783   0.407   1.626   5.321 -0.2402  1.2135 -0.0322
 6254SOL    MW424784   0.386   1.639   5.405 -0.1367  0.2182  0.1602
 6255SOL     OW24785   5.416   3.963   4.660 -0.1693  0.4621 -0.0918
 6255SOL    HW224786   5.378   3.879   4.633 -0.4762  1.0638 -1.6613
 6255SOL    HW324787   5.476   3.940   4.731  0.0233 -1.1496 -0.7127
 6255SOL    MW424788   5.419   3.949   4.666 -0.1844  0.3289 -0.3808
 6256SOL     OW24789   2.187   0.659   0.243 -0.4167 -0.1852 -0.0740
 6256SOL    HW224790   2.236   0.736   0.215 -0.2909 -0.0461  0.5222
 6256SOL    HW324791   2.104   0.664   0.195 -0.6924  0.6893  0.4758
 6256SOL    MW424792   2.182   0.670   0.233 -0.4365 -0.0515  0.0772
 6257SOL     OW24793   4.102   3.219   3.979  0.2932  0.1014  0.3109
 6257SOL    HW224794   4.065   3.287   4.035 -0.1491  0.0182  0.1244
 6257SOL    HW324795   4.099   3.140   4.033 -0.6781 -0.1054 -0.0194
 6257SOL    MW424796   4.097   3.218   3.994  0.1067  0.0631  0.2427
 6258SOL     OW24797   5.623   5.378   0.485  0.5712  0.5362  0.1239
 6258SOL    HW224798   5.637   5.304   0.425  0.8213  0.3186  0.4503
 6258SOL    HW324799   5.621   5.455   0.428 -0.6244  0.1856 -0.3197
 6258SOL    MW424800   5.625   5.378   0.469  0.4465  0.4612  0.1085
 6259SOL     OW24801   5.968   4.081   2.564  0.1280  0.1301  0.2411
 6259SOL    HW224802   5.916   4.095   2.486  0.1658  2.9687  0.6389
 6259SOL    HW324803   6.059   4.078   2.533 -0.0006 -2.0327 -0.1173
 6259SOL    MW424804   5.973   4.082   2.550  0.1161  0.2192  0.2463
 6260SOL     OW24805   5.071   2.774   4.122 -0.2597 -0.3432 -0.1647
 6260SOL    HW224806   5.143   2.710   4.129 -1.0719 -1.1297  2.2197
 6260SOL    HW324807   5.052   2.798   4.213 -2.4628  0.4570 -0.7714
 6260SOL    MW424808   5.078   2.768   4.135 -0.6576 -0.3414  0.0699
 6261SOL     OW24809   5.505   0.830   5.997 -0.8269  0.2200 -0.1861
 6261SOL    HW224810   5.447   0.866   6.063  1.2690 -0.1900  2.0359
 6261SOL    HW324811   5.547   0.906   5.958 -0.0077  0.4247  1.0239
 6261SOL    MW424812   5.503   0.845   6.001 -0.4423  0.1929  0.2667
 6262SOL     OW24813   4.659   2.102   0.723 -0.0434 -0.0522 -0.3024
 6262SOL    HW224814   4.716   2.177   0.707  0.8063 -0.9389 -1.7096
 6262SOL    HW324815   4.707   2.027   0.688 -0.8623 -1.2765  1.0658
 6262SOL    MW424816   4.673   2.102   0.716 -0.0393 -0.3307 -0.3075
 6263SOL     OW24817   0.684   5.612   3.983 -0.0966  0.9896 -0.5390
 6263SOL    HW224818   0.611   5.644   3.930 -0.1445  0.3306 -0.8786
 6263SOL    HW324819   0.762   5.641   3.936 -0.1050 -1.0745 -1.9650
 6263SOL    MW424820   0.685   5.620   3.970 -0.1040  0.6303 -0.7720
 6264SOL     OW24821   4.712   2.122   4.599  0.0496  0.2790  0.5926
 6264SOL    HW224822   4.719   2.093   4.508 -1.3365 -0.4843  0.7019
 6264SOL    HW324823   4.683   2.213   4.592  0.9467  0.5455  0.2691
 6264SOL    MW424824   4.709   2.130   4.586 -0.0149  0.2135  0.5643
 6265SOL     OW24825   0.472   6.390   6.142  0.2660 -0.2102 -0.0215
 6265SOL    HW224826   0.504   6.322   6.082  1.5095  1.7195 -1.6837
 6265SOL    HW324827   0.551   6.426   6.182 -0.4181 -0.1082  1.2871
 6265SOL    MW424828   0.486   6.386   6.139  0.3398  0.0579 -0.0682
 6266SOL     OW24829   0.080   3.626   3.841 -0.1417  0.3109  0.2318
 6266SOL    HW224830   0.173   3.630   3.863  0.1580  0.1162 -0.9759
 6266SOL    HW324831   0.075   3.571   3.763 -1.5630 -2.0132  1.8160
 6266SOL    MW424832   0.091   3.619   3.834 -0.2897 -0.0215  0.2815
 6267SOL     OW24833   5.189   1.618   4.891  0.2039  0.2763  0.2732
 6267SOL    HW224834   5.182   1.530   4.929  0.9135  0.3596  0.6329
 6267SOL    HW324835   5.196   1.603   4.797  2.8897 -0.2783  0.4567
 6267SOL    MW424836   5.189   1.604   4.884  0.6519  0.2141  0.3448
 6268SOL     OW24837   2.864   5.478   2.903  0.0952  0.1038  0.1111
 6268SOL    HW224838   2.953   5.499   2.929 -0.6343  1.4112  1.7761
 6268SOL    HW324839   2.853   5.521   2.818  0.5848  1.2690  0.6134
 6268SOL    MW424840   2.874   5.487   2.895  0.0635  0.4300  0.3970
 6269SOL     OW24841   1.953   1.956   3.835 -0.4030 -0.8970 -0.1856
 6269SOL    HW224842   1.941   1.944   3.740 -1.0635 -3.0169  0.0936
 6269SOL    HW324843   2.026   1.898   3.857 -0.3300 -0.5080  0.6207
 6269SOL    MW424844   1.961   1.947   3.825 -0.4805 -1.1254 -0.0424
 6270SOL     OW24845   4.178   2.692   4.966  0.1691 -0.4014  0.2282
 6270SOL    HW224846   4.196   2.672   4.874  0.4060  2.1014 -0.3280
 6270SOL    HW324847   4.199   2.785   4.976  0.0948 -0.5705  2.8181
 6270SOL    MW424848   4.183   2.701   4.955  0.1905 -0.0935  0.4965
 6271SOL     OW24849   0.074   3.512   1.032  0.4141  0.7184  0.2113
 6271SOL    HW224850   0.075   3.445   0.964 -1.5819  0.0098  0.7894
 6271SOL    HW324851   0.161   3.551   1.029  0.8119 -0.1842 -1.8379
 6271SOL    MW424852   0.085   3.508   1.023  0.2032  0.5058  0.0172
 6272SOL     OW24853   2.528   0.594   4.124 -0.2141 -0.3360 -0.3556
 6272SOL    HW224854   2.540   0.563   4.034  2.6238 -0.4424 -0.0346
 6272SOL    HW324855   2.568   0.526   4.178  0.8089  1.1085  0.7630
 6272SOL    MW424856   2.535   0.581   4.119  0.2953 -0.1595 -0.1656
 6273SOL     OW24857   3.032   2.658   3.012  0.0401 -0.3474 -0.0560
 6273SOL    HW224858   2.999   2.681   3.099  0.2209 -1.2842  0.2646
 6273SOL    HW324859   2.995   2.725   2.954  0.8391  0.9845  0.8935
 6273SOL    MW424860   3.023   2.670   3.015  0.1694 -0.2953  0.1116
 6274SOL     OW24861   5.310   6.071   1.608  0.0427 -0.2886  0.4066
 6274SOL    HW224862   5.220   6.090   1.579 -0.0582 -0.4643  0.5974
 6274SOL    HW324863   5.301   5.990   1.658  0.1976  0.0872  1.0440
 6274SOL    MW424864   5.297   6.063   1.610  0.0498 -0.2622  0.5159
 6275SOL     OW24865   6.244   1.039   5.173 -0.3690 -0.2542  0.2644
 6275SOL    HW224866   6.163   1.076   5.138  0.0817 -0.7933 -1.4760
 6275SOL    HW324867   6.300   1.115   5.189 -0.6694  0.0277  0.0014
 6275SOL    MW424868   6.241   1.054   5.170 -0.3492 -0.2882  0.0001
 6276SOL     OW24869   4.184   4.963   4.555  0.0819 -0.2506  0.7504
 6276SOL    HW224870   4.186   5.036   4.618 -0.2789  0.1512  0.3063
 6276SOL    HW324871   4.094   4.930   4.561  0.0849 -0.2939  0.5467
 6276SOL    MW424872   4.172   4.969   4.564  0.0347 -0.2033  0.6649
 6277SOL     OW24873   1.311   3.719   4.408  0.5061 -0.2851 -0.4390
 6277SOL    HW224874   1.320   3.679   4.321 -0.5708  0.3195 -0.8425
 6277SOL    HW324875   1.238   3.671   4.449  1.0478 -0.6105  0.1656
 6277SOL    MW424876   1.302   3.707   4.402  0.4355 -0.2482 -0.4125
 6278SOL     OW24877   5.712   2.759   1.056  0.4589  0.2897  0.0360
 6278SOL    HW224878   5.783   2.817   1.028 -1.8157  2.3386 -1.9803
 6278SOL    HW324879   5.634   2.813   1.051 -1.6866 -2.6323 -0.8404
 6278SOL    MW424880   5.711   2.774   1.051 -0.1243  0.1745 -0.3457
 6279SOL     OW24881   1.296   1.720   2.396  0.2233 -0.0313 -0.1966
 6279SOL    HW224882   1.320   1.753   2.310 -0.7601  0.4443 -0.3078
 6279SOL    HW324883   1.203   1.699   2.388  0.3662 -0.9720  0.4479
 6279SOL    MW424884   1.287   1.722   2.384  0.1124 -0.0926 -0.1263
 6280SOL     OW24885   1.301   5.980   1.861  0.4928 -0.0684  0.2462
 6280SOL    HW224886   1.299   6.001   1.767 -1.9089  0.3259  0.3014
 6280SOL    HW324887   1.345   6.055   1.902  1.0383  0.0311 -0.5052
 6280SOL    MW424888   1.306   5.993   1.854  0.2479 -0.0032  0.1543
 6281SOL     OW24889   0.851   5.423   2.550  0.1203  0.2604  0.1238
 6281SOL    HW224890   0.860   5.393   2.460 -1.5233  2.4213 -0.8460
 6281SOL    HW324891   0.793   5.359   2.591  1.0361 -0.8462 -0.2373
 6281SOL    MW424892   0.845   5.411   2.544  0.0243  0.3995 -0.0518
 6282SOL     OW24893   4.667   3.249   5.065 -0.1820 -0.0622 -0.6150
 6282SOL    HW224894   4.693   3.306   5.137  0.3708 -1.1108  0.0408
 6282SOL    HW324895   4.726   3.174   5.072  0.6400  0.3198 -2.8669
 6282SOL    MW424896   4.678   3.247   5.076 -0.0006 -0.1501 -0.8256
 6283SOL     OW24897   2.496   0.339   0.863 -0.2064 -0.3229 -0.2464
 6283SOL    HW224898   2.572   0.301   0.818  0.4889  2.0316 -1.1682
 6283SOL    HW324899   2.444   0.378   0.794 -0.1475  1.6336  0.7345
 6283SOL    MW424900   2.499   0.339   0.848 -0.1069  0.2459 -0.2386
 6284SOL     OW24901   1.609   4.859   2.832 -0.3166  0.1844  0.0555
 6284SOL    HW224902   1.516   4.839   2.843 -0.3730  0.7924  0.7508
 6284SOL    HW324903   1.611   4.939   2.779 -0.1600 -0.2616 -0.6252
 6284SOL    MW424904   1.597   4.867   2.826 -0.3034  0.2057  0.0575
 6285SOL     OW24905   3.557   2.428   0.080 -0.1746  0.0326 -0.2900
 6285SOL    HW224906   3.567   2.448  -0.013  0.6021 -2.1848 -0.7441
 6285SOL    HW324907   3.646   2.414   0.111 -0.3064  1.9295  1.1492
 6285SOL    MW424908   3.570   2.429   0.072 -0.0895 -0.0097 -0.1600
 6286SOL     OW24909   4.980   2.984   5.661 -0.1724  0.8382  0.0198
 6286SOL    HW224910   4.915   3.026   5.717  0.0889  0.5062  0.5864
 6286SOL    HW324911   5.061   3.033   5.677 -0.4699  1.7946 -1.3330
 6286SOL    MW424912   4.982   2.996   5.671 -0.1772  0.9206 -0.0839
 6287SOL     OW24913   1.208   4.031   1.404 -0.7004 -0.0648  0.9740
 6287SOL    HW224914   1.158   4.110   1.382  0.8674  0.5289 -0.7369
 6287SOL    HW324915   1.162   3.994   1.480 -1.8934  2.0982  1.4028
 6287SOL    MW424916   1.195   4.037   1.411 -0.6509  0.2989  0.8049
 6288SOL     OW24917   0.155   2.453   6.140 -0.2124  0.0833 -0.2523
 6288SOL    HW224918   0.176   2.367   6.103 -1.1321 -0.1158 -0.3373
 6288SOL    HW324919   0.073   2.478   6.096 -0.0239  0.9372 -0.1254
 6288SOL    MW424920   0.147   2.445   6.129 -0.3089  0.1697 -0.2468
 6289SOL     OW24921   3.809   5.203   5.668 -0.0943  0.1231  0.6053
 6289SOL    HW224922   3.735   5.170   5.719  0.0526  0.0382  0.7641
 6289SOL    HW324923   3.821   5.139   5.598 -1.1079  0.8819 -0.3110
 6289SOL    MW424924   3.801   5.190   5.666 -0.2086  0.2120  0.5053
 6290SOL     OW24925   2.912   2.013   3.219  0.1745 -0.1300  0.1890
 6290SOL    HW224926   2.891   2.106   3.220 -1.0165 -0.3777 -0.3005
 6290SOL    HW324927   2.993   2.007   3.169 -0.2536  0.5592 -0.6036
 6290SOL    MW424928   2.920   2.024   3.213 -0.0391 -0.0717  0.0199
 6291SOL     OW24929   5.545   6.133   0.501 -0.0102 -0.3918 -0.1080
 6291SOL    HW224930   5.634   6.149   0.533  0.2509  0.7968 -1.3272
 6291SOL    HW324931   5.491   6.194   0.551 -0.1943 -1.2513  0.7729
 6291SOL    MW424932   5.550   6.143   0.512 -0.0001 -0.3484 -0.1526
 6292SOL     OW24933   2.763   2.260   1.553 -0.1080 -0.6428  0.2893
 6292SOL    HW224934   2.823   2.195   1.590  0.4993 -0.6000 -0.5793
 6292SOL    HW324935   2.721   2.301   1.629 -1.0960 -2.5717  0.8629
 6292SOL    MW424936   2.765   2.257   1.568 -0.1582 -0.8917  0.2504
 6293SOL     OW24937   6.382   1.539   3.464  0.7112  0.2370  0.6769
 6293SOL    HW224938   6.297   1.583   3.470  1.0308  0.8441  0.8308
 6293SOL    HW324939   6.421   1.549   3.551  1.2896  0.6915  0.3776
 6293SOL    MW424940   6.376   1.546   3.476  0.8297  0.3771  0.6577
 6294SOL     OW24941   2.671   3.545   2.343  0.0133  0.3774 -0.0468
 6294SOL    HW224942   2.695   3.457   2.370 -0.9977  0.1087  0.0176
 6294SOL    HW324943   2.683   3.599   2.421  0.7129  0.3197 -0.1112
 6294SOL    MW424944   2.676   3.541   2.357 -0.0278  0.3343 -0.0468
 6295SOL     OW24945   1.112   5.655   2.270  0.3008  0.0472  0.2441
 6295SOL    HW224946   1.030   5.700   2.291  0.0233 -0.8121  1.0832
 6295SOL    HW324947   1.177   5.697   2.326  0.2177  0.0033  0.3746
 6295SOL    MW424948   1.109   5.666   2.280  0.2532 -0.0720  0.3720
 6296SOL     OW24949   2.371   2.737   2.904 -0.4310  0.2434  0.1661
 6296SOL    HW224950   2.362   2.789   2.824 -1.0061  0.5199  0.4060
 6296SOL    HW324951   2.306   2.667   2.896 -0.1254 -0.0406  0.1521
 6296SOL    MW424952   2.361   2.735   2.893 -0.4666  0.2424  0.1959
 6297SOL     OW24953   3.280   5.677   5.205 -0.4136  0.0831 -0.2448
 6297SOL    HW224954   3.316   5.674   5.293  0.2809 -0.3494 -0.5342
 6297SOL    HW324955   3.345   5.633   5.151  0.6325  2.8744 -1.4772
 6297SOL    MW424956   3.293   5.671   5.209 -0.1840  0.3943 -0.4456
 6298SOL     OW24957   2.001   4.042   0.670 -0.3562 -0.5826  0.0870
 6298SOL    HW224958   1.991   4.014   0.761  2.2981 -0.9914  0.3195
 6298SOL    HW324959   2.095   4.049   0.657 -0.5663 -1.9506 -3.0489
 6298SOL    MW424960   2.012   4.039   0.680 -0.0337 -0.8170 -0.2961
 6299SOL     OW24961   2.623   4.538   2.631 -0.6515 -0.2299 -0.0380
 6299SOL    HW224962   2.533   4.517   2.608 -1.2823  1.3566  0.8193
 6299SOL    HW324963   2.640   4.621   2.587  0.6363 -0.8224 -0.7240
 6299SOL    MW424964   2.614   4.546   2.622 -0.5648 -0.0988 -0.0154
 6300SOL     OW24965   5.973   0.950   0.414  0.4606  0.2148  0.1552
 6300SOL    HW224966   6.054   0.962   0.363  0.0986 -0.1592 -0.5244
 6300SOL    HW324967   5.953   0.857   0.405  0.7651 -0.0178  1.5906
 6300SOL    MW424968   5.981   0.939   0.406  0.4530  0.1348  0.2549
 6301SOL     OW24969   0.539   5.069   2.816 -0.1033  0.1526 -0.2640
 6301SOL    HW224970   0.498   5.143   2.861 -1.0803 -0.5362 -0.0013
 6301SOL    HW324971   0.622   5.056   2.862 -1.0488 -0.4952  1.3583
 6301SOL    MW424972   0.545   5.077   2.828 -0.3569 -0.0238 -0.0153
 6302SOL     OW24973   2.530   6.302   2.483  0.9059  0.3569 -0.2115
 6302SOL    HW224974   2.625   6.296   2.468  1.0076 -1.0171  0.7371
 6302SOL    HW324975   2.496   6.344   2.405  2.2278  0.3074 -0.8507
 6302SOL    MW424976   2.538   6.307   2.471  1.0937  0.1691 -0.1707
 6303SOL     OW24977   2.150   1.735   3.986  0.1460  0.6208 -0.0544
 6303SOL    HW224978   2.177   1.643   3.989 -1.8226 -0.0950 -1.5277
 6303SOL    HW324979   2.225   1.781   3.949  0.9401 -0.5135  0.0989
 6303SOL    MW424980   2.163   1.729   3.981 -0.0089  0.3767 -0.2285
 6304SOL     OW24981   3.692   2.588   4.247  0.5237 -0.4826 -0.3605
 6304SOL    HW224982   3.651   2.517   4.297 -0.0259  1.3277  1.9406
 6304SOL    HW324983   3.786   2.576   4.263  0.4244 -0.5732  0.1821
 6304SOL    MW424984   3.699   2.577   4.256  0.4381 -0.2557  0.0147
 6305SOL     OW24985   2.873   1.634   1.816  0.0933  0.1773  0.1184
 6305SOL    HW224986   2.874   1.542   1.845 -0.1366  0.0534 -0.2674
 6305SOL    HW324987   2.921   1.634   1.734  0.7603  0.5353  0.4985
 6305SOL    MW424988   2.879   1.622   1.809  0.1510  0.2082  0.1176
 6306SOL     OW24989   5.946   4.637   2.762 -0.2807  0.1129 -0.3888
 6306SOL    HW224990   5.920   4.545   2.756 -0.4750  0.1715 -0.4481
 6306SOL    HW324991   6.030   4.635   2.808  0.8302 -0.2703 -2.3330
 6306SOL    MW424992   5.954   4.625   2.767 -0.1598  0.0701 -0.6532
 6307SOL     OW24993   2.749   1.310   0.059 -0.2891 -0.3215 -0.0760
 6307SOL    HW224994   2.777   1.219   0.055  0.7528  0.0325 -2.0390
 6307SOL    HW324995   2.670   1.313   0.003  0.8356  0.3073 -1.7116
 6307SOL    MW424996   2.742   1.299   0.051 -0.0032 -0.1918 -0.5508
 6308SOL     OW24997   0.345   0.556   2.799  0.3204 -0.0247 -0.1019
 6308SOL    HW224998   0.395   0.628   2.761  2.0315  0.0516  2.0901
 6308SOL    HW324999   0.297   0.519   2.725  1.0620  1.9906 -1.6954
 6308SOL    MW425000   0.345   0.561   2.784  0.6440  0.2513 -0.0229
 6309SOL     OW25001   3.915   4.887   6.351  0.4123  0.0242 -0.0881
 6309SOL    HW225002   3.909   4.949   6.424 -0.1997 -1.3913  1.1130
 6309SOL    HW325003   3.845   4.824   6.367  1.7771 -1.6993 -0.5837
 6309SOL    MW425004   3.905   4.887   6.362  0.5117 -0.3900  0.0050
 6310SOL     OW25005   5.467   3.076   2.381  0.1191 -0.1239  0.0113
 6310SOL    HW225006   5.482   3.140   2.451 -0.4659 -0.9862  0.9626
 6310SOL    HW325007   5.502   3.118   2.302  2.4649  0.1742  1.1161
 6310SOL    MW425008   5.474   3.090   2.380  0.3514 -0.1983  0.2826
 6311SOL     OW25009   5.191   2.255   2.341  0.0040  0.2168  0.2353
 6311SOL    HW225010   5.226   2.204   2.415 -1.5081  0.3548  1.0856
 6311SOL    HW325011   5.221   2.344   2.357  0.0543  0.1635  0.4446
 6311SOL    MW425012   5.199   2.260   2.353 -0.1889  0.2280  0.3751
 6312SOL     OW25013   1.835   2.066   3.150 -0.3609 -1.1560  0.4984
 6312SOL    HW225014   1.901   2.047   3.083  0.6961 -0.9299  1.4512
 6312SOL    HW325015   1.863   2.150   3.187 -1.9470 -0.3827  0.0037
 6312SOL    MW425016   1.848   2.075   3.146 -0.4307 -1.0241  0.5588
 6313SOL     OW25017   1.667   5.990   0.376 -0.0631 -0.8107  0.0257
 6313SOL    HW225018   1.667   6.047   0.299 -1.3572  0.5762  0.9729
 6313SOL    HW325019   1.575   5.974   0.394  0.2213 -1.2508  1.1805
 6313SOL    MW425020   1.655   5.996   0.369 -0.1963 -0.6858  0.3030
 6314SOL     OW25021   5.772   4.980   5.923  0.3841 -0.6454  0.2110
 6314SOL    HW225022   5.818   4.896   5.931  0.3043 -0.8714 -1.3323
 6314SOL    HW325023   5.709   4.966   5.852 -1.8925 -0.2421  2.0508
 6314SOL    MW425024   5.770   4.967   5.915  0.0732 -0.6220  0.2501
 6315SOL     OW25025   2.662   4.811   2.498 -0.3447 -0.2471 -0.6005
 6315SOL    HW225026   2.575   4.849   2.497 -0.1188  0.2632 -0.7792
 6315SOL    HW325027   2.721   4.884   2.516  0.0096 -0.6656  0.0085
 6315SOL    MW425028   2.658   4.825   2.500 -0.2682 -0.2350 -0.5437
 6316SOL     OW25029   5.040   1.326   0.686 -0.4494  0.0102  0.0375
 6316SOL    HW225030   4.982   1.377   0.629 -0.1859  1.3998  0.9396
 6316SOL    HW325031   5.068   1.252   0.633  0.5805  1.7678 -2.0281
 6316SOL    MW425032   5.036   1.323   0.672 -0.2787  0.4254 -0.1160
 6317SOL     OW25033   1.590   6.254   4.927  0.6258  0.5882  0.3252
 6317SOL    HW225034   1.564   6.314   4.997 -0.2913 -0.4409  0.8992
 6317SOL    HW325035   1.586   6.308   4.848  0.1497  1.3773  0.8586
 6317SOL    MW425036   1.586   6.269   4.926  0.4420  0.5565  0.4713
 6318SOL     OW25037   6.443   4.137   3.382  0.1419  0.1467  0.3518
 6318SOL    HW225038   6.512   4.192   3.346  0.3570  0.1201  0.7199
 6318SOL    HW325039   6.393   4.109   3.305  0.3347  0.4398  0.1149
 6318SOL    MW425040   6.445   4.140   3.367  0.1957  0.1819  0.3691
 6319SOL     OW25041   4.025   5.438   6.009  0.0290 -0.6634  0.8332
 6319SOL    HW225042   4.027   5.366   5.946 -0.0513  0.4869 -0.5443
 6319SOL    HW325043   4.066   5.402   6.088  0.4801 -2.0419  0.0100
 6319SOL    MW425044   4.031   5.424   6.011  0.0780 -0.6935  0.5429
 6320SOL     OW25045   4.266   2.215   3.876 -0.1573 -0.4228 -0.2684
 6320SOL    HW225046   4.204   2.268   3.825  0.8292  0.5164 -0.5136
 6320SOL    HW325047   4.344   2.270   3.885 -0.1688 -0.6892  1.9991
 6320SOL    MW425048   4.268   2.229   3.870 -0.0287 -0.3340 -0.0016
 6321SOL     OW25049   4.031   0.945   4.187 -0.1110  0.5003  0.1251
 6321SOL    HW225050   4.057   0.914   4.274  0.2588 -0.6275 -0.3691
 6321SOL    HW325051   3.947   0.903   4.170 -0.0352  0.4692 -0.1875
 6321SOL    MW425052   4.024   0.935   4.196 -0.0522  0.3474  0.0187
 6322SOL     OW25053   0.922   1.970   0.616  0.9008 -0.0161  0.1991
 6322SOL    HW225054   0.972   2.048   0.639 -0.4882  1.4148 -1.3437
 6322SOL    HW325055   0.855   1.964   0.683  1.8954 -0.8037  1.1635
 6322SOL    MW425056   0.920   1.979   0.627  0.8488  0.0688  0.1228
 6323SOL     OW25057   0.399   1.371   1.007  0.1636 -0.5744 -0.4963
 6323SOL    HW225058   0.334   1.303   0.985 -0.2647 -0.7121  1.0652
 6323SOL    HW325059   0.473   1.352   0.950 -0.4178 -1.6229 -0.9455
 6323SOL    MW425060   0.400   1.360   0.997  0.0304 -0.7309 -0.3495
 6324SOL     OW25061   0.671   6.192   5.157 -0.0586 -0.6332 -0.1129
 6324SOL    HW225062   0.765   6.184   5.177  0.2777  1.6237 -0.5510
 6324SOL    HW325063   0.667   6.195   5.062 -0.0384  3.3912 -0.1360
 6324SOL    MW425064   0.683   6.191   5.147 -0.0116  0.1956 -0.1737
 6325SOL     OW25065   4.843   0.006   6.001  0.5367  0.1683  0.7173
 6325SOL    HW225066   4.792  -0.069   6.031 -0.9603  0.2875 -1.2930
 6325SOL    HW325067   4.831   0.073   6.068 -1.1250 -0.1800  0.7942
 6325SOL    MW425068   4.835   0.005   6.014  0.1199  0.1380  0.4622
 6326SOL     OW25069   3.278   3.830   1.122 -0.1015  0.1352 -0.2285
 6326SOL    HW225070   3.299   3.831   1.029  2.8805 -1.5626  0.2929
 6326SOL    HW325071   3.356   3.867   1.165 -0.3784 -1.2955  1.6705
 6326SOL    MW425072   3.291   3.835   1.116  0.2554 -0.2776  0.0908
 6327SOL     OW25073   2.655   1.284   5.927  1.2992 -0.6265 -0.1796
 6327SOL    HW225074   2.572   1.236   5.927  0.2407  1.0983  0.9066
 6327SOL    HW325075   2.658   1.325   5.840  2.2144 -2.5531 -1.1162
 6327SOL    MW425076   2.644   1.283   5.915  1.2803 -0.6531 -0.1598
 6328SOL     OW25077   4.604   1.006   3.146  0.2186 -0.2017  0.9712
 6328SOL    HW225078   4.654   1.087   3.157 -0.7268  0.4318  0.7412
 6328SOL    HW325079   4.631   0.972   3.061 -0.4701  0.6698  0.3953
 6328SOL    MW425080   4.614   1.012   3.137  0.0030 -0.0031  0.8649
 6329SOL     OW25081   4.992   5.672   4.143 -0.1381  0.0113 -0.3476
 6329SOL    HW225082   4.903   5.636   4.146 -0.0251 -0.3273 -0.8277
 6329SOL    HW325083   4.993   5.724   4.062  0.7311 -1.7289 -1.5106
 6329SOL    MW425084   4.980   5.674   4.133 -0.0085 -0.2630 -0.5644
 6330SOL     OW25085   2.532   1.796   3.146  0.3035 -0.1271  0.0284
 6330SOL    HW225086   2.568   1.879   3.113 -1.2241  0.0740 -1.2894
 6330SOL    HW325087   2.470   1.822   3.213  0.1042 -0.2273 -0.1169
 6330SOL    MW425088   2.529   1.811   3.150  0.0756 -0.1138 -0.1647
 6331SOL     OW25089   0.274   1.355   2.469 -0.3600  0.0572  0.1960
 6331SOL    HW225090   0.312   1.270   2.445 -1.2874 -0.0652 -0.9654
 6331SOL    HW325091   0.183   1.335   2.490 -0.3829  0.6656  0.6894
 6331SOL    MW425092   0.267   1.341   2.468 -0.4854  0.1213  0.1079
 6332SOL     OW25093   0.608   0.259   3.930  0.2117  0.3102  0.1863
 6332SOL    HW225094   0.541   0.247   3.997  0.0464  1.7885  0.3162
 6332SOL    HW325095   0.607   0.353   3.911  0.6804  0.0248 -1.4565
 6332SOL    MW425096   0.599   0.270   3.936  0.2517  0.4676 -0.0133
 6333SOL     OW25097   5.088   2.173   3.283  0.0849 -0.3498 -0.2318
 6333SOL    HW225098   5.181   2.153   3.277  0.3170  0.3981  0.7623
 6333SOL    HW325099   5.077   2.251   3.227 -0.0366 -0.7039 -0.7088
 6333SOL    MW425100   5.099   2.181   3.275  0.0995 -0.2978 -0.1636
 6334SOL     OW25101   3.263   4.569   1.268  0.7779 -0.1419 -0.1244
 6334SOL    HW225102   3.303   4.565   1.355  1.3822 -0.0026 -0.3896
 6334SOL    HW325103   3.234   4.479   1.251  1.5406 -0.3838 -0.1811
 6334SOL    MW425104   3.265   4.557   1.277  0.9583 -0.1554 -0.1668
 6335SOL     OW25105   1.274   2.361   3.220 -0.1662  0.2944  0.3673
 6335SOL    HW225106   1.256   2.298   3.290 -0.9834  0.1823  0.0689
 6335SOL    HW325107   1.319   2.309   3.153  0.0438  0.2590  0.5320
 6335SOL    MW425108   1.278   2.346   3.220 -0.2463  0.2749  0.3497
 6336SOL     OW25109   1.607   4.235   1.745 -0.0269  0.9414  0.2267
 6336SOL    HW225110   1.610   4.151   1.699  0.2885  1.7185 -1.2255
 6336SOL    HW325111   1.679   4.231   1.808 -0.1962  0.0200  0.3749
 6336SOL    MW425112   1.617   4.224   1.747 -0.0076  0.9224  0.0546
 6337SOL     OW25113   1.167   2.847   4.519 -0.0116 -0.5467 -0.0135
 6337SOL    HW225114   1.166   2.894   4.602 -1.0175  0.4805 -0.5755
 6337SOL    HW325115   1.241   2.787   4.526  1.0593  0.8188  0.9076
 6337SOL    MW425116   1.176   2.845   4.531 -0.0030 -0.2310  0.0339
 6338SOL     OW25117   4.938   2.468   4.662 -0.1886 -0.1478  0.3646
 6338SOL    HW225118   4.928   2.398   4.727  0.8936  0.3366  1.0863
 6338SOL    HW325119   4.962   2.422   4.581  0.8618 -0.6209  0.9147
 6338SOL    MW425120   4.940   2.453   4.660  0.0928 -0.1463  0.5324
 6339SOL     OW25121   6.365   6.229   4.942  0.3445 -0.0283 -0.4492
 6339SOL    HW225122   6.440   6.285   4.922  0.4738  0.1164  0.4125
 6339SOL    HW325123   6.293   6.266   4.889  0.8892 -0.2203 -1.3385
 6339SOL    MW425124   6.365   6.242   4.932  0.4334 -0.0346 -0.4528
 6340SOL     OW25125   3.252   0.450   4.581 -0.4069  0.4048 -0.0377
 6340SOL    HW225126   3.335   0.423   4.542 -0.0929  3.9397 -2.2314
 6340SOL    HW325127   3.189   0.385   4.551  0.6723  0.5565 -2.8803
 6340SOL    MW425128   3.255   0.438   4.572 -0.2231  0.8912 -0.7022
 6341SOL     OW25129   5.468   0.207   5.472  0.2091  0.5969  0.1930
 6341SOL    HW225130   5.489   0.133   5.416  0.2707  1.4937 -0.9886
 6341SOL    HW325131   5.546   0.221   5.525 -0.5672 -1.5882  2.0983
 6341SOL    MW425132   5.481   0.199   5.472  0.1148  0.4269  0.2885
 6342SOL     OW25133   2.496   6.082   1.535  0.4105 -0.1426 -0.5045
 6342SOL    HW225134   2.544   6.000   1.548 -0.2296 -0.5444 -0.6358
 6342SOL    HW325135   2.426   6.060   1.473  0.7483  0.7042 -1.2063
 6342SOL    MW425136   2.493   6.068   1.528  0.3706 -0.0839 -0.6144
 6343SOL     OW25137   0.991   5.766   1.575 -0.3328  0.1111 -0.2939
 6343SOL    HW225138   1.016   5.856   1.599  0.0390 -0.3024  0.9124
 6343SOL    HW325139   1.008   5.762   1.481 -0.6027  1.3872 -0.4223
 6343SOL    MW425140   0.997   5.778   1.566 -0.3194  0.2249 -0.1517
 6344SOL     OW25141   4.973   0.340   5.838 -0.1911 -0.3359 -0.1283
 6344SOL    HW225142   4.887   0.300   5.851 -0.4103  0.3228  0.5579
 6344SOL    HW325143   5.006   0.301   5.757 -0.4983 -1.6949  0.3696
 6344SOL    MW425144   4.966   0.330   5.829 -0.2606 -0.4283  0.0280
 6345SOL     OW25145   5.461   2.793   2.039  0.0489  0.4135  0.0759
 6345SOL    HW225146   5.440   2.799   1.946  0.4052  1.5515  0.0467
 6345SOL    HW325147   5.508   2.874   2.058  2.9130 -1.2093  0.5128
 6345SOL    MW425148   5.464   2.805   2.029  0.4738  0.3495  0.1297
 6346SOL     OW25149   5.143   4.148   2.126  0.1520 -0.1555 -0.3614
 6346SOL    HW225150   5.100   4.066   2.149  0.2000 -0.1643 -0.3033
 6346SOL    HW325151   5.133   4.203   2.204  0.3145 -0.1856 -0.3203
 6346SOL    MW425152   5.136   4.144   2.140  0.1797 -0.1606 -0.3483
 6347SOL     OW25153   5.425   3.565   3.127 -0.0785 -0.5330  0.2550
 6347SOL    HW225154   5.419   3.470   3.110 -0.3210 -0.5529  0.4629
 6347SOL    HW325155   5.336   3.597   3.115 -0.0788 -0.3999  0.6238
 6347SOL    MW425156   5.412   3.556   3.123 -0.1105 -0.5181  0.3311
 6348SOL     OW25157   0.104   0.526   1.906 -0.1818 -0.3915  0.0962
 6348SOL    HW225158   0.141   0.443   1.875  1.2453  0.3281 -0.1742
 6348SOL    HW325159   0.178   0.574   1.941 -0.9323  0.9456 -0.1031
 6348SOL    MW425160   0.119   0.521   1.907 -0.0925 -0.1202  0.0342
 6349SOL     OW25161   3.318   4.275   3.778  0.2671  0.8450  0.1011
 6349SOL    HW225162   3.360   4.358   3.756 -0.5440  1.2805  0.1767
 6349SOL    HW325163   3.224   4.293   3.774 -0.0163  0.9483  3.6614
 6349SOL    MW425164   3.311   4.288   3.775  0.1227  0.9161  0.5808
 6350SOL     OW25165   0.717   5.001   6.252 -0.0228  0.2805 -0.1700
 6350SOL    HW225166   0.704   5.095   6.265 -1.6041  0.1489 -0.5709
 6350SOL    HW325167   0.647   4.960   6.304 -1.4377 -0.5267 -2.5462
 6350SOL    MW425168   0.706   5.008   6.260 -0.4181  0.1567 -0.5364
 6351SOL     OW25169   4.985   2.671   2.647  0.6138  0.2471  0.6204
 6351SOL    HW225170   4.994   2.580   2.621  1.0749  0.1305  1.1634
 6351SOL    HW325171   4.897   2.678   2.682  0.2052  0.2629 -0.3836
 6351SOL    MW425172   4.975   2.660   2.648  0.6207  0.2338  0.5596
 6352SOL     OW25173   4.878   1.015   3.400 -0.6274  0.2990  0.1649
 6352SOL    HW225174   4.835   1.052   3.323 -2.0898 -0.8379  0.3896
 6352SOL    HW325175   4.921   0.936   3.367 -0.0048  0.6106  0.2335
 6352SOL    MW425176   4.878   1.009   3.385 -0.7382  0.1901  0.2036
 6353SOL     OW25177   6.373   5.294   3.933  0.2600  0.1170  0.6587
 6353SOL    HW225178   6.404   5.373   3.888  0.7791 -0.2131  0.4209
 6353SOL    HW325179   6.441   5.229   3.916  0.5308  0.0068  2.0167
 6353SOL    MW425180   6.386   5.296   3.925  0.3642  0.0589  0.8065
 6354SOL     OW25181   3.850   3.206   2.383 -0.2129  0.5104 -0.1020
 6354SOL    HW225182   3.782   3.273   2.390 -1.3186 -0.5464 -0.3467
 6354SOL    HW325183   3.811   3.128   2.423  0.7969 -0.1676 -0.4011
 6354SOL    MW425184   3.835   3.204   2.389 -0.2256  0.2815 -0.1737
 6355SOL     OW25185   3.008   5.105   4.926  0.7482  0.1343 -0.5125
 6355SOL    HW225186   3.042   5.068   5.008  1.0211  0.7739 -0.3269
 6355SOL    HW325187   2.940   5.044   4.899  1.7947 -0.9840 -0.7025
 6355SOL    MW425188   3.003   5.092   4.933  0.9223  0.0711 -0.5131
 6356SOL     OW25189   4.782   4.798   5.855 -0.0548  0.0327  0.5225
 6356SOL    HW225190   4.776   4.703   5.868  0.7314 -0.0483  0.3627
 6356SOL    HW325191   4.776   4.835   5.944 -1.0852 -0.1122  0.5248
 6356SOL    MW425192   4.781   4.790   5.869 -0.0870  0.0029  0.5017
 6357SOL     OW25193   3.707   1.374   5.783  0.1999 -0.3783  0.0864
 6357SOL    HW225194   3.637   1.349   5.723  0.5742 -1.1985 -0.0183
 6357SOL    HW325195   3.786   1.336   5.746  0.8304  1.1137 -0.1573
 6357SOL    MW425196   3.708   1.366   5.770  0.3325 -0.2896  0.0405
 6358SOL     OW25197   4.167   0.097   0.687  0.1801 -0.5468  0.2421
 6358SOL    HW225198   4.180   0.038   0.613 -1.0623 -0.5239 -0.0211
 6358SOL    HW325199   4.226   0.170   0.670 -0.0587 -0.5632 -0.7201
 6358SOL    MW425200   4.177   0.099   0.675 -0.0153 -0.5459  0.0804
 6359SOL     OW25201   3.627   1.556   3.472 -0.0037 -0.6025 -0.8776
 6359SOL    HW225202   3.562   1.565   3.402 -0.3565  1.3871 -0.3546
 6359SOL    HW325203   3.581   1.582   3.552  1.5814  1.8065 -0.6178
 6359SOL    MW425204   3.612   1.561   3.473  0.1588 -0.0221 -0.7743
 6360SOL     OW25205   4.645   2.185   5.962 -0.0556 -0.0103 -0.2504
 6360SOL    HW225206   4.646   2.277   5.937  1.1498 -0.4874 -2.1973
 6360SOL    HW325207   4.561   2.172   6.005 -0.8139  1.6923 -1.1371
 6360SOL    MW425208   4.634   2.196   5.965  0.0034  0.1514 -0.6243
 6361SOL     OW25209   1.241   6.201   4.255 -0.2121  0.3241  0.5747
 6361SOL    HW225210   1.267   6.223   4.165  0.9630 -0.7284  0.6289
 6361SOL    HW325211   1.296   6.126   4.278 -0.4266  0.6404  2.2172
 6361SOL    MW425212   1.252   6.194   4.246 -0.0854  0.2270  0.7986
 6362SOL     OW25213   3.933   1.803   0.318  0.6710  0.4427  0.1081
 6362SOL    HW225214   3.892   1.883   0.285  0.2544  0.1382 -0.1229
 6362SOL    HW325215   3.875   1.732   0.290  1.7624 -0.0777 -0.9167
 6362SOL    MW425216   3.920   1.804   0.310  0.7600  0.3338 -0.0576
 6363SOL     OW25217   4.388   0.307   0.395 -0.2312  0.2554 -0.1598
 6363SOL    HW225218   4.374   0.273   0.483  0.8294  0.2009 -0.0063
 6363SOL    HW325219   4.391   0.402   0.406  0.2322  0.2335 -0.0854
 6363SOL    MW425220   4.386   0.315   0.408 -0.0301  0.2454 -0.1297
 6364SOL     OW25221   2.080   3.128   3.827 -0.0399 -0.5327  0.2445
 6364SOL    HW225222   2.081   3.217   3.860  1.3410 -0.0068 -1.0846
 6364SOL    HW325223   2.138   3.079   3.886 -0.4981 -0.4669  0.7504
 6364SOL    MW425224   2.088   3.133   3.839  0.0818 -0.4546  0.1359
 6365SOL     OW25225   2.905   5.873   4.846 -0.3256 -0.2266  0.0477
 6365SOL    HW225226   2.891   5.843   4.755 -2.2583  1.2250 -0.1978
 6365SOL    HW325227   2.852   5.813   4.899 -2.0271  1.0239 -0.1754
 6365SOL    MW425228   2.896   5.861   4.841 -0.8051  0.1299 -0.0141
 6366SOL     OW25229   1.679   2.612   2.444  0.4017 -0.6650  0.1382
 6366SOL    HW225230   1.734   2.542   2.479  1.2933  0.4935  1.1545
 6366SOL    HW325231   1.657   2.584   2.356  2.4516 -1.2855 -0.2247
 6366SOL    MW425232   1.683   2.599   2.437  0.7898 -0.5940  0.2244
 6367SOL     OW25233   3.263   1.234   0.648 -0.0653 -0.6979 -0.0218
 6367SOL    HW225234   3.177   1.263   0.678  0.8784  2.8501 -0.4136
 6367SOL    HW325235   3.247   1.190   0.565 -1.2959  2.9412 -1.8621
 6367SOL    MW425236   3.250   1.232   0.641 -0.1032  0.2503 -0.3163
 6368SOL     OW25237   5.922   4.738   2.299 -0.4489 -0.3337  0.2173
 6368SOL    HW225238   5.940   4.761   2.208  0.4996  1.4185  0.7994
 6368SOL    HW325239   5.982   4.666   2.317  2.0445  1.6211  0.4134
 6368SOL    MW425240   5.933   4.732   2.289  0.0052  0.1554  0.3200
 6369SOL     OW25241   0.195   6.049   5.179 -0.0664 -0.5970  0.0472
 6369SOL    HW225242   0.111   6.026   5.138  1.1164 -1.6627 -1.8894
 6369SOL    HW325243   0.186   6.018   5.269 -1.0790 -2.4209 -0.6387
 6369SOL    MW425244   0.183   6.042   5.185 -0.0439 -0.9783 -0.2988
 6370SOL     OW25245   0.061   2.264   2.560 -0.1275 -0.2217  0.0805
 6370SOL    HW225246   0.127   2.324   2.594 -0.0646 -0.2230 -0.0391
 6370SOL    HW325247   0.097   2.177   2.578 -0.9484 -0.2478  1.7110
 6370SOL    MW425248   0.075   2.260   2.567 -0.2275 -0.2253  0.2799
 6371SOL     OW25249   2.815   5.226   1.296 -0.3151  0.2183 -0.3317
 6371SOL    HW225250   2.894   5.276   1.274 -1.4298  2.0478 -0.3317
 6371SOL    HW325251   2.847   5.136   1.308  2.3643  1.3599  2.8195
 6371SOL    MW425252   2.830   5.221   1.295 -0.1086  0.6103  0.0841
 6372SOL     OW25253   3.750   5.647   0.075 -0.0125  0.3890  0.8602
 6372SOL    HW225254   3.685   5.698   0.026  1.5659  1.9965  0.2982
 6372SOL    HW325255   3.709   5.629   0.159 -0.2986  3.6378  1.5486
 6372SOL    MW425256   3.736   5.652   0.079  0.1580  1.0298  0.8769
 6373SOL     OW25257   5.928   0.589   1.989  0.1813 -0.2162 -0.2155
 6373SOL    HW225258   5.952   0.573   1.898 -1.1067  0.2520 -0.6561
 6373SOL    HW325259   6.006   0.630   2.028  0.6720 -0.2518 -1.1374
 6373SOL    MW425260   5.942   0.592   1.982  0.0761 -0.1591 -0.3952
 6374SOL     OW25261   2.909   0.576   2.965 -0.3705  0.0307  0.7222
 6374SOL    HW225262   2.853   0.591   3.041 -0.8556  0.5952  0.2665
 6374SOL    HW325263   2.914   0.661   2.921 -1.3726 -0.6110 -0.7218
 6374SOL    MW425264   2.902   0.589   2.969 -0.5667  0.0205  0.4716
 6375SOL     OW25265   3.796   1.341   4.810 -0.2782 -0.0219 -0.2852
 6375SOL    HW225266   3.838   1.255   4.801 -0.2329  0.0693 -1.0014
 6375SOL    HW325267   3.811   1.384   4.725 -0.6327  0.5435 -0.0666
 6375SOL    MW425268   3.804   1.335   4.797 -0.3190  0.0647 -0.3509
 6376SOL     OW25269   3.601   4.898   5.250 -0.4621  0.0504 -0.1047
 6376SOL    HW225270   3.662   4.901   5.176 -1.4218 -1.3382 -1.0139
 6376SOL    HW325271   3.565   4.986   5.256 -1.6101 -0.1781 -2.4316
 6376SOL    MW425272   3.604   4.910   5.241 -0.7402 -0.1629 -0.5316
 6377SOL     OW25273   6.073   4.380   3.029 -0.0786  0.3982  0.2537
 6377SOL    HW225274   6.005   4.328   2.988  0.0248  0.7540 -0.3694
 6377SOL    HW325275   6.139   4.315   3.057 -0.7046  0.0442  0.9614
 6377SOL    MW425276   6.073   4.364   3.028 -0.1475  0.3985  0.2648
 6378SOL     OW25277   2.631   3.665   3.525 -0.1447  0.0056  0.1757
 6378SOL    HW225278   2.693   3.738   3.522 -2.1823  1.8394 -0.2326
 6378SOL    HW325279   2.606   3.651   3.433 -0.3478 -0.6988  0.3336
 6378SOL    MW425280   2.635   3.673   3.512 -0.4404  0.1546  0.1427
 6379SOL     OW25281   0.042   1.284   5.764  0.0380  0.9536 -0.2457
 6379SOL    HW225282   0.074   1.260   5.677  0.5342  0.3991  0.0834
 6379SOL    HW325283  -0.048   1.252   5.766  0.3392  0.0686 -0.2109
 6379SOL    MW425284   0.035   1.276   5.753  0.1432  0.7637 -0.1977
 6380SOL     OW25285   2.637   5.344   2.485 -0.3223 -0.0192 -0.2642
 6380SOL    HW225286   2.555   5.335   2.435 -0.0470  1.8848 -1.1396
 6380SOL    HW325287   2.619   5.300   2.568 -2.5293  0.9785 -0.1351
 6380SOL    MW425288   2.624   5.337   2.489 -0.5772  0.3636 -0.3626
 6381SOL     OW25289   6.093   0.973   3.196  0.0794  0.6534 -0.0006
 6381SOL    HW225290   6.180   1.006   3.171  0.1804 -0.0202 -0.5580
 6381SOL    HW325291   6.094   0.881   3.170 -1.1646  0.8833 -0.9707
 6381SOL    MW425292   6.105   0.965   3.189 -0.0714  0.5949 -0.2021
 6382SOL     OW25293   3.295   5.695   0.722 -0.2393  0.4954 -0.2188
 6382SOL    HW225294   3.328   5.621   0.772 -0.7698 -0.0419 -0.6534
 6382SOL    HW325295   3.267   5.657   0.639  0.5894  1.3646 -0.9189
 6382SOL    MW425296   3.296   5.680   0.718 -0.2000  0.5392 -0.3685
 6383SOL     OW25297   2.691   3.829   0.229 -0.5142  0.3193  0.3273
 6383SOL    HW225298   2.661   3.860   0.314 -1.2202 -2.1995  1.0851
 6383SOL    HW325299   2.759   3.764   0.250  0.7697  1.1270 -1.1320
 6383SOL    MW425300   2.696   3.824   0.243 -0.4379  0.0936  0.2347
 6384SOL     OW25301   0.891   2.854   5.958 -0.3182 -0.1855 -0.2288
 6384SOL    HW225302   0.805   2.895   5.954 -1.5782 -2.7149 -1.1551
 6384SOL    HW325303   0.909   2.827   5.867  1.0038 -0.5845  0.1264
 6384SOL    MW425304   0.882   2.856   5.945 -0.3100 -0.5719 -0.3041
 6385SOL     OW25305   1.829   1.691   0.965  0.5210  0.4898  0.2476
 6385SOL    HW225306   1.809   1.606   1.004  0.6123  0.5356  0.3967
 6385SOL    HW325307   1.899   1.727   1.020  0.1675  0.8629  0.4583
 6385SOL    MW425308   1.836   1.685   0.978  0.4864  0.5451  0.2951
 6386SOL     OW25309   1.581   4.157   0.829  0.1857 -0.4325  0.0796
 6386SOL    HW225310   1.636   4.134   0.754 -0.7534 -1.9991 -0.1744
 6386SOL    HW325311   1.583   4.253   0.832  2.9001 -0.4180  0.1047
 6386SOL    MW425312   1.588   4.167   0.820  0.4199 -0.6373  0.0494
 6387SOL     OW25313   5.255   2.081   2.541  0.0852  0.6414  0.6428
 6387SOL    HW225314   5.184   2.017   2.544  1.3213 -0.9347 -0.8674
 6387SOL    HW325315   5.300   2.071   2.625 -1.2658  1.4577  1.4954
 6387SOL    MW425316   5.252   2.071   2.552  0.0701  0.5411  0.5560
 6388SOL     OW25317   4.486   1.968   3.678  0.0362 -0.1956 -0.6606
 6388SOL    HW225318   4.561   1.918   3.709 -1.0875 -1.7373 -0.2881
 6388SOL    HW325319   4.413   1.938   3.733 -1.1768  0.0462 -2.0739
 6388SOL    MW425320   4.486   1.958   3.689 -0.2721 -0.3671 -0.7979
 6389SOL     OW25321   2.533   4.498   5.150 -0.3179 -0.5323 -0.0273
 6389SOL    HW225322   2.587   4.502   5.071 -0.3717 -0.8649 -0.0815
 6389SOL    HW325323   2.444   4.480   5.117 -0.8692  1.9974 -0.1154
 6389SOL    MW425324   2.528   4.496   5.135 -0.3977 -0.2424 -0.0460
 6390SOL     OW25325   3.752   0.735   4.196  0.4693  0.0864  0.3206
 6390SOL    HW225326   3.747   0.761   4.288  0.3416  0.2230  0.2741
 6390SOL    HW325327   3.675   0.680   4.182 -0.7696  1.8774 -0.2900
 6390SOL    MW425328   3.741   0.731   4.206  0.2890  0.3407  0.2339
 6391SOL     OW25329   5.379   6.319   5.743 -0.0732 -0.0505 -0.1362
 6391SOL    HW225330   5.374   6.401   5.792 -0.7563  0.0621 -0.3725
 6391SOL    HW325331   5.473   6.301   5.734  0.2271  2.1587 -2.4449
 6391SOL    MW425332   5.391   6.327   5.748 -0.1237  0.2558 -0.4720
 6392SOL     OW25333   0.325   0.763   3.055  0.4109 -0.3456  0.4244
 6392SOL    HW225334   0.399   0.704   3.066  0.8558 -0.3983 -2.2786
 6392SOL    HW325335   0.363   0.850   3.056  0.2085 -0.2576  1.0286
 6392SOL    MW425336   0.340   0.766   3.057  0.4429 -0.3409  0.1475
 6393SOL     OW25337   2.858   5.205   2.379 -0.0072 -0.3510  0.1019
 6393SOL    HW225338   2.820   5.293   2.378 -1.4904 -0.9405  1.0963
 6393SOL    HW325339   2.908   5.201   2.461  0.2852 -0.3609 -0.0726
 6393SOL    MW425340   2.860   5.216   2.390 -0.1643 -0.4301  0.2101
 6394SOL     OW25341   3.330   0.663   4.201 -0.1960 -0.4757  0.3396
 6394SOL    HW225342   3.318   0.735   4.138  0.0455 -0.4821  0.2838
 6394SOL    HW325343   3.266   0.597   4.175 -0.9298  0.0253  0.8404
 6394SOL    MW425344   3.320   0.664   4.189 -0.2609 -0.4105  0.3983
 6395SOL     OW25345   3.355   1.860   1.125  0.3745 -0.3070 -0.8512
 6395SOL    HW225346   3.299   1.818   1.191  0.1078 -0.4582 -1.1692
 6395SOL    HW325347   3.298   1.870   1.049  0.5731  0.2148 -0.9320
 6395SOL    MW425348   3.340   1.856   1.124  0.3655 -0.2581 -0.9039
 6396SOL     OW25349   1.984   0.554   6.225  0.0672 -0.2268 -0.0472
 6396SOL    HW225350   2.036   0.600   6.159 -0.3277 -1.2709 -1.1191
 6396SOL    HW325351   1.973   0.466   6.190 -2.8139  0.0666 -0.0942
 6396SOL    MW425352   1.990   0.548   6.212 -0.3650 -0.3259 -0.1948
 6397SOL     OW25353   6.353   4.830   5.032 -0.5465 -0.0391 -0.9282
 6397SOL    HW225354   6.327   4.745   5.066 -0.6321 -0.5787 -2.2961
 6397SOL    HW325355   6.338   4.891   5.105 -0.8771 -1.1171 -0.0771
 6397SOL    MW425356   6.348   4.827   5.046 -0.6014 -0.2525 -0.9964
 6398SOL     OW25357   3.727   2.576   0.662  0.0837  0.6279 -0.1400
 6398SOL    HW225358   3.756   2.496   0.618 -0.2115  0.7902 -0.6370
 6398SOL    HW325359   3.743   2.645   0.598 -2.9839  0.5331 -1.1815
 6398SOL    MW425360   3.733   2.574   0.648 -0.3600  0.6368 -0.3430
 6399SOL     OW25361   5.599   4.236   0.760  0.1457  0.1299 -0.1956
 6399SOL    HW225362   5.593   4.197   0.673  0.3636 -2.0177  0.6841
 6399SOL    HW325363   5.509   4.257   0.784 -0.5774 -3.2883  0.6905
 6399SOL    MW425364   5.587   4.233   0.752  0.0790 -0.6044  0.0374
 6400SOL     OW25365   2.923   3.866   3.793  0.2088 -0.5020 -0.1262
 6400SOL    HW225366   2.979   3.910   3.729  1.2159 -2.1582 -0.4445
 6400SOL    HW325367   2.924   3.774   3.766 -1.5761 -0.7924  0.6773
 6400SOL    MW425368   2.931   3.860   3.781  0.1061 -0.7588 -0.0622
 6401SOL     OW25369   4.173   0.239   5.593  0.7927 -0.6695  0.1106
 6401SOL    HW225370   4.143   0.209   5.508  0.2883  1.2777 -0.4525
 6401SOL    HW325371   4.264   0.263   5.580  0.2460  1.3165 -0.4099
 6401SOL    MW425372   4.181   0.238   5.580  0.6540 -0.1506 -0.0323
 6402SOL     OW25373   4.441   4.140   0.228  0.2278 -0.0107  0.4314
 6402SOL    HW225374   4.447   4.151   0.322 -1.4414  0.4963  0.5004
 6402SOL    HW325375   4.468   4.224   0.191  0.7021 -0.1507  0.4494
 6402SOL    MW425376   4.446   4.152   0.235  0.0701  0.0377  0.4429
 6403SOL     OW25377   5.055   1.874   2.585  0.3291  0.2500 -0.0802
 6403SOL    HW225378   5.045   1.872   2.681  0.4538 -1.1556 -0.0807
 6403SOL    HW325379   4.977   1.919   2.554 -2.5180 -3.8359  0.3924
 6403SOL    MW425380   5.044   1.880   2.594 -0.0301 -0.4746 -0.0179
 6404SOL     OW25381   1.706   5.677   1.725 -0.4023  0.3709  0.4855
 6404SOL    HW225382   1.794   5.688   1.762 -0.1365 -0.0555 -0.0240
 6404SOL    HW325383   1.665   5.611   1.781 -0.3954  0.5541  0.7105
 6404SOL    MW425384   1.712   5.670   1.738 -0.3663  0.3388  0.4479
 6405SOL     OW25385   0.133   4.362   6.357  0.0343 -0.2755  0.1481
 6405SOL    HW225386   0.115   4.327   6.270  1.5074  0.5856 -0.5456
 6405SOL    HW325387   0.106   4.453   6.353  0.8389 -0.0161  0.3155
 6405SOL    MW425388   0.127   4.369   6.345  0.3349 -0.1277  0.0787
 6406SOL     OW25389   2.868   2.352   5.919  0.4790  0.2473  0.2323
 6406SOL    HW225390   2.873   2.393   6.005  2.6027  0.0068  0.2849
 6406SOL    HW325391   2.918   2.271   5.929 -0.9710 -0.8084 -0.7088
 6406SOL    MW425392   2.875   2.346   5.932  0.5679  0.0763  0.1151
 6407SOL     OW25393   3.422   3.952   2.411  0.1972  0.0791  0.1654
 6407SOL    HW225394   3.511   3.984   2.395 -0.0400  2.0450  2.2538
 6407SOL    HW325395   3.370   3.988   2.340  1.0847 -1.5575 -1.4090
 6407SOL    MW425396   3.427   3.961   2.400  0.2830  0.1225  0.2332
 6408SOL     OW25397   4.622   3.702   3.547 -0.5655 -0.0893  0.1911
 6408SOL    HW225398   4.573   3.764   3.601 -0.6643  1.6075 -1.7184
 6408SOL    HW325399   4.714   3.714   3.572 -0.7726 -0.8158  1.3751
 6408SOL    MW425400   4.628   3.711   3.557 -0.6059  0.0387  0.0953
 6409SOL     OW25401   3.742   2.098   3.188 -0.4002  0.3123 -0.3752
 6409SOL    HW225402   3.666   2.152   3.208 -0.1136  0.2542  0.9366
 6409SOL    HW325403   3.774   2.133   3.104 -1.7844  0.4071 -0.8822
 6409SOL    MW425404   3.736   2.110   3.179 -0.5450  0.3171 -0.2690
 6410SOL     OW25405   3.109   3.085   2.951  0.0062 -0.0504  0.0724
 6410SOL    HW225406   3.136   3.133   2.872 -0.3814  0.7157  0.3929
 6410SOL    HW325407   3.066   3.151   3.005 -0.1356 -0.6730  0.7296
 6410SOL    MW425408   3.107   3.100   2.948 -0.0637 -0.0315  0.2014
 6411SOL     OW25409   2.769   6.039   2.563 -0.2653 -0.1473 -0.2413
 6411SOL    HW225410   2.781   5.953   2.521 -2.1971 -0.2113 -0.7359
 6411SOL    HW325411   2.675   6.052   2.564 -0.0996  1.2236  1.4104
 6411SOL    MW425412   2.758   6.029   2.557 -0.4983  0.0251 -0.0887
 6412SOL     OW25413   5.313   4.459   2.302  0.2598 -0.7985 -0.5202
 6412SOL    HW225414   5.382   4.404   2.264  0.7887 -0.4087 -0.1402
 6412SOL    HW325415   5.334   4.462   2.395 -0.2374 -0.6219 -0.4129
 6412SOL    MW425416   5.325   4.452   2.309  0.2640 -0.7238 -0.4559
 6413SOL     OW25417   6.026   3.256   3.020 -0.2348 -0.3916  0.2154
 6413SOL    HW225418   6.059   3.173   3.055  3.1306  0.4835 -0.5219
 6413SOL    HW325419   6.063   3.261   2.931  0.1616  2.0963  0.4395
 6413SOL    MW425420   6.035   3.245   3.013  0.2615  0.0521  0.1477
 6414SOL     OW25421   1.618   2.751   1.118  0.0337  0.4558  0.2352
 6414SOL    HW225422   1.709   2.771   1.096  0.9106 -1.1890  1.9987
 6414SOL    HW325423   1.590   2.688   1.052  0.1675  0.9448 -0.2968
 6414SOL    MW425424   1.627   2.745   1.107  0.1671  0.3033  0.3977
 6415SOL     OW25425   2.691   4.694   5.956 -0.1664  0.1406 -0.0012
 6415SOL    HW225426   2.785   4.676   5.947 -0.0879  0.6671 -0.2461
 6415SOL    HW325427   2.675   4.689   6.050 -0.0008 -0.4605  0.0046
 6415SOL    MW425428   2.701   4.691   5.968 -0.1342  0.1307 -0.0328
 6416SOL     OW25429   5.542   1.832   0.135  0.0043  0.0857 -0.0384
 6416SOL    HW225430   5.544   1.753   0.082 -0.6172  1.1084 -1.6494
 6416SOL    HW325431   5.570   1.902   0.076 -0.5742  1.2539  1.0206
 6416SOL    MW425432   5.546   1.831   0.120 -0.1540  0.3748 -0.1112
 6417SOL     OW25433   4.234   2.762   2.346  0.0619 -0.1606 -0.0189
 6417SOL    HW225434   4.253   2.829   2.280  1.1906  1.2924  1.6851
 6417SOL    HW325435   4.160   2.797   2.395 -0.4753 -1.0113 -0.2040
 6417SOL    MW425436   4.227   2.776   2.344  0.1399 -0.0812  0.1815
 6418SOL     OW25437   3.554   6.350   2.398 -0.5238 -0.1375  0.0710
 6418SOL    HW225438   3.524   6.274   2.348  3.0003 -1.4253 -0.3443
 6418SOL    HW325439   3.649   6.351   2.386 -0.0879  2.5470  2.6135
 6418SOL    MW425440   3.563   6.340   2.390 -0.0013  0.0468  0.3517
 6419SOL     OW25441   1.127   0.117   6.308 -0.2976  0.6786  0.3722
 6419SOL    HW225442   1.093   0.073   6.387  1.3971  1.7315  1.7528
 6419SOL    HW325443   1.068   0.191   6.295 -1.3636 -0.2256 -0.1761
 6419SOL    MW425444   1.115   0.121   6.317 -0.2147  0.6982  0.4820
 6420SOL     OW25445   5.674   6.395   2.770  0.0252 -0.0353 -0.3671
 6420SOL    HW225446   5.718   6.395   2.685  0.3883 -0.7317 -0.1831
 6420SOL    HW325447   5.737   6.433   2.831 -0.6706  1.5941 -0.6102
 6420SOL    MW425448   5.688   6.400   2.767 -0.0187  0.0878 -0.3749
 6421SOL     OW25449   4.938   4.125   5.303 -0.2326  0.3409 -0.4336
 6421SOL    HW225450   4.960   4.139   5.211  2.1604  1.0331  0.1752
 6421SOL    HW325451   4.952   4.210   5.344 -0.5746 -0.1337  0.6895
 6421SOL    MW425452   4.943   4.138   5.296  0.0380  0.3696 -0.2051
 6422SOL     OW25453   6.169   0.584   2.574 -0.4591 -0.4201  0.0649
 6422SOL    HW225454   6.158   0.489   2.571  1.5661 -0.7671  1.3923
 6422SOL    HW325455   6.187   0.604   2.666  2.3360  0.7527 -0.6125
 6422SOL    MW425456   6.170   0.574   2.586  0.1769 -0.3111  0.1506
 6423SOL     OW25457   4.069   3.586   4.302 -0.1320  0.4059  0.0512
 6423SOL    HW225458   4.073   3.544   4.388 -1.7716 -0.8480 -0.4414
 6423SOL    HW325459   3.988   3.638   4.305 -0.3962  0.0568 -0.8565
 6423SOL    MW425460   4.059   3.588   4.314 -0.3832  0.1944 -0.1336
 6424SOL     OW25461   2.025   1.335   0.232  0.3160  0.3014  0.0778
 6424SOL    HW225462   2.075   1.284   0.168  1.7230  1.5736  0.1160
 6424SOL    HW325463   2.006   1.417   0.188 -0.2085  0.5150  0.6915
 6424SOL    MW425464   2.029   1.339   0.218  0.4325  0.4974  0.1638
 6425SOL     OW25465   4.312   1.524   3.955  0.1529 -0.1505 -0.3435
 6425SOL    HW225466   4.353   1.545   3.871 -0.2327  3.6020  0.2205
 6425SOL    HW325467   4.219   1.542   3.942 -0.1227 -0.8286  0.5532
 6425SOL    MW425468   4.305   1.529   3.942  0.0657  0.2551 -0.1508
 6426SOL     OW25469   6.383   0.989   4.226  0.1507 -0.2429 -0.4313
 6426SOL    HW225470   6.334   0.965   4.305 -0.0041 -0.9865 -0.7411
 6426SOL    HW325471   6.414   0.905   4.191  0.9531  0.1557 -0.6839
 6426SOL    MW425472   6.380   0.975   4.232  0.2361 -0.2884 -0.5055
 6427SOL     OW25473   2.666   5.220   2.142  0.0917 -0.1847 -0.0703
 6427SOL    HW225474   2.716   5.210   2.223  1.0520 -0.8384 -0.7273
 6427SOL    HW325475   2.665   5.133   2.103  2.1850  0.6271 -2.2178
 6427SOL    MW425476   2.672   5.207   2.147  0.4946 -0.1639 -0.4403
 6428SOL     OW25477   0.839   4.505   4.638 -0.1108 -0.5745 -0.0135
 6428SOL    HW225478   0.859   4.579   4.581 -0.6581 -0.7567 -0.4475
 6428SOL    HW325479   0.905   4.439   4.617 -1.8011 -1.6723 -2.3455
 6428SOL    MW425480   0.850   4.506   4.628 -0.4060 -0.7434 -0.3784
 6429SOL     OW25481   3.986   3.952   0.909 -0.2108 -0.7572 -0.1284
 6429SOL    HW225482   3.995   3.974   1.002 -0.2866 -1.2392 -0.0010
 6429SOL    HW325483   4.076   3.949   0.876 -0.2458  1.3695 -0.5607
 6429SOL    MW425484   3.999   3.954   0.917 -0.2254 -0.5402 -0.1686
 6430SOL     OW25485   0.811   4.738   0.313 -0.5284  0.5132 -0.2885
 6430SOL    HW225486   0.759   4.671   0.357  1.7489 -1.4022 -0.3074
 6430SOL    HW325487   0.758   4.766   0.239 -1.9388 -0.5649  0.2783
 6430SOL    MW425488   0.797   4.733   0.309 -0.4140  0.1183 -0.2162
 6431SOL     OW25489   0.912   2.397   1.862 -0.4422 -0.2832  0.4914
 6431SOL    HW225490   0.816   2.397   1.862 -0.4542  0.4044  0.9974
 6431SOL    HW325491   0.936   2.351   1.942 -0.3543 -0.4320  0.3781
 6431SOL    MW425492   0.902   2.391   1.872 -0.4322 -0.2121  0.5432
 6432SOL     OW25493   4.310   5.288   5.788  0.2322 -0.3557  0.3955
 6432SOL    HW225494   4.288   5.355   5.724  1.3381  1.3418  1.6819
 6432SOL    HW325495   4.226   5.251   5.814 -0.6238  1.7918  0.9066
 6432SOL    MW425496   4.296   5.292   5.783  0.2652  0.1516  0.6327
 6433SOL     OW25497   6.372   2.377   2.087 -0.0979  0.1430  0.3432
 6433SOL    HW225498   6.378   2.471   2.103  0.5491  0.0972  0.3781
 6433SOL    HW325499   6.388   2.368   1.993  0.3638  0.0235  0.4304
 6433SOL    MW425500   6.375   2.388   2.076  0.0483  0.1212  0.3594
 6434SOL     OW25501   1.551   1.459   3.783  0.1622 -0.4924  0.5571
 6434SOL    HW225502   1.606   1.380   3.776 -0.6237 -0.9975 -0.1084
 6434SOL    HW325503   1.496   1.442   3.860  1.2501  0.2448  1.5505
 6434SOL    MW425504   1.551   1.446   3.793  0.2021 -0.4618  0.6003
 6435SOL     OW25505   1.232   3.901   0.507 -0.0917 -0.0743  0.1568
 6435SOL    HW225506   1.309   3.931   0.459 -0.7910  0.1100 -0.8601
 6435SOL    HW325507   1.222   3.964   0.578 -1.1245  1.7436 -1.5287
 6435SOL    MW425508   1.241   3.913   0.510 -0.3202  0.1899 -0.1997
 6436SOL     OW25509   0.211   5.109   5.850 -0.4224  0.2012  0.3509
 6436SOL    HW225510   0.162   5.190   5.835  1.9493  1.9618  1.4423
 6436SOL    HW325511   0.294   5.138   5.889 -0.1756 -2.8854  2.5113
 6436SOL    MW425512   0.215   5.124   5.854 -0.0769  0.0262  0.7799
 6437SOL     OW25513   2.139   3.419   5.926  0.1872  0.3551  0.2364
 6437SOL    HW225514   2.201   3.364   5.975  0.6296  1.7089  1.2763
 6437SOL    HW325515   2.078   3.357   5.886  0.5965 -0.8833  1.4527
 6437SOL    MW425516   2.139   3.403   5.927  0.2996  0.3703  0.5341
 6438SOL     OW25517   1.059   3.225   3.731  0.0960 -0.2305  0.2148
 6438SOL    HW225518   1.022   3.167   3.665  1.1296  0.6863 -1.2277
 6438SOL    HW325519   1.130   3.175   3.770 -0.5715 -0.8079  0.6998
 6438SOL    MW425520   1.064   3.211   3.727  0.1443 -0.1857  0.0885
 6439SOL     OW25521   6.252   4.198   3.132 -0.0102  0.1654  0.0997
 6439SOL    HW225522   6.323   4.255   3.161  0.7462 -0.9815  0.6207
 6439SOL    HW325523   6.297   4.125   3.089 -0.9344 -0.0816 -0.4770
 6439SOL    MW425524   6.268   4.196   3.130 -0.0323 -0.0185  0.0923
 6440SOL     OW25525   2.001   3.514   3.462 -0.1407 -0.4310  0.2714
 6440SOL    HW225526   1.959   3.431   3.437  2.0084 -1.5065  0.0092
 6440SOL    HW325527   2.016   3.559   3.379 -0.1055 -0.3812  0.3048
 6440SOL    MW425528   1.997   3.509   3.448  0.1475 -0.5664  0.2412
 6441SOL     OW25529   0.184   4.025   2.258 -0.3907 -0.5541  0.3137
 6441SOL    HW225530   0.204   3.934   2.235  0.3547 -0.7433  1.6370
 6441SOL    HW325531   0.162   4.066   2.175 -0.9760 -2.0014 -0.2816
 6441SOL    MW425532   0.183   4.018   2.244 -0.3696 -0.7700  0.4097
 6442SOL     OW25533   2.131   4.011   1.426 -0.0081  0.0450  0.2735
 6442SOL    HW225534   2.161   4.083   1.371  1.9005 -0.6421  0.3533
 6442SOL    HW325535   2.211   3.963   1.449 -1.1598 -1.7732  0.6825
 6442SOL    MW425536   2.145   4.014   1.422  0.0918 -0.2856  0.3380
 6443SOL     OW25537   0.238   1.488   1.842 -0.7371 -0.2909  0.1651
 6443SOL    HW225538   0.235   1.449   1.929 -1.8363  0.6587  0.5887
 6443SOL    HW325539   0.275   1.420   1.786 -2.2120 -1.8079  0.9404
 6443SOL    MW425540   0.242   1.474   1.846 -1.0767 -0.3657  0.3233
 6444SOL     OW25541   1.752   5.287   4.869 -0.3286 -0.4851  0.3468
 6444SOL    HW225542   1.813   5.361   4.870  0.9873 -1.5150  2.0397
 6444SOL    HW325543   1.671   5.323   4.832  1.2306  0.9557 -1.9711
 6444SOL    MW425544   1.750   5.302   4.864  0.0507 -0.4309  0.2643
 6445SOL     OW25545   1.314   2.798   5.242 -0.6519  0.4235  0.2543
 6445SOL    HW225546   1.369   2.751   5.305 -1.3515 -0.5788  0.1331
 6445SOL    HW325547   1.344   2.889   5.248 -0.3086  0.2451  1.6070
 6445SOL    MW425548   1.326   2.804   5.251 -0.6989  0.2677  0.4168
 6446SOL     OW25549   1.780   1.331   4.641  0.1079 -1.0576 -0.6991
 6446SOL    HW225550   1.759   1.251   4.690 -0.5914 -0.8286 -0.6098
 6446SOL    HW325551   1.698   1.355   4.598 -0.5802  1.3000  1.6663
 6446SOL    MW425552   1.766   1.324   4.641 -0.0751 -0.7163 -0.3752
 6447SOL     OW25553   3.162   1.283   4.404 -0.5763  0.3646 -0.7284
 6447SOL    HW225554   3.198   1.256   4.489 -1.5947  3.1653  0.7120
 6447SOL    HW325555   3.068   1.264   4.411 -0.5697  0.0136 -1.5152
 6447SOL    MW425556   3.154   1.277   4.416 -0.7098  0.6878 -0.6422
 6448SOL     OW25557   6.373   5.977   4.786 -0.2354  0.6293 -0.3068
 6448SOL    HW225558   6.376   6.061   4.832 -0.2792  0.7381 -0.4991
 6448SOL    HW325559   6.459   5.938   4.802 -0.2215  0.7030 -0.2012
 6448SOL    MW425560   6.385   5.983   4.794 -0.2393  0.6534 -0.3183
 6449SOL     OW25561   5.198   5.419   5.932  0.4845  0.6726 -0.1011
 6449SOL    HW225562   5.205   5.425   5.837  0.0809  1.1771 -0.1011
 6449SOL    HW325563   5.117   5.371   5.947  1.3122 -0.7605 -0.0246
 6449SOL    MW425564   5.188   5.414   5.922  0.5405  0.5501 -0.0910
 6450SOL     OW25565   4.219   2.205   2.431 -0.2115 -0.7898 -0.1589
 6450SOL    HW225566   4.193   2.133   2.488  0.9812 -1.1096  0.0098
 6450SOL    HW325567   4.270   2.263   2.487  0.5280 -0.8385 -0.7665
 6450SOL    MW425568   4.222   2.204   2.446  0.0434 -0.8384 -0.2168
 6451SOL     OW25569   5.228   3.286   4.021 -0.2995  0.8440 -0.2341
 6451SOL    HW225570   5.174   3.326   4.090  0.0193  0.3631  0.3046
 6451SOL    HW325571   5.206   3.193   4.024 -0.1790  0.8006 -0.6904
 6451SOL    MW425572   5.218   3.279   4.031 -0.2415  0.7748 -0.2232
 6452SOL     OW25573   0.642   4.136   1.312  0.2311 -0.0168 -0.2036
 6452SOL    HW225574   0.728   4.104   1.338  0.3721 -0.6403 -1.3915
 6452SOL    HW325575   0.658   4.181   1.229  0.2629  4.1779  1.7933
 6452SOL    MW425576   0.656   4.138   1.304  0.2539  0.4543 -0.0968
 6453SOL     OW25577   3.169   5.848   2.864 -0.4021 -0.0894 -0.1376
 6453SOL    HW225578   3.111   5.895   2.805  0.9689 -0.4587 -1.8869
 6453SOL    HW325579   3.254   5.848   2.819  0.2663 -1.9590  0.9857
 6453SOL    MW425580   3.173   5.854   2.850 -0.1330 -0.3848 -0.2202
 6454SOL     OW25581   6.069   4.255   0.910  0.0845 -0.4574 -0.3864
 6454SOL    HW225582   6.119   4.179   0.881  1.6134 -0.5952  2.2814
 6454SOL    HW325583   6.131   4.328   0.907 -1.0967  0.5516 -2.0017
 6454SOL    MW425584   6.083   4.255   0.906  0.1304 -0.3425 -0.2475
 6455SOL     OW25585   3.277   0.744   2.126 -0.2479 -0.0956 -0.4626
 6455SOL    HW225586   3.202   0.708   2.079 -0.7301 -0.1328  0.3129
 6455SOL    HW325587   3.330   0.668   2.149  0.7328  0.0303 -2.1430
 6455SOL    MW425588   3.274   0.729   2.123 -0.1821 -0.0839 -0.5820
 6456SOL     OW25589   5.683   1.430   1.567  0.0072  0.6708  0.5360
 6456SOL    HW225590   5.606   1.419   1.624 -0.1613  0.8410  0.3448
 6456SOL    HW325591   5.648   1.474   1.489  0.5094  1.8370  0.9471
 6456SOL    MW425592   5.668   1.435   1.564  0.0512  0.8471  0.5650
 6457SOL     OW25593   4.027   1.610   6.086 -0.4264 -0.0031  0.4820
 6457SOL    HW225594   4.055   1.659   6.163  0.9885 -1.5603  1.0190
 6457SOL    HW325595   4.044   1.670   6.013  1.7770  0.1881  1.0597
 6457SOL    MW425596   4.033   1.624   6.086  0.0510 -0.1834  0.6290
 6458SOL     OW25597   6.376   4.170   4.874  0.7146  0.3704 -0.0120
 6458SOL    HW225598   6.329   4.095   4.911  1.6804  0.3492  1.2409
 6458SOL    HW325599   6.329   4.191   4.793  0.1825 -1.3251 -0.1724
 6458SOL    MW425600   6.364   4.163   4.868  0.7718  0.1439  0.1321
 6459SOL     OW25601   1.068   1.696   6.061  0.5715 -0.4961 -0.1442
 6459SOL    HW225602   0.982   1.667   6.031  1.0630 -1.2395 -0.9162
 6459SOL    HW325603   1.118   1.615   6.072  0.7440 -0.1717  1.7277
 6459SOL    MW425604   1.063   1.681   6.058  0.6591 -0.5514  0.0009
 6460SOL     OW25605   4.583   5.080   2.258 -0.0884  0.2384  0.1958
 6460SOL    HW225606   4.617   5.053   2.172 -0.8920 -0.2772  0.0326
 6460SOL    HW325607   4.608   5.172   2.265  0.3599  0.1710 -0.4099
 6460SOL    MW425608   4.591   5.088   2.247 -0.1352  0.1615  0.0944
 6461SOL     OW25609   4.145   3.887   5.999  0.2533  0.2090 -0.2759
 6461SOL    HW225610   4.219   3.868   5.942  0.0914  1.7820 -1.0530
 6461SOL    HW325611   4.068   3.881   5.943  0.0675  1.4776 -0.1955
 6461SOL    MW425612   4.145   3.884   5.984  0.2075  0.5839 -0.3678
 6462SOL     OW25613   4.686   1.445   5.128 -0.5937  0.2049  0.2795
 6462SOL    HW225614   4.714   1.360   5.094 -1.0707  0.5965 -1.1798
 6462SOL    HW325615   4.644   1.425   5.211  0.1581 -0.8691  0.4223
 6462SOL    MW425616   4.684   1.431   5.134 -0.5575  0.1149  0.1058
 6463SOL     OW25617   5.234   5.526   2.523 -0.0698 -0.4444  0.4616
 6463SOL    HW225618   5.216   5.611   2.483 -0.0109  0.0792  1.5178
 6463SOL    HW325619   5.166   5.516   2.590  0.2809 -0.9617  0.7437
 6463SOL    MW425620   5.223   5.536   2.526 -0.0157 -0.4436  0.6382
 6464SOL     OW25621   4.670   5.917   6.288 -0.2373 -0.2202 -0.1110
 6464SOL    HW225622   4.583   5.926   6.251  0.2603 -0.3978 -1.3549
 6464SOL    HW325623   4.699   5.830   6.261  0.3882 -0.1051  0.1723
 6464SOL    MW425624   4.662   5.907   6.280 -0.0891 -0.2284 -0.2377
 6465SOL     OW25625   3.907   6.084   5.964 -0.0085 -0.2228  0.4626
 6465SOL    HW225626   3.863   6.126   6.038  0.6501 -0.0048  0.7392
 6465SOL    HW325627   3.999   6.076   5.992  0.1668 -0.4999 -0.1727
 6465SOL    MW425628   3.914   6.088   5.978  0.1015 -0.2306  0.4153
 6466SOL     OW25629   6.315   5.014   3.723  0.1099  0.2024  0.1733
 6466SOL    HW225630   6.337   4.952   3.654 -1.9904  0.5173 -0.8659
 6466SOL    HW325631   6.393   5.070   3.731  0.4061  0.2114 -2.0216
 6466SOL    MW425632   6.328   5.013   3.715 -0.1282  0.2452 -0.2534
 6467SOL     OW25633   1.166   0.454   4.761  0.0575 -0.2287  0.0264
 6467SOL    HW225634   1.204   0.542   4.773 -0.4776  0.2819 -1.7322
 6467SOL    HW325635   1.094   0.468   4.700 -1.2136 -1.6382  1.1387
 6467SOL    MW425636   1.161   0.468   4.755 -0.1808 -0.3473 -0.0589
 6468SOL     OW25637   2.369   2.592   4.553  0.1383  0.1410  0.3256
 6468SOL    HW225638   2.440   2.579   4.616  0.3270 -0.2450  0.0392
 6468SOL    HW325639   2.290   2.591   4.606  0.2792 -0.3906  0.5424
 6468SOL    MW425640   2.368   2.590   4.568  0.1818  0.0199  0.3164
 6469SOL     OW25641   5.338   3.504   0.422 -0.2185 -0.3214 -0.2005
 6469SOL    HW225642   5.429   3.517   0.395  0.0686 -1.5954  0.0527
 6469SOL    HW325643   5.287   3.525   0.344  0.4855 -2.0526 -1.1954
 6469SOL    MW425644   5.343   3.508   0.408 -0.0878 -0.7179 -0.2984
 6470SOL     OW25645   0.363   1.884   4.011  0.8902  0.3891  0.3708
 6470SOL    HW225646   0.312   1.950   3.965 -0.0678 -1.5732 -1.5615
 6470SOL    HW325647   0.331   1.886   4.101 -0.1132  1.5728  0.0029
 6470SOL    MW425648   0.352   1.893   4.017  0.6314  0.2864  0.0673
 6471SOL     OW25649   4.202   4.026   4.079  0.0629 -0.1747 -0.5609
 6471SOL    HW225650   4.113   4.003   4.050 -0.2935 -2.0635  1.7638
 6471SOL    HW325651   4.253   4.027   3.999 -1.9391  0.5969 -1.9322
 6471SOL    MW425652   4.197   4.023   4.065 -0.2482 -0.3221 -0.4351
 6472SOL     OW25653   0.439   5.621   2.784 -0.1126 -0.1366  0.1124
 6472SOL    HW225654   0.357   5.648   2.744  0.7523  0.0275 -1.6419
 6472SOL    HW325655   0.503   5.624   2.713  1.1064 -1.7490  1.0599
 6472SOL    MW425656   0.437   5.625   2.769  0.1624 -0.3277  0.0059
 6473SOL     OW25657   0.208   4.635   0.204 -0.1577 -0.2126  0.2844
 6473SOL    HW225658   0.211   4.729   0.226 -0.8013 -0.1926  0.2921
 6473SOL    HW325659   0.134   4.626   0.145  0.8970 -0.4558 -1.0492
 6473SOL    MW425660   0.199   4.646   0.199 -0.1035 -0.2421  0.1094
 6474SOL     OW25661   0.263   4.608   4.896 -0.0164  0.9904 -0.1438
 6474SOL    HW225662   0.193   4.565   4.946 -0.5025  0.7554 -0.9944
 6474SOL    HW325663   0.343   4.588   4.944 -0.2986 -0.4041 -0.1951
 6474SOL    MW425664   0.264   4.600   4.909 -0.1177  0.7754 -0.2628
 6475SOL     OW25665   0.616   0.981   5.048  0.2798 -0.0463 -0.2829
 6475SOL    HW225666   0.593   0.909   4.989 -1.4082 -0.9503  1.3823
 6475SOL    HW325667   0.537   0.997   5.099  2.1863 -0.8535  3.2937
 6475SOL    MW425668   0.603   0.974   5.047  0.3086 -0.2721  0.4087
 6476SOL     OW25669   3.918   3.427   4.573  0.6757 -0.1596 -0.2093
 6476SOL    HW225670   3.910   3.366   4.646  1.3638 -1.6072 -1.2842
 6476SOL    HW325671   3.942   3.510   4.613  0.7750 -0.8571  1.2305
 6476SOL    MW425672   3.920   3.430   4.588  0.7796 -0.4426 -0.1612
 6477SOL     OW25673   5.806   0.015   6.052 -0.7407  0.3796 -0.4498
 6477SOL    HW225674   5.901   0.007   6.051 -0.8740 -1.9482 -0.7507
 6477SOL    HW325675   5.789   0.103   6.086  1.4859  0.5864  0.2580
 6477SOL    MW425676   5.816   0.026   6.056 -0.4645  0.0998 -0.3961
 6478SOL     OW25677   0.782   5.583   1.574  0.5486 -0.0060  0.2132
 6478SOL    HW225678   0.807   5.585   1.482  2.7541  2.1183  0.7693
 6478SOL    HW325679   0.850   5.634   1.619 -0.5804 -0.7630  2.9962
 6478SOL    MW425680   0.794   5.590   1.568  0.6906  0.1744  0.6538
 6479SOL     OW25681   1.469   0.380   5.804  0.0416 -0.5423  0.2423
 6479SOL    HW225682   1.457   0.410   5.713  0.7803 -0.6206  0.1174
 6479SOL    HW325683   1.426   0.295   5.806  0.7864 -0.9440 -0.2765
 6479SOL    MW425684   1.462   0.373   5.792  0.2373 -0.6056  0.1574
 6480SOL     OW25685   2.053   5.096   0.363 -0.2287 -0.6183  0.9804
 6480SOL    HW225686   2.005   5.025   0.319  1.0795 -0.4792 -0.8134
 6480SOL    HW325687   2.070   5.062   0.451 -0.6376 -2.0620  0.5367
 6480SOL    MW425688   2.049   5.082   0.369 -0.1100 -0.7904  0.6852
 6481SOL     OW25689   5.405   1.124   4.302 -0.5575  0.3750  0.2823
 6481SOL    HW225690   5.491   1.134   4.261  0.1525  2.5254  2.0861
 6481SOL    HW325691   5.425   1.090   4.390 -1.5074  1.2156  0.8437
 6481SOL    MW425692   5.419   1.121   4.308 -0.5891  0.7697  0.5944
 6482SOL     OW25693   5.943   1.411   1.807  0.4677  0.4142  0.1580
 6482SOL    HW225694   5.928   1.505   1.802  1.1811  0.5273 -0.1094
 6482SOL    HW325695   5.856   1.372   1.802 -0.0478  1.1081  2.4897
 6482SOL    MW425696   5.930   1.418   1.805  0.4938  0.5206  0.4304
 6483SOL     OW25697   1.716   4.445   3.534  0.2881 -0.0532 -0.0053
 6483SOL    HW225698   1.656   4.439   3.458  1.6047  1.3278 -1.2211
 6483SOL    HW325699   1.798   4.408   3.502  0.8056  0.3581  0.8381
 6483SOL    MW425700   1.719   4.439   3.519  0.5301  0.1833 -0.0545
 6484SOL     OW25701   5.294   1.753   4.469 -0.5994 -0.4897 -0.1810
 6484SOL    HW225702   5.368   1.713   4.424 -0.3022  0.1071 -0.2344
 6484SOL    HW325703   5.255   1.682   4.520 -1.1237 -1.2495 -1.6001
 6484SOL    MW425704   5.299   1.739   4.470 -0.6294 -0.5112 -0.3753
 6485SOL     OW25705   1.248   3.800   3.781  0.2391 -0.4030  0.5421
 6485SOL    HW225706   1.332   3.769   3.816  1.5676  1.1513 -1.0978
 6485SOL    HW325707   1.213   3.726   3.732  1.4191 -0.6062 -0.0276
 6485SOL    MW425708   1.254   3.786   3.779  0.5700 -0.2248  0.2506
 6486SOL     OW25709   3.223   3.674   2.728 -0.3571  0.1597 -0.2181
 6486SOL    HW225710   3.163   3.666   2.654 -1.0876 -0.0132  0.3806
 6486SOL    HW325711   3.309   3.686   2.687 -0.3372 -2.4089 -1.1677
 6486SOL    MW425712   3.226   3.674   2.713 -0.4508 -0.2020 -0.2644
 6487SOL     OW25713   2.256   1.567   5.551  0.3508  0.0650  0.3865
 6487SOL    HW225714   2.224   1.604   5.633  0.8881  0.3851  0.4548
 6487SOL    HW325715   2.326   1.626   5.524 -0.4659  0.5338 -0.8117
 6487SOL    MW425716   2.261   1.580   5.558  0.3139  0.1691  0.2374
 6488SOL     OW25717   0.946   0.604   2.640 -0.5307  0.1178  0.0613
 6488SOL    HW225718   0.997   0.676   2.679 -2.5908  1.3007  0.7624
 6488SOL    HW325719   0.975   0.600   2.549  1.8920 -0.3413  0.7846
 6488SOL    MW425720   0.956   0.613   2.633 -0.4828  0.2133  0.2493
 6489SOL     OW25721   0.090   6.318   0.064  0.2758 -0.2877 -0.0663
 6489SOL    HW225722   0.074   6.410   0.042  0.8069 -0.2428 -0.2738
 6489SOL    HW325723   0.168   6.294   0.013 -0.1939 -1.0195 -0.4723
 6489SOL    MW425724   0.098   6.327   0.054  0.2839 -0.3783 -0.1472
 6490SOL     OW25725   6.260   3.951   6.368  0.1247 -0.0154  0.1354
 6490SOL    HW225726   6.293   3.894   6.437 -0.1921 -0.8861 -0.4111
 6490SOL    HW325727   6.307   3.923   6.289  0.2080  0.7070 -0.0827
 6490SOL    MW425728   6.271   3.940   6.367  0.0939 -0.0350  0.0345
 6491SOL     OW25729   6.350   3.963   0.365 -0.0983  0.2453 -0.6630
 6491SOL    HW225730   6.274   3.952   0.422 -0.3214  1.5493 -0.6791
 6491SOL    HW325731   6.411   4.015   0.417  0.1566  0.4971 -1.2027
 6491SOL    MW425732   6.348   3.968   0.379 -0.0941  0.4505 -0.7363
 6492SOL     OW25733   2.676   2.378   1.076  0.1355 -0.0622 -0.1728
 6492SOL    HW225734   2.683   2.313   1.006  0.1930 -0.2127 -0.0269
 6492SOL    HW325735   2.583   2.379   1.099  0.0518  0.2686 -0.5185
 6492SOL    MW425736   2.665   2.369   1.070  0.1320 -0.0384 -0.1991
 6493SOL     OW25737   3.049   4.761   0.788 -0.2059 -0.0156 -0.2408
 6493SOL    HW225738   3.083   4.677   0.817 -1.3415  0.1906  1.8807
 6493SOL    HW325739   3.113   4.825   0.819  0.2088 -0.0205 -1.0707
 6493SOL    MW425740   3.062   4.759   0.796 -0.3010  0.0109 -0.0704
 6494SOL     OW25741   2.719   2.034   3.028 -0.2416 -0.9549 -0.8570
 6494SOL    HW225742   2.657   2.103   3.053  1.0134  1.0217 -2.7997
 6494SOL    HW325743   2.799   2.054   3.077  0.1197 -1.0507 -1.4014
 6494SOL    MW425744   2.721   2.046   3.038 -0.0283 -0.7067 -1.1851
 6495SOL     OW25745   5.381   1.741   0.965  0.4486 -0.7278  0.0342
 6495SOL    HW225746   5.333   1.756   0.884 -0.0866  0.7390  0.6054
 6495SOL    HW325747   5.397   1.828   1.001  2.8234 -1.1946  0.2914
 6495SOL    MW425748   5.377   1.754   0.959  0.6913 -0.5959  0.1435
 6496SOL     OW25749   2.604   3.590   4.098  0.0154  0.5855 -0.4809
 6496SOL    HW225750   2.573   3.538   4.172 -0.6963 -0.1760 -1.2885
 6496SOL    HW325751   2.571   3.678   4.116 -1.7346  0.0359 -0.7375
 6496SOL    MW425752   2.595   3.595   4.110 -0.3094  0.4125 -0.6213
 6497SOL     OW25753   4.837   1.203   3.196  0.3073 -0.2182 -0.3840
 6497SOL    HW225754   4.857   1.254   3.275 -0.7964  2.3214 -1.6056
 6497SOL    HW325755   4.922   1.190   3.154  0.7219 -0.1345  0.4106
 6497SOL    MW425756   4.851   1.208   3.201  0.2164  0.1279 -0.4404
 6498SOL     OW25757   5.152   1.059   0.634  0.1915  0.7327  0.2897
 6498SOL    HW225758   5.103   0.988   0.676  0.5452  0.2062 -0.1699
 6498SOL    HW325759   5.237   1.020   0.612 -0.1644  0.8321 -1.3752
 6498SOL    MW425760   5.157   1.044   0.637  0.1912  0.6763  0.0094
 6499SOL     OW25761   2.295   0.343   2.812  0.1126 -0.2446 -1.5678
 6499SOL    HW225762   2.273   0.334   2.719  1.3598 -0.6563 -1.8435
 6499SOL    HW325763   2.372   0.399   2.813 -0.6405  0.8086 -0.6725
 6499SOL    MW425764   2.302   0.349   2.800  0.1778 -0.1600 -1.4861
 6500SOL     OW25765   3.188   6.054   0.830  0.0605  0.1454  0.3615
 6500SOL    HW225766   3.251   6.063   0.902  0.6689 -1.3179  0.0334
 6500SOL    HW325767   3.155   5.965   0.838 -0.2275  0.1303 -0.8980
 6500SOL    MW425768   3.192   6.044   0.841  0.1028 -0.0497  0.1520
 6501SOL     OW25769   1.583   0.933   6.376 -0.0497 -0.0445  0.1121
 6501SOL    HW225770   1.578   1.028   6.382  1.3936  0.0977 -0.5876
 6501SOL    HW325771   1.493   0.906   6.355 -0.5619  1.1100  0.7068
 6501SOL    MW425772   1.570   0.942   6.374  0.0731  0.1266  0.0983
 6502SOL     OW25773   1.598   4.839   6.241 -0.4223 -0.3250 -0.2960
 6502SOL    HW225774   1.506   4.822   6.225 -0.8117  0.8481  0.5608
 6502SOL    HW325775   1.620   4.911   6.180  0.0389 -0.8601 -0.7762
 6502SOL    MW425776   1.589   4.847   6.231 -0.4128 -0.2408 -0.2463
 6503SOL     OW25777   3.316   1.501   0.592 -0.0958 -0.0094  0.2212
 6503SOL    HW225778   3.305   1.406   0.594  0.1260 -0.0189  1.4298
 6503SOL    HW325779   3.230   1.537   0.614 -0.4418  0.1165 -1.1883
 6503SOL    MW425780   3.304   1.493   0.595 -0.1122  0.0060  0.1947
 6504SOL     OW25781   0.921   5.695   3.141 -0.0904  0.2390  0.3039
 6504SOL    HW225782   0.892   5.611   3.106  1.5467 -0.9387  1.5782
 6504SOL    HW325783   0.915   5.755   3.067 -0.2650 -1.2467 -0.9539
 6504SOL    MW425784   0.916   5.692   3.127  0.1026 -0.1124  0.3061
 6505SOL     OW25785   0.635   1.567   0.039  0.2744 -0.3568  0.2468
 6505SOL    HW225786   0.572   1.599   0.104  0.3582  0.1313  0.0881
 6505SOL    HW325787   0.646   1.474   0.061 -2.4894 -1.1631 -1.2937
 6505SOL    MW425788   0.628   1.559   0.051 -0.0792 -0.3988  0.0226
 6506SOL     OW25789   2.697   4.888   3.869  0.3479  0.0170 -0.0882
 6506SOL    HW225790   2.614   4.891   3.821 -1.0347 -0.2277  2.1425
 6506SOL    HW325791   2.711   4.795   3.886 -0.5559  0.2347  2.1202
 6506SOL    MW425792   2.688   4.876   3.865  0.0463  0.0134  0.4975
 6507SOL     OW25793   4.103   0.204   5.861  0.3712 -0.0951 -0.0232
 6507SOL    HW225794   4.011   0.231   5.870  0.6262  1.0571 -0.7126
 6507SOL    HW325795   4.118   0.204   5.766  1.0656 -0.3866  0.0853
 6507SOL    MW425796   4.093   0.207   5.849  0.4964  0.0184 -0.0998
 6508SOL     OW25797   3.655   4.704   3.999 -0.0960  0.5308  0.1450
 6508SOL    HW225798   3.571   4.668   3.971 -0.6202  0.7878  1.3313
 6508SOL    HW325799   3.717   4.674   3.933 -1.0207 -0.1227 -0.4493
 6508SOL    MW425800   3.652   4.695   3.986 -0.2871  0.4785  0.2231
 6509SOL     OW25801   3.981   3.467   5.218 -0.6809 -0.5181 -0.0880
 6509SOL    HW225802   3.953   3.425   5.299 -0.1273 -1.3298 -0.3038
 6509SOL    HW325803   4.042   3.404   5.179 -1.5812 -0.5119 -1.5479
 6509SOL    MW425804   3.986   3.453   5.224 -0.7267 -0.6244 -0.3091
 6510SOL     OW25805   4.574   1.983   2.023 -0.0457  0.1685  0.5624
 6510SOL    HW225806   4.651   2.031   2.053  1.8211 -2.3468  0.1435
 6510SOL    HW325807   4.557   1.918   2.091 -2.3127  1.1289  0.9957
 6510SOL    MW425808   4.582   1.981   2.036 -0.0985 -0.0366  0.5643
 6511SOL     OW25809   2.587   1.213   0.800 -0.9466 -0.1856  0.4207
 6511SOL    HW225810   2.628   1.267   0.733  0.6538 -1.9524 -0.1082
 6511SOL    HW325811   2.546   1.276   0.860 -0.8983  1.4944 -1.2192
 6511SOL    MW425812   2.587   1.229   0.799 -0.7291 -0.1971  0.1346
 6512SOL     OW25813   0.782   0.176   4.523  0.2586 -0.4566 -0.2186
 6512SOL    HW225814   0.834   0.199   4.447  0.0340  0.1251 -0.2024
 6512SOL    HW325815   0.779   0.080   4.523 -0.1567 -0.4494 -1.2171
 6512SOL    MW425816   0.789   0.166   4.513  0.1742 -0.3789 -0.3482
 6513SOL     OW25817   1.472   6.211   1.935  0.4743 -0.2424  0.5607
 6513SOL    HW225818   1.460   6.232   2.028  0.4921 -0.8257  0.7017
 6513SOL    HW325819   1.433   6.284   1.888  1.1600  0.4448  1.0331
 6513SOL    MW425820   1.465   6.223   1.941  0.5671 -0.2287  0.6416
 6514SOL     OW25821   4.345   1.603   1.104  0.0662  0.7103 -0.3051
 6514SOL    HW225822   4.405   1.663   1.149  0.7825  0.0958 -0.4232
 6514SOL    HW325823   4.349   1.522   1.155 -0.6053  0.6376 -0.3628
 6514SOL    MW425824   4.353   1.600   1.117  0.0721  0.6196 -0.3283
 6515SOL     OW25825   5.329   1.635   6.188 -0.0626 -0.4679 -0.1747
 6515SOL    HW225826   5.383   1.609   6.114  2.1865 -1.4846  1.6746
 6515SOL    HW325827   5.323   1.730   6.182 -0.5428 -0.5869 -2.0090
 6515SOL    MW425828   5.335   1.644   6.178  0.1708 -0.6178 -0.1727
 6516SOL     OW25829   4.851   2.292   1.928  0.0246  0.2313  0.4472
 6516SOL    HW225830   4.832   2.219   1.987 -0.0440  1.1431  1.5727
 6516SOL    HW325831   4.946   2.305   1.936  0.1685 -0.2080 -0.3452
 6516SOL    MW425832   4.861   2.284   1.937  0.0345  0.2937  0.4912
 6517SOL     OW25833   5.136   3.028   5.069  0.9257  0.7771 -0.8072
 6517SOL    HW225834   5.146   3.010   4.976 -0.6366 -0.6159 -0.7500
 6517SOL    HW325835   5.153   2.944   5.112 -1.6538  0.5183 -0.1314
 6517SOL    MW425836   5.140   3.015   5.063  0.3792  0.5592 -0.7105
 6518SOL     OW25837   1.500   4.039   3.292  0.1155  0.4920 -0.5596
 6518SOL    HW225838   1.471   4.106   3.355 -0.9608  0.7541 -1.3072
 6518SOL    HW325839   1.516   3.962   3.346  0.7667  1.1588  0.2346
 6518SOL    MW425840   1.498   4.038   3.308  0.0594  0.6146 -0.5534
 6519SOL     OW25841   2.319   4.280   5.878 -0.0219  0.3149 -0.1389
 6519SOL    HW225842   2.301   4.201   5.827  0.7697 -0.3571  0.6035
 6519SOL    HW325843   2.399   4.315   5.841 -0.9960  1.4736 -1.2602
 6519SOL    MW425844   2.327   4.274   5.866 -0.0460  0.3791 -0.1889
 6520SOL     OW25845   2.824   4.977   2.620  0.1752  0.6748  0.1678
 6520SOL    HW225846   2.841   5.064   2.655  0.5750 -0.0823  1.9702
 6520SOL    HW325847   2.910   4.945   2.592  0.7882 -0.4945  2.9487
 6520SOL    MW425848   2.837   4.984   2.621  0.3088  0.4206  0.7725
 6521SOL     OW25849   4.503   0.049   5.816  0.3976 -0.1549  0.6795
 6521SOL    HW225850   4.474   0.113   5.751  0.0478  0.4220  1.3916
 6521SOL    HW325851   4.583   0.012   5.779  0.7730  0.9144  0.3811
 6521SOL    MW425852   4.510   0.053   5.803  0.4010  0.0623  0.7341
 6522SOL     OW25853   4.488   4.308   3.970 -0.3401 -0.3025 -0.6463
 6522SOL    HW225854   4.563   4.300   4.028  0.4740 -0.9827 -1.7556
 6522SOL    HW325855   4.524   4.345   3.889 -1.6775  1.9860 -0.2999
 6522SOL    MW425856   4.503   4.312   3.967 -0.4091 -0.0903 -0.7469
 6523SOL     OW25857   0.476   0.466   3.489 -0.3288  0.3520 -0.4653
 6523SOL    HW225858   0.548   0.439   3.546 -3.6310 -0.8220  3.6751
 6523SOL    HW325859   0.461   0.391   3.432  0.3813 -0.2365  0.1082
 6523SOL    MW425860   0.484   0.453   3.489 -0.6708  0.1194  0.1567
 6524SOL     OW25861   0.425   5.228   0.913  0.2620  0.6859  0.2750
 6524SOL    HW225862   0.435   5.242   0.819 -1.6932 -0.2174 -0.1160
 6524SOL    HW325863   0.371   5.149   0.920  0.4580  0.6692  2.1614
 6524SOL    MW425864   0.419   5.220   0.901  0.0299  0.5645  0.4723
 6525SOL     OW25865   4.773   0.603   6.219  0.5357  0.1640 -0.1513
 6525SOL    HW225866   4.847   0.625   6.163  0.3508  0.8548 -0.1278
 6525SOL    HW325867   4.813   0.578   6.302  0.7513  0.4416 -0.1681
 6525SOL    MW425868   4.788   0.603   6.222  0.5398  0.2918 -0.1504
 6526SOL     OW25869   0.827   0.664   5.483  0.4643  0.3440  0.8953
 6526SOL    HW225870   0.866   0.634   5.401  1.1074 -0.4391  1.4677
 6526SOL    HW325871   0.742   0.700   5.458  0.2830 -0.6614 -0.0089
 6526SOL    MW425872   0.821   0.664   5.469  0.5252  0.1080  0.8515
 6527SOL     OW25873   0.683   0.570   4.658 -0.1934 -0.0520  0.1779
 6527SOL    HW225874   0.595   0.536   4.645  0.4647 -1.3322 -1.2095
 6527SOL    HW325875   0.696   0.567   4.753 -1.2708 -0.7620  0.3233
 6527SOL    MW425876   0.673   0.565   4.669 -0.2488 -0.3146  0.0140
 6528SOL     OW25877   4.665   0.400   3.888  0.3317  0.2374  0.1555
 6528SOL    HW225878   4.631   0.367   3.971 -0.2965 -0.0510 -0.2107
 6528SOL    HW325879   4.590   0.445   3.847  0.8142  0.9603  0.0433
 6528SOL    MW425880   4.651   0.402   3.893  0.3125  0.2947  0.0924
 6529SOL     OW25881   3.202   2.090   0.680  0.2587 -0.5159  0.0942
 6529SOL    HW225882   3.212   2.184   0.696  0.8689 -0.1376 -2.2536
 6529SOL    HW325883   3.257   2.072   0.604 -2.8311 -2.0228 -1.9703
 6529SOL    MW425884   3.211   2.100   0.672 -0.0684 -0.6648 -0.4879
 6530SOL     OW25885   1.424   4.174   4.976 -0.5852  0.2111  0.2180
 6530SOL    HW225886   1.329   4.177   4.986 -0.4612 -0.9313  2.5422
 6530SOL    HW325887   1.458   4.218   5.055  0.7896 -0.5966  0.1183
 6530SOL    MW425888   1.416   4.180   4.988 -0.3874 -0.0462  0.5115
 6531SOL     OW25889   1.981   1.988   3.537  0.0241  0.3239 -0.7616
 6531SOL    HW225890   2.055   1.935   3.508  0.3320 -1.1454  2.2839
 6531SOL    HW325891   1.905   1.951   3.493  0.4707 -1.6600  0.0606
 6531SOL    MW425892   1.981   1.976   3.528  0.1237 -0.1317 -0.2513
 6532SOL     OW25893   3.736   1.466   3.847  0.1842  0.3229 -0.4772
 6532SOL    HW225894   3.762   1.441   3.758 -0.2713 -1.4336 -0.1686
 6532SOL    HW325895   3.657   1.414   3.864  2.7290 -3.0723  2.5697
 6532SOL    MW425896   3.729   1.456   3.838  0.4599 -0.3568 -0.0345
 6533SOL     OW25897   1.423   6.060   5.128  0.3664  0.4717 -0.0200
 6533SOL    HW225898   1.424   6.038   5.222 -0.8899 -0.3937 -0.1869
 6533SOL    HW325899   1.333   6.086   5.110  0.8349  1.6193 -0.7915
 6533SOL    MW425900   1.411   6.060   5.138  0.2625  0.5089 -0.1438
 6534SOL     OW25901   4.702   0.871   3.565 -0.2308  0.5506 -0.0198
 6534SOL    HW225902   4.754   0.941   3.526 -1.1017  2.2096  1.5913
 6534SOL    HW325903   4.760   0.795   3.566  1.7087  1.9540  0.4932
 6534SOL    MW425904   4.716   0.870   3.560 -0.0898  0.9546  0.2604
 6535SOL     OW25905   0.466   5.180   1.450 -0.4686  0.3957 -0.3112
 6535SOL    HW225906   0.499   5.213   1.533 -0.8322 -0.8553  0.3658
 6535SOL    HW325907   0.371   5.195   1.454 -0.8765 -1.9961  0.6867
 6535SOL    MW425908   0.458   5.186   1.462 -0.5703 -0.0849 -0.0903
 6536SOL     OW25909   4.613   3.807   0.862  0.2210 -0.4066  0.4342
 6536SOL    HW225910   4.678   3.877   0.871  0.6800 -0.7662  0.0015
 6536SOL    HW325911   4.648   3.736   0.916 -0.2933 -0.2682  0.9511
 6536SOL    MW425912   4.626   3.807   0.870  0.2137 -0.4358  0.4453
 6537SOL     OW25913   3.404   4.744   2.636 -0.0315  0.2343  0.1955
 6537SOL    HW225914   3.385   4.782   2.722  0.5287 -0.0269  0.4352
 6537SOL    HW325915   3.487   4.783   2.610 -0.8145  1.3033 -0.8172
 6537SOL    MW425916   3.412   4.754   2.644 -0.0609  0.3408  0.0935
 6538SOL     OW25917   3.075   0.868   2.584  0.5022 -0.4551  0.8549
 6538SOL    HW225918   3.166   0.877   2.611  0.7348 -1.4517  0.4623
 6538SOL    HW325919   3.076   0.886   2.490  0.1900  0.1321  0.9608
 6538SOL    MW425920   3.087   0.872   2.575  0.4917 -0.5091  0.8171
 6539SOL     OW25921   5.139   5.351   3.301 -0.1817  0.1865 -0.0003
 6539SOL    HW225922   5.121   5.438   3.265  0.0251  0.7984  1.3125
 6539SOL    HW325923   5.057   5.325   3.343 -0.5576 -0.7103 -1.2335
 6539SOL    MW425924   5.126   5.359   3.302 -0.2040  0.1489  0.0102
 6540SOL     OW25925   3.782   2.396   4.902 -0.6497  0.2967  0.3120
 6540SOL    HW225926   3.725   2.399   4.825  1.4987 -1.0883 -1.4539
 6540SOL    HW325927   3.824   2.481   4.905  0.5031 -0.1818 -1.1333
 6540SOL    MW425928   3.780   2.407   4.892 -0.2141  0.0508 -0.1117
 6541SOL     OW25929   1.002   6.373   3.510 -0.1517  0.0679 -0.1462
 6541SOL    HW225930   1.079   6.410   3.469  1.3324 -1.8424  0.7714
 6541SOL    HW325931   0.999   6.413   3.597 -0.9207  1.0270 -0.5935
 6541SOL    MW425932   1.011   6.383   3.516 -0.0573 -0.0576 -0.0842
 6542SOL     OW25933   2.328   2.828   0.541  0.6942  0.2397 -0.2924
 6542SOL    HW225934   2.368   2.743   0.522  0.2466 -0.4017  1.4519
 6542SOL    HW325935   2.371   2.889   0.481  0.2904 -1.3664 -2.3143
 6542SOL    MW425936   2.339   2.825   0.531  0.5819 -0.0568 -0.3290
 6543SOL     OW25937   2.454   6.241   4.657 -0.3916  0.3459 -0.8150
 6543SOL    HW225938   2.449   6.257   4.752 -0.4325  0.5912 -0.8590
 6543SOL    HW325939   2.390   6.172   4.641  1.2990 -1.4381 -0.2764
 6543SOL    MW425940   2.445   6.234   4.668 -0.1739  0.1429 -0.7497
 6544SOL     OW25941   2.291   2.377   3.442  0.2245  0.1709  0.2331
 6544SOL    HW225942   2.198   2.364   3.428  0.4579 -0.2148 -1.1400
 6544SOL    HW325943   2.303   2.472   3.437  0.2855  0.0984 -2.6634
 6544SOL    MW425944   2.281   2.388   3.440  0.2633  0.1105 -0.3302
 6545SOL     OW25945   0.629   2.044   4.415  0.6401  0.0968 -0.3869
 6545SOL    HW225946   0.706   2.066   4.363  0.7769  0.7076  0.0627
 6545SOL    HW325947   0.663   2.026   4.502  0.3546 -0.4032 -0.3751
 6545SOL    MW425948   0.644   2.044   4.419  0.6205  0.1115 -0.3260
 6546SOL     OW25949   4.129   5.833   4.255  0.3608 -0.6179  0.0943
 6546SOL    HW225950   4.203   5.783   4.220 -0.5871 -2.2271  0.3311
 6546SOL    HW325951   4.082   5.863   4.177  0.4543 -0.8328 -0.0470
 6546SOL    MW425952   4.133   5.831   4.240  0.2481 -0.8586  0.1069
 6547SOL     OW25953   4.605   0.333   1.207 -0.0532 -0.5272 -0.3690
 6547SOL    HW225954   4.617   0.361   1.297 -1.8403 -0.0854 -0.2353
 6547SOL    HW325955   4.658   0.254   1.199  1.9406  0.6719  0.3770
 6547SOL    MW425956   4.614   0.326   1.218 -0.0259 -0.3107 -0.2529
 6548SOL     OW25957   4.072   1.135   5.298  0.5387  0.6449  0.2874
 6548SOL    HW225958   4.131   1.209   5.287  0.9825  0.0844 -1.3090
 6548SOL    HW325959   4.084   1.082   5.220 -0.5994 -0.5425  0.8715
 6548SOL    MW425960   4.081   1.138   5.286  0.4471  0.4143  0.1538
 6549SOL     OW25961   6.161   3.828   4.375  0.1616 -0.3051  0.0649
 6549SOL    HW225962   6.244   3.800   4.336  0.3497  0.0443  0.2044
 6549SOL    HW325963   6.095   3.774   4.333  0.4476 -0.4893 -0.1519
 6549SOL    MW425964   6.163   3.817   4.365  0.2242 -0.2833  0.0547
 6550SOL     OW25965   1.729   1.966   0.130 -0.0631  0.2622 -0.1384
 6550SOL    HW225966   1.734   1.888   0.186 -0.4815 -0.0309 -0.5025
 6550SOL    HW325967   1.710   1.932   0.043  0.8937  0.6915 -0.5320
 6550SOL    MW425968   1.727   1.951   0.126  0.0079  0.2802 -0.2383
 6551SOL     OW25969   4.640   5.443   6.324  0.8311 -0.0792 -0.2634
 6551SOL    HW225970   4.547   5.465   6.332  0.1800 -1.6306 -2.5012
 6551SOL    HW325971   4.641   5.350   6.304  2.9761 -0.3489  0.7875
 6551SOL    MW425972   4.628   5.434   6.322  1.0282 -0.3194 -0.4200
 6552SOL     OW25973   4.704   0.984   4.132 -0.0537  0.0016 -0.3851
 6552SOL    HW225974   4.792   1.019   4.128 -0.0491  0.0796  0.2533
 6552SOL    HW325975   4.647   1.060   4.139 -0.2336 -0.0124 -1.5020
 6552SOL    MW425976   4.708   0.998   4.132 -0.0769  0.0100 -0.4482
 6553SOL     OW25977   1.956   1.546   4.654  0.0449 -0.5006  0.4797
 6553SOL    HW225978   1.887   1.480   4.656  0.6234 -1.1310  0.2954
 6553SOL    HW325979   1.911   1.629   4.669 -1.0854 -0.6161 -1.7745
 6553SOL    MW425980   1.941   1.548   4.656 -0.0279 -0.5990  0.1579
 6554SOL     OW25981   2.582   3.882   3.212  0.6123 -0.4967  0.0192
 6554SOL    HW225982   2.652   3.838   3.260  0.4795  1.7643  2.5600
 6554SOL    HW325983   2.527   3.920   3.280 -1.0588  0.8219 -1.9488
 6554SOL    MW425984   2.584   3.882   3.227  0.3743 -0.0244  0.0948
 6555SOL     OW25985   4.111   0.055   1.397  0.3033  0.8777  0.6832
 6555SOL    HW225986   4.168  -0.020   1.379 -0.4255  0.4960 -0.0863
 6555SOL    HW325987   4.035   0.042   1.340  1.0334  3.2062 -0.9682
 6555SOL    MW425988   4.108   0.043   1.387  0.3035  1.1346  0.3638
 6556SOL     OW25989   5.768   1.225   3.659 -0.2523  0.5751  0.0693
 6556SOL    HW225990   5.779   1.150   3.718  1.4734  0.8311  0.0967
 6556SOL    HW325991   5.772   1.301   3.716 -2.2036  0.7420  0.0679
 6556SOL    MW425992   5.770   1.225   3.675 -0.2820  0.6309  0.0727
 6557SOL     OW25993   2.833   1.580   5.409 -0.0213  0.1390 -0.0676
 6557SOL    HW225994   2.825   1.606   5.318 -0.7059 -0.7757 -0.2876
 6557SOL    HW325995   2.796   1.653   5.459 -2.0302 -0.3883 -0.6695
 6557SOL    MW425996   2.827   1.593   5.404 -0.3767 -0.0513 -0.1760
 6558SOL     OW25997   5.313   3.393   2.460  0.1268 -0.7636 -0.0277
 6558SOL    HW225998   5.284   3.358   2.376 -1.3524 -0.4055  0.3008
 6558SOL    HW325999   5.361   3.473   2.438  0.1125 -0.8954 -0.5465
 6558SOL    MW426000   5.315   3.399   2.446 -0.0702 -0.7337 -0.0528
 6559SOL     OW26001   6.300   5.027   1.352 -0.1123  0.1586 -0.2966
 6559SOL    HW226002   6.360   5.092   1.314  0.7619 -0.8011 -0.6160
 6559SOL    HW326003   6.216   5.045   1.312  0.5004  0.0098 -1.7033
 6559SOL    MW426004   6.297   5.038   1.342  0.0838  0.0123 -0.5243
 6560SOL     OW26005   1.320   4.762   3.075 -0.1718 -0.1246 -0.1059
 6560SOL    HW226006   1.244   4.819   3.085 -0.1565 -0.0049 -0.6326
 6560SOL    HW326007   1.337   4.760   2.981 -0.3484 -1.2369 -0.1288
 6560SOL    MW426008   1.313   4.769   3.064 -0.1931 -0.2556 -0.1784
 6561SOL     OW26009   1.106   4.207   3.176 -0.0914  0.3697  0.5086
 6561SOL    HW226010   1.078   4.256   3.099  1.1209  0.3174  0.0141
 6561SOL    HW326011   1.153   4.131   3.142  0.9166  0.6194  1.2764
 6561SOL    MW426012   1.108   4.204   3.162  0.2016  0.3958  0.5446
 6562SOL     OW26013   4.569   3.459   4.437  0.1344  0.2375  0.0958
 6562SOL    HW226014   4.580   3.366   4.417 -0.5922 -0.0039  0.7492
 6562SOL    HW326015   4.476   3.469   4.456  0.2863  1.0087  0.4958
 6562SOL    MW426016   4.559   3.448   4.437  0.0586  0.3074  0.2348
 6563SOL     OW26017   3.960   2.020   6.094 -0.2555 -0.0977 -0.1548
 6563SOL    HW226018   3.985   2.085   6.029  0.3379 -1.1863 -1.0290
 6563SOL    HW326019   4.036   2.011   6.151  0.5663 -1.6935 -1.4236
 6563SOL    MW426020   3.973   2.027   6.093 -0.0688 -0.4519 -0.4376
 6564SOL     OW26021   2.114   0.102   5.049 -0.0463  0.0431  0.7469
 6564SOL    HW226022   2.143   0.064   4.966 -3.7835 -0.9380 -0.3395
 6564SOL    HW326023   2.141   0.039   5.115  1.0780 -0.2891 -0.0028
 6564SOL    MW426024   2.121   0.088   5.046 -0.3910 -0.1302  0.5046
 6565SOL     OW26025   3.150   2.069   6.307  0.5585 -0.6285 -0.6016
 6565SOL    HW226026   3.063   2.032   6.292  0.8050 -1.3539 -0.2963
 6565SOL    HW326027   3.162   2.065   6.402 -0.2239  2.1637 -0.2917
 6565SOL    MW426028   3.140   2.063   6.318  0.4878 -0.3558 -0.5205
 6566SOL     OW26029   5.612   1.915   0.845  0.7503 -0.1591 -0.1713
 6566SOL    HW226030   5.583   1.984   0.785 -0.3012 -0.7500 -0.3617
 6566SOL    HW326031   5.604   1.834   0.795 -1.1191 -0.7851  1.0485
 6566SOL    MW426032   5.607   1.914   0.831  0.3649 -0.3197 -0.0355
 6567SOL     OW26033   2.460   0.849   6.031  0.1659 -0.7732  0.1568
 6567SOL    HW226034   2.431   0.772   5.981  0.4274 -1.0565  0.4381
 6567SOL    HW326035   2.519   0.814   6.098 -0.5274 -0.4450  0.9488
 6567SOL    MW426036   2.464   0.834   6.033  0.1089 -0.7673  0.2984
 6568SOL     OW26037   5.415   3.788   3.747 -0.1097 -0.5356  0.1672
 6568SOL    HW226038   5.490   3.814   3.801  0.5074 -0.1739 -0.8363
 6568SOL    HW326039   5.427   3.694   3.734  0.5533 -0.3643 -0.5388
 6568SOL    MW426040   5.426   3.779   3.753  0.0592 -0.4652 -0.0584
 6569SOL     OW26041   1.055   0.968   1.609  0.2402  0.7997 -0.1368
 6569SOL    HW226042   1.083   0.944   1.521  0.0248 -0.4364  0.1167
 6569SOL    HW326043   1.134   0.963   1.662  0.0905  0.0676  0.0266
 6569SOL    MW426044   1.069   0.965   1.605  0.1920  0.5400 -0.0818
 6570SOL     OW26045   1.065   1.066   3.290  0.1218  0.6875 -0.6224
 6570SOL    HW226046   1.007   1.047   3.363  2.0843  0.7393  1.0524
 6570SOL    HW326047   1.073   0.984   3.242 -0.7155  0.4917 -0.4262
 6570SOL    MW426048   1.059   1.053   3.293  0.2703  0.6685 -0.3755
 6571SOL     OW26049   4.380   4.286   4.564  0.4965 -0.4313  0.4588
 6571SOL    HW226050   4.350   4.377   4.557  0.0923 -0.4676  1.4716
 6571SOL    HW326051   4.309   4.241   4.610  1.1994 -0.9878  1.0350
 6571SOL    MW426052   4.366   4.292   4.569  0.5359 -0.5095  0.6685
 6572SOL     OW26053   1.954   5.233   4.062 -0.0389 -0.1675 -0.4234
 6572SOL    HW226054   1.933   5.141   4.076  1.7374 -0.6546 -0.6747
 6572SOL    HW326055   2.048   5.239   4.080 -0.1434  1.6350 -0.2580
 6572SOL    MW426056   1.964   5.222   4.066  0.1817  0.0061 -0.4347
 6573SOL     OW26057   0.376   5.302   5.433  0.0518 -0.5500 -0.6854
 6573SOL    HW226058   0.372   5.268   5.343 -0.2209 -1.7696 -0.2346
 6573SOL    HW326059   0.444   5.249   5.475 -0.5881 -0.7415  0.1264
 6573SOL    MW426060   0.384   5.290   5.426 -0.0686 -0.7362 -0.5188
 6574SOL     OW26061   3.515   1.099   0.667  0.3074 -0.1484 -0.3345
 6574SOL    HW226062   3.440   1.158   0.671 -0.1021 -0.4931 -2.0423
 6574SOL    HW326063   3.562   1.125   0.588 -0.1477 -2.3182 -1.4159
 6574SOL    MW426064   3.511   1.110   0.657  0.1933 -0.4802 -0.7025
 6575SOL     OW26065   0.161   1.528   5.535  0.1511  0.2394 -0.3803
 6575SOL    HW226066   0.223   1.551   5.466  0.4066 -0.4878 -0.4035
 6575SOL    HW326067   0.123   1.611   5.562  0.7449  0.6318 -0.7360
 6575SOL    MW426068   0.164   1.542   5.529  0.2632  0.1952 -0.4303
 6576SOL     OW26069   5.096   0.477   1.080  0.3213 -0.3107  0.2213
 6576SOL    HW226070   5.022   0.453   1.135  0.6762 -0.1322  0.7804
 6576SOL    HW326071   5.167   0.496   1.141  0.1842  1.7937 -0.1844
 6576SOL    MW426072   5.096   0.477   1.095  0.3501 -0.0095  0.2415
 6577SOL     OW26073   1.757   0.837   4.022  0.0413  0.1031 -0.4702
 6577SOL    HW226074   1.789   0.911   3.969 -0.4661  0.3895 -0.3866
 6577SOL    HW326075   1.727   0.877   4.103  1.1289 -0.3805  0.1821
 6577SOL    MW426076   1.757   0.852   4.025  0.1179  0.0771 -0.3732
 6578SOL     OW26077   2.264   2.025   4.407 -0.4459 -0.5760  0.0981
 6578SOL    HW226078   2.273   2.118   4.384 -0.0116 -0.5093  0.5215
 6578SOL    HW326079   2.270   2.023   4.502 -0.3823 -1.0470  0.0859
 6578SOL    MW426080   2.266   2.037   4.416 -0.3802 -0.6294  0.1523
 6579SOL     OW26081   4.245   2.409   1.606 -0.2447  0.3119 -0.5412
 6579SOL    HW226082   4.162   2.379   1.567  0.7702 -3.2722 -0.3213
 6579SOL    HW326083   4.219   2.472   1.673 -2.7438 -0.1405 -0.9947
 6579SOL    MW426084   4.231   2.413   1.610 -0.4405 -0.2207 -0.5720
 6580SOL     OW26085   2.249   3.698   6.066 -0.3792  0.4801 -0.1228
 6580SOL    HW226086   2.230   3.672   5.976  0.8348  1.9180 -0.8313
 6580SOL    HW326087   2.338   3.733   6.063 -0.4258  0.8524  1.5822
 6580SOL    MW426088   2.258   3.699   6.054 -0.2251  0.7189  0.0087
 6581SOL     OW26089   2.769   6.366   5.888  0.1167 -0.1551  0.3457
 6581SOL    HW226090   2.846   6.415   5.919  0.3575 -0.4046  0.1457
 6581SOL    HW326091   2.752   6.302   5.957  0.4690 -0.5102  0.1118
 6581SOL    MW426092   2.777   6.364   5.901  0.1950 -0.2349  0.2884
 6582SOL     OW26093   3.077   1.197   1.523 -0.7552  0.1936  0.0217
 6582SOL    HW226094   3.006   1.245   1.482 -0.2165  1.0731  0.1013
 6582SOL    HW326095   3.120   1.151   1.450 -1.8027 -0.8948  0.0624
 6582SOL    MW426096   3.074   1.197   1.508 -0.8223  0.1660  0.0376
 6583SOL     OW26097   3.232   2.622   4.763  0.0435 -0.3349  0.3253
 6583SOL    HW226098   3.239   2.695   4.701  1.6667 -0.9051 -0.2050
 6583SOL    HW326099   3.208   2.546   4.708  1.9439 -0.9429  0.2753
 6583SOL    MW426100   3.230   2.621   4.748  0.5084 -0.4904  0.2487
 6584SOL     OW26101   0.618   6.222   1.616  0.3083 -0.0900  0.2334
 6584SOL    HW226102   0.662   6.137   1.623  0.2675 -0.1298  0.0294
 6584SOL    HW326103   0.542   6.215   1.674  0.1133 -0.3150 -0.0466
 6584SOL    MW426104   0.614   6.210   1.624  0.2772 -0.1250  0.1695
 6585SOL     OW26105   0.591   4.375   1.665 -0.0231  0.1524 -0.0993
 6585SOL    HW226106   0.681   4.355   1.693 -0.5936 -0.9153  1.0691
 6585SOL    HW326107   0.592   4.469   1.650  1.5261  0.0262 -1.0152
 6585SOL    MW426108   0.603   4.385   1.667  0.1060 -0.0051 -0.0660
 6586SOL     OW26109   4.333   4.236   2.994  0.0097 -0.5531  0.0173
 6586SOL    HW226110   4.388   4.314   2.982  2.3011 -1.8227  1.6570
 6586SOL    HW326111   4.350   4.208   3.084 -1.9733 -2.0854 -0.0233
 6586SOL    MW426112   4.343   4.243   3.004  0.0504 -0.9227  0.2283
 6587SOL     OW26113   1.645   1.949   1.594 -0.4815 -0.2544 -0.4823
 6587SOL    HW226114   1.643   1.866   1.546 -1.3978  0.8968 -2.5726
 6587SOL    HW326115   1.700   2.006   1.541 -1.5153  1.0857 -0.1775
 6587SOL    MW426116   1.652   1.945   1.581 -0.7388  0.0743 -0.7179
 6588SOL     OW26117   6.265   0.227   1.938 -0.0690 -0.1693 -0.4499
 6588SOL    HW226118   6.175   0.198   1.926 -0.1563  0.2705 -0.8959
 6588SOL    HW326119   6.277   0.296   1.873  0.2976  0.4337  0.2396
 6588SOL    MW426120   6.255   0.232   1.928 -0.0322 -0.0317 -0.4178
 6589SOL     OW26121   6.137   3.206   2.717  0.5873 -0.4265 -0.6393
 6589SOL    HW226122   6.107   3.115   2.712  0.0553 -0.2851 -0.1442
 6589SOL    HW326123   6.101   3.248   2.639 -1.2554 -0.0546  0.3508
 6589SOL    MW426124   6.128   3.199   2.706  0.2740 -0.3588 -0.4433
 6590SOL     OW26125   2.336   5.585   5.993  0.4135  0.1184 -0.5126
 6590SOL    HW226126   2.277   5.517   6.027  1.9139 -0.9032  0.1855
 6590SOL    HW326127   2.368   5.549   5.911 -0.2483  0.8659 -1.1106
 6590SOL    MW426128   2.332   5.571   5.987  0.5241  0.0823 -0.4994
 6591SOL     OW26129   0.890   1.013   0.808 -0.1167  0.0325  0.5901
 6591SOL    HW226130   0.868   1.078   0.874  2.0503 -0.5768  2.0230
 6591SOL    HW326131   0.830   0.940   0.825 -0.0680  0.1772  1.4346
 6591SOL    MW426132   0.880   1.012   0.819  0.1757 -0.0288  0.8906
 6592SOL     OW26133   0.263   3.853   1.565  0.0322  0.4484  0.4835
 6592SOL    HW226134   0.339   3.879   1.617 -0.5281 -0.6769  1.9587
 6592SOL    HW326135   0.291   3.774   1.520  0.3765  1.1827 -0.6227
 6592SOL    MW426136   0.277   3.846   1.566  0.0037  0.3968  0.5322
 6593SOL     OW26137   3.856   1.055   2.272  0.5352 -0.3448  0.2312
 6593SOL    HW226138   3.830   1.145   2.290  1.5176 -0.2261  1.1427
 6593SOL    HW326139   3.901   1.059   2.188 -0.4594 -0.2047 -0.3178
 6593SOL    MW426140   3.858   1.067   2.264  0.5336 -0.3107  0.2790
 6594SOL     OW26141   6.050   2.041   1.384 -0.2140 -0.3045 -0.5692
 6594SOL    HW226142   6.024   2.119   1.335 -1.1062 -0.6232 -0.6306
 6594SOL    HW326143   6.134   2.064   1.424 -0.7871  0.9321 -0.0246
 6594SOL    MW426144   6.058   2.054   1.382 -0.4074 -0.1834 -0.5055
 6595SOL     OW26145   6.166   1.847   1.195  0.0715 -0.5706  0.3148
 6595SOL    HW226146   6.151   1.895   1.114 -0.8695 -0.7780  0.3567
 6595SOL    HW326147   6.134   1.905   1.264  3.2271  0.7339  0.8339
 6595SOL    MW426148   6.160   1.861   1.193  0.3637 -0.4259  0.3888
 6596SOL     OW26149   4.906   5.230   1.578  0.0586 -0.1978  0.0748
 6596SOL    HW226150   4.827   5.243   1.629  0.3028  1.2595  0.1129
 6596SOL    HW326151   4.891   5.278   1.496  0.4781 -0.8110 -0.3748
 6596SOL    MW426152   4.894   5.238   1.574  0.1461 -0.0864  0.0205
 6597SOL     OW26153   6.427   5.033   2.633  0.7022  0.1836  0.6642
 6597SOL    HW226154   6.490   5.044   2.704  0.4494  3.8877  0.4963
 6597SOL    HW326155   6.400   5.122   2.611 -0.7907 -0.9537 -2.7169
 6597SOL    MW426156   6.432   5.046   2.640  0.4718  0.5222  0.1960
 6598SOL     OW26157   1.027   5.660   4.715 -0.0331  0.1597 -0.2811
 6598SOL    HW226158   1.048   5.693   4.802 -1.2726 -0.9652  0.4733
 6598SOL    HW326159   0.982   5.733   4.672 -0.1070  0.4551  0.2983
 6598SOL    MW426160   1.024   5.674   4.721 -0.2064  0.0503 -0.1051
 6599SOL     OW26161   1.105   5.305   5.061  0.4553  0.0449  0.3846
 6599SOL    HW226162   1.179   5.364   5.074 -0.4842  1.3536  0.0051
 6599SOL    HW326163   1.126   5.228   5.114  1.9274  0.5109  0.5271
 6599SOL    MW426164   1.118   5.303   5.069  0.5256  0.2791  0.3533
 6600SOL     OW26165   5.094   3.544   0.960  0.6899  0.1973  0.3258
 6600SOL    HW226166   5.110   3.556   0.866 -1.0762  1.5264  0.1403
 6600SOL    HW326167   5.046   3.461   0.965 -0.6089  0.8902 -0.1630
 6600SOL    MW426168   5.090   3.535   0.948  0.2855  0.4641  0.2368
 6601SOL     OW26169   3.322   2.383   1.099  0.0648 -0.3406  0.1927
 6601SOL    HW226170   3.242   2.428   1.126 -0.0575 -1.0272  1.0272
 6601SOL    HW326171   3.343   2.325   1.172  1.6109  0.1880  0.2034
 6601SOL    MW426172   3.314   2.381   1.112  0.2527 -0.3614  0.3042
 6602SOL     OW26173   1.474   1.709   0.112  0.0348 -0.1146 -0.0072
 6602SOL    HW226174   1.483   1.615   0.092 -1.9623 -0.5648  0.8963
 6602SOL    HW326175   1.387   1.732   0.078  0.0552  1.1401  0.7326
 6602SOL    MW426176   1.464   1.699   0.105 -0.2260 -0.0085  0.2096
 6603SOL     OW26177   2.575   1.371   1.757  0.2334  0.1395  0.7217
 6603SOL    HW226178   2.586   1.376   1.662  0.7738  1.4971  0.8396
 6603SOL    HW326179   2.665   1.368   1.792  0.0514 -2.0061  1.1486
 6603SOL    MW426180   2.588   1.371   1.749  0.2807  0.0356  0.7936
 6604SOL     OW26181   2.520   5.572   1.658  0.2587 -0.0859 -0.4597
 6604SOL    HW226182   2.511   5.583   1.563 -0.6426  2.7280 -0.1354
 6604SOL    HW326183   2.599   5.620   1.680 -0.1749  0.2796  0.3425
 6604SOL    MW426184   2.529   5.580   1.649  0.0826  0.3336 -0.3110
 6605SOL     OW26185   0.602   6.059   3.669 -0.1506  0.0948 -0.4942
 6605SOL    HW226186   0.591   5.979   3.720  2.8335  0.0984  0.3439
 6605SOL    HW326187   0.646   6.032   3.589  1.9287  0.9680  0.2995
 6605SOL    MW426188   0.606   6.045   3.666  0.5175  0.2105 -0.2789
 6606SOL     OW26189   3.662   4.922   1.157 -0.1924 -0.3207  0.2866
 6606SOL    HW226190   3.603   4.956   1.224 -0.2792  0.3508 -0.1253
 6606SOL    HW326191   3.721   4.863   1.205 -0.7206 -0.4192  0.8237
 6606SOL    MW426192   3.662   4.919   1.172 -0.2735 -0.2451  0.3031
 6607SOL     OW26193   3.352   5.642   1.366  0.0536 -0.2168  0.3260
 6607SOL    HW226194   3.261   5.668   1.346  0.8513  1.8344 -1.0129
 6607SOL    HW326195   3.402   5.674   1.291  1.9851 -0.8039  1.3184
 6607SOL    MW426196   3.346   5.650   1.354  0.4137 -0.0236  0.2803
 6608SOL     OW26197   3.104   4.713   0.532  0.0449  0.2951 -0.1720
 6608SOL    HW226198   3.173   4.648   0.545  0.6078  0.4825 -1.8791
 6608SOL    HW326199   3.087   4.748   0.619 -0.3260 -2.1511  0.8207
 6608SOL    MW426200   3.111   4.709   0.545  0.0702 -0.0029 -0.2663
 6609SOL     OW26201   6.223   3.062   5.148 -0.2454 -0.3614 -0.1344
 6609SOL    HW226202   6.204   2.969   5.162  1.1906 -0.5110  1.0562
 6609SOL    HW326203   6.156   3.108   5.200 -0.3785 -0.7522  0.0419
 6609SOL    MW426204   6.211   3.056   5.157 -0.0735 -0.4327  0.0459
 6610SOL     OW26205   4.184   1.788   4.080 -0.2262  0.3416 -0.8065
 6610SOL    HW226206   4.227   1.705   4.098  0.7350  1.3696  2.2728
 6610SOL    HW326207   4.242   1.832   4.018  1.2424  0.1303  0.3424
 6610SOL    MW426208   4.197   1.783   4.074  0.0944  0.4493 -0.2486
 6611SOL     OW26209   2.349   1.702   3.570 -0.0420 -0.3438  0.1652
 6611SOL    HW226210   2.437   1.694   3.535 -0.0697  0.6130 -0.1637
 6611SOL    HW326211   2.352   1.659   3.656  1.3557  1.5993  1.1729
 6611SOL    MW426212   2.361   1.695   3.577  0.1387  0.0388  0.2548
 6612SOL     OW26213   6.199   0.957   4.006 -0.4938 -0.4434 -0.6484
 6612SOL    HW226214   6.245   0.955   4.090  0.5270 -1.0534 -1.1933
 6612SOL    HW326215   6.189   0.864   3.983  0.1759 -0.2686 -1.6857
 6612SOL    MW426216   6.204   0.944   4.014 -0.2707 -0.5008 -0.8571
 6613SOL     OW26217   5.286   4.858   4.814  0.0143  0.0481 -0.2251
 6613SOL    HW226218   5.321   4.802   4.883  0.6573  2.2908  1.3604
 6613SOL    HW326219   5.361   4.875   4.757 -0.0029 -0.0974 -0.2915
 6613SOL    MW426220   5.301   4.852   4.815  0.0969  0.3248 -0.0247
 6614SOL     OW26221   2.911   4.549   1.937  0.2890 -0.4720 -0.2948
 6614SOL    HW226222   2.942   4.633   1.904 -2.3212  0.5548 -0.3061
 6614SOL    HW326223   2.854   4.571   2.011 -1.1140 -2.1408 -0.8100
 6614SOL    MW426224   2.908   4.563   1.943 -0.2405 -0.5567 -0.3643
 6615SOL     OW26225   1.894   2.290   5.893  0.0506  0.3866  0.9086
 6615SOL    HW226226   1.845   2.351   5.948  0.0219 -1.0037  2.4957
 6615SOL    HW326227   1.968   2.263   5.947 -0.7196 -2.0780  0.8650
 6615SOL    MW426228   1.897   2.294   5.907 -0.0548 -0.1220  1.1123
 6616SOL     OW26229   0.504   1.910   1.678 -0.4132  0.0913  0.3693
 6616SOL    HW226230   0.456   1.887   1.758 -0.6837  1.8729  0.7561
 6616SOL    HW326231   0.486   1.837   1.618 -0.5366 -1.0859  1.7744
 6616SOL    MW426232   0.495   1.897   1.680 -0.4652  0.1711  0.6057
 6617SOL     OW26233   1.059   4.628   3.341  0.5912  0.1829  0.0990
 6617SOL    HW226234   1.138   4.672   3.370  1.9234 -1.7138 -0.4289
 6617SOL    HW326235   1.001   4.698   3.312  1.2496  1.7801  2.3291
 6617SOL    MW426236   1.062   4.643   3.341  0.8538  0.1434  0.3236
 6618SOL     OW26237   6.253   4.131   5.712 -0.3137 -0.1435 -0.2935
 6618SOL    HW226238   6.191   4.173   5.771 -1.2470  0.2272 -1.4783
 6618SOL    HW326239   6.268   4.197   5.644 -0.5926 -1.1543 -1.3671
 6618SOL    MW426240   6.247   4.146   5.710 -0.4736 -0.2279 -0.5915
 6619SOL     OW26241   5.113   2.069   0.713 -0.7125  0.2702 -0.5420
 6619SOL    HW226242   5.033   2.051   0.664 -0.5737  1.0314 -1.0734
 6619SOL    HW326243   5.155   2.139   0.664 -0.2304  0.5841  0.3061
 6619SOL    MW426244   5.108   2.076   0.700 -0.6305  0.4121 -0.5002
 6620SOL     OW26245   0.339   3.095   3.896  0.2722 -0.2302 -0.3063
 6620SOL    HW226246   0.399   3.023   3.873 -1.1617 -1.4013 -0.5406
 6620SOL    HW326247   0.344   3.100   3.992 -0.4355 -1.4333 -0.1806
 6620SOL    MW426248   0.348   3.086   3.906 -0.0104 -0.5435 -0.3206
 6621SOL     OW26249   1.810   1.561   5.618  0.4511  0.1351  0.3320
 6621SOL    HW226250   1.809   1.574   5.713  1.4500 -0.5792  0.4522
 6621SOL    HW326251   1.857   1.479   5.605  0.3672  0.2478 -0.7901
 6621SOL    MW426252   1.816   1.552   5.628  0.5718  0.0557  0.1998
 6622SOL     OW26253   5.528   2.154   3.733 -0.2561  0.4425  0.5162
 6622SOL    HW226254   5.607   2.176   3.684  0.7933 -0.7938  1.5790
 6622SOL    HW326255   5.464   2.131   3.666  0.8104 -0.1982 -0.3288
 6622SOL    MW426256   5.530   2.154   3.718  0.0230  0.1948  0.5449
 6623SOL     OW26257   4.620   6.023   3.019 -0.1799  0.0562  0.2272
 6623SOL    HW226258   4.664   5.939   3.001 -1.3212 -0.6896  0.7727
 6623SOL    HW326259   4.652   6.049   3.104  1.5551  1.1244 -0.7112
 6623SOL    MW426260   4.630   6.015   3.028 -0.1016  0.0988  0.1754
 6624SOL     OW26261   2.552   2.909   1.795  0.6368 -0.3272  0.3012
 6624SOL    HW226262   2.594   2.826   1.772 -1.2810 -1.1844 -0.3332
 6624SOL    HW326263   2.583   2.927   1.883  0.9901 -1.7940  0.5189
 6624SOL    MW426264   2.562   2.900   1.803  0.4304 -0.6339  0.2462
 6625SOL     OW26265   2.174   1.278   0.844 -0.2024  0.1117  0.1513
 6625SOL    HW226266   2.152   1.185   0.839 -0.7251  0.3152 -2.6118
 6625SOL    HW326267   2.090   1.323   0.837  0.2089  0.7933 -0.4921
 6625SOL    MW426268   2.160   1.271   0.842 -0.2171  0.2284 -0.2982
 6626SOL     OW26269   1.761   2.414   3.545  0.1991 -0.8119  0.9707
 6626SOL    HW226270   1.748   2.389   3.637 -0.1935 -1.8078  0.6494
 6626SOL    HW326271   1.713   2.496   3.536 -2.0100 -2.0190  1.0188
 6626SOL    MW426272   1.753   2.422   3.556 -0.1442 -1.1026  0.9347
 6627SOL     OW26273   3.156   1.964   3.094  0.4079 -0.1982  0.1145
 6627SOL    HW226274   3.248   1.942   3.105  0.4233 -0.3579 -0.2980
 6627SOL    HW326275   3.156   2.041   3.037  0.2487 -0.9779 -0.9764
 6627SOL    MW426276   3.168   1.971   3.088  0.3889 -0.3222 -0.0838
 6628SOL     OW26277   2.712   4.659   0.751  0.1148  0.5646  0.2268
 6628SOL    HW226278   2.761   4.708   0.818 -0.2716  0.6599  0.4413
 6628SOL    HW326279   2.757   4.680   0.669  1.5438 -0.7579  0.6184
 6628SOL    MW426280   2.724   4.669   0.749  0.2524  0.4027  0.3068
 6629SOL     OW26281   4.264   2.843   0.566 -0.5263  0.0087  0.1306
 6629SOL    HW226282   4.258   2.811   0.656  1.4228  1.7145  0.9597
 6629SOL    HW326283   4.346   2.893   0.564 -2.9235  4.3756 -1.1467
 6629SOL    MW426284   4.274   2.845   0.577 -0.5854  0.8099  0.0714
 6630SOL     OW26285   0.462   4.748   3.293 -0.0106  0.2970 -0.1980
 6630SOL    HW226286   0.383   4.802   3.286  0.7436  1.3304 -1.2120
 6630SOL    HW326287   0.430   4.662   3.322 -1.3777  0.9623  0.3624
 6630SOL    MW426288   0.447   4.744   3.296 -0.0915  0.5211 -0.2578
 6631SOL     OW26289   4.933   1.148   4.125  0.2585  0.4301  0.1026
 6631SOL    HW226290   4.955   1.182   4.211  1.9726 -0.0727 -0.1099
 6631SOL    HW326291   4.926   1.225   4.069  0.7992  0.6508  0.3367
 6631SOL    MW426292   4.935   1.163   4.129  0.5560  0.3928  0.1055
 6632SOL     OW26293   3.237   5.365   1.014 -0.5319 -0.3407 -0.1576
 6632SOL    HW226294   3.223   5.345   1.106 -1.3250  0.7970 -0.0228
 6632SOL    HW326295   3.161   5.417   0.988 -0.6586 -1.1914 -1.6341
 6632SOL    MW426296   3.225   5.369   1.022 -0.6533 -0.3028 -0.3346
 6633SOL     OW26297   5.018   3.373   3.061 -0.2601  1.0074  0.0536
 6633SOL    HW226298   5.015   3.293   3.114 -0.2771  0.9114 -0.0926
 6633SOL    HW326299   4.927   3.405   3.062 -0.3733  0.7042 -0.3777
 6633SOL    MW426300   5.005   3.367   3.068 -0.2773  0.9547 -0.0226
 6634SOL     OW26301   5.410   4.055   6.061 -0.0075  0.3700 -0.2701
 6634SOL    HW226302   5.400   4.064   5.966  0.2019  1.8879 -0.1622
 6634SOL    HW326303   5.443   4.140   6.090 -0.0381 -0.0898  1.1661
 6634SOL    MW426304   5.413   4.067   6.052  0.0161  0.5096 -0.0664
 6635SOL     OW26305   4.440   1.235   0.810  0.2673  0.0753 -0.6422
 6635SOL    HW226306   4.529   1.223   0.778  0.1908 -1.1716 -0.4156
 6635SOL    HW326307   4.429   1.330   0.815  0.7719  0.3231 -2.9677
 6635SOL    MW426308   4.450   1.246   0.806  0.3238 -0.0565 -0.9191
 6636SOL     OW26309   1.510   5.095   4.697 -0.1777  0.0846  0.2999
 6636SOL    HW226310   1.518   5.002   4.676 -2.6564 -0.2047  0.3373
 6636SOL    HW326311   1.516   5.098   4.793 -1.0811 -0.1936  0.3763
 6636SOL    MW426312   1.512   5.083   4.707 -0.6240  0.0097  0.3149
 6637SOL     OW26313   3.902   1.696   5.650  0.7009  0.2771  0.0526
 6637SOL    HW226314   3.835   1.745   5.699 -0.5220 -0.6819 -0.5821
 6637SOL    HW326315   3.855   1.662   5.573  2.4020  1.2091 -1.4827
 6637SOL    MW426316   3.887   1.698   5.646  0.7640  0.2735 -0.2337
 6638SOL     OW26317   4.526   2.150   0.009 -0.1761 -0.0178  0.1378
 6638SOL    HW226318   4.605   2.137  -0.042  0.0009 -2.9043  0.9939
 6638SOL    HW326319   4.553   2.136   0.100 -1.5461 -0.6795  0.4771
 6638SOL    MW426320   4.540   2.146   0.014 -0.3335 -0.4860  0.2955
 6639SOL     OW26321   0.664   6.237   4.317 -0.1440  0.1067 -0.3171
 6639SOL    HW226322   0.665   6.318   4.265  0.5783  1.7797  2.0914
 6639SOL    HW326323   0.747   6.194   4.296  0.3779  1.0266 -0.1877
 6639SOL    MW426324   0.675   6.242   4.307  0.0201  0.4488  0.0177
 6640SOL     OW26325   1.953   4.229   1.570  0.4510  0.1577 -0.0824
 6640SOL    HW226326   1.927   4.199   1.657 -0.6792  0.4860 -0.2924
 6640SOL    HW326327   1.966   4.148   1.520 -2.8293 -0.1281 -0.7161
 6640SOL    MW426328   1.951   4.214   1.575 -0.1309  0.1633 -0.1937
 6641SOL     OW26329   4.212   1.559   2.306 -0.2120  0.8661  0.5770
 6641SOL    HW226330   4.289   1.542   2.252 -0.1298  0.3069  0.8652
 6641SOL    HW326331   4.167   1.632   2.262 -1.8733 -1.5400 -2.0497
 6641SOL    MW426332   4.216   1.567   2.293 -0.4203  0.4749  0.2685
 6642SOL     OW26333   6.179   1.476   5.558  0.1403 -0.0091 -0.1717
 6642SOL    HW226334   6.177   1.567   5.528 -0.6563  0.3373  0.8820
 6642SOL    HW326335   6.117   1.473   5.631  2.7131 -0.5345  2.1661
 6642SOL    MW426336   6.171   1.488   5.564  0.3747 -0.0327  0.2757
 6643SOL     OW26337   0.186   4.867   1.592 -0.2152  0.3356 -0.1566
 6643SOL    HW226338   0.242   4.858   1.515  0.5156  1.0647  0.2606
 6643SOL    HW326339   0.190   4.960   1.614 -3.0593  0.7799 -1.1516
 6643SOL    MW426340   0.194   4.878   1.585 -0.4940  0.4904 -0.2329
 6644SOL     OW26341   2.737   5.730   5.313 -0.4073 -0.0748 -0.0779
 6644SOL    HW226342   2.647   5.760   5.323 -1.0737 -0.6087 -3.2364
 6644SOL    HW326343   2.788   5.785   5.373 -2.9909 -1.3921  3.6710
 6644SOL    MW426344   2.732   5.741   5.322 -0.8361 -0.3191  0.0000
 6645SOL     OW26345   0.471   4.765   0.626  0.1793  0.0632  0.8060
 6645SOL    HW226346   0.382   4.742   0.600  1.2633 -0.8896 -2.6211
 6645SOL    HW326347   0.503   4.689   0.674 -0.3149 -0.2797  0.5951
 6645SOL    MW426348   0.464   4.752   0.629  0.2571 -0.1078  0.3260
 6646SOL     OW26349   3.620   6.249   3.929  0.7870  0.5602  0.2322
 6646SOL    HW226350   3.680   6.198   3.984  0.6102  1.2339  1.0716
 6646SOL    HW326351   3.669   6.266   3.849  1.0914 -0.3385  0.2179
 6646SOL    MW426352   3.634   6.244   3.926  0.8038  0.5305  0.3410
 6647SOL     OW26353   2.495   6.127   4.011 -0.6680  0.0726  0.0297
 6647SOL    HW226354   2.504   6.200   3.949 -1.7287  0.4188  0.2553
 6647SOL    HW326355   2.400   6.119   4.024 -0.6867 -2.3161 -1.1393
 6647SOL    MW426356   2.483   6.136   4.004 -0.8104 -0.1969 -0.0948
 6648SOL     OW26357   0.646   3.429   6.142  0.2200  0.0100 -0.3263
 6648SOL    HW226358   0.638   3.445   6.048 -0.3908  1.2977 -0.0871
 6648SOL    HW326359   0.564   3.386   6.166  1.0936 -1.9215 -0.6513
 6648SOL    MW426360   0.634   3.426   6.133  0.2547 -0.0749 -0.3376
 6649SOL     OW26361   2.018   0.362   4.679 -0.1904  0.0981  0.3257
 6649SOL    HW226362   2.056   0.280   4.648 -0.0202  0.6869 -1.0952
 6649SOL    HW326363   1.923   0.347   4.676 -0.1648  0.0453 -0.1892
 6649SOL    MW426364   2.010   0.349   4.675 -0.1646  0.1689  0.0703
 6650SOL     OW26365   0.364   3.700   3.874 -0.7841 -0.8497 -0.0829
 6650SOL    HW226366   0.365   3.784   3.921  1.9560 -1.5698  1.3212
 6650SOL    HW326367   0.385   3.724   3.784  1.7761 -0.0926  0.6389
 6650SOL    MW426368   0.367   3.715   3.868 -0.0848 -0.8448  0.1976
 6651SOL     OW26369   3.067   6.380   3.315  0.1256  0.0114  0.2783
 6651SOL    HW226370   3.010   6.425   3.376  0.0028 -0.0981  0.2443
 6651SOL    HW326371   3.152   6.422   3.326 -0.2899  1.1787 -0.7157
 6651SOL    MW426372   3.071   6.392   3.324  0.0546  0.1510  0.1427
 6652SOL     OW26373   4.709   2.234   1.632  0.4022 -0.4079  0.4440
 6652SOL    HW226374   4.712   2.153   1.683  5.0449 -0.2200  0.8716
 6652SOL    HW326375   4.648   2.290   1.681 -0.4688 -2.5014  1.9315
 6652SOL    MW426376   4.701   2.231   1.645  0.8998 -0.6593  0.6967
 6653SOL     OW26377   0.363   0.221   0.904  0.2521 -0.0275 -0.1425
 6653SOL    HW226378   0.331   0.178   0.825 -0.4240  1.0745 -0.4981
 6653SOL    HW326379   0.303   0.295   0.917 -0.4819 -0.9472  2.1657
 6653SOL    MW426380   0.351   0.225   0.895  0.0660 -0.0034  0.1151
 6654SOL     OW26381   4.663   0.339   2.725 -0.6079  0.1641 -0.0991
 6654SOL    HW226382   4.661   0.433   2.711  0.3791  0.1794 -0.2293
 6654SOL    HW326383   4.750   0.321   2.760 -0.3761 -0.8243 -1.0887
 6654SOL    MW426384   4.674   0.349   2.727 -0.4471  0.0357 -0.2469
 6655SOL     OW26385   0.729   0.517   1.031 -0.3027 -0.1392 -0.4412
 6655SOL    HW226386   0.637   0.517   1.058 -1.2447  0.9147 -3.2834
 6655SOL    HW326387   0.742   0.431   0.991  0.5434 -0.9816  1.5199
 6655SOL    MW426388   0.719   0.505   1.029 -0.3154 -0.1113 -0.5574
 6656SOL     OW26389   1.739   5.951   6.304  0.2536 -0.1428 -0.2447
 6656SOL    HW226390   1.794   5.932   6.380 -3.8647  1.1231  3.4852
 6656SOL    HW326391   1.700   5.867   6.280  1.9572 -0.6441 -1.5239
 6656SOL    MW426392   1.741   5.938   6.311 -0.0650 -0.0419  0.0786
 6657SOL     OW26393   2.213   5.286   6.075  0.2045  0.8797  0.5546
 6657SOL    HW226394   2.188   5.194   6.064  0.0506  1.1374 -1.7636
 6657SOL    HW326395   2.229   5.296   6.169  2.7535 -2.1833  0.6299
 6657SOL    MW426396   2.212   5.275   6.086  0.5205  0.5096  0.2587
 6658SOL     OW26397   3.001   1.319   2.916 -0.3282 -0.0297  0.1447
 6658SOL    HW226398   3.051   1.394   2.883  0.4443 -1.2671 -1.6829
 6658SOL    HW326399   3.026   1.247   2.858 -0.1227 -2.0328  2.5497
 6658SOL    MW426400   3.011   1.320   2.904 -0.1991 -0.4572  0.2209
 6659SOL     OW26401   0.291   4.180   4.319  0.0510 -0.1866 -0.1801
 6659SOL    HW226402   0.289   4.275   4.304  2.6276 -0.1147 -0.4653
 6659SOL    HW326403   0.227   4.145   4.257 -2.1452  1.4275  1.0410
 6659SOL    MW426404   0.282   4.188   4.309  0.1012  0.0358 -0.0566
 6660SOL     OW26405   3.909   2.518   0.987  0.3497 -0.2966  0.4015
 6660SOL    HW226406   3.831   2.570   1.010 -0.5840 -1.2840 -0.4321
 6660SOL    HW326407   3.880   2.428   0.996  0.9279 -0.6980 -1.4281
 6660SOL    MW426408   3.895   2.513   0.991  0.3028 -0.4798  0.0501
 6661SOL     OW26409   1.431   3.140   5.858  0.4014 -0.3643 -0.6914
 6661SOL    HW226410   1.351   3.097   5.828 -0.0046 -0.1233 -0.0037
 6661SOL    HW326411   1.401   3.227   5.887  1.1725  0.3336 -1.9075
 6661SOL    MW426412   1.416   3.146   5.858  0.4496 -0.2404 -0.7611
 6662SOL     OW26413   1.060   1.740   5.289  0.4184 -0.5211  0.9157
 6662SOL    HW226414   1.132   1.733   5.351  1.6447  0.1103 -0.4040
 6662SOL    HW326415   1.048   1.834   5.276 -1.2362 -0.5810  1.7660
 6662SOL    MW426416   1.068   1.751   5.295  0.3619 -0.4457  0.8538
 6663SOL     OW26417   4.621   1.546   6.228  0.4432  0.3169  0.4688
 6663SOL    HW226418   4.582   1.500   6.154 -0.1822  0.0395  0.9643
 6663SOL    HW326419   4.565   1.623   6.241  0.7770  0.5721  0.4119
 6663SOL    MW426420   4.609   1.550   6.220  0.4047  0.3140  0.5267
 6664SOL     OW26421   3.952   2.486   0.352 -0.3155 -0.0284 -0.0279
 6664SOL    HW226422   4.012   2.485   0.427 -0.1980  1.9711 -0.0408
 6664SOL    HW326423   3.980   2.560   0.299 -2.5830  0.7736 -0.2134
 6664SOL    MW426424   3.964   2.495   0.355 -0.5992  0.3412 -0.0541
 6665SOL     OW26425   2.946   4.408   1.384  0.3375  0.1941 -0.4776
 6665SOL    HW226426   2.935   4.339   1.450  0.2974  0.2414 -0.4344
 6665SOL    HW326427   2.857   4.425   1.352  0.2684  0.6212 -0.0814
 6665SOL    MW426428   2.932   4.401   1.389  0.3231  0.2567 -0.4197
 6666SOL     OW26429   1.334   0.599   2.340 -0.4266  0.3133  0.1457
 6666SOL    HW226430   1.376   0.685   2.333 -0.3118  0.3278  0.9449
 6666SOL    HW326431   1.371   0.560   2.418 -1.9755  0.3628  0.9456
 6666SOL    MW426432   1.344   0.605   2.349 -0.6159  0.3217  0.3567
 6667SOL     OW26433   0.681   2.141   1.024 -0.2305 -0.0450 -0.0318
 6667SOL    HW226434   0.653   2.056   1.057 -1.0263  0.1261 -0.2553
 6667SOL    HW326435   0.635   2.151   0.941 -1.0539  1.1102  0.5351
 6667SOL    MW426436   0.671   2.131   1.017 -0.4442  0.1300  0.0135
 6668SOL     OW26437   5.081   1.128   3.118 -0.4682 -0.0399  0.0544
 6668SOL    HW226438   5.104   1.179   3.041 -2.0062 -0.9124 -1.0371
 6668SOL    HW326439   5.151   1.146   3.181  0.5306  1.1205 -1.3342
 6668SOL    MW426440   5.093   1.137   3.116 -0.5393 -0.0019 -0.2728
 6669SOL     OW26441   3.833   3.975   5.215 -1.0081 -0.3503 -0.0968
 6669SOL    HW226442   3.790   4.028   5.148 -0.1226  0.5439  0.0124
 6669SOL    HW326443   3.810   3.885   5.193  1.4778 -0.3968 -3.3283
 6669SOL    MW426444   3.824   3.970   5.203 -0.5632 -0.2385 -0.5088
 6670SOL     OW26445   3.919   2.443   5.985 -0.4424  0.2553 -0.1996
 6670SOL    HW226446   3.888   2.461   5.896  2.6489 -1.5813 -1.7877
 6670SOL    HW326447   3.948   2.529   6.017 -0.0127  0.7027 -1.6667
 6670SOL    MW426448   3.919   2.457   5.977  0.0222  0.0720 -0.6027
 6671SOL     OW26449   5.051   5.547   1.740  0.0410 -0.2831 -0.1580
 6671SOL    HW226450   5.069   5.608   1.812 -0.7033 -1.0477  0.7028
 6671SOL    HW326451   5.048   5.461   1.782 -0.9266 -0.6882 -1.0225
 6671SOL    MW426452   5.053   5.544   1.755 -0.1849 -0.4374 -0.1585
 6672SOL     OW26453   5.380   5.410   5.066 -0.2304 -0.2995  0.2733
 6672SOL    HW226454   5.376   5.402   5.162 -0.3768  0.7376  0.3629
 6672SOL    HW326455   5.425   5.330   5.038  1.2517  0.1064  1.3365
 6672SOL    MW426456   5.386   5.398   5.075 -0.0542 -0.1091  0.4254
 6673SOL     OW26457   3.290   2.054   4.216 -0.2026 -0.1994  0.5251
 6673SOL    HW226458   3.356   2.042   4.148  1.8358  0.2549  2.3073
 6673SOL    HW326459   3.259   2.144   4.204 -0.1118 -0.2364  0.0030
 6673SOL    MW426460   3.295   2.064   4.206  0.0783 -0.1443  0.6913
 6674SOL     OW26461   4.053   0.055   3.880  0.2604 -0.2632  0.4551
 6674SOL    HW226462   4.070   0.031   3.789 -2.1773 -1.0602  0.1298
 6674SOL    HW326463   4.063  -0.026   3.929 -1.3998 -0.5269  0.3982
 6674SOL    MW426464   4.057   0.041   3.875 -0.2802 -0.4032  0.4046
 6675SOL     OW26465   5.890   1.764   3.842  0.3042  0.5971 -0.1157
 6675SOL    HW226466   5.971   1.788   3.887  1.6870 -1.5738 -1.2530
 6675SOL    HW326467   5.884   1.824   3.768  2.5952 -1.0157 -1.7510
 6675SOL    MW426468   5.900   1.775   3.838  0.7889  0.0979 -0.4815
 6676SOL     OW26469   4.967   4.629   1.392  0.2085 -0.6042  0.0137
 6676SOL    HW226470   4.973   4.686   1.315 -0.2130  0.2378  0.5822
 6676SOL    HW326471   4.886   4.657   1.436  0.4569 -1.0539  0.7730
 6676SOL    MW426472   4.957   4.641   1.388  0.1857 -0.5524  0.1889
 6677SOL     OW26473   1.761   5.567   6.073 -0.1684 -0.0782 -0.5124
 6677SOL    HW226474   1.832   5.516   6.036 -0.3368  0.5372 -1.7384
 6677SOL    HW326475   1.797   5.606   6.152  1.1164  0.8601 -1.5331
 6677SOL    MW426476   1.775   5.565   6.079 -0.0211  0.1268 -0.8088
 6678SOL     OW26477   4.706   1.819   5.298 -0.1440 -0.1620 -0.3682
 6678SOL    HW226478   4.749   1.902   5.314 -0.1330  0.4963 -3.3380
 6678SOL    HW326479   4.612   1.840   5.299 -0.1870 -0.3630  0.0365
 6678SOL    MW426480   4.699   1.832   5.300 -0.1482 -0.1016 -0.7066
 6679SOL     OW26481   2.385   3.560   1.683  0.2074 -0.5352 -0.2569
 6679SOL    HW226482   2.470   3.528   1.712 -0.2968 -1.7401 -0.0435
 6679SOL    HW326483   2.385   3.653   1.705  1.5145 -0.4850 -0.4023
 6679SOL    MW426484   2.396   3.568   1.689  0.3133 -0.6875 -0.2479
 6680SOL     OW26485   6.286   6.269   3.305  0.5067 -0.1496 -0.1688
 6680SOL    HW226486   6.209   6.212   3.312 -0.6628  1.3202 -0.3698
 6680SOL    HW326487   6.286   6.317   3.388  0.4089  0.7946 -0.7044
 6680SOL    MW426488   6.276   6.268   3.317  0.3395  0.1689 -0.2660
 6681SOL     OW26489   1.865   3.486   5.600  0.2239  0.7727 -0.0886
 6681SOL    HW226490   1.778   3.464   5.567  1.0456 -2.2935 -0.4658
 6681SOL    HW326491   1.867   3.447   5.688  0.5650  2.6425  0.7889
 6681SOL    MW426492   1.853   3.478   5.607  0.3774  0.6149 -0.0226
 6682SOL     OW26493   3.296   3.194   3.485 -0.9013 -0.0824 -0.3214
 6682SOL    HW226494   3.335   3.268   3.532  1.1937 -0.1656 -1.8195
 6682SOL    HW326495   3.206   3.222   3.469 -0.1674  2.2242 -0.9098
 6682SOL    MW426496   3.289   3.208   3.489 -0.5281  0.2109 -0.5967
 6683SOL     OW26497   2.434   5.812   0.045 -0.0032  0.0835 -0.3746
 6683SOL    HW226498   2.444   5.753   0.120 -0.8738 -0.4705 -0.6735
 6683SOL    HW326499   2.523   5.827   0.014  0.3332 -0.0159  0.5108
 6683SOL    MW426500   2.447   5.806   0.051 -0.0737 -0.0027 -0.2972
 6684SOL     OW26501   0.925   3.691   1.547  0.1844  0.5359 -0.2462
 6684SOL    HW226502   0.830   3.701   1.550  0.0973 -0.2524 -0.0740
 6684SOL    HW326503   0.944   3.675   1.454  0.3114  2.0081 -0.5015
 6684SOL    MW426504   0.915   3.690   1.535  0.1897  0.6261 -0.2571
 6685SOL     OW26505   5.350   2.253   1.513  1.0938 -0.5302  0.0650
 6685SOL    HW226506   5.276   2.309   1.536  0.4669 -0.7093 -1.4208
 6685SOL    HW326507   5.410   2.261   1.587  1.0789  2.1736 -0.1183
 6685SOL    MW426508   5.348   2.262   1.526  1.0091 -0.1971 -0.1552
 6686SOL     OW26509   2.874   4.106   3.445  0.0126 -0.0192  0.3596
 6686SOL    HW226510   2.955   4.090   3.494 -0.1021 -1.3193  0.1591
 6686SOL    HW326511   2.844   4.191   3.477  0.3430 -0.4722  1.9925
 6686SOL    MW426512   2.881   4.115   3.456  0.0411 -0.2505  0.5486
 6687SOL     OW26513   3.154   1.115   0.013 -0.2025  0.0779 -0.4061
 6687SOL    HW226514   3.136   1.149  -0.074  1.1994  1.6767 -0.1256
 6687SOL    HW326515   3.229   1.057   0.002 -0.0047  0.3051 -0.2659
 6687SOL    MW426516   3.162   1.112  -0.000  0.0086  0.3188 -0.3506
 6688SOL     OW26517   1.890   5.486   2.713 -0.1376  0.1455 -0.3710
 6688SOL    HW226518   1.827   5.462   2.780 -1.3487  0.5029 -1.3419
 6688SOL    HW326519   1.842   5.545   2.655  1.1959  0.7049 -0.9600
 6688SOL    MW426520   1.876   5.491   2.714 -0.1214  0.2664 -0.5768
 6689SOL     OW26521   1.302   3.153   5.447  0.3409 -0.5752  0.6298
 6689SOL    HW226522   1.342   3.148   5.360 -1.6625  0.3241 -0.4110
 6689SOL    HW326523   1.307   3.245   5.471  0.3493 -0.7221  1.2021
 6689SOL    MW426524   1.308   3.164   5.439  0.0777 -0.4759  0.5680
 6690SOL     OW26525   2.563   3.302   0.899  0.5223 -0.8513 -0.1757
 6690SOL    HW226526   2.656   3.318   0.918  0.4080  0.9461 -0.9101
 6690SOL    HW326527   2.562   3.280   0.806  0.1213  0.4106 -0.4931
 6690SOL    MW426528   2.575   3.302   0.889  0.4543 -0.4477 -0.3145
 6691SOL     OW26529   0.281   6.162   4.897 -0.1923  0.0466  0.6010
 6691SOL    HW226530   0.250   6.192   4.983 -0.2251  0.5264  0.4188
 6691SOL    HW326531   0.376   6.153   4.908 -0.0978  0.8331  0.4704
 6691SOL    MW426532   0.290   6.165   4.910 -0.1841  0.2137  0.5597
 6692SOL     OW26533   1.003   6.394   4.026 -0.5650  0.3978  0.2799
 6692SOL    HW226534   0.997   6.417   3.934  0.8095 -0.2893 -0.0123
 6692SOL    HW326535   1.021   6.300   4.026 -1.3334  0.2363  1.2749
 6692SOL    MW426536   1.005   6.385   4.014 -0.4851  0.2858  0.3726
 6693SOL     OW26537   4.932   2.997   3.796 -0.6750 -0.4672 -0.2972
 6693SOL    HW226538   4.959   2.911   3.764 -0.4268  0.9590 -4.6352
 6693SOL    HW326539   4.836   2.992   3.797 -0.6596 -0.8474 -0.3255
 6693SOL    MW426540   4.923   2.985   3.792 -0.6403 -0.3292 -0.8733
 6694SOL     OW26541   3.357   6.300   3.981  0.2545 -0.0356  0.3583
 6694SOL    HW226542   3.331   6.365   3.916  0.8397 -1.2535 -1.1648
 6694SOL    HW326543   3.450   6.285   3.964 -0.2736 -2.6719 -0.7023
 6694SOL    MW426544   3.366   6.306   3.971  0.2621 -0.5441  0.0174
 6695SOL     OW26545   3.306   1.526   3.849  0.1410  0.3801  0.1940
 6695SOL    HW226546   3.368   1.579   3.799 -0.4073 -0.0748 -0.9832
 6695SOL    HW326547   3.238   1.502   3.787 -0.3032 -0.6273  1.0344
 6695SOL    MW426548   3.305   1.530   3.834  0.0100  0.1871  0.1496
 6696SOL     OW26549   0.690   1.065   4.256 -0.4978 -0.0216 -0.6185
 6696SOL    HW226550   0.737   0.995   4.212 -0.0909 -1.7915  2.3854
 6696SOL    HW326551   0.605   1.068   4.212 -0.6260 -2.5975 -0.6691
 6696SOL    MW426552   0.685   1.056   4.244 -0.4610 -0.5950 -0.2288
 6697SOL     OW26553   3.900   3.388   5.480 -0.0410 -0.9765  0.3992
 6697SOL    HW226554   3.978   3.418   5.527 -1.1298 -0.1611  1.7507
 6697SOL    HW326555   3.892   3.295   5.504  0.6008 -1.1009  0.1321
 6697SOL    MW426556   3.909   3.380   5.490 -0.1000 -0.8853  0.5423
 6698SOL     OW26557   0.196   6.269   3.280  0.3311 -0.5161  0.9785
 6698SOL    HW226558   0.180   6.269   3.374 -0.6443 -1.1268  0.8202
 6698SOL    HW326559   0.216   6.178   3.258  0.0930 -0.4612  0.5191
 6698SOL    MW426560   0.197   6.257   3.289  0.1710 -0.5895  0.8970
 6699SOL     OW26561   5.557   0.487   6.382 -0.3407  0.1055 -0.4070
 6699SOL    HW226562   5.524   0.485   6.472 -2.2454  0.5096 -1.0403
 6699SOL    HW326563   5.599   0.402   6.370 -1.7977 -0.7559  0.2890
 6699SOL    MW426564   5.558   0.476   6.392 -0.7842  0.0452 -0.3987
 6700SOL     OW26565   1.258   4.663   4.343  0.8176  0.2042  0.1773
 6700SOL    HW226566   1.172   4.646   4.303  1.8385 -2.0661 -1.2722
 6700SOL    HW326567   1.291   4.741   4.299  1.3445 -1.4764 -2.6454
 6700SOL    MW426568   1.251   4.671   4.332  1.0218 -0.3171 -0.3864
 6701SOL     OW26569   3.617   1.957   5.417  0.2212  0.2438  0.1616
 6701SOL    HW226570   3.682   1.887   5.416  0.1742  0.0032  3.1758
 6701SOL    HW326571   3.666   2.035   5.444  0.0798  1.2227 -2.1764
 6701SOL    MW426572   3.632   1.958   5.420  0.1963  0.3412  0.2508
 6702SOL     OW26573   4.236   4.834   2.812 -0.2987 -0.5990 -0.4965
 6702SOL    HW226574   4.325   4.831   2.846  0.2588  2.3205 -1.3956
 6702SOL    HW326575   4.243   4.804   2.721 -0.2173 -0.3619 -0.5693
 6702SOL    MW426576   4.249   4.830   2.804 -0.2144 -0.1825 -0.6247
 6703SOL     OW26577   1.509   3.412   0.007 -0.0959  0.2921  0.2758
 6703SOL    HW226578   1.584   3.353   0.014  0.2897  0.6639 -0.5785
 6703SOL    HW326579   1.548   3.497  -0.015 -0.8099  0.3330 -0.9047
 6703SOL    MW426580   1.524   3.416   0.005 -0.1392  0.3466  0.0073
 6704SOL     OW26581   3.294   0.411   1.327  0.1571  0.3219 -0.6508
 6704SOL    HW226582   3.352   0.388   1.400 -0.6447 -0.5703 -0.2718
 6704SOL    HW326583   3.338   0.375   1.250  1.4673  2.0542 -0.7747
 6704SOL    MW426584   3.308   0.403   1.327  0.2242  0.4327 -0.6171
 6705SOL     OW26585   3.991   4.460   5.277  0.1904 -0.0758  0.3278
 6705SOL    HW226586   3.934   4.430   5.207  0.4970  2.3094 -1.0374
 6705SOL    HW326587   4.065   4.398   5.276 -0.0986 -0.4239 -1.0351
 6705SOL    MW426588   3.994   4.448   5.268  0.1927  0.1930 -0.0322
 6706SOL     OW26589   4.194   3.836   2.136 -0.3554  0.4085 -0.2160
 6706SOL    HW226590   4.227   3.921   2.166 -0.9183  0.6874 -0.3709
 6706SOL    HW326591   4.247   3.816   2.059  3.7883 -2.1139  2.8657
 6706SOL    MW426592   4.205   3.845   2.130  0.1170  0.1125  0.1702
 6707SOL     OW26593   5.506   5.485   5.941 -0.2764  0.4955 -0.2255
 6707SOL    HW226594   5.475   5.446   6.023 -0.7382 -0.3203 -0.7754
 6707SOL    HW326595   5.502   5.580   5.956  2.7938  0.4208  1.8686
 6707SOL    MW426596   5.502   5.492   5.954  0.0677  0.3780 -0.0218
 6708SOL     OW26597   3.358   4.757   5.272  0.0143 -0.0393  0.0781
 6708SOL    HW226598   3.365   4.721   5.361 -0.3354 -0.0445  0.1057
 6708SOL    HW326599   3.443   4.797   5.256  0.5521 -1.1954 -0.0983
 6708SOL    MW426600   3.370   4.757   5.282  0.0391 -0.1925  0.0584
 6709SOL     OW26601   3.956   5.286   3.007 -0.4783 -0.3008 -0.3783
 6709SOL    HW226602   4.047   5.258   3.012 -0.9600 -2.1859 -1.2226
 6709SOL    HW326603   3.950   5.336   2.926 -0.3017 -0.6041 -0.5799
 6709SOL    MW426604   3.967   5.289   2.997 -0.5185 -0.5896 -0.5163
 6710SOL     OW26605   1.811   1.678   2.834 -0.5254  0.2016 -0.5441
 6710SOL    HW226606   1.833   1.587   2.813 -1.4472 -0.4565  1.0987
 6710SOL    HW326607   1.794   1.677   2.928  0.6553  2.3607 -0.2475
 6710SOL    MW426608   1.811   1.666   2.843 -0.4912  0.3997 -0.2883
 6711SOL     OW26609   1.456   0.463   5.536  0.3935 -0.0195  0.3580
 6711SOL    HW226610   1.449   0.402   5.463  0.1340  1.3931 -0.8491
 6711SOL    HW326611   1.375   0.513   5.533  2.0681  2.8770 -1.0844
 6711SOL    MW426612   1.444   0.462   5.526  0.5802  0.5491  0.0084
 6712SOL     OW26613   3.450   3.223   1.855  0.5773 -0.2707  0.1739
 6712SOL    HW226614   3.514   3.286   1.823  0.4798 -0.5546 -0.5882
 6712SOL    HW326615   3.368   3.273   1.861  1.0978  0.4497  2.3934
 6712SOL    MW426616   3.447   3.238   1.852  0.6331 -0.2131  0.3662
 6713SOL     OW26617   1.632   2.569   2.168 -0.2563 -0.4799  0.1150
 6713SOL    HW226618   1.574   2.554   2.094 -1.0531  0.4201  0.5395
 6713SOL    HW326619   1.716   2.592   2.128 -0.0671 -2.1407 -0.5042
 6713SOL    MW426620   1.636   2.570   2.153 -0.3365 -0.5802  0.0893
 6714SOL     OW26621   1.531   5.628   5.534  0.5555 -0.0581  0.1879
 6714SOL    HW226622   1.484   5.584   5.463  2.2980 -0.2843 -0.8808
 6714SOL    HW326623   1.475   5.702   5.558 -2.3199 -2.5322  1.8245
 6714SOL    MW426624   1.517   5.632   5.528  0.4060 -0.4143  0.2628
 6715SOL     OW26625   0.751   5.324   3.838  0.6590 -0.5652  0.2486
 6715SOL    HW226626   0.810   5.263   3.882  1.2778 -0.3145 -0.2189
 6715SOL    HW326627   0.736   5.394   3.901 -1.2917 -1.9164  1.3879
 6715SOL    MW426628   0.756   5.326   3.852  0.4833 -0.7104  0.3373
 6716SOL     OW26629   5.050   0.216   5.595 -0.3974 -0.7726  0.2314
 6716SOL    HW226630   5.084   0.142   5.646  0.1773 -0.3412  0.4886
 6716SOL    HW326631   5.127   0.268   5.574 -0.6695 -0.7665 -0.8098
 6716SOL    MW426632   5.065   0.213   5.599 -0.3575 -0.7149  0.1280
 6717SOL     OW26633   3.841   4.704   3.558  0.0108  0.9013 -0.2525
 6717SOL    HW226634   3.797   4.787   3.539 -0.8471  0.2560 -1.2422
 6717SOL    HW326635   3.787   4.638   3.513 -0.7318 -0.4985  2.4422
 6717SOL    MW426636   3.828   4.706   3.549 -0.2004  0.6315 -0.0275
 6718SOL     OW26637   1.048   0.914   6.100  0.3762 -0.4700 -0.8272
 6718SOL    HW226638   1.092   0.868   6.029 -0.0530 -1.2586 -0.5954
 6718SOL    HW326639   0.971   0.954   6.059 -1.5150 -3.3424 -0.3385
 6718SOL    MW426640   1.043   0.913   6.085  0.0701 -0.9530 -0.7322
 6719SOL     OW26641   4.315   4.999   0.415  0.1754 -1.0247 -0.0179
 6719SOL    HW226642   4.308   4.935   0.486  0.0828 -0.4127  0.5386
 6719SOL    HW326643   4.396   5.047   0.434 -0.1103 -0.5275 -0.0415
 6719SOL    MW426644   4.325   4.997   0.427  0.1255 -0.8784  0.0524
 6720SOL     OW26645   5.708   5.749   4.919  0.3590 -0.6193 -0.2735
 6720SOL    HW226646   5.716   5.764   5.014  2.7868 -1.3354 -0.3001
 6720SOL    HW326647   5.694   5.836   4.882 -0.5200 -0.3190  0.7157
 6720SOL    MW426648   5.707   5.763   4.927  0.5634 -0.6741 -0.1465
 6721SOL     OW26649   1.199   4.407   1.118 -0.2842 -0.0706 -0.2852
 6721SOL    HW226650   1.212   4.376   1.208 -0.0302  0.6299 -0.0660
 6721SOL    HW326651   1.211   4.330   1.063  0.8909 -0.2525  0.1915
 6721SOL    MW426652   1.203   4.393   1.123 -0.0956 -0.0021 -0.1934
 6722SOL     OW26653   1.922   1.301   5.670 -0.4012 -0.3689  0.0031
 6722SOL    HW226654   1.852   1.254   5.715  0.0865 -3.4645 -2.0813
 6722SOL    HW326655   1.997   1.293   5.728 -0.6677 -1.1041  0.2642
 6722SOL    MW426656   1.923   1.293   5.684 -0.3720 -0.8743 -0.2374
 6723SOL     OW26657   4.909   0.828   4.861 -0.1223 -0.5527  0.2848
 6723SOL    HW226658   4.927   0.807   4.769 -0.5253  0.0583  0.0622
 6723SOL    HW326659   4.930   0.748   4.908 -0.7512 -1.1662 -0.4430
 6723SOL    MW426660   4.914   0.815   4.855 -0.2585 -0.5531  0.1594
 6724SOL     OW26661   2.899   4.502   2.241 -0.0503  0.1281 -0.2934
 6724SOL    HW226662   2.876   4.472   2.329  2.6486 -1.1344  0.0766
 6724SOL    HW326663   2.906   4.422   2.190  0.3786  0.6889 -1.1384
 6724SOL    MW426664   2.897   4.488   2.246  0.3624  0.0355 -0.3561
 6725SOL     OW26665   5.249   4.728   2.649 -0.1982  0.2670  0.0666
 6725SOL    HW226666   5.251   4.706   2.742 -0.8223  2.9493  0.8090
 6725SOL    HW326667   5.331   4.776   2.634 -0.7278  1.0460 -0.4087
 6725SOL    MW426668   5.260   4.731   2.659 -0.3504  0.7236  0.1019
 6726SOL     OW26669   5.855   3.085   2.266 -0.0035  0.7125  0.3992
 6726SOL    HW226670   5.942   3.046   2.256 -0.9404 -1.4557 -0.0229
 6726SOL    HW326671   5.854   3.121   2.355  1.5601  1.4880  0.1261
 6726SOL    MW426672   5.866   3.084   2.277  0.0792  0.5287  0.3075
 6727SOL     OW26673   3.822   3.355   0.513 -0.6045 -0.3270  0.2864
 6727SOL    HW226674   3.846   3.302   0.588 -0.4679 -0.2458  0.2999
 6727SOL    HW326675   3.902   3.402   0.489 -1.0763  1.0122  1.1917
 6727SOL    MW426676   3.836   3.354   0.520 -0.6487 -0.1396  0.4076
 6728SOL     OW26677   3.521   3.950   1.233 -0.0693  0.1543 -0.0921
 6728SOL    HW226678   3.494   4.010   1.303 -0.6329 -0.3586  0.1453
 6728SOL    HW326679   3.549   4.007   1.162  2.2393  0.7120  1.1497
 6728SOL    MW426680   3.521   3.966   1.233  0.1610  0.1602  0.1031
 6729SOL     OW26681   2.508   2.217   3.120 -0.3667  0.1133 -0.6510
 6729SOL    HW226682   2.485   2.268   3.043 -2.3643 -0.1767 -0.2776
 6729SOL    HW326683   2.431   2.165   3.139 -0.1835  0.6818  1.9609
 6729SOL    MW426684   2.495   2.216   3.112 -0.6061  0.1501 -0.2571
 6730SOL     OW26685   4.056   1.631   3.879 -0.0794  0.4647 -0.0198
 6730SOL    HW226686   3.964   1.605   3.884  0.1838 -0.3155  1.1105
 6730SOL    HW326687   4.065   1.672   3.793 -1.2978 -0.1809 -0.4714
 6730SOL    MW426688   4.045   1.633   3.868 -0.2054  0.2766  0.0697
 6731SOL     OW26689   2.042   2.271   3.245 -0.2199  0.4185 -0.4296
 6731SOL    HW226690   2.023   2.272   3.339 -1.3733 -2.1166 -0.5274
 6731SOL    HW326691   2.044   2.363   3.219  1.5034  1.2445  2.2872
 6731SOL    MW426692   2.039   2.283   3.254 -0.1447  0.1930 -0.0840
 6732SOL     OW26693   3.119   0.015   3.817 -1.0133 -0.0569  0.2242
 6732SOL    HW226694   3.204   0.028   3.775 -0.6562 -0.1445  0.9078
 6732SOL    HW326695   3.112  -0.080   3.828 -1.2150 -0.0525  0.1429
 6732SOL    MW426696   3.129   0.004   3.813 -0.9928 -0.0679  0.3037
 6733SOL     OW26697   2.347   1.309   5.646 -0.0637  0.0677 -0.1738
 6733SOL    HW226698   2.430   1.339   5.683 -0.1772  0.5181 -0.2861
 6733SOL    HW326699   2.306   1.388   5.611 -1.8780  0.3866  2.3797
 6733SOL    MW426700   2.353   1.323   5.646 -0.3181  0.1692  0.1483
 6734SOL     OW26701   0.824   5.576   1.291 -0.2821  0.5882 -0.8317
 6734SOL    HW226702   0.830   5.664   1.254 -0.3961  1.1520  0.4329
 6734SOL    HW326703   0.906   5.533   1.267  0.0753  1.2826 -0.8567
 6734SOL    MW426704   0.835   5.582   1.283 -0.2500  0.7542 -0.6682
 6735SOL     OW26705   1.628   5.239   3.195  0.3630  0.0813  0.3082
 6735SOL    HW226706   1.664   5.271   3.112  0.8333 -3.2485 -0.8987
 6735SOL    HW326707   1.704   5.204   3.241 -0.2596 -0.2083  1.1242
 6735SOL    MW426708   1.643   5.239   3.190  0.3429 -0.3963  0.2567
 6736SOL     OW26709   6.263   1.625   1.984 -0.2636  0.1751 -0.0386
 6736SOL    HW226710   6.301   1.642   2.070 -0.2881  1.3673 -0.2522
 6736SOL    HW326711   6.338   1.625   1.924 -0.4957  2.1386 -0.4024
 6736SOL    MW426712   6.278   1.627   1.987 -0.2974  0.5915 -0.1148
 6737SOL     OW26713   0.379   5.939   0.668 -0.2362  0.3141  0.0455
 6737SOL    HW226714   0.394   5.886   0.590 -0.9139  1.0062 -0.5805
 6737SOL    HW326715   0.371   5.876   0.739  1.3631 -0.2738 -0.2713
 6737SOL    MW426716   0.380   5.924   0.667 -0.1146  0.3279 -0.0789
 6738SOL     OW26717   1.505   1.528   4.267  0.3577  0.2581  0.6804
 6738SOL    HW226718   1.583   1.583   4.268  1.5379 -1.2646 -1.1881
 6738SOL    HW326719   1.472   1.535   4.177 -0.8710 -0.2114  1.0760
 6738SOL    MW426720   1.511   1.536   4.255  0.3513 -0.0048  0.4861
 6739SOL     OW26721   2.291   1.682   4.415  0.1324 -0.6349 -0.1562
 6739SOL    HW226722   2.365   1.684   4.354  0.6986  0.0038  0.5300
 6739SOL    HW326723   2.234   1.754   4.386 -0.0560 -0.9113 -0.4780
 6739SOL    MW426724   2.293   1.692   4.403  0.1822 -0.5871 -0.1081
 6740SOL     OW26725   3.356   2.978   2.545  0.3403 -0.4922 -0.1113
 6740SOL    HW226726   3.350   3.033   2.623 -0.6392 -1.2899  0.4117
 6740SOL    HW326727   3.322   2.893   2.574  0.8252 -1.0627 -1.1713
 6740SOL    MW426728   3.350   2.974   2.559  0.2750 -0.6727 -0.1822
 6741SOL     OW26729   0.861   1.817   4.868  0.1938 -0.1645 -0.2366
 6741SOL    HW226730   0.947   1.860   4.875  0.4437 -0.6635 -0.2518
 6741SOL    HW326731   0.869   1.761   4.791 -0.5037  0.5952 -0.8841
 6741SOL    MW426732   0.874   1.816   4.859  0.1347 -0.1301 -0.3240
 6742SOL     OW26733   4.418   3.351   5.190 -0.0747 -0.3280 -0.3210
 6742SOL    HW226734   4.402   3.334   5.283 -1.2392 -0.1492 -0.4722
 6742SOL    HW326735   4.512   3.337   5.179  0.3311  0.9452  1.1618
 6742SOL    MW426736   4.429   3.347   5.201 -0.1748 -0.1364 -0.1453
 6743SOL     OW26737   3.922   0.032   3.394  0.3495  0.4162 -0.0248
 6743SOL    HW226738   3.833   0.009   3.367  0.2857  1.3586 -0.6946
 6743SOL    HW326739   3.933   0.123   3.364  1.3661  0.4702  0.4719
 6743SOL    MW426740   3.912   0.041   3.386  0.4752  0.5476 -0.0476
 6744SOL     OW26741   5.673   2.528   3.051 -0.1332  0.0754 -0.2011
 6744SOL    HW226742   5.587   2.541   3.089 -1.1016 -1.4267 -1.7042
 6744SOL    HW326743   5.662   2.452   2.993  2.1548 -0.0555 -0.5588
 6744SOL    MW426744   5.660   2.519   3.048  0.0409 -0.1400 -0.4466
 6745SOL     OW26745   0.353   5.593   0.830  0.7933 -0.3278  0.6153
 6745SOL    HW226746   0.315   5.588   0.742  0.8646  0.4370  0.5331
 6745SOL    HW326747   0.280   5.572   0.889  0.7609 -0.8982  0.3771
 6745SOL    MW426748   0.338   5.590   0.827  0.7984 -0.3022  0.5730
 6746SOL     OW26749   3.039   0.482   6.309 -0.3732  0.3221 -0.0755
 6746SOL    HW226750   3.034   0.444   6.221 -0.3197  1.0429 -0.4010
 6746SOL    HW326751   3.132   0.503   6.320 -0.3373 -0.0043  0.2600
 6746SOL    MW426752   3.051   0.480   6.299 -0.3614  0.3741 -0.0742
 6747SOL     OW26753   2.092   5.998   1.147 -0.1602 -0.2490  0.1132
 6747SOL    HW226754   2.110   6.092   1.143  0.6744 -0.4105 -0.0846
 6747SOL    HW326755   2.176   5.957   1.129 -0.7857 -1.0403 -1.0947
 6747SOL    MW426756   2.105   6.005   1.144 -0.1326 -0.3747 -0.0722
 6748SOL     OW26757   5.613   2.543   1.435 -0.3417  0.5043 -0.5569
 6748SOL    HW226758   5.624   2.553   1.530  1.2786  0.2245 -0.6763
 6748SOL    HW326759   5.653   2.458   1.415  0.0331  0.9035 -1.5896
 6748SOL    MW426760   5.620   2.533   1.445 -0.0785  0.5201 -0.7089
 6749SOL     OW26761   2.102   5.693   3.741 -0.4243 -0.1848 -0.1819
 6749SOL    HW226762   2.142   5.708   3.655  0.1915  0.8891  0.2814
 6749SOL    HW326763   2.011   5.720   3.729 -0.7775 -1.5378 -0.9092
 6749SOL    MW426764   2.095   5.698   3.728 -0.3896 -0.2216 -0.2167
 6750SOL     OW26765   5.498   2.670   0.828 -0.7412  0.0981  0.4801
 6750SOL    HW226766   5.534   2.623   0.754  0.0164  1.1220  0.1728
 6750SOL    HW326767   5.405   2.681   0.807 -1.2731 -2.4401  1.2147
 6750SOL    MW426768   5.491   2.666   0.816 -0.7115 -0.1017  0.5365
 6751SOL     OW26769   1.689   4.948   1.399  0.0723 -0.1741  0.0217
 6751SOL    HW226770   1.623   4.882   1.419  0.4975 -0.4140  0.6318
 6751SOL    HW326771   1.691   5.004   1.477  0.8215 -0.3601  0.1386
 6751SOL    MW426772   1.680   4.947   1.412  0.2273 -0.2303  0.1176
 6752SOL     OW26773   2.898   3.870   1.821  0.0272  0.5487  0.3537
 6752SOL    HW226774   2.850   3.787   1.818  1.0247 -0.1303  1.6908
 6752SOL    HW326775   2.884   3.902   1.910  0.6564  1.1780  0.2345
 6752SOL    MW426776   2.890   3.863   1.833  0.2418  0.5421  0.5144
 6753SOL     OW26777   2.124   4.382   4.329  0.0774 -0.1709  0.3300
 6753SOL    HW226778   2.095   4.368   4.239  2.1773  1.2356 -0.6642
 6753SOL    HW326779   2.219   4.366   4.326  0.1352 -0.4755  2.3959
 6753SOL    MW426780   2.133   4.378   4.317  0.3621 -0.0255  0.4714
 6754SOL     OW26781   0.289   0.544   4.002 -0.6478  0.3926 -0.3636
 6754SOL    HW226782   0.371   0.546   3.953 -1.1043 -0.4772 -1.2235
 6754SOL    HW326783   0.313   0.510   4.088 -0.2950 -1.3840 -1.1014
 6754SOL    MW426784   0.303   0.540   4.007 -0.6615  0.0434 -0.5744
 6755SOL     OW26785   2.850   6.166   1.594  0.6697  0.0944  0.5977
 6755SOL    HW226786   2.897   6.119   1.525  1.7699  1.3221  0.4867
 6755SOL    HW326787   2.774   6.203   1.549  1.3419  0.8299  0.0457
 6755SOL    MW426788   2.846   6.165   1.579  0.9036  0.3534  0.5102
 6756SOL     OW26789   0.199   3.457   2.392 -0.3024 -0.0908  0.0250
 6756SOL    HW226790   0.145   3.501   2.326  0.4807 -0.1039 -0.6446
 6756SOL    HW326791   0.181   3.364   2.379 -0.6600 -0.0576  0.2837
 6756SOL    MW426792   0.190   3.450   2.381 -0.2463 -0.0882 -0.0292
 6757SOL     OW26793   1.250   6.113   0.344  0.2807 -0.4549 -0.0540
 6757SOL    HW226794   1.252   6.179   0.413 -1.0894 -0.7220  0.2699
 6757SOL    HW326795   1.257   6.162   0.262  0.5502 -0.0300  0.2233
 6757SOL    MW426796   1.251   6.128   0.342  0.1355 -0.4341  0.0253
 6758SOL     OW26797   4.203   5.885   2.004 -0.3292  0.5288  0.1333
 6758SOL    HW226798   4.255   5.812   2.038 -1.3409  0.0123  0.6260
 6758SOL    HW326799   4.139   5.903   2.073  0.2522  2.2629  0.2509
 6758SOL    MW426800   4.201   5.878   2.017 -0.3860  0.6895  0.2138
 6759SOL     OW26801   2.129   4.410   0.630  0.0231  0.4239 -0.4307
 6759SOL    HW226802   2.092   4.481   0.578 -1.4876  0.8157  1.0842
 6759SOL    HW326803   2.054   4.374   0.678  0.9866 -1.3472 -0.1748
 6759SOL    MW426804   2.114   4.415   0.629 -0.0491  0.2419 -0.1971
 6760SOL     OW26805   4.529   5.634   2.797 -0.6100  0.3295  0.5248
 6760SOL    HW226806   4.477   5.685   2.735 -0.6731 -1.2362 -0.7883
 6760SOL    HW326807   4.582   5.699   2.844  1.0604  1.4964 -2.6840
 6760SOL    MW426808   4.529   5.650   2.795 -0.3980  0.2769 -0.0718
 6761SOL     OW26809   2.236   4.833   5.619  0.0053  0.1973 -0.5184
 6761SOL    HW226810   2.162   4.893   5.604  1.2839  1.7298 -0.9376
 6761SOL    HW326811   2.238   4.779   5.540 -1.1363 -0.3964 -0.1595
 6761SOL    MW426812   2.226   4.834   5.606  0.0233  0.3212 -0.5264
 6762SOL     OW26813   5.726   2.439   5.567  0.2461 -0.1971 -0.3516
 6762SOL    HW226814   5.783   2.493   5.513 -1.7139  0.6090 -1.7394
 6762SOL    HW326815   5.755   2.350   5.552  0.9353  0.1687 -1.2465
 6762SOL    MW426816   5.737   2.435   5.558  0.0784 -0.0425 -0.6527
 6763SOL     OW26817   2.907   3.593   0.706 -0.6907 -0.0348  0.2673
 6763SOL    HW226818   2.973   3.635   0.651 -1.5581 -0.7610 -1.4089
 6763SOL    HW326819   2.956   3.564   0.783  1.0821 -0.9676 -1.1202
 6763SOL    MW426820   2.923   3.595   0.709 -0.5713 -0.2537 -0.1369
 6764SOL     OW26821   0.092   1.764   5.659 -0.2794 -0.0741 -0.6053
 6764SOL    HW226822   0.117   1.840   5.607 -1.7583  0.4488 -0.6005
 6764SOL    HW326823  -0.001   1.778   5.679 -0.8915 -2.3951 -1.5110
 6764SOL    MW426824   0.083   1.776   5.655 -0.5553 -0.3113 -0.7242
 6765SOL     OW26825   4.267   5.244   0.970  0.8599  0.5020 -0.8488
 6765SOL    HW226826   4.189   5.190   0.952  0.6279  1.2401 -2.2440
 6765SOL    HW326827   4.341   5.185   0.956  0.6536  0.7320 -3.5031
 6765SOL    MW426828   4.266   5.229   0.966  0.8021  0.6298 -1.3831
 6766SOL     OW26829   3.561   1.424   4.419 -0.1409  0.1848  0.4244
 6766SOL    HW226830   3.574   1.350   4.359  1.3387  0.0919  0.8205
 6766SOL    HW326831   3.495   1.393   4.481  1.7239 -1.5799  1.6891
 6766SOL    MW426832   3.554   1.410   4.419  0.3004 -0.0603  0.6435
 6767SOL     OW26833   3.779   2.205   5.726 -0.1778  0.1171  0.1631
 6767SOL    HW226834   3.861   2.239   5.762 -0.8394  0.1300  1.7127
 6767SOL    HW326835   3.775   2.114   5.754  0.8911 -0.9694 -2.7831
 6767SOL    MW426836   3.789   2.198   5.734 -0.1240 -0.0245 -0.0212
 6768SOL     OW26837   2.054   0.840   2.470  0.0170 -0.5949  0.0043
 6768SOL    HW226838   2.015   0.876   2.391  0.9108  1.8317  0.5870
 6768SOL    HW326839   1.982   0.837   2.533 -0.2609 -0.6459 -0.3169
 6768SOL    MW426840   2.039   0.845   2.468  0.0983 -0.2815  0.0388
 6769SOL     OW26841   0.168   4.028   4.995  0.2584  0.1779  0.5240
 6769SOL    HW226842   0.144   3.998   5.082  1.2547 -1.7299  0.2017
 6769SOL    HW326843   0.085   4.032   4.947 -0.0023 -1.7036  0.7347
 6769SOL    MW426844   0.154   4.025   5.000  0.3555 -0.3221  0.5093
 6770SOL     OW26845   5.847   3.438   3.236  0.7292  0.2065 -0.3872
 6770SOL    HW226846   5.855   3.348   3.268  1.4259  0.4126  0.0315
 6770SOL    HW326847   5.791   3.482   3.300 -0.6603 -0.2317 -1.2503
 6770SOL    MW426848   5.840   3.432   3.248  0.6378  0.1759 -0.4458
 6771SOL     OW26849   1.525   1.872   4.457 -0.5512  0.5879  0.4787
 6771SOL    HW226850   1.601   1.815   4.443 -0.1081  1.2033  0.3628
 6771SOL    HW326851   1.559   1.946   4.508 -1.1739  0.6360  0.8265
 6771SOL    MW426852   1.540   1.874   4.462 -0.5749  0.6754  0.5093
 6772SOL     OW26853   2.464   5.245   5.978  0.4253  0.0261 -0.4771
 6772SOL    HW226854   2.451   5.255   5.884  1.1741 -1.6651 -0.8067
 6772SOL    HW326855   2.379   5.266   6.017  0.0425  0.5102 -1.5485
 6772SOL    MW426856   2.451   5.249   5.971  0.4736 -0.1332 -0.6619
 6773SOL     OW26857   1.595   4.020   2.466  0.3175  0.0574 -0.1068
 6773SOL    HW226858   1.647   4.024   2.547  0.9783  1.1150 -0.5633
 6773SOL    HW326859   1.533   3.948   2.481  1.1076 -0.4358  0.9296
 6773SOL    MW426860   1.593   4.011   2.479  0.5089  0.1319 -0.0303
 6774SOL     OW26861   5.110   3.144   3.253 -0.4659 -0.1221  0.5264
 6774SOL    HW226862   5.157   3.152   3.336  0.0816  2.4061  0.0411
 6774SOL    HW326863   5.160   3.079   3.204  0.0348 -0.5968  1.6273
 6774SOL    MW426864   5.123   3.136   3.257 -0.3276  0.1488  0.6076
 6775SOL     OW26865   4.294   4.072   2.244 -0.1690  0.1666 -0.1892
 6775SOL    HW226866   4.369   4.070   2.303  1.3342  0.8056 -1.9814
 6775SOL    HW326867   4.233   4.133   2.286  1.8327  2.4267 -0.3164
 6775SOL    MW426868   4.296   4.080   2.257  0.2934  0.5491 -0.4424
 6776SOL     OW26869   3.022   2.125   1.626  0.2677 -0.2352 -0.4863
 6776SOL    HW226870   3.074   2.049   1.650 -0.6668 -1.1730 -1.3542
 6776SOL    HW326871   3.040   2.138   1.533  0.0605  0.3366 -0.4550
 6776SOL    MW426872   3.031   2.117   1.617  0.1171 -0.2835 -0.5967
 6777SOL     OW26873   4.601   4.713   2.593 -0.2667 -0.7131  0.1019
 6777SOL    HW226874   4.643   4.792   2.557  0.6263 -1.4885 -0.6049
 6777SOL    HW326875   4.509   4.737   2.604 -0.1512  0.1894 -0.8114
 6777SOL    MW426876   4.594   4.727   2.590 -0.1336 -0.6963 -0.1118
 6778SOL     OW26877   1.098   0.790   3.819 -0.1510 -0.2443 -0.3380
 6778SOL    HW226878   1.062   0.789   3.907 -1.2155 -0.9250 -0.7506
 6778SOL    HW326879   1.136   0.703   3.807  3.0627  0.9021  0.5908
 6778SOL    MW426880   1.098   0.778   3.829  0.1325 -0.1829 -0.2699
 6779SOL     OW26881   5.964   1.887   5.103  0.0189 -0.0088 -0.0585
 6779SOL    HW226882   5.885   1.879   5.156 -0.2661 -1.3793 -0.6375
 6779SOL    HW326883   6.005   1.968   5.132 -0.6964 -0.1602  1.4671
 6779SOL    MW426884   5.959   1.897   5.114 -0.1131 -0.2096  0.0664
 6780SOL     OW26885   1.378   3.654   5.034 -0.1515 -0.0906 -0.0504
 6780SOL    HW226886   1.372   3.732   4.979 -1.4685 -0.4174 -0.4084
 6780SOL    HW326887   1.353   3.684   5.121  0.7341  0.1695  0.1251
 6780SOL    MW426888   1.374   3.668   5.038 -0.2084 -0.0994 -0.0745
 6781SOL     OW26889   0.909   1.524   5.658  0.2633  0.1913 -0.0571
 6781SOL    HW226890   0.868   1.610   5.666 -0.4038 -0.1932  0.7316
 6781SOL    HW326891   0.911   1.489   5.747  0.8157 -0.4879 -0.3221
 6781SOL    MW426892   0.904   1.531   5.671  0.2482  0.0510  0.0120
 6782SOL     OW26893   4.587   1.800   0.067 -0.0266  0.0695  0.1332
 6782SOL    HW226894   4.663   1.809   0.125 -0.1269 -1.2088  0.5010
 6782SOL    HW326895   4.512   1.822   0.122 -0.2093 -2.0389  0.8221
 6782SOL    MW426896   4.587   1.804   0.082 -0.0639 -0.3773  0.2726
 6783SOL     OW26897   1.723   4.390   1.236  0.0265 -0.0030  0.4438
 6783SOL    HW226898   1.815   4.396   1.260 -0.4260 -0.8927  2.6451
 6783SOL    HW326899   1.695   4.481   1.226  1.2360  0.2689 -0.8190
 6783SOL    MW426900   1.731   4.403   1.238  0.1264 -0.0846  0.5676
 6784SOL     OW26901   1.965   6.220   6.251  0.0587 -0.1635 -0.7256
 6784SOL    HW226902   2.023   6.150   6.284  1.1575  1.1708  0.2850
 6784SOL    HW326903   1.937   6.267   6.329 -0.7501  0.4784 -1.3848
 6784SOL    MW426904   1.969   6.217   6.265  0.0969  0.0972 -0.6792
 6785SOL     OW26905   1.868   4.980   4.204 -0.7837 -0.4894  0.7675
 6785SOL    HW226906   1.804   4.909   4.196  2.7413 -3.9486  0.4382
 6785SOL    HW326907   1.869   5.001   4.297 -2.3063 -0.3178  0.7793
 6785SOL    MW426908   1.860   4.974   4.215 -0.5195 -0.9232  0.7256
 6786SOL     OW26909   1.769   0.794   5.549  0.8197 -0.1487 -0.4810
 6786SOL    HW226910   1.837   0.861   5.538  1.1536 -0.6371 -1.4996
 6786SOL    HW326911   1.818   0.713   5.558  0.3708 -0.5169 -1.3116
 6786SOL    MW426912   1.784   0.792   5.549  0.8046 -0.2617 -0.7250
 6787SOL     OW26913   4.820   4.986   3.996  0.5831 -0.1052 -0.0908
 6787SOL    HW226914   4.869   5.065   3.971 -2.2318  1.5883 -0.8175
 6787SOL    HW326915   4.791   5.003   4.085  3.7783 -2.5228  1.5913
 6787SOL    MW426916   4.822   4.999   4.004  0.6333 -0.2007  0.0352
 6788SOL     OW26917   2.411   0.845   3.705 -0.1778 -0.1743  0.0209
 6788SOL    HW226918   2.323   0.883   3.699  0.8283  2.2181 -1.0129
 6788SOL    HW326919   2.456   0.899   3.770  0.5547 -1.3598  0.5258
 6788SOL    MW426920   2.405   0.857   3.712  0.0516 -0.0151 -0.0488
 6789SOL     OW26921   2.777   6.392   1.199 -0.3194  1.0815  0.6272
 6789SOL    HW226922   2.787   6.338   1.120 -0.9626  1.5600  0.2012
 6789SOL    HW326923   2.704   6.352   1.246  0.6603  0.2390  1.4691
 6789SOL    MW426924   2.768   6.380   1.194 -0.2750  1.0335  0.6821
 6790SOL     OW26925   5.681   3.886   3.550 -0.6438 -0.3224  0.0879
 6790SOL    HW226926   5.723   3.851   3.471 -0.0742  0.2017  0.1550
 6790SOL    HW326927   5.751   3.890   3.615 -1.1826 -1.0956  0.7504
 6790SOL    MW426928   5.696   3.882   3.548 -0.6397 -0.3553  0.1841
 6791SOL     OW26929   1.853   3.145   2.516 -0.1476 -0.2110 -0.0663
 6791SOL    HW226930   1.766   3.185   2.523  0.4758  1.2992 -0.6796
 6791SOL    HW326931   1.898   3.170   2.597  0.0804 -0.0834 -0.2327
 6791SOL    MW426932   1.847   3.153   2.528 -0.0353  0.0051 -0.1692
 6792SOL     OW26933   5.808   0.769   3.514  0.1328 -0.2506  0.1912
 6792SOL    HW226934   5.831   0.677   3.529  1.1719  0.3156  2.5862
 6792SOL    HW326935   5.891   0.814   3.503 -0.2735  0.6256  0.5760
 6792SOL    MW426936   5.822   0.763   3.515  0.2162 -0.0603  0.5580
 6793SOL     OW26937   0.846   1.664   0.493 -0.3427 -0.1711 -0.0041
 6793SOL    HW226938   0.932   1.703   0.478  0.3781 -1.8080 -0.3275
 6793SOL    HW326939   0.861   1.570   0.489 -2.0928 -0.5028  0.3127
 6793SOL    MW426940   0.859   1.657   0.490 -0.4785 -0.4308 -0.0050
 6794SOL     OW26941   0.977   5.092   3.656  0.1732 -0.4150  0.4783
 6794SOL    HW226942   0.899   5.042   3.631 -0.7144  0.8171  0.6496
 6794SOL    HW326943   0.973   5.171   3.602  1.6245 -0.5786  0.0988
 6794SOL    MW426944   0.966   5.096   3.646  0.2476 -0.2740  0.4508
 6795SOL     OW26945   6.050   2.808   2.960  0.0824  0.2754 -0.3358
 6795SOL    HW226946   5.973   2.838   3.008 -0.3675 -0.2513 -0.7178
 6795SOL    HW326947   6.122   2.819   3.022 -0.2295  1.1412 -0.1088
 6795SOL    MW426948   6.049   2.813   2.975 -0.0181  0.3202 -0.3563
 6796SOL     OW26949   6.317   2.882   0.254  0.5117  0.0497 -0.4379
 6796SOL    HW226950   6.249   2.903   0.190 -0.9588 -1.5172  0.5313
 6796SOL    HW326951   6.368   2.812   0.214 -0.8048 -1.3799  0.2913
 6796SOL    MW426952   6.315   2.876   0.240  0.1440 -0.3457 -0.2138
 6797SOL     OW26953   4.743   5.541   2.659  0.3062 -0.3225 -0.1938
 6797SOL    HW226954   4.743   5.445   2.652  0.0119 -0.3025 -0.4737
 6797SOL    HW326955   4.664   5.561   2.709  0.0300 -0.1896 -0.6745
 6797SOL    MW426956   4.733   5.531   2.665  0.2309 -0.3023 -0.2941
 6798SOL     OW26957   5.065   1.279   4.376  0.1359  0.2795  0.2327
 6798SOL    HW226958   5.006   1.354   4.382 -0.3218  0.2338 -2.4833
 6798SOL    HW326959   5.148   1.316   4.348  1.1956  0.2025  2.9769
 6798SOL    MW426960   5.068   1.293   4.373  0.2153  0.2633  0.2365
 6799SOL     OW26961   6.031   0.278   4.241 -0.1423  0.4328 -0.6313
 6799SOL    HW226962   5.969   0.306   4.309  0.3267 -0.4568  0.1834
 6799SOL    HW326963   6.034   0.352   4.180  2.6490  3.2008  2.4680
 6799SOL    MW426964   6.023   0.292   4.242  0.2879  0.6806 -0.1149
 6800SOL     OW26965   4.631   0.158   0.807 -0.2815  0.1577  0.2168
 6800SOL    HW226966   4.699   0.225   0.819  0.7403 -0.9303  0.6865
 6800SOL    HW326967   4.623   0.117   0.893 -1.6424  0.3477  0.1941
 6800SOL    MW426968   4.639   0.162   0.820 -0.3262  0.0392  0.2758
 6801SOL     OW26969   1.160   3.834   1.217  0.4443  0.0447 -0.1049
 6801SOL    HW226970   1.237   3.805   1.167  0.9410 -0.1109  0.7279
 6801SOL    HW326971   1.196   3.888   1.287 -0.1891 -0.1906  0.4121
 6801SOL    MW426972   1.175   3.837   1.220  0.4263 -0.0069  0.0732
 6802SOL     OW26973   2.363   0.698   4.447 -0.6530 -0.1697 -0.4081
 6802SOL    HW226974   2.358   0.610   4.409 -1.3746  0.4016 -1.6808
 6802SOL    HW326975   2.312   0.692   4.527  0.3605 -1.2260  0.1993
 6802SOL    MW426976   2.356   0.686   4.453 -0.6145 -0.2337 -0.4959
 6803SOL     OW26977   3.180   3.960   4.463 -0.2535  0.1030 -0.6547
 6803SOL    HW226978   3.247   4.027   4.458 -0.4875  0.3674 -0.2895
 6803SOL    HW326979   3.224   3.879   4.435  0.2218  0.2680 -0.3840
 6803SOL    MW426980   3.194   3.958   4.458 -0.2216  0.1597 -0.5708
 6804SOL     OW26981   0.094   5.684   1.679  0.2640 -0.0840  0.0967
 6804SOL    HW226982   0.059   5.680   1.768  0.9228  1.3953  0.4601
 6804SOL    HW326983   0.108   5.777   1.663  0.9775 -0.3913 -1.2290
 6804SOL    MW426984   0.092   5.696   1.689  0.4450  0.0706 -0.0302
 6805SOL     OW26985   0.997   2.181   3.312  0.4204 -0.1504  0.7887
 6805SOL    HW226986   1.058   2.227   3.369 -0.2042  0.6184  0.8576
 6805SOL    HW326987   0.967   2.248   3.250  0.0376 -0.6384  0.4364
 6805SOL    MW426988   1.001   2.196   3.311  0.2874 -0.1133  0.7513
 6806SOL     OW26989   3.873   2.325   2.196  0.7812  0.6170 -0.0036
 6806SOL    HW226990   3.891   2.335   2.103  1.6898 -0.9985 -0.0532
 6806SOL    HW326991   3.802   2.387   2.214  0.0781  0.4481 -1.9149
 6806SOL    MW426992   3.866   2.334   2.186  0.8083  0.3816 -0.2623
 6807SOL     OW26993   4.162   1.074   1.187 -0.0696 -0.2927  0.0233
 6807SOL    HW226994   4.077   1.092   1.146  0.3550 -1.2746 -1.3674
 6807SOL    HW326995   4.141   1.055   1.278 -1.0934  1.6186  0.2494
 6807SOL    MW426996   4.148   1.074   1.194 -0.1487 -0.1701 -0.1303
 6808SOL     OW26997   2.298   4.149   6.139 -0.1590  0.1702  0.4001
 6808SOL    HW226998   2.225   4.093   6.113 -0.3791 -0.5796  2.4456
 6808SOL    HW326999   2.327   4.191   6.057 -1.3237 -1.3300 -0.8420
 6808SOL    MW427000   2.293   4.147   6.124 -0.3417 -0.1266  0.5061
 6809SOL     OW27001   6.315   2.331   1.793  0.4423  0.3203 -0.0787
 6809SOL    HW227002   6.246   2.268   1.811  1.2308 -1.4269 -2.6523
 6809SOL    HW327003   6.271   2.416   1.797 -1.3133 -0.5747  0.5814
 6809SOL    MW427004   6.300   2.334   1.796  0.3147 -0.0283 -0.3312
 6810SOL     OW27005   3.676   4.239   3.170  0.1343  0.3685  0.4246
 6810SOL    HW227006   3.668   4.145   3.157  3.3143 -0.0864  1.0654
 6810SOL    HW327007   3.645   4.253   3.260  1.0101 -0.3136  0.8451
 6810SOL    MW427008   3.671   4.229   3.180  0.6694  0.2185  0.5647
 6811SOL     OW27009   3.991   0.605   3.508 -0.1032  0.0897 -0.0226
 6811SOL    HW227010   3.993   0.521   3.554  0.6165  0.4935  0.7151
 6811SOL    HW327011   4.083   0.632   3.503 -0.3769  1.1606  0.3709
 6811SOL    MW427012   4.004   0.598   3.513 -0.0443  0.2843  0.1267
 6812SOL     OW27013   1.657   0.673   2.286  0.2732  0.3531 -0.6277
 6812SOL    HW227014   1.615   0.751   2.250  1.5378  0.5237 -1.8303
 6812SOL    HW327015   1.739   0.666   2.237  0.3550 -1.5299 -0.2790
 6812SOL    MW427016   1.662   0.682   2.275  0.4508  0.1271 -0.7404
 6813SOL     OW27017   3.410   1.136   5.045  0.2845  0.1876  0.1839
 6813SOL    HW227018   3.372   1.180   5.121 -0.7538  2.2529 -1.4041
 6813SOL    HW327019   3.337   1.090   5.004  0.5440  0.1505 -0.2526
 6813SOL    MW427020   3.395   1.136   5.050  0.1817  0.4552 -0.0832
 6814SOL     OW27021   2.778   4.274   0.562 -0.2276 -0.1305  0.0985
 6814SOL    HW227022   2.849   4.210   0.568 -0.5976 -0.4986  0.5735
 6814SOL    HW327023   2.792   4.332   0.637 -0.6159 -0.3945  0.3748
 6814SOL    MW427024   2.789   4.273   0.573 -0.3276 -0.2139  0.1976
 6815SOL     OW27025   3.660   0.678   2.068  0.1793 -0.4476 -0.1308
 6815SOL    HW227026   3.649   0.679   1.973 -1.1137 -0.6510 -0.0003
 6815SOL    HW327027   3.579   0.642   2.101  0.2101  0.5452  1.1104
 6815SOL    MW427028   3.648   0.674   2.060  0.0128 -0.3434  0.0502
 6816SOL     OW27029   0.487   1.100   3.505  0.2029  0.1546  0.1194
 6816SOL    HW227030   0.474   1.015   3.463  0.7074 -1.0542  2.2931
 6816SOL    HW327031   0.414   1.109   3.566  0.9570  0.5683  0.9881
 6816SOL    MW427032   0.476   1.090   3.507  0.3690  0.0497  0.5208
 6817SOL     OW27033   1.496   4.584   5.583  0.2484 -0.5386 -0.2309
 6817SOL    HW227034   1.488   4.490   5.601 -0.1430 -0.4988 -0.1924
 6817SOL    HW327035   1.575   4.592   5.530 -0.2196 -0.9959 -1.0173
 6817SOL    MW427036   1.505   4.573   5.579  0.1350 -0.5937 -0.3296
 6818SOL     OW27037   1.002   6.318   1.061 -0.1167  0.1875 -0.1440
 6818SOL    HW227038   0.945   6.391   1.037 -1.1923  0.4322  2.7727
 6818SOL    HW327039   1.091   6.354   1.053 -0.4149  0.5848 -2.3076
 6818SOL    MW427040   1.006   6.333   1.057 -0.2980  0.2722 -0.0446
 6819SOL     OW27041   4.055   1.342   3.616 -0.3693 -0.3475 -0.2862
 6819SOL    HW227042   4.151   1.334   3.621 -0.3669 -0.1683 -0.0202
 6819SOL    HW327043   4.034   1.322   3.525 -0.1222 -0.8804 -0.2325
 6819SOL    MW427044   4.065   1.338   3.605 -0.3364 -0.3942 -0.2440
 6820SOL     OW27045   5.671   5.369   3.738  0.3353 -0.2333 -0.2084
 6820SOL    HW227046   5.725   5.294   3.716  0.7947  0.1893 -0.5322
 6820SOL    HW327047   5.731   5.431   3.779  0.0108  0.0573 -0.1638
 6820SOL    MW427048   5.686   5.367   3.741  0.3531 -0.1392 -0.2453
 6821SOL     OW27049   3.259   3.651   5.370  0.3568  0.3026 -0.0699
 6821SOL    HW227050   3.204   3.724   5.342 -1.2625 -0.6080  0.5948
 6821SOL    HW327051   3.237   3.580   5.309  2.2673  0.4674 -1.0157
 6821SOL    MW427052   3.249   3.651   5.359  0.3952  0.2042 -0.1070
 6822SOL     OW27053   5.634   3.876   3.893 -0.1293 -0.5493 -0.4839
 6822SOL    HW227054   5.642   3.826   3.974  1.6193 -0.6311 -0.6663
 6822SOL    HW327055   5.724   3.897   3.868 -0.6634  0.1418 -2.0011
 6822SOL    MW427056   5.647   3.873   3.900  0.0309 -0.4689 -0.7082
 6823SOL     OW27057   3.043   5.094   5.924 -0.5168  0.0514 -0.1666
 6823SOL    HW227058   2.990   5.121   5.849  0.6118 -0.2966 -1.1154
 6823SOL    HW327059   3.031   4.999   5.929  0.7904 -0.1914 -1.0443
 6823SOL    MW427060   3.034   5.085   5.914 -0.1954 -0.0265 -0.4076
 6824SOL     OW27061   2.780   0.713   1.606  0.3595 -0.2162  1.0451
 6824SOL    HW227062   2.863   0.675   1.578  2.0172  3.0613  1.0936
 6824SOL    HW327063   2.775   0.693   1.700  1.1123 -0.3902  1.0514
 6824SOL    MW427064   2.790   0.705   1.615  0.6775  0.1933  1.0523
 6825SOL     OW27065   1.171   4.353   5.604 -0.3254  0.3291 -0.1892
 6825SOL    HW227066   1.161   4.442   5.638  1.9904 -0.2185  2.2045
 6825SOL    HW327067   1.262   4.330   5.622 -1.1211 -2.9293  0.2709
 6825SOL    MW427068   1.181   4.362   5.611 -0.1248 -0.1731  0.1873
 6826SOL     OW27069   4.315   6.149   3.974 -0.0461 -0.3904 -0.4573
 6826SOL    HW227070   4.221   6.167   3.976  0.1679  0.8294 -0.6397
 6826SOL    HW327071   4.344   6.184   3.890  0.3007 -2.2906 -1.1698
 6826SOL    MW427072   4.306   6.156   3.963  0.0279 -0.4802 -0.5754
 6827SOL     OW27073   3.183   1.888   4.653  0.2667  0.1228  0.4380
 6827SOL    HW227074   3.097   1.877   4.613  0.8113 -0.3449 -0.6559
 6827SOL    HW327075   3.243   1.844   4.593  1.2885  0.5560  1.1126
 6827SOL    MW427076   3.180   1.881   4.640  0.4734  0.1182  0.3827
 6828SOL     OW27077   5.837   5.999   0.219  0.4411  0.4449  0.0951
 6828SOL    HW227078   5.749   5.962   0.227  0.2832  0.4425 -1.4222
 6828SOL    HW327079   5.823   6.092   0.203  0.6793  0.3352 -0.8024
 6828SOL    MW427080   5.824   6.007   0.218  0.4517  0.4301 -0.2235
 6829SOL     OW27081   4.992   2.765   5.268  0.6974 -0.2982 -0.4046
 6829SOL    HW227082   5.009   2.735   5.358  0.5607  0.1699 -0.2139
 6829SOL    HW327083   5.069   2.737   5.218 -0.1846 -2.4846 -0.6373
 6829SOL    MW427084   5.004   2.758   5.274  0.5630 -0.5249 -0.4101
 6830SOL     OW27085   1.374   5.342   4.425 -0.4234 -0.0898  0.3381
 6830SOL    HW227086   1.403   5.369   4.337  1.1358 -1.6238  0.3427
 6830SOL    HW327087   1.432   5.389   4.484  0.4515 -1.2636  0.4333
 6830SOL    MW427088   1.385   5.352   4.421 -0.1022 -0.4471  0.3513
 6831SOL     OW27089   3.300   3.382   1.119 -0.5774 -0.1503  0.0496
 6831SOL    HW227090   3.296   3.338   1.034 -2.1389  1.1311 -0.5973
 6831SOL    HW327091   3.394   3.386   1.140 -0.2843 -2.1657 -0.6729
 6831SOL    MW427092   3.312   3.377   1.111 -0.7447 -0.2471 -0.1310
 6832SOL     OW27093   3.546   3.262   2.439  0.3673  0.4732 -0.2392
 6832SOL    HW227094   3.572   3.346   2.401 -0.6191  0.8867 -0.0527
 6832SOL    HW327095   3.467   3.283   2.490  1.7553  0.0107  2.2865
 6832SOL    MW427096   3.539   3.276   2.441  0.4203  0.4667  0.1187
 6833SOL     OW27097   0.480   4.947   4.847 -0.1512  0.5077 -0.3943
 6833SOL    HW227098   0.489   5.042   4.841  2.5606  0.4096  0.6141
 6833SOL    HW327099   0.386   4.932   4.848 -0.7515  3.3949  1.9516
 6833SOL    MW427100   0.469   4.958   4.846  0.1274  0.8757  0.0483
 6834SOL     OW27101   3.970   4.816   1.070  0.6251 -0.5353 -0.6643
 6834SOL    HW227102   3.908   4.758   1.114  0.4121  2.0945  2.9589
 6834SOL    HW327103   4.052   4.767   1.070  0.3722 -1.1061  1.8577
 6834SOL    MW427104   3.972   4.802   1.076  0.5636 -0.2636  0.1465
 6835SOL     OW27105   4.476   0.755   0.195  0.2563  1.1214 -0.7051
 6835SOL    HW227106   4.568   0.773   0.215  0.5936 -0.0544 -1.0723
 6835SOL    HW327107   4.455   0.815   0.124  1.3257  0.1536 -1.8987
 6835SOL    MW427108   4.486   0.765   0.188  0.4419  0.8386 -0.9110
 6836SOL     OW27109   5.892   4.947   1.080  0.3875 -0.1702 -0.2849
 6836SOL    HW227110   5.870   4.856   1.095  1.3524 -0.2672  0.7637
 6836SOL    HW327111   5.875   4.962   0.988 -2.5619 -0.5840  0.1184
 6836SOL    MW427112   5.887   4.937   1.070  0.1256 -0.2376 -0.0934
 6837SOL     OW27113   0.440   4.005   1.760 -0.0747 -0.3040  0.3661
 6837SOL    HW227114   0.466   3.951   1.834  0.1254 -0.0315  0.4986
 6837SOL    HW327115   0.515   4.063   1.746 -0.6198  0.5242  0.7722
 6837SOL    MW427116   0.453   4.006   1.768 -0.1202 -0.1587  0.4372
 6838SOL     OW27117   6.343   5.459   2.099  0.2986 -0.4022  0.3911
 6838SOL    HW227118   6.341   5.378   2.149 -1.0414 -0.6048  0.0606
 6838SOL    HW327119   6.352   5.528   2.165 -1.4503 -0.6663  0.9638
 6838SOL    MW427120   6.344   5.458   2.114 -0.1089 -0.4638  0.4231
 6839SOL     OW27121   5.585   3.182   0.885  0.4443  0.5707  0.0278
 6839SOL    HW227122   5.642   3.125   0.833  0.8237 -1.7994  2.8070
 6839SOL    HW327123   5.496   3.162   0.855  0.7108  0.1520 -0.5041
 6839SOL    MW427124   5.581   3.172   0.874  0.5295  0.2027  0.3243
 6840SOL     OW27125   0.112   1.842   2.313 -0.2707 -0.0826  0.1197
 6840SOL    HW227126   0.094   1.916   2.371 -0.7885  0.6229 -0.9166
 6840SOL    HW327127   0.181   1.793   2.358  1.5118  2.0798 -0.0706
 6840SOL    MW427128   0.119   1.845   2.327 -0.1038  0.2958 -0.0422
 6841SOL     OW27129   2.461   4.897   3.733 -0.1665  0.2710  0.3953
 6841SOL    HW227130   2.457   4.805   3.705 -1.0632  0.6960 -0.9662
 6841SOL    HW327131   2.376   4.913   3.774 -0.5070  0.8110 -0.4872
 6841SOL    MW427132   2.449   4.887   3.735 -0.3297  0.3983  0.0992
 6842SOL     OW27133   0.978   5.848   5.754 -0.0884 -0.1301  0.3418
 6842SOL    HW227134   0.970   5.758   5.720  0.8094 -0.0780 -0.0263
 6842SOL    HW327135   1.010   5.899   5.679  1.3041  0.1120  1.0776
 6842SOL    MW427136   0.981   5.842   5.739  0.2138 -0.0913  0.3903
 6843SOL     OW27137   1.236   5.426   2.165  0.4244 -0.1613  0.2888
 6843SOL    HW227138   1.190   5.495   2.212  1.0333  0.7278 -0.3787
 6843SOL    HW327139   1.268   5.468   2.085  0.6227 -1.2761 -0.2477
 6843SOL    MW427140   1.234   5.440   2.160  0.5309 -0.1911  0.1300
 6844SOL     OW27141   6.342   2.405   5.665  0.0650 -0.2876  0.3687
 6844SOL    HW227142   6.382   2.371   5.745  0.2029 -0.1507  0.3580
 6844SOL    HW327143   6.413   2.449   5.619  0.1124 -0.8553 -0.1082
 6844SOL    MW427144   6.356   2.406   5.670  0.0895 -0.3444  0.3044
 6845SOL     OW27145   3.785   5.380   4.029 -0.2535  0.0984 -0.1990
 6845SOL    HW227146   3.789   5.457   4.087  2.0058 -0.3845  0.3819
 6845SOL    HW327147   3.775   5.306   4.089 -0.3828 -0.2230 -0.6131
 6845SOL    MW427148   3.784   5.381   4.045  0.0275 -0.0078 -0.1770
 6846SOL     OW27149   3.567   0.774   3.339  0.5517  0.2365  0.4912
 6846SOL    HW227150   3.638   0.791   3.402  1.4254 -1.4305  0.0163
 6846SOL    HW327151   3.599   0.700   3.287 -1.5469 -0.5383  0.2427
 6846SOL    MW427152   3.581   0.767   3.341  0.3901 -0.0857  0.3958
 6847SOL     OW27153   3.406   2.948   1.795  0.4233  0.4577 -0.3382
 6847SOL    HW227154   3.423   3.037   1.824 -1.7101  1.1046 -0.9013
 6847SOL    HW327155   3.319   2.927   1.829  1.3315 -1.8966  0.8059
 6847SOL    MW427156   3.397   2.957   1.803  0.2616  0.2324 -0.2615
 6848SOL     OW27157   3.519   1.304   4.813  0.3271  0.4355 -0.2582
 6848SOL    HW227158   3.499   1.217   4.848  2.1000  0.1929  0.2694
 6848SOL    HW327159   3.614   1.309   4.817  0.2647  2.3032 -0.5470
 6848SOL    MW427160   3.529   1.293   4.818  0.5528  0.6499 -0.2267
 6849SOL     OW27161   5.810   1.134   2.161  0.3081 -0.4497  0.1268
 6849SOL    HW227162   5.875   1.165   2.224  0.1939  0.5983 -0.2654
 6849SOL    HW327163   5.748   1.084   2.214  0.1438  0.5281  0.8803
 6849SOL    MW427164   5.810   1.131   2.176  0.2713 -0.1824  0.1745
 6850SOL     OW27165   2.486   1.373   2.443 -0.3193  0.4140  0.3575
 6850SOL    HW227166   2.563   1.415   2.481 -0.0219  0.5728 -0.4110
 6850SOL    HW327167   2.521   1.305   2.386 -0.6886  1.2782 -0.9551
 6850SOL    MW427168   2.501   1.370   2.441 -0.3288  0.5490  0.0829
 6851SOL     OW27169   2.909   0.956   3.132  0.0603 -0.0267  0.3519
 6851SOL    HW227170   2.932   0.944   3.040  0.5307  1.2985  0.2655
 6851SOL    HW327171   2.815   0.977   3.130 -0.4856 -2.2636  0.4132
 6851SOL    MW427172   2.900   0.957   3.120  0.0503 -0.1470  0.3486
 6852SOL     OW27173   5.835   4.153   4.246  0.2686  0.1144 -0.3634
 6852SOL    HW227174   5.764   4.184   4.191  0.7502  0.3715 -0.8459
 6852SOL    HW327175   5.907   4.214   4.230  1.3600 -1.4182 -1.6017
 6852SOL    MW427176   5.835   4.165   4.237  0.4761 -0.0539 -0.5905
 6853SOL     OW27177   3.368   3.253   6.349  0.1316 -0.0113  0.1721
 6853SOL    HW227178   3.411   3.178   6.307  0.1595  0.2521 -0.2792
 6853SOL    HW327179   3.441   3.309   6.378  0.1125  0.6734 -1.0264
 6853SOL    MW427180   3.384   3.251   6.347  0.1328  0.1138 -0.0456
 6854SOL     OW27181   5.588   1.693   5.371 -0.4287 -0.6714 -0.0570
 6854SOL    HW227182   5.493   1.709   5.368 -0.5052 -1.0140  0.3545
 6854SOL    HW327183   5.605   1.673   5.463  0.5925  2.6968  0.6117
 6854SOL    MW427184   5.578   1.693   5.383 -0.3041 -0.2722  0.0855
 6855SOL     OW27185   0.722   2.860   5.086 -0.1119  0.1159 -0.2312
 6855SOL    HW227186   0.806   2.813   5.086 -0.8121 -1.2217  0.8632
 6855SOL    HW327187   0.742   2.945   5.048  1.3505 -0.8485 -1.7442
 6855SOL    MW427188   0.736   2.865   5.081 -0.0113 -0.1878 -0.2864
 6856SOL     OW27189   2.223   1.776   4.823  0.0009 -0.4897 -0.0607
 6856SOL    HW227190   2.238   1.744   4.912 -0.5857 -1.9402 -0.4612
 6856SOL    HW327191   2.250   1.704   4.766  0.6280  0.5152 -1.0886
 6856SOL    MW427192   2.228   1.762   4.827  0.0062 -0.5485 -0.2492
 6857SOL     OW27193   1.196   5.572   4.461 -0.0101 -0.5936 -0.4887
 6857SOL    HW227194   1.103   5.550   4.462 -0.1950  0.1422 -1.0707
 6857SOL    HW327195   1.240   5.487   4.472 -0.7313 -0.7594  1.7234
 6857SOL    MW427196   1.189   5.558   4.463 -0.1297 -0.5184 -0.2736
 6858SOL     OW27197   4.972   0.551   2.654  0.1469 -0.2067  0.7074
 6858SOL    HW227198   4.931   0.529   2.737 -0.4662 -0.7562  0.2672
 6858SOL    HW327199   4.901   0.550   2.590  0.4910  0.8672  0.2760
 6858SOL    MW427200   4.957   0.548   2.656  0.1114 -0.1375  0.5924
 6859SOL     OW27201   0.769   1.174   2.128 -0.0715 -0.0949 -0.0399
 6859SOL    HW227202   0.751   1.119   2.205 -1.2030  0.0590 -0.1802
 6859SOL    HW327203   0.835   1.124   2.079  1.7610  0.4601  1.7037
 6859SOL    MW427204   0.775   1.160   2.132  0.0210 -0.0014  0.1716
 6860SOL     OW27205   4.371   4.705   4.019 -0.1260 -0.2960  0.1547
 6860SOL    HW227206   4.454   4.657   4.026  0.2239  0.3222  0.3087
 6860SOL    HW327207   4.376   4.748   3.934 -0.2692 -0.2135  0.1877
 6860SOL    MW427208   4.383   4.704   4.009 -0.0988 -0.2035  0.1793
 6861SOL     OW27209   2.073   6.048   3.802 -0.1233 -0.4907  0.2824
 6861SOL    HW227210   2.104   6.008   3.884 -0.6405  1.0699  1.2889
 6861SOL    HW327211   1.977   6.042   3.808 -0.1576 -0.6316 -0.3523
 6861SOL    MW427212   2.064   6.042   3.814 -0.1961 -0.3034  0.3314
 6862SOL     OW27213   6.233   5.907   2.416  0.0197  0.4953  0.6065
 6862SOL    HW227214   6.281   5.989   2.416 -0.2753  0.8902 -3.4894
 6862SOL    HW327215   6.154   5.924   2.468  0.4180  2.4886  0.6236
 6862SOL    MW427216   6.229   5.920   2.423  0.0333  0.8104  0.0684
 6863SOL     OW27217   2.511   3.623   4.387 -0.4505  0.2375 -0.1724
 6863SOL    HW227218   2.570   3.601   4.459 -0.4585 -0.0567 -0.2544
 6863SOL    HW327219   2.440   3.559   4.394 -1.1982  1.1022  0.4385
 6863SOL    MW427220   2.509   3.612   4.398 -0.5502  0.3128 -0.1026
 6864SOL     OW27221   0.672   1.007   1.349 -0.1260  0.0189  0.2463
 6864SOL    HW227222   0.590   1.051   1.374 -0.1044 -0.7513  1.7707
 6864SOL    HW327223   0.710   1.065   1.283 -2.7566 -0.5115 -1.8907
 6864SOL    MW427224   0.666   1.021   1.344 -0.4702 -0.1527  0.1655
 6865SOL     OW27225   3.041   0.097   5.158  0.1652  0.1316  0.7012
 6865SOL    HW227226   3.021   0.036   5.087 -0.3958 -2.0103  2.6007
 6865SOL    HW327227   3.136   0.102   5.159  0.1782  0.8013 -0.6297
 6865SOL    MW427228   3.051   0.090   5.148  0.0929 -0.0626  0.7762
 6866SOL     OW27229   6.464   2.742   1.173 -0.0884 -0.0219  0.0706
 6866SOL    HW227230   6.469   2.748   1.078 -2.0040 -3.2576 -0.3853
 6866SOL    HW327231   6.498   2.826   1.204  1.0414  0.9801 -3.3986
 6866SOL    MW427232   6.469   2.754   1.165 -0.1921 -0.3166 -0.4473
 6867SOL     OW27233   4.916   3.482   0.212 -0.6001  0.0081  0.2785
 6867SOL    HW227234   4.881   3.487   0.123  1.1284 -1.2482 -0.5179
 6867SOL    HW327235   4.936   3.573   0.235  0.5353  0.2014 -1.3217
 6867SOL    MW427236   4.914   3.495   0.203 -0.2222 -0.1321 -0.0377
 6868SOL     OW27237   3.123   1.841   4.097  0.4926 -0.3179 -0.8037
 6868SOL    HW227238   3.181   1.765   4.102  0.0618 -0.6157 -0.0382
 6868SOL    HW327239   3.171   1.911   4.142 -0.0920 -0.8214  0.6871
 6868SOL    MW427240   3.137   1.840   4.104  0.3586 -0.4236 -0.5060
 6869SOL     OW27241   0.342   2.546   5.185  0.2321 -0.0620 -0.0939
 6869SOL    HW227242   0.373   2.629   5.149 -0.4707  0.0215 -0.5329
 6869SOL    HW327243   0.394   2.479   5.140  0.3228  0.1061 -0.2398
 6869SOL    MW427244   0.353   2.548   5.175  0.1513 -0.0288 -0.1710
 6870SOL     OW27245   4.602   1.832   1.629  0.3177 -0.5147 -0.3616
 6870SOL    HW227246   4.526   1.796   1.674  0.1869 -0.5982 -0.6463
 6870SOL    HW327247   4.643   1.890   1.693 -1.6178  1.8635 -1.0767
 6870SOL    MW427248   4.597   1.835   1.643  0.0450 -0.2119 -0.4935
 6871SOL     OW27249   3.310   5.911   6.053  0.4867  0.4629  0.1498
 6871SOL    HW227250   3.260   5.883   6.130  1.2086  1.1189  0.8864
 6871SOL    HW327251   3.362   5.835   6.030 -0.4598 -0.0637 -0.3169
 6871SOL    MW427252   3.310   5.897   6.060  0.4570  0.4800  0.1854
 6872SOL     OW27253   0.406   5.044   0.291 -0.1294  0.2952 -0.4070
 6872SOL    HW227254   0.454   5.126   0.286 -0.6467  0.8017  1.9801
 6872SOL    HW327255   0.344   5.048   0.218 -0.7675  2.4770  0.1875
 6872SOL    MW427256   0.404   5.055   0.281 -0.2818  0.6499 -0.0136
 6873SOL     OW27257   5.738   1.938   2.922  0.4693  0.2783 -0.1603
 6873SOL    HW227258   5.717   1.846   2.908  1.2691 -0.0849  0.8828
 6873SOL    HW327259   5.832   1.938   2.942  0.7707  1.4793 -1.4638
 6873SOL    MW427260   5.748   1.926   2.923  0.6146  0.3889 -0.1946
 6874SOL     OW27261   0.646   0.426   5.400  0.1388 -0.4547 -0.6830
 6874SOL    HW227262   0.720   0.374   5.370 -0.9173 -1.4806 -1.5726
 6874SOL    HW327263   0.666   0.446   5.492  3.6951  3.2271 -1.9859
 6874SOL    MW427264   0.658   0.422   5.408  0.4687 -0.1043 -0.9723
 6875SOL     OW27265   0.601   0.809   0.552  0.3058  0.0809 -0.0723
 6875SOL    HW227266   0.545   0.878   0.517 -0.6256  0.2957  1.7091
 6875SOL    HW327267   0.573   0.729   0.508  1.3246  0.7638 -2.0814
 6875SOL    MW427268   0.590   0.807   0.542  0.3173  0.1994 -0.1023
 6876SOL     OW27269   5.315   4.875   5.325  0.1082 -0.8954  0.0555
 6876SOL    HW227270   5.362   4.792   5.325 -0.5796 -1.2938 -0.6776
 6876SOL    HW327271   5.248   4.864   5.393  0.7603 -0.4985  0.7769
 6876SOL    MW427272   5.312   4.863   5.334  0.1035 -0.8956  0.0539
 6877SOL     OW27273   2.890   0.815   2.039 -0.0485 -0.3386 -0.0921
 6877SOL    HW227274   2.810   0.770   2.011 -0.6663 -1.5633  3.1635
 6877SOL    HW327275   2.961   0.763   2.001 -0.7359 -0.0517 -1.8735
 6877SOL    MW427276   2.889   0.802   2.030 -0.2207 -0.4623  0.1024
 6878SOL     OW27277   4.654   0.205   5.010  0.3750 -0.0559  0.1376
 6878SOL    HW227278   4.636   0.176   4.920  1.9518 -1.5864  0.2575
 6878SOL    HW327279   4.698   0.130   5.050  1.0718  1.1647  1.7326
 6878SOL    MW427280   4.657   0.191   5.003  0.6749 -0.0968  0.3639
 6879SOL     OW27281   3.289   1.075   5.477  0.3034 -0.0512 -0.3401
 6879SOL    HW227282   3.306   1.114   5.563 -1.0840  0.2845 -0.1882
 6879SOL    HW327283   3.203   1.034   5.486  1.1530 -2.0396 -0.9006
 6879SOL    MW427284   3.280   1.075   5.490  0.2325 -0.2692 -0.3940
 6880SOL     OW27285   2.075   4.510   0.079  0.3538  0.1106 -0.7324
 6880SOL    HW227286   2.163   4.530   0.111  0.3632  0.9997 -1.2750
 6880SOL    HW327287   2.068   4.557  -0.004 -0.2495 -0.8314 -1.2375
 6880SOL    MW427288   2.086   4.519   0.072  0.2755  0.1036 -0.8706
 6881SOL     OW27289   1.991   6.006   1.744 -0.0650 -0.2797 -0.2992
 6881SOL    HW227290   1.933   6.073   1.708  0.7953  1.0434  0.6975
 6881SOL    HW327291   2.055   5.990   1.675  0.3285  0.6861 -0.1718
 6881SOL    MW427292   1.992   6.013   1.730  0.1004  0.0223 -0.1509
 6882SOL     OW27293   1.576   1.008   0.501 -0.1926  0.3262  0.1576
 6882SOL    HW227294   1.648   1.067   0.477  0.5271 -0.2918  0.7567
 6882SOL    HW327295   1.505   1.067   0.527 -0.0163  0.9496 -0.7163
 6882SOL    MW427296   1.576   1.024   0.501 -0.0744  0.3269  0.1213
 6883SOL     OW27297   3.087   2.858   2.357 -0.3845 -0.4224 -0.3937
 6883SOL    HW227298   3.081   2.785   2.295  2.8354 -0.8082 -0.4064
 6883SOL    HW327299   3.171   2.898   2.338 -1.7195  2.9219  0.1289
 6883SOL    MW427300   3.097   2.853   2.346 -0.1358 -0.0321 -0.3264
 6884SOL     OW27301   0.594   5.198   5.576  0.0804  0.1344  0.3793
 6884SOL    HW227302   0.686   5.178   5.594  0.2226  0.6663  0.2710
 6884SOL    HW327303   0.569   5.262   5.643  0.3727  1.4839 -0.7460
 6884SOL    MW427304   0.603   5.204   5.587  0.1377  0.3826  0.2166
 6885SOL     OW27305   3.841   6.258   3.725  0.2941 -0.1497  0.0460
 6885SOL    HW227306   3.785   6.211   3.663 -0.0755  0.8158 -0.3602
 6885SOL    HW327307   3.828   6.350   3.704 -0.7012  0.2753  2.2861
 6885SOL    MW427308   3.832   6.264   3.714  0.1140  0.0337  0.2880
 6886SOL     OW27309   2.365   0.979   2.508 -0.2956  0.5567 -0.2372
 6886SOL    HW227310   2.340   0.918   2.577 -0.1097  1.6753  0.8440
 6886SOL    HW327311   2.311   1.057   2.524 -1.2572  0.3583 -2.1736
 6886SOL    MW427312   2.354   0.981   2.519 -0.3980  0.6781 -0.3500
 6887SOL     OW27313   4.620   4.097   3.239  0.1099  0.0856 -0.5306
 6887SOL    HW227314   4.549   4.070   3.299  0.2628  0.8611  0.0127
 6887SOL    HW327315   4.685   4.138   3.296 -0.1977  1.7559 -1.3429
 6887SOL    MW427316   4.619   4.099   3.254  0.0895  0.4083 -0.5661
 6888SOL     OW27317   4.935   2.065   5.623 -0.7373  0.1419 -0.7148
 6888SOL    HW227318   4.842   2.081   5.612 -1.0718 -0.6421  0.7026
 6888SOL    HW327319   4.977   2.148   5.599 -1.9437  1.1459  0.4809
 6888SOL    MW427320   4.928   2.078   5.619 -0.9406  0.1709 -0.3701
 6889SOL     OW27321   3.966   4.413   5.913  0.2784  0.4511 -0.0796
 6889SOL    HW227322   4.034   4.365   5.867 -0.3210  0.8614 -1.4277
 6889SOL    HW327323   3.998   4.419   6.003  1.4939 -0.3217 -0.4407
 6889SOL    MW427324   3.979   4.408   5.919  0.3597  0.4033 -0.3051
 6890SOL     OW27325   3.296   1.506   1.228 -0.2392 -0.1094  0.7881
 6890SOL    HW227326   3.235   1.579   1.244 -0.5527 -0.3649  0.7589
 6890SOL    HW327327   3.244   1.441   1.181  0.2273 -0.0674  0.2042
 6890SOL    MW427328   3.281   1.507   1.224 -0.2190 -0.1375  0.7072
 6891SOL     OW27329   3.767   5.486   5.668  0.4336  0.2806 -0.1470
 6891SOL    HW227330   3.769   5.527   5.582 -0.1653 -0.1530 -0.3709
 6891SOL    HW327331   3.805   5.399   5.655  0.1041  0.1172 -0.0249
 6891SOL    MW427332   3.772   5.480   5.655  0.3111  0.2018 -0.1605
 6892SOL     OW27333   4.980   4.345   2.883 -0.1836  0.1806  0.4483
 6892SOL    HW227334   4.974   4.435   2.850 -0.8797  0.1642  0.5167
 6892SOL    HW327335   4.944   4.292   2.813  1.2504 -0.1654 -0.0547
 6892SOL    MW427336   4.974   4.350   2.870 -0.0862  0.1328  0.3909
 6893SOL     OW27337   0.359   0.135   5.684 -0.0959  0.0604  0.2740
 6893SOL    HW227338   0.362   0.158   5.591  1.1734  0.9975  0.5278
 6893SOL    HW327339   0.287   0.188   5.719  0.1716  0.5664  0.0546
 6893SOL    MW427340   0.350   0.145   5.676  0.1068  0.2508  0.2785
 6894SOL     OW27341   1.275   1.530   4.432  0.2423 -0.2821 -0.1768
 6894SOL    HW227342   1.340   1.548   4.365  0.7813  0.9144  0.6403
 6894SOL    HW327343   1.258   1.615   4.473  0.9512 -1.1759  2.1194
 6894SOL    MW427344   1.281   1.544   4.428  0.4070 -0.2422  0.2339
 6895SOL     OW27345   6.232   1.012   2.234  0.5528  0.2618 -0.2673
 6895SOL    HW227346   6.286   0.972   2.302 -1.1137  1.0216  1.5758
 6895SOL    HW327347   6.193   0.937   2.188  0.1155 -0.2621  0.9354
 6895SOL    MW427348   6.234   0.997   2.237  0.2753  0.2929  0.1346
 6896SOL     OW27349   2.956   1.745   2.967  0.2863  0.0973 -0.2767
 6896SOL    HW227350   2.990   1.815   3.022  1.2885 -1.7759  1.6218
 6896SOL    HW327351   2.890   1.701   3.020 -1.3771  0.4291 -1.9711
 6896SOL    MW427352   2.952   1.748   2.981  0.1990 -0.1061 -0.2497
 6897SOL     OW27353   6.341   4.344   3.546  0.3678  0.4782 -0.0276
 6897SOL    HW227354   6.362   4.274   3.485  0.1538  0.6254 -0.2711
 6897SOL    HW327355   6.251   4.367   3.527  0.2998  0.5295  0.3434
 6897SOL    MW427356   6.332   4.338   3.536  0.3306  0.5044 -0.0108
 6898SOL     OW27357   4.138   5.533   1.755  0.0616 -0.1782 -0.3463
 6898SOL    HW227358   4.139   5.628   1.770  2.0994 -0.1558 -0.4127
 6898SOL    HW327359   4.090   5.498   1.830 -0.7128  0.8916 -0.3192
 6898SOL    MW427360   4.132   5.541   1.767  0.2283 -0.0341 -0.3515
 6899SOL     OW27361   3.578   4.437   6.007  0.1020  0.3203  0.2552
 6899SOL    HW227362   3.502   4.481   6.045  2.0238  2.0236  2.3632
 6899SOL    HW327363   3.594   4.363   6.066 -0.0570 -0.2127 -0.3585
 6899SOL    MW427364   3.570   4.433   6.020  0.3346  0.4747  0.4524
 6900SOL     OW27365   1.679   6.208   5.798  0.0890  0.0065 -0.1382
 6900SOL    HW227366   1.770   6.201   5.766 -0.1215  1.1401 -1.0560
 6900SOL    HW327367   1.688   6.208   5.893  1.1511  0.9671 -0.2087
 6900SOL    MW427368   1.692   6.207   5.806  0.2014  0.2828 -0.2686
 6901SOL     OW27369   6.398   5.182   5.405 -0.6334 -0.3351  0.4323
 6901SOL    HW227370   6.465   5.127   5.445 -0.2370  0.2994  0.6636
 6901SOL    HW327371   6.436   5.208   5.321 -0.8194 -0.4159  0.3232
 6901SOL    MW427372   6.412   5.178   5.399 -0.6057 -0.2620  0.4484
 6902SOL     OW27373   4.068   5.370   0.399  0.6702 -0.2804  0.5807
 6902SOL    HW227374   4.117   5.304   0.447  0.3912  0.2487  1.6118
 6902SOL    HW327375   4.011   5.410   0.464  1.1444  1.2772  0.0646
 6902SOL    MW427376   4.067   5.366   0.414  0.6959 -0.0051  0.6487
 6903SOL     OW27377   4.212   0.496   1.834 -0.0654  0.1679  0.2659
 6903SOL    HW227378   4.130   0.464   1.797  0.1076 -0.7151  0.6067
 6903SOL    HW327379   4.266   0.517   1.758 -0.4035  0.2166  0.0352
 6903SOL    MW427380   4.208   0.494   1.819 -0.0872  0.0578  0.2804
 6904SOL     OW27381   4.999   4.397   5.367  0.0272  0.2127  0.2891
 6904SOL    HW227382   5.091   4.373   5.377  0.8544  2.0413 -2.1664
 6904SOL    HW327383   5.000   4.488   5.339 -2.4872  0.0248 -0.7067
 6904SOL    MW427384   5.011   4.406   5.365 -0.1954  0.4292 -0.1663
 6905SOL     OW27385   3.766   3.650   4.825  1.0357  0.2371  0.8009
 6905SOL    HW227386   3.853   3.688   4.841 -0.0559  2.6247  1.4762
 6905SOL    HW327387   3.719   3.662   4.907  0.0428 -1.0651  0.4612
 6905SOL    MW427388   3.772   3.657   4.838  0.7607  0.3803  0.8452
 6906SOL     OW27389   1.060   3.301   0.677 -0.2492  0.1973  0.2472
 6906SOL    HW227390   1.090   3.224   0.627 -0.6131 -0.0164  0.3612
 6906SOL    HW327391   1.079   3.375   0.619  0.4617  0.0659  0.2926
 6906SOL    MW427392   1.067   3.300   0.662 -0.2034  0.1518  0.2683
 6907SOL     OW27393   0.411   0.227   0.550  0.1779  0.3220  0.4733
 6907SOL    HW227394   0.409   0.244   0.455  0.5256  0.1543  0.4355
 6907SOL    HW327395   0.386   0.310   0.589  1.5737  0.8583  0.2808
 6907SOL    MW427396   0.407   0.240   0.542  0.4079  0.3706  0.4429
 6908SOL     OW27397   1.782   3.164   4.922  0.1459  0.3664 -0.2292
 6908SOL    HW227398   1.776   3.201   4.834  1.2859 -0.4020 -0.6531
 6908SOL    HW327399   1.770   3.070   4.909  1.2621  0.1362  0.2924
 6908SOL    MW427400   1.780   3.157   4.909  0.4436  0.2346 -0.2163
 6909SOL     OW27401   0.812   0.074   3.194  0.4030  0.8731 -0.5509
 6909SOL    HW227402   0.739   0.071   3.131 -0.4866  1.1770  0.4365
 6909SOL    HW327403   0.868   0.000   3.169 -1.3290 -0.6780 -0.0760
 6909SOL    MW427404   0.810   0.063   3.182  0.0571  0.7086 -0.3580
 6910SOL     OW27405   3.193   0.714   4.591  0.2663 -0.2120  0.0553
 6910SOL    HW227406   3.202   0.619   4.586 -2.1609 -0.4448 -1.6413
 6910SOL    HW327407   3.099   0.730   4.583  0.6401  2.3554 -0.1938
 6910SOL    MW427408   3.182   0.703   4.589 -0.0046  0.0960 -0.2014
 6911SOL     OW27409   3.959   4.174   3.155 -0.1269 -0.1665 -0.2663
 6911SOL    HW227410   3.987   4.226   3.080  0.0507  0.3672  0.1714
 6911SOL    HW327411   3.869   4.202   3.172 -1.4709 -2.6692 -2.3865
 6911SOL    MW427412   3.951   4.184   3.147 -0.2808 -0.4263 -0.4883
 6912SOL     OW27413   0.570   1.087   5.534  0.6469 -0.3415 -0.1258
 6912SOL    HW227414   0.561   0.992   5.535  0.5156 -0.3305  1.0554
 6912SOL    HW327415   0.481   1.120   5.543  0.7569 -0.1075  0.1049
 6912SOL    MW427416   0.557   1.079   5.535  0.6441 -0.3092  0.0605
 6913SOL     OW27417   3.979   2.396   1.545 -0.7559 -0.0492 -0.0260
 6913SOL    HW227418   3.951   2.378   1.456  0.0193 -1.5130 -0.0128
 6913SOL    HW327419   3.911   2.357   1.600  0.5896 -2.5833 -0.0029
 6913SOL    MW427420   3.966   2.388   1.541 -0.4761 -0.5767 -0.0212
 6914SOL     OW27421   4.917   2.367   6.136 -0.1199  0.2535 -0.8815
 6914SOL    HW227422   4.871   2.309   6.197  0.0874 -0.6143 -1.5302
 6914SOL    HW327423   4.986   2.313   6.099  0.4017  1.0731 -1.1333
 6914SOL    MW427424   4.920   2.352   6.139 -0.0237  0.2471 -1.0003
 6915SOL     OW27425   4.658   0.855   1.304  0.2434  0.2908 -0.5668
 6915SOL    HW227426   4.659   0.761   1.285  0.6005  0.2429 -0.3346
 6915SOL    HW327427   4.749   0.875   1.328  0.0078  0.5334  0.1596
 6915SOL    MW427428   4.670   0.845   1.305  0.2594  0.3165 -0.4403
 6916SOL     OW27429   5.520   2.965   1.336  0.9198  0.0047 -0.4749
 6916SOL    HW227430   5.469   2.893   1.300 -0.4165  0.4475  0.4539
 6916SOL    HW327431   5.562   3.006   1.260  1.1943 -1.3580 -1.0761
 6916SOL    MW427432   5.519   2.961   1.321  0.7797 -0.1167 -0.4317
 6917SOL     OW27433   2.269   4.769   2.776 -0.2759  0.2367  0.0318
 6917SOL    HW227434   2.339   4.782   2.839 -0.2883  0.6561 -0.0403
 6917SOL    HW327435   2.210   4.705   2.817  0.1845 -0.1784  0.0580
 6917SOL    MW427436   2.270   4.762   2.789 -0.2168  0.2372  0.0258
 6918SOL     OW27437   1.171   1.539   4.880  0.0619 -0.0351  0.6080
 6918SOL    HW227438   1.237   1.483   4.838 -0.6355 -2.0073  1.9473
 6918SOL    HW327439   1.201   1.545   4.971  0.0968  1.8204  0.4976
 6918SOL    MW427440   1.184   1.532   4.887 -0.0255 -0.0505  0.7702
 6919SOL     OW27441   0.877   4.620   1.522 -0.3351 -0.0302  0.0962
 6919SOL    HW227442   0.826   4.698   1.499 -1.3781 -0.7248 -0.0226
 6919SOL    HW327443   0.857   4.557   1.453  1.5608  0.0246 -0.5643
 6919SOL    MW427444   0.867   4.622   1.510 -0.2225 -0.1146 -0.0066
 6920SOL     OW27445   6.150   1.991   6.105  0.2791 -0.0028  0.6889
 6920SOL    HW227446   6.141   2.073   6.155 -1.5461  0.4488 -0.2863
 6920SOL    HW327447   6.178   2.019   6.018  2.1663 -0.6763  1.0485
 6920SOL    MW427448   6.152   2.006   6.100  0.2873 -0.0321  0.6077
 6921SOL     OW27449   4.084   6.105   3.641 -0.0405 -0.0652 -0.2050
 6921SOL    HW227450   4.075   6.148   3.556 -1.1441 -2.5853 -1.4719
 6921SOL    HW327451   4.020   6.150   3.697 -0.1908  0.8164 -1.0502
 6921SOL    MW427452   4.074   6.117   3.637 -0.2059 -0.2814 -0.4837
 6922SOL     OW27453   4.195   6.257   5.397  0.1094 -0.2703  0.1709
 6922SOL    HW227454   4.197   6.273   5.303 -0.2006 -2.6153 -0.2825
 6922SOL    HW327455   4.103   6.272   5.422  0.0008 -0.5120 -0.0775
 6922SOL    MW427456   4.183   6.261   5.388  0.0541 -0.6116  0.0783
 6923SOL     OW27457   5.124   2.732   0.398  0.3715 -0.1804  0.4540
 6923SOL    HW227458   5.136   2.805   0.459 -1.2468 -0.2038  0.8626
 6923SOL    HW327459   5.212   2.704   0.376  1.0072  0.4615  2.0401
 6923SOL    MW427460   5.137   2.738   0.403  0.2419 -0.0988  0.7172
 6924SOL     OW27461   5.573   1.018   5.297 -0.1238  0.4323 -0.0713
 6924SOL    HW227462   5.554   0.924   5.292  0.1826  0.2929  1.1595
 6924SOL    HW327463   5.647   1.030   5.238 -1.6829  0.3537 -2.1491
 6924SOL    MW427464   5.580   1.007   5.289 -0.2891  0.4035 -0.1831
 6925SOL     OW27465   0.172   2.482   2.711 -0.0960 -0.6214  0.3829
 6925SOL    HW227466   0.184   2.570   2.746  1.1064 -0.0046 -1.4148
 6925SOL    HW327467   0.241   2.430   2.752  2.0911  0.3746 -1.8097
 6925SOL    MW427468   0.183   2.487   2.721  0.3512 -0.4086 -0.1436
 6926SOL     OW27469   3.896   0.119   3.005 -0.0223 -0.2517 -0.5871
 6926SOL    HW227470   3.964   0.136   2.941  1.2386 -3.8221 -0.4157
 6926SOL    HW327471   3.922   0.037   3.047 -2.8211 -0.1237  1.7324
 6926SOL    MW427472   3.908   0.110   3.002 -0.2252 -0.7059 -0.2585
 6927SOL     OW27473   0.985   2.323   0.917  0.0894  1.1667  0.2113
 6927SOL    HW227474   0.942   2.281   0.991  1.2186  2.3460  1.6060
 6927SOL    HW327475   1.019   2.405   0.952  2.8389  0.6430 -0.9325
 6927SOL    MW427476   0.984   2.328   0.931  0.6011  1.2532  0.2444
 6928SOL     OW27477   4.486   2.183   3.521  0.2831 -0.3826 -0.2511
 6928SOL    HW227478   4.541   2.244   3.572  0.4337 -0.5856 -0.1690
 6928SOL    HW327479   4.478   2.106   3.577  0.8760 -0.8131 -0.7515
 6928SOL    MW427480   4.492   2.181   3.535  0.3812 -0.4662 -0.3063
 6929SOL     OW27481   1.737   4.209   6.392 -0.4303 -0.0727 -0.6372
 6929SOL    HW227482   1.644   4.227   6.409 -0.3291  0.2360 -0.3967
 6929SOL    HW327483   1.745   4.114   6.398 -0.6499 -0.0673 -0.2345
 6929SOL    MW427484   1.726   4.199   6.395 -0.4459 -0.0312 -0.5523
 6930SOL     OW27485   4.194   1.070   2.651 -0.0205 -0.1605 -0.4312
 6930SOL    HW227486   4.188   1.162   2.674 -0.4815 -0.3152  0.0823
 6930SOL    HW327487   4.117   1.053   2.596  0.3864 -0.0994 -1.0277
 6930SOL    MW427488   4.183   1.080   2.647 -0.0277 -0.1728 -0.4422
 6931SOL     OW27489   0.099   0.667   0.479 -0.3741 -0.5507 -0.9418
 6931SOL    HW227490   0.061   0.722   0.548  0.0642 -0.7769 -0.5159
 6931SOL    HW327491   0.128   0.729   0.412  1.7964 -0.0835  0.3446
 6931SOL    MW427492   0.098   0.682   0.479 -0.0299 -0.5189 -0.7159
 6932SOL     OW27493   5.087   0.471   0.444 -0.4536  0.4617  0.2773
 6932SOL    HW227494   5.150   0.533   0.481 -0.8833  0.8630  0.3385
 6932SOL    HW327495   5.045   0.431   0.520 -1.6752  1.6302  0.2543
 6932SOL    MW427496   5.090   0.474   0.459 -0.6714  0.6688  0.2823
 6933SOL     OW27497   6.104   5.443   6.214 -0.0529  0.2249 -0.2450
 6933SOL    HW227498   6.027   5.393   6.241  0.2544  0.2037  0.6273
 6933SOL    HW327499   6.141   5.392   6.141  1.1756 -1.7780  1.6291
 6933SOL    MW427500   6.099   5.429   6.208  0.1497 -0.0422  0.1174
 6934SOL     OW27501   3.772   0.746   0.309  0.3775  0.1862 -0.2827
 6934SOL    HW227502   3.734   0.675   0.258 -0.6410  0.2881  0.3034
 6934SOL    HW327503   3.737   0.826   0.269 -0.4343  0.2675  0.5457
 6934SOL    MW427504   3.763   0.747   0.297  0.1360  0.2104 -0.0961
 6935SOL     OW27505   4.958   4.955   2.604 -0.2219  0.1299 -0.2845
 6935SOL    HW227506   4.973   4.879   2.548 -1.6389  0.7005 -1.5061
 6935SOL    HW327507   4.949   5.028   2.543 -1.0797  0.8951  0.7251
 6935SOL    MW427508   4.959   4.954   2.589 -0.5221  0.3061 -0.3125
 6936SOL     OW27509   2.662   1.181   3.419 -0.2373 -0.7691  0.1681
 6936SOL    HW227510   2.681   1.167   3.327 -1.4016  0.9865 -0.4036
 6936SOL    HW327511   2.573   1.149   3.431 -0.6107  0.2611  0.3090
 6936SOL    MW427512   2.653   1.175   3.409 -0.4402 -0.4015  0.1112
 6937SOL     OW27513   3.358   0.420   5.613 -0.4914  0.2523  0.0048
 6937SOL    HW227514   3.322   0.342   5.572  1.1918 -0.1718 -0.7876
 6937SOL    HW327515   3.380   0.478   5.540  2.1738 -0.3392  0.2135
 6937SOL    MW427516   3.356   0.418   5.598  0.0823  0.1183 -0.0722
 6938SOL     OW27517   2.082   4.602   2.600  0.0031  0.1229  0.2013
 6938SOL    HW227518   2.068   4.694   2.622 -3.7781 -0.0849 -0.5993
 6938SOL    HW327519   2.036   4.590   2.517  0.0039 -2.5619  0.4844
 6938SOL    MW427520   2.074   4.612   2.592 -0.4956 -0.2588  0.1330
 6939SOL     OW27521   4.535   5.174   3.328 -0.0749  0.3531 -0.3316
 6939SOL    HW227522   4.526   5.130   3.244 -0.3493  2.7639 -1.6231
 6939SOL    HW327523   4.447   5.207   3.348 -0.0502 -0.2880  0.9989
 6939SOL    MW427524   4.522   5.172   3.320 -0.1079  0.5866 -0.3264
 6940SOL     OW27525   3.785   6.167   0.556 -0.1028 -0.1675 -0.1630
 6940SOL    HW227526   3.767   6.179   0.650 -0.5843  1.9054 -0.4708
 6940SOL    HW327527   3.764   6.075   0.539  1.1468 -0.9312  1.9878
 6940SOL    MW427528   3.780   6.156   0.566 -0.0015  0.0052  0.0802
 6941SOL     OW27529   2.318   3.217   4.388 -0.7061 -0.2373  0.2399
 6941SOL    HW227530   2.240   3.162   4.401 -1.2785  0.6690  0.8105
 6941SOL    HW327531   2.335   3.213   4.294 -1.8052  0.0098  0.0162
 6941SOL    MW427532   2.310   3.209   4.377 -0.9267 -0.0851  0.2857
 6942SOL     OW27533   2.015   0.174   5.897  0.0817  0.5522  0.2193
 6942SOL    HW227534   2.017   0.237   5.969  0.4886  1.7969 -0.8517
 6942SOL    HW327535   2.066   0.100   5.930 -1.0546  0.3983  1.7936
 6942SOL    MW427536   2.022   0.172   5.911 -0.0145  0.6961  0.2857
 6943SOL     OW27537   2.663   2.349   5.242 -0.0242  0.1254  0.1039
 6943SOL    HW227538   2.573   2.337   5.273  0.1098 -2.6961 -0.2910
 6943SOL    HW327539   2.698   2.260   5.238  3.5839  1.2602  2.4558
 6943SOL    MW427540   2.655   2.335   5.245  0.4695 -0.0972  0.3621
 6944SOL     OW27541   4.481   3.481   3.782  0.3221 -0.1140  0.3688
 6944SOL    HW227542   4.495   3.387   3.771 -0.0581 -0.0945 -0.3729
 6944SOL    HW327543   4.477   3.515   3.693 -0.4687  0.4634  0.6123
 6944SOL    MW427544   4.482   3.473   3.769  0.1676 -0.0352  0.3031
 6945SOL     OW27545   5.086   4.453   4.381 -0.0514 -0.1081 -0.0755
 6945SOL    HW227546   5.040   4.513   4.439 -0.6806 -1.1177  0.4927
 6945SOL    HW327547   5.153   4.412   4.437 -1.0713 -1.5553  0.1600
 6945SOL    MW427548   5.089   4.455   4.396 -0.2690 -0.4322  0.0305
 6946SOL     OW27549   6.159   4.357   0.464  0.1085 -0.2118  0.0403
 6946SOL    HW227550   6.081   4.399   0.500  0.4321 -1.1629  1.9965
 6946SOL    HW327551   6.125   4.286   0.410 -0.4022  1.5758 -2.1295
 6946SOL    MW427552   6.145   4.353   0.461  0.0838 -0.1015  0.0121
 6947SOL     OW27553   4.132   5.981   6.110  0.6002 -0.1698 -0.2068
 6947SOL    HW227554   4.181   5.967   6.029 -0.1344  0.4191 -0.7715
 6947SOL    HW327555   4.199   5.982   6.179  1.0427 -3.1215 -0.4545
 6947SOL    MW427556   4.147   5.979   6.108  0.5617 -0.4816 -0.3140
 6948SOL     OW27557   1.573   2.145   2.331 -0.4834  0.1968 -0.5663
 6948SOL    HW227558   1.627   2.189   2.265 -0.7774 -1.7466 -2.2206
 6948SOL    HW327559   1.636   2.110   2.394  0.0147  0.0133 -1.1525
 6948SOL    MW427560   1.589   2.146   2.330 -0.4565 -0.0838 -0.8619
 6949SOL     OW27561   3.252   0.349   3.083  0.1944  0.0691 -0.6184
 6949SOL    HW227562   3.206   0.267   3.102  1.2112 -0.4880 -0.5157
 6949SOL    HW327563   3.211   0.381   3.003 -0.4548 -0.3528 -0.4631
 6949SOL    MW427564   3.241   0.342   3.075  0.2429 -0.0601 -0.5844
 6950SOL     OW27565   5.869   1.413   0.878 -0.0137 -0.2026  0.3386
 6950SOL    HW227566   5.906   1.334   0.917  0.2455  1.0964  2.9272
 6950SOL    HW327567   5.799   1.439   0.938  0.0898  1.6830 -0.2925
 6950SOL    MW427568   5.865   1.406   0.891  0.0342  0.2176  0.5969
 6951SOL     OW27569   3.576   1.909   6.281  0.4244  0.2570  0.1244
 6951SOL    HW227570   3.565   1.991   6.232 -0.4082  0.6776  0.9829
 6951SOL    HW327571   3.654   1.869   6.243 -0.3916  0.3737 -1.8150
 6951SOL    MW427572   3.585   1.915   6.269  0.2069  0.3279 -0.0182
 6952SOL     OW27573   1.540   1.590   4.991  0.3729 -0.7312 -0.2159
 6952SOL    HW227574   1.546   1.498   4.965 -0.7721 -0.1887 -2.7184
 6952SOL    HW327575   1.476   1.590   5.062 -0.3298 -1.7975 -0.8047
 6952SOL    MW427576   1.532   1.578   4.997  0.1291 -0.8003 -0.6237
 6953SOL     OW27577   1.749   4.215   6.089 -0.1507  0.5162 -0.5498
 6953SOL    HW227578   1.812   4.286   6.095  0.0355  0.2855  0.3751
 6953SOL    HW327579   1.744   4.180   6.178 -0.3531 -0.5244 -0.9587
 6953SOL    MW427580   1.756   4.220   6.101 -0.1528  0.3485 -0.4817
 6954SOL     OW27581   1.952   6.242   4.552  0.0321  0.0123 -0.2942
 6954SOL    HW227582   1.994   6.237   4.638  0.2833  0.0529 -0.4123
 6954SOL    HW327583   1.873   6.189   4.560 -0.1013  0.2630  0.0501
 6954SOL    MW427584   1.947   6.234   4.564  0.0477  0.0507 -0.2644
 6955SOL     OW27585   4.368   1.771   3.523  0.3762 -0.0753  0.3328
 6955SOL    HW227586   4.407   1.855   3.548  1.9891 -0.6115 -0.2716
 6955SOL    HW327587   4.390   1.712   3.595 -1.9544  0.2767  1.4508
 6955SOL    MW427588   4.376   1.775   3.536  0.2815 -0.0996  0.4006
 6956SOL     OW27589   5.343   0.208   2.158  0.0351 -0.0529 -0.0877
 6956SOL    HW227590   5.296   0.228   2.239 -0.0334 -0.2156 -0.0873
 6956SOL    HW327591   5.301   0.263   2.092  1.1093  1.2512  0.2844
 6956SOL    MW427592   5.331   0.218   2.160  0.1678  0.0977 -0.0386
 6957SOL     OW27593   1.486   0.002   0.178  0.4590  0.0416 -0.0204
 6957SOL    HW227594   1.464   0.019   0.270  1.5088 -0.1864  0.2852
 6957SOL    HW327595   1.554   0.066   0.157 -0.1661  0.4689 -0.8226
 6957SOL    MW427596   1.492   0.012   0.187  0.5150  0.0679 -0.0859
 6958SOL     OW27597   4.279   4.768   4.734 -0.5666 -0.0418  0.1659
 6958SOL    HW227598   4.366   4.782   4.696 -0.6790  0.4728  0.0896
 6958SOL    HW327599   4.224   4.834   4.692 -1.0212 -0.4459  0.1229
 6958SOL    MW427600   4.283   4.779   4.723 -0.6414 -0.0272  0.1501
 6959SOL     OW27601   4.668   0.161   5.470  0.7630 -0.3859  0.0303
 6959SOL    HW227602   4.654   0.246   5.429  0.8433 -0.1869  0.4083
 6959SOL    HW327603   4.580   0.123   5.477  0.9029 -1.1158 -1.7716
 6959SOL    MW427604   4.654   0.167   5.466  0.7921 -0.4559 -0.1576
 6960SOL     OW27605   3.610   1.232   5.992  0.1537 -0.0370  0.3334
 6960SOL    HW227606   3.640   1.294   5.926 -2.4117  0.2162 -0.7251
 6960SOL    HW327607   3.634   1.146   5.957 -0.4078  0.1444 -0.5304
 6960SOL    MW427608   3.617   1.229   5.979 -0.2589  0.0203  0.0798
 6961SOL     OW27609   0.366   4.508   6.010  0.4064 -0.2537  0.1118
 6961SOL    HW227610   0.296   4.559   6.050  2.6233  1.7086  1.8198
 6961SOL    HW327611   0.381   4.548   5.925  0.3106  0.1684  0.2930
 6961SOL    MW427612   0.359   4.520   6.004  0.6862  0.0609  0.3610
 6962SOL     OW27613   3.188   3.884   6.365 -0.7482  0.4467  0.2433
 6962SOL    HW227614   3.108   3.932   6.345 -2.2958 -2.4438 -1.1800
 6962SOL    HW327615   3.174   3.850   6.453 -1.1517 -0.0799 -0.0146
 6962SOL    MW427616   3.176   3.886   6.374 -1.0057 -0.0041  0.0214
 6963SOL     OW27617   1.296   3.972   0.974 -0.0175  0.0208 -0.0927
 6963SOL    HW227618   1.234   4.040   0.950 -0.8357 -0.6575  0.0775
 6963SOL    HW327619   1.343   4.008   1.050  0.1227  0.7208 -0.5128
 6963SOL    MW427620   1.294   3.985   0.981 -0.1070  0.0237 -0.1256
 6964SOL     OW27621   3.550   5.644   2.868 -0.3443 -0.0247  0.2789
 6964SOL    HW227622   3.520   5.575   2.927 -0.9031  0.5712  0.7119
 6964SOL    HW327623   3.513   5.620   2.782 -0.1398 -0.5049  0.3208
 6964SOL    MW427624   3.541   5.632   2.864 -0.3911 -0.0094  0.3416
 6965SOL     OW27625   2.064   2.742   1.430 -0.1426 -0.0697  0.0563
 6965SOL    HW227626   2.126   2.806   1.395  0.1159 -1.7413 -2.8729
 6965SOL    HW327627   2.066   2.670   1.367 -2.0294 -2.0170  2.0524
 6965SOL    MW427628   2.073   2.741   1.417 -0.3574 -0.5472 -0.0668
 6966SOL     OW27629   2.877   6.236   0.991  0.1208  0.3952  0.6935
 6966SOL    HW227630   2.928   6.306   0.950 -0.0364  0.3702  0.4557
 6966SOL    HW327631   2.820   6.203   0.921  1.9023 -1.6529  0.0882
 6966SOL    MW427632   2.876   6.241   0.976  0.3351  0.1217  0.5823
 6967SOL     OW27633   3.166   0.598   1.012 -0.3100 -0.5495 -0.8959
 6967SOL    HW227634   3.091   0.543   1.034  0.1164 -1.2891 -1.2484
 6967SOL    HW327635   3.188   0.642   1.093 -0.3858 -1.2441 -0.4893
 6967SOL    MW427636   3.159   0.597   1.025 -0.2638 -0.7387 -0.8888
 6968SOL     OW27637   2.923   2.650   5.808  0.6359  0.6996  0.0508
 6968SOL    HW227638   2.889   2.564   5.831 -0.0373  1.3547  1.6638
 6968SOL    HW327639   2.967   2.680   5.887 -0.7908  2.6188  0.1764
 6968SOL    MW427640   2.925   2.643   5.821  0.3588  1.0393  0.2802
 6969SOL     OW27641   4.227   4.291   5.289  0.2162 -0.3798  0.0565
 6969SOL    HW227642   4.247   4.250   5.205  2.3293 -0.6945  0.6370
 6969SOL    HW327643   4.291   4.363   5.295 -2.5990  2.3765 -0.4129
 6969SOL    MW427644   4.238   4.295   5.279  0.1236 -0.0577  0.0712
 6970SOL     OW27645   1.250   6.276   0.138 -0.3522 -0.3281  0.0245
 6970SOL    HW227646   1.329   6.330   0.142 -1.7659  2.2856 -3.2323
 6970SOL    HW327647   1.257   6.229   0.056 -2.6227  0.8980 -0.9610
 6970SOL    MW427648   1.261   6.277   0.128 -0.8383  0.1785 -0.5352
 6971SOL     OW27649   6.249   0.786   3.642  0.1746  0.7344 -0.0410
 6971SOL    HW227650   6.202   0.729   3.581  1.1035  0.6722 -0.7192
 6971SOL    HW327651   6.328   0.811   3.595  1.3673 -0.0311  1.4601
 6971SOL    MW427652   6.253   0.782   3.628  0.4545  0.6252  0.0676
 6972SOL     OW27653   6.365   3.765   4.852 -0.1030 -0.4024  0.1469
 6972SOL    HW227654   6.287   3.721   4.817  0.2223 -0.2840 -0.7476
 6972SOL    HW327655   6.401   3.703   4.915 -1.1057 -0.3185  0.8330
 6972SOL    MW427656   6.359   3.751   4.856 -0.1923 -0.3757  0.1194
 6973SOL     OW27657   0.953   0.589   4.333 -0.4476 -0.3365 -0.7273
 6973SOL    HW227658   0.949   0.533   4.411 -1.8880  2.0271  1.0262
 6973SOL    HW327659   0.891   0.659   4.351  0.7179  1.4400 -3.1255
 6973SOL    MW427660   0.944   0.590   4.346 -0.4839  0.2097 -0.8124
 6974SOL     OW27661   4.694   6.280   4.382  0.3812  0.4791 -0.5604
 6974SOL    HW227662   4.726   6.369   4.366 -2.2657  1.9321  1.5263
 6974SOL    HW327663   4.606   6.279   4.343 -0.4052 -0.5306  1.1644
 6974SOL    MW427664   4.687   6.292   4.375 -0.0718  0.5376 -0.0575
 6975SOL     OW27665   1.918   2.516   5.674  0.1792 -0.0951 -0.2658
 6975SOL    HW227666   1.898   2.471   5.592  0.1981 -0.6265  0.0154
 6975SOL    HW327667   1.905   2.450   5.742 -0.0430  0.3928  0.1836
 6975SOL    MW427668   1.914   2.502   5.672  0.1524 -0.1009 -0.1694
 6976SOL     OW27669   2.200   6.338   3.154 -0.0569 -0.5321  0.4086
 6976SOL    HW227670   2.291   6.316   3.131  0.3085  1.1193  0.1541
 6976SOL    HW327671   2.176   6.407   3.092 -1.1536 -0.2511  1.1290
 6976SOL    MW427672   2.209   6.344   3.143 -0.1534 -0.2772  0.4701
 6977SOL     OW27673   4.104   2.256   5.619 -0.1151  0.3664 -0.2165
 6977SOL    HW227674   4.061   2.253   5.533 -0.8991  0.9113  0.1473
 6977SOL    HW327675   4.185   2.206   5.607 -1.0091 -1.0017 -0.8160
 6977SOL    MW427676   4.109   2.249   5.606 -0.3365  0.2578 -0.2476
 6978SOL     OW27677   2.037   3.694   5.269  0.2723 -0.2380  0.1282
 6978SOL    HW227678   2.050   3.607   5.307  0.2368 -0.0145  0.6649
 6978SOL    HW327679   2.058   3.683   5.176  1.5436 -0.5307  0.4224
 6978SOL    MW427680   2.042   3.681   5.262  0.4354 -0.2471  0.2378
 6979SOL     OW27681   2.240   5.049   3.879  0.3222  0.0028  0.1248
 6979SOL    HW227682   2.262   5.085   3.965  1.3263  2.3327 -1.0389
 6979SOL    HW327683   2.156   5.004   3.893 -0.1771  1.4124  2.0547
 6979SOL    MW427684   2.232   5.048   3.892  0.3888  0.4962  0.2259
 6980SOL     OW27685   4.003   5.906   0.742 -0.4393 -1.0666  0.1912
 6980SOL    HW227686   4.025   5.987   0.695 -0.8110 -1.7291 -1.1559
 6980SOL    HW327687   3.922   5.876   0.702 -0.4279 -2.0059  0.8435
 6980SOL    MW427688   3.995   5.913   0.731 -0.4868 -1.2780  0.0995
 6981SOL     OW27689   1.640   2.894   4.223  0.1893 -0.1178  0.0563
 6981SOL    HW227690   1.621   2.809   4.261 -0.2590  0.1437  0.4287
 6981SOL    HW327691   1.733   2.890   4.200  0.2937 -0.5253  0.5436
 6981SOL    MW427692   1.650   2.882   4.225  0.1439 -0.1370  0.1698
 6982SOL     OW27693   4.266   4.710   3.123  0.2710  0.1480  0.0724
 6982SOL    HW227694   4.186   4.749   3.089 -0.6395 -2.5682 -1.1941
 6982SOL    HW327695   4.328   4.713   3.050  0.8128  0.7684  0.5365
 6982SOL    MW427696   4.264   4.716   3.109  0.2223 -0.1285 -0.0335
 6983SOL     OW27697   5.498   4.096   3.634 -0.2596 -0.3134 -0.4119
 6983SOL    HW227698   5.435   4.055   3.694  0.7245  0.7295  1.4306
 6983SOL    HW327699   5.542   4.023   3.591 -1.8952 -1.0700 -0.8710
 6983SOL    MW427700   5.495   4.081   3.636 -0.3456 -0.2757 -0.2294
 6984SOL     OW27701   4.326   2.119   3.160  0.0934 -0.7762  0.3017
 6984SOL    HW227702   4.278   2.076   3.230  0.0780 -0.9819  0.1641
 6984SOL    HW327703   4.390   2.054   3.130 -0.9819 -1.2796 -0.9808
 6984SOL    MW427704   4.328   2.105   3.165 -0.0505 -0.8698  0.1144
 6985SOL     OW27705   0.108   5.861   0.445 -0.8097 -0.1583  0.2435
 6985SOL    HW227706   0.099   5.872   0.540 -1.2881  0.1399  0.1686
 6985SOL    HW327707   0.037   5.914   0.408 -0.4775 -0.0743 -0.2889
 6985SOL    MW427708   0.097   5.870   0.453 -0.8290 -0.1079  0.1634
 6986SOL     OW27709   0.160   1.986   5.054 -0.2248 -0.4969  0.4717
 6986SOL    HW227710   0.070   1.955   5.059 -0.4075 -0.2090 -0.7148
 6986SOL    HW327711   0.199   1.960   5.137 -0.7026 -2.8128  0.0375
 6986SOL    MW427712   0.153   1.978   5.066 -0.3120 -0.7644  0.2578
 6987SOL     OW27713   6.191   5.583   3.537 -0.3584 -0.3619 -0.0121
 6987SOL    HW227714   6.189   5.519   3.608  0.6318 -2.1866 -1.5116
 6987SOL    HW327715   6.110   5.569   3.489 -0.9581  0.7646  0.6410
 6987SOL    MW427716   6.180   5.573   3.540 -0.3069 -0.4540 -0.1237
 6988SOL     OW27717   1.426   2.978   6.146  0.2551 -0.4569 -0.1833
 6988SOL    HW227718   1.467   3.060   6.174  1.1739 -1.5061  1.7396
 6988SOL    HW327719   1.332   2.996   6.146  0.4090  0.4044  0.9015
 6988SOL    MW427720   1.419   2.991   6.150  0.3966 -0.4817  0.2135
 6989SOL     OW27721   5.111   3.978   0.579 -0.1808 -0.4563  0.8863
 6989SOL    HW227722   5.192   3.945   0.539  0.5488  0.2932  1.7065
 6989SOL    HW327723   5.138   4.057   0.625 -1.8907  1.3996 -1.0981
 6989SOL    MW427724   5.125   3.984   0.580 -0.3101 -0.1125  0.7327
 6990SOL     OW27725   3.919   3.766   5.696 -0.4021 -0.2328 -0.1009
 6990SOL    HW227726   3.845   3.713   5.666 -2.1738  0.8036  2.1027
 6990SOL    HW327727   3.946   3.816   5.619 -1.2244 -1.4729 -1.2323
 6990SOL    MW427728   3.913   3.766   5.682 -0.7443 -0.2596  0.0405
 6991SOL     OW27729   2.473   4.634   3.653 -0.2114  0.3259  0.3032
 6991SOL    HW227730   2.472   4.551   3.701  2.8683 -0.0651 -0.1289
 6991SOL    HW327731   2.496   4.610   3.564  0.2026  1.5943  0.0416
 6991SOL    MW427732   2.476   4.620   3.648  0.2495  0.4417  0.2116
 6992SOL     OW27733   1.863   0.933   1.894  0.1719  0.8311  0.2044
 6992SOL    HW227734   1.888   1.023   1.874  0.5050  0.6184 -0.3435
 6992SOL    HW327735   1.935   0.898   1.947  1.7259 -0.1741 -2.3923
 6992SOL    MW427736   1.876   0.940   1.898  0.4209  0.6704 -0.2105
 6993SOL     OW27737   0.550   0.771   6.047  0.0232  0.1311  0.2468
 6993SOL    HW227738   0.617   0.838   6.032  0.8396 -0.7123  0.0013
 6993SOL    HW327739   0.599   0.693   6.075 -0.9030 -0.3621  0.5693
 6993SOL    MW427740   0.565   0.769   6.049  0.0087 -0.0452  0.2569
 6994SOL     OW27741   4.421   2.828   2.530  0.2216  0.3711 -0.2593
 6994SOL    HW227742   4.367   2.783   2.465 -1.5106  1.5798  0.2661
 6994SOL    HW327743   4.407   2.921   2.512  1.5093  0.7157  0.4309
 6994SOL    MW427744   4.412   2.835   2.519  0.1630  0.5760 -0.0989
 6995SOL     OW27745   1.909   5.264   2.992  0.2148  0.3710  0.2360
 6995SOL    HW227746   1.991   5.294   2.952  1.4815 -0.0990  2.2926
 6995SOL    HW327747   1.902   5.173   2.965  0.1284  0.5268 -0.2864
 6995SOL    MW427748   1.919   5.256   2.983  0.3705  0.3295  0.4384
 6996SOL     OW27749   1.069   5.942   4.400 -0.0848  0.3404  0.0011
 6996SOL    HW227750   0.988   5.923   4.448 -0.7104 -1.7643 -1.7166
 6996SOL    HW327751   1.054   6.027   4.359 -0.1670  1.4123  2.1096
 6996SOL    MW427752   1.056   5.950   4.401 -0.1782  0.2041  0.0526
 6997SOL     OW27753   2.314   4.234   0.868  0.0476 -0.1559  0.4326
 6997SOL    HW227754   2.381   4.234   0.936  1.1607  1.0229 -0.5974
 6997SOL    HW327755   2.282   4.324   0.866  1.5825  0.4476 -1.9634
 6997SOL    MW427756   2.319   4.245   0.877  0.3969  0.0792 -0.0194
 6998SOL     OW27757   1.681   5.526   4.391  0.6614 -0.2291 -0.1589
 6998SOL    HW227758   1.756   5.467   4.396 -0.1629 -1.2257  0.8301
 6998SOL    HW327759   1.679   5.569   4.477  0.5460  0.3553 -0.4512
 6998SOL    MW427760   1.690   5.524   4.403  0.5374 -0.2835 -0.0670
 6999SOL     OW27761   3.730   4.401   0.468 -0.1799 -0.2545 -0.2177
 6999SOL    HW227762   3.765   4.480   0.429 -0.1789 -0.3861 -0.4857
 6999SOL    HW327763   3.697   4.350   0.394  0.6794 -0.9316 -0.1433
 6999SOL    MW427764   3.730   4.405   0.453 -0.0664 -0.3612 -0.2433
 7000SOL     OW27765   0.195   5.895   4.873  0.0546 -0.0598 -0.2676
 7000SOL    HW227766   0.213   5.987   4.893 -0.5827 -0.0376  0.2490
 7000SOL    HW327767   0.165   5.858   4.956 -2.6057  0.0184 -1.0797
 7000SOL    MW427768   0.193   5.902   4.887 -0.3805 -0.0466 -0.3066
 7001SOL     OW27769   4.763   3.011   2.354  0.1658  0.5613  0.2733
 7001SOL    HW227770   4.844   2.962   2.369  1.2314  2.3309  0.5202
 7001SOL    HW327771   4.732   3.033   2.442 -0.5670 -0.0473  0.1774
 7001SOL    MW427772   4.770   3.007   2.368  0.2097  0.7145  0.2932
 7002SOL     OW27773   2.539   3.323   1.286 -0.1127  0.9088 -0.3170
 7002SOL    HW227774   2.524   3.410   1.249  2.4338  1.4717 -0.2613
 7002SOL    HW327775   2.489   3.323   1.368  1.2768  3.1189  0.6485
 7002SOL    MW427776   2.530   3.335   1.292  0.4066  1.2747 -0.1823
 7003SOL     OW27777   6.249   3.211   0.832 -0.0097 -0.3399  0.8026
 7003SOL    HW227778   6.230   3.159   0.753 -2.5183 -0.5175  1.4340
 7003SOL    HW327779   6.252   3.147   0.903 -0.5963  0.0880  1.2265
 7003SOL    MW427780   6.247   3.196   0.831 -0.4181 -0.3069  0.9419
 7004SOL     OW27781   2.579   3.270   2.337  0.6095  0.0039 -0.0376
 7004SOL    HW227782   2.619   3.186   2.316 -0.2093 -0.1941 -0.8851
 7004SOL    HW327783   2.499   3.272   2.284  1.2387  1.8410 -1.0090
 7004SOL    MW427784   2.573   3.259   2.327  0.5845  0.2201 -0.2776
 7005SOL     OW27785   5.389   1.214   2.980  0.4221  1.0852  0.4364
 7005SOL    HW227786   5.364   1.245   3.067  1.3132  0.3764  0.9620
 7005SOL    HW327787   5.473   1.170   2.993 -0.8067 -1.7226 -0.1990
 7005SOL    MW427788   5.397   1.212   2.993  0.3775  0.6212  0.4219
 7006SOL     OW27789   3.075   0.733   0.230 -0.4025  0.4414  0.4223
 7006SOL    HW227790   3.013   0.728   0.157 -0.9658  1.0569  0.8538
 7006SOL    HW327791   3.159   0.706   0.191 -0.6264  1.0613 -0.5374
 7006SOL    MW427792   3.078   0.729   0.215 -0.5063  0.6044  0.3526
 7007SOL     OW27793   5.551   3.136   0.169  0.1203  0.5479  0.0318
 7007SOL    HW227794   5.647   3.130   0.167  0.0609 -1.3117 -2.8703
 7007SOL    HW327795   5.532   3.224   0.136  0.7859  1.1839  1.2612
 7007SOL    MW427796   5.561   3.147   0.165  0.2003  0.3864 -0.1889
 7008SOL     OW27797   3.796   4.384   4.815 -0.5033  0.2030 -0.3020
 7008SOL    HW227798   3.813   4.476   4.795 -2.7155  0.5358 -0.9635
 7008SOL    HW327799   3.861   4.336   4.765  1.1951  1.4112  0.6687
 7008SOL    MW427800   3.807   4.390   4.806 -0.5711  0.4063 -0.2612
 7009SOL     OW27801   1.930   2.920   4.116 -0.3221  0.6529 -0.0516
 7009SOL    HW227802   2.025   2.931   4.122 -0.0284 -1.3691 -0.0110
 7009SOL    HW327803   1.910   2.929   4.023  0.1727 -0.4048 -0.2776
 7009SOL    MW427804   1.940   2.922   4.104 -0.2180  0.2466 -0.0761
 7010SOL     OW27805   0.710   5.397   5.305  0.2998  0.5342 -0.1983
 7010SOL    HW227806   0.680   5.455   5.235  0.2549 -0.5512 -1.1216
 7010SOL    HW327807   0.646   5.408   5.375  0.5548  1.9279 -0.1673
 7010SOL    MW427808   0.698   5.406   5.305  0.3276  0.5749 -0.3160
 7011SOL     OW27809   6.398   4.371   6.130  0.3812  0.0754 -0.4680
 7011SOL    HW227810   6.386   4.310   6.057 -0.5604 -0.3843  0.0570
 7011SOL    HW327811   6.309   4.390   6.160  0.6201  1.8776 -0.7390
 7011SOL    MW427812   6.385   4.366   6.124  0.2885  0.2525 -0.4345
 7012SOL     OW27813   6.150   0.803   2.079 -0.2858 -0.9858 -0.3869
 7012SOL    HW227814   6.188   0.785   1.993 -0.6476  0.7844 -0.9548
 7012SOL    HW327815   6.151   0.718   2.124  1.6084 -1.5779 -1.4382
 7012SOL    MW427816   6.155   0.789   2.074 -0.0836 -0.8303 -0.6005
 7013SOL     OW27817   6.135   1.682   5.002  0.2087  0.0379 -0.6764
 7013SOL    HW227818   6.083   1.749   5.046  0.0590 -0.6608  0.2447
 7013SOL    HW327819   6.151   1.718   4.915  1.1032  1.7951  0.1484
 7013SOL    MW427820   6.130   1.696   4.996  0.3069  0.1775 -0.4461
 7014SOL     OW27821   4.086   3.366   1.943  0.1828  0.4326 -0.6448
 7014SOL    HW227822   4.073   3.449   1.989 -0.2449  1.4865 -2.5679
 7014SOL    HW327823   4.010   3.358   1.885 -0.8628 -2.3407  0.9047
 7014SOL    MW427824   4.074   3.376   1.941 -0.0116  0.2058 -0.6941
 7015SOL     OW27825   5.463   4.267   2.204 -0.0949  0.0071 -0.5376
 7015SOL    HW227826   5.410   4.197   2.242  0.6527 -1.1194 -1.5076
 7015SOL    HW327827   5.446   4.261   2.110 -0.9786  1.9547 -0.5515
 7015SOL    MW427828   5.454   4.257   2.196 -0.1129  0.1154 -0.6674
 7016SOL     OW27829   1.137   5.059   5.165 -0.0167 -0.1574  0.0029
 7016SOL    HW227830   1.119   4.972   5.129 -1.5626 -0.8592  2.2138
 7016SOL    HW327831   1.198   5.042   5.237  0.2775  0.6986 -0.0399
 7016SOL    MW427832   1.142   5.045   5.170 -0.1818 -0.1370  0.2890
 7017SOL     OW27833   6.180   2.210   4.230 -0.4595 -0.1399 -0.1542
 7017SOL    HW227834   6.275   2.220   4.224 -0.4475 -0.0966  0.1118
 7017SOL    HW327835   6.163   2.193   4.322 -0.6923 -0.3420 -0.2308
 7017SOL    MW427836   6.190   2.209   4.241 -0.4886 -0.1609 -0.1292
 7018SOL     OW27837   5.133   4.913   4.152  0.1817 -0.2668 -0.7007
 7018SOL    HW227838   5.203   4.976   4.135 -0.8942  1.1687 -0.0142
 7018SOL    HW327839   5.179   4.830   4.169  1.6624  0.4707 -0.9625
 7018SOL    MW427840   5.148   4.910   4.152  0.2351  0.0199 -0.6446
 7019SOL     OW27841   0.119   1.787   0.046  0.2255 -0.6604 -0.5559
 7019SOL    HW227842   0.200   1.776  -0.003  0.5499  0.9964 -0.4303
 7019SOL    HW327843   0.080   1.867   0.012 -1.3797 -1.4244 -0.6186
 7019SOL    MW427844   0.125   1.796   0.035  0.0565 -0.5426 -0.5476
 7020SOL     OW27845   3.429   6.386   6.406  0.5422 -0.1158 -0.2628
 7020SOL    HW227846   3.346   6.348   6.435 -0.5494  1.9949 -0.4260
 7020SOL    HW327847   3.416   6.403   6.312  1.6755 -1.0017 -0.5969
 7020SOL    MW427848   3.416   6.383   6.397  0.5477  0.0458 -0.3284
 7021SOL     OW27849   1.025   1.613   2.440 -0.2286 -0.2106 -0.0419
 7021SOL    HW227850   0.990   1.659   2.516 -1.1930  0.5441 -0.8971
 7021SOL    HW327851   1.017   1.520   2.461 -1.7463 -0.0372  0.2525
 7021SOL    MW427852   1.019   1.607   2.453 -0.5561 -0.0881 -0.1159
 7022SOL     OW27853   6.386   0.855   6.057 -0.3075 -0.7543  0.1846
 7022SOL    HW227854   6.403   0.768   6.022  1.0968 -0.4092 -0.0625
 7022SOL    HW327855   6.348   0.839   6.143 -0.1015 -1.6110  0.1288
 7022SOL    MW427856   6.383   0.841   6.064 -0.0951 -0.8218  0.1446
 7023SOL     OW27857   5.803   1.608   0.478 -0.2285  0.0046  0.5391
 7023SOL    HW227858   5.845   1.651   0.553  1.0216 -1.6006  0.8241
 7023SOL    HW327859   5.796   1.676   0.412  2.5833  0.4700  0.6013
 7023SOL    MW427860   5.808   1.623   0.479  0.3074 -0.1458  0.5849
 7024SOL     OW27861   5.166   3.423   2.181  0.2406 -0.2381  0.5920
 7024SOL    HW227862   5.092   3.379   2.222 -0.7070  0.7038 -0.0465
 7024SOL    HW327863   5.170   3.509   2.223  0.2853  0.1241 -0.1294
 7024SOL    MW427864   5.157   3.428   2.192  0.1215 -0.0660  0.4126
 7025SOL     OW27865   4.217   0.724   6.198  0.3381 -0.7605  0.4713
 7025SOL    HW227866   4.182   0.693   6.115  1.1331 -0.5022  0.0267
 7025SOL    HW327867   4.205   0.819   6.195  0.0103 -0.7856  0.8296
 7025SOL    MW427868   4.211   0.733   6.187  0.3997 -0.7297  0.4599
 7026SOL     OW27869   6.055   0.694   4.965  0.0112 -0.4212 -0.4449
 7026SOL    HW227870   6.148   0.691   4.943 -0.2414 -2.4240 -1.4348
 7026SOL    HW327871   6.034   0.605   4.993 -1.2902  0.3675  1.3110
 7026SOL    MW427872   6.064   0.682   4.966 -0.1939 -0.5814 -0.3438
 7027SOL     OW27873   2.846   3.429   6.363 -0.2924  0.4011  0.2313
 7027SOL    HW227874   2.892   3.347   6.382 -2.1617 -1.1598 -1.5350
 7027SOL    HW327875   2.915   3.495   6.363  1.5522 -1.4163  0.1538
 7027SOL    MW427876   2.862   3.427   6.365 -0.2956 -0.0446 -0.0119
 7028SOL     OW27877   2.077   5.137   3.456 -0.1465  0.5900  0.0304
 7028SOL    HW227878   2.080   5.042   3.445 -2.0114  0.5551 -0.5352
 7028SOL    HW327879   2.168   5.163   3.467  0.3891 -1.2673  0.2818
 7028SOL    MW427880   2.089   5.128   3.456 -0.3219  0.3404 -0.0110
 7029SOL     OW27881   5.188   1.339   6.351  0.2693  0.3675 -0.1301
 7029SOL    HW227882   5.128   1.410   6.377  0.1325 -0.2349  1.3081
 7029SOL    HW327883   5.143   1.259   6.379  1.5367 -0.1178  0.5840
 7029SOL    MW427884   5.174   1.338   6.358  0.4185  0.2240  0.1539
 7030SOL     OW27885   0.799   3.510   3.165  0.2309  0.1274 -0.3327
 7030SOL    HW227886   0.884   3.505   3.210 -0.5294  0.0717  1.1722
 7030SOL    HW327887   0.741   3.553   3.228 -0.9621 -0.1667 -1.1869
 7030SOL    MW427888   0.803   3.515   3.179 -0.0268  0.0813 -0.2469
 7031SOL     OW27889   0.538   0.979   3.895 -0.8871 -0.1605  0.1466
 7031SOL    HW227890   0.457   0.933   3.918 -1.1195  0.0023 -0.3229
 7031SOL    HW327891   0.558   0.949   3.806 -2.5037  2.5967 -1.2786
 7031SOL    MW427892   0.530   0.969   3.886 -1.1311  0.2247 -0.1034
 7032SOL     OW27893   4.955   3.833   5.288  0.4574  0.3006  0.3220
 7032SOL    HW227894   4.956   3.921   5.325 -3.1134  2.2404 -3.3248
 7032SOL    HW327895   5.028   3.832   5.226  1.0687  0.3117  1.0307
 7032SOL    MW427896   4.965   3.845   5.284  0.0669  0.5580 -0.0657
 7033SOL     OW27897   1.804   2.916   0.863 -0.1519 -0.3308  0.0887
 7033SOL    HW227898   1.865   2.946   0.796  1.2001 -0.2315  1.3046
 7033SOL    HW327899   1.764   2.996   0.897  0.5014 -0.2245  0.6189
 7033SOL    MW427900   1.807   2.931   0.859  0.1127 -0.3037  0.3191
 7034SOL     OW27901   5.903   2.652   5.926 -0.6586 -0.4560 -0.1832
 7034SOL    HW227902   5.839   2.700   5.873  0.6533 -0.2260 -1.6709
 7034SOL    HW327903   5.982   2.651   5.871  0.6384 -0.6348  1.6078
 7034SOL    MW427904   5.905   2.658   5.912 -0.3144 -0.4492 -0.1432
 7035SOL     OW27905   2.847   5.380   0.447  0.4167  0.2111 -0.3035
 7035SOL    HW227906   2.860   5.410   0.357 -1.3652 -1.0880 -1.0322
 7035SOL    HW327907   2.883   5.292   0.449  0.6024  0.2944  0.3108
 7035SOL    MW427908   2.853   5.373   0.435  0.2061  0.0507 -0.3186
 7036SOL     OW27909   0.875   5.811   2.382 -0.5848  0.2082  0.4131
 7036SOL    HW227910   0.782   5.813   2.406 -0.4203 -0.2025  1.1202
 7036SOL    HW327911   0.921   5.826   2.464 -0.0250  1.3536 -0.0918
 7036SOL    MW427912   0.868   5.813   2.396 -0.4893  0.3051  0.4398
 7037SOL     OW27913   3.909   0.450   1.464 -0.2970 -0.0278  1.3100
 7037SOL    HW227914   3.932   0.419   1.377  2.1889  2.4841  0.9273
 7037SOL    HW327915   3.813   0.453   1.465 -0.4056 -1.3027 -0.8437
 7037SOL    MW427916   3.899   0.446   1.453  0.0166  0.1354  0.9754
 7038SOL     OW27917   6.188   4.148   1.478 -0.1387  0.4415  0.4276
 7038SOL    HW227918   6.145   4.176   1.558  0.8676  0.3661  1.0026
 7038SOL    HW327919   6.182   4.053   1.479 -0.3800  0.4517  0.2567
 7038SOL    MW427920   6.182   4.139   1.488 -0.0378  0.4329  0.4809
 7039SOL     OW27921   2.730   1.735   0.298 -0.5535  0.8832  0.4252
 7039SOL    HW227922   2.791   1.669   0.265 -1.7561  0.9116 -2.1583
 7039SOL    HW327923   2.747   1.812   0.244 -0.9489  1.8223  1.6100
 7039SOL    MW427924   2.740   1.736   0.286 -0.7643  1.0109  0.2406
 7040SOL     OW27925   1.904   0.713   2.684 -0.1655  0.6813 -0.1457
 7040SOL    HW227926   1.975   0.650   2.676 -1.2625 -0.8740  1.6801
 7040SOL    HW327927   1.830   0.673   2.638 -0.7693  0.7790  0.7069
 7040SOL    MW427928   1.904   0.700   2.677 -0.3899  0.4890  0.2077
 7041SOL     OW27929   0.254   3.446   6.361  0.1082  0.0083 -0.0502
 7041SOL    HW227930   0.185   3.395   6.403  0.1156 -0.1704 -0.2532
 7041SOL    HW327931   0.208   3.519   6.320  0.0934  0.1450  0.2089
 7041SOL    MW427932   0.238   3.449   6.361  0.1072  0.0027 -0.0428
 7042SOL     OW27933   1.814   0.085   4.270  0.0519  0.2674  0.4154
 7042SOL    HW227934   1.848   0.154   4.214 -0.6162 -1.6354 -2.5579
 7042SOL    HW327935   1.727   0.066   4.236 -0.3015 -1.1727  1.9450
 7042SOL    MW427936   1.807   0.091   4.258 -0.0829 -0.1737  0.2249
 7043SOL     OW27937   1.058   0.671   1.203  0.2492 -0.4497 -0.0594
 7043SOL    HW227938   0.987   0.620   1.243 -0.8604  1.4330  0.4655
 7043SOL    HW327939   1.137   0.618   1.220 -0.6221 -1.2535  1.8614
 7043SOL    MW427940   1.059   0.657   1.211 -0.0122 -0.3073  0.2632
 7044SOL     OW27941   3.252   3.867   5.097  0.3402 -0.4513 -0.1958
 7044SOL    HW227942   3.292   3.843   5.013  1.2829 -1.8626  0.6061
 7044SOL    HW327943   3.326   3.891   5.152 -0.2299  0.0527  0.3541
 7044SOL    MW427944   3.267   3.867   5.093  0.3893 -0.5710 -0.0174
 7045SOL     OW27945   4.943   4.596   2.752  0.2324  0.0152  0.6087
 7045SOL    HW227946   4.929   4.566   2.662  0.5716 -0.7812  0.8161
 7045SOL    HW327947   4.977   4.685   2.743 -0.1062  0.0823 -0.0383
 7045SOL    MW427948   4.945   4.604   2.739  0.2325 -0.0810  0.5507
 7046SOL     OW27949   5.667   1.551   1.014 -0.4201  0.3701 -0.1270
 7046SOL    HW227950   5.743   1.603   1.040 -1.0921 -0.3191  3.8694
 7046SOL    HW327951   5.598   1.615   0.997 -0.5810  0.9749  2.4283
 7046SOL    MW427952   5.668   1.566   1.015 -0.5300  0.3590  0.7374
 7047SOL     OW27953   0.383   4.920   2.634  0.1399 -0.3733  0.0593
 7047SOL    HW227954   0.409   4.954   2.548 -1.2028  0.4259 -0.0635
 7047SOL    HW327955   0.434   4.970   2.697 -0.8803  1.0176 -0.1797
 7047SOL    MW427956   0.393   4.931   2.631 -0.1719 -0.0843  0.0116
 7048SOL     OW27957   1.884   3.044   0.483  0.3645  0.2459 -0.0463
 7048SOL    HW227958   1.935   2.974   0.524  2.3589  0.5761 -1.7708
 7048SOL    HW327959   1.949   3.099   0.439 -1.3440  1.8451 -0.7363
 7048SOL    MW427960   1.899   3.042   0.482  0.4022  0.5005 -0.3649
 7049SOL     OW27961   3.647   3.167   0.760 -0.5626 -0.6181 -0.2173
 7049SOL    HW227962   3.601   3.162   0.676 -0.0401  0.8644 -0.6068
 7049SOL    HW327963   3.590   3.221   0.815  1.4120  2.7915 -1.2592
 7049SOL    MW427964   3.633   3.173   0.756 -0.2331  0.0274 -0.4061
 7050SOL     OW27965   4.081   5.049   6.165  0.0141 -0.3205 -0.4197
 7050SOL    HW227966   4.009   5.107   6.191  1.3037  0.1801  2.3364
 7050SOL    HW327967   4.071   4.972   6.221  1.0139 -0.7150 -0.7631
 7050SOL    MW427968   4.070   5.047   6.176  0.3161 -0.3065 -0.1013
 7051SOL     OW27969   3.277   3.203   4.762  0.1872  0.3041 -0.2312
 7051SOL    HW227970   3.254   3.281   4.712  0.7981  0.6510  0.0184
 7051SOL    HW327971   3.327   3.236   4.836 -2.0789 -0.0102  1.5589
 7051SOL    MW427972   3.280   3.217   4.765 -0.0312  0.3084  0.0379
 7052SOL     OW27973   2.465   5.423   0.219  0.1020 -0.4358  0.4514
 7052SOL    HW227974   2.404   5.364   0.262 -1.9219  1.1540 -0.0642
 7052SOL    HW327975   2.432   5.511   0.240 -0.7158  0.4813 -3.7310
 7052SOL    MW427976   2.453   5.427   0.227 -0.2729 -0.1051 -0.1684
 7053SOL     OW27977   1.423   4.932   2.487 -0.4265 -0.3105 -0.5284
 7053SOL    HW227978   1.396   4.953   2.398  0.1866 -0.7424 -0.8284
 7053SOL    HW327979   1.389   4.844   2.502  1.0681 -1.0236 -1.0543
 7053SOL    MW427980   1.415   4.923   2.477 -0.1484 -0.4615 -0.6374
 7054SOL     OW27981   4.969   0.579   1.757  0.4145 -0.0422  0.3121
 7054SOL    HW227982   4.997   0.582   1.848 -1.8976 -3.5636  1.3304
 7054SOL    HW327983   4.888   0.629   1.755  0.7993  0.5844 -0.0094
 7054SOL    MW427984   4.962   0.586   1.769  0.1602 -0.4241  0.4040
 7055SOL     OW27985   0.172   3.852   1.875 -0.2212 -0.0036 -0.5208
 7055SOL    HW227986   0.167   3.832   1.782  1.0932  0.6402 -0.7439
 7055SOL    HW327987   0.255   3.814   1.904  0.7300  2.1497 -0.2430
 7055SOL    MW427988   0.182   3.845   1.867  0.0777  0.3654 -0.5136
 7056SOL     OW27989   0.513   4.660   1.648 -0.1868  0.1567  0.1868
 7056SOL    HW227990   0.434   4.645   1.596  0.1698  0.6966 -0.5303
 7056SOL    HW327991   0.546   4.745   1.618 -0.0348  0.5404  1.3989
 7056SOL    MW427992   0.507   4.669   1.637 -0.1197  0.2786  0.2521
 7057SOL     OW27993   0.109   5.217   1.944 -0.2335 -0.2140  0.2508
 7057SOL    HW227994   0.146   5.269   2.015  1.4034 -0.9603 -0.0130
 7057SOL    HW327995   0.069   5.281   1.886  3.5426  1.1461 -1.1697
 7057SOL    MW427996   0.109   5.232   1.946  0.4807 -0.1330  0.0286
 7058SOL     OW27997   1.060   4.082   2.283 -0.0895 -0.8608  1.0597
 7058SOL    HW227998   1.129   4.030   2.242 -0.8449 -1.0001 -0.0840
 7058SOL    HW327999   1.028   4.027   2.355  1.0837 -0.7261  1.6925
 7058SOL    MW428000   1.065   4.068   2.287 -0.0344 -0.8614  0.9923
 7059SOL     OW28001   5.000   0.977   1.756 -0.0753 -0.1249  0.2049
 7059SOL    HW228002   5.054   1.051   1.726  0.2959 -0.9778 -1.3359
 7059SOL    HW328003   5.059   0.902   1.753 -0.5436 -0.5599  1.4203
 7059SOL    MW428004   5.015   0.977   1.751 -0.0881 -0.2948  0.1620
 7060SOL     OW28005   5.152   1.942   4.971  0.3869  0.5035 -0.2573
 7060SOL    HW228006   5.144   1.863   5.026 -0.5021  1.8611  1.6823
 7060SOL    HW328007   5.240   1.936   4.935  1.3277 -0.1577  1.9356
 7060SOL    MW428008   5.163   1.931   4.974  0.3937  0.5954  0.2879
 7061SOL     OW28009   1.951   6.022   2.553 -0.1047 -0.0808 -0.8380
 7061SOL    HW228010   1.857   6.016   2.570  0.0010 -1.0469 -0.5628
 7061SOL    HW328011   1.976   5.936   2.521  0.7332  0.0949 -0.6881
 7061SOL    MW428012   1.942   6.010   2.551  0.0198 -0.1851 -0.7819
 7062SOL     OW28013   4.335   0.568   5.529 -0.3979  0.0970 -0.5914
 7062SOL    HW228014   4.331   0.514   5.608 -0.3799 -1.0987 -1.3769
 7062SOL    HW328015   4.279   0.644   5.548 -1.1290 -0.6353  0.2333
 7062SOL    MW428016   4.327   0.571   5.542 -0.4920 -0.1574 -0.5862
 7063SOL     OW28017   5.350   6.134   2.771  0.1550 -0.0816  0.0621
 7063SOL    HW228018   5.362   6.130   2.677  1.0972 -1.1754  0.2039
 7063SOL    HW328019   5.330   6.043   2.796  2.3589 -0.3130  1.1989
 7063SOL    MW428020   5.349   6.121   2.762  0.5701 -0.2564  0.2308
 7064SOL     OW28021   1.512   1.939   5.807  0.3389  0.8129  0.4446
 7064SOL    HW228022   1.586   1.938   5.746  0.8506 -0.3461  1.0358
 7064SOL    HW328023   1.435   1.949   5.751  0.9488  2.4513 -0.1454
 7064SOL    MW428024   1.511   1.940   5.792  0.4869  0.8762  0.4448
 7065SOL     OW28025   3.509   0.809   5.595  0.2940 -0.2391  0.5249
 7065SOL    HW228026   3.564   0.803   5.673  1.8419  1.6556 -0.3376
 7065SOL    HW328027   3.421   0.790   5.626  0.5338  2.3970  3.1866
 7065SOL    MW428028   3.505   0.806   5.609  0.5299  0.3587  0.7623
 7066SOL     OW28029   1.714   4.979   3.499  0.0184 -0.4002  0.7109
 7066SOL    HW228030   1.742   5.009   3.586  2.1836  1.5612 -0.5685
 7066SOL    HW328031   1.738   4.886   3.498 -1.9016 -1.0140  2.8621
 7066SOL    MW428032   1.721   4.971   3.511  0.0507 -0.2224  0.8259
 7067SOL     OW28033   1.285   0.476   5.214 -0.1612  0.7491  0.4037
 7067SOL    HW228034   1.234   0.398   5.194  0.3059  0.0830  1.6996
 7067SOL    HW328035   1.282   0.483   5.310  2.0996  0.7287  0.5334
 7067SOL    MW428036   1.278   0.467   5.224  0.1987  0.6585  0.5918
 7068SOL     OW28037   1.217   1.312   1.990  0.7600  0.3761 -0.4526
 7068SOL    HW228038   1.244   1.404   1.981 -0.3688  0.7104 -0.5780
 7068SOL    HW328039   1.156   1.298   1.917 -1.9170  0.6264  1.5867
 7068SOL    MW428040   1.213   1.322   1.979  0.2579  0.4532 -0.2000
 7069SOL     OW28041   6.229   3.440   2.324 -0.0421 -0.4582 -0.1293
 7069SOL    HW228042   6.155   3.500   2.334 -0.0415 -0.3858 -0.5462
 7069SOL    HW328043   6.261   3.425   2.413 -0.0149  0.1942 -0.0287
 7069SOL    MW428044   6.224   3.446   2.337 -0.0385 -0.3626 -0.1711
 7070SOL     OW28045   4.353   4.095   3.850 -0.0150 -0.2562 -0.6231
 7070SOL    HW228046   4.286   4.138   3.796 -1.2208  0.8761  1.6291
 7070SOL    HW328047   4.402   4.167   3.890 -0.0567 -1.0060  0.8351
 7070SOL    MW428048   4.350   4.110   3.848 -0.1796 -0.2057 -0.1335
 7071SOL     OW28049   3.090   2.535   2.215 -0.0161 -0.1271  0.1677
 7071SOL    HW228050   3.017   2.528   2.276 -0.9446  1.0801 -0.7523
 7071SOL    HW328051   3.097   2.448   2.176 -1.0792 -0.2276  0.1608
 7071SOL    MW428052   3.081   2.523   2.218 -0.2788  0.0189  0.0454
 7072SOL     OW28053   2.598   3.030   3.349 -0.1342  0.6411 -0.4929
 7072SOL    HW228054   2.571   3.117   3.318 -1.9125  0.0926 -0.5720
 7072SOL    HW328055   2.529   2.971   3.318  1.3079 -0.9061 -0.9092
 7072SOL    MW428056   2.585   3.034   3.341 -0.1786  0.3646 -0.5583
 7073SOL     OW28057   3.328   2.113   5.211  0.2777  0.0218  0.0172
 7073SOL    HW228058   3.393   2.176   5.240 -0.1154  1.3626 -1.8448
 7073SOL    HW328059   3.251   2.130   5.266 -0.0804  1.7390 -0.9526
 7073SOL    MW428060   3.326   2.123   5.222  0.1786  0.4252 -0.3564
 7074SOL     OW28061   1.038   2.968   1.560  0.2539 -0.2067  0.0514
 7074SOL    HW228062   1.091   2.898   1.522  1.1822  1.4131 -1.8716
 7074SOL    HW328063   0.992   3.007   1.485 -2.3934 -0.4450  1.4410
 7074SOL    MW428064   1.039   2.964   1.545  0.0271 -0.0244 -0.0190
 7075SOL     OW28065   0.539   2.221   6.300  0.0769  1.0261 -0.2595
 7075SOL    HW228066   0.505   2.306   6.271  2.0344  2.0119  0.1677
 7075SOL    HW328067   0.552   2.232   6.395 -2.5217 -0.8278  0.4136
 7075SOL    MW428068   0.536   2.234   6.309 -0.0077  0.9115 -0.1143
 7076SOL     OW28069   0.991   5.637   3.902 -0.1666  0.1106  0.1260
 7076SOL    HW228070   1.014   5.579   3.975  1.0092  0.1549 -0.1941
 7076SOL    HW328071   1.064   5.698   3.896 -0.2476  0.1078 -1.1004
 7076SOL    MW428072   1.004   5.637   3.911 -0.0222  0.1161 -0.0781
 7077SOL     OW28073   3.070   4.600   5.487 -0.4353 -0.3858  0.5039
 7077SOL    HW228074   3.030   4.646   5.560  0.1295  0.0885  0.5189
 7077SOL    HW328075   3.164   4.617   5.496 -0.1798 -1.7450  0.6569
 7077SOL    MW428076   3.077   4.608   5.498 -0.3271 -0.5025  0.5261
 7078SOL     OW28077   5.061   4.038   1.780  0.0943  0.0988  0.0879
 7078SOL    HW228078   5.084   4.041   1.687  1.0048 -1.3939  0.2313
 7078SOL    HW328079   5.069   4.129   1.809  2.7450  0.1763 -0.6301
 7078SOL    MW428080   5.065   4.050   1.771  0.5642 -0.0879  0.0121
 7079SOL     OW28081   3.538   3.039   5.870  0.3334 -0.3445 -0.3307
 7079SOL    HW228082   3.520   2.955   5.911  0.1937 -0.1026  0.1129
 7079SOL    HW328083   3.483   3.041   5.792  1.2613 -1.1824 -1.0352
 7079SOL    MW428084   3.529   3.028   5.865  0.4374 -0.4231 -0.3651
 7080SOL     OW28085   3.817   5.026   2.748 -0.5501  0.1303  0.0399
 7080SOL    HW228086   3.766   4.947   2.729 -2.3030  0.6546  2.2030
 7080SOL    HW328087   3.829   5.025   2.843  2.8032  0.5146 -0.2566
 7080SOL    MW428088   3.812   5.015   2.758 -0.3390  0.2502  0.2861
 7081SOL     OW28089   2.097   3.376   1.362 -0.1057  0.0074  0.0700
 7081SOL    HW228090   2.061   3.287   1.370 -4.0531  1.4693  0.5863
 7081SOL    HW328091   2.180   3.372   1.408 -0.0644 -3.4256 -0.0388
 7081SOL    MW428092   2.103   3.363   1.369 -0.6210 -0.2527  0.1238
 7082SOL     OW28093   0.832   2.691   1.098  0.1199  0.2897 -0.2804
 7082SOL    HW228094   0.915   2.731   1.126 -0.0795  0.2691  0.3594
 7082SOL    HW328095   0.837   2.602   1.131  0.5058 -0.1924 -1.5934
 7082SOL    MW428096   0.844   2.685   1.106  0.1445  0.2234 -0.3692
 7083SOL     OW28097   0.718   4.000   0.129  0.0884  1.0263 -0.6619
 7083SOL    HW228098   0.762   3.954   0.057 -0.4385  1.0116 -0.9841
 7083SOL    HW328099   0.755   4.089   0.126 -1.1890  1.5644 -2.1152
 7083SOL    MW428100   0.729   4.006   0.119 -0.1496  1.0953 -0.8961
 7084SOL     OW28101   2.224   4.550   4.705  0.1424  0.5105  0.7025
 7084SOL    HW228102   2.240   4.623   4.764 -1.0334  0.2855  1.3364
 7084SOL    HW328103   2.130   4.534   4.711  0.4456 -1.4295  1.0335
 7084SOL    MW428104   2.214   4.558   4.714  0.0272  0.2248  0.8298
 7085SOL     OW28105   3.899   1.683   4.502  0.3878 -0.2560  0.5432
 7085SOL    HW228106   3.889   1.703   4.409  1.4118  1.4455  0.7627
 7085SOL    HW328107   3.991   1.658   4.511  0.0543 -1.4166  0.9600
 7085SOL    MW428108   3.910   1.682   4.491  0.4789 -0.1847  0.6272
 7086SOL     OW28109   2.469   6.187   6.213  0.2034 -0.1838  0.4021
 7086SOL    HW228110   2.412   6.145   6.278  0.4138 -1.1283 -0.0091
 7086SOL    HW328111   2.418   6.187   6.132  1.0171 -1.7041 -0.1565
 7086SOL    MW428112   2.455   6.181   6.211  0.3385 -0.5090  0.2741
 7087SOL     OW28113   5.713   4.581   5.787 -0.0329 -0.3143  0.2218
 7087SOL    HW228114   5.740   4.645   5.722  0.2015 -1.8518 -1.2701
 7087SOL    HW328115   5.620   4.599   5.801  0.0001  0.2607 -0.2776
 7087SOL    MW428116   5.704   4.592   5.780  0.0023 -0.4413 -0.0409
 7088SOL     OW28117   3.636   5.311   4.837  0.1220  0.3388  0.2869
 7088SOL    HW228118   3.554   5.357   4.856  0.1115 -0.0595  1.2558
 7088SOL    HW328119   3.610   5.241   4.777 -0.1832  0.4762  0.2544
 7088SOL    MW428120   3.622   5.307   4.832  0.0804  0.3044  0.4104
 7089SOL     OW28121   6.164   5.173   4.113 -0.4262  0.0082  0.0862
 7089SOL    HW228122   6.241   5.213   4.073  0.5670 -1.1772  0.7709
 7089SOL    HW328123   6.181   5.079   4.111 -2.3174 -0.3649 -0.6668
 7089SOL    MW428124   6.176   5.166   4.108 -0.5447 -0.1974  0.0772
 7090SOL     OW28125   0.438   1.096   1.477 -0.4429  0.0930  0.0105
 7090SOL    HW228126   0.384   1.038   1.532 -0.6782  1.2108  0.9983
 7090SOL    HW328127   0.374   1.153   1.434 -0.1431  0.3660 -0.0705
 7090SOL    MW428128   0.422   1.096   1.479 -0.4344  0.2765  0.1301
 7091SOL     OW28129   2.412   2.396   1.428 -0.0561 -0.2754  0.0890
 7091SOL    HW228130   2.414   2.392   1.332 -0.6459  0.0285  0.0599
 7091SOL    HW328131   2.435   2.487   1.448  1.4661 -0.6754  0.2969
 7091SOL    MW428132   2.415   2.408   1.418  0.0669 -0.2881  0.1126
 7092SOL     OW28133   6.155   5.406   0.247 -0.1837 -0.0726 -0.2913
 7092SOL    HW228134   6.102   5.466   0.194 -0.4444 -1.2991 -1.4607
 7092SOL    HW328135   6.226   5.379   0.188 -1.5161 -2.9375 -0.7351
 7092SOL    MW428136   6.157   5.411   0.232 -0.3939 -0.6124 -0.5041
 7093SOL     OW28137   2.410   2.303   5.330 -0.8927 -0.0005 -0.2496
 7093SOL    HW228138   2.406   2.225   5.275 -1.1446  0.3298 -0.7064
 7093SOL    HW328139   2.320   2.337   5.330 -0.9505 -0.1233  0.5552
 7093SOL    MW428140   2.397   2.297   5.323 -0.9336  0.0269 -0.2037
 7094SOL     OW28141   0.813   2.368   5.490  0.6871  0.3925 -0.3172
 7094SOL    HW228142   0.788   2.438   5.429  1.1659  0.5986 -0.2781
 7094SOL    HW328143   0.903   2.388   5.515  0.3196  0.6137  0.8912
 7094SOL    MW428144   0.821   2.380   5.485  0.7018  0.4488 -0.1526
 7095SOL     OW28145   0.854   0.759   2.129 -0.4423 -0.1622  0.1328
 7095SOL    HW228146   0.926   0.751   2.066  0.4947  0.1097  1.1236
 7095SOL    HW328147   0.888   0.819   2.196 -2.1840  1.2196 -0.1571
 7095SOL    MW428148   0.868   0.766   2.130 -0.5485  0.0560  0.2253
 7096SOL     OW28149   1.086   3.342   2.966 -0.2119 -0.5201 -0.4307
 7096SOL    HW228150   1.048   3.386   3.042  0.3360 -0.3651 -0.2369
 7096SOL    HW328151   1.148   3.279   3.004 -0.1804 -0.6771 -0.7406
 7096SOL    MW428152   1.089   3.340   2.981 -0.1355 -0.5204 -0.4460
 7097SOL     OW28153   1.355   1.975   3.303 -0.0831  0.3497 -0.0159
 7097SOL    HW228154   1.285   1.914   3.281  0.7790 -0.7402  0.1921
 7097SOL    HW328155   1.435   1.924   3.296  0.5841  1.1633  1.2435
 7097SOL    MW428156   1.356   1.960   3.299  0.1187  0.3132  0.1777
 7098SOL     OW28157   5.043   0.196   0.096 -0.5880  0.3058  0.7156
 7098SOL    HW228158   4.994   0.277   0.081 -1.4924 -0.3127  0.2129
 7098SOL    HW328159   5.111   0.220   0.159  0.5022  1.9751 -0.9718
 7098SOL    MW428160   5.045   0.210   0.102 -0.5635  0.4444  0.4266
 7099SOL     OW28161   0.563   4.570   0.776  0.2802  0.2874 -0.5985
 7099SOL    HW228162   0.637   4.509   0.766 -0.1372 -0.1628 -0.9913
 7099SOL    HW328163   0.486   4.516   0.761 -0.0936  0.9572 -1.1085
 7099SOL    MW428164   0.563   4.555   0.773  0.1758  0.3164 -0.7176
 7100SOL     OW28165   1.664   5.756   5.872  0.2313  0.1265  0.0925
 7100SOL    HW228166   1.742   5.792   5.916  1.0447 -0.7900 -0.5670
 7100SOL    HW328167   1.659   5.666   5.902  0.4415 -0.3306 -1.2005
 7100SOL    MW428168   1.674   5.749   5.882  0.3663 -0.0547 -0.1651
 7101SOL     OW28169   0.173   5.025   2.972  0.3479  0.6538 -0.2512
 7101SOL    HW228170   0.091   5.053   3.011  0.0888 -0.4280  0.0078
 7101SOL    HW328171   0.161   4.932   2.953  1.0787  0.7609 -1.3431
 7101SOL    MW428172   0.161   5.016   2.974  0.4101  0.5252 -0.3611
 7102SOL     OW28173   0.786   1.100   1.033 -0.3667  0.0244 -0.2711
 7102SOL    HW228174   0.809   1.008   1.042 -2.0174 -0.3481  0.4175
 7102SOL    HW328175   0.842   1.146   1.096 -0.4978 -0.6676  0.3520
 7102SOL    MW428176   0.797   1.094   1.042 -0.6018 -0.1160 -0.0980
 7103SOL     OW28177   5.775   0.802   0.646 -0.1733  0.1951 -0.2246
 7103SOL    HW228178   5.712   0.874   0.637  0.2686  0.6987  0.5504
 7103SOL    HW328179   5.855   0.845   0.676  0.3059 -0.5419 -0.4310
 7103SOL    MW428180   5.777   0.817   0.648 -0.0518  0.1643 -0.1495
 7104SOL     OW28181   3.046   4.055   1.250 -0.1772 -0.2346  0.2388
 7104SOL    HW228182   3.037   3.979   1.192  0.3947 -2.0532  2.4052
 7104SOL    HW328183   2.972   4.048   1.310  0.5042  0.2914  1.1614
 7104SOL    MW428184   3.035   4.044   1.250 -0.0118 -0.4051  0.6464
 7105SOL     OW28185   0.761   6.119   3.000  0.0787  0.5227 -0.0724
 7105SOL    HW228186   0.844   6.141   3.042 -0.1895  0.1101  0.7026
 7105SOL    HW328187   0.705   6.089   3.072 -0.1753 -0.8772 -0.8160
 7105SOL    MW428188   0.764   6.118   3.015  0.0098  0.2836 -0.0683
 7106SOL     OW28189   5.649   4.159   0.485  0.0680  0.2903 -0.0112
 7106SOL    HW228190   5.658   4.069   0.452  2.7781  0.9176 -1.2668
 7106SOL    HW328191   5.660   4.214   0.408 -1.5409  1.7620  0.7479
 7106SOL    MW428192   5.652   4.154   0.470  0.2133  0.5672 -0.0767
 7107SOL     OW28193   5.208   6.392   2.220 -0.4322 -0.0408 -0.3589
 7107SOL    HW228194   5.256   6.470   2.192 -2.7774  1.4850 -0.3442
 7107SOL    HW328195   5.195   6.403   2.314 -2.4745  0.6034 -0.6719
 7107SOL    MW428196   5.213   6.404   2.229 -1.0111  0.2455 -0.3983
 7108SOL     OW28197   5.849   1.318   0.221 -0.1614 -0.1230  0.5226
 7108SOL    HW228198   5.817   1.275   0.141  1.2504  0.2622 -0.2881
 7108SOL    HW328199   5.830   1.256   0.291  0.9151 -1.6614 -0.4807
 7108SOL    MW428200   5.843   1.304   0.220  0.1669 -0.2751  0.2832
 7109SOL     OW28201   1.154   2.520   1.065 -0.2323 -0.7472  0.2942
 7109SOL    HW228202   1.213   2.465   1.013  0.9471  0.6237  0.1019
 7109SOL    HW328203   1.171   2.495   1.155  0.4590 -0.5531  0.2212
 7109SOL    MW428204   1.164   2.510   1.070  0.0145 -0.5407  0.2592
 7110SOL     OW28205   3.665   4.901   4.827  0.0834  0.1124  0.3180
 7110SOL    HW228206   3.584   4.856   4.806  0.5819 -0.2763 -0.9208
 7110SOL    HW328207   3.666   4.977   4.769  0.6306  0.0637  0.2524
 7110SOL    MW428208   3.655   4.905   4.817  0.2214  0.0547  0.1459
 7111SOL     OW28209   2.655   1.337   2.069 -0.6004 -0.0526  0.1292
 7111SOL    HW228210   2.699   1.311   1.988 -3.5263  0.6056 -1.8304
 7111SOL    HW328211   2.712   1.403   2.107  1.8032 -1.7256 -0.3075
 7111SOL    MW428212   2.668   1.342   2.063 -0.6694 -0.1865 -0.1870
 7112SOL     OW28213   1.654   2.679   3.789  0.3714 -0.1654  0.2705
 7112SOL    HW228214   1.567   2.648   3.816 -0.4416  0.2520 -1.7464
 7112SOL    HW328215   1.715   2.622   3.836 -1.0228 -2.0677 -0.1069
 7112SOL    MW428216   1.651   2.667   3.799  0.0802 -0.3613 -0.0454
 7113SOL     OW28217   2.329   5.578   3.974 -0.3794 -0.0701  0.1521
 7113SOL    HW228218   2.383   5.623   3.909 -1.2495  0.3077 -0.3372
 7113SOL    HW328219   2.263   5.532   3.922 -0.5051 -0.5530  0.7324
 7113SOL    MW428220   2.327   5.578   3.958 -0.5108 -0.0840  0.1641
 7114SOL     OW28221   1.033   3.941   1.581  0.5693  0.2178  0.0047
 7114SOL    HW228222   0.976   3.981   1.515 -0.4141 -1.1989 -0.0626
 7114SOL    HW328223   1.010   3.848   1.579  2.0141 -0.1914  0.8819
 7114SOL    MW428224   1.022   3.934   1.572  0.6301 -0.0231  0.1116
 7115SOL     OW28225   5.661   0.657   2.071  0.1156 -0.3144  0.5873
 7115SOL    HW228226   5.644   0.751   2.072 -1.2766 -0.5082 -0.5177
 7115SOL    HW328227   5.749   0.649   2.036 -0.6519  0.5523 -1.7521
 7115SOL    MW428228   5.670   0.669   2.066 -0.1694 -0.2256  0.1328
 7116SOL     OW28229   0.760   0.452   3.220  0.4323  0.3119  0.1876
 7116SOL    HW228230   0.785   0.382   3.159 -0.8085  0.5975 -0.6883
 7116SOL    HW328231   0.823   0.444   3.292  1.2728 -0.7199 -0.6135
 7116SOL    MW428232   0.772   0.441   3.221  0.3795  0.2135 -0.0336
 7117SOL     OW28233   5.610   0.403   4.434 -0.4374 -0.0607  0.3613
 7117SOL    HW228234   5.600   0.416   4.340 -2.1267 -1.0971  0.3447
 7117SOL    HW328235   5.555   0.327   4.454  1.5884 -1.2409  1.8619
 7117SOL    MW428236   5.601   0.395   4.424 -0.3930 -0.3531  0.5571
 7118SOL     OW28237   6.015   5.972   2.039  0.2270 -0.0607 -0.2318
 7118SOL    HW228238   6.079   5.945   1.973  1.1462 -0.5190  0.8139
 7118SOL    HW328239   6.028   5.910   2.111 -0.2764  0.8480  0.6608
 7118SOL    MW428240   6.025   5.960   2.040  0.2819 -0.0013  0.0240
 7119SOL     OW28241   4.932   3.329   0.969  0.3317  0.4831  0.1749
 7119SOL    HW228242   4.880   3.325   0.888  0.6368  0.3887 -0.0184
 7119SOL    HW328243   4.945   3.237   0.994  0.0310  0.5180  0.4678
 7119SOL    MW428244   4.927   3.316   0.962  0.3323  0.4752  0.1881
 7120SOL     OW28245   2.493   1.769   3.903  0.0141  0.5083 -0.0330
 7120SOL    HW228246   2.565   1.830   3.888  1.0947 -0.7686 -0.3359
 7120SOL    HW328247   2.492   1.755   3.997 -1.3767  2.2654  0.2599
 7120SOL    MW428248   2.503   1.775   3.913 -0.0269  0.5717 -0.0343
 7121SOL     OW28249   4.820   5.157   0.949 -0.3107  0.0361 -0.2192
 7121SOL    HW228250   4.760   5.203   1.008  0.0273  0.0284  0.1303
 7121SOL    HW328251   4.796   5.189   0.862  0.1596  1.1669  0.0483
 7121SOL    MW428252   4.809   5.167   0.945 -0.2041  0.1843 -0.1378
 7122SOL     OW28253   1.907   4.185   1.828 -0.7555 -0.1367 -0.8187
 7122SOL    HW228254   1.892   4.273   1.863 -0.2712 -0.4869  0.3086
 7122SOL    HW328255   1.925   4.132   1.905 -2.2383 -1.4885 -1.3561
 7122SOL    MW428256   1.907   4.190   1.843 -0.8872 -0.3613 -0.7409
 7123SOL     OW28257   3.773   5.133   1.034  0.1421  0.2274  0.1628
 7123SOL    HW228258   3.728   5.056   1.069  0.4271 -0.9214 -1.8503
 7123SOL    HW328259   3.860   5.129   1.073 -0.1816  0.1436  0.8990
 7123SOL    MW428260   3.778   5.122   1.044  0.1370  0.0648 -0.0056
 7124SOL     OW28261   5.569   2.247   1.949 -0.1348 -0.2476  0.1081
 7124SOL    HW228262   5.514   2.314   1.989 -0.2412 -0.6980  0.7395
 7124SOL    HW328263   5.655   2.259   1.990 -0.1501 -0.4890  0.2108
 7124SOL    MW428264   5.573   2.257   1.960 -0.1509 -0.3389  0.2050
 7125SOL     OW28265   5.035   2.080   1.751  0.3368 -0.1284  0.3433
 7125SOL    HW228266   4.949   2.100   1.786  0.3032 -2.3463  1.7199
 7125SOL    HW328267   5.051   1.989   1.775  2.5372 -0.1926 -0.9967
 7125SOL    MW428268   5.026   2.071   1.759  0.6227 -0.4295  0.3481
 7126SOL     OW28269   2.703   3.231   2.923 -0.9847  0.1071 -0.5824
 7126SOL    HW228270   2.666   3.318   2.906 -0.7865  0.1198 -0.9511
 7126SOL    HW328271   2.725   3.233   3.016  0.4884  1.0230 -0.9101
 7126SOL    MW428272   2.701   3.243   2.933 -0.7642  0.2296 -0.6743
 7127SOL     OW28273   5.969   1.504   6.319 -0.0468 -0.0877  0.0921
 7127SOL    HW228274   6.031   1.475   6.386  0.0255 -1.4890 -0.5485
 7127SOL    HW328275   5.937   1.423   6.279 -2.7719  0.5513  0.7932
 7127SOL    MW428276   5.973   1.489   6.323 -0.3968 -0.1883  0.1001
 7128SOL     OW28277   0.813   2.463   3.388 -0.3670 -0.3120  0.4834
 7128SOL    HW228278   0.885   2.418   3.433 -1.0082 -0.4778  1.3634
 7128SOL    HW328279   0.766   2.509   3.458  1.2675  3.2741 -0.5052
 7128SOL    MW428280   0.816   2.463   3.403 -0.2360  0.1393  0.4691
 7129SOL     OW28281   1.120   0.814   4.249  0.0010  0.8312 -0.7530
 7129SOL    HW228282   1.084   0.730   4.276  0.2105  0.8886 -0.2875
 7129SOL    HW328283   1.212   0.796   4.228 -0.3776  0.6027 -2.3312
 7129SOL    MW428284   1.128   0.801   4.249 -0.0213  0.8086 -0.8998
 7130SOL     OW28285   6.217   5.714   5.908  0.1269 -0.3236  0.4002
 7130SOL    HW228286   6.176   5.800   5.917 -0.1297 -0.4964  0.9211
 7130SOL    HW328287   6.144   5.652   5.909  0.1407 -0.4525 -1.9219
 7130SOL    MW428288   6.202   5.718   5.909  0.0948 -0.3634  0.1625
 7131SOL     OW28289   5.247   3.875   1.436  0.0158 -0.0622  0.2824
 7131SOL    HW228290   5.248   3.795   1.384 -1.7212  0.9639 -1.4790
 7131SOL    HW328291   5.325   3.870   1.491  1.8839 -1.3101 -2.2998
 7131SOL    MW428292   5.257   3.864   1.437  0.0331 -0.0914 -0.2907
 7132SOL     OW28293   3.663   3.389   4.481  1.0252 -0.0854  0.4563
 7132SOL    HW228294   3.605   3.464   4.495 -0.0784 -0.7867 -0.2693
 7132SOL    HW328295   3.741   3.409   4.534  0.2696  1.0220  1.1852
 7132SOL    MW428296   3.666   3.402   4.490  0.7799 -0.0318  0.4568
 7133SOL     OW28297   0.196   0.350   2.284  0.1074 -0.2604  0.3529
 7133SOL    HW228298   0.136   0.377   2.215 -0.1529 -2.6952 -0.4852
 7133SOL    HW328299   0.281   0.383   2.256 -0.1142 -0.6476 -0.8442
 7133SOL    MW428300   0.200   0.358   2.271  0.0438 -0.6327  0.0844
 7134SOL     OW28301   5.555   3.381   2.239 -0.4292  0.5874 -0.1158
 7134SOL    HW228302   5.482   3.420   2.191 -0.3304 -0.7814 -1.4500
 7134SOL    HW328303   5.605   3.456   2.271 -2.6549  1.5800  1.2678
 7134SOL    MW428304   5.552   3.396   2.237 -0.7098  0.5377 -0.1093
 7135SOL     OW28305   0.330   2.304   2.946 -0.3817  0.0863  0.1757
 7135SOL    HW228306   0.395   2.369   2.973 -1.1328 -0.0212  2.5368
 7135SOL    HW328307   0.249   2.333   2.989 -1.0575 -1.6257  0.1239
 7135SOL    MW428308   0.327   2.316   2.955 -0.5700 -0.1538  0.4804
 7136SOL     OW28309   5.091   3.827   0.805  0.0057 -0.2900 -0.4887
 7136SOL    HW228310   5.079   3.736   0.779 -1.0149 -0.0890 -0.7560
 7136SOL    HW328311   5.097   3.876   0.723  0.1473 -0.0659 -0.3480
 7136SOL    MW428312   5.090   3.822   0.791 -0.1103 -0.2339 -0.5054
 7137SOL     OW28313   2.280   0.815   6.243 -0.1385  0.2225  0.1924
 7137SOL    HW228314   2.326   0.805   6.326 -0.0794 -0.0683  0.1258
 7137SOL    HW328315   2.349   0.825   6.177 -0.2017  2.0859  0.3711
 7137SOL    MW428316   2.295   0.815   6.245 -0.1391  0.4300  0.2072
 7138SOL     OW28317   3.113   0.191   6.337 -0.6693 -0.0089  0.5520
 7138SOL    HW228318   3.176   0.237   6.281  1.6040 -3.3405  0.0440
 7138SOL    HW328319   3.142   0.211   6.426 -1.0343  1.1334  0.4332
 7138SOL    MW428320   3.125   0.199   6.341 -0.4175 -0.2977  0.4693
 7139SOL     OW28321   3.612   1.213   2.730  0.1673  0.4003  0.0446
 7139SOL    HW228322   3.572   1.300   2.735 -0.6907 -0.0190  0.7723
 7139SOL    HW328323   3.554   1.157   2.782  0.8781 -0.5459 -0.1564
 7139SOL    MW428324   3.599   1.217   2.737  0.1479  0.2201  0.1141
 7140SOL     OW28325   3.565   4.824   0.372  0.5919  0.2819  0.1122
 7140SOL    HW228326   3.558   4.734   0.341  1.2358  0.0571  0.5937
 7140SOL    HW328327   3.551   4.817   0.467  1.4925  0.5665  0.2743
 7140SOL    MW428328   3.562   4.811   0.381  0.7957  0.2898  0.1971
 7141SOL     OW28329   1.715   3.267   0.543 -0.4906  0.3290 -0.0543
 7141SOL    HW228330   1.752   3.179   0.546 -2.4361 -0.5308  0.4724
 7141SOL    HW328331   1.741   3.302   0.458 -1.1640 -1.4703 -1.0430
 7141SOL    MW428332   1.723   3.260   0.532 -0.8361 -0.0218 -0.1153
 7142SOL     OW28333   1.140   3.389   1.030 -0.2896 -0.1613 -0.7356
 7142SOL    HW228334   1.118   3.461   0.971 -1.8635  0.5373  0.6086
 7142SOL    HW328335   1.231   3.368   1.011 -0.0401  1.6483 -1.7213
 7142SOL    MW428336   1.149   3.396   1.020 -0.4644  0.1696 -0.6883
 7143SOL     OW28337   4.920   5.044   0.315  0.3556 -0.3254 -0.0667
 7143SOL    HW228338   4.912   4.958   0.272  0.1654 -0.9913  1.2574
 7143SOL    HW328339   4.963   5.025   0.398 -1.5145  0.5277  1.1719
 7143SOL    MW428340   4.925   5.030   0.320  0.0838 -0.3007  0.2714
 7144SOL     OW28341   6.370   0.339   4.733  0.2293  0.0204 -0.0803
 7144SOL    HW228342   6.445   0.305   4.782  0.2323  1.0537  0.6613
 7144SOL    HW328343   6.306   0.361   4.800  0.3949  1.8643 -0.4791
 7144SOL    MW428344   6.372   0.338   4.748  0.2515  0.4000 -0.0351
 7145SOL     OW28345   3.351   4.677   5.527  0.0134 -0.0131 -0.1669
 7145SOL    HW228346   3.403   4.597   5.529 -0.6150 -0.4880 -1.6062
 7145SOL    HW328347   3.411   4.745   5.557  1.4137 -0.5883 -1.5333
 7145SOL    MW428348   3.366   4.675   5.531  0.1153 -0.1517 -0.5371
 7146SOL     OW28349   5.815   3.022   0.768  0.2658  0.0870  0.8063
 7146SOL    HW228350   5.869   3.013   0.690 -0.1831 -2.1099  0.6737
 7146SOL    HW328351   5.751   2.950   0.761 -1.0359  1.0427  2.2220
 7146SOL    MW428352   5.813   3.011   0.757  0.0349 -0.0768  0.9756
 7147SOL     OW28353   4.920   6.382   3.964  0.4357  0.0890  0.7010
 7147SOL    HW228354   4.891   6.307   4.015 -0.1005  0.9451  1.7043
 7147SOL    HW328355   4.899   6.458   4.019 -0.6839  1.0932 -1.0018
 7147SOL    MW428356   4.913   6.382   3.978  0.2172  0.3344  0.6087
 7148SOL     OW28357   2.195   1.175   2.181 -0.0455 -0.2844 -0.5175
 7148SOL    HW228358   2.262   1.231   2.140  1.3839 -1.1570  0.5266
 7148SOL    HW328359   2.244   1.102   2.217 -1.8316 -2.0375 -1.4833
 7148SOL    MW428360   2.210   1.173   2.180 -0.0925 -0.6308 -0.5072
 7149SOL     OW28361   2.208   5.565   4.760 -0.0919 -0.7538 -0.4164
 7149SOL    HW228362   2.122   5.523   4.758 -0.7104  0.4248  0.2750
 7149SOL    HW328363   2.223   5.587   4.852  0.2447  0.4284 -0.7306
 7149SOL    MW428364   2.199   5.563   4.772 -0.1291 -0.4423 -0.3666
 7150SOL     OW28365   1.796   4.881   0.530  0.1600  1.0424  0.0685
 7150SOL    HW228366   1.705   4.907   0.546  0.2372  1.4849 -0.1970
 7150SOL    HW328367   1.804   4.880   0.435  0.1888  0.1289  0.0791
 7150SOL    MW428368   1.785   4.885   0.519  0.1740  0.9802  0.0348
 7151SOL     OW28369   5.554   1.752   3.320  0.2313  0.5281 -0.4428
 7151SOL    HW228370   5.588   1.810   3.251  0.0157  0.8366 -0.2953
 7151SOL    HW328371   5.467   1.726   3.289  0.9835 -1.0820 -1.2997
 7151SOL    MW428372   5.547   1.757   3.307  0.3021  0.3564 -0.5364
 7152SOL     OW28373   3.891   6.363   0.778 -0.0244  0.4604  0.2108
 7152SOL    HW228374   3.888   6.458   0.787  0.7277  0.5973 -0.8403
 7152SOL    HW328375   3.975   6.339   0.816 -0.2139  0.2076  0.4739
 7152SOL    MW428376   3.902   6.372   0.784  0.0498  0.4451  0.1068
 7153SOL     OW28377   5.933   5.631   4.822  0.6653 -0.0067  0.2209
 7153SOL    HW228378   5.856   5.666   4.866  1.1068 -0.2661  1.2469
 7153SOL    HW328379   5.927   5.662   4.732 -0.9348 -0.5079  0.1256
 7153SOL    MW428380   5.922   5.639   4.816  0.5125 -0.1071  0.3437
 7154SOL     OW28381   4.371   5.320   1.390 -0.3397 -0.9319 -0.8784
 7154SOL    HW228382   4.387   5.403   1.434 -1.6365 -1.5583  0.9049
 7154SOL    HW328383   4.447   5.266   1.412 -0.4739 -0.8823 -0.2726
 7154SOL    MW428384   4.383   5.324   1.399 -0.5285 -1.0080 -0.5632
 7155SOL     OW28385   4.680   4.695   4.989  0.6608 -0.0824  0.0007
 7155SOL    HW228386   4.586   4.677   4.980  0.2468  0.0507  2.9954
 7155SOL    HW328387   4.715   4.687   4.901 -2.0087 -1.0626 -1.0561
 7155SOL    MW428388   4.672   4.692   4.976  0.2540 -0.1942  0.2564
 7156SOL     OW28389   6.343   5.318   3.027 -0.0909 -0.0173  0.2049
 7156SOL    HW228390   6.263   5.305   2.977  0.7298 -2.1174 -0.6683
 7156SOL    HW328391   6.336   5.256   3.100  0.2520  0.6099  0.7886
 7156SOL    MW428392   6.332   5.308   3.030  0.0626 -0.2116  0.1667
 7157SOL     OW28393   2.033   3.097   1.377  0.5597  0.1962 -0.0565
 7157SOL    HW228394   2.081   3.058   1.305  1.4571 -0.7090  1.0002
 7157SOL    HW328395   1.942   3.074   1.361  0.7820 -0.2174 -0.7579
 7157SOL    MW428396   2.027   3.089   1.366  0.7074  0.0222 -0.0096
 7158SOL     OW28397   1.939   5.282   0.918  0.0820  0.0416 -0.1382
 7158SOL    HW228398   1.953   5.373   0.946 -0.9907  0.1947 -0.0487
 7158SOL    HW328399   1.954   5.283   0.824 -1.3496  0.6459 -0.3864
 7158SOL    MW428400   1.943   5.294   0.910 -0.2484  0.1416 -0.1591
 7159SOL     OW28401   5.110   2.773   1.285 -0.8543 -0.2303  0.2044
 7159SOL    HW228402   5.199   2.743   1.301 -1.0052 -1.5196 -1.0653
 7159SOL    HW328403   5.056   2.719   1.342 -0.8215  0.8965  1.3473
 7159SOL    MW428404   5.115   2.762   1.294 -0.8699 -0.2518  0.1877
 7160SOL     OW28405   5.686   0.958   5.545 -0.4534 -0.1714  0.2391
 7160SOL    HW228406   5.781   0.947   5.542 -0.4997 -0.7081  0.6416
 7160SOL    HW328407   5.664   0.995   5.459  0.2276  0.9110  0.5037
 7160SOL    MW428408   5.696   0.962   5.533 -0.3697 -0.0994  0.3271
 7161SOL     OW28409   1.506   1.981   6.139  0.1349  0.1544  0.5557
 7161SOL    HW228410   1.589   2.024   6.164 -0.3540 -0.1151  2.8721
 7161SOL    HW328411   1.446   2.054   6.122  0.0093  0.4254  2.0063
 7161SOL    MW428412   1.509   1.997   6.140  0.0538  0.1546  1.0527
 7162SOL     OW28413   6.210   3.848   1.441  0.0962  0.6417  0.2652
 7162SOL    HW228414   6.185   3.813   1.527 -0.9758  0.9474  0.0880
 7162SOL    HW328415   6.130   3.889   1.407  0.3218 -0.0331 -1.1606
 7162SOL    MW428416   6.196   3.849   1.448 -0.0154  0.5930  0.0537
 7163SOL     OW28417   3.756   1.247   1.615 -0.2426 -0.7009  0.3747
 7163SOL    HW228418   3.671   1.201   1.615  0.1961 -1.5252  0.3204
 7163SOL    HW328419   3.743   1.321   1.556 -0.4896 -1.6603 -0.8218
 7163SOL    MW428420   3.743   1.250   1.607 -0.2173 -0.9362  0.2097
 7164SOL     OW28421   4.458   6.179   6.035 -0.6989  0.1009  0.1341
 7164SOL    HW228422   4.437   6.262   6.077 -1.5623  0.0225 -0.1197
 7164SOL    HW328423   4.426   6.113   6.096 -1.0867 -0.0250 -0.1997
 7164SOL    MW428424   4.451   6.181   6.049 -0.8640  0.0740  0.0565
 7165SOL     OW28425   0.483   6.038   5.538  0.3077  0.4730 -0.1260
 7165SOL    HW228426   0.519   6.001   5.619  1.4659  0.2529 -0.7138
 7165SOL    HW328427   0.421   6.105   5.568  4.0668  3.8006  1.1307
 7165SOL    MW428428   0.480   6.042   5.553  0.9565  0.8830 -0.0377
 7166SOL     OW28429   4.217   0.814   2.745  0.1940  0.0593  0.6912
 7166SOL    HW228430   4.211   0.896   2.697  0.2681 -1.3182 -1.8297
 7166SOL    HW328431   4.127   0.782   2.751  0.4338 -1.3068 -1.5513
 7166SOL    MW428432   4.205   0.820   2.739  0.2354 -0.3027  0.0627
 7167SOL     OW28433   3.376   4.995   5.028  0.5388 -0.2530 -0.0951
 7167SOL    HW228434   3.296   4.971   5.075  0.4513 -0.2700 -0.2495
 7167SOL    HW328435   3.374   4.941   4.949 -0.4766  1.3442 -1.2531
 7167SOL    MW428436   3.365   4.985   5.024  0.3933 -0.0445 -0.2683
 7168SOL     OW28437   2.989   0.344   4.809 -0.5184 -0.3868  0.5942
 7168SOL    HW228438   3.008   0.271   4.750 -0.6085  0.7748 -0.9396
 7168SOL    HW328439   3.069   0.354   4.862 -0.5904 -1.7009  0.9819
 7168SOL    MW428440   3.002   0.336   4.808 -0.5398 -0.4069  0.4430
 7169SOL     OW28441   1.773   1.883   0.548  0.2585 -1.2615  0.6068
 7169SOL    HW228442   1.843   1.871   0.612  1.0028  1.1149  0.3112
 7169SOL    HW328443   1.807   1.842   0.468  1.1508 -0.5528  0.6008
 7169SOL    MW428444   1.787   1.876   0.546  0.4744 -0.8544  0.5670
 7170SOL     OW28445   4.959   4.412   3.788  0.5106  0.1357  0.3083
 7170SOL    HW228446   4.996   4.424   3.700  0.2579  2.3410  0.4519
 7170SOL    HW328447   5.009   4.472   3.843 -0.6983  0.2895  1.2688
 7170SOL    MW428448   4.970   4.422   3.784  0.3178  0.4469  0.4540
 7171SOL     OW28449   4.514   3.924   3.696  0.1569  0.1277 -0.0158
 7171SOL    HW228450   4.568   3.872   3.757 -1.1024 -0.3569  0.7410
 7171SOL    HW328451   4.442   3.957   3.751 -1.0011 -0.2945 -1.2322
 7171SOL    MW428452   4.512   3.921   3.712 -0.1620  0.0080 -0.0764
 7172SOL     OW28453   1.880   4.046   0.372 -0.1233 -0.8708 -0.2029
 7172SOL    HW228454   1.860   4.037   0.465  1.7261 -3.4471  0.0722
 7172SOL    HW328455   1.948   4.114   0.369 -0.2606 -0.7059  0.3074
 7172SOL    MW428456   1.887   4.054   0.384  0.1026 -1.1889 -0.0992
 7173SOL     OW28457   4.825   0.341   1.006 -0.1939 -0.0843  0.4580
 7173SOL    HW228458   4.821   0.377   1.094 -0.2853  1.0328  0.0168
 7173SOL    HW328459   4.857   0.251   1.018  1.4756  0.5887  1.4871
 7173SOL    MW428460   4.829   0.334   1.019  0.0143  0.1519  0.5356
 7174SOL     OW28461   3.180   5.327   2.414  0.1719 -0.1680 -0.6793
 7174SOL    HW228462   3.123   5.320   2.338 -1.6703 -0.2492  0.6441
 7174SOL    HW328463   3.213   5.239   2.429  1.3663  0.0300 -1.9312
 7174SOL    MW428464   3.177   5.315   2.406  0.0864 -0.1526 -0.6699
 7175SOL     OW28465   1.933   5.111   4.744  0.4642  0.3007  0.0549
 7175SOL    HW228466   1.864   5.172   4.771  0.6542  0.6869 -0.3297
 7175SOL    HW328467   2.012   5.145   4.786  0.3497 -0.4059  0.8812
 7175SOL    MW428468   1.934   5.124   4.753  0.4741  0.2584  0.1132
 7176SOL     OW28469   2.654   3.818   5.528 -0.1771  0.0578 -0.0131
 7176SOL    HW228470   2.730   3.803   5.583  0.5675  2.5418 -0.2479
 7176SOL    HW328471   2.690   3.835   5.441 -1.1937 -1.1787 -0.7283
 7176SOL    MW428472   2.669   3.818   5.523 -0.2130  0.2224 -0.1385
 7177SOL     OW28473   0.788   4.103   5.227  0.0433 -0.0951 -0.3192
 7177SOL    HW228474   0.833   4.162   5.287 -1.0292  0.5660 -0.1349
 7177SOL    HW328475   0.757   4.032   5.284 -0.3562  0.1673 -0.2059
 7177SOL    MW428476   0.790   4.101   5.243 -0.1509  0.0267 -0.2799
 7178SOL     OW28477   1.292   4.904   4.191  0.1834 -0.4815 -0.0487
 7178SOL    HW228478   1.247   4.988   4.183  2.5192  0.7335 -1.6544
 7178SOL    HW328479   1.296   4.870   4.101 -1.4164 -2.7944  0.6528
 7178SOL    MW428480   1.287   4.910   4.178  0.2805 -0.6264 -0.1680
 7179SOL     OW28481   1.515   5.364   4.722  0.2282 -0.6419 -0.2368
 7179SOL    HW228482   1.431   5.408   4.713  0.0027 -0.9357  0.4337
 7179SOL    HW328483   1.497   5.273   4.699 -0.1350 -1.1914  2.0048
 7179SOL    MW428484   1.502   5.358   4.718  0.1505 -0.7532  0.1474
 7180SOL     OW28485   4.643   2.768   0.206  0.5761 -0.8643  0.3541
 7180SOL    HW228486   4.633   2.735   0.117 -2.8503 -1.4619  0.8231
 7180SOL    HW328487   4.670   2.691   0.257 -1.2932 -1.5102  0.4219
 7180SOL    MW428488   4.645   2.753   0.201 -0.1226 -1.0284  0.4249
 7181SOL     OW28489   3.348   3.076   0.731 -0.0312 -0.6227  0.2316
 7181SOL    HW228490   3.334   3.032   0.648 -0.2448 -1.9058  0.9262
 7181SOL    HW328491   3.373   3.007   0.792  1.6636  0.4888  0.9012
 7181SOL    MW428492   3.350   3.061   0.728  0.1642 -0.6453  0.4116
 7182SOL     OW28493   4.189   6.252   2.319  0.0594  0.2833  0.2381
 7182SOL    HW228494   4.225   6.202   2.392 -0.0672  1.7129  1.3264
 7182SOL    HW328495   4.202   6.197   2.243  1.4388 -0.6745  1.1375
 7182SOL    MW428496   4.195   6.238   2.319  0.2247  0.3455  0.5004
 7183SOL     OW28497   3.484   1.644   4.259 -0.1804  0.5002  0.2017
 7183SOL    HW228498   3.526   1.580   4.317  0.9668  0.4230 -0.6732
 7183SOL    HW328499   3.545   1.653   4.186 -0.0881  2.9427  0.5044
 7183SOL    MW428500   3.498   1.637   4.257 -0.0168  0.8123  0.1262
 7184SOL     OW28501   5.057   1.643   5.989  0.2154 -0.0868 -0.4024
 7184SOL    HW228502   5.088   1.646   6.079  0.2206 -0.1103 -0.4037
 7184SOL    HW328503   4.966   1.670   5.994 -0.2468 -1.6036 -0.1891
 7184SOL    MW428504   5.049   1.647   6.002  0.1551 -0.2900 -0.3744
 7185SOL     OW28505   5.808   0.278   6.140  0.0167  0.1675 -0.3505
 7185SOL    HW228506   5.752   0.307   6.068 -0.4770  1.2759  0.4459
 7185SOL    HW328507   5.747   0.255   6.210  0.4910 -0.8937 -0.2716
 7185SOL    MW428508   5.792   0.279   6.140  0.0141  0.1737 -0.2350
 7186SOL     OW28509   6.434   1.361   3.217  0.2217  0.2119 -0.1687
 7186SOL    HW228510   6.424   1.412   3.298  0.5713  1.9817 -1.2026
 7186SOL    HW328511   6.528   1.367   3.197  0.1809 -0.4460 -0.5712
 7186SOL    MW428512   6.445   1.368   3.225  0.2624  0.3586 -0.3582
 7187SOL     OW28513   2.513   3.721   1.399  0.0355 -0.4301 -0.3207
 7187SOL    HW228514   2.434   3.737   1.450  0.4048  1.5737 -0.3198
 7187SOL    HW328515   2.573   3.680   1.461 -0.4127 -0.3941  0.1442
 7187SOL    MW428516   2.511   3.717   1.414  0.0251 -0.1609 -0.2592
 7188SOL     OW28517   2.515   2.409   5.579  0.2489  0.2619 -0.2278
 7188SOL    HW228518   2.551   2.327   5.545 -0.7057 -1.2134  2.1085
 7188SOL    HW328519   2.425   2.410   5.548  0.0386  0.0190  0.3536
 7188SOL    MW428520   2.508   2.398   5.570  0.0952  0.0352  0.1572
 7189SOL     OW28521   0.044   5.726   4.021  0.2633  0.1092  0.0702
 7189SOL    HW228522  -0.041   5.691   4.046 -0.7820  1.6269 -1.1622
 7189SOL    HW328523   0.095   5.728   4.102 -2.0760  2.4260  1.6407
 7189SOL    MW428524   0.040   5.722   4.035 -0.1833  0.6151  0.1148
 7190SOL     OW28525   5.996   0.444   6.277 -0.0087 -0.0363 -0.1938
 7190SOL    HW228526   5.970   0.497   6.353  0.9538  0.3568 -0.1346
 7190SOL    HW328527   5.914   0.403   6.248 -0.5023  0.3103  0.6650
 7190SOL    MW428528   5.981   0.445   6.283  0.0532  0.0613 -0.0727
 7191SOL     OW28529   3.059   3.183   0.188  0.3367  0.3394  0.2501
 7191SOL    HW228530   3.003   3.256   0.217  0.6010  0.0750  1.4775
 7191SOL    HW328531   3.062   3.192   0.092 -0.3802  1.3917  0.3064
 7191SOL    MW428532   3.052   3.194   0.179  0.2770  0.4433  0.4194
 7192SOL     OW28533   2.332   4.938   6.170 -0.2080  0.0070 -0.1541
 7192SOL    HW228534   2.424   4.964   6.161  0.1045 -1.0894 -0.3951
 7192SOL    HW328535   2.310   4.959   6.261  1.3244 -2.6748  0.9723
 7192SOL    MW428536   2.341   4.944   6.181  0.0354 -0.4915 -0.0373
 7193SOL     OW28537   4.119   5.550   2.294  0.2502  0.2672 -0.0789
 7193SOL    HW228538   4.191   5.532   2.355 -0.1149  0.7330  0.5027
 7193SOL    HW328539   4.081   5.632   2.325  0.4099  0.8097 -1.2782
 7193SOL    MW428540   4.123   5.558   2.306  0.2231  0.4002 -0.1604
 7194SOL     OW28541   3.422   3.955   4.164  0.0667  0.1015 -0.5939
 7194SOL    HW228542   3.478   4.006   4.106  1.4521 -0.2686  0.3703
 7194SOL    HW328543   3.429   3.999   4.249  2.3774 -2.3404  0.6252
 7194SOL    MW428544   3.430   3.967   4.167  0.5543 -0.2695 -0.3059
 7195SOL     OW28545   0.888   0.230   0.171 -0.4002  0.3803  0.0406
 7195SOL    HW228546   0.911   0.137   0.171 -0.1493  0.4321  0.7759
 7195SOL    HW328547   0.817   0.237   0.107 -1.4698 -0.5935  1.0513
 7195SOL    MW428548   0.881   0.219   0.163 -0.5082  0.2587  0.2710
 7196SOL     OW28549   2.375   3.992   3.382 -0.7538  0.2623  0.7005
 7196SOL    HW228550   2.404   4.040   3.460 -1.3221  0.3446  0.8712
 7196SOL    HW328551   2.351   3.906   3.416 -1.1428  0.3468  0.6464
 7196SOL    MW428552   2.375   3.987   3.397 -0.8801  0.2843  0.7159
 7197SOL     OW28553   3.459   6.359   1.363 -0.2036  0.2673 -0.5907
 7197SOL    HW228554   3.518   6.333   1.434 -0.6518  0.2394 -0.2291
 7197SOL    HW328555   3.469   6.289   1.298  0.9374  0.7846 -0.9963
 7197SOL    MW428556   3.468   6.346   1.364 -0.1122  0.3319 -0.5965
 7198SOL     OW28557   1.736   5.761   4.877  0.1145  1.0002 -0.1742
 7198SOL    HW228558   1.690   5.843   4.859  0.2349  0.5734 -2.8982
 7198SOL    HW328559   1.829   5.786   4.877  0.0780  1.2756  1.8090
 7198SOL    MW428560   1.742   5.775   4.874  0.1256  0.9802 -0.2719
 7199SOL     OW28561   3.167   5.244   2.827  0.2509  0.0148  0.4117
 7199SOL    HW228562   3.208   5.329   2.843 -0.7333  0.6083 -0.1213
 7199SOL    HW328563   3.173   5.198   2.911  1.7015  0.1933  0.4413
 7199SOL    MW428564   3.173   5.249   2.840  0.3124  0.1167  0.3453
 7200SOL     OW28565   1.376   2.080   1.690 -0.3350 -0.2185  0.3519
 7200SOL    HW228566   1.463   2.041   1.685  0.3820  1.0893  1.7778
 7200SOL    HW328567   1.385   2.152   1.753 -2.3031  0.3381  0.0779
 7200SOL    MW428568   1.389   2.084   1.698 -0.5001  0.0275  0.5039
 7201SOL     OW28569   5.746   1.966   2.481 -0.5361  0.2920 -0.1210
 7201SOL    HW228570   5.827   2.006   2.450 -0.6394 -0.2139 -1.0810
 7201SOL    HW328571   5.682   1.984   2.412 -1.2688  0.7128  0.6356
 7201SOL    MW428572   5.748   1.974   2.468 -0.6464  0.2808 -0.1479
 7202SOL     OW28573   1.449   4.304   5.650 -0.4062  0.1431  0.0832
 7202SOL    HW228574   1.470   4.328   5.741  0.0957  1.2368 -0.2984
 7202SOL    HW328575   1.458   4.209   5.648  0.2142  0.1611  1.0315
 7202SOL    MW428576   1.453   4.295   5.662 -0.2581  0.2898  0.1580
 7203SOL     OW28577   0.428   0.270   3.298 -0.2692 -0.3204  0.1772
 7203SOL    HW228578   0.474   0.272   3.214  0.8077 -0.1446  0.7476
 7203SOL    HW328579   0.340   0.301   3.278 -0.9842 -3.0931 -1.4097
 7203SOL    MW428580   0.423   0.275   3.285 -0.2215 -0.6630  0.0431
 7204SOL     OW28581   3.035   5.417   3.379 -0.0880 -0.2997 -0.6035
 7204SOL    HW228582   2.997   5.500   3.353  1.1982 -0.4019 -3.1165
 7204SOL    HW328583   3.129   5.434   3.386  0.1010 -1.3495 -0.2932
 7204SOL    MW428584   3.043   5.430   3.377  0.1067 -0.4517 -0.8941
 7205SOL     OW28585   2.496   1.105   4.355 -0.4206  0.3325 -0.3847
 7205SOL    HW228586   2.559   1.072   4.419 -0.8922 -0.0102 -0.0904
 7205SOL    HW328587   2.492   1.199   4.372 -0.5503  0.2421  0.0955
 7205SOL    MW428588   2.504   1.113   4.365 -0.5000  0.2754 -0.2825
 7206SOL     OW28589   3.809   3.846   0.406 -0.0782 -0.1987  0.4684
 7206SOL    HW228590   3.764   3.927   0.426  0.5398  0.2896 -0.0687
 7206SOL    HW328591   3.752   3.800   0.344  0.3814  0.6422 -0.5979
 7206SOL    MW428592   3.796   3.850   0.400  0.0640 -0.0233  0.2568
 7207SOL     OW28593   4.122   5.702   2.844  0.2572  0.2364 -0.3479
 7207SOL    HW228594   4.156   5.613   2.834 -1.8962 -1.0536  2.3787
 7207SOL    HW328595   4.192   5.750   2.887  1.0421 -0.4529 -0.8337
 7207SOL    MW428596   4.135   5.697   2.848  0.0767 -0.0247 -0.0523
 7208SOL     OW28597   2.934   2.032   0.581 -0.1179 -0.0609 -0.1200
 7208SOL    HW228598   2.872   2.093   0.619  0.3692  1.4198 -1.5570
 7208SOL    HW328599   3.017   2.051   0.625 -0.4026 -1.2174  0.9592
 7208SOL    MW428600   2.937   2.042   0.592 -0.0912 -0.0181 -0.1672
 7209SOL     OW28601   4.451   1.170   1.098  0.7999  0.1251 -0.0559
 7209SOL    HW228602   4.463   1.208   1.011  1.4058  0.4416  0.1608
 7209SOL    HW328603   4.366   1.128   1.094  0.6733  0.4307 -0.6988
 7209SOL    MW428604   4.442   1.169   1.086  0.8631  0.2072 -0.1121
 7210SOL     OW28605   3.999   3.003   2.892  0.2948 -0.5834  0.1115
 7210SOL    HW228606   3.955   3.046   2.965  2.4175 -0.3301  1.2964
 7210SOL    HW328607   4.088   2.986   2.923  1.0055 -1.2710 -2.1084
 7210SOL    MW428608   4.005   3.006   2.905  0.6686 -0.6407 -0.0251
 7211SOL     OW28609   2.773   1.909   5.850 -0.2279  0.0075 -0.4170
 7211SOL    HW228610   2.747   1.877   5.937  1.9738 -1.0938 -0.0867
 7211SOL    HW328611   2.868   1.894   5.847 -0.4674 -1.7023 -3.6748
 7211SOL    MW428612   2.782   1.903   5.861  0.0310 -0.3634 -0.8033
 7212SOL     OW28613   5.337   2.417   2.022  0.0409 -0.0378  0.2568
 7212SOL    HW228614   5.314   2.459   2.104  0.7049 -1.6844  1.3455
 7212SOL    HW328615   5.261   2.362   2.002  0.1519 -0.1427  0.1219
 7212SOL    MW428616   5.324   2.415   2.030  0.1432 -0.2689  0.3826
 7213SOL     OW28617   0.692   1.531   2.459  0.0441 -0.3256  0.3397
 7213SOL    HW228618   0.676   1.588   2.384 -1.2061 -1.2467 -0.1248
 7213SOL    HW328619   0.712   1.591   2.531  0.3549  0.6128 -0.5159
 7213SOL    MW428620   0.692   1.546   2.459 -0.0799 -0.3233  0.1656
 7214SOL     OW28621   2.360   6.014   5.027 -0.2030  0.1269 -0.2463
 7214SOL    HW228622   2.392   6.100   5.001  0.0847  0.0268 -0.2203
 7214SOL    HW328623   2.412   5.952   4.977 -0.7568 -0.0212 -0.6498
 7214SOL    MW428624   2.371   6.017   5.017 -0.2381  0.0941 -0.2961
 7215SOL     OW28625   2.973   5.809   0.903  0.1065 -0.8014  0.7073
 7215SOL    HW228626   2.882   5.817   0.931  0.6894 -0.3839  2.5817
 7215SOL    HW328627   3.001   5.723   0.934  0.2336 -1.1281 -0.2696
 7215SOL    MW428628   2.965   5.799   0.911  0.2002 -0.7894  0.8257
 7216SOL     OW28629   0.353   2.101   0.321  0.2242  0.3290 -0.1190
 7216SOL    HW228630   0.321   2.113   0.411 -0.2301  0.8501 -0.3424
 7216SOL    HW328631   0.343   2.007   0.304  1.2687  0.0453  0.7233
 7216SOL    MW428632   0.347   2.090   0.331  0.3021  0.3603 -0.0373
 7217SOL     OW28633   2.955   6.042   5.957  0.0144 -0.2856  0.2930
 7217SOL    HW228634   3.036   6.043   6.008  1.1300 -1.2482 -1.3849
 7217SOL    HW328635   2.969   6.107   5.888 -0.2427 -1.1122 -0.5635
 7217SOL    MW428636   2.968   6.051   5.955  0.1277 -0.5216 -0.0414
 7218SOL     OW28637   0.414   6.168   3.497 -0.3161  0.5440  0.4351
 7218SOL    HW228638   0.494   6.155   3.548  0.5856  2.8507 -0.2387
 7218SOL    HW328639   0.367   6.237   3.545 -1.8451 -0.6412  0.7063
 7218SOL    MW428640   0.418   6.175   3.510 -0.3989  0.6919  0.3820
 7219SOL     OW28641   4.688   4.511   3.797 -0.3638  0.0467  0.0548
 7219SOL    HW228642   4.690   4.603   3.772  1.3641 -0.4852 -2.0493
 7219SOL    HW328643   4.776   4.479   3.781 -0.1034 -1.3842  3.4503
 7219SOL    MW428644   4.700   4.519   3.792 -0.1014 -0.2123  0.2252
 7220SOL     OW28645   2.296   3.295   3.192  0.2862  0.4333  0.9916
 7220SOL    HW228646   2.291   3.379   3.146 -0.2314  0.1733  0.5491
 7220SOL    HW328647   2.369   3.250   3.150 -0.4520  0.0265  0.1016
 7220SOL    MW428648   2.305   3.300   3.180  0.1205  0.3454  0.8158
 7221SOL     OW28649   1.847   1.967   4.594 -0.7912 -0.1688 -0.3515
 7221SOL    HW228650   1.773   2.021   4.623  0.2374  0.5916  1.0212
 7221SOL    HW328651   1.923   2.025   4.600  0.3538 -1.6845  1.0601
 7221SOL    MW428652   1.847   1.982   4.599 -0.5045 -0.2684  0.0159
 7222SOL     OW28653   4.697   5.968   2.032 -0.1664 -0.2506 -0.1867
 7222SOL    HW228654   4.792   5.970   2.042 -0.2202 -0.9095  0.5956
 7222SOL    HW328655   4.667   6.052   2.068  0.0422 -0.5356  0.6787
 7222SOL    MW428656   4.705   5.979   2.038 -0.1460 -0.3751  0.0307
 7223SOL     OW28657   0.417   0.764   5.798 -0.0462 -0.3072  0.1861
 7223SOL    HW228658   0.344   0.826   5.803  2.1676  2.5376 -0.2221
 7223SOL    HW328659   0.465   0.777   5.879 -0.2754 -2.6166  0.7486
 7223SOL    MW428660   0.413   0.774   5.809  0.2156 -0.2365  0.2065
 7224SOL     OW28661   1.397   1.980   0.199 -0.1240 -0.0008 -0.2364
 7224SOL    HW228662   1.455   1.938   0.135 -0.4266  0.0585 -0.5524
 7224SOL    HW328663   1.453   1.997   0.274  0.3787  0.4380 -0.6955
 7224SOL    MW428664   1.412   1.977   0.200 -0.0976  0.0649 -0.3387
 7225SOL     OW28665   2.852   2.308   2.012 -0.2931  0.1010 -0.1140
 7225SOL    HW228666   2.940   2.283   2.039 -0.4591  1.3917  1.8398
 7225SOL    HW328667   2.818   2.359   2.085 -2.3154  0.4656 -1.2262
 7225SOL    MW428668   2.859   2.312   2.025 -0.5818  0.3194 -0.0030
 7226SOL     OW28669   1.564   1.993   1.253 -0.3588 -0.0850 -0.0806
 7226SOL    HW228670   1.584   1.934   1.181 -0.2560 -1.7511  1.2575
 7226SOL    HW328671   1.494   1.948   1.301  0.1729  0.5785  1.3395
 7226SOL    MW428672   1.557   1.979   1.250 -0.2751 -0.2173  0.2833
 7227SOL     OW28673   0.122   5.270   1.023  0.2118  0.2471 -0.5701
 7227SOL    HW228674   0.153   5.360   1.029 -0.8271  0.5395  2.8069
 7227SOL    HW328675   0.190   5.219   1.067 -0.5750 -0.1408  0.2291
 7227SOL    MW428676   0.135   5.275   1.030 -0.0291  0.2345 -0.0191
 7228SOL     OW28677   1.853   6.165   5.027  0.0388  0.2010  0.5442
 7228SOL    HW228678   1.777   6.203   4.982  0.8340 -0.5968 -1.6162
 7228SOL    HW328679   1.818   6.087   5.071 -0.1829 -1.0854 -1.7641
 7228SOL    MW428680   1.838   6.160   5.027  0.1145 -0.0740 -0.0454
 7229SOL     OW28681   2.754   3.749   0.880 -0.0321 -0.2903  0.1571
 7229SOL    HW228682   2.796   3.709   0.804  0.3411 -1.0808  0.7716
 7229SOL    HW328683   2.724   3.676   0.933 -2.7412  0.1941 -0.5074
 7229SOL    MW428684   2.755   3.734   0.877 -0.3403 -0.3307  0.1505
 7230SOL     OW28685   0.431   3.809   2.795  0.2424 -0.2016  0.1630
 7230SOL    HW228686   0.491   3.801   2.869  2.4961 -1.2831 -1.6665
 7230SOL    HW328687   0.452   3.735   2.738  0.0810  1.6661 -2.5405
 7230SOL    MW428688   0.442   3.799   2.797  0.5184 -0.0978 -0.4351
 7231SOL     OW28689   2.223   5.837   5.474  0.2840 -0.4139 -0.5567
 7231SOL    HW228690   2.300   5.855   5.420  0.6371  0.8558  0.3335
 7231SOL    HW328691   2.203   5.745   5.458  1.9268 -0.7400 -0.8637
 7231SOL    MW428692   2.230   5.828   5.464  0.5474 -0.2894 -0.4797
 7232SOL     OW28693   1.804   2.230   0.213 -0.4485 -0.3099 -0.2276
 7232SOL    HW228694   1.742   2.273   0.272 -0.1745 -1.2341  0.7613
 7232SOL    HW328695   1.765   2.145   0.195 -0.6306  0.0276 -1.5829
 7232SOL    MW428696   1.791   2.225   0.218 -0.4364 -0.3873 -0.2760
 7233SOL     OW28697   5.876   0.841   6.348  0.0636 -0.1625  0.3074
 7233SOL    HW228698   5.896   0.771   6.410 -0.9133  0.7651  1.7135
 7233SOL    HW328699   5.782   0.832   6.331  0.3311 -0.4882 -1.1885
 7233SOL    MW428700   5.866   0.830   6.354 -0.0300 -0.0831  0.2956
 7234SOL     OW28701   3.400   5.205   4.087  0.6016 -0.8524  0.6033
 7234SOL    HW228702   3.456   5.229   4.161 -0.3104  0.5473  0.8744
 7234SOL    HW328703   3.455   5.216   4.010  0.9530 -0.3607  0.9226
 7234SOL    MW428704   3.414   5.209   4.087  0.5276 -0.6029  0.6812
 7235SOL     OW28705   3.766   2.945   2.759  0.1662  0.0283  0.5498
 7235SOL    HW228706   3.853   2.971   2.792  0.2639 -1.0971  1.2104
 7235SOL    HW328707   3.770   2.963   2.665  1.1949 -0.2222  0.5351
 7235SOL    MW428708   3.778   2.951   2.751  0.3148 -0.1533  0.6350
 7236SOL     OW28709   5.090   4.695   3.418  0.4911 -0.2516  0.3598
 7236SOL    HW228710   5.135   4.631   3.473 -0.3533  0.4490  1.9347
 7236SOL    HW328711   5.005   4.654   3.399  0.9516 -0.6828 -0.8328
 7236SOL    MW428712   5.085   4.681   3.423  0.4404 -0.2161  0.4102
 7237SOL     OW28713   2.284   1.370   1.446  0.1689  0.0772  0.2542
 7237SOL    HW228714   2.248   1.281   1.453 -0.7137  0.4289  0.3513
 7237SOL    HW328715   2.377   1.360   1.466  0.3592 -1.0326 -0.9833
 7237SOL    MW428716   2.292   1.357   1.449  0.0775 -0.0228  0.1038
 7238SOL     OW28717   0.157   5.017   5.599  0.2485 -0.4649 -0.1577
 7238SOL    HW228718   0.178   5.068   5.678 -1.8486  1.8919 -0.9898
 7238SOL    HW328719   0.090   4.955   5.627  0.2150 -0.2959  0.1416
 7238SOL    MW428720   0.151   5.016   5.613 -0.0326 -0.1316 -0.2280
 7239SOL     OW28721   2.749   6.209   6.119  0.6768  0.4896 -0.1014
 7239SOL    HW228722   2.801   6.147   6.068 -1.7749  0.5015 -2.9368
 7239SOL    HW328723   2.659   6.179   6.107 -0.2390  1.8637  2.5331
 7239SOL    MW428724   2.744   6.197   6.111  0.2325  0.6725 -0.1279
 7240SOL     OW28725   3.309   3.723   4.405  0.7038 -0.1468  0.1306
 7240SOL    HW228726   3.384   3.700   4.352  0.3920 -0.1673 -0.3081
 7240SOL    HW328727   3.252   3.647   4.401 -0.4662  0.7397 -1.5689
 7240SOL    MW428728   3.311   3.710   4.397  0.5083 -0.0325 -0.1515
 7241SOL     OW28729   5.137   3.854   5.060  0.2533 -0.1672  0.2633
 7241SOL    HW228730   5.114   3.797   4.986 -1.8037 -0.0893  0.7990
 7241SOL    HW328731   5.128   3.943   5.025  0.1352 -0.1359  0.3747
 7241SOL    MW428732   5.133   3.858   5.045 -0.0337 -0.1528  0.3487
 7242SOL     OW28733   1.066   3.604   5.375 -0.0614 -0.8462 -0.0615
 7242SOL    HW228734   1.023   3.688   5.357 -0.4667 -0.6333  1.6700
 7242SOL    HW328735   1.015   3.540   5.326 -1.0946 -0.3309  0.3048
 7242SOL    MW428736   1.054   3.607   5.366 -0.2512 -0.7502  0.2153
 7243SOL     OW28737   1.504   1.080   3.554 -0.0652 -0.6490 -0.2531
 7243SOL    HW228738   1.496   0.996   3.598  0.1699  0.3777  1.9045
 7243SOL    HW328739   1.415   1.104   3.531 -0.5357 -0.1635  1.8696
 7243SOL    MW428740   1.491   1.072   3.556 -0.0963 -0.4495  0.3116
 7244SOL     OW28741   4.332   1.099   2.904 -0.8611  0.5402 -0.6758
 7244SOL    HW228742   4.367   1.019   2.943 -0.2049  1.0358 -0.2270
 7244SOL    HW328743   4.279   1.068   2.830  2.3749 -0.2052 -2.9227
 7244SOL    MW428744   4.330   1.084   2.899 -0.3476  0.5072 -0.9131
 7245SOL     OW28745   5.369   0.736   3.914  0.1849  0.3438  0.0598
 7245SOL    HW228746   5.327   0.796   3.976 -0.0959 -0.0484  0.2490
 7245SOL    HW328747   5.428   0.792   3.864  1.6350  0.4327  1.7328
 7245SOL    MW428748   5.371   0.752   3.916  0.3392  0.3038  0.3055
 7246SOL     OW28749   0.612   5.866   2.426 -0.3296  0.5608  0.0897
 7246SOL    HW228750   0.614   5.810   2.503  1.8118 -0.1754 -0.4266
 7246SOL    HW328751   0.545   5.932   2.445 -2.0674 -1.4085  1.2336
 7246SOL    MW428752   0.603   5.867   2.438 -0.2763  0.2039  0.1725
 7247SOL     OW28753   2.566   3.932   1.674  0.2620 -0.3449  0.5436
 7247SOL    HW228754   2.504   3.892   1.613  1.5957 -1.3548 -0.1927
 7247SOL    HW328755   2.619   3.859   1.705  2.5608  0.7449 -0.5820
 7247SOL    MW428756   2.565   3.917   1.670  0.7413 -0.3344  0.2980
 7248SOL     OW28757   5.577   2.192   0.775  0.8973  0.1421 -0.4000
 7248SOL    HW228758   5.565   2.172   0.682 -0.3831  0.3298 -0.2893
 7248SOL    HW328759   5.653   2.250   0.777  0.3546  0.9300 -1.4530
 7248SOL    MW428760   5.586   2.197   0.763  0.6568  0.2708 -0.5243
 7249SOL     OW28761   0.235   2.868   0.181  0.1038 -0.0340  0.3163
 7249SOL    HW228762   0.262   2.787   0.137 -0.2661 -0.9607  1.7287
 7249SOL    HW328763   0.221   2.842   0.272  0.5014  1.7424  0.9249
 7249SOL    MW428764   0.237   2.853   0.187  0.1074  0.0781  0.5829
 7250SOL     OW28765   5.967   5.795   3.248  0.1832 -0.0843 -0.6270
 7250SOL    HW228766   6.018   5.876   3.239  0.4081 -0.3368 -1.8693
 7250SOL    HW328767   6.032   5.725   3.250 -0.0277 -0.2699  0.0478
 7250SOL    MW428768   5.982   5.796   3.247  0.1850 -0.1421 -0.7019
 7251SOL     OW28769   1.196   3.413   6.348  0.0547 -0.1311 -0.0852
 7251SOL    HW228770   1.199   3.509   6.351 -0.8318 -0.0458 -1.1930
 7251SOL    HW328771   1.282   3.385   6.380  0.5421  1.0499 -0.3238
 7251SOL    MW428772   1.208   3.422   6.353  0.0020  0.0360 -0.2628
 7252SOL     OW28773   0.613   3.817   5.226 -0.0080  0.0309 -0.3113
 7252SOL    HW228774   0.660   3.805   5.309 -0.0674 -2.5233 -0.5756
 7252SOL    HW328775   0.682   3.819   5.160 -0.0700 -0.1269 -0.3815
 7252SOL    MW428776   0.628   3.816   5.229 -0.0240 -0.3269 -0.3555
 7253SOL     OW28777   0.350   1.091   0.069  0.5888 -0.4972 -0.4047
 7253SOL    HW228778   0.398   1.010   0.084  0.0793 -0.9408 -1.1443
 7253SOL    HW328779   0.348   1.101  -0.026 -1.2004 -0.7509 -0.4188
 7253SOL    MW428780   0.356   1.082   0.059  0.2855 -0.5892 -0.5041
 7254SOL     OW28781   1.590   2.373   4.510 -0.4121 -0.5127 -0.2906
 7254SOL    HW228782   1.506   2.410   4.484 -1.0904 -0.6040  1.6701
 7254SOL    HW328783   1.625   2.336   4.429 -1.6908  0.5738 -1.3935
 7254SOL    MW428784   1.584   2.373   4.496 -0.6703 -0.3814 -0.1774
 7255SOL     OW28785   4.584   3.759   5.830  0.3599 -0.4708  0.1963
 7255SOL    HW228786   4.636   3.821   5.881 -0.3652  0.0407  0.3290
 7255SOL    HW328787   4.600   3.782   5.739 -2.0782  1.8333  0.2271
 7255SOL    MW428788   4.593   3.770   5.825 -0.0574 -0.0993  0.2179
 7256SOL     OW28789   4.364   6.272   4.795 -0.0208  0.1343 -0.8093
 7256SOL    HW228790   4.417   6.352   4.785 -0.1890  0.2678 -0.6280
 7256SOL    HW328791   4.386   6.220   4.718  1.4227 -0.4140 -0.0612
 7256SOL    MW428792   4.374   6.276   4.783  0.1475  0.0796 -0.6867
 7257SOL     OW28793   3.821   5.629   2.812 -0.1711  0.6727  0.1893
 7257SOL    HW228794   3.871   5.679   2.877 -0.3720  0.5422  0.4479
 7257SOL    HW328795   3.749   5.591   2.862  0.3508 -0.4173  0.1260
 7257SOL    MW428796   3.818   5.631   2.827 -0.1288  0.5117  0.2151
 7258SOL     OW28797   4.238   2.121   0.820 -0.0552  0.0313  0.4073
 7258SOL    HW228798   4.303   2.153   0.883  0.8670 -0.8477 -0.0762
 7258SOL    HW328799   4.266   2.159   0.736  0.5589 -1.3255 -0.0200
 7258SOL    MW428800   4.251   2.130   0.817  0.1475 -0.2637  0.2871
 7259SOL     OW28801   2.471   2.611   1.775  0.3678  0.0429  0.2479
 7259SOL    HW228802   2.565   2.594   1.768  0.1087 -1.2025 -0.4970
 7259SOL    HW328803   2.446   2.570   1.858  0.2623 -0.7437 -0.1663
 7259SOL    MW428804   2.480   2.603   1.785  0.3197 -0.2252  0.0949
 7260SOL     OW28805   2.108   3.121   6.030 -0.2532 -0.4631  0.0449
 7260SOL    HW228806   2.019   3.115   6.066  0.0205  0.6927  0.9810
 7260SOL    HW328807   2.132   3.031   6.011 -1.7996 -0.7627 -0.6579
 7260SOL    MW428808   2.099   3.108   6.032 -0.4211 -0.3502  0.0757
 7261SOL     OW28809   6.466   4.602   0.945  0.2023  0.1493 -0.0569
 7261SOL    HW228810   6.372   4.587   0.955  0.1447  0.7336  0.3253
 7261SOL    HW328811   6.477   4.696   0.956  1.0972 -0.1446  2.3681
 7261SOL    MW428812   6.455   4.612   0.948  0.3128  0.1876  0.3135
 7262SOL     OW28813   2.312   4.036   4.858 -0.0131  0.3490 -0.2409
 7262SOL    HW228814   2.322   4.130   4.870 -0.5602  0.1966  1.9623
 7262SOL    HW328815   2.233   4.014   4.907  0.9664 -1.4555  0.6506
 7262SOL    MW428816   2.303   4.045   4.866  0.0440  0.0908  0.1674
 7263SOL     OW28817   4.723   3.034   0.772 -0.5053  0.2156 -0.0847
 7263SOL    HW228818   4.806   3.068   0.738 -0.2343 -0.4383 -0.0898
 7263SOL    HW328819   4.748   2.958   0.824 -0.9270  1.0590  1.4060
 7263SOL    MW428820   4.737   3.029   0.774 -0.5252  0.2406  0.1113
 7264SOL     OW28821   4.766   1.462   4.234  0.2396  0.1565  0.0757
 7264SOL    HW228822   4.788   1.486   4.324 -0.3369  1.1714 -0.0430
 7264SOL    HW328823   4.696   1.523   4.209  1.2814  0.7608 -1.5075
 7264SOL    MW428824   4.760   1.473   4.242  0.3009  0.3701 -0.1488
 7265SOL     OW28825   3.979   5.859   2.648  0.7496 -0.0046 -0.2903
 7265SOL    HW228826   4.011   5.775   2.680  0.0696  0.0142  0.4603
 7265SOL    HW328827   4.056   5.916   2.647  1.3252 -0.7791 -1.3303
 7265SOL    MW428828   3.993   5.856   2.652  0.7359 -0.1043 -0.3285
 7266SOL     OW28829   1.631   0.424   4.459  0.2562  0.1999 -0.2812
 7266SOL    HW228830   1.657   0.385   4.542  0.8371  1.0538 -0.0511
 7266SOL    HW328831   1.709   0.470   4.428  0.3188 -0.8205 -1.7396
 7266SOL    MW428832   1.645   0.425   4.466  0.3411  0.1780 -0.4433
 7267SOL     OW28833   5.688   5.395   3.472  0.1072  0.2586  0.0311
 7267SOL    HW228834   5.668   5.470   3.417  1.8902  0.9938  0.3053
 7267SOL    HW328835   5.673   5.426   3.562 -1.4304 -0.4918  0.0665
 7267SOL    MW428836   5.684   5.409   3.477  0.1396  0.2566  0.0719
 7268SOL     OW28837   4.806   4.967   4.955  0.0018  0.1570  0.0678
 7268SOL    HW228838   4.762   4.911   5.019  2.1022 -1.1199  0.4717
 7268SOL    HW328839   4.882   4.917   4.927  1.4112  2.3879 -0.3392
 7268SOL    MW428840   4.810   4.953   4.959  0.4648  0.2829  0.0674
 7269SOL     OW28841   2.150   0.114   2.955  0.1017  0.3284 -0.3083
 7269SOL    HW228842   2.204   0.191   2.941  0.4750  0.1662  0.1802
 7269SOL    HW328843   2.063   0.148   2.976  0.3914  0.6397  0.4336
 7269SOL    MW428844   2.146   0.129   2.956  0.1892  0.3481 -0.1460
 7270SOL     OW28845   1.878   0.984   6.055 -0.6315 -0.2312 -0.1254
 7270SOL    HW228846   1.870   1.052   6.122 -1.3933 -0.9709  0.5624
 7270SOL    HW328847   1.828   0.910   6.090 -0.8499 -0.7158 -1.4121
 7270SOL    MW428848   1.870   0.983   6.069 -0.7608 -0.3927 -0.2044
 7271SOL     OW28849   3.287   1.567   2.313 -0.3110  0.1274  0.0355
 7271SOL    HW228850   3.197   1.598   2.304 -0.4398 -0.5573 -1.3630
 7271SOL    HW328851   3.290   1.488   2.259  1.0605  0.0046  0.2660
 7271SOL    MW428852   3.275   1.561   2.305 -0.1471  0.0208 -0.1186
 7272SOL     OW28853   6.348   1.803   6.142 -0.3241  0.1729 -0.3164
 7272SOL    HW228854   6.272   1.861   6.130 -0.6974 -0.3854 -0.6949
 7272SOL    HW328855   6.423   1.862   6.139 -0.7016  0.6496 -0.6595
 7272SOL    MW428856   6.348   1.819   6.140 -0.4232  0.1621 -0.4116
 7273SOL     OW28857   4.878   3.578   2.340  0.0020  0.2686 -0.0074
 7273SOL    HW228858   4.837   3.647   2.391  0.5928  0.4121  0.2861
 7273SOL    HW328859   4.817   3.504   2.345 -1.7405  1.4477 -2.1865
 7273SOL    MW428860   4.865   3.577   2.348 -0.1500  0.4431 -0.2562
 7274SOL     OW28861   3.865   0.952   2.993  0.2325  0.1704 -0.6417
 7274SOL    HW228862   3.923   0.982   3.062  0.1723 -1.6890  0.2894
 7274SOL    HW328863   3.865   1.023   2.929  2.7658  0.6404 -0.2379
 7274SOL    MW428864   3.872   0.965   2.994  0.5588 -0.0129 -0.4656
 7275SOL     OW28865   2.953   2.688   4.460  0.1338 -0.2835 -0.2608
 7275SOL    HW228866   2.977   2.605   4.417 -1.2741 -0.1350 -1.3825
 7275SOL    HW328867   2.910   2.739   4.392  0.5492  1.2017  0.5495
 7275SOL    MW428868   2.951   2.684   4.445  0.0028 -0.0679 -0.3019
 7276SOL     OW28869   5.813   3.290   0.495  0.2841  0.1226 -0.1166
 7276SOL    HW228870   5.826   3.340   0.414  1.3223 -1.6775 -1.1177
 7276SOL    HW328871   5.719   3.277   0.500  0.1655  0.6442 -0.7848
 7276SOL    MW428872   5.802   3.295   0.485  0.4055 -0.0461 -0.3368
 7277SOL     OW28873   4.268   6.337   0.489  0.5368 -0.7561  0.4468
 7277SOL    HW228874   4.352   6.381   0.485  0.4644 -0.5701  0.8550
 7277SOL    HW328875   4.240   6.327   0.398  0.0825  0.9513  0.3624
 7277SOL    MW428876   4.275   6.341   0.477  0.4673 -0.5063  0.4895
 7278SOL     OW28877   1.759   0.435   1.153  0.0894  0.1559 -0.3162
 7278SOL    HW228878   1.777   0.508   1.095  0.0007 -0.3757 -1.0229
 7278SOL    HW328879   1.755   0.358   1.096 -2.4412 -0.0599  0.0518
 7278SOL    MW428880   1.761   0.434   1.138 -0.2562  0.0573 -0.3609
 7279SOL     OW28881   5.772   2.311   1.387 -0.1267  0.5304  0.1423
 7279SOL    HW228882   5.725   2.229   1.369  0.4310  0.6838 -2.3217
 7279SOL    HW328883   5.844   2.312   1.325  1.2348  1.8698  1.6473
 7279SOL    MW428884   5.775   2.300   1.377  0.1265  0.7273  0.0157
 7280SOL     OW28885   4.590   1.275   0.009  0.4681  0.0243 -0.3027
 7280SOL    HW228886   4.659   1.225   0.052  0.2935  1.4535  1.8180
 7280SOL    HW328887   4.509   1.232   0.036  0.4465 -0.7863 -1.6044
 7280SOL    MW428888   4.588   1.263   0.018  0.4422  0.1059 -0.1947
 7281SOL     OW28889   0.590   2.294   1.848 -0.3713 -0.4763  0.0154
 7281SOL    HW228890   0.581   2.384   1.880  0.7970 -1.3486  3.1628
 7281SOL    HW328891   0.633   2.303   1.763 -0.2539  1.9251  0.2538
 7281SOL    MW428892   0.595   2.307   1.841 -0.2017 -0.2746  0.4621
 7282SOL     OW28893   3.416   5.196   3.307 -0.0378 -0.0130 -0.2326
 7282SOL    HW228894   3.351   5.209   3.375  0.1446  1.2649 -0.2796
 7282SOL    HW328895   3.497   5.231   3.343 -0.0463  1.1438 -1.2637
 7282SOL    MW428896   3.418   5.202   3.320 -0.0149  0.3082 -0.3748
 7283SOL     OW28897   3.414   2.258   1.742  0.5575  0.3027  0.4747
 7283SOL    HW228898   3.323   2.288   1.735 -0.0458 -1.2945  0.9012
 7283SOL    HW328899   3.450   2.309   1.814  0.0409  1.0605  0.2075
 7283SOL    MW428900   3.407   2.268   1.751  0.4098  0.1919  0.4957
 7284SOL     OW28901   0.496   0.191   4.426  0.0607 -0.6277  0.2957
 7284SOL    HW228902   0.428   0.249   4.462  0.1699 -0.7306  0.6674
 7284SOL    HW328903   0.578   0.238   4.442  0.0937 -0.5873  0.0104
 7284SOL    MW428904   0.498   0.205   4.433  0.0795 -0.6359  0.3071
 7285SOL     OW28905   1.030   4.009   1.873  0.0994 -0.4478 -0.3609
 7285SOL    HW228906   1.083   3.937   1.907 -0.6533 -0.7899  0.1189
 7285SOL    HW328907   1.004   3.981   1.785 -0.8846 -1.1488  0.1399
 7285SOL    MW428908   1.034   3.996   1.866 -0.1298 -0.5854 -0.2315
 7286SOL     OW28909   3.890   2.924   6.116 -0.0282 -0.4440 -0.1444
 7286SOL    HW228910   3.925   2.839   6.089  0.4346  0.2676 -1.9797
 7286SOL    HW328911   3.914   2.983   6.044 -1.1195  1.0471  0.6626
 7286SOL    MW428912   3.898   2.921   6.103 -0.1111 -0.1534 -0.2801
 7287SOL     OW28913   4.878   5.922   3.541  0.2362 -0.6262 -0.1370
 7287SOL    HW228914   4.932   5.845   3.524  0.0274 -0.6743 -0.5928
 7287SOL    HW328915   4.791   5.899   3.509  0.0852 -0.3351  0.0576
 7287SOL    MW428916   4.874   5.909   3.534  0.1887 -0.5942 -0.1714
 7288SOL     OW28917   2.019   1.048   1.132 -0.4895 -0.1312  0.0313
 7288SOL    HW228918   2.046   1.033   1.042  0.6696  0.7738  0.2117
 7288SOL    HW328919   2.041   0.967   1.178 -0.9533 -0.5397 -0.4489
 7288SOL    MW428920   2.025   1.035   1.126 -0.3978 -0.0657 -0.0082
 7289SOL     OW28921   2.256   3.660   4.749 -0.0302  0.5031 -0.0559
 7289SOL    HW228922   2.244   3.723   4.678 -1.1663  1.0892  0.6306
 7289SOL    HW328923   2.195   3.589   4.729  0.5669  0.0501 -0.3222
 7289SOL    MW428924   2.247   3.659   4.737 -0.1013  0.5207 -0.0004
 7290SOL     OW28925   2.193   3.089   2.623  0.0874 -0.2774  0.2081
 7290SOL    HW228926   2.121   3.102   2.685 -1.1483 -4.8085  0.0913
 7290SOL    HW328927   2.152   3.097   2.537  0.4296  0.1958  0.0889
 7290SOL    MW428928   2.178   3.091   2.620 -0.0305 -0.8128  0.1770
 7291SOL     OW28929   6.060   4.149   3.309 -0.3934  0.7023  0.2037
 7291SOL    HW228930   6.123   4.172   3.241  1.1604 -0.9119  1.0041
 7291SOL    HW328931   6.090   4.064   3.342 -1.9226  0.7505  1.9161
 7291SOL    MW428932   6.073   4.141   3.305 -0.3901  0.4957  0.5353
 7292SOL     OW28933   4.424   1.672   2.478  0.0008 -0.4361  0.1540
 7292SOL    HW228934   4.380   1.702   2.558  0.3252 -0.2752  0.2745
 7292SOL    HW328935   4.355   1.630   2.427 -0.6722  1.3210 -0.4393
 7292SOL    MW428936   4.409   1.670   2.482 -0.0452 -0.1831  0.0916
 7293SOL     OW28937   4.345   3.526   0.373  0.4518  0.2526  0.0161
 7293SOL    HW228938   4.334   3.615   0.340  0.8344  0.5441  0.6612
 7293SOL    HW328939   4.258   3.487   0.366  0.0719  0.9799  0.6032
 7293SOL    MW428940   4.332   3.533   0.367  0.4521  0.3871  0.1787
 7294SOL     OW28941   0.692   2.909   2.006  0.4476 -0.0729  0.3227
 7294SOL    HW228942   0.644   2.846   2.060  1.1204 -0.9288 -0.0434
 7294SOL    HW328943   0.674   2.881   1.916  0.1287  0.7413  0.1279
 7294SOL    MW428944   0.683   2.897   2.001  0.4943 -0.0784  0.2487
 7295SOL     OW28945   0.247   4.432   3.316  0.2418  0.0335  0.7734
 7295SOL    HW228946   0.313   4.430   3.246 -0.0766  1.0490  0.4271
 7295SOL    HW328947   0.290   4.390   3.391  1.3673  0.8569  0.6107
 7295SOL    MW428948   0.262   4.426   3.317  0.3483  0.2761  0.7062
 7296SOL     OW28949   6.034   2.687   6.172  0.2970 -0.0095 -1.0761
 7296SOL    HW228950   6.115   2.717   6.131  0.2340 -0.0411 -1.2248
 7296SOL    HW328951   5.972   2.679   6.099  0.5071 -1.1678 -1.1562
 7296SOL    MW428952   6.037   2.690   6.157  0.3164 -0.1665 -1.1063
 7297SOL     OW28953   0.291   1.644   3.029  0.1972 -0.2351  0.0483
 7297SOL    HW228954   0.269   1.558   3.065  0.5631 -0.6665 -0.7451
 7297SOL    HW328955   0.375   1.632   2.984  0.0439  0.4282 -0.4449
 7297SOL    MW428956   0.299   1.631   3.028  0.2253 -0.2045 -0.1214
 7298SOL     OW28957   0.880   4.828   3.273  0.6619  1.0826  0.1218
 7298SOL    HW228958   0.788   4.856   3.273 -0.3153 -1.7745 -0.0614
 7298SOL    HW328959   0.922   4.882   3.340 -1.7338  0.7923  1.9916
 7298SOL    MW428960   0.873   4.839   3.282  0.2169  0.6673  0.3443
 7299SOL     OW28961   1.081   1.110   4.343  0.4737  0.2611  0.0758
 7299SOL    HW228962   1.077   1.014   4.339 -0.6908  0.2230  1.3287
 7299SOL    HW328963   1.089   1.129   4.436  1.3657  1.3784 -0.2148
 7299SOL    MW428964   1.081   1.100   4.355  0.4378  0.4035  0.2028
 7300SOL     OW28965   6.273   4.572   2.346  0.7513 -0.0682  0.4073
 7300SOL    HW228966   6.269   4.667   2.341  0.1240 -0.0953  0.3496
 7300SOL    HW328967   6.365   4.553   2.367  1.0620  0.5058 -0.3913
 7300SOL    MW428968   6.285   4.582   2.348  0.7096  0.0040  0.2943
 7301SOL     OW28969   1.428   6.289   1.262 -0.5533 -0.6553 -0.1187
 7301SOL    HW228970   1.392   6.308   1.348  2.0239  1.0819  0.7161
 7301SOL    HW328971   1.378   6.344   1.202  1.7013  3.2429  1.2506
 7301SOL    MW428972   1.417   6.298   1.265  0.0842  0.0882  0.1721
 7302SOL     OW28973   0.609   2.301   5.682 -0.0441  0.3895 -0.3643
 7302SOL    HW228974   0.642   2.340   5.763  1.4661 -1.2320 -0.1395
 7302SOL    HW328975   0.677   2.321   5.617  1.1727 -2.3391 -0.0772
 7302SOL    MW428976   0.622   2.309   5.684  0.3157 -0.1844 -0.2968
 7303SOL     OW28977   0.135   4.736   2.000 -0.2272  0.2571 -0.4146
 7303SOL    HW228978   0.106   4.712   1.912 -0.1422  0.2959 -0.4533
 7303SOL    HW328979   0.081   4.812   2.023 -1.8315 -1.0813  0.4558
 7303SOL    MW428980   0.124   4.743   1.991 -0.4276  0.0856 -0.3049
 7304SOL     OW28981   2.278   2.208   3.748 -0.4291  0.3185 -0.0832
 7304SOL    HW228982   2.227   2.230   3.827 -0.6780  1.1000 -0.4432
 7304SOL    HW328983   2.214   2.212   3.677 -0.3428 -1.0364 -0.2485
 7304SOL    MW428984   2.263   2.212   3.749 -0.4506  0.2428 -0.1525
 7305SOL     OW28985   5.575   5.738   3.880 -0.0766 -0.0953  0.5133
 7305SOL    HW228986   5.529   5.722   3.797 -0.5196 -0.1696  0.7714
 7305SOL    HW328987   5.622   5.821   3.865 -0.1877 -0.0876  0.2020
 7305SOL    MW428988   5.575   5.747   3.867 -0.1497 -0.1041  0.5063
 7306SOL     OW28989   2.799   5.412   5.052  0.2881 -0.4957 -0.2880
 7306SOL    HW228990   2.887   5.392   5.084  0.3698 -0.6591 -0.6117
 7306SOL    HW328991   2.784   5.350   4.981  0.0148 -0.2962 -0.4078
 7306SOL    MW428992   2.809   5.401   5.047  0.2628 -0.4909 -0.3465
 7307SOL     OW28993   2.404   2.066   5.215 -0.0511 -0.5086  0.3127
 7307SOL    HW228994   2.319   2.022   5.221 -1.4005  1.6112 -1.5338
 7307SOL    HW328995   2.459   2.006   5.165 -1.1618 -1.0276 -0.3282
 7307SOL    MW428996   2.400   2.053   5.209 -0.3757 -0.2974 -0.0155
 7308SOL     OW28997   0.912   1.282   1.445  0.4187 -0.6592  0.2766
 7308SOL    HW228998   0.900   1.244   1.533 -0.0978 -2.0529 -0.3620
 7308SOL    HW328999   0.980   1.349   1.457  2.8617 -3.0735  1.1832
 7308SOL    MW429000   0.920   1.286   1.458  0.6729 -1.1616  0.3119
 7309SOL     OW29001   0.890   2.209   6.293  0.1395 -0.7428 -0.4735
 7309SOL    HW229002   0.943   2.210   6.372  0.4974 -1.5890 -0.6901
 7309SOL    HW329003   0.813   2.262   6.314  0.6555 -0.2233  0.1317
 7309SOL    MW429004   0.887   2.217   6.306  0.2548 -0.7859 -0.4222
 7310SOL     OW29005   2.104   4.006   3.782 -0.2832 -0.0044  0.0925
 7310SOL    HW229006   2.033   4.052   3.828 -0.7405  0.6513 -1.2149
 7310SOL    HW329007   2.179   4.016   3.840 -1.0610 -0.0283  1.1454
 7310SOL    MW429008   2.104   4.014   3.796 -0.4462  0.0789  0.0589
 7311SOL     OW29009   1.451   4.750   1.839  0.3937 -0.1265  0.7861
 7311SOL    HW229010   1.359   4.768   1.858  0.1639  0.2120 -0.5440
 7311SOL    HW329011   1.449   4.685   1.769  1.2204 -2.4844  2.8070
 7311SOL    MW429012   1.439   4.744   1.833  0.4724 -0.3929  0.8773
 7312SOL     OW29013   4.798   1.740   1.427 -0.0947  0.7190 -0.8533
 7312SOL    HW229014   4.833   1.824   1.398  0.8011  0.5176 -0.4032
 7312SOL    HW329015   4.738   1.762   1.498  0.8509  0.9430 -0.0878
 7312SOL    MW429016   4.795   1.754   1.433  0.1482  0.7220 -0.6929
 7313SOL     OW29017   5.868   3.453   2.270 -0.0751 -0.5177 -0.2208
 7313SOL    HW229018   5.822   3.514   2.212 -0.3525 -0.5057  0.0070
 7313SOL    HW329019   5.824   3.463   2.355  1.8065  1.1738  0.6327
 7313SOL    MW429020   5.856   3.462   2.274  0.1365 -0.2930 -0.0781
 7314SOL     OW29021   0.729   0.756   0.832 -0.6396 -0.6717  0.1729
 7314SOL    HW229022   0.689   0.756   0.745 -0.1594  1.9318 -0.1107
 7314SOL    HW329023   0.786   0.679   0.832 -0.9544 -0.9490 -1.6508
 7314SOL    MW429024   0.731   0.746   0.820 -0.6178 -0.3648 -0.1051
 7315SOL     OW29025   1.216   3.099   1.049  0.6221  0.0260  0.1997
 7315SOL    HW229026   1.280   3.029   1.034  0.2789 -0.5408  1.2668
 7315SOL    HW329027   1.159   3.096   0.972  0.2040 -1.3302  0.5352
 7315SOL    MW429028   1.217   3.089   1.037  0.5216 -0.2277  0.3847
 7316SOL     OW29029   1.008   0.887   2.337  0.0730  0.1073  0.4054
 7316SOL    HW229030   1.019   0.799   2.373  1.2966 -0.3324 -0.9358
 7316SOL    HW329031   0.998   0.944   2.414  1.1326 -0.9765  1.3813
 7316SOL    MW429032   1.008   0.883   2.352  0.3742 -0.0937  0.3572
 7317SOL     OW29033   5.168   3.998   0.162  0.1107 -0.1013 -0.4919
 7317SOL    HW229034   5.188   4.051   0.085 -0.4254  0.6208 -0.1421
 7317SOL    HW329035   5.253   3.968   0.193  0.3635 -0.0140 -1.0942
 7317SOL    MW429036   5.182   4.001   0.156  0.0733  0.0055 -0.5252
 7318SOL     OW29037   1.091   3.952   4.651 -0.1897  0.2364 -0.1828
 7318SOL    HW229038   1.143   4.032   4.647  1.2022 -0.6553 -0.5245
 7318SOL    HW329039   1.035   3.963   4.728 -1.1134  2.1591 -1.0540
 7318SOL    MW429040   1.090   3.964   4.660 -0.1279  0.3724 -0.3428
 7319SOL     OW29041   3.384   2.462   5.591  0.5267 -0.0063 -0.4492
 7319SOL    HW229042   3.291   2.449   5.610  0.5159 -0.1329 -0.5864
 7319SOL    HW329043   3.399   2.416   5.509  0.9508 -0.9659  0.1374
 7319SOL    MW429044   3.374   2.454   5.583  0.5812 -0.1496 -0.3899
 7320SOL     OW29045   1.122   5.949   5.515 -0.1496 -0.0514 -0.3652
 7320SOL    HW229046   1.188   6.018   5.514  0.6513 -0.7984 -0.0467
 7320SOL    HW329047   1.170   5.869   5.534 -1.0798 -0.6922 -0.6025
 7320SOL    MW429048   1.137   5.948   5.517 -0.1666 -0.2345 -0.3545
 7321SOL     OW29049   5.327   2.361   4.884  0.5455  0.2057  0.5181
 7321SOL    HW229050   5.411   2.354   4.930  0.8454  0.9869  0.1189
 7321SOL    HW329051   5.337   2.306   4.806  0.1015 -0.9760  1.2661
 7321SOL    MW429052   5.339   2.353   4.880  0.5265  0.1529  0.5641
 7322SOL     OW29053   4.971   4.927   4.367 -1.1779  0.2149  0.8579
 7322SOL    HW229054   4.920   4.847   4.355 -1.3121  0.2292  1.3033
 7322SOL    HW329055   5.031   4.929   4.293 -1.1329 -0.3309  0.8755
 7322SOL    MW429056   4.972   4.917   4.356 -1.1897  0.1448  0.9190
 7323SOL     OW29057   3.535   1.337   5.568 -0.1848  0.3123  0.3581
 7323SOL    HW229058   3.542   1.244   5.545 -2.8128  0.1550 -0.1399
 7323SOL    HW329059   3.520   1.381   5.485  1.1000  1.2292  0.5838
 7323SOL    MW429060   3.534   1.330   5.554 -0.3620  0.4125  0.3222
 7324SOL     OW29061   1.846   2.568   3.164 -0.2910  0.0469  0.0971
 7324SOL    HW229062   1.785   2.631   3.125 -0.6901  0.4941  1.4046
 7324SOL    HW329063   1.866   2.604   3.250  2.2887  0.2136 -0.4854
 7324SOL    MW429064   1.840   2.581   3.170 -0.0033  0.1279  0.1928
 7325SOL     OW29065   0.537   5.724   0.447  0.5006 -0.2272 -0.4130
 7325SOL    HW229066   0.597   5.651   0.467  0.4433 -0.0325  0.5205
 7325SOL    HW329067   0.454   5.697   0.485  0.9188  1.0955  1.6124
 7325SOL    MW429068   0.534   5.710   0.454  0.5482 -0.0270 -0.0226
 7326SOL     OW29069   4.339   3.279   1.854 -0.2291  0.1303  0.1053
 7326SOL    HW229070   4.318   3.206   1.796  0.3102 -0.3023  0.4493
 7326SOL    HW329071   4.260   3.291   1.907 -0.1523 -0.5062  0.3667
 7326SOL    MW429072   4.326   3.271   1.853 -0.1478 -0.0107  0.1852
 7327SOL     OW29073   1.444   0.172   3.617 -0.2880  0.2547  0.0975
 7327SOL    HW229074   1.485   0.163   3.703 -0.8382  1.3640  0.4989
 7327SOL    HW329075   1.513   0.150   3.555  0.4269  0.4681  0.7958
 7327SOL    MW429076   1.458   0.167   3.620 -0.2663  0.4292  0.2426
 7328SOL     OW29077   4.196   6.280   6.259 -0.4614 -0.0703 -0.0584
 7328SOL    HW229078   4.181   6.337   6.184  1.8993  2.6276  1.3337
 7328SOL    HW329079   4.108   6.260   6.292 -1.4497  0.4429 -2.2003
 7328SOL    MW429080   4.182   6.285   6.253 -0.2803  0.3534 -0.1573
 7329SOL     OW29081   2.004   4.495   1.703  0.3827 -0.0686  0.1545
 7329SOL    HW229082   1.928   4.464   1.653  0.1739  1.3943 -0.4942
 7329SOL    HW329083   1.966   4.532   1.783  0.6919 -2.1004  1.3155
 7329SOL    MW429084   1.989   4.496   1.707  0.3960 -0.1436  0.2221
 7330SOL     OW29085   2.332   4.331   0.311  0.1390  0.4533  0.3317
 7330SOL    HW229086   2.390   4.332   0.388 -1.7942 -0.1850  1.8985
 7330SOL    HW329087   2.318   4.423   0.291  1.2580  0.6208  0.2670
 7330SOL    MW429088   2.338   4.343   0.319  0.0316  0.3912  0.5299
 7331SOL     OW29089   0.615   5.299   2.111  0.1099 -0.4109 -0.0316
 7331SOL    HW229090   0.671   5.281   2.036 -0.2134 -1.5447 -0.0231
 7331SOL    HW329091   0.549   5.229   2.110  0.3480 -0.7101  1.5334
 7331SOL    MW429092   0.614   5.287   2.101  0.0987 -0.5999  0.1760
 7332SOL     OW29093   0.613   0.011   5.251  0.1925 -0.0882 -0.1240
 7332SOL    HW229094   0.628   0.018   5.345  0.5854  0.7028 -0.2380
 7332SOL    HW329095   0.630  -0.081   5.231 -0.2467 -0.3394  0.6349
 7332SOL    MW429096   0.618   0.000   5.261  0.1864 -0.0170 -0.0389
 7333SOL     OW29097   5.637   2.201   3.299 -0.2628 -0.1526  0.4363
 7333SOL    HW229098   5.607   2.287   3.331 -0.6482  0.1985 -0.7921
 7333SOL    HW329099   5.725   2.218   3.264  0.5401 -0.7242  2.0492
 7333SOL    MW429100   5.645   2.215   3.299 -0.2077 -0.1817  0.4870
 7334SOL     OW29101   0.224   2.789   3.741  0.0843  0.5866  1.0692
 7334SOL    HW229102   0.160   2.817   3.675  1.6868 -0.2563 -0.9361
 7334SOL    HW329103   0.185   2.712   3.782  0.5950 -1.2030 -1.5942
 7334SOL    MW429104   0.210   2.783   3.738  0.3631  0.2393  0.4532
 7335SOL     OW29105   2.764   0.223   4.471  0.0537  0.7218  0.2737
 7335SOL    HW229106   2.779   0.265   4.556 -0.5918  1.3347  0.0950
 7335SOL    HW329107   2.706   0.150   4.490  0.7997  0.1736  0.5143
 7335SOL    MW429108   2.759   0.219   4.485  0.0670  0.7303  0.2818
 7336SOL     OW29109   5.732   3.889   4.208 -0.0181 -0.0432  0.3118
 7336SOL    HW229110   5.772   3.976   4.219  0.9053 -0.3556 -0.4680
 7336SOL    HW329111   5.806   3.829   4.204 -0.6308 -0.8017  0.2198
 7336SOL    MW429112   5.747   3.893   4.209  0.0229 -0.1845  0.1968
 7337SOL     OW29113   5.629   5.879   3.568 -0.0111 -0.3264  0.2199
 7337SOL    HW229114   5.572   5.804   3.585 -0.9061  0.2926  0.0258
 7337SOL    HW329115   5.569   5.954   3.566  0.4875  0.0769 -2.2244
 7337SOL    MW429116   5.613   5.879   3.570 -0.0634 -0.1915 -0.1282
 7338SOL     OW29117   3.534   5.020   2.456  0.0750  0.0710  0.2908
 7338SOL    HW229118   3.538   4.945   2.397 -0.7346 -1.1051  1.6677
 7338SOL    HW329119   3.442   5.026   2.482  0.1625  1.4167  0.3829
 7338SOL    MW429120   3.523   5.011   2.452 -0.0203  0.0933  0.4847
 7339SOL     OW29121   5.706   3.465   0.967 -0.6721  0.3186  0.1107
 7339SOL    HW229122   5.764   3.471   0.891 -1.6671  1.2306 -0.5917
 7339SOL    HW329123   5.665   3.379   0.959  2.0106 -1.2656  1.7189
 7339SOL    MW429124   5.708   3.454   0.956 -0.4494  0.2299  0.2302
 7340SOL     OW29125   1.492   5.234   3.448 -0.1734 -0.0636 -0.3583
 7340SOL    HW229126   1.525   5.273   3.367  0.3595  0.8431  0.2649
 7340SOL    HW329127   1.535   5.149   3.454  0.4933  0.2522 -0.5812
 7340SOL    MW429128   1.502   5.228   3.438 -0.0151  0.0977 -0.3055
 7341SOL     OW29129   1.305   3.923   4.909 -0.0711  0.0429 -0.3111
 7341SOL    HW229130   1.354   3.948   4.830  0.9017  1.8972  0.8235
 7341SOL    HW329131   1.340   3.979   4.978 -1.1206 -1.3137  1.4019
 7341SOL    MW429132   1.316   3.933   4.908 -0.0813  0.1086  0.0646
 7342SOL     OW29133   2.390   2.285   0.101 -0.4246 -0.0743 -0.3313
 7342SOL    HW229134   2.311   2.295   0.154 -2.0483 -1.6198 -2.3135
 7342SOL    HW329135   2.445   2.224   0.151 -1.0924 -0.0554  0.4428
 7342SOL    MW429136   2.387   2.278   0.114 -0.7270 -0.2757 -0.4907
 7343SOL     OW29137   6.016   0.416   3.792 -0.0066 -0.0630 -0.9100
 7343SOL    HW229138   5.946   0.373   3.842  0.3074 -0.5202 -0.8553
 7343SOL    HW329139   6.095   0.368   3.816  0.5544  1.2981  0.0610
 7343SOL    MW429140   6.017   0.404   3.802  0.1089  0.0562 -0.7747
 7344SOL     OW29141   1.990   3.771   5.616  0.2230 -0.4158  0.4787
 7344SOL    HW229142   2.059   3.749   5.679 -1.3060 -0.9805  2.0161
 7344SOL    HW329143   1.947   3.688   5.597  1.3861 -0.4762 -2.3103
 7344SOL    MW429144   1.994   3.758   5.622  0.1747 -0.4983  0.3135
 7345SOL     OW29145   4.996   0.004   2.694 -0.2970  0.4378  0.2813
 7345SOL    HW229146   4.931  -0.062   2.670  0.5912  0.1005 -1.3520
 7345SOL    HW329147   5.058  -0.043   2.750 -0.4814  0.2932  0.3661
 7345SOL    MW429148   4.996  -0.011   2.699 -0.2042  0.3742  0.0770
 7346SOL     OW29149   2.734   5.238   0.129 -0.2414 -0.0856  0.0938
 7346SOL    HW229150   2.660   5.179   0.114  0.0261 -0.4639  0.2660
 7346SOL    HW329151   2.810   5.181   0.140 -0.1849  0.2166  1.5076
 7346SOL    MW429152   2.734   5.223   0.129 -0.1986 -0.0957  0.3031
 7347SOL     OW29153   3.085   4.563   0.023 -0.0413 -0.2897 -0.1570
 7347SOL    HW229154   3.014   4.626   0.040  0.7790  0.6407 -0.0663
 7347SOL    HW329155   3.041   4.478   0.019 -1.0550  0.1683  0.6808
 7347SOL    MW429156   3.070   4.560   0.025 -0.0669 -0.1065 -0.0345
 7348SOL     OW29157   4.973   3.433   3.501  0.2676 -0.3406 -0.0557
 7348SOL    HW229158   5.046   3.431   3.439 -0.5914  0.0776 -1.1224
 7348SOL    HW329159   4.960   3.341   3.526  1.3439 -0.3809  0.3868
 7348SOL    MW429160   4.981   3.421   3.496  0.2963 -0.2908 -0.1381
 7349SOL     OW29161   2.053   4.457   3.870  0.0305 -0.2499 -0.0832
 7349SOL    HW229162   2.038   4.400   3.946 -1.2805 -0.7744 -0.7018
 7349SOL    HW329163   2.097   4.534   3.906 -2.2614  0.3891  1.5795
 7349SOL    MW429164   2.057   4.460   3.885 -0.4449 -0.2348  0.0546
 7350SOL     OW29165   4.098   4.995   3.284 -0.0029 -0.4193 -0.2479
 7350SOL    HW229166   4.086   4.930   3.215  1.0317 -1.4531  0.5075
 7350SOL    HW329167   4.193   5.008   3.290  0.0128 -0.9932  1.5178
 7350SOL    MW429168   4.109   4.988   3.276  0.1356 -0.6314  0.0847
 7351SOL     OW29169   5.842   5.732   4.552 -0.0302 -0.0671 -0.2631
 7351SOL    HW229170   5.796   5.815   4.544 -0.1073 -0.1126 -0.3027
 7351SOL    HW329171   5.915   5.738   4.490  0.0775  0.0454 -0.1244
 7351SOL    MW429172   5.846   5.744   4.543 -0.0261 -0.0583 -0.2500
 7352SOL     OW29173   1.427   3.350   4.019 -0.6503  0.0764 -0.3077
 7352SOL    HW229174   1.451   3.271   4.067  0.9994  1.1531  0.7565
 7352SOL    HW329175   1.343   3.376   4.055 -0.8032 -0.7212 -0.0737
 7352SOL    MW429176   1.419   3.343   4.030 -0.4529  0.1133 -0.1364
 7353SOL     OW29177   3.844   3.523   3.157 -0.1365 -0.3632  0.6032
 7353SOL    HW229178   3.770   3.484   3.111 -0.8546  0.6883  0.8441
 7353SOL    HW329179   3.904   3.549   3.087 -0.8506  0.4878  0.2908
 7353SOL    MW429180   3.842   3.521   3.142 -0.3255 -0.1122  0.5938
 7354SOL     OW29181   2.164   3.788   2.679  0.1857  0.2879 -0.2077
 7354SOL    HW229182   2.126   3.754   2.598  1.7154 -1.6360 -0.1768
 7354SOL    HW329183   2.107   3.755   2.748 -0.2674  0.6821 -0.3838
 7354SOL    MW429184   2.151   3.779   2.677  0.3278  0.0861 -0.2269
 7355SOL     OW29185   3.156   5.008   2.228 -0.2911  0.4016 -0.2719
 7355SOL    HW229186   3.215   4.950   2.180 -0.2636  0.7533 -0.6689
 7355SOL    HW329187   3.082   5.022   2.168 -0.2237  0.9002 -0.2432
 7355SOL    MW429188   3.154   5.003   2.214 -0.2786  0.5138 -0.3205
 7356SOL     OW29189   1.770   1.444   0.331 -0.2056  0.2097 -0.1250
 7356SOL    HW229190   1.832   1.371   0.329 -0.4768 -0.0474 -2.6838
 7356SOL    HW329191   1.684   1.403   0.333 -0.3448  0.5120  0.3305
 7356SOL    MW429192   1.767   1.429   0.331 -0.2597  0.2157 -0.4025
 7357SOL     OW29193   4.221   2.663   0.344 -0.1716 -0.0886  0.2397
 7357SOL    HW229194   4.227   2.735   0.407 -1.2105 -0.4039  0.7216
 7357SOL    HW329195   4.292   2.604   0.368  0.0682  0.2881  0.4653
 7357SOL    MW429196   4.231   2.665   0.355 -0.2770 -0.0805  0.3331
 7358SOL     OW29197   3.308   0.126   5.158  0.2175 -0.0504  0.2485
 7358SOL    HW229198   3.311   0.063   5.085 -1.1538 -0.2577  0.3467
 7358SOL    HW329199   3.340   0.208   5.120  0.3173 -0.3633 -0.3589
 7358SOL    MW429200   3.312   0.128   5.143  0.0497 -0.1190  0.1813
 7359SOL     OW29201   2.154   3.361   2.306 -0.3246  0.2416  0.6452
 7359SOL    HW229202   2.220   3.305   2.268 -1.3262 -1.7778  1.7202
 7359SOL    HW329203   2.071   3.321   2.281 -1.0829  1.3331  1.3141
 7359SOL    MW429204   2.151   3.349   2.298 -0.5568  0.1192  0.8753
 7360SOL     OW29205   0.323   1.698   4.829  0.0022 -0.6846  0.2060
 7360SOL    HW229206   0.415   1.674   4.833  0.0249 -1.0296 -1.6316
 7360SOL    HW329207   0.322   1.792   4.811 -0.0226 -0.6211  0.5242
 7360SOL    MW429208   0.335   1.707   4.827  0.0020 -0.7217  0.0055
 7361SOL     OW29209   4.494   5.254   3.596  0.0685 -0.3072 -0.4814
 7361SOL    HW229210   4.435   5.190   3.635  0.3337 -0.0757  0.3222
 7361SOL    HW329211   4.539   5.207   3.526  1.3908 -1.4783  1.0669
 7361SOL    MW429212   4.492   5.240   3.592  0.2779 -0.4312 -0.1711
 7362SOL     OW29213   3.033   0.377   6.039 -0.3445 -0.1288  0.7521
 7362SOL    HW229214   3.028   0.400   5.947  0.9346 -0.7460  0.5135
 7362SOL    HW329215   3.040   0.281   6.040  2.4692 -0.0135  1.2861
 7362SOL    MW429216   3.033   0.367   6.027  0.1955 -0.1950  0.7911
 7363SOL     OW29217   3.073   2.748   0.822 -0.1089 -0.2070 -0.4087
 7363SOL    HW229218   3.064   2.655   0.843  0.1167 -0.1592 -0.0903
 7363SOL    HW329219   2.998   2.789   0.865 -0.2857 -0.2575 -0.6650
 7363SOL    MW429220   3.062   2.741   0.831 -0.1024 -0.2074 -0.4005
 7364SOL     OW29221   3.647   5.524   5.182 -0.0392 -0.2405  0.2957
 7364SOL    HW229222   3.578   5.532   5.116 -0.6449  1.6677  1.0749
 7364SOL    HW329223   3.726   5.505   5.132 -0.7798 -0.5010 -0.8153
 7364SOL    MW429224   3.648   5.523   5.167 -0.2169 -0.0231  0.2520
 7365SOL     OW29225   2.598   5.686   0.787  0.2555  0.8890  0.4017
 7365SOL    HW229226   2.603   5.676   0.692  0.3003  1.4831  0.3382
 7365SOL    HW329227   2.611   5.598   0.821 -0.3659  0.5647 -0.1637
 7365SOL    MW429228   2.600   5.673   0.779  0.1795  0.9246  0.3187
 7366SOL     OW29229   5.335   3.033   3.071  0.1419 -0.1785 -0.0478
 7366SOL    HW229230   5.355   2.995   2.985 -0.4997  0.6592 -0.5740
 7366SOL    HW329231   5.410   3.008   3.125  2.3927  2.2602 -1.7560
 7366SOL    MW429232   5.348   3.024   3.067  0.3542  0.2538 -0.3426
 7367SOL     OW29233   4.706   2.534   6.131 -0.0425  0.0134 -0.0857
 7367SOL    HW229234   4.794   2.496   6.139  0.0672  0.3869  0.5561
 7367SOL    HW329235   4.652   2.484   6.193 -0.3577 -0.4160 -0.6976
 7367SOL    MW429236   4.711   2.522   6.140 -0.0696  0.0060 -0.0817
 7368SOL     OW29237   5.939   1.872   2.158  0.1570  0.4414 -0.1628
 7368SOL    HW229238   5.881   1.927   2.105  0.5193 -0.0018 -1.0504
 7368SOL    HW329239   5.881   1.819   2.211 -0.2382  0.5187 -0.5122
 7368SOL    MW429240   5.924   1.872   2.158  0.1527  0.3931 -0.3260
 7369SOL     OW29241   1.258   2.274   5.488 -0.4067 -0.4316  0.8559
 7369SOL    HW229242   1.275   2.296   5.397 -0.9864  0.3275  0.9191
 7369SOL    HW329243   1.178   2.222   5.486 -0.7560  0.0870  0.9703
 7369SOL    MW429244   1.250   2.270   5.476 -0.5293 -0.2630  0.8793
 7370SOL     OW29245   2.163   0.330   5.667  0.0125  0.0602  0.6365
 7370SOL    HW229246   2.121   0.271   5.730  1.2229 -0.8403  0.6324
 7370SOL    HW329247   2.125   0.308   5.583 -1.3309  1.0011  0.9662
 7370SOL    MW429248   2.153   0.320   5.664 -0.0051  0.0655  0.6794
 7371SOL     OW29249   5.669   2.353   5.257 -0.1124  0.3449  0.9100
 7371SOL    HW229250   5.668   2.447   5.278 -1.6545  0.6289 -0.2691
 7371SOL    HW329251   5.613   2.313   5.323 -2.5337  0.8235 -0.7551
 7371SOL    MW429252   5.662   2.360   5.268 -0.6353  0.4455  0.5348
 7372SOL     OW29253   2.743   2.886   4.939 -0.2197  0.0424  0.3357
 7372SOL    HW229254   2.820   2.924   4.981  0.3661 -0.0141 -0.6556
 7372SOL    HW329255   2.774   2.857   4.853 -1.2672 -0.3018  0.0545
 7372SOL    MW429256   2.757   2.887   4.933 -0.2806 -0.0105  0.1678
 7373SOL     OW29257   4.432   3.973   3.403 -0.6020  0.0356  0.0803
 7373SOL    HW229258   4.478   3.977   3.486 -2.3618  0.2863  1.0836
 7373SOL    HW329259   4.396   3.885   3.398 -0.7097  0.0951 -0.2858
 7373SOL    MW429260   4.433   3.962   3.413 -0.8484  0.0765  0.1644
 7374SOL     OW29261   3.729   4.741   0.072 -0.3006 -0.7175  0.4874
 7374SOL    HW229262   3.637   4.767   0.077 -0.4592 -1.3686  1.0928
 7374SOL    HW329263   3.752   4.716   0.161  0.7377  0.3132  0.5393
 7374SOL    MW429264   3.720   4.741   0.084 -0.1845 -0.6674  0.5742
 7375SOL     OW29265   1.777   6.320   5.318 -0.1336  0.5719  0.2712
 7375SOL    HW229266   1.787   6.245   5.377 -1.0877  2.0492  2.4118
 7375SOL    HW329267   1.687   6.312   5.286 -0.5036  1.2207  1.1313
 7375SOL    MW429268   1.766   6.309   5.321 -0.3083  0.8524  0.6671
 7376SOL     OW29269   4.381   3.724   4.956 -0.2471  0.0023 -0.0726
 7376SOL    HW229270   4.465   3.680   4.950 -0.3405 -0.5140  1.7051
 7376SOL    HW329271   4.386   3.795   4.892  0.8625 -1.0580 -1.2097
 7376SOL    MW429272   4.393   3.728   4.947 -0.1130 -0.2057  0.0119
 7377SOL     OW29273   1.089   6.394   4.851  0.3496 -0.1532  0.1093
 7377SOL    HW229274   1.135   6.475   4.832 -1.9313  0.8230 -1.7204
 7377SOL    HW329275   1.009   6.420   4.896 -0.4228 -1.3396 -0.4891
 7377SOL    MW429276   1.084   6.408   4.854 -0.0532 -0.1809 -0.2111
 7378SOL     OW29277   3.298   5.512   3.389  0.1440  0.4476 -0.0395
 7378SOL    HW229278   3.370   5.553   3.436  0.0191 -0.6849  1.1761
 7378SOL    HW329279   3.329   5.508   3.298  1.9681 -0.7654  0.5908
 7378SOL    MW429280   3.311   5.517   3.383  0.3681  0.1382  0.2041
 7379SOL     OW29281   4.978   5.768   6.093  0.0145  0.4956 -0.2310
 7379SOL    HW229282   4.900   5.731   6.135  0.4447 -0.8388 -0.5334
 7379SOL    HW329283   4.961   5.862   6.088 -1.4746  0.2625 -0.0842
 7379SOL    MW429284   4.965   5.775   6.098 -0.1252  0.2888 -0.2515
 7380SOL     OW29285   5.134   4.156   0.826 -0.7543 -0.3535 -0.5675
 7380SOL    HW229286   5.075   4.223   0.858  0.8252 -0.2272  2.4458
 7380SOL    HW329287   5.145   4.096   0.899 -0.5432 -2.8319 -2.4884
 7380SOL    MW429288   5.128   4.157   0.840 -0.5181 -0.6638 -0.4234
 7381SOL     OW29289   3.526   1.953   2.442  0.2612 -0.7772  0.4165
 7381SOL    HW229290   3.504   2.046   2.448 -1.7625 -1.0237 -1.8239
 7381SOL    HW329291   3.609   1.945   2.490 -0.3717  1.8234  2.1660
 7381SOL    MW429292   3.534   1.964   2.449 -0.0893 -0.4666  0.3518
 7382SOL     OW29293   1.229   4.506   3.999 -0.1753  0.1522 -0.4318
 7382SOL    HW229294   1.304   4.563   4.015  0.3315 -0.8504  0.9946
 7382SOL    HW329295   1.161   4.538   4.057  0.7877 -1.8481  2.0151
 7382SOL    MW429296   1.230   4.518   4.009  0.0186 -0.2440  0.0792
 7383SOL     OW29297   1.530   5.237   0.142 -0.0366  0.0447  0.0648
 7383SOL    HW229298   1.571   5.151   0.133 -0.9431 -0.6488  1.9643
 7383SOL    HW329299   1.475   5.229   0.220 -1.4916  1.8293 -0.7183
 7383SOL    MW429300   1.528   5.224   0.151 -0.3481  0.1887  0.2121
 7384SOL     OW29301   4.772   4.753   1.925 -0.1868  0.1668  0.3883
 7384SOL    HW229302   4.689   4.766   1.971  0.5560  0.9312  1.5861
 7384SOL    HW329303   4.770   4.817   1.854 -1.0635 -0.5644 -0.2718
 7384SOL    MW429304   4.761   4.763   1.922 -0.2045  0.1712  0.4593
 7385SOL     OW29305   0.725   3.750   0.454  0.6165 -0.2555  0.4661
 7385SOL    HW229306   0.659   3.807   0.415  1.6014  1.6844  1.4731
 7385SOL    HW329307   0.758   3.697   0.382 -0.1027  0.6941 -0.5876
 7385SOL    MW429308   0.721   3.750   0.439  0.6515  0.1257  0.4599
 7386SOL     OW29309   2.948   1.448   4.019  0.2286  0.1484 -0.0373
 7386SOL    HW229310   3.009   1.433   4.092 -1.5173  0.9414  1.6435
 7386SOL    HW329311   2.961   1.372   3.962  2.0180 -0.2324  0.8038
 7386SOL    MW429312   2.958   1.436   4.021  0.2343  0.2028  0.2955
 7387SOL     OW29313   1.092   1.989   4.847 -0.4086  0.2059  0.3696
 7387SOL    HW229314   1.069   2.009   4.757  0.2758 -0.4300  0.0376
 7387SOL    HW329315   1.167   1.929   4.840 -0.9068 -0.5577  1.3422
 7387SOL    MW429316   1.099   1.983   4.834 -0.3841  0.0212  0.4541
 7388SOL     OW29317   2.858   5.712   6.245 -0.6407  0.1581 -0.1562
 7388SOL    HW229318   2.822   5.782   6.300 -0.3435  0.1926 -0.0053
 7388SOL    HW329319   2.781   5.665   6.213 -0.7967 -0.2110  0.7523
 7388SOL    MW429320   2.843   5.715   6.248 -0.6220  0.1140 -0.0164
 7389SOL     OW29321   6.337   4.472   4.292 -0.8513  0.0872 -0.0113
 7389SOL    HW229322   6.278   4.401   4.319 -1.0262 -0.1276 -0.9016
 7389SOL    HW329323   6.306   4.496   4.204 -0.7923  1.2708  0.2759
 7389SOL    MW429324   6.325   4.465   4.284 -0.8666  0.2150 -0.0908
 7390SOL     OW29325   2.710   1.799   6.100  0.4166  0.0715  0.6313
 7390SOL    HW229326   2.621   1.831   6.110  0.3003 -0.0322 -0.0217
 7390SOL    HW329327   2.704   1.706   6.124 -0.3064 -0.7304 -2.2581
 7390SOL    MW429328   2.697   1.791   6.105  0.3059 -0.0480  0.1640
 7391SOL     OW29329   3.078   0.795   0.495  0.1490 -0.4852 -0.4933
 7391SOL    HW229330   3.098   0.753   0.411  2.7567  0.1750 -0.3050
 7391SOL    HW329331   3.085   0.724   0.559  0.1344 -0.6087 -0.6290
 7391SOL    MW429332   3.082   0.780   0.493  0.4911 -0.4144 -0.4864
 7392SOL     OW29333   4.167   4.076   5.453  0.5756 -0.2434 -0.2318
 7392SOL    HW229334   4.251   4.044   5.487  0.8998  1.4921  0.6999
 7392SOL    HW329335   4.191   4.133   5.380  0.3380  1.2096  0.7750
 7392SOL    MW429336   4.181   4.079   5.448  0.5870  0.1773  0.0239
 7393SOL     OW29337   6.083   0.146   3.187 -0.0442 -0.5289 -0.4507
 7393SOL    HW229338   6.137   0.197   3.247 -1.3386 -1.8900  2.0023
 7393SOL    HW329339   6.143   0.125   3.115  1.5573  1.2342  0.2578
 7393SOL    MW429340   6.098   0.150   3.185 -0.0037 -0.4758 -0.0336
 7394SOL     OW29341   1.283   3.356   1.719 -0.0318 -0.1857  0.1640
 7394SOL    HW229342   1.215   3.289   1.726 -1.6807  1.5002  1.2718
 7394SOL    HW329343   1.238   3.432   1.681  0.9580  1.2962  1.8063
 7394SOL    MW429344   1.268   3.357   1.715 -0.1188  0.2323  0.5268
 7395SOL     OW29345   0.175   0.283   4.884  0.3555 -0.4089  0.0937
 7395SOL    HW229346   0.230   0.280   4.806  1.1627 -0.9352  0.6654
 7395SOL    HW329347   0.173   0.193   4.916  1.6916  0.1076  1.7875
 7395SOL    MW429348   0.182   0.271   4.878  0.6383 -0.4102  0.3926
 7396SOL     OW29349   3.417   4.138   4.358  0.1114 -0.3528  0.1271
 7396SOL    HW229350   3.349   4.197   4.325 -1.0833 -1.3725  0.6811
 7396SOL    HW329351   3.496   4.165   4.311 -0.4192  1.5346  0.2014
 7396SOL    MW429352   3.418   4.150   4.347 -0.1162 -0.2383  0.2100
 7397SOL     OW29353   0.839   0.065   2.867  0.1939  0.3346  0.0181
 7397SOL    HW229354   0.845   0.101   2.778 -1.3193 -3.6333 -1.9253
 7397SOL    HW329355   0.905  -0.003   2.870 -0.1867 -0.0066  1.7507
 7397SOL    MW429356   0.848   0.061   2.856 -0.0559 -0.2340 -0.0097
 7398SOL     OW29357   3.109   3.212   0.544  0.2413  0.4421 -0.2551
 7398SOL    HW229358   3.104   3.143   0.478  2.1895 -0.0566  0.0392
 7398SOL    HW329359   3.036   3.195   0.603  0.5244 -1.2369 -0.3403
 7398SOL    MW429360   3.099   3.200   0.543  0.5357  0.1547 -0.2275
 7399SOL     OW29361   4.448   4.578   5.699 -0.3127  1.0093  0.6168
 7399SOL    HW229362   4.401   4.660   5.683 -0.9041  0.6696  0.5770
 7399SOL    HW329363   4.454   4.571   5.794  0.3887  1.4568  0.6105
 7399SOL    MW429364   4.442   4.588   5.709 -0.2981  1.0236  0.6107
 7400SOL     OW29365   4.425   4.889   1.186  0.0115  0.2344 -0.0433
 7400SOL    HW229366   4.513   4.856   1.205 -0.2925 -0.3681  0.3271
 7400SOL    HW329367   4.435   4.937   1.103  1.0343  1.6254  0.8455
 7400SOL    MW429368   4.438   4.891   1.177  0.1063  0.3385  0.1229
 7401SOL     OW29369   6.202   4.890   4.114 -0.0331  0.1524  0.1441
 7401SOL    HW229370   6.282   4.881   4.062 -0.9522 -0.5741 -1.1944
 7401SOL    HW329371   6.223   4.848   4.197  0.3864 -1.8063 -0.8931
 7401SOL    MW429372   6.215   4.884   4.118 -0.0990 -0.2019 -0.1693
 7402SOL     OW29373   2.732   3.662   2.593  0.1277  0.3988 -0.2021
 7402SOL    HW229374   2.827   3.665   2.604  0.4752 -4.0845  0.0382
 7402SOL    HW329375   2.700   3.627   2.676 -1.7043  1.2532 -0.5103
 7402SOL    MW429376   2.741   3.657   2.606 -0.0682 -0.0800 -0.2111
 7403SOL     OW29377   4.435   2.838   1.613  0.3245  0.2666 -0.5829
 7403SOL    HW229378   4.476   2.905   1.559 -0.7327  0.0659 -1.6823
 7403SOL    HW329379   4.502   2.812   1.675  0.8568  2.1313 -0.3221
 7403SOL    MW429380   4.449   2.844   1.614  0.2552  0.4862 -0.6935
 7404SOL     OW29381   0.455   3.052   6.320  0.0962 -0.9991  0.8221
 7404SOL    HW229382   0.418   2.996   6.251 -1.4013 -0.9184  1.5361
 7404SOL    HW329383   0.462   3.138   6.279 -1.3667 -0.8085  0.9310
 7404SOL    MW429384   0.451   3.056   6.305 -0.2944 -0.9633  0.9306
 7405SOL     OW29385   3.022   0.666   5.060 -0.8584 -0.1780  0.1036
 7405SOL    HW229386   2.995   0.745   5.105  0.4517  0.3580  0.0030
 7405SOL    HW329387   3.072   0.697   4.985  0.5840 -1.0855  0.6434
 7405SOL    MW429388   3.025   0.680   5.056 -0.4953 -0.2270  0.1615
 7406SOL     OW29389   2.382   3.824   5.647 -0.2679  0.3471  0.4784
 7406SOL    HW229390   2.322   3.837   5.574  0.5197  1.3322 -0.0165
 7406SOL    HW329391   2.469   3.831   5.608  0.2663 -2.6023  0.8794
 7406SOL    MW429392   2.386   3.826   5.633 -0.0935  0.0879  0.4660
 7407SOL     OW29393   0.599   4.481   3.377 -0.0549 -0.0404  0.3119
 7407SOL    HW229394   0.576   4.446   3.291 -0.0586 -2.4447  1.2196
 7407SOL    HW329395   0.693   4.464   3.386  0.0273  0.5346  0.6540
 7407SOL    MW429396   0.609   4.474   3.367 -0.0445 -0.2818  0.4768
 7408SOL     OW29397   5.245   3.611   3.536  0.1268 -0.0352 -0.0851
 7408SOL    HW229398   5.259   3.691   3.484 -2.5744  0.4926 -0.1701
 7408SOL    HW329399   5.218   3.546   3.472  1.4865 -0.8136  0.1004
 7408SOL    MW429400   5.243   3.613   3.521 -0.0502 -0.0683 -0.0718
 7409SOL     OW29401   5.301   1.379   4.265  0.6685  0.1747  0.0406
 7409SOL    HW229402   5.343   1.293   4.263 -0.2928 -0.3014 -0.2698
 7409SOL    HW329403   5.272   1.394   4.175  0.2429  0.5271  0.2349
 7409SOL    MW429404   5.303   1.370   4.253  0.4855  0.1583  0.0253
 7410SOL     OW29405   1.743   2.022   2.507  0.5429  0.2715  0.3483
 7410SOL    HW229406   1.822   2.045   2.557  0.5203 -0.0694  0.5398
 7410SOL    HW329407   1.687   1.976   2.569 -0.2668  1.4284  0.5075
 7410SOL    MW429408   1.746   2.019   2.521  0.4331  0.3792  0.3946
 7411SOL     OW29409   2.028   3.651   3.231 -0.3445  0.1115  0.1523
 7411SOL    HW229410   1.971   3.727   3.222  0.0676  0.6641  1.9246
 7411SOL    HW329411   2.013   3.601   3.150 -2.4892  0.7707  0.0758
 7411SOL    MW429412   2.019   3.654   3.219 -0.5731  0.2714  0.3760
 7412SOL     OW29413   5.098   0.801   3.507  0.5218 -0.3258  0.2529
 7412SOL    HW229414   5.054   0.747   3.441  1.4411  0.1708 -0.7941
 7412SOL    HW329415   5.141   0.737   3.564  1.6551 -0.7377 -1.0130
 7412SOL    MW429416   5.098   0.785   3.506  0.7926 -0.3146 -0.0522
 7413SOL     OW29417   6.265   2.847   3.412  0.6133  0.4837 -0.0705
 7413SOL    HW229418   6.244   2.785   3.482  3.5835 -0.2067  0.3519
 7413SOL    HW329419   6.220   2.927   3.436  0.7461 -0.0402  2.1406
 7413SOL    MW429420   6.257   2.849   3.425  1.0227  0.3235  0.2770
 7414SOL     OW29421   5.394   0.111   6.301 -0.2550 -0.1085  0.0944
 7414SOL    HW229422   5.438   0.026   6.293  0.2818  0.2155 -0.4230
 7414SOL    HW329423   5.317   0.103   6.246  0.6602  0.2939 -1.2950
 7414SOL    MW429424   5.390   0.099   6.293 -0.0634 -0.0126 -0.1572
 7415SOL     OW29425   2.168   5.096   3.146  0.0185 -0.0465 -0.2777
 7415SOL    HW229426   2.098   5.156   3.172 -1.2863 -1.2988 -0.7320
 7415SOL    HW329427   2.211   5.139   3.072 -0.1136  0.8344  0.1434
 7415SOL    MW429428   2.164   5.109   3.140 -0.1710 -0.0955 -0.2821
 7416SOL     OW29429   2.074   3.094   4.399  0.0788 -0.3437 -0.0375
 7416SOL    HW229430   2.005   3.131   4.455  0.7793  1.9549 -0.5894
 7416SOL    HW329431   2.073   3.001   4.419 -1.5908 -0.0233  1.7141
 7416SOL    MW429432   2.064   3.087   4.409 -0.0491  0.0018  0.1208
 7417SOL     OW29433   5.364   1.979   4.033 -0.4262 -0.0767  0.2341
 7417SOL    HW229434   5.407   1.975   3.947 -0.7506 -0.3693  0.0846
 7417SOL    HW329435   5.271   1.966   4.014 -1.0716  3.5346  0.1780
 7417SOL    MW429436   5.357   1.977   4.019 -0.5542  0.3611  0.2070
 7418SOL     OW29437   4.745   1.290   1.446  0.2619 -0.3491  0.5924
 7418SOL    HW229438   4.673   1.346   1.476  0.1377 -0.9581  1.4584
 7418SOL    HW329439   4.708   1.202   1.445  0.2943 -0.3776 -1.2808
 7418SOL    MW429440   4.731   1.286   1.450  0.2498 -0.4332  0.4595
 7419SOL     OW29441   5.751   5.446   1.836  0.3906 -0.8641  0.6282
 7419SOL    HW229442   5.820   5.493   1.884  2.5789 -1.9921 -1.2257
 7419SOL    HW329443   5.709   5.392   1.903  1.5851 -0.4560  1.7578
 7419SOL    MW429444   5.755   5.445   1.851  0.8369 -0.9591  0.5327
 7420SOL     OW29445   4.895   6.026   6.057  0.5785  0.8950 -0.3860
 7420SOL    HW229446   4.851   6.090   6.113 -1.2454 -1.0537  0.5507
 7420SOL    HW329447   4.840   6.021   5.979 -1.1092 -1.6234  0.8303
 7420SOL    MW429448   4.882   6.034   6.054  0.1151  0.3056 -0.1019
 7421SOL     OW29449   0.904   0.312   3.029 -0.1446 -0.1738 -0.0918
 7421SOL    HW229450   0.901   0.229   2.981 -1.7913  0.6399 -1.5353
 7421SOL    HW329451   0.885   0.379   2.963  1.2291  1.3921  1.0076
 7421SOL    MW429452   0.901   0.310   3.014 -0.1806  0.1402 -0.1372
 7422SOL     OW29453   3.508   6.140   4.837 -0.2742  0.2668 -0.4581
 7422SOL    HW229454   3.446   6.197   4.883  0.7821  0.3885  0.8896
 7422SOL    HW329455   3.485   6.052   4.867  0.5750  0.3685  0.5548
 7422SOL    MW429456   3.497   6.136   4.847 -0.0228  0.2963 -0.1466
 7423SOL     OW29457   1.398   4.203   2.414 -0.1238  0.5834 -0.0318
 7423SOL    HW229458   1.465   4.137   2.433  1.7974  2.4174 -0.0943
 7423SOL    HW329459   1.326   4.180   2.473  0.6310 -1.2908  0.2571
 7423SOL    MW429460   1.397   4.191   2.425  0.2292  0.5781 -0.0019
 7424SOL     OW29461   3.201   4.673   5.768  0.3926 -0.4826 -0.1455
 7424SOL    HW229462   3.258   4.681   5.692 -0.5672 -0.8170 -0.9107
 7424SOL    HW329463   3.217   4.585   5.801  0.5339 -0.4693 -0.1759
 7424SOL    MW429464   3.211   4.663   5.762  0.2846 -0.5250 -0.2505
 7425SOL     OW29465   3.060   5.672   0.429 -0.2415  0.5001 -0.0006
 7425SOL    HW229466   3.019   5.728   0.363 -1.8471 -1.0565 -0.4079
 7425SOL    HW329467   3.028   5.705   0.512  0.0174  1.0888 -0.1290
 7425SOL    MW429468   3.051   5.684   0.431 -0.4192  0.3724 -0.0713
 7426SOL     OW29469   3.696   0.275   3.455 -0.0927 -0.0499 -0.0387
 7426SOL    HW229470   3.607   0.310   3.444  0.2568  1.1966  0.8921
 7426SOL    HW329471   3.747   0.316   3.386 -0.0990 -0.2791 -0.1814
 7426SOL    MW429472   3.691   0.285   3.444 -0.0475  0.0843  0.0653
 7427SOL     OW29473   4.232   5.705   0.079 -0.0285  0.3233  0.5124
 7427SOL    HW229474   4.287   5.686   0.154 -1.6680  1.3596  2.0463
 7427SOL    HW329475   4.275   5.778   0.034  0.6653  0.0587  0.7398
 7427SOL    MW429476   4.245   5.712   0.083 -0.1533  0.4251  0.7447
 7428SOL     OW29477   2.034   1.601   0.778 -0.0102  0.6919 -0.3489
 7428SOL    HW229478   1.960   1.622   0.834  0.7614  1.3999  0.4255
 7428SOL    HW329479   1.995   1.580   0.693 -1.2039 -0.4397  0.4372
 7428SOL    MW429480   2.019   1.601   0.774 -0.0659  0.6360 -0.1430
 7429SOL     OW29481   6.186   1.749   6.370 -0.4579  0.2157  0.3218
 7429SOL    HW229482   6.260   1.750   6.308  0.0684  0.3682  0.9381
 7429SOL    HW329483   6.215   1.690   6.440 -1.0825 -0.0201  0.3842
 7429SOL    MW429484   6.200   1.741   6.371 -0.4709  0.2047  0.4113
 7430SOL     OW29485   3.276   0.329   0.420  0.9089 -0.0277  0.0420
 7430SOL    HW229486   3.287   0.238   0.446  0.0396 -0.4487 -0.9899
 7430SOL    HW329487   3.365   0.361   0.407  1.1839 -1.1240 -0.8998
 7430SOL    MW429488   3.289   0.321   0.422  0.8305 -0.2278 -0.2184
 7431SOL     OW29489   2.075   4.681   1.533 -0.2438  0.4140  0.3655
 7431SOL    HW229490   1.986   4.717   1.535 -0.0594  0.8762  0.3822
 7431SOL    HW329491   2.077   4.618   1.605 -1.5871 -2.1039 -1.6381
 7431SOL    MW429492   2.063   4.677   1.543 -0.3967  0.1428  0.1034
 7432SOL     OW29493   2.299   4.069   2.200 -0.0329  0.0833  0.4180
 7432SOL    HW229494   2.328   4.012   2.129 -2.0684  0.4383 -0.7659
 7432SOL    HW329495   2.275   4.151   2.156 -1.3307  0.3143  1.5102
 7432SOL    MW429496   2.300   4.073   2.185 -0.4727  0.1606  0.4059
 7433SOL     OW29497   4.451   2.013   4.457  0.1354  0.4807 -0.4347
 7433SOL    HW229498   4.429   2.049   4.543 -0.7059 -0.0191 -0.4262
 7433SOL    HW329499   4.366   1.995   4.416  0.5150 -0.9775 -0.6350
 7433SOL    MW429500   4.437   2.015   4.463  0.0745  0.2223 -0.4600
 7434SOL     OW29501   1.571   5.830   0.142 -0.0548  0.1486 -0.2140
 7434SOL    HW229502   1.637   5.844   0.210 -0.5970  1.5943  0.0327
 7434SOL    HW329503   1.558   5.916   0.103  0.4327 -0.6839 -2.3456
 7434SOL    MW429504   1.578   5.843   0.146 -0.0620  0.2295 -0.4627
 7435SOL     OW29505   4.496   2.333   3.079  0.4380 -0.5091 -0.1852
 7435SOL    HW229506   4.514   2.359   3.169  0.8001 -0.9412 -0.1336
 7435SOL    HW329507   4.446   2.252   3.086  0.3487 -0.4727 -0.3720
 7435SOL    MW429508   4.491   2.326   3.091  0.4740 -0.5613 -0.2030
 7436SOL     OW29509   4.099   1.636   0.830 -0.6433  0.3522  0.4552
 7436SOL    HW229510   4.168   1.702   0.843 -1.0250  0.6776  0.8649
 7436SOL    HW329511   4.025   1.686   0.796 -0.4788 -0.0959 -0.5888
 7436SOL    MW429512   4.099   1.651   0.827 -0.6720  0.3360  0.3715
 7437SOL     OW29513   1.278   5.392   3.733 -0.1748  0.1015 -0.2414
 7437SOL    HW229514   1.271   5.457   3.664  0.6461 -0.0179 -0.4426
 7437SOL    HW329515   1.346   5.425   3.791 -0.8308  0.1858  0.5030
 7437SOL    MW429516   1.286   5.405   3.732 -0.1530  0.0969 -0.1697
 7438SOL     OW29517   1.366   5.679   0.198  0.4369 -0.2768  0.1093
 7438SOL    HW229518   1.278   5.717   0.190  0.2633 -0.4956  0.9094
 7438SOL    HW329519   1.425   5.750   0.176  0.0470 -0.3802 -1.3827
 7438SOL    MW429520   1.362   5.693   0.194  0.3625 -0.3193  0.0180
 7439SOL     OW29521   5.864   4.531   0.986  0.1674 -0.4278 -0.4957
 7439SOL    HW229522   5.789   4.478   1.012  0.3595 -1.6718 -2.2753
 7439SOL    HW329523   5.937   4.470   0.982  0.0670 -0.5734 -4.1760
 7439SOL    MW429524   5.863   4.516   0.989  0.1795 -0.6111 -1.2161
 7440SOL     OW29525   5.261   3.291   0.084  0.2897  0.0704 -0.3828
 7440SOL    HW229526   5.216   3.315   0.003 -0.3860  0.0987 -0.0093
 7440SOL    HW329527   5.256   3.196   0.087 -1.5541  0.1657  0.6490
 7440SOL    MW429528   5.255   3.282   0.074 -0.0427  0.0867 -0.1974
 7441SOL     OW29529   1.914   5.797   2.419  0.3075  0.3409 -0.1129
 7441SOL    HW229530   1.850   5.742   2.465  0.2433 -0.0425 -0.6555
 7441SOL    HW329531   1.871   5.822   2.337  0.6736  0.4698 -0.2676
 7441SOL    MW429532   1.900   5.793   2.414  0.3473  0.3073 -0.2049
 7442SOL     OW29533   0.133   5.560   1.012 -0.2422 -0.6692 -0.2061
 7442SOL    HW229534   0.042   5.533   1.009 -0.2027 -0.8086 -0.1652
 7442SOL    HW329535   0.143   5.602   1.097 -0.2752 -0.6333 -0.2206
 7442SOL    MW429536   0.123   5.562   1.023 -0.2414 -0.6828 -0.2026
 7443SOL     OW29537   5.749   0.502   5.719  0.0298  0.0292 -0.0400
 7443SOL    HW229538   5.829   0.538   5.682 -0.1462  1.1220  0.5875
 7443SOL    HW329539   5.684   0.571   5.707 -0.7996 -0.7931 -0.4373
 7443SOL    MW429540   5.751   0.516   5.713 -0.1029  0.0649 -0.0096
 7444SOL     OW29541   2.756   1.610   3.125  0.0933  0.4356  0.0943
 7444SOL    HW229542   2.784   1.553   3.197  0.2112  1.0702  0.5633
 7444SOL    HW329543   2.681   1.658   3.160 -0.4940  0.0049 -0.5659
 7444SOL    MW429544   2.750   1.609   3.139  0.0314  0.4625  0.0691
 7445SOL     OW29545   1.620   2.659   3.509  0.4764 -0.0990  0.2965
 7445SOL    HW229546   1.530   2.638   3.487  0.2692  0.9693  0.0767
 7445SOL    HW329547   1.621   2.665   3.605  0.1248  0.6658  0.2592
 7445SOL    MW429548   1.608   2.657   3.519  0.4027  0.1428  0.2625
 7446SOL     OW29549   1.428   0.100   2.798 -0.4321  0.2416 -0.2785
 7446SOL    HW229550   1.346   0.143   2.821 -0.3211  0.8035 -0.9120
 7446SOL    HW329551   1.434   0.026   2.858 -0.1545  1.6456  1.5180
 7446SOL    MW429552   1.418   0.096   2.809 -0.3808  0.5010 -0.1250
 7447SOL     OW29553   2.802   1.842   1.448  0.4853  0.1502  0.2531
 7447SOL    HW229554   2.709   1.828   1.431  0.3909  0.8166  0.1701
 7447SOL    HW329555   2.834   1.890   1.371  1.2250 -1.2835 -0.3610
 7447SOL    MW429556   2.794   1.847   1.436  0.5704  0.0490  0.1611
 7448SOL     OW29557   5.713   4.176   1.943 -0.0572  0.1534  0.1785
 7448SOL    HW229558   5.677   4.104   1.996 -0.5641 -0.4512 -0.9468
 7448SOL    HW329559   5.779   4.134   1.888  0.4756  0.7753  0.3459
 7448SOL    MW429560   5.717   4.161   1.943 -0.0538  0.1557  0.0521
 7449SOL     OW29561   2.141   1.789   3.430  0.0765 -0.0640  0.1433
 7449SOL    HW229562   2.135   1.734   3.353 -0.4733 -0.2180  0.2924
 7449SOL    HW329563   2.200   1.742   3.489 -0.3498 -0.4652  0.2493
 7449SOL    MW429564   2.148   1.776   3.428 -0.0523 -0.1373  0.1769
 7450SOL     OW29565   3.627   1.865   2.208  0.3941 -0.1740  0.3127
 7450SOL    HW229566   3.672   1.799   2.261  0.8412  0.0327  0.1903
 7450SOL    HW329567   3.561   1.901   2.267 -1.6333 -2.5028 -0.3308
 7450SOL    MW429568   3.624   1.861   2.223  0.1856 -0.4540  0.2116
 7451SOL     OW29569   3.729   0.840   5.318 -0.1881  0.2232 -0.5099
 7451SOL    HW229570   3.808   0.860   5.268  0.3585 -0.6209 -0.0019
 7451SOL    HW329571   3.758   0.778   5.385 -1.2367  0.0818 -0.1750
 7451SOL    MW429572   3.743   0.835   5.320 -0.2543  0.0932 -0.3987
 7452SOL     OW29573   4.953   3.732   2.114 -0.4359 -0.2095 -0.5175
 7452SOL    HW229574   4.866   3.759   2.087 -0.9386 -0.1502  1.0652
 7452SOL    HW329575   4.939   3.651   2.163  0.5754 -1.0157 -1.4960
 7452SOL    MW429576   4.940   3.725   2.117 -0.3688 -0.3081 -0.4378
 7453SOL     OW29577   5.241   0.363   1.743 -0.2260 -0.5583  0.2752
 7453SOL    HW229578   5.169   0.300   1.734 -2.0843  1.5012 -0.2627
 7453SOL    HW329579   5.231   0.398   1.832  0.0340 -0.1754  0.1561
 7453SOL    MW429580   5.230   0.360   1.753 -0.4369 -0.2360  0.1885
 7454SOL     OW29581   3.664   1.661   4.059  0.7957  0.6661  0.0654
 7454SOL    HW229582   3.690   1.587   4.003  0.9694 -0.8999  2.1046
 7454SOL    HW329583   3.743   1.685   4.107 -0.2743 -1.2219  3.0690
 7454SOL    MW429584   3.678   1.654   4.058  0.6775  0.2104  0.7307
 7455SOL     OW29585   4.250   2.601   3.482 -0.0197  0.1722 -0.0451
 7455SOL    HW229586   4.177   2.638   3.432  1.2291  1.1850 -1.1922
 7455SOL    HW329587   4.247   2.507   3.463 -0.2486  0.3872 -1.1507
 7455SOL    MW429588   4.240   2.594   3.473  0.1149  0.3342 -0.3423
 7456SOL     OW29589   1.052   5.071   2.424 -0.0307 -0.3367 -0.3082
 7456SOL    HW229590   1.081   5.007   2.358 -0.3111 -3.1761  2.0925
 7456SOL    HW329591   1.007   5.138   2.374  1.4223 -1.3266 -3.1558
 7456SOL    MW429592   1.050   5.071   2.409  0.1240 -0.8419 -0.3672
 7457SOL     OW29593   0.171   1.117   1.013 -0.1417  0.5999  0.3065
 7457SOL    HW229594   0.250   1.092   0.965 -0.3443 -0.7285  0.6263
 7457SOL    HW329595   0.100   1.071   0.967 -0.3838 -0.4077  1.6173
 7457SOL    MW429596   0.172   1.108   1.000 -0.2004  0.2917  0.5217
 7458SOL     OW29597   0.561   2.653   6.091  0.0428  0.4536  0.2130
 7458SOL    HW229598   0.516   2.690   6.015  0.1021 -0.8091 -0.4711
 7458SOL    HW329599   0.623   2.590   6.054 -1.0121 -1.3393  1.3342
 7458SOL    MW429600   0.563   2.649   6.076 -0.0886  0.0504  0.2707
 7459SOL     OW29601   0.747   6.116   5.475  1.1036 -0.0179 -0.0459
 7459SOL    HW229602   0.777   6.138   5.563  0.2986 -0.9611  0.4791
 7459SOL    HW329603   0.653   6.105   5.484  1.2985 -2.5119 -0.4989
 7459SOL    MW429604   0.739   6.118   5.487  1.0231 -0.4714 -0.0364
 7460SOL     OW29605   2.662   0.681   2.249 -0.1906  0.4698 -0.1988
 7460SOL    HW229606   2.700   0.596   2.225  0.1344  0.9288 -1.3823
 7460SOL    HW329607   2.575   0.660   2.283 -0.7684 -0.2307 -2.0137
 7460SOL    MW429608   2.655   0.667   2.251 -0.2239  0.4379 -0.5944
 7461SOL     OW29609   2.458   6.272   4.949 -0.1094 -0.9888  0.0909
 7461SOL    HW229610   2.465   6.311   5.037  0.9941  1.1955 -0.8806
 7461SOL    HW329611   2.375   6.306   4.915 -1.0647 -2.6888  0.6304
 7461SOL    MW429612   2.448   6.282   4.956 -0.0899 -0.9249  0.0339
 7462SOL     OW29613   3.387   0.884   3.867  0.0800  0.9788  0.3081
 7462SOL    HW229614   3.355   0.971   3.891  0.8321  1.3448 -0.0103
 7462SOL    HW329615   3.460   0.900   3.809 -0.2575  0.1139 -0.3716
 7462SOL    MW429616   3.392   0.898   3.863  0.1347  0.9130  0.1764
 7463SOL     OW29617   4.843   2.552   2.292 -0.5490 -0.4946 -0.1236
 7463SOL    HW229618   4.790   2.609   2.349 -1.0378  0.9318 -1.8902
 7463SOL    HW329619   4.926   2.598   2.284 -1.4166  0.8246 -2.6730
 7463SOL    MW429620   4.847   2.566   2.299 -0.7280 -0.1324 -0.6931
 7464SOL     OW29621   5.060   3.923   2.280  0.2996 -0.3410  0.2537
 7464SOL    HW229622   4.990   3.924   2.344 -0.2562 -0.9238 -0.3291
 7464SOL    HW329623   5.035   3.854   2.218  0.5872  0.5025 -0.8311
 7464SOL    MW429624   5.048   3.914   2.280  0.2642 -0.3066  0.0337
 7465SOL     OW29625   3.251   4.966   4.104 -0.2981  0.1254  0.6450
 7465SOL    HW229626   3.165   5.001   4.129 -0.2832  0.0379  0.8200
 7465SOL    HW329627   3.307   5.043   4.098 -0.6739  0.3322 -0.6721
 7465SOL    MW429628   3.247   4.981   4.106 -0.3457  0.1412  0.4943
 7466SOL     OW29629   0.481   4.095   3.885  0.0680  0.0585 -0.8043
 7466SOL    HW229630   0.561   4.044   3.897  1.0760  1.4868 -1.2305
 7466SOL    HW329631   0.471   4.144   3.967 -1.2837 -1.2716 -0.1152
 7466SOL    MW429632   0.490   4.095   3.897  0.0226  0.0715 -0.7696
 7467SOL     OW29633   5.696   4.110   5.781 -0.1014  0.3633 -0.3023
 7467SOL    HW229634   5.744   4.031   5.760  0.8141  0.6544  0.6220
 7467SOL    HW329635   5.605   4.081   5.792  0.4923 -0.8682  1.7378
 7467SOL    MW429636   5.690   4.096   5.779  0.0977  0.2393  0.0888
 7468SOL     OW29637   2.848   3.369   2.689 -0.5919  0.1281 -0.4748
 7468SOL    HW229638   2.758   3.395   2.668 -1.6696 -1.8091  1.4288
 7468SOL    HW329639   2.846   3.274   2.691  1.2670  0.0681  0.6625
 7468SOL    MW429640   2.836   3.360   2.686 -0.4889 -0.1354 -0.0735
 7469SOL     OW29641   3.704   0.264   5.567  0.3396 -0.1499  0.6340
 7469SOL    HW229642   3.693   0.194   5.632 -2.0412 -0.7100 -0.2917
 7469SOL    HW329643   3.648   0.239   5.494  0.7108  1.9104 -0.4369
 7469SOL    MW429644   3.695   0.251   5.566  0.0745  0.0480  0.3706
 7470SOL     OW29645   4.478   3.054   2.836  0.0645  0.7598  0.0669
 7470SOL    HW229646   4.441   3.096   2.913 -1.1626  0.4804 -0.3393
 7470SOL    HW329647   4.488   2.962   2.860 -0.4297  0.6495 -0.1316
 7470SOL    MW429648   4.475   3.047   2.849 -0.1626  0.7084 -0.0129
 7471SOL     OW29649   2.242   0.867   1.818  0.0082  0.1078  0.6457
 7471SOL    HW229650   2.178   0.810   1.776 -2.2490  3.0667 -0.2002
 7471SOL    HW329651   2.312   0.875   1.753 -0.2968 -0.5582  0.2155
 7471SOL    MW429652   2.243   0.860   1.804 -0.3298  0.4103  0.4773
 7472SOL     OW29653   3.660   4.316   1.580  0.2172 -0.3555  0.2978
 7472SOL    HW229654   3.749   4.291   1.605  0.2550  1.3448  2.0712
 7472SOL    HW329655   3.628   4.367   1.654 -1.6908  0.3511 -0.9610
 7472SOL    MW429656   3.668   4.319   1.593 -0.0295 -0.0379  0.3657
 7473SOL     OW29657   3.953   4.690   2.219 -0.0577  0.3344  0.0744
 7473SOL    HW229658   3.925   4.613   2.268  1.0759  0.3305  0.7697
 7473SOL    HW329659   3.943   4.763   2.281 -1.6640  0.8577 -0.7605
 7473SOL    MW429660   3.948   4.690   2.234 -0.1201  0.4029  0.0560
 7474SOL     OW29661   0.453   3.461   1.775  0.5615 -0.3512  0.3351
 7474SOL    HW229662   0.469   3.366   1.778 -0.1192 -0.4502  1.6698
 7474SOL    HW329663   0.499   3.494   1.852 -0.0203  0.2701  0.4177
 7474SOL    MW429664   0.461   3.453   1.786  0.3949 -0.2823  0.5221
 7475SOL     OW29665   4.538   2.983   0.340 -0.0795  0.2353 -0.1727
 7475SOL    HW229666   4.460   3.022   0.302 -1.7414 -0.9085  1.8345
 7475SOL    HW329667   4.558   2.908   0.284 -0.3894  0.5780 -0.7440
 7475SOL    MW429668   4.530   2.978   0.328 -0.3397  0.1296  0.0167
 7476SOL     OW29669   0.500   0.067   3.464  0.2724 -0.0566  0.1097
 7476SOL    HW229670   0.480   0.137   3.403 -0.1209 -1.1331 -1.0475
 7476SOL    HW329671   0.580   0.027   3.430  0.4183 -0.2598  0.6777
 7476SOL    MW429672   0.508   0.071   3.451  0.2398 -0.2255  0.0319
 7477SOL     OW29673   5.241   2.538   4.147  0.1417 -0.6965  0.0035
 7477SOL    HW229674   5.272   2.536   4.238 -0.6569 -1.0018  0.2801
 7477SOL    HW329675   5.170   2.474   4.145 -0.7820  0.3244 -0.4890
 7477SOL    MW429676   5.236   2.529   4.159 -0.0855 -0.6021 -0.0250
 7478SOL     OW29677   1.728   4.340   2.804  0.1495  0.1142 -0.1695
 7478SOL    HW229678   1.821   4.362   2.813  0.8619 -0.8759 -3.6320
 7478SOL    HW329679   1.693   4.409   2.748 -0.3764 -1.1834 -1.5140
 7478SOL    MW429680   1.736   4.352   2.798  0.1741 -0.1877 -0.8037
 7479SOL     OW29681   1.639   3.154   3.617  0.0722  0.1083 -0.2412
 7479SOL    HW229682   1.573   3.103   3.571 -0.4313  2.1075 -1.8812
 7479SOL    HW329683   1.589   3.213   3.674  0.3545  1.7341 -1.5938
 7479SOL    MW429684   1.624   3.155   3.618  0.0430  0.5866 -0.6361
 7480SOL     OW29685   5.529   3.158   4.612 -0.0186 -0.4568 -0.3399
 7480SOL    HW229686   5.467   3.175   4.682  0.7142  0.8517  0.0264
 7480SOL    HW329687   5.557   3.245   4.583  0.8330 -1.0006 -1.2181
 7480SOL    MW429688   5.525   3.172   4.617  0.1905 -0.3559 -0.4075
 7481SOL     OW29689   2.029   0.700   4.910 -0.1959 -0.6089  0.6356
 7481SOL    HW229690   1.990   0.783   4.885  0.0362 -0.2855  1.3081
 7481SOL    HW329691   2.086   0.676   4.837 -3.7596 -2.5854 -1.8139
 7481SOL    MW429692   2.031   0.708   4.897 -0.6355 -0.8270  0.4011
 7482SOL     OW29693   3.392   2.780   5.661  0.9011 -0.5942  0.4146
 7482SOL    HW229694   3.320   2.765   5.722  0.3723  0.7257  0.1331
 7482SOL    HW329695   3.423   2.692   5.639 -1.1758 -1.2216 -0.1477
 7482SOL    MW429696   3.387   2.766   5.666  0.5573 -0.5029  0.3033
 7483SOL     OW29697   2.138   0.062  -0.008  0.9279 -0.0295 -0.0298
 7483SOL    HW229698   2.081   0.134   0.021 -0.3542  0.1525 -2.6672
 7483SOL    HW329699   2.226   0.099  -0.004  0.4726  1.0695  0.3841
 7483SOL    MW429700   2.142   0.077  -0.004  0.6987  0.1395 -0.3232
 7484SOL     OW29701   1.187   4.587   0.557  0.7612  0.2148  0.2371
 7484SOL    HW229702   1.134   4.582   0.477  4.1102 -1.6424 -2.1103
 7484SOL    HW329703   1.228   4.673   0.553  0.3257  0.4356  0.4155
 7484SOL    MW429704   1.185   4.597   0.546  1.1456 -0.0011 -0.0491
 7485SOL     OW29705   1.337   0.123   5.817 -0.1535  0.0796  0.1161
 7485SOL    HW229706   1.373   0.073   5.744 -0.6916  1.5061 -1.1737
 7485SOL    HW329707   1.355   0.069   5.894  1.7265 -0.7997 -0.8737
 7485SOL    MW429708   1.344   0.109   5.818  0.0236  0.1518 -0.1847
 7486SOL     OW29709   3.128   3.042   1.428  0.1397  0.1081 -0.0623
 7486SOL    HW229710   3.192   3.069   1.362 -0.1437  0.0388 -0.3705
 7486SOL    HW329711   3.086   3.123   1.455  1.3027  0.3289  1.1526
 7486SOL    MW429712   3.131   3.056   1.423  0.2557  0.1280  0.0574
 7487SOL     OW29713   1.723   4.069   2.709  0.0828  0.3560 -0.0144
 7487SOL    HW229714   1.719   4.163   2.727  1.2659  0.5526 -0.6764
 7487SOL    HW329715   1.693   4.028   2.790  3.3660  1.2385  1.8547
 7487SOL    MW429716   1.719   4.076   2.722  0.6720  0.4984  0.1449
 7488SOL     OW29717   3.335   1.669   2.876 -0.1669 -0.6234  0.1088
 7488SOL    HW229718   3.369   1.737   2.817 -0.1787 -0.1435  0.6470
 7488SOL    HW329719   3.265   1.627   2.826 -0.0012 -0.3993 -0.3199
 7488SOL    MW429720   3.330   1.672   2.861 -0.1466 -0.5305  0.1232
 7489SOL     OW29721   6.335   1.195   4.504 -0.4128  0.6455 -0.5616
 7489SOL    HW229722   6.397   1.258   4.467  1.7536 -1.4110 -0.7000
 7489SOL    HW329723   6.389   1.118   4.526 -2.5350 -0.3541  1.6515
 7489SOL    MW429724   6.351   1.193   4.502 -0.4070  0.2423 -0.2879
 7490SOL     OW29725   0.975   0.429   6.321  0.1500 -0.9015 -0.6598
 7490SOL    HW229726   1.025   0.415   6.401 -1.7989  2.1190  1.3511
 7490SOL    HW329727   0.961   0.524   6.319 -3.5146 -1.3068 -2.1903
 7490SOL    MW429728   0.979   0.440   6.331 -0.5906 -0.5564 -0.5964
 7491SOL     OW29729   0.735   3.313   3.364  0.6871 -0.2357 -0.7861
 7491SOL    HW229730   0.668   3.381   3.356 -0.7692 -1.3297  1.1353
 7491SOL    HW329731   0.732   3.266   3.280 -1.0060 -0.2593 -0.7553
 7491SOL    MW429732   0.725   3.316   3.352  0.2716 -0.3832 -0.5286
 7492SOL     OW29733   2.480   6.072   2.646  0.4898  1.0231  0.5789
 7492SOL    HW229734   2.501   6.158   2.609 -1.4071  1.4926  0.4970
 7492SOL    HW329735   2.397   6.047   2.605  1.2780 -1.1519  0.1496
 7492SOL    MW429736   2.472   6.080   2.636  0.3435  0.7981  0.5115
 7493SOL     OW29737   3.891   4.583   3.147 -0.0164 -0.1991 -0.4028
 7493SOL    HW229738   3.955   4.512   3.148 -0.3374 -0.4930 -0.4790
 7493SOL    HW329739   3.833   4.564   3.221  0.5535  0.5990  0.2661
 7493SOL    MW429740   3.892   4.571   3.157  0.0164 -0.1325 -0.3246
 7494SOL     OW29741   1.474   0.976   5.260 -0.2685  0.1350 -0.1559
 7494SOL    HW229742   1.535   1.042   5.295 -0.8731  0.9014 -0.5101
 7494SOL    HW329743   1.401   0.976   5.322  0.4400 -1.4020  0.7431
 7494SOL    MW429744   1.473   0.985   5.273 -0.2548  0.0333 -0.0840
 7495SOL     OW29745   1.097   5.644   2.874 -0.2980 -0.0664  0.3397
 7495SOL    HW229746   1.192   5.655   2.871  0.0698 -2.6541 -0.6967
 7495SOL    HW329747   1.063   5.732   2.887  2.0532  1.6164 -3.1612
 7495SOL    MW429748   1.105   5.657   2.875  0.0607 -0.1858 -0.2589
 7496SOL     OW29749   4.461   5.675   1.748 -0.2696  0.0471 -0.1438
 7496SOL    HW229750   4.369   5.701   1.754  0.2329  1.6321  2.7940
 7496SOL    HW329751   4.477   5.627   1.828  1.1783 -1.4558 -1.2814
 7496SOL    MW429752   4.451   5.672   1.759 -0.0123  0.0579  0.0937
 7497SOL     OW29753   4.730   6.307   4.653  0.2063 -0.4284  0.0218
 7497SOL    HW229754   4.707   6.291   4.561 -1.5019  0.0973  0.3216
 7497SOL    HW329755   4.733   6.220   4.692  0.8204 -0.6470 -0.4903
 7497SOL    MW429756   4.727   6.293   4.646  0.0620 -0.3879 -0.0062
 7498SOL     OW29757   5.332   4.167   4.162  0.1957  0.1050 -0.2286
 7498SOL    HW229758   5.419   4.152   4.125 -0.0693 -0.8442 -0.4948
 7498SOL    HW329759   5.341   4.145   4.254  0.9501  2.8273  0.4209
 7498SOL    MW429760   5.344   4.162   4.169  0.2603  0.3390 -0.1780
 7499SOL     OW29761   3.775   5.676   1.632  0.5518  0.3769  0.3733
 7499SOL    HW229762   3.796   5.686   1.725  2.6071 -0.0578  0.0009
 7499SOL    HW329763   3.682   5.697   1.626 -0.4567 -2.6010  3.0311
 7499SOL    MW429764   3.765   5.680   1.644  0.6899 -0.0734  0.6748
 7500SOL     OW29765   2.562   5.052   5.638 -0.4513  0.0734 -0.8831
 7500SOL    HW229766   2.588   5.088   5.723  0.0841  0.3382 -1.1526
 7500SOL    HW329767   2.556   4.958   5.652  0.9054 -0.0283 -0.8635
 7500SOL    MW429768   2.564   5.045   5.651 -0.2017  0.0949 -0.9161
 7501SOL     OW29769   4.686   1.420   4.634 -0.2221  0.3489  0.1963
 7501SOL    HW229770   4.616   1.378   4.584 -0.9735  0.4933  1.0830
 7501SOL    HW329771   4.640   1.481   4.691  0.8616  2.7577 -1.3668
 7501SOL    MW429772   4.671   1.422   4.635 -0.1782  0.6857  0.1071
 7502SOL     OW29773   5.598   5.580   3.282  0.3152  0.4404  0.0068
 7502SOL    HW229774   5.643   5.632   3.216 -0.0224  0.0120 -0.5678
 7502SOL    HW329775   5.505   5.601   3.271  0.2022 -0.0627 -0.0448
 7502SOL    MW429776   5.592   5.590   3.272  0.2558  0.3175 -0.0758
 7503SOL     OW29777   4.230   6.096   4.967 -0.0357 -0.0936 -0.0974
 7503SOL    HW229778   4.251   6.159   5.035 -1.2981 -2.8446  3.1003
 7503SOL    HW329779   4.294   6.113   4.898  1.4729  2.7261  1.8034
 7503SOL    MW429780   4.241   6.106   4.967 -0.0033 -0.0845  0.5753
 7504SOL     OW29781   2.091   0.671   1.691  0.0912  0.7000  0.5251
 7504SOL    HW229782   2.000   0.681   1.663 -0.0673  0.1357  0.8266
 7504SOL    HW329783   2.091   0.593   1.746  0.9142  0.1737 -0.1943
 7504SOL    MW429784   2.079   0.662   1.694  0.1789  0.5561  0.4699
 7505SOL     OW29785   3.569   1.970   2.857 -0.2374  0.6125  0.2075
 7505SOL    HW229786   3.635   1.966   2.787 -0.9024 -0.8577 -0.3777
 7505SOL    HW329787   3.534   2.058   2.852  0.8667  1.0458 -0.2384
 7505SOL    MW429788   3.573   1.981   2.847 -0.1794  0.4757  0.0714
 7506SOL     OW29789   1.563   5.046   0.530  0.2732 -0.0503 -0.4490
 7506SOL    HW229790   1.503   5.005   0.468 -1.0275  0.3811  0.4812
 7506SOL    HW329791   1.534   5.016   0.615  0.3360  1.4657  0.1449
 7506SOL    MW429792   1.551   5.037   0.533  0.1099  0.2066 -0.2479
 7507SOL     OW29793   3.814   2.702   3.555  0.2931 -0.1566 -0.5988
 7507SOL    HW229794   3.812   2.630   3.619  0.7422  1.2778  1.1016
 7507SOL    HW329795   3.721   2.719   3.537  0.0016  1.1614  1.7873
 7507SOL    MW429796   3.801   2.694   3.561  0.3139  0.2065 -0.0597
 7508SOL     OW29797   4.288   3.788   0.279 -0.2937  0.1455  0.2001
 7508SOL    HW229798   4.272   3.828   0.365  0.2694  0.9301 -0.0435
 7508SOL    HW329799   4.258   3.854   0.216  2.1334  0.9536 -0.2487
 7508SOL    MW429800   4.282   3.802   0.282  0.1008  0.3556  0.1087
 7509SOL     OW29801   4.753   3.394   1.187 -0.5892 -0.4539 -0.0742
 7509SOL    HW229802   4.808   3.466   1.217 -1.8975 -0.1507  1.7793
 7509SOL    HW329803   4.801   3.355   1.115  1.7581  0.1425  1.0804
 7509SOL    MW429804   4.766   3.398   1.182 -0.4521 -0.3352  0.3227
 7510SOL     OW29805   5.126   3.818   3.742  0.1270 -0.0553 -0.2222
 7510SOL    HW229806   5.090   3.893   3.695 -0.3064  1.1718  1.9393
 7510SOL    HW329807   5.221   3.828   3.735  0.0757 -0.4133 -1.5800
 7510SOL    MW429808   5.133   3.829   3.735  0.0631  0.0593 -0.1161
 7511SOL     OW29809   3.162   5.878   1.730 -0.0990  0.0679 -0.2737
 7511SOL    HW229810   3.152   5.816   1.659  1.8721 -1.7624  0.9226
 7511SOL    HW329811   3.243   5.852   1.774 -0.1919  2.3304  1.4567
 7511SOL    MW429812   3.171   5.867   1.727  0.1488  0.1249  0.1124
 7512SOL     OW29813   3.155   3.934   5.396  1.0213 -0.0897  0.0676
 7512SOL    HW229814   3.133   4.015   5.443  0.9758  0.7494 -1.3506
 7512SOL    HW329815   3.070   3.891   5.383  0.6569  1.0428 -1.6284
 7512SOL    MW429816   3.141   3.939   5.401  0.9672  0.1705 -0.3433
 7513SOL     OW29817   0.903   4.698   5.090 -0.2815 -0.2898  0.2009
 7513SOL    HW229818   0.887   4.754   5.166 -3.1121 -1.0109  0.2502
 7513SOL    HW329819   0.830   4.716   5.031 -0.5907 -2.9506 -0.3495
 7513SOL    MW429820   0.891   4.708   5.093 -0.6958 -0.7360  0.1348
 7514SOL     OW29821   0.814   4.366   3.974 -0.2059 -0.6602 -0.1230
 7514SOL    HW229822   0.761   4.344   3.897 -1.7528 -0.7214  0.9087
 7514SOL    HW329823   0.811   4.287   4.029 -0.9942  0.1197  0.9932
 7514SOL    MW429824   0.806   4.352   3.971 -0.5140 -0.5654  0.1604
 7515SOL     OW29825   6.164   2.035   0.372 -0.1105 -0.6053 -0.0195
 7515SOL    HW229826   6.173   2.033   0.277 -0.0197 -1.2837 -0.0045
 7515SOL    HW329827   6.122   2.119   0.390 -0.6042 -0.6895 -0.7029
 7515SOL    MW429828   6.160   2.046   0.362 -0.1637 -0.7059 -0.1077
 7516SOL     OW29829   5.592   4.815   3.833 -0.4087 -0.1559  0.6210
 7516SOL    HW229830   5.560   4.726   3.842  1.1749 -0.9545 -1.0242
 7516SOL    HW329831   5.642   4.830   3.914 -0.1155 -1.0263  0.6145
 7516SOL    MW429832   5.595   4.805   3.845 -0.1611 -0.3761  0.4030
 7517SOL     OW29833   2.672   1.197   4.835  0.3798 -0.4123 -0.1248
 7517SOL    HW229834   2.609   1.173   4.767  1.4250 -1.0023 -0.9211
 7517SOL    HW329835   2.695   1.288   4.815  0.0481 -0.3117 -0.0476
 7517SOL    MW429836   2.667   1.206   4.823  0.4739 -0.4769 -0.2197
 7518SOL     OW29837   5.492   4.630   5.454 -1.0947  0.0183 -0.0790
 7518SOL    HW229838   5.408   4.612   5.497 -0.4666 -0.1362  1.1161
 7518SOL    HW329839   5.527   4.543   5.433 -0.8521  0.0459  0.1997
 7518SOL    MW429840   5.485   4.616   5.457 -0.9799  0.0015  0.1154
 7519SOL     OW29841   5.237   0.760   5.063  0.5450 -0.3104  0.1929
 7519SOL    HW229842   5.285   0.812   4.998  1.1115 -0.0769  0.7879
 7519SOL    HW329843   5.185   0.823   5.111 -2.0634 -0.7716 -1.7965
 7519SOL    MW429844   5.237   0.775   5.061  0.2756 -0.3404  0.0089
 7520SOL     OW29845   4.572   0.117   1.760  0.0425 -0.2149 -0.1213
 7520SOL    HW229846   4.576   0.026   1.789  0.3008  0.3717  1.8413
 7520SOL    HW329847   4.645   0.159   1.805 -0.1321  0.9962 -0.9330
 7520SOL    MW429848   4.582   0.110   1.770  0.0536  0.0222  0.0306
 7521SOL     OW29849   4.974   6.262   1.845 -0.0748  0.3735 -0.4773
 7521SOL    HW229850   4.964   6.332   1.910  0.4863  0.4628 -0.4850
 7521SOL    HW329851   5.067   6.262   1.824 -0.0813 -0.3539 -0.5067
 7521SOL    MW429852   4.985   6.271   1.851 -0.0017  0.2893 -0.4822
 7522SOL     OW29853   5.688   6.042   4.839  0.0615 -0.5009  0.2897
 7522SOL    HW229854   5.721   6.003   4.758  0.3668  2.9100 -1.3934
 7522SOL    HW329855   5.751   6.110   4.861 -1.9249  1.1629  1.2092
 7522SOL    MW429856   5.700   6.046   4.831 -0.1603  0.1686  0.1890
 7523SOL     OW29857   0.228   0.565   6.118  0.4152 -0.8548 -0.4137
 7523SOL    HW229858   0.303   0.529   6.070  1.7773 -0.4967  1.3535
 7523SOL    HW329859   0.223   0.513   6.198 -0.1421  0.2319  0.2876
 7523SOL    MW429860   0.237   0.553   6.122  0.5214 -0.6642 -0.0880
 7524SOL     OW29861   1.836   0.093   5.089 -0.3114 -0.3756  0.2501
 7524SOL    HW229862   1.918   0.107   5.043 -0.5796 -0.7761 -0.3537
 7524SOL    HW329863   1.837   0.001   5.116  0.1508  0.0171  1.6705
 7524SOL    MW429864   1.847   0.083   5.087 -0.2858 -0.3767  0.3579
 7525SOL     OW29865   6.324   0.984   4.904  0.4961  0.4258  0.0401
 7525SOL    HW229866   6.354   1.068   4.870  0.2569 -0.0898 -1.5142
 7525SOL    HW329867   6.312   0.999   4.998  2.2110  1.6109  0.1250
 7525SOL    MW429868   6.327   0.997   4.912  0.6908  0.5141 -0.1538
 7526SOL     OW29869   2.454   6.288   1.154  0.3990 -0.2048  0.0957
 7526SOL    HW229870   2.360   6.270   1.151  0.7411 -2.1212 -2.0446
 7526SOL    HW329871   2.471   6.339   1.075  1.1669  0.0267  0.4027
 7526SOL    MW429872   2.444   6.292   1.143  0.5454 -0.4271 -0.1462
 7527SOL     OW29873   5.910   3.716   1.483  0.2575  0.1817 -0.3498
 7527SOL    HW229874   5.860   3.637   1.505 -1.0113  0.6397 -1.4439
 7527SOL    HW329875   5.904   3.722   1.388  1.8578  0.6439 -0.4454
 7527SOL    MW429876   5.902   3.706   1.474  0.3013  0.3031 -0.5068
 7528SOL     OW29877   1.296   4.442   6.093  0.6887  0.3987  0.0579
 7528SOL    HW229878   1.327   4.486   6.173 -1.0623  1.7244  0.0829
 7528SOL    HW329879   1.204   4.421   6.112  0.2306  0.7740 -1.6227
 7528SOL    MW429880   1.288   4.445   6.106  0.3972  0.6232 -0.1605
 7529SOL     OW29881   6.318   2.489   3.359  0.4451 -0.5350 -0.3025
 7529SOL    HW229882   6.262   2.541   3.416 -1.0800  0.0305 -2.2064
 7529SOL    HW329883   6.268   2.408   3.345  1.6754 -1.4877  0.6623
 7529SOL    MW429884   6.304   2.485   3.364  0.4062 -0.5861 -0.4264
 7530SOL     OW29885   6.232   1.044   2.884  0.1279  0.5983  0.0319
 7530SOL    HW229886   6.154   1.099   2.898 -1.1550 -1.0274 -0.4912
 7530SOL    HW329887   6.283   1.056   2.964  0.0584  2.7560 -0.1749
 7530SOL    MW429888   6.228   1.053   2.897 -0.0506  0.6685 -0.0644
 7531SOL     OW29889   0.965   5.871   2.647  0.6966 -0.2186  0.3241
 7531SOL    HW229890   0.937   5.959   2.671  1.2466  0.4823 -1.3994
 7531SOL    HW329891   0.918   5.813   2.706 -1.0147  1.1358  0.3668
 7531SOL    MW429892   0.955   5.875   2.658  0.5434  0.0526  0.1024
 7532SOL     OW29893   2.311   5.689   3.185 -0.5415 -0.0401 -0.1469
 7532SOL    HW229894   2.281   5.684   3.275 -0.2043  0.5077 -0.0015
 7532SOL    HW329895   2.276   5.609   3.144  0.5888 -1.0763  0.8434
 7532SOL    MW429896   2.302   5.678   3.191 -0.3479 -0.1046  0.0029
 7533SOL     OW29897   3.067   5.612   1.376  0.3099  0.0765  0.4209
 7533SOL    HW229898   2.973   5.602   1.360  0.8267 -2.8906 -1.6134
 7533SOL    HW329899   3.077   5.604   1.471 -1.4995  1.2931  0.7622
 7533SOL    MW429900   3.056   5.610   1.387  0.1394 -0.1545  0.1975
 7534SOL     OW29901   5.842   5.781   6.001  0.2686  0.0055  0.2152
 7534SOL    HW229902   5.749   5.795   5.981  0.1400  0.2044  0.9398
 7534SOL    HW329903   5.865   5.703   5.950  0.3839  1.3993 -2.0204
 7534SOL    MW429904   5.833   5.773   5.991  0.2669  0.2156  0.0158
 7535SOL     OW29905   5.553   5.730   1.709 -0.2509 -0.0053  0.4776
 7535SOL    HW229906   5.609   5.656   1.733 -1.0329 -0.8133 -0.1599
 7535SOL    HW329907   5.472   5.691   1.679 -0.7134  1.1206  0.2008
 7535SOL    MW429908   5.550   5.715   1.709 -0.4151  0.0366  0.3570
 7536SOL     OW29909   4.273   5.232   3.023  0.0717  0.2122  0.3542
 7536SOL    HW229910   4.329   5.306   3.000  1.4360 -1.0117 -0.4382
 7536SOL    HW329911   4.252   5.190   2.940  1.7455 -1.9414  0.9053
 7536SOL    MW429912   4.278   5.236   3.009  0.4725 -0.2334  0.3223
 7537SOL     OW29913   3.513   2.622   1.211  0.5398  1.0498 -0.2357
 7537SOL    HW229914   3.474   2.538   1.190  0.8635  0.0775  2.5447
 7537SOL    HW329915   3.439   2.677   1.238  0.5572  0.8741  0.1777
 7537SOL    MW429916   3.498   2.618   1.212  0.5848  0.8983  0.1857
 7538SOL     OW29917   4.459   6.116   4.573 -0.1401 -0.9610  0.2306
 7538SOL    HW229918   4.514   6.044   4.606 -0.5108 -1.2615  0.1934
 7538SOL    HW329919   4.393   6.073   4.519 -1.7135 -0.8273  1.9575
 7538SOL    MW429920   4.458   6.101   4.571 -0.3966 -0.9830  0.4536
 7539SOL     OW29921   6.441   5.214   5.145 -0.0529 -0.0127  0.0123
 7539SOL    HW229922   6.494   5.191   5.069  0.3955 -0.9703  0.6064
 7539SOL    HW329923   6.351   5.199   5.116  0.0812  0.1226 -0.4899
 7539SOL    MW429924   6.436   5.209   5.131  0.0239 -0.1212  0.0244
 7540SOL     OW29925   5.402   0.838   1.280  0.0022  0.1989  0.2899
 7540SOL    HW229926   5.348   0.914   1.300  2.5911  2.3213 -0.1293
 7540SOL    HW329927   5.400   0.832   1.184 -0.0571 -0.1701  0.3122
 7540SOL    MW429928   5.395   0.847   1.270  0.3360  0.4302  0.2375
 7541SOL     OW29929   3.324   5.232   5.769  0.1732 -0.0471  0.1162
 7541SOL    HW229930   3.238   5.268   5.747 -0.3647 -1.4148 -0.1377
 7541SOL    HW329931   3.317   5.208   5.861 -0.0291 -0.9201 -0.1098
 7541SOL    MW429932   3.312   5.233   5.778  0.0756 -0.3427  0.0529
 7542SOL     OW29933   0.090   5.188   0.757  0.1363  0.1794 -0.3394
 7542SOL    HW229934   0.157   5.243   0.717  1.1028  0.1893  1.2104
 7542SOL    HW329935   0.101   5.202   0.852 -1.4433 -0.5384 -0.0277
 7542SOL    MW429936   0.101   5.197   0.765  0.0554  0.0860 -0.0938
 7543SOL     OW29937   4.634   2.862   1.226  0.0253  0.4551 -0.1217
 7543SOL    HW229938   4.559   2.915   1.199  0.3836  1.4645  0.7949
 7543SOL    HW329939   4.708   2.895   1.175  0.4121  1.4142  1.0114
 7543SOL    MW429940   4.634   2.873   1.216  0.1236  0.7148  0.1487
 7544SOL     OW29941   5.484   0.118   5.003 -0.1726 -0.2574  0.0112
 7544SOL    HW229942   5.518   0.051   5.061 -0.9942 -1.4102 -0.8028
 7544SOL    HW329943   5.427   0.172   5.058  1.3583  0.5034  0.9271
 7544SOL    MW429944   5.481   0.116   5.018 -0.0790 -0.3091  0.0247
 7545SOL     OW29945   1.681   0.851   1.700  0.1867 -0.6406 -0.2024
 7545SOL    HW229946   1.732   0.880   1.776 -0.8727  0.5347  0.0952
 7545SOL    HW329947   1.730   0.776   1.665  1.0321 -0.8011  1.2512
 7545SOL    MW429948   1.694   0.845   1.705  0.1585 -0.5067  0.0287
 7546SOL     OW29949   0.657   1.554   1.765 -0.7057  0.3015  0.2715
 7546SOL    HW229950   0.600   1.588   1.696 -1.4705 -0.9627  0.2432
 7546SOL    HW329951   0.639   1.460   1.766  0.8568 -0.0180  0.7647
 7546SOL    MW429952   0.647   1.546   1.756 -0.6005  0.0926  0.3328
 7547SOL     OW29953   2.194   3.169   5.730 -0.3553  0.4919 -0.9262
 7547SOL    HW229954   2.263   3.116   5.770 -0.4238 -1.0105 -2.6763
 7547SOL    HW329955   2.119   3.159   5.788 -0.1099 -0.6667 -0.7958
 7547SOL    MW429956   2.193   3.161   5.743 -0.3319  0.1408 -1.1399
 7548SOL     OW29957   2.914   1.932   0.106  0.1285 -0.3505 -0.7455
 7548SOL    HW229958   2.906   2.003   0.170  0.6332 -0.8627 -0.1037
 7548SOL    HW329959   2.978   1.872   0.144  0.8127 -0.4196 -1.9582
 7548SOL    MW429960   2.921   1.934   0.120  0.2854 -0.4272 -0.8208
 7549SOL     OW29961   6.070   4.274   0.144 -0.5961  0.1104  0.2902
 7549SOL    HW229962   6.160   4.252   0.118 -0.0489  2.8750 -0.5297
 7549SOL    HW329963   6.034   4.192   0.178  1.4810 -1.6626 -1.4301
 7549SOL    MW429964   6.077   4.260   0.145 -0.2499  0.2412 -0.0449
 7550SOL     OW29965   3.470   2.014   4.014  0.3938  0.4052 -0.5282
 7550SOL    HW229966   3.513   1.963   3.946  1.4190  1.2806 -0.5536
 7550SOL    HW329967   3.537   2.075   4.045  0.1728 -0.4431  1.7831
 7550SOL    MW429968   3.484   2.015   4.009  0.4999  0.4088 -0.2266
 7551SOL     OW29969   5.296   0.741   5.765  0.2150 -0.2051  0.5223
 7551SOL    HW229970   5.219   0.710   5.717 -0.1402  0.5692  0.5871
 7551SOL    HW329971   5.262   0.797   5.834  0.8497  0.4482  0.3249
 7551SOL    MW429972   5.282   0.744   5.768  0.2519 -0.0168  0.5048
 7552SOL     OW29973   5.875   3.261   5.652 -0.3599  0.2965  0.3751
 7552SOL    HW229974   5.833   3.212   5.722  0.0297  0.8500  1.0114
 7552SOL    HW329975   5.806   3.277   5.588 -0.6164 -0.5804  0.4289
 7552SOL    MW429976   5.861   3.257   5.653 -0.3423  0.2539  0.4661
 7553SOL     OW29977   3.403   2.210   2.430  0.1133  0.2853 -0.2036
 7553SOL    HW229978   3.380   2.270   2.358 -0.1938 -0.1581 -0.4807
 7553SOL    HW329979   3.350   2.239   2.504 -0.7475 -0.2285 -0.6093
 7553SOL    MW429980   3.393   2.222   2.430 -0.0408  0.1590 -0.2937
 7554SOL     OW29981   4.506   3.693   2.750 -0.0003 -0.1847  0.1385
 7554SOL    HW229982   4.597   3.683   2.780 -0.1766 -0.0460  0.7373
 7554SOL    HW329983   4.513   3.739   2.667  0.7048 -3.3124 -1.6694
 7554SOL    MW429984   4.519   3.698   2.743  0.0695 -0.5791 -0.0210
 7555SOL     OW29985   3.145   4.724   2.993  0.1175 -0.4201 -0.4093
 7555SOL    HW229986   3.208   4.792   2.971  0.7644 -0.9152 -0.1379
 7555SOL    HW329987   3.064   4.771   3.012  0.7299  0.3258  0.4402
 7555SOL    MW429988   3.143   4.739   2.993  0.2837 -0.3870 -0.2614
 7556SOL     OW29989   3.941   4.803   4.570 -0.3524 -0.0632  0.1012
 7556SOL    HW229990   3.932   4.731   4.632 -0.8407 -1.0445 -1.0691
 7556SOL    HW329991   3.851   4.829   4.550 -0.2005  0.2515 -0.1848
 7556SOL    MW429992   3.928   4.797   4.575 -0.3968 -0.1512 -0.0909
 7557SOL     OW29993   5.396   4.601   3.792  0.5217 -0.1188  0.1714
 7557SOL    HW229994   5.464   4.537   3.774  1.3797  0.3271  1.7301
 7557SOL    HW329995   5.364   4.627   3.705 -0.9602 -3.7432 -0.5388
 7557SOL    MW429996   5.400   4.596   3.778  0.4394 -0.5381  0.2834
 7558SOL     OW29997   5.224   5.159   4.009  0.1331  0.4421  0.2045
 7558SOL    HW229998   5.318   5.147   4.001  0.2849  0.6596  1.5283
 7558SOL    HW329999   5.207   5.244   3.969  0.0501 -0.7943 -2.6719
 7558SOL    MW430000   5.234   5.168   4.002  0.1422  0.3077 -0.0003
 7559SOL     OW30001   2.566   0.890   1.327  0.1675  0.1313  0.5184
 7559SOL    HW230002   2.497   0.906   1.262  2.0314  0.2316 -1.5439
 7559SOL    HW330003   2.565   0.795   1.339  1.1928 -0.1617 -1.3634
 7559SOL    MW430004   2.557   0.879   1.320  0.5487  0.1059 -0.0020
 7560SOL     OW30005   2.761   5.549   2.645 -0.0085 -0.4571  0.3331
 7560SOL    HW230006   2.692   5.607   2.676 -1.4275 -1.1309 -1.3765
 7560SOL    HW330007   2.722   5.502   2.571  2.3543 -0.7127 -0.8664
 7560SOL    MW430008   2.747   5.550   2.639  0.1160 -0.5798 -0.0507
 7561SOL     OW30009   5.604   6.111   5.207  0.2739 -0.3482 -0.2968
 7561SOL    HW230010   5.685   6.145   5.169 -0.5544 -1.1246 -2.9304
 7561SOL    HW330011   5.537   6.176   5.183 -0.1400 -0.4193  0.6370
 7561SOL    MW430012   5.606   6.124   5.199  0.1100 -0.4600 -0.5211
 7562SOL     OW30013   4.318   2.371   4.333 -0.1151 -0.1821  0.3712
 7562SOL    HW230014   4.397   2.323   4.310  0.2215  1.5176 -2.4690
 7562SOL    HW330015   4.255   2.348   4.265 -0.4381  2.0859 -0.1705
 7562SOL    MW430016   4.320   2.362   4.321 -0.1133  0.3414 -0.0750
 7563SOL     OW30017   6.402   0.256   5.218  0.2334 -0.1265 -0.2550
 7563SOL    HW230018   6.450   0.234   5.298 -0.5255  2.1977  0.9091
 7563SOL    HW330019   6.380   0.171   5.180  3.5520 -1.3063  0.1411
 7563SOL    MW430020   6.405   0.242   5.224  0.5711  0.0245 -0.0491
 7564SOL     OW30021   4.901   2.748   4.617 -0.3144 -0.8380 -0.0732
 7564SOL    HW230022   4.810   2.771   4.636 -0.3049 -0.8367 -0.0275
 7564SOL    HW330023   4.901   2.653   4.611 -0.1808 -0.8913  0.6694
 7564SOL    MW430024   4.889   2.739   4.619 -0.2955 -0.8449  0.0308
 7565SOL     OW30025   4.162   1.613   4.510  0.1607  0.0294  0.1923
 7565SOL    HW230026   4.206   1.641   4.590  0.8253 -0.0996 -0.1247
 7565SOL    HW330027   4.146   1.519   4.523  0.8961 -0.1446 -0.1063
 7565SOL    MW430028   4.166   1.604   4.522  0.3454 -0.0106  0.1111
 7566SOL     OW30029   2.948   5.773   4.586  0.1442 -0.3429  0.1188
 7566SOL    HW230030   3.030   5.740   4.621  0.0173 -0.8799 -0.0786
 7566SOL    HW330031   2.899   5.694   4.560 -0.4459 -0.0351  0.2756
 7566SOL    MW430032   2.952   5.758   4.587  0.0496 -0.3732  0.1135
 7567SOL     OW30033   3.613   2.611   2.006  0.2777 -0.3830 -0.4628
 7567SOL    HW230034   3.707   2.593   2.016  0.2466 -0.2443  0.1163
 7567SOL    HW330035   3.601   2.623   1.912  0.5210 -2.1411 -0.7510
 7567SOL    MW430036   3.624   2.610   1.995  0.3057 -0.5967 -0.4244
 7568SOL     OW30037   1.661   0.870   5.789  0.3635  0.0187  0.7578
 7568SOL    HW230038   1.696   0.839   5.706  3.0871  0.4986  1.6191
 7568SOL    HW330039   1.689   0.804   5.853  1.4146  1.3629  1.7671
 7568SOL    MW430040   1.669   0.857   5.787  0.8615  0.2593  1.0046
 7569SOL     OW30041   4.834   3.209   1.386 -0.4466  0.0190 -0.5986
 7569SOL    HW230042   4.809   3.262   1.310  0.2485 -0.2556 -1.0225
 7569SOL    HW330043   4.916   3.167   1.360 -1.2408 -1.6794 -0.4812
 7569SOL    MW430044   4.841   3.211   1.372 -0.4597 -0.2413 -0.6390
 7570SOL     OW30045   3.835   3.937   2.657 -0.1644  0.2777 -0.0374
 7570SOL    HW230046   3.818   3.905   2.745  2.2409 -0.5666  0.1815
 7570SOL    HW330047   3.761   3.996   2.638 -1.7347 -0.9978  1.7521
 7570SOL    MW430048   3.823   3.941   2.666 -0.0542 -0.0019  0.2276
 7571SOL     OW30049   0.862   0.789   3.256 -0.3372 -0.2048  0.3946
 7571SOL    HW230050   0.864   0.851   3.329  0.0046 -1.5362  1.5625
 7571SOL    HW330051   0.910   0.713   3.288 -1.4278 -1.3929 -0.6815
 7571SOL    MW430052   0.868   0.787   3.270 -0.4360 -0.5372  0.4067
 7572SOL     OW30053   4.210   4.532   3.332 -0.1966  0.4248 -0.2862
 7572SOL    HW230054   4.299   4.510   3.360 -1.1794 -1.2301  1.8776
 7572SOL    HW330055   4.221   4.580   3.250  2.5989 -1.0103 -0.8642
 7572SOL    MW430056   4.223   4.535   3.325  0.0426  0.0171 -0.0770
 7573SOL     OW30057   3.950   3.339   3.529 -0.2701 -0.3689  0.0962
 7573SOL    HW230058   3.887   3.411   3.528  0.4108  0.2870  1.8164
 7573SOL    HW330059   4.015   3.364   3.595  1.6441 -1.1772 -1.3807
 7573SOL    MW430060   3.950   3.352   3.537  0.0723 -0.3890  0.1283
 7574SOL     OW30061   2.268   2.371   0.399 -0.5485  0.1451 -0.1108
 7574SOL    HW230062   2.215   2.382   0.478  0.8162 -0.5049  0.9427
 7574SOL    HW330063   2.347   2.326   0.429  0.4888  0.8286 -1.6716
 7574SOL    MW430064   2.272   2.366   0.413 -0.2316  0.1495 -0.1777
 7575SOL     OW30065   5.630   0.004   1.891 -0.5004 -0.2278  0.2585
 7575SOL    HW230066   5.678  -0.041   1.822 -1.9980 -0.9765 -0.3320
 7575SOL    HW330067   5.646   0.097   1.873  0.1032 -0.4390 -0.3672
 7575SOL    MW430068   5.638   0.011   1.879 -0.6184 -0.3545  0.0981
 7576SOL     OW30069   6.136   1.185   0.610  0.5861 -0.1870  0.1604
 7576SOL    HW230070   6.089   1.241   0.547  0.4992 -0.5363 -0.0874
 7576SOL    HW330071   6.213   1.237   0.635  0.2077  0.2802  0.3700
 7576SOL    MW430072   6.140   1.199   0.605  0.5247 -0.1715  0.1554
 7577SOL     OW30073   2.097   0.093   1.804 -0.1175 -0.2072 -0.0468
 7577SOL    HW230074   2.169   0.046   1.763  1.5645  3.6579 -2.0842
 7577SOL    HW330075   2.025   0.087   1.741  0.2408  0.2307 -0.5101
 7577SOL    MW430076   2.097   0.086   1.790  0.1517  0.3605 -0.3768
 7578SOL     OW30077   2.467   5.775   4.621  0.0160 -0.1157  0.0140
 7578SOL    HW230078   2.477   5.701   4.562 -0.6412  0.8693 -1.3776
 7578SOL    HW330079   2.503   5.850   4.572 -0.8752  0.7891  0.7035
 7578SOL    MW430080   2.473   5.775   4.607 -0.1883  0.1336 -0.0786
 7579SOL     OW30081   3.131   0.392   1.880 -0.7217 -0.3725  0.0074
 7579SOL    HW230082   3.164   0.308   1.848 -0.0153  0.0739 -0.4535
 7579SOL    HW330083   3.036   0.385   1.871 -0.6318 -0.8983 -0.5928
 7579SOL    MW430084   3.123   0.380   1.874 -0.6167 -0.3829 -0.1326
 7580SOL     OW30085   3.989   4.983   1.514  0.4096 -1.1000  0.1719
 7580SOL    HW230086   3.930   4.918   1.476  0.5855 -0.4297 -1.2894
 7580SOL    HW330087   4.002   5.047   1.445 -1.3340  1.6155  2.1323
 7580SOL    MW430088   3.983   4.983   1.500  0.2028 -0.6533  0.2377
 7581SOL     OW30089   2.794   2.083   4.614 -0.0295  0.2718 -0.6449
 7581SOL    HW230090   2.809   2.106   4.706 -2.4048  0.6888 -0.2891
 7581SOL    HW330091   2.841   2.001   4.602  0.3389  0.2108  0.9518
 7581SOL    MW430092   2.802   2.075   4.625 -0.2943  0.3188 -0.3873
 7582SOL     OW30093   2.586   5.466   2.026  0.0042 -0.3003 -0.1320
 7582SOL    HW230094   2.634   5.392   2.064 -3.2135 -2.2312  0.5772
 7582SOL    HW330095   2.504   5.469   2.075 -1.5835  1.3253 -2.6536
 7582SOL    MW430096   2.581   5.456   2.037 -0.6298 -0.3406 -0.3711
 7583SOL     OW30097   5.041   5.771   4.809 -0.0657  0.2639  0.2604
 7583SOL    HW230098   5.082   5.831   4.747 -0.8638  0.1335 -0.4071
 7583SOL    HW330099   4.961   5.742   4.766 -0.2799 -0.3838  1.0587
 7583SOL    MW430100   5.036   5.775   4.795 -0.1992  0.1612  0.2776
 7584SOL     OW30101   0.404   3.306   6.181  0.6237 -0.2586 -0.1852
 7584SOL    HW230102   0.340   3.297   6.110 -0.5067  0.9882  0.6399
 7584SOL    HW330103   0.362   3.362   6.245  1.4193 -1.7487  1.7457
 7584SOL    MW430104   0.390   3.312   6.180  0.5795 -0.2907  0.1784
 7585SOL     OW30105   6.079   5.374   1.987 -0.3223  0.2457 -0.5009
 7585SOL    HW230106   6.172   5.393   1.974  0.0358 -0.0521  1.3825
 7585SOL    HW330107   6.036   5.458   1.976  0.2074  0.4658 -0.9769
 7585SOL    MW430108   6.086   5.388   1.984 -0.2051  0.2354 -0.3152
 7586SOL     OW30109   6.153   3.380   6.002 -0.3300  0.1661  0.3142
 7586SOL    HW230110   6.155   3.357   6.095 -1.4607 -0.4078  0.2096
 7586SOL    HW330111   6.239   3.355   5.969 -0.0354  0.0634  1.1314
 7586SOL    MW430112   6.165   3.374   6.010 -0.4403  0.0769  0.4082
 7587SOL     OW30113   0.280   4.488   4.626 -0.1136  0.1970 -0.5126
 7587SOL    HW230114   0.273   4.528   4.713  1.3596  0.5058 -0.5106
 7587SOL    HW330115   0.214   4.533   4.574  0.9146  2.0852 -0.2811
 7587SOL    MW430116   0.271   4.499   4.631  0.2165  0.4869 -0.4818
 7588SOL     OW30117   1.366   4.154   0.186  0.1530 -0.9243  0.6269
 7588SOL    HW230118   1.341   4.067   0.156  2.3005 -1.2550 -0.4400
 7588SOL    HW330119   1.424   4.138   0.260  0.1686 -0.3775  0.7426
 7588SOL    MW430120   1.371   4.141   0.192  0.4384 -0.8958  0.5014
 7589SOL     OW30121   2.163   3.440   2.846 -0.2647 -0.7520  0.2441
 7589SOL    HW230122   2.227   3.374   2.871  0.1035 -0.4926 -0.0097
 7589SOL    HW330123   2.133   3.414   2.759  0.1350 -0.3997 -0.0028
 7589SOL    MW430124   2.168   3.428   2.838 -0.1634 -0.6713  0.1781
 7590SOL     OW30125   2.731   5.400   5.316  0.4850  0.1787  0.6523
 7590SOL    HW230126   2.731   5.393   5.221 -0.8388  1.3839  0.5207
 7590SOL    HW330127   2.790   5.472   5.335 -0.7545  1.2736  0.5536
 7590SOL    MW430128   2.739   5.408   5.306  0.1468  0.4822  0.6219
 7591SOL     OW30129   2.618   0.383   5.930  0.1020  0.5041  0.5565
 7591SOL    HW230130   2.657   0.350   5.850 -0.7650 -0.8831  0.6718
 7591SOL    HW330131   2.558   0.452   5.901  0.0808  0.2768  0.0613
 7591SOL    MW430132   2.615   0.388   5.916 -0.0152  0.2911  0.5064
 7592SOL     OW30133   5.483   5.828   1.970  0.6192 -0.3025  0.1289
 7592SOL    HW230134   5.500   5.824   1.875 -2.3125 -0.9752 -0.4589
 7592SOL    HW330135   5.502   5.919   1.994 -0.1823  0.3322 -1.4812
 7592SOL    MW430136   5.488   5.839   1.960  0.1267 -0.3075 -0.1611
 7593SOL     OW30137   1.279   3.366   3.582 -0.0921  0.0764 -0.5389
 7593SOL    HW230138   1.344   3.380   3.650  0.3606  0.3042 -1.0149
 7593SOL    HW330139   1.200   3.340   3.630  0.1672  0.4111  0.0824
 7593SOL    MW430140   1.277   3.365   3.597  0.0018  0.1506 -0.5197
 7594SOL     OW30141   3.921   1.186   5.937  0.0019  0.3747 -0.0797
 7594SOL    HW230142   3.864   1.132   5.881  0.1017 -0.3845  0.5400
 7594SOL    HW330143   3.878   1.186   6.022  0.4261  0.6189  0.1365
 7594SOL    MW430144   3.908   1.179   5.941  0.0710  0.3068  0.0306
 7595SOL     OW30145   3.542   3.263   5.243  0.3002 -0.4874 -0.2770
 7595SOL    HW230146   3.519   3.306   5.326  1.7491 -0.3844  0.0950
 7595SOL    HW330147   3.575   3.177   5.268 -0.7288 -1.0860 -0.8867
 7595SOL    MW430148   3.543   3.258   5.257  0.3556 -0.5528 -0.3083
 7596SOL     OW30149   5.684   2.417   5.874 -0.1100 -0.3383  0.0733
 7596SOL    HW230150   5.675   2.510   5.893  0.8078 -0.7078  2.7092
 7596SOL    HW330151   5.751   2.413   5.805 -1.1356  0.9719 -1.0603
 7596SOL    MW430152   5.692   2.429   5.867 -0.1242 -0.2142  0.2715
 7597SOL     OW30153   1.404   3.432   2.335  0.3410 -0.1555 -0.2511
 7597SOL    HW230154   1.354   3.395   2.408 -2.0157 -0.4348 -1.9034
 7597SOL    HW330155   1.389   3.526   2.341 -1.6198 -0.3348 -1.5060
 7597SOL    MW430156   1.395   3.440   2.346 -0.2286 -0.2160 -0.6347
 7598SOL     OW30157   1.899   4.065   5.915  0.0993  0.0171 -0.5878
 7598SOL    HW230158   1.965   4.026   5.974 -0.3778 -2.0146 -1.3087
 7598SOL    HW330159   1.841   4.114   5.973  1.4815  0.7585  0.2165
 7598SOL    MW430160   1.900   4.066   5.931  0.2187 -0.1531 -0.5768
 7599SOL     OW30161   1.714   6.240   1.247 -0.0992 -0.0863  0.4175
 7599SOL    HW230162   1.633   6.286   1.269 -0.4026 -0.4756  0.1246
 7599SOL    HW330163   1.716   6.165   1.306  0.5314  0.4367  1.0802
 7599SOL    MW430164   1.704   6.236   1.258 -0.0560 -0.0687  0.4663
 7600SOL     OW30165   1.566   0.033   4.140 -0.2274  0.0670  0.3966
 7600SOL    HW230166   1.489  -0.020   4.119 -0.9894  0.4446  2.1019
 7600SOL    HW330167   1.530   0.115   4.174  0.8986 -0.0283  1.9061
 7600SOL    MW430168   1.551   0.037   4.142 -0.1794  0.1042  0.8207
 7601SOL     OW30169   0.055   2.511   0.793  0.0814  0.7832  0.1576
 7601SOL    HW230170   0.051   2.602   0.823  0.2550  0.8747 -0.1052
 7601SOL    HW330171   0.039   2.460   0.873  2.7321  0.9570  0.8871
 7601SOL    MW430172   0.052   2.516   0.808  0.4541  0.8182  0.2192
 7602SOL     OW30173   4.301   5.562   2.508 -0.9498 -0.2431  0.6711
 7602SOL    HW230174   4.355   5.640   2.521 -2.1032  0.9587 -1.3106
 7602SOL    HW330175   4.263   5.545   2.595  0.6011  0.3610  1.5171
 7602SOL    MW430176   4.303   5.570   2.521 -0.8974 -0.0049  0.5213
 7603SOL     OW30177   4.773   6.094   3.284 -0.0492  0.4367 -0.7754
 7603SOL    HW230178   4.763   6.015   3.337  0.7856 -0.7669 -2.3397
 7603SOL    HW330179   4.768   6.165   3.348  1.5479 -0.9466  1.0502
 7603SOL    MW430180   4.771   6.093   3.300  0.2716  0.0954 -0.7409
 7604SOL     OW30181   1.011   2.669   1.905 -0.8318  0.2252 -0.0917
 7604SOL    HW230182   0.941   2.714   1.858 -0.3306 -0.0411 -1.1279
 7604SOL    HW330183   1.004   2.577   1.877 -0.2613  0.1406  0.0230
 7604SOL    MW430184   1.001   2.663   1.895 -0.6904  0.1789 -0.2133
 7605SOL     OW30185   1.236   2.529   6.255 -0.1243  0.3663  0.5715
 7605SOL    HW230186   1.226   2.563   6.166  1.9731 -0.6989 -0.1585
 7605SOL    HW330187   1.292   2.592   6.299  1.5677 -0.6818  0.0410
 7605SOL    MW430188   1.242   2.542   6.249  0.3757  0.0875  0.4052
 7606SOL     OW30189   0.687   4.622   5.579  0.1435 -0.0466 -0.7596
 7606SOL    HW230190   0.764   4.597   5.630 -0.2078  1.2106  0.4385
 7606SOL    HW330191   0.692   4.567   5.500  1.8616 -0.5070 -0.3806
 7606SOL    MW430192   0.698   4.612   5.575  0.3238  0.0585 -0.5515
 7607SOL     OW30193   4.339   4.559   1.700  0.0046 -0.1936 -0.4828
 7607SOL    HW230194   4.420   4.578   1.653  1.1615 -0.7873  1.1602
 7607SOL    HW330195   4.364   4.563   1.793 -2.6585  3.3688  0.3140
 7607SOL    MW430196   4.353   4.562   1.706 -0.1942  0.1981 -0.1609
 7608SOL     OW30197   1.437   4.651   2.555 -0.1011 -0.1442 -0.7918
 7608SOL    HW230198   1.447   4.649   2.460 -0.3756 -0.5215 -0.8175
 7608SOL    HW330199   1.460   4.562   2.583 -0.4093 -0.1492 -0.5525
 7608SOL    MW430200   1.441   4.639   2.546 -0.1780 -0.1946 -0.7636
 7609SOL     OW30201   6.068   5.787   2.226  0.6461  0.0376  0.2356
 7609SOL    HW230202   6.136   5.816   2.287  1.2779 -1.7933  0.4553
 7609SOL    HW330203   5.986   5.812   2.268  1.1114 -0.0745  1.2446
 7609SOL    MW430204   6.066   5.794   2.239  0.7909 -0.2188  0.3977
 7610SOL     OW30205   1.978   2.707   2.154  0.0266 -0.0396  0.3719
 7610SOL    HW230206   1.944   2.765   2.086  0.7643 -0.0270  0.0069
 7610SOL    HW330207   1.965   2.756   2.235 -1.2620 -0.2349  0.3102
 7610SOL    MW430208   1.972   2.721   2.156 -0.0461 -0.0637  0.3156
 7611SOL     OW30209   3.293   5.902   0.053 -0.0406  0.4951  0.2492
 7611SOL    HW230210   3.337   5.834   0.103  1.0184  0.4469 -0.7193
 7611SOL    HW330211   3.238   5.855  -0.010  0.9875  0.5168 -0.6794
 7611SOL    MW430212   3.291   5.887   0.051  0.2348  0.4916 -0.0011
 7612SOL     OW30213   1.438   5.302   2.344  0.0167  0.1311  0.4572
 7612SOL    HW230214   1.523   5.343   2.329 -0.5761  1.1388 -0.3296
 7612SOL    HW330215   1.378   5.350   2.287 -0.3114 -3.6273 -2.7799
 7612SOL    MW430216   1.441   5.314   2.335 -0.1048 -0.2318 -0.0737
 7613SOL     OW30217   5.019   2.362   4.411 -0.1416 -0.1485  0.3761
 7613SOL    HW230218   4.949   2.412   4.369  0.5980  0.7557  0.1790
 7613SOL    HW330219   5.084   2.428   4.435 -0.0475 -0.7847  1.9498
 7613SOL    MW430220   5.018   2.378   4.408 -0.0316 -0.1132  0.5577
 7614SOL     OW30221   4.370   0.684   4.122  0.6922 -0.8008 -0.5965
 7614SOL    HW230222   4.448   0.715   4.077 -0.2017  1.1319 -0.9490
 7614SOL    HW330223   4.369   0.734   4.204 -1.8368  1.8250 -2.0447
 7614SOL    MW430224   4.380   0.695   4.127  0.2406 -0.1994 -0.8341
 7615SOL     OW30225   6.411   5.514   0.436  0.9665  0.0183  0.0335
 7615SOL    HW230226   6.414   5.515   0.532  0.9623  1.4029  0.0456
 7615SOL    HW330227   6.414   5.422   0.412  0.4140 -0.3678  1.3888
 7615SOL    MW430228   6.412   5.502   0.445  0.8931  0.1501  0.2139
 7616SOL     OW30229   1.795   0.584   4.672 -0.3767  0.7118 -0.2260
 7616SOL    HW230230   1.776   0.605   4.764 -0.1061 -1.4066  0.3864
 7616SOL    HW330231   1.885   0.553   4.673 -0.6800 -0.2577 -1.0202
 7616SOL    MW430232   1.804   0.582   4.685 -0.3810  0.3044 -0.2500
 7617SOL     OW30233   2.038   3.736   0.693 -0.2734  0.6041 -0.2838
 7617SOL    HW230234   1.979   3.713   0.622 -0.3060 -0.6117  0.1119
 7617SOL    HW330235   2.120   3.761   0.650 -0.0873 -0.7406 -0.7460
 7617SOL    MW430236   2.041   3.737   0.678 -0.2531  0.2663 -0.2925
 7618SOL     OW30237   6.025   2.056   4.733 -0.4275  0.1735 -0.6339
 7618SOL    HW230238   5.949   2.092   4.779 -0.6672 -0.8209 -0.2128
 7618SOL    HW330239   6.100   2.103   4.770 -0.6101 -0.6156  0.8374
 7618SOL    MW430240   6.025   2.067   4.744 -0.4832 -0.0618 -0.3842
 7619SOL     OW30241   5.844   3.409   2.692 -0.2376  0.2236  0.3182
 7619SOL    HW230242   5.875   3.447   2.774 -0.3267  0.0083  0.4511
 7619SOL    HW330243   5.762   3.366   2.714  1.1971 -2.5122  0.8284
 7619SOL    MW430244   5.837   3.408   2.706 -0.0600 -0.1658  0.4030
 7620SOL     OW30245   1.437   0.493   2.589 -0.1895 -0.4155  0.2275
 7620SOL    HW230246   1.389   0.512   2.670 -2.7983 -1.0943 -1.0501
 7620SOL    HW330247   1.465   0.402   2.599  1.5525  0.1741  1.2489
 7620SOL    MW430248   1.434   0.484   2.601 -0.3038 -0.4272  0.1937
 7621SOL     OW30249   1.602   3.132   5.640 -0.0703  0.3988  0.3593
 7621SOL    HW230250   1.567   3.085   5.564  0.2532  2.5020 -1.2190
 7621SOL    HW330251   1.533   3.127   5.706 -1.4452  0.5567 -1.0009
 7621SOL    MW430252   1.588   3.125   5.639 -0.2090  0.6971 -0.0284
 7622SOL     OW30253   0.613   1.304   4.626  0.2148 -0.6894 -0.3338
 7622SOL    HW230254   0.622   1.272   4.716 -0.8510  0.6504  0.2830
 7622SOL    HW330255   0.692   1.356   4.611 -1.0223  1.8202  1.0747
 7622SOL    MW430256   0.625   1.307   4.636 -0.0890 -0.1815 -0.0666
 7623SOL     OW30257   0.568   1.680   0.675  0.2340  0.0904 -0.5222
 7623SOL    HW230258   0.535   1.595   0.644 -0.0018  0.0873 -0.2752
 7623SOL    HW330259   0.516   1.745   0.628 -0.7187  0.0800  0.4653
 7623SOL    MW430260   0.557   1.677   0.665  0.0772  0.0886 -0.3593
 7624SOL     OW30261   4.600   5.163   5.788  0.1821  0.5564 -0.5607
 7624SOL    HW230262   4.642   5.238   5.745  0.6360  2.4196  2.7794
 7624SOL    HW330263   4.513   5.194   5.811 -0.6063 -0.9224 -1.4049
 7624SOL    MW430264   4.594   5.177   5.785  0.1379  0.6071 -0.2314
 7625SOL     OW30265   1.444   4.911   1.584  0.6253 -0.0412 -0.4043
 7625SOL    HW230266   1.431   5.006   1.593  2.7306  0.3179 -0.3930
 7625SOL    HW330267   1.448   4.878   1.674 -1.7342 -0.4577 -0.4069
 7625SOL    MW430268   1.443   4.920   1.597  0.5918 -0.0488 -0.4032
 7626SOL     OW30269   5.156   0.726   1.605 -0.5485  0.4712  0.0054
 7626SOL    HW230270   5.231   0.669   1.591 -1.2693 -0.1891 -1.3838
 7626SOL    HW330271   5.095   0.673   1.657 -0.4139  0.6814  0.3765
 7626SOL    MW430272   5.158   0.711   1.610 -0.6259  0.4118 -0.1289
 7627SOL     OW30273   1.271   5.538   5.783 -0.0578 -0.1545  0.5406
 7627SOL    HW230274   1.289   5.556   5.876  0.4132 -0.8220  0.5850
 7627SOL    HW330275   1.325   5.462   5.763 -0.7399 -0.4827 -0.0825
 7627SOL    MW430276   1.280   5.531   5.793 -0.0856 -0.2859  0.4643
 7628SOL     OW30277   0.236   4.129   1.969 -0.1293 -0.8259 -0.2579
 7628SOL    HW230278   0.188   4.204   1.933 -0.8194 -0.6339  1.0097
 7628SOL    HW330279   0.212   4.056   1.911 -0.5428 -0.3636 -0.6867
 7628SOL    MW430280   0.226   4.130   1.956 -0.2749 -0.7396 -0.1473
 7629SOL     OW30281   0.091   5.520   3.839 -0.8495 -0.0173 -0.0054
 7629SOL    HW230282   0.185   5.525   3.818 -0.4192 -2.7079  1.0084
 7629SOL    HW330283   0.077   5.593   3.900  0.7241  0.0437  0.3344
 7629SOL    MW430284   0.102   5.531   3.844 -0.5851 -0.3643  0.1732
 7630SOL     OW30285   2.990   3.781   4.062  0.3741  0.1121  0.1143
 7630SOL    HW230286   3.054   3.847   4.087  1.1328 -0.2596 -0.7846
 7630SOL    HW330287   2.952   3.813   3.980 -0.4912  0.2555  0.5624
 7630SOL    MW430288   2.993   3.794   4.054  0.3601  0.0820  0.0548
 7631SOL     OW30289   0.058   2.705   6.296 -0.6077 -0.0929  0.3074
 7631SOL    HW230290   0.120   2.700   6.223 -0.5911  1.6174  0.1652
 7631SOL    HW330291   0.033   2.614   6.312 -0.6281 -0.5242 -1.8362
 7631SOL    MW430292   0.063   2.693   6.288 -0.6082  0.0759  0.0058
 7632SOL     OW30293   5.425   0.493   4.634 -0.0057 -0.0553  0.1113
 7632SOL    HW230294   5.464   0.435   4.699  1.6223  0.4127 -0.4016
 7632SOL    HW330295   5.480   0.484   4.556 -0.1664  1.5745 -0.2315
 7632SOL    MW430296   5.437   0.484   4.632  0.1879  0.2215 -0.0016
 7633SOL     OW30297   3.141   3.547   4.067  0.1595 -0.1342  0.7765
 7633SOL    HW230298   3.109   3.493   3.995 -0.8252  2.2353 -0.6737
 7633SOL    HW330299   3.083   3.623   4.068  1.0764  0.6371  3.1406
 7633SOL    MW430300   3.129   3.550   4.058  0.1505  0.2802  0.8971
 7634SOL     OW30301   1.398   5.811   2.210 -0.0720  0.0540  0.1289
 7634SOL    HW230302   1.418   5.774   2.124 -1.8407 -2.9652  0.8439
 7634SOL    HW330303   1.475   5.863   2.233  1.7010 -1.4366 -2.0567
 7634SOL    MW430304   1.411   5.813   2.202 -0.0714 -0.5411 -0.0651
 7635SOL     OW30305   4.758   3.709   2.928 -0.2846  0.4299  0.8728
 7635SOL    HW230306   4.758   3.774   2.998  0.1644  0.8898  0.4515
 7635SOL    HW330307   4.839   3.725   2.880 -0.9414  0.6148 -0.2064
 7635SOL    MW430308   4.769   3.720   2.931 -0.3120  0.5150  0.6748
 7636SOL     OW30309   4.668   6.084   5.603 -0.2731  0.0885 -0.0808
 7636SOL    HW230310   4.623   6.136   5.535  0.2566 -0.2198 -0.6791
 7636SOL    HW330311   4.631   5.996   5.594 -0.0066 -0.0177 -0.1627
 7636SOL    MW430312   4.657   6.079   5.593 -0.1680  0.0338 -0.1705
 7637SOL     OW30313   2.356   3.338   1.484  0.4577 -0.2721 -0.0959
 7637SOL    HW230314   2.366   3.407   1.550 -1.2684 -0.2970  0.2357
 7637SOL    HW330315   2.322   3.263   1.533  2.4931 -1.4891 -0.4095
 7637SOL    MW430316   2.353   3.337   1.499  0.4985 -0.4360 -0.0935
 7638SOL     OW30317   0.877   6.127   2.738 -0.8851  0.2268 -0.2173
 7638SOL    HW230318   0.823   6.132   2.816  0.0280  1.8597  0.3544
 7638SOL    HW330319   0.901   6.218   2.719  1.4151 -0.3971 -0.6078
 7638SOL    MW430320   0.873   6.140   2.746 -0.4612  0.3599 -0.1934
 7639SOL     OW30321   3.427   6.128   3.417 -0.4881 -0.0670  0.4680
 7639SOL    HW230322   3.453   6.039   3.395 -1.6263 -0.7463  1.7240
 7639SOL    HW330323   3.334   6.133   3.395 -0.1271  1.3128 -0.9732
 7639SOL    MW430324   3.418   6.117   3.412 -0.5906  0.0254  0.4436
 7640SOL     OW30325   6.421   3.130   0.366 -0.4008 -0.3966 -0.3893
 7640SOL    HW230326   6.510   3.097   0.384 -0.4924 -0.5952 -0.2966
 7640SOL    HW330327   6.382   3.064   0.309 -0.1004  0.2535 -1.3647
 7640SOL    MW430328   6.428   3.117   0.361 -0.3732 -0.3370 -0.5058
 7641SOL     OW30329   3.131   1.341   1.067  0.0199 -0.2580 -0.3160
 7641SOL    HW230330   3.185   1.348   0.988 -0.0502  1.3468 -0.2587
 7641SOL    HW330331   3.042   1.355   1.036  0.0402  0.9186  0.0819
 7641SOL    MW430332   3.126   1.344   1.052  0.0134  0.1090 -0.2560
 7642SOL     OW30333   6.397   0.924   2.457 -0.0232 -0.0821 -0.1783
 7642SOL    HW230334   6.477   0.915   2.405  2.0878  0.8556  2.6250
 7642SOL    HW330335   6.420   0.990   2.523 -2.1186 -1.8787  2.5435
 7642SOL    MW430336   6.411   0.932   2.459 -0.0211 -0.1955  0.5507
 7643SOL     OW30337   2.251   2.144   2.114 -0.1766  0.1858  0.3597
 7643SOL    HW230338   2.190   2.121   2.044 -1.2130 -2.1085  1.8868
 7643SOL    HW330339   2.337   2.120   2.080 -0.2232  1.9968 -1.2266
 7643SOL    MW430340   2.254   2.138   2.101 -0.3195  0.1220  0.3519
 7644SOL     OW30341   3.846   6.130   4.395  0.2900  0.0125 -0.2888
 7644SOL    HW230342   3.858   6.038   4.417 -1.4718 -0.1958 -0.0532
 7644SOL    HW330343   3.800   6.167   4.470  0.0257  0.8286 -0.8367
 7644SOL    MW430344   3.841   6.123   4.408  0.0226  0.0927 -0.3300
 7645SOL     OW30345   4.712   1.960   4.844 -0.2885 -0.5079  0.8892
 7645SOL    HW230346   4.730   2.001   4.759 -2.0692  0.5909  0.9773
 7645SOL    HW330347   4.770   2.005   4.905 -0.7710  0.4937  0.6380
 7645SOL    MW430348   4.722   1.971   4.841 -0.5871 -0.2308  0.8677
 7646SOL     OW30349   5.771   4.857   1.795  0.2928 -0.2583 -0.3489
 7646SOL    HW230350   5.789   4.764   1.783  0.1252 -0.3392 -0.0155
 7646SOL    HW330351   5.717   4.881   1.720  0.0975 -0.5024 -0.2897
 7646SOL    MW430352   5.766   4.848   1.784  0.2449 -0.3012 -0.2971
 7647SOL     OW30353   3.807   1.634   5.054 -0.1630 -0.3204 -0.5556
 7647SOL    HW230354   3.870   1.576   5.011  0.3278  1.5577 -2.5548
 7647SOL    HW330355   3.731   1.634   4.996 -0.8274 -0.2409  0.2957
 7647SOL    MW430356   3.805   1.626   5.040 -0.1859 -0.0621 -0.7071
 7648SOL     OW30357   2.215   6.051   4.038  0.9331  0.3865  0.3546
 7648SOL    HW230358   2.217   5.957   4.055 -0.2822 -0.1924 -2.3392
 7648SOL    HW330359   2.192   6.090   4.123  1.6447 -1.6817  1.5693
 7648SOL    MW430360   2.212   6.044   4.052  0.8666  0.0372  0.1595
 7649SOL     OW30361   3.914   4.131   3.800 -0.1220 -0.3833 -0.0550
 7649SOL    HW230362   3.892   4.091   3.885 -1.3995 -1.4807 -0.8550
 7649SOL    HW330363   4.009   4.120   3.793  0.2110  0.8155  1.7299
 7649SOL    MW430364   3.923   4.124   3.811 -0.2466 -0.3699  0.0750
 7650SOL     OW30365   2.970   6.010   4.406  1.0342  0.1585 -0.2838
 7650SOL    HW230366   2.933   5.945   4.466 -1.1280  0.1036 -1.5506
 7650SOL    HW330367   3.009   5.958   4.335 -1.7651  0.0693 -1.9282
 7650SOL    MW430368   2.970   5.995   4.404  0.3796  0.1395 -0.6679
 7651SOL     OW30369   4.190   4.700   6.099 -0.3223  0.3010 -0.0145
 7651SOL    HW230370   4.130   4.640   6.143 -0.0848  0.0311 -0.0579
 7651SOL    HW330371   4.232   4.748   6.170  1.3669 -1.3577  0.1883
 7651SOL    MW430372   4.188   4.699   6.114 -0.0681  0.0465  0.0065
 7652SOL     OW30373   4.550   6.207   2.097 -0.3030  0.4577 -0.0322
 7652SOL    HW230374   4.567   6.293   2.135  2.3446  0.0543 -0.1039
 7652SOL    HW330375   4.567   6.218   2.004  0.1660 -0.1491 -0.0229
 7652SOL    MW430376   4.554   6.220   2.090  0.1082  0.3244 -0.0404
 7653SOL     OW30377   1.195   0.535   5.478  0.5363 -0.9715  0.0881
 7653SOL    HW230378   1.117   0.485   5.504  1.8115 -2.2419  1.7388
 7653SOL    HW330379   1.177   0.624   5.509  0.1354 -1.4827  1.4311
 7653SOL    MW430380   1.182   0.540   5.486  0.6517 -1.2066  0.4830
 7654SOL     OW30381   5.976   2.264   1.196  0.1113  0.1610 -0.6049
 7654SOL    HW230382   6.050   2.323   1.206  0.8932 -0.8294 -0.4714
 7654SOL    HW330383   5.917   2.310   1.136  0.7005  1.0678 -0.5054
 7654SOL    MW430384   5.978   2.278   1.189  0.2922  0.1500 -0.5742
 7655SOL     OW30385   6.042   4.126   6.297 -0.1944  0.7838 -0.1807
 7655SOL    HW230386   6.008   4.083   6.218  2.5875  1.4089 -1.8383
 7655SOL    HW330387   6.097   4.059   6.339 -1.1477  0.6665  0.9342
 7655SOL    MW430388   6.045   4.111   6.292  0.0469  0.8508 -0.2523
 7656SOL     OW30389   0.497   5.221   4.782  0.1324  0.4930  0.3022
 7656SOL    HW230390   0.435   5.268   4.838  0.3843  0.6506  0.4491
 7656SOL    HW330391   0.576   5.213   4.835  0.0497 -0.2154  0.3290
 7656SOL    MW430392   0.499   5.226   4.796  0.1547  0.4203  0.3251
 7657SOL     OW30393   1.539   2.737   6.029  0.0669  0.1712 -0.0309
 7657SOL    HW230394   1.513   2.807   6.090 -0.3546 -1.2195  1.4692
 7657SOL    HW330395   1.523   2.774   5.942  1.7248  2.6339  0.6017
 7657SOL    MW430396   1.533   2.751   6.025  0.2300  0.3126  0.2505
 7658SOL     OW30397   1.266   5.846   6.116  0.1108  0.0713  0.2953
 7658SOL    HW230398   1.203   5.843   6.188 -0.9234  0.9524 -0.5304
 7658SOL    HW330399   1.282   5.754   6.095  0.0569 -0.1866  1.3205
 7658SOL    MW430400   1.260   5.834   6.123 -0.0328  0.1536  0.3216
 7659SOL     OW30401   2.929   3.611   3.709  0.0758  0.3634  0.1439
 7659SOL    HW230402   2.847   3.567   3.730  0.6196 -0.8566 -0.1539
 7659SOL    HW330403   2.996   3.544   3.724  0.7249  0.0968 -3.0613
 7659SOL    MW430404   2.927   3.596   3.713  0.2332  0.1673 -0.3183
 7660SOL     OW30405   4.798   3.520   6.401  0.0740 -0.3607  0.5300
 7660SOL    HW230406   4.704   3.507   6.407 -0.1855  1.3395  0.8706
 7660SOL    HW330407   4.826   3.463   6.329 -1.1933 -0.9513  0.4786
 7660SOL    MW430408   4.789   3.511   6.392 -0.1275 -0.2143  0.5682
 7661SOL     OW30409   3.351   2.450   2.272  0.3112  0.7266 -0.0366
 7661SOL    HW230410   3.375   2.443   2.180 -2.4005 -3.2829 -0.7030
 7661SOL    HW330411   3.283   2.518   2.274 -0.6574 -0.1610 -1.3335
 7661SOL    MW430412   3.345   2.458   2.260 -0.1744  0.0805 -0.2956
 7662SOL     OW30413   1.832   2.758   1.923  0.1520  0.7129 -0.2345
 7662SOL    HW230414   1.758   2.774   1.864  0.0550 -0.7469 -0.5591
 7662SOL    HW330415   1.864   2.672   1.896  1.8276  1.2235  0.0627
 7662SOL    MW430416   1.826   2.748   1.911  0.3603  0.5877 -0.2381
 7663SOL     OW30417   2.032   1.882   2.834 -0.2680 -0.1427  0.2498
 7663SOL    HW230418   2.005   1.957   2.781  1.9465 -1.0639 -2.4949
 7663SOL    HW330419   1.965   1.815   2.816 -0.2150 -0.0247 -0.4340
 7663SOL    MW430420   2.019   1.883   2.824  0.0312 -0.2486 -0.2025
 7664SOL     OW30421   1.522   3.812   3.447 -0.8232 -0.5513  0.5273
 7664SOL    HW230422   1.579   3.744   3.411 -1.5599  0.1530 -2.2224
 7664SOL    HW330423   1.437   3.769   3.458 -1.3625 -0.0933 -1.4753
 7664SOL    MW430424   1.518   3.798   3.444 -0.9916 -0.3980 -0.0997
 7665SOL     OW30425   0.849   1.337   3.292 -0.2694 -0.1349  0.3054
 7665SOL    HW230426   0.790   1.323   3.218 -2.4285  1.8060  1.5589
 7665SOL    HW330427   0.818   1.276   3.359 -0.3104  0.3090  0.6893
 7665SOL    MW430428   0.837   1.327   3.291 -0.5597  0.1798  0.5214
 7666SOL     OW30429   5.235   1.803   0.723 -0.2739 -0.0084  0.2482
 7666SOL    HW230430   5.246   1.748   0.646  2.6973 -0.7954  1.0823
 7666SOL    HW330431   5.207   1.888   0.688  0.8338 -0.3793 -1.7260
 7666SOL    MW430432   5.233   1.807   0.708  0.2642 -0.1612  0.0977
 7667SOL     OW30433   1.984   6.140   3.510 -0.9977 -0.1327  0.1098
 7667SOL    HW230434   1.898   6.182   3.501 -0.3064  1.2373 -0.4271
 7667SOL    HW330435   2.047   6.212   3.501  0.2621 -1.3332 -1.2308
 7667SOL    MW430436   1.981   6.155   3.508 -0.7402 -0.1103 -0.1379
 7668SOL     OW30437   0.912   1.208   5.613  0.2842 -0.1191 -0.1903
 7668SOL    HW230438   0.865   1.243   5.537 -1.0491  0.8955  1.0623
 7668SOL    HW330439   0.872   1.251   5.688  2.0852 -0.5153  1.0639
 7668SOL    MW430440   0.901   1.219   5.613  0.3459 -0.0375  0.1404
 7669SOL     OW30441   4.987   2.911   1.688 -0.3109 -0.3713  0.5304
 7669SOL    HW230442   4.924   2.891   1.619  1.1055  2.7237 -1.9157
 7669SOL    HW330443   4.937   2.963   1.752 -0.8801 -0.3369  0.0666
 7669SOL    MW430444   4.972   2.915   1.688 -0.1992  0.0415  0.1465
 7670SOL     OW30445   4.283   5.622   3.664 -0.1254  0.0922  0.2464
 7670SOL    HW230446   4.246   5.586   3.745 -0.7970  1.3462  0.5155
 7670SOL    HW330447   4.377   5.612   3.674  0.2066  3.9510  3.1371
 7670SOL    MW430448   4.290   5.616   3.676 -0.1702  0.7667  0.6633
 7671SOL     OW30449   5.506   2.934   5.837  0.6442  0.1336 -0.1589
 7671SOL    HW230450   5.441   2.866   5.820  1.1311 -0.5327  0.5816
 7671SOL    HW330451   5.514   2.938   5.932  1.3419  0.5269 -0.2224
 7671SOL    MW430452   5.499   2.925   5.847  0.8005  0.0976 -0.0696
 7672SOL     OW30453   2.357   1.135   1.769  0.0776  0.4097 -0.0859
 7672SOL    HW230454   2.407   1.217   1.765  0.9275  0.0736  2.0493
 7672SOL    HW330455   2.282   1.155   1.825  0.3541 -0.2784  0.5507
 7672SOL    MW430456   2.354   1.149   1.776  0.2262  0.2745  0.2798
 7673SOL     OW30457   3.576   4.014   6.181 -0.4771  0.1873 -0.3637
 7673SOL    HW230458   3.521   4.070   6.127  0.7519  0.8113 -1.0002
 7673SOL    HW330459   3.610   3.948   6.121 -1.0554 -0.6034  0.1637
 7673SOL    MW430460   3.573   4.013   6.166 -0.3912  0.1653 -0.3781
 7674SOL     OW30461   1.313   1.581   2.011  0.3825 -0.3328  0.0868
 7674SOL    HW230462   1.382   1.548   2.068 -0.1279 -3.5774 -1.0031
 7674SOL    HW330463   1.356   1.594   1.926  0.2949  0.6786  0.1855
 7674SOL    MW430464   1.328   1.579   2.007  0.3036 -0.6275 -0.0440
 7675SOL     OW30465   2.942   1.030   3.421 -0.2978  0.1145 -0.2051
 7675SOL    HW230466   2.907   1.116   3.443 -0.1387  0.7642 -2.2712
 7675SOL    HW330467   2.920   1.019   3.328 -2.3104 -3.0327  0.4874
 7675SOL    MW430468   2.934   1.040   3.411 -0.5424 -0.2150 -0.3863
 7676SOL     OW30469   0.483   5.383   5.764 -0.2926  0.8917  0.4609
 7676SOL    HW230470   0.495   5.360   5.856  1.0284  1.3206  0.4274
 7676SOL    HW330471   0.537   5.461   5.752 -1.7878  1.8541 -0.2938
 7676SOL    MW430472   0.492   5.390   5.775 -0.3156  1.0752  0.3569
 7677SOL     OW30473   2.833   3.654   2.156 -0.0001 -0.2779  0.0233
 7677SOL    HW230474   2.874   3.720   2.212 -0.4324 -0.6103  0.7460
 7677SOL    HW330475   2.786   3.597   2.217 -2.0298  0.4341 -0.8139
 7677SOL    MW430476   2.832   3.655   2.171 -0.3249 -0.2278  0.0082
 7678SOL     OW30477   3.252   3.421   4.588  0.1618 -0.1276  0.5144
 7678SOL    HW230478   3.342   3.453   4.584  0.0685  0.2813  1.4464
 7678SOL    HW330479   3.221   3.424   4.498  0.4454  1.5839  0.4435
 7678SOL    MW430480   3.260   3.426   4.576  0.1869  0.1522  0.6280
 7679SOL     OW30481   4.735   1.018   6.100 -0.0580  0.3109  0.2042
 7679SOL    HW230482   4.824   1.049   6.119 -0.2136  0.3838  0.8565
 7679SOL    HW330483   4.741   0.980   6.013  1.0866 -1.5214  1.0294
 7679SOL    MW430484   4.747   1.017   6.091  0.0725  0.0788  0.3992
 7680SOL     OW30485   6.157   0.600   5.302  0.1755  0.3773  0.1691
 7680SOL    HW230486   6.068   0.632   5.315 -0.4671  0.0964 -2.8170
 7680SOL    HW330487   6.210   0.651   5.364 -1.5544  3.2183 -0.4773
 7680SOL    MW430488   6.152   0.611   5.312 -0.1375  0.7151 -0.3102
 7681SOL     OW30489   1.754   2.268   1.231 -0.2321  0.0720 -0.0403
 7681SOL    HW230490   1.781   2.349   1.275 -1.3932 -0.4573  1.7617
 7681SOL    HW330491   1.678   2.294   1.179 -0.3848  0.2176  0.2512
 7681SOL    MW430492   1.747   2.282   1.230 -0.4054  0.0214  0.2359
 7682SOL     OW30493   1.547   1.825   4.853  0.1343 -0.7154 -0.0380
 7682SOL    HW230494   1.555   1.895   4.918 -1.1273 -1.0486  0.4987
 7682SOL    HW330495   1.543   1.745   4.906 -0.1853 -1.0497 -0.5657
 7682SOL    MW430496   1.548   1.824   4.869 -0.0743 -0.8035 -0.0368
 7683SOL     OW30497   5.927   2.968   1.007  0.1538 -0.2962  0.5161
 7683SOL    HW230498   5.923   3.039   1.071 -0.2629 -1.3604  1.7044
 7683SOL    HW330499   5.911   3.010   0.923 -1.7352  0.7804  1.3626
 7683SOL    MW430500   5.925   2.983   1.004 -0.1504 -0.2945  0.7846
 7684SOL     OW30501   2.361   5.256   5.212 -0.0469 -0.2913  0.0094
 7684SOL    HW230502   2.273   5.219   5.207 -0.0801 -0.1725 -0.3302
 7684SOL    HW330503   2.367   5.314   5.136  0.4411 -0.5558 -0.1645
 7684SOL    MW430504   2.351   5.259   5.201  0.0131 -0.3105 -0.0584
 7685SOL     OW30505   3.553   6.386   4.532  0.1442  0.3257  0.0404
 7685SOL    HW230506   3.494   6.311   4.538  0.9203 -0.2077  1.2112
 7685SOL    HW330507   3.638   6.353   4.562  0.7794  1.3784 -0.5302
 7685SOL    MW430508   3.556   6.372   4.537  0.3304  0.3942  0.1196
 7686SOL     OW30509   4.460   2.552   2.304  0.4262 -0.5770  0.6485
 7686SOL    HW230510   4.497   2.613   2.241 -1.4146 -0.1974 -0.1328
 7686SOL    HW330511   4.373   2.533   2.270 -0.1569 -1.3161  2.4550
 7686SOL    MW430512   4.454   2.557   2.291  0.1064 -0.6245  0.7837
 7687SOL     OW30513   1.056   2.870   6.343  0.2553  0.4000  0.1651
 7687SOL    HW230514   0.993   2.935   6.374  0.7138  1.4092 -0.9361
 7687SOL    HW330515   1.006   2.789   6.335 -1.1427  1.3682 -1.4878
 7687SOL    MW430516   1.041   2.868   6.346  0.1313  0.6609 -0.1983
 7688SOL     OW30517   1.813   1.079   3.875  0.0094 -0.3548  0.1118
 7688SOL    HW230518   1.789   1.137   3.804  2.2739  0.0329 -0.4222
 7688SOL    HW330519   1.889   1.121   3.916  1.3905 -2.5917  0.0530
 7688SOL    MW430520   1.820   1.092   3.871  0.4904 -0.5988  0.0336
 7689SOL     OW30521   4.183   0.688   5.905 -0.4951  0.5972 -0.3538
 7689SOL    HW230522   4.159   0.777   5.879 -0.3461  1.7909  3.1360
 7689SOL    HW330523   4.274   0.678   5.874 -0.6362  1.4828 -1.0989
 7689SOL    MW430524   4.192   0.698   5.898 -0.4940  0.8715  0.0083
 7690SOL     OW30525   1.761   1.122   3.179  0.4436  0.4750 -0.0378
 7690SOL    HW230526   1.736   1.068   3.254 -0.8750  0.9356 -0.1206
 7690SOL    HW330527   1.684   1.119   3.121  1.2628  0.5052 -1.1525
 7690SOL    MW430528   1.747   1.114   3.181  0.3777  0.5397 -0.1958
 7691SOL     OW30529   0.602   4.347   2.827 -0.2160 -0.0321 -0.8849
 7691SOL    HW230530   0.517   4.388   2.842  0.2353  0.2507  1.1736
 7691SOL    HW330531   0.582   4.267   2.778 -1.5569  0.4763 -1.2049
 7691SOL    MW430532   0.589   4.342   2.823 -0.3334  0.0723 -0.6555
 7692SOL     OW30533   2.480   4.477   6.199  0.1547  0.0926  0.4540
 7692SOL    HW230534   2.447   4.424   6.272 -2.1221 -2.0076 -1.8879
 7692SOL    HW330535   2.406   4.531   6.172  0.7281  0.3466 -0.6901
 7692SOL    MW430536   2.466   4.477   6.205 -0.0701 -0.1510 -0.0059
 7693SOL     OW30537   0.786   3.272   0.619  0.0225  0.0690 -0.0828
 7693SOL    HW230538   0.787   3.179   0.643  0.0521 -0.1655 -0.9621
 7693SOL    HW330539   0.877   3.300   0.629  0.6598 -0.7697 -2.6057
 7693SOL    MW430540   0.798   3.263   0.623  0.1105 -0.0726 -0.5317
 7694SOL     OW30541   0.267   5.236   3.490 -0.0133 -0.3559  0.1600
 7694SOL    HW230542   0.306   5.218   3.404 -0.6349 -0.9307 -0.0105
 7694SOL    HW330543   0.286   5.329   3.505 -0.6374 -0.0106 -1.0061
 7694SOL    MW430544   0.274   5.246   3.480 -0.1777 -0.3862 -0.0164
 7695SOL     OW30545   5.367   2.849   4.075  0.3896  0.1347 -0.6292
 7695SOL    HW230546   5.294   2.909   4.059 -0.3136 -0.5473 -0.0469
 7695SOL    HW330547   5.444   2.906   4.081 -0.4281  1.1406  1.1718
 7695SOL    MW430548   5.368   2.865   4.074  0.1890  0.1774 -0.3147
 7696SOL     OW30549   2.912   5.846   3.430  0.2253 -0.0058 -0.1068
 7696SOL    HW230550   2.924   5.868   3.522  1.5260  0.7391 -0.4271
 7696SOL    HW330551   2.983   5.785   3.410  0.7404  0.8392 -0.9270
 7696SOL    MW430552   2.923   5.840   3.439  0.4649  0.2040 -0.2572
 7697SOL     OW30553   1.225   0.440   1.299 -0.0531  0.3216  0.0710
 7697SOL    HW230554   1.273   0.449   1.382  3.1601 -0.8409 -1.5172
 7697SOL    HW330555   1.163   0.368   1.315  0.3929  0.2114  1.4795
 7697SOL    MW430556   1.223   0.432   1.312  0.4297  0.1537  0.0473
 7698SOL     OW30557   3.397   3.077   4.539  0.0790 -0.8605 -0.3217
 7698SOL    HW230558   3.338   3.050   4.468  0.4303 -0.0426 -0.9327
 7698SOL    HW330559   3.338   3.114   4.605 -0.1549 -0.6648 -0.6370
 7698SOL    MW430560   3.381   3.078   4.538  0.0945 -0.7268 -0.4439
 7699SOL     OW30561   3.172   4.848   3.328 -0.2526 -0.0608 -0.1470
 7699SOL    HW230562   3.135   4.776   3.277 -1.3451 -0.0511  0.6161
 7699SOL    HW330563   3.168   4.923   3.269 -1.2946 -0.0961 -0.1244
 7699SOL    MW430564   3.167   4.848   3.313 -0.5342 -0.0642 -0.0433
 7700SOL     OW30565   4.649   4.336   2.673 -0.1918 -0.0102  0.7419
 7700SOL    HW230566   4.563   4.309   2.706 -0.6468  0.0656 -0.3361
 7700SOL    HW330567   4.631   4.372   2.587  0.9226  0.0641  0.5283
 7700SOL    MW430568   4.635   4.337   2.666 -0.1048  0.0096  0.5715
 7701SOL     OW30569   1.251   1.817   4.492  0.0815 -0.2540  0.3924
 7701SOL    HW230570   1.239   1.813   4.587  0.5411 -1.8698  0.4213
 7701SOL    HW330571   1.346   1.815   4.480  0.0271  0.0961 -0.0957
 7701SOL    MW430572   1.262   1.816   4.503  0.1350 -0.4210  0.3318
 7702SOL     OW30573   3.505   5.483   2.633 -0.6702 -0.1221  0.2673
 7702SOL    HW230574   3.468   5.482   2.545 -1.9759 -1.4137  0.7883
 7702SOL    HW330575   3.542   5.396   2.645 -0.4973  0.0428  0.9848
 7702SOL    MW430576   3.505   5.471   2.623 -0.8196 -0.2707  0.4307
 7703SOL     OW30577   5.934   1.187   5.482  0.4394  0.0524  0.8720
 7703SOL    HW230578   5.850   1.218   5.517  1.7394  4.3087  0.7474
 7703SOL    HW330579   5.956   1.250   5.413  4.0309 -0.4637  1.3687
 7703SOL    MW430580   5.926   1.199   5.478  1.0848  0.5459  0.9211
 7704SOL     OW30581   2.176   3.971   1.058  0.1943  0.1437 -0.5471
 7704SOL    HW230582   2.097   3.961   1.005 -1.0076  0.4221  1.1414
 7704SOL    HW330583   2.189   4.066   1.065  0.4407  0.1059 -0.4718
 7704SOL    MW430584   2.168   3.982   1.052  0.0682  0.1754 -0.3144
 7705SOL     OW30585   1.596   0.699   0.514  0.0486 -0.1591 -0.2478
 7705SOL    HW230586   1.599   0.793   0.500  0.2828 -0.2910 -1.1552
 7705SOL    HW330587   1.513   0.671   0.474 -1.1387 -0.0545  1.9897
 7705SOL    MW430588   1.585   0.708   0.507 -0.0771 -0.1627 -0.0723
 7706SOL     OW30589   4.130   6.381   5.991  0.9443 -0.6404  0.2785
 7706SOL    HW230590   4.187   6.344   5.924 -1.0420 -0.4767 -1.6265
 7706SOL    HW330591   4.119   6.473   5.965 -0.9646 -0.9146 -0.0478
 7706SOL    MW430592   4.136   6.388   5.979  0.4304 -0.6550 -0.0159
 7707SOL     OW30593   3.406   5.797   1.852  0.4448  0.4683  0.3757
 7707SOL    HW230594   3.384   5.748   1.931 -0.8691  2.7041  1.4971
 7707SOL    HW330595   3.498   5.820   1.862  1.1799 -1.8835 -0.3175
 7707SOL    MW430596   3.415   5.794   1.863  0.3684  0.4530  0.4322
 7708SOL     OW30597   0.620   2.673   6.380  0.0380 -0.0242 -0.1019
 7708SOL    HW230598   0.623   2.768   6.394 -2.0644 -0.0306  0.6819
 7708SOL    HW330599   0.621   2.664   6.284 -4.9492  1.2059 -0.5474
 7708SOL    MW430600   0.621   2.685   6.369 -0.8974  0.1373 -0.0573
 7709SOL     OW30601   1.652   3.591   4.946 -0.4854 -0.2357 -0.5637
 7709SOL    HW230602   1.592   3.626   5.013  0.5404  0.3757  0.0526
 7709SOL    HW330603   1.607   3.513   4.913 -0.2645 -1.6111  2.1032
 7709SOL    MW430604   1.638   3.585   4.951 -0.3209 -0.3365 -0.1305
 7710SOL     OW30605   0.842   6.345   0.380 -0.3088  0.3609 -0.0806
 7710SOL    HW230606   0.890   6.340   0.297 -0.4107 -0.9811 -0.0674
 7710SOL    HW330607   0.887   6.284   0.438  0.1156  1.6956  1.0690
 7710SOL    MW430608   0.855   6.337   0.377 -0.2663  0.3599  0.0728
 7711SOL     OW30609   0.189   0.287   1.788 -0.0613 -0.0355  0.3429
 7711SOL    HW230610   0.122   0.243   1.736 -0.7873  0.6362  0.6962
 7711SOL    HW330611   0.271   0.269   1.742 -0.7041  0.7747 -1.1763
 7711SOL    MW430612   0.191   0.279   1.775 -0.2419  0.1600  0.1891
 7712SOL     OW30613   2.934   4.119   0.913  0.3824 -0.1549  0.3325
 7712SOL    HW230614   2.934   4.044   0.973 -2.5539 -1.1454 -0.7342
 7712SOL    HW330615   2.842   4.143   0.905  0.8706  1.1460 -2.3285
 7712SOL    MW430616   2.922   4.112   0.920  0.0594 -0.1140 -0.1593
 7713SOL     OW30617   4.129   0.642   1.497  0.2405  0.2025  0.3983
 7713SOL    HW230618   4.073   0.573   1.462 -0.4403  0.5421  0.8115
 7713SOL    HW330619   4.207   0.595   1.529  0.5752 -0.1838 -0.9163
 7713SOL    MW430620   4.132   0.626   1.497  0.1949  0.1963  0.2794
 7714SOL     OW30621   1.017   1.594   4.289  0.5622 -0.2529 -0.0040
 7714SOL    HW230622   1.044   1.635   4.207 -0.6442  0.1160 -0.2237
 7714SOL    HW330623   1.099   1.562   4.327  1.1551 -0.3371 -1.2903
 7714SOL    MW430624   1.032   1.595   4.283  0.4813 -0.2154 -0.2027
 7715SOL     OW30625   0.947   2.018   1.002  0.2329 -0.3523 -0.2712
 7715SOL    HW230626   0.860   2.010   0.962 -0.5976 -0.5043  1.4720
 7715SOL    HW330627   0.965   1.931   1.038 -0.3343  0.4390  2.1020
 7715SOL    MW430628   0.938   2.006   1.001  0.0485 -0.2679  0.2719
 7716SOL     OW30629   6.242   0.318   3.313  0.2178  0.3432 -0.5789
 7716SOL    HW230630   6.294   0.387   3.271 -1.0985  1.7017 -0.0738
 7716SOL    HW330631   6.207   0.360   3.392 -1.2701 -0.6508 -0.6705
 7716SOL    MW430632   6.244   0.333   3.318 -0.1522  0.3913 -0.5243
 7717SOL     OW30633   0.680   2.361   5.999  1.2106  0.6036 -0.4001
 7717SOL    HW230634   0.747   2.428   6.008  2.1976 -0.5538  1.5342
 7717SOL    HW330635   0.722   2.280   6.029 -0.6322 -0.4278 -0.3957
 7717SOL    MW430636   0.694   2.359   6.004  1.0977  0.3148 -0.1443
 7718SOL     OW30637   1.211   4.068   5.267 -0.2938  0.0481 -0.2946
 7718SOL    HW230638   1.297   4.040   5.298  0.9224  2.8812 -0.7746
 7718SOL    HW330639   1.202   4.157   5.300 -2.4433  0.3294 -1.4581
 7718SOL    MW430640   1.221   4.076   5.276 -0.4170  0.4590 -0.5114
 7719SOL     OW30641   3.753   0.074   4.122  0.2280  0.6562  0.7823
 7719SOL    HW230642   3.716   0.102   4.038  1.6684 -1.5184 -0.6846
 7719SOL    HW330643   3.685   0.095   4.186 -1.4503  1.2730 -1.0774
 7719SOL    MW430644   3.739   0.080   4.119  0.1966  0.4507  0.3434
 7720SOL     OW30645   3.003   4.104   0.624  0.3344 -0.0884 -0.5180
 7720SOL    HW230646   2.988   4.012   0.604 -2.8747  0.1111  0.3295
 7720SOL    HW330647   2.984   4.111   0.718  1.3464  1.3311 -0.3843
 7720SOL    MW430648   2.998   4.093   0.634  0.0445  0.1252 -0.3885
 7721SOL     OW30649   1.037   3.806   0.922 -0.6431 -0.1359  0.0825
 7721SOL    HW230650   1.103   3.868   0.954 -1.2358  0.6984 -0.2867
 7721SOL    HW330651   1.086   3.726   0.905 -0.0504 -0.1183  1.6064
 7721SOL    MW430652   1.052   3.804   0.924 -0.6431 -0.0235  0.2348
 7722SOL     OW30653   5.632   5.102   5.509 -0.2775  0.6076  0.0280
 7722SOL    HW230654   5.675   5.027   5.467 -0.7575 -0.3778  1.2381
 7722SOL    HW330655   5.703   5.161   5.533  0.4573 -0.8884  1.7888
 7722SOL    MW430656   5.647   5.100   5.507 -0.2439  0.2802  0.4200
 7723SOL     OW30657   3.500   3.581   4.609  0.4930 -0.0408 -0.2037
 7723SOL    HW230658   3.460   3.628   4.681 -2.0734 -0.7474 -1.0335
 7723SOL    HW330659   3.517   3.648   4.542 -1.0264  0.0571 -0.5151
 7723SOL    MW430660   3.497   3.596   4.609 -0.0461 -0.1211 -0.3542
 7724SOL     OW30661   1.205   4.197   2.614  0.3391  0.5483  0.0034
 7724SOL    HW230662   1.228   4.229   2.701 -0.5358  1.8775 -0.2331
 7724SOL    HW330663   1.159   4.270   2.572 -0.5884 -0.5834 -1.0332
 7724SOL    MW430664   1.202   4.211   2.620  0.1013  0.5743 -0.1646
 7725SOL     OW30665   4.731   1.493   0.194 -0.2132 -0.3757  0.1882
 7725SOL    HW230666   4.737   1.487   0.098  0.7687  2.3223 -0.0251
 7725SOL    HW330667   4.638   1.511   0.211 -0.2298  0.0801 -0.3540
 7725SOL    MW430668   4.719   1.495   0.183 -0.0859  0.0404  0.0885
 7726SOL     OW30669   3.941   1.421   4.143  0.1084 -0.4573  0.4738
 7726SOL    HW230670   3.955   1.358   4.073 -1.4253  1.0888 -1.3386
 7726SOL    HW330671   3.930   1.367   4.222  2.4272 -2.2217 -0.2919
 7726SOL    MW430672   3.941   1.405   4.145  0.2120 -0.4861  0.1336
 7727SOL     OW30673   2.974   4.334   4.354 -0.2127 -0.2837 -0.4931
 7727SOL    HW230674   2.937   4.331   4.266 -1.1021  2.1299 -0.2630
 7727SOL    HW330675   2.942   4.253   4.395 -1.7845 -0.3051 -1.6459
 7727SOL    MW430676   2.965   4.323   4.348 -0.5374  0.0319 -0.6148
 7728SOL     OW30677   1.653   1.559   1.678  0.1772  0.6302  0.2386
 7728SOL    HW230678   1.692   1.594   1.758  2.3708  0.6862 -0.7960
 7728SOL    HW330679   1.722   1.505   1.639 -1.2840 -0.4508 -0.9812
 7728SOL    MW430680   1.667   1.556   1.683  0.2738  0.4950 -0.0588
 7729SOL     OW30681   0.381   1.589   2.219 -0.4779 -0.0590  0.6590
 7729SOL    HW230682   0.453   1.531   2.243  0.5077  0.9214  0.1392
 7729SOL    HW330683   0.421   1.656   2.164 -2.4675 -1.9802 -3.6096
 7729SOL    MW430684   0.396   1.590   2.215 -0.6103 -0.1831  0.0273
 7730SOL     OW30685   4.747   0.347   3.330 -0.2747  0.3440  0.0684
 7730SOL    HW230686   4.668   0.388   3.295 -0.2639  0.6297  0.3679
 7730SOL    HW330687   4.737   0.353   3.425 -0.1328 -0.0845  0.1147
 7730SOL    MW430688   4.735   0.353   3.338 -0.2546  0.3252  0.1140
 7731SOL     OW30689   6.119   3.413   4.078 -0.2572  0.1353  0.2547
 7731SOL    HW230690   6.091   3.409   4.169 -1.3192  1.2222  0.0025
 7731SOL    HW330691   6.083   3.334   4.038 -0.2502 -0.0711  0.6506
 7731SOL    MW430692   6.111   3.402   4.084 -0.3964  0.2515  0.2737
 7732SOL     OW30693   4.827   2.507   4.953  0.1663 -0.3087 -0.0101
 7732SOL    HW230694   4.877   2.427   4.972  1.0929  0.2875  0.1369
 7732SOL    HW330695   4.824   2.554   5.037  1.0439  0.5691 -0.4500
 7732SOL    MW430696   4.834   2.503   4.967  0.4044 -0.1142 -0.0487
 7733SOL     OW30697   4.755   0.496   5.164 -0.5113  0.6267  0.7055
 7733SOL    HW230698   4.680   0.482   5.222 -1.8827 -1.2952 -1.3656
 7733SOL    HW330699   4.716   0.524   5.081  0.9872 -0.9587 -0.5974
 7733SOL    MW430700   4.740   0.498   5.161 -0.4945  0.1640  0.2604
 7734SOL     OW30701   4.892   0.134   0.529  0.6841  0.5011  0.0275
 7734SOL    HW230702   4.933   0.210   0.570  1.1297  0.9302 -1.1689
 7734SOL    HW330703   4.809   0.167   0.494  1.0897  0.5569 -0.8980
 7734SOL    MW430704   4.886   0.148   0.530  0.7964  0.5651 -0.2524
 7735SOL     OW30705   6.006   0.163   3.594  0.0077 -0.5333  0.1913
 7735SOL    HW230706   5.914   0.170   3.619  0.0219 -0.7473  0.3060
 7735SOL    HW330707   6.053   0.159   3.677 -0.0182 -2.2501  0.1712
 7735SOL    MW430708   6.000   0.163   3.608  0.0062 -0.7881  0.2038
 7736SOL     OW30709   4.592   3.891   0.487 -0.0878  0.4816  0.7883
 7736SOL    HW230710   4.674   3.922   0.525  0.0553  2.7974 -1.2109
 7736SOL    HW330711   4.532   3.964   0.497 -0.4627  0.6601 -2.0020
 7736SOL    MW430712   4.595   3.905   0.494 -0.1184  0.8107  0.1564
 7737SOL     OW30713   2.842   1.675   4.366 -0.2195 -0.1786  0.2951
 7737SOL    HW230714   2.936   1.659   4.377 -0.1873 -0.4977 -0.4179
 7737SOL    HW330715   2.834   1.710   4.278 -0.5053  2.1039  1.1548
 7737SOL    MW430716   2.854   1.677   4.356 -0.2530  0.0804  0.3144
 7738SOL     OW30717   6.172   4.930   0.875  0.7707  0.1893  0.0928
 7738SOL    HW230718   6.253   4.914   0.827  1.7114  0.4941  1.5159
 7738SOL    HW330719   6.181   4.879   0.955 -0.5007  0.1587  0.2342
 7738SOL    MW430720   6.184   4.921   0.879  0.7271  0.2255  0.2993
 7739SOL     OW30721   2.885   4.706   5.679 -0.1203  0.0407  0.2919
 7739SOL    HW230722   2.807   4.727   5.628 -0.5213 -0.0314  0.8687
 7739SOL    HW330723   2.870   4.616   5.709 -0.2754  0.3752  1.2353
 7739SOL    MW430724   2.873   4.697   5.676 -0.1937  0.0754  0.4925
 7740SOL     OW30725   0.895   3.075   6.393 -0.1802  0.0174 -0.1105
 7740SOL    HW230726   0.881   3.095   6.300 -0.0393 -0.6342 -0.2777
 7740SOL    HW330727   0.810   3.048   6.425  0.1500 -1.7178 -0.5634
 7740SOL    MW430728   0.882   3.074   6.385 -0.1180 -0.2975 -0.1923
 7741SOL     OW30729   2.198   3.971   0.338  0.2554 -0.2307 -0.1829
 7741SOL    HW230730   2.195   4.062   0.368 -0.1682 -0.4293  0.3990
 7741SOL    HW330731   2.155   3.973   0.252  0.4665  0.1581 -0.2845
 7741SOL    MW430732   2.192   3.983   0.330  0.2273 -0.2056 -0.1195
 7742SOL     OW30733   2.981   4.993   2.014  0.1058 -0.1765  0.0662
 7742SOL    HW230734   2.946   4.965   1.930 -0.4663  1.3368 -0.2321
 7742SOL    HW330735   2.925   4.951   2.080 -0.9216  0.4954 -0.3652
 7742SOL    MW430736   2.969   4.984   2.012 -0.1052  0.1118 -0.0301
 7743SOL     OW30737   2.408   6.176   5.925 -0.1634  0.2219  0.8363
 7743SOL    HW230738   2.330   6.152   5.874 -0.8813  1.9261  1.0647
 7743SOL    HW330739   2.463   6.224   5.863  0.5895 -0.7320  0.7536
 7743SOL    MW430740   2.405   6.179   5.910 -0.1587  0.3209  0.8555
 7744SOL     OW30741   1.148   1.583   0.410  0.0908 -0.4854 -0.5189
 7744SOL    HW230742   1.155   1.678   0.398 -0.5547 -0.2112  1.0709
 7744SOL    HW330743   1.216   1.547   0.353  0.4140  0.9345 -1.0699
 7744SOL    MW430744   1.158   1.591   0.401  0.0483 -0.2619 -0.3818
 7745SOL     OW30745   1.985   4.053   5.641 -0.6021 -0.1406 -0.4489
 7745SOL    HW230746   1.936   4.067   5.722  1.2850 -1.4910  1.0135
 7745SOL    HW330747   1.967   3.961   5.618 -1.0423  0.2029 -1.5397
 7745SOL    MW430748   1.976   4.042   5.649 -0.4112 -0.2735 -0.3999
 7746SOL     OW30749   1.500   3.968   4.693  0.0017 -0.6777  0.1510
 7746SOL    HW230750   1.481   4.034   4.626 -1.9947 -2.4870 -1.2163
 7746SOL    HW330751   1.573   4.005   4.744  0.0575  1.7962 -1.5534
 7746SOL    MW430752   1.507   3.981   4.691 -0.2544 -0.5900 -0.2543
 7747SOL     OW30753   2.652   4.569   2.107  0.0443 -0.5023 -0.6769
 7747SOL    HW230754   2.722   4.542   2.167 -0.4366  0.9904  0.6355
 7747SOL    HW330755   2.594   4.493   2.101  1.8336 -1.8598 -1.9834
 7747SOL    MW430756   2.653   4.555   2.114  0.2169 -0.4845 -0.6761
 7748SOL     OW30757   1.747   2.873   0.272 -0.4537  0.1653 -0.0708
 7748SOL    HW230758   1.805   2.913   0.336 -0.2087  0.7182 -0.6224
 7748SOL    HW330759   1.668   2.927   0.275 -1.0877 -0.7892  0.9212
 7748SOL    MW430760   1.744   2.886   0.281 -0.5050  0.1123 -0.0127
 7749SOL     OW30761   4.505   3.754   0.123  0.0859 -0.3148  0.0191
 7749SOL    HW230762   4.578   3.735   0.181  0.1050 -0.0829  0.0709
 7749SOL    HW330763   4.428   3.758   0.180  0.0813 -0.2413  0.0082
 7749SOL    MW430764   4.505   3.752   0.138  0.0878 -0.2745  0.0245
 7750SOL     OW30765   5.442   5.656   4.915  0.1253  0.2522  0.8569
 7750SOL    HW230766   5.534   5.674   4.934  0.5811 -1.3246  0.3232
 7750SOL    HW330767   5.424   5.574   4.961 -0.0433 -1.2062 -1.6412
 7750SOL    MW430768   5.452   5.647   4.923  0.1632 -0.1482  0.4569
 7751SOL     OW30769   2.929   2.107   0.297  0.1580 -0.2944 -0.2360
 7751SOL    HW230770   2.997   2.175   0.297 -0.9577  0.9013  1.7056
 7751SOL    HW330771   2.930   2.071   0.385 -0.8650 -1.1829 -0.5613
 7751SOL    MW430772   2.938   2.111   0.308 -0.1242 -0.2539 -0.0228
 7752SOL     OW30773   2.193   4.675   3.947 -0.4139  0.2961 -0.3786
 7752SOL    HW230774   2.130   4.747   3.953 -0.0190  0.6467 -0.4088
 7752SOL    HW330775   2.260   4.697   4.012  0.0342  0.2773 -0.8358
 7752SOL    MW430776   2.193   4.688   3.957 -0.3026  0.3398 -0.4429
 7753SOL     OW30777   2.112   2.164   1.502 -0.1057  0.2587 -0.3658
 7753SOL    HW230778   2.127   2.242   1.555 -1.0001 -0.1182  0.4722
 7753SOL    HW330779   2.193   2.113   1.512  1.0426  1.6366 -2.0039
 7753SOL    MW430780   2.125   2.167   1.511 -0.0722  0.3908 -0.4714
 7754SOL     OW30781   2.951   3.856   1.059 -0.2683 -0.3977  0.4543
 7754SOL    HW230782   2.877   3.808   1.021 -0.0884 -0.3223  0.0022
 7754SOL    HW330783   3.027   3.823   1.011 -0.1363  0.3150  0.1639
 7754SOL    MW430784   2.951   3.845   1.047 -0.2272 -0.2937  0.3563
 7755SOL     OW30785   3.867   0.294   3.214  0.0532  0.6686 -0.3382
 7755SOL    HW230786   3.943   0.343   3.185  0.4856 -0.2364 -0.7837
 7755SOL    HW330787   3.858   0.223   3.150  0.3021 -0.6658  1.0390
 7755SOL    MW430788   3.876   0.291   3.202  0.1431  0.3731 -0.2153
 7756SOL     OW30789   2.716   1.630   5.803 -0.1659  0.2321  0.2050
 7756SOL    HW230790   2.792   1.603   5.855 -0.1300 -0.3803 -0.1550
 7756SOL    HW330791   2.728   1.724   5.791 -0.2436  0.4076  1.4108
 7756SOL    MW430792   2.728   1.639   5.808 -0.1714  0.1744  0.3166
 7757SOL     OW30793   6.201   2.498   0.893  0.3172 -0.5367  0.1233
 7757SOL    HW230794   6.257   2.491   0.815 -0.1810  0.0640 -0.2891
 7757SOL    HW330795   6.136   2.429   0.881  0.6520 -0.9023  0.3571
 7757SOL    MW430796   6.200   2.488   0.881  0.2956 -0.5057  0.0997
 7758SOL     OW30797   1.507   1.451   5.430 -0.0599  0.4901 -0.3162
 7758SOL    HW230798   1.505   1.409   5.516  0.1036  0.1880 -0.4580
 7758SOL    HW330799   1.571   1.401   5.380 -0.8189  0.0855 -0.9108
 7758SOL    MW430800   1.515   1.439   5.435 -0.1385  0.3969 -0.4134
 7759SOL     OW30801   2.710   6.155   0.769  0.4857 -0.6431 -0.5156
 7759SOL    HW230802   2.738   6.095   0.700 -0.4763 -0.8952 -0.7092
 7759SOL    HW330803   2.706   6.241   0.727 -0.1219 -0.7998 -0.8036
 7759SOL    MW430804   2.713   6.158   0.755  0.2786 -0.6970 -0.5792
 7760SOL     OW30805   3.147   2.003   2.699  0.6141  0.5908  0.0837
 7760SOL    HW230806   3.143   2.069   2.769  1.2709 -2.4987  3.3080
 7760SOL    HW330807   3.058   2.002   2.663 -0.5414  0.6203  2.6702
 7760SOL    MW430808   3.134   2.012   2.704  0.5483  0.1871  0.8504
 7761SOL     OW30809   2.534   5.760   5.731 -0.4519  0.6934 -0.5058
 7761SOL    HW230810   2.598   5.772   5.661 -1.5225  1.4916 -1.3954
 7761SOL    HW330811   2.586   5.735   5.807  0.6087 -2.3890 -2.0572
 7761SOL    MW430812   2.549   5.759   5.732 -0.4532  0.3921 -0.8279
 7762SOL     OW30813   1.314   5.534   1.055  0.2870 -0.0942  0.3208
 7762SOL    HW230814   1.354   5.546   1.141 -0.3341 -1.5398  0.8503
 7762SOL    HW330815   1.302   5.439   1.047 -3.1139  0.2098  0.2640
 7762SOL    MW430816   1.318   5.523   1.065 -0.2437 -0.2449  0.3832
 7763SOL     OW30817   5.643   2.078   6.144 -0.2276 -0.3714 -0.2248
 7763SOL    HW230818   5.566   2.110   6.190 -1.0859  0.0649 -1.8899
 7763SOL    HW330819   5.688   2.158   6.114  1.1503 -0.6017  1.1027
 7763SOL    MW430820   5.639   2.093   6.146 -0.1591 -0.3442 -0.2693
 7764SOL     OW30821   4.641   5.888   0.576 -0.1188  0.3242  0.0887
 7764SOL    HW230822   4.630   5.794   0.561  1.0420  0.3762 -1.3384
 7764SOL    HW330823   4.579   5.929   0.515  1.1597  0.4820 -1.1590
 7764SOL    MW430824   4.631   5.881   0.566  0.2030  0.3519 -0.2642
 7765SOL     OW30825   5.894   2.735   2.305  0.0109  0.4195 -0.2228
 7765SOL    HW230826   5.971   2.756   2.359 -0.6648 -0.0378  0.9389
 7765SOL    HW330827   5.911   2.780   2.222  1.0704  1.1476  0.3591
 7765SOL    MW430828   5.907   2.743   2.301  0.0615  0.4552  0.0073
 7766SOL     OW30829   5.025   3.325   4.202 -0.5224 -0.1317  0.3737
 7766SOL    HW230830   4.948   3.328   4.145 -1.1734  0.5979  1.2716
 7766SOL    HW330831   5.026   3.410   4.246  1.1170  0.0798 -0.0283
 7766SOL    MW430832   5.015   3.337   4.200 -0.3920 -0.0075  0.4391
 7767SOL     OW30833   5.964   4.812   2.014 -0.2798  0.1351 -0.4438
 7767SOL    HW230834   5.974   4.885   1.953 -0.6773 -0.0302 -0.7118
 7767SOL    HW330835   5.885   4.767   1.984  1.1182 -1.6797 -1.6055
 7767SOL    MW430836   5.955   4.816   2.002 -0.1478 -0.1261 -0.6324
 7768SOL     OW30837   6.016   5.508   2.223  0.1521  0.1503 -0.2303
 7768SOL    HW230838   6.038   5.597   2.195 -0.8091 -0.0313 -1.6352
 7768SOL    HW330839   6.071   5.452   2.168  1.0494 -0.1570  0.9214
 7768SOL    MW430840   6.026   5.513   2.212  0.1437  0.0858 -0.2637
 7769SOL     OW30841   5.332   1.352   0.411  0.0308  0.3214  0.4520
 7769SOL    HW230842   5.324   1.267   0.369  0.1474  0.5936 -0.1328
 7769SOL    HW330843   5.418   1.384   0.384  0.5770  0.0261  1.7968
 7769SOL    MW430844   5.342   1.345   0.402  0.1182  0.3183  0.5523
 7770SOL     OW30845   2.351   5.707   1.833 -0.1153 -0.5094 -1.1317
 7770SOL    HW230846   2.298   5.632   1.860 -0.6246  0.5061  0.9089
 7770SOL    HW330847   2.416   5.670   1.773  0.3324 -2.8075  0.6028
 7770SOL    MW430848   2.353   5.692   1.829 -0.1234 -0.6786 -0.6336
 7771SOL     OW30849   0.446   2.661   1.592 -0.4967  0.6616  0.5924
 7771SOL    HW230850   0.474   2.584   1.543  3.6155  2.2129  0.0969
 7771SOL    HW330851   0.356   2.641   1.619 -0.0036 -3.8146 -0.2913
 7771SOL    MW430852   0.438   2.649   1.589  0.1109  0.2757  0.4104
 7772SOL     OW30853   4.964   0.605   5.360 -0.0538  0.2581  0.6929
 7772SOL    HW230854   4.877   0.644   5.369 -0.5851 -0.3296 -1.3467
 7772SOL    HW330855   4.948   0.522   5.316  1.7135  1.2125 -1.9475
 7772SOL    MW430856   4.950   0.599   5.356  0.1093  0.3065  0.0754
 7773SOL     OW30857   3.411   5.674   5.460 -0.6194 -0.5634  0.3042
 7773SOL    HW230858   3.435   5.582   5.449 -2.6382 -1.1282  0.1412
 7773SOL    HW330859   3.357   5.675   5.540 -0.4275  0.5171  0.4302
 7773SOL    MW430860   3.407   5.662   5.469 -0.8604 -0.4953  0.2993
 7774SOL     OW30861   3.912   2.369   1.265  0.5241 -0.0711  0.3072
 7774SOL    HW230862   3.907   2.453   1.218 -0.9477 -0.6516 -0.6271
 7774SOL    HW330863   3.886   2.304   1.200  0.9383 -1.1817  1.2358
 7774SOL    MW430864   3.908   2.372   1.250  0.3846 -0.2943  0.3064
 7775SOL     OW30865   6.257   2.952   0.927  0.0373  0.1573  0.1588
 7775SOL    HW230866   6.283   2.991   1.011 -1.5464  0.9630  0.3136
 7775SOL    HW330867   6.183   2.896   0.949  0.0304 -0.1466 -0.6225
 7775SOL    MW430868   6.251   2.950   0.941 -0.1725  0.2235  0.0762
 7776SOL     OW30869   1.494   5.513   0.417  0.0440  0.4416  0.0142
 7776SOL    HW230870   1.433   5.562   0.362  0.2226  0.0989 -0.4950
 7776SOL    HW330871   1.461   5.525   0.506 -1.4242 -0.6450 -0.3491
 7776SOL    MW430872   1.481   5.521   0.421 -0.1262  0.2530 -0.1009
 7777SOL     OW30873   5.238   2.999   0.141 -0.1748  0.0027 -0.2358
 7777SOL    HW230874   5.279   2.919   0.109  0.2426 -0.3211  1.0506
 7777SOL    HW330875   5.149   2.973   0.164 -0.9062  0.5179 -2.2275
 7777SOL    MW430876   5.231   2.985   0.140 -0.2162  0.0280 -0.3288
 7778SOL     OW30877   3.084   2.785   5.596  0.7805  0.0563 -0.0892
 7778SOL    HW230878   3.056   2.740   5.516  2.4322 -0.7769 -0.2293
 7778SOL    HW330879   3.060   2.726   5.667  1.2974 -0.2250 -0.1427
 7778SOL    MW430880   3.077   2.771   5.594  1.0666 -0.0908 -0.1147
 7779SOL     OW30881   0.346   3.702   1.086 -0.0625 -0.1699  0.3086
 7779SOL    HW230882   0.380   3.725   0.999  3.5033 -0.3535  1.5223
 7779SOL    HW330883   0.285   3.773   1.107  0.2043  0.7167 -1.6638
 7779SOL    MW430884   0.342   3.715   1.077  0.4431 -0.0771  0.2085
 7780SOL     OW30885   1.314   0.707   0.322  0.2989 -0.2482 -0.3748
 7780SOL    HW230886   1.390   0.671   0.278  0.2121  0.2149 -0.9081
 7780SOL    HW330887   1.245   0.708   0.256  0.5746  1.8351 -0.7138
 7780SOL    MW430888   1.315   0.702   0.308  0.3238  0.0878 -0.4899
 7781SOL     OW30889   1.565   4.776   4.683  0.2866 -0.5340 -0.0129
 7781SOL    HW230890   1.652   4.770   4.643  0.8066  2.3922  0.5070
 7781SOL    HW330891   1.510   4.817   4.615  0.0224  0.1910  0.6274
 7781SOL    MW430892   1.569   4.780   4.669  0.3203 -0.0523  0.1402
 7782SOL     OW30893   5.147   5.575   0.565  0.3592 -0.0224 -0.2685
 7782SOL    HW230894   5.145   5.551   0.472 -0.5045  1.8282 -0.7756
 7782SOL    HW330895   5.056   5.572   0.592  0.5331  0.1037  0.3313
 7782SOL    MW430896   5.135   5.571   0.556  0.2682  0.2384 -0.2563
 7783SOL     OW30897   5.737   4.816   4.090 -0.4886 -0.1635  0.0468
 7783SOL    HW230898   5.752   4.796   4.182  0.4508 -0.8467 -0.2421
 7783SOL    HW330899   5.789   4.894   4.073  0.5911 -0.9339 -0.2729
 7783SOL    MW430900   5.746   4.824   4.100 -0.2222 -0.3552 -0.0335
 7784SOL     OW30901   4.731   2.145   1.080 -0.3722 -0.0118  0.8373
 7784SOL    HW230902   4.761   2.232   1.057  0.3310 -0.5480 -0.3980
 7784SOL    HW330903   4.638   2.144   1.057 -0.5656  0.6324  1.5703
 7784SOL    MW430904   4.723   2.156   1.074 -0.3049  0.0025  0.7710
 7785SOL     OW30905   4.790   4.819   3.442 -0.0131  0.0810  0.4068
 7785SOL    HW230906   4.823   4.907   3.428 -0.0286  0.1198  0.6121
 7785SOL    HW330907   4.812   4.799   3.533 -0.3420  0.0153  0.4735
 7785SOL    MW430908   4.797   4.828   3.452 -0.0585  0.0775  0.4427
 7786SOL     OW30909   1.846   3.850   3.222  0.3451  0.0415  0.3281
 7786SOL    HW230910   1.771   3.879   3.170  0.9469 -1.4897 -1.5250
 7786SOL    HW330911   1.836   3.895   3.305 -1.4755  1.4984 -0.5958
 7786SOL    MW430912   1.835   3.860   3.226  0.1843  0.0317 -0.0383
 7787SOL     OW30913   3.906   3.590   3.792  0.2417  0.7209 -0.2909
 7787SOL    HW230914   3.886   3.664   3.735 -1.5599 -0.1055 -0.8139
 7787SOL    HW330915   3.867   3.613   3.876  0.3315  0.6983 -0.2438
 7787SOL    MW430916   3.898   3.603   3.795  0.0159  0.6089 -0.3537
 7788SOL     OW30917   5.266   5.651   1.916 -0.1510 -0.2625  0.1182
 7788SOL    HW230918   5.229   5.609   1.992  0.4383  1.7667  1.6301
 7788SOL    HW330919   5.347   5.692   1.948  0.2417  0.4492 -1.6331
 7788SOL    MW430920   5.272   5.651   1.930 -0.0215  0.0992  0.0866
 7789SOL     OW30921   0.658   1.688   6.199  0.0611 -0.5145 -0.4042
 7789SOL    HW230922   0.621   1.642   6.275 -1.3247 -1.0098 -1.3380
 7789SOL    HW330923   0.641   1.780   6.217  2.0471 -0.3665  1.0578
 7789SOL    MW430924   0.651   1.694   6.212  0.1403 -0.5603 -0.3345
 7790SOL     OW30925   0.123   3.066   1.070  0.0157  0.5830  0.1857
 7790SOL    HW230926   0.102   3.153   1.105  1.6077  0.4263  1.6910
 7790SOL    HW330927   0.195   3.082   1.008  0.0172  0.3890  0.1371
 7790SOL    MW430928   0.130   3.080   1.067  0.2259  0.5368  0.3779
 7791SOL     OW30929   0.193   2.789   0.472 -0.0054  0.2553 -0.3709
 7791SOL    HW230930   0.273   2.764   0.519 -0.6806  1.5972  1.6164
 7791SOL    HW330931   0.130   2.720   0.493 -0.5988  1.3284  1.6202
 7791SOL    MW430932   0.196   2.777   0.481 -0.1728  0.5740  0.1540
 7792SOL     OW30933   2.545   2.586   6.037  0.3901  0.1050 -0.2502
 7792SOL    HW230934   2.578   2.666   6.078  1.8100  0.4018 -1.8845
 7792SOL    HW330935   2.528   2.610   5.946  0.1109 -1.2677 -0.5898
 7792SOL    MW430936   2.547   2.600   6.030  0.5406 -0.0370 -0.5107
 7793SOL     OW30937   4.263   2.130   2.767 -0.3874  0.0778  0.4558
 7793SOL    HW230938   4.341   2.147   2.714 -0.9647  0.0216 -0.4357
 7793SOL    HW330939   4.276   2.041   2.800 -0.2872 -0.1078 -0.0768
 7793SOL    MW430940   4.275   2.120   2.764 -0.4504  0.0459  0.2679
 7794SOL     OW30941   3.040   4.285   3.738 -0.0551 -0.2509 -0.1612
 7794SOL    HW230942   2.968   4.300   3.678 -1.0565 -1.1135  0.7817
 7794SOL    HW330943   3.010   4.320   3.822  1.8130  2.0972 -0.3803
 7794SOL    MW430944   3.027   4.292   3.741  0.0592 -0.0549 -0.0657
 7795SOL     OW30945   5.511   4.558   4.181 -0.3179  0.1917 -0.1182
 7795SOL    HW230946   5.510   4.475   4.229 -1.7194  0.2144 -0.0941
 7795SOL    HW330947   5.559   4.618   4.239 -2.0843  0.2570  1.3618
 7795SOL    MW430948   5.518   4.555   4.195 -0.7359  0.2033  0.0803
 7796SOL     OW30949   4.286   6.122   2.108 -0.2313 -0.0282  0.3136
 7796SOL    HW230950   4.378   6.146   2.102 -0.2852  0.3454  0.9547
 7796SOL    HW330951   4.283   6.031   2.077  0.7683 -0.9706  2.7246
 7796SOL    MW430952   4.298   6.113   2.103 -0.1065 -0.1032  0.7163
 7797SOL     OW30953   0.714   0.792   3.004  0.4879  0.0722 -0.1962
 7797SOL    HW230954   0.751   0.786   3.093  2.4412  2.4784 -0.7516
 7797SOL    HW330955   0.749   0.715   2.959  0.4157 -0.5499  0.7586
 7797SOL    MW430956   0.723   0.781   3.010  0.7361  0.3076 -0.1435
 7798SOL     OW30957   2.848   2.292   3.185  0.4461 -0.6033  0.1433
 7798SOL    HW230958   2.811   2.353   3.122 -1.7343  0.1103  1.9737
 7798SOL    HW330959   2.919   2.342   3.227  1.1129 -0.6767 -0.8501
 7798SOL    MW430960   2.853   2.307   3.182  0.2464 -0.5188  0.2537
 7799SOL     OW30961   1.713   5.943   5.135  0.2306 -0.1424 -0.1759
 7799SOL    HW230962   1.714   5.868   5.075 -1.6343  1.1289 -1.9240
 7799SOL    HW330963   1.620   5.963   5.147  0.6779  2.1128 -0.0757
 7799SOL    MW430964   1.701   5.936   5.128  0.0436  0.3229 -0.3933
 7800SOL     OW30965   6.015   3.621   5.580  0.2483  0.0786  0.0741
 7800SOL    HW230966   6.000   3.593   5.671 -0.4857 -0.3842 -0.1779
 7800SOL    HW330967   6.069   3.700   5.588 -0.7393  0.7060  0.9781
 7800SOL    MW430968   6.020   3.628   5.593  0.0212  0.1003  0.1601
 7801SOL     OW30969   1.203   2.545   2.098  0.3626  0.1488  0.3770
 7801SOL    HW230970   1.213   2.529   2.192  2.0112  0.6273  0.3151
 7801SOL    HW330971   1.115   2.582   2.089 -0.8258 -2.2386  1.3796
 7801SOL    MW430972   1.192   2.548   2.109  0.4233 -0.1030  0.5012
 7802SOL     OW30973   3.557   3.503   3.899 -0.0041 -0.0063 -0.3134
 7802SOL    HW230974   3.622   3.570   3.920 -1.3807  1.4299 -0.4792
 7802SOL    HW330975   3.584   3.427   3.951  2.2249  0.2625 -0.9551
 7802SOL    MW430976   3.569   3.502   3.909  0.1083  0.2187 -0.4200
 7803SOL     OW30977   3.520   2.596   4.847  0.3756  0.6078  0.1397
 7803SOL    HW230978   3.455   2.575   4.780 -0.1924  3.4663 -0.3283
 7803SOL    HW330979   3.586   2.648   4.801  1.5705  0.0947  1.2079
 7803SOL    MW430980   3.520   2.600   4.832  0.4583  0.9173  0.2189
 7804SOL     OW30981   5.679   5.992   4.538 -0.1255  0.0283 -0.3472
 7804SOL    HW230982   5.604   5.947   4.499  0.8388 -1.1774 -0.8988
 7804SOL    HW330983   5.729   6.024   4.463  0.4387 -0.0818 -0.0216
 7804SOL    MW430984   5.676   5.990   4.523  0.0761 -0.1453 -0.3770
 7805SOL     OW30985   0.044   0.217   0.995  0.0406 -0.0184 -0.0769
 7805SOL    HW230986   0.072   0.127   0.978 -1.4651 -0.1729 -2.1159
 7805SOL    HW330987  -0.024   0.234   0.929 -0.9471  2.0358  1.3614
 7805SOL    MW430988   0.039   0.208   0.984 -0.2884  0.2323 -0.1562
 7806SOL     OW30989   2.093   1.801   2.050  0.1541 -0.1971  0.6948
 7806SOL    HW230990   2.102   1.846   2.134 -0.2948 -0.0325  0.6544
 7806SOL    HW330991   2.183   1.774   2.028  0.7600  2.2912 -0.1757
 7806SOL    MW430992   2.106   1.803   2.058  0.1748  0.1529  0.5746
 7807SOL     OW30993   5.554   3.749   3.284 -0.1290  0.0563 -0.0048
 7807SOL    HW230994   5.479   3.779   3.335  0.0529  1.6347 -0.6198
 7807SOL    HW330995   5.517   3.684   3.224 -0.4475 -1.3933  1.6656
 7807SOL    MW430996   5.539   3.744   3.283 -0.1470  0.0733  0.1344
 7808SOL     OW30997   1.739   5.260   0.516  0.1890 -0.5635  0.3134
 7808SOL    HW230998   1.677   5.187   0.517  0.5460 -0.8924  2.3248
 7808SOL    HW330999   1.702   5.323   0.454 -1.3213 -1.4274  0.3018
 7808SOL    MW431000   1.726   5.259   0.508  0.0368 -0.7209  0.5773
 7809SOL     OW31001   6.149   1.951   3.734  0.2406 -0.0840 -0.0861
 7809SOL    HW231002   6.183   1.865   3.758  0.4819 -0.3644 -1.3329
 7809SOL    HW331003   6.221   1.992   3.685  0.5670  1.3068  1.4548
 7809SOL    MW431004   6.163   1.945   3.730  0.3155  0.0625 -0.0473
 7810SOL     OW31005   5.715   3.045   3.842 -0.3274  0.4203 -0.3713
 7810SOL    HW231006   5.767   3.094   3.779 -1.3020 -1.5619 -2.8879
 7810SOL    HW331007   5.762   2.962   3.853 -0.3776  0.5797  1.2698
 7810SOL    MW431008   5.728   3.040   3.835 -0.4626  0.1798 -0.4868
 7811SOL     OW31009   2.274   3.634   1.984  0.5988  0.1014  0.1397
 7811SOL    HW231010   2.200   3.617   2.043  1.7142 -2.0638  1.0346
 7811SOL    HW331011   2.239   3.620   1.896 -0.3649  0.4125  0.4619
 7811SOL    MW431012   2.260   3.630   1.980  0.6188 -0.1432  0.3003
 7812SOL     OW31013   3.645   5.060   3.765 -0.0772  0.3197  0.7968
 7812SOL    HW231014   3.594   5.026   3.691 -0.1185  1.2137  0.4069
 7812SOL    HW331015   3.735   5.033   3.746 -0.2473 -0.4034  0.9851
 7812SOL    MW431016   3.650   5.052   3.753 -0.1051  0.3422  0.7702
 7813SOL     OW31017   0.944   2.782   5.334  0.7317  0.8154 -0.1074
 7813SOL    HW231018   0.957   2.871   5.366  0.2899  0.9607 -0.3190
 7813SOL    HW331019   0.955   2.790   5.239 -2.9390  1.4095 -0.6418
 7813SOL    MW431020   0.947   2.795   5.325  0.1891  0.9130 -0.2059
 7814SOL     OW31021   3.307   4.945   4.549 -0.4697  0.2227  0.6110
 7814SOL    HW231022   3.334   5.032   4.520  2.6823 -0.6102  0.6866
 7814SOL    HW331023   3.326   4.888   4.475  0.5945 -0.8347  1.6654
 7814SOL    MW431024   3.313   4.949   4.536  0.0866 -0.0267  0.7601
 7815SOL     OW31025   1.655   5.007   6.030  0.2790  0.6604 -0.0025
 7815SOL    HW231026   1.572   5.055   6.040 -0.0147  0.8228 -2.5855
 7815SOL    HW331027   1.630   4.926   5.986  1.5480  1.0782 -1.5951
 7815SOL    MW431028   1.640   5.002   6.026  0.4077  0.7370 -0.5534
 7816SOL     OW31029   3.349   6.140   5.422 -0.0032  0.0745 -0.0889
 7816SOL    HW231030   3.287   6.121   5.351 -1.1155  0.2348  0.8186
 7816SOL    HW331031   3.372   6.232   5.409  1.2388 -0.3647 -1.3064
 7816SOL    MW431032   3.344   6.150   5.411  0.0139  0.0377 -0.1298
 7817SOL     OW31033   5.724   1.259   5.981 -0.6621 -0.3874  0.4213
 7817SOL    HW231034   5.801   1.292   5.933  0.3730 -2.5595  0.4892
 7817SOL    HW331035   5.695   1.183   5.932 -3.1617  0.6636  0.1244
 7817SOL    MW431036   5.731   1.254   5.968 -0.8553 -0.5353  0.3911
 7818SOL     OW31037   0.607   1.994   4.701  0.4162 -0.3756 -0.1634
 7818SOL    HW231038   0.636   2.071   4.750  0.3219 -0.7072  0.4245
 7818SOL    HW331039   0.650   1.921   4.746 -0.2100 -0.7441 -0.1631
 7818SOL    MW431040   0.617   1.995   4.713  0.3212 -0.4680 -0.0858
 7819SOL     OW31041   5.929   5.317   4.779 -0.5308  0.2475  0.7970
 7819SOL    HW231042   5.883   5.392   4.741  0.3221  1.0321  1.2911
 7819SOL    HW331043   5.872   5.242   4.760 -1.6419  1.0854  0.7403
 7819SOL    MW431044   5.916   5.317   4.772 -0.5649  0.4616  0.8547
 7820SOL     OW31045   1.057   1.535   1.440 -0.5832  0.5553  0.3906
 7820SOL    HW231046   1.131   1.496   1.485  0.1867  0.3678 -0.9663
 7820SOL    HW331047   1.020   1.597   1.502  0.7418  0.6796  1.0875
 7820SOL    MW431048   1.062   1.538   1.454 -0.3068  0.5469  0.3035
 7821SOL     OW31049   2.165   3.743   3.939 -0.2976  0.1230  0.2929
 7821SOL    HW231050   2.120   3.699   3.866  0.2406  0.7552 -0.4441
 7821SOL    HW331051   2.184   3.831   3.905 -0.9380  0.7817  1.5611
 7821SOL    MW431052   2.161   3.749   3.925 -0.3111  0.2933  0.3630
 7822SOL     OW31053   4.177   2.381   1.213  1.0711  0.0928 -0.0148
 7822SOL    HW231054   4.082   2.392   1.211  1.0362 -0.1968 -1.4623
 7822SOL    HW331055   4.192   2.302   1.264  0.5617  0.3151  0.4875
 7822SOL    MW431056   4.166   2.372   1.219  0.9993  0.0839 -0.1395
 7823SOL     OW31057   3.603   3.226   4.019  0.1562 -0.1222  0.0409
 7823SOL    HW231058   3.633   3.180   3.940  0.0548  0.9540 -0.6594
 7823SOL    HW331059   3.515   3.193   4.035 -0.2234  0.3695 -0.9206
 7823SOL    MW431060   3.595   3.216   4.010  0.0927  0.0846 -0.1784
 7824SOL     OW31061   0.438   0.465   2.210 -0.3521 -0.1126 -0.0416
 7824SOL    HW231062   0.521   0.430   2.242 -0.0648  0.0652 -0.5728
 7824SOL    HW331063   0.450   0.560   2.211 -0.9657 -0.0263  0.9677
 7824SOL    MW431064   0.450   0.473   2.214 -0.3951 -0.0778  0.0215
 7825SOL     OW31065   1.834   1.985   5.351 -0.5750  0.2672 -0.0653
 7825SOL    HW231066   1.913   2.038   5.349  0.9487 -1.8641 -0.8638
 7825SOL    HW331067   1.864   1.898   5.378 -2.6949 -0.5564 -0.1368
 7825SOL    MW431068   1.848   1.980   5.354 -0.6537 -0.1227 -0.1801
 7826SOL     OW31069   1.600   1.698   0.367 -0.1124  0.2797  0.1356
 7826SOL    HW231070   1.681   1.649   0.356  1.4782  2.9095 -1.0991
 7826SOL    HW331071   1.551   1.681   0.287 -0.6100 -0.9600  0.6838
 7826SOL    MW431072   1.604   1.690   0.355  0.0318  0.4631  0.0451
 7827SOL     OW31073   0.707   3.139   3.658 -0.5861 -0.0455  0.0232
 7827SOL    HW231074   0.764   3.191   3.600 -0.5532 -1.7127 -1.5330
 7827SOL    HW331075   0.727   3.048   3.637 -1.2730 -0.7214  2.0400
 7827SOL    MW431076   0.717   3.134   3.647 -0.6724 -0.3546  0.0839
 7828SOL     OW31077   4.074   2.555   4.092 -0.6058  0.1144 -0.2342
 7828SOL    HW231078   4.055   2.528   4.182  1.0442  0.7798  0.3531
 7828SOL    HW331079   4.029   2.639   4.081 -2.1823 -0.7545 -0.6144
 7828SOL    MW431080   4.066   2.563   4.102 -0.5961  0.0875 -0.2068
 7829SOL     OW31081   5.771   2.046   1.626 -0.2785 -0.3310 -0.3282
 7829SOL    HW231082   5.804   1.971   1.576  1.0960 -0.4627  0.7054
 7829SOL    HW331083   5.838   2.113   1.616 -1.0755  0.4488 -0.5086
 7829SOL    MW431084   5.784   2.045   1.618 -0.2023 -0.2455 -0.2156
 7830SOL     OW31085   5.634   5.902   2.548  0.1465  0.1612 -0.5118
 7830SOL    HW231086   5.676   5.820   2.575 -1.8057 -0.1332  2.0252
 7830SOL    HW331087   5.648   5.962   2.621 -0.3122  1.4156 -1.4059
 7830SOL    MW431088   5.642   5.899   2.561 -0.1716  0.2879 -0.2950
 7831SOL     OW31089   1.934   5.878   0.114  0.7678  0.0640 -0.0595
 7831SOL    HW231090   2.012   5.824   0.103  0.1598 -0.7003 -0.7588
 7831SOL    HW331091   1.966   5.959   0.153  1.8214 -0.4678  0.2133
 7831SOL    MW431092   1.948   5.881   0.118  0.8266 -0.1070 -0.1157
 7832SOL     OW31093   1.486   2.977   2.544 -0.2408  0.7757 -0.3114
 7832SOL    HW231094   1.393   2.989   2.527  0.1152  2.0862 -1.5162
 7832SOL    HW331095   1.495   2.884   2.564 -1.7917  0.6185 -0.2354
 7832SOL    MW431096   1.475   2.966   2.545 -0.3985  0.9279 -0.4603
 7833SOL     OW31097   5.623   5.615   6.291 -0.7211  0.0848  0.3038
 7833SOL    HW231098   5.716   5.613   6.269 -1.2847  1.3746 -2.6477
 7833SOL    HW331099   5.586   5.539   6.245 -1.4383  0.9542 -0.6210
 7833SOL    MW431100   5.630   5.604   6.282 -0.8901  0.3697 -0.2076
 7834SOL     OW31101   5.193   4.450   1.059  0.7859  0.1007  0.2286
 7834SOL    HW231102   5.243   4.436   1.139  0.2531  0.9650  0.7307
 7834SOL    HW331103   5.140   4.528   1.077  0.1008 -0.1307 -0.6935
 7834SOL    MW431104   5.192   4.459   1.072  0.6252  0.1842  0.1732
 7835SOL     OW31105   3.506   6.193   2.643  0.5866  0.3754 -0.0790
 7835SOL    HW231106   3.410   6.198   2.640  0.5632  1.2867  1.4073
 7835SOL    HW331107   3.536   6.268   2.591  0.5438 -0.7197 -1.7567
 7835SOL    MW431108   3.497   6.203   2.636  0.5779  0.3511 -0.1042
 7836SOL     OW31109   1.453   1.319   2.441  0.1705 -0.6025  0.2946
 7836SOL    HW231110   1.492   1.405   2.425 -0.3461 -0.2789  0.7294
 7836SOL    HW331111   1.387   1.310   2.372  0.0135 -0.5129  0.4316
 7836SOL    MW431112   1.449   1.330   2.430  0.0816 -0.5480  0.3701
 7837SOL     OW31113   5.773   4.497   4.770 -0.1834  0.4762  0.2326
 7837SOL    HW231114   5.807   4.522   4.856  1.0602  1.2793 -0.4631
 7837SOL    HW331115   5.806   4.564   4.710  0.8679 -1.2578 -1.2381
 7837SOL    MW431116   5.782   4.509   4.773  0.1194  0.3534 -0.0532
 7838SOL     OW31117   2.446   1.771   5.500  0.0725  0.5385 -0.1764
 7838SOL    HW231118   2.540   1.768   5.514  0.2333  2.4444 -0.4872
 7838SOL    HW331119   2.421   1.860   5.526 -1.5881  0.1822 -0.4123
 7838SOL    MW431120   2.455   1.783   5.505 -0.1254  0.7429 -0.2485
 7839SOL     OW31121   0.888   4.538   3.097 -0.2611  0.5755 -0.6547
 7839SOL    HW231122   0.873   4.616   3.043 -0.5907 -0.2477 -1.7937
 7839SOL    HW331123   0.937   4.570   3.172 -1.2088  2.0455 -0.6220
 7839SOL    MW431124   0.893   4.552   3.100 -0.4296  0.6608 -0.8007
 7840SOL     OW31125   5.452   2.069   0.268  0.3436 -0.1174 -0.2832
 7840SOL    HW231126   5.419   2.145   0.221  0.2771  0.5118  0.7461
 7840SOL    HW331127   5.480   2.008   0.199 -1.3570  0.0277 -1.1648
 7840SOL    MW431128   5.451   2.071   0.253  0.1105 -0.0152 -0.2637
 7841SOL     OW31129   3.502   3.606   5.777  0.1891 -0.1848  0.1800
 7841SOL    HW231130   3.573   3.598   5.713  0.1868 -0.0353  0.1561
 7841SOL    HW331131   3.425   3.628   5.725  0.1325 -0.3153  0.2091
 7841SOL    MW431132   3.501   3.608   5.762  0.1813 -0.1823  0.1807
 7842SOL     OW31133   5.577   3.803   0.721 -0.2275 -0.4617  0.1443
 7842SOL    HW231134   5.605   3.726   0.671 -0.3571 -0.3653 -0.0776
 7842SOL    HW331135   5.653   3.825   0.775 -0.5235 -1.3582  0.9684
 7842SOL    MW431136   5.591   3.795   0.721 -0.2836 -0.5672  0.2238
 7843SOL     OW31137   4.127   1.349   4.508  0.0107 -1.2639  0.0162
 7843SOL    HW231138   4.042   1.323   4.472 -0.2092 -0.1351 -0.3295
 7843SOL    HW331139   4.188   1.338   4.435 -0.9751  4.4075 -2.2511
 7843SOL    MW431140   4.124   1.344   4.494 -0.1484 -0.3667 -0.3285
 7844SOL     OW31141   1.706   3.297   5.198 -0.2445  0.4998  0.4155
 7844SOL    HW231142   1.769   3.350   5.150  1.0281 -0.7745  0.6011
 7844SOL    HW331143   1.666   3.241   5.131  1.3677 -1.1178  0.7201
 7844SOL    MW431144   1.709   3.296   5.183  0.1361  0.1182  0.4802
 7845SOL     OW31145   2.696   4.430   5.336 -1.0825 -0.5796 -0.1045
 7845SOL    HW231146   2.638   4.457   5.265 -1.4915 -2.2833 -0.4733
 7845SOL    HW331147   2.782   4.464   5.311 -1.1614 -1.3759 -1.5822
 7845SOL    MW431148   2.700   4.438   5.324 -1.1469 -0.9095 -0.3481
 7846SOL     OW31149   3.740   5.472   4.454  0.0526  0.4244  0.0869
 7846SOL    HW231150   3.720   5.492   4.545  2.8856  0.2655  0.8510
 7846SOL    HW331151   3.822   5.518   4.437  0.7387 -1.3195 -1.6816
 7846SOL    MW431152   3.748   5.481   4.464  0.5169  0.1733 -0.0456
 7847SOL     OW31153   4.848   5.493   0.718  0.3084 -0.0585 -0.5133
 7847SOL    HW231154   4.792   5.543   0.659  1.7048  1.7574 -0.4229
 7847SOL    HW331155   4.845   5.543   0.800  1.0742 -0.6143 -0.1411
 7847SOL    MW431156   4.840   5.506   0.721  0.5937  0.1078 -0.4523
 7848SOL     OW31157   1.956   3.240   6.302 -0.4036  0.7783  0.1456
 7848SOL    HW231158   2.026   3.177   6.320 -1.3914 -0.7316 -1.0351
 7848SOL    HW331159   1.970   3.310   6.365  1.0493 -0.3774  1.1736
 7848SOL    MW431160   1.967   3.241   6.312 -0.3422  0.4266  0.1255
 7849SOL     OW31161   3.258   1.794   6.250 -0.6553 -0.0004  0.3256
 7849SOL    HW231162   3.181   1.845   6.276 -0.6848 -1.0903  2.6154
 7849SOL    HW331163   3.332   1.851   6.267 -0.7241 -0.4562  2.3398
 7849SOL    MW431164   3.258   1.808   6.255 -0.6683 -0.2043  0.8935
 7850SOL     OW31165   3.390   4.125   1.788  0.0984 -0.0095  0.1399
 7850SOL    HW231166   3.307   4.106   1.744 -1.0230  0.1603  2.0846
 7850SOL    HW331167   3.413   4.213   1.758  0.8010 -0.8995 -2.1473
 7850SOL    MW431168   3.382   4.134   1.778  0.0431 -0.1045  0.0947
 7851SOL     OW31169   1.241   1.867   5.932  0.1162 -0.2220  0.2973
 7851SOL    HW231170   1.246   1.960   5.956  1.6227  0.0247 -0.8368
 7851SOL    HW331171   1.174   1.831   5.990 -2.1087  2.0250 -0.6784
 7851SOL    MW431172   1.233   1.874   5.943  0.0214  0.1070  0.0190
 7852SOL     OW31173   1.915   1.843   5.023 -0.7157 -0.2677  0.7036
 7852SOL    HW231174   1.911   1.811   4.933 -0.2162  1.5566 -0.0290
 7852SOL    HW331175   1.938   1.767   5.075  0.7925 -1.0133 -0.9610
 7852SOL    MW431176   1.917   1.829   5.018 -0.4508 -0.1254  0.3873
 7853SOL     OW31177   1.727   4.891   3.131  0.4949  0.2436 -0.3261
 7853SOL    HW231178   1.777   4.959   3.178  1.5240 -0.5525 -0.2246
 7853SOL    HW331179   1.659   4.864   3.193  1.1849 -0.0592  0.3179
 7853SOL    MW431180   1.725   4.896   3.146  0.7218  0.0986 -0.2277
 7854SOL     OW31181   5.554   4.479   6.353  0.5786 -0.1044  0.4710
 7854SOL    HW231182   5.635   4.436   6.380 -0.8882 -1.3842  3.3287
 7854SOL    HW331183   5.571   4.572   6.364  2.0997 -0.2363 -0.4995
 7854SOL    MW431184   5.567   4.486   6.358  0.5858 -0.2907  0.7200
 7855SOL     OW31185   1.069   5.532   6.243  0.5675  0.5247 -0.0255
 7855SOL    HW231186   1.115   5.514   6.325 -0.0325 -0.8359  0.0429
 7855SOL    HW331187   1.011   5.606   6.263  0.5529  0.3157  0.7324
 7855SOL    MW431188   1.067   5.539   6.256  0.4864  0.3176  0.0835
 7856SOL     OW31189   6.370   2.875   2.676  0.2049 -0.4949  0.2252
 7856SOL    HW231190   6.372   2.925   2.758 -2.9846 -0.0122  0.1399
 7856SOL    HW331191   6.347   2.940   2.610  3.3340 -0.7609 -1.2859
 7856SOL    MW431192   6.367   2.890   2.678  0.1969 -0.4663  0.0146
 7857SOL     OW31193   4.575   5.017   3.104 -0.1123 -0.4705  0.3971
 7857SOL    HW231194   4.651   4.967   3.135 -0.8132 -0.7169  1.7899
 7857SOL    HW331195   4.613   5.084   3.047  1.1185 -0.7946  0.7956
 7857SOL    MW431196   4.590   5.019   3.101 -0.0424 -0.5458  0.6335
 7858SOL     OW31197   0.347   2.373   1.019  0.4246  0.2066 -0.4438
 7858SOL    HW231198   0.357   2.355   0.925  0.2481  0.6915 -0.5598
 7858SOL    HW331199   0.348   2.468   1.025 -1.9858  0.2917 -0.2356
 7858SOL    MW431200   0.348   2.383   1.007  0.0833  0.2818 -0.4316
 7859SOL     OW31201   1.849   3.332   0.993  0.8360  0.5084 -0.3188
 7859SOL    HW231202   1.783   3.263   0.990  1.0267  0.3119 -0.0068
 7859SOL    HW331203   1.800   3.413   0.974  1.1074 -0.0074 -4.0998
 7859SOL    MW431204   1.834   3.334   0.990  0.8970  0.4144 -0.7765
 7860SOL     OW31205   0.669   3.813   1.287  0.3287 -0.1931  0.2198
 7860SOL    HW231206   0.610   3.864   1.232  1.2061 -0.3902 -0.9561
 7860SOL    HW331207   0.696   3.740   1.231 -0.7661 -1.8858  1.8055
 7860SOL    MW431208   0.665   3.810   1.272  0.3000 -0.4424  0.2739
 7861SOL     OW31209   4.332   2.484   0.015 -0.1414 -0.3431 -0.2579
 7861SOL    HW231210   4.400   2.472  -0.051 -0.6517  0.2264 -0.9163
 7861SOL    HW331211   4.340   2.576   0.041  0.4468 -0.7209  0.9358
 7861SOL    MW431212   4.342   2.495   0.010 -0.1311 -0.3178 -0.1872
 7862SOL     OW31213   3.792   1.483   6.252  0.8925  0.6043 -0.5904
 7862SOL    HW231214   3.799   1.522   6.165  1.3876  0.1175 -0.7757
 7862SOL    HW331215   3.723   1.533   6.295  2.1944  2.3731 -0.4453
 7862SOL    MW431216   3.784   1.495   6.246  1.1296  0.7734 -0.5957
 7863SOL     OW31217   4.348   5.588   0.540 -0.5880  0.8075 -0.4369
 7863SOL    HW231218   4.291   5.660   0.566 -2.0381  0.1562 -1.6586
 7863SOL    HW331219   4.316   5.513   0.589  0.2545  0.7640  0.0584
 7863SOL    MW431220   4.336   5.588   0.550 -0.6682  0.7158 -0.5327
 7864SOL     OW31221   4.708   3.265   0.390 -0.0001  0.3146  0.2784
 7864SOL    HW231222   4.776   3.220   0.339 -0.2895  0.3793 -0.1737
 7864SOL    HW331223   4.641   3.286   0.325  0.0810  1.2997  0.5119
 7864SOL    MW431224   4.708   3.262   0.375 -0.0276  0.4531  0.2495
 7865SOL     OW31225   2.285   4.029   2.643  0.0118 -0.4210 -0.5646
 7865SOL    HW231226   2.250   4.078   2.718 -0.7764 -1.1097 -0.4755
 7865SOL    HW331227   2.238   3.946   2.644 -0.3556 -0.2592 -2.1083
 7865SOL    MW431228   2.274   4.025   2.653 -0.1406 -0.4905 -0.7565
 7866SOL     OW31229   4.686   0.250   0.400  0.2443  0.0561 -0.7607
 7866SOL    HW231230   4.700   0.305   0.323  0.6141 -2.1064 -2.3473
 7866SOL    HW331231   4.594   0.265   0.424  0.9409  3.1257  0.4313
 7866SOL    MW431232   4.676   0.259   0.393  0.3850  0.1758 -0.8128
 7867SOL     OW31233   4.894   4.423   5.633  0.1286  0.2514 -0.2163
 7867SOL    HW231234   4.805   4.458   5.625  0.3897  0.6061 -1.7855
 7867SOL    HW331235   4.928   4.421   5.544  2.0590  1.0246  0.4459
 7867SOL    MW431236   4.887   4.427   5.620  0.4177  0.4002 -0.3360
 7868SOL     OW31237   4.990   3.797   4.259  0.2466  0.2448 -0.6504
 7868SOL    HW231238   4.995   3.729   4.327 -1.1464 -1.9231 -2.5524
 7868SOL    HW331239   5.070   3.848   4.270  1.4525 -1.8095  0.8240
 7868SOL    MW431240   5.001   3.795   4.269  0.2219 -0.3123 -0.7068
 7869SOL     OW31241   3.081   3.973   2.683 -0.8623 -0.5936 -0.0323
 7869SOL    HW231242   2.994   4.011   2.695 -0.3195  1.3478 -1.6751
 7869SOL    HW331243   3.140   4.047   2.684  0.4502 -1.5284 -1.7771
 7869SOL    MW431244   3.077   3.987   2.684 -0.6175 -0.4607 -0.4793
 7870SOL     OW31245   3.641   3.010   5.048 -0.1810  0.1208 -0.3781
 7870SOL    HW231246   3.589   2.951   5.102  1.5040 -1.3790 -0.3022
 7870SOL    HW331247   3.611   2.992   4.958  0.4585 -1.0552 -0.3794
 7870SOL    MW431248   3.630   3.000   5.043  0.1257 -0.2323 -0.3683
 7871SOL     OW31249   2.735   1.471   1.268 -0.2932 -0.5249 -0.1916
 7871SOL    HW231250   2.795   1.535   1.229 -0.6785  0.5443  0.9257
 7871SOL    HW331251   2.648   1.504   1.247 -0.5545  0.8951  2.7377
 7871SOL    MW431252   2.731   1.483   1.260 -0.3785 -0.1965  0.3423
 7872SOL     OW31253   5.718   1.748   2.279 -0.6948 -0.1467 -0.4059
 7872SOL    HW231254   5.757   1.663   2.299  0.6181  0.9813  2.4201
 7872SOL    HW331255   5.662   1.767   2.355 -0.6859  1.6541 -0.7974
 7872SOL    MW431256   5.716   1.739   2.292 -0.5204  0.2398 -0.0847
 7873SOL     OW31257   1.699   6.121   4.587  0.7334 -0.2141 -0.1758
 7873SOL    HW231258   1.643   6.196   4.606  1.3028  0.2741 -0.3884
 7873SOL    HW331259   1.696   6.112   4.492  0.9876 -0.2091 -0.1849
 7873SOL    MW431260   1.691   6.129   4.577  0.8421 -0.1490 -0.2051
 7874SOL     OW31261   5.471   3.515   3.666  0.3293  0.2951  0.0349
 7874SOL    HW231262   5.447   3.503   3.757  0.3095 -0.4784 -0.0723
 7874SOL    HW331263   5.388   3.525   3.619  0.3506  1.0371  0.1437
 7874SOL    MW431264   5.457   3.515   3.672  0.3295  0.2910  0.0351
 7875SOL     OW31265   0.459   5.904   4.098 -0.6796  0.0340 -0.4309
 7875SOL    HW231266   0.456   5.941   4.187 -1.3046  0.3123 -0.5590
 7875SOL    HW331267   0.390   5.951   4.051 -0.7970 -0.5872 -0.8820
 7875SOL    MW431268   0.450   5.915   4.104 -0.7775 -0.0113 -0.5073
 7876SOL     OW31269   4.601   0.259   4.553  0.3967  0.0119  0.1298
 7876SOL    HW231270   4.651   0.341   4.553 -0.1707  0.3653 -0.2480
 7876SOL    HW331271   4.513   0.285   4.526  0.4721 -0.8825 -1.0166
 7876SOL    MW431272   4.596   0.273   4.550  0.3318 -0.0595 -0.0713
 7877SOL     OW31273   0.400   6.012   6.088 -0.6138  0.4579 -0.5548
 7877SOL    HW231274   0.340   6.077   6.125  1.3391  2.8559 -1.3025
 7877SOL    HW331275   0.466   6.064   6.043  1.4613 -2.0638 -0.6540
 7877SOL    MW431276   0.401   6.028   6.087 -0.0824  0.4416 -0.6665
 7878SOL     OW31277   3.330   6.035   5.695  0.4303  0.6160  0.4183
 7878SOL    HW231278   3.310   6.051   5.602 -0.0740 -1.0247  0.2028
 7878SOL    HW331279   3.334   5.939   5.702 -0.5975  0.6665  2.3093
 7878SOL    MW431280   3.328   6.024   5.683  0.2281  0.4062  0.6394
 7879SOL     OW31281   0.937   1.873   2.204 -0.3894  0.3812 -0.4045
 7879SOL    HW231282   0.942   1.932   2.280 -0.7368  1.7784 -1.4148
 7879SOL    HW331283   1.023   1.881   2.163  0.3540 -1.5937  0.6726
 7879SOL    MW431284   0.949   1.882   2.209 -0.3371  0.3050 -0.3957
 7880SOL     OW31285   3.805   3.238   1.641  0.1113  0.5456  0.0630
 7880SOL    HW231286   3.737   3.303   1.657 -0.4660 -0.2664  1.0600
 7880SOL    HW331287   3.783   3.165   1.699  1.9316  0.3208  0.5477
 7880SOL    MW431288   3.793   3.237   1.651  0.2753  0.4088  0.2585
 7881SOL     OW31289   1.814   2.817   1.480 -0.2366  0.2077  0.8284
 7881SOL    HW231290   1.795   2.886   1.416 -0.4296  1.0635  1.7745
 7881SOL    HW331291   1.906   2.795   1.466 -0.5178 -0.2842 -0.3522
 7881SOL    MW431292   1.823   2.823   1.469 -0.2992  0.2557  0.7975
 7882SOL     OW31293   1.030   3.462   5.922  0.2503  0.0302  0.4592
 7882SOL    HW231294   0.997   3.417   5.844  1.8995  0.5911 -0.6225
 7882SOL    HW331295   1.086   3.396   5.965  0.0226 -0.0044  0.7045
 7882SOL    MW431296   1.033   3.447   5.917  0.4379  0.0996  0.3489
 7883SOL     OW31297   4.424   4.019   1.434 -0.0647 -0.5381 -0.2706
 7883SOL    HW231298   4.449   4.054   1.519  0.7242 -2.0899  0.1739
 7883SOL    HW331299   4.386   3.933   1.453  0.0043 -0.8503 -1.4515
 7883SOL    MW431300   4.422   4.012   1.448  0.0485 -0.7840 -0.3678
 7884SOL     OW31301   3.771   1.829   3.220 -0.1562  0.0939 -0.1586
 7884SOL    HW231302   3.714   1.785   3.156 -0.7714  1.1284 -0.3502
 7884SOL    HW331303   3.756   1.922   3.205  1.0605  0.3805  0.2902
 7884SOL    MW431304   3.761   1.835   3.209 -0.0768  0.2682 -0.1247
 7885SOL     OW31305   5.866   1.630   5.274  0.1749 -0.0026 -0.4798
 7885SOL    HW231306   5.786   1.667   5.310 -0.0909 -1.2051  0.2184
 7885SOL    HW331307   5.848   1.622   5.180 -0.5636 -0.3490 -0.3132
 7885SOL    MW431308   5.853   1.633   5.266  0.0424 -0.2069 -0.3657
 7886SOL     OW31309   3.682   2.591   4.611 -0.1267 -0.2779  0.0473
 7886SOL    HW231310   3.691   2.496   4.606 -0.6775 -0.3010 -0.6000
 7886SOL    HW331311   3.772   2.624   4.610  0.1277 -0.8370  1.6788
 7886SOL    MW431312   3.695   2.583   4.610 -0.1658 -0.3547  0.1771
 7887SOL     OW31313   5.633   4.005   2.654  0.6075  0.7960  0.1282
 7887SOL    HW231314   5.652   4.098   2.657  0.1554  0.8732  2.2236
 7887SOL    HW331315   5.627   3.978   2.746  2.7109 -1.7317 -0.3326
 7887SOL    MW431316   5.635   4.013   2.666  0.8253  0.4727  0.3439
 7888SOL     OW31317   0.629   3.986   2.322 -0.0394 -0.1223 -0.2561
 7888SOL    HW231318   0.685   3.980   2.245 -1.1932 -1.6261 -1.0484
 7888SOL    HW331319   0.643   3.903   2.368  1.4592  1.1754  1.8176
 7888SOL    MW431320   0.638   3.974   2.318  0.0061 -0.1495 -0.0871
 7889SOL     OW31321   5.854   3.835   2.606 -0.4432 -0.0814  0.0444
 7889SOL    HW231322   5.774   3.888   2.605  1.3742  2.8235 -1.3283
 7889SOL    HW331323   5.922   3.892   2.572  1.9601 -2.9777 -0.4143
 7889SOL    MW431324   5.852   3.849   2.602  0.1137 -0.0803 -0.1973
 7890SOL     OW31325   1.090   6.310   1.844  0.0187  0.0136  0.4817
 7890SOL    HW231326   1.064   6.232   1.893  0.7686  1.5035  3.4456
 7890SOL    HW331327   1.024   6.318   1.775 -2.7195 -0.7702  2.8278
 7890SOL    MW431328   1.078   6.301   1.841 -0.2436  0.1068  1.1823
 7891SOL     OW31329   4.716   5.668   6.187 -0.0175  0.5034 -0.2427
 7891SOL    HW231330   4.686   5.647   6.099  0.1137  0.8010 -0.3620
 7891SOL    HW331331   4.705   5.587   6.237  0.5879  0.1199 -0.7177
 7891SOL    MW431332   4.711   5.654   6.182  0.0797  0.4921 -0.3211
 7892SOL     OW31333   2.675   2.236   4.386  0.1843  0.0950 -0.2387
 7892SOL    HW231334   2.768   2.256   4.370  0.2679 -0.1273 -0.0394
 7892SOL    HW331335   2.676   2.184   4.467 -0.0657 -0.3534 -0.5200
 7892SOL    MW431336   2.688   2.232   4.395  0.1623  0.0065 -0.2495
 7893SOL     OW31337   3.362   0.940   2.582  0.2092 -0.2458 -0.1774
 7893SOL    HW231338   3.357   1.001   2.655 -2.6418 -0.7629  0.1717
 7893SOL    HW331339   3.451   0.904   2.586  0.2138 -0.1241  2.9325
 7893SOL    MW431340   3.373   0.943   2.592 -0.1663 -0.2980  0.2790
 7894SOL     OW31341   1.364   5.180   6.341  0.4675 -0.5652  0.0570
 7894SOL    HW231342   1.414   5.206   6.419  0.7900 -0.4918 -0.1745
 7894SOL    HW331343   1.384   5.246   6.276  0.0821 -0.5473 -0.0466
 7894SOL    MW431344   1.373   5.192   6.343  0.4592 -0.5532  0.0128
 7895SOL     OW31345   2.560   2.089   0.222  0.0908  0.7786  0.4345
 7895SOL    HW231346   2.505   2.011   0.225  0.2120  0.5307 -1.8675
 7895SOL    HW331347   2.553   2.127   0.309 -1.2805 -0.9004  1.1088
 7895SOL    MW431348   2.552   2.084   0.234 -0.0741  0.5244  0.2198
 7896SOL     OW31349   3.272   0.654   2.755 -0.0056  0.4392  0.5186
 7896SOL    HW231350   3.228   0.575   2.787 -0.1539  0.8432  1.3351
 7896SOL    HW331351   3.246   0.722   2.816 -0.9221  1.4216 -0.8990
 7896SOL    MW431352   3.263   0.652   2.767 -0.1461  0.6221  0.4393
 7897SOL     OW31353   5.668   2.034  -0.005 -0.5276  0.2035 -0.1122
 7897SOL    HW231354   5.749   2.060   0.039 -1.2966  1.0711  0.8374
 7897SOL    HW331355   5.689   2.037  -0.099  0.6059  0.1650  0.1331
 7897SOL    MW431356   5.681   2.038  -0.012 -0.4795  0.3129  0.0454
 7898SOL     OW31357   3.949   1.602   1.632  0.5261 -0.6315  0.2817
 7898SOL    HW231358   3.858   1.573   1.626  0.2073 -0.4735  3.1268
 7898SOL    HW331359   3.996   1.548   1.567 -1.4284 -1.2300 -0.7172
 7898SOL    MW431360   3.943   1.591   1.622  0.2262 -0.6896  0.5253
 7899SOL     OW31361   4.142   0.556   0.797  0.6415  0.2856 -0.4150
 7899SOL    HW231362   4.098   0.633   0.834  1.3373  0.9371 -0.9110
 7899SOL    HW331363   4.232   0.563   0.827  0.9534  0.2366 -1.3220
 7899SOL    MW431364   4.148   0.567   0.806  0.7745  0.3651 -0.6001
 7900SOL     OW31365   3.792   3.525   2.604  0.4090 -0.0772  0.1000
 7900SOL    HW231366   3.861   3.465   2.632  0.0388 -0.4951  0.1190
 7900SOL    HW331367   3.735   3.533   2.680  0.7352  0.7139  0.2777
 7900SOL    MW431368   3.794   3.518   2.618  0.4032 -0.0280  0.1260
 7901SOL     OW31369   1.192   4.712   3.665 -0.1390 -0.5064  0.0879
 7901SOL    HW231370   1.278   4.673   3.649  0.1178 -0.1749  0.6547
 7901SOL    HW331371   1.150   4.653   3.727  0.0510 -0.1600  0.5486
 7901SOL    MW431372   1.198   4.699   3.671 -0.0801 -0.4169  0.2235
 7902SOL     OW31373   0.747   0.851   6.386  0.3405  0.6415 -0.1012
 7902SOL    HW231374   0.727   0.892   6.470 -0.7079  2.0722 -0.9997
 7902SOL    HW331375   0.784   0.922   6.333 -0.7465  0.2713 -1.4298
 7902SOL    MW431376   0.749   0.866   6.390  0.0587  0.7814 -0.3951
 7903SOL     OW31377   4.647   2.077   3.330  0.2425  0.1631  0.1674
 7903SOL    HW231378   4.577   2.030   3.284  0.8933 -0.4902 -0.1851
 7903SOL    HW331379   4.604   2.120   3.404 -0.1123 -2.4675  1.5856
 7903SOL    MW431380   4.632   2.077   3.333  0.2816 -0.2702  0.3080
 7904SOL     OW31381   3.033   5.913   2.114  0.2093  0.7651  0.7897
 7904SOL    HW231382   2.984   5.974   2.170 -0.0203  0.1579  1.2636
 7904SOL    HW331383   2.987   5.915   2.030 -0.5781  0.2728  1.2003
 7904SOL    MW431384   3.020   5.922   2.111  0.0751  0.6201  0.9064
 7905SOL     OW31385   2.393   1.076   3.462  0.0167 -0.1301 -0.2669
 7905SOL    HW231386   2.370   1.155   3.512  1.4609 -0.5226  1.1052
 7905SOL    HW331387   2.348   1.005   3.508 -0.4421 -0.2341 -0.8731
 7905SOL    MW431388   2.384   1.077   3.475  0.1467 -0.1956 -0.1659
 7906SOL     OW31389   5.134   3.018   4.017 -0.2623  0.5148  0.2585
 7906SOL    HW231390   5.081   3.033   3.938  0.6660  1.8898 -0.1335
 7906SOL    HW331391   5.093   2.942   4.059  0.6804 -1.8386 -2.7878
 7906SOL    MW431392   5.121   3.010   4.012 -0.0155  0.3857 -0.1951
 7907SOL     OW31393   6.154   0.910   4.705 -0.6559 -0.2225  0.1536
 7907SOL    HW231394   6.207   0.954   4.771 -0.6904  1.1257 -0.6821
 7907SOL    HW331395   6.120   0.832   4.749  1.3848 -0.7245  0.9418
 7907SOL    MW431396   6.156   0.906   4.719 -0.3912 -0.1108  0.1473
 7908SOL     OW31397   2.709   0.146   1.884  0.2118  0.1985 -0.4388
 7908SOL    HW231398   2.719   0.121   1.793  2.0269  0.2004 -0.2721
 7908SOL    HW331399   2.735   0.068   1.933 -1.1044  0.0692  0.1089
 7908SOL    MW431400   2.714   0.132   1.879  0.2776  0.1817 -0.3446
 7909SOL     OW31401   0.992   6.402   0.136 -0.1760  0.3434  0.5320
 7909SOL    HW231402   0.952   6.352   0.065  0.7855 -0.0629  0.2582
 7909SOL    HW331403   1.079   6.363   0.147 -0.8079 -0.6071  2.9258
 7909SOL    MW431404   0.998   6.390   0.128 -0.1325  0.1644  0.8117
 7910SOL     OW31405   1.701   2.398   5.028 -0.1328 -0.3733  0.1464
 7910SOL    HW231406   1.668   2.422   4.941 -2.0204 -0.6964  0.7253
 7910SOL    HW331407   1.637   2.335   5.061  0.5343 -0.2314  1.7934
 7910SOL    MW431408   1.688   2.393   5.021 -0.2938 -0.3972  0.4400
 7911SOL     OW31409   5.869   4.424  -0.006 -0.2143  0.2309  0.2641
 7911SOL    HW231410   5.930   4.351   0.002 -0.1607  0.1588 -0.6913
 7911SOL    HW331411   5.858   4.456   0.084  1.1467  0.1757  0.4806
 7911SOL    MW431412   5.876   4.419   0.007 -0.0277  0.2141  0.1666
 7912SOL     OW31413   5.742   3.021   4.740 -0.3529  0.4750 -0.1815
 7912SOL    HW231414   5.673   3.071   4.696 -0.1936  1.2675  0.4416
 7912SOL    HW331415   5.712   3.013   4.831  0.3822  0.8590  0.1028
 7912SOL    MW431416   5.729   3.027   4.746 -0.2349  0.6302 -0.0617
 7913SOL     OW31417   3.270   0.768   3.237  0.0201  0.3183 -0.3798
 7913SOL    HW231418   3.253   0.859   3.213 -0.2896 -0.2791 -2.6581
 7913SOL    HW331419   3.363   0.756   3.220 -0.0418  0.0800 -0.5550
 7913SOL    MW431420   3.280   0.778   3.232 -0.0289  0.2080 -0.7035
 7914SOL     OW31421   6.210   5.467   5.247  1.0953  0.1768 -0.0056
 7914SOL    HW231422   6.140   5.531   5.263  0.8963  0.3148 -1.2842
 7914SOL    HW331423   6.291   5.517   5.258  0.9430  0.6066 -0.7853
 7914SOL    MW431424   6.211   5.482   5.250  1.0489  0.2517 -0.2772
 7915SOL     OW31425   2.061   0.430   3.248 -0.5677  0.1544  0.4024
 7915SOL    HW231426   2.018   0.393   3.171 -0.1230 -0.1132  0.2774
 7915SOL    HW331427   2.154   0.428   3.226 -0.4500  0.2084  0.8912
 7915SOL    MW431428   2.068   0.425   3.235 -0.4935  0.1262  0.4504
 7916SOL     OW31429   2.251   2.777   2.108 -0.3753  0.1952  0.1618
 7916SOL    HW231430   2.256   2.808   2.018  1.1007  0.1145  0.1971
 7916SOL    HW331431   2.159   2.757   2.122 -0.9056  1.8049 -0.7977
 7916SOL    MW431432   2.240   2.779   2.098 -0.2505  0.3970  0.0399
 7917SOL     OW31433   2.703   4.568   1.554  0.0328 -0.3662  0.6250
 7917SOL    HW231434   2.731   4.645   1.504 -2.0587 -0.6955 -1.1921
 7917SOL    HW331435   2.655   4.604   1.629  0.9502  0.0800  1.0284
 7917SOL    MW431436   2.700   4.583   1.557 -0.1221 -0.3508  0.4385
 7918SOL     OW31437   5.710   0.881   4.889  0.2725 -0.7232  0.0775
 7918SOL    HW231438   5.746   0.874   4.800 -1.2038  0.0779 -0.6129
 7918SOL    HW331439   5.787   0.890   4.945  1.1959  2.1444 -1.4475
 7918SOL    MW431440   5.725   0.881   4.885  0.1996 -0.2391 -0.2148
 7919SOL     OW31441   1.876   0.935   3.636 -0.5633  0.3646 -0.1724
 7919SOL    HW231442   1.852   0.977   3.718  0.7965  0.8393  0.0087
 7919SOL    HW331443   1.835   0.848   3.640 -0.9525  0.5851  0.7657
 7919SOL    MW431444   1.868   0.929   3.647 -0.4352  0.4563 -0.0247
 7920SOL     OW31445   1.479   2.244   0.542  0.1433 -0.1797 -0.4068
 7920SOL    HW231446   1.474   2.150   0.524  0.4576 -0.6190  1.5567
 7920SOL    HW331447   1.572   2.265   0.533 -0.0203  0.1347 -1.5634
 7920SOL    MW431448   1.491   2.235   0.538  0.1632 -0.1962 -0.3003
 7921SOL     OW31449   0.530   5.711   2.211 -0.2677  0.2951  0.2566
 7921SOL    HW231450   0.550   5.788   2.265 -0.4797 -0.0639  0.8474
 7921SOL    HW331451   0.615   5.669   2.197 -0.4066 -0.5575  1.7586
 7921SOL    MW431452   0.544   5.716   2.216 -0.3140  0.1352  0.5327
 7922SOL     OW31453   3.653   0.966   3.152 -0.3611 -0.0321  0.3150
 7922SOL    HW231454   3.632   0.896   3.214  1.9197 -0.4770  0.6513
 7922SOL    HW331455   3.722   0.930   3.096 -1.7794  0.6255 -2.0525
 7922SOL    MW431456   3.659   0.952   3.152 -0.2473 -0.0040  0.0470
 7923SOL     OW31457   5.676   4.197   3.825  0.7403 -0.2738  0.4338
 7923SOL    HW231458   5.757   4.162   3.787  0.2378  0.7635 -1.7410
 7923SOL    HW331459   5.607   4.171   3.763 -0.0695  1.8958  0.3444
 7923SOL    MW431460   5.677   4.189   3.812  0.5671  0.1493  0.1351
 7924SOL     OW31461   1.973   3.738   6.380 -0.1885 -0.2118  0.5255
 7924SOL    HW231462   1.997   3.830   6.394  1.1383 -0.3883 -0.3076
 7924SOL    HW331463   1.914   3.740   6.305  1.7960 -0.1811 -1.1341
 7924SOL    MW431464   1.968   3.750   6.372  0.2484 -0.2310  0.1966
 7925SOL     OW31465   3.169   1.036   4.888  0.3428 -0.1309 -0.6072
 7925SOL    HW231466   3.201   0.946   4.896  0.6698  0.1661  2.0713
 7925SOL    HW331467   3.074   1.028   4.892  0.3743 -0.3515 -0.2753
 7925SOL    MW431468   3.161   1.023   4.889  0.3901 -0.1208 -0.2100
 7926SOL     OW31469   3.414   4.152   3.026  0.2696  0.0632  0.0281
 7926SOL    HW231470   3.362   4.093   2.971  0.4384 -0.6298  0.5864
 7926SOL    HW331471   3.505   4.128   3.007  0.3930  1.2740 -0.9499
 7926SOL    MW431472   3.419   4.141   3.017  0.3082  0.1315 -0.0272
 7927SOL     OW31473   5.833   4.129   2.302  0.3289 -0.1334  0.0906
 7927SOL    HW231474   5.806   4.219   2.286 -3.2584 -1.1018 -0.1876
 7927SOL    HW331475   5.880   4.104   2.222  0.8955  1.2891 -0.0494
 7927SOL    MW431476   5.835   4.137   2.289 -0.0696 -0.0735  0.0354
 7928SOL     OW31477   2.539   5.905   3.357 -0.3820 -0.6245  0.3233
 7928SOL    HW231478   2.567   5.816   3.374 -2.1678 -1.5901 -1.2938
 7928SOL    HW331479   2.445   5.897   3.337 -0.6393  1.6358  0.3647
 7928SOL    MW431480   2.530   5.892   3.356 -0.6516 -0.4537  0.1154
 7929SOL     OW31481   4.690   0.436   0.195  0.0594 -0.4175  0.0723
 7929SOL    HW231482   4.597   0.448   0.176  0.1794 -0.3949 -0.5081
 7929SOL    HW331483   4.717   0.364   0.138  0.2572 -0.8306  0.6824
 7929SOL    MW431484   4.682   0.428   0.185  0.1013 -0.4690  0.0762
 7930SOL     OW31485   3.858   1.891   1.613 -0.1866 -0.2190  0.0181
 7930SOL    HW231486   3.922   1.959   1.590  0.6797  0.1980  3.2808
 7930SOL    HW331487   3.908   1.810   1.609  0.3419  0.0012  1.5978
 7930SOL    MW431488   3.873   1.889   1.609 -0.0026 -0.1350  0.6570
 7931SOL     OW31489   1.672   5.014   0.047 -0.0663 -0.7529 -0.2649
 7931SOL    HW231490   1.714   5.084  -0.002 -0.1451 -0.4233  0.1305
 7931SOL    HW331491   1.610   4.974  -0.015 -0.1448 -0.3603 -0.4392
 7931SOL    MW431492   1.669   5.018   0.032 -0.0870 -0.6576 -0.2357
 7932SOL     OW31493   3.729   2.987   1.167 -0.1716 -0.2712  0.1252
 7932SOL    HW231494   3.633   2.982   1.158 -0.1715 -1.9911  0.6021
 7932SOL    HW331495   3.760   2.903   1.132  1.3666  1.0668 -1.9397
 7932SOL    MW431496   3.720   2.975   1.161  0.0313 -0.3216 -0.0843
 7933SOL     OW31497   1.790   1.451   4.084 -0.3085  0.0530 -0.8430
 7933SOL    HW231498   1.756   1.515   4.020  0.5343 -0.9147 -2.3273
 7933SOL    HW331499   1.879   1.434   4.055 -0.1984 -1.0718  0.1093
 7933SOL    MW431500   1.797   1.457   4.071 -0.1827 -0.2231 -0.9132
 7934SOL     OW31501   2.222   1.665   6.357 -1.1937 -0.0912 -0.2988
 7934SOL    HW231502   2.166   1.588   6.347 -1.2632 -0.3551  1.6500
 7934SOL    HW331503   2.301   1.631   6.399 -1.1683  0.8569  0.4558
 7934SOL    MW431504   2.225   1.650   6.362 -1.1995 -0.0010  0.0579
 7935SOL     OW31505   4.218   5.404   4.512  0.4268 -0.4109  0.4796
 7935SOL    HW231506   4.175   5.346   4.449 -1.0610 -0.3061  1.3640
 7935SOL    HW331507   4.265   5.345   4.571  0.5181 -0.6020  0.2173
 7935SOL    MW431508   4.219   5.388   4.511  0.2426 -0.4223  0.5617
 7936SOL     OW31509   6.464   6.310   4.080 -0.1633 -0.1106  0.0773
 7936SOL    HW231510   6.412   6.235   4.111 -2.2066  0.0944 -2.4918
 7936SOL    HW331511   6.486   6.288   3.989 -0.0919  2.0186 -0.4766
 7936SOL    MW431512   6.460   6.297   4.072 -0.4235  0.1973 -0.3347
 7937SOL     OW31513   3.605   5.811   3.105 -0.3538 -0.6208  0.8324
 7937SOL    HW231514   3.579   5.898   3.075  0.0671 -0.1391  1.8108
 7937SOL    HW331515   3.584   5.753   3.032 -1.0532  0.2338  0.3375
 7937SOL    MW431516   3.599   5.815   3.091 -0.3905 -0.4445  0.8962
 7938SOL     OW31517   3.295   0.090   3.354 -0.1967 -0.0464  0.1362
 7938SOL    HW231518   3.342   0.044   3.284  0.5664 -1.2605  1.3749
 7938SOL    HW331519   3.346   0.070   3.433 -0.4361  2.1293  0.9053
 7938SOL    MW431520   3.308   0.081   3.355 -0.1276  0.0805  0.4011
 7939SOL     OW31521   3.496   3.350   5.493  0.3877  0.1421  0.1582
 7939SOL    HW231522   3.566   3.350   5.558 -0.9195  1.8598  1.6702
 7939SOL    HW331523   3.430   3.290   5.530 -0.0465  0.5560  0.0555
 7939SOL    MW431524   3.497   3.342   5.507  0.1579  0.4234  0.3442
 7940SOL     OW31525   3.358   3.017   5.497  0.0939 -0.0488  0.3756
 7940SOL    HW231526   3.341   3.058   5.582  0.8289 -1.3868  1.2084
 7940SOL    HW331527   3.361   2.923   5.516  0.1899 -0.3805 -1.1547
 7940SOL    MW431528   3.356   3.010   5.511  0.2035 -0.2691  0.2836
 7941SOL     OW31529   1.586   4.243   3.663 -0.1288  0.0002 -0.3725
 7941SOL    HW231530   1.640   4.302   3.610 -0.2960  0.5544  0.0599
 7941SOL    HW331531   1.632   4.159   3.660  0.3600  0.2720 -0.6193
 7941SOL    MW431532   1.600   4.240   3.655 -0.0864  0.1091 -0.3480
 7942SOL     OW31533   5.837   4.841   2.939 -0.0454  0.0207  0.1296
 7942SOL    HW231534   5.882   4.782   2.879 -1.0325 -0.4879 -0.1260
 7942SOL    HW331535   5.843   4.797   3.024  0.8674  0.4774  0.3215
 7942SOL    MW431536   5.844   4.827   2.942 -0.0552  0.0138  0.1212
 7943SOL     OW31537   6.382   5.776   4.434  0.3570 -0.3733  0.1222
 7943SOL    HW231538   6.464   5.782   4.386 -0.5445 -0.6416 -1.5009
 7943SOL    HW331539   6.368   5.865   4.468  2.5743 -0.8876  2.6830
 7943SOL    MW431540   6.391   5.789   4.432  0.5306 -0.4765  0.2459
 7944SOL     OW31541   4.789   4.274   2.319 -0.5037  0.1989 -0.1018
 7944SOL    HW231542   4.869   4.308   2.358  0.0379  0.3392 -1.3099
 7944SOL    HW331543   4.815   4.242   2.233 -1.8574  0.8084 -0.7731
 7944SOL    MW431544   4.803   4.274   2.313 -0.6109  0.2979 -0.3498
 7945SOL     OW31545   6.278   1.120   1.753 -0.3571 -0.1085  0.0839
 7945SOL    HW231546   6.300   1.108   1.846  0.2131 -0.0386 -0.0373
 7945SOL    HW331547   6.254   1.213   1.746 -3.0171 -0.6844  0.6710
 7945SOL    MW431548   6.278   1.131   1.765 -0.6328 -0.1753  0.1454
 7946SOL     OW31549   4.949   2.306   5.295 -0.5003  0.1115 -0.0385
 7946SOL    HW231550   5.010   2.324   5.224  0.1111  1.1789  0.7149
 7946SOL    HW331551   5.001   2.317   5.375 -1.5149  0.3903  0.6085
 7946SOL    MW431552   4.964   2.310   5.296 -0.5535  0.2891  0.1463
 7947SOL     OW31553   2.641   3.917   2.589  0.7070  0.2945 -1.0669
 7947SOL    HW231554   2.681   3.960   2.664  0.8340  1.3165 -1.6946
 7947SOL    HW331555   2.681   3.830   2.586 -0.7590 -0.5608  1.2221
 7947SOL    MW431556   2.651   3.911   2.598  0.5303  0.3165 -0.8477
 7948SOL     OW31557   5.293   2.470   2.657  0.1534  0.1060 -0.1274
 7948SOL    HW231558   5.343   2.429   2.587  2.1929 -1.1309  1.8858
 7948SOL    HW331559   5.204   2.440   2.644  0.7134 -1.0877 -1.4604
 7948SOL    MW431560   5.288   2.461   2.646  0.4964 -0.2147 -0.0377
 7949SOL     OW31561   5.389   2.128   2.991 -0.3562 -0.4073 -0.1179
 7949SOL    HW231562   5.450   2.085   3.051 -0.6239  0.7102  1.0012
 7949SOL    HW331563   5.383   2.068   2.916 -1.8016 -3.0687  1.9316
 7949SOL    MW431564   5.396   2.114   2.989 -0.5823 -0.6110  0.3002
 7950SOL     OW31565   1.865   1.960   1.765 -0.4476  0.4614 -0.0702
 7950SOL    HW231566   1.781   1.972   1.719 -0.9885  0.1474  0.8093
 7950SOL    HW331567   1.931   1.967   1.696 -1.1665  1.2304 -0.7001
 7950SOL    MW431568   1.862   1.962   1.750 -0.6138  0.5214 -0.0373
 7951SOL     OW31569   5.542   3.424   5.551  0.4452  0.1509 -0.1329
 7951SOL    HW231570   5.461   3.473   5.544  0.6769  0.4891 -0.4865
 7951SOL    HW331571   5.528   3.364   5.625  0.3769  1.1500  0.6846
 7951SOL    MW431572   5.530   3.423   5.560  0.4668  0.3273 -0.0717
 7952SOL     OW31573   3.609   4.515   2.269 -0.1017  0.3543  0.1729
 7952SOL    HW231574   3.550   4.486   2.338 -0.3355 -3.1558 -1.2795
 7952SOL    HW331575   3.696   4.511   2.307 -0.4566  2.1290  1.2814
 7952SOL    MW431576   3.613   4.511   2.283 -0.1794  0.1253  0.1275
 7953SOL     OW31577   4.130   2.172   5.039 -0.0383 -0.2677 -0.5480
 7953SOL    HW231578   4.193   2.104   5.016  0.9480  0.5471 -0.3224
 7953SOL    HW331579   4.077   2.183   4.960  0.9342 -0.0693 -1.1941
 7953SOL    MW431580   4.131   2.165   5.025  0.2201 -0.1340 -0.6035
 7954SOL     OW31581   5.429   6.342   0.624  0.3326 -0.3523  0.0830
 7954SOL    HW231582   5.373   6.301   0.690  1.0054 -2.0570 -0.3414
 7954SOL    HW331583   5.368   6.376   0.559 -0.2485 -2.0485 -0.2975
 7954SOL    MW431584   5.414   6.341   0.624  0.3447 -0.8010 -0.0232
 7955SOL     OW31585   4.535   0.034   3.111  0.2292  0.8250  0.3999
 7955SOL    HW231586   4.505   0.070   3.028 -0.3075 -1.3238 -0.4195
 7955SOL    HW331587   4.615  -0.014   3.090 -0.1176 -0.0602  1.0188
 7955SOL    MW431588   4.541   0.032   3.098  0.1127  0.4247  0.3734
 7956SOL     OW31589   4.618   0.758   4.010  1.1200  0.7368 -0.7770
 7956SOL    HW231590   4.691   0.696   4.011  2.0359  1.7518  1.2408
 7956SOL    HW331591   4.648   0.832   4.063 -1.8041  0.6317  1.2840
 7956SOL    MW431592   4.632   0.759   4.017  0.8551  0.8569 -0.2389
 7957SOL     OW31593   1.956   5.783   4.525 -0.0594  0.0530 -0.0730
 7957SOL    HW231594   1.952   5.689   4.511  0.6920  0.0206 -0.1151
 7957SOL    HW331595   2.028   5.795   4.587  0.1714  0.6370 -0.4477
 7957SOL    MW431596   1.965   5.772   4.532  0.0702  0.1258 -0.1280
 7958SOL     OW31597   0.576   2.460   1.417  1.0025 -0.3085  0.3508
 7958SOL    HW231598   0.536   2.418   1.341  0.2854 -2.6447  1.8920
 7958SOL    HW331599   0.630   2.392   1.456  1.0959  0.7059  2.1119
 7958SOL    MW431600   0.578   2.446   1.412  0.9202 -0.4829  0.7865
 7959SOL     OW31601   5.867   0.906   2.020 -0.0470 -0.2927 -0.1692
 7959SOL    HW231602   5.850   0.984   2.072 -2.5770 -1.1787  0.5156
 7959SOL    HW331603   5.952   0.874   2.050  0.4558  1.4893  0.4062
 7959SOL    MW431604   5.876   0.912   2.031 -0.3145 -0.1745 -0.0029
 7960SOL     OW31605   5.173   0.345   2.661 -0.0226  0.4748  0.0064
 7960SOL    HW231606   5.128   0.425   2.636  1.6183  1.7600  0.9386
 7960SOL    HW331607   5.215   0.315   2.580  3.5670  3.4807  0.4521
 7960SOL    MW431608   5.173   0.352   2.647  0.6675  1.0409  0.1882
 7961SOL     OW31609   3.006   3.232   3.165  0.6561  0.2508 -0.1221
 7961SOL    HW231610   2.961   3.301   3.117  1.5573  0.1452 -1.1414
 7961SOL    HW331611   2.996   3.258   3.257  1.5477  2.1087 -0.4978
 7961SOL    MW431612   2.999   3.245   3.171  0.8926  0.4820 -0.3062
 7962SOL     OW31613   5.069   3.239   4.459  0.1483  0.4074 -0.3639
 7962SOL    HW231614   5.068   3.255   4.365  0.6645 -0.1759 -0.4762
 7962SOL    HW331615   5.128   3.164   4.470 -0.8115 -0.2829  0.2961
 7962SOL    MW431616   5.077   3.231   4.448  0.0897  0.2393 -0.2917
 7963SOL     OW31617   0.862   4.433   3.403  0.1857  0.4425  0.2568
 7963SOL    HW231618   0.940   4.485   3.382  1.1536 -1.3037 -0.7605
 7963SOL    HW331619   0.892   4.374   3.472 -0.1104 -0.4642 -0.3702
 7963SOL    MW431620   0.877   4.432   3.409  0.2744  0.0925  0.0398
 7964SOL     OW31621   0.040   6.120   0.738 -0.8894 -0.3551 -0.0146
 7964SOL    HW231622   0.130   6.152   0.726 -0.5482 -1.5918 -0.8775
 7964SOL    HW331623   0.044   6.027   0.715 -2.4181 -0.4106 -0.1502
 7964SOL    MW431624   0.053   6.112   0.734 -1.0461 -0.5256 -0.1463
 7965SOL     OW31625   5.405   5.601   0.880  0.3489  0.1082 -0.2941
 7965SOL    HW231626   5.494   5.566   0.868  0.5689  0.0188  1.3050
 7965SOL    HW331627   5.347   5.527   0.859  0.7133 -0.2715  0.0066
 7965SOL    MW431628   5.409   5.587   0.876  0.4260  0.0463 -0.0435
 7966SOL     OW31629   3.215   4.277   0.586  0.1493  0.6274  0.3508
 7966SOL    HW231630   3.264   4.269   0.668 -0.6687 -0.3878  0.7680
 7966SOL    HW331631   3.144   4.214   0.595 -0.3400  0.9813 -0.8755
 7966SOL    MW431632   3.212   4.268   0.598 -0.0232  0.5402  0.2440
 7967SOL     OW31633   1.726   4.016   0.635 -0.2130  0.4094 -0.0591
 7967SOL    HW231634   1.708   3.922   0.638  1.6267 -0.0897 -1.8714
 7967SOL    HW331635   1.819   4.023   0.657 -0.3314  1.8035  0.0734
 7967SOL    MW431636   1.736   4.004   0.638  0.0141  0.5275 -0.2808
 7968SOL     OW31637   0.564   6.355   5.750  0.0792 -0.6139  0.1353
 7968SOL    HW231638   0.472   6.380   5.745 -0.0938 -1.4341 -2.2560
 7968SOL    HW331639   0.604   6.420   5.808 -1.7851  0.3666  0.4041
 7968SOL    MW431640   0.557   6.367   5.757 -0.1896 -0.5927 -0.1448
 7969SOL     OW31641   6.264   2.159   1.507  0.1255 -0.1989  0.8829
 7969SOL    HW231642   6.251   2.101   1.582  0.1537  0.3635  1.3271
 7969SOL    HW331643   6.336   2.119   1.458 -1.5352 -1.9893 -0.2653
 7969SOL    MW431644   6.272   2.146   1.510 -0.0899 -0.3609  0.7900
 7970SOL     OW31645   1.144   4.084   3.452 -0.0125 -0.1147 -0.0702
 7970SOL    HW231646   1.189   4.124   3.378  0.6765 -0.6335  0.0587
 7970SOL    HW331647   1.213   4.065   3.515 -0.3161 -1.5084 -0.1318
 7970SOL    MW431648   1.159   4.087   3.450  0.0383 -0.3670 -0.0613
 7971SOL     OW31649   1.042   6.124   3.370 -0.5651  0.4537 -0.0994
 7971SOL    HW231650   1.040   6.199   3.429  0.4203 -0.7565  1.5447
 7971SOL    HW331651   1.131   6.090   3.377 -0.0965  0.7824 -3.0212
 7971SOL    MW431652   1.054   6.129   3.378 -0.3733  0.3374 -0.2680
 7972SOL     OW31653   5.954   4.385   4.104 -0.2714 -0.3538 -0.2870
 7972SOL    HW231654   5.889   4.441   4.062 -0.2219 -1.0030 -1.2559
 7972SOL    HW331655   6.009   4.353   4.032  0.7697 -0.2740  0.4498
 7972SOL    MW431656   5.953   4.388   4.089 -0.1275 -0.4290 -0.3177
 7973SOL     OW31657   4.674   2.460   2.089  0.0527 -0.7290  0.2396
 7973SOL    HW231658   4.733   2.412   2.031 -0.0891  1.1270 -1.5552
 7973SOL    HW331659   4.731   2.496   2.157  0.8382  0.0920 -0.8334
 7973SOL    MW431660   4.689   2.459   2.091  0.1376 -0.3758 -0.1388
 7974SOL     OW31661   1.129   0.305   0.370  0.0789 -0.5861  0.0665
 7974SOL    HW231662   1.104   0.384   0.418  0.3889 -0.2569 -0.3057
 7974SOL    HW331663   1.051   0.249   0.373 -0.8603  0.5698 -1.3801
 7974SOL    MW431664   1.116   0.308   0.377 -0.0041 -0.3901 -0.1735
 7975SOL     OW31665   4.414   0.027   3.994  0.3541 -0.1539 -0.0497
 7975SOL    HW231666   4.413  -0.056   4.042  0.1047  0.3547  0.8448
 7975SOL    HW331667   4.477   0.013   3.923  0.3657 -1.0815  0.1348
 7975SOL    MW431668   4.422   0.014   3.991  0.3227 -0.2091  0.0927
 7976SOL     OW31669   0.324   3.180   1.806 -0.6287 -0.0569  0.1861
 7976SOL    HW231670   0.291   3.161   1.718 -0.6284 -0.1824  0.2128
 7976SOL    HW331671   0.365   3.098   1.834 -1.2021 -0.2189  0.5621
 7976SOL    MW431672   0.325   3.167   1.798 -0.7043 -0.0948  0.2392
 7977SOL     OW31673   2.742   3.900   3.577  1.0099 -0.0473  0.0195
 7977SOL    HW231674   2.783   3.890   3.663  1.0019  0.4963  0.0921
 7977SOL    HW331675   2.787   3.974   3.538  1.3428 -0.5963 -0.6481
 7977SOL    MW431676   2.753   3.909   3.583  1.0528 -0.0480 -0.0590
 7978SOL     OW31677   3.564   2.889   0.482  1.0814 -0.3396  0.2431
 7978SOL    HW231678   3.587   2.980   0.497  0.3544 -0.3316  1.5283
 7978SOL    HW331679   3.645   2.847   0.452  1.1674  0.9191 -1.4218
 7978SOL    MW431680   3.577   2.895   0.480  0.9968 -0.1725  0.1930
 7979SOL     OW31681   2.343   5.188   0.351 -0.2460 -0.3231  0.8065
 7979SOL    HW231682   2.350   5.187   0.447 -0.9085 -2.8422  0.9125
 7979SOL    HW331683   2.249   5.174   0.334  0.0126 -0.9850 -0.1774
 7979SOL    MW431684   2.331   5.186   0.362 -0.2993 -0.7428  0.6907
 7980SOL     OW31685   0.331   6.039   2.242 -0.0996  0.0593  0.3223
 7980SOL    HW231686   0.255   6.097   2.237 -0.7509 -0.8370 -2.6605
 7980SOL    HW331687   0.314   5.983   2.317 -2.0690  0.3364  0.1448
 7980SOL    MW431688   0.319   6.039   2.251 -0.4454 -0.0224 -0.0946
 7981SOL     OW31689   2.726   1.514   6.122  0.2376 -0.1480 -0.1154
 7981SOL    HW231690   2.812   1.501   6.081  0.6493  1.1487  0.2699
 7981SOL    HW331691   2.668   1.453   6.077  0.7067  1.0287 -2.4899
 7981SOL    MW431692   2.730   1.504   6.111  0.3538  0.1784 -0.3778
 7982SOL     OW31693   4.291   2.785   6.000  0.1605 -0.1982  0.3967
 7982SOL    HW231694   4.323   2.806   5.913 -0.6825 -1.7139 -0.3289
 7982SOL    HW331695   4.368   2.793   6.057  0.1290  3.7494  0.1428
 7982SOL    MW431696   4.305   2.789   5.996  0.0451  0.1227  0.2675
 7983SOL     OW31697   4.064   4.129   0.395 -0.1268  0.0601 -0.4514
 7983SOL    HW231698   4.099   4.212   0.363  2.0442 -0.4224  0.4986
 7983SOL    HW331699   4.020   4.152   0.477  0.7848  0.2551 -0.0006
 7983SOL    MW431700   4.063   4.143   0.402  0.2799  0.0221 -0.2666
 7984SOL     OW31701   0.801   5.867   1.177 -0.0459 -0.3814  0.1086
 7984SOL    HW231702   0.884   5.894   1.216  0.0774  1.8258 -1.5014
 7984SOL    HW331703   0.737   5.877   1.247  0.7924 -0.5450  0.9166
 7984SOL    MW431704   0.804   5.872   1.191  0.0810 -0.1118  0.0028
 7985SOL     OW31705   5.639   5.606   0.325  0.0602  0.1502  0.0544
 7985SOL    HW231706   5.718   5.633   0.277 -0.0392 -0.8766 -0.7137
 7985SOL    HW331707   5.625   5.676   0.388  2.1921 -0.1067  0.9142
 7985SOL    MW431708   5.648   5.619   0.327  0.3284 -0.0192  0.0665
 7986SOL     OW31709   2.234   0.558   4.153  0.2821  0.5525  0.1126
 7986SOL    HW231710   2.328   0.569   4.160  0.4525 -1.5647  2.7862
 7986SOL    HW331711   2.223   0.495   4.082  0.8441  0.9397 -0.3275
 7986SOL    MW431712   2.245   0.551   4.145  0.3787  0.3242  0.4073
 7987SOL     OW31713   0.928   1.399   0.401 -0.2812 -0.0453 -0.0588
 7987SOL    HW231714   0.982   1.320   0.403 -0.2708 -0.0505 -0.4726
 7987SOL    HW331715   0.991   1.471   0.395 -0.2482 -0.1416 -4.3888
 7987SOL    MW431716   0.944   1.398   0.400 -0.2755 -0.0587 -0.6847
 7988SOL     OW31717   5.365   3.892   2.125 -0.1749 -0.1965 -0.5632
 7988SOL    HW231718   5.337   3.941   2.048 -0.3353  2.5874  1.1387
 7988SOL    HW331719   5.461   3.896   2.124 -0.1895  0.2564 -0.3898
 7988SOL    MW431720   5.374   3.899   2.115 -0.1980  0.2305 -0.3158
 7989SOL     OW31721   0.916   6.077   2.217  0.2409 -0.2962  0.1758
 7989SOL    HW231722   0.835   6.028   2.200  0.6113 -0.2978 -1.9252
 7989SOL    HW331723   0.961   6.026   2.284 -1.6047 -0.1206  1.6220
 7989SOL    MW431724   0.911   6.064   2.224  0.0463 -0.2733  0.0894
 7990SOL     OW31725   4.847   5.772   3.224  0.5554 -0.5770 -0.3274
 7990SOL    HW231726   4.922   5.814   3.182 -0.1207 -0.8373 -1.8795
 7990SOL    HW331727   4.836   5.690   3.176 -0.2994 -0.8616  0.3319
 7990SOL    MW431728   4.855   5.767   3.212  0.3534 -0.6489 -0.4452
 7991SOL     OW31729   3.447   0.154   2.511 -0.1678  0.0188 -0.1546
 7991SOL    HW231730   3.352   0.143   2.514  0.0075 -1.7989 -0.1288
 7991SOL    HW331731   3.479   0.072   2.473  1.5307 -0.3001  1.8222
 7991SOL    MW431732   3.439   0.141   2.506  0.0794 -0.2631  0.1096
 7992SOL     OW31733   2.266   2.023   4.698 -0.2588  0.1414  0.1143
 7992SOL    HW231734   2.255   1.941   4.745 -0.1865 -0.2558 -0.5577
 7992SOL    HW331735   2.357   2.050   4.717 -0.9301  1.2102  2.1234
 7992SOL    MW431736   2.277   2.016   4.707 -0.3378  0.2300  0.2907
 7993SOL     OW31737   5.945   4.327   2.004 -0.1340  0.5990 -0.5874
 7993SOL    HW231738   5.858   4.294   1.981  0.0742  0.2896 -0.9633
 7993SOL    HW331739   5.949   4.321   2.099 -0.0960 -0.5215 -0.6445
 7993SOL    MW431740   5.934   4.322   2.013 -0.1015  0.4104 -0.6445
 7994SOL     OW31741   3.343   4.547   4.787 -0.2814 -0.7660 -0.0855
 7994SOL    HW231742   3.418   4.517   4.736  0.1540  0.0911  0.0254
 7994SOL    HW331743   3.375   4.548   4.877  0.3476  1.7412 -0.2598
 7994SOL    MW431744   3.357   4.543   4.792 -0.1410 -0.3222 -0.0938
 7995SOL     OW31745   6.126   3.026   3.580 -0.2217  0.0904  0.6063
 7995SOL    HW231746   6.053   2.969   3.604 -1.5449  1.7716  0.7684
 7995SOL    HW331747   6.104   3.111   3.620  1.4794  0.8199  0.0717
 7995SOL    MW431748   6.113   3.030   3.588 -0.1719  0.4084  0.5572
 7996SOL     OW31749   2.521   4.298   1.622  0.0067  0.5433 -0.3887
 7996SOL    HW231750   2.577   4.308   1.700 -0.2708  0.1278 -0.1306
 7996SOL    HW331751   2.562   4.226   1.573 -0.2533  0.2916 -0.2389
 7996SOL    MW431752   2.534   4.290   1.626 -0.0642  0.4553 -0.3349
 7997SOL     OW31753   3.329   1.410   0.893  0.1371 -0.7082  0.1042
 7997SOL    HW231754   3.412   1.373   0.922  0.2381 -0.5976 -0.0448
 7997SOL    HW331755   3.327   1.394   0.799  0.2078 -0.2836  0.0293
 7997SOL    MW431756   3.339   1.403   0.885  0.1598 -0.6376  0.0746
 7998SOL     OW31757   4.285   2.343   0.257  0.2999  0.0361 -0.3723
 7998SOL    HW231758   4.293   2.400   0.181  0.0918 -0.2474 -0.6109
 7998SOL    HW331759   4.251   2.260   0.222 -0.8965  0.2633  0.1689
 7998SOL    MW431760   4.281   2.339   0.243  0.1146  0.0287 -0.3324
 7999SOL     OW31761   5.645   5.869   1.498 -0.0169  0.1450  0.2307
 7999SOL    HW231762   5.734   5.841   1.475 -0.3508 -0.9921  0.2680
 7999SOL    HW331763   5.629   5.830   1.584 -0.1983  1.1661  0.6745
 7999SOL    MW431764   5.655   5.861   1.507 -0.0849  0.1297  0.2941
 8000SOL     OW31765   4.392   0.464   0.897 -0.0172 -0.2205 -0.4828
 8000SOL    HW231766   4.476   0.509   0.903  0.3796 -0.9502 -0.4162
 8000SOL    HW331767   4.349   0.480   0.981 -0.3936  0.9937 -0.8832
 8000SOL    MW431768   4.397   0.472   0.909 -0.0145 -0.1565 -0.5268
 8001SOL     OW31769   2.904   1.019   4.909 -0.7832 -0.6919  0.3486
 8001SOL    HW231770   2.852   0.952   4.954  0.2209  0.1191  2.8708
 8001SOL    HW331771   2.839   1.083   4.879 -1.6422 -2.1510 -1.0619
 8001SOL    MW431772   2.889   1.018   4.911 -0.7640 -0.7774  0.4953
 8002SOL     OW31773   3.817   3.817   1.955  0.2403  0.1959 -0.2339
 8002SOL    HW231774   3.875   3.886   1.926 -0.5378  1.0718  0.2348
 8002SOL    HW331775   3.729   3.850   1.936 -0.1931 -0.1620  1.0105
 8002SOL    MW431776   3.813   3.830   1.949  0.0805  0.2642 -0.0079
 8003SOL     OW31777   6.082   2.767   4.247  0.6714  0.5799 -0.6793
 8003SOL    HW231778   6.052   2.712   4.318 -0.4311  0.7017 -1.0255
 8003SOL    HW331779   6.137   2.710   4.193 -0.5505 -0.2497 -1.1013
 8003SOL    MW431780   6.085   2.753   4.249  0.3647  0.4866 -0.7806
 8004SOL     OW31781   1.751   0.266   2.673 -0.0339 -0.1727 -0.5278
 8004SOL    HW231782   1.673   0.250   2.621  0.8329 -1.5444 -1.4819
 8004SOL    HW331783   1.822   0.269   2.609  0.7464  0.6905  0.3439
 8004SOL    MW431784   1.750   0.264   2.658  0.1834 -0.2398 -0.5387
 8005SOL     OW31785   1.200   0.772   0.576  0.4724  0.3345 -0.0661
 8005SOL    HW231786   1.249   0.776   0.494  1.0535  1.0448  0.3082
 8005SOL    HW331787   1.267   0.765   0.644 -0.0408 -1.2380  0.2963
 8005SOL    MW431788   1.215   0.772   0.574  0.4813  0.2208  0.0311
 8006SOL     OW31789   3.339   6.308   4.972  0.5186  0.4663  0.0818
 8006SOL    HW231790   3.335   6.369   4.899 -0.2325  0.7877  0.3836
 8006SOL    HW331791   3.418   6.333   5.021  0.3771  0.9987  0.0344
 8006SOL    MW431792   3.349   6.319   4.969  0.4008  0.5790  0.1154
 8007SOL     OW31793   4.104   5.519   4.184  0.0310 -0.2893 -0.9994
 8007SOL    HW231794   4.113   5.433   4.224 -0.2104  0.3536  0.4882
 8007SOL    HW331795   4.190   5.559   4.193 -0.5089  0.5867  0.6884
 8007SOL    MW431796   4.116   5.513   4.190 -0.0721 -0.0889 -0.5804
 8008SOL     OW31797   1.026   1.729   4.026  0.2758  0.3094 -0.1870
 8008SOL    HW231798   0.948   1.775   4.055  0.0017  0.3806 -0.9965
 8008SOL    HW331799   1.095   1.796   4.024  0.2820  0.3140  0.2331
 8008SOL    MW431800   1.025   1.744   4.029  0.2405  0.3194 -0.2384
 8009SOL     OW31801   1.017   2.887   0.692  0.6236  0.1551 -0.6029
 8009SOL    HW231802   1.056   2.852   0.773  1.2440  1.3859 -0.3446
 8009SOL    HW331803   1.090   2.930   0.647  0.2763 -0.4802 -1.8146
 8009SOL    MW431804   1.032   2.888   0.697  0.6596  0.2337 -0.7287
 8010SOL     OW31805   4.689   2.538   3.776 -0.3145  0.0875  0.2606
 8010SOL    HW231806   4.634   2.616   3.767 -0.2731 -0.0184 -0.9547
 8010SOL    HW331807   4.745   2.558   3.851 -0.7366  0.9569  0.3674
 8010SOL    MW431808   4.689   2.551   3.785 -0.3647  0.1883  0.1143
 8011SOL     OW31809   5.872   2.072   0.166  0.1338  0.5725 -0.0763
 8011SOL    HW231810   5.853   1.978   0.172 -0.7967  0.7543 -0.0633
 8011SOL    HW331811   5.964   2.076   0.141 -0.3312 -0.3729 -2.1456
 8011SOL    MW431812   5.882   2.060   0.164 -0.0503  0.4718 -0.3476
 8012SOL     OW31813   4.351   4.188   2.719  0.8945 -0.3227 -0.0545
 8012SOL    HW231814   4.265   4.150   2.706 -0.0133  1.5046  0.3099
 8012SOL    HW331815   4.359   4.198   2.814  1.4244 -0.3218 -0.0963
 8012SOL    MW431816   4.341   4.184   2.730  0.8446 -0.0815 -0.0120
 8013SOL     OW31817   5.936   3.034   1.483  0.3101 -0.4150 -0.7758
 8013SOL    HW231818   6.015   3.080   1.456 -0.0415  1.1229  0.6588
 8013SOL    HW331819   5.872   3.103   1.498 -0.7898 -1.5117 -0.2888
 8013SOL    MW431820   5.938   3.049   1.481  0.1186 -0.3567 -0.5223
 8014SOL     OW31821   3.844   6.308   2.329 -0.1589  0.0165 -0.2676
 8014SOL    HW231822   3.842   6.330   2.235  1.4118  0.7827 -0.1546
 8014SOL    HW331823   3.900   6.230   2.334  1.0612  0.8803  0.1522
 8014SOL    MW431824   3.851   6.301   2.317  0.2093  0.2316 -0.1973
 8015SOL     OW31825   1.314   1.639   5.482  0.3891  0.0413  0.7644
 8015SOL    HW231826   1.242   1.576   5.484  0.9256 -0.5890  2.8425
 8015SOL    HW331827   1.391   1.588   5.460  0.5007  0.3565  0.4147
 8015SOL    MW431828   1.315   1.624   5.480  0.4746 -0.0003  0.9924
 8016SOL     OW31829   3.067   0.611   0.731 -0.0954  0.6861  0.3987
 8016SOL    HW231830   2.991   0.652   0.771  0.2546  1.2619  0.4805
 8016SOL    HW331831   3.140   0.633   0.788  0.2788  0.8697 -0.1372
 8016SOL    MW431832   3.067   0.619   0.744  0.0002  0.7863  0.3387
 8017SOL     OW31833   1.894   5.145   6.057 -0.7489 -0.1664 -0.3162
 8017SOL    HW231834   1.950   5.070   6.074  1.0946  1.3332  0.6117
 8017SOL    HW331835   1.808   5.107   6.038  0.2727 -2.5029 -0.5971
 8017SOL    MW431836   1.890   5.130   6.057 -0.3709 -0.2768 -0.2308
 8018SOL     OW31837   2.423   3.362   0.410 -0.4222  0.1030 -0.1335
 8018SOL    HW231838   2.506   3.408   0.426 -0.2340 -0.2588 -0.0333
 8018SOL    HW331839   2.383   3.407   0.337 -1.4380  2.0070  1.4986
 8018SOL    MW431840   2.429   3.374   0.403 -0.5314  0.3065  0.0950
 8019SOL     OW31841   3.181   3.720   0.169  0.8753  0.0326 -0.1872
 8019SOL    HW231842   3.257   3.667   0.192 -0.2712 -1.2571  0.8637
 8019SOL    HW331843   3.171   3.782   0.242 -0.8859 -1.9458  1.4159
 8019SOL    MW431844   3.189   3.721   0.182  0.4917 -0.3986  0.1629
 8020SOL     OW31845   4.412   5.472   3.010  0.0744 -0.1705  0.2587
 8020SOL    HW231846   4.450   5.533   2.947 -0.1380 -0.6943 -0.4023
 8020SOL    HW331847   4.423   5.513   3.095 -0.4670  0.9853 -0.2138
 8020SOL    MW431848   4.418   5.485   3.013 -0.0250 -0.0871  0.1091
 8021SOL     OW31849   3.231   3.586   5.645  0.4259  0.0126 -0.5690
 8021SOL    HW231850   3.239   3.598   5.550  1.2241 -1.2796 -0.6859
 8021SOL    HW331851   3.156   3.528   5.656  0.6867 -0.3026 -0.4476
 8021SOL    MW431852   3.222   3.580   5.633  0.5656 -0.1995 -0.5684
 8022SOL     OW31853   1.494   3.992   4.158  0.5284  0.0808 -0.3411
 8022SOL    HW231854   1.409   3.985   4.203 -0.1873 -1.7314 -1.8590
 8022SOL    HW331855   1.474   4.039   4.077  1.7769  3.1473  0.9486
 8022SOL    MW431856   1.480   3.998   4.153  0.5987  0.2463 -0.3712
 8023SOL     OW31857   2.210   5.225   4.821  0.2192  0.1075  0.0299
 8023SOL    HW231858   2.223   5.276   4.741 -1.8293  2.0337  0.8357
 8023SOL    HW331859   2.257   5.275   4.888  1.4849 -1.2195  0.1846
 8023SOL    MW431860   2.218   5.238   4.819  0.1159  0.1866  0.1566
 8024SOL     OW31861   3.905   5.461   3.577 -0.3340 -0.3826  0.3662
 8024SOL    HW231862   3.821   5.421   3.600  0.1251 -0.1914  2.6202
 8024SOL    HW331863   3.966   5.387   3.570 -0.3565 -0.4012  0.3666
 8024SOL    MW431864   3.902   5.446   3.579 -0.2764 -0.3599  0.6636
 8025SOL     OW31865   2.098   1.840   4.258  0.1651 -0.0666  0.0829
 8025SOL    HW231866   2.157   1.913   4.279  1.1134 -0.8506  0.1899
 8025SOL    HW331867   2.134   1.803   4.178 -0.6001 -0.1265 -0.2405
 8025SOL    MW431868   2.110   1.845   4.250  0.1893 -0.1779  0.0544
 8026SOL     OW31869   1.061   4.914   4.763 -0.0746 -0.0102 -0.0810
 8026SOL    HW231870   0.967   4.923   4.752 -0.3307 -0.7538  1.2793
 8026SOL    HW331871   1.088   4.859   4.689 -0.4936  1.1275 -1.1230
 8026SOL    MW431872   1.052   4.908   4.751 -0.1637  0.0418 -0.0390
 8027SOL     OW31873   0.646   3.775   1.562  0.2716  0.2479 -0.0367
 8027SOL    HW231874   0.646   3.855   1.614  0.1084 -0.4926  1.1536
 8027SOL    HW331875   0.645   3.805   1.471  0.7055  1.5888  0.3727
 8027SOL    MW431876   0.646   3.789   1.557  0.3073  0.3271  0.1743
 8028SOL     OW31877   4.263   5.289   3.319  0.4815  0.2750 -0.4881
 8028SOL    HW231878   4.227   5.372   3.350 -0.2592 -0.7907  1.7067
 8028SOL    HW331879   4.238   5.284   3.227  0.0023  2.1761 -0.4847
 8028SOL    MW431880   4.255   5.299   3.311  0.3205  0.3852 -0.1981
 8029SOL     OW31881   0.305   2.858   0.849 -0.1706 -0.4574 -0.5348
 8029SOL    HW231882   0.373   2.925   0.855 -1.0622  0.4424 -0.2519
 8029SOL    HW331883   0.338   2.796   0.784  0.7356  0.1754 -0.6936
 8029SOL    MW431884   0.319   2.859   0.841 -0.1686 -0.2552 -0.5184
 8030SOL     OW31885   3.457   0.041   3.078 -0.0293 -0.2009 -0.0612
 8030SOL    HW231886   3.492   0.127   3.056 -0.6670  0.1505  0.2605
 8030SOL    HW331887   3.491  -0.017   3.011 -0.5480  0.5291 -0.9710
 8030SOL    MW431888   3.466   0.045   3.067 -0.1819 -0.0582 -0.1388
 8031SOL     OW31889   1.864   2.338   6.227  0.6717  0.1792 -0.7685
 8031SOL    HW231890   1.864   2.414   6.285  0.1919  0.7788 -1.5345
 8031SOL    HW331891   1.957   2.325   6.206  0.7534  0.5872 -0.6816
 8031SOL    MW431892   1.876   2.347   6.232  0.6192  0.3121 -0.8581
 8032SOL     OW31893   3.409   0.569   3.889 -0.2805 -0.1652  0.3479
 8032SOL    HW231894   3.327   0.610   3.915 -0.0059  0.0111  0.9550
 8032SOL    HW331895   3.461   0.640   3.853  0.0551 -0.0417  1.0613
 8032SOL    MW431896   3.405   0.584   3.888 -0.2000 -0.1257  0.5222
 8033SOL     OW31897   2.537   3.222   5.967  0.4729 -0.1314  0.3623
 8033SOL    HW231898   2.610   3.206   6.026  1.2994 -3.2253 -1.2629
 8033SOL    HW331899   2.461   3.232   6.025  1.4158 -1.8525  2.0191
 8033SOL    MW431900   2.537   3.221   5.982  0.7064 -0.7667  0.3665
 8034SOL     OW31901   2.396   3.361   5.065  0.3285 -0.3914 -0.8467
 8034SOL    HW231902   2.357   3.345   4.979 -0.5620 -2.0015 -0.1775
 8034SOL    HW331903   2.414   3.455   5.066 -3.1223  0.3955 -1.3778
 8034SOL    MW431904   2.393   3.371   5.054 -0.2443 -0.5000 -0.8284
 8035SOL     OW31905   1.324   2.399   5.239 -0.1478  0.0741  0.2951
 8035SOL    HW231906   1.293   2.457   5.170 -0.3086  0.2459  0.5107
 8035SOL    HW331907   1.388   2.343   5.196 -0.2720  0.1575 -0.0010
 8035SOL    MW431908   1.328   2.399   5.224 -0.1854  0.1078  0.2845
 8036SOL     OW31909   3.237   5.365   0.657  0.3277  0.4775  0.5213
 8036SOL    HW231910   3.232   5.390   0.565  0.1862 -0.5967  0.2315
 8036SOL    HW331911   3.331   5.365   0.677  0.3642  0.5658  0.3498
 8036SOL    MW431912   3.249   5.369   0.648  0.3138  0.3474  0.4605
 8037SOL     OW31913   4.948   2.857   4.381 -0.1153 -0.3656  0.3313
 8037SOL    HW231914   4.909   2.819   4.460  0.2806  0.5739  0.9994
 8037SOL    HW331915   4.884   2.922   4.352 -0.4949 -1.0601 -0.4339
 8037SOL    MW431916   4.934   2.861   4.388 -0.1132 -0.3333  0.3185
 8038SOL     OW31917   0.989   3.741   0.569  0.1057 -0.1601 -0.2269
 8038SOL    HW231918   1.066   3.782   0.530  0.9867 -0.9573  0.5922
 8038SOL    HW331919   0.923   3.743   0.500 -0.0795  2.9799 -0.1004
 8038SOL    MW431920   0.991   3.747   0.555  0.1975  0.1490 -0.1021
 8039SOL     OW31921   0.965   3.524   4.244 -0.3709  0.3696  0.0529
 8039SOL    HW231922   1.012   3.531   4.328 -0.1829  0.3211 -0.0461
 8039SOL    HW331923   0.891   3.468   4.263  0.3676 -0.6869 -0.1012
 8039SOL    MW431924   0.962   3.518   4.258 -0.2487  0.2238  0.0195
 8040SOL     OW31925   3.297   3.399   2.545 -0.0571 -0.1179  0.4956
 8040SOL    HW231926   3.350   3.440   2.477  0.0325 -1.7973 -0.5094
 8040SOL    HW331927   3.207   3.414   2.518 -0.0454  0.0832  0.5634
 8040SOL    MW431928   3.292   3.407   2.533 -0.0438 -0.3129  0.3719
 8041SOL     OW31929   5.742   1.718   2.645  0.4463 -0.2401  0.0914
 8041SOL    HW231930   5.742   1.801   2.597  0.0386 -0.7628 -0.8336
 8041SOL    HW331931   5.694   1.737   2.726  1.0912  0.6342  0.2890
 8041SOL    MW431932   5.736   1.732   2.650  0.4776 -0.1937 -0.0046
 8042SOL     OW31933   3.403   2.972   3.630  0.0432  0.2851  0.2350
 8042SOL    HW231934   3.345   2.950   3.703 -0.7687  1.0333 -0.1598
 8042SOL    HW331935   3.349   3.028   3.574  1.3153  1.4246  0.1124
 8042SOL    MW431936   3.388   2.977   3.632  0.1039  0.5342  0.1667
 8043SOL     OW31937   1.045   3.673   4.725  0.2222  0.2342  0.1556
 8043SOL    HW231938   0.951   3.684   4.733  0.0984  0.3252 -1.2206
 8043SOL    HW331939   1.078   3.760   4.703  0.3269 -0.2154 -1.6371
 8043SOL    MW431940   1.037   3.686   4.723  0.2196  0.1869 -0.2625
 8044SOL     OW31941   1.984   0.959   4.798 -0.6711  0.0451  0.0810
 8044SOL    HW231942   2.058   1.017   4.816  0.3142 -1.2672  0.3652
 8044SOL    HW331943   1.917   1.017   4.761  0.1237  1.4289  0.7247
 8044SOL    MW431944   1.985   0.974   4.796 -0.4362  0.0545  0.2034
 8045SOL     OW31945   1.159   1.912   1.523 -0.2332  0.2770  0.0852
 8045SOL    HW231946   1.217   1.963   1.579 -2.9689  1.6206  1.9688
 8045SOL    HW331947   1.094   1.876   1.584 -2.8824  1.0973 -2.0470
 8045SOL    MW431948   1.158   1.914   1.539 -0.9437  0.5625  0.0524
 8046SOL     OW31949   3.127   2.825   1.636  0.0362  0.3902 -0.2865
 8046SOL    HW231950   3.066   2.773   1.584 -1.7206  2.4930 -0.4416
 8046SOL    HW331951   3.154   2.896   1.578  0.0722  1.3150  0.8411
 8046SOL    MW431952   3.123   2.827   1.621 -0.1908  0.7897 -0.1581
 8047SOL     OW31953   5.319   2.745   5.732 -0.7802 -0.6001 -0.2186
 8047SOL    HW231954   5.367   2.663   5.720  0.3980  0.1287 -0.6761
 8047SOL    HW331955   5.335   2.794   5.651  0.8569  1.2182  1.0933
 8047SOL    MW431956   5.327   2.741   5.719 -0.4088 -0.2640 -0.1059
 8048SOL     OW31957   1.281   1.649   3.362  0.3063  0.0545  0.3306
 8048SOL    HW231958   1.325   1.658   3.447  0.9855 -0.7064  0.0678
 8048SOL    HW331959   1.226   1.571   3.372  0.4439 -0.0792  0.0488
 8048SOL    MW431960   1.279   1.640   3.375  0.4141 -0.0635  0.2587
 8049SOL     OW31961   1.217   4.939   5.802  0.0635 -0.1841 -0.6309
 8049SOL    HW231962   1.218   4.895   5.887 -1.7305 -0.5870 -0.7734
 8049SOL    HW331963   1.293   4.904   5.756  1.5111  0.6193  1.0574
 8049SOL    MW431964   1.227   4.929   5.807  0.0178 -0.1313 -0.4269
 8050SOL     OW31965   2.382   0.156   0.118  0.1628  0.2589  0.7236
 8050SOL    HW231966   2.430   0.233   0.089  0.0951  0.3974  0.9739
 8050SOL    HW331967   2.431   0.082   0.083  0.9540  0.3671  1.5604
 8050SOL    MW431968   2.394   0.156   0.109  0.2583  0.2915  0.8670
 8051SOL     OW31969   4.110   4.268   4.326 -0.4075 -0.0433  0.4954
 8051SOL    HW231970   4.082   4.255   4.236 -1.2982 -1.9530  1.0016
 8051SOL    HW331971   4.199   4.302   4.319 -0.1894 -0.8651 -1.1099
 8051SOL    MW431972   4.118   4.271   4.313 -0.4963 -0.4037  0.3504
 8052SOL     OW31973   4.706   0.295   5.854  0.1045 -0.1428  0.2182
 8052SOL    HW231974   4.664   0.331   5.932 -1.3095  1.1705 -1.0799
 8052SOL    HW331975   4.634   0.283   5.792  1.0949 -1.8162 -0.6567
 8052SOL    MW431976   4.691   0.298   5.856  0.0486 -0.1903 -0.0685
 8053SOL     OW31977   3.824   3.358   6.363  0.2818 -0.0673  0.3146
 8053SOL    HW231978   3.743   3.404   6.386  1.1344  1.2162  0.8939
 8053SOL    HW331979   3.796   3.269   6.341 -0.9943 -0.6042  3.5330
 8053SOL    MW431980   3.810   3.353   6.364  0.2259  0.0312  0.8157
 8054SOL     OW31981   3.027   2.297   3.664 -0.1778  0.4882  0.4495
 8054SOL    HW231982   2.939   2.274   3.636 -0.0175 -0.1984  0.5115
 8054SOL    HW331983   3.029   2.393   3.657  0.3505  0.3369 -3.3181
 8054SOL    MW431984   3.016   2.307   3.660 -0.0869  0.3776 -0.0394
 8055SOL     OW31985   0.847   3.411   2.070 -0.5547  0.1169  0.1906
 8055SOL    HW231986   0.920   3.402   2.132 -2.6919 -0.4932  2.8421
 8055SOL    HW331987   0.817   3.321   2.056 -0.3929  0.2912 -1.4941
 8055SOL    MW431988   0.853   3.398   2.076 -0.8153  0.0594  0.3181
 8056SOL     OW31989   4.348   6.239   3.668 -0.0492  0.0191 -0.5464
 8056SOL    HW231990   4.396   6.161   3.641 -1.1239 -1.1418  0.7468
 8056SOL    HW331991   4.256   6.216   3.656 -0.4147  0.7413  0.7029
 8056SOL    MW431992   4.342   6.226   3.663 -0.2393 -0.0388 -0.2109
 8057SOL     OW31993   6.125   5.621   2.919  0.2210 -0.2388 -0.5217
 8057SOL    HW231994   6.151   5.581   3.002 -2.1654 -1.7445 -0.3950
 8057SOL    HW331995   6.192   5.591   2.856 -0.1366 -2.5133  0.0819
 8057SOL    MW431996   6.137   5.612   2.922 -0.1410 -0.7375 -0.4253
 8058SOL     OW31997   2.507   5.363   5.505 -0.2689  0.1883 -0.2046
 8058SOL    HW231998   2.597   5.375   5.476 -0.0931 -1.6867 -0.5555
 8058SOL    HW331999   2.506   5.277   5.546 -1.1855  1.4891  2.8089
 8058SOL    MW432000   2.518   5.353   5.506 -0.3666  0.1125  0.1467
 8059SOL     OW32001   4.405   4.952   1.605  0.3227 -0.1971  0.0643
 8059SOL    HW232002   4.327   4.901   1.582  0.0431  0.2266  0.0632
 8059SOL    HW332003   4.478   4.891   1.594  0.0471 -0.4304 -0.4967
 8059SOL    MW432004   4.404   4.937   1.601  0.2495 -0.1720 -0.0099
 8060SOL     OW32005   6.414   2.156   0.426 -0.3696 -0.6246 -0.3607
 8060SOL    HW232006   6.333   2.105   0.429 -1.1226  0.4114 -1.8641
 8060SOL    HW332007   6.436   2.161   0.333  1.0258 -0.2589 -0.0313
 8060SOL    MW432008   6.406   2.150   0.414 -0.2849 -0.4397 -0.5156
 8061SOL     OW32009   6.351   6.235   1.608  0.3724 -0.4595 -0.7601
 8061SOL    HW232010   6.295   6.260   1.535 -0.1467 -1.0583 -0.5686
 8061SOL    HW332011   6.308   6.271   1.685 -0.0699 -1.4327 -0.5473
 8061SOL    MW432012   6.338   6.243   1.609  0.2455 -0.6669 -0.7067
 8062SOL     OW32013   2.141   2.507   4.711 -0.3243 -0.0635 -0.0400
 8062SOL    HW232014   2.123   2.571   4.780 -2.1525 -0.5397 -0.0267
 8062SOL    HW332015   2.216   2.457   4.744 -0.9332 -0.0570  1.4586
 8062SOL    MW432016   2.149   2.509   4.725 -0.6458 -0.1255  0.1595
 8063SOL     OW32017   1.076   3.800   3.987 -0.0280  0.2799 -0.0866
 8063SOL    HW232018   1.063   3.892   4.012 -0.5095  0.0832  0.3953
 8063SOL    HW332019   1.128   3.804   3.906 -2.9249  1.0927 -2.0598
 8063SOL    MW432020   1.081   3.813   3.980 -0.4737  0.3612 -0.2834
 8064SOL     OW32021   4.234   4.914   4.132  0.1508  0.4740 -0.1105
 8064SOL    HW232022   4.175   4.891   4.204  0.6267 -0.1402  0.0956
 8064SOL    HW332023   4.279   4.832   4.112  0.4317  0.7783 -0.7308
 8064SOL    MW432024   4.232   4.900   4.139  0.2507  0.4331 -0.1651
 8065SOL     OW32025   1.226   1.927   0.588  0.2120 -0.2529 -0.8740
 8065SOL    HW232026   1.176   1.907   0.509 -1.2159  0.2662 -0.1326
 8065SOL    HW332027   1.188   2.008   0.621  1.3550 -0.0117 -0.1044
 8065SOL    MW432028   1.215   1.935   0.582  0.1744 -0.1526 -0.6746
 8066SOL     OW32029   4.688   3.788   3.890 -0.3629 -0.2625  0.0675
 8066SOL    HW232030   4.719   3.699   3.875 -1.5641 -1.0386  1.7646
 8066SOL    HW332031   4.690   3.798   3.986 -1.6990  0.9579  0.0141
 8066SOL    MW432032   4.692   3.778   3.901 -0.6977 -0.2039  0.2844
 8067SOL     OW32033   1.502   3.338   4.898 -0.1728  0.0306  0.0697
 8067SOL    HW232034   1.526   3.252   4.863  0.7418  0.6465 -0.9093
 8067SOL    HW332035   1.456   3.381   4.826 -0.6365  0.3610  0.5563
 8067SOL    MW432036   1.499   3.332   4.884 -0.1133  0.1555  0.0047
 8068SOL     OW32037   5.044   5.931   3.113 -0.8274  0.1068  0.8703
 8068SOL    HW232038   4.977   5.992   3.083 -1.6744 -1.1504  0.1168
 8068SOL    HW332039   5.122   5.954   3.062 -0.9767  0.9208  1.0087
 8068SOL    MW432040   5.045   5.942   3.102 -0.9589  0.0484  0.7891
 8069SOL     OW32041   5.199   5.203   1.625  0.8292  0.1326 -0.5089
 8069SOL    HW232042   5.104   5.194   1.630  0.6980  1.2063 -0.6477
 8069SOL    HW332043   5.226   5.222   1.715  0.7895  0.7439 -0.6210
 8069SOL    MW432044   5.190   5.205   1.637  0.8066  0.3549 -0.5420
 8070SOL     OW32045   2.718   1.667   6.376  0.2027  0.2368  0.0885
 8070SOL    HW232046   2.717   1.621   6.292  0.6138  0.5636 -0.0934
 8070SOL    HW332047   2.770   1.610   6.433 -1.7029 -0.9896  0.7024
 8070SOL    MW432048   2.725   1.653   6.372  0.0055  0.1181  0.1455
 8071SOL     OW32049   2.977   3.484   5.650 -0.4933 -0.4149 -0.0946
 8071SOL    HW232050   2.923   3.425   5.702 -1.1858 -0.3620 -0.7377
 8071SOL    HW332051   2.967   3.452   5.560  2.1821 -1.7094 -0.0334
 8071SOL    MW432052   2.969   3.472   5.645 -0.2317 -0.5787 -0.1714
 8072SOL     OW32053   1.978   1.789   5.531  0.6225 -0.4172 -0.3939
 8072SOL    HW232054   1.917   1.721   5.561 -1.5375  0.1268 -3.0992
 8072SOL    HW332055   1.985   1.849   5.605 -1.9768 -0.6670  0.1752
 8072SOL    MW432056   1.971   1.788   5.545 -0.0055 -0.3784 -0.6757
 8073SOL     OW32057   4.324   0.005   0.894  0.0176  0.1708 -0.2311
 8073SOL    HW232058   4.269   0.049   0.830 -1.0981 -0.4339  0.2838
 8073SOL    HW332059   4.338   0.070   0.963  0.0916  0.3834 -0.4462
 8073SOL    MW432060   4.319   0.019   0.895 -0.1199  0.1191 -0.1915
 8074SOL     OW32061   0.398   3.169   0.714  0.0982  0.2811  0.1326
 8074SOL    HW232062   0.434   3.258   0.715 -1.4340  0.9694 -1.1297
 8074SOL    HW332063   0.414   3.136   0.802  0.8404  1.7536  0.5870
 8074SOL    MW432064   0.405   3.176   0.726 -0.0060  0.5662  0.0260
 8075SOL     OW32065   0.670   2.628   0.332 -0.5184  0.0918  0.2686
 8075SOL    HW232066   0.576   2.621   0.315 -0.4398 -0.9290  0.2282
 8075SOL    HW332067   0.677   2.697   0.399 -1.2007  0.8909 -0.4509
 8075SOL    MW432068   0.659   2.636   0.338 -0.5980  0.0626  0.1683
 8076SOL     OW32069   2.640   4.117   1.398  0.4942 -0.9672 -0.3504
 8076SOL    HW232070   2.577   4.060   1.354 -0.2874 -0.7130  0.4074
 8076SOL    HW332071   2.719   4.063   1.405 -0.0728 -1.8031 -0.0922
 8076SOL    MW432072   2.642   4.102   1.393  0.3163 -1.0440 -0.2163
 8077SOL     OW32073   5.728   5.488   4.603  0.7110 -0.5558  0.0805
 8077SOL    HW232074   5.637   5.482   4.631  0.5271 -1.2449 -0.6234
 8077SOL    HW332075   5.731   5.565   4.547  0.7720 -0.0018  0.8264
 8077SOL    MW432076   5.717   5.498   4.599  0.6948 -0.5736  0.0861
 8078SOL     OW32077   0.078   0.227   3.591 -0.3344 -0.5616  0.2537
 8078SOL    HW232078   0.127   0.154   3.554  0.5669 -0.4559  1.1719
 8078SOL    HW332079   0.142   0.298   3.595 -0.9318 -0.0191  0.2716
 8078SOL    MW432080   0.093   0.227   3.587 -0.2943 -0.4761  0.3772
 8079SOL     OW32081   4.866   1.412   6.360  1.0076 -0.0047 -0.0845
 8079SOL    HW232082   4.933   1.461   6.314  1.8904 -1.0885  0.0102
 8079SOL    HW332083   4.786   1.425   6.309  1.8138 -0.6358 -1.5432
 8079SOL    MW432084   4.864   1.420   6.347  1.2305 -0.2309 -0.2645
 8080SOL     OW32085   3.391   4.836   4.798  0.2606  0.0999  0.1535
 8080SOL    HW232086   3.356   4.873   4.718  0.4512  1.3438  0.6208
 8080SOL    HW332087   3.358   4.746   4.800 -0.2493  0.2511 -0.9949
 8080SOL    MW432088   3.382   4.829   4.788  0.2185  0.2840  0.0636
 8081SOL     OW32089   5.779   1.161   1.220 -0.3664 -0.4356 -0.2719
 8081SOL    HW232090   5.760   1.067   1.230 -0.5857 -0.2560  1.2501
 8081SOL    HW332091   5.698   1.198   1.184 -0.8146 -0.6146  0.5236
 8081SOL    MW432092   5.766   1.153   1.216 -0.4545 -0.4356  0.0339
 8082SOL     OW32093   1.836   0.450   1.403  0.3233 -0.0644  0.3301
 8082SOL    HW232094   1.882   0.366   1.402  0.9875  0.2863  0.7498
 8082SOL    HW332095   1.805   0.461   1.313 -1.4357 -1.6413  0.7036
 8082SOL    MW432096   1.838   0.441   1.391  0.1788 -0.2262  0.4347
 8083SOL     OW32097   0.446   4.566   5.732  0.3252  0.0050 -0.8910
 8083SOL    HW232098   0.446   4.476   5.700  1.0622 -0.6258  0.7712
 8083SOL    HW332099   0.512   4.611   5.680 -0.2556 -0.3230 -1.9342
 8083SOL    MW432100   0.454   4.560   5.721  0.3458 -0.1215 -0.8093
 8084SOL     OW32101   1.270   4.395   1.407 -0.1551 -0.0464  0.0401
 8084SOL    HW232102   1.345   4.339   1.428 -0.5340  0.4015  3.0255
 8084SOL    HW332103   1.195   4.336   1.409 -0.0541 -0.3346 -2.1241
 8084SOL    MW432104   1.270   4.380   1.410 -0.1918 -0.0254  0.1484
 8085SOL     OW32105   3.179   3.625   0.539  0.2678  0.1635 -0.5349
 8085SOL    HW232106   3.118   3.604   0.468  1.3291  0.6922 -1.6482
 8085SOL    HW332107   3.237   3.692   0.501  1.9486 -0.7783  0.2393
 8085SOL    MW432108   3.179   3.631   0.524  0.6296  0.1090 -0.5796
 8086SOL     OW32109   0.301   1.496   1.438 -0.5464 -0.2476 -0.3053
 8086SOL    HW232110   0.308   1.445   1.519  1.7157 -0.5267 -0.6146
 8086SOL    HW332111   0.360   1.570   1.451 -1.5319  0.6922 -1.0303
 8086SOL    MW432112   0.310   1.499   1.450 -0.3780 -0.1604 -0.4417
 8087SOL     OW32113   4.570   1.461   5.388  0.4017  0.3702  0.2086
 8087SOL    HW232114   4.498   1.517   5.419  0.0741 -0.2666  0.6267
 8087SOL    HW332115   4.649   1.512   5.405  0.0472  1.1140 -0.3317
 8087SOL    MW432116   4.571   1.475   5.395  0.3117  0.3843  0.1925
 8088SOL     OW32117   3.816   0.029   4.996  0.1524  0.3135 -0.7533
 8088SOL    HW232118   3.858  -0.001   5.077  2.1358  0.9948 -1.4595
 8088SOL    HW332119   3.809  -0.050   4.943  0.4098  0.1507 -0.5552
 8088SOL    MW432120   3.821   0.015   5.000  0.4480  0.3819 -0.8204
 8089SOL     OW32121   0.797   3.996   6.259 -0.2401 -0.0121 -0.4311
 8089SOL    HW232122   0.825   3.947   6.182  0.4895 -0.4802  0.1137
 8089SOL    HW332123   0.875   4.045   6.285  0.1230 -1.3254  1.1142
 8089SOL    MW432124   0.811   3.996   6.252 -0.0960 -0.2471 -0.1554
 8090SOL     OW32125   4.547   4.463   6.233 -0.5219 -0.1224 -0.4602
 8090SOL    HW232126   4.551   4.558   6.246  0.0013 -0.2010 -0.0067
 8090SOL    HW332127   4.465   4.436   6.275 -1.5500  0.3480 -2.0801
 8090SOL    MW432128   4.537   4.472   6.240 -0.5885 -0.0707 -0.6141
 8091SOL     OW32129   4.723   1.217   5.461  0.6595 -0.4734  0.4479
 8091SOL    HW232130   4.669   1.292   5.434 -0.2972 -0.7554  1.4953
 8091SOL    HW332131   4.807   1.255   5.484  1.1342 -0.0775 -1.7094
 8091SOL    MW432132   4.727   1.232   5.460  0.5959 -0.4584  0.3014
 8092SOL     OW32133   1.090   5.063   1.978  0.1445 -0.7448 -0.4063
 8092SOL    HW232134   1.121   4.977   1.950 -2.2167 -1.6887 -0.3524
 8092SOL    HW332135   1.044   5.097   1.901 -0.6710 -0.4321  0.2082
 8092SOL    MW432136   1.088   5.056   1.964 -0.2746 -0.8281 -0.3181
 8093SOL     OW32137   1.384   4.033   5.742 -0.2507 -0.3157 -0.1710
 8093SOL    HW232138   1.291   4.055   5.743  0.2420  1.9943  0.4648
 8093SOL    HW332139   1.401   3.994   5.828 -0.7100 -1.2053 -0.4758
 8093SOL    MW432140   1.374   4.030   5.753 -0.2463 -0.1283 -0.1273
 8094SOL     OW32141   4.029   1.396   0.974 -0.5273 -0.2672 -0.4319
 8094SOL    HW232142   4.038   1.469   0.913  1.4690 -0.3402 -0.2927
 8094SOL    HW332143   4.046   1.434   1.060  1.7425 -1.0285 -0.4647
 8094SOL    MW432144   4.032   1.411   0.977  0.0355 -0.3773 -0.4179
 8095SOL     OW32145   2.432   5.584   4.425  0.0186 -0.1884 -0.2856
 8095SOL    HW232146   2.388   5.535   4.494  2.3518 -0.0772  1.3743
 8095SOL    HW332147   2.517   5.542   4.414  0.5482  1.1023 -1.6098
 8095SOL    MW432148   2.437   5.572   4.432  0.3963 -0.0034 -0.2413
 8096SOL     OW32149   5.129   5.489   2.141 -0.3861 -0.1481  0.5375
 8096SOL    HW232150   5.049   5.489   2.194 -1.1995 -1.5961 -0.6083
 8096SOL    HW332151   5.196   5.453   2.199 -0.7176  0.4571  1.3036
 8096SOL    MW432152   5.127   5.484   2.156 -0.5371 -0.2593  0.4874
 8097SOL     OW32153   0.221   3.099   4.407  0.0134  0.2444  0.5028
 8097SOL    HW232154   0.229   3.175   4.466  0.9299 -0.0597  0.7914
 8097SOL    HW332155   0.152   3.124   4.345  0.4114  1.3830  0.4932
 8097SOL    MW432156   0.213   3.113   4.407  0.1869  0.3545  0.5396
 8098SOL     OW32157   3.715   3.808   0.988 -0.6139  0.2947 -0.2323
 8098SOL    HW232158   3.703   3.726   1.037 -0.3247 -0.5668 -1.5328
 8098SOL    HW332159   3.790   3.790   0.931 -0.6839  1.3986 -0.6911
 8098SOL    MW432160   3.723   3.795   0.987 -0.5849  0.3267 -0.4644
 8099SOL     OW32161   1.755   0.280   4.678 -0.6388 -0.5072 -0.2823
 8099SOL    HW232162   1.711   0.252   4.758  0.9128  0.2845  0.8847
 8099SOL    HW332163   1.780   0.198   4.635  1.5371 -1.0518  1.7986
 8099SOL    MW432164   1.753   0.265   4.683 -0.1470 -0.4746  0.1462
 8100SOL     OW32165   2.446   0.602   5.911  0.0946 -0.7921  0.4378
 8100SOL    HW232166   2.494   0.644   5.840 -0.6683  1.0341  0.9627
 8100SOL    HW332167   2.358   0.588   5.875 -0.7653  1.5635  1.4472
 8100SOL    MW432168   2.441   0.605   5.897 -0.1195 -0.2403  0.6402
 8101SOL     OW32169   1.468   4.278   6.387 -0.0067  0.0763 -0.5063
 8101SOL    HW232170   1.458   4.373   6.387  0.5704  0.1364 -0.4998
 8101SOL    HW332171   1.448   4.252   6.477 -1.1882  0.0736 -0.7432
 8101SOL    MW432172   1.464   4.287   6.399 -0.0864  0.0839 -0.5367
 8102SOL     OW32173   3.624   1.086   6.386 -0.0492  0.5996  0.1353
 8102SOL    HW232174   3.556   1.148   6.359  0.4076  0.7105 -0.8062
 8102SOL    HW332175   3.702   1.113   6.336  0.4728 -0.0056  0.6056
 8102SOL    MW432176   3.626   1.098   6.376  0.0800  0.5344  0.0731
 8103SOL     OW32177   2.165   5.147   1.060 -0.5489 -0.4329 -0.3282
 8103SOL    HW232178   2.074   5.166   1.036 -0.3056 -1.6023 -2.4953
 8103SOL    HW332179   2.159   5.071   1.118 -0.9964 -0.1263  0.0292
 8103SOL    MW432180   2.152   5.139   1.064 -0.5759 -0.5467 -0.5670
 8104SOL     OW32181   2.728   0.208   2.697 -0.3113 -0.1173 -0.1631
 8104SOL    HW232182   2.734   0.114   2.716 -3.2484 -0.4047 -0.1910
 8104SOL    HW332183   2.702   0.247   2.781  0.1787  0.5743 -0.3316
 8104SOL    MW432184   2.725   0.201   2.711 -0.6342 -0.0640 -0.1890
 8105SOL     OW32185   4.985   4.650   3.060 -0.0047  0.2845  0.4070
 8105SOL    HW232186   5.052   4.712   3.031  1.0613  0.5009  2.9896
 8105SOL    HW332187   5.034   4.581   3.106 -1.3418 -1.3236 -0.4539
 8105SOL    MW432188   5.000   4.649   3.062 -0.0404  0.1009  0.6341
 8106SOL     OW32189   4.128   1.347   2.694  0.2609  0.5313  0.3146
 8106SOL    HW232190   4.212   1.387   2.714  1.4298 -1.8187  0.5429
 8106SOL    HW332191   4.075   1.361   2.773  0.8243  1.1166  0.5950
 8106SOL    MW432192   4.132   1.354   2.707  0.4895  0.2984  0.3817
 8107SOL     OW32193   5.790   3.585   2.505 -0.2608  0.5650  0.6168
 8107SOL    HW232194   5.809   3.521   2.573  2.0792  0.0143 -0.4671
 8107SOL    HW332195   5.791   3.669   2.551  3.7232  0.4780  1.0662
 8107SOL    MW432196   5.793   3.588   2.520  0.5736  0.4808  0.5331
 8108SOL     OW32197   0.138   5.586   1.289  0.4011 -0.1692 -1.0457
 8108SOL    HW232198   0.191   5.549   1.360  1.0250  1.9957 -0.3109
 8108SOL    HW332199   0.070   5.637   1.334 -0.5636 -0.5745 -2.0096
 8108SOL    MW432200   0.136   5.588   1.304  0.3562  0.0630 -1.0759
 8109SOL     OW32201   3.343   3.272   0.398  0.6112 -0.4319  0.3264
 8109SOL    HW232202   3.264   3.265   0.453  0.2102  2.4740  0.2841
 8109SOL    HW332203   3.416   3.258   0.458  0.1303  1.3316  1.4067
 8109SOL    MW432204   3.342   3.269   0.413  0.4948  0.1842  0.4634
 8110SOL     OW32205   0.313   5.423   3.112  0.4448  0.7556 -0.4583
 8110SOL    HW232206   0.229   5.444   3.071  0.8645  1.4963 -0.9493
 8110SOL    HW332207   0.373   5.411   3.039  1.1098  1.6963 -0.0880
 8110SOL    MW432208   0.310   5.424   3.097  0.5879  0.9774 -0.4742
 8111SOL     OW32209   2.080   1.621   2.380  0.4853  0.0082  0.3796
 8111SOL    HW232210   2.157   1.593   2.329  0.3107 -1.0709  0.6735
 8111SOL    HW332211   2.112   1.693   2.434  1.0620  0.1648 -0.1545
 8111SOL    MW432212   2.094   1.627   2.380  0.5384 -0.1135  0.3479
 8112SOL     OW32213   1.283   5.588   6.065  0.3068  0.3367  0.2038
 8112SOL    HW232214   1.216   5.560   6.127 -0.0256  0.3162 -0.1587
 8112SOL    HW332215   1.357   5.530   6.082 -0.6501 -1.3632 -1.0707
 8112SOL    MW432216   1.284   5.577   6.075  0.1367  0.1097 -0.0122
 8113SOL     OW32217   4.788   0.220   6.216 -0.1353  0.0145  0.2438
 8113SOL    HW232218   4.734   0.297   6.195  0.6385  0.4902 -0.0591
 8113SOL    HW332219   4.803   0.227   6.311  0.6239  0.7109  0.0822
 8113SOL    MW432220   4.783   0.231   6.226  0.0670  0.1691  0.1825
 8114SOL     OW32221   1.194   6.386   4.433  0.0465 -0.2299  0.4342
 8114SOL    HW232222   1.142   6.340   4.499 -0.6998  0.4527  0.3359
 8114SOL    HW332223   1.228   6.316   4.376  0.0349 -0.7550  1.0662
 8114SOL    MW432224   1.192   6.371   4.434 -0.0535 -0.2092  0.5046
 8115SOL     OW32225   3.799   3.837   3.710  0.2059 -0.4141 -0.0068
 8115SOL    HW232226   3.887   3.870   3.730  0.0366 -0.8224  1.4476
 8115SOL    HW332227   3.743   3.915   3.711  0.4034 -0.2707 -0.1017
 8115SOL    MW432228   3.803   3.852   3.712  0.2096 -0.4491  0.1726
 8116SOL     OW32229   5.186   6.416   2.482  0.7998 -0.2073 -0.5523
 8116SOL    HW232230   5.241   6.490   2.507  2.3692 -0.6104 -2.5264
 8116SOL    HW332231   5.113   6.418   2.543  0.7803  2.9685 -0.5538
 8116SOL    MW432232   5.184   6.426   2.493  1.0043  0.1585 -0.8129
 8117SOL     OW32233   4.532   6.415   0.477  0.2155  0.4280 -0.5286
 8117SOL    HW232234   4.585   6.381   0.549  1.7876  0.8076 -1.4713
 8117SOL    HW332235   4.582   6.489   0.443  0.2879 -0.6949 -3.0235
 8117SOL    MW432236   4.545   6.420   0.482  0.4324  0.3299 -0.9821
 8118SOL     OW32237   4.209   2.576   4.662  0.6129  0.5025 -0.3435
 8118SOL    HW232238   4.295   2.594   4.624 -0.1726  0.8910 -2.0609
 8118SOL    HW332239   4.201   2.481   4.659  0.9776  0.4652 -0.1886
 8118SOL    MW432240   4.219   2.566   4.656  0.5574  0.5489 -0.5496
 8119SOL     OW32241   5.371   3.920   6.295  0.2957 -0.0573 -0.1707
 8119SOL    HW232242   5.384   3.967   6.212  0.2278  0.5370  0.1516
 8119SOL    HW332243   5.454   3.875   6.310  0.1898 -0.4622 -0.7383
 8119SOL    MW432244   5.384   3.920   6.286  0.2727 -0.0323 -0.2031
 8120SOL     OW32245   2.744   5.447   5.934 -0.0798 -0.1480  0.2105
 8120SOL    HW232246   2.833   5.474   5.954  1.0051 -1.5679 -2.2664
 8120SOL    HW332247   2.716   5.399   6.012  1.3193  0.3226  1.0326
 8120SOL    MW432248   2.752   5.444   5.947  0.2480 -0.2732 -0.0078
 8121SOL     OW32249   6.100   5.890   2.891 -0.0656 -0.2035 -0.0816
 8121SOL    HW232250   6.084   5.796   2.902 -0.1328 -0.2343 -0.4190
 8121SOL    HW332251   6.093   5.904   2.797 -2.6529  0.6031  0.1640
 8121SOL    MW432252   6.097   5.880   2.880 -0.4158 -0.1011 -0.0937
 8122SOL     OW32253   1.307   0.043   1.079  0.6659 -0.1089  0.2239
 8122SOL    HW232254   1.350   0.003   1.004  0.3465  0.2432 -0.1493
 8122SOL    HW332255   1.345   0.130   1.086  0.0893  0.1730 -0.0545
 8122SOL    MW432256   1.317   0.049   1.070  0.5477 -0.0253  0.1380
 8123SOL     OW32257   5.712   5.186   0.282 -0.0692 -0.0240 -0.6143
 8123SOL    HW232258   5.663   5.201   0.201  0.5617 -1.1532 -1.2335
 8123SOL    HW332259   5.804   5.201   0.258  0.2090 -1.1807 -0.3509
 8123SOL    MW432260   5.718   5.190   0.268  0.0508 -0.3256 -0.6612
 8124SOL     OW32261   5.722   0.250   5.590  0.0193  0.2906  0.1841
 8124SOL    HW232262   5.746   0.331   5.635  1.0862 -0.7226  1.5505
 8124SOL    HW332263   5.728   0.183   5.658  0.0563 -1.0689 -1.1152
 8124SOL    MW432264   5.726   0.252   5.605  0.1650 -0.0225  0.1930
 8125SOL     OW32265   5.862   5.527   3.873  0.5597  0.2249 -0.4643
 8125SOL    HW232266   5.812   5.536   3.954  1.7213  1.9278  0.1112
 8125SOL    HW332267   5.917   5.449   3.888 -0.0342 -0.1321 -0.0894
 8125SOL    MW432268   5.863   5.518   3.886  0.6346  0.4025 -0.3389
 8126SOL     OW32269   1.439   0.222   1.903 -0.4516 -0.0228 -0.3592
 8126SOL    HW232270   1.421   0.206   1.996 -1.9725 -1.8326 -0.8854
 8126SOL    HW332271   1.405   0.144   1.859  0.6418  0.5917 -2.4085
 8126SOL    MW432272   1.432   0.209   1.910 -0.5080 -0.1805 -0.6990
 8127SOL     OW32273   1.511   1.273   5.634 -0.8477  0.7521 -0.3528
 8127SOL    HW232274   1.436   1.214   5.643 -0.9302  1.0859  1.5086
 8127SOL    HW332275   1.583   1.227   5.677  0.0125  0.5123 -1.9680
 8127SOL    MW432276   1.511   1.259   5.641 -0.7451  0.7645 -0.3203
 8128SOL     OW32277   5.211   6.167   0.319 -0.3281 -0.0148  0.0702
 8128SOL    HW232278   5.210   6.251   0.365  0.2752  0.4084 -0.6497
 8128SOL    HW332279   5.299   6.162   0.281 -0.4485 -0.8473 -0.1180
 8128SOL    MW432280   5.223   6.177   0.320 -0.2644 -0.0688 -0.0496
 8129SOL     OW32281   1.277   6.011   3.207 -0.3150  0.5430 -0.6769
 8129SOL    HW232282   1.216   5.945   3.238  0.5444 -0.0440 -0.1868
 8129SOL    HW332283   1.360   5.990   3.251  0.0361  1.8076 -0.6938
 8129SOL    MW432284   1.280   6.000   3.217 -0.1553  0.6324 -0.6144
 8130SOL     OW32285   0.727   4.019   1.719  0.1724 -0.1233  0.7552
 8130SOL    HW232286   0.778   4.056   1.646 -1.4808  0.0073 -0.3843
 8130SOL    HW332287   0.739   4.082   1.790  1.0283  0.2589  0.2961
 8130SOL    MW432288   0.736   4.032   1.719  0.0672 -0.0557  0.5443
 8131SOL     OW32289   3.602   5.122   4.623  0.4249  0.1359  0.0094
 8131SOL    HW232290   3.622   5.043   4.572  1.1097 -0.1605  0.7149
 8131SOL    HW332291   3.520   5.154   4.586 -0.6139 -1.6764  0.6034
 8131SOL    MW432292   3.594   5.116   4.611  0.3782 -0.1423  0.1808
 8132SOL     OW32293   5.849   4.740   3.542 -0.1752  0.2233 -0.6725
 8132SOL    HW232294   5.903   4.740   3.622  1.7211  0.4421 -1.8970
 8132SOL    HW332295   5.814   4.651   3.537  1.2921 -0.3960 -0.5958
 8132SOL    MW432296   5.852   4.728   3.552  0.2686  0.1704 -0.8239
 8133SOL     OW32297   0.287   0.029   3.800  0.4383  0.3195 -0.3048
 8133SOL    HW232298   0.347  -0.009   3.865 -1.7302 -1.0486  1.0262
 8133SOL    HW332299   0.242   0.099   3.847 -1.3116 -0.8279 -0.1814
 8133SOL    MW432300   0.289   0.033   3.815 -0.0787 -0.0124 -0.1129
 8134SOL     OW32301   5.147   5.627   5.525 -0.3351  0.0714  0.0412
 8134SOL    HW232302   5.107   5.604   5.442  0.3613 -1.0243 -0.0073
 8134SOL    HW332303   5.085   5.687   5.566 -0.8659  0.3149 -1.0866
 8134SOL    MW432304   5.134   5.632   5.520 -0.3133 -0.0410 -0.1140
 8135SOL     OW32305   0.832   3.874   3.111 -0.0308 -0.2037  0.4653
 8135SOL    HW232306   0.843   3.955   3.161  0.2308 -0.8090  1.4275
 8135SOL    HW332307   0.743   3.878   3.078  0.8325  1.7936 -1.9490
 8135SOL    MW432308   0.822   3.885   3.113  0.1176 -0.0201  0.2737
 8136SOL     OW32309   0.580   3.325   4.171 -0.8252 -0.3445 -0.5278
 8136SOL    HW232310   0.649   3.307   4.107 -2.2909 -1.9476 -1.7750
 8136SOL    HW332311   0.536   3.240   4.182 -2.6138  0.6340  0.1464
 8136SOL    MW432312   0.583   3.311   4.164 -1.2546 -0.4269 -0.6034
 8137SOL     OW32313   2.042   3.434   5.367 -0.0852  0.2202  0.5125
 8137SOL    HW232314   2.004   3.456   5.452  0.9935 -0.5470  1.2135
 8137SOL    HW332315   2.132   3.408   5.386  0.7223  1.6301 -1.0698
 8137SOL    MW432316   2.049   3.433   5.381  0.1636  0.3050  0.3962
 8138SOL     OW32317   0.180   1.078   1.829 -0.0059  0.1458  0.1626
 8138SOL    HW232318   0.196   1.095   1.922  0.2937  0.2318  0.0968
 8138SOL    HW332319   0.111   1.140   1.805 -0.3459 -0.1286  0.4151
 8138SOL    MW432320   0.173   1.088   1.838 -0.0112  0.1210  0.1873
 8139SOL     OW32321   0.298   0.062   1.125 -0.0700  0.6831 -0.0337
 8139SOL    HW232322   0.204   0.079   1.135  0.0249  1.8045 -0.8192
 8139SOL    HW332323   0.321   0.104   1.041  1.1739  0.6374  0.2667
 8139SOL    MW432324   0.288   0.070   1.115  0.1066  0.8250 -0.0977
 8140SOL     OW32325   1.768   3.533   0.682  0.1451  0.2386  0.4029
 8140SOL    HW232326   1.714   3.600   0.641  1.0335 -0.0982 -1.4707
 8140SOL    HW332327   1.740   3.451   0.641  1.2231 -0.0912  0.2792
 8140SOL    MW432328   1.757   3.531   0.671  0.4045  0.1506  0.1394
 8141SOL     OW32329   3.248   1.589   4.118  0.0710 -0.2599 -1.0107
 8141SOL    HW232330   3.331   1.598   4.164 -0.9789  0.5120  0.8078
 8141SOL    HW332331   3.273   1.561   4.029  2.3679  1.9101 -1.1385
 8141SOL    MW432332   3.262   1.586   4.112  0.2355  0.1283 -0.7876
 8142SOL     OW32333   5.929   0.191   1.242  0.3308 -0.3594 -0.0589
 8142SOL    HW232334   5.974   0.245   1.307 -0.2694 -0.2762  0.3033
 8142SOL    HW332335   5.958   0.226   1.158  1.3798 -0.6888  0.1500
 8142SOL    MW432336   5.938   0.203   1.240  0.3900 -0.3919  0.0165
 8143SOL     OW32337   5.763   0.064   5.772  0.5384  0.4312  0.0893
 8143SOL    HW232338   5.778   0.086   5.864 -1.0858  1.5410  0.1433
 8143SOL    HW332339   5.735  -0.027   5.774  1.8501  0.0132  0.5179
 8143SOL    MW432340   5.761   0.055   5.785  0.4971  0.5224  0.1530
 8144SOL     OW32341   2.662   3.817   4.999 -0.5063 -0.0698 -0.1098
 8144SOL    HW232342   2.593   3.758   4.970 -0.9395  0.8234 -0.9142
 8144SOL    HW332343   2.714   3.764   5.059  0.0884 -1.8038 -2.0382
 8144SOL    MW432344   2.660   3.802   5.003 -0.4850 -0.1808 -0.4703
 8145SOL     OW32345   1.386   0.115   4.548 -0.5866  0.7438 -0.0386
 8145SOL    HW232346   1.443   0.138   4.475 -0.0408  0.7905  0.4041
 8145SOL    HW332347   1.317   0.062   4.508 -0.9416  1.7368 -0.7798
 8145SOL    MW432348   1.384   0.111   4.533 -0.5614  0.8810 -0.0780
 8146SOL     OW32349   5.071   2.385   3.087 -0.4078  0.2932  0.3249
 8146SOL    HW232350   5.139   2.395   3.021 -1.5863  1.1764 -0.8070
 8146SOL    HW332351   5.061   2.473   3.125 -1.2873  0.3143  0.0810
 8146SOL    MW432352   5.078   2.398   3.083 -0.6793  0.4125  0.1434
 8147SOL     OW32353   3.827   2.043   4.206 -0.0772 -0.8257  0.4728
 8147SOL    HW232354   3.885   2.023   4.132  1.9004  0.0915  1.7031
 8147SOL    HW332355   3.780   2.122   4.178  1.3037  0.0338  0.5046
 8147SOL    MW432356   3.828   2.051   4.192  0.3659 -0.5913  0.6393
 8148SOL     OW32357   3.864   0.708   6.328 -0.5646  0.5616  0.4632
 8148SOL    HW232358   3.906   0.726   6.412  0.9056  0.4572 -0.2236
 8148SOL    HW332359   3.771   0.701   6.349 -0.2698  0.9299  2.0133
 8148SOL    MW432360   3.857   0.709   6.342 -0.3317  0.5965  0.5771
 8149SOL     OW32361   5.352   3.848   3.453  0.0969  0.4613 -0.1245
 8149SOL    HW232362   5.305   3.931   3.451  0.9948  1.1383  2.2981
 8149SOL    HW332363   5.403   3.852   3.534  2.1687 -1.3793 -1.2231
 8149SOL    MW432364   5.353   3.860   3.464  0.4887  0.3078  0.0502
 8150SOL     OW32365   2.429   6.319   5.229 -0.5585  0.2439  0.1576
 8150SOL    HW232366   2.488   6.245   5.241  0.7538  0.8703 -1.8244
 8150SOL    HW332367   2.341   6.281   5.228  0.0604 -1.2145 -0.2335
 8150SOL    MW432368   2.425   6.304   5.230 -0.3037  0.1342 -0.1555
 8151SOL     OW32369   5.696   2.021   4.098  0.0641  0.1999 -0.7318
 8151SOL    HW232370   5.781   2.064   4.112 -0.6664  1.2494  0.7067
 8151SOL    HW332371   5.641   2.090   4.060 -0.3336 -0.2990 -1.0728
 8151SOL    MW432372   5.700   2.036   4.095 -0.0848  0.2725 -0.5870
 8152SOL     OW32373   6.073   0.047   6.062  0.3291 -0.0905  0.2414
 8152SOL    HW232374   6.084   0.076   5.971  0.0361 -0.1927  0.1748
 8152SOL    HW332375   6.135  -0.026   6.071 -0.0180 -0.4195 -0.0292
 8152SOL    MW432376   6.083   0.041   6.051  0.2446 -0.1474  0.1969
 8153SOL     OW32377   2.698   1.195   3.140 -0.5103 -0.2934 -0.3535
 8153SOL    HW232378   2.603   1.186   3.128 -0.2394 -0.7704 -2.4723
 8153SOL    HW332379   2.727   1.245   3.064  1.0822 -0.9623 -0.2081
 8153SOL    MW432380   2.689   1.201   3.129 -0.2644 -0.4446 -0.6138
 8154SOL     OW32381   2.255   1.261   2.540 -0.1566  0.0202  0.1321
 8154SOL    HW232382   2.188   1.328   2.532 -0.8958 -0.8038 -0.8768
 8154SOL    HW332383   2.336   1.304   2.511 -0.3394  0.8689  0.8596
 8154SOL    MW432384   2.257   1.275   2.535 -0.2782  0.0234  0.0950
 8155SOL     OW32385   3.426   1.893   3.111 -0.1006 -0.4139  0.2318
 8155SOL    HW232386   3.452   1.876   3.020 -3.3123  1.7036 -1.2665
 8155SOL    HW332387   3.449   1.985   3.126 -0.3912 -0.4940  1.2475
 8155SOL    MW432388   3.432   1.903   3.101 -0.5627 -0.1451  0.1681
 8156SOL     OW32389   0.455   2.139   5.862 -0.6338  0.2049 -0.1306
 8156SOL    HW232390   0.496   2.200   5.800  1.3869 -1.3438 -0.4305
 8156SOL    HW332391   0.404   2.080   5.807 -0.0026 -0.2954 -0.1876
 8156SOL    MW432392   0.454   2.140   5.847 -0.2840 -0.0654 -0.1777
 8157SOL     OW32393   4.938   0.306   5.104 -0.5342  0.2323  0.1851
 8157SOL    HW232394   4.943   0.226   5.156  0.5563 -0.0155 -0.2767
 8157SOL    HW332395   4.858   0.349   5.134 -1.2927 -1.1571  0.2468
 8157SOL    MW432396   4.928   0.301   5.115 -0.4904  0.0163  0.1323
 8158SOL     OW32397   4.246   5.779   5.384  0.0606  1.2230 -0.3823
 8158SOL    HW232398   4.295   5.696   5.381 -2.3458 -0.6925  4.1751
 8158SOL    HW332399   4.314   5.846   5.392  2.1637 -0.9577  2.0876
 8158SOL    MW432400   4.261   5.777   5.385  0.0206  0.6826  0.5449
 8159SOL     OW32401   2.057   4.158   4.584 -0.5691 -0.1165 -0.8443
 8159SOL    HW232402   2.071   4.243   4.543 -1.4984  1.0208  1.0570
 8159SOL    HW332403   2.145   4.123   4.599 -0.0599  1.4611  0.1587
 8159SOL    MW432404   2.070   4.164   4.581 -0.6245  0.2417 -0.4611
 8160SOL     OW32405   3.240   1.109   0.372  0.1061  0.1378 -0.0114
 8160SOL    HW232406   3.147   1.089   0.371 -0.2944  1.7521  1.1746
 8160SOL    HW332407   3.283   1.024   0.358 -1.5097 -1.0030  1.5071
 8160SOL    MW432408   3.234   1.095   0.370 -0.1599  0.2003  0.3454
 8161SOL     OW32409   2.245   3.374   3.463 -0.0510  0.5571  0.0778
 8161SOL    HW232410   2.165   3.426   3.460  0.0711  0.7322 -0.0890
 8161SOL    HW332411   2.263   3.352   3.372 -0.7088 -0.6986  0.2291
 8161SOL    MW432412   2.237   3.378   3.451 -0.1216  0.4145  0.0758
 8162SOL     OW32413   2.678   2.819   0.309 -0.7859 -0.0538  0.3261
 8162SOL    HW232414   2.690   2.735   0.264 -2.6508 -0.7138  0.9469
 8162SOL    HW332415   2.745   2.876   0.272 -0.6320 -1.2917 -1.4333
 8162SOL    MW432416   2.689   2.816   0.298 -1.0117 -0.3042  0.1759
 8163SOL     OW32417   0.345   1.628   3.836 -0.9886 -0.3147 -0.4059
 8163SOL    HW232418   0.385   1.708   3.871 -1.5921 -0.7643  1.3868
 8163SOL    HW332419   0.403   1.603   3.764  2.5209 -1.2935  2.4401
 8163SOL    MW432420   0.358   1.635   3.831 -0.6052 -0.5031  0.2061
 8164SOL     OW32421   0.738   3.588   6.413  0.0349 -0.1364 -0.2906
 8164SOL    HW232422   0.656   3.545   6.438  0.9234 -1.3281  0.6666
 8164SOL    HW332423   0.795   3.516   6.386  0.3103  0.8069 -2.3856
 8164SOL    MW432424   0.734   3.573   6.413  0.1885 -0.1692 -0.4407
 8165SOL     OW32425   1.316   1.013   5.496 -0.0845 -0.3030 -0.2175
 8165SOL    HW232426   1.374   1.010   5.572  1.3201  0.3897 -1.1945
 8165SOL    HW332427   1.305   1.106   5.477 -0.2967 -0.4634 -0.9328
 8165SOL    MW432428   1.322   1.025   5.503  0.0728 -0.2328 -0.4408
 8166SOL     OW32429   5.620   1.783   6.128 -0.1448  0.2142  0.5089
 8166SOL    HW232430   5.546   1.837   6.156 -0.5283 -0.7397  1.3917
 8166SOL    HW332431   5.697   1.829   6.159 -0.3889  0.9384  0.0619
 8166SOL    MW432432   5.620   1.796   6.136 -0.2276  0.1839  0.5664
 8167SOL     OW32433   0.868   5.449   6.059 -0.4694 -0.2206  0.4547
 8167SOL    HW232434   0.936   5.451   6.127 -0.3488  1.5400  0.3351
 8167SOL    HW332435   0.909   5.493   5.984 -0.8071 -1.6197 -0.5734
 8167SOL    MW432436   0.883   5.455   6.058 -0.4980 -0.1729  0.3032
 8168SOL     OW32437   2.596   4.041   5.158 -0.5523 -0.3877  0.3350
 8168SOL    HW232438   2.501   4.033   5.169 -0.5080 -1.4011  0.1200
 8168SOL    HW332439   2.619   3.969   5.099  0.2267  0.4225 -0.3801
 8168SOL    MW432440   2.587   4.030   5.152 -0.4437 -0.4145  0.2123
 8169SOL     OW32441   1.712   2.658   0.455 -0.0123 -0.1708 -0.3127
 8169SOL    HW232442   1.725   2.728   0.390 -3.2862  1.4049  0.4945
 8169SOL    HW332443   1.654   2.596   0.412 -2.1806  0.8667  0.9397
 8169SOL    MW432444   1.706   2.659   0.441 -0.7304  0.1740 -0.0410
 8170SOL     OW32445   4.804   4.174   3.449  0.2495 -0.0218  0.6268
 8170SOL    HW232446   4.723   4.185   3.498 -0.1800 -0.4147  0.0266
 8170SOL    HW332447   4.835   4.263   3.433  0.6714  0.1080  2.0337
 8170SOL    MW432448   4.797   4.187   3.453  0.2485 -0.0565  0.7332
 8171SOL     OW32449   1.507   0.821   3.909 -0.2476 -0.0769 -0.4996
 8171SOL    HW232450   1.592   0.826   3.953 -0.5438  0.2839  0.0384
 8171SOL    HW332451   1.529   0.797   3.819  0.3773 -0.7077 -0.1967
 8171SOL    MW432452   1.521   0.819   3.903 -0.2042 -0.1125 -0.3887
 8172SOL     OW32453   5.376   5.434   2.823  0.3121  0.2865 -0.1523
 8172SOL    HW232454   5.430   5.448   2.745  0.0661 -2.8133 -1.0103
 8172SOL    HW332455   5.409   5.353   2.860 -1.8245 -0.1092  1.0085
 8172SOL    MW432456   5.387   5.425   2.817 -0.0023 -0.1747 -0.1124
 8173SOL     OW32457   0.487   0.131   2.393  0.6629 -0.0016  0.0138
 8173SOL    HW232458   0.526   0.050   2.425  1.5629  0.0226 -0.9436
 8173SOL    HW332459   0.400   0.134   2.433  1.3436 -0.4563  1.5906
 8173SOL    MW432460   0.481   0.120   2.402  0.8715 -0.0584  0.0955
 8174SOL     OW32461   5.333   4.092   2.894  0.2809 -0.3851 -0.0966
 8174SOL    HW232462   5.420   4.055   2.909 -0.2626 -1.2405  1.1537
 8174SOL    HW332463   5.317   4.080   2.801  1.6418  0.0955 -0.4017
 8174SOL    MW432464   5.342   4.085   2.884  0.3888 -0.4346  0.0281
 8175SOL     OW32465   2.599   2.081   1.202 -0.2341 -0.3761 -0.2652
 8175SOL    HW232466   2.694   2.065   1.205 -0.1157 -0.1208 -1.9186
 8175SOL    HW332467   2.579   2.115   1.290  1.7117  2.1027 -0.6387
 8175SOL    MW432468   2.609   2.084   1.214  0.0382 -0.0154 -0.5327
 8176SOL     OW32469   3.642   3.424   1.769  0.9047  0.1320  0.1589
 8176SOL    HW232470   3.567   3.464   1.726  1.2520  0.1165 -0.4733
 8176SOL    HW332471   3.634   3.450   1.861 -0.2538 -0.4474  0.2450
 8176SOL    MW432472   3.631   3.432   1.775  0.7977  0.0535  0.0868
 8177SOL     OW32473   2.793   0.135   6.374  0.5580 -0.2398 -0.0675
 8177SOL    HW232474   2.883   0.152   6.348  0.3241  0.4327 -0.4516
 8177SOL    HW332475   2.787   0.168   6.463  0.0339  2.0859 -0.8884
 8177SOL    MW432476   2.804   0.142   6.382  0.4580  0.1558 -0.2265
 8178SOL     OW32477   3.646   3.177   0.178 -0.0712 -0.3756 -0.1640
 8178SOL    HW232478   3.599   3.115   0.122  0.5905 -0.4802 -0.6153
 8178SOL    HW332479   3.619   3.263   0.147 -1.5790 -0.3978  0.9529
 8178SOL    MW432480   3.636   3.180   0.167 -0.1829 -0.3923 -0.0762
 8179SOL     OW32481   3.203   3.453   5.148 -0.3768 -0.0251  0.1340
 8179SOL    HW232482   3.239   3.365   5.138 -0.5005 -0.1053  0.3778
 8179SOL    HW332483   3.138   3.460   5.078 -0.7313 -0.3192  0.4248
 8179SOL    MW432484   3.199   3.442   5.137 -0.4399 -0.0745  0.2045
 8180SOL     OW32485   5.186   3.466   4.570 -0.0474  0.7249 -0.0576
 8180SOL    HW232486   5.199   3.463   4.665  2.4175 -0.5399 -0.3484
 8180SOL    HW332487   5.148   3.381   4.548  1.2479  0.1970 -0.3705
 8180SOL    MW432488   5.183   3.455   4.580  0.4487  0.4884 -0.1373
 8181SOL     OW32489   2.759   1.895   3.447 -0.0748 -0.8008 -0.1242
 8181SOL    HW232490   2.814   1.914   3.523  0.6187  0.6955 -0.9496
 8181SOL    HW332491   2.820   1.891   3.373 -0.9399  0.0509 -0.9355
 8181SOL    MW432492   2.774   1.897   3.447 -0.0975 -0.4910 -0.3402
 8182SOL     OW32493   6.310   1.843   0.898 -0.2554  0.1299  0.6761
 8182SOL    HW232494   6.227   1.825   0.854 -0.3647  1.9677  0.0253
 8182SOL    HW332495   6.376   1.833   0.828 -0.0523 -0.2394  0.9196
 8182SOL    MW432496   6.308   1.840   0.883 -0.2430  0.3237  0.6223
 8183SOL     OW32497   1.386   4.848   5.138  0.5178 -0.0826  0.4179
 8183SOL    HW232498   1.343   4.893   5.211  0.0603  1.0644 -0.5250
 8183SOL    HW332499   1.314   4.815   5.084  0.8460 -1.6764  0.8946
 8183SOL    MW432500   1.371   4.849   5.140  0.5007 -0.1415  0.3564
 8184SOL     OW32501   4.798   5.612   2.318 -0.0916  0.5270  0.0335
 8184SOL    HW232502   4.752   5.652   2.392  0.9221  0.8431  0.5062
 8184SOL    HW332503   4.790   5.517   2.334 -1.3995  0.5413 -0.4142
 8184SOL    MW432504   4.791   5.605   2.330 -0.1304  0.5706  0.0368
 8185SOL     OW32505   2.099   0.817   4.476 -0.1338 -0.6496 -0.1947
 8185SOL    HW232506   2.015   0.858   4.496  0.1888 -1.0668  2.3432
 8185SOL    HW332507   2.156   0.889   4.450 -0.4266  0.1305  1.2049
 8185SOL    MW432508   2.095   0.832   4.475 -0.1299 -0.6017  0.3248
 8186SOL     OW32509   2.400   5.288   0.647  0.7268  0.3858 -0.4308
 8186SOL    HW232510   2.479   5.318   0.603  1.1727 -1.7806 -1.2598
 8186SOL    HW332511   2.427   5.275   0.738  1.0977  0.4848 -0.5240
 8186SOL    MW432512   2.414   5.290   0.653  0.8346  0.1130 -0.5525
 8187SOL     OW32513   1.346   6.279   3.278 -0.2595  0.1877  0.1976
 8187SOL    HW232514   1.330   6.194   3.235  1.3147 -0.0115 -0.0468
 8187SOL    HW332515   1.364   6.256   3.369 -1.7916  0.4607  0.6035
 8187SOL    MW432516   1.346   6.264   3.285 -0.2539  0.1975  0.2189
 8188SOL     OW32517   5.611   6.360   3.678  0.3916  0.3762 -0.3914
 8188SOL    HW232518   5.661   6.303   3.737  0.1539 -1.4538 -1.8516
 8188SOL    HW332519   5.571   6.425   3.735  0.8831 -0.7749  1.3439
 8188SOL    MW432520   5.612   6.361   3.693  0.4251 -0.0171 -0.3551
 8189SOL     OW32521   4.794   5.354   2.024 -0.2618 -0.2097  0.5988
 8189SOL    HW232522   4.718   5.405   1.997 -1.1422 -1.5051  0.5589
 8189SOL    HW332523   4.782   5.339   2.117  1.0571  1.3660  1.0767
 8189SOL    MW432524   4.782   5.358   2.033 -0.2039 -0.1727  0.6566
 8190SOL     OW32525   0.301   1.377   4.732  0.7861  0.0252  0.8629
 8190SOL    HW232526   0.268   1.400   4.818  2.5027  2.3662  0.9982
 8190SOL    HW332527   0.294   1.458   4.681 -0.7113 -1.4225 -1.4414
 8190SOL    MW432528   0.296   1.391   4.736  0.8150  0.1431  0.5768
 8191SOL     OW32529   2.023   5.518   1.641 -0.2936  1.1065  0.0954
 8191SOL    HW232530   2.057   5.498   1.729 -0.1482  1.5250  0.1404
 8191SOL    HW332531   2.081   5.587   1.609 -0.8818  1.5699  0.0210
 8191SOL    MW432532   2.035   5.525   1.649 -0.3520  1.2228  0.0915
 8192SOL     OW32533   0.457   3.340   5.420 -0.3412  0.5392  0.2548
 8192SOL    HW232534   0.514   3.334   5.343  0.9613 -1.0987  1.2820
 8192SOL    HW332535   0.369   3.345   5.383  0.3438  1.6753 -1.3516
 8192SOL    MW432536   0.453   3.340   5.405 -0.0790  0.4730  0.1784
 8193SOL     OW32537   2.239   2.561   5.853 -0.6909 -0.3159  0.5214
 8193SOL    HW232538   2.323   2.599   5.828 -1.2259  0.2491 -0.4967
 8193SOL    HW332539   2.215   2.606   5.934 -0.8659  0.8617 -0.1648
 8193SOL    MW432540   2.247   2.572   5.860 -0.7846 -0.0860  0.2965
 8194SOL     OW32541   4.619   0.922   1.036 -0.2646 -0.1872 -0.1663
 8194SOL    HW232542   4.626   0.890   1.126  3.5110  4.1431  1.4777
 8194SOL    HW332543   4.561   0.998   1.042 -1.8316 -1.1806 -1.9610
 8194SOL    MW432544   4.612   0.928   1.048  0.0268  0.2531 -0.1862
 8195SOL     OW32545   4.113   5.541   5.176 -0.0250  0.0987  0.1764
 8195SOL    HW232546   4.031   5.556   5.130  0.3254  1.1375 -0.1375
 8195SOL    HW332547   4.157   5.474   5.125  0.1337  0.8791 -0.7356
 8195SOL    MW432548   4.108   5.534   5.163  0.0422  0.3387  0.0147
 8196SOL     OW32549   3.328   2.084   2.108 -0.1501 -0.2234  0.4918
 8196SOL    HW232550   3.421   2.103   2.098 -0.1937  0.8612  1.8883
 8196SOL    HW332551   3.318   1.995   2.074  1.3862 -0.3403  0.2793
 8196SOL    MW432552   3.339   2.075   2.102  0.0468 -0.0958  0.6480
 8197SOL     OW32553   4.509   1.835   1.151 -0.2015  0.3527  0.0012
 8197SOL    HW232554   4.495   1.889   1.229 -0.3144  1.4362 -0.7322
 8197SOL    HW332555   4.581   1.777   1.173 -0.5259  0.3325  1.0583
 8197SOL    MW432556   4.516   1.835   1.164 -0.2592  0.4930  0.0439
 8198SOL     OW32557   2.986   1.369   0.681 -0.0890 -0.2516  0.0998
 8198SOL    HW232558   2.911   1.309   0.678  0.3274 -0.8968  1.5643
 8198SOL    HW332559   2.953   1.446   0.727 -0.4428  0.4254 -1.2215
 8198SOL    MW432560   2.972   1.371   0.687 -0.0807 -0.2474  0.1187
 8199SOL     OW32561   3.889   4.072   4.088 -0.5299  0.0330 -0.1497
 8199SOL    HW232562   3.911   3.984   4.118 -0.2903 -0.2612 -1.1359
 8199SOL    HW332563   3.814   4.098   4.141  0.2796 -0.1923  1.1378
 8199SOL    MW432564   3.882   4.064   4.099 -0.3915 -0.0355 -0.1099
 8200SOL     OW32565   3.674   0.021   5.749 -0.2811  0.0770 -0.3379
 8200SOL    HW232566   3.640  -0.024   5.672 -0.9359  0.2809 -0.1660
 8200SOL    HW332567   3.751  -0.031   5.774 -1.1520 -1.0999 -0.0136
 8200SOL    MW432568   3.680   0.008   5.742 -0.4824 -0.0514 -0.2724
 8201SOL     OW32569   0.538   6.316   0.710  0.1353 -0.2239  0.3550
 8201SOL    HW232570   0.451   6.280   0.690  0.3547 -1.2178  1.0691
 8201SOL    HW332571   0.551   6.295   0.803  0.6613  0.9464  0.5556
 8201SOL    MW432572   0.528   6.308   0.720  0.2336 -0.2006  0.4757
 8202SOL     OW32573   5.857   6.257   5.097  0.1226 -0.3455  0.4918
 8202SOL    HW232574   5.931   6.217   5.051 -0.2995 -1.1838  0.5159
 8202SOL    HW332575   5.894   6.331   5.144  0.6427  0.2959 -0.8747
 8202SOL    MW432576   5.871   6.261   5.097  0.1355 -0.3715  0.3147
 8203SOL     OW32577   4.806   6.362   3.459  0.1032  0.0158 -0.2897
 8203SOL    HW232578   4.852   6.422   3.517 -0.2460  0.5472 -0.5598
 8203SOL    HW332579   4.733   6.413   3.425  0.8207 -0.0052 -1.9232
 8203SOL    MW432580   4.802   6.376   3.462  0.1518  0.0832 -0.5409
 8204SOL     OW32581   0.610   2.775   3.012  0.4167 -0.1051 -0.6579
 8204SOL    HW232582   0.564   2.819   3.084 -1.6894 -0.3640 -1.7819
 8204SOL    HW332583   0.701   2.805   3.021 -0.0549  0.9477  1.2653
 8204SOL    MW432584   0.616   2.785   3.023  0.0766 -0.0003 -0.5524
 8205SOL     OW32585   3.923   2.266   6.360 -0.3952 -0.5626  0.0552
 8205SOL    HW232586   3.839   2.296   6.325 -0.5602 -0.6444  0.3749
 8205SOL    HW332587   3.986   2.332   6.331 -0.8335  0.3665  1.1408
 8205SOL    MW432588   3.920   2.279   6.352 -0.4748 -0.4508  0.2406
 8206SOL     OW32589   3.619   3.169   0.474  0.0880  0.2089 -0.3191
 8206SOL    HW232590   3.600   3.174   0.380 -0.8531  1.7207 -0.0884
 8206SOL    HW332591   3.698   3.223   0.485  0.5386 -0.4422 -0.3089
 8206SOL    MW432592   3.627   3.177   0.463  0.0233  0.3225 -0.2873
 8207SOL     OW32593   4.460   3.230   0.743  0.1094  0.1878 -0.1157
 8207SOL    HW232594   4.461   3.309   0.688 -0.7112  0.1090 -0.2455
 8207SOL    HW332595   4.453   3.158   0.681 -0.7342  0.0954  0.0837
 8207SOL    MW432596   4.459   3.231   0.728 -0.1102  0.1652 -0.1065
 8208SOL     OW32597   6.203   0.002   0.935  0.1165  0.1725 -0.0129
 8208SOL    HW232598   6.239   0.086   0.908 -1.2969  0.6155 -0.6022
 8208SOL    HW332599   6.159  -0.031   0.857 -1.6165  0.1342  0.9335
 8208SOL    MW432600   6.202   0.008   0.921 -0.2986  0.2259  0.0342
 8209SOL     OW32601   6.394   2.065   3.636 -0.3391 -0.4329  0.3815
 8209SOL    HW232602   6.414   2.095   3.725 -0.2440 -1.7536  0.8291
 8209SOL    HW332603   6.435   1.978   3.630 -0.2122 -0.2962 -1.0075
 8209SOL    MW432604   6.402   2.057   3.647 -0.3098 -0.5891  0.2573
 8210SOL     OW32605   4.728   6.333   0.698  0.3588  0.7071  0.4808
 8210SOL    HW232606   4.729   6.424   0.726  2.2489  0.4994  1.2041
 8210SOL    HW332607   4.789   6.329   0.625  1.5268 -0.2492  1.4664
 8210SOL    MW432608   4.736   6.344   0.692  0.7623  0.5536  0.7063
 8211SOL     OW32609   1.380   5.542   0.658  0.1756 -0.0640 -0.2717
 8211SOL    HW232610   1.307   5.487   0.686  0.4530 -0.3307 -0.0631
 8211SOL    HW332611   1.455   5.510   0.708  0.2264  0.8775  0.2840
 8211SOL    MW432612   1.380   5.531   0.668  0.2189  0.0250 -0.1708
 8212SOL     OW32613   4.349   2.635   2.721 -0.6035  0.8087 -0.0419
 8212SOL    HW232614   4.395   2.692   2.659  0.3119  0.7404  0.5461
 8212SOL    HW332615   4.321   2.695   2.791 -1.1471  0.7991 -0.2482
 8212SOL    MW432616   4.351   2.651   2.722 -0.5545  0.7984  0.0084
 8213SOL     OW32617   3.670   0.995   1.854 -0.4455 -0.1761 -0.1694
 8213SOL    HW232618   3.759   0.982   1.821  0.7686  2.2672  1.7637
 8213SOL    HW332619   3.623   1.036   1.781  0.4336 -0.1802 -0.7456
 8213SOL    MW432620   3.675   0.999   1.840 -0.1693  0.1457  0.0096
 8214SOL     OW32621   4.950   0.257   2.817  0.1026  0.0370 -0.2857
 8214SOL    HW232622   4.938   0.171   2.777 -0.2112 -0.5997  1.1046
 8214SOL    HW332623   5.025   0.295   2.772 -0.4064 -0.5135 -1.6442
 8214SOL    MW432624   4.958   0.251   2.806 -0.0060 -0.1196 -0.2815
 8215SOL     OW32625   6.181   4.929   5.769 -0.1888  0.1010  0.3678
 8215SOL    HW232626   6.118   4.938   5.697 -0.5874 -1.6484  0.4416
 8215SOL    HW332627   6.148   4.986   5.838 -1.2038 -0.1261  0.0777
 8215SOL    MW432628   6.169   4.938   5.769 -0.3753 -0.1598  0.3392
 8216SOL     OW32629   3.595   5.781   6.089 -0.1296  0.4633 -0.3799
 8216SOL    HW232630   3.603   5.850   6.023 -0.0004 -0.0064 -0.8657
 8216SOL    HW332631   3.659   5.715   6.062 -1.4155 -0.6107 -0.8784
 8216SOL    MW432632   3.605   5.781   6.077 -0.2822  0.2596 -0.5097
 8217SOL     OW32633   3.789   6.286   4.610  0.1415  0.3691 -0.2361
 8217SOL    HW232634   3.874   6.328   4.601  0.3539 -0.2630 -1.4392
 8217SOL    HW332635   3.784   6.259   4.701  0.5255  1.8490  0.2584
 8217SOL    MW432636   3.799   6.288   4.621  0.2202  0.4810 -0.3296
 8218SOL     OW32637   0.632   5.057   3.795  0.0852  0.4298 -0.2246
 8218SOL    HW232638   0.681   5.016   3.725  1.0297  1.2084 -0.0330
 8218SOL    HW332639   0.640   5.151   3.779 -2.2578  0.6105 -0.8120
 8218SOL    MW432640   0.639   5.064   3.784 -0.0993  0.5564 -0.2768
 8219SOL     OW32641   4.719   5.770   2.940  0.2394 -0.0084 -0.3013
 8219SOL    HW232642   4.746   5.707   3.006  0.3313  0.0255 -0.3060
 8219SOL    HW332643   4.789   5.769   2.875  0.0150 -0.2483 -0.5440
 8219SOL    MW432644   4.732   5.762   2.940  0.2219 -0.0356 -0.3339
 8220SOL     OW32645   0.475   3.345   3.839  0.0421 -0.4100  0.2759
 8220SOL    HW232646   0.415   3.270   3.843  2.7740 -2.9387 -1.7359
 8220SOL    HW332647   0.553   3.316   3.885  0.5994  1.9644  0.9551
 8220SOL    MW432648   0.477   3.331   3.845  0.4760 -0.4304  0.1001
 8221SOL     OW32649   4.684   0.941   4.988 -0.0987  0.4171  1.1957
 8221SOL    HW232650   4.749   0.893   4.936 -0.8282  1.3172 -0.6261
 8221SOL    HW332651   4.723   1.026   5.003  0.5529 -0.1750  3.1180
 8221SOL    MW432652   4.697   0.946   4.983 -0.1090  0.4578  1.2090
 8222SOL     OW32653   3.414   5.635   5.938 -0.3626 -0.2088 -0.0364
 8222SOL    HW232654   3.493   5.672   5.976 -0.4039 -0.5430  0.3952
 8222SOL    HW332655   3.445   5.562   5.884 -0.4013 -0.6587  0.5322
 8222SOL    MW432656   3.428   5.630   5.936 -0.3731 -0.3123  0.0956
 8223SOL     OW32657   2.704   6.417   0.629 -0.2814  0.2083 -0.7115
 8223SOL    HW232658   2.672   6.419   0.539 -1.7992 -0.2947 -0.2086
 8223SOL    HW332659   2.704   6.509   0.657  0.6845  0.4200 -1.3690
 8223SOL    MW432660   2.700   6.429   0.621 -0.3542  0.1699 -0.7319
 8224SOL     OW32661   2.367   4.717   5.832 -0.0015 -0.3486 -0.5658
 8224SOL    HW232662   2.297   4.756   5.780  0.2965  1.2541  0.1746
 8224SOL    HW332663   2.448   4.749   5.792  0.2501 -0.1427  0.0834
 8224SOL    MW432664   2.369   4.726   5.820  0.0710 -0.1100 -0.3824
 8225SOL     OW32665   3.225   3.448   2.890 -0.4017 -0.4078 -0.4890
 8225SOL    HW232666   3.131   3.433   2.896 -0.4114 -1.8389 -2.7865
 8225SOL    HW332667   3.234   3.530   2.842 -0.5448 -1.1339 -1.8065
 8225SOL    MW432668   3.214   3.457   2.884 -0.4218 -0.6924 -0.9659
 8226SOL     OW32669   2.067   0.683   0.505  0.0005 -0.0871  0.3412
 8226SOL    HW232670   2.110   0.619   0.562 -1.0194 -1.2527 -0.1468
 8226SOL    HW332671   2.117   0.680   0.423 -0.3179 -0.6290  0.1578
 8226SOL    MW432672   2.079   0.674   0.502 -0.1760 -0.3124  0.2526
 8227SOL     OW32673   0.311   4.898   1.352 -0.1855  0.2401  0.0596
 8227SOL    HW232674   0.332   4.830   1.288 -1.7072 -0.5133  0.2928
 8227SOL    HW332675   0.273   4.969   1.299  1.1168  0.7960 -0.1507
 8227SOL    MW432676   0.309   4.898   1.336 -0.2144  0.2140  0.0627
 8228SOL     OW32677   5.408   4.684   3.523  0.4643 -0.3394  0.6180
 8228SOL    HW232678   5.481   4.743   3.542 -0.0917  0.0907  1.5093
 8228SOL    HW332679   5.445   4.617   3.466  1.7844 -0.6542  1.7928
 8228SOL    MW432680   5.423   4.683   3.518  0.5651 -0.3242  0.8906
 8229SOL     OW32681   6.189   3.882   5.620  0.3221 -0.1178 -0.2645
 8229SOL    HW232682   6.213   3.962   5.666 -0.9842 -0.1938  0.6053
 8229SOL    HW332683   6.160   3.910   5.534 -0.3059  0.3867  0.1005
 8229SOL    MW432684   6.188   3.896   5.615  0.0669 -0.0612 -0.1016
 8230SOL     OW32685   1.555   2.996   2.818  0.0851  0.2042 -0.2358
 8230SOL    HW232686   1.476   3.037   2.853 -0.7581 -1.1695 -0.4820
 8230SOL    HW332687   1.531   2.970   2.729  0.5325 -0.9651 -0.0337
 8230SOL    MW432688   1.541   2.998   2.811  0.0329 -0.1313 -0.2416
 8231SOL     OW32689   1.862   1.998   1.182  0.4707 -0.1411 -0.3144
 8231SOL    HW232690   1.894   1.937   1.249  0.1702 -0.5394 -0.5280
 8231SOL    HW332691   1.772   2.015   1.207  0.4276 -0.1128 -0.4882
 8231SOL    MW432692   1.854   1.992   1.194  0.4254 -0.1899 -0.3655
 8232SOL     OW32693   3.545   2.563   5.139  0.3720  0.1592  0.9958
 8232SOL    HW232694   3.552   2.554   5.044  1.0514  0.0675  1.0513
 8232SOL    HW332695   3.631   2.538   5.172  0.1858  0.3327  1.6267
 8232SOL    MW432696   3.557   2.559   5.131  0.4371  0.1700  1.0864
 8233SOL     OW32697   1.884   1.121   2.808  0.1255 -0.3116 -0.2730
 8233SOL    HW232698   1.884   1.216   2.793  0.8124 -0.1464  0.6804
 8233SOL    HW332699   1.975   1.099   2.826 -0.4737 -0.4575  3.4121
 8233SOL    MW432700   1.896   1.131   2.809  0.1370 -0.3091  0.3390
 8234SOL     OW32701   6.075   3.198   5.328 -0.2754  0.1828 -0.3889
 8234SOL    HW232702   6.093   3.160   5.414 -1.8777 -1.9292 -0.9055
 8234SOL    HW332703   6.023   3.276   5.347 -1.1303 -0.5956  0.5690
 8234SOL    MW432704   6.070   3.204   5.342 -0.5996 -0.1985 -0.3307
 8235SOL     OW32705   6.006   2.288   0.878  0.1601  0.0790  0.2298
 8235SOL    HW232706   5.990   2.201   0.915  0.1465  0.4078  1.0359
 8235SOL    HW332707   5.919   2.325   0.865  0.1387  0.8529  2.1222
 8235SOL    MW432708   5.992   2.281   0.881  0.1555  0.2245  0.5858
 8236SOL     OW32709   2.219   2.125   1.018  0.0654  0.7098  0.4404
 8236SOL    HW232710   2.223   2.032   1.043  0.6053  0.0352 -1.9428
 8236SOL    HW332711   2.152   2.162   1.076 -0.5676 -1.2825  1.0764
 8236SOL    MW432712   2.211   2.117   1.029  0.0531  0.3579  0.2099
 8237SOL     OW32713   1.453   0.434   0.805 -0.1350 -0.4613 -0.4543
 8237SOL    HW232714   1.492   0.521   0.819 -2.8216  0.6127  1.1597
 8237SOL    HW332715   1.527   0.379   0.779  2.1849  1.7008  1.0271
 8237SOL    MW432716   1.468   0.438   0.803 -0.1834 -0.0343 -0.0459
 8238SOL     OW32717   4.370   1.633   5.533 -0.0743  0.3593 -0.2306
 8238SOL    HW232718   4.313   1.701   5.498 -0.4746 -0.2762 -0.8636
 8238SOL    HW332719   4.315   1.585   5.595  0.2390  0.6767  0.2992
 8238SOL    MW432720   4.355   1.635   5.537 -0.0858  0.3173 -0.2442
 8239SOL     OW32721   3.391   3.709   6.139 -0.3461  0.4088 -0.2632
 8239SOL    HW232722   3.320   3.767   6.112  0.7649  1.8218 -0.2728
 8239SOL    HW332723   3.452   3.711   6.065  0.1221 -0.0896  0.1072
 8239SOL    MW432724   3.390   3.717   6.126 -0.1378  0.5294 -0.2156
 8240SOL     OW32725   2.529   0.029   0.963  0.2915 -0.6771 -0.5830
 8240SOL    HW232726   2.484   0.024   0.879 -2.0256 -0.4656  0.5731
 8240SOL    HW332727   2.531   0.122   0.983 -0.9990 -0.8484  0.4796
 8240SOL    MW432728   2.524   0.041   0.955 -0.1845 -0.6718 -0.2903
 8241SOL     OW32729   5.487   4.067   5.173  0.0176 -0.0516 -0.0389
 8241SOL    HW232730   5.454   3.981   5.146 -1.5012  0.6215 -0.4778
 8241SOL    HW332731   5.411   4.125   5.165  1.1370  1.4509 -0.2890
 8241SOL    MW432732   5.472   4.063   5.168 -0.0351  0.2355 -0.1298
 8242SOL     OW32733   3.131   5.585   1.649 -0.1517 -0.4319 -0.2294
 8242SOL    HW232734   3.061   5.607   1.709  0.5396  1.4630 -0.0344
 8242SOL    HW332735   3.205   5.561   1.706  0.0544 -0.1132 -0.3601
 8242SOL    MW432736   3.132   5.585   1.664 -0.0333 -0.1398 -0.2209
 8243SOL     OW32737   0.506   0.803   2.743  0.4334  0.5293 -0.0813
 8243SOL    HW232738   0.420   0.834   2.769  0.2449  1.3116 -1.5413
 8243SOL    HW332739   0.556   0.799   2.825 -0.2515  2.4310  0.4787
 8243SOL    MW432740   0.502   0.806   2.757  0.3181  0.8834 -0.2000
 8244SOL     OW32741   1.493   4.171   2.029  0.2563 -0.5229  0.3900
 8244SOL    HW232742   1.484   4.248   2.084  0.6085  0.0558 -0.3432
 8244SOL    HW332743   1.477   4.203   1.940  1.4581 -1.0882 -0.0443
 8244SOL    MW432744   1.489   4.185   2.024  0.4614 -0.5211  0.2360
 8245SOL     OW32745   1.590   4.546   5.111  0.3437  0.3849 -0.0896
 8245SOL    HW232746   1.542   4.557   5.029 -1.0595 -0.4787  0.5864
 8245SOL    HW332747   1.550   4.470   5.152  1.5355  0.3465  1.0571
 8245SOL    MW432748   1.579   4.538   5.105  0.3158  0.2659  0.1509
 8246SOL     OW32749   1.488   1.787   5.239  0.1634 -0.2110 -0.1995
 8246SOL    HW232750   1.566   1.792   5.185  0.6524 -0.8986  0.4227
 8246SOL    HW332751   1.520   1.775   5.328 -0.6243  1.2534  0.3074
 8246SOL    MW432752   1.502   1.786   5.244  0.1240 -0.1085 -0.0505
 8247SOL     OW32753   1.244   0.003   2.568  0.4996 -0.5748 -0.5634
 8247SOL    HW232754   1.217   0.094   2.561  2.3346 -0.0134 -0.9966
 8247SOL    HW332755   1.312   0.003   2.635  0.5355 -1.6273 -0.5769
 8247SOL    MW432756   1.250   0.015   2.576  0.7464 -0.6396 -0.6223
 8248SOL     OW32757   1.484   3.770   0.337 -0.4785  0.0331 -0.2033
 8248SOL    HW232758   1.569   3.749   0.297 -0.4573 -0.2121 -0.0332
 8248SOL    HW332759   1.429   3.798   0.264 -0.4567 -0.4608 -0.4159
 8248SOL    MW432760   1.488   3.771   0.322 -0.4729 -0.0644 -0.2089
 8249SOL     OW32761   5.280   4.492   6.213  0.5212 -0.1692  0.4122
 8249SOL    HW232762   5.331   4.573   6.220  1.4695 -0.7981  0.9724
 8249SOL    HW332763   5.198   4.519   6.171  0.7555  1.1056  0.7291
 8249SOL    MW432764   5.276   4.506   6.208  0.6772 -0.0840  0.5279
 8250SOL     OW32765   0.987   5.317   3.482 -0.2662 -0.2127 -0.6771
 8250SOL    HW232766   1.002   5.394   3.537  0.4625  0.8721 -2.3085
 8250SOL    HW332767   1.074   5.294   3.448 -0.5914 -1.2869 -0.8309
 8250SOL    MW432768   1.000   5.324   3.485 -0.2129 -0.2113 -0.9126
 8251SOL     OW32769   6.412   3.063   4.213  0.3608  0.9098  1.0270
 8251SOL    HW232770   6.325   3.047   4.176  0.2318 -0.2031  1.7545
 8251SOL    HW332771   6.472   3.020   4.152  0.5667  2.7891 -0.1927
 8251SOL    MW432772   6.408   3.055   4.200  0.3710  1.0109  0.9620
 8252SOL     OW32773   5.935   3.985   2.065 -0.6335  0.0066 -0.0865
 8252SOL    HW232774   6.005   3.921   2.073 -0.9838 -0.3058  0.6499
 8252SOL    HW332775   5.931   4.006   1.972  0.0880 -0.3621 -0.2040
 8252SOL    MW432776   5.943   3.979   2.054 -0.5846 -0.0833 -0.0049
 8253SOL     OW32777   2.366   3.255   2.794  0.4651 -0.0307 -0.7387
 8253SOL    HW232778   2.430   3.300   2.738 -0.2214  0.4386 -1.1597
 8253SOL    HW332779   2.312   3.205   2.733 -1.4380  1.8646 -0.7658
 8253SOL    MW432780   2.367   3.255   2.779  0.1234  0.2813 -0.7978
 8254SOL     OW32781   1.739   3.649   0.249  0.5202 -0.2635 -0.5058
 8254SOL    HW232782   1.736   3.638   0.154  1.8359  0.5217 -0.6564
 8254SOL    HW332783   1.766   3.563   0.283  1.8863 -0.0465 -0.9941
 8254SOL    MW432784   1.742   3.636   0.241  0.8740 -0.1313 -0.5901
 8255SOL     OW32785   3.450   3.346   3.680 -0.0254  0.0995  0.6001
 8255SOL    HW232786   3.480   3.404   3.750  0.0995  2.0445 -0.9742
 8255SOL    HW332787   3.481   3.259   3.706 -2.2062  0.2215  4.2076
 8255SOL    MW432788   3.458   3.342   3.693 -0.2966  0.3722  0.8684
 8256SOL     OW32789   1.217   1.834   2.652 -0.1690 -0.4516  0.1349
 8256SOL    HW232790   1.254   1.811   2.566 -2.9823 -2.8222 -0.6032
 8256SOL    HW332791   1.167   1.914   2.636  0.5139 -0.0526 -0.0522
 8256SOL    MW432792   1.215   1.842   2.639 -0.4501 -0.7117  0.0129
 8257SOL     OW32793   2.320   1.292   0.596  0.2987  0.5937  0.1591
 8257SOL    HW232794   2.253   1.299   0.528 -0.2064 -2.1125  0.2774
 8257SOL    HW332795   2.270   1.288   0.678  0.6830  0.2360  0.3814
 8257SOL    MW432796   2.304   1.293   0.598  0.2828  0.1895  0.2040
 8258SOL     OW32797   0.869   0.288   5.294 -0.4956 -0.0583 -0.3797
 8258SOL    HW232798   0.923   0.209   5.299  0.7556  0.7485 -0.5329
 8258SOL    HW332799   0.932   0.359   5.281 -1.6511  0.8840 -1.0402
 8258SOL    MW432800   0.885   0.287   5.293 -0.4830  0.1725 -0.4871
 8259SOL     OW32801   0.559   2.483   2.999  0.6268 -0.3682  0.2992
 8259SOL    HW232802   0.569   2.574   3.029 -1.5661  0.1341 -0.3219
 8259SOL    HW332803   0.598   2.430   3.068  0.0460  0.9680  1.7078
 8259SOL    MW432804   0.566   2.488   3.012  0.2608 -0.1256  0.4031
 8260SOL     OW32805   0.513   4.542   4.991  0.0959  0.0126 -0.0707
 8260SOL    HW232806   0.517   4.490   5.072 -1.3853  0.2179  0.1605
 8260SOL    HW332807   0.591   4.516   4.942  0.7289 -0.5252  1.1757
 8260SOL    MW432808   0.523   4.532   4.995 -0.0160 -0.0313  0.1243
 8261SOL     OW32809   0.624   0.512   1.943  0.2342  0.1692 -0.0975
 8261SOL    HW232810   0.579   0.490   2.024 -0.3092  1.6958  0.0462
 8261SOL    HW332811   0.558   0.558   1.891  0.5931 -0.7262 -1.3949
 8261SOL    MW432812   0.609   0.515   1.947  0.2099  0.2525 -0.2497
 8262SOL     OW32813   2.355   5.605   1.102 -0.2199 -0.4184 -0.3169
 8262SOL    HW232814   2.323   5.619   1.014 -0.9563 -1.6531 -0.2639
 8262SOL    HW332815   2.374   5.512   1.107 -2.5982 -0.9099  1.5716
 8262SOL    MW432816   2.353   5.595   1.091 -0.6308 -0.6462 -0.0607
 8263SOL     OW32817   4.618   5.003   3.797 -0.0392 -0.5898 -0.2753
 8263SOL    HW232818   4.541   4.946   3.792  1.2722 -2.3923 -1.3099
 8263SOL    HW332819   4.626   5.024   3.890 -1.2936 -1.0362 -0.0386
 8263SOL    MW432820   4.609   4.998   3.808 -0.0317 -0.8866 -0.3806
 8264SOL     OW32821   6.133   5.232   0.608 -0.4685  0.0319  0.1285
 8264SOL    HW232822   6.064   5.286   0.570 -0.6265 -0.8592 -0.9021
 8264SOL    HW332823   6.104   5.216   0.698 -1.0714  0.5570  0.0331
 8264SOL    MW432824   6.120   5.237   0.615 -0.5689 -0.0164 -0.0201
 8265SOL     OW32825   3.331   1.302   0.185  0.7866  0.2233 -0.0427
 8265SOL    HW232826   3.312   1.235   0.250 -2.1461  1.4386  0.5220
 8265SOL    HW332827   3.310   1.261   0.101  0.8275 -0.1443  0.1257
 8265SOL    MW432828   3.325   1.288   0.183  0.4051  0.3351  0.0540
 8266SOL     OW32829   3.792   5.339   1.636  0.0847 -0.2397  0.0296
 8266SOL    HW232830   3.731   5.361   1.707  0.2766  0.9709 -0.1615
 8266SOL    HW332831   3.736   5.324   1.560  0.0152  1.8589 -0.4019
 8266SOL    MW432832   3.776   5.340   1.636  0.1009  0.1969 -0.0525
 8267SOL     OW32833   4.819   0.308   4.794 -0.4432  0.0438  0.5861
 8267SOL    HW232834   4.826   0.287   4.887  1.1304  2.2889  1.0846
 8267SOL    HW332835   4.845   0.228   4.749  0.4815 -0.5905  2.1516
 8267SOL    MW432836   4.824   0.295   4.800 -0.1136  0.2563  0.8584
 8268SOL     OW32837   5.831   5.055   2.186  0.3614  0.1091  0.0494
 8268SOL    HW232838   5.789   5.017   2.263 -1.3940  0.5938 -0.6299
 8268SOL    HW332839   5.775   5.030   2.113  1.9421 -0.2795 -1.1035
 8268SOL    MW432840   5.818   5.046   2.187  0.3384  0.1218 -0.1923
 8269SOL     OW32841   5.844   5.835   0.654 -0.1303  0.2703 -0.0056
 8269SOL    HW232842   5.878   5.762   0.706 -1.2259  1.0629  1.9479
 8269SOL    HW332843   5.907   5.906   0.667  0.5186 -0.0390 -1.2620
 8269SOL    MW432844   5.857   5.835   0.663 -0.1892  0.3341  0.0864
 8270SOL     OW32845   6.284   3.219   2.148 -0.1252 -1.1359  0.5473
 8270SOL    HW232846   6.353   3.235   2.212  1.9159  1.1049 -1.9487
 8270SOL    HW332847   6.210   3.271   2.178  0.4344 -0.9298  1.6101
 8270SOL    MW432848   6.283   3.228   2.160  0.2179 -0.8131  0.3582
 8271SOL     OW32849   4.185   4.799   1.520 -0.0544  0.5849  0.0836
 8271SOL    HW232850   4.115   4.853   1.482  0.2496  0.2936 -0.9051
 8271SOL    HW332851   4.143   4.757   1.596 -0.3931  1.9182  0.6750
 8271SOL    MW432852   4.170   4.801   1.525 -0.0590  0.7224  0.0312
 8272SOL     OW32853   2.501   1.516   0.657  0.2404 -0.2818  0.0302
 8272SOL    HW232854   2.433   1.450   0.649 -1.4546  1.4692 -0.9313
 8272SOL    HW332855   2.467   1.578   0.722  1.5408 -0.0739  0.5349
 8272SOL    MW432856   2.488   1.516   0.664  0.1884 -0.0233 -0.0301
 8273SOL     OW32857   1.315   0.817   6.298  0.0510  0.7199  0.3493
 8273SOL    HW232858   1.254   0.886   6.272  0.1342  1.8387  2.8150
 8273SOL    HW332859   1.343   0.777   6.216 -3.4044  0.6105 -0.9612
 8273SOL    MW432860   1.310   0.821   6.284 -0.3939  0.8531  0.5017
 8274SOL     OW32861   0.264   3.934   4.059  0.3880 -0.7228 -0.1001
 8274SOL    HW232862   0.272   3.870   4.129  1.3566  0.6833  1.1493
 8274SOL    HW332863   0.353   3.969   4.048 -0.0919  0.3422 -0.8045
 8274SOL    MW432864   0.277   3.931   4.066  0.4525 -0.3967 -0.0282
 8275SOL     OW32865   4.959   1.372   5.992 -0.5803 -0.0882 -0.0705
 8275SOL    HW232866   4.996   1.460   6.002  0.8214 -0.8564  2.1568
 8275SOL    HW332867   5.032   1.313   6.008 -1.6884 -1.6749 -0.6854
 8275SOL    MW432868   4.973   1.376   5.995 -0.5415 -0.3989  0.1422
 8276SOL     OW32869   3.015   2.143   6.047  0.7268 -0.4225  0.2414
 8276SOL    HW232870   2.975   2.145   6.134  0.4733 -0.4212  0.1290
 8276SOL    HW332871   3.104   2.175   6.059  0.5361  0.0390  0.4195
 8276SOL    MW432872   3.021   2.147   6.060  0.6682 -0.3615  0.2501
 8277SOL     OW32873   0.073   3.200   2.345 -0.5525  0.0709 -0.0959
 8277SOL    HW232874   0.005   3.161   2.400  0.6200 -0.7663  0.8003
 8277SOL    HW332875   0.116   3.126   2.303 -1.0250  0.6701 -1.6924
 8277SOL    MW432876   0.070   3.185   2.347 -0.4601  0.0395 -0.1883
 8278SOL     OW32877   3.605   4.885   4.200 -0.0242 -0.5522 -0.7275
 8278SOL    HW232878   3.514   4.860   4.217 -0.4832  1.2601 -0.2536
 8278SOL    HW332879   3.635   4.826   4.131 -1.6185 -1.0671 -1.0026
 8278SOL    MW432880   3.597   4.874   4.194 -0.2952 -0.3810 -0.7013
 8279SOL     OW32881   0.902   3.956   1.312 -0.0770  0.8694 -0.1133
 8279SOL    HW232882   0.968   3.913   1.257 -0.1043  0.7634 -0.0637
 8279SOL    HW332883   0.823   3.904   1.299  0.2986 -0.0957  1.2220
 8279SOL    MW432884   0.900   3.943   1.303 -0.0310  0.7281  0.0694
 8280SOL     OW32885   5.035   2.543   0.554 -1.0116  0.4830  0.1013
 8280SOL    HW232886   5.072   2.610   0.497  0.0061 -0.0963  0.0568
 8280SOL    HW332887   4.962   2.507   0.504  0.0660 -0.2417 -1.0233
 8280SOL    MW432888   5.030   2.547   0.540 -0.7351  0.3110 -0.0530
 8281SOL     OW32889   1.743   1.695   4.374  0.2595 -0.4502 -0.2654
 8281SOL    HW232890   1.791   1.613   4.363 -2.1882 -1.7393 -2.6543
 8281SOL    HW332891   1.790   1.758   4.319  4.0088  0.9174  3.9218
 8281SOL    MW432892   1.755   1.692   4.365  0.4312 -0.4398 -0.0281
 8282SOL     OW32893   6.107   2.963   2.208  0.0995 -0.2692  0.4330
 8282SOL    HW232894   6.118   2.900   2.137  0.1585  0.6070 -0.3574
 8282SOL    HW332895   6.174   3.029   2.192  0.0661 -0.0178  1.2677
 8282SOL    MW432896   6.117   2.963   2.196  0.1029 -0.1204  0.4389
 8283SOL     OW32897   0.408   4.025   0.923 -0.5780  0.1372  0.3839
 8283SOL    HW232898   0.355   4.097   0.958 -1.4995 -0.1229 -0.4458
 8283SOL    HW332899   0.353   3.984   0.857  1.0269  0.4795 -1.2369
 8283SOL    MW432900   0.394   4.029   0.919 -0.4878  0.1480  0.0605
 8284SOL     OW32901   3.298   4.465   2.931  0.4178  0.2270 -0.1525
 8284SOL    HW232902   3.210   4.472   2.892 -1.5181 -2.5677  3.1292
 8284SOL    HW332903   3.311   4.549   2.975 -1.1517  0.2928  0.2496
 8284SOL    MW432904   3.288   4.477   2.931 -0.0447 -0.1330  0.3335
 8285SOL     OW32905   4.452   3.795   1.121 -0.6636  0.0370  0.0391
 8285SOL    HW232906   4.435   3.740   1.045 -2.1320  0.9565 -0.3306
 8285SOL    HW332907   4.365   3.822   1.152 -0.4785 -2.9509  4.0981
 8285SOL    MW432908   4.438   3.791   1.115 -0.8329 -0.2359  0.5258
 8286SOL     OW32909   5.653   3.523   3.438  0.2283  0.2022 -0.2395
 8286SOL    HW232910   5.611   3.536   3.523 -0.7607 -1.8225 -0.3676
 8286SOL    HW332911   5.627   3.599   3.386 -0.6034  0.5962  0.7336
 8286SOL    MW432912   5.644   3.535   3.442 -0.0119 -0.0129 -0.1280
 8287SOL     OW32913   6.343   5.737   4.977 -0.6401  0.3569  0.1485
 8287SOL    HW232914   6.419   5.697   5.020  0.0646  1.2911 -0.1940
 8287SOL    HW332915   6.288   5.662   4.952 -0.7290 -0.2386  1.9971
 8287SOL    MW432916   6.346   5.722   4.979 -0.5588  0.4015  0.3472
 8288SOL     OW32917   2.345   4.539   1.416 -0.3948 -0.3872 -0.7021
 8288SOL    HW232918   2.339   4.508   1.507 -0.5343  1.9580  0.1573
 8288SOL    HW332919   2.439   4.538   1.397 -0.2706  0.0338 -0.1528
 8288SOL    MW432920   2.357   4.535   1.426 -0.3968 -0.0223 -0.5163
 8289SOL     OW32921   1.980   4.517   5.368  0.4395 -0.4076  0.2144
 8289SOL    HW232922   1.936   4.496   5.451 -0.1569  3.6548  1.1475
 8289SOL    HW332923   2.068   4.542   5.394  1.4729 -2.6184 -0.9337
 8289SOL    MW432924   1.985   4.517   5.383  0.4972 -0.1633  0.1860
 8290SOL     OW32925   5.637   0.620   3.955  0.1299  0.1018 -0.2066
 8290SOL    HW232926   5.545   0.622   3.930  0.1569  0.4598 -0.2793
 8290SOL    HW332927   5.671   0.540   3.913 -0.3626 -0.5521  0.6009
 8290SOL    MW432928   5.629   0.609   3.946  0.0685  0.0627 -0.1097
 8291SOL     OW32929   1.105   1.923   5.690 -0.2437  0.0955 -0.1372
 8291SOL    HW232930   1.145   1.891   5.771  0.1167  0.6185 -0.1050
 8291SOL    HW332931   1.176   1.919   5.626  0.2436  2.1922  0.2036
 8291SOL    MW432932   1.120   1.918   5.692 -0.1319  0.4412 -0.0880
 8292SOL     OW32933   0.606   4.836   0.098 -0.4760 -0.0949  0.0419
 8292SOL    HW232934   0.574   4.793   0.018  0.9006  1.4140 -1.3926
 8292SOL    HW332935   0.532   4.888   0.128 -0.7908 -0.1076 -0.6860
 8292SOL    MW432936   0.592   4.837   0.091 -0.3359  0.1025 -0.2434
 8293SOL     OW32937   3.327   2.821   0.908 -0.6803  0.2435  0.1475
 8293SOL    HW232938   3.390   2.753   0.885  0.2404  1.6347 -1.7542
 8293SOL    HW332939   3.249   2.801   0.856 -1.1079 -0.3731  1.0059
 8293SOL    MW432940   3.325   2.810   0.898 -0.6153  0.3457  0.0098
 8294SOL     OW32941   2.511   2.663   1.510 -0.1726  0.4949 -0.2734
 8294SOL    HW232942   2.449   2.728   1.476  1.1442  2.2154  0.4252
 8294SOL    HW332943   2.494   2.662   1.604  0.3151  0.3738 -0.1859
 8294SOL    MW432944   2.501   2.672   1.518  0.0655  0.7059 -0.1697
 8295SOL     OW32945   3.918   5.207   5.020 -0.5468 -0.6415  0.0982
 8295SOL    HW232946   3.921   5.207   5.116 -2.8037  0.9296  0.2681
 8295SOL    HW332947   3.859   5.135   4.998 -1.2704 -0.0449  0.0251
 8295SOL    MW432948   3.910   5.197   5.030 -0.9400 -0.3555  0.1109
 8296SOL     OW32949   1.578   5.831   3.733  0.2127 -0.0398  0.0282
 8296SOL    HW232950   1.651   5.889   3.757  0.8431 -1.8547  2.9945
 8296SOL    HW332951   1.619   5.746   3.716 -0.9971 -0.4729 -0.8559
 8296SOL    MW432952   1.593   5.828   3.734  0.1362 -0.3364  0.3029
 8297SOL     OW32953   1.366   1.405   4.733 -0.1663 -0.2917  0.4814
 8297SOL    HW232954   1.414   1.482   4.702  1.0041 -1.3588 -0.4749
 8297SOL    HW332955   1.426   1.364   4.795  0.4159 -1.9130 -1.0870
 8297SOL    MW432956   1.381   1.410   4.737  0.0649 -0.6464  0.1483
 8298SOL     OW32957   3.528   5.953   1.468  0.1623 -0.3658 -0.0333
 8298SOL    HW232958   3.498   5.870   1.505  0.9919 -0.7251 -0.1206
 8298SOL    HW332959   3.601   5.928   1.411  0.7153  0.4685  0.2861
 8298SOL    MW432960   3.534   5.939   1.465  0.3447 -0.3031 -0.0027
 8299SOL     OW32961   1.882   0.669   3.361 -0.0985  0.1324 -0.6061
 8299SOL    HW232962   1.890   0.743   3.300  0.4712 -0.5687 -1.4222
 8299SOL    HW332963   1.909   0.593   3.309 -1.0178 -0.7024  0.1105
 8299SOL    MW432964   1.887   0.669   3.346 -0.1446 -0.0703 -0.6193
 8300SOL     OW32965   6.423   1.223   1.243 -0.3434  0.4880  0.0156
 8300SOL    HW232966   6.442   1.132   1.268  2.5373  1.0874  0.3075
 8300SOL    HW332967   6.503   1.253   1.199 -2.4387  1.8671 -3.2542
 8300SOL    MW432968   6.436   1.215   1.241 -0.2398  0.7490 -0.3773
 8301SOL     OW32969   5.100   4.315   2.371  0.7117 -0.4548 -0.5224
 8301SOL    HW232970   5.170   4.371   2.338  0.5724 -0.6071 -1.0903
 8301SOL    HW332971   5.140   4.265   2.442  0.7946  0.4706  0.1018
 8301SOL    MW432972   5.114   4.316   2.376  0.7042 -0.3528 -0.5150
 8302SOL     OW32973   3.475   4.858   0.058  0.2602  0.5142 -0.0278
 8302SOL    HW232974   3.410   4.788   0.063  0.0738  0.5453 -1.5098
 8302SOL    HW332975   3.449   4.909  -0.019  2.1482  0.3991 -0.8016
 8302SOL    MW432976   3.463   4.855   0.049  0.4847  0.5031 -0.3254
 8303SOL     OW32977   2.615   3.414   4.762  0.4182 -0.2521 -0.1478
 8303SOL    HW232978   2.571   3.370   4.690 -0.9243  1.0529 -0.1731
 8303SOL    HW332979   2.696   3.364   4.775 -0.4312 -1.9256 -0.9764
 8303SOL    MW432980   2.620   3.402   4.754  0.1290 -0.3007 -0.2604
 8304SOL     OW32981   2.094   0.152   0.985 -0.3442  0.2870  0.1553
 8304SOL    HW232982   2.066   0.120   0.899 -2.3250  0.6794  0.6083
 8304SOL    HW332983   2.034   0.111   1.047  1.3711 -0.3846  1.4534
 8304SOL    MW432984   2.083   0.143   0.982 -0.3793  0.2502  0.3864
 8305SOL     OW32985   3.459   1.647   5.940 -0.2083  0.0366  0.2980
 8305SOL    HW232986   3.468   1.739   5.917  0.2974 -0.0475  0.1622
 8305SOL    HW332987   3.441   1.603   5.857  1.4203 -0.2393  0.0663
 8305SOL    MW432988   3.458   1.653   5.926  0.0733 -0.0109  0.2495
 8306SOL     OW32989   3.584   5.847   6.366 -0.3382  0.1792  0.5661
 8306SOL    HW232990   3.495   5.817   6.384  0.1155 -0.9939  0.9013
 8306SOL    HW332991   3.603   5.815   6.277  0.0795 -0.3898  0.8546
 8306SOL    MW432992   3.575   5.839   6.356 -0.2232 -0.0507  0.6484
 8307SOL     OW32993   0.327   5.385   4.484 -0.3028  0.5653 -0.3477
 8307SOL    HW232994   0.298   5.301   4.518 -1.8582  1.1843 -0.0499
 8307SOL    HW332995   0.246   5.438   4.478  0.7855  2.4646  0.6917
 8307SOL    MW432996   0.312   5.381   4.487 -0.3644  0.8976 -0.1713
 8308SOL     OW32997   5.917   0.516   3.555  0.1149 -0.4007  0.3719
 8308SOL    HW232998   5.850   0.452   3.530 -0.1145  0.3248 -0.9772
 8308SOL    HW332999   5.948   0.486   3.640 -0.5467 -1.8495  0.1363
 8308SOL    MW433000   5.912   0.504   3.563 -0.0026 -0.4962  0.1628
 8309SOL     OW33001   4.916   1.067   4.552  0.5458  0.5310  0.6480
 8309SOL    HW233002   4.959   1.108   4.477  0.8284 -0.5577  0.1958
 8309SOL    HW333003   4.862   0.998   4.514  1.0515 -0.3444  1.4790
 8309SOL    MW433004   4.914   1.064   4.537  0.6498  0.2718  0.6980
 8310SOL     OW33005   5.942   3.460   5.347  0.2053 -0.3812  0.0025
 8310SOL    HW233006   5.988   3.497   5.422 -1.1537 -0.8342  1.1018
 8310SOL    HW333007   5.898   3.534   5.307  2.2662  0.1740 -1.4301
 8310SOL    MW433008   5.942   3.474   5.351  0.2979 -0.3677 -0.0415
 8311SOL     OW33009   5.792   1.730   4.749  0.5010  0.8472  0.2600
 8311SOL    HW233010   5.797   1.684   4.833 -0.4346  0.2031 -0.0170
 8311SOL    HW333011   5.880   1.724   4.713  0.3939 -0.8004  0.2037
 8311SOL    MW433012   5.804   1.723   4.755  0.3635  0.5448  0.2160
 8312SOL     OW33013   6.174   1.424   3.689 -0.0627  0.5477  0.5509
 8312SOL    HW233014   6.232   1.364   3.641  1.6328  0.1207  2.8841
 8312SOL    HW333015   6.126   1.366   3.749 -1.4159  1.1408  0.0615
 8312SOL    MW433016   6.176   1.408   3.691 -0.0175  0.5697  0.7942
 8313SOL     OW33017   3.618   5.894   0.401 -0.3899 -0.1453  0.3125
 8313SOL    HW233018   3.668   5.904   0.319 -2.2570  1.2910 -0.7462
 8313SOL    HW333019   3.527   5.883   0.372 -1.1446  0.7336  2.1961
 8313SOL    MW433020   3.612   5.894   0.386 -0.7359  0.1602  0.4214
 8314SOL     OW33021   3.352   4.781   4.287 -0.5120 -0.9094 -0.1262
 8314SOL    HW233022   3.285   4.827   4.236 -0.1019  0.1884  0.2970
 8314SOL    HW333023   3.306   4.706   4.325 -2.1648  1.0424  2.0365
 8314SOL    MW433024   3.337   4.777   4.286 -0.6759 -0.5070  0.2150
 8315SOL     OW33025   1.963   2.333   4.928  0.2452 -0.0013  0.0959
 8315SOL    HW233026   2.024   2.388   4.977  0.7704 -0.7411  0.2860
 8315SOL    HW333027   1.876   2.366   4.952  0.5494  1.9891 -1.2512
 8315SOL    MW433028   1.960   2.344   4.938  0.3546  0.1637 -0.0568
 8316SOL     OW33029   2.253   5.656   0.854 -0.4188  0.7003  0.0452
 8316SOL    HW233030   2.221   5.739   0.819 -1.7883  0.3554  0.3893
 8316SOL    HW333031   2.245   5.595   0.782 -1.0170  0.5112  0.2612
 8316SOL    MW433032   2.248   5.659   0.840 -0.6784  0.6299  0.1191
 8317SOL     OW33033   5.668   5.794   5.192  0.5505  0.3256  0.2913
 8317SOL    HW233034   5.574   5.807   5.183  0.1638 -1.8068  0.7148
 8317SOL    HW333035   5.701   5.877   5.225 -0.8488  1.7968 -1.7943
 8317SOL    MW433036   5.660   5.806   5.195  0.3148  0.2383  0.0720
 8318SOL     OW33037   3.023   1.262   3.225  0.3148 -0.7075 -0.3515
 8318SOL    HW233038   3.008   1.294   3.136 -0.3562  0.6686  0.2298
 8318SOL    HW333039   3.107   1.300   3.251 -0.7779  1.1974  0.5688
 8318SOL    MW433040   3.032   1.271   3.217  0.0821 -0.2746 -0.1534
 8319SOL     OW33041   1.903   2.514   0.009 -0.3541 -0.0614 -0.8920
 8319SOL    HW233042   1.940   2.445   0.064 -1.8602  0.7543  1.2889
 8319SOL    HW333043   1.813   2.523   0.039  0.2115  4.0261  0.2396
 8319SOL    MW433044   1.896   2.506   0.020 -0.4782  0.5855 -0.4549
 8320SOL     OW33045   1.421   5.307   5.104 -0.6223  0.1090 -0.1502
 8320SOL    HW233046   1.494   5.339   5.051 -1.1900  1.2693 -0.2666
 8320SOL    HW333047   1.393   5.227   5.060 -0.4383  0.5169 -1.0367
 8320SOL    MW433048   1.427   5.301   5.091 -0.6729  0.3159 -0.2825
 8321SOL     OW33049   2.828   4.059   2.757  0.6158  0.3311  0.3386
 8321SOL    HW233050   2.842   4.075   2.850 -0.0118  0.4210  0.4226
 8321SOL    HW333051   2.818   4.147   2.719 -2.3202  0.2579  0.7164
 8321SOL    MW433052   2.829   4.073   2.764  0.1457  0.3333  0.3995
 8322SOL     OW33053   6.244   2.080   2.728 -0.2446  0.4803  0.4136
 8322SOL    HW233054   6.311   2.110   2.790 -1.1715 -0.1913  1.7937
 8322SOL    HW333055   6.247   2.144   2.657  0.6664  1.4435  1.2780
 8322SOL    MW433056   6.253   2.092   2.727 -0.2467  0.5188  0.7098
 8323SOL     OW33057   2.011   5.118   0.068 -0.2633  0.0537 -0.2889
 8323SOL    HW233058   2.041   5.170   0.143  1.3988 -2.1312  0.6693
 8323SOL    HW333059   2.088   5.067   0.043 -1.5265 -1.1647 -1.8577
 8323SOL    MW433060   2.025   5.118   0.075 -0.2106 -0.3953 -0.3695
 8324SOL     OW33061   2.421   3.004   4.852 -0.5905  0.0666  0.5166
 8324SOL    HW233062   2.493   3.016   4.791  0.1462  0.6901  1.4713
 8324SOL    HW333063   2.418   2.910   4.869 -1.7411 -0.3210 -1.5411
 8324SOL    MW433064   2.430   2.993   4.846 -0.6451  0.0977  0.3711
 8325SOL     OW33065   0.423   5.257   6.017  0.0728  0.1001  0.0621
 8325SOL    HW233066   0.464   5.171   6.025 -0.4320 -0.1584 -0.0407
 8325SOL    HW333067   0.345   5.252   6.072 -0.9411 -0.1393 -1.3241
 8325SOL    MW433068   0.418   5.245   6.025 -0.1276  0.0344 -0.1344
 8326SOL     OW33069   4.161   6.189   0.247  0.4238 -0.6175  0.0822
 8326SOL    HW233070   4.158   6.099   0.281 -1.5503 -0.8162 -0.4862
 8326SOL    HW333071   4.234   6.189   0.186  0.6975 -1.7294  0.3905
 8326SOL    MW433072   4.170   6.177   0.243  0.1995 -0.7904  0.0479
 8327SOL     OW33073   2.481   1.594   0.100  0.4443  0.2602  0.1490
 8327SOL    HW233074   2.484   1.558   0.189  1.1751  0.5504  0.2436
 8327SOL    HW333075   2.571   1.620   0.081  0.1188  1.1236 -0.2938
 8327SOL    MW433076   2.493   1.593   0.109  0.4978  0.4124  0.1030
 8328SOL     OW33077   0.977   0.553   5.255  0.5207  0.5150 -0.1985
 8328SOL    HW233078   0.957   0.628   5.199  0.4468  1.5326  1.1568
 8328SOL    HW333079   1.072   0.556   5.267  0.3381  1.3505  1.1496
 8328SOL    MW433080   0.987   0.563   5.249  0.4868  0.7595  0.1582
 8329SOL     OW33081   0.382   1.101   2.444  0.2285  0.6767 -0.1816
 8329SOL    HW233082   0.440   1.116   2.519 -0.0520 -1.0143  0.4455
 8329SOL    HW333083   0.440   1.072   2.374  0.1522 -2.9455  1.0075
 8329SOL    MW433084   0.397   1.099   2.445  0.1815 -0.0243  0.0580
 8330SOL     OW33085   2.811   0.408   1.926 -0.3246 -0.2015  0.0684
 8330SOL    HW233086   2.807   0.419   2.021  0.0722 -0.4896  0.1214
 8330SOL    HW333087   2.785   0.318   1.911  0.1912 -0.3373 -0.0447
 8330SOL    MW433088   2.807   0.398   1.936 -0.2042 -0.2574  0.0605
 8331SOL     OW33089   2.546   0.802   4.621  0.1826 -0.2039 -0.4501
 8331SOL    HW233090   2.534   0.742   4.695  1.8472  0.9551  0.8110
 8331SOL    HW333091   2.499   0.759   4.549  1.5120 -3.2003  0.2841
 8331SOL    MW433092   2.538   0.788   4.621  0.5776 -0.4463 -0.1869
 8332SOL     OW33093   2.051   4.678   0.350  0.4550  0.0178  0.0585
 8332SOL    HW233094   2.004   4.754   0.315 -1.1133 -0.8803  0.1079
 8332SOL    HW333095   2.098   4.713   0.426  0.2591  1.0703 -0.2802
 8332SOL    MW433096   2.051   4.693   0.355  0.2222  0.0381  0.0203
 8333SOL     OW33097   0.410   1.357   2.705 -0.0590  0.6455 -0.2186
 8333SOL    HW233098   0.500   1.391   2.710  1.1344 -2.4582  1.7251
 8333SOL    HW333099   0.387   1.366   2.612  1.9618  2.1635 -0.6463
 8333SOL    MW433100   0.419   1.363   2.693  0.3651  0.4363 -0.0186
 8334SOL     OW33101   5.334   6.260   5.126 -0.3536 -0.1371 -0.2108
 8334SOL    HW233102   5.279   6.184   5.147 -1.5748  0.2400 -1.8056
 8334SOL    HW333103   5.271   6.327   5.099  0.6790  1.5403  1.3411
 8334SOL    MW433104   5.318   6.259   5.126 -0.3785  0.1339 -0.2165
 8335SOL     OW33105   3.252   2.110   4.505  0.2372  0.2444 -0.3169
 8335SOL    HW233106   3.204   2.044   4.555  0.2731 -0.1696 -0.8296
 8335SOL    HW333107   3.270   2.069   4.421  0.7838  0.6892 -0.4249
 8335SOL    MW433108   3.248   2.096   4.501  0.3140  0.2485 -0.3988
 8336SOL     OW33109   4.313   4.781   6.321 -0.5226 -0.5945  0.5526
 8336SOL    HW233110   4.250   4.760   6.390 -0.3492 -0.2701  0.8122
 8336SOL    HW333111   4.344   4.869   6.343  0.0409 -0.7642  0.4454
 8336SOL    MW433112   4.309   4.790   6.333 -0.4254 -0.5741  0.5727
 8337SOL     OW33113   6.126   4.327   2.250 -0.2113 -0.2213 -0.4525
 8337SOL    HW233114   6.216   4.354   2.231 -0.7801  0.6463 -2.1633
 8337SOL    HW333115   6.098   4.383   2.323  0.9673 -1.2985  0.8871
 8337SOL    MW433116   6.134   4.338   2.257 -0.1309 -0.2489 -0.5015
 8338SOL     OW33117   0.529   2.127   0.771  0.8814 -0.0303  0.0464
 8338SOL    HW233118   0.581   2.191   0.723  1.2186  1.0433  1.7408
 8338SOL    HW333119   0.439   2.162   0.768  1.1125  0.7420  1.2186
 8338SOL    MW433120   0.524   2.140   0.764  0.9564  0.2132  0.4246
 8339SOL     OW33121   1.457   2.770   2.304  0.2079  0.0258  0.5156
 8339SOL    HW233122   1.530   2.831   2.302 -0.2637  0.5870 -0.9415
 8339SOL    HW333123   1.493   2.688   2.270  0.9608 -0.7186  2.9038
 8339SOL    MW433124   1.471   2.767   2.299  0.2450  0.0016  0.6384
 8340SOL     OW33125   4.948   5.932   5.026 -0.1050  0.1863  0.2574
 8340SOL    HW233126   4.983   5.866   4.967 -2.5707 -0.6605 -0.3665
 8340SOL    HW333127   4.923   5.883   5.105  1.0359  0.9429  1.1272
 8340SOL    MW433128   4.950   5.917   5.029 -0.2798  0.1744  0.2899
 8341SOL     OW33129   1.738   5.561   4.666 -0.1797  0.6134  0.3264
 8341SOL    HW233130   1.722   5.640   4.718 -0.7257  0.4635  0.3918
 8341SOL    HW333131   1.665   5.503   4.687 -2.2591  1.7743 -3.0185
 8341SOL    MW433132   1.726   5.564   4.675 -0.5261  0.7468 -0.1063
 8342SOL     OW33133   1.339   3.663   1.083 -0.2354 -0.2230 -0.0668
 8342SOL    HW233134   1.349   3.570   1.068 -0.2365 -0.0829 -0.9815
 8342SOL    HW333135   1.419   3.702   1.049 -0.5324  0.1717 -0.3301
 8342SOL    MW433136   1.351   3.656   1.077 -0.2748 -0.1524 -0.2223
 8343SOL     OW33137   5.963   6.146   1.359  0.4861 -0.2534  0.3308
 8343SOL    HW233138   6.006   6.133   1.274  0.3253 -0.9480  0.3549
 8343SOL    HW333139   5.872   6.166   1.337  0.6483  0.4978  0.3093
 8343SOL    MW433140   5.956   6.147   1.345  0.4863 -0.2460  0.3312
 8344SOL     OW33141   5.542   2.456   3.429  0.6986  0.0317  0.3041
 8344SOL    HW233142   5.513   2.438   3.518  0.7229  1.2750  0.5749
 8344SOL    HW333143   5.576   2.546   3.432 -1.6418  1.0675 -1.5049
 8344SOL    MW433144   5.543   2.465   3.441  0.3930  0.3324  0.1012
 8345SOL     OW33145   0.196   3.389   1.498  0.0201  0.3919  0.0677
 8345SOL    HW233146   0.260   3.455   1.472  0.6145  0.5342  1.7435
 8345SOL    HW333147   0.131   3.437   1.550 -1.1594  0.1398 -1.1154
 8345SOL    MW433148   0.196   3.404   1.502 -0.0571  0.3774  0.1327
 8346SOL     OW33149   0.042   3.660   5.088  0.0204  0.5447 -0.0579
 8346SOL    HW233150   0.067   3.571   5.062  0.7837  0.6089  0.4185
 8346SOL    HW333151  -0.035   3.647   5.144 -0.3768  0.2550 -0.6595
 8346SOL    MW433152   0.035   3.647   5.092  0.0687  0.5150 -0.0744
 8347SOL     OW33153   6.110   4.368   6.157  0.3970  0.1218 -0.1674
 8347SOL    HW233154   6.109   4.279   6.191  1.6514 -0.0390 -0.5035
 8347SOL    HW333155   6.028   4.407   6.188 -0.2645 -1.2002 -0.1944
 8347SOL    MW433156   6.099   4.362   6.165  0.4752 -0.0738 -0.2153
 8348SOL     OW33157   0.921   1.894   2.857  0.1714  0.0388  0.3621
 8348SOL    HW233158   0.886   1.964   2.913  1.0207  2.7309 -2.2338
 8348SOL    HW333159   0.964   1.834   2.919 -0.5075  1.8338  2.7419
 8348SOL    MW433160   0.922   1.895   2.873  0.1939  0.6308  0.3336
 8349SOL     OW33161   4.488   5.440   4.769  0.5844  0.0773 -0.6353
 8349SOL    HW233162   4.569   5.482   4.800  0.8107 -0.6919 -0.1572
 8349SOL    HW333163   4.505   5.346   4.779 -0.4924 -0.0813 -0.1885
 8349SOL    MW433164   4.501   5.433   4.775  0.4722 -0.0451 -0.5133
 8350SOL     OW33165   4.958   4.942   0.816  0.4021 -0.0937 -0.0416
 8350SOL    HW233166   4.919   4.957   0.730 -1.2757 -0.6570  0.5657
 8350SOL    HW333167   4.896   4.981   0.878  0.3112 -1.7912  1.0302
 8350SOL    MW433168   4.945   4.949   0.813  0.1687 -0.3920  0.1799
 8351SOL     OW33169   3.049   3.040   5.690 -0.4090  0.0217  0.0674
 8351SOL    HW233170   2.961   3.077   5.681 -1.0514 -1.4327  0.2247
 8351SOL    HW333171   3.044   2.954   5.649  1.2352  0.3294 -0.8571
 8351SOL    MW433172   3.037   3.034   5.683 -0.2768 -0.1296 -0.0338
 8352SOL     OW33173   2.357   4.488   2.561 -0.1668  0.3226 -0.3347
 8352SOL    HW233174   2.275   4.531   2.541  0.7846  1.6800 -1.4937
 8352SOL    HW333175   2.349   4.463   2.653 -2.1596 -0.3119 -0.6375
 8352SOL    MW433176   2.345   4.490   2.571 -0.3042  0.4180 -0.5276
 8353SOL     OW33177   5.400   5.402   1.828  0.8237  0.3162 -0.0851
 8353SOL    HW233178   5.358   5.488   1.828  0.2821  0.0607 -0.7055
 8353SOL    HW333179   5.405   5.378   1.735 -0.2909 -0.9249  0.1580
 8353SOL    MW433180   5.395   5.411   1.816  0.6052  0.1188 -0.1349
 8354SOL     OW33181   1.534   4.503   3.314 -0.1426 -0.1874 -0.1432
 8354SOL    HW233182   1.542   4.473   3.223  0.9187 -0.9780  0.1981
 8354SOL    HW333183   1.471   4.443   3.353  0.0412 -0.3770 -0.1366
 8354SOL    MW433184   1.527   4.491   3.307  0.0217 -0.3167 -0.0973
 8355SOL     OW33185   0.881   4.709   4.453 -0.4417 -0.0692  0.5464
 8355SOL    HW233186   0.897   4.667   4.368 -1.1717  0.3918  0.1617
 8355SOL    HW333187   0.950   4.774   4.461  1.5758 -2.2259  1.8069
 8355SOL    MW433188   0.892   4.712   4.443 -0.2718 -0.2929  0.6619
 8356SOL     OW33189   1.683   1.726   5.435 -0.5561  0.8874  0.4669
 8356SOL    HW233190   1.680   1.799   5.497 -0.2206  1.1490  0.1829
 8356SOL    HW333191   1.715   1.652   5.485 -0.0557  1.1577  0.5531
 8356SOL    MW433192   1.687   1.726   5.450 -0.4458  0.9576  0.4408
 8357SOL     OW33193   6.322   0.312   3.781  0.2049  0.1163  0.1993
 8357SOL    HW233194   6.404   0.278   3.746  0.6026  0.9172  0.3378
 8357SOL    HW333195   6.337   0.318   3.876  0.5227  1.6417  0.0775
 8357SOL    MW433196   6.335   0.308   3.789  0.2993  0.4232  0.2015
 8358SOL     OW33197   5.710   1.022   1.585 -0.2514  0.2197 -0.1914
 8358SOL    HW233198   5.669   0.979   1.510  0.4340 -0.4502 -0.1927
 8358SOL    HW333199   5.764   1.091   1.546  0.7437 -0.6528 -0.3811
 8358SOL    MW433200   5.712   1.025   1.570 -0.0297  0.0162 -0.2166
 8359SOL     OW33201   4.011   5.036   4.001 -0.4653  0.1391 -0.1586
 8359SOL    HW233202   4.074   4.975   4.040 -1.2394 -0.9451 -0.5687
 8359SOL    HW333203   4.059   5.119   3.995  0.6325 -0.4393  0.3416
 8359SOL    MW433204   4.026   5.039   4.006 -0.4226 -0.0802 -0.1467
 8360SOL     OW33205   3.392   4.533   1.512  0.2222  0.2557  0.1225
 8360SOL    HW233206   3.485   4.541   1.491  0.2085  1.1805  0.3327
 8360SOL    HW333207   3.383   4.446   1.550  1.2429  0.5872  1.2016
 8360SOL    MW433208   3.403   4.523   1.514  0.3550  0.4215  0.2926
 8361SOL     OW33209   2.517   2.661   3.602 -0.5501 -0.0408  0.6867
 8361SOL    HW233210   2.519   2.583   3.658 -0.4512 -1.4351 -1.1585
 8361SOL    HW333211   2.432   2.658   3.560 -1.0995  1.6471  1.5807
 8361SOL    MW433212   2.506   2.650   3.604 -0.6095 -0.0021  0.5612
 8362SOL     OW33213   2.871   2.189   4.859  0.0273  0.4360  0.2998
 8362SOL    HW233214   2.882   2.269   4.809 -0.3945 -0.4763 -1.3196
 8362SOL    HW333215   2.959   2.166   4.888  0.4817  0.3400 -1.0944
 8362SOL    MW433216   2.884   2.196   4.856  0.0316  0.3030 -0.0978
 8363SOL     OW33217   2.478   3.670   0.180 -0.3484  0.4870  0.1560
 8363SOL    HW233218   2.437   3.685   0.095 -0.9696 -0.5649  0.2538
 8363SOL    HW333219   2.548   3.735   0.184 -1.8005  2.1297 -0.1343
 8363SOL    MW433220   2.482   3.681   0.169 -0.6219  0.5650  0.1306
 8364SOL     OW33221   6.363   4.305   2.565  0.0634  0.4606 -0.0854
 8364SOL    HW233222   6.351   4.366   2.638 -1.1663 -0.1097  0.2267
 8364SOL    HW333223   6.408   4.355   2.498 -0.9984  1.7622  0.1278
 8364SOL    MW433224   6.367   4.319   2.566 -0.2390  0.5571 -0.0161
 8365SOL     OW33225   5.407   1.744   1.674 -0.1161  0.2110  0.0002
 8365SOL    HW233226   5.357   1.814   1.633 -0.9954 -0.0053  0.6681
 8365SOL    HW333227   5.496   1.756   1.641 -0.5625  0.7133 -1.0721
 8365SOL    MW433228   5.413   1.755   1.664 -0.2910  0.2488 -0.0532
 8366SOL     OW33229   6.255   2.362   3.910 -0.3672  0.5440 -0.2820
 8366SOL    HW233230   6.334   2.416   3.900 -0.5720  1.0066  0.4860
 8366SOL    HW333231   6.204   2.408   3.977 -0.6777 -0.4563  0.1817
 8366SOL    MW433232   6.259   2.375   3.918 -0.4352  0.4731 -0.1195
 8367SOL     OW33233   5.463   5.242   0.722 -0.3950  0.3578  0.1561
 8367SOL    HW233234   5.503   5.301   0.658  1.5241 -1.2798 -0.2469
 8367SOL    HW333235   5.428   5.170   0.670  1.3360 -1.0864  0.8776
 8367SOL    MW433236   5.464   5.241   0.707  0.0866 -0.0488  0.1982
 8368SOL     OW33237   3.497   1.322   3.810  0.4158 -0.5523  0.5203
 8368SOL    HW233238   3.493   1.278   3.725 -0.0703  0.1355  0.1816
 8368SOL    HW333239   3.419   1.376   3.812 -0.5175 -1.8651  2.1405
 8368SOL    MW433240   3.486   1.323   3.799  0.2285 -0.6348  0.6894
 8369SOL     OW33241   2.309   6.060   1.350 -0.2979  0.2726 -0.5841
 8369SOL    HW233242   2.337   6.000   1.281 -0.1559  0.0157 -0.3021
 8369SOL    HW333243   2.220   6.032   1.371  0.3575 -0.9314  0.7302
 8369SOL    MW433244   2.301   6.048   1.343 -0.1927  0.0798 -0.3735
 8370SOL     OW33245   5.271   6.272   1.205  0.1081 -0.3854  0.4218
 8370SOL    HW233246   5.354   6.259   1.250 -0.0931 -0.4588  0.7732
 8370SOL    HW333247   5.235   6.351   1.244 -0.3581 -0.7945  0.8326
 8370SOL    MW433248   5.277   6.281   1.216  0.0201 -0.4491  0.5224
 8371SOL     OW33249   3.830   1.257   0.674 -0.4450 -0.1618 -0.5623
 8371SOL    HW233250   3.759   1.271   0.611 -1.4000 -2.2858 -0.0218
 8371SOL    HW333251   3.894   1.203   0.627  0.3071  0.7566 -0.6464
 8371SOL    MW433252   3.829   1.252   0.659 -0.4717 -0.3209 -0.5021
 8372SOL     OW33253   2.757   2.326   3.600  0.3086 -0.0346 -0.4111
 8372SOL    HW233254   2.685   2.315   3.538  0.3787 -1.1363 -0.3196
 8372SOL    HW333255   2.718   2.307   3.685  0.7285 -0.7951 -0.3778
 8372SOL    MW433256   2.742   2.322   3.603  0.3733 -0.2803 -0.3947
 8373SOL     OW33257   0.158   3.775   3.133  0.3448  0.0117 -0.5270
 8373SOL    HW233258   0.155   3.766   3.038  0.4285 -2.2351 -0.3687
 8373SOL    HW333259   0.247   3.748   3.157  0.2630  0.3673  0.2207
 8373SOL    MW433260   0.170   3.770   3.124  0.3450 -0.2378 -0.4074
 8374SOL     OW33261   3.221   6.304   0.188 -0.0904 -0.1890  0.3728
 8374SOL    HW233262   3.145   6.351   0.224  0.1729  0.0195  0.6617
 8374SOL    HW333263   3.277   6.288   0.264  0.1586 -0.3355  0.1581
 8374SOL    MW433264   3.218   6.308   0.203 -0.0228 -0.1809  0.3826
 8375SOL     OW33265   4.267   1.330   5.313  0.3563 -0.3103 -0.7609
 8375SOL    HW233266   4.274   1.336   5.408 -0.2511  3.6929 -0.8139
 8375SOL    HW333267   4.358   1.319   5.283  0.8956  1.1311  0.2364
 8375SOL    MW433268   4.280   1.329   5.321  0.3473  0.4081 -0.6363
 8376SOL     OW33269   1.531   4.332   5.937  0.6942 -0.3984  0.0515
 8376SOL    HW233270   1.444   4.342   5.977 -1.1975 -2.6908 -3.0259
 8376SOL    HW333271   1.580   4.279   6.000 -1.2474 -1.7580  0.5082
 8376SOL    MW433272   1.526   4.327   5.951  0.1885 -0.8802 -0.2943
 8377SOL     OW33273   6.256   5.028   0.499 -0.0007  0.0090  0.7011
 8377SOL    HW233274   6.305   4.997   0.575 -2.2302 -0.8846  1.8652
 8377SOL    HW333275   6.226   5.115   0.524  1.0912  0.6254 -0.0765
 8377SOL    MW433276   6.258   5.035   0.512 -0.1508 -0.0276  0.7521
 8378SOL     OW33277   3.579   3.359   4.799  0.1669 -0.1378 -0.2813
 8378SOL    HW233278   3.634   3.312   4.737 -1.9792 -1.5053 -1.2492
 8378SOL    HW333279   3.552   3.439   4.752 -0.3967 -0.5331 -0.6439
 8378SOL    MW433280   3.582   3.364   4.785 -0.1906 -0.3704 -0.4568
 8379SOL     OW33281   0.346   0.650   5.061  0.1726 -0.4027 -0.2177
 8379SOL    HW233282   0.333   0.560   5.031 -0.3877 -0.0134 -1.2000
 8379SOL    HW333283   0.387   0.694   4.987 -0.8708  0.4878 -0.2930
 8379SOL    MW433284   0.350   0.644   5.047 -0.0390 -0.2339 -0.3572
 8380SOL     OW33285   3.864   0.699   5.552  0.5898  0.2538  0.0058
 8380SOL    HW233286   3.954   0.731   5.545  0.7865 -0.3040 -0.1016
 8380SOL    HW333287   3.873   0.604   5.549  0.0792  0.1663  0.9699
 8380SOL    MW433288   3.877   0.691   5.550  0.5484  0.1687  0.1189
 8381SOL     OW33289   1.747   6.138   3.167  0.6163  0.3987 -0.0872
 8381SOL    HW233290   1.727   6.090   3.087  0.8906 -1.2774  0.7942
 8381SOL    HW333291   1.843   6.137   3.172  0.5789 -0.3429  0.7124
 8381SOL    MW433292   1.757   6.131   3.157  0.6475  0.0797  0.1346
 8382SOL     OW33293   3.461   0.413   0.796  0.5807 -0.5056  1.1532
 8382SOL    HW233294   3.380   0.395   0.748  1.1574  1.0035 -0.4745
 8382SOL    HW333295   3.511   0.332   0.789  0.7662 -0.2614 -1.1065
 8382SOL    MW433296   3.457   0.400   0.789  0.6813 -0.2743  0.6403
 8383SOL     OW33297   3.478   0.277   2.263  0.1887  0.0740  0.1573
 8383SOL    HW233298   3.477   0.192   2.218  0.8841 -0.1048  0.4634
 8383SOL    HW333299   3.464   0.255   2.355  0.5182  0.2774  0.2572
 8383SOL    MW433300   3.476   0.263   2.269  0.3240  0.0772  0.2109
 8384SOL     OW33301   3.783   4.968   5.056  0.7691 -0.0257 -0.5644
 8384SOL    HW233302   3.872   4.933   5.049 -0.5133 -3.7231 -0.3195
 8384SOL    HW333303   3.741   4.940   4.975 -0.6489  0.1101  0.1097
 8384SOL    MW433304   3.789   4.960   5.044  0.4128 -0.4956 -0.4432
 8385SOL     OW33305   3.281   1.259   5.263  0.1298  0.2005  0.6909
 8385SOL    HW233306   3.271   1.204   5.341 -0.7548  1.4102  1.4708
 8385SOL    HW333307   3.338   1.330   5.293  2.1254 -0.7780 -0.5895
 8385SOL    MW433308   3.287   1.261   5.277  0.2764  0.2310  0.6248
 8386SOL     OW33309   5.429   2.177   6.301  0.5050  0.2678 -0.6891
 8386SOL    HW233310   5.342   2.211   6.321  0.4192  2.2715 -3.8166
 8386SOL    HW333311   5.486   2.214   6.369 -0.5238  1.9293 -0.6887
 8386SOL    MW433312   5.425   2.186   6.313  0.3580  0.7514 -1.1017
 8387SOL     OW33313   0.529   1.337   3.299 -0.0981 -0.0707 -0.1624
 8387SOL    HW233314   0.508   1.290   3.379  0.7241  0.0249  0.1155
 8387SOL    HW333315   0.498   1.426   3.315 -0.2967 -0.1465 -0.1132
 8387SOL    MW433316   0.522   1.342   3.312 -0.0158 -0.0681 -0.1192
 8388SOL     OW33317   0.551   4.981   5.771  0.4184 -0.6510  0.6742
 8388SOL    HW233318   0.565   5.072   5.745 -1.2617 -0.2594  1.0365
 8388SOL    HW333319   0.639   4.947   5.788  1.1186  0.7017 -0.1048
 8388SOL    MW433320   0.565   4.989   5.770  0.2891 -0.4209  0.6192
 8389SOL     OW33321   4.277   3.007   3.511 -0.2433 -0.1680  0.2220
 8389SOL    HW233322   4.199   2.992   3.459 -0.7975 -0.0196  0.9874
 8389SOL    HW333323   4.246   3.004   3.602  0.8745 -1.5151  0.5852
 8389SOL    MW433324   4.263   3.005   3.516 -0.1689 -0.3261  0.3709
 8390SOL     OW33325   1.476   3.786   2.579 -0.1098  0.4300 -0.0568
 8390SOL    HW233326   1.470   3.770   2.484 -0.9921 -0.0349  0.0587
 8390SOL    HW333327   1.522   3.709   2.613  1.9009  1.4689 -0.3074
 8390SOL    MW433328   1.481   3.774   2.571  0.0391  0.5057 -0.0746
 8391SOL     OW33329   1.731   4.051   2.099  0.5373 -0.3086  0.1069
 8391SOL    HW233330   1.641   4.076   2.079  0.6715 -0.2909 -0.4919
 8391SOL    HW333331   1.752   4.099   2.179  0.4152  0.6167 -0.4015
 8391SOL    MW433332   1.722   4.060   2.107  0.5389 -0.1842 -0.0392
 8392SOL     OW33333   3.107   3.604   1.230 -0.5416  0.1429 -0.5925
 8392SOL    HW233334   3.157   3.522   1.231  0.2889  0.6225 -1.2166
 8392SOL    HW333335   3.174   3.672   1.217 -1.3161  0.8398 -1.0094
 8392SOL    MW433336   3.123   3.602   1.229 -0.5342  0.2981 -0.7299
 8393SOL     OW33337   5.468   0.408   0.503 -0.3239 -0.1550 -0.2023
 8393SOL    HW233338   5.453   0.376   0.592  0.2726  0.6274  0.1928
 8393SOL    HW333339   5.497   0.498   0.515 -1.7552  0.4662 -1.2794
 8393SOL    MW433340   5.470   0.416   0.517 -0.4340  0.0302 -0.2923
 8394SOL     OW33341   3.744   6.061   4.118 -0.2874 -0.1183 -0.3015
 8394SOL    HW233342   3.806   5.998   4.081  0.4211  0.3591  0.0465
 8394SOL    HW333343   3.771   6.070   4.209 -0.9206  0.0437 -0.1262
 8394SOL    MW433344   3.756   6.054   4.125 -0.2775 -0.0339 -0.2325
 8395SOL     OW33345   1.634   2.078   2.936 -0.1462 -0.1723 -0.4046
 8395SOL    HW233346   1.553   2.110   2.975 -0.0270 -1.4895  0.9989
 8395SOL    HW333347   1.691   2.059   3.010  1.1717 -0.0195 -1.3402
 8395SOL    MW433348   1.631   2.080   2.951  0.0434 -0.3260 -0.3429
 8396SOL     OW33349   1.167   5.959   2.270 -0.7956  0.1960 -0.4188
 8396SOL    HW233350   1.247   5.907   2.262  0.7567  2.1928  1.0739
 8396SOL    HW333351   1.151   5.964   2.365 -0.8439  2.4076 -0.4915
 8396SOL    MW433352   1.175   5.953   2.282 -0.5972  0.7513 -0.2314
 8397SOL     OW33353   1.884   5.756   4.057  0.0790 -0.6546 -0.0855
 8397SOL    HW233354   1.812   5.693   4.065 -1.2333  0.8392  0.4409
 8397SOL    HW333355   1.886   5.801   4.141  0.2135  0.7623 -0.8095
 8397SOL    MW433356   1.875   5.754   4.069 -0.0764 -0.2706 -0.1116
 8398SOL     OW33357   5.321   0.470   2.008 -0.6157  0.1656 -0.3584
 8398SOL    HW233358   5.396   0.477   1.950 -0.3745  2.8921  0.1344
 8398SOL    HW333359   5.359   0.463   2.096 -0.9366  0.6955 -0.1730
 8398SOL    MW433360   5.336   0.470   2.012 -0.6262  0.5952 -0.2689
 8399SOL     OW33361   1.756   2.889   4.912  0.5768  0.4437 -0.3000
 8399SOL    HW233362   1.709   2.872   4.994  0.8310 -0.0425 -0.2495
 8399SOL    HW333363   1.845   2.858   4.928  0.7823  0.8804 -0.5697
 8399SOL    MW433364   1.761   2.883   4.925  0.6374  0.4372 -0.3289
 8400SOL     OW33365   2.829   6.120   0.327  0.2511  0.1627  0.0606
 8400SOL    HW233366   2.827   6.029   0.358  1.2496 -0.8629 -2.6096
 8400SOL    HW333367   2.746   6.132   0.281  1.1171 -0.2839 -1.7076
 8400SOL    MW433368   2.818   6.110   0.325  0.4971 -0.0315 -0.5250
 8401SOL     OW33369   1.059   1.961   1.805 -0.1450 -0.2694  0.0017
 8401SOL    HW233370   0.985   1.930   1.857 -0.8778 -1.8933 -1.8763
 8401SOL    HW333371   1.137   1.932   1.853 -0.7206  0.5742  1.4878
 8401SOL    MW433372   1.060   1.953   1.818 -0.3177 -0.3723 -0.0500
 8402SOL     OW33373   5.615   0.620   4.934  0.3484 -0.1690 -0.1101
 8402SOL    HW233374   5.633   0.588   4.845  1.7116  0.4011 -0.0671
 8402SOL    HW333375   5.639   0.712   4.931  0.2362 -0.1026  0.8138
 8402SOL    MW433376   5.620   0.628   4.922  0.5134 -0.0850  0.0175
 8403SOL     OW33377   0.644   4.412   4.430  0.2243 -0.1056 -0.3083
 8403SOL    HW233378   0.705   4.432   4.501 -0.1823 -1.5067  0.4687
 8403SOL    HW333379   0.574   4.477   4.440 -0.0143 -0.5142  0.8109
 8403SOL    MW433380   0.643   4.423   4.441  0.1392 -0.3444 -0.0581
 8404SOL     OW33381   0.808   3.530   5.478 -0.5911 -0.4348 -0.1709
 8404SOL    HW233382   0.750   3.500   5.408  0.7584 -0.9925 -1.0938
 8404SOL    HW333383   0.793   3.625   5.483  0.9840  0.0602 -2.9231
 8404SOL    MW433384   0.798   3.539   5.470 -0.2053 -0.4430 -0.6558
 8405SOL     OW33385   4.751   0.877   4.400  0.2931 -0.5455 -0.0168
 8405SOL    HW233386   4.782   0.792   4.367  0.3772 -1.2535  1.7991
 8405SOL    HW333387   4.759   0.936   4.324 -0.3701 -2.2765 -1.5156
 8405SOL    MW433388   4.756   0.874   4.385  0.2167 -0.8673  0.0250
 8406SOL     OW33389   3.658   4.065   0.515 -0.1106  0.4428  0.0695
 8406SOL    HW233390   3.586   4.126   0.501  0.6632  1.1432 -0.9755
 8406SOL    HW333391   3.630   4.012   0.589 -2.0860  0.1289 -0.8342
 8406SOL    MW433392   3.645   4.066   0.523 -0.2691  0.4938 -0.1876
 8407SOL     OW33393   3.423   4.501   2.489  0.1092 -0.0183  0.3918
 8407SOL    HW233394   3.437   4.594   2.504  2.3989 -0.0167 -1.1282
 8407SOL    HW333395   3.461   4.458   2.567 -0.7147  0.2884  0.9719
 8407SOL    MW433396   3.430   4.507   2.502  0.3026  0.0224  0.2678
 8408SOL     OW33397   3.577   3.677   6.356 -0.2038 -0.1236  0.1322
 8408SOL    HW233398   3.517   3.698   6.285 -0.8339 -1.2087  0.3179
 8408SOL    HW333399   3.662   3.664   6.314 -0.2183  0.8634 -0.2055
 8408SOL    MW433400   3.580   3.678   6.341 -0.2889 -0.1365  0.1121
 8409SOL     OW33401   2.544   1.503   4.338 -0.0161 -0.1120  0.3312
 8409SOL    HW233402   2.510   1.446   4.407 -0.2599  1.2120  1.3287
 8409SOL    HW333403   2.588   1.443   4.278 -0.6165 -1.4030  1.1250
 8409SOL    MW433404   2.545   1.487   4.339 -0.1275 -0.1076  0.5675
 8410SOL     OW33405   2.674   3.626   4.622 -0.1589 -0.3173  0.3984
 8410SOL    HW233406   2.654   3.552   4.679 -0.8437 -1.1202 -0.8359
 8410SOL    HW333407   2.638   3.702   4.668 -1.0917 -0.9999  0.8227
 8410SOL    MW433408   2.667   3.627   4.636 -0.3723 -0.5133  0.2915
 8411SOL     OW33409   4.016   1.443   2.459 -0.4196 -0.3315  0.0781
 8411SOL    HW233410   4.089   1.485   2.413 -0.2038 -1.3638 -0.5429
 8411SOL    HW333411   4.058   1.399   2.533 -0.4390 -0.7033 -0.1295
 8411SOL    MW433412   4.031   1.443   2.463 -0.3937 -0.5168 -0.0312
 8412SOL     OW33413   6.010   2.870   0.217 -0.4616  0.7242  0.1170
 8412SOL    HW233414   6.061   2.839   0.142  0.9911  1.1606  0.8824
 8412SOL    HW333415   5.939   2.807   0.226  0.3835 -0.3516 -0.5211
 8412SOL    MW433416   6.007   2.858   0.208 -0.1585  0.6398  0.1338
 8413SOL     OW33417   2.070   1.496   5.067 -0.1102 -0.2301 -0.5212
 8413SOL    HW233418   2.146   1.553   5.078  0.4512 -1.2846  1.6856
 8413SOL    HW333419   2.010   1.523   5.136 -0.1599 -1.7414  0.0673
 8413SOL    MW433420   2.072   1.507   5.077 -0.0427 -0.5686 -0.1524
 8414SOL     OW33421   4.660   3.250   6.153 -0.6545  1.1642  0.6778
 8414SOL    HW233422   4.642   3.210   6.238  0.5429  3.1457  1.9529
 8414SOL    HW333423   4.589   3.312   6.140 -1.2912  0.2736 -0.2057
 8414SOL    MW433424   4.649   3.253   6.163 -0.5806  1.3082  0.7295
 8415SOL     OW33425   1.557   6.049   2.919  0.3762  0.1571  0.3630
 8415SOL    HW233426   1.581   5.973   2.972 -3.7154 -0.8236  1.1646
 8415SOL    HW333427   1.639   6.078   2.880  2.3847 -3.8283  1.0932
 8415SOL    MW433428   1.571   6.042   2.921  0.1014 -0.4981  0.5651
 8416SOL     OW33429   0.791   5.887   0.741  0.3024 -0.1201 -0.1535
 8416SOL    HW233430   0.735   5.957   0.707 -0.0705 -0.2983  0.0816
 8416SOL    HW333431   0.735   5.841   0.803 -0.0047 -1.6433 -1.4993
 8416SOL    MW433432   0.776   5.890   0.744  0.2127 -0.3446 -0.3001
 8417SOL     OW33433   2.274   0.726   5.456  0.3388 -0.4400 -0.6931
 8417SOL    HW233434   2.304   0.681   5.377 -0.3683 -0.2212 -1.0926
 8417SOL    HW333435   2.353   0.767   5.492  0.5706 -0.0961 -1.5789
 8417SOL    MW433436   2.289   0.726   5.451  0.2761 -0.3657 -0.8627
 8418SOL     OW33437   5.236   0.206   4.700 -0.0310  0.2762  0.2700
 8418SOL    HW233438   5.214   0.113   4.703 -0.0158  0.1813 -1.4452
 8418SOL    HW333439   5.155   0.250   4.728 -0.1743 -0.2297  0.6776
 8418SOL    MW433440   5.222   0.199   4.704 -0.0479  0.1970  0.0975
 8419SOL     OW33441   0.464   5.320   4.253  0.2829  1.0340  0.4538
 8419SOL    HW233442   0.425   5.350   4.335 -0.2461  1.5902  0.0119
 8419SOL    HW333443   0.544   5.372   4.245  0.3001  1.0274  0.5838
 8419SOL    MW433444   0.469   5.331   4.263  0.2154  1.1065  0.4127
 8420SOL     OW33445   1.940   1.794   0.297  0.0459  0.0036  0.0091
 8420SOL    HW233446   2.012   1.758   0.349  0.6735 -0.6507 -1.2740
 8420SOL    HW333447   1.980   1.864   0.246 -0.4060  0.1408 -0.1633
 8420SOL    MW433448   1.954   1.798   0.297  0.0691 -0.0646 -0.1829
 8421SOL     OW33449   3.638   5.251   1.423 -0.1260  0.7082  0.1056
 8421SOL    HW233450   3.583   5.302   1.363 -0.0022 -0.2000 -0.8004
 8421SOL    HW333451   3.722   5.243   1.378 -0.7612 -2.0275 -0.7673
 8421SOL    MW433452   3.642   5.257   1.409 -0.1935  0.2274 -0.1291
 8422SOL     OW33453   0.640   4.952   3.352  0.6371 -0.7214 -0.1168
 8422SOL    HW233454   0.611   5.020   3.292 -0.6821 -1.0488  0.1292
 8422SOL    HW333455   0.599   4.872   3.319  0.6467 -1.0664  0.6944
 8422SOL    MW433456   0.631   4.950   3.339  0.4643 -0.8101  0.0227
 8423SOL     OW33457   2.704   3.685   2.872 -0.1281  0.1251 -0.3525
 8423SOL    HW233458   2.669   3.773   2.885 -0.7885 -0.3607  1.6606
 8423SOL    HW333459   2.799   3.696   2.871 -0.2161  0.9119 -0.6425
 8423SOL    MW433460   2.712   3.698   2.874 -0.2269  0.1648 -0.1252
 8424SOL     OW33461   5.132   2.419   5.083  0.0855  0.0744  0.3055
 8424SOL    HW233462   5.171   2.446   5.166  0.0727  1.2397 -0.0489
 8424SOL    HW333463   5.205   2.383   5.033  0.6477  1.7564 -0.1517
 8424SOL    MW433464   5.147   2.418   5.087  0.1580  0.4501  0.1984
 8425SOL     OW33465   3.886   2.356   4.024  0.1469 -0.5343 -0.8323
 8425SOL    HW233466   3.931   2.271   4.025  1.7403  0.2482  1.2381
 8425SOL    HW333467   3.956   2.420   4.037 -0.9256  1.2138 -2.9867
 8425SOL    MW433468   3.902   2.353   4.026  0.2156 -0.2004 -0.8434
 8426SOL     OW33469   6.146   5.232   2.837  0.4980 -0.4192 -0.2792
 8426SOL    HW233470   6.209   5.215   2.768 -0.1281 -0.9910 -0.7282
 8426SOL    HW333471   6.072   5.275   2.792  0.5759  0.2692  0.2385
 8426SOL    MW433472   6.144   5.235   2.822  0.4257 -0.4038 -0.2701
 8427SOL     OW33473   5.319   3.012   3.427  0.1880 -0.0479 -0.2489
 8427SOL    HW233474   5.370   3.069   3.485  0.1713 -1.8405  1.6678
 8427SOL    HW333475   5.381   2.945   3.399 -0.9489 -2.3055  2.1794
 8427SOL    MW433476   5.334   3.011   3.431  0.0358 -0.5823  0.3244
 8428SOL     OW33477   5.961   3.584   3.520 -0.0785  0.2584 -0.3304
 8428SOL    HW233478   5.880   3.533   3.516  0.8845 -1.3386 -0.6039
 8428SOL    HW333479   5.944   3.661   3.467 -1.5763  0.2048  0.0247
 8428SOL    MW433480   5.948   3.587   3.513 -0.1491  0.0406 -0.3196
 8429SOL     OW33481   3.180   6.281   4.188 -0.3266 -0.7338  0.3910
 8429SOL    HW233482   3.103   6.258   4.136 -0.4301  2.6613 -1.2496
 8429SOL    HW333483   3.250   6.291   4.124  0.4362  0.1428  1.3237
 8429SOL    MW433484   3.179   6.279   4.172 -0.2396 -0.1702  0.2976
 8430SOL     OW33485   5.355   5.843   0.765  0.0777  0.7993 -0.3053
 8430SOL    HW233486   5.390   5.820   0.679 -0.8445  1.0018 -0.7484
 8430SOL    HW333487   5.371   5.765   0.819 -0.4202  0.2109 -0.9932
 8430SOL    MW433488   5.362   5.830   0.761 -0.1097  0.7484 -0.4546
 8431SOL     OW33489   1.815   3.650   1.667  0.1910 -0.3478 -0.5935
 8431SOL    HW233490   1.759   3.663   1.743 -0.2380 -0.2348 -0.9221
 8431SOL    HW333491   1.904   3.665   1.699  0.2729 -2.6607  0.4490
 8431SOL    MW433492   1.819   3.654   1.681  0.1452 -0.6380 -0.4993
 8432SOL     OW33493   4.499   2.768   3.799 -0.0467 -0.1966  0.1130
 8432SOL    HW233494   4.557   2.790   3.871  0.0510  1.6827 -0.4962
 8432SOL    HW333495   4.420   2.733   3.841 -0.3145  1.6137  1.2062
 8432SOL    MW433496   4.496   2.766   3.814 -0.0691  0.2902  0.1769
 8433SOL     OW33497   2.770   2.893   5.901  0.2384  0.6889 -0.4454
 8433SOL    HW233498   2.723   2.910   5.819  1.1638 -0.0776 -1.1613
 8433SOL    HW333499   2.817   2.811   5.885  1.2777  1.0807  0.4727
 8433SOL    MW433500   2.770   2.885   5.888  0.4976  0.6395 -0.4187
 8434SOL     OW33501   2.792   3.703   3.250 -0.2138  0.0235 -0.2961
 8434SOL    HW233502   2.837   3.741   3.175 -1.5807  1.8209 -0.2807
 8434SOL    HW333503   2.762   3.617   3.219  2.0929 -0.7202 -0.6686
 8434SOL    MW433504   2.794   3.697   3.236 -0.0898  0.1625 -0.3432
 8435SOL     OW33505   4.552   1.875   0.872  0.2671 -0.0115 -0.5130
 8435SOL    HW233506   4.579   1.962   0.842 -2.3866  0.4691 -1.8757
 8435SOL    HW333507   4.564   1.877   0.967  4.0526  0.3133 -0.8680
 8435SOL    MW433508   4.557   1.887   0.880  0.4164  0.0948 -0.7396
 8436SOL     OW33509   4.622   1.630   0.731 -0.3757  0.2531  0.5282
 8436SOL    HW233510   4.596   1.712   0.773  0.6485  0.5828  0.5617
 8436SOL    HW333511   4.692   1.595   0.786 -3.1700 -2.5986  2.6092
 8436SOL    MW433512   4.628   1.636   0.743 -0.6093 -0.0797  0.8072
 8437SOL     OW33513   0.110   5.482   2.898  0.1996 -0.4052 -0.1784
 8437SOL    HW233514   0.086   5.568   2.932 -0.2589 -0.9751  1.0067
 8437SOL    HW333515   0.060   5.420   2.951  2.8286 -1.5718  1.1662
 8437SOL    MW433516   0.100   5.485   2.909  0.4860 -0.6343  0.1554
 8438SOL     OW33517   3.672   4.102   2.913  0.1135 -0.1797 -0.1321
 8438SOL    HW233518   3.703   4.011   2.920  0.1234 -0.1615  0.0532
 8438SOL    HW333519   3.610   4.100   2.840 -0.1327 -0.4041  0.0797
 8438SOL    MW433520   3.668   4.090   2.904  0.0823 -0.2069 -0.0797
 8439SOL     OW33521   4.080   2.039   1.892  0.7527 -0.3941  0.2682
 8439SOL    HW233522   4.171   2.059   1.911  0.5538 -0.1668  1.0113
 8439SOL    HW333523   4.033   2.120   1.912  0.4118 -0.4323 -0.3355
 8439SOL    MW433524   4.085   2.053   1.897  0.6815 -0.3691  0.2866
 8440SOL     OW33525   0.675   3.945   1.037 -0.5384 -0.4695 -0.0955
 8440SOL    HW233526   0.724   3.873   0.999 -0.3978 -0.0292 -0.7713
 8440SOL    HW333527   0.591   3.943   0.991 -0.2412  0.2785 -0.7097
 8440SOL    MW433528   0.670   3.935   1.026 -0.4806 -0.3127 -0.2657
 8441SOL     OW33529   6.358   6.162   2.404 -0.0971 -0.0069  0.3252
 8441SOL    HW233530   6.447   6.172   2.369  0.7141 -0.2860  2.1697
 8441SOL    HW333531   6.313   6.241   2.377 -0.0818 -0.8839 -2.6836
 8441SOL    MW433532   6.364   6.174   2.395  0.0120 -0.1594  0.1716
 8442SOL     OW33533   4.677   2.691   2.470  0.0019 -0.5345  0.5039
 8442SOL    HW233534   4.589   2.728   2.460  0.0144 -0.7878 -0.7920
 8442SOL    HW333535   4.690   2.684   2.564 -1.0263  0.3148  0.7311
 8442SOL    MW433536   4.667   2.695   2.481 -0.1321 -0.4559  0.3629
 8443SOL     OW33537   5.214   0.086   6.091 -0.1198  0.1514 -0.2994
 8443SOL    HW233538   5.151   0.036   6.143  0.7569  0.2041  0.8569
 8443SOL    HW333539   5.183   0.176   6.095  0.7452  0.4185  1.4640
 8443SOL    MW433540   5.202   0.091   6.098  0.1100  0.1936  0.0858
 8444SOL     OW33541   0.606   4.613   1.054 -0.0255 -0.9173 -0.0225
 8444SOL    HW233542   0.531   4.637   1.108  0.8181 -1.0092  1.2184
 8444SOL    HW333543   0.570   4.604   0.966 -1.0785  1.1855  0.1233
 8444SOL    MW433544   0.592   4.615   1.050 -0.0531 -0.6520  0.1604
 8445SOL     OW33545   0.250   0.052   0.679  0.0496 -0.1865  0.6950
 8445SOL    HW233546   0.274  -0.037   0.651 -0.4335 -0.4476  1.0775
 8445SOL    HW333547   0.295   0.110   0.618  0.5796 -0.6901  0.5946
 8445SOL    MW433548   0.259   0.048   0.667  0.0558 -0.2874  0.7322
 8446SOL     OW33549   5.672   2.613   1.997  0.2937  0.0787 -0.2637
 8446SOL    HW233550   5.589   2.650   2.026  0.6635 -0.0121  0.9479
 8446SOL    HW333551   5.663   2.607   1.902 -1.3876 -0.6956 -0.0914
 8446SOL    MW433552   5.660   2.617   1.988  0.1206 -0.0355 -0.0811
 8447SOL     OW33553   0.911   2.204   1.226  0.1549 -0.6995 -0.4373
 8447SOL    HW233554   0.892   2.141   1.156 -1.0686 -0.3796 -0.4170
 8447SOL    HW333555   0.895   2.155   1.307  2.1434 -1.2521 -0.3152
 8447SOL    MW433556   0.906   2.189   1.227  0.2558 -0.7302 -0.4185
 8448SOL     OW33557   4.765   6.111   3.849  0.4014  0.7997 -0.2837
 8448SOL    HW233558   4.779   6.106   3.944  0.4874  3.9990 -0.0441
 8448SOL    HW333559   4.853   6.112   3.812  0.3681 -1.0624 -0.5145
 8448SOL    MW433560   4.779   6.110   3.856  0.4084  0.9761 -0.2825
 8449SOL     OW33561   5.606   5.924   3.091  0.1952 -0.5052 -0.5637
 8449SOL    HW233562   5.645   6.005   3.058 -0.3735 -0.2168 -0.5387
 8449SOL    HW333563   5.666   5.856   3.063 -0.4574 -0.3262 -2.6263
 8449SOL    MW433564   5.619   5.926   3.083  0.0340 -0.4436 -0.8325
 8450SOL     OW33565   0.254   2.123   3.179 -0.0597 -0.4954 -0.8616
 8450SOL    HW233566   0.310   2.170   3.241 -0.6481 -0.2111 -0.5367
 8450SOL    HW333567   0.285   2.151   3.093  0.2469 -0.2845 -0.6862
 8450SOL    MW433568   0.266   2.133   3.176 -0.0968 -0.4301 -0.7956
 8451SOL     OW33569   4.571   5.133   1.473  0.3406 -0.1071 -0.1627
 8451SOL    HW233570   4.508   5.075   1.517  0.3733 -1.2978 -1.5901
 8451SOL    HW333571   4.594   5.198   1.539 -3.1837  1.0475  0.1735
 8451SOL    MW433572   4.565   5.134   1.487 -0.1201 -0.1118 -0.3066
 8452SOL     OW33573   1.664   3.647   6.403  0.0114 -0.1342  0.1666
 8452SOL    HW233574   1.710   3.641   6.319  2.0149  2.0590  0.9814
 8452SOL    HW333575   1.583   3.695   6.382  0.2164 -0.1019 -0.6055
 8452SOL    MW433576   1.659   3.653   6.389  0.3028  0.1594  0.1722
 8453SOL     OW33577   0.656   3.177   2.650  0.4277  0.3511 -0.4067
 8453SOL    HW233578   0.563   3.155   2.644  0.3599  0.1570  0.9366
 8453SOL    HW333579   0.670   3.240   2.580 -1.2431  2.0128  0.6363
 8453SOL    MW433580   0.645   3.183   2.640  0.1983  0.5447 -0.0919
 8454SOL     OW33581   6.259   2.825   6.048 -0.9053 -0.3796  0.4794
 8454SOL    HW233582   6.305   2.908   6.059 -0.3316 -0.5316 -0.6773
 8454SOL    HW333583   6.314   2.761   6.094  0.4673 -0.6800 -1.4692
 8454SOL    MW433584   6.272   2.827   6.056 -0.6485 -0.4393  0.0697
 8455SOL     OW33585   1.830   4.137   2.341 -0.6267 -0.0677 -0.1068
 8455SOL    HW233586   1.742   4.112   2.372 -0.6991 -1.9516 -1.6176
 8455SOL    HW333587   1.889   4.080   2.390 -0.1145  1.6429  1.3848
 8455SOL    MW433588   1.826   4.126   2.352 -0.5687 -0.0906 -0.1093
 8456SOL     OW33589   3.617   1.064   5.523  0.4885 -0.0395 -0.4099
 8456SOL    HW233590   3.664   1.056   5.439  0.7628  0.6525 -0.3272
 8456SOL    HW333591   3.570   0.981   5.531  1.1592 -0.4776 -0.8231
 8456SOL    MW433592   3.617   1.052   5.513  0.6132 -0.0060 -0.4535
 8457SOL     OW33593   1.792   3.559   2.100 -0.2187 -0.0847 -0.0006
 8457SOL    HW233594   1.745   3.502   2.162  0.1712 -1.0415 -0.5627
 8457SOL    HW333595   1.772   3.522   2.014  0.1692  0.5458 -0.3657
 8457SOL    MW433596   1.783   3.547   2.097 -0.1161 -0.1277 -0.1229
 8458SOL     OW33597   5.542   4.645   2.822  0.3909 -0.5817  0.0634
 8458SOL    HW233598   5.610   4.636   2.889  0.0281  0.1372  0.5373
 8458SOL    HW333599   5.468   4.595   2.856  0.0768  0.0886  0.3869
 8458SOL    MW433600   5.541   4.637   2.835  0.3016 -0.3984  0.1686
 8459SOL     OW33601   4.552   4.368   2.423  0.0568 -0.0644  0.4555
 8459SOL    HW233602   4.641   4.352   2.392 -0.3147  0.6419 -1.0483
 8459SOL    HW333603   4.526   4.449   2.380 -1.7281 -0.8481 -0.0142
 8459SOL    MW433604   4.561   4.377   2.414 -0.2277 -0.0746  0.1951
 8460SOL     OW33605   3.304   2.606   1.593 -0.1449  0.2016 -0.4851
 8460SOL    HW233606   3.385   2.639   1.631 -0.2617  3.3682 -2.5870
 8460SOL    HW333607   3.236   2.662   1.630 -0.8347  0.2566 -1.7873
 8460SOL    MW433608   3.306   2.618   1.603 -0.2513  0.6266 -0.9342
 8461SOL     OW33609   5.397   5.878   5.488 -0.2060  0.4193 -0.5606
 8461SOL    HW233610   5.384   5.822   5.564  3.3364  0.3505  0.1283
 8461SOL    HW333611   5.343   5.955   5.506 -1.1553 -0.5346  0.9141
 8461SOL    MW433612   5.388   5.881   5.500  0.1361  0.2844 -0.2751
 8462SOL     OW33613   0.378   6.150   1.752  0.1704  0.4798 -0.0337
 8462SOL    HW233614   0.296   6.196   1.734  0.5454  2.3193  2.3868
 8462SOL    HW333615   0.356   6.090   1.823 -0.0853 -2.6260 -2.5377
 8462SOL    MW433616   0.364   6.148   1.759  0.1861  0.3127 -0.0447
 8463SOL     OW33617   3.161   0.142   2.472 -0.2323  0.8116 -0.4573
 8463SOL    HW233618   3.111   0.185   2.540  0.3103  0.7225  0.0043
 8463SOL    HW333619   3.148   0.196   2.394  1.3112  2.4661  0.3587
 8463SOL    MW433620   3.153   0.155   2.470  0.0430  1.0181 -0.2887
 8464SOL     OW33621   5.829   1.649   1.844 -0.6095 -0.1189  0.1425
 8464SOL    HW233622   5.763   1.612   1.901  0.0189  1.0240  1.6934
 8464SOL    HW333623   5.779   1.691   1.773 -1.4358 -0.9045  0.2494
 8464SOL    MW433624   5.814   1.650   1.842 -0.6356 -0.0718  0.3612
 8465SOL     OW33625   0.392   3.659   3.180 -0.1605 -0.1592  0.0244
 8465SOL    HW233626   0.421   3.609   3.256  1.6666 -0.2026 -0.6561
 8465SOL    HW333627   0.391   3.596   3.108  1.2406  0.5200 -0.6375
 8465SOL    MW433628   0.396   3.644   3.181  0.2654 -0.0753 -0.1527
 8466SOL     OW33629   2.843   1.326   1.823  0.6286  0.3326 -0.5645
 8466SOL    HW233630   2.897   1.255   1.858  0.5031  0.2810 -0.4767
 8466SOL    HW333631   2.871   1.335   1.732  0.2997 -0.1515 -0.7115
 8466SOL    MW433632   2.854   1.318   1.816  0.5687  0.2619 -0.5723
 8467SOL     OW33633   0.671   4.276   3.756 -0.5391  0.3304 -0.1419
 8467SOL    HW233634   0.636   4.271   3.667 -0.7740 -0.5091 -0.0098
 8467SOL    HW333635   0.608   4.228   3.809  0.1851 -0.1575  0.2891
 8467SOL    MW433636   0.658   4.269   3.751 -0.4745  0.1553 -0.0676
 8468SOL     OW33637   4.941   1.412   2.040  0.3350  0.2169 -0.1159
 8468SOL    HW233638   4.968   1.434   1.950 -0.1071 -0.9714 -0.5542
 8468SOL    HW333639   5.001   1.343   2.067  1.5817  1.7081  1.1827
 8468SOL    MW433640   4.952   1.406   2.031  0.4411  0.2569 -0.0024
 8469SOL     OW33641   3.917   0.000   1.209  0.4889  0.4686 -0.1092
 8469SOL    HW233642   3.839   0.056   1.213 -0.6337 -1.0265 -0.1738
 8469SOL    HW333643   3.974   0.044   1.146 -0.5446  1.3190 -0.4928
 8469SOL    MW433644   3.914   0.014   1.201  0.2044  0.3836 -0.1684
 8470SOL     OW33645   1.631   3.150   1.812 -0.2680 -0.4347  0.4149
 8470SOL    HW233646   1.630   3.220   1.747 -0.9556  1.1158  2.0039
 8470SOL    HW333647   1.682   3.080   1.772  1.2551  1.3312 -0.8919
 8470SOL    MW433648   1.638   3.150   1.798 -0.1578  0.0028  0.4521
 8471SOL     OW33649   6.110   0.328   2.656 -0.5781 -0.3805 -0.0235
 8471SOL    HW233650   6.106   0.356   2.747 -1.0124  0.1690 -0.2048
 8471SOL    HW333651   6.022   0.294   2.638 -0.9599  0.9071 -0.6696
 8471SOL    MW433652   6.098   0.327   2.665 -0.6857 -0.1381 -0.1326
 8472SOL     OW33653   0.077   3.304   1.214 -0.1290 -0.4863  0.4526
 8472SOL    HW233654   0.147   3.303   1.280  0.8101  0.4098 -0.4769
 8472SOL    HW333655   0.099   3.379   1.158 -2.6813  0.7336  0.9848
 8472SOL    MW433656   0.089   3.314   1.215 -0.3419 -0.2072  0.4002
 8473SOL     OW33657   0.852   2.746   0.146  0.1507  0.3657  0.2465
 8473SOL    HW233658   0.774   2.703   0.180 -0.4798 -3.3283 -4.6576
 8473SOL    HW333659   0.818   2.818   0.093  0.4060  0.9315  0.8429
 8473SOL    MW433660   0.837   2.750   0.143  0.1012 -0.0470 -0.3218
 8474SOL     OW33661   3.550   3.900   1.878 -0.4690 -0.1659 -0.2141
 8474SOL    HW233662   3.482   3.954   1.838 -0.3801 -0.5235 -0.8647
 8474SOL    HW333663   3.501   3.835   1.929 -0.5741  0.5453  0.6189
 8474SOL    MW433664   3.534   3.898   1.880 -0.4711 -0.1193 -0.1900
 8475SOL     OW33665   0.910   1.982   1.392 -0.0754  0.5291 -0.0326
 8475SOL    HW233666   1.001   1.966   1.415 -0.3517  0.2155  0.8723
 8475SOL    HW333667   0.861   1.968   1.473 -0.7852  2.1401 -0.1475
 8475SOL    MW433668   0.915   1.978   1.405 -0.2055  0.7002  0.0716
 8476SOL     OW33669   3.772   2.799   5.422 -0.1899 -0.4538 -0.0381
 8476SOL    HW233670   3.725   2.882   5.409 -0.8826 -1.0815 -1.9434
 8476SOL    HW333671   3.850   2.808   5.366  0.9933 -0.1956  1.5851
 8476SOL    MW433672   3.776   2.811   5.413 -0.1252 -0.5025 -0.0753
 8477SOL     OW33673   6.401   2.657   2.535  0.1843 -0.4308  0.3578
 8477SOL    HW233674   6.484   2.628   2.574  0.3905 -0.0526  0.2116
 8477SOL    HW333675   6.377   2.735   2.585  0.3646 -0.0412 -0.1457
 8477SOL    MW433676   6.409   2.663   2.547  0.2353 -0.3295  0.2721
 8478SOL     OW33677   6.043   5.230   3.207 -0.6865 -0.3015 -0.5677
 8478SOL    HW233678   5.984   5.237   3.282 -0.8322 -0.6489 -0.6470
 8478SOL    HW333679   6.040   5.138   3.183  1.7750 -0.8807  0.9468
 8478SOL    MW433680   6.035   5.219   3.214 -0.3810 -0.4238 -0.3783
 8479SOL     OW33681   0.859   1.810   4.389 -0.6150  0.1152 -0.2477
 8479SOL    HW233682   0.819   1.773   4.468  1.0001 -1.7868 -0.2634
 8479SOL    HW333683   0.930   1.750   4.367 -0.4793  1.0655 -2.6819
 8479SOL    MW433684   0.863   1.797   4.397 -0.3840 -0.0103 -0.5709
 8480SOL     OW33685   4.697   0.447   1.468  0.1065 -0.1867  0.5427
 8480SOL    HW233686   4.679   0.538   1.493  0.5961 -0.4176  1.7798
 8480SOL    HW333687   4.716   0.402   1.550  1.9611 -0.9396 -0.2566
 8480SOL    MW433688   4.697   0.453   1.482  0.4158 -0.3165  0.6005
 8481SOL     OW33689   5.332   4.038   2.376 -0.5980  0.1198  0.1050
 8481SOL    HW233690   5.417   3.994   2.382  1.1476  2.7562 -2.3517
 8481SOL    HW333691   5.290   3.999   2.299 -0.5433  0.4581 -0.0963
 8481SOL    MW433692   5.338   4.027   2.366 -0.3605  0.5123 -0.2457
 8482SOL     OW33693   0.396   0.906   4.649  0.0222  0.4360 -0.0561
 8482SOL    HW233694   0.449   0.958   4.589 -2.1430  1.2195 -1.4259
 8482SOL    HW333695   0.343   0.970   4.696 -1.4280 -0.3967 -0.4914
 8482SOL    MW433696   0.396   0.921   4.647 -0.4549  0.4295 -0.2943
 8483SOL     OW33697   2.250   0.531   1.267  0.1816 -0.0381  0.1686
 8483SOL    HW233698   2.335   0.573   1.277 -0.0062  0.6855 -1.1315
 8483SOL    HW333699   2.256   0.484   1.184 -0.7283  0.1307  0.0019
 8483SOL    MW433700   2.262   0.530   1.257  0.0367  0.0797 -0.0250
 8484SOL     OW33701   2.468   3.442   2.119  0.4374 -0.5416 -0.6674
 8484SOL    HW233702   2.500   3.494   2.193  1.4707  0.1245 -1.5520
 8484SOL    HW333703   2.424   3.506   2.063  1.3305 -0.6711 -1.5499
 8484SOL    MW433704   2.466   3.458   2.121  0.6916 -0.4708 -0.9006
 8485SOL     OW33705   0.300   4.362   2.561  0.7896  0.0834  0.5757
 8485SOL    HW233706   0.244   4.394   2.491  0.5358 -1.2306  0.1410
 8485SOL    HW333707   0.338   4.281   2.526  1.7273  0.1219  1.4463
 8485SOL    MW433708   0.298   4.355   2.547  0.8798 -0.0849  0.6332
 8486SOL     OW33709   6.239   3.245   6.237  0.0382  0.0777 -0.1805
 8486SOL    HW233710   6.169   3.272   6.297  0.6767  0.0197  0.6073
 8486SOL    HW333711   6.296   3.322   6.231 -0.1990  0.2003 -0.9906
 8486SOL    MW433712   6.237   3.259   6.244  0.0911  0.0862 -0.1834
 8487SOL     OW33713   1.571   3.557   4.211 -0.2401  0.2898  0.3419
 8487SOL    HW233714   1.515   3.546   4.134  0.2141  2.2144 -0.3355
 8487SOL    HW333715   1.607   3.646   4.202  2.8486 -0.7894  0.7759
 8487SOL    MW433716   1.568   3.567   4.200  0.2273  0.4013  0.3098
 8488SOL     OW33717   4.677   5.979   4.333  0.0209 -0.0234  0.0491
 8488SOL    HW233718   4.613   6.049   4.315  1.4881  1.2704 -0.3000
 8488SOL    HW333719   4.655   5.910   4.270 -0.4720  0.7746 -0.6693
 8488SOL    MW433720   4.665   5.979   4.322  0.1495  0.2526 -0.0917
 8489SOL     OW33721   4.589   1.041   5.778  0.5171 -0.1586 -0.6357
 8489SOL    HW233722   4.548   1.047   5.692 -3.8923  1.1181  1.2480
 8489SOL    HW333723   4.636   1.124   5.788 -1.4571  1.0640 -0.8335
 8489SOL    MW433724   4.590   1.053   5.768 -0.3251  0.1712 -0.4133
 8490SOL     OW33725   2.673   0.201   1.256 -0.1171 -1.0721  0.4735
 8490SOL    HW233726   2.724   0.126   1.225 -0.1213 -1.8871  2.3355
 8490SOL    HW333727   2.738   0.265   1.285 -0.1324 -0.6714 -0.3330
 8490SOL    MW433728   2.688   0.199   1.256 -0.1196 -1.1268  0.6128
 8491SOL     OW33729   3.912   4.263   0.623  0.0923 -0.1739  0.5091
 8491SOL    HW233730   3.859   4.301   0.553  0.3174 -0.5055  0.1569
 8491SOL    HW333731   3.986   4.323   0.631  0.0064 -0.0714  0.5460
 8491SOL    MW433732   3.915   4.276   0.615  0.1106 -0.2041  0.4675
 8492SOL     OW33733   2.264   5.130   2.564  0.4502  0.0485  0.4230
 8492SOL    HW233734   2.314   5.175   2.633  1.1758  0.6544 -0.4784
 8492SOL    HW333735   2.303   5.042   2.561  0.3386 -0.0216  0.8517
 8492SOL    MW433736   2.276   5.124   2.573  0.5312  0.1192  0.3606
 8493SOL     OW33737   1.865   2.625   5.056 -0.8476  0.4554  0.6123
 8493SOL    HW233738   1.807   2.551   5.067 -0.3096 -0.0613  0.0652
 8493SOL    HW333739   1.884   2.654   5.145 -1.2354  0.0788  0.8212
 8493SOL    MW433740   1.860   2.619   5.069 -0.8277  0.3376  0.5676
 8494SOL     OW33741   6.435   0.551   3.428 -0.1986  0.2838 -0.0085
 8494SOL    HW233742   6.361   0.523   3.481 -0.5786  1.3586  0.0303
 8494SOL    HW333743   6.452   0.641   3.455  1.0580  0.0897 -0.0920
 8494SOL    MW433744   6.428   0.559   3.439 -0.0830  0.4000 -0.0144
 8495SOL     OW33745   0.710   5.950   3.993 -0.4390  0.0287 -0.2772
 8495SOL    HW233746   0.622   5.927   4.023  0.1122 -1.8666 -0.0016
 8495SOL    HW333747   0.722   5.900   3.913 -0.2996  1.7939 -1.4185
 8495SOL    MW433748   0.700   5.940   3.987 -0.3479  0.0116 -0.3914
 8496SOL     OW33749   5.800   6.092   2.704 -0.2515  0.4161 -0.0317
 8496SOL    HW233750   5.811   6.173   2.654 -0.5082  0.1977 -0.4423
 8496SOL    HW333751   5.748   6.118   2.780 -0.3978  0.6191 -0.2007
 8496SOL    MW433752   5.795   6.106   2.708 -0.3046  0.4140 -0.1082
 8497SOL     OW33753   3.735   2.356   6.178  0.1921  0.0657 -0.1512
 8497SOL    HW233754   3.797   2.393   6.115 -0.8151  1.4003 -0.3932
 8497SOL    HW333755   3.674   2.427   6.197 -1.0181 -1.0720  0.4146
 8497SOL    MW433756   3.735   2.370   6.172 -0.1004  0.0917 -0.1085
 8498SOL     OW33757   2.329   0.045   2.702  0.3300 -0.0282  0.2721
 8498SOL    HW233758   2.309   0.118   2.644 -1.0148 -0.3158  0.3449
 8498SOL    HW333759   2.366  -0.022   2.644  0.8656  0.4178  0.0876
 8498SOL    MW433760   2.331   0.046   2.687  0.2233 -0.0073  0.2574
 8499SOL     OW33761   1.893   1.409   2.822 -0.0693  0.2923  0.2818
 8499SOL    HW233762   1.952   1.418   2.747  0.3150  1.4947  0.7032
 8499SOL    HW333763   1.950   1.408   2.898 -0.5767  2.1671  0.7455
 8499SOL    MW433764   1.908   1.410   2.822 -0.0855  0.6983  0.3986
 8500SOL     OW33765   0.183   3.074   3.231 -0.2067  0.5002 -0.2352
 8500SOL    HW233766   0.189   3.016   3.307 -0.4273 -1.5607 -1.7089
 8500SOL    HW333767   0.089   3.083   3.215 -0.1409  0.3667 -0.6873
 8500SOL    MW433768   0.172   3.068   3.239 -0.2271  0.2107 -0.4893
 8501SOL     OW33769   1.687   2.153   2.064 -0.0472 -0.3690 -0.1989
 8501SOL    HW233770   1.773   2.191   2.044  0.7433 -1.7945  0.4026
 8501SOL    HW333771   1.626   2.202   2.008  1.0065  1.3064  0.0531
 8501SOL    MW433772   1.690   2.165   2.054  0.1961 -0.3360 -0.0863
 8502SOL     OW33773   2.614   0.852   4.194  0.7460  0.2687 -0.3250
 8502SOL    HW233774   2.653   0.834   4.280 -0.8095  2.4061  0.9198
 8502SOL    HW333775   2.551   0.782   4.181  1.3259 -0.3346  0.0373
 8502SOL    MW433776   2.611   0.841   4.204  0.6173  0.4711 -0.1129
 8503SOL     OW33777   2.674   2.921   3.020  0.0531  0.4255 -0.2579
 8503SOL    HW233778   2.695   2.838   3.063 -0.2412 -1.3828 -3.2960
 8503SOL    HW333779   2.752   2.940   2.967 -1.8652 -1.0066 -3.8856
 8503SOL    MW433780   2.687   2.912   3.019 -0.2388 -0.0020 -1.1373
 8504SOL     OW33781   5.124   0.457   4.751  0.4873 -0.1733  0.1018
 8504SOL    HW233782   5.216   0.461   4.775  0.8828 -2.1325 -0.8605
 8504SOL    HW333783   5.079   0.506   4.820  2.0161 -1.2474  1.9731
 8504SOL    MW433784   5.130   0.464   4.763  0.7412 -0.5735  0.2217
 8505SOL     OW33785   2.684   5.449   4.384  0.1037  0.4613  0.3644
 8505SOL    HW233786   2.732   5.501   4.320 -0.0453 -0.1571 -0.2654
 8505SOL    HW333787   2.677   5.362   4.344 -1.5157  0.5225  0.4175
 8505SOL    MW433788   2.689   5.444   4.370 -0.1297  0.3878  0.2883
 8506SOL     OW33789   3.337   5.813   0.360  0.0528  0.2151 -0.2875
 8506SOL    HW233790   3.264   5.751   0.363 -0.9508  1.3628  0.1841
 8506SOL    HW333791   3.306   5.888   0.411  1.5265  0.7885 -0.1964
 8506SOL    MW433792   3.323   5.815   0.367  0.1149  0.4422 -0.2133
 8507SOL     OW33793   2.531   0.417   0.380 -0.0705  0.1639 -0.2901
 8507SOL    HW233794   2.549   0.452   0.467  1.7582  1.4556 -1.1372
 8507SOL    HW333795   2.436   0.410   0.376 -0.2044  0.5072  1.6477
 8507SOL    MW433796   2.521   0.421   0.391  0.1531  0.3796 -0.1462
 8508SOL     OW33797   3.037   3.667   2.533  0.6675  0.0079  0.0646
 8508SOL    HW233798   3.010   3.733   2.470  0.7513 -0.2850 -0.2826
 8508SOL    HW333799   3.024   3.584   2.488  0.2163 -0.2340  0.6276
 8508SOL    MW433800   3.032   3.665   2.519  0.6190 -0.0626  0.0931
 8509SOL     OW33801   5.217   5.500   3.518 -0.5513  0.1474 -0.1825
 8509SOL    HW233802   5.291   5.545   3.478  0.5842 -0.6839  0.9246
 8509SOL    HW333803   5.209   5.418   3.469 -0.4108  0.0178  0.0069
 8509SOL    MW433804   5.226   5.495   3.507 -0.3830  0.0206 -0.0115
 8510SOL     OW33805   0.700   2.660   0.880  0.5703  0.3619 -0.0580
 8510SOL    HW233806   0.758   2.665   0.955  0.7660  0.5988 -0.2239
 8510SOL    HW333807   0.616   2.630   0.916  1.2850 -1.8234 -0.0761
 8510SOL    MW433808   0.696   2.656   0.894  0.6904  0.1048 -0.0823
 8511SOL     OW33809   0.727   4.178   0.887  0.5192 -0.2219  0.1274
 8511SOL    HW233810   0.700   4.161   0.796 -0.1851  1.2651  0.0352
 8511SOL    HW333811   0.720   4.093   0.930  0.1167 -0.7963 -1.0343
 8511SOL    MW433812   0.722   4.165   0.880  0.3731 -0.1015 -0.0381
 8512SOL     OW33813   6.297   2.471   6.039  0.0564  0.1000 -0.2693
 8512SOL    HW233814   6.246   2.410   6.092 -0.4075  1.3531  0.7730
 8512SOL    HW333815   6.235   2.500   5.971 -0.3405  0.8790  0.4114
 8512SOL    MW433816   6.282   2.467   6.037 -0.0571  0.3681 -0.0420
 8513SOL     OW33817   2.572   3.469   2.958  0.5721  0.0314 -0.8661
 8513SOL    HW233818   2.479   3.484   2.975  0.2244 -1.0448 -1.7251
 8513SOL    HW333819   2.608   3.557   2.947 -0.2869  0.4756 -0.3004
 8513SOL    MW433820   2.564   3.483   2.959  0.4129 -0.0520 -0.9048
 8514SOL     OW33821   6.180   5.789   4.707  0.0009  0.7546 -0.1580
 8514SOL    HW233822   6.248   5.840   4.751  0.0365  0.0627  0.6160
 8514SOL    HW333823   6.153   5.724   4.772  1.3147 -1.4700 -1.7204
 8514SOL    MW433824   6.185   5.787   4.721  0.1790  0.3698 -0.2620
 8515SOL     OW33825   1.463   4.287   5.222 -0.0934 -0.2819  0.5563
 8515SOL    HW233826   1.381   4.308   5.268  0.3704  1.4889  0.6404
 8515SOL    HW333827   1.519   4.248   5.290 -0.8781 -1.6373  0.4664
 8515SOL    MW433828   1.460   4.285   5.237 -0.1357 -0.2271  0.5555
 8516SOL     OW33829   4.863   4.026   0.929  0.2813 -0.3934 -0.2306
 8516SOL    HW233830   4.941   3.978   0.899  0.5549  0.2208 -0.5116
 8516SOL    HW333831   4.897   4.095   0.985 -0.1386 -0.7181  0.4338
 8516SOL    MW433832   4.878   4.028   0.932  0.2620 -0.3552 -0.1800
 8517SOL     OW33833   0.236   4.357   3.737  0.1856  0.5862 -0.0430
 8517SOL    HW233834   0.301   4.406   3.687 -0.7555  1.3928 -0.5115
 8517SOL    HW333835   0.249   4.266   3.710 -0.9735  1.0936 -2.6260
 8517SOL    MW433836   0.246   4.351   3.727 -0.0915  0.7595 -0.4456
 8518SOL     OW33837   2.842   6.136   6.382 -1.0128  0.2257 -0.2076
 8518SOL    HW233838   2.822   6.175   6.297 -0.7109 -0.1478 -0.4547
 8518SOL    HW333839   2.938   6.132   6.384 -0.9819  0.9772  0.4943
 8518SOL    MW433840   2.852   6.141   6.371 -0.9689  0.2756 -0.1476
 8519SOL     OW33841   1.852   0.311   1.948  0.1805  0.0152 -0.4374
 8519SOL    HW233842   1.782   0.375   1.957 -0.2471 -0.6245  1.0086
 8519SOL    HW333843   1.813   0.228   1.976  1.5423 -0.3252  0.5642
 8519SOL    MW433844   1.838   0.308   1.953  0.3037 -0.1141 -0.1145
 8520SOL     OW33845   1.591   2.788   1.792 -0.5973 -0.2481  0.3018
 8520SOL    HW233846   1.584   2.734   1.714 -1.7851 -0.9111  0.8409
 8520SOL    HW333847   1.547   2.870   1.768 -0.4525 -0.2332  0.0878
 8520SOL    MW433848   1.584   2.792   1.778 -0.7349 -0.3336  0.3447
 8521SOL     OW33849   2.337   2.725   4.120  0.5409  0.6058 -0.0591
 8521SOL    HW233850   2.294   2.643   4.098  1.5025  0.3420 -1.0314
 8521SOL    HW333851   2.348   2.722   4.215  0.8850 -0.5548 -0.1249
 8521SOL    MW433852   2.333   2.714   4.130  0.7131  0.4179 -0.1961
 8522SOL     OW33853   0.495   4.666   3.018  0.4841 -0.8656 -0.0037
 8522SOL    HW233854   0.484   4.707   3.103 -2.9782 -0.2456 -0.5850
 8522SOL    HW333855   0.585   4.687   2.992  0.2653  2.7294  1.5774
 8522SOL    MW433856   0.505   4.674   3.026 -0.0016 -0.3095  0.1282
 8523SOL     OW33857   3.297   4.976   0.262 -0.4885  0.3857 -0.6832
 8523SOL    HW233858   3.321   4.974   0.355 -0.6147 -1.1339 -0.6525
 8523SOL    HW333859   3.368   4.929   0.218 -1.1225 -0.1586 -1.1575
 8523SOL    MW433860   3.310   4.969   0.268 -0.5888  0.1134 -0.7417
 8524SOL     OW33861   4.019   0.899   5.765 -0.1035  0.1791  0.4008
 8524SOL    HW233862   3.979   0.915   5.851 -0.8035  1.4069 -0.1371
 8524SOL    HW333863   4.048   0.985   5.736  2.5770 -0.5664  0.5458
 8524SOL    MW433864   4.018   0.912   5.773  0.1578  0.2427  0.3490
 8525SOL     OW33865   3.378   5.208   4.469 -0.1906 -0.5716  0.3165
 8525SOL    HW233866   3.441   5.245   4.407  2.1218 -2.6851  1.1988
 8525SOL    HW333867   3.342   5.284   4.515 -0.7372  0.9103 -2.4039
 8525SOL    MW433868   3.382   5.223   4.467  0.0423 -0.6549  0.0740
 8526SOL     OW33869   0.612   5.823   4.622  0.7312 -0.0543  0.8042
 8526SOL    HW233870   0.540   5.806   4.683  0.1421  2.2422  0.8348
 8526SOL    HW333871   0.580   5.791   4.538 -1.3852  2.8772  0.3203
 8526SOL    MW433872   0.598   5.817   4.619  0.3743  0.6355  0.7444
 8527SOL     OW33873   1.693   1.426   3.188  0.2983  0.0760  0.0711
 8527SOL    HW233874   1.598   1.422   3.193  0.2510  1.0928  0.2449
 8527SOL    HW333875   1.719   1.340   3.156 -0.6357 -0.4155  0.5960
 8527SOL    MW433876   1.684   1.414   3.184  0.1688  0.1453  0.1633
 8528SOL     OW33877   2.875   3.731   5.691 -0.2000 -0.2626  0.6879
 8528SOL    HW233878   2.920   3.652   5.661  3.8194  2.6277 -1.9462
 8528SOL    HW333879   2.940   3.779   5.742 -1.8747  2.1282  0.7817
 8528SOL    MW433880   2.889   3.727   5.694  0.1094  0.4342  0.3527
 8529SOL     OW33881   5.491   0.698   5.243 -0.1541  0.6589  0.2192
 8529SOL    HW233882   5.447   0.657   5.317  1.2308 -0.5351  0.4231
 8529SOL    HW333883   5.438   0.674   5.167 -0.1307 -0.3480  0.5093
 8529SOL    MW433884   5.478   0.690   5.243  0.0317  0.3685  0.2844
 8530SOL     OW33885   2.118   1.413   6.268  0.2514 -0.0911 -0.2517
 8530SOL    HW233886   2.197   1.397   6.216  0.7189 -0.2494  0.4981
 8530SOL    HW333887   2.130   1.360   6.346 -1.1505 -1.0808 -0.6586
 8530SOL    MW433888   2.130   1.404   6.271  0.1281 -0.2426 -0.2065
 8531SOL     OW33889   4.501   2.118   0.503 -0.7508  1.2057  0.3518
 8531SOL    HW233890   4.450   2.038   0.493  0.8759  0.2322 -0.5713
 8531SOL    HW333891   4.545   2.109   0.588  0.8991  0.1669 -0.5448
 8531SOL    MW433892   4.500   2.107   0.513 -0.3185  0.9402  0.1117
 8532SOL     OW33893   4.904   2.595   3.953  0.4551  0.3038 -0.2886
 8532SOL    HW233894   4.904   2.500   3.944 -1.6467  0.3159 -0.9341
 8532SOL    HW333895   4.977   2.613   4.013  1.9028 -1.5414 -1.3783
 8532SOL    MW433896   4.914   2.585   3.960  0.3688  0.0620 -0.5175
 8533SOL     OW33897   1.102   0.735   5.059  0.3607 -0.6048  0.8143
 8533SOL    HW233898   1.063   0.813   5.098  0.3768 -0.2078  0.0722
 8533SOL    HW333899   1.186   0.725   5.103  2.1227  2.0256 -1.5599
 8533SOL    MW433900   1.108   0.744   5.070  0.5953 -0.2054  0.4032
 8534SOL     OW33901   1.473   5.769   1.937 -0.2382  0.2487 -0.9663
 8534SOL    HW233902   1.442   5.856   1.910  0.5629  1.8511  2.6275
 8534SOL    HW333903   1.565   5.783   1.959 -0.2491 -1.3654  0.2283
 8534SOL    MW433904   1.481   5.782   1.936 -0.1339  0.2472 -0.3345
 8535SOL     OW33905   4.589   6.272   2.813  0.3536 -0.5940  0.0812
 8535SOL    HW233906   4.647   6.248   2.742  2.2841  0.9369  1.0293
 8535SOL    HW333907   4.627   6.230   2.891 -0.0886  0.0161  0.6423
 8535SOL    MW433908   4.602   6.264   2.814  0.5500 -0.3115  0.2803
 8536SOL     OW33909   5.253   1.610   5.396 -0.6841  0.4189 -0.2066
 8536SOL    HW233910   5.250   1.556   5.476 -2.0787 -0.7223 -0.9696
 8536SOL    HW333911   5.185   1.676   5.410 -0.8194  0.3153 -0.3648
 8536SOL    MW433912   5.243   1.612   5.408 -0.8859  0.2547 -0.3281
 8537SOL     OW33913   1.056   0.787   4.581 -0.0548 -0.4348 -0.2041
 8537SOL    HW233914   1.118   0.737   4.529  1.5759  2.4064 -1.2495
 8537SOL    HW333915   0.971   0.749   4.560  1.0488 -2.6960 -0.8808
 8537SOL    MW433916   1.053   0.776   4.572  0.3060 -0.3582 -0.4313
 8538SOL     OW33917   4.092   4.706   1.776 -0.2324  0.1689  0.2993
 8538SOL    HW233918   4.054   4.640   1.833 -0.6573  1.0634  1.0905
 8538SOL    HW333919   4.158   4.749   1.831  0.3762  0.0891 -0.3572
 8538SOL    MW433920   4.096   4.703   1.791 -0.2082  0.2764  0.3171
 8539SOL     OW33921   2.084   4.069   5.033  0.3369 -0.0910 -0.0061
 8539SOL    HW233922   2.044   4.143   4.988 -0.1876  0.3057  1.0900
 8539SOL    HW333923   2.011   4.020   5.070  0.6752 -1.1597 -0.6873
 8539SOL    MW433924   2.069   4.072   5.032  0.3123 -0.1797  0.0486
 8540SOL     OW33925   0.537   5.360   2.443 -0.2613 -0.6216  0.1354
 8540SOL    HW233926   0.600   5.336   2.375  0.6636  0.1911  0.6896
 8540SOL    HW333927   0.577   5.331   2.524 -0.7743 -0.4191  0.4657
 8540SOL    MW433928   0.550   5.353   2.445 -0.2069 -0.4877  0.2521
 8541SOL     OW33929   0.523   0.977   1.033 -0.0435  0.4569  0.0654
 8541SOL    HW233930   0.608   1.016   1.052 -0.9891  1.6037  2.2450
 8541SOL    HW333931   0.494   1.021   0.952  0.4267  1.7666  0.5818
 8541SOL    MW433932   0.530   0.988   1.025 -0.1062  0.7810  0.4211
 8542SOL     OW33933   6.419   5.569   5.589 -0.0847  0.1842 -0.3676
 8542SOL    HW233934   6.493   5.509   5.596  0.3746  0.8680  0.8507
 8542SOL    HW333935   6.406   5.580   5.495  1.2753 -0.0549 -0.6067
 8542SOL    MW433936   6.427   5.563   5.578  0.1554  0.2428 -0.2384
 8543SOL     OW33937   3.673   1.972   0.341 -0.0219  0.2927  0.0247
 8543SOL    HW233938   3.647   2.036   0.275 -0.8604 -0.1132 -0.0508
 8543SOL    HW333939   3.626   1.892   0.317  1.0717 -0.3838  0.0674
 8543SOL    MW433940   3.664   1.970   0.329  0.0118  0.1499  0.0203
 8544SOL     OW33941   4.719   4.869   6.136 -0.4911  1.1476 -0.5427
 8544SOL    HW233942   4.813   4.855   6.144 -0.4796  0.9892 -0.8953
 8544SOL    HW333943   4.680   4.808   6.200 -0.4155 -0.1795 -1.6959
 8544SOL    MW433944   4.726   4.859   6.145 -0.4796  0.9516 -0.7413
 8545SOL     OW33945   5.470   2.339   0.443 -0.1457  0.3339  0.0381
 8545SOL    HW233946   5.384   2.318   0.480  0.5821 -0.7245  1.2499
 8545SOL    HW333947   5.495   2.260   0.394 -0.8144  1.4826 -2.2755
 8545SOL    MW433948   5.462   2.326   0.442 -0.1379  0.3458 -0.1073
 8546SOL     OW33949   4.112   6.207   4.440 -0.5914  0.0648  0.8425
 8546SOL    HW233950   4.021   6.177   4.443 -0.7753  0.5029  0.0211
 8546SOL    HW333951   4.163   6.129   4.459 -1.0724 -0.7820 -1.0972
 8546SOL    MW433952   4.106   6.193   4.443 -0.6792  0.0109  0.4782
 8547SOL     OW33953   2.778   0.071   1.615 -1.2425  0.2724  0.5470
 8547SOL    HW233954   2.741   0.124   1.544 -1.4868 -0.1024  0.3893
 8547SOL    HW333955   2.802  -0.012   1.573 -1.0908  0.1675  0.8374
 8547SOL    MW433956   2.776   0.067   1.600 -1.2547  0.2091  0.5645
 8548SOL     OW33957   3.000   0.890   5.211 -0.4942 -0.1864  1.0987
 8548SOL    HW233958   3.009   0.896   5.306  1.0538 -0.7312  1.0158
 8548SOL    HW333959   2.984   0.980   5.183 -2.5958 -0.2267  1.9768
 8548SOL    MW433960   2.999   0.903   5.220 -0.5672 -0.2636  1.2036
 8549SOL     OW33961   0.255   4.772   5.835  0.1168  0.4733 -0.1986
 8549SOL    HW233962   0.306   4.707   5.785 -0.5311  0.5729 -1.0248
 8549SOL    HW333963   0.279   4.856   5.796 -1.1507  0.4623 -1.0471
 8549SOL    MW433964   0.265   4.774   5.823 -0.1359  0.4850 -0.4195
 8550SOL     OW33965   3.373   5.074   1.199  0.8810  0.5977 -0.1409
 8550SOL    HW233966   3.376   5.165   1.225 -1.3356  0.6974 -0.0363
 8550SOL    HW333967   3.378   5.076   1.103 -0.0520  0.9202 -0.1925
 8550SOL    MW433968   3.374   5.086   1.189  0.4654  0.6534 -0.1339
 8551SOL     OW33969   5.159   6.236   3.538 -0.4313  0.1261 -0.4725
 8551SOL    HW233970   5.126   6.205   3.453  0.5542  0.0691 -0.8484
 8551SOL    HW333971   5.165   6.331   3.527  1.0831 -0.0126 -0.9880
 8551SOL    MW433972   5.155   6.245   3.525 -0.1014  0.1002 -0.5901
 8552SOL     OW33973   6.294   2.769   4.006  0.4297 -0.0196 -0.6151
 8552SOL    HW233974   6.253   2.837   3.952 -0.7510 -1.5504 -1.7193
 8552SOL    HW333975   6.386   2.795   4.011  0.1261  1.3470 -1.4738
 8552SOL    MW433976   6.300   2.781   4.000  0.2339 -0.0413 -0.8741
 8553SOL     OW33977   6.359   2.116  -0.001  0.3922 -0.6122  0.3715
 8553SOL    HW233978   6.420   2.098  -0.073  0.3191  0.5947 -0.0061
 8553SOL    HW333979   6.414   2.146   0.071  0.4626 -1.7975  0.8403
 8553SOL    MW433980   6.374   2.118  -0.001  0.3919 -0.6093  0.3836
 8554SOL     OW33981   0.361   4.906   3.811  0.8396 -0.2826 -0.0600
 8554SOL    HW233982   0.428   4.947   3.757  0.8891 -0.7990 -0.3915
 8554SOL    HW333983   0.301   4.865   3.749  0.9771 -1.0063  0.2660
 8554SOL    MW433984   0.362   4.906   3.796  0.8642 -0.4462 -0.0607
 8555SOL     OW33985   1.492   2.783   5.757 -0.0542 -0.3652 -0.0384
 8555SOL    HW233986   1.559   2.789   5.689  1.4025 -0.7184  1.2981
 8555SOL    HW333987   1.430   2.853   5.736  0.4129 -0.3977 -1.6456
 8555SOL    MW433988   1.493   2.793   5.745  0.1997 -0.4161 -0.0741
 8556SOL     OW33989   6.168   2.278   3.633  0.0082 -0.5679  1.0580
 8556SOL    HW233990   6.240   2.216   3.627  1.1463  0.7584  0.3704
 8556SOL    HW333991   6.188   2.331   3.710  0.7028  0.8678 -0.0542
 8556SOL    MW433992   6.180   2.277   3.642  0.2500 -0.2034  0.8205
 8557SOL     OW33993   0.413   2.523   0.298 -0.1332 -0.2630 -0.5908
 8557SOL    HW233994   0.321   2.523   0.272  0.5126  2.0804 -3.4607
 8557SOL    HW333995   0.449   2.444   0.259 -0.8676 -1.1147  0.4185
 8557SOL    MW433996   0.406   2.513   0.289 -0.1449 -0.0662 -0.8363
 8558SOL     OW33997   4.549   4.772   4.634  0.2262  0.6387 -0.4192
 8558SOL    HW233998   4.567   4.804   4.546 -0.5870 -1.0429 -1.2356
 8558SOL    HW333999   4.607   4.697   4.645 -0.0547  0.5159  0.2826
 8558SOL    MW434000   4.559   4.767   4.624  0.0818  0.4006 -0.4343
 8559SOL     OW34001   2.077   4.647   6.245 -0.3189  0.1870  0.0240
 8559SOL    HW234002   2.167   4.657   6.214 -0.1144  1.2439  0.8698
 8559SOL    HW334003   2.033   4.597   6.177  1.1137 -1.0956 -0.0251
 8559SOL    MW434004   2.083   4.642   6.232 -0.1029  0.1572  0.1292
 8560SOL     OW34005   6.450   0.666   2.565 -0.5784 -0.3393 -0.5155
 8560SOL    HW234006   6.361   0.631   2.558 -0.9040  0.2813  0.4112
 8560SOL    HW334007   6.441   0.759   2.544 -0.5012  0.1504  1.4061
 8560SOL    MW434008   6.437   0.673   2.561 -0.6111 -0.1928 -0.1397
 8561SOL     OW34009   6.457   1.102   2.679  0.2929  0.3184 -0.4386
 8561SOL    HW234010   6.396   1.071   2.746  1.5718 -1.5560 -0.0590
 8561SOL    HW334011   6.543   1.075   2.710  1.3219  2.5975 -1.1311
 8561SOL    MW434012   6.460   1.094   2.692  0.5974  0.3718 -0.4799
 8562SOL     OW34013   5.011   4.223   1.150 -0.4042 -1.1363  0.1261
 8562SOL    HW234014   5.033   4.305   1.104 -1.6783  0.3170  1.9749
 8562SOL    HW334015   5.090   4.170   1.142  0.5852  0.3995 -0.8746
 8562SOL    MW434016   5.025   4.227   1.143 -0.4418 -0.7419  0.2380
 8563SOL     OW34017   2.471   2.383   2.896 -0.3706  0.2053  0.0295
 8563SOL    HW234018   2.488   2.475   2.916 -1.1600  0.5064 -0.6247
 8563SOL    HW334019   2.393   2.385   2.842  0.2544 -0.7684 -0.9448
 8563SOL    MW434020   2.463   2.396   2.892 -0.3923  0.1165 -0.1854
 8564SOL     OW34021   2.493   4.710   0.541 -0.2654  0.6075 -0.4850
 8564SOL    HW234022   2.534   4.741   0.622  1.4601  0.4315 -1.2525
 8564SOL    HW334023   2.457   4.624   0.564  0.2735  0.5245  0.0821
 8564SOL    MW434024   2.494   4.703   0.555  0.0333  0.5733 -0.5114
 8565SOL     OW34025   5.004   0.662   6.070  0.2540 -0.1950  0.1963
 8565SOL    HW234026   4.992   0.616   5.987  3.2459 -2.8881  1.0361
 8565SOL    HW334027   5.046   0.744   6.047  0.2428 -0.5223 -1.0351
 8565SOL    MW434028   5.008   0.666   6.056  0.6472 -0.5935  0.1446
 8566SOL     OW34029   3.871   3.664   1.405  0.0060 -0.2695 -0.0882
 8566SOL    HW234030   3.876   3.755   1.433 -1.4217  0.3901 -1.7748
 8566SOL    HW334031   3.785   3.656   1.364 -0.2024 -2.5946  0.6598
 8566SOL    MW434032   3.860   3.675   1.403 -0.2099 -0.4893 -0.2120
 8567SOL     OW34033   3.993   1.442   0.013 -0.6268  0.0144 -0.1446
 8567SOL    HW234034   3.936   1.454  -0.063  0.8834 -1.8570 -1.7068
 8567SOL    HW334035   4.079   1.473  -0.017 -0.5293  1.7871  1.7815
 8567SOL    MW434036   3.997   1.447  -0.001 -0.4147  0.0014 -0.0966
 8568SOL     OW34037   3.443   1.713   2.100 -0.3597  0.2003 -0.0928
 8568SOL    HW234038   3.523   1.754   2.133  0.6318 -0.5030 -1.5176
 8568SOL    HW334039   3.395   1.689   2.179  1.0404  0.2594  0.8196
 8568SOL    MW434040   3.448   1.715   2.115 -0.0441  0.1153 -0.1604
 8569SOL     OW34041   6.449   4.051   0.987 -0.1646 -0.3217  0.2721
 8569SOL    HW234042   6.429   4.105   1.064  2.5717 -0.7598  1.4030
 8569SOL    HW334043   6.441   3.961   1.019 -1.8145 -0.6087 -0.8112
 8569SOL    MW434044   6.445   4.046   1.002 -0.0212 -0.4174  0.2784
 8570SOL     OW34045   3.258   5.281   4.959  0.8765 -0.0640  0.0858
 8570SOL    HW234046   3.294   5.195   4.983  0.2023 -0.2332  0.5299
 8570SOL    HW334047   3.189   5.261   4.896  0.8926  0.1737 -0.0062
 8570SOL    MW434048   3.254   5.267   4.954  0.7897 -0.0550  0.1322
 8571SOL     OW34049   4.644   1.577   2.081 -0.2291  0.5486 -0.1177
 8571SOL    HW234050   4.696   1.541   2.153 -0.6476 -0.0007 -0.0837
 8571SOL    HW334051   4.700   1.568   2.004 -0.3590 -0.2742 -0.1278
 8571SOL    MW434052   4.658   1.571   2.081 -0.3015  0.3675 -0.1145
 8572SOL     OW34053   1.517   4.248   1.382  0.3921  0.0940  0.0741
 8572SOL    HW234054   1.549   4.192   1.452 -0.0926  0.6080  0.7215
 8572SOL    HW334055   1.596   4.272   1.333  0.8972  0.6543  1.1255
 8572SOL    MW434056   1.532   4.244   1.385  0.3948  0.2357  0.2982
 8573SOL     OW34057   2.803   4.418   0.807  0.1253  0.0942  0.4636
 8573SOL    HW234058   2.864   4.427   0.880 -1.8901  0.3966  2.2108
 8573SOL    HW334059   2.765   4.505   0.796  0.3163  0.0258 -0.9027
 8573SOL    MW434060   2.806   4.431   0.816 -0.1154  0.1251  0.5139
 8574SOL     OW34061   3.825   4.358   5.482  0.2418 -0.5229  0.0578
 8574SOL    HW234062   3.820   4.421   5.554  0.8943 -1.8515  1.3177
 8574SOL    HW334063   3.881   4.399   5.417 -1.1468  1.1229 -0.1699
 8574SOL    MW434064   3.831   4.372   5.483  0.1447 -0.4811  0.1940
 8575SOL     OW34065   0.217   4.496   2.077 -0.2622  0.1751  1.0079
 8575SOL    HW234066   0.276   4.486   2.002  1.8248 -0.9222  2.6846
 8575SOL    HW334067   0.166   4.574   2.057  0.7595  0.3589 -1.1907
 8575SOL    MW434068   0.218   4.505   2.064  0.1479  0.0546  0.9390
 8576SOL     OW34069   4.332   3.690   3.374  0.4858  0.2132 -0.0242
 8576SOL    HW234070   4.246   3.732   3.370 -0.1907 -1.1488 -1.2034
 8576SOL    HW334071   4.325   3.629   3.447  0.7284  0.6483  0.3651
 8576SOL    MW434072   4.320   3.687   3.383  0.4286  0.0909 -0.1284
 8577SOL     OW34073   5.925   0.773   5.859 -0.6078  0.6206 -0.6925
 8577SOL    HW234074   5.844   0.823   5.861  0.0894  1.7729  0.2651
 8577SOL    HW334075   5.940   0.748   5.951  0.1866  0.5513 -0.8326
 8577SOL    MW434076   5.916   0.776   5.872 -0.4110  0.7635 -0.5846
 8578SOL     OW34077   1.983   5.284   0.630 -0.5831  0.0753 -0.0232
 8578SOL    HW234078   2.037   5.205   0.618 -0.2083  0.4414 -0.8134
 8578SOL    HW334079   1.898   5.261   0.593 -1.8677 -1.3677  3.3730
 8578SOL    MW434080   1.979   5.271   0.624 -0.7031 -0.0667  0.3207
 8579SOL     OW34081   4.034   4.288   4.714 -0.3659  0.0673  0.2662
 8579SOL    HW234082   4.073   4.338   4.785  1.7491 -0.5494 -0.3786
 8579SOL    HW334083   4.082   4.205   4.715 -2.9216 -1.5293  0.5348
 8579SOL    MW434084   4.046   4.283   4.724 -0.4240 -0.2247  0.2166
 8580SOL     OW34085   2.830   1.563   0.857 -0.5756  0.4688 -0.3000
 8580SOL    HW234086   2.751   1.601   0.894 -1.5883 -1.0548 -0.7790
 8580SOL    HW334087   2.869   1.515   0.930 -1.1336 -0.3245 -0.5035
 8580SOL    MW434088   2.825   1.561   0.872 -0.7828  0.1632 -0.3901
 8581SOL     OW34089   2.536   2.687   0.915  0.8501 -0.0779  0.5304
 8581SOL    HW234090   2.512   2.767   0.868 -0.4460 -0.2015  0.9678
 8581SOL    HW334091   2.454   2.653   0.949  1.3660 -1.6611  0.2824
 8581SOL    MW434092   2.522   2.693   0.913  0.7472 -0.3031  0.5554
 8582SOL     OW34093   2.830   4.802   5.155 -0.1143  0.2719  0.4244
 8582SOL    HW234094   2.884   4.877   5.132  0.6262 -0.6354 -1.0106
 8582SOL    HW334095   2.747   4.817   5.109  0.1870  0.0423 -0.2203
 8582SOL    MW434096   2.826   4.814   5.146  0.0232  0.1219  0.1500
 8583SOL     OW34097   5.033   3.025   5.395 -0.3138  0.2763 -0.2578
 8583SOL    HW234098   5.035   2.941   5.349  0.3028 -0.6022  1.3228
 8583SOL    HW334099   5.063   3.006   5.483  0.7068  2.3176 -0.0909
 8583SOL    MW434100   5.037   3.012   5.400 -0.0978  0.4297 -0.0273
 8584SOL     OW34101   0.062   0.974   1.380  0.0003 -0.9121  0.1241
 8584SOL    HW234102   0.075   1.035   1.454  2.3769 -0.8751 -0.2437
 8584SOL    HW334103   0.148   0.969   1.338  0.1026 -4.9588  0.4393
 8584SOL    MW434104   0.075   0.982   1.384  0.3274 -1.4411  0.1172
 8585SOL     OW34105   0.869   2.775   4.401 -0.4753  0.1315 -0.0888
 8585SOL    HW234106   0.952   2.815   4.429 -0.8896  0.3739  0.8302
 8585SOL    HW334107   0.888   2.739   4.315  0.5608  0.2841  0.0596
 8585SOL    MW434108   0.882   2.776   4.394 -0.3933  0.1836  0.0520
 8586SOL     OW34109   1.801   2.386   5.371 -0.3335  0.2408 -0.2775
 8586SOL    HW234110   1.742   2.347   5.435 -0.4151 -1.4152 -1.2758
 8586SOL    HW334111   1.870   2.320   5.359  0.0759  0.8291 -1.3128
 8586SOL    MW434112   1.802   2.372   5.378 -0.2903  0.0999 -0.5458
 8587SOL     OW34113   4.702   2.327   3.601 -0.3275  0.1886 -0.1883
 8587SOL    HW234114   4.719   2.380   3.679  1.3115 -1.7538  0.8687
 8587SOL    HW334115   4.772   2.263   3.600 -1.3814 -1.0332 -2.2487
 8587SOL    MW434116   4.713   2.326   3.611 -0.2503 -0.2289 -0.3207
 8588SOL     OW34117   2.361   1.039   5.716 -0.9436  0.2340  0.0024
 8588SOL    HW234118   2.341   1.113   5.659 -0.8650 -0.4824 -0.9771
 8588SOL    HW334119   2.290   0.977   5.701 -0.2525 -0.5037 -0.2843
 8588SOL    MW434120   2.349   1.040   5.707 -0.8420  0.0422 -0.1647
 8589SOL     OW34121   1.185   0.178   3.722 -0.5530 -0.6977  0.0755
 8589SOL    HW234122   1.277   0.177   3.697 -0.5540 -1.4716  0.0787
 8589SOL    HW334123   1.142   0.227   3.651 -0.0716  0.1664  0.3655
 8589SOL    MW434124   1.191   0.185   3.709 -0.4896 -0.6858  0.1142
 8590SOL     OW34125   2.014   2.756   2.625 -0.0757  0.4403  0.2119
 8590SOL    HW234126   1.939   2.795   2.671  0.2212 -1.0534  2.1177
 8590SOL    HW334127   2.091   2.798   2.664  0.1484  1.2882 -1.0732
 8590SOL    MW434128   2.014   2.767   2.636 -0.0070  0.3551  0.2938
 8591SOL     OW34129   0.606   1.673   4.062 -0.4441 -0.0241 -1.1033
 8591SOL    HW234130   0.535   1.731   4.034  0.4310  1.1594 -0.9704
 8591SOL    HW334131   0.569   1.585   4.058 -2.2331  0.6254 -0.1142
 8591SOL    MW434132   0.592   1.669   4.058 -0.5647  0.2177 -0.9552
 8592SOL     OW34133   1.442   0.908   1.528  0.0847  0.0991  0.0158
 8592SOL    HW234134   1.529   0.908   1.569 -0.0099 -0.1921  0.2218
 8592SOL    HW334135   1.448   0.843   1.458  0.0968  0.2363 -0.1117
 8592SOL    MW434136   1.454   0.900   1.524  0.0739  0.0788  0.0262
 8593SOL     OW34137   2.903   6.316   1.873  0.8931 -0.1101  0.5457
 8593SOL    HW234138   2.972   6.260   1.908  2.4133  0.4643 -1.3507
 8593SOL    HW334139   2.876   6.273   1.792  1.2277  1.2358 -0.3121
 8593SOL    MW434140   2.908   6.303   1.867  1.1378  0.1433  0.1823
 8594SOL     OW34141   3.251   4.511   6.221  0.2818  0.7455  0.5578
 8594SOL    HW234142   3.266   4.417   6.232  0.0183  0.6996  0.5312
 8594SOL    HW334143   3.214   4.539   6.305  0.2975  0.8151  0.5414
 8594SOL    MW434144   3.248   4.502   6.234  0.2491  0.7486  0.5521
 8595SOL     OW34145   3.929   6.319   5.796  0.2713  0.1391  0.1276
 8595SOL    HW234146   3.986   6.363   5.859  0.0014 -0.7319  1.0191
 8595SOL    HW334147   3.928   6.228   5.825  1.5519 -0.7080 -2.1855
 8595SOL    MW434148   3.937   6.313   5.808  0.4046 -0.0876 -0.0599
 8596SOL     OW34149   5.360   2.260   4.017  0.0203  0.0231 -0.6688
 8596SOL    HW234150   5.367   2.165   4.027  1.0625  0.1081 -0.5310
 8596SOL    HW334151   5.338   2.273   3.925  0.8731 -0.3218 -0.9300
 8596SOL    MW434152   5.358   2.249   4.006  0.2703 -0.0112 -0.6851
 8597SOL     OW34153   0.821   3.191   6.154 -0.1900 -0.1715 -0.0721
 8597SOL    HW234154   0.781   3.278   6.164  0.0729 -0.0347 -0.2301
 8597SOL    HW334155   0.911   3.208   6.128  0.2934 -0.4519  1.3025
 8597SOL    MW434156   0.827   3.205   6.152 -0.0915 -0.1905  0.0884
 8598SOL     OW34157   2.175   1.501   3.373 -0.0117  0.2666  0.3180
 8598SOL    HW234158   2.259   1.457   3.382  0.3945  1.0606  0.5652
 8598SOL    HW334159   2.160   1.506   3.278  0.8277  1.2075  0.2168
 8598SOL    MW434160   2.184   1.496   3.362  0.1527  0.4955  0.3373
 8599SOL     OW34161   6.186   0.908   4.416  0.1453 -0.1113  0.2093
 8599SOL    HW234162   6.100   0.938   4.388  0.0510 -0.5058  0.0664
 8599SOL    HW334163   6.181   0.906   4.512 -0.5826 -1.7594  0.1779
 8599SOL    MW434164   6.174   0.911   4.425  0.0368 -0.3808  0.1863
 8600SOL     OW34165   5.975   3.349   4.684  0.4863 -0.4631 -0.1529
 8600SOL    HW234166   5.902   3.411   4.677  1.2400  0.6080  1.1035
 8600SOL    HW334167   5.953   3.294   4.759  0.1342 -1.3245 -0.8680
 8600SOL    MW434168   5.962   3.350   4.693  0.5393 -0.4354 -0.0815
 8601SOL     OW34169   4.822   4.870   0.540  0.5934  0.0674  0.3281
 8601SOL    HW234170   4.753   4.828   0.490  0.7519 -0.2987  0.4138
 8601SOL    HW334171   4.901   4.820   0.518  0.4286 -1.0254  2.0312
 8601SOL    MW434172   4.824   4.858   0.530  0.5926 -0.1251  0.5641
 8602SOL     OW34173   3.115   5.885   5.099  0.0499  0.4272 -0.3368
 8602SOL    HW234174   3.156   5.799   5.095  0.4743  0.5115  1.3833
 8602SOL    HW334175   3.032   5.874   5.052  0.6387 -0.5757 -1.1848
 8602SOL    MW434176   3.109   5.872   5.093  0.1836  0.3060 -0.2217
 8603SOL     OW34177   1.016   4.265   1.335 -0.2896 -0.5469  0.5636
 8603SOL    HW234178   0.962   4.343   1.332  0.2163 -0.1546  1.3198
 8603SOL    HW334179   0.996   4.218   1.254 -1.3819 -0.1654  0.5954
 8603SOL    MW434180   1.006   4.269   1.324 -0.3670 -0.4448  0.6676
 8604SOL     OW34181   2.519   2.099   2.034  0.1907 -0.2254 -0.0116
 8604SOL    HW234182   2.567   2.021   2.006  1.7554  0.7839 -0.3164
 8604SOL    HW334183   2.576   2.139   2.100  0.0527  1.3076 -0.7621
 8604SOL    MW434184   2.533   2.094   2.039  0.3790  0.1100 -0.1508
 8605SOL     OW34185   5.955   4.614   4.357 -0.7160 -0.3298  0.6834
 8605SOL    HW234186   5.876   4.564   4.374 -0.2372 -1.0138  0.9506
 8605SOL    HW334187   5.963   4.615   4.262 -3.1279  3.0725  0.3404
 8605SOL    MW434188   5.946   4.607   4.347 -0.9711  0.0289  0.6734
 8606SOL     OW34189   1.084   2.788   2.317 -0.5411  0.1953 -0.2595
 8606SOL    HW234190   1.062   2.876   2.286  1.9379  1.5052  1.3977
 8606SOL    HW334191   1.177   2.778   2.297 -0.1456 -0.9801  1.8861
 8606SOL    MW434192   1.093   2.799   2.311 -0.1618  0.2130  0.2422
 8607SOL     OW34193   3.597   6.160   5.673  0.2998 -0.5424  0.6392
 8607SOL    HW234194   3.644   6.098   5.729  0.8847 -0.1887  0.5445
 8607SOL    HW334195   3.505   6.133   5.679  0.6292 -1.8549  0.0247
 8607SOL    MW434196   3.591   6.148   5.681  0.4204 -0.6689  0.5456
 8608SOL     OW34197   3.489   4.129   1.444 -0.0092 -0.1138 -0.1509
 8608SOL    HW234198   3.541   4.209   1.451  0.6924 -0.6051  0.3980
 8608SOL    HW334199   3.406   4.151   1.486  0.1477  0.3472 -0.0786
 8608SOL    MW434200   3.485   4.142   1.450  0.1041 -0.1178 -0.0689
 8609SOL     OW34201   0.946   2.848   5.693  0.4985 -0.3470 -0.0430
 8609SOL    HW234202   1.027   2.813   5.658 -0.2885 -0.4211 -1.9436
 8609SOL    HW334203   0.878   2.788   5.661 -0.4162  0.4098  0.4106
 8609SOL    MW434204   0.947   2.836   5.684  0.2740 -0.2569 -0.2339
 8610SOL     OW34205   4.225   3.476   4.540 -0.1142 -0.0114 -0.1247
 8610SOL    HW234206   4.179   3.395   4.520  0.0690 -0.4424  1.1225
 8610SOL    HW334207   4.213   3.488   4.634 -0.9247  1.9042 -0.4204
 8610SOL    MW434208   4.217   3.467   4.549 -0.1969  0.1845  0.0008
 8611SOL     OW34209   3.495   3.959   0.273  0.2000  0.2361  0.0171
 8611SOL    HW234210   3.475   3.952   0.180 -1.3075 -2.9103  0.4597
 8611SOL    HW334211   3.495   4.053   0.290  1.2026  0.9558 -3.2474
 8611SOL    MW434212   3.492   3.970   0.263  0.1334 -0.0841 -0.3552
 8612SOL     OW34213   1.149   2.515   1.683  0.5018  0.0751 -0.0929
 8612SOL    HW234214   1.233   2.470   1.675  0.7164  0.1801  1.3267
 8612SOL    HW334215   1.172   2.608   1.693  0.2375  0.0797  0.5190
 8612SOL    MW434216   1.163   2.522   1.683  0.4952  0.0896  0.1751
 8613SOL     OW34217   3.261   1.098   1.124  0.1966 -0.3296  0.0926
 8613SOL    HW234218   3.209   1.044   1.184  0.2635  0.5475  0.9593
 8613SOL    HW334219   3.197   1.154   1.080  0.1933 -0.6762 -0.3451
 8613SOL    MW434220   3.245   1.098   1.126  0.2050 -0.2596  0.1492
 8614SOL     OW34221   1.694   4.177   3.153 -0.0519 -0.0299  0.7325
 8614SOL    HW234222   1.627   4.130   3.204 -1.8943  0.4438 -1.1266
 8614SOL    HW334223   1.646   4.246   3.107  2.2751  2.5818  1.9033
 8614SOL    MW434224   1.679   4.180   3.154  0.0121  0.3772  0.6417
 8615SOL     OW34225   2.277   5.966   3.069  0.1589  0.1592  0.4806
 8615SOL    HW234226   2.265   5.883   3.115 -3.8149  0.0603 -0.3842
 8615SOL    HW334227   2.208   6.022   3.103 -1.0912  1.0772 -3.1274
 8615SOL    MW434228   2.267   5.963   3.080 -0.5303  0.2672 -0.1095
 8616SOL     OW34229   2.313   4.960   0.870  0.3728 -0.4554  0.2340
 8616SOL    HW234230   2.366   4.914   0.935 -0.6950  1.0174  2.2547
 8616SOL    HW334231   2.261   5.022   0.921 -3.0848 -1.5426 -1.6186
 8616SOL    MW434232   2.313   4.962   0.885 -0.2243 -0.4045  0.2562
 8617SOL     OW34233   2.002   4.063   2.038 -0.4090  0.1539  0.5339
 8617SOL    HW234234   1.920   4.084   2.084 -0.7691 -0.8183  0.3724
 8617SOL    HW334235   1.992   3.971   2.013  1.1955 -0.3105  1.4625
 8617SOL    MW434236   1.990   4.053   2.040 -0.2448 -0.0356  0.6351
 8618SOL     OW34237   0.932   5.313   2.315 -0.3465  0.0485 -0.0311
 8618SOL    HW234238   0.858   5.348   2.266 -1.4791  0.3699  1.8068
 8618SOL    HW334239   1.009   5.355   2.275 -1.1174 -0.1716 -1.8640
 8618SOL    MW434240   0.932   5.323   2.303 -0.5977  0.0619 -0.0304
 8619SOL     OW34241   3.075   2.500   1.181 -0.1936  0.0921  0.5382
 8619SOL    HW234242   3.075   2.596   1.177 -0.0717  0.0560 -0.8010
 8619SOL    HW334243   2.998   2.478   1.233 -0.2357  0.9157  0.8474
 8619SOL    MW434244   3.065   2.510   1.187 -0.1831  0.1960  0.4023
 8620SOL     OW34245   0.407   4.347   0.698  0.1029 -0.2655  0.2733
 8620SOL    HW234246   0.361   4.319   0.619  0.3092  0.8085 -0.2460
 8620SOL    HW334247   0.410   4.269   0.753  0.6681 -1.2641 -1.1173
 8620SOL    MW434248   0.401   4.333   0.694  0.2047 -0.2556  0.0213
 8621SOL     OW34249   4.263   4.538   4.570  0.2985  0.2189  0.0446
 8621SOL    HW234250   4.309   4.574   4.493 -0.2196  0.8554  0.0242
 8621SOL    HW334251   4.257   4.612   4.630 -0.3805  0.0389  0.1987
 8621SOL    MW434252   4.269   4.553   4.568  0.1406  0.2792  0.0622
 8622SOL     OW34253   2.174   0.324   3.986  0.0952 -0.4242 -0.4594
 8622SOL    HW234254   2.168   0.239   4.031 -0.3520 -0.4266 -0.5179
 8622SOL    HW334255   2.241   0.311   3.919 -0.7226 -1.0556 -1.1684
 8622SOL    MW434256   2.182   0.311   3.983 -0.0717 -0.5078 -0.5607
 8623SOL     OW34257   0.438   4.479   0.283 -0.8028  0.1581  0.1355
 8623SOL    HW234258   0.379   4.542   0.243  0.3307 -0.4454 -2.7379
 8623SOL    HW334259   0.381   4.408   0.314 -1.7743  0.7844 -0.1911
 8623SOL    MW434260   0.423   4.478   0.282 -0.7814  0.1611 -0.2867
 8624SOL     OW34261   3.104   0.854   2.307 -0.0889 -0.2889  0.2504
 8624SOL    HW234262   3.171   0.820   2.248 -0.1408 -1.0802  0.6276
 8624SOL    HW334263   3.025   0.804   2.286 -0.7590  1.1018 -0.6515
 8624SOL    MW434264   3.103   0.843   2.297 -0.1842 -0.2098  0.1812
 8625SOL     OW34265   1.131   5.142   4.121  0.2622  0.3089  0.1614
 8625SOL    HW234266   1.080   5.185   4.190  0.2251  1.6195 -0.6424
 8625SOL    HW334267   1.084   5.163   4.040  1.5219  0.7059 -0.4930
 8625SOL    MW434268   1.118   5.150   4.120  0.4235  0.5342 -0.0310
 8626SOL     OW34269   2.681   1.497   4.808  0.5455 -0.1482 -0.4401
 8626SOL    HW234270   2.590   1.489   4.839  0.1636  0.5703 -1.3232
 8626SOL    HW334271   2.675   1.484   4.714  0.9803  2.2450 -0.8744
 8626SOL    MW434272   2.668   1.494   4.800  0.5525  0.2623 -0.6139
 8627SOL     OW34273   5.155   4.687   5.050 -0.3229  0.5044  0.1920
 8627SOL    HW234274   5.100   4.706   5.126  0.0404  0.6242  0.4285
 8627SOL    HW334275   5.124   4.748   4.982 -1.9292 -0.8836 -0.3936
 8627SOL    MW434276   5.144   4.698   5.051 -0.4869  0.3371  0.1459
 8628SOL     OW34277   3.757   5.115   4.117 -0.8514 -0.7598  0.0600
 8628SOL    HW234278   3.703   5.037   4.124  0.1573 -1.6735 -1.5061
 8628SOL    HW334279   3.829   5.089   4.059 -0.8265  1.5133 -1.0577
 8628SOL    MW434280   3.760   5.102   4.110 -0.7151 -0.5804 -0.2941
 8629SOL     OW34281   2.466   2.985   0.354 -0.2073  0.1124  0.0236
 8629SOL    HW234282   2.537   2.925   0.331 -0.1581 -0.6512  1.9312
 8629SOL    HW334283   2.504   3.072   0.347  1.0423 -0.3006  1.2817
 8629SOL    MW434284   2.480   2.989   0.350 -0.0360 -0.0428  0.4413
 8630SOL     OW34285   4.006   4.660   5.800  0.0259 -0.5155  0.3720
 8630SOL    HW234286   4.026   4.611   5.720  0.0611  1.6983 -1.0333
 8630SOL    HW334287   4.022   4.597   5.870  2.3236 -1.8505 -1.1945
 8630SOL    MW434288   4.011   4.645   5.798  0.3337 -0.3995 -0.0201
 8631SOL     OW34289   3.264   3.390   5.901  0.1901  0.1323 -0.6492
 8631SOL    HW234290   3.269   3.420   5.992 -0.0583  0.4729 -0.7434
 8631SOL    HW334291   3.265   3.471   5.850  0.7421 -0.0747 -0.9710
 8631SOL    MW434292   3.265   3.405   5.906  0.2302  0.1499 -0.7041
 8632SOL     OW34293   2.507   1.692   5.197 -0.1534 -0.1409  0.1924
 8632SOL    HW234294   2.601   1.678   5.192  0.1686  2.0865 -1.1912
 8632SOL    HW334295   2.488   1.692   5.291  0.6418 -3.5360  0.4786
 8632SOL    MW434296   2.517   1.690   5.209 -0.0060 -0.2950  0.0476
 8633SOL     OW34297   6.172   2.980   4.587 -0.1448  0.4379  0.9064
 8633SOL    HW234298   6.163   3.008   4.678 -2.1298 -0.8050  1.1612
 8633SOL    HW334299   6.188   2.886   4.592  0.9641  0.5559 -0.0239
 8633SOL    MW434300   6.173   2.971   4.599 -0.2604  0.2895  0.8173
 8634SOL     OW34301   3.419   4.226   2.057  0.0071  0.1609  0.2101
 8634SOL    HW234302   3.401   4.319   2.043  1.9510  0.4191 -0.9636
 8634SOL    HW334303   3.412   4.187   1.970  0.2702 -0.5930  0.5188
 8634SOL    MW434304   3.415   4.234   2.044  0.2983  0.0955  0.0960
 8635SOL     OW34305   4.392   5.961   0.859  0.4960 -0.3905  0.8543
 8635SOL    HW234306   4.455   6.033   0.857 -0.4321  0.4162  0.3923
 8635SOL    HW334307   4.370   5.951   0.951 -0.4258  0.8661  0.7951
 8635SOL    MW434308   4.398   5.969   0.871  0.2519 -0.1183  0.7856
 8636SOL     OW34309   4.423   6.099   2.426 -0.4779  0.5801 -0.4843
 8636SOL    HW234310   4.417   6.177   2.371  0.5758  0.9110 -0.1539
 8636SOL    HW334311   4.390   6.127   2.511 -0.1077  0.6703 -0.3681
 8636SOL    MW434312   4.418   6.113   2.430 -0.2900  0.6356 -0.4254
 8637SOL     OW34313   0.187   1.238   6.036 -0.7464  0.1410  0.1649
 8637SOL    HW234314   0.150   1.230   5.948  0.7469  2.6116 -0.8044
 8637SOL    HW334315   0.112   1.257   6.093 -1.5033  0.5141 -0.9323
 8637SOL    MW434316   0.172   1.239   6.032 -0.6492  0.5162 -0.1077
 8638SOL     OW34317   3.346   4.989   0.559  0.0892 -0.1541 -0.2216
 8638SOL    HW234318   3.275   5.003   0.622  0.3961 -1.3733  0.3977
 8638SOL    HW334319   3.394   5.072   0.559 -1.1811  0.6148 -0.4776
 8638SOL    MW434320   3.343   5.002   0.567 -0.0379 -0.2135 -0.1737
 8639SOL     OW34321   2.580   2.922   3.628 -0.5999  0.0672  0.4077
 8639SOL    HW234322   2.580   2.966   3.543 -1.5487  2.0083  1.3443
 8639SOL    HW334323   2.565   2.830   3.607 -2.0017  0.6555 -1.4779
 8639SOL    MW434324   2.578   2.916   3.614 -0.9100  0.4009  0.2825
 8640SOL     OW34325   5.325   4.251   3.488 -0.2171  0.0631  0.3954
 8640SOL    HW234326   5.268   4.184   3.450  0.2944  0.8909 -2.0732
 8640SOL    HW334327   5.377   4.205   3.553  0.6998 -2.2189 -1.7727
 8640SOL    MW434328   5.324   4.236   3.491 -0.0286 -0.1288 -0.2163
 8641SOL     OW34329   1.390   2.141   3.043  0.5001 -0.2004  0.4211
 8641SOL    HW234330   1.376   2.098   3.127 -0.1052  0.7493  0.8213
 8641SOL    HW334331   1.328   2.100   2.983  0.4828 -0.4348  0.6014
 8641SOL    MW434332   1.380   2.130   3.046  0.4180 -0.1060  0.4977
 8642SOL     OW34333   2.339   5.268   3.520  0.3982  0.3546  0.3279
 8642SOL    HW234334   2.320   5.265   3.614 -1.4777  1.1329  0.0181
 8642SOL    HW334335   2.393   5.190   3.504 -0.5269 -0.6440  1.7956
 8642SOL    MW434336   2.344   5.257   3.530  0.0287  0.3255  0.4807
 8643SOL     OW34337   3.128   6.150   1.780 -0.3953 -0.5340 -0.2633
 8643SOL    HW234338   3.221   6.174   1.773 -0.2410 -0.8547  0.5937
 8643SOL    HW334339   3.126   6.057   1.759 -0.7840 -0.1693 -2.0384
 8643SOL    MW434340   3.140   6.141   1.776 -0.4262 -0.5282 -0.3844
 8644SOL     OW34341   1.577   2.081   5.383 -0.0396 -0.1544  0.1825
 8644SOL    HW234342   1.669   2.056   5.389  0.0883 -0.5295 -2.3947
 8644SOL    HW334343   1.570   2.160   5.438  1.6158 -0.5606  1.0318
 8644SOL    MW434344   1.588   2.088   5.391  0.1957 -0.2575 -0.0455
 8645SOL     OW34345   3.013   2.490   0.905  0.4669  0.1097  0.3398
 8645SOL    HW234346   2.992   2.410   0.855  0.3494  1.0303 -1.1466
 8645SOL    HW334347   3.030   2.458   0.994  1.1066 -1.6510 -0.3604
 8645SOL    MW434348   3.012   2.475   0.910  0.5358 -0.0011  0.0513
 8646SOL     OW34349   3.905   2.797   4.014  0.4598  0.0139  0.1377
 8646SOL    HW234350   3.908   2.817   3.920  0.5767 -0.7649 -0.0288
 8646SOL    HW334351   3.852   2.868   4.051  0.5132  0.3967 -0.4973
 8646SOL    MW434352   3.898   2.809   4.006  0.4823 -0.0384  0.0320
 8647SOL     OW34353   2.356   3.161   2.178  0.0041  0.3606  0.5294
 8647SOL    HW234354   2.313   3.170   2.094  1.0517 -1.1223 -0.2226
 8647SOL    HW334355   2.300   3.101   2.228 -0.0915  0.4265  0.5002
 8647SOL    MW434356   2.343   3.154   2.174  0.1297  0.1736  0.4264
 8648SOL     OW34357   1.308   5.568   4.953 -0.1581  0.4920 -0.3374
 8648SOL    HW234358   1.394   5.532   4.972 -0.9494 -0.3153  2.0906
 8648SOL    HW334359   1.277   5.518   4.878  1.2363  0.4230 -0.8915
 8648SOL    MW434360   1.315   5.557   4.945 -0.0785  0.3764 -0.0902
 8649SOL     OW34361   0.202   6.247   2.902 -0.1312  0.1430  0.2774
 8649SOL    HW234362   0.255   6.172   2.930  0.0611 -0.4279 -1.4984
 8649SOL    HW334363   0.249   6.323   2.936  1.0942 -0.4305 -0.0673
 8649SOL    MW434364   0.215   6.247   2.910  0.0559 -0.0080 -0.0024
 8650SOL     OW34365   0.575   0.420   2.825 -0.2174  0.3595 -0.0974
 8650SOL    HW234366   0.498   0.478   2.826 -1.4340 -1.1936  0.0515
 8650SOL    HW334367   0.576   0.383   2.737  0.5696  0.6001 -0.1977
 8650SOL    MW434368   0.565   0.423   2.814 -0.2741  0.1863 -0.0910
 8651SOL     OW34369   4.021   4.811   3.079 -0.6065 -0.2043  0.0427
 8651SOL    HW234370   3.952   4.860   3.034 -1.2703 -1.2222 -0.0697
 8651SOL    HW334371   3.975   4.739   3.121  0.3827 -0.8487  0.0381
 8651SOL    MW434372   4.006   4.808   3.078 -0.5635 -0.4236  0.0273
 8652SOL     OW34373   4.159   0.277   3.409  0.0951  0.0734  0.1393
 8652SOL    HW234374   4.088   0.307   3.467 -0.2664 -2.5315  1.1952
 8652SOL    HW334375   4.239   0.313   3.448 -0.4414  1.3804  0.0919
 8652SOL    MW434376   4.160   0.286   3.422 -0.0234 -0.0978  0.2723
 8653SOL     OW34377   3.353   4.184   0.850  0.1533 -0.2771  0.3142
 8653SOL    HW234378   3.409   4.261   0.837  1.5936 -1.2921  0.2181
 8653SOL    HW334379   3.382   4.146   0.933 -1.1790 -0.2256  0.8325
 8653SOL    MW434380   3.364   4.189   0.859  0.1676 -0.4042  0.3699
 8654SOL     OW34381   6.098   0.566   0.768 -0.1605  0.4262 -0.2588
 8654SOL    HW234382   6.188   0.596   0.750 -0.0418  0.5434  0.5128
 8654SOL    HW334383   6.077   0.508   0.695  0.7117  0.0456 -0.2190
 8654SOL    MW434384   6.107   0.562   0.756 -0.0298  0.3915 -0.1518
 8655SOL     OW34385   1.577   2.677   4.382 -0.2608 -0.1174  0.2697
 8655SOL    HW234386   1.664   2.635   4.380 -0.0097  0.3832  0.5632
 8655SOL    HW334387   1.516   2.606   4.362  0.1081 -0.7501  1.3325
 8655SOL    MW434388   1.581   2.662   4.379 -0.1790 -0.1349  0.4486
 8656SOL     OW34389   1.216   5.545   3.495  0.3179 -0.5377 -0.5495
 8656SOL    HW234390   1.190   5.520   3.406 -1.0273 -2.1988  0.2314
 8656SOL    HW334391   1.133   5.568   3.537  0.7232 -1.3157  0.7050
 8656SOL    MW434392   1.201   5.545   3.489  0.1939 -0.8595 -0.2810
 8657SOL     OW34393   1.806   0.511   5.496 -0.7284  0.3760  0.2688
 8657SOL    HW234394   1.803   0.465   5.413 -0.1695  1.1278 -0.1883
 8657SOL    HW334395   1.777   0.447   5.561 -3.0623  0.3430 -0.7132
 8657SOL    MW434396   1.802   0.497   5.494 -0.9626  0.4709  0.0789
 8658SOL     OW34397   0.391   6.057   2.960  0.1647 -0.3776 -0.6576
 8658SOL    HW234398   0.426   6.120   3.023 -1.3423 -0.4361  0.2700
 8658SOL    HW334399   0.463   5.995   2.947  0.7432  0.0193  0.4879
 8658SOL    MW434400   0.405   6.057   2.967  0.0422 -0.3329 -0.3841
 8659SOL     OW34401   0.143   2.457   0.264  0.3660  0.5469  0.1171
 8659SOL    HW234402   0.107   2.530   0.213  0.9242  0.6149 -0.1914
 8659SOL    HW334403   0.112   2.473   0.353  0.3448  1.0749  0.0211
 8659SOL    MW434404   0.134   2.469   0.269  0.4368  0.6255  0.0637
 8660SOL     OW34405   2.284   5.203   1.841 -0.1413 -0.1733  0.1220
 8660SOL    HW234406   2.366   5.252   1.839 -0.7316  0.8402  0.0968
 8660SOL    HW334407   2.297   5.137   1.910  1.0436 -0.6793 -0.5635
 8660SOL    MW434408   2.297   5.201   1.850 -0.0628 -0.1063  0.0282
 8661SOL     OW34409   5.770   5.873   4.197 -0.2326  0.0502  0.0450
 8661SOL    HW234410   5.676   5.877   4.177 -0.5881 -1.2665  1.3244
 8661SOL    HW334411   5.793   5.964   4.218 -1.3556  0.2934  0.2945
 8661SOL    MW434412   5.761   5.886   4.197 -0.4277 -0.0914  0.2467
 8662SOL     OW34413   5.735   3.012   3.555 -0.2262 -0.3947 -0.0017
 8662SOL    HW234414   5.662   2.951   3.546  0.2449 -1.0275  0.4730
 8662SOL    HW334415   5.733   3.062   3.473 -0.8013 -0.8276 -0.2615
 8662SOL    MW434416   5.725   3.011   3.543 -0.2399 -0.5353  0.0267
 8663SOL     OW34417   0.528   2.280   1.210  0.0003  1.0577  0.1094
 8663SOL    HW234418   0.604   2.237   1.170 -0.8686  0.7565 -1.3062
 8663SOL    HW334419   0.475   2.308   1.135 -2.5715 -1.0007  1.0070
 8663SOL    MW434420   0.531   2.278   1.195 -0.4537  0.7464  0.0410
 8664SOL     OW34421   1.574   2.665   5.130  0.6614  0.0084  0.0885
 8664SOL    HW234422   1.540   2.628   5.211  1.1328  0.2062  0.3798
 8664SOL    HW334423   1.665   2.634   5.126  0.3632 -0.8047 -0.8465
 8664SOL    MW434424   1.582   2.656   5.140  0.6842 -0.0728  0.0036
 8665SOL     OW34425   4.732   4.030   2.922 -0.3418 -0.1849  0.0091
 8665SOL    HW234426   4.718   4.105   2.979 -1.0707 -0.1278 -0.2393
 8665SOL    HW334427   4.671   3.964   2.953 -1.2145  0.0713 -1.0986
 8665SOL    MW434428   4.722   4.031   2.934 -0.5531 -0.1435 -0.1698
 8666SOL     OW34429   5.986   5.139   1.869  0.2200  0.4078 -0.4792
 8666SOL    HW234430   6.024   5.218   1.907  1.3518 -0.6390  0.6636
 8666SOL    HW334431   5.913   5.170   1.816 -0.4058  2.1043  1.2508
 8666SOL    MW434432   5.981   5.153   1.867  0.2867  0.4935 -0.1002
 8667SOL     OW34433   0.154   5.993   5.464 -0.0633  0.3110 -0.3441
 8667SOL    HW234434   0.168   6.075   5.511 -1.4818  0.0545  0.5918
 8667SOL    HW334435   0.179   5.925   5.527 -6.5977 -0.3106  2.3177
 8667SOL    MW434436   0.159   5.995   5.478 -1.1126  0.1952  0.1305
 8668SOL     OW34437   2.771   5.519   4.634  0.6588 -0.0480 -0.3408
 8668SOL    HW234438   2.687   5.527   4.680  1.2375  0.8715  0.6111
 8668SOL    HW334439   2.747   5.498   4.544 -0.7114  1.8522 -0.4991
 8668SOL    MW434440   2.756   5.517   4.629  0.5544  0.3240 -0.2361
 8669SOL     OW34441   3.624   3.337   5.732 -0.2263 -0.3668 -0.5951
 8669SOL    HW234442   3.695   3.387   5.772  0.4895 -0.9118 -1.1606
 8669SOL    HW334443   3.547   3.358   5.785  0.4636 -0.1827  0.3555
 8669SOL    MW434444   3.623   3.346   5.744 -0.0409 -0.4144 -0.5443
 8670SOL     OW34445   3.756   4.907   6.021  0.2021  0.3915  0.0085
 8670SOL    HW234446   3.836   4.903   5.969  0.3714 -0.8149  0.3410
 8670SOL    HW334447   3.751   4.822   6.064 -1.3641  0.3825 -0.1581
 8670SOL    MW434448   3.766   4.896   6.020  0.0178  0.2312  0.0304
 8671SOL     OW34449   2.556   4.302   3.449  0.2483  0.1009 -0.1288
 8671SOL    HW234450   2.554   4.213   3.486  0.1023 -0.2519 -0.9773
 8671SOL    HW334451   2.600   4.292   3.365  0.9606  0.9764  0.1204
 8671SOL    MW434452   2.561   4.289   3.443  0.3230  0.1698 -0.2079
 8672SOL     OW34453   3.049   4.187   1.881 -0.1148 -0.1763  0.2124
 8672SOL    HW234454   3.049   4.267   1.829 -1.5983 -1.4293 -1.8636
 8672SOL    HW334455   2.999   4.210   1.959 -2.1058  0.5089 -1.1780
 8672SOL    MW434456   3.042   4.201   1.884 -0.5732 -0.2512 -0.2449
 8673SOL     OW34457   6.124   4.294   4.309 -0.0525  0.1790  0.8641
 8673SOL    HW234458   6.146   4.207   4.276  1.1861  1.2025 -1.2586
 8673SOL    HW334459   6.081   4.337   4.234  0.1013  1.6448  1.5816
 8673SOL    MW434460   6.121   4.288   4.294  0.1312  0.5075  0.6787
 8674SOL     OW34461   5.531   0.446   4.170  0.0439  0.1561  0.2699
 8674SOL    HW234462   5.485   0.362   4.161 -3.2212  1.7951  0.2734
 8674SOL    HW334463   5.574   0.458   4.085 -1.3053 -0.5380 -0.5638
 8674SOL    MW434464   5.530   0.436   4.157 -0.5649  0.2808  0.1604
 8675SOL     OW34465   4.337   5.102   5.563 -0.5474  0.2282  0.0547
 8675SOL    HW234466   4.312   5.013   5.589  1.0137 -0.1533  0.3582
 8675SOL    HW334467   4.331   5.153   5.644  0.6315 -0.1072  0.3748
 8675SOL    MW434468   4.333   5.097   5.577 -0.1859  0.1336  0.1370
 8676SOL     OW34469   3.859   0.270   5.925  0.2257 -0.5426  0.2023
 8676SOL    HW234470   3.883   0.363   5.916 -0.5254 -0.5069 -2.1230
 8676SOL    HW334471   3.769   0.266   5.895 -0.0604 -1.9323  1.1424
 8676SOL    MW434472   3.850   0.282   5.920  0.0888 -0.7212  0.0196
 8677SOL     OW34473   6.065   6.084   1.083 -0.2217  0.2914 -0.1616
 8677SOL    HW234474   6.147   6.118   1.047  0.3432 -1.3351 -0.5225
 8677SOL    HW334475   6.000   6.099   1.015  0.5200 -1.3992 -1.3326
 8677SOL    MW434476   6.068   6.090   1.069 -0.0493 -0.1462 -0.3637
 8678SOL     OW34477   1.918   1.648   6.231  0.1523  0.3853 -0.0037
 8678SOL    HW234478   1.941   1.731   6.189 -0.7845  0.6524 -0.0139
 8678SOL    HW334479   1.980   1.585   6.196  1.1027  1.1420  0.2571
 8678SOL    MW434480   1.929   1.651   6.221  0.1541  0.5204  0.0294
 8679SOL     OW34481   4.439   0.791   6.053 -0.2820  0.5764 -0.0633
 8679SOL    HW234482   4.515   0.815   6.105 -1.1412  2.5496  0.3922
 8679SOL    HW334483   4.374   0.762   6.118 -0.2169 -0.2379 -0.3598
 8679SOL    MW434484   4.440   0.790   6.068 -0.3867  0.7293 -0.0423
 8680SOL     OW34485   1.438   2.994   0.638 -0.8727 -0.1331  0.0189
 8680SOL    HW234486   1.475   3.066   0.688 -0.8860 -0.0301 -0.1198
 8680SOL    HW334487   1.469   2.915   0.683  1.1988 -0.1217 -1.2254
 8680SOL    MW434488   1.447   2.993   0.651 -0.6011 -0.1180 -0.1636
 8681SOL     OW34489   5.624   0.638   2.547  0.1923  0.0333  0.2575
 8681SOL    HW234490   5.562   0.565   2.536 -0.5730  0.4962  1.3555
 8681SOL    HW334491   5.663   0.649   2.460  0.2725 -1.6315  0.0439
 8681SOL    MW434492   5.621   0.629   2.534  0.1019 -0.1253  0.3742
 8682SOL     OW34493   2.022   6.347   1.469  0.0395  0.1238  0.2920
 8682SOL    HW234494   2.022   6.437   1.437 -2.3706 -0.0360 -0.3147
 8682SOL    HW334495   2.115   6.325   1.477  0.7011  2.5675  0.2711
 8682SOL    MW434496   2.034   6.356   1.466 -0.1912  0.4252  0.2092
 8683SOL     OW34497   5.919   0.913   5.090 -0.5928 -0.2193 -0.1584
 8683SOL    HW234498   5.974   0.836   5.073 -0.5906 -0.5900  1.4395
 8683SOL    HW334499   5.970   0.986   5.056  1.0565 -0.5149  1.5130
 8683SOL    MW434500   5.933   0.912   5.083 -0.3749 -0.3072  0.2729
 8684SOL     OW34501   0.266   1.820   4.265 -0.3240  0.3173  0.5093
 8684SOL    HW234502   0.334   1.810   4.333  0.9397  2.2620 -0.3793
 8684SOL    HW334503   0.203   1.882   4.303 -0.6513 -0.0835  0.6284
 8684SOL    MW434504   0.267   1.827   4.279 -0.2005  0.5210  0.4078
 8685SOL     OW34505   1.336   4.446   1.870 -0.1975 -0.4959 -0.3963
 8685SOL    HW234506   1.383   4.437   1.787 -0.5068 -0.3499 -0.5898
 8685SOL    HW334507   1.248   4.413   1.852  0.3956 -2.7103  0.5229
 8685SOL    MW434508   1.331   4.441   1.857 -0.1600 -0.7688 -0.3006
 8686SOL     OW34509   2.256   2.549   5.535  0.5675 -0.2897  0.1179
 8686SOL    HW234510   2.295   2.636   5.536 -0.0123  0.0016 -1.2158
 8686SOL    HW334511   2.209   2.543   5.619 -0.6269  1.2651 -0.3948
 8686SOL    MW434512   2.255   2.559   5.546  0.3334 -0.0461 -0.1257
 8687SOL     OW34513   2.815   3.701   4.267  0.2473 -0.4252 -0.0251
 8687SOL    HW234514   2.883   3.727   4.205  0.3735 -2.6283 -0.8749
 8687SOL    HW334515   2.742   3.672   4.212 -1.2759  1.4223  0.8740
 8687SOL    MW434516   2.814   3.701   4.251  0.0629 -0.4721 -0.0186
 8688SOL     OW34517   4.319   6.098   3.380 -0.0633 -0.0216  0.0755
 8688SOL    HW234518   4.357   6.181   3.353  0.7531 -0.5691 -0.4823
 8688SOL    HW334519   4.227   6.119   3.400  0.3818  1.2005  0.9384
 8688SOL    MW434520   4.312   6.112   3.379  0.1031  0.0674  0.1158
 8689SOL     OW34521   1.258   3.153   3.403  0.0054  0.2474  0.8235
 8689SOL    HW234522   1.313   3.086   3.442 -1.7387 -0.0927  2.9109
 8689SOL    HW334523   1.257   3.224   3.468  0.2390  1.4793 -0.4643
 8689SOL    MW434524   1.265   3.154   3.417 -0.1939  0.3650  0.9290
 8690SOL     OW34525   5.423   1.331   2.682 -0.1217 -0.2621 -0.0270
 8690SOL    HW234526   5.368   1.260   2.649 -1.2967  0.6929 -0.1838
 8690SOL    HW334527   5.503   1.287   2.712 -0.3419 -1.5195 -1.1551
 8690SOL    MW434528   5.427   1.316   2.681 -0.3058 -0.3020 -0.1965
 8691SOL     OW34529   5.879   5.346   3.002  0.4517  0.1065  0.2035
 8691SOL    HW234530   5.955   5.332   3.058  0.3070 -2.1782 -0.0566
 8691SOL    HW334531   5.804   5.317   3.054  0.0113  0.3965 -0.2519
 8691SOL    MW434532   5.879   5.340   3.016  0.3745 -0.1566  0.1091
 8692SOL     OW34533   5.096   0.939   5.226  0.4274 -0.5469 -0.4366
 8692SOL    HW234534   5.130   0.871   5.284 -1.2821 -1.7890 -0.8010
 8692SOL    HW334535   5.001   0.934   5.236  0.2314  1.3196 -1.0337
 8692SOL    MW434536   5.088   0.929   5.235  0.1760 -0.4645 -0.5635
 8693SOL     OW34537   1.862   1.529   0.582 -0.0980 -0.5784  0.0302
 8693SOL    HW234538   1.823   1.504   0.498 -1.0113  0.2556  0.1832
 8693SOL    HW334539   1.791   1.515   0.646  0.0020  0.5167  0.3937
 8693SOL    MW434540   1.847   1.524   0.580 -0.2053 -0.3239  0.0984
 8694SOL     OW34541   6.200   4.031   4.185 -0.3484 -0.3027 -0.2441
 8694SOL    HW234542   6.295   4.041   4.182 -0.2104 -1.6302 -1.1401
 8694SOL    HW334543   6.185   3.959   4.246 -0.5821 -1.8294 -2.0240
 8694SOL    MW434544   6.211   4.023   4.193 -0.3610 -0.6793 -0.5972
 8695SOL     OW34545   4.751   5.274   2.609 -0.0546  0.0504 -0.7313
 8695SOL    HW234546   4.845   5.255   2.617 -0.2593 -0.2519  2.0811
 8695SOL    HW334547   4.711   5.188   2.595  0.0916  0.2755 -2.8468
 8695SOL    MW434548   4.758   5.260   2.608 -0.0623  0.0402 -0.6393
 8696SOL     OW34549   3.776   4.482   6.407 -0.0617  0.6705  0.2466
 8696SOL    HW234550   3.752   4.487   6.315  0.6319 -0.7143 -0.0374
 8696SOL    HW334551   3.744   4.563   6.445 -0.0946  1.3978 -1.2744
 8696SOL    MW434552   3.769   4.493   6.400  0.0255  0.5837  0.0084
 8697SOL     OW34553   3.587   1.236   3.186 -0.1589  0.0841  0.1280
 8697SOL    HW234554   3.598   1.142   3.179 -1.8858 -0.1866  0.6143
 8697SOL    HW334555   3.503   1.254   3.144 -0.2370  1.3034  0.7546
 8697SOL    MW434556   3.578   1.226   3.179 -0.3971  0.2093  0.2748
 8698SOL     OW34557   1.013   4.355   2.252  0.5658  0.6428  0.0413
 8698SOL    HW234558   1.021   4.260   2.264  2.3548  0.9281  1.6908
 8698SOL    HW334559   0.951   4.382   2.320  0.3436  0.6991 -0.1836
 8698SOL    MW434560   1.006   4.346   2.263  0.7725  0.6879  0.2293
 8699SOL     OW34561   4.639   5.012   4.744 -0.0363 -0.2800 -0.2798
 8699SOL    HW234562   4.706   4.971   4.799 -1.4951 -0.0718  1.7805
 8699SOL    HW334563   4.605   4.940   4.691 -0.1876 -1.0184  0.7826
 8699SOL    MW434564   4.643   4.997   4.744 -0.2487 -0.3500  0.1322
 8700SOL     OW34565   2.427   1.399   0.940 -0.1453  0.3181  0.3735
 8700SOL    HW234566   2.340   1.390   0.901 -0.3120  0.8801  0.6034
 8700SOL    HW334567   2.423   1.348   1.021  0.4284 -1.4620 -0.6572
 8700SOL    MW434568   2.415   1.391   0.946 -0.0916  0.1574  0.2679
 8701SOL     OW34569   0.910   5.630   1.935 -0.3442  0.6083 -0.6788
 8701SOL    HW234570   0.940   5.543   1.907 -0.4826  0.1876  0.4256
 8701SOL    HW334571   0.990   5.677   1.957 -0.3530  0.0903  0.5594
 8701SOL    MW434572   0.925   5.625   1.934 -0.3636  0.4845 -0.3697
 8702SOL     OW34573   3.931   0.265   4.231 -0.2271 -0.2855  0.3054
 8702SOL    HW234574   3.915   0.256   4.325 -0.8546  0.3965  0.2722
 8702SOL    HW334575   3.861   0.216   4.190  0.3141 -0.9723  0.1919
 8702SOL    MW434576   3.920   0.258   4.238 -0.2385 -0.2862  0.2860
 8703SOL     OW34577   5.494   4.170   1.483  0.3074  0.4027 -0.3373
 8703SOL    HW234578   5.488   4.116   1.405  1.6545  0.3408 -0.4307
 8703SOL    HW334579   5.404   4.189   1.507 -0.1267  0.2294 -1.7710
 8703SOL    MW434580   5.482   4.166   1.476  0.4279  0.3717 -0.5388
 8704SOL     OW34581   0.336   1.748   1.855 -0.9173 -0.6309  0.8689
 8704SOL    HW234582   0.330   1.652   1.861 -1.2343 -0.5584  1.9425
 8704SOL    HW334583   0.275   1.771   1.785 -0.7127 -1.2190  0.4829
 8704SOL    MW434584   0.327   1.738   1.846 -0.9321 -0.6989  0.9597
 8705SOL     OW34585   0.338   4.259   0.080  0.2665 -0.0572 -0.4079
 8705SOL    HW234586   0.304   4.202   0.149  0.2016 -1.0130 -1.2138
 8705SOL    HW334587   0.261   4.285   0.030  0.4275 -0.1967 -0.7315
 8705SOL    MW434588   0.324   4.255   0.082  0.2792 -0.2017 -0.5569
 8706SOL     OW34589   6.379   5.802   1.309  0.6525 -0.0070 -0.3597
 8706SOL    HW234590   6.387   5.862   1.384 -1.4055 -0.3561  0.2259
 8706SOL    HW334591   6.403   5.855   1.233 -1.0350  1.5969  0.1478
 8706SOL    MW434592   6.383   5.817   1.309  0.1583  0.1585 -0.2154
 8707SOL     OW34593   4.491   4.066   2.051  0.3550 -0.2130 -0.1747
 8707SOL    HW234594   4.550   3.994   2.075 -0.3667 -0.9027 -0.4357
 8707SOL    HW334595   4.434   4.076   2.127 -0.8821 -1.3209 -0.9112
 8707SOL    MW434596   4.491   4.058   2.064  0.0966 -0.4501 -0.3063
 8708SOL     OW34597   5.057   2.676   2.128 -0.3350 -0.0539  0.0427
 8708SOL    HW234598   5.059   2.672   2.032  0.8738 -1.3622  0.0873
 8708SOL    HW334599   5.107   2.755   2.149  0.7251 -0.5685 -0.4131
 8708SOL    MW434600   5.064   2.686   2.118 -0.0357 -0.2944 -0.0115
 8709SOL     OW34601   5.529   5.303   4.824  0.3351 -0.2008  0.2105
 8709SOL    HW234602   5.496   5.230   4.876 -1.6861  2.2685  2.6647
 8709SOL    HW334603   5.452   5.340   4.781  1.5329 -0.3160 -2.2253
 8709SOL    MW434604   5.515   5.298   4.825  0.2264  0.1098  0.2129
 8710SOL     OW34605   2.196   4.248   1.998  0.2571 -0.2550 -0.2725
 8710SOL    HW234606   2.198   4.265   1.904  0.8079  0.8405 -0.0746
 8710SOL    HW334607   2.121   4.189   2.010 -0.3669  0.3010 -1.2843
 8710SOL    MW434608   2.186   4.242   1.987  0.2475 -0.0371 -0.3798
 8711SOL     OW34609   4.062   3.519   5.670  0.2799  0.2584 -0.0414
 8711SOL    HW234610   4.052   3.614   5.675 -0.9194  0.1618 -0.2850
 8711SOL    HW334611   4.148   3.502   5.709  0.8397  1.4981 -0.6688
 8711SOL    MW434612   4.072   3.529   5.676  0.1955  0.4092 -0.1563
 8712SOL     OW34613   5.664   0.553   0.812  0.0205  0.2014 -0.1490
 8712SOL    HW234614   5.724   0.620   0.844 -0.2644  0.2205  0.3512
 8712SOL    HW334615   5.628   0.513   0.891  0.5276 -0.8496 -0.4355
 8712SOL    MW434616   5.667   0.556   0.827  0.0499  0.0652 -0.1208
 8713SOL     OW34617   3.987   1.108   1.418 -0.3674 -0.5410  0.1821
 8713SOL    HW234618   4.026   1.195   1.428  0.1602 -0.4473 -2.1176
 8713SOL    HW334619   3.897   1.124   1.389 -0.8733 -0.7864  1.5409
 8713SOL    MW434620   3.980   1.121   1.416 -0.3645 -0.5610  0.0579
 8714SOL     OW34621   0.685   0.774   4.035 -0.1304  0.0568  0.0390
 8714SOL    HW234622   0.770   0.811   4.059  0.2447 -1.2756  0.8481
 8714SOL    HW334623   0.652   0.833   3.967  2.3217 -0.4648 -1.7490
 8714SOL    MW434624   0.691   0.787   4.029  0.2426 -0.1878 -0.0901
 8715SOL     OW34625   5.551   5.122   6.136 -0.2557 -0.1573 -0.4288
 8715SOL    HW234626   5.502   5.074   6.202  0.7090 -2.8995 -1.5310
 8715SOL    HW334627   5.486   5.143   6.068 -0.9311  1.2865  0.6185
 8715SOL    MW434628   5.536   5.118   6.135 -0.2175 -0.3286 -0.4360
 8716SOL     OW34629   1.876   0.278   3.722 -0.0913  0.2185  0.5919
 8716SOL    HW234630   1.935   0.332   3.669 -0.2752  1.4395  1.5591
 8716SOL    HW334631   1.924   0.196   3.735 -0.3996 -0.4776 -2.1016
 8716SOL    MW434632   1.890   0.275   3.717 -0.1563  0.2877  0.3642
 8717SOL     OW34633   1.231   1.909   4.047 -0.9813  0.3353  0.5349
 8717SOL    HW234634   1.325   1.895   4.058 -0.9715  0.5404  0.7270
 8717SOL    HW334635   1.224   1.958   3.964 -1.0682 -1.3471 -0.5012
 8717SOL    MW434636   1.242   1.914   4.037 -0.9915  0.1404  0.4235
 8718SOL     OW34637   3.681   5.396   0.935  0.0427 -0.2228 -0.1125
 8718SOL    HW234638   3.746   5.462   0.960  0.4290  0.5474 -2.8114
 8718SOL    HW334639   3.715   5.314   0.971  1.0040  0.6047  0.9395
 8718SOL    MW434640   3.694   5.394   0.943  0.2205 -0.0120 -0.3298
 8719SOL     OW34641   3.680   6.243   0.265 -0.3135  0.1532 -0.1639
 8719SOL    HW234642   3.693   6.157   0.226  0.8030  0.5879 -0.7893
 8719SOL    HW334643   3.708   6.233   0.356  0.8235  0.1138 -0.5101
 8719SOL    MW434644   3.685   6.231   0.272 -0.0162  0.2054 -0.2921
 8720SOL     OW34645   3.031   0.882   4.132 -0.2191  0.2858 -0.3478
 8720SOL    HW234646   2.951   0.932   4.147 -0.9870 -1.2244  0.7950
 8720SOL    HW334647   3.101   0.939   4.162 -1.0670  0.7135  0.8901
 8720SOL    MW434648   3.030   0.896   4.138 -0.4323  0.1430 -0.0337
 8721SOL     OW34649   4.336   1.944   3.919 -0.2728  0.1006 -0.1562
 8721SOL    HW234650   4.303   2.033   3.910  0.4433  0.2302 -1.8270
 8721SOL    HW334651   4.419   1.954   3.966 -0.5843  0.2102  0.3823
 8721SOL    MW434652   4.343   1.957   3.924 -0.2194  0.1321 -0.3056
 8722SOL     OW34653   4.765   1.364   2.246 -0.1637 -0.8927 -0.5915
 8722SOL    HW234654   4.819   1.397   2.174 -0.7436  1.6033  0.0498
 8722SOL    HW334655   4.813   1.387   2.325 -0.7144 -1.4300 -0.0893
 8722SOL    MW434656   4.778   1.371   2.247 -0.3129 -0.6343 -0.4406
 8723SOL     OW34657   1.855   3.986   4.488 -0.0544  0.2301 -0.2732
 8723SOL    HW234658   1.918   4.017   4.554 -0.0703 -0.7879  0.2458
 8723SOL    HW334659   1.800   4.062   4.470 -0.8902  0.2088  1.8861
 8723SOL    MW434660   1.856   4.000   4.495 -0.1668  0.0930  0.0802
 8724SOL     OW34661   3.061   3.214   6.337 -0.1916  0.1374 -0.0079
 8724SOL    HW234662   3.156   3.208   6.331 -0.0448  1.3998  0.8214
 8724SOL    HW334663   3.031   3.222   6.247  0.4730 -0.3604 -0.2770
 8724SOL    MW434664   3.069   3.214   6.325 -0.0845  0.2383  0.0660
 8725SOL     OW34665   3.013   3.141   1.057  0.2761 -0.4787  0.1871
 8725SOL    HW234666   3.085   3.157   0.997 -0.9183 -0.1173 -1.2109
 8725SOL    HW334667   2.987   3.050   1.040  0.0419 -0.4307  0.2851
 8725SOL    MW434668   3.019   3.131   1.047  0.0876 -0.4247  0.0156
 8726SOL     OW34669   0.729   1.908   0.815 -0.7475 -0.3426  0.1822
 8726SOL    HW234670   0.660   1.975   0.817 -0.0144  0.4236  0.7138
 8726SOL    HW334671   0.683   1.827   0.792 -1.5715  0.4361 -1.0371
 8726SOL    MW434672   0.714   1.906   0.812 -0.7595 -0.1388  0.0915
 8727SOL     OW34673   0.329   2.125   4.519 -0.4251  0.1046 -0.4875
 8727SOL    HW234674   0.315   2.108   4.612 -1.2022  0.7634 -0.4736
 8727SOL    HW334675   0.411   2.079   4.498 -0.0487  0.2480  0.6050
 8727SOL    MW434676   0.338   2.117   4.528 -0.4780  0.2104 -0.3415
 8728SOL     OW34677   5.822   1.723   6.414  0.0368  0.5502 -0.1163
 8728SOL    HW234678   5.742   1.678   6.389 -0.7935  0.7875  1.9362
 8728SOL    HW334679   5.892   1.666   6.384 -0.9509 -0.9487  0.3281
 8728SOL    MW434680   5.821   1.710   6.406 -0.2031  0.3837  0.2131
 8729SOL     OW34681   6.245   3.193   4.405  0.0555  0.2185 -0.4121
 8729SOL    HW234682   6.247   3.124   4.472  0.9678  1.5133  0.9635
 8729SOL    HW334683   6.312   3.168   4.342 -1.1549 -1.2771 -1.1696
 8729SOL    MW434684   6.254   3.181   4.405  0.0162  0.1920 -0.3306
 8730SOL     OW34685   0.770   5.139   5.223 -0.6516  0.0972 -0.2599
 8730SOL    HW234686   0.688   5.088   5.227 -0.6539  0.1517  0.6179
 8730SOL    HW334687   0.743   5.229   5.236 -0.6867  0.4149 -2.1726
 8730SOL    MW434688   0.756   5.144   5.225 -0.6566  0.1463 -0.3965
 8731SOL     OW34689   4.733   3.322   2.411  0.5620  0.8060  0.2914
 8731SOL    HW234690   4.734   3.248   2.472  2.6218 -1.1276 -1.8449
 8731SOL    HW334691   4.641   3.329   2.384  0.5055 -2.2517 -0.7380
 8731SOL    MW434692   4.721   3.313   2.415  0.8263  0.1474 -0.1263
 8732SOL     OW34693   1.684   6.122   4.308  0.7141  0.2731  0.2173
 8732SOL    HW234694   1.601   6.075   4.314  0.0677  1.0055 -2.0921
 8732SOL    HW334695   1.749   6.053   4.291 -0.0325  0.0105 -1.8624
 8732SOL    MW434696   1.682   6.106   4.307  0.5303  0.3351 -0.3618
 8733SOL     OW34697   3.882   3.389   4.845 -0.3177 -0.0418  0.0614
 8733SOL    HW234698   3.827   3.467   4.854  1.2757  1.0670  0.7055
 8733SOL    HW334699   3.909   3.369   4.935  0.6568 -0.2777 -0.2728
 8733SOL    MW434700   3.878   3.397   4.858  0.0211  0.0734  0.1023
 8734SOL     OW34701   1.670   5.589   4.117  0.1630  0.0859 -0.1864
 8734SOL    HW234702   1.718   5.512   4.086  0.4571  0.3388 -0.3703
 8734SOL    HW334703   1.650   5.570   4.208 -2.8179 -1.7400 -1.0655
 8734SOL    MW434704   1.674   5.576   4.125 -0.1915 -0.1216 -0.3267
 8735SOL     OW34705   1.810   1.195   0.746  0.6897 -0.3797  0.4707
 8735SOL    HW234706   1.805   1.244   0.828 -1.3497  0.1704  0.0554
 8735SOL    HW334707   1.802   1.103   0.773  3.1223 -0.4964  1.1092
 8735SOL    MW434708   1.809   1.189   0.760  0.7416 -0.3225  0.5002
 8736SOL     OW34709   5.195   4.987   0.353 -0.2984 -0.0769  0.1752
 8736SOL    HW234710   5.276   5.011   0.396 -0.7877  0.0863  1.0214
 8736SOL    HW334711   5.162   4.913   0.404 -0.1629 -0.8175 -0.7874
 8736SOL    MW434712   5.201   4.980   0.365 -0.3451 -0.1530  0.1598
 8737SOL     OW34713   0.849   0.506   0.285 -0.3753 -0.6251  0.1097
 8737SOL    HW234714   0.893   0.508   0.370 -1.0999 -0.2584  0.4904
 8737SOL    HW334715   0.865   0.417   0.252 -0.5697 -0.9648  0.8992
 8737SOL    MW434716   0.857   0.495   0.292 -0.4965 -0.6215  0.2641
 8738SOL     OW34717   4.177   5.663   1.159 -0.8418  0.1494  0.9010
 8738SOL    HW234718   4.155   5.675   1.252  0.8168 -1.1104  1.5123
 8738SOL    HW334719   4.242   5.593   1.159  0.1560  0.9962 -1.1053
 8738SOL    MW434720   4.183   5.656   1.172 -0.4913  0.0949  0.7169
 8739SOL     OW34721   6.319   6.365   4.378 -0.2269  0.0093  0.2976
 8739SOL    HW234722   6.406   6.328   4.386 -0.1003  0.3376  0.4361
 8739SOL    HW334723   6.330   6.440   4.321 -0.6745 -0.7993 -0.8867
 8739SOL    MW434724   6.332   6.370   4.372 -0.2693 -0.0541  0.1596
 8740SOL     OW34725   3.570   0.515   4.160  0.2994 -0.9345 -0.2970
 8740SOL    HW234726   3.617   0.495   4.078  1.3633  0.3219 -0.0339
 8740SOL    HW334727   3.490   0.559   4.131  1.6579  1.4874 -0.7025
 8740SOL    MW434728   3.566   0.518   4.145  0.6190 -0.4492 -0.3158
 8741SOL     OW34729   4.801   5.655   0.933 -0.4123  0.8646  0.2620
 8741SOL    HW234730   4.799   5.750   0.942 -0.3020  0.7678  1.4917
 8741SOL    HW334731   4.710   5.628   0.946 -0.1959  0.6942  1.6319
 8741SOL    MW434732   4.788   5.664   0.936 -0.3692  0.8294  0.6049
 8742SOL     OW34733   1.396   1.075   1.932  0.1966  0.0213 -0.4879
 8742SOL    HW234734   1.326   1.122   1.977  1.8742  2.1300  0.0876
 8742SOL    HW334735   1.429   1.013   1.997  0.2559  0.5393 -0.0172
 8742SOL    MW434736   1.391   1.073   1.946  0.4258  0.3678 -0.3499
 8743SOL     OW34737   5.776   2.298   0.549 -0.1693  0.1292 -0.0450
 8743SOL    HW234738   5.715   2.244   0.499 -0.7165  0.7003 -0.0095
 8743SOL    HW334739   5.782   2.380   0.499 -0.0569  0.3800  0.3725
 8743SOL    MW434740   5.768   2.302   0.536 -0.2266  0.2376  0.0147
 8744SOL     OW34741   1.183   6.089   5.971  0.3834 -0.1985  0.3339
 8744SOL    HW234742   1.203   6.153   6.039  0.0926 -0.4060  0.6171
 8744SOL    HW334743   1.220   6.007   6.004 -0.3701 -0.4522  0.5723
 8744SOL    MW434744   1.191   6.087   5.985  0.2456 -0.2593  0.4027
 8745SOL     OW34745   5.858   5.057   4.032  0.4020 -0.0406  0.1962
 8745SOL    HW234746   5.786   5.116   4.009  0.8375  0.5736  0.3932
 8745SOL    HW334747   5.924   5.074   3.965  1.7016  1.7892  1.8343
 8745SOL    MW434748   5.857   5.067   4.020  0.6309  0.2818  0.4383
 8746SOL     OW34749   1.502   0.234   4.300  0.0325 -0.6619 -0.0160
 8746SOL    HW234750   1.543   0.293   4.364  1.5402 -0.5293 -1.0514
 8746SOL    HW334751   1.408   0.252   4.307  0.0903 -1.0227  2.5041
 8746SOL    MW434752   1.495   0.244   4.309  0.2391 -0.6920  0.1799
 8747SOL     OW34753   6.278   2.785   0.528  0.1838  0.5415  0.3673
 8747SOL    HW234754   6.281   2.812   0.436  1.1680 -2.6059 -0.6484
 8747SOL    HW334755   6.185   2.773   0.547 -0.0319  1.3141 -0.1439
 8747SOL    MW434756   6.266   2.787   0.518  0.2852  0.2282  0.1659
 8748SOL     OW34757   5.352   6.196   2.503 -0.1934  0.4043 -0.0236
 8748SOL    HW234758   5.308   6.278   2.483  1.2104  0.9944 -0.8095
 8748SOL    HW334759   5.404   6.176   2.425 -2.0075 -2.3073 -0.7010
 8748SOL    MW434760   5.353   6.204   2.490 -0.2476  0.1244 -0.2166
 8749SOL     OW34761   3.738   2.389   5.188 -0.2023  0.1498  0.4356
 8749SOL    HW234762   3.706   2.299   5.179 -0.3954  0.1640  0.9068
 8749SOL    HW334763   3.762   2.416   5.100 -0.4468 -0.2553  0.2438
 8749SOL    MW434764   3.737   2.381   5.176 -0.2600  0.0982  0.4725
 8750SOL     OW34765   3.205   0.016   5.782  0.1537 -0.1085 -0.1672
 8750SOL    HW234766   3.293   0.012   5.821  0.3207  2.0162 -0.2033
 8750SOL    HW334767   3.214   0.077   5.709 -1.4068  0.3198 -0.0360
 8750SOL    MW434768   3.218   0.024   5.778 -0.0302  0.2283 -0.1547
 8751SOL     OW34769   1.627   0.816   3.128  0.2479 -0.0977 -0.3165
 8751SOL    HW234770   1.618   0.887   3.064  0.1024  0.6064  0.4539
 8751SOL    HW334771   1.664   0.860   3.206  1.2302 -1.0856 -0.2019
 8751SOL    MW434772   1.631   0.831   3.130  0.3583 -0.1352 -0.1997
 8752SOL     OW34773   2.490   0.128   3.405 -0.0871 -0.1273  0.1323
 8752SOL    HW234774   2.407   0.164   3.436 -0.1121  0.5460 -0.6804
 8752SOL    HW334775   2.546   0.128   3.483  0.1297  2.3579  0.0762
 8752SOL    MW434776   2.486   0.133   3.419 -0.0618  0.2895  0.0177
 8753SOL     OW34777   4.244   4.552   1.371 -0.7952 -0.1069  0.0263
 8753SOL    HW234778   4.280   4.466   1.393  2.1414  0.2301 -2.8492
 8753SOL    HW334779   4.257   4.604   1.450  0.4899 -1.3977  0.7099
 8753SOL    MW434780   4.250   4.548   1.384 -0.2382 -0.2327 -0.2629
 8754SOL     OW34781   3.661   6.089   3.607  0.4633 -0.5336 -0.1182
 8754SOL    HW234782   3.702   6.005   3.589  0.4278 -0.2311 -1.8117
 8754SOL    HW334783   3.575   6.084   3.564  0.2266  0.1549  0.2492
 8754SOL    MW434784   3.655   6.077   3.599  0.4274 -0.4029 -0.2932
 8755SOL     OW34785   0.454   2.765   1.264  0.1981  0.1596 -0.0034
 8755SOL    HW234786   0.528   2.735   1.316  0.7921  0.4863 -0.6477
 8755SOL    HW334787   0.383   2.705   1.286  0.5323  0.0987  0.9309
 8755SOL    MW434788   0.454   2.753   1.274  0.3205  0.1947  0.0349
 8756SOL     OW34789   4.898   0.481   3.154 -0.3551  0.0955  0.0629
 8756SOL    HW234790   4.983   0.438   3.151 -0.7580 -1.0356  2.7640
 8756SOL    HW334791   4.841   0.420   3.201 -2.5675  1.0359 -1.2301
 8756SOL    MW434792   4.902   0.468   3.159 -0.7001  0.0703  0.2486
 8757SOL     OW34793   0.126   6.271   2.235  0.1626 -0.0131 -0.3981
 8757SOL    HW234794   0.164   6.340   2.290 -0.8684 -0.4476  0.9207
 8757SOL    HW334795   0.110   6.314   2.150 -0.7272  1.4910  0.4653
 8757SOL    MW434796   0.129   6.286   2.231 -0.0908  0.1280 -0.1102
 8758SOL     OW34797   2.244   5.778   4.366 -0.0048  0.1824 -0.2925
 8758SOL    HW234798   2.239   5.753   4.274  0.5752 -0.5263 -0.1405
 8758SOL    HW334799   2.317   5.726   4.402  0.0378  0.7386  0.4714
 8758SOL    MW434800   2.253   5.768   4.359  0.0774  0.1623 -0.1717
 8759SOL     OW34801   4.641   6.279   1.540 -0.5862  0.5039  0.2297
 8759SOL    HW234802   4.661   6.233   1.459 -0.7764  1.0217 -0.1128
 8759SOL    HW334803   4.628   6.370   1.514 -2.0981  0.4297  0.6213
 8759SOL    MW434804   4.642   6.285   1.526 -0.8108  0.5624  0.2361
 8760SOL     OW34805   6.246   5.598   4.256  0.1351 -0.0880 -0.6841
 8760SOL    HW234806   6.189   5.535   4.300 -1.3964  0.7828 -1.3352
 8760SOL    HW334807   6.288   5.646   4.327 -0.6045 -0.1791 -0.1669
 8760SOL    MW434808   6.244   5.596   4.271 -0.1645  0.0149 -0.7017
 8761SOL     OW34809   4.731   3.135   2.615  0.1943  0.0713 -0.3110
 8761SOL    HW234810   4.800   3.178   2.667  0.0827  0.1593 -0.2341
 8761SOL    HW334811   4.649   3.159   2.660  0.0892  0.2416 -0.5936
 8761SOL    MW434812   4.729   3.144   2.628  0.1657  0.1054 -0.3381
 8762SOL     OW34813   1.920   3.006   2.093 -0.1065 -0.0355  0.0820
 8762SOL    HW234814   1.830   2.980   2.073 -0.5398  2.1695 -1.1612
 8762SOL    HW334815   1.911   3.091   2.136  1.4266  1.0734 -1.6795
 8762SOL    MW434816   1.907   3.014   2.096  0.0386  0.4017 -0.3144
 8763SOL     OW34817   5.593   4.380   5.358 -0.5000 -0.2526 -0.2880
 8763SOL    HW234818   5.684   4.392   5.386 -1.0114  0.2342  1.2990
 8763SOL    HW334819   5.564   4.301   5.402 -0.7758 -0.5532 -0.9957
 8763SOL    MW434820   5.601   4.371   5.368 -0.6039 -0.2280 -0.1720
 8764SOL     OW34821   3.133   4.309   1.246 -0.2597  0.6840  0.4609
 8764SOL    HW234822   3.093   4.223   1.239  0.1903  0.4207  1.0196
 8764SOL    HW334823   3.065   4.365   1.283 -1.2849  1.1119 -1.8769
 8764SOL    MW434824   3.119   4.305   1.250 -0.3356  0.7057  0.2261
 8765SOL     OW34825   3.037   3.874   3.092  0.5300 -0.4733  0.2035
 8765SOL    HW234826   3.076   3.857   3.178 -0.7619 -2.6207  0.4505
 8765SOL    HW334827   2.990   3.957   3.102 -0.0357 -0.9461  1.7657
 8765SOL    MW434828   3.036   3.883   3.105  0.2849 -0.8190  0.4422
 8766SOL     OW34829   4.468   3.250   2.648  0.0213 -0.3910  0.0711
 8766SOL    HW234830   4.467   3.175   2.707  0.5207 -2.4325 -2.3288
 8766SOL    HW334831   4.417   3.221   2.572 -3.1357  3.1691  0.5543
 8766SOL    MW434832   4.461   3.236   2.646 -0.3293 -0.1906 -0.1818
 8767SOL     OW34833   3.619   5.293   5.979 -0.6567  0.2729  0.0820
 8767SOL    HW234834   3.527   5.307   6.002 -0.5727 -0.2581  0.7803
 8767SOL    HW334835   3.657   5.380   5.980 -1.3028  0.5985 -0.9566
 8767SOL    MW434836   3.612   5.306   5.982 -0.7309  0.2458  0.0371
 8768SOL     OW34837   4.021   3.369   6.183 -0.0175  0.0775 -0.4161
 8768SOL    HW234838   3.953   3.390   6.246  0.7858  3.3735 -0.4975
 8768SOL    HW334839   4.042   3.452   6.141  3.0085 -1.0897 -1.4771
 8768SOL    MW434840   4.015   3.383   6.185  0.4877  0.3584 -0.5668
 8769SOL     OW34841   6.242   3.959   5.011  0.0596  0.0374 -0.4865
 8769SOL    HW234842   6.150   3.977   4.991 -0.4747 -1.0618  0.8042
 8769SOL    HW334843   6.263   3.882   4.958 -0.6536 -1.4412  1.2818
 8769SOL    MW434844   6.232   3.951   5.001 -0.1050 -0.3027 -0.0829
 8770SOL     OW34845   5.962   4.324   2.710  0.3222 -0.6291 -0.1686
 8770SOL    HW234846   5.969   4.232   2.687  0.3693 -0.5191 -0.5927
 8770SOL    HW334847   6.006   4.371   2.639 -0.4414 -0.2291 -0.3969
 8770SOL    MW434848   5.969   4.318   2.698  0.2277 -0.5618 -0.2547
 8771SOL     OW34849   3.215   5.339   6.315 -0.6183 -0.0986  0.2462
 8771SOL    HW234850   3.245   5.309   6.401 -2.2135 -0.7481  0.6141
 8771SOL    HW334851   3.162   5.266   6.282  0.4463 -0.1063 -1.5631
 8771SOL    MW434852   3.212   5.325   6.322 -0.6883 -0.1853  0.0560
 8772SOL     OW34853   1.210   3.163   0.236 -0.2700 -0.2362 -0.6791
 8772SOL    HW234854   1.288   3.215   0.256 -0.9182 -0.0966  1.6848
 8772SOL    HW334855   1.140   3.228   0.224 -0.4518 -0.4437 -0.7477
 8772SOL    MW434856   1.211   3.179   0.237 -0.3795 -0.2452 -0.3762
 8773SOL     OW34857   5.746   2.334   2.836  0.5155 -0.3273  0.1639
 8773SOL    HW234858   5.706   2.262   2.787  0.0956  0.1167 -0.1522
 8773SOL    HW334859   5.836   2.305   2.850  0.7976 -0.2621 -1.3083
 8773SOL    MW434860   5.753   2.321   2.831  0.4973 -0.2601 -0.0721
 8774SOL     OW34861   3.591   0.446   5.759  0.5413 -0.1126  0.2649
 8774SOL    HW234862   3.636   0.412   5.682  0.8466  2.4815 -0.7763
 8774SOL    HW334863   3.498   0.444   5.734  0.5806  0.0803  0.1020
 8774SOL    MW434864   3.584   0.441   5.746  0.5868  0.2551  0.1060
 8775SOL     OW34865   5.861   5.396   4.344 -0.2348 -0.3780 -0.1916
 8775SOL    HW234866   5.825   5.432   4.425 -0.8570 -0.6813 -0.3234
 8775SOL    HW334867   5.800   5.425   4.276  1.5191  1.8831 -0.9314
 8775SOL    MW434868   5.848   5.405   4.346 -0.0855 -0.1197 -0.3066
 8776SOL     OW34869   0.297   0.605   0.153  0.0835  0.3193  0.4413
 8776SOL    HW234870   0.244   0.659   0.211  1.3918  3.0812 -0.7455
 8776SOL    HW334871   0.355   0.667   0.109  0.5012 -1.8574 -2.3589
 8776SOL    MW434872   0.298   0.620   0.155  0.3112  0.3965 -0.0847
 8777SOL     OW34873   5.303   6.161   4.608  0.1082 -0.2834 -0.0367
 8777SOL    HW234874   5.344   6.157   4.695  0.2090 -1.9301 -0.1217
 8777SOL    HW334875   5.273   6.071   4.592  0.0840 -0.0072 -1.7022
 8777SOL    MW434876   5.304   6.148   4.617  0.1183 -0.4643 -0.2676
 8778SOL     OW34877   0.404   0.715   1.352  0.4443 -0.3173 -0.4469
 8778SOL    HW234878   0.468   0.751   1.414 -2.4993  1.1969  2.0291
 8778SOL    HW334879   0.359   0.792   1.318 -0.8598 -1.3617 -1.1619
 8778SOL    MW434880   0.407   0.730   1.356 -0.1161 -0.2553 -0.2145
 8779SOL     OW34881   5.109   2.794   2.862  0.2443  0.0523 -0.3511
 8779SOL    HW234882   5.085   2.755   2.778 -0.7673  0.0786 -0.0799
 8779SOL    HW334883   5.060   2.743   2.927 -0.4564  1.2423  0.0763
 8779SOL    MW434884   5.100   2.782   2.859  0.0184  0.2128 -0.2590
 8780SOL     OW34885   4.578   0.637   4.673 -0.6545 -0.3491  0.2434
 8780SOL    HW234886   4.605   0.595   4.754  0.6407 -0.9672 -0.4683
 8780SOL    HW334887   4.647   0.614   4.610 -2.4912 -1.4243 -1.5313
 8780SOL    MW434888   4.591   0.628   4.675 -0.7260 -0.5725 -0.0847
 8781SOL     OW34889   1.634   0.427   3.666  0.0098  0.0696  0.0640
 8781SOL    HW234890   1.704   0.362   3.672  0.1353  0.2699  1.0632
 8781SOL    HW334891   1.669   0.503   3.713  0.9450  1.9019 -3.2533
 8781SOL    MW434892   1.648   0.429   3.673  0.1497  0.3378 -0.2418
 8782SOL     OW34893   4.802   1.184   2.794  0.1936 -0.1226  0.1188
 8782SOL    HW234894   4.866   1.205   2.727 -1.2976 -0.1540 -1.3962
 8782SOL    HW334895   4.807   1.256   2.856  1.8612 -0.2664  0.1875
 8782SOL    MW434896   4.811   1.196   2.793  0.2168 -0.1457 -0.0720
 8783SOL     OW34897   1.615   3.071   2.065 -0.2181  0.3119 -0.5808
 8783SOL    HW234898   1.621   3.131   1.991 -0.8062  0.8431 -0.2124
 8783SOL    HW334899   1.547   3.008   2.040  1.6091 -1.3166 -1.7146
 8783SOL    MW434900   1.607   3.070   2.052 -0.0546  0.1671 -0.6817
 8784SOL     OW34901   2.231   0.284   2.544 -0.2411 -0.7999 -0.4552
 8784SOL    HW234902   2.138   0.292   2.523 -0.1451 -0.1202 -0.6408
 8784SOL    HW334903   2.276   0.317   2.467  0.1822 -2.0982 -0.7904
 8784SOL    MW434904   2.225   0.289   2.531 -0.1726 -0.8815 -0.5239
 8785SOL     OW34905   1.162   4.613   5.673 -0.3007  0.3483  0.2550
 8785SOL    HW234906   1.229   4.625   5.740  1.0741  0.6103 -1.1066
 8785SOL    HW334907   1.133   4.702   5.653  0.1067  0.3645 -0.2797
 8785SOL    MW434908   1.167   4.627   5.679 -0.0656  0.3850  0.0048
 8786SOL     OW34909   2.886   1.958   6.248  0.5311  0.1230  0.1168
 8786SOL    HW234910   2.831   1.904   6.191 -1.7377  0.3779  1.9459
 8786SOL    HW334911   2.853   1.943   6.336  1.6849  2.3382  1.0223
 8786SOL    MW434912   2.875   1.949   6.252  0.3840  0.4489  0.4776
 8787SOL     OW34913   4.524   4.773   2.076 -0.4071  0.1000 -0.9705
 8787SOL    HW234914   4.489   4.701   2.025 -1.3920  0.9285 -1.5065
 8787SOL    HW334915   4.527   4.740   2.166  0.1840 -0.9565 -1.3690
 8787SOL    MW434916   4.520   4.759   2.081 -0.4590  0.0699 -1.0938
 8788SOL     OW34917   6.043   1.678   5.819  0.4399  0.0205  0.2414
 8788SOL    HW234918   5.986   1.616   5.773  1.3988 -0.0776 -0.8690
 8788SOL    HW334919   6.068   1.633   5.899  1.5128 -1.2753 -0.7674
 8788SOL    MW434920   6.039   1.664   5.823  0.7080 -0.1634 -0.0382
 8789SOL     OW34921   3.877   4.314   0.978  0.4943 -0.6870 -0.0152
 8789SOL    HW234922   3.844   4.247   0.918 -0.1046  0.6188 -1.1886
 8789SOL    HW334923   3.969   4.324   0.954  0.7278 -1.4364  0.5197
 8789SOL    MW434924   3.885   4.306   0.967  0.4461 -0.6136 -0.0994
 8790SOL     OW34925   2.894   2.249   2.853  0.1332 -0.1984  0.6438
 8790SOL    HW234926   2.858   2.330   2.890  0.3878 -0.0750  0.6260
 8790SOL    HW334927   2.818   2.200   2.824  0.0127  0.6160 -0.5312
 8790SOL    MW434928   2.880   2.253   2.854  0.1509 -0.0747  0.4865
 8791SOL     OW34929   2.373   5.413   4.996  0.1961 -0.1939  0.5055
 8791SOL    HW234930   2.430   5.425   4.920  3.1737 -0.7963  2.4405
 8791SOL    HW334931   2.342   5.501   5.018  1.3107  0.3354  0.0067
 8791SOL    MW434932   2.377   5.426   4.989  0.7360 -0.2036  0.6950
 8792SOL     OW34933   0.852   5.366   0.009 -0.2494  0.2676  0.1851
 8792SOL    HW234934   0.912   5.317  -0.047  0.6752 -0.3275  1.6309
 8792SOL    HW334935   0.797   5.416  -0.052  0.9055 -0.1063 -1.2165
 8792SOL    MW434936   0.853   5.366  -0.006  0.0250  0.1397  0.1909
 8793SOL     OW34937   2.955   5.016   4.121 -0.4202  0.5275  0.1661
 8793SOL    HW234938   2.910   5.089   4.163 -0.0463  1.6590 -1.3105
 8793SOL    HW334939   2.922   5.016   4.032  0.2551 -0.5548 -0.0948
 8793SOL    MW434940   2.945   5.026   4.115 -0.2818  0.5340 -0.0632
 8794SOL     OW34941   5.759   4.255   0.236  0.0224  0.8049 -0.0115
 8794SOL    HW234942   5.709   4.220   0.162  1.7002 -0.8517 -0.4528
 8794SOL    HW334943   5.826   4.188   0.252  0.5736  1.8123  2.1001
 8794SOL    MW434944   5.761   4.241   0.228  0.3165  0.7192  0.2089
 8795SOL     OW34945   4.398   5.316   1.813  0.2913  0.4808  0.2811
 8795SOL    HW234946   4.337   5.384   1.784  1.6118  1.0330 -1.3477
 8795SOL    HW334947   4.353   5.234   1.798 -1.1867  0.9229  1.9226
 8795SOL    MW434948   4.384   5.314   1.807  0.2705  0.6120  0.2828
 8796SOL     OW34949   2.408   4.362   4.303  0.3808 -0.0642 -0.6823
 8796SOL    HW234950   2.432   4.274   4.332 -0.3613 -0.4795 -1.3068
 8796SOL    HW334951   2.410   4.415   4.382 -2.1233 -1.2791  0.2867
 8796SOL    MW434952   2.411   4.358   4.317 -0.0475 -0.2793 -0.6368
 8797SOL     OW34953   5.889   1.532   2.278 -0.8665  0.3697 -0.3442
 8797SOL    HW234954   5.824   1.470   2.310  0.1035  0.0669  1.1066
 8797SOL    HW334955   5.930   1.488   2.203 -1.0017 -0.2461 -0.0612
 8797SOL    MW434956   5.886   1.518   2.272 -0.7564  0.2485 -0.1155
 8798SOL     OW34957   5.408   0.938   0.619  0.6982 -0.1925 -0.1776
 8798SOL    HW234958   5.433   0.996   0.691 -3.0964  1.1199  0.3491
 8798SOL    HW334959   5.434   0.985   0.540  0.7258  0.6356  0.3137
 8798SOL    MW434960   5.415   0.952   0.618  0.2012  0.0899 -0.0433
 8799SOL     OW34961   0.975   2.448   4.969  0.5617 -0.2928  0.5903
 8799SOL    HW234962   1.041   2.507   5.005  0.8384 -0.0175 -0.3269
 8799SOL    HW334963   0.896   2.467   5.019  1.0844 -0.3902  1.4749
 8799SOL    MW434964   0.973   2.459   4.980  0.6672 -0.2693  0.5860
 8800SOL     OW34965   0.142   6.341   5.790 -0.6718  0.1871  0.0333
 8800SOL    HW234966   0.167   6.344   5.882 -0.1419  0.7261 -0.1221
 8800SOL    HW334967   0.101   6.255   5.779  0.0367 -0.2246  0.5751
 8800SOL    MW434968   0.140   6.330   5.800 -0.5084  0.2039  0.0843
 8801SOL     OW34969   2.185   5.778   4.076  0.1557  0.2627  0.0732
 8801SOL    HW234970   2.245   5.719   4.030 -0.9637 -2.4465  1.8523
 8801SOL    HW334971   2.099   5.757   4.041 -0.2033  1.2830  0.3212
 8801SOL    MW434972   2.182   5.767   4.065 -0.0394  0.0399  0.3406
 8802SOL     OW34973   6.404   4.848   0.085  0.2964  0.1744 -0.1673
 8802SOL    HW234974   6.433   4.786   0.019  0.1868 -1.2613  1.0810
 8802SOL    HW334975   6.321   4.812   0.118  0.7418  0.4125  1.2961
 8802SOL    MW434976   6.397   4.835   0.080  0.3407  0.0164  0.1905
 8803SOL     OW34977   3.422   5.435   2.372 -0.1381 -0.0030 -0.7200
 8803SOL    HW234978   3.403   5.529   2.366  1.2254  0.4362  1.0842
 8803SOL    HW334979   3.337   5.394   2.385 -0.9118  0.8104 -2.8006
 8803SOL    MW434980   3.409   5.442   2.373 -0.0603  0.1622 -0.7565
 8804SOL     OW34981   6.197   1.361   2.794  0.0521  0.2691 -0.2540
 8804SOL    HW234982   6.234   1.413   2.722  2.0346 -0.8402 -0.1267
 8804SOL    HW334983   6.156   1.286   2.751  0.6660 -0.0589 -0.2839
 8804SOL    MW434984   6.197   1.358   2.779  0.3947  0.0795 -0.2412
 8805SOL     OW34985   0.184   5.678   5.091  0.1540 -0.0354 -0.6476
 8805SOL    HW234986   0.234   5.631   5.158 -1.6090 -0.8079  0.1741
 8805SOL    HW334987   0.189   5.623   5.013  0.2915 -0.2633 -0.4769
 8805SOL    MW434988   0.191   5.665   5.090 -0.0605 -0.1674 -0.5167
 8806SOL     OW34989   3.635   0.556   3.159  0.1021 -0.2039  0.4423
 8806SOL    HW234990   3.591   0.473   3.141 -0.5076  0.3946 -0.9863
 8806SOL    HW334991   3.726   0.531   3.176  0.0467 -1.1365 -0.4734
 8806SOL    MW434992   3.642   0.542   3.158  0.0144 -0.2480  0.1330
 8807SOL     OW34993   1.981   2.619   0.508 -0.4152 -0.2574 -0.2366
 8807SOL    HW234994   2.009   2.536   0.546  1.8875  1.0570  1.0970
 8807SOL    HW334995   1.886   2.610   0.499 -0.0914 -3.7491 -2.0399
 8807SOL    MW434996   1.972   2.607   0.512 -0.0686 -0.5447 -0.2986
 8808SOL     OW34997   0.147   3.348   2.016 -0.1884  0.0574  0.5092
 8808SOL    HW234998   0.097   3.404   2.076  0.0496  1.0264 -0.1841
 8808SOL    HW334999   0.103   3.263   2.022 -0.6848  0.3581  1.4237
 8808SOL    MW435000   0.134   3.344   2.025 -0.2225  0.2249  0.5384
 8809SOL     OW35001   4.690   4.907   0.035 -0.8437  0.4131  0.1426
 8809SOL    HW235002   4.728   4.991   0.007 -1.6351  1.8892  3.1506
 8809SOL    HW335003   4.754   4.872   0.097 -1.2276 -0.5319  0.0193
 8809SOL    MW435004   4.704   4.913   0.039 -0.9988  0.4832  0.5232
 8810SOL     OW35005   3.447   6.122   0.644 -0.6702 -0.0472  0.1207
 8810SOL    HW235006   3.433   6.198   0.701  0.0600  0.6072 -0.5457
 8810SOL    HW335007   3.477   6.053   0.703 -2.0001 -0.0322  0.8352
 8810SOL    MW435008   3.449   6.123   0.659 -0.7493  0.0412  0.1271
 8811SOL     OW35009   3.833   6.365   2.063  0.0978  1.1342 -0.8086
 8811SOL    HW235010   3.916   6.382   2.018  0.3374 -2.0939 -1.8265
 8811SOL    HW335011   3.779   6.441   2.041  2.2825  2.6624 -1.2725
 8811SOL    MW435012   3.837   6.377   2.054  0.4176  0.9099 -1.0041
 8812SOL     OW35013   6.064   2.729   0.921  0.0256  0.9200  0.6936
 8812SOL    HW235014   6.124   2.655   0.927 -1.5606 -0.3007  2.8715
 8812SOL    HW335015   6.022   2.720   0.836  1.0727  0.3518  0.2144
 8812SOL    MW435016   6.067   2.718   0.910 -0.0455  0.6840  0.9177
 8813SOL     OW35017   2.210   3.946   1.778 -0.5066  0.0625  0.3221
 8813SOL    HW235018   2.249   3.915   1.860  1.6314  1.3008 -0.1347
 8813SOL    HW335019   2.233   4.039   1.775 -1.5404  0.3011 -1.1380
 8813SOL    MW435020   2.219   3.955   1.789 -0.3609  0.2573  0.0692
 8814SOL     OW35021   5.341   4.929   2.084  0.1653  0.7237 -0.1845
 8814SOL    HW235022   5.277   4.946   2.014  0.5032 -3.3602 -1.7533
 8814SOL    HW335023   5.424   4.920   2.038  1.1657  1.8500  1.3322
 8814SOL    MW435024   5.343   4.930   2.069  0.3419  0.3335 -0.1914
 8815SOL     OW35025   4.752   2.730   0.573 -0.3028 -0.3173 -0.0106
 8815SOL    HW235026   4.661   2.719   0.601 -0.6751  2.0693 -0.0856
 8815SOL    HW335027   4.758   2.679   0.492 -2.0130  0.6207 -0.7970
 8815SOL    MW435028   4.740   2.722   0.566 -0.5775  0.1214 -0.1243
 8816SOL     OW35029   4.654   6.171   3.597  0.1183 -0.1108 -0.6895
 8816SOL    HW235030   4.726   6.223   3.560 -0.6320  1.6712  0.2649
 8816SOL    HW335031   4.693   6.129   3.674  0.8168 -1.2837 -1.6437
 8816SOL    MW435032   4.669   6.172   3.602  0.1115 -0.0305 -0.6895
 8817SOL     OW35033   1.338   4.620   0.999  0.1416 -0.5761 -0.7609
 8817SOL    HW235034   1.364   4.679   1.070  0.6775 -1.2054 -0.4237
 8817SOL    HW335035   1.293   4.548   1.043  1.2130 -1.3944 -0.9564
 8817SOL    MW435036   1.335   4.619   1.014  0.3537 -0.7671 -0.7422
 8818SOL     OW35037   4.310   5.780   4.705  0.4683 -0.3753 -0.1963
 8818SOL    HW235038   4.272   5.726   4.774  0.0114 -1.7163 -1.4466
 8818SOL    HW335039   4.346   5.717   4.642 -0.4277  0.7500 -1.9082
 8818SOL    MW435040   4.310   5.764   4.706  0.2898 -0.4037 -0.5871
 8819SOL     OW35041   6.462   2.081   1.277 -0.0247 -0.1479  0.1398
 8819SOL    HW235042   6.473   2.047   1.188 -2.7542  0.1906 -0.4078
 8819SOL    HW335043   6.529   2.149   1.285  0.6899 -0.6261 -1.4181
 8819SOL    MW435044   6.472   2.086   1.266 -0.2905 -0.1663 -0.1380
 8820SOL     OW35045   0.153   6.421   4.913 -0.0932  0.6670 -0.7811
 8820SOL    HW235046   0.190   6.400   4.827  0.9912  0.9679 -0.4022
 8820SOL    HW335047   0.228   6.416   4.973 -0.4502  2.3461 -0.1640
 8820SOL    MW435048   0.168   6.417   4.909  0.0028  0.9283 -0.6497
 8821SOL     OW35049   5.410   5.126   4.988 -0.0412  0.3681  0.5413
 8821SOL    HW235050   5.473   5.077   5.040 -0.0709  2.8221  3.1694
 8821SOL    HW335051   5.326   5.111   5.031 -0.1113  2.2388  1.1571
 8821SOL    MW435052   5.407   5.118   5.000 -0.0543  0.9387  0.9693
 8822SOL     OW35053   4.487   0.124   2.850 -0.1432  0.2653 -0.2748
 8822SOL    HW235054   4.534   0.174   2.783  1.0669 -0.7429 -0.2070
 8822SOL    HW335055   4.495   0.033   2.822 -2.2348  0.0465 -0.3410
 8822SOL    MW435056   4.494   0.119   2.837 -0.2595  0.1034 -0.2746
 8823SOL     OW35057   1.458   0.016   0.771 -0.2804 -0.0323  0.2478
 8823SOL    HW235058   1.474  -0.076   0.751 -1.7194 -0.2082 -0.2241
 8823SOL    HW335059   1.542   0.059   0.755  0.6432 -1.3794  1.2960
 8823SOL    MW435060   1.471   0.009   0.766 -0.3484 -0.2332  0.3239
 8824SOL     OW35061   4.009   2.953   0.535 -0.0592  0.1208  0.3354
 8824SOL    HW235062   4.076   2.899   0.577 -0.9878 -0.2289  1.4205
 8824SOL    HW335063   4.046   2.975   0.449  0.9303 -1.0759  0.4287
 8824SOL    MW435064   4.022   2.948   0.529 -0.0511 -0.0832  0.4909
 8825SOL     OW35065   0.613   3.274   4.595  0.1358 -0.2964 -0.2769
 8825SOL    HW235066   0.567   3.347   4.637 -0.1424 -0.1467 -0.8408
 8825SOL    HW335067   0.638   3.307   4.509 -0.3153 -0.9839 -0.6860
 8825SOL    MW435068   0.611   3.288   4.589  0.0396 -0.3673 -0.4053
 8826SOL     OW35069   1.877   2.961  -0.005  0.0407  0.4934  0.3359
 8826SOL    HW235070   1.867   2.917   0.079 -0.3781 -0.3011 -0.1114
 8826SOL    HW335071   1.793   2.949  -0.049  0.2667  0.8525 -0.2116
 8826SOL    MW435072   1.865   2.954  -0.000  0.0152  0.4359  0.2046
 8827SOL     OW35073   4.555   4.961   5.160 -0.4483 -0.1494  0.1012
 8827SOL    HW235074   4.501   4.883   5.174  0.1816 -0.3429  1.7046
 8827SOL    HW335075   4.635   4.943   5.210  0.3721  0.8556 -0.8263
 8827SOL    MW435076   4.558   4.948   5.169 -0.2570 -0.0423  0.1904
 8828SOL     OW35077   2.922   0.710  -0.001  0.1320  0.3388  0.5874
 8828SOL    HW235078   2.914   0.775  -0.071 -2.3765 -0.5851 -0.1210
 8828SOL    HW335079   2.939   0.628  -0.048  0.7942  0.0775  1.2754
 8828SOL    MW435080   2.923   0.707  -0.017 -0.1116  0.1824  0.5847
 8829SOL     OW35081   3.065   2.563   3.657 -0.1204 -0.3631 -0.0666
 8829SOL    HW235082   3.144   2.544   3.708 -0.7945 -2.6266  0.2560
 8829SOL    HW335083   3.062   2.658   3.652  1.5622 -0.1607  1.5894
 8829SOL    MW435084   3.075   2.573   3.663  0.0126 -0.6351  0.1945
 8830SOL     OW35085   3.651   1.216   0.466 -0.2129 -0.3936 -0.1173
 8830SOL    HW235086   3.623   1.284   0.405  2.0957  1.1268  0.4074
 8830SOL    HW335087   3.739   1.192   0.437 -0.0734 -1.4723  1.1147
 8830SOL    MW435088   3.659   1.222   0.454  0.1101 -0.3353  0.1145
 8831SOL     OW35089   5.473   2.222   1.103  0.0740  0.2517  0.3331
 8831SOL    HW235090   5.407   2.265   1.158 -0.6499 -0.0190 -0.3095
 8831SOL    HW335091   5.525   2.293   1.068 -0.1343  0.4996  0.5219
 8831SOL    MW435092   5.471   2.237   1.106 -0.0490  0.2487  0.2733
 8832SOL     OW35093   2.799   2.542   4.020  0.2249 -0.0231 -0.1089
 8832SOL    HW235094   2.740   2.608   3.984  0.1689  0.6546  1.1572
 8832SOL    HW335095   2.817   2.483   3.947 -0.6967  0.7005 -0.9463
 8832SOL    MW435096   2.793   2.543   4.006  0.0959  0.1618 -0.0523
 8833SOL     OW35097   1.412   2.507   5.692 -0.6101 -0.2753 -0.0907
 8833SOL    HW235098   1.461   2.579   5.731 -1.2562  0.8534 -1.2679
 8833SOL    HW335099   1.364   2.467   5.765  0.6474 -0.2770  0.7674
 8833SOL    MW435100   1.412   2.511   5.707 -0.5294 -0.1266 -0.1328
 8834SOL     OW35101   1.832   0.280   4.062 -0.1395  0.3048  0.3802
 8834SOL    HW235102   1.906   0.284   4.002  1.3229 -1.9082  1.8921
 8834SOL    HW335103   1.833   0.364   4.108 -0.9250  1.7950 -2.1317
 8834SOL    MW435104   1.842   0.292   4.060 -0.0502  0.2094  0.2483
 8835SOL     OW35105   1.318   4.191   1.630 -0.3672  0.1641  0.0524
 8835SOL    HW235106   1.333   4.116   1.572 -0.4798 -1.2707  1.7906
 8835SOL    HW335107   1.404   4.208   1.670 -0.4570  0.6236  0.0530
 8835SOL    MW435108   1.332   4.184   1.628 -0.3939  0.0354  0.2818
 8836SOL     OW35109   4.262   3.937   0.830  0.1769 -0.3276  0.2705
 8836SOL    HW235110   4.334   3.998   0.815  0.6303 -0.9748 -0.2380
 8836SOL    HW335111   4.298   3.851   0.808 -0.6943 -0.6865  0.1976
 8836SOL    MW435112   4.277   3.934   0.825  0.1218 -0.4603  0.1938
 8837SOL     OW35113   5.643   5.072   4.453  0.2381  0.1443  0.2333
 8837SOL    HW235114   5.598   5.150   4.420 -2.5095 -1.3034  0.2762
 8837SOL    HW335115   5.727   5.071   4.406  1.5096  4.3421  1.9646
 8837SOL    MW435116   5.648   5.082   4.442  0.0433  0.5071  0.4674
 8838SOL     OW35117   0.528   6.122   1.358 -0.0677 -0.0666 -0.1283
 8838SOL    HW235118   0.455   6.176   1.329 -1.6524 -2.9430 -1.9395
 8838SOL    HW335119   0.551   6.158   1.444 -3.0169  1.5341  0.1431
 8838SOL    MW435120   0.521   6.134   1.366 -0.6659 -0.2349 -0.3315
 8839SOL     OW35121   5.265   3.103   1.020  0.5675 -0.8336 -0.0580
 8839SOL    HW235122   5.289   3.195   1.030  1.9713 -1.1438 -0.3339
 8839SOL    HW335123   5.170   3.103   1.019  0.5457  0.5968  0.1427
 8839SOL    MW435124   5.256   3.115   1.021  0.7498 -0.6858 -0.0679
 8840SOL     OW35125   2.213   6.268   0.137  0.3872  0.4369  0.2132
 8840SOL    HW235126   2.177   6.340   0.086  0.8326  0.6476  0.1895
 8840SOL    HW335127   2.228   6.197   0.074 -0.7377  0.0530  0.3586
 8840SOL    MW435128   2.211   6.268   0.122  0.2976  0.4140  0.2293
 8841SOL     OW35129   5.546   2.804   3.530 -0.0448  0.0024  0.4488
 8841SOL    HW235130   5.567   2.792   3.437  1.3376  1.1585  0.5705
 8841SOL    HW335131   5.576   2.723   3.571  2.0219  0.5974  0.2421
 8841SOL    MW435132   5.553   2.791   3.523  0.4103  0.2335  0.4376
 8842SOL     OW35133   2.252   1.689   5.086  0.2722  0.0299 -0.2651
 8842SOL    HW235134   2.339   1.671   5.122  0.5968  0.7704 -0.6666
 8842SOL    HW335135   2.216   1.757   5.144  0.5173  0.7191 -0.9065
 8842SOL    MW435136   2.258   1.696   5.099  0.3473  0.2185 -0.4027
 8843SOL     OW35137   5.283   1.408   1.892 -0.2458  0.2511 -0.7736
 8843SOL    HW235138   5.351   1.420   1.825  3.6398 -0.4705  2.6043
 8843SOL    HW335139   5.271   1.313   1.897  0.7375  0.1701  0.5413
 8843SOL    MW435140   5.291   1.397   1.883  0.3966  0.1452 -0.1544
 8844SOL     OW35141   1.564   4.943   4.194  0.2324  0.1815  0.0319
 8844SOL    HW235142   1.469   4.933   4.198  0.0977  1.4940  1.1153
 8844SOL    HW335143   1.586   4.985   4.278  1.8228 -0.5202 -0.0090
 8844SOL    MW435144   1.554   4.947   4.206  0.4245  0.2621  0.1694
 8845SOL     OW35145   1.616   1.718   1.434 -0.3382 -0.5721  0.0715
 8845SOL    HW235146   1.524   1.727   1.412 -0.2248  0.1930 -0.1211
 8845SOL    HW335147   1.617   1.660   1.510 -0.9388 -0.9182 -0.1745
 8845SOL    MW435148   1.604   1.711   1.441 -0.4025 -0.5168  0.0136
 8846SOL     OW35149   2.552   0.245   4.859  0.2483 -0.2822  0.1937
 8846SOL    HW235150   2.514   0.224   4.944  0.1094  0.5246  0.3438
 8846SOL    HW335151   2.646   0.236   4.872  0.1609 -1.5863  0.0205
 8846SOL    MW435152   2.559   0.241   4.872  0.2184 -0.3478  0.1907
 8847SOL     OW35153   0.180   5.766   4.239 -0.1344  0.1991 -0.0418
 8847SOL    HW235154   0.231   5.847   4.246 -0.2501  0.1259  2.9055
 8847SOL    HW335155   0.239   5.705   4.196  0.6134  1.3574 -0.7256
 8847SOL    MW435156   0.195   5.769   4.235 -0.0510  0.3422  0.2568
 8848SOL     OW35157   2.219   4.777   0.527 -0.1185  0.1036  0.3461
 8848SOL    HW235158   2.202   4.739   0.613 -0.5247 -1.6041 -0.4597
 8848SOL    HW335159   2.314   4.776   0.518 -0.0935 -0.0567  0.6251
 8848SOL    MW435160   2.229   4.772   0.537 -0.1688 -0.1428  0.2766
 8849SOL     OW35161   2.681   4.403   1.330 -0.6177 -0.2392 -0.2890
 8849SOL    HW235162   2.661   4.443   1.414 -0.9176  0.5786 -0.7407
 8849SOL    HW335163   2.667   4.309   1.344  1.1403 -0.3521  1.0843
 8849SOL    MW435164   2.676   4.396   1.343 -0.4253 -0.1462 -0.1674
 8850SOL     OW35165   4.868   4.181   2.077  0.1908 -0.1267  0.2526
 8850SOL    HW235166   4.963   4.173   2.065 -0.0043 -0.9160 -0.9226
 8850SOL    HW335167   4.831   4.136   2.002 -1.1267  0.8535  0.2864
 8850SOL    MW435168   4.876   4.174   2.065 -0.0087 -0.1015  0.1020
 8851SOL     OW35169   0.772   1.916   1.673  0.5327  0.1461  0.3708
 8851SOL    HW235170   0.677   1.922   1.668  0.5653  0.6988  0.2845
 8851SOL    HW335171   0.791   1.905   1.766  0.3182 -1.5463  0.2341
 8851SOL    MW435172   0.762   1.916   1.685  0.5087 -0.0042  0.3414
 8852SOL     OW35173   3.583   4.383   2.692  0.0308 -0.0679  0.0015
 8852SOL    HW235174   3.590   4.391   2.788  1.9056 -1.0090 -0.0021
 8852SOL    HW335175   3.612   4.294   2.674 -0.9069 -0.1102 -1.4173
 8852SOL    MW435176   3.588   4.372   2.703  0.1545 -0.1976 -0.1862
 8853SOL     OW35177   2.118   1.955   0.165  0.1614 -0.4617 -0.0449
 8853SOL    HW235178   2.126   1.989   0.076 -2.0181 -2.3664 -1.0709
 8853SOL    HW335179   2.082   2.027   0.216  1.3776  0.6309 -0.6849
 8853SOL    MW435180   2.114   1.969   0.160  0.0343 -0.5688 -0.2647
 8854SOL     OW35181   6.209   0.452   3.553 -0.2279 -0.2046  0.1427
 8854SOL    HW235182   6.216   0.407   3.637 -0.5483 -0.2371  0.1537
 8854SOL    HW335183   6.115   0.456   3.536 -0.2458  0.9896  0.4277
 8854SOL    MW435184   6.198   0.447   3.562 -0.2726 -0.0513  0.1817
 8855SOL     OW35185   5.273   1.529   2.794 -0.1886 -0.0374 -0.1853
 8855SOL    HW235186   5.320   1.455   2.757 -0.6027 -0.1105 -0.5751
 8855SOL    HW335187   5.216   1.560   2.723  2.7498  3.1374 -1.4157
 8855SOL    MW435188   5.271   1.523   2.780  0.1444  0.3718 -0.3990
 8856SOL     OW35189   3.635   5.737   2.168  0.0820  0.0212  0.2279
 8856SOL    HW235190   3.688   5.816   2.183  0.1216  0.0032  0.1838
 8856SOL    HW335191   3.696   5.676   2.126  0.5937 -0.7285  2.0078
 8856SOL    MW435192   3.650   5.739   2.164  0.1547 -0.0801  0.4569
 8857SOL     OW35193   6.333   3.840   0.688 -0.4846  0.3343  0.0002
 8857SOL    HW235194   6.295   3.923   0.716 -0.2546  0.0725  1.1270
 8857SOL    HW335195   6.364   3.798   0.769 -2.5556 -1.8420 -0.2079
 8857SOL    MW435196   6.332   3.845   0.702 -0.7275  0.0126  0.1214
 8858SOL     OW35197   3.571   6.404   5.105  0.3656  0.3131  0.0910
 8858SOL    HW235198   3.642   6.414   5.042  1.4732 -0.7139  1.1095
 8858SOL    HW335199   3.586   6.474   5.169 -0.3532  0.9240 -0.3820
 8858SOL    MW435200   3.582   6.415   5.105  0.4169  0.2582  0.1630
 8859SOL     OW35201   0.584   2.857   1.739 -0.5527 -0.0169  0.4515
 8859SOL    HW235202   0.504   2.886   1.782 -1.0224  1.7604 -1.4375
 8859SOL    HW335203   0.554   2.818   1.656  0.5172  1.7685 -0.8536
 8859SOL    MW435204   0.569   2.856   1.734 -0.4735  0.4531  0.0301
 8860SOL     OW35205   4.253   3.449   5.886 -0.7104  0.2843 -0.3607
 8860SOL    HW235206   4.254   3.363   5.928 -0.8991  0.0226 -0.8929
 8860SOL    HW335207   4.232   3.510   5.957 -0.9780 -0.1492 -0.0653
 8860SOL    MW435208   4.251   3.446   5.901 -0.7706  0.1926 -0.3919
 8861SOL     OW35209   2.954   1.647   3.515 -0.2363  0.0140  0.5815
 8861SOL    HW235210   2.875   1.604   3.483 -1.4322  1.8034  0.9661
 8861SOL    HW335211   3.007   1.662   3.437  0.2133 -2.0787  0.4422
 8861SOL    MW435212   2.950   1.643   3.501 -0.3348 -0.0260  0.6138
 8862SOL     OW35213   5.842   0.333   2.544  0.1411  0.1713 -0.6905
 8862SOL    HW235214   5.764   0.332   2.488  0.7012  0.5476 -1.5023
 8862SOL    HW335215   5.826   0.402   2.607 -1.0820 -1.1456  0.4955
 8862SOL    MW435216   5.830   0.342   2.545  0.0536  0.0472 -0.6411
 8863SOL     OW35217   0.926   3.983   3.746  0.3344 -0.4674  0.9009
 8863SOL    HW235218   0.846   3.943   3.780  1.0485 -1.7395  1.1407
 8863SOL    HW335219   0.951   3.927   3.673  0.8699  0.0757  0.6609
 8863SOL    MW435220   0.919   3.971   3.741  0.4993 -0.5635  0.9009
 8864SOL     OW35221   0.851   2.106   2.417 -0.0444 -0.1021 -0.3558
 8864SOL    HW235222   0.826   2.067   2.501  0.8245 -1.0538 -0.5150
 8864SOL    HW335223   0.793   2.181   2.407 -0.3286 -0.1197  0.9800
 8864SOL    MW435224   0.840   2.111   2.427  0.0328 -0.2300 -0.2006
 8865SOL     OW35225   4.328   0.506   2.406  0.7771 -0.0433  0.1327
 8865SOL    HW235226   4.289   0.590   2.430  0.1246 -0.5037  0.7330
 8865SOL    HW335227   4.355   0.517   2.315  2.0818  1.3130  0.6319
 8865SOL    MW435228   4.327   0.518   2.397  0.8632  0.0749  0.2778
 8866SOL     OW35229   5.587   3.935   2.404  0.5577 -0.3715  0.1603
 8866SOL    HW235230   5.585   3.962   2.496  2.9019 -2.1146  0.8109
 8866SOL    HW335231   5.659   3.984   2.365  0.8580 -1.0941 -0.2212
 8866SOL    MW435232   5.596   3.945   2.411  0.9066 -0.6968  0.1958
 8867SOL     OW35233   1.083   3.449   3.249  0.2660  0.1949  0.3307
 8867SOL    HW235234   1.043   3.425   3.332  1.8268  2.0206  1.6823
 8867SOL    HW335235   1.156   3.388   3.239  0.8017  0.7427  0.9033
 8867SOL    MW435236   1.087   3.438   3.258  0.5426  0.5081  0.5846
 8868SOL     OW35237   4.883   0.769   2.208 -0.0500 -0.4808 -0.1471
 8868SOL    HW235238   4.917   0.787   2.296  1.2171 -0.7204 -0.5715
 8868SOL    HW335239   4.919   0.839   2.153 -0.0327 -0.8892 -0.6617
 8868SOL    MW435240   4.892   0.781   2.212  0.1194 -0.5663 -0.2710
 8869SOL     OW35241   2.198   1.072   4.464  0.5479 -0.4365 -0.0467
 8869SOL    HW235242   2.130   1.131   4.430  0.6501  0.3718  1.1023
 8869SOL    HW335243   2.247   1.044   4.386 -0.7004 -0.5427 -0.8225
 8869SOL    MW435244   2.195   1.076   4.449  0.3967 -0.3439  0.0026
 8870SOL     OW35245   1.865   5.362   1.472 -0.1450  0.2875 -0.0813
 8870SOL    HW235246   1.861   5.400   1.384 -0.5539  1.1575  0.3022
 8870SOL    HW335247   1.926   5.420   1.519  0.0933 -0.1920  0.2026
 8870SOL    MW435248   1.873   5.375   1.467 -0.1675  0.3390  0.0067
 8871SOL     OW35249   2.110   0.939   0.002 -0.3961  0.1332 -0.2972
 8871SOL    HW235250   2.068   0.855   0.018 -1.9609  1.0715  0.9230
 8871SOL    HW335251   2.169   0.924  -0.071  0.9716 -2.5124  1.2174
 8871SOL    MW435252   2.112   0.926  -0.006 -0.4221 -0.0920  0.0636
 8872SOL     OW35253   6.056   1.630   1.549 -0.6318 -0.1060 -0.0662
 8872SOL    HW235254   6.140   1.651   1.509 -1.0320  1.7230 -0.0320
 8872SOL    HW335255   6.057   1.674   1.634 -1.6403 -0.0006 -0.0896
 8872SOL    MW435256   6.067   1.639   1.555 -0.8177  0.1492 -0.0648
 8873SOL     OW35257   2.905   3.114   5.367  0.1191 -0.3022  0.4516
 8873SOL    HW235258   2.926   3.097   5.459 -0.5359  0.5841  0.7871
 8873SOL    HW335259   2.816   3.079   5.356 -0.7845  1.7298  0.8451
 8873SOL    MW435260   2.896   3.107   5.378 -0.0865  0.0828  0.5478
 8874SOL     OW35261   4.334   1.987   5.024 -0.2338 -0.1836  0.1162
 8874SOL    HW235262   4.345   1.964   5.116  1.6781  0.2617  0.0330
 8874SOL    HW335263   4.404   2.050   5.007  2.8250 -3.8924 -2.8666
 8874SOL    MW435264   4.345   1.993   5.034  0.4220 -0.6142 -0.2883
 8875SOL     OW35265   0.072   3.931   4.657 -0.2372  0.2044  0.4136
 8875SOL    HW235266   0.043   3.859   4.712 -0.4392  0.2586  0.3807
 8875SOL    HW335267   0.167   3.926   4.658 -0.2613 -0.8471 -0.6278
 8875SOL    MW435268   0.080   3.921   4.665 -0.2670  0.0728  0.2718
 8876SOL     OW35269   1.601   2.196   5.867  0.6967  0.2389  0.0082
 8876SOL    HW235270   1.580   2.105   5.846  0.1683  0.3823 -0.1068
 8876SOL    HW335271   1.696   2.200   5.865  0.8461 -0.8505  2.2319
 8876SOL    MW435272   1.611   2.185   5.864  0.6467  0.1141  0.2864
 8877SOL     OW35273   3.847   3.857   5.953  0.2387 -0.3062  0.1767
 8877SOL    HW235274   3.857   3.824   5.864 -0.4241 -0.6515  0.2268
 8877SOL    HW335275   3.824   3.950   5.942 -0.7383 -0.5636 -0.0475
 8877SOL    MW435276   3.845   3.865   5.940  0.0223 -0.3857  0.1537
 8878SOL     OW35277   3.483   6.380   3.538  0.7960 -0.0207  0.1221
 8878SOL    HW235278   3.464   6.289   3.515 -1.8068  0.6306 -0.6288
 8878SOL    HW335279   3.539   6.411   3.468  0.9497 -0.7978 -0.1066
 8878SOL    MW435280   3.488   6.372   3.526  0.4729 -0.0373 -0.0072
 8879SOL     OW35281   0.473   1.507   3.613 -0.0181  0.7956 -0.2007
 8879SOL    HW235282   0.393   1.465   3.583 -0.0472  0.2569  0.5971
 8879SOL    HW335283   0.483   1.584   3.557 -1.4326  1.2159  0.1032
 8879SOL    MW435284   0.464   1.512   3.602 -0.2086  0.7800 -0.0553
 8880SOL     OW35285   3.970   4.262   6.267 -0.1877 -0.7056 -0.1777
 8880SOL    HW235286   3.960   4.229   6.356  2.6864 -0.4796  0.3263
 8880SOL    HW335287   4.037   4.207   6.228  0.2503  0.6324 -1.4198
 8880SOL    MW435288   3.978   4.251   6.274  0.2493 -0.4993 -0.2751
 8881SOL     OW35289   1.213   3.398   4.183 -0.0295  0.0024  0.2708
 8881SOL    HW235290   1.249   3.387   4.271 -1.6946 -0.0811  0.9722
 8881SOL    HW335291   1.118   3.398   4.196 -0.3099 -0.3905 -1.5730
 8881SOL    MW435292   1.205   3.396   4.196 -0.2862 -0.0605  0.1200
 8882SOL     OW35293   3.132   2.063   2.336 -0.4956  0.7289 -0.1931
 8882SOL    HW235294   3.160   2.073   2.245  0.9506  0.4255  0.1907
 8882SOL    HW335295   3.214   2.053   2.385 -1.3037 -0.9487  0.9046
 8882SOL    MW435296   3.147   2.063   2.330 -0.4114  0.4675  0.0024
 8883SOL     OW35297   0.541   5.951   6.354 -0.0590  0.1094 -0.4508
 8883SOL    HW235298   0.465   5.960   6.296  0.4168 -0.0932 -1.1229
 8883SOL    HW335299   0.520   6.007   6.429 -0.8100  0.1662 -0.6888
 8883SOL    MW435300   0.528   5.960   6.356 -0.0953  0.0902 -0.5709
 8884SOL     OW35301   5.647   2.095   1.278 -0.0764 -0.2449 -0.0118
 8884SOL    HW235302   5.580   2.145   1.231 -1.5615 -3.4419 -1.6196
 8884SOL    HW335303   5.699   2.054   1.210  1.5739 -0.3113  1.2339
 8884SOL    MW435304   5.645   2.096   1.263 -0.0546 -0.6755 -0.0596
 8885SOL     OW35305   2.686   0.096   5.223 -0.2079 -0.7243  0.3668
 8885SOL    HW235306   2.748   0.147   5.172  0.7580 -1.2637  0.9887
 8885SOL    HW335307   2.699   0.006   5.194 -2.2011 -0.6336 -1.0361
 8885SOL    MW435308   2.696   0.091   5.213 -0.3434 -0.7835  0.2638
 8886NA      NA35309   5.125   3.281   2.889 -0.2483 -0.1681  0.3187
 8887NA      NA35310   5.380   3.044   0.547  0.0213  0.1544 -0.1554
 8888NA      NA35311   6.466   2.317   2.321  0.4343 -0.5381 -0.4781
 8889NA      NA35312   5.035   6.011   0.348 -0.1995 -0.1307  0.0455
 8890NA      NA35313   3.892   1.322   1.999 -0.0064 -0.8316 -0.0970
 8891NA      NA35314   5.050   3.575   3.665 -0.4909  0.2944  0.3220
 8892NA      NA35315   1.459   0.767   4.853  0.5477 -0.2955  0.2852
   6.42920   6.42920   6.42920
